/*--------------------------------*- C++ -*----------------------------------*\
  =========                 |
  \\      /  F ield         | OpenFOAM: The Open Source CFD Toolbox
   \\    /   O peration     | Website:  https://openfoam.org
    \\  /    A nd           | Version:  6
     \\/     M anipulation  |
\*---------------------------------------------------------------------------*/
FoamFile
{
    version     2.0;
    format      ascii;
    class       volScalarField;
    location    "251";
    object      pPrime2Mean;
}
// * * * * * * * * * * * * * * * * * * * * * * * * * * * * * * * * * * * * * //

dimensions      [0 4 -4 0 0 0 0];

internalField   nonuniform List<scalar> 
9200
(
0.044833221
0.037167987
0.030678214
0.026452882
0.023079878
0.020236647
0.017783008
0.015647458
0.013782403
0.012149732
0.010717891
0.0094604364
0.0083550508
0.0073827818
0.0065274545
0.0057752383
0.0051144256
0.004535247
0.0040304135
0.003590385
0.036368034
0.030093992
0.02484705
0.021397842
0.018630177
0.016290267
0.014267988
0.012507155
0.010969928
0.0096258141
0.0084493628
0.0074190528
0.0065165306
0.0057260248
0.0050338952
0.0044283116
0.0038990833
0.0034374233
0.0030351194
0.0026804585
0.028430449
0.023494539
0.019414807
0.016696453
0.014497572
0.012629369
0.011010523
0.0095996693
0.0083685698
0.007294137
0.0063567237
0.0055393479
0.0048271842
0.0042071876
0.0036678256
0.0031989017
0.0027914545
0.0024375665
0.0021292748
0.0018561397
0.0212406
0.017547451
0.014524147
0.012470482
0.010788187
0.0093475897
0.0080941146
0.007000318
0.0060470321
0.0052179874
0.0044987018
0.0038760826
0.0033382278
0.0028743163
0.0024745623
0.002130199
0.0018334602
0.0015774536
0.0013553734
0.0011593174
0.014996799
0.012412545
0.010306424
0.0088332926
0.0076019125
0.0065341739
0.0055994151
0.0047827544
0.0040731305
0.0034601195
0.002933464
0.0024831257
0.0020994587
0.0017734022
0.0014966531
0.0012617861
0.0010622922
0.00089250639
0.00074718901
0.00062103664
0.0098738048
0.0082290635
0.0068781246
0.0058862578
0.0050287509
0.004270225
0.0036003423
0.0030148992
0.0025095134
0.0020782903
0.001714059
0.0014089428
0.0011549316
0.00094435237
0.00077020221
0.0006263333
0.00050749723
0.00040928383
0.00032795879
0.00026024438
0.0060177543
0.0051123604
0.0043383063
0.0037165804
0.0031468812
0.0026268298
0.0021620977
0.0017567564
0.0014112888
0.0011228098
0.00088605734
0.00069449699
0.00054124747
0.00041974106
0.00032411963
0.00024940608
0.00019150625
0.00014712916
0.00011375616
8.947219e-05
0.0035424431
0.0031516229
0.0027667821
0.002395603
0.0020209363
0.0016631715
0.0013390589
0.0010581424
0.00082373952
0.00063443183
0.00048578982
0.00037194161
0.00028673531
0.00022446501
0.00018023144
0.00015004155
0.00013074656
0.00011993411
0.00011593246
0.00011761959
0.0025261676
0.0024073669
0.0022207835
0.0019751926
0.0016986804
0.0014237577
0.00117263
0.00095713842
0.00078132583
0.00064384053
0.00054023624
0.00046482186
0.00041188269
0.00037634433
0.00035402867
0.00034166016
0.00033674685
0.00033744979
0.00034255568
0.00035126888
0.0030083444
0.0029094189
0.0027314456
0.0024843553
0.0022078009
0.0019350879
0.0016876789
0.0014764181
0.0013041315
0.001168433
0.0010642769
0.00098583018
0.00092756907
0.00088478211
0.00085370041
0.00083142402
0.00081577125
0.00080513472
0.00079837621
0.00079462653
0.10636629
0.089458494
0.073935275
0.064119385
0.056325402
0.049783385
0.044150967
0.039243442
0.03494646
0.031170152
0.027841099
0.024898517
0.022291494
0.019976991
0.017918357
0.016084202
0.014447508
0.012984081
0.011671199
0.010495722
0.10501236
0.088233216
0.072887773
0.063184636
0.055488294
0.049029672
0.043469428
0.038625897
0.03438604
0.030660852
0.02737761
0.024476116
0.021905964
0.019624555
0.017595629
0.015788155
0.014175468
0.012733729
0.011440085
0.01028185
0.10225066
0.085807354
0.070846038
0.061384193
0.053887757
0.047598187
0.042183445
0.037467556
0.033340448
0.029715256
0.026520956
0.023698736
0.021199349
0.018981187
0.017008849
0.015252059
0.013684878
0.01228417
0.011027159
0.009901387
0.098129446
0.082239824
0.067869061
0.058773942
0.051574389
0.045534745
0.040334959
0.035807095
0.031845531
0.028366741
0.025302362
0.022595746
0.020199437
0.018073341
0.016183349
0.014500298
0.012999258
0.011658121
0.010454565
0.0093759809
0.092761236
0.077631852
0.064043069
0.055431008
0.04861738
0.042901728
0.037980621
0.033696251
0.029948754
0.026659023
0.023762236
0.021204622
0.018941104
0.016933582
0.015149634
0.013561526
0.012145553
0.010880864
0.0097462405
0.0087287517
0.086298964
0.072117512
0.059479896
0.05145393
0.045104523
0.039777788
0.03519121
0.031198921
0.027707968
0.024644599
0.021948312
0.019568849
0.017464037
0.015598199
0.01394096
0.012466292
0.011151876
0.0099782406
0.0089259855
0.0079822465
0.078928312
0.065857598
0.054311916
0.046958277
0.041138263
0.036254315
0.032048516
0.028388427
0.025188989
0.022382612
0.019913771
0.017736275
0.01581132
0.014106056
0.012592479
0.011246538
0.010047468
0.0089771846
0.008018636
0.0071598682
0.070860981
0.059033921
0.048687793
0.04207308
0.036832532
0.032432569
0.028642781
0.025345282
0.022463697
0.019937244
0.01771592
0.015758072
0.014028679
0.012498074
0.01114095
0.0099355216
0.0088628237
0.0079062397
0.0070513709
0.0062880144
0.062327036
0.051842535
0.042767099
0.036936114
0.032308516
0.028419936
0.025069395
0.02215425
0.019607411
0.017375408
0.015414195
0.013687039
0.012163044
0.010816038
0.0096236974
0.0085667981
0.0076285195
0.0067940394
0.006051962
0.0053938871
0.053566568
0.044488247
0.036714621
0.031687886
0.027688822
0.024324429
0.021423827
0.01889985
0.016695056
0.014763621
0.013067736
0.011575827
0.010261323
0.0091017318
0.0080779038
0.0071734408
0.0063742228
0.0056683476
0.005048407
0.0045063748
0.0092557158
0.0080195654
0.0069715368
0.0060617823
0.0052847105
0.0046191921
0.0040468924
0.0035520832
0.0031219776
0.002746192
0.0024163172
0.0021256166
0.0018686825
0.0016411179
0.0014392976
0.0012601941
0.0011012444
0.00096024914
0.00083529863
0.00072471741
0.00062702204
0.00054088868
0.00046512802
0.00039866568
0.00034052713
0.00028982595
0.00024575456
0.00020757687
0.00017462237
0.00014628118
0.00012199986
0.00010127764
8.3663045e-05
6.8750614e-05
5.617783e-05
4.5622006e-05
3.6797414e-05
2.9452171e-05
2.3365698e-05
1.8345201e-05
1.4224828e-05
1.0858214e-05
8.1289796e-06
5.9157512e-06
4.1705912e-06
2.7335909e-06
1.738681e-06
8.0025154e-07
1.0531826e-06
1.7459346e-06
0.0090761976
0.0078810292
0.0068629724
0.0059762428
0.0052180777
0.0045678219
0.0040073239
0.0035214492
0.0030980647
0.0027273055
0.0024011954
0.0021133543
0.001858638
0.0016328296
0.001432426
0.0012544826
0.0010964929
0.0009562974
0.00083201535
0.00072199347
0.00062476597
0.00053902347
0.00046358873
0.0003973976
0.00033948424
0.00028896963
0.00024505251
0.00020700215
0.00017415257
0.00014589772
0.00012168736
0.00010102342
8.3456652e-05
6.8583435e-05
5.6042788e-05
4.5513285e-05
3.6710234e-05
2.9382605e-05
2.3310524e-05
1.8301773e-05
1.4190979e-05
1.0832175e-05
8.1093075e-06
5.9012988e-06
4.1604236e-06
2.7269737e-06
1.7351833e-06
7.9817514e-07
1.0469205e-06
1.7122875e-06
0.0087603054
0.0076388804
0.0066750728
0.0058305819
0.0051063751
0.0044830393
0.0039429904
0.0034722784
0.0030600666
0.0026975177
0.0023774696
0.0020941829
0.0018429717
0.0016199252
0.0014217424
0.0012456137
0.0010891235
0.00095017516
0.00082693396
0.00071778158
0.00062128001
0.00053614266
0.00046121139
0.00039543826
0.00033787118
0.00028764289
0.00024396211
0.00020610658
0.00017341747
0.00014529471
0.00012119308
0.00010061864
8.3125577e-05
6.8313102e-05
5.5822542e-05
4.5334365e-05
3.6565425e-05
2.926596e-05
2.3217129e-05
1.8227572e-05
1.4132619e-05
1.078689e-05
8.0748313e-06
5.8757944e-06
4.1424114e-06
2.715221e-06
1.7290632e-06
7.9451635e-07
1.034406e-06
1.646563e-06
0.0083274533
0.0073080881
0.0064213412
0.0056378792
0.0049612855
0.0043745051
0.0038615689
0.0034105019
0.0030124788
0.0026602415
0.002347784
0.002070206
0.0018234006
0.0016038354
0.0014084557
0.001234616
0.0010800131
0.00094262952
0.00082068906
0.00071261859
0.00061701633
0.00053262536
0.00045831237
0.00039305043
0.00033590524
0.0002860246
0.00024262996
0.00020500981
0.00017251429
0.00014455081
0.00012058036
0.00010011409
8.271038e-05
6.7971841e-05
5.5542571e-05
4.5105288e-05
3.6378666e-05
2.9114425e-05
2.3094932e-05
1.8129819e-05
1.4055235e-05
1.0726488e-05
8.028611e-06
5.8414646e-06
4.118109e-06
2.6993884e-06
1.7208451e-06
7.8972175e-07
1.0156328e-06
1.5521285e-06
0.0077967224
0.0069038885
0.0061156644
0.0054114411
0.0047945204
0.0042515342
0.0037700937
0.0033413371
0.0029591664
0.0026184047
0.0023144518
0.0020433309
0.0018015458
0.0015859635
0.0013937915
0.001222562
0.0010700976
0.0009344731
0.00081398218
0.00070710645
0.0006124882
0.00052890663
0.00045525836
0.00039054146
0.00033384266
0.0002843273
0.00024123151
0.00020385593
0.00017156081
0.00014376185
0.00011992679
9.9572297e-05
8.2261187e-05
6.7599641e-05
5.5234611e-05
4.4851104e-05
3.6169615e-05
2.8943334e-05
2.2955811e-05
1.8017645e-05
1.3965786e-05
1.0656209e-05
7.9745339e-06
5.8011352e-06
4.0894858e-06
2.6808082e-06
1.7111718e-06
7.8436316e-07
9.9077968e-07
1.4339292e-06
0.0071844055
0.0064401197
0.0057705586
0.0051620869
0.0046146295
0.0041200937
0.0036724327
0.0032673639
0.0029020229
0.0025735504
0.0022788408
0.0020148277
0.0017785998
0.0015674215
0.001378774
0.0012103829
0.0010602136
0.00092644905
0.00080746681
0.00070181468
0.00060818797
0.00052540895
0.00045240939
0.00038821627
0.00033194011
0.00028276581
0.00023994551
0.00020279293
0.00017067889
0.00014302763
0.00011931371
9.9059209e-05
8.1831191e-05
6.7239179e-05
5.4932718e-05
4.4598834e-05
3.5959584e-05
2.8769387e-05
2.2812759e-05
1.7901077e-05
1.3871934e-05
1.0581842e-05
7.9169012e-06
5.7579353e-06
4.0587121e-06
2.660939e-06
1.7007168e-06
7.7905045e-07
9.6013585e-07
1.2979676e-06
0.0065064101
0.0059306234
0.0053971669
0.0048963442
0.0044244022
0.0039807381
0.0035681502
0.003188106
0.0028410049
0.0025261117
0.0022417299
0.0019856805
0.00175564
0.0015492979
0.0013644494
0.0011990522
0.0010512461
0.00091934864
0.00080184107
0.00069735253
0.00060464249
0.00052258426
0.00045015038
0.00038640051
0.00033047142
0.00028156904
0.00023896228
0.00020197818
0.000169998
0.00014245413
0.00011882742
9.8644736e-05
8.1476749e-05
6.6935651e-05
5.4672943e-05
4.4377072e-05
3.5771118e-05
2.8610242e-05
2.2679504e-05
1.7790698e-05
1.3781753e-05
1.0509467e-05
7.8602102e-06
5.7151134e-06
4.0280167e-06
2.6412597e-06
1.6901279e-06
7.7437042e-07
9.2409276e-07
1.150738e-06
0.0057825648
0.005391209
0.0050040372
0.0046132763
0.0042179464
0.0038273108
0.0034526974
0.0031008686
0.0027750083
0.0024761247
0.0022038385
0.0019569536
0.0017338647
0.0015327991
0.0013519594
0.0011896099
0.0010441197
0.00091397905
0.00079780055
0.00069431337
0.00060235377
0.0005208543
0.00044883346
0.0003853866
0.00032967819
0.00028093565
0.00023844443
0.00020154415
0.00016962557
0.00014212809
0.00011853765
9.8384689e-05
8.1242308e-05
6.6724281e-05
5.4483056e-05
4.4207595e-05
3.5621191e-05
2.8479045e-05
2.2566154e-05
1.7694213e-05
1.370106e-05
1.0443417e-05
7.8076258e-06
5.6749288e-06
3.9989067e-06
2.6227514e-06
1.679725e-06
7.7070958e-07
8.8309393e-07
9.9876078e-07
0.0050325348
0.0048286858
0.0045821727
0.0042923647
0.0039729683
0.0036416201
0.0033128738
0.0029962604
0.0026972464
0.0024185953
0.0021614068
0.0019257353
0.0017109588
0.0015160471
0.0013397591
0.0011807725
0.0010377621
0.00090944354
0.00079459622
0.00069207354
0.00060080477
0.00051979261
0.00044810872
0.0003848889
0.00032932843
0.00028067808
0.00023824092
0.00020136968
0.0001694647
0.00014197224
0.00011838292
9.8230264e-05
8.1089228e-05
6.657456e-05
5.4339049e-05
4.4071589e-05
3.5495139e-05
2.8364449e-05
2.2464009e-05
1.760503e-05
1.3624929e-05
1.0380085e-05
7.7565606e-06
5.6355782e-06
3.9701343e-06
2.6046057e-06
1.6688138e-06
7.6788231e-07
8.3778691e-07
8.4872864e-07
0.0042862045
0.0042258141
0.0040915607
0.0038965
0.0036610904
0.0034021567
0.0031320162
0.0028610036
0.0025968615
0.0023445617
0.0021070573
0.0018859717
0.0016819612
0.0014949807
0.0013245279
0.0011698298
0.001029966
0.00090394908
0.00079077664
0.00068946283
0.00059905629
0.00051864904
0.00044738007
0.00038443622
0.00032905161
0.00028050651
0.00023812627
0.00020128026
0.00016938109
0.00014188376
0.00011828498
9.8122292e-05
8.0973093e-05
6.6453427e-05
5.4216562e-05
4.3951322e-05
3.5380258e-05
2.8257525e-05
2.2366954e-05
1.7519099e-05
1.3550805e-05
1.0317951e-05
7.7062019e-06
5.5966663e-06
3.9415571e-06
2.5866925e-06
1.6573038e-06
7.657082e-07
7.8988718e-07
7.0768146e-07
0.00347429
0.003496853
0.0034540256
0.0033496457
0.0032030203
0.0030264199
0.0028282956
0.0026178533
0.0024035828
0.0021917335
0.0019866248
0.0017912435
0.0016075083
0.0014364639
0.0012785112
0.0011336109
0.0010014288
0.00088143957
0.00077300247
0.00067541353
0.00058794072
0.00050984671
0.00044040353
0.00037890194
0.00032465745
0.00027701425
0.00023534797
0.00019906766
0.00016761714
0.00014047613
0.00011716076
9.722392e-05
8.0255069e-05
6.587974e-05
5.3758651e-05
4.3586485e-05
3.5090387e-05
2.8028139e-05
2.2186425e-05
1.7378087e-05
1.3441745e-05
1.0234858e-05
7.6439753e-06
5.5519588e-06
3.9099485e-06
2.5683938e-06
1.6440059e-06
7.6442772e-07
7.4002507e-07
5.834929e-07
0.0026931184
0.0027615457
0.0027759437
0.0027362221
0.0026577725
0.0025495776
0.002416638
0.0022660275
0.0021053311
0.0019405288
0.0017760852
0.0016154385
0.0014611234
0.0013148466
0.001177654
0.0010501025
0.00093238908
0.00082444948
0.00072603625
0.00063677771
0.00055622071
0.00048386124
0.00041916634
0.00036158976
0.00031058341
0.0002656058
0.00022612846
0.00019164089
0.00016165451
0.00013570572
0.00011335817
9.4204475e-05
7.7867276e-05
6.3999708e-05
5.2285397e-05
4.2437975e-05
3.4200205e-05
2.7342707e-05
2.1662653e-05
1.69815e-05
1.314473e-05
1.0015742e-05
7.4849507e-06
5.4405348e-06
3.8328758e-06
2.5223835e-06
1.6112988e-06
7.5679462e-07
6.7633642e-07
4.6534286e-07
0.0020212259
0.002119869
0.0021743032
0.0021843068
0.0021593126
0.0021058664
0.0020270394
0.0019278535
0.0018145427
0.0016924456
0.0015658035
0.0014381285
0.0013122485
0.0011902849
0.0010737444
0.00096364621
0.00086062589
0.00076501848
0.00067693029
0.00059629769
0.00052293264
0.00045655749
0.0003968316
0.00034337176
0.0002957678
0.00025359488
0.00021642308
0.00018382516
0.00015538277
0.00013069146
0.00010936464
9.1036685e-05
7.5365133e-05
6.203225e-05
5.074587e-05
4.1239671e-05
3.3272961e-05
2.6629962e-05
2.1118963e-05
1.6570558e-05
1.2837488e-05
9.7894619e-06
7.3209162e-06
5.3258041e-06
3.753259e-06
2.4752259e-06
1.5761307e-06
7.5015934e-07
6.0704714e-07
3.5431754e-07
0.0014565217
0.0015708527
0.0016499333
0.0016944698
0.0017086857
0.0016969157
0.0016611656
0.0016047055
0.0015321553
0.0014479084
0.0013557056
0.0012588249
0.0011600884
0.0010617829
0.00096567942
0.0008731086
0.00078503226
0.00070210508
0.00062473263
0.00055312336
0.00048733177
0.00042729353
0.0003728538
0.00032379009
0.00027983063
0.00024066934
0.00020597789
0.00017541573
0.00014863828
0.00012530369
0.00010507832
8.7641204e-05
7.2687382e-05
5.9930506e-05
4.9104567e-05
3.9964953e-05
3.2288908e-05
2.5875426e-05
2.0544874e-05
1.6137765e-05
1.2514734e-05
9.5523145e-06
7.149341e-06
5.2059195e-06
3.6699539e-06
2.4257133e-06
1.5382544e-06
7.4337621e-07
5.3715753e-07
2.5915244e-07
0.0010023477
0.0011174444
0.0012069727
0.0012715523
0.0013115586
0.0013291821
0.0013256101
0.0013027484
0.0012636382
0.0012115587
0.0011495556
0.0010804521
0.0010068215
0.00093088967
0.00085449868
0.00077913229
0.000705953
0.00063583921
0.0005694249
0.0005071398
0.00044924565
0.00039586782
0.00034702222
0.00030263827
0.00026257813
0.00022665294
0.00019463642
0.00016627635
0.00014130431
0.00011944376
0.00010041686
8.3950025e-05
6.9778406e-05
5.76494e-05
4.7325263e-05
3.8584939e-05
3.1225204e-05
2.5061173e-05
1.992643e-05
1.5672346e-05
1.2168228e-05
9.298046e-06
6.9655566e-06
5.0773766e-06
3.5804943e-06
2.3718724e-06
1.4967179e-06
7.3519113e-07
4.695155e-07
1.8442519e-07
0.00065450881
0.00075839291
0.00084641907
0.00091836333
0.00097215782
0.0010081067
0.0010265419
0.0010282944
0.0010150511
0.00098896506
0.00095227874
0.00090722153
0.00085594978
0.00080044772
0.00074246021
0.00068347567
0.00062473182
0.00056722869
0.00051174866
0.00045888155
0.00040905082
0.00036253846
0.0003195079
0.00028002463
0.00024407451
0.00021157971
0.00018241275
0.00015640857
0.00013337506
0.0001131021
9.5369206e-05
7.9952094e-05
6.6627982e-05
5.5179958e-05
4.5400376e-05
3.7093414e-05
3.0076871e-05
2.4183292e-05
1.9260601e-05
1.5171972e-05
1.1796188e-05
9.0252737e-06
6.7684929e-06
4.9392706e-06
3.4842177e-06
2.3129429e-06
1.451359e-06
7.2470017e-07
4.0646056e-07
1.3171746e-07
0.0004017248
0.00048704612
0.00056494778
0.00063431053
0.0006918832
0.00073661266
0.00076800101
0.00078601178
0.0007912558
0.00078487241
0.0007682892
0.00074308205
0.00071089229
0.00067333738
0.00063193254
0.00058804481
0.00054287258
0.00049743811
0.00045258931
0.0004090093
0.00036723066
0.00032765159
0.00029055267
0.00025611325
0.00022442703
0.00019551635
0.00016934539
0.00014583189
0.00012485778
0.00010627845
8.9930967e-05
7.5641083e-05
6.3229261e-05
5.2515649e-05
4.3324138e-05
3.5485545e-05
2.8840031e-05
2.3238774e-05
1.8545118e-05
1.4634968e-05
1.1397388e-05
8.7330902e-06
6.5574754e-06
4.7910294e-06
3.3807338e-06
2.248394e-06
1.4022701e-06
7.1108504e-07
3.4979172e-07
9.9770754e-08
0.0002294037
0.00029304561
0.00035570111
0.00041568376
0.0004694944
0.00051533272
0.00055206267
0.0005789901
0.00059592944
0.00060319416
0.00060147008
0.00059169355
0.00057496498
0.00055246917
0.00052540172
0.00049491258
0.00046206692
0.00042782113
0.00039301014
0.00035834318
0.00032440619
0.0002916685
0.00026049214
0.00023114269
0.00020380073
0.00017857332
0.00015550514
0.00013458905
0.00011577588
9.8983465e-05
8.4104711e-05
7.1014835e-05
5.957764e-05
4.9650917e-05
4.1090956e-05
3.375623e-05
2.751031e-05
2.2224048e-05
1.7777173e-05
1.405919e-05
1.0970234e-05
8.420321e-06
6.3316548e-06
4.6320024e-06
3.269637e-06
2.1777781e-06
1.3496528e-06
6.9370596e-07
3.0055153e-07
8.4797945e-08
0.00012227742
0.00016420099
0.00020948768
0.00025626092
0.00030133331
0.00034267228
0.00037879524
0.00040859081
0.00043134331
0.00044676081
0.00045492346
0.00045620219
0.00045118747
0.00044062439
0.0004253491
0.0004062336
0.00038414161
0.00035989422
0.00033424613
0.00030787108
0.00028135416
0.0002551896
0.00022978244
0.00020545326
0.00018244467
0.00016092904
0.00014101679
0.00012276486
0.00010618506
9.1252086e-05
7.7911038e-05
6.6084334e-05
5.5677937e-05
4.6586848e-05
3.8699854e-05
3.1903523e-05
2.608548e-05
2.1136988e-05
1.695494e-05
1.3443178e-05
1.0513624e-05
8.0861734e-06
6.0904934e-06
4.4618316e-06
3.1507748e-06
2.1009654e-06
1.2939138e-06
6.7231478e-07
2.5909074e-07
8.1444984e-08
6.5935761e-05
8.8057625e-05
0.00011608539
0.00014823392
0.00018188782
0.00021513137
0.00024642042
0.00027446849
0.00029827192
0.00031715396
0.00033075815
0.00033900741
0.0003420577
0.00034025193
0.00033407219
0.00032409238
0.00031093635
0.00029524247
0.00027763453
0.00025869997
0.00023897504
0.00021893531
0.00019899078
0.00017948446
0.00016069394
0.00014283478
0.00012606549
0.00011049324
9.6180209e-05
8.3150059e-05
7.1394341e-05
6.0878681e-05
5.1548562e-05
4.3334592e-05
3.6157216e-05
2.9930807e-05
2.4567133e-05
1.9978204e-05
1.6078547e-05
1.2786884e-05
1.0027491e-05
7.7306401e-06
5.8340637e-06
4.2806718e-06
3.0244038e-06
2.0182552e-06
1.2356795e-06
6.4712487e-07
2.2522696e-07
8.4103133e-08
4.770985e-05
5.2981618e-05
6.5304633e-05
8.3144361e-05
0.00010452377
0.00012783258
0.00015167389
0.00017478749
0.00019608442
0.00021470036
0.00023001469
0.00024164029
0.00024940241
0.00025331294
0.00025353989
0.00025037338
0.00024419114
0.00023542671
0.0002245414
0.00021200015
0.00019825245
0.00018371814
0.00016877743
0.00015376464
0.00013896498
0.00012461394
0.00011089864
9.7960589e-05
8.5899612e-05
7.4778326e-05
6.4627079e-05
5.5448993e-05
4.7224931e-05
3.991824e-05
3.3479135e-05
2.7848656e-05
2.2962131e-05
1.8752126e-05
1.5150885e-05
1.209225e-05
9.5132116e-06
7.3547746e-06
5.5632332e-06
4.0893074e-06
2.8912591e-06
1.9304067e-06
1.1757702e-06
6.1879038e-07
1.9842581e-07
8.8137219e-08
5.7022799e-05
4.8750323e-05
4.7696394e-05
5.2633582e-05
6.218006e-05
7.5097859e-05
9.0251952e-05
0.00010654406
0.00012294956
0.00013857422
0.00015268585
0.00016472344
0.00017429567
0.00018117327
0.00018527498
0.0001866477
0.00018544313
0.0001818931
0.00017628592
0.00016894437
0.00016020619
0.00015040774
0.00013987116
0.00012889462
0.00011774565
0.0001066569
9.5824232e-05
8.540656e-05
7.5527171e-05
6.6276081e-05
5.7713169e-05
4.9871787e-05
4.2762628e-05
3.6377636e-05
3.0693818e-05
2.5676822e-05
2.1284188e-05
1.7468234e-05
1.4178515e-05
1.1363863e-05
8.974058e-06
6.9609878e-06
5.2798427e-06
3.8892377e-06
2.7525795e-06
1.8385948e-06
1.1151261e-06
5.8827109e-07
1.7790081e-07
9.0618466e-08
8.5377804e-05
6.6776926e-05
5.4947461e-05
4.895806e-05
4.7926208e-05
5.0975687e-05
5.7268697e-05
6.5936886e-05
7.6112223e-05
8.6980508e-05
9.7816444e-05
0.00010800199
0.00011703708
0.00012454508
0.00013027207
0.00013407976
0.00013593339
0.00013588637
0.00013406323
0.00013064225
0.00012583857
0.00011988873
0.00011303701
0.00010552425
9.7578923e-05
8.9410443e-05
8.1204624e-05
7.3120982e-05
6.5291636e-05
5.7821526e-05
5.0789664e-05
4.4251153e-05
3.8239734e-05
3.2770656e-05
2.7843679e-05
2.3446058e-05
1.95554e-05
1.614229e-05
1.3172633e-05
1.0609675e-05
8.4157052e-06
6.5533847e-06
4.9869105e-06
3.6827743e-06
2.6101341e-06
1.7443569e-06
1.0547512e-06
5.5667613e-07
1.6266988e-07
9.0394762e-08
0.00012615484
0.00010010135
8.0038889e-05
6.5287324e-05
5.5350656e-05
4.9662901e-05
4.7666014e-05
4.8735411e-05
5.2200451e-05
5.738998e-05
6.366458e-05
7.0436793e-05
7.7186981e-05
8.3476185e-05
8.8954242e-05
9.3362336e-05
9.6530507e-05
9.8371141e-05
9.8869536e-05
9.8072475e-05
9.6075806e-05
9.3011832e-05
8.9037222e-05
8.4322011e-05
7.904009e-05
7.33613e-05
6.7445231e-05
6.1436633e-05
5.5462397e-05
4.9629858e-05
4.4026283e-05
3.8719282e-05
3.3757971e-05
2.9174653e-05
2.4986864e-05
2.1199597e-05
1.7807575e-05
1.4797476e-05
1.2149998e-05
9.8417264e-06
7.8467707e-06
6.1381376e-06
4.6888681e-06
3.4731584e-06
2.4662591e-06
1.6495374e-06
9.9567097e-07
5.2510636e-07
1.5159501e-07
8.7611549e-08
0.00017432485
0.00014324527
0.00011724086
9.5828042e-05
7.8789007e-05
6.5801248e-05
5.6541182e-05
5.0606516e-05
4.7526073e-05
4.6795406e-05
4.7902901e-05
5.0347311e-05
5.3653611e-05
5.738817e-05
6.1171199e-05
6.4685138e-05
6.767894e-05
6.9968655e-05
7.1434815e-05
7.2017158e-05
7.170736e-05
7.0540493e-05
6.8585877e-05
6.5937904e-05
6.2707363e-05
5.9013603e-05
5.4977763e-05
5.0717221e-05
4.6341262e-05
4.1947985e-05
3.7622303e-05
3.3434936e-05
2.9442237e-05
2.5686689e-05
2.2197907e-05
1.8994e-05
1.6083149e-05
1.3465277e-05
1.1133718e-05
9.0768076e-06
7.2793409e-06
5.7238809e-06
4.3918348e-06
3.2647274e-06
2.3239454e-06
1.556293e-06
9.3895936e-07
4.9457548e-07
1.4349711e-07
8.3031677e-08
0.00022615127
0.00019200464
0.00016200853
0.00013582504
0.00011342206
9.4654504e-05
7.9378602e-05
6.7374923e-05
5.8349571e-05
5.1960244e-05
4.7835282e-05
4.5586427e-05
4.4821677e-05
4.5159238e-05
4.624059e-05
4.7741212e-05
4.9378542e-05
5.0917183e-05
5.2171383e-05
5.3004927e-05
5.332876e-05
5.3096755e-05
5.2300169e-05
5.0961264e-05
4.9126573e-05
4.6860229e-05
4.42377e-05
4.1340163e-05
3.8249701e-05
3.5045379e-05
3.1800265e-05
2.8579319e-05
2.54381e-05
2.2422181e-05
1.9567156e-05
1.6899113e-05
1.4435445e-05
1.2185898e-05
1.015373e-05
8.3369282e-06
6.7293886e-06
5.3220546e-06
4.1038805e-06
3.0630972e-06
2.1869563e-06
1.4671435e-06
8.8581216e-07
4.6600139e-07
1.3733254e-07
7.748847e-08
0.00027891804
0.00024322839
0.00021082864
0.00018148524
0.00015527929
0.00013218602
0.00011218898
9.5207032e-05
8.1089754e-05
6.9635569e-05
6.0604401e-05
5.3725405e-05
4.8705673e-05
4.5241066e-05
4.3027519e-05
4.1771421e-05
4.1198589e-05
4.1061615e-05
4.1145355e-05
4.1270397e-05
4.1294503e-05
4.1112184e-05
4.0652684e-05
3.9876689e-05
3.8772131e-05
3.7349443e-05
3.5636607e-05
3.3674301e-05
3.1511354e-05
2.920072e-05
2.6796044e-05
2.4348916e-05
2.1906786e-05
1.9511536e-05
1.7198631e-05
1.4996777e-05
1.292799e-05
1.1007979e-05
9.2467607e-06
7.6494211e-06
6.2169442e-06
4.947094e-06
3.8352024e-06
2.8753093e-06
2.0599458e-06
1.3850606e-06
8.3765861e-07
4.402683e-07
1.3238635e-07
7.1631521e-08
0.00033069813
0.00029461014
0.00026105113
0.00022986101
0.00020118119
0.00017506218
0.00015157023
0.00013072079
0.00011247061
9.6729975e-05
8.3370389e-05
7.2228024e-05
6.310843e-05
5.5793708e-05
5.0050916e-05
4.5640515e-05
4.2324482e-05
3.9873792e-05
3.8074987e-05
3.673547e-05
3.5687371e-05
3.4789873e-05
3.3930086e-05
3.3022565e-05
3.2007699e-05
3.0849191e-05
2.9530914e-05
2.8053397e-05
2.6430197e-05
2.4684351e-05
2.2845095e-05
2.0944955e-05
1.9017301e-05
1.7094393e-05
1.5205918e-05
1.3378e-05
1.1632615e-05
9.9873729e-06
8.455579e-06
7.0465157e-06
5.7658795e-06
4.616344e-06
3.5981154e-06
2.7098625e-06
1.9485113e-06
1.3135342e-06
7.9625303e-07
4.1830625e-07
1.2837962e-07
6.5902733e-08
0.00038016514
0.00034450617
0.00031072698
0.0002787192
0.00024864829
0.00022060698
0.00019470949
0.0001710329
0.00014960792
0.00013042705
0.00011344879
9.8598e-05
8.5767452e-05
7.4821655e-05
6.5602212e-05
5.7933711e-05
5.1629957e-05
4.6500294e-05
4.2355783e-05
3.9014848e-05
3.6308139e-05
3.4082405e-05
3.2203281e-05
3.0556938e-05
2.9050653e-05
2.7612396e-05
2.6189585e-05
2.4747195e-05
2.3265426e-05
2.1737112e-05
2.0165056e-05
1.8559448e-05
1.6935472e-05
1.5311201e-05
1.3705827e-05
1.2138257e-05
1.0626057e-05
9.1847352e-06
7.8273219e-06
6.5642036e-06
5.40316e-06
4.3495838e-06
3.4067643e-06
2.5765547e-06
1.8591225e-06
1.2565701e-06
7.6370992e-07
4.0115293e-07
1.2545236e-07
6.0598232e-08
0.00042644353
0.00039178322
0.00035846326
0.00032641234
0.00029579685
0.0002667289
0.00023934554
0.00021375847
0.00019004493
0.00016825311
0.00014840417
0.00013049077
0.00011447637
0.00010029657
8.7861787e-05
7.7060667e-05
6.7764166e-05
5.9830092e-05
5.3108021e-05
4.7444244e-05
4.2686513e-05
3.8688334e-05
3.5312648e-05
3.2434744e-05
2.9944352e-05
2.7746871e-05
2.5763797e-05
2.3932408e-05
2.220485e-05
2.0546737e-05
1.893543e-05
1.7358141e-05
1.5809966e-05
1.4291998e-05
1.2809566e-05
1.1370695e-05
9.9848071e-06
8.6616839e-06
7.4106863e-06
6.2402209e-06
5.1574229e-06
4.1680462e-06
3.2764665e-06
2.4860629e-06
1.7988714e-06
1.218569e-06
7.4244392e-07
3.8996128e-07
1.2403849e-07
5.5916307e-08
0.0004689915
0.00043569447
0.0004032988
0.00037176081
0.00034123414
0.0003118356
0.00028370798
0.00025697824
0.00023174915
0.000208103
0.00018610233
0.00016578761
0.00014717525
0.00013025723
0.00011500184
0.00010135505
8.9242636e-05
7.857285e-05
6.9239766e-05
6.1126964e-05
5.4111427e-05
4.8067424e-05
4.2870219e-05
3.8399408e-05
3.454178e-05
3.1193575e-05
2.8262115e-05
2.5666777e-05
2.3339348e-05
2.1223833e-05
1.9275797e-05
1.7461351e-05
1.5755895e-05
1.4142717e-05
1.2611546e-05
1.1157155e-05
9.7780572e-06
8.4753633e-06
7.2518091e-06
6.1109817e-06
5.0567371e-06
4.0928172e-06
3.2225976e-06
2.4491948e-06
1.7749913e-06
1.2040474e-06
7.350006e-07
3.8594031e-07
1.2470273e-07
5.1977934e-08
0.0005075086
0.00047577906
0.00044459977
0.00041394873
0.00038395986
0.00035474585
0.0003264446
0.00029918533
0.00027308135
0.00024823274
0.00022472644
0.0002026336
0.00018200714
0.00016288041
0.00014526662
0.00012915884
0.0001145305
0.00010133656
8.9515286e-05
7.8990531e-05
6.9674464e-05
6.1470547e-05
5.4276675e-05
4.7988275e-05
4.2501268e-05
3.7714723e-05
3.3533138e-05
2.9868252e-05
2.6640361e-05
2.3779129e-05
2.1223923e-05
1.8923727e-05
1.6836689e-05
1.4929406e-05
1.3175995e-05
1.1557075e-05
1.0058691e-05
8.6712751e-06
7.3886771e-06
6.2073051e-06
5.1254045e-06
4.1424946e-06
3.2589223e-06
2.4757393e-06
1.7940976e-06
1.2171699e-06
7.4376765e-07
3.9022512e-07
1.2799247e-07
4.8840204e-08
0.00054186405
0.00051178224
0.00048197413
0.00045243581
0.00042327877
0.00039460692
0.0003665473
0.00033922342
0.00031274924
0.00028723118
0.00026276788
0.00023944778
0.00021734656
0.00019652543
0.00017702986
0.00015888873
0.00014211374
0.00012669945
0.00011262375
9.9848949e-05
8.8323225e-05
7.7982589e-05
6.8753115e-05
6.055339e-05
5.3297086e-05
4.6895488e-05
4.1259908e-05
3.6303853e-05
3.1944899e-05
2.8106186e-05
2.4717529e-05
2.1716125e-05
1.9046898e-05
1.6662494e-05
1.4523003e-05
1.2595453e-05
1.0853157e-05
9.274958e-06
7.8444408e-06
6.5491607e-06
5.379924e-06
4.3301641e-06
3.3953922e-06
2.5729168e-06
1.861141e-06
1.2610846e-06
7.7057065e-07
4.0368127e-07
1.3432275e-07
4.6512103e-08
0.0005720353
0.00054358632
0.00051519629
0.00048687735
0.00045871837
0.00043081269
0.00040327382
0.00037621521
0.00034974555
0.00032397016
0.00029899069
0.00027490307
0.00025179517
0.00022974504
0.00020881939
0.00018907227
0.00017054392
0.00015326001
0.00013723127
0.00012245351
0.00010890814
9.6563026e-05
8.537384e-05
7.528564e-05
6.6234782e-05
5.8150969e-05
5.0959402e-05
4.4582893e-05
3.894389e-05
3.39663e-05
2.9577075e-05
2.5707498e-05
2.229416e-05
1.9279612e-05
1.6612727e-05
1.4248774e-05
1.2149281e-05
1.0281698e-05
8.6189451e-06
7.138867e-06
5.8236655e-06
4.6593395e-06
3.6351427e-06
2.7432344e-06
1.9779417e-06
1.3369773e-06
8.1610749e-07
4.2662196e-07
1.4386784e-07
4.4966106e-08
0.0005980674
0.00057116367
0.00054415439
0.00051706677
0.00048996838
0.00046294183
0.00043608658
0.00040950438
0.00038329556
0.00035756009
0.00033239717
0.00030790368
0.00028417215
0.00026128921
0.00023933401
0.00021837681
0.00019847754
0.00017968463
0.00016203411
0.00014554895
0.00013023876
0.0001160999
0.00010311591
9.1258273e-05
8.0487606e-05
7.0755028e-05
6.2003812e-05
5.4171155e-05
4.7190032e-05
4.0991022e-05
3.5504069e-05
3.0660075e-05
2.6392296e-05
2.2637501e-05
1.933687e-05
1.6436627e-05
1.3888426e-05
1.1649507e-05
9.6826543e-06
7.9560075e-06
6.4427478e-06
5.1207277e-06
3.9720384e-06
2.9827002e-06
2.1419496e-06
1.4432693e-06
8.7947523e-07
4.5858003e-07
1.5650111e-07
4.4146907e-08
0.00062001168
0.00059450844
0.00056877559
0.00054285494
0.00051679478
0.00049066793
0.00046456075
0.00043856326
0.00041276649
0.00038726302
0.00036214673
0.00033751155
0.00031344985
0.00029005113
0.00026740058
0.00024557772