/*--------------------------------*- C++ -*----------------------------------*\
  =========                 |
  \\      /  F ield         | OpenFOAM: The Open Source CFD Toolbox
   \\    /   O peration     | Website:  https://openfoam.org
    \\  /    A nd           | Version:  6
     \\/     M anipulation  |
\*---------------------------------------------------------------------------*/
FoamFile
{
    version     2.0;
    format      ascii;
    class       volVectorField;
    location    "256";
    object      UMean;
}
// * * * * * * * * * * * * * * * * * * * * * * * * * * * * * * * * * * * * * //

dimensions      [0 1 -1 0 0 0 0];

internalField   nonuniform List<vector> 
9200
(
(0.0015780521 0.0010078616 -6.0623413e-20)
(0.015467013 -0.0033569894 4.7917839e-20)
(0.04146997 -0.0079244636 -3.9626483e-20)
(0.076878084 -0.012478184 -6.2636018e-20)
(0.11982237 -0.016791688 1.9469817e-20)
(0.16905497 -0.020429828 3.4044083e-20)
(0.22348593 -0.023104829 -1.2736619e-20)
(0.2821085 -0.024673239 9.6330864e-21)
(0.34398147 -0.025078309 1.7689286e-20)
(0.4081977 -0.024326777 1.5634201e-21)
(0.47386076 -0.022477566 -2.263832e-20)
(0.54007638 -0.019630793 2.1764583e-20)
(0.60595565 -0.015916826 -4.2490715e-20)
(0.67062803 -0.011485164 -2.2311073e-20)
(0.73326253 -0.0064926407 6.2344172e-21)
(0.79309424 -0.0010937394 -2.6589126e-20)
(0.8494695 0.0045824712 2.6712048e-20)
(0.90196819 0.010578965 2.3676821e-20)
(0.95022159 0.017025133 -2.6747372e-22)
(0.99157229 0.020588453 -1.6070632e-21)
(0.0059485838 -0.0018100953 -1.7465745e-20)
(0.02917401 -0.010392396 4.1208822e-20)
(0.065460707 -0.016984435 2.4084324e-20)
(0.11169181 -0.021991264 -1.1970284e-19)
(0.16569306 -0.025591636 -1.3114209e-20)
(0.22595797 -0.02758308 7.6189328e-20)
(0.29112952 -0.027879225 -3.6872157e-20)
(0.35992196 -0.026523834 -8.7741871e-21)
(0.43110956 -0.023631141 3.5894039e-20)
(0.50350362 -0.019366817 -4.5368489e-20)
(0.57594178 -0.013940139 -3.1965284e-20)
(0.64729548 -0.0075935626 7.587101e-20)
(0.71649052 -0.00059091837 4.0322419e-20)
(0.78253616 0.0067942594 -7.1678224e-20)
(0.84455851 0.01428869 1.5419927e-20)
(0.9018326 0.021624012 -3.8737769e-20)
(0.95382205 0.028550664 -1.4650811e-20)
(1.0002768 0.034910575 7.478767e-20)
(1.041102 0.040296186 3.1866578e-20)
(1.0745538 0.041605057 -8.4904211e-20)
(0.011724808 -0.0045378176 3.7369809e-20)
(0.046604873 -0.016881824 2.3580248e-21)
(0.094950335 -0.024756691 2.263804e-20)
(0.15328994 -0.029310768 1.0116543e-21)
(0.2191543 -0.031213291 -4.1706117e-20)
(0.29075349 -0.030558723 1.939782e-20)
(0.36642937 -0.027522474 1.3737347e-20)
(0.44458561 -0.022393244 -5.2350984e-20)
(0.52369319 -0.015509127 5.9785797e-20)
(0.60228676 -0.0072402679 1.513901e-20)
(0.67897553 0.0020187891 -5.7106393e-20)
(0.75247217 0.011862718 -1.9277202e-20)
(0.82163087 0.02189188 9.2815022e-21)
(0.88548691 0.031728513 2.4640321e-20)
(0.943291 0.041030546 -1.191786e-20)
(0.99453138 0.04950043 2.9238706e-20)
(1.0389456 0.056899037 -2.1244802e-20)
(1.0765494 0.063092623 -7.3210451e-20)
(1.1075128 0.067816397 -2.4262102e-20)
(1.1310199 0.069204522 5.0319396e-20)
(0.019001393 -0.0069262734 2.4798968e-20)
(0.067873804 -0.022130108 5.2133536e-20)
(0.12991958 -0.030202892 2.0398294e-20)
(0.20138853 -0.03315979 1.3592439e-20)
(0.27953483 -0.032247327 1.7996181e-20)
(0.36226908 -0.027926119 -4.9442356e-20)
(0.44761647 -0.020697207 -2.6672389e-20)
(0.53367147 -0.011151 0)
(0.61863194 0.00010508695 1.5185169e-20)
(0.70082455 0.012466464 -6.5276444e-21)
(0.77874193 0.025342676 -1.0240422e-19)
(0.85109085 0.038176938 -1.6359227e-20)
(0.91683904 0.050468008 6.8241482e-20)
(0.97525097 0.061789357 4.7835881e-22)
(1.0259059 0.071803079 -1.6422336e-21)
(1.0686935 0.080266526 2.2886822e-20)
(1.1037895 0.087038766 -5.3717211e-21)
(1.1316298 0.092108864 -6.3552119e-20)
(1.1527927 0.095455009 -4.7728966e-20)
(1.1672745 0.096130056 7.1136738e-20)
(0.027803304 -0.0086934625 -3.8544361e-21)
(0.092874634 -0.025387452 -4.8690815e-21)
(0.16996935 -0.032251444 5.7785607e-20)
(0.25516644 -0.032278903 1.9241929e-20)
(0.34548411 -0.027375731 -3.3241171e-20)
(0.43854373 -0.018437967 1.2366748e-20)
(0.53207855 -0.006351601 2.7431266e-21)
(0.62393088 0.0079471602 3.51973e-20)
(0.71212426 0.023558302 5.9086137e-21)
(0.7949211 0.039644411 -1.399255e-20)
(0.87088101 0.05544759 6.3178471e-20)
(0.93891478 0.070313739 -6.038216e-20)
(0.99832052 0.083715195 -1.377869e-19)
(1.0487935 0.095265275 -5.8066765e-21)
(1.0904066 0.10472255 8.635368e-20)
(1.1235642 0.11198421 0)
(1.1489342 0.11707499 1.059893e-20)
(1.1673786 0.12014995 -1.592715e-20)
(1.1798383 0.12139293 -9.012329e-21)
(1.1868868 0.12041637 2.1478583e-20)
(0.03806563 -0.0095348635 -5.1888331e-21)
(0.12125007 -0.025892274 4.4313181e-21)
(0.21431137 -0.02988204 -8.9424159e-21)
(0.31330472 -0.025557566 2.8930254e-20)
(0.41508836 -0.015549273 -3.0417891e-20)
(0.51704978 -0.0012460842 -1.7506967e-20)
(0.616714 0.016041235 3.8027602e-20)
(0.71179798 0.035016791 4.7664544e-21)
(0.80032207 0.054504614 -2.5830745e-20)
(0.88069211 0.073482674 7.266492e-20)
(0.95176183 0.091102246 3.2739507e-22)
(1.0128691 0.10670938 -8.3729339e-20)
(1.0638362 0.11985744 0)
(1.1049312 0.13030456 4.0915733e-20)
(1.1367968 0.13799641 5.6725347e-21)
(1.1603563 0.14303651 -7.9982908e-20)
(1.1767087 0.14565212 -2.0214411e-20)
(1.1870328 0.14617194 -1.2790121e-20)
(1.1924809 0.14493865 -1.5142092e-20)
(1.1939097 0.14189755 4.1511675e-20)
(0.049620489 -0.0091443236 -1.7301647e-20)
(0.15237559 -0.022930209 -2.9506093e-21)
(0.26177755 -0.022215607 3.0622966e-20)
(0.37404592 -0.012145395 3.7626093e-20)
(0.48600113 0.0038945439 -2.0391431e-20)
(0.59491024 0.023994166 -7.1462464e-20)
(0.69824127 0.046416451 -2.9209507e-20)
(0.79378046 0.069539985 8.1722332e-20)
(0.87977225 0.091982764 9.1405591e-21)
(0.95500589 0.11263853 -2.5662312e-20)
(1.0188553 0.13068826 1.3984972e-20)
(1.0712705 0.14560471 -4.4995092e-21)
(1.1127193 0.15713978 0)
(1.1440887 0.16529175 2.80869e-20)
(1.1665611 0.17025734 -8.1737624e-20)
(1.1814827 0.17237521 -3.241866e-20)
(1.1902416 0.17207104 8.3268473e-20)
(1.1941695 0.16981788 -4.6148798e-21)
(1.1944617 0.16605893 3.5925109e-21)
(1.1920281 0.16092481 2.7936047e-20)
(0.062190989 -0.0072418596 -3.2533228e-20)
(0.1853654 -0.015905928 -8.304335e-20)
(0.31086487 -0.0086119138 1.8972224e-21)
(0.43529734 0.0084443109 7.2001651e-20)
(0.55561676 0.031144006 6.4063445e-20)
(0.66914456 0.057075647 -7.3093285e-20)
(0.77350491 0.084129459 1.0415054e-22)
(0.8667967 0.11045177 8.8656834e-20)
(0.94773897 0.13457997 5.042655e-20)
(1.0157329 0.15546798 -5.6105811e-20)
(1.0708509 0.17247285 -9.5353821e-20)
(1.1137605 0.18532488 -3.258189e-21)
(1.1455987 0.19407509 4.3396464e-20)
(1.1678159 0.19902361 -6.7461487e-21)
(1.1820152 0.20063921 -1.3107329e-20)
(1.1898077 0.19948078 2.0015936e-20)
(1.1926983 0.196131 4.4963245e-20)
(1.1920111 0.19115214 -4.4788905e-20)
(1.1888486 0.18502548 -1.0471424e-19)
(1.1840309 0.17797177 2.5303902e-20)
(0.075361722 -0.0036043177 -3.5570363e-20)
(0.21903395 -0.0044189468 -1.7513774e-19)
(0.35971129 0.011247969 8.4515172e-20)
(0.49463562 0.036273743 9.5092143e-20)
(0.62111265 0.065895112 5.9272686e-20)
(0.73674804 0.097279724 8.8732464e-21)
(0.83957667 0.12806232 -1.0914276e-19)
(0.92826758 0.15630959 0)
(1.0022436 0.18064927 -7.1093028e-20)
(1.0616892 0.20026451 -1.5717626e-20)
(1.1074677 0.21483559 5.6298974e-20)
(1.14097 0.2244594 1.1253087e-20)
(1.1639276 0.22954841 -4.6789757e-20)
(1.1782199 0.23072011 -5.0232103e-20)
(1.1857028 0.22869164 2.4970203e-20)
(1.1880791 0.22419129 4.6003488e-20)
(1.1868155 0.21789497 -5.6943399e-20)
(1.1831086 0.21039036 -1.0986367e-19)
(1.1778878 0.20214219 -3.0945152e-21)
(1.1718166 0.19340476 2.757276e-20)
(0.088562196 0.0019195126 -3.8561702e-21)
(0.25190051 0.011722361 8.9294483e-20)
(0.40613343 0.037366074 -1.5095924e-20)
(0.54939376 0.071005657 -8.6925356e-20)
(0.67958771 0.10739854 4.6349367e-20)
(0.79486284 0.14344631 4.995328e-20)
(0.89392259 0.17671482 5.6974843e-21)
(0.97623291 0.20539709 -1.0219211e-19)
(1.0420851 0.22841073 -2.5755662e-21)
(1.092529 0.24533773 5.1910988e-20)
(1.1292099 0.25630377 6.139075e-21)
(1.1541535 0.26183849 -2.027915e-20)
(1.1695396 0.2627279 -7.7535928e-20)
(1.1775013 0.25987528 -6.3397449e-21)
(1.179974 0.25418632 4.4464047e-20)
(1.1786028 0.2464874 3.7772774e-20)
(1.1747066 0.23747844 2.0097686e-20)
(1.1692883 0.22771546 -5.430691e-20)
(1.1630777 0.21760795 1.2911027e-20)
(1.1565675 0.20741475 8.4075804e-20)
(-0.0013198546 0.0014503282 -9.0883204e-22)
(-0.0047593338 0.0031911022 1.919283e-21)
(-0.010791308 0.0041067304 1.6094468e-21)
(-0.017686154 0.004467355 -1.4064537e-21)
(-0.024511424 0.0044440121 -2.1342711e-21)
(-0.030838454 0.0041524385 2.266516e-21)
(-0.036394566 0.0036769962 -8.0259412e-21)
(-0.041004165 0.0030787385 -6.9312612e-21)
(-0.044571401 0.0024011283 1.2566557e-20)
(-0.047054521 0.0016748345 -1.0829094e-20)
(-0.048445711 0.00092124985 -2.0223953e-22)
(-0.04875828 0.00015504725 4.0450177e-21)
(-0.048018188 -0.00061388601 -6.6779751e-22)
(-0.046258267 -0.0013789143 2.4704297e-20)
(-0.043514597 -0.0021352702 2.7989548e-22)
(-0.039825999 -0.0028785847 -4.3952623e-20)
(-0.035236419 -0.0036042701 8.1589512e-21)
(-0.029786671 -0.0043102656 2.5428736e-20)
(-0.023486898 -0.0049950927 -4.6619781e-20)
(-0.016399256 -0.0056098273 -2.9405469e-20)
(-0.0016786459 0.0042227165 -5.6231941e-21)
(-0.0053946645 0.0092687464 9.9783659e-21)
(-0.011189636 0.011907775 -1.0439406e-20)
(-0.017500473 0.012925236 5.2972191e-21)
(-0.023493245 0.012820489 6.3122888e-21)
(-0.028790294 0.011933207 8.7301773e-22)
(-0.033154535 0.010511105 -2.6437263e-20)
(-0.036436192 0.0087333798 -2.2579708e-21)
(-0.038556871 0.0067275786 2.2527425e-20)
(-0.039486142 0.0045836789 -5.5872692e-21)
(-0.039223226 0.0023644016 -2.3925502e-20)
(-0.037785422 0.00011271423 5.3416596e-21)
(-0.03520049 -0.002142511 2.4383683e-20)
(-0.031501342 -0.0043819968 1.1130643e-20)
(-0.026722258 -0.006591989 2.3635724e-20)
(-0.020899352 -0.0087601217 -2.1182857e-20)
(-0.014080401 -0.010873546 -2.3078216e-20)
(-0.0063164621 -0.012925692 2.2726683e-20)
(0.0024551465 -0.014901921 2.8348329e-20)
(0.012425091 -0.01663421 1.6542497e-20)
(-0.0023270028 0.0066137505 -4.5661937e-21)
(-0.0064997838 0.014449001 -5.0040586e-21)
(-0.011763229 0.018507605 1.0611302e-22)
(-0.016876196 0.02001173 1.2619549e-22)
(-0.021193887 0.019744542 7.3782275e-21)
(-0.024436928 0.018244998 1.1637023e-20)
(-0.026437312 0.015906985 -4.2682958e-21)
(-0.027095471 0.013015579 -2.088145e-20)
(-0.026367145 0.0097739656 7.2391061e-21)
(-0.024244404 0.0063256791 1.4141924e-20)
(-0.020740945 0.002770851 6.5055537e-21)
(-0.015882988 -0.0008219487 1.9554471e-20)
(-0.0097033109 -0.0044068497 1.867813e-21)
(-0.0022369241 -0.0079536866 -3.6218485e-20)
(0.00648271 -0.011441343 1.4821866e-21)
(0.016422151 -0.014851224 -2.323952e-20)
(0.027525 -0.018165916 -2.6318922e-20)
(0.03971688 -0.021376711 4.8919764e-20)
(0.053182215 -0.02443035 2.7086985e-20)
(0.068606216 -0.026962155 4.1260328e-22)
(-0.0031428685 0.0084133199 -5.6517914e-21)
(-0.0077929845 0.018232541 -1.0690095e-20)
(-0.012154659 0.023235103 4.4587826e-21)
(-0.015427758 0.024961049 4.5774213e-21)
(-0.017228745 0.024408698 2.0957005e-21)
(-0.017415992 0.022277754 8.4115887e-21)
(-0.015919686 0.019081206 1.0468898e-20)
(-0.012712617 0.015190555 -1.5593264e-21)
(-0.0078008462 0.010871175 -1.2617215e-20)
(-0.001210946 0.0063109685 -3.1728254e-20)
(0.0070196758 0.001641209 1.4343004e-22)
(0.016847892 -0.0030481615 4.3887248e-20)
(0.028229246 -0.0076974599 -1.9524101e-20)
(0.041119508 -0.012267873 -1.315753e-20)
(0.055478794 -0.016733405 3.4837978e-22)
(0.071269848 -0.021073239 3.4475069e-20)
(0.088421871 -0.025272798 -1.6151371e-20)
(0.10681915 -0.029330927 -5.6331062e-20)
(0.12677424 -0.033130883 4.7989317e-20)
(0.14967867 -0.035990705 3.4774026e-20)
(-0.0039628265 0.0094778001 -5.0410554e-22)
(-0.0088888974 0.020265836 -1.3141146e-20)
(-0.011864506 0.025605698 -3.7570962e-20)
(-0.012605285 0.027214964 -6.765016e-21)
(-0.011037925 0.026223923 -3.4148584e-21)
(-0.0071879324 0.023445185 7.0433378e-21)
(-0.001107062 0.019476722 -5.299825e-21)
(0.0071402665 0.014751583 -9.7517066e-21)
(0.017482029 0.0095797408 2.3781709e-20)
(0.029843629 0.0041810723 5.3711801e-21)
(0.044152116 -0.0012903587 -2.7544674e-20)
(0.060336146 -0.006728871 1.1764421e-20)
(0.07832642 -0.012064394 0)
(0.098056235 -0.017252641 1.2884428e-20)
(0.11946456 -0.022266307 -1.0311277e-20)
(0.1424952 -0.027087527 -1.5323813e-20)
(0.16704979 -0.031714851 -1.1275641e-21)
(0.19294911 -0.036175412 -2.5385788e-21)
(0.22059381 -0.040286577 4.7828097e-20)
(0.25223135 -0.042907552 -1.1644019e-20)
(-0.0045999511 0.0097393774 -7.7540383e-21)
(-0.0093322754 0.020366909 2.6191074e-20)
(-0.010284113 0.025361602 -1.1600788e-20)
(-0.00771867 0.026475669 -2.9530958e-20)
(-0.0018985956 0.024883411 -2.9082024e-20)
(0.0069643933 0.021458334 -1.6134499e-20)
(0.018679619 0.016844938 -8.6277144e-22)
(0.033074631 0.011508759 6.0261584e-21)
(0.049996553 0.0057837102 2.1047e-20)
(0.069308354 -9.2457131e-05 7.8851449e-21)
(0.090883864 -0.0059530548 -7.6340421e-21)
(0.11460524 -0.011683745 -1.9670758e-21)
(0.14035921 -0.017209302 -4.0715673e-20)
(0.16803439 -0.022483889 -1.3485617e-20)
(0.1975231 -0.027482772 2.0205047e-20)
(0.22872246 -0.0321964 -2.2464572e-20)
(0.26148329 -0.036647068 -9.4852222e-21)
(0.29553776 -0.040918951 3.1638069e-20)
(0.33130054 -0.044798719 5.2492433e-20)
(0.37192712 -0.046574476 3.5791687e-21)
(-0.0048596389 0.0092027532 1.7221984e-20)
(-0.0086306569 0.018527866 1.488404e-20)
(-0.0067311261 0.022487105 5.3899873e-20)
(3.0293098e-05 0.022735533 2.5054775e-20)
(0.011048809 0.020406088 1.9740328e-22)
(0.0259164 0.016380519 -4.2358002e-20)
(0.04429129 0.011309931 -2.5936398e-20)
(0.065880195 0.0056625732 1.1187565e-20)
(0.090431245 -0.00022633879 1.5369782e-20)
(0.11772364 -0.0061183067 -1.3853075e-20)
(0.14755644 -0.011846604 -4.7006228e-20)
(0.1797396 -0.017298115 3.158415e-20)
(0.21408639 -0.022400282 2.1102961e-20)
(0.2504077 -0.027112219 -2.9210814e-20)
(0.28851191 -0.031417935 1.2428469e-20)
(0.32820871 -0.035323044 2.5505647e-20)
(0.36926245 -0.038883642 8.6001592e-21)
(0.41128986 -0.04227216 -1.2696751e-20)
(0.45463017 -0.04532285 -1.4470356e-20)
(0.50327564 -0.045733096 7.1585069e-21)
(-0.0045504839 0.0079333385 1.1550087e-20)
(-0.0062812078 0.014898142 -2.4943824e-20)
(-0.00048493213 0.017198349 8.5121087e-21)
(0.01150782 0.016277102 3.5611137e-20)
(0.028757131 0.013146676 5.4813819e-20)
(0.050655404 0.0086472345 2.1481866e-20)
(0.076700245 0.0033981742 -6.1963333e-21)
(0.10645899 -0.0021616061 -1.3023816e-20)
(0.13955996 -0.0077198579 -6.6322356e-21)
(0.17567272 -0.013056651 3.6375838e-20)
(0.21448948 -0.018021407 -4.9362861e-21)
(0.25571102 -0.022515994 -1.7764993e-20)
(0.29903563 -0.026482803 -2.0759087e-20)
(0.3441513 -0.029897304 -5.0255329e-20)
(0.3907346 -0.032763344 2.4467858e-20)
(0.43845872 -0.035113044 -1.484374e-20)
(0.48696096 -0.037049663 2.7488674e-20)
(0.53572773 -0.038869272 2.2221769e-20)
(0.58495457 -0.040577103 -8.8553607e-20)
(0.63927772 -0.039441738 2.2078382e-22)
(-0.0034913344 0.0060433851 2.2611241e-20)
(-0.0017963701 0.0097620824 -2.7547402e-20)
(0.0091675099 0.0099261041 -4.6883366e-20)
(0.027580261 0.0076663807 -2.8587068e-20)
(0.052181838 0.003803167 -2.1540127e-21)
(0.08216032 -0.00091259781 1.3832316e-20)
(0.11683906 -0.0059319452 -3.0017298e-21)
(0.15562677 -0.010876852 1.9108927e-20)
(0.19800328 -0.015485143 9.3426888e-21)
(0.24349249 -0.019578814 -1.2024977e-20)
(0.29163747 -0.023044303 9.5121432e-21)
(0.34198265 -0.025817674 -2.5297785e-20)
(0.39406088 -0.027873984 8.7476762e-21)
(0.4473851 -0.029220682 1.774014e-20)
(0.50144723 -0.029893638 -2.9353619e-21)
(0.5557282 -0.029959077 1.8553331e-21)
(0.60968225 -0.029568101 -5.2529612e-22)
(0.66264255 -0.029124363 2.0772772e-20)
(0.71462623 -0.02882836 3.9998566e-21)
(0.7706771 -0.026029084 -1.8281725e-21)
(-0.0015120626 0.0036807353 2.4617666e-20)
(0.0052764089 0.0035246567 5.9846524e-20)
(0.022878054 0.0013136568 -5.1064679e-20)
(0.049018077 -0.0022279523 -1.0402041e-20)
(0.082129621 -0.0065439889 2.1251956e-20)
(0.12119211 -0.011019529 2.2443709e-21)
(0.16533851 -0.015215908 -3.1257248e-20)
(0.21379142 -0.018852436 7.3450411e-21)
(0.26584538 -0.021750054 7.4645791e-21)
(0.32083497 -0.023803603 -2.7655803e-20)
(0.37810736 -0.024966214 1.3593114e-21)
(0.43700502 -0.025236599 -3.9285779e-20)
(0.49685624 -0.024648687 -3.8424693e-20)
(0.55697183 -0.023263316 6.9468891e-20)
(0.61664791 -0.021160933 5.8791726e-21)
(0.67517268 -0.018440703 -1.6021405e-20)
(0.73181148 -0.01526134 2.0378662e-20)
(0.78573303 -0.011927394 -9.5779289e-22)
(0.83647691 -0.0084622824 2.085225e-20)
(0.88774209 -0.0033395726 -2.1018887e-20)
(-0.0079681827 -0.0058932642 6.1803372e-20)
(0.0019273955 -0.0064159377 1.6434383e-20)
(0.01324151 -0.006834959 -3.6618752e-20)
(0.025618772 -0.0070802036 1.76411e-20)
(0.038782967 -0.0072350748 0)
(0.052668957 -0.0073284412 0)
(0.067213315 -0.0073632378 -2.368592e-20)
(0.082332079 -0.0073474651 -1.6905911e-20)
(0.09795019 -0.0072908855 1.9685816e-20)
(0.11400398 -0.0072006334 1.8589087e-20)
(0.13043476 -0.0070821574 1.0422346e-21)
(0.14718729 -0.0069402512 -1.0401303e-20)
(0.16421007 -0.0067790924 8.5316823e-21)
(0.181455 -0.0066022231 1.8253572e-20)
(0.19887677 -0.0064126756 -5.3768735e-21)
(0.21643251 -0.0062130814 -1.0095656e-20)
(0.23408156 -0.0060057369 -4.2659711e-21)
(0.25178531 -0.0057926561 -4.2968227e-21)
(0.26950705 -0.0055756162 7.0181665e-22)
(0.28721197 -0.0053561947 1.2143199e-21)
(0.30486707 -0.0051357967 2.5771342e-21)
(0.32244118 -0.0049156762 6.5069275e-21)
(0.33990502 -0.0046969519 1.5798861e-22)
(0.35723119 -0.0044806198 -3.3620502e-21)
(0.37439423 -0.0042675619 1.3294512e-22)
(0.39137069 -0.0040585536 -5.5794894e-22)
(0.40813908 -0.0038542694 1.1976245e-21)
(0.42467997 -0.0036552885 9.8117057e-22)
(0.44097594 -0.0034620993 -1.2922118e-21)
(0.45701159 -0.0032751049 -1.0321381e-22)
(0.47277352 -0.0030946278 -3.1955113e-23)
(0.48825029 -0.002920916 -3.3230888e-22)
(0.50343236 -0.0027541485 -4.0956455e-22)
(0.51831203 -0.0025944414 8.5755759e-23)
(0.5328834 -0.0024418549 -1.2875662e-22)
(0.54714231 -0.0022964 -2.0068815e-22)
(0.56108624 -0.0021580456 2.2853243e-22)
(0.57471431 -0.0020267262 2.595877e-22)
(0.58802718 -0.0019023508 -2.9365533e-23)
(0.60102738 -0.0017848077 -1.6233367e-22)
(0.61371817 -0.0016739933 1.7871864e-23)
(0.62610762 -0.0015697673 -2.6928667e-23)
(0.63819672 -0.0014721677 8.1360293e-23)
(0.65001714 -0.0013808278 -1.1080566e-23)
(0.66152044 -0.0012970085 -1.3144445e-22)
(0.67291187 -0.0012175186 4.2521136e-24)
(0.68368179 -0.001154441 5.430945e-24)
(0.69543653 -0.0010754923 -5.0534115e-24)
(0.70378934 -0.0010890044 2.635279e-23)
(0.72111851 -0.00091785766 3.7024267e-22)
(0.022083252 -0.017348672 -1.3798954e-20)
(0.031021118 -0.018934807 -6.6373575e-20)
(0.041856668 -0.020166008 -3.2292156e-20)
(0.053724283 -0.020865035 4.0265829e-20)
(0.066232812 -0.02130986 1.5292061e-20)
(0.079397183 -0.021584246 -1.9117885e-20)
(0.093186013 -0.02168902 5.1117537e-21)
(0.10751833 -0.021646218 2.6113872e-20)
(0.1223265 -0.021484907 -1.4015205e-22)
(0.13755641 -0.021225571 -7.9234815e-21)
(0.15315649 -0.020883575 -1.2924161e-20)
(0.16907683 -0.020472651 -8.817257e-21)
(0.18527045 -0.02000486 1.7901646e-20)
(0.20169305 -0.019490441 9.48834e-21)
(0.21830241 -0.018938177 -1.6267666e-20)
(0.23505814 -0.018355729 -6.0121798e-21)
(0.25192162 -0.01774981 3.1226661e-21)
(0.26885589 -0.017126332 8.1667263e-21)
(0.28582557 -0.01649053 6.9381709e-21)
(0.30279692 -0.015847071 -7.0529045e-21)
(0.31973779 -0.015200122 -3.342123e-21)
(0.3366177 -0.014553416 1.5335997e-21)
(0.35340789 -0.013910291 6.1610929e-22)
(0.37008135 -0.013273728 1.2383075e-21)
(0.38661292 -0.01264637 2.2914725e-22)
(0.40297928 -0.012030549 -3.6532222e-22)
(0.41915906 -0.011428296 -7.4379454e-22)
(0.43513281 -0.010841361 1.053013e-21)
(0.45088303 -0.010271223 8.6188891e-22)
(0.46639417 -0.0097191076 -2.5203046e-22)
(0.48165263 -0.0091860012 5.885438e-22)
(0.49664668 -0.0086726662 -2.2570409e-22)
(0.51136646 -0.0081796595 -4.0534947e-22)
(0.5258039 -0.0077073508 -6.1924239e-22)
(0.53995268 -0.0072559419 4.1220861e-22)
(0.55380819 -0.0068254873 -9.6262927e-23)
(0.56736742 -0.0064159158 2.114523e-22)
(0.58062899 -0.0060270518 -4.6206892e-22)
(0.59359301 -0.0056586446 4.3574671e-22)
(0.60626147 -0.0053103799 6.1371965e-23)
(0.61863708 -0.0049819673 -6.4959028e-23)
(0.6307273 -0.0046730059 2.0855973e-22)
(0.64253261 -0.0043836277 2.7953496e-22)
(0.65408386 -0.0041127523 2.1084981e-22)
(0.6653327 -0.003864165 2.2319084e-22)
(0.67648147 -0.0036283484 -1.8802708e-23)
(0.6870267 -0.0034413623 1.1387522e-22)
(0.69855229 -0.0032069871 1.0054287e-22)
(0.7067345 -0.0032476786 -2.0286558e-22)
(0.72375864 -0.0027395267 -1.3458776e-23)
(0.080510833 -0.027765805 1.0166973e-20)
(0.087551195 -0.03042506 3.7812402e-21)
(0.097327904 -0.032413536 -1.3565499e-20)
(0.10814292 -0.033487518 -1.5854221e-21)
(0.11932132 -0.034183575 1.591991e-20)
(0.13103427 -0.034635333 -1.5490798e-20)
(0.14332107 -0.034822274 -3.1209946e-20)
(0.15610281 -0.034774659 1.5235188e-20)
(0.169323 -0.034540119 1.8958475e-20)
(0.18294524 -0.034150372 -1.2033653e-20)
(0.19693085 -0.033628203 1.04099e-21)
(0.21123912 -0.032994538 8.4550346e-21)
(0.2258309 -0.032268123 -1.5685769e-20)
(0.24066847 -0.03146493 3.6575685e-21)
(0.25571486 -0.03059873 7.7601648e-21)
(0.27093392 -0.029681635 -4.4174084e-22)
(0.28629043 -0.028724355 -2.6103542e-23)
(0.30175016 -0.027736394 -7.6043979e-21)
(0.31727994 -0.026726235 4.3483937e-21)
(0.33284776 -0.025701485 8.6341154e-21)
(0.34842284 -0.024668983 -3.8870501e-21)
(0.36397578 -0.023634888 -2.1770473e-21)
(0.37947862 -0.022604736 9.0256423e-22)
(0.39490493 -0.02158349 -1.7661212e-21)
(0.41022994 -0.020575572 1.3157391e-21)
(0.42543056 -0.019584897 6.9650624e-22)
(0.44048546 -0.018614891 1.7605799e-21)
(0.45537512 -0.017668518 -2.1409383e-21)
(0.47008183 -0.016748298 2.4300038e-21)
(0.48458972 -0.01585633 5.852981e-22)
(0.49888473 -0.014994322 5.8408032e-22)
(0.51295459 -0.014163607 3.0410472e-22)
(0.52678881 -0.013365181 9.9635607e-22)
(0.54037862 -0.012599727 -1.5315685e-21)
(0.55371691 -0.011867651 4.2467618e-22)
(0.5667982 -0.011169112 2.0481126e-22)
(0.57961859 -0.01050406 -7.4538058e-23)
(0.59217575 -0.0098722696 2.542644e-23)
(0.60446879 -0.0092733911 -3.9688966e-22)
(0.61649867 -0.0087069657 2.1771786e-22)
(0.62826708 -0.0081725733 -3.0520363e-23)
(0.63978036 -0.0076696072 5.210041e-22)
(0.65103804 -0.0071983426 -2.4219012e-22)
(0.66206944 -0.0067570416 3.8870152e-23)
(0.67282637 -0.0063520114 7.0198482e-23)
(0.68350574 -0.0059675876 -9.064282e-23)
(0.69361571 -0.0056632012 -1.5193091e-22)
(0.70469734 -0.0052806965 4.9556093e-22)
(0.71254842 -0.0053487865 1.8024835e-22)
(0.72898101 -0.0045195256 -8.4939036e-22)
(0.16446971 -0.036411693 1.7767548e-21)
(0.16869786 -0.040127525 -1.1779295e-20)
(0.17669386 -0.042792453 6.6000343e-21)
(0.18584918 -0.044149571 -1.3978599e-20)
(0.19500326 -0.045061822 -2.0665789e-21)
(0.20453027 -0.045702548 9.8694946e-21)
(0.21458837 -0.046006821 -1.0763971e-20)
(0.2250974 -0.046003778 1.1793765e-21)
(0.23600896 -0.045757093 1.3309429e-20)
(0.24730949 -0.045307091 3.7713742e-21)
(0.25897714 -0.044680779 -6.3552856e-21)
(0.27098207 -0.043903649 -3.1745749e-21)
(0.28329414 -0.042999324 -5.5786568e-21)
(0.29588332 -0.041988212 -6.7437751e-21)
(0.30871876 -0.040888066 2.8403105e-21)
(0.32176907 -0.039714687 3.5764934e-22)
(0.33500281 -0.038482242 1.5451745e-21)
(0.34838873 -0.037203461 -3.3824451e-21)
(0.361896 -0.035889827 -4.5379155e-21)
(0.3754944 -0.034551739 2.5002439e-21)
(0.38915456 -0.033198631 3.47729e-21)
(0.40284808 -0.031839059 -1.8029632e-21)
(0.41654774 -0.030480768 1.6721956e-21)
(0.43022761 -0.029130741 -4.9590686e-22)
(0.44386314 -0.027795237 -4.2538365e-21)
(0.45743134 -0.026479823 -3.0569325e-21)
(0.47091076 -0.025189401 -2.8069871e-22)
(0.4842816 -0.023928236 3.2649469e-22)
(0.49752574 -0.022699978 -2.2060956e-21)
(0.51062674 -0.021507698 -1.0417711e-21)
(0.52356986 -0.020353918 2.1738667e-22)
(0.53634203 -0.019240643 -1.3774506e-21)
(0.54893185 -0.018169403 -5.4683309e-23)
(0.56132954 -0.017141295 -4.9963624e-22)
(0.57352689 -0.016157026 -4.4318783e-22)
(0.58551727 -0.015216955 -6.6967098e-22)
(0.59729553 -0.014321152 -1.0304152e-21)
(0.60885804 -0.013469435 -1.736628e-23)
(0.62020258 -0.012661448 -3.5482076e-24)
(0.63132874 -0.011896677 -6.0487573e-22)
(0.64223678 -0.01117466 -2.6303466e-23)
(0.65293158 -0.010494667 -4.1180452e-22)
(0.66341137 -0.0098571917 -5.9893152e-22)
(0.67370338 -0.0092599281 4.7954874e-22)
(0.68375975 -0.0087116801 1.3830556e-23)
(0.69376966 -0.0081909677 2.3628313e-22)
(0.70325811 -0.0077794884 -1.7316206e-22)
(0.71370446 -0.0072606986 -3.3678123e-22)
(0.72108183 -0.0073561857 -1.9535306e-23)
(0.73666505 -0.0062317361 4.8272022e-22)
(0.27000847 -0.042493906 -2.2694945e-20)
(0.2705162 -0.047240141 4.96684e-20)
(0.27585709 -0.050489276 1.0686289e-20)
(0.28264935 -0.052063501 -1.6576666e-20)
(0.28907411 -0.053193161 -2.440699e-21)
(0.29569483 -0.054068349 2.400091e-21)
(0.30283611 -0.054562965 -2.0472677e-21)
(0.31041803 -0.054694648 -4.8495862e-21)
(0.31838885 -0.054536099 -4.1493764e-21)
(0.3267567 -0.054132977 -1.2576752e-20)
(0.33551808 -0.053514094 1.8799824e-20)
(0.34465323 -0.052706819 6.9591802e-21)
(0.3541396 -0.051737491 -1.7104416e-20)
(0.36395381 -0.050629581 1.0001188e-20)
(0.37407026 -0.049403889 8.0037777e-21)
(0.3844615 -0.048079221 -4.3003683e-22)
(0.39509904 -0.04667273 -2.8361925e-21)
(0.40595388 -0.045200091 -4.2298536e-21)
(0.41699684 -0.043675645 -1.5771656e-21)
(0.42819892 -0.042112533 -1.3941794e-21)
(0.43953153 -0.040522799 -3.3356236e-21)
(0.45096679 -0.038917464 0)
(0.46247775 -0.03730658 -1.4803932e-21)
(0.47403849 -0.03569927 3.9834621e-21)
(0.48562437 -0.034103761 5.6653079e-21)
(0.49721204 -0.032527415 -9.1175483e-22)
(0.50877963 -0.030976752 -3.2588568e-21)
(0.52030672 -0.029457481 3.4222174e-21)
(0.53177448 -0.027974531 6.2092671e-23)
(0.54316563 -0.026532083 3.7460237e-21)
(0.55446447 -0.025133615 -5.0998858e-22)
(0.56565687 -0.023781941 1.7939924e-21)
(0.57673027 -0.022479263 -8.9763425e-22)
(0.58767365 -0.02122722 4.019106e-22)
(0.59847748 -0.020026949 -5.2912679e-22)
(0.60913372 -0.01887914 5.8260162e-22)
(0.61963577 -0.017784098 5.2989677e-22)
(0.62997849 -0.01674181 4.4518756e-22)
(0.6401581 -0.015752025 -1.0991103e-21)
(0.65017258 -0.014814288 7.8602235e-22)
(0.66002059 -0.0139282 -4.1435721e-22)
(0.6697053 -0.013093016 -1.3387145e-21)
(0.67922344 -0.012309529 1.7088421e-21)
(0.68859981 -0.011574984 -5.5803137e-23)
(0.69778707 -0.010900629 -1.9416712e-22)
(0.7069648 -0.010259623 -7.1337224e-24)
(0.71567946 -0.0097543917 -1.8808933e-22)
(0.7253324 -0.0091148706 -5.7963815e-22)
(0.73211883 -0.0092374942 7.9552218e-22)
(0.74663538 -0.0078521003 -4.9466606e-23)
(0.39216148 -0.045062351 -1.9034717e-20)
(0.38808477 -0.050868752 1.319627e-20)
(0.38979879 -0.054652782 3.7311073e-21)
(0.39344208 -0.056468974 -8.0579491e-21)
(0.39646467 -0.05789782 1.2641386e-20)
(0.39952544 -0.059107838 8.1529744e-21)
(0.40314046 -0.059916086 -1.2859614e-20)
(0.40724696 -0.060325408 -6.3025056e-21)
(0.41177443 -0.060404688 1.3142152e-20)
(0.4167406 -0.060198703 -1.6378198e-20)
(0.42215766 -0.05973685 -1.4444477e-20)
(0.42801392 -0.059046917 1.5127828e-20)
(0.43429081 -0.058156141 6.9896168e-21)
(0.44096834 -0.05708989 -5.0658191e-21)
(0.44802378 -0.05587145 -1.415616e-21)
(0.4554316 -0.054522318 -3.6628587e-21)
(0.46316453 -0.053062481 4.8877069e-21)
(0.47119427 -0.051510543 3.685198e-21)
(0.479492 -0.049883801 -3.1429542e-21)
(0.48802876 -0.048198302 3.1257674e-21)
(0.49677578 -0.046468905 2.933504e-21)
(0.50570483 -0.044709327 -3.3574031e-21)
(0.51478841 -0.042932167 3.6760486e-22)
(0.524 -0.041148933 -3.1976621e-21)
(0.53331417 -0.039370062 8.0416477e-21)
(0.54270676 -0.037604944 6.4744299e-21)
(0.55215493 -0.035861944 1.0153687e-21)
(0.56163728 -0.034148433 -1.8309548e-21)
(0.57113385 -0.032470821 4.2044802e-21)
(0.58062621 -0.030834596 7.9619005e-21)
(0.59009742 -0.029244377 2.3885631e-21)
(0.59953203 -0.027703963 3.6633651e-21)
(0.60891613 -0.026216394 2.1250521e-21)
(0.61823724 -0.024784015 8.4162043e-22)
(0.62748437 -0.023408544 -2.4820157e-22)
(0.63664794 -0.022091146 3.0464612e-21)
(0.64571975 -0.020832506 6.8683859e-22)
(0.65469308 -0.019632908 3.1622437e-22)
(0.66356248 -0.018492339 5.69329e-23)
(0.67232425 -0.017410525 1.1832749e-21)
(0.68097539 -0.016387245 4.3005995e-23)
(0.68951724 -0.01542185 5.5846004e-22)
(0.69794505 -0.014515525 -1.2654963e-22)
(0.70628096 -0.013665193 -3.8209065e-22)
(0.71447846 -0.01288447 -1.9294604e-22)
(0.72270608 -0.012141684 -5.2945685e-22)
(0.73053565 -0.011558126 2.2572771e-22)
(0.73927711 -0.010816055 -1.5648394e-22)
(0.74538631 -0.010965307 -4.5468164e-22)
(0.75866808 -0.0093592553 2.7677183e-22)
(0.52483877 -0.043195465 3.4724755e-21)
(0.51553153 -0.050102086 -1.9291359e-20)
(0.51268091 -0.05442785 -2.547009e-21)
(0.51239903 -0.056672681 5.6729594e-21)
(0.51148888 -0.058623482 3.5147945e-21)
(0.51051427 -0.060356809 5.0820923e-22)
(0.51015143 -0.061663722 7.0458371e-21)
(0.51039757 -0.062548046 8.0822695e-21)
(0.51116056 -0.063064601 1.0075113e-20)
(0.51244508 -0.063248494 -1.1777905e-20)
(0.5142687 -0.063128073 -2.27494e-20)
(0.51662475 -0.062731641 -4.4318264e-21)
(0.51949495 -0.062086897 1.6693145e-20)
(0.52285848 -0.06122071 1.3324866e-20)
(0.52669215 -0.060158886 -5.7684339e-21)
(0.5309699 -0.058925911 9.685182e-22)
(0.53566362 -0.057544966 -4.1185243e-21)
(0.540744 -0.056037982 2.980913e-21)
(0.54618107 -0.054425631 -2.9313437e-22)
(0.55194467 -0.052727301 -1.9553045e-21)
(0.55800479 -0.050961096 8.4115935e-21)
(0.56433186 -0.049143834 -4.6439972e-22)
(0.57089706 -0.047291055 5.7740009e-22)
(0.57767247 -0.045417019 -4.8747968e-22)
(0.58463128 -0.043534718 -4.4851039e-21)
(0.59174791 -0.041655892 4.3786989e-21)
(0.59899808 -0.039791047 1.8520841e-21)
(0.60635892 -0.03794949 -3.4265555e-21)
(0.61380902 -0.036139368 -4.0847216e-21)