/*--------------------------------*- C++ -*----------------------------------*\
  =========                 |
  \\      /  F ield         | OpenFOAM: The Open Source CFD Toolbox
   \\    /   O peration     | Website:  https://openfoam.org
    \\  /    A nd           | Version:  6
     \\/     M anipulation  |
\*---------------------------------------------------------------------------*/
FoamFile
{
    version     2.0;
    format      ascii;
    class       surfaceScalarField;
    location    "75";
    object      phi;
}
// * * * * * * * * * * * * * * * * * * * * * * * * * * * * * * * * * * * * * //

dimensions      [0 3 -1 0 0 0 0];

internalField   nonuniform List<scalar> 
18180
(
0.00031891884
-0.0001635365
-0.00015538233
0.0013099703
-0.0013684579
0.00037740638
0.0030346193
-0.0033367436
0.0016120946
0.0055529034
-0.0059810618
0.0034627777
0.00892317
-0.0092465465
0.0058762799
0.013200085
-0.013089731
0.0088128166
0.018431967
-0.017473128
0.012241246
0.024657818
-0.022362495
0.016136645
0.031904161
-0.027723703
0.02047736
0.04018197
-0.033520119
0.025242309
0.049483977
-0.039710847
0.03040884
0.059782746
-0.046249812
0.035951043
0.071029909
-0.053085662
0.041838499
0.083157028
-0.060162538
0.048035419
0.096078684
-0.067421776
0.05450012
0.10969832
-0.074804683
0.061185043
0.12391629
-0.082256213
0.068038248
0.13864505
-0.089729267
0.075000506
0.15388299
-0.097206659
0.081968719
-0.104686
0.088740498
0.1698285
0.00039771302
-0.0005612495
0.001610449
-0.0025811939
0.0036912455
-0.00541754
0.0066908887
-0.008980705
0.010656061
-0.013211718
0.015625673
-0.018059344
0.021626857
-0.023474311
0.028670989
-0.029406627
0.036750062
-0.035802776
0.045833783
-0.04260384
0.055867841
-0.049744905
0.066773694
-0.057155664
0.07845013
-0.064762099
0.090776681
-0.072489089
0.10361868
-0.080263774
0.11683336
-0.088019364
0.13027606
-0.095698914
0.14380701
-0.10326021
0.15729024
-0.11068989
-0.11791848
0.17052272
0.00048086449
-0.001042114
0.0019196367
-0.004019966
0.0043545683
-0.0078524716
0.0078202484
-0.012446385
0.012343366
-0.017734836
0.017937302
-0.02365328
0.024597042
-0.030134052
0.032294908
-0.037104492
0.04097752
-0.044485388
0.050564504
-0.052190825
0.060949305
-0.060129705
0.072002266
-0.068208626
0.083575878
-0.07633571
0.095511753
-0.084424964
0.10764861
-0.092400632
0.1198302
-0.10020096
0.13191199
-0.1077807
0.14376455
-0.11511277
0.15526598
-0.12219132
-0.12896634
0.16631383
0.00056643292
-0.0016085469
0.0022289482
-0.0056824812
0.0050028158
-0.010626339
0.0088978369
-0.016341406
0.013911075
-0.022748074
0.020019981
-0.029762185
0.02717705
-0.037291121
0.035306487
-0.045233929
0.04430332
-0.053482221
0.054035344
-0.061922849
0.064347928
-0.070442289
0.075071356
-0.078932054
0.086030011
-0.087294365
0.097052397
-0.09544735
0.10798089
-0.10332912
0.11868002
-0.11090009
0.12904253
-0.11814321
0.13899194
-0.12506219
0.14847939
-0.13167877
-0.13799232
0.15750537
0.00065116654
-0.0022597134
0.0025253906
-0.0075567052
0.0056058927
-0.013706841
0.0098683115
-0.020603825
0.015270339
-0.028150102
0.021744198
-0.036236044
0.029192368
-0.044739291
0.037486755
-0.053528316
0.04647154
-0.062467006
0.055969587
-0.071420896
0.065791778
-0.08026448
0.075748227
-0.088888504
0.085660003
-0.097206141
0.095369939
-0.10515729
0.10475123
-0.11271041
0.11371299
-0.11986185
0.12220235
-0.12663257
0.13020328
-0.13306312
0.13773213
-0.13920761
-0.1451099
0.14484971
0.00073092594
-0.0029906393
0.0027931476
-0.0096189269
0.0061288131
-0.017042507
0.010670442
-0.025145454
0.016328069
-0.033807728
0.022982404
-0.042890379
0.030483222
-0.052240109
0.038652543
-0.061697637
0.04729224
-0.071106704
0.056195108
-0.080323764
0.065157898
-0.08922727
0.07399451
-0.097725116
0.082547556
-0.10575919
0.090696848
-0.11330658
0.098363879
-0.12037744
0.10551212
-0.1270101
0.11214366
-0.1332641
0.11829308
-0.13921254
0.12401999
-0.14493452
-0.15050125
0.12941134
0.00080102228
-0.0037916616
0.0030149547
-0.011832859
0.006535034
-0.020562586
0.011243525
-0.029853945
0.016997593
-0.039561796
0.02362479
-0.049517576
0.030925565
-0.059540884
0.038681368
-0.06945344
0.046666983
-0.079092318
0.054665133
-0.088321914
0.062481041
-0.097043179
0.069954717
-0.10519879
0.076969294
-0.11277376
0.083454485
-0.11979177
0.089385151
-0.12630811
0.094775733
-0.13240068
0.099671936
-0.13816031
0.10414126
-0.14368186
0.10826398
-0.14905724
-0.15436765
0.11213038
0.00085634084
-0.0046480024
0.0031730392
-0.014149558
0.0067891866
-0.024178733
0.011532886
-0.034597645
0.01720762
-0.04523653
0.023591647
-0.055901603
0.030445536
-0.066394772
0.037525065
-0.076532969
0.044597032
-0.086164286
0.051455113
-0.095179995
0.057933009
-0.10352107
0.063912872
-0.11117865
0.069328005
-0.1181889
0.07415998
-0.12462374
0.078431243
-0.13057937
0.082194901
-0.13616434
0.085523598
-0.141489
0.088499193
-0.14665746
0.091204553
-0.1517626
-0.15688271
0.093719622
0.00089052469
-0.005538527
0.0032491646
-0.016508198
0.0068593304
-0.027788899
0.011495046
-0.039233361
0.016910142
-0.050651627
0.022842694
-0.061834155
0.029027512
-0.07257959
0.035212616
-0.082718073
0.04117625
-0.09212792
0.046741117
-0.10074486
0.051783274
-0.10856323
0.056234514
-0.11562989
0.060078433
-0.12203282
0.063341537
-0.12788685
0.066081403
-0.13331924
0.068374117
-0.13845705
0.070302875
-0.14341776
0.071949113
-0.1483037
0.073386758
-0.15320025
-0.15817533
0.074679377
0.00090005086
-0.0064385779
0.0032341334
-0.01884228
0.0067305612
-0.031285327
0.011113174
-0.043615973
0.016094873
-0.055633326
0.021387049
-0.06712633
0.02671589
-0.077908432
0.031840189
-0.087842372
0.036566712
-0.096854444
0.040759988
-0.10493814
0.044344901
-0.11214814
0.047302209
-0.1185872
0.049658526
-0.12438913
0.051473112
-0.12970143
0.052823985
-0.13467011
0.053795465
-0.13942853
0.054468581
-0.14409088
0.05491495
-0.14875007
0.055193956
-0.15347926
0.055351662
-0.15833304
-0.00020249206
0.00020249258
-4.9342199e-10
-0.00067811055
0.00047561899
-4.7438547e-10
-0.0013431207
0.00066501055
-3.9541973e-10
-0.0021333593
0.00079023902
-3.9324972e-10
-0.0029972151
0.00086385623
-4.1629076e-10
-0.0038925384
0.00089532379
-4.4674513e-10
-0.0047844054
0.00089186754
-4.7400798e-10
-0.0056432476
0.00085884271
-5.0157135e-10
-0.0064433798
0.00080013272
-5.2428618e-10
-0.0071618483
0.00071846905
-5.4710748e-10
-0.0077775117
0.00061566394
-5.65399e-10
-0.0082703047
0.00049279359
-5.8373434e-10
-0.008620658
0.00035035388
-5.9829054e-10
-0.008809064
0.00018840666
-6.1283845e-10
-0.0088158214
6.7579851e-06
-6.2478833e-10
-0.0086210583
-0.00019476249
-6.3633511e-10
-0.0082049963
-0.00041606134
-6.4584876e-10
-0.0075475449
-0.0006574508
-6.5404648e-10
-0.0066278945
-0.00091964971
-6.6146226e-10
-0.0011890468
-0.0054388471
-6.6869614e-10
-0.00018807459
0.00039056718
-0.00062532321
0.00091286763
-0.0012293475
0.0012690349
-0.0019360878
0.0014969793
-0.0026933186
0.001621087
-0.003457707
0.0016597122
-0.0041926644
0.001626825
-0.0048665357
0.001532714
-0.00545116
0.0013847571
-0.0059207349
0.0011880439
-0.0062508997
0.00094582878
-0.0064179934
0.00065988731
-0.0063984488
0.00033080929
-0.0061683129
-4.1729325e-05
-0.0057029209
-0.00045863401
-0.004976816
-0.00092086737
-0.0039639648
-0.0014289126
-0.002637678
-0.0019837376
-0.00097046021
-0.0025868675
-0.0032084725
0.0010489656
-0.00015900186
0.00054956905
-0.00051911605
0.0012729818
-0.001001172
0.0017510909
-0.0015418249
0.0020376322
-0.0020880291
0.0021672912
-0.0025944456
0.0021661286
-0.0030214954
0.0020538748
-0.0033336914
0.0018449101
-0.0034982916
0.0015493572
-0.0034842216
0.0011739739
-0.0032611906
0.00072279782
-0.0027989706
0.00019766728
-0.0020667618
-0.00040139949
-0.0010326787
-0.0010758124
0.00033667999
-0.0018279927
0.002076509
-0.0026606963
0.0042237565
-0.0035761601
0.006816818
-0.004576799
0.009895466
-0.0056655155
-0.0067920656
0.013479059
-0.00011760619
0.00066717525
-0.00036710021
0.0015224759
-0.00067365631
0.002057647
-0.0009749478
0.0023389237
-0.0012168563
0.0024091997
-0.0013513401
0.0023006124
-0.0013347755
0.0020373103
-0.0011265011
0.0016366357
-0.00068762041
0.0011104765
1.9951239e-05
0.00046640226
0.0010342712
-0.00029152212
0.0023940168
-0.0011620784
0.0041390311
-0.0021464138
0.0063108041
-0.0032475854
0.0089529795
-0.0044701681
0.012111911
-0.0058196283
0.01583704
-0.0073012886
0.02018059
-0.0089203491
0.025197359
-0.010682285
-0.012512517
0.030917811
-6.6908011e-05
0.00073408327
-0.00017912873
0.0016346966
-0.00026637992
0.0021448982
-0.00026730423
0.002339848
-0.0001264167
0.0022683122
0.0002075327
0.001966663
0.00078288833
0.0014619546
0.0016462589
0.00077326511
0.0028434878
-8.675248e-05
0.0044204393
-0.0011105492
0.0064235617
-0.0022946446
0.0089003041
-0.0036388208
0.011899441
-0.0051455507
0.015471402
-0.0068195463
0.019668644
-0.0086674098
0.02454627
-0.010697255
0.030162909
-0.012917928
0.036581223
-0.015338664
0.043868677
-0.017969739
-0.020711521
0.052067681
-9.9461445e-06
0.00074402941
3.4714961e-05
0.0015900355
0.00020034981
0.0019792633
0.00054768152
0.0019925163
0.0011338365
0.0016821572
0.0020135051
0.0010869944
0.0032399059
0.00023555388
0.0048656686
-0.00085249758
0.0069434917
-0.0021645756
0.0095265161
-0.0036935736
0.012668533
-0.0054366618
0.016424089
-0.0073943762
0.020848407
-0.0095698692
0.025997229
-0.011968368
0.031926711
-0.014596892
0.038693721
-0.017464265
0.04635702
-0.020581227
0.054979325
-0.023960968
0.064631137
-0.027621551
-0.031444259
0.075363875
5.0825826e-05
0.00069320359
0.00026597273
0.0013748886
0.00070900777
0.0015362283
0.0014404574
0.0012610667
0.0025191972
0.00060341734
0.0040032137
-0.00039702206
0.0059501996
-0.0017114321
0.0084179425
-0.0033202404
0.011464454
-0.0052110867
0.015147936
-0.0073770561
0.019526515
-0.0098152408
0.024657708
-0.012525569
0.030597688
-0.015509849
0.037400379
-0.01877106
0.045116523
-0.022313036
0.053793127
-0.026140869
0.063474273
-0.030262373
0.074204505
-0.034691199
0.086037771
-0.039454818
-0.044436251
0.099029763
0.00011390289
0.0005793007
0.0005089413
0.00097985015
0.0012470062
0.00079816341
0.0023886776
0.00011939528
0.0039943469
-0.0010022519
0.0061245601
-0.0025272353
0.0088399973
-0.0044268693
0.012201294
-0.0066815375
0.016268636
-0.0092784281
0.021101007
-0.012209427
0.026755153
-0.015469387
0.03328425
-0.019054666
0.040736313
-0.022961911
0.049152384
-0.027187131
0.058564635
-0.031725287
0.068994736
-0.03657097
0.080453672
-0.041721308
0.092944849
-0.047182376
0.1064756
-0.052985564
-0.059050699
0.12109004
0.00017863067
0.00040067003
0.00076057787
0.00039790295
0.0018066063
-0.00024786498
0.0033770396
-0.001451038
0.0055327545
-0.0031579669
0.0083349226
-0.0053294033
0.011844383
-0.0079363295
0.016120716
-0.010957871
0.021220962
-0.014378674
0.027197991
-0.018186457
0.034098576
-0.022369972
0.041961184
-0.026917275
0.050813547
-0.031814273
0.060670018
-0.037043602
0.071528723
-0.042583992
0.083368547
-0.048410795
0.096146935
-0.054499696
0.10980122
-0.060836663
0.12426211
-0.067446452
-0.074334267
0.13954568
0.00024528771
0.001020597
0.0023848267
0.0043965664
0.0071148793
0.010598293
0.014903209
0.020081983
0.026180669
0.033236522
0.04127539
0.050309158
0.060333384
0.071325201
0.083241329
0.096015578
0.10955413
0.12371797
0.13824024
0.15264647
-0.0034948313
-0.0019440149
-8.9906716e-10
-0.0012691677
-0.0022256627
-8.8726718e-10
0.0012158409
-0.0024850078
-8.6834281e-10
0.0039032714
-0.0026874296
-8.3959383e-10
0.0067663296
-0.0028630574
-8.043433e-10
0.0097877334
-0.003021403
-7.5268824e-10
0.012948567
-0.0031608332
-6.9262132e-10
0.016230826
-0.0032822577
-6.1964169e-10
0.019618826
-0.0033879995
-5.344543e-10
0.023098369
-0.0034795429
-4.3804844e-10
0.02665619
-0.003557821
-3.2948266e-10
0.030279887
-0.003623697
-2.0862899e-10
0.033957842
-0.0036779544
-7.3663172e-11
0.037679084
-0.0037212425
7.6290087e-11
0.041433193
-0.0037541089
2.4268357e-10
0.045210229
-0.0037770364
4.2573853e-10
0.049000688
-0.0037904602
6.244992e-10
0.052795469
-0.0037947816
8.3652002e-10
0.05658585
-0.0037903823
1.0562975e-09
0.060363485
-0.003777636
1.2764771e-09
0.064120401
-0.0037569176
1.4843999e-09
0.067849009
-0.0037286092
1.6659582e-09
0.071542111
-0.0036931043
1.8004878e-09
0.075192919
-0.00365081
1.8688129e-09
0.078795065
-0.0036021472
1.8458427e-09
0.082342613
-0.00354755
1.7145288e-09
0.085830075
-0.0034874633
1.4546968e-09
0.089252414
-0.0034223402
1.0649214e-09
0.092605052
-0.0033526389
5.4413094e-10
0.095883871
-0.0032788189
-7.7144196e-11
0.099085211
-0.0032013389
-7.6775328e-10
0.10220586
-0.0031206525
-1.4543897e-09
0.10524307
-0.003037207
-2.0738891e-09
0.10819452
-0.0029514415
-2.5201583e-09
0.11105831
-0.0028637865
-2.7280712e-09
0.11383297
-0.0027746646
-2.6026938e-09
0.11651747
-0.0026844923
-2.148255e-09
0.11911115
-0.0025936842
-1.3576363e-09
0.12161382
-0.0025026621
-3.9822615e-10
0.12402567
-0.0024118563
5.8053567e-10
0.12634743
-0.0023217568
1.2080449e-09
0.12858025
-0.0022328239
1.1824342e-09
0.13072618
-0.0021459288
1.2121062e-10
0.13278732
-0.0020611412
-2.1504235e-09
0.13476945
-0.0019821199
-5.633032e-09
0.13667224
-0.0019027807
-9.9117485e-09
0.13852403
-0.0018517723
-1.4221298e-08
0.14027979
-0.0017557526
-1.7142522e-08
0.14215234
-0.0018725224
-1.8127654e-08
-0.001549164
-7.1561506e-09
0.0028731073
-0.0037681566
0.004974233
-0.0043267884
0.0073215661
-0.0048323408
0.0098526385
-0.0052185021
0.012546399
-0.0055568174
0.015390548
-0.0058655521
0.018368366
-0.0061386512
0.021463464
-0.0063773558
0.024661843
-0.0065863785
0.027950761
-0.0067684617
0.031318111
-0.0069251702
0.034752433
-0.007058019
0.038242896
-0.0071684181
0.041779183
-0.0072575295
0.045351407
-0.0073263321
0.048950067
-0.0073756966
0.052566023
-0.0074064162
0.056190472
-0.0074192309
0.059814943
-0.0074148528
0.063431295
-0.0073939881
0.067031729
-0.0073573521
0.0706088
-0.0073056804
0.074155432
-0.0072397358
0.077664934
-0.0071603118
0.081131019
-0.0070682324
0.084547818
-0.0069643492
0.087909892
-0.0068495375
0.091212242
-0.0067246901
0.094450314
-0.006590711
0.097620003
-0.0064485082
0.10071765
-0.0062989881
0.10374005
-0.0061430484
0.10668442
-0.0059815749
0.10954841
-0.0058154381
0.11233012
-0.0056454916
0.11502803
-0.0054725745
0.11764105
-0.0052975152
0.1201685
-0.0051211384
0.12261013
-0.0049442855
0.12496609
-0.0047678138
0.12723703
-0.0045927038
0.12942408
-0.0044198745
0.13152922
-0.0042510681
0.13355451
-0.0040864274
0.13550563
-0.0039332417
0.13738228
-0.0037794329
0.13921236
-0.0036818482
0.14095183
-0.0034952205
0.14280846
-0.0037291534
-0.0030957068
0.015054141
-0.0053432386
0.016889371
-0.0061620188
0.018947478
-0.0068904472
0.021158512
-0.0074295367
0.023510854
-0.007909159
0.02600088
-0.0083555783
0.028615996
-0.0087537672
0.031342741
-0.0091041006
0.034170035
-0.0094136729
0.037087673
-0.0096860992
0.040085557
-0.0099230544
0.043153853
-0.010126315
0.046283064
-0.010297629
0.049463963
-0.010438429
0.052687554
-0.010549923
0.055945062
-0.010633204
0.059227935
-0.01068929
0.062527856
-0.010719152
0.065836751
-0.010723748
0.069146809
-0.010704047
0.072450506
-0.010661049
0.075740623
-0.010595797
0.079010274
-0.010509387
0.082252926
-0.010402964
0.085462422
-0.010277729
0.088632998
-0.010134925
0.091759296
-0.009975836
0.094836381
-0.0098017751
0.097859742
-0.0096140721
0.1008253
-0.0094140675
0.10372941
-0.0092030982
0.10656886
-0.0089824922
0.10934084
-0.0087535605
0.112043
-0.0085175923
0.11467336
-0.0082758546
0.11723038
-0.0080295935
0.1197129
-0.0077800417
0.12212019
-0.0075284287
0.12445192
-0.0072760102
0.12670817
-0.0070240692
0.12888954
-0.006774074
0.13099707
-0.0065274043
0.13303267
-0.0062866678
0.13499835
-0.0060520989
0.13689964
-0.005834536
0.13873636
-0.0056161532
0.14053546
-0.0054809468
0.14225521
-0.0052149743
0.14409292
-0.0055668589
-0.0046504331
0.032105054
-0.006530482
0.033524502
-0.0075814663
0.035134615
-0.0085005603
0.036862421
-0.0091573427
0.038708626
-0.0097553638
0.040679557
-0.01032651
0.04276807
-0.01084228
0.044964664
-0.011300694
0.047261784
-0.011710793
0.049652229
-0.012076544
0.052128317
-0.012399142
0.05468212
-0.012680118
0.057305656
-0.012921164
0.059990913
-0.013123687
0.062729865
-0.013288875
0.065514505
-0.013417843
0.068336891
-0.013511676
0.071189193
-0.013571453
0.074063728
-0.013598282
0.076953
-0.013593319
0.079849741
-0.01355779
0.082746942
-0.013492998
0.085637888
-0.013400333
0.088516188
-0.013281264
0.091375798
-0.013137339
0.094211047
-0.012970174
0.097016651
-0.01278144
0.099787727
-0.012572851
0.1025198
-0.012346148
0.10520882
-0.012103086
0.10785114
-0.011845421
0.11044355
-0.011574896
0.11298322
-0.011293235
0.11546776
-0.011002135
0.11789518
-0.010703268
0.12026386
-0.010398277
0.12257261
-0.010088795
0.12482063
-0.0097764491
0.12700753
-0.0094629072
0.12913334
-0.0091498773
0.13119858
-0.0088393148
0.13320424
-0.0085330636
0.13515216
-0.0082345916
0.13704432
-0.0079442526
0.13888609
-0.0076763125
0.14067751
-0.0074075713
0.14244417
-0.0072476074
0.14414783
-0.0069186335
0.14597063
-0.0073896599
-0.0062293742
0.052711996
-0.0071747966
0.053556831
-0.0084263023
0.054555466
-0.0094991951
0.055642251
-0.010244127
0.056832034
-0.010945147
0.058139138
-0.011633614
0.059562099
-0.012265241
0.061096075
-0.01283467
0.062736881
-0.0133516
0.064479946
-0.013819609
0.066319778
-0.014238974
0.068250135
-0.014610475
0.070264284
-0.014935314
0.072355157
-0.01521456
0.074515442
-0.01544916
0.076737664
-0.015640066
0.079014273
-0.015788285
0.081337723
-0.015894903
0.083700536
-0.015961095
0.086095366
-0.01598815
0.088515053
-0.015977476
0.090952666
-0.015930611
0.093401548
-0.015849214
0.095855347
-0.015735063
0.098308053
-0.015590045
0.10075402
-0.015416136
0.10318797
-0.01521539
0.10560503
-0.014989913
0.10800073
-0.014741854
0.11037102
-0.014473377
0.11271225
-0.014186651
0.11502119
-0.013883828
0.117295
-0.013567044
0.11953126
-0.013238398
0.12172795
-0.01289996
0.12388345
-0.012553775
0.12599652
-0.012201866
0.12806634
-0.011846264
0.13009248
-0.011489049
0.13207495
-0.011132354
0.13401427
-0.010778628
0.13591139
-0.010430185
0.13776815
-0.010091348
0.13958652
-0.0097626275
0.14137177
-0.0094615629
0.14312425
-0.0091600543
0.14486792
-0.0089912775
0.14656899
-0.0086196969
0.1483908
-0.009211471
-0.0078559065
0.075296703
-0.0071076243
0.075405713
-0.0085353129
0.075634339
-0.0097278202
0.075939158
-0.010548947
0.076348251
-0.01135424
0.076878492
-0.012163855
0.077532941
-0.01291969
0.078311557
-0.013613286
0.079212676
-0.014252718
0.080233176
-0.01484011
0.081368843
-0.015374641
0.082614411
-0.015856043
0.083963727
-0.016284629
0.085410044
-0.016660877
0.086946222
-0.016985338
0.088564848
-0.017258691
0.090258346
-0.017481783
0.092019083
-0.017655641
0.09383947
-0.017781482
0.095712025
-0.017860705
0.097629448
-0.017894899
0.099584669
-0.017885832
0.1015709
-0.017835446
0.10358167
-0.017745836
0.10561087
-0.01761924
0.10765274
-0.01745801
0.10970195
-0.017264595
0.11175354
-0.017041509
0.11380301
-0.01679132
0.11584625
-0.016516613
0.11787957
-0.016219977
0.11989973
-0.01590399
0.12190389
-0.015571199
0.12388961
-0.015224119
0.12585488
-0.014865227
0.12779807
-0.014496969
0.12971798
-0.014121775
0.1316138
-0.013742081
0.13348513
-0.013360388
0.13533205
-0.012979268
0.13715509
-0.012601667
0.13895529
-0.012230384
0.14073453
-0.011870593
0.14249491
-0.011523008
0.14424161
-0.011208264
0.14597546
-0.010893903
0.1477186
-0.010734416
0.14944242
-0.010343518
0.15128906
-0.01105811
-0.0095622471
0.098106174
-0.0061840354
0.097342541
-0.0077716797
0.096670084
-0.0090553632
0.096089738
-0.0099686013
0.095637677
-0.010902178
0.095325149
-0.011851327
0.095157546
-0.012752087
0.095138897
-0.013594638
0.095268766
-0.014382587
0.095543914
-0.015115258
0.09596001
-0.015790736
0.096511673
-0.016407705
0.097192449
-0.016965406
0.097995141
-0.017463569
0.098912099
-0.017902296
0.099935391
-0.018281983
0.10105692
-0.018603315
0.10226856
-0.018867276
0.10356222
-0.019075144
0.10492998
-0.019228462
0.10636411
-0.019329031
0.10785717
-0.019378892
0.10940203
-0.019380306
0.11099192
-0.019335728
0.11262046
-0.019247785
0.1142817
-0.019119247
0.1159701
-0.018952989
0.11768056
-0.018751975
0.11940846
-0.01851922
0.12114961
-0.018257761
0.12290027
-0.017970641
0.12465717
-0.017660882
0.12641744
-0.017331474
0.12817869
-0.016985366
0.12993892
-0.016625463
0.13169659
-0.016254634
0.13345054
-0.015875731
0.13520008
-0.015491615
0.13694492
-0.015105228
0.13868524
-0.01471959
0.14042174
-0.014338167
0.14215562
-0.013964261
0.14388892
-0.013603896
0.14562395
-0.013258038
0.14736593
-0.012950243
0.14911628
-0.012644252
0.15089529
-0.012513428
0.15268001
-0.01212824
0.15459019
-0.012968287
-0.011390165
0.11926919
-0.004363186
0.11757966
-0.0060821491
0.11594346
-0.0074191561
0.11444451
-0.0084696517
0.11311908
-0.009576747
0.11196469
-0.010696943
0.11098684
-0.011774237
0.11019183
-0.012799629
0.1095791
-0.013769859
0.10914409
-0.014680243
0.10888101
-0.015527653
0.10878322
-0.01630992
0.10884317
-0.017025354
0.10905257
-0.017672972
0.10940274
-0.018252465
0.10988477
-0.018764015
0.11048968
-0.019208222
0.1112085
-0.0195861
0.11203241
-0.019899051
0.11295278
-0.02014883
0.11396127
-0.020337517
0.11504986
-0.020467487
0.11621094
-0.020541385
0.1174373
-0.020562085
0.11872218
-0.020532665
0.1200593
-0.020456363
0.12144285
-0.020336546
0.12286755
-0.020176673
0.12432858
-0.019980255
0.12582166
-0.019750835
0.12734297
-0.019491948
0.12888919
-0.019207107
0.1304575
-0.018899782
0.13204553
-0.018573392
0.13365137
-0.018231305
0.13527358
-0.017876845
0.13691116
-0.017513315
0.13856358
-0.017144032
0.14023075
-0.016772398
0.14191308
-0.016401918
0.14361151
-0.016036595
0.1453275
-0.015680259
0.1470634
-0.015339796
0.14882183
-0.015016468
0.15060818
-0.014736587
0.15242457
-0.014460641
0.15428951
-0.014378371
0.15618594
-0.014024674
0.15821111
-0.014993455
-0.013390853
0.13696883
-0.0017863429
0.1344533
-0.0035666141
0.13189751
-0.0048633639
0.12954351
-0.0061156514
0.12741849
-0.0074517319
0.12550386
-0.0087823089
0.12380246
-0.010072837
0.1223194
-0.011316572
0.12105316
-0.012503619
0.11999799
-0.013625076
0.11914642
-0.014676081
0.11849013
-0.015653625
0.11802014
-0.016555372
0.11772698
-0.017379807
0.1176008
-0.018126287
0.11763163
-0.018794848
0.1178095
-0.019386091
0.11812453
-0.01990113
0.11856704
-0.020341562
0.11912763
-0.020709422
0.11979725
-0.021007132
0.12056723
-0.021237472
0.12142938
-0.021403536
0.12237599
-0.021508685
0.12339983
-0.021556513
0.12449427
-0.021550798
0.12565318
-0.021495457
0.12687101
-0.021394507
0.12814278
-0.021252026
0.12946406
-0.021072111
0.13083097
-0.020858854
0.13224017
-0.020616309
0.13368887
-0.020348479
0.13517477
-0.020059301
0.13669612
-0.01975265
0.13825162
-0.019432349
0.13984051
-0.019102196
0.14146247
-0.018765994
0.14311772
-0.018427649
0.14480698
-0.01809118
0.14653155
-0.017761161
0.14829327
-0.017441976
0.15009487
-0.017141397
0.15193942
-0.016861025
0.15383261
-0.016629769
0.15577736
-0.016405393
0.15779052
-0.016391535
0.15986104
-0.016095189
0.16206403
-0.017196446
-0.015623959
0.15011231
0.00074781536
0.14682535
-0.0002796526
0.14353036
-0.0015683761
0.14048519
-0.0030704757
0.13769314
-0.0046596857
0.13514799
-0.0062371594
0.1328516
-0.0077764493
0.13080408
-0.009269051
0.12900301
-0.010702548
0.12744321
-0.01206528
0.1261169
-0.013349763
0.12501468
-0.014551409
0.12412642
-0.015667112
0.12344149
-0.016694877
0.12294894
-0.017633739
0.1226377
-0.018483608
0.12249674
-0.019245127
0.12251518
-0.019919574
0.12268243
-0.020508805
0.1229882
-0.021015196
0.12342266
-0.021441589
0.12397642
-0.021791239
0.12464065
-0.022067761
0.12540705
-0.022275082
0.12626792
-0.022417388
0.12721619
-0.02249907
0.12824541
-0.022524674
0.12934975
-0.022498853
0.13052405
-0.022426318
0.13176373
-0.022311799
0.13306488
-0.022160005
0.13442417
-0.021975599
0.13583887
-0.021763177
0.13730682
-0.021527253
0.13882644
-0.021272266
0.14039668
-0.021002586
0.14201703
-0.02072255
0.14368753
-0.020436497
0.14540876
-0.020148877
0.14718184
-0.019864258
0.1490085
-0.019587824
0.15089107
-0.019324544
0.15283278
-0.019083107
0.15483721
-0.018865458
0.1569105
-0.018703058
0.15905627
-0.018551162
0.16129043
-0.01862569
0.16360595
-0.018410716
0.16606188
-0.019652372
-0.018153298
0.18899926
0.0053460828
-0.19359752
0.18519292
0.0035266795
0.18180469
0.0018198551
0.17866356
7.0660317e-05
0.17573217
-0.0017282955
0.1729855
-0.0034904948
0.17040536
-0.0051963112
0.16798278
-0.0068464697
0.1657139
-0.0084336645
0.16359658
-0.0099479618
0.161629
-0.011382177
0.15980906
-0.012731473
0.15813416
-0.013992214
0.15660104
-0.015161758
0.15520582
-0.016238512
0.15394405
-0.017221843
0.15281086
-0.018111938
0.151801
-0.01890971
0.15090893
-0.019616738
0.15012894
-0.020235204
0.14945518
-0.020767832
0.14888177
-0.021217829
0.14840284
-0.021588828
0.14801258
-0.021884826
0.14770532
-0.022110128
0.14747554
-0.022269288
0.14731792
-0.022367051
0.14722736
-0.022408296
0.14719903
-0.02239799
0.14722837
-0.022341132
0.14731108
-0.022242722
0.14744321
-0.022107723
0.14762107
-0.021941039
0.14784132
-0.021747501
0.14810092
-0.021531868
0.14839717
-0.021298836
0.14872769
-0.021053076
0.14909046
-0.020799268
0.1494838
-0.020542217
0.14990641
-0.020286862
0.15035739
-0.020038805
0.15083627
-0.019803422
0.1513432
-0.019590034
0.1518786
-0.019400868
0.15244457
-0.019269025
0.15304169
-0.019148276
0.15367817
-0.019262172
0.1543462
-0.019078753
0.15508575
-0.020391912
-0.018908292
0.21694512
0.0087406173
-0.22033966
0.21347521
0.0069965895
0.21026643
0.0050286422
0.2071653
0.0031717811
0.20412307
0.0013139357
0.2011707
-0.00053812051
0.19832509
-0.0023506999
0.19559078
-0.0041121576
0.19297369
-0.0058165744
0.19048067
-0.0074549509
0.18811697
-0.0090184737
0.185886
-0.010500506
0.1837898
-0.011896009
0.18182909
-0.01320105
0.18000338
-0.014412803
0.17831109
-0.015529549
0.17674971
-0.016550557
0.17531597
-0.017475974
0.17400598
-0.018306748
0.17281534
-0.019044561
0.17173926
-0.019691753
0.17077268
-0.020251253
0.16991036
-0.020726506
0.16914695
-0.021121409
0.16847706
-0.021440242
0.16789537
-0.021687597
0.16739663
-0.021868312
0.16697574
-0.021987411
0.1666278
-0.022050045
0.1663481
-0.022061435
0.16613221
-0.022026828
0.16597594
-0.021951458
0.16587542
-0.021840519
0.16582707
-0.021699147
0.16582762
-0.021532417
0.16587414
-0.021345356
0.16596403
-0.02114297
0.16609506
-0.020930294
0.16626534
-0.020712499
0.16647339
-0.020494911
0.16671814
-0.020283555
0.16699898
-0.020084265
0.16731584
-0.019906893
0.16766925
-0.019754275
0.16806042
-0.019660196
0.16849164
-0.019579493
0.16896513
-0.019735665
0.16948739
-0.019601018
0.17005337
-0.020957889
-0.019548878
0.24384813
0.011460989
-0.2465685
0.24100148
0.0098432402
0.23815214
0.0078779841
0.23530923
0.0060146892
0.23243571
0.0041874583
0.22955238
0.0023452068
0.22669047
0.00051120954
0.2238693
-0.0012909845
0.2211048
-0.0030520784
0.21841294
-0.0047630898
0.2158076
-0.0064131315
0.2132998
-0.00799271
0.2108982
-0.0094944036
0.20860938
-0.010912228
0.20643801
-0.012241436
0.20438702
-0.013478561
0.20245781
-0.014621349
0.20065048
-0.015668636
0.19896398
-0.016620252
0.19739635
-0.017476934
0.19594485
-0.018240246
0.19460608
-0.018912488
0.19337619
-0.019496613
0.19225093
-0.01999615
0.1912258
-0.020415114
0.19029614
-0.020757935
0.1894572
-0.021029373
0.18870424
-0.021234452
0.18803258
-0.021378385
0.18743766
-0.021466514
0.18691508
-0.021504253
0.18646067
-0.021497046
0.18607048
-0.021450329
0.18574084
-0.02136951
0.18546839
-0.021259958
0.18525004
-0.021127014
0.18508309
-0.02097602
0.18496516
-0.020812359
0.18489424
-0.020641577
0.18486873
-0.020469399
0.18488744
-0.02030227
0.18494971
-0.020146531
0.18505527
-0.020012455
0.18520481
-0.019903811
0.18539867
-0.019854056
0.18564097
-0.019821795
0.18592737
-0.020022065
0.18628019
-0.01995384
0.18664278
-0.02132048
-0.02005167
0.26934793
0.013490867
-0.27137781
0.26718317
0.012008004
0.26484483
0.010216319
0.26240922
0.0084503014
0.25988433
0.006712353
0.25728033
0.0049492015
0.25462336
0.0031681787
0.2519376
0.0013947763
0.24924306
-0.00035753901
0.24655958
-0.0020796053
0.24390646
-0.0037600129
0.24130087
-0.0053871167
0.23875755
-0.0069510923
0.23628905
-0.008443722
0.23390568
-0.0098580687
0.23161565
-0.011188535
0.2294252
-0.012430893
0.22733876
-0.013582197
0.22535919
-0.014640686
0.22348796
-0.015605696
0.22172529
-0.016477576
0.22007039
-0.017257593
0.21852161
-0.017947831
0.21707657
-0.018551107
0.21573232
-0.019070869
0.21448549
-0.019511107
0.21333239
-0.019876266
0.21226909
-0.020171155
0.21129157
-0.02040087
0.21039578
-0.02057072
0.20957769
-0.02068616
0.20883338
-0.020752738
0.2081591
-0.020776048
0.20755129
-0.020761701
0.20700664
-0.020715312
0.20652213
-0.020642501
0.20609503
-0.020548915
0.20572295
-0.02044028
0.20540387
-0.020322502
0.20513618
-0.02020171
0.20491867
-0.020084758
0.20475066
-0.019978526
0.20463182
-0.019893614
0.20456298
-0.019834973
0.20454381
-0.019834879
0.20457991
-0.019857895
0.20466124
-0.020103396
0.20482349
-0.020116093
0.20496314
-0.021460127
-0.020392444
0.29305018
0.014819662
-0.29437897
0.29157345
0.013484733
0.28985367
0.011936103
0.28795793
0.010346033
0.28592116
0.0087491298
0.28375417
0.0071161882
0.2814754
0.0054469542
0.27910809
0.003762077
0.27667359
0.0020769671
0.27419204
0.00040194502
0.27168367
-0.0012516441
0.26916825
-0.0028716943
0.26666412
-0.0044469688
0.26418792
-0.0059675202
0.26175442
-0.0074245639
0.25937641
-0.0088105318
0.25706472
-0.010119196
0.25482819
-0.011345673
0.25267388
-0.012486369
0.2506071
-0.013538922
0.24863166
-0.014502133
0.24674995
-0.015375882
0.24496315
-0.016161036
0.2432714
-0.016859357
0.24167393
-0.017473398
0.24016923
-0.018006408
0.2387552
-0.018462231
0.23742925
-0.01884521
0.23618848
-0.019160098
0.23502973
-0.01941197
0.23394972
-0.01960615
0.23294512
-0.019748138
0.23201264
-0.019843565
0.23114909
-0.019898146
0.23035143
-0.019917657
0.22961686
-0.019907932
0.22894283
-0.019874881
0.22832708
-0.019824532
0.2277677
-0.019763129
0.22726319
-0.019697191
0.2268124
-0.019633966
0.22641475
-0.019580883
0.22606993
-0.019548791
0.22577893
-0.019543974
0.22554095
-0.019596896
0.22536265
-0.019679597
0.22522952
-0.019970265
0.22518729