/*--------------------------------*- C++ -*----------------------------------*\
| =========                 |                                                 |
| \\      /  F ield         | OpenFOAM: The Open Source CFD Toolbox           |
|  \\    /   O peration     | Version:  4.1                                   |
|   \\  /    A nd           | Web:      www.OpenFOAM.org                      |
|    \\/     M anipulation  |                                                 |
\*---------------------------------------------------------------------------*/
FoamFile
{
    version     2.0;
    format      ascii;
    class       volScalarField;
    location    "17";
    object      p;
}
// * * * * * * * * * * * * * * * * * * * * * * * * * * * * * * * * * * * * * //

dimensions      [0 2 -2 0 0 0 0];

internalField   nonuniform List<scalar> 
1000
(
1.5227841
1.5064928
1.490447
1.4745847
1.4588454
1.4431877
1.4275875
1.4120314
1.3965117
1.3810224
1.3655586
1.350116
1.3346915
1.319283
1.3038886
1.2885071
1.2731372
1.257778
1.2424286
1.2270881
1.2117558
1.1964312
1.1811136
1.1658025
1.1504975
1.135198
1.1199038
1.1046144
1.0893295
1.0740488
1.058772
1.0434988
1.028229
1.0129623
0.99769858
0.98243758
0.96717914
0.95192307
0.93666922
0.92141744
0.90616758
0.89091952
0.87567314
0.86042831
0.84518495
0.82994293
0.81470219
0.79946262
0.78422414
0.76898669
0.75375019
0.73851457
0.72327978
0.70804576
0.69281244
0.6775798
0.66234776
0.64711631
0.63188538
0.61665495
0.60142498
0.58619544
0.57096629
0.55573751
0.54050908
0.52528095
0.51005313
0.49482557
0.47959826
0.46437119
0.44914433
0.43391767
0.4186912
0.40346489
0.38823875
0.37301275
0.35778688
0.34256114
0.32733551
0.31210998
0.29688455
0.28165922
0.26643396
0.25120878
0.23598366
0.22075862
0.20553363
0.19030869
0.1750838
0.15985896
0.14463416
0.12940939
0.11418466
0.098959961
0.08373529
0.068510645
0.053286023
0.038061421
0.02283684
0.0076122701
1.5225821
1.5062707
1.4903756
1.4746372
1.4589367
1.4432679
1.4276477
1.4120793
1.3965538
1.3810607
1.3655927
1.3501458
1.3347175
1.3193058
1.3039089
1.2885254
1.2731539
1.2577932
1.2424425
1.2271008
1.2117675
1.196442
1.1811235
1.1658117
1.150506
1.1352059
1.1199111
1.1046212
1.0893358
1.0740546
1.0587774
1.0435038
1.0282337
1.0129667
0.99770263
0.98244135
0.96718264
0.95192633
0.93667225
0.92142025
0.9061702
0.89092195
0.8756754
0.86043041
0.84518689
0.82994474
0.81470387
0.79946417
0.78422559
0.76898803
0.75375143
0.73851572
0.72328085
0.70804675
0.69281336
0.67758064
0.66234855
0.64711703
0.63188605
0.61665557
0.60142556
0.58619597
0.57096678
0.55573797
0.54050949
0.52528134
0.51005348
0.49482589
0.47959856
0.46437146
0.44914458
0.43391791
0.41869141
0.40346509
0.38823893
0.37301291
0.35778703
0.34256127
0.32733563
0.3121101
0.29688466
0.28165931
0.26643405
0.25120886
0.23598374
0.22075868
0.20553368
0.19030874
0.17508385
0.159859
0.14463419
0.12940943
0.11418469
0.098959989
0.083735316
0.068510668
0.053286044
0.038061439
0.022836858
0.0076122792
1.5222112
1.5058109
1.4901236
1.4746061
1.4590089
1.4433469
1.4277015
1.4121145
1.3965833
1.38109
1.3656211
1.3501712
1.3347392
1.3193243
1.3039252
1.2885399
1.273167
1.2578051
1.2424532
1.2271105
1.2117764
1.1964501
1.181131
1.1658186
1.1505123
1.1352117
1.1199165
1.1046262
1.0893404
1.0740589
1.0587814
1.0435075
1.0282371
1.0129698
0.99770556
0.98244407
0.96718517
0.95192867
0.93667443
0.92142228
0.90617208
0.8909237
0.87567702
0.86043192
0.8451883
0.82994605
0.81470508
0.7994653
0.78422663
0.768989
0.75375233
0.73851656
0.72328162
0.70804746
0.69281403
0.67758126
0.66234912
0.64711756
0.63188654
0.61665603
0.60142598
0.58619636
0.57096714
0.5557383
0.5405098
0.52528162
0.51005374
0.49482613
0.47959878
0.46437167
0.44914477
0.43391808
0.41869157
0.40346524
0.38823906
0.37301303
0.35778714
0.34256138
0.32733573
0.31211018
0.29688474
0.28165938
0.26643411
0.25120892
0.23598379
0.22075873
0.20553373
0.19030878
0.17508389
0.15985904
0.14463423
0.12940945
0.11418472
0.098960012
0.083735337
0.068510687
0.053286061
0.038061455
0.022836869
0.0076122867
1.5218379
1.5053095
1.4898023
1.4745211
1.4590578
1.4434216
1.4277552
1.4121483
1.3966111
1.381119
1.365651
1.350199
1.3347634
1.3193449
1.3039431
1.2885559
1.2731813
1.257818
1.2424648
1.2271211
1.211786
1.1964588
1.181139
1.1658259
1.150519
1.1352179
1.1199222
1.1046315
1.0893453
1.0740634
1.0587856
1.0435114
1.0282407
1.0129732
0.99770868
0.98244698
0.96718787
0.95193119
0.93667677
0.92142446
0.90617411
0.89092559
0.87567878
0.86043356
0.84518982
0.82994746
0.81470639
0.79946652
0.78422777
0.76899006
0.75375331
0.73851747
0.72328247
0.70804825
0.69281476
0.67758194
0.66234975
0.64711815
0.63188709
0.61665653
0.60142644
0.58619679
0.57096754
0.55573867
0.54051014
0.52528194
0.51005403
0.49482641
0.47959904
0.4643719
0.44914499
0.43391828
0.41869175
0.40346541
0.38823922
0.37301318
0.35778728
0.3425615
0.32733584
0.31211029
0.29688483
0.28165947
0.26643419
0.25120899
0.23598386
0.22075879
0.20553379
0.19030884
0.17508393
0.15985908
0.14463426
0.12940949
0.11418475
0.098960043
0.083735364
0.068510713
0.053286084
0.038061477
0.022836885
0.0076123009
1.5216117
1.504994
1.4895864
1.4744528
1.4590816
1.4434681
1.4277904
1.4121705
1.3966291
1.3811383
1.3656714
1.3502185
1.3347806
1.3193599
1.3039562
1.2885676
1.273192
1.2578277
1.2424736
1.227129
1.2117932
1.1964655
1.1811451
1.1658315
1.1505242
1.1352227
1.1199266
1.1046355
1.0893491
1.074067
1.0587888
1.0435144
1.0282435
1.0129758
0.99771113
0.98244925
0.96718998
0.95193316
0.9366786
0.92142616
0.9061757
0.89092707
0.87568015
0.86043484
0.84519101
0.82994857
0.81470743
0.79946749
0.78422867
0.76899089
0.75375409
0.7385182
0.72328315
0.70804888
0.69281534
0.67758248
0.66235026
0.64711862
0.63188752
0.61665694
0.60142682
0.58619714
0.57096787
0.55573897
0.54051042
0.5252822
0.51005427
0.49482663
0.47959924
0.46437209
0.44914516
0.43391844
0.4186919
0.40346554
0.38823935
0.3730133
0.35778738
0.3425616
0.32733593
0.31211037
0.29688491
0.28165954
0.26643426
0.25120905
0.23598391
0.22075884
0.20553383
0.19030888
0.17508397
0.15985911
0.1446343
0.12940952
0.11418478
0.098960068
0.083735387
0.068510734
0.053286103
0.038061495
0.022836899
0.0076123143
1.5216117
1.504994
1.4895864
1.4744528
1.4590816
1.4434681
1.4277904
1.4121705
1.3966291
1.3811383
1.3656714
1.3502185
1.3347806
1.3193599
1.3039562
1.2885676
1.273192
1.2578277
1.2424736
1.227129
1.2117932
1.1964655
1.1811451
1.1658315
1.1505242
1.1352227
1.1199266
1.1046355
1.0893491
1.074067
1.0587888
1.0435144
1.0282435
1.0129758
0.99771113
0.98244925
0.96718998
0.95193316
0.9366786
0.92142616
0.9061757
0.89092707
0.87568015
0.86043484
0.84519101
0.82994857
0.81470743
0.79946749
0.78422867
0.76899089
0.75375409
0.7385182
0.72328315
0.70804888
0.69281534
0.67758248
0.66235026
0.64711862
0.63188752
0.61665694
0.60142682
0.58619714
0.57096787
0.55573897
0.54051042
0.5252822
0.51005427
0.49482663
0.47959924
0.46437209
0.44914516
0.43391844
0.4186919
0.40346554
0.38823935
0.3730133
0.35778738
0.3425616
0.32733593
0.31211037
0.29688491
0.28165954
0.26643426
0.25120905
0.23598391
0.22075884
0.20553383
0.19030888
0.17508397
0.15985911
0.1446343
0.12940952
0.11418478
0.098960069
0.083735387
0.068510734
0.053286103
0.038061496
0.022836899
0.0076123145
1.5218379
1.5053096
1.4898023
1.4745211
1.4590578
1.4434216
1.4277552
1.4121483
1.3966111
1.381119
1.365651
1.350199
1.3347634
1.3193449
1.3039431
1.2885559
1.2731813
1.257818
1.2424648
1.2271211
1.211786
1.1964588
1.181139
1.1658259
1.150519
1.135218
1.1199222
1.1046315
1.0893453
1.0740634
1.0587856
1.0435114
1.0282407
1.0129732
0.99770869
0.98244698
0.96718787
0.95193119
0.93667677
0.92142446
0.90617411
0.89092559
0.87567878
0.86043355
0.84518982
0.82994746
0.81470639
0.79946652
0.78422777
0.76899006
0.75375331
0.73851747
0.72328247
0.70804825
0.69281476
0.67758194
0.66234975
0.64711815
0.63188709
0.61665653
0.60142644
0.58619679
0.57096754
0.55573867
0.54051014
0.52528194
0.51005403
0.49482641
0.47959904
0.4643719
0.44914499
0.43391828
0.41869175
0.40346541
0.38823922
0.37301318
0.35778728
0.3425615
0.32733584
0.31211029
0.29688483
0.28165947
0.26643419
0.25120899
0.23598386
0.22075879
0.20553379
0.19030884
0.17508393
0.15985908
0.14463427
0.12940949
0.11418475
0.098960043
0.083735364
0.068510713
0.053286084
0.038061477
0.022836886
0.0076123015
1.5222113
1.5058109
1.4901236
1.4746061
1.4590089
1.4433469
1.4277015
1.4121145
1.3965833
1.38109
1.3656211
1.3501712
1.3347392
1.3193243
1.3039252
1.2885399
1.273167
1.2578051
1.2424532
1.2271105
1.2117764
1.1964501
1.181131
1.1658186
1.1505123
1.1352117
1.1199165
1.1046262
1.0893404
1.0740589
1.0587814
1.0435075
1.0282371
1.0129698
0.99770556
0.98244407
0.96718517
0.95192868
0.93667443
0.92142228
0.90617208
0.8909237
0.87567702
0.86043192
0.8451883
0.82994605
0.81470508
0.7994653
0.78422663
0.768989
0.75375233
0.73851656
0.72328162
0.70804746
0.69281402
0.67758126
0.66234912
0.64711756
0.63188654
0.61665603
0.60142597
0.58619636
0.57096714
0.5557383
0.5405098
0.52528162
0.51005374
0.49482613
0.47959878
0.46437167
0.44914477
0.43391808
0.41869157
0.40346524
0.38823906
0.37301303
0.35778714
0.34256138
0.32733573
0.31211018
0.29688474
0.28165938
0.26643411
0.25120892
0.23598379
0.22075873
0.20553373
0.19030878
0.17508389
0.15985904
0.14463423
0.12940945
0.11418472
0.098960013
0.083735337
0.068510688
0.053286062
0.038061456
0.02283687
0.0076122873
1.5225821
1.5062707
1.4903757
1.4746372
1.4589367
1.4432678
1.4276477
1.4120793
1.3965538
1.3810607
1.3655927
1.3501458
1.3347175
1.3193058
1.303909
1.2885254
1.2731539
1.2577932
1.2424425
1.2271008
1.2117675
1.196442
1.1811236
1.1658117
1.150506
1.1352059
1.1199111
1.1046212
1.0893358
1.0740546
1.0587774
1.0435038
1.0282337
1.0129667
0.99770263
0.98244135
0.96718264
0.95192633
0.93667225
0.92142025
0.9061702
0.89092195
0.8756754
0.86043041
0.84518689
0.82994474
0.81470386
0.79946417
0.78422559
0.76898803
0.75375143
0.73851572
0.72328085
0.70804674
0.69281336
0.67758064
0.66234855
0.64711703
0.63188605
0.61665557
0.60142556
0.58619597
0.57096678
0.55573796
0.54050949
0.52528134
0.51005348
0.49482589
0.47959856
0.46437146
0.44914458
0.4339179
0.41869141
0.40346509
0.38823893
0.37301291
0.35778703
0.34256127
0.32733563
0.3121101
0.29688466
0.28165931
0.26643405
0.25120886
0.23598374
0.22075868
0.20553368
0.19030874
0.17508385
0.159859
0.1446342
0.12940943
0.11418469
0.09895999
0.083735316
0.068510668
0.053286044
0.03806144
0.022836858
0.0076122796
1.5227841
1.5064928
1.490447
1.4745847
1.4588454
1.4431877
1.4275874
1.4120314
1.3965117
1.3810224
1.3655585
1.350116
1.3346915
1.319283
1.3038886
1.2885071
1.2731373
1.2577781
1.2424286
1.2270881
1.2117558
1.1964312
1.1811136
1.1658025
1.1504975
1.135198
1.1199038
1.1046144
1.0893295
1.0740488
1.058772
1.0434988
1.028229
1.0129623
0.99769858
0.98243758
0.96717914
0.95192307
0.93666922
0.92141744
0.90616758
0.89091952
0.87567314
0.86042831
0.84518494
0.82994293
0.81470218
0.79946261
0.78422414
0.76898669
0.75375019
0.73851457
0.72327978
0.70804575
0.69281244
0.6775798
0.66234776
0.64711631
0.63188538
0.61665495
0.60142498
0.58619544
0.57096629
0.55573751
0.54050908
0.52528095
0.51005313
0.49482557
0.47959826
0.46437119
0.44914433
0.43391767
0.4186912
0.40346489
0.38823875
0.37301275
0.35778688
0.34256114
0.32733551
0.31210998
0.29688455
0.28165922
0.26643396
0.25120878
0.23598366
0.22075862
0.20553363
0.19030869
0.1750838
0.15985896
0.14463416
0.12940939
0.11418466
0.098959962
0.083735291
0.068510645
0.053286023
0.038061422
0.022836841
0.0076122704
)
;

boundaryField
{
    top
    {
        type            zeroGradient;
    }
    inlet
    {
        type            fixedValue;
        value           uniform 1.53103;
    }
    outlet
    {
        type            fixedValue;
        value           uniform 0;
    }
    bottom
    {
        type            zeroGradient;
    }
    back
    {
        type            empty;
    }
    front
    {
        type            empty;
    }
}


// ************************************************************************* //
