/*--------------------------------*- C++ -*----------------------------------*\
| =========                 |                                                 |
| \\      /  F ield         | OpenFOAM: The Open Source CFD Toolbox           |
|  \\    /   O peration     | Version:  4.1                                   |
|   \\  /    A nd           | Web:      www.OpenFOAM.org                      |
|    \\/     M anipulation  |                                                 |
\*---------------------------------------------------------------------------*/
FoamFile
{
    version     2.0;
    format      ascii;
    class       surfaceScalarField;
    location    "17";
    object      phi;
}
// * * * * * * * * * * * * * * * * * * * * * * * * * * * * * * * * * * * * * //

dimensions      [0 3 -1 0 0 0 0];

internalField   nonuniform List<scalar> 
1890
(
0.0030130653
1.4881324e-06
0.0030080659
5.0003893e-06
0.0030018994
6.1667629e-06
0.00299635
5.5492777e-06
0.0029919594
4.3902015e-06
0.0029885286
3.4303815e-06
0.0029857203
2.8079682e-06
0.0029833138
2.4062017e-06
0.0029812101
2.1034782e-06
0.0029793655
1.8443279e-06
0.0029777455
1.619761e-06
0.0029763126
1.4326422e-06
0.0029750316
1.2808513e-06
0.0029738746
1.1568312e-06
0.0029728221
1.0523486e-06
0.0029718604
9.615681e-07
0.0029709791
8.8126113e-07
0.0029701693
8.0969652e-07
0.0029694235
7.4566647e-07
0.0029687353
6.8809465e-07
0.0029680993
6.3601981e-07
0.0029675105
5.8865404e-07
0.0029669651
5.4538925e-07
0.0029664593
5.0575022e-07
0.0029659899
4.6934869e-07
0.002965554
4.3585002e-07
0.002965149
4.0496425e-07
0.0029647726
3.7643689e-07
0.0029644225
3.5004894e-07
0.0029640968
3.2560719e-07
0.0029637939
3.0294405e-07
0.002963512
2.8190857e-07
0.0029632496
2.623686e-07
0.0029630053
2.4420326e-07
0.002962778
2.2730658e-07
0.0029625664
2.1158024e-07
0.0029623695
1.9693802e-07
0.0029621862
1.8329874e-07
0.0029620156
1.7059126e-07
0.0029618568
1.587476e-07
0.0029617091
1.4770838e-07
0.0029615717
1.3741605e-07
0.0029614439
1.2782058e-07
0.002961325
1.1887279e-07
0.0029612145
1.1053021e-07
0.0029611117
1.0275047e-07
0.0029610162
9.5497343e-08
0.0029609275
8.8734079e-08
0.002960845
8.24296e-08
0.0029607685
7.6551914e-08
0.0029606974
7.1074297e-08
0.0029606314
6.5968738e-08
0.0029605702
6.1212198e-08
0.0029605134
5.6780107e-08
0.0029604608
5.2652596e-08
0.002960412
4.880801e-08
0.0029603668
4.5229195e-08
0.0029603249
4.1897062e-08
0.0029602861
3.8796823e-08
0.0029602502
3.5911571e-08
0.0029602169
3.3228556e-08
0.0029601862
3.0732821e-08
0.0029601578
2.8413408e-08
0.0029601315
2.6257018e-08
0.0029601073
2.4254243e-08
0.0029600849
2.2393276e-08
0.0029600642
2.0666084e-08
0.0029600452
1.9062126e-08
0.0029600276
1.7574552e-08
0.0029600114
1.6193976e-08
0.0029599965
1.4914607e-08
0.0029599828
1.3728024e-08
0.0029599701
1.2629349e-08
0.0029599585
1.1611052e-08
0.0029599479
1.0669075e-08
0.0029599381
9.7966188e-09
0.0029599291
8.9903423e-09
0.0029599208
8.2441108e-09
0.0029599133
7.555255e-09
0.0029599064
6.9181453e-09
0.0029599
6.3307344e-09
0.0029598942
5.7878045e-09
0.002959889
5.2879779e-09
0.0029598841
4.8262045e-09
0.0029598797
4.4018845e-09
0.0029598757
4.0098611e-09
0.0029598721
3.6506413e-09
0.0029598688
3.3183689e-09
0.0029598657
3.0152614e-09
0.002959863
2.7338558e-09
0.0029598605
2.4792209e-09
0.0029598583
2.2406714e-09
0.0029598563
2.0279204e-09
0.0029598544
1.824597e-09
0.0029598528
1.6470672e-09
0.0029598513
1.4712927e-09
0.00295985
1.3213422e-09
0.0029598489
1.1695698e-09
0.0029598478
1.0372863e-09
9.706331e-10
0.0076184539
1.6424339e-06
0.007616388
7.067547e-06
0.0076126691
9.8861394e-06
0.0076083353
9.882904e-06
0.0076041202
8.6049857e-06
0.0076002187
7.3315459e-06
0.0075965986
6.4277953e-06
0.0075932189
5.7856366e-06
0.0075900786
5.2435143e-06
0.0075871905
4.732222e-06
0.0075845535
4.2565948e-06
0.0075821495
3.8364439e-06
0.0075799533
3.4768618e-06
0.0075779409
3.1690791e-06
0.0075760924
2.9007352e-06
0.0075743914
2.6624665e-06
0.0075728238
2.4488177e-06
0.0075713769
2.256547e-06
0.0075700394
2.0830981e-06
0.0075688013
1.9260649e-06
0.007567654
1.7832493e-06
0.0075665898
1.6528077e-06
0.0075656019
1.5332618e-06
0.0075646842
1.4234197e-06
0.0075638312
1.3222813e-06
0.0075630381
1.2289847e-06
0.0075623002
1.142775e-06
0.0075616136
1.0629946e-06
0.0075609746
9.8906696e-07
0.0075603797
9.2048788e-07
0.0075598258
8.5680911e-07
0.0075593101
7.9763347e-07
0.0075588298
7.4260268e-07
0.0075583826
6.9139683e-07
0.0075579662
6.4372455e-07
0.0075575784
5.9932424e-07
0.0075572174
5.5795544e-07
0.0075568813
5.1940129e-07
0.0075565684
4.8346074e-07
0.0075562772
4.4995181e-07
0.0075560062
4.187045e-07
0.007555754
3.8956477e-07
0.0075555195
3.6238769e-07
0.0075553013
3.3704177e-07
0.0075550984
3.1340249e-07
0.0075549098
2.9135702e-07
0.0075547345
2.7079785e-07
0.0075545716
2.5162761e-07
0.0075544203
2.3375297e-07
0.0075542798
2.170897e-07
0.0075541493
2.0155659e-07
0.0075540282
1.8708047e-07
0.0075539158
1.7359038e-07
0.0075538115
1.6102277e-07
0.0075537149
1.4931559e-07
0.0075536253
1.3841345e-07
0.0075535422
1.2826192e-07
0.0075534653
1.188128e-07
0.0075533941
1.1001839e-07
0.0075533282
1.018366e-07
0.0075532672
9.4225493e-08
0.0075532108
8.7148456e-08
0.0075531586
8.0568666e-08
0.0075531104
7.4454175e-08
0.0075530659
6.8772541e-08
0.0075530248
6.3496021e-08
0.0075529869
5.8596118e-08
0.0075529519
5.4048642e-08
0.0075529196
4.9828456e-08
0.0075528899
4.5914616e-08
0.0075528625
4.2285034e-08
0.0075528374
3.8921483e-08
0.0075528142
3.580446e-08
0.0075527929
3.2918236e-08
0.0075527733
3.0245693e-08
0.0075527553
2.7773148e-08
0.0075527388
2.5485507e-08
0.0075527237
2.3370966e-08
0.0075527098
2.141637e-08
0.0075526972
1.9611336e-08
0.0075526855
1.7944454e-08
0.0075526749
1.6406516e-08
0.0075526652
1.498803e-08
0.0075526564
1.3680273e-08
0.0075526483
1.2475931e-08
0.0075526409
1.1365966e-08
0.0075526342
1.0346302e-08
0.0075526282
9.4057452e-09
0.0075526226
8.5454304e-09
0.0075526176
7.7488539e-09
0.0075526131
7.026754e-09
0.007552609
6.350804e-09
0.0075526052
5.7497953e-09
0.0075526019
5.1706825e-09
0.0075525989
4.6783162e-09
0.0075525962
4.1696315e-09
0.0075525937
3.7841902e-09
0.0075525916
3.3157798e-09
0.0075525895
3.0689285e-09
2.6025125e-09
0.010923539
1.2045119e-06
0.010924665
5.9429971e-06
0.010925593
8.9580947e-06
0.010925973
9.5026705e-06
0.01092595
8.6273799e-06
0.010925669
7.6119603e-06
0.010925196
6.9012047e-06
0.010924567
6.4141648e-06
0.010923828
5.9825345e-06
0.010923025
5.5349239e-06
0.010922194
5.0869013e-06
0.010921359
4.6712379e-06
0.010920534
4.3021979e-06
0.010919727
3.9757791e-06
0.010918946
3.682099e-06
0.010918194
3.4137375e-06
0.010917476
3.1670531e-06
0.010916792
2.9402903e-06
0.010916143
2.7319294e-06
0.010915529
2.5402192e-06
0.010914949
2.3633798e-06
0.010914402
2.1998498e-06
0.010913887
2.0483521e-06
0.010913402
1.9078287e-06
0.010912947
1.7773622e-06
0.01091252
1.6561275e-06
0.010912119
1.5433799e-06
0.010911744
1.4384474e-06
0.010911392
1.3407284e-06
0.010911063
1.2496794e-06
0.010910755
1.16481e-06
0.010910467
1.0856717e-06
0.010910198
1.0118562e-06
0.010909946
9.4298737e-07
0.010909711
8.7872199e-07
0.010909492
8.1874199e-07
0.010909287
7.6275634e-07
0.010909096
7.1049381e-07
0.010908917
6.6170564e-07
0.010908751
6.1615889e-07
0.010908596
5.7363972e-07
0.010908452
5.3394699e-07
0.010908317
4.9689597e-07
0.010908192
4.6231218e-07
0.010908075
4.3003549e-07
0.010907967
3.9991406e-07
0.010907866
3.7180863e-07
0.010907772
3.4558667e-07
0.010907684
3.2112687e-07
0.010907603
2.9831334e-07
0.010907528
2.7704019e-07
0.010907458
2.5720589e-07
0.010907393
2.3871796e-07
0.010907332
2.2148739e-07
0.010907276
2.0543331e-07
0.010907224
1.9047757e-07
0.010907176
1.7654948e-07
0.010907131
1.6358043e-07
0.010907089
1.5150859e-07
0.010907051
1.4027363e-07
0.010907015
1.2982153e-07
0.010906982
1.2009931e-07
0.010906952
1.1105973e-07
0.010906924
1.0265617e-07
0.010906898
9.4847416e-08
0.010906873
8.7592518e-08
0.010906851
8.0855485e-08
0.010906831
7.4600271e-08
0.010906812
6.8795548e-08
0.010906794
6.3409641e-08
0.010906778
5.8415249e-08
0.010906763
5.3784481e-08
0.01090675
4.9493653e-08
0.010906737
4.5518237e-08
0.010906725
4.1837682e-08
0.010906715
3.8430324e-08
0.010906705
3.5278484e-08
0.010906696
3.2363006e-08
0.010906688
2.9668757e-08
0.01090668
2.7178561e-08
0.010906673
2.4879831e-08
0.010906667
2.2756852e-08
0.010906661
2.0799696e-08
0.010906656
1.8993143e-08
0.010906651
1.7330725e-08
0.010906646
1.5796142e-08
0.010906642
1.4388184e-08
0.010906639
1.3086205e-08
0.010906635
1.1898509e-08
0.010906632
1.07936e-08
0.01090663
9.7983078e-09
0.010906627
8.8565977e-09
0.010906625
8.0327404e-09
0.010906623
7.2181831e-09
0.010906621
6.5551532e-09
0.010906619
5.8264709e-09
0.010906618
5.3322442e-09
0.010906616
4.6387648e-09
0.010906615
4.3531719e-09
3.6638162e-09
0.013049831
6.1680053e-07
0.013052509
3.2653144e-06
0.013056348
5.1196897e-06
0.013060245
5.6046636e-06
0.013063684
5.1887434e-06
0.013066659
4.6363518e-06
0.013069298
4.2622129e-06
0.013071687
4.024431e-06
0.013073856
3.8135882e-06
0.013075812
3.5790641e-06
0.013077567
3.3313886e-06
0.013079144
3.0945725e-06
0.013080565
2.8804081e-06
0.013081853
2.6878718e-06
0.013083024
2.5114742e-06
0.01308409
2.3471638e-06
0.013085064
2.1933614e-06
0.013085954
2.0496543e-06
0.01308677
1.9156565e-06
0.01308752
1.790702e-06
0.013088209
1.6740086e-06
0.013088844
1.5648725e-06
0.01308943
1.4627215e-06
0.01308997
1.3670864e-06
0.01309047
1.2775461e-06
0.013090933
1.1937111e-06
0.013091361
1.1152107e-06
0.013091757
1.0417048e-06
0.013092125
9.7287312e-07
0.013092467
9.0842549e-07
0.013092783
8.4808527e-07
0.013093077
7.9159987e-07
0.01309335
7.3872623e-07
0.013093604
6.89243e-07
0.01309384
6.4293586e-07
0.013094059
5.9961083e-07
0.013094263
5.5907871e-07
0.013094452
5.2116914e-07
0.013094628
4.8571476e-07
0.013094792
4.5256599e-07
0.013094944
4.2157473e-07
0.013095085
3.9260953e-07
0.013095216
3.6553924e-07
0.013095338
3.4024855e-07
0.013095452
3.1662133e-07
0.013095557
2.9455636e-07
0.013095655
2.7395074e-07
0.013095746
2.5471584e-07
0.01309583
2.367605e-07
0.013095909
2.2000709e-07
0.013095981
2.0437478e-07
0.013096049
1.8979577e-07
0.013096111
1.7619844e-07
0.013096169
1.6352353e-07
0.013096223
1.5170751e-07
0.013096273
1.4069878e-07
0.013096319
1.3044103e-07
0.013096361
1.2088929e-07
0.013096401
1.1199355e-07
0.013096437
1.0371485e-07
0.013096471
9.6008778e-08
0.013096503
8.8841541e-08
0.013096531
8.2173644e-08
0.013096558
7.5975947e-08
0.013096583
7.0213355e-08
0.013096605
6.4860711e-08
0.013096626
5.9886741e-08
0.013096646
5.5269915e-08
0.013096664
5.098239e-08
0.01309668
4.7005707e-08
0.013096695
4.3314989e-08
0.013096709
3.9894595e-08
0.013096722
3.6722323e-08
0.013096734
3.3784888e-08
0.013096744
3.1062397e-08
0.013096754
2.854373e-08
0.013096763
2.6211112e-08
0.013096772
2.4055182e-08
0.013096779
2.2060062e-08
0.013096786
2.0217799e-08
0.013096792
1.851456e-08
0.013096798
1.6943226e-08
0.013096804
1.5492096e-08
0.013096808
1.4154233e-08
0.013096813
1.2920866e-08
0.013096817
1.1783623e-08
0.013096821
1.0738419e-08
0.013096824
9.7725509e-09
0.013096827
8.8907211e-09
0.01309683
8.0695564e-09
0.013096832
7.3311464e-09
0.013096834
6.6286548e-09
0.013096836
6.0193168e-09
0.013096838
5.4078207e-09
0.01309684
4.9218258e-09
0.013096841
4.3698572e-09
0.013096843
4.015354e-09
0.013096844
3.4826658e-09
0.013096845
3.2854518e-09
2.7706505e-09
0.014088687
3.3355563e-11
0.014091954
9.8132875e-11
0.014097073
3.329171e-11
0.014102678
-1.925483e-11
0.014107866
-1.2625572e-11
0.014112502
5.7937474e-11
0.014116763
1.3018341e-10
0.014120787
1.7083668e-10
0.014124601
1.8079208e-10
0.014128179
1.8353075e-10
0.01413151
1.8735221e-10
0.014134605
1.9230511e-10
0.014137485
1.922264e-10
0.014140172
1.8719473e-10
0.014142683
1.7724589e-10
0.01414503
1.647773e-10
0.014147224
1.5047999e-10
0.014149273
1.350461e-10
0.014151188
1.191096e-10
0.014152979
1.0271113e-10
0.014154653
8.6920508e-11
0.014156218
7.1262686e-11
0.01415768
5.7045769e-11
0.014159047
4.3294357e-11
0.014160325
3.1372088e-11
0.014161518
1.9867601e-11
0.014162633
1.0358689e-11
0.014163675
1.6638978e-12
0.014164648
-6.0583738e-12
0.014165556
-1.3164123e-11
0.014166405
-1.8358651e-11
0.014167196
-2.3661382e-11
0.014167935
-2.7117798e-11
0.014168624
-3.1002848e-11
0.014169267
-3.3167836e-11
0.014169867
-3.5891709e-11
0.014170426
-3.6948074e-11
0.014170947
-3.8851194e-11
0.014171433
-3.920494e-11
0.014171885
-4.0438432e-11
0.014172307
-4.0136503e-11
0.0141727
-4.0932928e-11
0.014173065
-4.0285677e-11
0.014173405
-4.0701372e-11
0.014173722
-3.9659755e-11
0.014174017
-3.9844792e-11
0.014174291
-3.8647925e-11
0.014174545
-3.8596827e-11
0.014174782
-3.7134845e-11
0.014175002
-3.6947616e-11
0.014175207
-3.5416468e-11
0.014175397
-3.505623e-11
0.014175573
-3.3316122e-11
0.014175736
-3.2858911e-11
0.014175888
-3.1086281e-11
0.014176029
-3.0485076e-11
0.014176159
-2.8532786e-11
0.01417628
-2.785766e-11
0.014176392
-2.589811e-11
0.014176496
-2.5105138e-11
0.014176592
-2.2997121e-11
0.014176681
-2.2159891e-11
0.014176763
-2.0078828e-11
0.014176839
-1.9162132e-11
0.014176909
-1.6977781e-11
0.014176974
-1.6060634e-11
0.014177034
-1.3951974e-11
0.014177089
-1.3007487e-11
0.01417714
-1.0856143e-11
0.014177187
-9.9653802e-12
0.014177231
-7.9514517e-12
0.014177271
-7.0911305e-12
0.014177307
-5.1124679e-12
0.014177341
-4.3544282e-12
0.014177372
-2.5905362e-12
0.014177401
-1.9096944e-12
0.014177427
-3.0989365e-13
0.014177451
2.4761807e-13
0.014177473
1.706263e-12
0.014177493
1.9749288e-12
0.014177512
3.3308621e-12
0.014177529
3.3519582e-12
0.014177544
4.4238913e-12
0.014177558
4.2314488e-12
0.014177571
5.1455297e-12
0.014177583
4.6697374e-12
0.014177594
5.2667591e-12
0.014177604
4.5344994e-12
0.014177612
4.9397173e-12
0.014177621
3.8528255e-12
0.014177628
3.7827215e-12
0.014177634
2.11257e-12
0.01417764
1.4399516e-12
0.014177646
-5.6268583e-13
0.014177651
-1.5409196e-12
0.014177655
-2.8986744e-12
0.014177659
-3.6440001e-12
0.014177663
-4.229899e-12
0.014177666
-7.555612e-12
-8.7990852e-12
0.014088686
-6.1686615e-07
0.014091953
-3.265683e-06
0.014097073
-5.1200529e-06
0.014102677
-5.6048479e-06
0.014107865
-5.1887478e-06
0.014112501
-4.6362641e-06
0.014116763
-4.2620537e-06
0.014120787
-4.0242154e-06
0.0141246
-3.8133317e-06
0.014128179
-3.5787744e-06
0.01413151
-3.3310756e-06
0.014134605
-3.0942446e-06
0.014137485
-2.8800767e-06
0.014140172
-2.6875458e-06
0.014142683
-2.5111619e-06
0.01414503
-2.3468707e-06
0.014147224
-2.1930922e-06
0.014149273
-2.0494119e-06
0.014151188
-1.9154425e-06
0.014152979
-1.7905171e-06
0.014154653
-1.6738525e-06
0.014156218
-1.5647444e-06
0.01415768
-1.4626196e-06
0.014159047
-1.3670093e-06
0.014160325
-1.2774911e-06
0.014161518
-1.1936767e-06
0.014162634
-1.1151939e-06
0.014163675
-1.041704e-06
0.014164648
-9.7288626e-07
0.014165557
-9.0845122e-07
0.014166405
-8.4812084e-07
0.014167196
-7.9164449e-07
0.014167935
-7.3877758e-07
0.014168624
-6.8930076e-07
0.014169267
-6.4299792e-07
0.014169867
-5.9967713e-07
0.014170426
-5.5914743e-07
0.014170947
-5.2124058e-07
0.014171433
-4.8578725e-07
0.014171885
-4.5263995e-07
0.014172307
-4.2164869e-07
0.0141727
-3.9268419e-07
0.014173065
-3.6561317e-07
0.014173406
-3.4032248e-07
0.014173722
-3.1669395e-07
0.014174017
-2.946286e-07
0.014174291
-2.7402128e-07
0.014174545
-2.5478556e-07
0.014174782
-2.3682818e-07
0.014175002
-2.2007373e-07
0.014175207
-2.0443914e-07
0.014175397
-1.8985878e-07
0.014175573
-1.7625891e-07
0.014175736
-1.6358251e-07
0.014175888
-1.5176378e-07
0.014176029
-1.4075329e-07
0.014176159
-1.3049262e-07
0.01417628
-1.2093902e-07
0.014176392
-1.1204023e-07
0.014176496
-1.0375944e-07
0.014176592
-9.6050179e-08
0.014176681
-8.8880803e-08
0.014176763
-8.2209648e-08
0.014176839
-7.6009662e-08
0.014176909
-7.0243736e-08
0.014176974
-6.4888839e-08
0.014177034
-5.9911558e-08
0.014177089
-5.5292428e-08
0.01417714
-5.100162e-08
0.014177187
-4.7022772e-08
0.014177231
-4.3328906e-08
0.01417727
-3.9906408e-08
0.014177307
-3.6731141e-08
0.014177341
-3.3791855e-08
0.014177372
-3.1066627e-08
0.014177401
-2.8546281e-08
0.014177427
-2.6211212e-08
0.014177451
-2.4053928e-08
0.014177473
-2.2056658e-08
0.014177493
-2.0213384e-08
0.014177512
-1.8508348e-08
0.014177529
-1.6936465e-08
0.014177544
-1.5483964e-08
0.014177558
-1.4145913e-08
0.014177571
-1.2911587e-08
0.014177583
-1.1774682e-08
0.014177594
-1.0729004e-08
0.014177603
-9.763909e-09
0.014177612
-8.8820895e-09
0.01417762
-8.0623531e-09
0.014177628
-7.3246889e-09
0.014177634
-6.6245305e-09
0.01417764
-6.0169936e-09
0.014177646
-5.4087744e-09
0.014177651
-4.9245931e-09
0.014177655
-4.3751042e-09
0.014177659
-4.0216456e-09
0.014177663
-3.4893632e-09
0.014177666
-3.2968295e-09
-2.7836747e-09
0.013049831
-1.2044962e-06
0.013052509
-5.9428975e-06
0.013056347
-8.9580423e-06
0.013060245
-9.5027126e-06
0.013063683
-8.6274381e-06
0.013066658
-7.6119943e-06
0.013069297
-6.9011799e-06
0.013071687
-6.4140876e-06
0.013073856
-5.9824067e-06
0.013075811
-5.5347598e-06
0.013077567
-5.0867054e-06
0.013079143
-4.6710225e-06
0.013080565
-4.3019692e-06
0.013081853
-3.9755477e-06
0.013083024
-3.6818714e-06
0.01308409
-3.4135209e-06
0.013085064
-3.166852e-06
0.013085954
-2.940108e-06
0.013086771
-2.7317682e-06
0.01308752
-2.5400795e-06
0.013088209
-2.3632628e-06
0.013088844
-2.1997535e-06
0.01308943
-2.0482771e-06
0.013089971
-1.9077716e-06
0.013090471
-1.7773236e-06
0.013090933
-1.6561033e-06
0.013091361
-1.5433708e-06
0.013091758
-1.4384491e-06
0.013092126
-1.340742e-06
0.013092467
-1.2497007e-06
0.013092784
-1.1648404e-06
0.013093078
-1.0857068e-06
0.013093351
-1.0118981e-06
0.013093604
-9.4303178e-07
0.01309384
-8.787713e-07
0.013094059
-8.187921e-07
0.013094263
-7.628101e-07
0.013094452
-7.1054714e-07
0.013094628
-6.6176155e-07
0.013094792
-6.1621343e-07
0.013094944
-5.7369624e-07
0.013095085
-5.3400154e-07
0.013095216
-4.969519e-07
0.013095338
-4.6236566e-07
0.013095452
-4.300901e-07
0.013095557
-3.9996593e-07
0.013095655
-3.7186127e-07
0.013095746
-3.456363e-07
0.01309583
-3.2117717e-07
0.013095909
-2.9836048e-07
0.013095981
-2.7708773e-07
0.013096049
-2.5725008e-07
0.013096111
-2.3876249e-07
0.013096169
-2.2152848e-07
0.013096223
-2.0547451e-07
0.013096272
-1.9051517e-07
0.013096319
-1.7658716e-07
0.013096361
-1.6361444e-07
0.013096401
-1.5154247e-07
0.013096437
-1.4030373e-07
0.013096471
-1.2985151e-07
0.013096502
-1.2012547e-07
0.013096531
-1.110856e-07
0.013096558
-1.0267816e-07
0.013096582
-9.4869182e-08
0.013096605
-8.7610439e-08
0.013096626
-8.0873084e-08
0.013096646
-7.4614036e-08
0.013096663
-6.8809125e-08
0.01309668
-6.3419498e-08
0.013096695
-5.8424908e-08
0.013096709
-5.3790516e-08
0.013096721
-4.949971e-08
0.013096733
-4.5520868e-08
0.013096744
-4.184041e-08
0.013096754
-3.842981e-08
0.013096763
-3.5278373e-08
0.013096771
-3.2359916e-08
0.013096779
-2.9666211e-08
0.013096786
-2.7173296e-08
0.013096792
-2.4875487e-08
0.013096798
-2.2750127e-08
0.013096803
-2.0794105e-08
0.013096808
-1.8985464e-08
0.013096813
-1.7324602e-08
0.013096817
-1.5788299e-08
0.01309682
-1.4382171e-08
0.013096824
-1.3078788e-08
0.013096827
-1.189343e-08
0.013096829
-1.0787565e-08
0.013096832
-9.7950529e-09
0.013096834
-8.852683e-09
0.013096836
-8.0323661e-09
0.013096838
-7.2175545e-09
0.013096839
-6.5582595e-09
0.013096841
-5.8294505e-09
0.013096842
-5.3365595e-09
0.013096843
-4.6418316e-09
0.013096844
-4.3552383e-09
-3.6670569e-09
0.010923538
-1.6423997e-06
0.010924664
-7.0673508e-06
0.010925592
-9.8859036e-06
0.010925972
-9.882808e-06
0.01092595
-8.6050807e-06
0.010925669
-7.3317503e-06
0.010925195
-6.427999e-06
0.010924567
-5.7857769e-06
0.010923828
-5.2435767e-06
0.010923025
-4.732222e-06
0.010922194
-4.2565508e-06
0.01092136
-3.8363693e-06
0.010920534
-3.4767647e-06
0.010919727
-3.1689672e-06
0.010918946
-2.9006163e-06
0.010918195
-2.6623477e-06
0.010917476
-2.4487048e-06
0.010916793
-2.2564433e-06
0.010916144
-2.0830062e-06
0.010915529
-1.9259855e-06
0.010914949
-1.7831834e-06
0.010914402
-1.6527544e-06
0.010913887
-1.5332211e-06
0.010913403
-1.4233902e-06
0.010912948
-1.3222626e-06
0.01091252
-1.2289748e-06
0.01091212
-1.1427734e-06
0.010911744
-1.0629996e-06
0.010911393
-9.8907827e-07
0.010911063
-9.2050358e-07
0.010910755
-8.5682926e-07
0.010910467
-7.9765637e-07
0.010910198
-7.4262864e-07
0.010909946
-6.9142414e-07
0.010909711
-6.4375375e-07
0.010909492
-5.9935396e-07
0.010909287
-5.5798638e-07
0.010909096
-5.1943201e-07
0.010908918
-4.8349205e-07
0.010908751
-4.4998254e-07
0.010908596
-4.1873559e-07
0.010908452
-3.895949e-07
0.010908317
-3.6241785e-07
0.010908192
-3.3707088e-07
0.010908075
-3.1343158e-07
0.010907967
-2.9138484e-07
0.010907866
-2.7082545e-07
0.010907772
-2.5165394e-07
0.010907684
-2.3377911e-07
0.010907603
-2.1711442e-07
0.010907528
-2.0158095e-07
0.010907458
-1.8710344e-07
0.010907392
-1.7361303e-07
0.010907332
-1.6104389e-07
0.010907276
-1.4933624e-07
0.010907224
-1.384326e-07
0.010907175
-1.2828065e-07
0.010907131
-1.1882991e-07
0.010907089
-1.1003492e-07
0.010907051
-1.0185157e-07
0.010907015
-9.4239952e-08
0.010906982
-8.7161238e-08
0.010906952
-8.0580812e-08
0.010906923
-7.4464721e-08
0.010906897
-6.8782551e-08
0.010906873
-6.3504358e-08
0.010906851
-5.8603829e-08
0.01090683
-5.4054797e-08
0.010906811
-4.9834126e-08
0.010906794
-4.5918701e-08
0.010906778
-4.2288591e-08
0.010906763
-3.8923615e-08
0.010906749
-3.5806249e-08
0.010906737
-3.2918619e-08
0.010906725
-3.0245736e-08
0.010906714
-2.7771991e-08
0.010906705
-2.5484239e-08
0.010906696
-2.3368553e-08
0.010906687
-2.1413886e-08
0.01090668
-1.960795e-08
0.010906673
-1.7941263e-08
0.010906666
-1.6402514e-08
0.010906661
-1.4984297e-08
0.010906655
-1.3675987e-08
0.01090665
-1.24722e-08
0.010906646
-1.136179e-08
0.010906642
-1.0342793e-08
0.010906638
-9.4020719e-09
0.010906635
-8.5427619e-09
0.010906632
-7.746152e-09
0.010906629
-7.0251704e-09
0.010906627
-6.3492004e-09
0.010906624
-5.7493255e-09
0.010906622
-5.1699282e-09
0.01090662
-4.6791727e-09
0.010906619
-4.1713319e-09
0.010906617
-3.7855223e-09
0.010906616
-3.3157542e-09
0.010906615
-3.0640219e-09
-2.5977715e-09
0.0076184541
-1.4880294e-06
0.0076163882
-5.0002243e-06
0.0076126694
-6.1666299e-06
0.0076083357
-5.5492583e-06
0.0076041206
-4.3903573e-06
0.007600219
-3.4306606e-06
0.0075965988
-2.808274e-06
0.0075932191
-2.4064516e-06
0.0075900788
-2.1036529e-06
0.0075871906
-1.8444388e-06
0.0075845536
-1.6198324e-06
0.0075821496
-1.4326865e-06
0.0075799535
-1.2808765e-06
0.0075779411
-1.1568408e-06
0.0075760927
-1.0523478e-06
0.0075743917
-9.6156146e-07
0.0075728241
-8.8125231e-07
0.0075713772
-8.0968833e-07
0.0075700397
-7.4565968e-07
0.0075688017
-6.8809077e-07
0.0075676544
-6.3601811e-07
0.0075665903
-5.8865582e-07
0.0075656024
-5.4539301e-07
0.0075646846
-5.0575723e-07
0.0075638317
-4.6935688e-07
0.0075630385
-4.3586084e-07
0.0075623007
-4.0497544e-07
0.0075616141
-3.7645014e-07
0.007560975
-3.5006179e-07
0.0075603801
-3.256216e-07
0.0075598262
-3.0295756e-07
0.0075593104
-2.819233e-07
0.0075588301
-2.6238196e-07
0.0075583829
-2.4421759e-07
0.0075579665
-2.2731933e-07
0.0075575787
-2.1159388e-07
0.0075572176
-1.9694989e-07
0.0075568815
-1.8331142e-07
0.0075565686
-1.7060215e-07
0.0075562774
-1.5875934e-07
0.0075560063
-1.4771825e-07
0.0075557542
-1.3742676e-07
0.0075555196
-1.2782948e-07
0.0075553014
-1.188826e-07
0.0075550985
-1.1053818e-07
0.0075549098
-1.0275936e-07
0.0075547345
-9.5504461e-08
0.0075545716
-8.8742177e-08
0.0075544203
-8.2435909e-08
0.0075542797
-7.6559195e-08
0.0075541492
-7.1079858e-08
0.0075540281
-6.5975323e-08
0.0075539157
-6.1217034e-08
0.0075538114
-5.6785943e-08
0.0075537147
-5.2656745e-08
0.0075536251
-4.8813197e-08
0.0075535421
-4.523266e-08
0.0075534651
-4.1901534e-08
0.0075533939
-3.879963e-08
0.007553328
-3.5915415e-08
0.007553267
-3.32307e-08
0.0075532106
-3.0735971e-08
0.0075531584
-2.8414918e-08
0.0075531102
-2.6259568e-08
0.0075530657
-2.4255123e-08
0.0075530246
-2.239517e-08
0.0075529866
-2.0666374e-08
0.0075529516
-1.9063472e-08
0.0075529194
-1.7574274e-08
0.0075528897
-1.619474e-08
0.0075528623
-1.4913823e-08
0.0075528371
-1.3728335e-08
0.0075528139
-1.2628102e-08
0.0075527926
-1.1610897e-08
0.007552773
-1.0667448e-08
0.0075527551
-9.7961479e-09
0.0075527386
-8.9883995e-09
0.0075527234
-8.2433325e-09
0.0075527096
-7.5530998e-09
0.0075526969
-6.9172291e-09
0.0075526853
-6.3284502e-09
0.0075526747
-5.7867781e-09
0.007552665
-5.2856846e-09
0.0075526561
-4.8252483e-09
0.0075526481
-4.399675e-09
0.0075526407
-4.0090166e-09
0.007552634
-3.6486543e-09
0.0075526279
-3.3178405e-09
0.0075526224
-3.0136379e-09
0.0075526174
-2.7337148e-09
0.0075526128
-2.4779606e-09
0.0075526087
-2.24067e-09
0.007552605
-2.0262084e-09
0.0075526017
-1.8239806e-09
0.0075525986
-1.645566e-09
0.007552596
-1.4704693e-09
0.0075525935
-1.3201788e-09
0.0075525914
-1.1686403e-09
0.0075525893
-1.0333137e-09
-9.6575263e-10
0.0030130661
0.0030080663
0.0030018998
0.0029963503
0.0029919597
0.0029885288
0.0029857203
0.0029833137
0.0029812098
0.0029793652
0.0029777452
0.0029763124
0.0029750314
0.0029738745
0.002972822
0.0029718604
0.0029709791
0.0029701693
0.0029694236
0.0029687354
0.0029680994
0.0029675107
0.0029669652
0.0029664595
0.0029659901
0.0029655542
0.0029651492
0.0029647727
0.0029644226
0.002964097
0.002963794
0.0029635121
0.0029632497
0.0029630055
0.0029627781
0.0029625665
0.0029623696
0.0029621863
0.0029620156
0.0029618569
0.0029617092
0.0029615717
0.0029614439
0.002961325
0.0029612145
0.0029611117
0.0029610162
0.0029609275
0.002960845
0.0029607685
0.0029606974
0.0029606314
0.0029605702
0.0029605134
0.0029604607
0.0029604119
0.0029603667
0.0029603248
0.002960286
0.0029602501
0.0029602169
0.0029601861
0.0029601577
0.0029601315
0.0029601072
0.0029600848
0.0029600641
0.0029600451
0.0029600275
0.0029600113
0.0029599964
0.0029599827
0.00295997
0.0029599584
0.0029599478
0.002959938
0.002959929
0.0029599208
0.0029599132
0.0029599063
0.0029599
0.0029598942
0.0029598889
0.0029598841
0.0029598797
0.0029598757
0.002959872
0.0029598687
0.0029598657
0.0029598629
0.0029598605
0.0029598582
0.0029598562
0.0029598544
0.0029598527
0.0029598513
0.00295985
0.0029598488
0.0029598478
)
;

boundaryField
{
    top
    {
        type            calculated;
        value           uniform 0;
    }
    inlet
    {
        type            calculated;
        value           nonuniform List<scalar> 10(-0.0030145523 -0.0076186073 -0.0109231 -0.013049242 -0.01408807 -0.014088068 -0.013049242 -0.010923099 -0.0076186075 -0.0030145536);
    }
    outlet
    {
        type            calculated;
        value           nonuniform List<scalar> 10(0.0029598468 0.0075525879 0.010906614 0.013096846 0.014177669 0.014177669 0.013096845 0.010906614 0.0075525877 0.0029598468);
    }
    bottom
    {
        type            calculated;
        value           uniform 0;
    }
    back
    {
        type            empty;
        value           nonuniform 0();
    }
    front
    {
        type            empty;
        value           nonuniform 0();
    }
}


// ************************************************************************* //
