/*--------------------------------*- C++ -*----------------------------------*\
| =========                 |                                                 |
| \\      /  F ield         | OpenFOAM: The Open Source CFD Toolbox           |
|  \\    /   O peration     | Version:  4.1                                   |
|   \\  /    A nd           | Web:      www.OpenFOAM.org                      |
|    \\/     M anipulation  |                                                 |
\*---------------------------------------------------------------------------*/
FoamFile
{
    version     2.0;
    format      ascii;
    class       volVectorField;
    location    "17";
    object      U;
}
// * * * * * * * * * * * * * * * * * * * * * * * * * * * * * * * * * * * * * //

dimensions      [0 1 -1 0 0 0 0];

internalField   nonuniform List<vector> 
1000
(
(0.31211027 0.00012909203 0)
(0.31182204 0.00037902821 0)
(0.31118819 0.0004173111 0)
(0.31054361 0.00031985755 0)
(0.31001989 0.0002094818 0)
(0.30961767 0.00013944061 0)
(0.30929861 0.00010535357 0)
(0.30903091 8.7954781e-05 0)
(0.30879834 7.5282456e-05 0)
(0.30859438 6.4137729e-05 0)
(0.30841546 5.4907039e-05 0)
(0.30825791 4.7979505e-05 0)
(0.30811788 4.2947012e-05 0)
(0.30799205 3.9085148e-05 0)
(0.30787796 3.5839934e-05 0)
(0.3077739 3.2948346e-05 0)
(0.30767866 3.0332558e-05 0)
(0.30759126 2.7972818e-05 0)
(0.30751086 2.5845952e-05 0)
(0.30743673 2.3918926e-05 0)
(0.30736827 2.2160241e-05 0)
(0.30730494 2.0546667e-05 0)
(0.3072463 1.9062542e-05 0)
(0.30719194 1.7696015e-05 0)
(0.30714151 1.6436667e-05 0)
(0.3070947 1.5274583e-05 0)
(0.30705121 1.4200736e-05 0)
(0.3070108 1.3206991e-05 0)
(0.30697322 1.2286343e-05 0)
(0.30693828 1.1432498e-05 0)
(0.30690577 1.0639973e-05 0)
(0.30687552 9.9037075e-06 0)
(0.30684736 9.2192824e-06 0)
(0.30682116 8.5825738e-06 0)
(0.30679677 7.9900079e-06 0)
(0.30677407 7.4381956e-06 0)
(0.30675294 6.9242146e-06 0)
(0.30673327 6.4452435e-06 0)
(0.30671497 5.9988626e-06 0)
(0.30669793 5.5826891e-06 0)
(0.30668208 5.1946999e-06 0)
(0.30666734 4.8328668e-06 0)
(0.30665362 4.495485e-06 0)
(0.30664086 4.1808081e-06 0)
(0.30662899 3.8873898e-06 0)
(0.30661796 3.6137197e-06 0)
(0.30660771 3.3585653e-06 0)
(0.30659818 3.1206076e-06 0)
(0.30658932 2.8987925e-06 0)
(0.3065811 2.6919672e-06 0)
(0.30657347 2.4992283e-06 0)
(0.30656638 2.3195594e-06 0)
(0.3065598 2.1521852e-06 0)
(0.3065537 1.9962112e-06 0)
(0.30654804 1.8509722e-06 0)
(0.30654279 1.7156739e-06 0)
(0.30653793 1.5897459e-06 0)
(0.30653342 1.4724855e-06 0)
(0.30652925 1.3634049e-06 0)
(0.30652539 1.2618763e-06 0)
(0.30652181 1.1674832e-06 0)
(0.3065185 1.0796681e-06 0)
(0.30651544 9.9807722e-07 0)
(0.30651262 9.2220975e-07 0)
(0.30651 8.5176603e-07 0)
(0.30650759 7.8629989e-07 0)
(0.30650537 7.2555953e-07 0)
(0.30650331 6.6914191e-07 0)
(0.30650142 6.1683672e-07 0)
(0.30649967 5.6828347e-07 0)
(0.30649806 5.233087e-07 0)
(0.30649658 4.8158462e-07 0)
(0.30649522 4.4296967e-07 0)
(0.30649397 4.0716925e-07 0)
(0.30649281 3.7407047e-07 0)
(0.30649176 3.4340305e-07 0)
(0.30649078 3.1507918e-07 0)
(0.30648989 2.8885387e-07 0)
(0.30648908 2.646627e-07 0)
(0.30648833 2.4227692e-07 0)
(0.30648764 2.2165409e-07 0)
(0.30648702 2.0258148e-07 0)
(0.30648644 1.8504036e-07 0)
(0.30648592 1.6882194e-07 0)
(0.30648545 1.5393543e-07 0)
(0.30648501 1.4016914e-07 0)
(0.30648461 1.2757178e-07 0)
(0.30648425 1.1590485e-07 0)
(0.30648393 1.0527667e-07 0)
(0.30648363 9.5395633e-08 0)
(0.30648336 8.6462702e-08 0)
(0.30648312 7.8085208e-08 0)
(0.3064829 7.0592173e-08 0)
(0.3064827 6.3449363e-08 0)
(0.30648252 5.7086122e-08 0)
(0.30648236 5.0922075e-08 0)
(0.30648221 4.5251278e-08 0)
(0.30648208 4.0156863e-08 0)
(0.30648198 3.4526987e-08 0)
(0.30648184 3.4737482e-08 0)
(0.78877964 0.00014691661 0)
(0.78900894 0.00064832715 0)
(0.78861259 0.00091451978 0)
(0.78806428 0.00089987987 0)
(0.78757657 0.00075592774 0)
(0.78716262 0.00061149051 0)
(0.78678599 0.00050961848 0)
(0.7864276 0.00044130704 0)
(0.78608802 0.00038845608 0)
(0.78577323 0.00034197299 0)
(0.78548602 0.0003007688 0)
(0.78522515 0.00026590254 0)
(0.78498753 0.00023737329 0)
(0.78477012 0.0002139885 0)
(0.78457054 0.00019430559 0)
(0.78438701 0.00017726217 0)
(0.784218 0.00016224921 0)
(0.78406215 0.0001489246 0)
(0.7839182 0.00013704343 0)
(0.78378505 0.00012638994 0)
(0.78366172 0.00011677451 0)
(0.78354738 0.00010804336 0)
(0.78344127 0.00010007819 0)
(0.78334273 9.2787244e-05 0)
(0.78325116 8.6095986e-05 0)
(0.78316604 7.9941094e-05 0)
(0.78308686 7.4267914e-05 0)
(0.7830132 6.902912e-05 0)
(0.78294464 6.4183852e-05 0)
(0.78288083 5.9696529e-05 0)
(0.78282141 5.5536018e-05 0)
(0.7827661 5.1674688e-05 0)
(0.78271459 4.8088012e-05 0)
(0.78266662 4.4753965e-05 0)
(0.78262195 4.1652855e-05 0)
(0.78258036 3.8766833e-05 0)
(0.78254164 3.6079834e-05 0)
(0.78250558 3.3577169e-05 0)
(0.78247202 3.1245542e-05 0)
(0.78244077 2.9072693e-05 0)
(0.7824117 2.7047479e-05 0)
(0.78238464 2.5159559e-05 0)
(0.78235947 2.3399511e-05 0)
(0.78233605 2.1758529e-05 0)
(0.78231428 2.0228573e-05 0)
(0.78229403 1.8802095e-05 0)
(0.78227521 1.7472199e-05 0)
(0.78225772 1.623237e-05 0)
(0.78224147 1.5076658e-05 0)
(0.78222637 1.399942e-05 0)
(0.78221236 1.299551e-05 0)
(0.78219935 1.2060016e-05 0)
(0.78218727 1.1188467e-05 0)
(0.78217607 1.0376583e-05 0)
(0.78216568 9.6204792e-06 0)
(0.78215605 8.9164116e-06 0)
(0.78214712 8.260992e-06 0)
(0.78213885 7.6509471e-06 0)
(0.78213119 7.0833269e-06 0)
(0.7821241 6.5552595e-06 0)
(0.78211753 6.0641684e-06 0)
(0.78211146 5.6075382e-06 0)
(0.78210585 5.1831251e-06 0)
(0.78210066 4.7887185e-06 0)
(0.78209586 4.4223584e-06 0)
(0.78209144 4.0821069e-06 0)
(0.78208735 3.7662596e-06 0)
(0.78208358 3.4731114e-06 0)
(0.7820801 3.2011745e-06 0)
(0.7820769 2.9489541e-06 0)
(0.78207395 2.7151598e-06 0)
(0.78207123 2.4984748e-06 0)
(0.78206873 2.2977748e-06 0)
(0.78206643 2.1119051e-06 0)
(0.78206432 1.9398954e-06 0)
(0.78206237 1.7807251e-06 0)
(0.78206059 1.6335536e-06 0)
(0.78205896 1.4974823e-06 0)
(0.78205746 1.3717954e-06 0)
(0.78205609 1.2556887e-06 0)
(0.78205483 1.1485572e-06 0)
(0.78205368 1.0496742e-06 0)
(0.78205263 9.5855559e-07 0)
(0.78205167 8.7451212e-07 0)
(0.7820508 7.9719231e-07 0)
(0.78205 7.258983e-07 0)
(0.78204927 6.6046797e-07 0)
(0.78204861 6.0009721e-07 0)
(0.78204801 5.4490853e-07 0)
(0.78204747 4.9383623e-07 0)
(0.78204697 4.4749053e-07 0)
(0.78204653 4.0425119e-07 0)
(0.78204612 3.6556071e-07 0)
(0.78204575 3.287302e-07 0)
(0.78204543 2.9667109e-07 0)
(0.78204513 2.6476722e-07 0)
(0.78204487 2.3864433e-07 0)
(0.78204461 2.1028757e-07 0)
(0.78204445 1.9066906e-07 0)
(0.78204415 1.6699191e-07 0)
(1.1308478 0.00011772801 0)
(1.1315477 0.00060718344 0)
(1.1315439 0.00095466963 0)
(1.1313772 0.0010451498 0)
(1.1312964 0.00097303039 0)
(1.1312912 0.00086116503 0)
(1.1312875 0.00077004258 0)
(1.1312478 0.00070401153 0)
(1.1311759 0.00064883918 0)
(1.1310891 0.00059537588 0)
(1.1309997 0.00054299361 0)
(1.130912 0.00049435349 0)
(1.1308262 0.0004511594 0)
(1.130742 0.00041330606 0)
(1.1306596 0.00037981255 0)
(1.1305799 0.00034974471 0)
(1.1305035 0.00032251953 0)
(1.1304308 0.00029780376 0)
(1.1303617 0.00027534748 0)
(1.1302963 0.00025490677 0)
(1.1302345 0.00023624349 0)
(1.1301761 0.0002191461 0)
(1.1301211 0.00020343865 0)
(1.1300693 0.00018897647 0)
(1.1300207 0.00017563721 0)
(1.129975 0.00016331443 0)
(1.1299322 0.00015191419 0)
(1.129892 0.0001413536 0)
(1.1298544 0.00013155951 0)
(1.1298192 0.00012246735 0)
(1.1297862 0.00011401964 0)
(1.1297554 0.00010616501 0)
(1.1297265 9.8857203e-05 0)
(1.1296996 9.2054505e-05 0)
(1.1296744 8.5719082e-05 0)
(1.1296509 7.9816603e-05 0)
(1.1296289 7.4315716e-05 0)
(1.1296085 6.9187808e-05 0)
(1.1295893 6.4406594e-05 0)
(1.1295715 5.9947959e-05 0)
(1.1295549 5.5789642e-05 0)
(1.1295394 5.1911146e-05 0)
(1.129525 4.8293473e-05 0)
(1.1295116 4.4919073e-05 0)
(1.1294991 4.1771619e-05 0)
(1.1294874 3.8836002e-05 0)
(1.1294766 3.6098127e-05 0)
(1.1294665 3.3544922e-05 0)
(1.1294571 3.1164162e-05 0)
(1.1294484 2.8944502e-05 0)
(1.1294403 2.6875315e-05 0)
(1.1294327 2.4946724e-05 0)
(1.1294257 2.314946e-05 0)
(1.1294192 2.1474912e-05 0)
(1.1294132 1.991499e-05 0)
(1.1294076 1.8462171e-05 0)
(1.1294024 1.7109378e-05 0)
(1.1293976 1.5850037e-05 0)
(1.1293932 1.4677957e-05 0)
(1.129389 1.3587386e-05 0)
(1.1293852 1.25729e-05 0)
(1.1293816 1.162947e-05 0)
(1.1293784 1.0752346e-05 0)
(1.1293753 9.937126e-06 0)
(1.1293725 9.1796469e-06 0)
(1.1293699 8.4760599e-06 0)
(1.1293675 7.8227206e-06 0)
(1.1293653 7.2162612e-06 0)
(1.1293633 6.6534873e-06 0)
(1.1293614 6.131457e-06 0)
(1.1293596 5.6473768e-06 0)
(1.129358 5.1986735e-06 0)
(1.1293566 4.7829009e-06 0)
(1.1293552 4.3978128e-06 0)
(1.129354 4.0412752e-06 0)
(1.1293528 3.7113222e-06 0)
(1.1293518 3.4060919e-06 0)
(1.1293508 3.1238629e-06 0)
(1.1293499 2.8630262e-06 0)
(1.1293491 2.6220566e-06 0)
(1.1293483 2.3995818e-06 0)
(1.1293476 2.1942264e-06 0)
(1.129347 2.0048701e-06 0)
(1.1293464 1.830206e-06 0)
(1.1293459 1.6694133e-06 0)
(1.1293454 1.5211271e-06 0)
(1.129345 1.3849719e-06 0)
(1.1293446 1.2592696e-06 0)
(1.1293442 1.1444009e-06 0)
(1.1293439 1.0378747e-06 0)
(1.1293436 9.4152079e-07 0)
(1.1293433 8.5098706e-07 0)
(1.1293431 7.7100343e-07 0)
(1.1293428 6.9315871e-07 0)
(1.1293426 6.28247e-07 0)
(1.1293425 5.5928575e-07 0)
(1.1293423 5.0974155e-07 0)
(1.1293421 4.4490863e-07 0)
(1.1293421 4.1417364e-07 0)
(1.1293418 3.4947233e-07 0)
(1.3509123 7.4030351e-05 0)
(1.3519125 0.00041341668 0)
(1.352151 0.0006843311 0)
(1.3522292 0.00078358795 0)
(1.3524434 0.00075759038 0)
(1.3527783 0.00069129882 0)
(1.353126 0.0006339967 0)
(1.3534225 0.00059325699 0)
(1.3536631 0.00055945355 0)
(1.3538673 0.00052507869 0)
(1.3540515 0.00048922768 0)
(1.3542213 0.00045416621 0)
(1.3543769 0.00042175038 0)
(1.3545178 0.00039238092 0)
(1.3546451 0.00036560172 0)
(1.3547603 0.00034086887 0)
(1.3548653 0.00031786382 0)
(1.3549614 0.00029644866 0)
(1.3550495 0.00027653802 0)
(1.3551303 0.00025803213 0)
(1.3552046 0.00024081519 0)
(1.355273 0.00022477505 0)
(1.355336 0.00020981481 0)
(1.3553942 0.00019585299 0)
(1.3554479 0.00018281828 0)
(1.3554977 0.000170646 0)
(1.3555437 0.00015927607 0)
(1.3555863 0.00014865318 0)
(1.3556258 0.00013872624 0)
(1.3556624 0.00012944853 0)
(1.3556964 0.00012077673 0)
(1.355728 0.00011267097 0)
(1.3557573 0.00010509397 0)
(1.3557845 9.8011337e-05 0)
(1.3558098 9.1390782e-05 0)
(1.3558333 8.5202502e-05 0)
(1.3558552 7.9418453e-05 0)
(1.3558755 7.401273e-05 0)
(1.3558944 6.8960881e-05 0)
(1.3559119 6.4240329e-05 0)
(1.3559282 5.9829696e-05 0)
(1.3559434 5.5709268e-05 0)
(1.3559575 5.1860321e-05 0)
(1.3559706 4.8265613e-05 0)
(1.3559828 4.4908726e-05 0)
(1.3559941 4.1774564e-05 0)
(1.3560046 3.8848709e-05 0)
(1.3560143 3.6117938e-05 0)
(1.3560234 3.3569582e-05 0)
(1.3560318 3.1192052e-05 0)
(1.3560396 2.8974207e-05 0)
(1.3560468 2.690589e-05 0)
(1.3560536 2.4977301e-05 0)
(1.3560598 2.3179538e-05 0)
(1.3560656 2.1503977e-05 0)
(1.3560709 1.9942818e-05 0)
(1.3560759 1.848847e-05 0)
(1.3560805 1.7134104e-05 0)
(1.3560847 1.5873037e-05 0)
(1.3560886 1.469929e-05 0)
(1.3560923 1.3606981e-05 0)
(1.3560956 1.2590881e-05 0)
(1.3560987 1.1645811e-05 0)
(1.3561016 1.07672e-05 0)
(1.3561043 9.9504919e-06 0)
(1.3561067 9.1916948e-06 0)
(1.356109 8.4867962e-06 0)
(1.3561111 7.8323158e-06 0)
(1.356113 7.2247222e-06 0)
(1.3561147 6.6609835e-06 0)
(1.3561164 6.1379907e-06 0)
(1.3561179 5.6531063e-06 0)
(1.3561192 5.2035954e-06 0)
(1.3561205 4.7871651e-06 0)
(1.3561217 4.4014103e-06 0)
(1.3561227 4.0443378e-06 0)
(1.3561237 3.7138397e-06 0)
(1.3561246 3.4081804e-06 0)
(1.3561254 3.1255216e-06 0)
(1.3561262 2.8643296e-06 0)
(1.3561269 2.6230377e-06 0)
(1.3561275 2.4002515e-06 0)
(1.3561281 2.194697e-06 0)
(1.3561286 2.0050148e-06 0)
(1.3561291 1.8303182e-06 0)
(1.3561295 1.6690886e-06 0)
(1.3561299 1.5210549e-06 0)
(1.3561303 1.3841517e-06 0)
(1.3561306 1.2592417e-06 0)
(1.3561309 1.1429151e-06 0)
(1.3561312 1.0382708e-06 0)
(1.3561314 9.3891995e-07 0)
(1.3561316 8.5246011e-07 0)
(1.3561318 7.662669e-07 0)
(1.356132 6.9700444e-07 0)
(1.3561322 6.1960325e-07 0)
(1.3561323 5.6828749e-07 0)
(1.3561325 4.9434193e-07 0)
(1.3561325 4.6415753e-07 0)
(1.3561327 3.8848105e-07 0)
(1.4584281 2.5087407e-05 0)
(1.4595749 0.00014495346 0)
(1.459924 0.00024525068 0)
(1.4601101 0.00028608109 0)
(1.4604597 0.00028045653 0)
(1.460961 0.00025843932 0)
(1.4614904 0.00023885499 0)
(1.4619681 0.00022527209 0)
(1.4623832 0.00021429181 0)
(1.4627558 0.00020296043 0)
(1.4631035 0.00019079782 0)
(1.4634327 0.00017863447 0)
(1.4637426 0.00016722148 0)
(1.4640321 0.0001567655 0)
(1.4643014 0.00014712664 0)
(1.4645524 0.00013811585 0)
(1.4647867 0.00012962624 0)
(1.4650059 0.00012162163 0)
(1.4652108 0.0001140872 0)
(1.4654025 0.00010700193 0)
(1.4655816 0.00010033674 0)
(1.4657491 9.4061956e-05 0)
(1.4659056 8.8152102e-05 0)
(1.4660519 8.2586178e-05 0)
(1.4661886 7.7345873e-05 0)
(1.4663164 7.2414128e-05 0)
(1.4664358 6.7774571e-05 0)
(1.4665473 6.3411546e-05 0)
(1.4666515 5.9310158e-05 0)
(1.4667487 5.5456303e-05 0)
(1.4668396 5.1836525e-05 0)
(1.4669243 4.8438025e-05 0)
(1.4670035 4.5248533e-05 0)
(1.4670773 4.2256372e-05 0)
(1.4671462 3.9450355e-05 0)
(1.4672104 3.6819874e-05 0)
(1.4672704 3.4354785e-05 0)
(1.4673262 3.2045484e-05 0)
(1.4673783 2.9882803e-05 0)
(1.4674268 2.7858095e-05 0)
(1.467472 2.5963112e-05 1.8736471e-33)
(1.4675141 2.4190088e-05 0)
(1.4675533 2.2531626e-05 0)
(1.4675898 2.0980792e-05 0)
(1.4676238 1.9530975e-05 0)
(1.4676554 1.8175989e-05 0)
(1.4676848 1.6909944e-05 0)
(1.4677121 1.5727346e-05 0)
(1.4677375 1.4622962e-05 0)
(1.4677611 1.3591914e-05 0)
(1.4677831 1.2629558e-05 0)
(1.4678035 1.1731584e-05 0)
(1.4678224 1.0893879e-05 0)
(1.4678399 1.0112632e-05 0)
(1.4678562 9.3842031e-06 0)
(1.4678714 8.7052367e-06 0)
(1.4678854 8.0725202e-06 0)
(1.4678984 7.4830917e-06 0)
(1.4679104 6.9341153e-06 0)
(1.4679216 6.422991e-06 0)
(1.4679319 5.9472205e-06 0)
(1.4679415 5.5045141e-06 0)
(1.4679503 5.0926695e-06 0)
(1.4679585 4.7096827e-06 0)
(1.467966 4.3536169e-06 0)
(1.467973 4.0227099e-06 0)
(1.4679795 3.7152565e-06 0)
(1.4679854 3.4297187e-06 0)
(1.4679909 3.1645996e-06 0)
(1.467996 2.9185481e-06 0)
(1.4680007 2.6902478e-06 0)
(1.468005 2.478523e-06 0)
(1.4680089 2.2822205e-06 0)
(1.4680126 2.1003072e-06 0)
(1.4680159 1.9317719e-06 0)
(1.468019 1.7757161e-06 0)
(1.4680218 1.63126e-06 0)
(1.4680244 1.4976042e-06 0)
(1.4680268 1.3739905e-06 0)
(1.468029 1.2597159e-06 0)
(1.468031 1.1541393e-06 0)
(1.4680328 1.0566061e-06 0)
(1.4680345 9.6661202e-07 0)
(1.468036 8.8350715e-07 0)
(1.4680374 8.0698084e-07 0)
(1.4680387 7.3627285e-07 0)
(1.4680399 6.7139078e-07 0)
(1.4680409 6.1126736e-07 0)
(1.4680419 5.5650965e-07 0)
(1.4680428 5.053127e-07 0)
(1.4680436 4.5945522e-07 0)
(1.4680443 4.1556008e-07 0)
(1.4680449 3.7772303e-07 2.9511658e-35)
(1.4680455 3.3942167e-07 0)
(1.468046 3.092533e-07 0)
(1.4680466 2.7470758e-07 8.8534802e-36)
(1.4680469 2.526027e-07 0)
(1.4680474 2.1949819e-07 0)
(1.4680476 2.0651675e-07 0)
(1.4680481 1.7236845e-07 0)
(1.4584279 -2.5086597e-05 0)
(1.4595748 -0.00014495143 0)
(1.4599239 -0.00024525376 0)
(1.46011 -0.0002860876 0)
(1.4604596 -0.00028045832 0)
(1.460961 -0.00025842868 0)
(1.4614903 -0.00023883188 0)
(1.461968 -0.00022524058 0)
(1.4623832 -0.00021425652 0)
(1.4627557 -0.00020292332 0)
(1.4631035 -0.00019075966 0)
(1.4634327 -0.00017859553 0)
(1.4637426 -0.00016718262 0)
(1.464032 -0.00015672762 0)
(1.4643014 -0.00014709062 0)
(1.4645524 -0.00013808228 0)
(1.4647867 -0.00012959551 0)
(1.4650059 -0.00012159401 0)
(1.4652108 -0.0001140628 0)
(1.4654025 -0.00010698082 0)
(1.4655816 -0.00010031883 0)
(1.4657491 -9.4047195e-05 0)
(1.4659056 -8.8140237e-05 0)
(1.4660519 -8.2577093e-05 0)
(1.4661886 -7.7339236e-05 0)
(1.4663164 -7.2409819e-05 0)
(1.4664358 -6.7772236e-05 0)
(1.4665473 -6.3411076e-05 0)
(1.4666515 -5.9311189e-05 0)
(1.4667487 -5.5458745e-05 0)
(1.4668396 -5.1840047e-05 0)
(1.4669244 -4.8442593e-05 0)
(1.4670035 -4.5253847e-05 0)
(1.4670773 -4.2262442e-05 0)
(1.4671462 -3.945691e-05 0)
(1.4672104 -3.6826953e-05 0)
(1.4672704 -3.4362135e-05 0)
(1.4673262 -3.2053183e-05 0)
(1.4673783 -2.9890624e-05 0)
(1.4674268 -2.7866132e-05 0)
(1.467472 -2.5971147e-05 -1.8736471e-33)
(1.4675141 -2.4198242e-05 0)
(1.4675533 -2.2539701e-05 0)
(1.4675898 -2.0988911e-05 0)
(1.4676238 -1.9538944e-05 0)
(1.4676554 -1.818395e-05 0)
(1.4676848 -1.6917713e-05 0)
(1.4677121 -1.5735063e-05 0)
(1.4677375 -1.4630442e-05 0)
(1.4677611 -1.359931e-05 0)
(1.4677831 -1.2636694e-05 0)
(1.4678035 -1.1738605e-05 0)
(1.4678224 -1.0900606e-05 0)
(1.4678399 -1.011922e-05 0)
(1.4678562 -9.390481e-06 0)
(1.4678714 -8.7113516e-06 0)
(1.4678854 -8.0782966e-06 0)
(1.4678984 -7.4886863e-06 0)
(1.4679104 -6.9393598e-06 0)
(1.4679216 -6.4280345e-06 0)
(1.4679319 -5.9518919e-06 0)
(1.4679415 -5.5089719e-06 0)
(1.4679503 -5.0967507e-06 0)
(1.4679585 -4.7135388e-06 0)
(1.467966 -4.3570827e-06 0)
(1.467973 -4.0259472e-06 0)
(1.4679795 -3.7181087e-06 0)
(1.4679854 -3.4323416e-06 0)
(1.4679909 -3.1668349e-06 0)
(1.467996 -2.9205622e-06 0)
(1.4680006 -2.6918916e-06 0)
(1.4680049 -2.4799572e-06 0)
(1.4680089 -2.2832943e-06 0)
(1.4680126 -2.1011925e-06 0)
(1.4680159 -1.9323265e-06 0)
(1.468019 -1.7761059e-06 0)
(1.4680218 -1.6313399e-06 0)
(1.4680244 -1.4975577e-06 0)
(1.4680268 -1.373682e-06 0)
(1.468029 -1.2593145e-06 0)
(1.468031 -1.1535081e-06 0)
(1.4680328 -1.0559253e-06 0)
(1.4680345 -9.6575149e-07 0)
(1.468036 -8.8264209e-07 0)
(1.4680374 -8.0597579e-07 0)
(1.4680387 -7.3531565e-07 0)
(1.4680399 -6.703488e-07 0)
(1.4680409 -6.1032802e-07 0)
(1.4680419 -5.5553158e-07 0)
(1.4680428 -5.0450433e-07 0)
(1.4680435 -4.5868247e-07 0)
(1.4680443 -4.1507041e-07 0)
(1.4680449 -3.773902e-07 -2.9511658e-35)
(1.4680455 -3.3949082e-07 0)
(1.468046 -3.0953299e-07 0)
(1.4680466 -2.7523097e-07 -8.8534802e-36)
(1.4680469 -2.5328332e-07 0)
(1.4680474 -2.2019947e-07 0)
(1.4680476 -2.0777484e-07 0)
(1.4680481 -1.7403302e-07 0)
(1.3509123 -7.4030724e-05 0)
(1.3519125 -0.00041342737 0)
(1.352151 -0.00068435117 0)
(1.3522292 -0.00078360991 0)
(1.3524433 -0.00075760583 0)
(1.3527782 -0.00069130365 0)
(1.3531259 -0.00063399095 0)
(1.3534225 -0.00059324346 0)
(1.353663 -0.00055943461 0)
(1.3538673 -0.00052505596 0)
(1.3540515 -0.00048920196 0)
(1.3542213 -0.00045413844 0)
(1.3543769 -0.00042172153 0)
(1.3545178 -0.00039235205 0)
(1.3546451 -0.00036557368 0)
(1.3547603 -0.00034084232 0)
(1.3548653 -0.00031783926 0)
(1.3549614 -0.00029642641 0)
(1.3550495 -0.0002765183 0)
(1.3551303 -0.00025801501 0)
(1.3552047 -0.00024080072 0)
(1.355273 -0.00022476311 0)
(1.3553361 -0.00020980533 0)
(1.3553942 -0.00019584573 0)
(1.355448 -0.00018281315 0)
(1.3554977 -0.00017064271 0)
(1.3555437 -0.0001592745 0)
(1.3555863 -0.00014865303 0)
(1.3556258 -0.00013872742 0)
(1.3556625 -0.00012945078 0)
(1.3556965 -0.00012077998 0)
(1.355728 -0.00011267497 0)
(1.3557573 -0.00010509869 0)
(1.3557846 -9.801655e-05 0)
(1.3558099 -9.1396486e-05 0)
(1.3558334 -8.5208493e-05 0)
(1.3558552 -7.9424763e-05 0)
(1.3558755 -7.4019182e-05 0)
(1.3558944 -6.8967525e-05 0)
(1.3559119 -6.4246998e-05 0)
(1.3559283 -5.9836464e-05 0)
(1.3559434 -5.5715986e-05 0)
(1.3559575 -5.1867071e-05 0)
(1.3559706 -4.8272252e-05 0)
(1.3559828 -4.4915346e-05 0)
(1.3559941 -4.1781036e-05 0)
(1.3560046 -3.8855127e-05 0)
(1.3560143 -3.612417e-05 0)
(1.3560234 -3.3575731e-05 0)
(1.3560318 -3.1197995e-05 0)
(1.3560396 -2.8980045e-05 0)
(1.3560468 -2.6911496e-05 0)
(1.3560536 -2.4982781e-05 0)
(1.3560598 -2.3184773e-05 0)
(1.3560655 -2.1509069e-05 0)
(1.3560709 -1.9947641e-05 0)
(1.3560759 -1.8493135e-05 0)
(1.3560804 -1.7138491e-05 0)
(1.3560847 -1.5877251e-05 0)
(1.3560886 -1.4703208e-05 0)
(1.3560923 -1.3610714e-05 0)
(1.3560956 -1.2594314e-05 0)
(1.3560987 -1.1649051e-05 0)
(1.3561016 -1.077013e-05 0)
(1.3561042 -9.9532228e-06 0)
(1.3561067 -9.1941183e-06 0)
(1.3561089 -8.4890215e-06 0)
(1.356111 -7.8342309e-06 0)
(1.3561129 -7.2264432e-06 0)
(1.3561147 -6.6624074e-06 0)
(1.3561163 -6.1392311e-06 0)
(1.3561178 -5.6540572e-06 0)
(1.3561192 -5.2043775e-06 0)
(1.3561205 -4.7876815e-06 0)
(1.3561216 -4.4017799e-06 0)
(1.3561227 -4.044461e-06 0)
(1.3561237 -3.7138429e-06 0)
(1.3561246 -3.4079674e-06 0)
(1.3561254 -3.125215e-06 0)
(1.3561262 -2.8638364e-06 0)
(1.3561269 -2.6224851e-06 0)
(1.3561275 -2.3995541e-06 0)
(1.3561281 -2.1939779e-06 0)
(1.3561286 -2.0041846e-06 0)
(1.3561291 -1.8295058e-06 0)
(1.3561295 -1.6682112e-06 0)
(1.3561299 -1.5202392e-06 0)
(1.3561302 -1.3833096e-06 0)
(1.3561306 -1.2585084e-06 0)
(1.3561309 -1.1422102e-06 0)
(1.3561311 -1.03774e-06 0)
(1.3561314 -9.3848434e-07 0)
(1.3561316 -8.522837e-07 0)
(1.3561318 -7.6627368e-07 0)
(1.356132 -6.9726905e-07 0)
(1.3561321 -6.2002621e-07 0)
(1.3561323 -5.6883276e-07 0)
(1.3561324 -4.9487252e-07 0)
(1.3561325 -4.6489003e-07 0)
(1.3561327 -3.8934578e-07 0)
(1.1308478 -0.00011772742 0)
(1.1315477 -0.00060717317 0)
(1.1315438 -0.00095465527 0)
(1.1313772 -0.0010451412 0)
(1.1312963 -0.00097302966 0)
(1.1312912 -0.00086116981 0)
(1.1312875 -0.00077004769 0)
(1.1312478 -0.00070401349 0)
(1.1311759 -0.00064883612 0)
(1.1310891 -0.00059536822 0)
(1.1309997 -0.00054298217 0)
(1.130912 -0.00049433944 0)
(1.1308262 -0.00045114356 0)
(1.130742 -0.00041328928 0)
(1.1306596 -0.00037979552 0)
(1.1305799 -0.0003497281 0)
(1.1305036 -0.00032250389 0)
(1.1304308 -0.00029778944 0)
(1.1303618 -0.00027533477 0)
(1.1302964 -0.00025489573 0)
(1.1302345 -0.00023623425 0)
(1.1301761 -0.00021913854 0)
(1.1301211 -0.0002034328 0)
(1.1300694 -0.00018897209 0)
(1.1300208 -0.00017563431 0)
(1.1299751 -0.00016331273 0)
(1.1299322 -0.00015191367 0)
(1.1298921 -0.00014135397 0)
(1.1298545 -0.0001315608 0)
(1.1298192 -0.00012246927 0)
(1.1297862 -0.00011402224 0)
(1.1297554 -0.000106168 0)
(1.1297266 -9.886067e-05 0)
(1.1296996 -9.2058187e-05 0)
(1.1296744 -8.5723085e-05 0)
(1.1296509 -7.9820682e-05 0)
(1.129629 -7.4320013e-05 0)
(1.1296085 -6.9192089e-05 0)
(1.1295894 -6.4411007e-05 0)
(1.1295716 -5.9952285e-05 0)
(1.1295549 -5.5794055e-05 0)
(1.1295394 -5.191543e-05 0)
(1.129525 -4.8297801e-05 0)
(1.1295116 -4.4923235e-05 0)
(1.1294991 -4.1775809e-05 0)
(1.1294874 -3.884001e-05 0)
(1.1294766 -3.6102137e-05 0)
(1.1294665 -3.3548729e-05 0)
(1.1294571 -3.1167966e-05 0)
(1.1294484 -2.8948097e-05 0)
(1.1294403 -2.6878888e-05 0)
(1.1294327 -2.4950073e-05 0)
(1.1294257 -2.3152784e-05 0)
(1.1294192 -2.1478009e-05 0)
(1.1294132 -1.9918045e-05 0)
(1.1294076 -1.8464986e-05 0)
(1.1294024 -1.7112151e-05 0)
(1.1293976 -1.5852567e-05 0)
(1.1293931 -1.4680429e-05 0)
(1.129389 -1.3589606e-05 0)
(1.1293852 -1.2575064e-05 0)
(1.1293816 -1.1631381e-05 0)
(1.1293783 -1.075419e-05 0)
(1.1293753 -9.9387114e-06 0)
(1.1293725 -9.1811714e-06 0)
(1.1293699 -8.4773308e-06 0)
(1.1293675 -7.8239247e-06 0)
(1.1293653 -7.2172116e-06 0)
(1.1293632 -6.6543829e-06 0)
(1.1293614 -6.1321103e-06 0)
(1.1293596 -5.647976e-06 0)
(1.129358 -5.199037e-06 0)
(1.1293565 -4.783229e-06 0)
(1.1293552 -4.3979236e-06 0)
(1.1293539 -4.0413582e-06 0)
(1.1293528 -3.7112003e-06 0)
(1.1293517 -3.4059665e-06 0)
(1.1293507 -3.1235553e-06 0)
(1.1293499 -2.8627275e-06 0)
(1.129349 -2.6215951e-06 0)
(1.1293483 -2.3991599e-06 0)
(1.1293476 -2.19367e-06 0)
(1.129347 -2.0043706e-06 0)
(1.1293464 -1.8295931e-06 0)
(1.1293459 -1.6688909e-06 0)
(1.1293454 -1.5205213e-06 0)
(1.129345 -1.3844789e-06 0)
(1.1293446 -1.2587161e-06 0)
(1.1293442 -1.1440009e-06 0)
(1.1293439 -1.0374487e-06 0)
(1.1293436 -9.4128552e-07 0)
(1.1293433 -8.5074251e-07 0)
(1.129343 -7.7098386e-07 0)
(1.1293428 -6.9314599e-07 0)
(1.1293426 -6.2844186e-07 0)
(1.1293424 -5.5956486e-07 0)
(1.1293423 -5.1005367e-07 0)
(1.1293421 -4.4519116e-07 0)
(1.129342 -4.1421703e-07 0)
(1.1293418 -3.4935481e-07 0)
(0.78877966 -0.00014691107 0)
(0.78900897 -0.00064830718 0)
(0.78861262 -0.00091449602 0)
(0.78806431 -0.00089986679 0)
(0.7875766 -0.00075593402 0)
(0.78716266 -0.0006115134 0)
(0.78678603 -0.00050964839 0)
(0.78642762 -0.00044133424 0)
(0.78608803 -0.00038847599 0)
(0.78577324 -0.00034198538 0)
(0.78548603 -0.00030077561 0)
(0.78522516 -0.00026590543 0)
(0.78498754 -0.00023737342 0)
(0.78477013 -0.00021398659 0)
(0.78457056 -0.00019430235 0)
(0.78438703 -0.00017725827 0)
(0.78421803 -0.00016224519 0)
(0.78406218 -0.00014892086 0)
(0.78391824 -0.00013704017 0)
(0.78378509 -0.00012638732 0)
(0.78366177 -0.00011677254 0)
(0.78354742 -0.00010804208 0)
(0.78344131 -0.00010007751 0)
(0.78334277 -9.2787187e-05 0)
(0.78325121 -8.6096401e-05 0)
(0.78316608 -7.994198e-05 0)
(0.78308691 -7.4269114e-05 0)
(0.78301324 -6.9030659e-05 0)
(0.78294468 -6.4185578e-05 0)
(0.78288087 -5.9698478e-05 0)
(0.78282145 -5.5538041e-05 0)
(0.78276613 -5.1676845e-05 0)
(0.78271462 -4.8090165e-05 0)
(0.78266665 -4.4756184e-05 0)
(0.78262198 -4.1655012e-05 0)
(0.78258039 -3.8769024e-05 0)
(0.78254166 -3.6081936e-05 0)
(0.7825056 -3.3579277e-05 0)
(0.78247204 -3.1247537e-05 0)
(0.78244079 -2.9074687e-05 0)
(0.78241171 -2.7049357e-05 0)
(0.78238465 -2.5161427e-05 0)
(0.78235948 -2.3401253e-05 0)
(0.78233606 -2.1760265e-05 0)
(0.78231428 -2.0230189e-05 0)
(0.78229403 -1.8803701e-05 0)
(0.78227521 -1.7473679e-05 0)
(0.78225772 -1.6233846e-05 0)
(0.78224147 -1.5078017e-05 0)
(0.78222637 -1.4000771e-05 0)
(0.78221235 -1.2996738e-05 0)
(0.78219934 -1.2061241e-05 0)
(0.78218726 -1.1189576e-05 0)
(0.78217606 -1.0377685e-05 0)
(0.78216567 -9.621458e-06 0)
(0.78215603 -8.9173871e-06 0)
(0.7821471 -8.2618508e-06 0)
(0.78213883 -7.6517971e-06 0)
(0.78213117 -7.0840538e-06 0)
(0.78212408 -6.5559817e-06 0)
(0.78211751 -6.0647739e-06 0)
(0.78211144 -5.6081342e-06 0)
(0.78210582 -5.1835991e-06 0)
(0.78210063 -4.7891882e-06 0)
(0.78209584 -4.4227139e-06 0)
(0.78209141 -4.082455e-06 0)
(0.78208732 -3.7664902e-06 0)
(0.78208355 -3.4733418e-06 0)
(0.78208008 -3.2012973e-06 0)
(0.78207687 -2.949076e-06 0)
(0.78207392 -2.7151731e-06 0)
(0.7820712 -2.4984967e-06 0)
(0.7820687 -2.2977003e-06 0)
(0.7820664 -2.1118407e-06 0)
(0.78206429 -1.9397357e-06 0)
(0.78206235 -1.7805871e-06 0)
(0.78206056 -1.6333348e-06 0)
(0.78205893 -1.4972891e-06 0)
(0.78205743 -1.3715247e-06 0)
(0.78205606 -1.2554572e-06 0)
(0.7820548 -1.1482643e-06 0)
(0.78205365 -1.0494257e-06 0)
(0.7820526 -9.5825029e-07 0)
(0.78205165 -8.7426561e-07 0)
(0.78205077 -7.9690607e-07 0)
(0.78204997 -7.2567722e-07 0)
(0.78204925 -6.6021415e-07 0)
(0.78204859 -5.9992457e-07 0)
(0.78204799 -5.4472494e-07 0)
(0.78204744 -4.9374412e-07 0)
(0.78204695 -4.4739125e-07 0)
(0.7820465 -4.0423164e-07 0)
(0.7820461 -3.6550386e-07 0)
(0.78204573 -3.286946e-07 0)
(0.78204541 -2.966529e-07 0)
(0.7820451 -2.6479853e-07 0)
(0.78204485 -2.3862671e-07 0)
(0.78204459 -2.1025389e-07 0)
(0.78204443 -1.90214e-07 0)
(0.78204413 -1.6635498e-07 0)
(0.31211039 -0.00012908437 0)
(0.31182212 -0.0003790149 0)
(0.31118822 -0.00041730179 0)
(0.31054364 -0.00031985893 0)
(0.31001992 -0.00020949665 0)
(0.3096177 -0.00013946388 0)
(0.30929862 -0.00010537763 0)
(0.3090309 -8.7973684e-05 0)
(0.30879832 -7.5295113e-05 0)
(0.30859436 -6.4145561e-05 0)
(0.30841543 -5.4912199e-05 0)
(0.30825788 -4.7983096e-05 0)
(0.30811786 -4.2949599e-05 0)
(0.30799204 -3.9086909e-05 0)
(0.30787795 -3.5841147e-05 0)
(0.3077739 -3.2949256e-05 0)
(0.30767866 -3.0333354e-05 0)
(0.30759126 -2.7973631e-05 0)
(0.30751086 -2.5846791e-05 0)
(0.30743674 -2.3919851e-05 0)
(0.30736828 -2.2161186e-05 0)
(0.30730496 -2.0547696e-05 0)
(0.30724632 -1.9063565e-05 0)
(0.30719196 -1.7697108e-05 0)
(0.30714153 -1.6437709e-05 0)
(0.30709472 -1.5275665e-05 0)
(0.30705123 -1.4201736e-05 0)
(0.30701082 -1.320802e-05 0)
(0.30697324 -1.2287265e-05 0)
(0.30693829 -1.1433435e-05 0)
(0.30690578 -1.0640793e-05 0)
(0.30687553 -9.9045446e-06 0)
(0.30684738 -9.2199914e-06 0)
(0.30682117 -8.5832986e-06 0)
(0.30679678 -7.9906081e-06 0)
(0.30677408 -7.4388231e-06 0)
(0.30675295 -6.9247167e-06 0)
(0.30673328 -6.4457742e-06 0)
(0.30671498 -5.9992753e-06 0)
(0.30669794 -5.583143e-06 0)
(0.30668209 -5.1950371e-06 0)
(0.30666734 -4.8332462e-06 0)
(0.30665362 -4.4957557e-06 0)
(0.30664086 -4.1811321e-06 0)
(0.30662899 -3.8876062e-06 0)
(0.30661796 -3.6139885e-06 0)
(0.30660771 -3.3587334e-06 0)
(0.30659818 -3.1208375e-06 0)
(0.30658932 -2.8989217e-06 0)
(0.3065811 -2.6921555e-06 0)
(0.30657346 -2.4993218e-06 0)
(0.30656638 -2.3197196e-06 0)
(0.3065598 -2.1522498e-06 0)
(0.30655369 -1.9963385e-06 0)
(0.30654803 -1.8510089e-06 0)
(0.30654279 -1.7157799e-06 0)
(0.30653792 -1.5897598e-06 0)
(0.30653342 -1.472564e-06 0)
(0.30652924 -1.3633959e-06 0)
(0.30652538 -1.2619378e-06 0)
(0.3065218 -1.1674554e-06 0)
(0.30651849 -1.079706e-06 0)
(0.30651544 -9.9803027e-07 0)
(0.30651261 -9.222341e-07 0)
(0.30651 -8.5170387e-07 0)
(0.30650758 -7.8630427e-07 0)
(0.30650536 -7.2548182e-07 0)
(0.3065033 -6.691364e-07 0)
(0.30650141 -6.1674759e-07 0)
(0.30649966 -5.6826199e-07 0)
(0.30649805 -5.2320813e-07 0)
(0.30649657 -4.8155746e-07 0)
(0.30649521 -4.4286205e-07 0)
(0.30649396 -4.071308e-07 0)
(0.3064928 -3.739563e-07 0)
(0.30649175 -3.433641e-07 0)
(0.30649078 -3.149634e-07 0)
(0.30648988 -2.8880928e-07 0)
(0.30648907 -2.6454605e-07 0)
(0.30648832 -2.4223765e-07 0)
(0.30648764 -2.2154186e-07 0)
(0.30648701 -2.0254298e-07 0)
(0.30648644 -1.849339e-07 0)
(0.30648591 -1.6879555e-07 0)
(0.30648544 -1.5384047e-07 0)
(0.306485 -1.4015124e-07 0)
(0.30648461 -1.2749088e-07 0)
(0.30648425 -1.1590831e-07 0)
(0.30648392 -1.0521895e-07 0)
(0.30648362 -9.5418966e-08 0)
(0.30648335 -8.641875e-08 0)
(0.30648311 -7.8104072e-08 0)
(0.30648289 -7.0496535e-08 0)
(0.30648269 -6.3399562e-08 0)
(0.30648251 -5.6986653e-08 0)
(0.30648235 -5.0838341e-08 0)
(0.30648221 -4.5138928e-08 0)
(0.30648207 -4.0022852e-08 0)
(0.30648198 -3.4188462e-08 0)
(0.30648184 -3.4379388e-08 0)
)
;

boundaryField
{
    top
    {
        type            fixedValue;
        value           uniform (0 0 0);
    }
    inlet
    {
        type            pressureNormalInletOutletVelocity;
        phi             phi;
        rho             rho;