/*--------------------------------*- C++ -*----------------------------------*\
  =========                 |
  \\      /  F ield         | OpenFOAM: The Open Source CFD Toolbox
   \\    /   O peration     | Website:  https://openfoam.org
    \\  /    A nd           | Version:  6
     \\/     M anipulation  |
\*---------------------------------------------------------------------------*/
FoamFile
{
    version     2.0;
    format      ascii;
    class       volSymmTensorField;
    location    "248";
    object      UPrime2Mean;
}
// * * * * * * * * * * * * * * * * * * * * * * * * * * * * * * * * * * * * * //

dimensions      [0 2 -2 0 0 0 0];

internalField   nonuniform List<symmTensor> 
9200
(
(7.9996907e-05 -6.2094788e-05 2.8976665e-22 4.9831406e-05 -1.5489326e-22 4.6907408e-39)
(0.00049356086 -0.00039510838 7.4394813e-22 0.00031751108 -5.5514957e-22 5.1031284e-39)
(0.00099876527 -0.00077435253 8.9757303e-23 0.00060389401 -6.7995884e-23 2.7977884e-39)
(0.0015759323 -0.0011408833 -1.1226239e-21 0.00083530228 7.8889837e-22 5.5782328e-39)
(0.002146135 -0.0014671581 5.4184846e-23 0.0010205317 -4.4677338e-23 8.1780342e-40)
(0.0026699604 -0.001738487 4.7411558e-22 0.001159334 -3.142183e-22 1.2902858e-40)
(0.0031199777 -0.001949627 -1.031672e-22 0.0012564298 7.1054965e-23 3.7058548e-40)
(0.0034739308 -0.0021007819 9.3735355e-23 0.0013197792 -6.2778864e-23 2.4959038e-40)
(0.003716246 -0.0021947883 4.6036972e-22 0.0013570429 -2.7885535e-22 7.1218247e-40)
(0.00383863 -0.0022358698 3.585815e-23 0.0013747404 -2.1832594e-23 2.0323145e-42)
(0.0038401609 -0.0022290548 -4.9802959e-22 0.0013782595 3.0527068e-22 3.8266061e-40)
(0.003727257 -0.0021798149 4.1778897e-22 0.0013719182 -2.6552775e-22 5.2779883e-41)
(0.0035132033 -0.0020938353 -7.4574311e-22 0.0013590629 5.0070816e-22 8.1960098e-40)
(0.0032170596 -0.0019768753 -3.7919591e-22 0.0013422035 2.5958456e-22 5.2848128e-41)
(0.0028619768 -0.0018346785 9.8541488e-23 0.0013231628 -7.2701101e-23 6.7200974e-42)
(0.0024730749 -0.0016728936 -3.7239859e-22 0.0013032205 2.8984026e-22 7.0961024e-41)
(0.0020750497 -0.0014970017 3.2805921e-22 0.0012833168 -2.7662486e-22 8.5922065e-41)
(0.0016897706 -0.0013123417 2.4520519e-22 0.0012647261 -2.1642147e-22 3.4786792e-40)
(0.001335841 -0.0011238658 -8.0740372e-24 0.0012491292 1.7509805e-23 6.3974235e-41)
(0.0010338172 -0.00093501313 -4.3588396e-24 0.0012241157 1.5430723e-23 7.929884e-41)
(0.00010559111 -7.0583244e-05 3.0197895e-23 4.8452344e-05 -1.1561114e-23 8.2528281e-41)
(0.00062969792 -0.00043644712 7.8792439e-22 0.0003034374 -5.1252803e-22 5.443195e-39)
(0.0012530169 -0.00084275891 -2.549063e-22 0.00057006998 1.7100307e-22 2.9565321e-39)
(0.0019225743 -0.0012190358 -2.0155127e-21 0.00078167264 1.2591511e-21 1.2908507e-38)
(0.0025466646 -0.001539612 -7.0263603e-23 0.00094748056 4.4464992e-23 1.628538e-40)
(0.0030795127 -0.0017915332 1.5618877e-21 0.0010688848 -9.2066185e-22 4.2721165e-39)
(0.0034926706 -0.0019725204 -6.4326213e-22 0.0011520378 3.7528013e-22 1.4678686e-40)
(0.0037677752 -0.00208617 -1.9444544e-22 0.0012055827 1.1246639e-22 5.2524813e-41)
(0.0038970459 -0.0021385116 7.4032613e-22 0.0012374064 -4.3082998e-22 4.0161489e-40)
(0.0038830392 -0.0021365628 -9.0001574e-22 0.0012539492 5.3244317e-22 4.6150717e-40)
(0.0037377951 -0.0020876684 -6.4027261e-22 0.00126026 3.8831948e-22 5.6932945e-40)
(0.0034815324 -0.0019991187 1.3874007e-21 0.0012600988 -8.7535482e-22 2.8960884e-39)
(0.003140655 -0.0018779551 6.4813786e-22 0.0012560744 -4.3535271e-22 2.0368786e-40)
(0.0027451118 -0.0017309049 -1.0252325e-21 0.0012498083 7.354359e-22 1.0044351e-39)
(0.0023254104 -0.0015643768 1.8485515e-22 0.0012420947 -1.4298435e-22 8.3571004e-41)
(0.0019097019 -0.0013844699 -4.1208228e-22 0.0012330406 3.572783e-22 2.2338547e-40)
(0.0015213081 -0.0011969718 -1.7065375e-22 0.0012222255 1.7440479e-22 7.0173047e-41)
(0.0011769695 -0.0010072436 5.2748602e-22 0.0012089154 -5.8659017e-22 1.1351679e-39)
(0.00088688431 -0.00081961357 2.5120177e-22 0.0011909107 -3.3289471e-22 2.1630205e-40)
(0.00065803933 -0.00063837403 -1.0898931e-22 0.0011569758 1.3507048e-22 1.6209022e-39)
(0.00013450569 -7.6620572e-05 -2.5388436e-22 4.4625298e-05 1.0807343e-22 2.1210779e-39)
(0.00077497321 -0.00046058469 -4.2351341e-22 0.00027446069 2.352787e-22 2.2110965e-39)
(0.0015144855 -0.00087588709 -4.8258257e-22 0.00050950562 2.8117021e-22 5.526845e-39)
(0.0022622175 -0.0012450567 1.6145284e-23 0.00069330135 -8.8711599e-24 6.0002264e-43)
(0.0029157005 -0.0015457425 1.7789633e-23 0.00083523836 -8.437198e-24 3.9711005e-39)
(0.0034261506 -0.0017681584 5.4729367e-22 0.00093828858 -2.9162098e-22 1.1105785e-39)
(0.0037689814 -0.0019137911 5.3372011e-23 0.0010094942 -2.6613933e-23 4.5972036e-40)
(0.0039353587 -0.0019897675 -9.3276368e-22 0.0010574319 5.0032501e-22 2.9375338e-40)
(0.0039308441 -0.0020049782 1.1067315e-21 0.0010894547 -6.0847091e-22 5.5495853e-40)
(0.0037734642 -0.0019685642 3.6515858e-22 0.0011112066 -2.1065452e-22 6.0836091e-40)
(0.0034910601 -0.0018893123 -1.0079274e-21 0.001126749 6.0725876e-22 1.2582064e-39)
(0.0031180333 -0.00177541 -3.1725186e-22 0.0011387287 2.047634e-22 4.1085296e-40)
(0.0026915489 -0.0016344374 1.1449123e-22 0.0011485764 -7.9460045e-23 1.1122357e-39)
(0.0022476019 -0.0014734827 2.764e-22 0.001156729 -2.1326888e-22 1.6030051e-40)
(0.0018175273 -0.0012992706 -9.7288825e-23 0.0011628535 8.3825974e-23 1.2244603e-40)
(0.0014254763 -0.0011182309 2.2671186e-22 0.0011660709 -2.2554445e-22 9.7324547e-41)
(0.0010871704 -0.00093647272 -1.5658114e-22 0.0011651765 1.8340722e-22 3.7451939e-41)
(0.00080995084 -0.0007596238 -3.2097251e-22 0.0011587769 4.4162087e-22 9.0902747e-40)
(0.00059405598 -0.00059242574 -1.1394437e-23 0.0011450397 1.2140794e-23 8.1602389e-40)
(0.00043526991 -0.00043927934 1.1195824e-22 0.0011200886 -2.4054321e-22 9.3748126e-41)
(0.00016577227 -7.9315652e-05 -2.0169145e-22 3.8690976e-05 7.4322071e-23 1.0534551e-39)
(0.00092194415 -0.00046348688 3.0976466e-22 0.00023357836 -1.5195336e-22 1.967837e-40)
(0.0017674618 -0.0008680447 2.7479719e-22 0.00042896497 -1.3549602e-22 2.2759952e-40)
(0.0025717462 -0.0012141282 5.9939511e-22 0.00058058268 -2.8612558e-22 2.4545286e-39)
(0.0032252839 -0.0014839282 5.2785986e-22 0.00069754154 -2.5068266e-22 1.0919481e-39)
(0.0036814761 -0.0016717907 -9.2964801e-22 0.00078393719 4.4166819e-22 8.3426441e-40)
(0.0039257574 -0.0017829684 -5.20844e-22 0.00084687377 2.5185148e-22 2.3750125e-40)
(0.003964758 -0.0018273499 0 0.00089399357 0 0)
(0.0038220176 -0.0018155127 5.7059708e-22 0.0009313489 -3.0967037e-22 3.0593252e-39)
(0.0035334433 -0.0017574035 -2.484523e-22 0.00096314446 1.4632496e-22 1.1589219e-39)
(0.0031422311 -0.0016620169 -1.4607378e-21 0.00099194321 8.7058716e-22 1.0293523e-39)
(0.0026935717 -0.0015374655 -1.8734759e-22 0.0010189011 1.1795335e-22 2.0713952e-40)
(0.0022296195 -0.0013912373 7.2358383e-22 0.0010440328 -5.3792537e-22 1.3958881e-39)
(0.0017854132 -0.0012304554 4.0357918e-23 0.0010665055 -2.6408861e-23 5.764895e-40)
(0.0013863288 -0.0010620012 -1.1246453e-23 0.001084948 1.0992955e-23 4.0593617e-43)
(0.0010473056 -0.00089245235 1.2127159e-22 0.0010977685 -1.400112e-22 7.1453675e-41)
(0.0007737018 -0.00072785951 4.6227438e-25 0.0011034357 2.7515982e-24 8.346813e-41)
(0.00056330787 -0.00057344247 -2.1629537e-22 0.0011006151 3.6325635e-22 2.1892916e-40)
(0.00040880934 -0.00043326927 -1.2063451e-22 0.0010886688 2.5286005e-22 1.5226293e-40)
(0.00030040745 -0.00031032771 6.1455621e-23 0.0010691307 -1.8590395e-22 9.5065674e-40)
(0.0001979632 -7.7906709e-05 1.5248096e-22 3.1205789e-05 -4.858388e-23 4.1442298e-40)
(0.001061358 -0.00044252857 6.3540192e-22 0.00018496611 -2.5343905e-22 3.7338696e-39)
(0.0019941655 -0.00081680801 5.0190809e-22 0.00033691385 -2.0677632e-22 2.3666317e-40)
(0.0028274807 -0.0011264705 5.5822536e-22 0.00045550324 -2.2804839e-22 1.3134605e-39)
(0.0034502705 -0.0013589737 -8.6021377e-22 0.00054903235 3.5537009e-22 2.0697483e-39)
(0.003824696 -0.0015128687 3.3335372e-23 0.00062198381 -1.0734082e-23 1.9690654e-40)
(0.0039525999 -0.0015960961 4.9414774e-23 0.00068061625 -2.1510805e-23 1.6588627e-42)
(0.0038608428 -0.001619591 7.0434484e-22 0.00073087447 -3.2771346e-22 7.40234e-40)
(0.0035930843 -0.0015938044 9.531345e-23 0.0007769342 -4.7078766e-23 6.6786505e-42)
(0.0032020799 -0.0015279251 -2.565333e-22 0.00082114649 1.4520103e-22 4.0035401e-40)
(0.0027422789 -0.0014300536 8.360847e-22 0.00086430024 -5.1820016e-22 2.7926336e-39)
(0.0022633467 -0.0013076419 -6.0983657e-22 0.00090591454 4.0158276e-22 2.4151125e-40)
(0.0018053337 -0.0011679067 -1.151873e-21 0.00094457875 8.9885038e-22 1.7133633e-39)
(0.0013960569 -0.0010180119 -3.8217105e-23 0.00097833697 3.5134805e-23 3.6228395e-42)
(0.0010508044 -0.00086495038 4.1282901e-22 0.0010050898 -4.6146256e-22 1.3864243e-39)
(0.0007739625 -0.000715193 0 0.0010229788 0 0)
(0.00056183134 -0.00057424462 5.1998928e-23 0.0010306676 -7.4989314e-23 3.60654e-41)
(0.00040580691 -0.00044628173 -2.6245852e-23 0.001027401 5.7490861e-23 5.364501e-41)
(0.0002951109 -0.00033399526 -2.657892e-23 0.0010137052 5.8138955e-23 1.4114152e-41)
(0.00021881858 -0.00023856579 1.2762373e-23 0.00099384107 -5.4329197e-23 9.6446231e-41)
(0.00022933541 -7.1936305e-05 3.3350115e-22 2.2949126e-05 -8.5926289e-23 1.675941e-39)
(0.0011834236 -0.00039732822 3.284203e-23 0.00013376892 -1.0781251e-23 3.1020412e-42)
(0.0021775823 -0.00072421759 -9.4301759e-23 0.00024291853 3.1849366e-23 1.3735374e-41)
(0.0030094662 -0.00098839217 9.7551024e-23 0.00033065636 -3.1402855e-23 2.7139527e-40)
(0.0035734738 -0.0011824507 -5.92801e-22 0.00040394671 2.0790794e-22 5.0920631e-40)
(0.0038474447 -0.0013080289 -2.8555094e-22 0.00046686982 1.0394536e-22 4.6045495e-41)
(0.0038547647 -0.0013736024 2.0313687e-22 0.00052412999 -6.2316951e-23 1.4502912e-39)
(0.0036446373 -0.0013888047 -7.3878857e-24 0.00057954085 8.3600742e-24 1.1345103e-40)
(0.003279486 -0.001362024 -4.8365699e-22 0.0006351606 2.4019011e-22 1.1999571e-39)
(0.0028243887 -0.0013004471 8.4041744e-22 0.0006913647 -4.3677401e-22 3.5414081e-40)
(0.0023384372 -0.0012107517 -2.2615168e-23 0.00074713783 3.1882492e-23 6.2317989e-40)
(0.0018687169 -0.0010997225 -6.6951413e-22 0.00080043389 4.8654279e-22 1.7204854e-39)
(0.0014473717 -0.00097450354 0 0.00084862133 0 0)
(0.0010916644 -0.00084240602 1.6383127e-22 0.00088897814 -1.8580505e-22 9.2240147e-40)
(0.00080633655 -0.00071038663 8.3713103e-24 0.00091916532 -1.7558249e-23 5.0477365e-41)
(0.00058721039 -0.00058442606 -1.9949114e-22 0.00093760377 3.1374298e-22 1.0726734e-39)
(0.00042498144 -0.00046902853 -4.5195005e-23 0.00094365151 8.1001017e-23 2.2444709e-41)
(0.00030843069 -0.00036700227 -1.3925253e-23 0.00093750231 3.7849442e-23 3.5988843e-41)
(0.00022656713 -0.00027959849 -1.8183896e-23 0.00092073273 5.1063381e-23 1.4020326e-41)
(0.00016972274 -0.00020668785 3.2871895e-23 0.00089852015 -1.2512062e-22 1.3389556e-40)
(0.00025802547 -6.1365777e-05 1.2855807e-22 1.4846286e-05 -2.473638e-23 2.6541345e-40)
(0.0012790747 -0.0003300348 -9.2345269e-22 8.5457071e-05 2.323796e-22 5.7716304e-39)
(0.0023037827 -0.00059673492 -8.1344508e-23 0.00015634541 2.3101737e-23 5.3891982e-40)
(0.0031043022 -0.00081146132 -2.4568215e-22 0.00021748223 7.2425981e-23 2.710512e-39)
(0.0035880204 -0.00097073695 -1.8568629e-22 0.00027417027 5.1546932e-23 3.7513428e-41)
(0.0037543214 -0.0010769712 -1.0518812e-21 0.00032954774 3.2600748e-22 4.9711943e-40)
(0.0036506171 -0.0011363451 -5.1622305e-22 0.00038651032 1.8183351e-22 4.0052454e-40)
(0.0033470727 -0.001154827 1.000604e-21 0.0004467611 -3.7688653e-22 3.2429628e-40)
(0.0029201564 -0.0011373029 1.7157823e-22 0.0005103491 -8.8230305e-23 4.1082035e-40)
(0.0024404977 -0.0010884569 -2.2058713e-22 0.00057579598 1.0010155e-22 1.4063553e-40)
(0.0019648018 -0.0010137017 1.0310648e-22 0.00064043431 -3.8031261e-23 5.2717546e-40)
(0.0015320493 -0.00091955053 -1.9993225e-23 0.00070089189 2.6229785e-23 1.3362492e-40)
(0.0011636076 -0.00081333902 0 0.00075368673 0 0)
(0.00086619578 -0.00070247917 1.1050873e-22 0.00079582229 -1.1461469e-22 3.2466122e-41)
(0.00063627502 -0.00059358036 -2.35693e-22 0.0008252553 3.0673115e-22 4.4178793e-40)
(0.00046452274 -0.00049175709 -7.6639678e-23 0.00084114565 1.1690843e-22 3.8160642e-41)
(0.00033948507 -0.00040029888 1.3306415e-22 0.00084382483 -2.6487091e-22 5.2720062e-40)
(0.00025003341 -0.00032073493 -2.9038711e-23 0.00083449334 3.880217e-23 1.130765e-40)
(0.0001866064 -0.00025326385 -1.6983653e-24 0.00081547305 -3.4758393e-24 1.2683885e-41)
(0.00014149733 -0.00019713128 3.0424901e-23 0.000791717 -8.9744092e-23 1.1583175e-41)
(0.00028225869 -4.6613928e-05 9.3485814e-23 7.8443833e-06 -1.226483e-23 1.6620848e-40)
(0.001341125 -0.00024514707 -8.572711e-22 4.5055275e-05 1.5445059e-22 2.6476762e-39)
(0.0023636355 -0.00044438615 -6.6971838e-22 8.5054399e-05 1.3279436e-22 3.1679761e-39)
(0.0031066372 -0.00061072481 9.6002559e-22 0.00012476244 -2.0034092e-22 7.7729652e-40)
(0.0034975585 -0.00074228315 7.2615718e-22 0.00016790219 -1.6311014e-22 1.6226311e-40)
(0.0035607543 -0.00083913894 -5.3337015e-22 0.00021665373 1.1749476e-22 1.6827317e-39)
(0.0033666743 -0.00090236913 1.7355984e-22 0.00027242069 -6.5874455e-23 7.1231764e-40)
(0.0030017439 -0.00093256508 1.020297e-21 0.00033522697 -3.6050547e-22 8.0268237e-40)
(0.0025496061 -0.00093057921 4.4809645e-22 0.00040345337 -1.7553647e-22 1.0166498e-40)
(0.0020793479 -0.00089888869 -4.4122687e-22 0.0004740184 2.2413788e-22 2.6199515e-40)
(0.0016398044 -0.00084223793 -5.9928448e-22 0.00054285876 3.5521161e-22 3.1461006e-40)
(0.0012591155 -0.00076730981 -1.6364461e-23 0.00060562665 1.1756896e-23 3.2806867e-43)
(0.00094801972 -0.00068170159 1.7291515e-22 0.00065845062 -1.5030046e-22 5.1022036e-41)
(0.00070498435 -0.0005926827 -6.2136308e-24 0.0006985584 1.9688614e-23 7.7007281e-41)
(0.00052146057 -0.00050618613 -6.7749528e-24 0.00072461442 3.2047298e-23 2.0842142e-40)
(0.00038613736 -0.00042628564 5.1530295e-24 0.00073672898 -4.1875268e-23 3.7650292e-40)
(0.00028776173 -0.00035517035 6.1324e-23 0.00073617215 -1.2060997e-22 1.1073473e-40)
(0.00021662588 -0.00029348501 -3.4988025e-23 0.00072490573 1.0151261e-22 2.8795851e-40)
(0.00016504606 -0.00024091547 -8.9456442e-23 0.00070556215 2.4614568e-22 5.5955924e-40)
(0.00012716546 -0.00019661238 2.9702543e-23 0.00068223639 -7.20133e-23 1.2656639e-41)
(0.00030063701 -2.8524775e-05 -2.4337185e-22 2.777511e-06 2.0284881e-23 4.9666207e-40)
(0.0013652542 -0.00014894925 -1.9229296e-22 1.6450204e-05 2.0596643e-23 5.3604856e-40)
(0.0023537436 -0.00027938733 1.4724571e-21 3.4410984e-05 -1.8658421e-22 6.5475659e-39)
(0.0030194669 -0.00040255027 1.0984203e-21 5.7723281e-05 -1.5842585e-22 7.1678752e-40)
(0.0033151165 -0.0005149983 4.9321742e-22 8.9206226e-05 -7.6963626e-23 3.5175008e-40)
(0.0032899419 -0.00061129353 9.9587897e-23 0.00013070665 -2.0254041e-23 3.4026411e-42)
(0.0030329753 -0.00068534246 -9.3619062e-22 0.00018293071 2.0635883e-22 1.4706513e-39)
(0.0026399452 -0.00073171387 0 0.00024487416 0 0)
(0.0021943889 -0.00074762188 -5.7468601e-22 0.00031365315 2.4649835e-22 1.2173978e-39)
(0.0017581893 -0.00073414282 -9.9022661e-23 0.0003848613 6.4432865e-23 2.7552252e-40)
(0.0013694433 -0.00069600732 2.8230186e-22 0.000453348 -1.6229951e-22 6.8016811e-41)
(0.0010454934 -0.00064029141 3.0502615e-23 0.00051419642 -3.8446138e-23 1.5157184e-40)
(0.00078861554 -0.00057469294 -1.3509941e-22 0.00056359753 1.3105994e-22 1.7685776e-40)
(0.00059211556 -0.00050604063 -1.0200963e-22 0.0005993745 1.3225572e-22 3.7767009e-40)
(0.00044536573 -0.00043941594 6.5603455e-23 0.0006210708 -6.6227946e-23 4.6462232e-41)
(0.00033719537 -0.00037793786 9.1003372e-23 0.00062967013 -1.1647504e-22 4.3197237e-41)
(0.00025771901 -0.00032302699 -8.1233145e-23 0.00062709721 1.3337691e-22 4.0296691e-41)
(0.00019902703 -0.00027490635 -1.0911675e-22 0.00061568033 2.3260922e-22 4.6822325e-40)
(0.00015519109 -0.00023318175 8.3434298e-24 0.00059795363 -1.8317107e-24 5.4824625e-41)
(0.00012185485 -0.00019716991 1.4909678e-23 0.00057690746 -4.9503863e-23 6.4775866e-41)
(0.00031209401 -8.2326343e-06 -1.6058507e-22 2.4914141e-07 4.0924821e-24 2.4296155e-40)
(0.0013500534 -4.8719566e-05 6.8710327e-22 1.925147e-06 -2.4580614e-23 1.3477656e-39)
(0.0022763965 -0.00011470616 1.0503347e-21 6.7986252e-06 -6.4477817e-23 9.773787e-39)
(0.0028533951 -0.0002028027 -1.2336132e-21 1.7879554e-05 1.0592172e-22 2.693134e-39)
(0.0030607762 -0.00030450512 4.4668588e-22 3.8400827e-05 -4.873401e-23 6.8256647e-41)
(0.0029688691 -0.00040639963 1.8407842e-22 7.1013701e-05 9.1065758e-25 2.4854044e-39)
(0.0026783809 -0.00049439264 4.8362295e-23 0.00011672682 -9.7444493e-24 9.0364345e-43)
(0.0022868014 -0.0005575229 -6.8909403e-22 0.00017414251 1.5822119e-22 8.4047635e-40)
(0.001871518 -0.00059043349 -1.5662082e-23 0.00023945545 5.3845186e-24 1.3591593e-43)
(0.0014839614 -0.00059374317 2.5775042e-22 0.00030720908 -1.3316859e-22 3.2015676e-40)
(0.0011512098 -0.00057260905 2.0280338e-23 0.0003715171 -2.0519331e-23 4.570809e-41)
(0.00088172366 -0.0005344478 -9.287046e-23 0.00042730621 2.5170053e-23 5.9133024e-40)
(0.00067221255 -0.00048677955 -2.0738304e-22 0.00047118111 1.6773082e-22 6.7228319e-41)
(0.00051359592 -0.00043578087 -1.2798471e-24 0.00050172302 1.600385e-23 7.7013341e-41)
(0.00039518197 -0.00038570007 7.0414489e-23 0.00051927215 -9.1670308e-23 7.5500402e-41)
(0.0003070433 -0.00033894559 4.694368e-23 0.00052539939 -7.3846069e-23 7.3146158e-41)
(0.00024102568 -0.00029652869 1.0788576e-23 0.00052229916 -3.4922872e-23 1.1822452e-40)
(0.00019093024 -0.00025859553 -7.4904681e-23 0.00051228818 1.0497232e-22 9.5490652e-41)
(0.00015228689 -0.00022489607 -1.5207379e-23 0.00049752674 -9.7762138e-24 4.0538638e-40)
(0.00012188243 -0.00019495323 4.1531928e-23 0.00047992009 -1.270494e-22 6.6955997e-40)
(2.0784472e-06 -2.5973619e-07 2.0768837e-23 3.1721126e-07 -4.1556044e-24 2.3741727e-40)
(9.7964678e-06 -4.1004499e-06 -2.9636445e-23 2.1063434e-06 8.2118951e-24 2.2856033e-40)
(2.1943479e-05 -9.476099e-06 6.5826563e-23 4.1992883e-06 -2.4672643e-23 1.3128842e-39)
(7.0352185e-05 -1.9998868e-05 1.8378467e-22 6.0233694e-06 -3.9220692e-23 4.4150814e-39)
(0.00015440476 -3.2996539e-05 -1.3134372e-22 7.6642423e-06 2.2398049e-23 1.1483057e-39)
(0.00027598409 -4.7554094e-05 1.6560818e-22 9.1234075e-06 -2.2515195e-23 1.2687876e-39)
(0.00043908677 -6.3178543e-05 -2.2756529e-22 1.0402821e-05 2.8960439e-23 1.3937813e-39)
(0.0006448083 -7.9376709e-05 -2.3480825e-22 1.1528792e-05 2.4620789e-23 1.473538e-39)
(0.00089222292 -9.5748286e-05 2.9575302e-22 1.2529633e-05 -3.0777647e-23 1.5582493e-39)
(0.0011797388 -0.00011199827 -2.2982659e-22 1.342739e-05 2.2543317e-23 7.937312e-40)
(0.0015053557 -0.00012790456 -1.1448891e-23 1.423879e-05 1.9165549e-25 9.2245427e-42)
(0.0018666965 -0.00014329505 6.6428524e-23 1.4976636e-05 -7.096303e-24 2.9237934e-41)
(0.0022611212 -0.00015803414 -1.1412592e-23 1.5650735e-05 5.5423488e-25 4.6305857e-42)
(0.0026858338 -0.00017201438 3.6210948e-22 1.6268966e-05 -3.2616085e-23 1.3907012e-39)
(0.0031379466 -0.00018515397 4.1834599e-25 1.6838605e-05 6.8532873e-25 3.0013774e-42)
(0.0036145453 -0.00019740167 -5.3511813e-22 1.7367672e-05 5.0193972e-23 2.8610234e-39)
(0.0041127762 -0.00020874121 9.9556332e-23 1.7864735e-05 -1.0467627e-23 6.0487916e-41)
(0.004629859 -0.00021917163 2.4241038e-22 1.8336135e-05 -2.4009822e-23 7.2756723e-40)
(0.0051630312 -0.00022873673 -3.9526846e-22 1.8788155e-05 4.1820041e-23 2.0625048e-39)
(0.0057091445 -0.00023773717 -2.1961409e-22 1.9216784e-05 2.4702673e-23 7.7436452e-40)
(2.3540056e-06 -1.0864913e-06 6.8440975e-24 2.7914157e-06 -2.53254e-24 2.3520164e-41)
(1.2488681e-05 -1.405064e-05 -1.876892e-22 1.8561264e-05 1.4151217e-22 7.6437598e-39)
(2.8025618e-05 -3.1900939e-05 3.7244693e-23 3.6993841e-05 -3.0796279e-23 6.8989204e-40)
(8.2776321e-05 -6.4748199e-05 1.9775546e-22 5.3066136e-05 -1.2153737e-22 3.6902918e-39)
(0.00017418327 -0.00010473926 2.7486582e-22 6.7494189e-05 -1.3221035e-22 4.1731022e-39)
(0.00030354036 -0.00014918586 3.3252413e-23 8.0271097e-05 -1.3351576e-23 3.920349e-41)
(0.00047437771 -0.00019661573 -8.8463492e-22 9.1417214e-05 3.0699429e-22 2.0873767e-38)
(0.00068722875 -0.00024557046 -3.1245039e-23 0.00010116589 1.2966856e-23 6.0463106e-42)
(0.000940664 -0.00029487433 5.0151614e-22 0.00010976596 -1.5303377e-22 3.5634746e-39)
(0.0012326316 -0.00034366065 -1.2115777e-22 0.00011741152 3.3538926e-23 1.9814421e-40)
(0.0015606757 -0.00039127474 -4.6064614e-22 0.00012424986 1.2655441e-22 2.1985559e-39)
(0.0019219587 -0.00043720709 9.7051299e-23 0.00013039293 -2.4882636e-23 1.0009935e-40)
(0.0023133699 -0.00048105337 4.1002997e-22 0.00013592511 -9.2029383e-23 2.3574565e-39)
(0.0027316219 -0.00052248893 1.6998587e-22 0.00014091229 -4.2383958e-23 2.6937966e-40)
(0.0031732977 -0.00056125953 3.4103023e-22 0.0001454133 -9.0963635e-23 7.7954331e-40)
(0.0036349146 -0.00059719458 -2.7009413e-22 0.00014949123 6.8121506e-23 6.5925262e-40)
(0.0041130847 -0.00063022455 -2.5888899e-22 0.00015321457 6.4611155e-23 7.210179e-40)
(0.0046044517 -0.0006603186 2.6256336e-22 0.00015663806 -7.4363662e-23 4.1718679e-40)
(0.0051047262 -0.00068759202 2.408101e-22 0.00015982362 -6.6491475e-23 7.288434e-40)
(0.0056088504 -0.0007131961 9.3881414e-23 0.00016275958 -2.4882116e-23 3.0938974e-40)
(3.0257948e-06 -2.7811268e-06 5.2660455e-24 7.4444822e-06 -2.6378461e-24 1.2386651e-41)
(1.8877763e-05 -2.903712e-05 1.4255365e-22 4.9548007e-05 -1.5258222e-22 3.2576496e-39)
(4.2190013e-05 -6.4169551e-05 -3.1203664e-23 9.8677634e-05 4.0214807e-23 1.7060794e-40)
(0.00011022317 -0.00012291865 -2.1486455e-22 0.00014149574 1.8096055e-22 4.0394145e-39)
(0.00021685173 -0.00019268478 7.9237399e-23 0.00017980029 -6.6568421e-23 1.1459607e-40)
(0.00036218383 -0.0002691264 1.0511078e-22 0.00021348992 -8.5479945e-23 6.0546524e-41)
(0.00054880919 -0.00034981132 -1.3080312e-22 0.00024261276 6.942867e-23 3.5998133e-40)
(0.00077619836 -0.00043237811 -3.4259297e-22 0.00026778994 2.0008449e-22 7.2056512e-40)
(0.0010419579 -0.00051493841 1.4997911e-22 0.00028968268 -7.299876e-23 2.0120281e-40)
(0.0013431415 -0.00059609403 3.1862882e-22 0.00030881071 -1.3274691e-22 1.1422031e-39)
(0.001676408 -0.00067477899 8.9307076e-23 0.00032557063 -6.1710953e-23 4.3074519e-41)
(0.0020380261 -0.00075015358 3.9017242e-22 0.00034026263 -1.2996559e-22 2.1191582e-39)
(0.0024239721 -0.00082153934 3.3166853e-23 0.00035310902 -1.2315394e-23 8.7911494e-42)
(0.0028300082 -0.00088837516 -5.8162128e-22 0.00036427637 1.9694075e-22 3.4082587e-39)
(0.0032517056 -0.00095019981 4.3138399e-23 0.0003739057 -2.8260495e-23 1.8924559e-41)
(0.003684509 -0.0010066746 -2.7262063e-22 0.00038214451 7.6225395e-23 1.3277019e-39)
(0.0041240445 -0.0010576243 -3.8602981e-22 0.00038915417 1.5260607e-22 5.4690047e-40)
(0.004565951 -0.0011029358 6.2823752e-22 0.00039509447 -2.4414964e-22 1.8146319e-39)
(0.00500337 -0.001142754 3.3275951e-22 0.00040022797 -1.3699239e-22 3.6969199e-40)
(0.0054283715 -0.0011795447 6.6267536e-23 0.00040470383 -2.9954687e-23 7.9393151e-42)
(4.4572331e-06 -5.7516733e-06 -7.8774872e-24 1.3708066e-05 9.9147531e-24 1.818262e-41)
(3.0950611e-05 -5.1560602e-05 -3.3033656e-22 9.1409778e-05 4.1774534e-22 1.0810909e-38)
(6.8492e-05 -0.00011118059 -2.3986484e-23 0.00018189626 3.0825217e-23 1.4772699e-40)
(0.00015850963 -0.00020104564 5.5464454e-23 0.00026063339 -6.1396882e-23 9.4256955e-41)
(0.00028991752 -0.00030446831 -8.8920119e-24 0.0003307232 2.2672667e-24 2.4326664e-41)
(0.00046106935 -0.00041555349 2.8265908e-22 0.00039178178 -2.0727308e-22 1.7756084e-39)
(0.0006731033 -0.00053090305 3.1278708e-22 0.0004438644 -2.0437828e-22 1.6131466e-39)
(0.00092390975 -0.00064733568 -9.4689069e-23 0.00048811499 4.5812636e-23 2.5414517e-40)
(0.0012096466 -0.00076233351 -3.4801964e-22 0.00052575924 1.8194607e-22 1.6163157e-39)
(0.0015260032 -0.00087401575 -7.029499e-22 0.00055777517 3.7934507e-22 3.4289219e-39)
(0.0018682851 -0.00098092703 -1.5082738e-23 0.00058491975 -8.300138e-24 7.8229158e-41)
(0.0022314069 -0.0010819019 8.9625136e-22 0.00060777078 -4.1790606e-22 5.6031677e-39)
(0.0026099716 -0.0011759743 -3.6320804e-22 0.00062675453 1.3886803e-22 1.6558614e-39)
(0.0029983498 -0.0012623247 -2.3533411e-22 0.00064218621 1.0314378e-22 3.2693829e-40)
(0.0033906846 -0.0013402505 -2.8786235e-23 0.00065431996 3.1799637e-23 7.0541095e-41)
(0.0037809696 -0.0014091947 5.5933215e-22 0.00066340457 -2.4520065e-22 1.3417342e-39)
(0.0041635355 -0.0014688273 -3.1769562e-22 0.00066970577 1.5873408e-22 9.0584011e-41)
(0.0045328856 -0.0015189617 -7.2950832e-22 0.00067356196 3.070423e-22 2.8881956e-39)
(0.0048792463 -0.00155979 4.9136943e-22 0.00067579838 -2.1351741e-22 1.4524538e-39)
(0.0051915459 -0.0015953131 4.2361569e-22 0.00067734033 -1.6974159e-22 1.3503925e-39)
(7.1282378e-06 -1.0243648e-05 3.5376778e-23 2.0895533e-05 -3.4379835e-23 2.3279395e-40)
(5.1359508e-05 -8.3087757e-05 1.1401924e-23 0.00013952616 -2.8939677e-24 1.0532893e-40)
(0.00011229357 -0.00017576775 -4.5582987e-22 0.00027718403 6.5243559e-22 8.8719745e-39)
(0.00023514389 -0.00030273425 -2.6183809e-22 0.00039658283 2.7806992e-22 2.7432586e-39)
(0.00040265719 -0.00044391369 1.7460147e-22 0.00050212863 -1.3902425e-22 1.6578662e-39)
(0.00061079707 -0.00059185532 2.1758128e-22 0.00059292734 -1.7531058e-22 7.8112835e-40)
(0.00085861684 -0.00074214868 -2.8302303e-22 0.00066902674 1.8485257e-22 1.8275145e-39)
(0.0011418224 -0.0008908882 -4.3185138e-22 0.00073219773 2.4787484e-22 4.0102884e-39)
(0.0014545534 -0.0010350323 6.405965e-22 0.00078435538 -3.8266201e-22 4.1157765e-39)
(0.0017905834 -0.001172293 1.8337226e-22 0.00082706132 -7.4234337e-23 9.5784406e-40)
(0.0021433313 -0.0013008791 -5.8128084e-22 0.00086155548 3.8427515e-22 3.1954032e-40)
(0.0025058605 -0.0014193417 2.5430582e-22 0.0008888071 -1.156628e-22 7.3763748e-40)
(0.0028709843 -0.0015264742 0 0.00090955157 0 0)
(0.003231354 -0.0016212442 2.4882051e-22 0.00092434035 -1.2125675e-22 2.8887662e-40)
(0.0035794917 -0.0017027587 -1.8699771e-22 0.00093360872 8.8865366e-23 1.5427806e-40)
(0.0039079141 -0.0017702938 -2.8714216e-22 0.00093774986 1.4322639e-22 1.8755675e-40)
(0.0042098608 -0.0018234202 1.0651797e-22 0.00093713722 -8.6417152e-23 2.6333568e-40)
(0.0044792986 -0.0018620135 -8.6531374e-23 0.00093230046 5.1539465e-23 9.5603615e-42)
(0.0047043614 -0.0018865205 4.1614164e-22 0.00092506344 -1.8003996e-22 1.5630067e-39)
(0.0048706385 -0.0019023172 -3.3727408e-22 0.00091837928 1.6484694e-22 9.1635052e-41)
(1.1594883e-05 -1.6335429e-05 3.3927096e-23 2.8327112e-05 -2.8524955e-23 1.8692303e-40)
(8.3102237e-05 -0.00012390107 1.6376407e-22 0.00018904506 -2.1800513e-22 6.9915485e-40)
(0.00017952081 -0.00025826106 -2.1982429e-22 0.00037440984 2.9158429e-22 1.664561e-39)
(0.00034803477 -0.00042788405 -3.6146808e-22 0.00053430699 4.0645198e-22 1.3950398e-39)
(0.00056408212 -0.00060994073 -1.0719889e-22 0.0006743011 1.5653666e-22 1.1008375e-39)
(0.00082040664 -0.00079531573 -3.2718365e-22 0.00079284259 2.872606e-22 6.851755e-40)
(0.0011131564 -0.0009785322 -1.5189288e-22 0.00089003363 9.3525055e-23 7.9113887e-40)
(0.0014351399 -0.0011550946 2.6356822e-22 0.00096837951 -1.5853178e-22 1.45935e-39)
(0.0017778356 -0.0013216022 6.312316e-22 0.0010306062 -3.7618949e-22 4.9970755e-39)
(0.0021325128 -0.0014755169 1.9484686e-22 0.0010789999 -1.1988613e-22 2.0964396e-40)
(0.0024902391 -0.0016148788 -1.8513614e-22 0.0011154324 9.8302829e-23 3.324767e-40)
(0.0028419076 -0.001738134 -3.4172776e-23 0.0011414156 -7.6006972e-24 2.8952658e-40)
(0.0031784131 -0.0018440306 -8.8508422e-22 0.0011581418 4.8399286e-22 2.7588861e-39)
(0.0034908275 -0.0019315505 -2.7511567e-22 0.0011665395 1.4378749e-22 2.8535742e-40)
(0.0037705226 -0.0019998713 4.6180338e-22 0.0011673482 -2.6652079e-22 1.3620054e-40)
(0.0040093789 -0.0020483818 -4.6083717e-22 0.001161193 2.4859416e-22 2.8285698e-40)
(0.0042007478 -0.0020768113 -1.627446e-22 0.0011485631 8.0036625e-23 9.0291037e-41)
(0.004339828 -0.002085365 3.6532978e-22 0.0011300511 -1.5421569e-22 1.4024991e-39)
(0.0044152257 -0.0020751214 5.5541604e-22 0.0011086073 -2.7706795e-22 1.0646517e-39)
(0.0044095689 -0.0020523851 6.7586778e-23 0.0010907602 -3.1554803e-23 2.071885e-41)
(1.8449295e-05 -2.3943751e-05 -9.5683928e-23 3.5385485e-05 7.7686029e-23 1.1059338e-39)
(0.00012916786 -0.00017307081 -1.0589608e-22 0.00023536833 1.0742833e-22 8.8150534e-40)
(0.00027577417 -0.00035631583 2.6935313e-22 0.00046391368 -3.399755e-22 4.0742244e-40)
(0.00050399787 -0.00057234042 4.1024141e-22 0.0006594497 -4.2466424e-22 1.8497259e-39)
(0.00078077188 -0.00079610108 5.3596175e-24 0.00082849831 -4.8232454e-24 3.6709885e-43)
(0.00109453 -0.001016687 -1.1150168e-21 0.00096889933 9.1936372e-22 1.0799378e-38)
(0.0014375366 -0.0012275808 -4.3808119e-22 0.0010810025 3.7430229e-22 1.5548568e-40)
(0.0017989592 -0.0014239349 3.3987634e-22 0.0011681974 -2.2910182e-22 1.1848986e-39)
(0.002167072 -0.0016022928 3.904698e-22 0.0012341555 -2.6194167e-22 7.249028e-40)
(0.0025303062 -0.001760193 -3.8247111e-22 0.0012820343 2.129277e-22 1.98906e-39)
(0.0028772787 -0.0018958554 -1.1278235e-21 0.0013144942 7.1053348e-22 2.9022714e-39)
(0.0031969494 -0.0020080042 7.4270827e-22 0.0013337475 -4.4922962e-22 1.193253e-39)
(0.0034789353 -0.0020957646 4.4219689e-22 0.001341599 -2.3049201e-22 1.4282172e-39)
(0.0037138373 -0.0021585969 -6.1440435e-22 0.0013395034 3.3843142e-22 1.1792724e-39)
(0.003893508 -0.0021962545 2.7049003e-22 0.0013286368 -1.5567868e-22 7.9248486e-41)
(0.0040113471 -0.0022087658 4.4948293e-22 0.0013099528 -2.3114735e-22 8.7819724e-40)
(0.0040633514 -0.0021964884 1.7153862e-22 0.0012840646 -9.6366097e-23 3.0000459e-41)
(0.0040488674 -0.0021602908 -2.9429204e-22 0.0012513775 1.808959e-22 3.8213109e-41)
(0.0039610501 -0.0021021555 -6.8679774e-23 0.0012154995 2.2539084e-23 2.1737105e-40)
(0.003781644 -0.0020285509 3.8677788e-22 0.0011875162 -2.225092e-22 8.8995448e-41)
(2.8275166e-05 -3.2825619e-05 -2.8048619e-24 4.1522789e-05 -3.0549646e-24 2.070511e-41)
(0.00019214517 -0.00022848385 -3.8600339e-22 0.00027441033 4.083493e-22 2.8979619e-39)