/*--------------------------------*- C++ -*----------------------------------*\
  =========                 |
  \\      /  F ield         | OpenFOAM: The Open Source CFD Toolbox
   \\    /   O peration     | Website:  https://openfoam.org
    \\  /    A nd           | Version:  6
     \\/     M anipulation  |
\*---------------------------------------------------------------------------*/
FoamFile
{
    version     2.0;
    format      ascii;
    class       volScalarField;
    location    "71";
    object      pPrime2Mean;
}
// * * * * * * * * * * * * * * * * * * * * * * * * * * * * * * * * * * * * * //

dimensions      [0 4 -4 0 0 0 0];

internalField   nonuniform List<scalar> 
9200
(
0.15707047
0.13007832
0.10723265
0.09237365
0.080525842
0.070550363
0.061950749
0.054474426
0.047953391
0.042252874
0.037261045
0.032883972
0.029042159
0.025667939
0.022703475
0.020099324
0.017813678
0.015811801
0.014069181
0.012555809
0.12705342
0.10498247
0.086532629
0.074421407
0.064719184
0.056529819
0.049462935
0.043319855
0.037966715
0.033295277
0.029214882
0.025648604
0.022530638
0.019804331
0.017420694
0.015337343
0.013517893
0.011931177
0.010549139
0.009332077
0.098913117
0.081573065
0.067249855
0.057725676
0.050039887
0.043525581
0.037893834
0.032997841
0.028737055
0.025028783
0.021802307
0.018996289
0.016557099
0.014437615
0.012596361
0.010996929
0.0096075855
0.00840059
0.00734857
0.0064153482
0.07343281
0.060483818
0.049894045
0.042722602
0.036869042
0.031874704
0.027544533
0.023780073
0.020511928
0.017680688
0.015233262
0.013121681
0.011302535
0.0097366956
0.0083891713
0.0072290143
0.0062291656
0.0053659284
0.004616045
0.0039520943
0.051318756
0.042284794
0.034934739
0.029818197
0.025564967
0.021897565
0.018704425
0.01593029
0.01353329
0.011473811
0.0097131844
0.0082140921
0.0069412797
0.0058622388
0.0049477313
0.0041720648
0.003513084
0.0029517873
0.0024705205
0.0020509931
0.033193489
0.027472994
0.022788638
0.019375731
0.01645048
0.013884946
0.011637975
0.0096905891
0.0080233365
0.006611896
0.0054282854
0.004443021
0.0036271056
0.0029535365
0.0023982614
0.0019406005
0.0015632204
0.0012517811
0.00099399892
0.00077876273
0.01957732
0.016460155
0.013810036
0.011707439
0.0098054132
0.0080907484
0.0065771523
0.0052733377
0.0041760172
0.0032711189
0.0025375697
0.001951155
0.0014875491
0.001124322
0.00084201013
0.00062444963
0.00045860709
0.00033418394
0.00024320142
0.00017941669
0.010874692
0.0095641484
0.0082838026
0.007067927
0.0058599494
0.0047248987
0.0037137862
0.0028532363
0.002149297
0.0015931221
0.0011671161
0.00085016007
0.00062125293
0.00046161136
0.00035556425
0.00029064421
0.00025723225
0.00024810496
0.00025824761
0.00028427533
0.0073628212
0.0070002471
0.0064139986
0.0056419881
0.0047835057
0.0039440682
0.0031922961
0.0025619493
0.0020615008
0.0016828432
0.0014091223
0.0012206669
0.0010986654
0.0010269833
0.00099270476
0.00098594819
0.00099936395
0.0010276448
0.0010673427
0.001116273
0.009179036
0.0088731812
0.0083104346
0.0075314795
0.0066722545
0.0058389974
0.0050966241
0.0044751177
0.0039791327
0.0035977635
0.0033129051
0.0031050513
0.0029564649
0.0028524581
0.0027815591
0.0027351188
0.0027067442
0.0026917946
0.0026870296
0.0026900513
0.3753805
0.31563981
0.26081006
0.22614969
0.19863793
0.17555415
0.15568634
0.13838056
0.12323204
0.10992261
0.098192278
0.087825809
0.078642911
0.070491184
0.063240881
0.0567809
0.051015659
0.045859615
0.041232509
0.037087947
0.37057326
0.31129031
0.25709091
0.22283017
0.19566438
0.17287599
0.15326376
0.13618454
0.12123826
0.10810986
0.096541826
0.086321015
0.077268941
0.069234779
0.062090175
0.055725293
0.050045801
0.044967401
0.040409428
0.036327153
0.36076945
0.3026793
0.2498414
0.21643567
0.18997808
0.16778844
0.1486914
0.13206408
0.11751699
0.1047427
0.09348977
0.083549997
0.074749028
0.066939562
0.05999628
0.053812038
0.048295049
0.043363485
0.038937013
0.034971908
0.34614153
0.29001652
0.23927128
0.20716494
0.18175912
0.16045472
0.14211888
0.12615732
0.11219642
0.099940651
0.089148064
0.079618151
0.071182934
0.063700484
0.05705006
0.051128459
0.045847473
0.041128831
0.036893781
0.033098412
0.32708997
0.27366188
0.2256871
0.19529223
0.1712537
0.15109702
0.13374822
0.11864903
0.10544634
0.093860342
0.083661708
0.074660169
0.066696195
0.05963492
0.053361575
0.047777999
0.042800322
0.038354664
0.034365898
0.030789309
0.30415863
0.25409179
0.20948619
0.18116774
0.15877398
0.13999521
0.12383155
0.10976711
0.097473388
0.086689639
0.077201885
0.068832342
0.061431778
0.054873919
0.049051208
0.043871494
0.039255818
0.035135113
0.031440179
0.028126518
0.27800731
0.23187724
0.19113857
0.16520183
0.14468384
0.12747406
0.11265972
0.099772586
0.088512221
0.078639764
0.069958912
0.062306311
0.055544673
0.049557698
0.044246189
0.039524924
0.035320418
0.031568464
0.028207497
0.025195634
0.24938766
0.20766346
0.17117177
0.14785231
0.12938747
0.11389289
0.10055312
0.088951541
0.078818529
0.069939375
0.062137357
0.055265192
0.049198956
0.043833572
0.039079306
0.034858858
0.031105032
0.027758768
0.024767224
0.022093471
0.21911608
0.18214615
0.15015217
0.12960829
0.11331525
0.099633261
0.087850966
0.077605757
0.068660877
0.060827513
0.053950009
0.047898444
0.042563407
0.037852084
0.033685187
0.029994341
0.026719819
0.023808874
0.021218918
0.018918024
0.18804426
0.15605222
0.1286652
0.11096943
0.096903653
0.085080192
0.074894117
0.066037556
0.058307848
0.051543152
0.045609779
0.040395924
0.035807333
0.031764039
0.02819783
0.025050186
0.022270729
0.019816797
0.017659793
0.015768312
0.032713181
0.028349091
0.024645636
0.021427397
0.018675444
0.016315807
0.014284393
0.012526267
0.010996786
0.0096597138
0.0084857086
0.0074512465
0.0065374081
0.0057287622
0.0050125325
0.0043779917
0.0038160015
0.0033186694
0.0028790976
0.0024911988
0.0021495564
0.0018493187
0.0015861165
0.0013559997
0.0011553878
0.00098103052
0.00082997608
0.0006995455
0.00058731069
0.00049107547
0.00040885889
0.00033887963
0.00027954189
0.00022942135
0.00018725241
0.00015191511
0.00012242334
9.7912386e-05
7.7628843e-05
6.0917065e-05
4.7215955e-05
3.6030813e-05
2.6973734e-05
1.9629545e-05
1.3860117e-05
9.0774556e-06
5.8518579e-06
2.6301827e-06
3.6812993e-06
5.7702681e-06
0.032074982
0.027857792
0.024261761
0.021126098
0.01844193
0.016136955
0.014147773
0.012421574
0.010916044
0.0095968059
0.008436075
0.0074116099
0.0065054405
0.0057027897
0.0049913275
0.004360632
0.0038017748
0.0033070114
0.0028695525
0.0024833938
0.0021431838
0.0018441238
0.001581888
0.001352563
0.0011525982
0.00097876871
0.00082814412
0.00069806308
0.00058611217
0.00049010734
0.00040807764
0.00033824994
0.00027903511
0.00022901427
0.00018692622
0.00015165457
0.00012221607
9.7748349e-05
7.7499865e-05
6.0816509e-05
4.7138417e-05
3.5971917e-05
2.6929932e-05
1.9598052e-05
1.3838639e-05
9.0642967e-06
5.8458406e-06
2.6267961e-06
3.657799e-06
5.6526483e-06
0.030949954
0.026997542
0.023596182
0.020612121
0.018049901
0.015841562
0.01392576
0.012253924
0.010788354
0.0094983521
0.0083590629
0.0073505499
0.0064565005
0.0056632533
0.0049592222
0.0043344863
0.0037804586
0.0032896335
0.0028553962
0.0024718747
0.0021338224
0.0018365246
0.0015757255
0.001347569
0.0011485528
0.00097549205
0.00082548959
0.00069591165
0.00058436752
0.00048869174
0.00040692847
0.00033731687
0.00027827764
0.00022839984
0.00018642857
0.00015125248
0.00012189234
9.7488972e-05
7.7293392e-05
6.065356e-05
4.7011288e-05
3.5874282e-05
2.6856629e-05
1.9544931e-05
1.3802327e-05
9.0421233e-06
5.8361692e-06
2.6213797e-06
3.6108501e-06
5.4230536e-06
0.02940608
0.025820202
0.022695272
0.01993004
0.017538849
0.015461949
0.013643689
0.012042545
0.010627971
0.009374905
0.0082626382
0.0072742572
0.0063955447
0.005614224
0.0049196214
0.0043024315
0.0037544939
0.0032686068
0.0028383811
0.002458119
0.0021227118
0.0018275565
0.0015684888
0.0013417286
0.0011438365
0.00097167924
0.00082240246
0.00069340741
0.00058233189
0.00048703356
0.00040557514
0.00033621064
0.00027737252
0.00022765915
0.00018582293
0.00015075824
0.00012149034
9.7163583e-05
7.7031773e-05
6.0445103e-05
4.6847196e-05
3.5747236e-05
2.6760593e-05
1.9474989e-05
1.3754406e-05
9.0130568e-06
5.8236073e-06
2.6148865e-06
3.5404173e-06
5.0934294e-06
0.027511899
0.024379586
0.021607539
0.01912592
0.016948884
0.01502958
0.013324876
0.011804304
0.010447012
0.0092353345
0.0081535903
0.0071881911
0.0063271346
0.0055596093
0.0048759174
0.004267426
0.0037264564
0.0032461638
0.0028204313
0.0024437738
0.0021112527
0.0018184027
0.0015611717
0.0013358713
0.0011391373
0.00096789793
0.00081934847
0.00069093042
0.0005803138
0.00048538191
0.00040421773
0.00033509108
0.00027644672
0.0002268925
0.00018518806
0.00015023332
0.00012105772
9.6808857e-05
7.6743015e-05
6.0212334e-05
4.6662009e-05
3.5602502e-05
2.6650327e-05
1.9394244e-05
1.3698894e-05
8.9797072e-06
5.8090345e-06
2.6084978e-06
3.4471691e-06
4.6812474e-06
0.02532787
0.022725698
0.020377625
0.018238101
0.016309922
0.014564914
0.012982159
0.011547355
0.01025113
0.0090840369
0.0080357139
0.0070958432
0.0062545467
0.0055024709
0.0048309373
0.0042320448
0.0036986614
0.0032243612
0.0028033535
0.0024304109
0.0021008007
0.0018102229
0.0015547587
0.0013308271
0.0011351506
0.00096472684
0.00081680637
0.00068887439
0.00057863514
0.00048399848
0.00040306775
0.00033412819
0.00027563609
0.0002262078
0.00018460915
0.00014974453
0.00012064654
9.6465056e-05
7.6457994e-05
5.997871e-05
4.6473347e-05
3.5453131e-05
2.6535304e-05
1.9309401e-05
1.3640233e-05
8.9449292e-06
5.7933258e-06
2.6034477e-06
3.3322904e-06
4.2077196e-06
0.022913544
0.020909008
0.019045766
0.017290427
0.01563233
0.014070058
0.012613881
0.011269718
0.010039738
0.0089220138
0.0079111778
0.0070000829
0.0061809772
0.0054460591
0.0047878085
0.0041991928
0.0036737418
0.0032055427
0.0027892053
0.0024198164
0.0020928913
0.0018043262
0.0015503575
0.001327527
0.0011326537
0.0009628111
0.00081530845
0.00068767604
0.00057765225
0.00048317244
0.00040235859
0.00033350933
0.00027509019
0.00022572379
0.0001841799
0.00014936535
0.00012031403
9.617642e-05
7.6210623e-05
5.9769965e-05
4.6300506e-05
3.5313369e-05
2.6425811e-05
1.9227678e-05
1.3583149e-05
8.9117092e-06
5.7773376e-06
2.6009239e-06
3.1975013e-06
3.6958406e-06
0.020341953
0.018987145
0.017642941
0.016280206
0.014895941
0.013523772
0.01220429
0.010962038
0.0098089674
0.0087493094
0.0077823491
0.0069044315
0.0061103764
0.0053943245
0.0047502415
0.0041722223
0.0036546502
0.0031922624
0.0027801665
0.0024138314
0.0020890663
0.0018019944
0.0015490271
0.0013268407
0.0011323573
0.00096272837
0.00081532188
0.00068771129
0.0005776661
0.00048314354
0.0004022803
0.0003333843
0.00027492646
0.00022553195
0.00018397117
0.00014915027
0.00012010178
9.5974433e-05
7.6024509e-05
5.9603607e-05
4.615629e-05
3.5192424e-05
2.6328293e-05
1.9153447e-05
1.3530291e-05
8.8816164e-06
5.7610162e-06
2.6015526e-06
3.044886e-06
3.1687829e-06
0.017683654
0.016987639
0.016139764
0.015135846
0.014022504
0.012862277
0.011707157
0.010591447
0.0095350987
0.0085484991
0.0076361407
0.0067987844
0.0060347424
0.0053408086
0.0047129504
0.0041467653
0.0036377576
0.0031815001
0.0027737254
0.0024103718
0.0020876025
0.0018018083
0.0015496032
0.0013278167
0.0011334862
0.00096384911
0.00081633661
0.00068856761
0.00057834357
0.00048364308
0.00040261627
0.00033357868
0.00027500461
0.00022551966
0.0001838927
0.00014902724
0.00011995251
9.5813836e-05
7.5864172e-05
5.9452097e-05
4.6019595e-05
3.5074372e-05
2.6230953e-05
1.9078176e-05
1.3475569e-05
8.8505455e-06
5.7411419e-06
2.604139e-06
2.8773091e-06
2.6502934e-06
0.015032738
0.014850395
0.014399211
0.013728777
0.012912838
0.012010152
0.011063971
0.010111268
0.0091799564
0.0082881192
0.0074467222
0.0066620329
0.0059368685
0.0052715143
0.0046645744
0.0041136219
0.0036156326
0.0031672705
0.0027650777
0.0024055961
0.0020854407
0.0018013421
0.0015501705
0.0013289494
0.0011348618
0.00096525428
0.0008176387
0.0006896925
0.0005792585
0.00048434345
0.00040311556
0.00033390099
0.00027517915
0.00022557693
0.00018386191
0.0001489347
0.00011982081
9.5661549e-05
7.5705897e-05
5.9298768e-05
4.5879004e-05
3.4951613e-05
2.612893e-05
1.899879e-05
1.3417163e-05
8.8170359e-06
5.7168791e-06
2.6075371e-06
2.7012098e-06
2.1646947e-06
0.012139522
0.012272272
0.012148724
0.011796023
0.011292454
0.010680604
0.0099891277
0.0092508503
0.0084963074
0.0077480278
0.0070217368
0.0063284712
0.0056754746
0.0050668605
0.0045044148
0.003988302
0.0035175749
0.0030905414
0.0027050359
0.0023586111
0.002048672
0.0017725664
0.0015276471
0.001311315
0.0011210492
0.00095442846
0.00080914682
0.00068302476
0.00057401719
0.00048021864
0.00039986588
0.00033133855
0.0002731576
0.00022398218
0.00018260484
0.00014794551
0.00011904463
9.5055104e-05
7.5234874e-05
5.8935938e-05
4.560252e-05
3.4744454e-05
2.597645e-05
1.8892154e-05
1.3342632e-05
8.7784254e-06
5.6834767e-06
2.6128053e-06
2.5200595e-06
1.7384148e-06
0.0093999452
0.0096904221
0.0097644409
0.0096352691
0.0093693339
0.0089972354
0.0085348384
0.0080073007
0.0074418717
0.0068599962
0.0062777912
0.0057077909
0.0051593333
0.0046388068
0.0041502296
0.0036958424
0.0032765584
0.0028923097
0.0025423244
0.0022253398
0.0019397608
0.0016837756
0.0014554429
0.0012527551
0.0010736876
0.00091623494
0.00077843962
0.00065841391
0.0005543567
0.00046456621
0.00038744889
0.00032152535
0.00026543337
0.00021792858
0.00017788296
0.00014428168
0.0001162185
9.2889848e-05
7.3588969e-05
5.7696688e-05
4.467997e-05
3.406841e-05
2.5489038e-05
1.8553822e-05
1.3109033e-05
8.642796e-06
5.5806397e-06
2.5964896e-06
2.2940401e-06
1.3372439e-06
0.0070491872
0.0074355346
0.0076469973
0.0076910242
0.0076115455
0.0074311086
0.0071587474
0.0068122225
0.0064139339
0.0059829761
0.0055345881
0.0050814838
0.004633967
0.0041998338
0.0037846847
0.0033923628
0.0030253104
0.0026848607
0.0023714911
0.0020850329
0.0018248376
0.0015899061
0.0013789905
0.0011906731
0.0010234293
0.00087567712
0.0007458166
0.00063226149
0.00053346431
0.00044793603
0.00037426113
0.00031110868
0.00025723991
0.00021151266
0.00017288333
0.00014040647
0.00011323273
9.0604976e-05
7.1854178e-05
5.6391985e-05
4.3709645e-05
3.3357953e-05
2.4976866e-05
1.8198448e-05
1.2862383e-05
8.5002916e-06
5.4671073e-06
2.5827322e-06
2.0516996e-06
9.64868e-07
0.0050746252
0.0055055742
0.0058003511
0.0059651203
0.0060224409
0.0059876582
0.0058664521
0.0056702749
0.0054157212
0.0051184893
0.0047919814
0.0044480162
0.0040968159
0.0037467093
0.0034041888
0.0030741667
0.0027602181
0.0024647947
0.002189428
0.0019349141
0.0017014695
0.0014888596
0.0012965051
0.0011235688
0.00096902704
0.00083172799
0.00071043972
0.00060388947
0.00051079583
0.00042989474
0.00035996014
0.00029982
0.00024836826
0.00020457315
0.00016748248
0.0001362262
0.00011001687
8.8148033e-05
6.9991845e-05
5.4993626e-05
4.267122e-05
3.2598488e-05
2.4429718e-05
1.7818453e-05
1.2597915e-05
8.3460394e-06
5.3419196e-06
2.5670088e-06
1.8104158e-06
6.5123798e-07
0.0034872538
0.0039119061
0.0042399629
0.0044745912
0.0046217665
0.004689517
0.004681119
0.0046031491
0.0044665209
0.0042829462
0.0040633212
0.0038178022
0.0035556817
0.0032850262
0.0030125423
0.0027436546
0.0024826279
0.0022326928
0.0019961841
0.0017746817
0.0015691407
0.0013800062
0.0012073135
0.0010507736
0.00090984727
0.00078380715
0.00067179049
0.00057284382
0.00048596017
0.0004101101
0.00034426702
0.00028742762
0.00023862777
0.0001969545
0.00016155452
0.00013163976
0.00010649033
8.5455249e-05
6.7951909e-05
5.3462639e-05
4.1534648e-05
3.1767051e-05
2.383035e-05
1.7400845e-05
1.2306499e-05
8.172763e-06
5.2016871e-06
2.5447541e-06
1.580144e-06
4.1210231e-07
0.0022712577
0.0026500513
0.0029697952
0.0032295457
0.0034244704
0.0035559298
0.0036245649
0.0036331558
0.003587747
0.0034960311
0.0033660262
0.0032057444
0.003022963
0.0028248566
0.0026177539
0.0024070697
0.0021973161
0.0019921426
0.0017944036
0.0016062454
0.0014291998
0.0012642736
0.0011120332
0.00097268113
0.00084612577
0.00073204183
0.00062992409
0.00053913396
0.00045893952
0.00038854976
0.00032714333
0.00027389231
0.00022798155
0.00018862378
0.00015507115
0.00012662348
0.00010263374
8.2511043e-05
6.5721999e-05
5.1789279e-05
4.02923e-05
3.085763e-05
2.3174081e-05
1.6941739e-05
1.1985343e-05
7.9774821e-06
5.0457824e-06
2.5127199e-06
1.368817e-06
2.5289694e-07
0.0013872503
0.0016966525
0.0019783975
0.002228141
0.0024356156
0.0025972893
0.0027111066
0.0027768109
0.0027965876
0.0027745138
0.0027156989
0.0026258062
0.0025107559
0.0023763959
0.0022282142
0.0020711716
0.0019096237
0.0017472875
0.0015872438
0.0014319685
0.0012833829
0.0011429116
0.0010115438
0.00088989445
0.00077826274
0.00067668672
0.00058499326
0.00050284325
0.0004297717
0.00036522307
0.00030858179
0.00025919821
0.00021641036
0.00017956156
0.00014801449
0.00012116189
9.8434297e-05
7.930517e-05
6.3294113e-05
4.9967398e-05
3.8939495e-05
2.9866621e-05
2.2458151e-05
1.6438795e-05
1.1632852e-05
7.7581809e-06
4.874503e-06
2.4680355e-06
1.1820224e-06
1.690419e-07
0.00078486694
0.0010154239
0.0012417125
0.0014574719
0.0016509592
0.0018159081
0.001948125
0.0020450576
0.0021060467
0.0021322247
0.0021260559
0.0020909145
0.0020307762
0.0019499297
0.0018527106
0.0017432912
0.0016255383
0.0015029246
0.001378479
0.0012547687
0.0011339064
0.0010175738
0.00090705592
0.00080328142
0.00070686596
0.00061815585
0.00053727062
0.00046414338
0.00039855821
0.00034018421
0.00028860591
0.00024334998
0.00020390813
0.00016975648
0.00014037139
0.00011524208
9.3880405e-05
7.5827812e-05
6.066029e-05
4.7990741e-05
3.7471433e-05
2.8790368e-05
2.1679827e-05
1.5889841e-05
1.1247653e-05
7.5133036e-06
4.6885405e-06
2.4085069e-06
1.0222287e-06
1.4681163e-07
0.00041112724
0.00056354496
0.00072733187
0.0008956775
0.0010576881
0.0012062177
0.0013359002
0.00144273
0.0015241608
0.001579167
0.0016080541
0.0016121756
0.0015936798
0.0015552752
0.0015000024
0.0014310334
0.001351508
0.0012644084
0.0011724727
0.0010781402
0.00098352212
0.00089039247
0.00080019506
0.00071406099
0.00063283383
0.00055709932
0.00048721724
0.00042335413
0.00036551519
0.00031357486
0.00026730513
0.00022640133
0.00019050495
0.00015922357
0.00013214773
0.00010886482
8.89703e-05
7.2076231e-05
5.7817704e-05
4.5856827e-05
3.5886132e-05
2.7627388e-05
2.0838079e-05
1.5294155e-05
1.0829517e-05
7.2425489e-06
4.4893046e-06
2.3333196e-06
8.891116e-07
1.6649436e-07
0.00021569591
0.00029719036
0.00039917366
0.0005152354
0.00063639464
0.00075589233
0.00086817115
0.00096862107
0.0010536732
0.0011209312
0.0011691438
0.0011980639
0.0012082845
0.0012010721
0.0011781949
0.0011417518
0.0010940208
0.0010373275
0.00097393933
0.00090598632
0.00083540667
0.00076391157
0.00069296745
0.00062379174
0.00055735934
0.00049441671
0.00043550127
0.00038096403
0.00033099411
0.00028564365
0.00024485223
0.00020847014
0.0001762797
0.00014801463
0.00012337692
0.00010205132
8.3717318e-05
6.8058844e-05
5.4771785e-05
4.3569323e-05
3.4186237e-05
2.6379738e-05
1.9934607e-05
1.4653232e-05
1.0379913e-05
6.9472629e-06
4.2789981e-06
2.2432597e-06
7.8033948e-07
2.068777e-07
0.00015414504
0.00017539825
0.00022127894
0.00028629974
0.00036367558
0.00044771907
0.0005334122
0.00061624854
0.00069235717
0.00075867304
0.00081300239
0.00085399004
0.00088104482
0.00089424681
0.00089423725
0.00088209548
0.00085921444
0.00082718499
0.00078769241
0.0007424287
0.00069302336
0.00064099175
0.0005876987
0.00053433629
0.0004819131
0.00043125322
0.00038300245
0.00033763996
0.00029549386
0.00025675894
0.00022151575
0.00018974974
0.00016136996
0.00013622654
0.00011412662
9.4848558e-05
7.8154064e-05
6.3798383e-05
5.1538564e-05
4.1139753e-05
3.2380235e-05
2.5053863e-05
1.8974436e-05
1.3971177e-05
9.9022636e-06
6.6305718e-06
4.0605902e-06
2.1406577e-06
6.9256506e-07
2.4966542e-07
0.00018930833
0.00016216581
0.00016031412
0.00017936853
0.00021460275
0.00026164435
0.00031641734
0.00037499662
0.00043374
0.00048947435
0.00053960635
0.00058215769
0.00061576069
0.00063963016
0.00065351253
0.00065761397
0.00065251537
0.00063908321
0.00061838302
0.00059159881
0.00055996194
0.00052469211
0.00048695085
0.00044780645
0.00040821027
0.00036898252
0.00033080644
0.00029422908
0.00025966737
0.00022741803
0.0001976701
0.00017051901
0.00014598135
0.0001240095
0.00010450571
8.7335028e-05
7.2336922e-05
5.933535e-05
4.8147243e-05
3.8589338e-05
3.0483726e-05
2.3661427e-05
1.7966418e-05
1.3254955e-05
9.4020342e-06
6.2972595e-06
3.8376313e-06
2.0289666e-06
6.2217548e-07
2.8245854e-07
0.00029130028
0.00022724505
0.0001869578
0.00016710984
0.00016470278
0.00017664314
0.00019991975
0.00023142821
0.00026808194
0.00030699033
0.0003455817
0.00038167082
0.00041349779
0.00043974694
0.00045954363
0.00047242818
0.0004783116
0.00047741944
0.00047022977
0.00045740958
0.00043975312
0.00041812542
0.00039341322
0.00036648449
0.0003381564
0.00030917205
0.0002801847
0.00025174926
0.00022431942
0.00019824969
0.00017380101
0.00015114914
0.00013039465
0.00011157395
9.4670555e-05
7.9626061e-05
6.6350475e-05
5.4731533e-05
4.4642879e-05
3.5950966e-05
2.8520796e-05
2.222021e-05
1.6923771e-05
1.2514629e-05
8.8867891e-06
5.9535925e-06
3.6141159e-06
1.9122791e-06
5.6578616e-07
2.9963203e-07
0.00043682931
0.00034611476
0.00027645442
0.00022541454
0.00019133296
0.00017221268
0.00016604314
0.00017058851
0.00018346241
0.00020228051
0.00022477368
0.00024886163
0.00027271005
0.00029477602
0.00031383652
0.00032899686
0.00033968105
0.00034560748
0.00034675418
0.00034331689
0.0003356636
0.00032428834
0.00030976728
0.00029271902
0.00027377036
0.00025352811
0.00023255736
0.00021136575
0.00019039349
0.00017000828
0.00015050452
0.00013210577
0.00011496975
9.919522e-05
8.4829801e-05
7.1878389e-05
6.031152e-05
5.0073367e-05
4.1089073e-05
3.3271237e-05
2.6525498e-05
2.0755094e-05
1.5864663e-05
1.1763615e-05
8.3662338e-06
5.6070964e-06
3.3943447e-06
1.7948168e-06
5.2041518e-07
3.0122655e-07
0.00060820129
0.00049947235
0.00040859425
0.00033383382
0.00027448853
0.00022942151
0.00019746018
0.00017716036
0.00016684318
0.00016471476
0.00016895776
0.000177795
0.00018954652
0.00020268346
0.00021587201
0.00022800295
0.00023820627
0.00024585248
0.00025054238
0.00025208727
0.00025048206
0.0002458738
0.00023852817
0.00022879617
0.00021708275
0.00020381868
0.00018943653
0.00017435114
0.00015894479
0.00014355684
0.00012847738
0.00011394454
0.00010014465
8.7214729e-05
7.5246773e-05
6.4293041e-05
5.4372044e-05
4.5474705e-05
3.7570374e-05
3.0612435e-05
2.4543366e-05
1.929916e-05
1.4812946e-05
1.1019092e-05
7.852399e-06
5.2664966e-06
3.1829646e-06
1.6806457e-06
4.835968e-07
2.9074038e-07
0.00079227118
0.00067250473
0.00056734637
0.00047558275
0.00039714933
0.0003315356
0.00027821175
0.00023638482
0.00020500487
0.00018285256
0.00016860583
0.00016088629
0.00015830552
0.00015951469
0.00016325093
0.00016837522
0.00017390038
0.00017900904
0.00018306179
0.000185596
0.00018631652
0.00018507974
0.00018187305
0.0001767914
0.00017001275
0.00016177403
0.00015234864
0.0001420265
0.0001310972
0.00011983654
0.00010849638
9.7297909e-05
8.6427627e-05
7.603599e-05
6.6238015e-05
5.7115494e-05
4.8720284e-05
4.1078309e-05
3.4193872e-05
2.8054019e-05
2.2632704e-05
1.7894708e-05
1.37989e-05
1.0302476e-05
7.3599164e-06
4.9417889e-06
2.9851151e-06
1.5735824e-06
4.5348286e-07
2.7284571e-07
0.00097948643
0.00085410986
0.00074031865
0.00063727235
0.00054529236
0.00046429265
0.00039419894
0.00033471105
0.00028528818
0.00024520983
0.00021361992
0.00018955512
0.00017197631
0.00015980719
0.00015197445
0.00014744462
0.00014525576
0.00014454328
0.00014455897
0.00014468277
0.00014442723
0.0001434353
0.00014147243
0.00013841421
0.00013423083
0.00012896977
0.00012273788
0.000115684
0.00010798288
9.9820971e-05
9.1384689e-05
8.2851028e-05
7.4380704e-05
6.6113628e-05
5.8166422e-05
5.0631697e-05
4.3578715e-05
3.7055091e-05
3.1089206e-05
2.5693037e-05
2.0865163e-05
1.6593849e-05
1.2859754e-05
9.6398324e-06
6.9063223e-06
4.6444392e-06
2.8066874e-06
1.4773171e-06
4.2900244e-07
2.5178108e-07
0.0011630727
0.0010361634
0.00091816447
0.00080849832
0.00070768855
0.00061591448
0.0005333984
0.00046018465
0.00039611297
0.00034085959
0.00029396379
0.00025484092
0.00022279955
0.00019706708
0.00017681976
0.00016121265
0.00014940846
0.00014060392
0.00013405284
0.00012908462
0.00012511739
0.00012166585
0.00011834369
0.0001148614
0.00011101989
0.00010670111
0.00010185648
9.6494159e-05
9.0666042e-05
8.4455172e-05
7.7964248e-05
7.1305561e-05
6.4592672e-05
5.7933879e-05
5.1427473e-05
4.515864e-05
3.9197799e-05
3.360015e-05
2.8406163e-05
2.3642779e-05
1.9325062e-05
1.5458239e-05
1.2039636e-05
9.0619386e-06
6.5121698e-06
4.3875272e-06
2.6545317e-06
1.3956016e-06
4.0994585e-07
2.3061326e-07
0.0013383701
0.0012128773
0.0010940108
0.0009813788
0.00087558147
0.00077694664
0.00068586944
0.00060261449
0.00052728442
0.00045984722
0.00040015061
0.00034792405
0.00030278443
0.00026424995
0.00023175922
0.00020469228
0.0001823928
0.00016419042
0.00014942264
0.00013745457
0.00012769593
0.00011961442
0.00011274516
0.00010669611
0.00010114959
9.586036e-05
9.0650823e-05
8.5403972e-05
8.0054906e-05
7.4581524e-05
6.8995074e-05
6.3331088e-05
5.7641101e-05
5.1985463e-05
4.6427382e-05
4.1028281e-05
3.5844402e-05
3.0924581e-05
2.6309028e-05
2.202896e-05
1.8106883e-05
1.4557472e-05
1.1388596e-05
8.603722e-06
6.2007491e-06
4.1856853e-06
2.5365145e-06
1.3324074e-06
3.9692016e-07
2.1118114e-07
0.0015023065
0.0013802631
0.0012629471
0.0011501
0.0010423192
0.00094000018
0.00084362128
0.00075357152
0.00067011911
0.00059342986
0.00052357392
0.00046052098
0.00040413813
0.00035419467
0.00031037187
0.00027227517
0.00023944874
0.00021139163
0.0001875752
0.00016746059
0.00015051536
0.00013622851
0.00012412321
0.00011376685
0.000104778
9.683045e-05
8.9654343e-05
8.3034718e-05
7.6807999e-05
7.0856858e-05
6.5104005e-05
5.9505426e-05
5.4043515e-05
4.8720494e-05
4.3552413e-05
3.8563919e-05
3.3783926e-05
2.9242207e-05
2.4966886e-05
2.0982761e-05
1.7310364e-05
1.39657e-05
1.0960325e-05
8.3027967e-06
5.9971977e-06
4.0546476e-06
2.4612948e-06
1.2919377e-06
3.9114054e-07
1.9438274e-07
0.001652984
0.0015356943
0.001421586
0.0013105
0.001202984
0.0010994499
0.001000398
0.00090627269
0.0008174335
0.0007341675
0.00065669198
0.00058514622
0.00051958483
0.00045997652
0.00040620688
0.00035808343
0.0003153431
0.00027766198
0.00024466711
0.00021594955
0.00019107816
0.0001696132
0.00015111934
0.00013517722
0.00012139334
0.00010940779
9.8899672e-05
8.9590284e-05
8.1244102e-05
7.3667866e-05
6.6708091e-05
6.0247373e-05
5.4199894e-05
4.8506504e-05
4.3129709e-05
3.804885e-05
3.3255702e-05
2.8750603e-05
2.4539247e-05
2.0630134e-05
1.7032686e-05
1.3756043e-05
1.0808262e-05
8.196836e-06
5.9268111e-06
4.010269e-06
2.4377532e-06
1.2784362e-06
3.941281e-07
1.8053795e-07
0.001789355
0.0016775533
0.0015676958
0.0014597015
0.0013540452
0.001251124
0.0011514221
0.0010553931
0.00096343463
0.00087589728
0.00079308515
0.00071524665
0.00064256589
0.00057515796
0.00051306727
0.00045626748
0.00040466349
0.00035809564
0.00031634605
0.00027914679
0.00024618955
0.00021713613
0.00019162945
0.00016930444
0.00014979833
0.00013275985
0.00011785706
0.00010478355
9.3262816e-05
8.3050955e-05
7.3937629e-05
6.5745616e-05
5.8329125e-05
5.1571196e-05
4.538046e-05
3.9687566e-05
3.4441504e-05
2.9606058e-05
2.5156529e-05
2.1076871e-05
1.7357287e-05
1.3992391e-05
1.097974e-05
8.3195433e-06
6.0123809e-06
4.0668929e-06
2.4740183e-06
1.295761e-06
4.0737264e-07
1.6967698e-07
0.0019109672
0.0018049474
0.0016998967
0.0015957992
0.0014930485
0.0013920104
0.0012931316
0.0011968465
0.0011035556
0.0010136323
0.00092742286
0.00084523715
0.00076734017
0.00069394581
0.00062521262
0.00056124073
0.00050207008
0.00044768043
0.00039799331
0.00035287573
0.00031214558
0.00027557844
0.00024291546
0.00021387207
0.00018814686
0.0001654305
0.00014541406
0.00012779652
0.00011229123
9.8630945e-05
8.6571609e-05
7.5894703e-05
6.6408297e-05
5.7946971e-05
5.0370762e-05
4.3563383e-05
3.7429934e-05
3.1894316e-05
2.6896539e-05
2.2390118e-05
1.8339654e-05
1.4718758e-05
1.1508224e-05
8.6951811e-06
6.2705035e-06
4.2350177e-06
2.5760715e-06
1.3467199e-06
4.3199118e-07
1.6170792e-07
0.0020177518
0.0019174694
0.0018173986
0.0017175808
0.0016183287
0.0015199705
0.001422906
0.0013275345
0.0012342382
0.0011433873
0.0010553391
0.0009704304
0.00088896959
0.00081123042
0.00073744668
0.00066780754
0.0006024537
0.00054147467
0.00048490753
0.00043273719
0.00038489815
0.00034127773
0.00030172063
0.00026603475
0.00023399773
0.00020536424
0.00017987346
0.00015725638
0.0001372429
0.00011956803
0.00010397742
9.023168e-05
7.8109745e-05
6.7411035e-05
5.795664e-05
4.9589548e-05
4.2174115e-05
3.5594911e-05
2.975515e-05
2.4574855e-05
1.9988921e-05
1.5945255e-05
1.2402947e-05
9.3311809e-06
6.7065416e-06
4.5180649e-06
2.7458294e-06
1.4321207e-06
4.6834899e-07
1.5647139e-07
0.0021098714
0.002015024
0.0019198075
0.001824317
0.0017287895
0.0016335153
0.001538845
0.0014451369
0.0013527442
0.0012620185
0.0011733087
0.0010869553
0.0010032836
0.00092259797
0.00084517628
0.00077126515
0.00070107484
0.00063477528
0.0005724927
0.00051430761
0.00046025375
0.00041031843
0.00036444411
0.00032253129
0.00028444245
0.00025000707
0.00021902729
0.00019128418
0.00016654414
0.00014456525
0.00012510338
0.00010791767
9.2775322e-05
7.945558e-05
6.7752794e-05
5.7478569e-05
4.8463066e-05
4.0555523e-05
3.3624114e-05
2.7555295e-05
2.2252764e-05
1.7636211e-05
1.3639872e-05
1.0211549e-05
7.3100289e-06
4.9093899e-06
2.9793649e-06
1.5498999e-06
5.1576078e-07
1.5375763e-07
0.00218752
0.0020976014
0.0020068753
0.0019154889
0.0018236108
0.0017314971
0.0016394522
0.0015477935
0.0014568412
0.0013669213
0.0012783642
0.0011915003
0.0011066545
0.0010241415
0.0009442609
0.00086729209
0.00079348939
0.00072307737
0.00065624646
0.00059314954
0.00053389904
0.00047856522
0.00042717529
0.00037971394
0.00033612472
0.00029631273
0.00026014826
0.00022747124
0.00019809638
0.00017181881
0.00014841982
0.00012767267
0.00010934806
9.3219199e-05
7.9066273e-05
6.6680148e-05
5.5865346e-05
4.6442205e-05
3.8248293e-05
3.1139125e-05
2.4988299e-05
1.9687167e-05
1.5144091e-05
1.1283857e-05
8.0455021e-06
5.3861669e-06
3.2631708e-06
1.6931139e-06
5.7169674e-07
1.5313925e-07
0.0022509123
0.0021652548
0.0020784638
0.0019907401
0.0019021919
0.001813046
0.0017235666
0.0016340342