/*--------------------------------*- C++ -*----------------------------------*\
  =========                 |
  \\      /  F ield         | OpenFOAM: The Open Source CFD Toolbox
   \\    /   O peration     | Website:  https://openfoam.org
    \\  /    A nd           | Version:  6
     \\/     M anipulation  |
\*---------------------------------------------------------------------------*/
FoamFile
{
    version     2.0;
    format      ascii;
    class       volVectorField;
    location    "71";
    object      UMean;
}
// * * * * * * * * * * * * * * * * * * * * * * * * * * * * * * * * * * * * * //

dimensions      [0 1 -1 0 0 0 0];

internalField   nonuniform List<vector> 
9200
(
(0.0029807795 -6.5473165e-05 -6.4320226e-20)
(0.020129466 -0.0067385519 5.2797643e-20)
(0.049686562 -0.01328278 -4.2551994e-20)
(0.088858533 -0.019546185 -6.8825122e-20)
(0.1355842 -0.025387451 2.1142063e-20)
(0.18849949 -0.030385346 3.7427426e-20)
(0.24641414 -0.034266003 -1.3955689e-20)
(0.308227 -0.036905689 1.0580599e-20)
(0.37291175 -0.038267193 1.9995438e-20)
(0.43948665 -0.038375388 1.7680472e-21)
(0.50699264 -0.037306074 -2.5714837e-20)
(0.57448704 -0.035174717 2.4613345e-20)
(0.64104943 -0.032125124 -4.7874561e-20)
(0.70579696 -0.028318068 -2.5374585e-20)
(0.7679068 -0.023919379 7.0926721e-21)
(0.8266428 -0.019090193 -3.0381618e-20)
(0.88139823 -0.013964921 3.0601565e-20)
(0.93181196 -0.0085105222 2.7404666e-20)
(0.97759357 -0.0026049964 -1.860353e-22)
(1.0162604 0.00055314987 -1.4470783e-21)
(0.0077615545 -0.0030177813 -1.8522563e-20)
(0.034930325 -0.014045989 4.501065e-20)
(0.075325399 -0.022645832 2.5404929e-20)
(0.12573459 -0.029329753 -1.3012514e-19)
(0.18379345 -0.034384044 -1.4121145e-20)
(0.24787168 -0.03763695 8.3716854e-20)
(0.31650442 -0.039030397 -4.050444e-20)
(0.38830773 -0.03863946 -9.7727289e-21)
(0.46197212 -0.036607006 4.0075294e-20)
(0.53624243 -0.033123692 -5.0857182e-20)
(0.60990984 -0.028420221 -3.6199102e-20)
(0.68182215 -0.022756509 8.6148928e-20)
(0.75090648 -0.016409362 4.5600691e-20)
(0.81619903 -0.0096604932 -8.1309461e-20)
(0.8768773 -0.0027863999 1.7491142e-20)
(0.93228913 0.0039463282 -4.3951799e-20)
(0.98198675 0.010294031 -1.6924611e-20)
(1.0258153 0.016106529 8.4702249e-20)
(1.0637808 0.021003451 3.7650654e-20)
(1.0942996 0.022014255 -8.8606314e-20)
(0.013979885 -0.0058274735 3.8919572e-20)
(0.053505226 -0.020658135 1.9754969e-21)
(0.10649009 -0.030494677 2.3407145e-20)
(0.16936421 -0.036633813 1.0909793e-21)
(0.23947447 -0.039872959 -4.4129411e-20)
(0.31490429 -0.040354606 2.1536211e-20)
(0.39388702 -0.038297085 1.4561617e-20)
(0.4747338 -0.034031502 -5.76163e-20)
(0.55584529 -0.027932335 6.6354156e-20)
(0.6357122 -0.020399184 1.7435324e-20)
(0.71292905 -0.011849143 -6.4407197e-20)
(0.78622481 -0.0027028106 -2.1982402e-20)
(0.85450062 0.0066323811 9.8614427e-21)
(0.91686662 0.015778093 2.7750189e-20)
(0.97267107 0.024398189 -1.3361673e-20)
(1.0215155 0.032206451 3.2778222e-20)
(1.0632581 0.038978719 -2.3993391e-20)
(1.0980335 0.044598164 -8.1234534e-20)
(1.1261244 0.048827129 -2.546838e-20)
(1.1468433 0.049869872 5.463461e-20)
(0.021718817 -0.0082383809 2.5554543e-20)
(0.075931965 -0.025865701 5.4979218e-20)
(0.14310301 -0.035777885 2.1742232e-20)
(0.21938638 -0.040175841 1.5160892e-20)
(0.30186465 -0.040452177 1.9871776e-20)
(0.38832641 -0.037132076 -5.3924197e-20)
(0.47669806 -0.030772622 -2.9341309e-20)
(0.56500009 -0.022015096 0)
(0.65138853 -0.011507252 1.8476561e-20)
(0.73418415 0.00011726179 -8.2848709e-21)
(0.81191088 0.01224995 -1.1403222e-19)
(0.8833423 0.024326753 -1.7880097e-20)
(0.94754371 0.035849074 7.6403697e-20)
(1.0039003 0.046401348 4.6432808e-22)
(1.0521255 0.05566275 -1.823409e-21)
(1.0922463 0.063411207 2.5302898e-20)
(1.1245691 0.069527093 -5.6487774e-21)
(1.149646 0.0740196 -7.0109277e-20)
(1.1681516 0.076885605 -5.260894e-20)
(1.180166 0.07719456 7.5334233e-20)
(0.030987933 -0.0099628696 -3.6848476e-21)
(0.1020603 -0.028910861 -4.2001487e-21)
(0.18469752 -0.037421015 6.0870654e-20)
(0.27489509 -0.038704162 2.107088e-20)
(0.36951943 -0.034826126 -3.6588813e-20)
(0.46608525 -0.026761472 1.2894125e-20)
(0.5622501 -0.015461561 3.0107368e-21)
(0.65581613 -0.001916762 3.9329939e-20)
(0.7448087 0.01293488 6.5555903e-21)
(0.82753557 0.028234149 -1.6041997e-20)
(0.90264221 0.043216323 7.1045021e-20)
(0.96915899 0.057233678 -6.6554408e-20)
(1.0265269 0.069775438 -1.5240412e-19)
(1.0745953 0.08047883 -6.4030715e-21)
(1.1135894 0.089129514 9.4679231e-20)
(1.1440528 0.0956512 0)
(1.1667717 0.10009148 1.1847425e-20)
(1.1827002 0.1026233 -1.7141172e-20)
(1.1928429 0.10343929 -1.0085881e-20)
(1.1978097 0.10213487 2.2741383e-20)
(0.041704696 -0.010693549 -4.5579797e-21)
(0.13148635 -0.029032761 4.6222711e-21)
(0.23041844 -0.034414816 -9.4091206e-21)
(0.33449356 -0.031133616 3.0120482e-20)
(0.44044789 -0.021987355 -3.3085854e-20)
(0.54559077 -0.0084523816 -1.9015952e-20)
(0.64740961 0.0080923545 3.9752394e-20)
(0.74362968 0.026301192 4.7842498e-21)
(0.83232892 0.044970519 -2.9458931e-20)
(0.91201676 0.063071301 7.9941086e-20)
(0.98168761 0.079765174 -1.831408e-22)
(1.0408442 0.094421762 -9.227077e-20)
(1.0894826 0.10662617 0)
(1.1280389 0.11617118 4.4485109e-20)
(1.1573051 0.12303506 6.0591434e-21)
(1.1783256 0.12734801 -8.6261624e-20)
(1.192289 0.12935583 -2.1844976e-20)
(1.2004316 0.12939763 -1.3627564e-20)
(1.2039339 0.12781393 -1.6266083e-20)
(1.2036526 0.12451518 4.4345806e-20)
(0.05368285 -0.010125018 -1.7362186e-20)
(0.16354052 -0.025527473 -4.8537127e-21)
(0.27903775 -0.025905013 3.1252292e-20)
(0.39636167 -0.016654699 3.7992617e-20)
(0.51225181 -0.0013296613 -2.1553266e-20)
(0.62393969 0.018071607 -7.7444733e-20)
(0.72890787 0.039750111 -3.2367185e-20)
(0.82501054 0.062048376 8.898769e-20)
(0.91061147 0.083575557 1.0604193e-20)
(0.98466065 0.10323955 -2.7713916e-20)
(1.0467189 0.12025225 1.4876861e-20)
(1.096931 0.13412721 -4.9672328e-21)
(1.1359504 0.14465985 0)
(1.1648256 0.15188843 3.0383078e-20)
(1.184867 0.15604138 -8.801393e-20)
(1.1975115 0.15747811 -3.4869406e-20)
(1.2042011 0.15663365 8.9019722e-20)
(1.206291 0.153981 -5.4418958e-21)
(1.2049753 0.14995098 3.6867211e-21)
(1.2011423 0.14463301 3.0077919e-20)
(0.06662771 -0.0079820405 -3.2840159e-20)
(0.19729665 -0.017819756 -8.6733476e-20)
(0.32900383 -0.011288357 1.1971441e-22)
(0.45836369 0.0051667407 7.6788039e-20)
(0.58230196 0.027270847 6.8326993e-20)
(0.69816016 0.052533243 -7.7042787e-20)
(0.80363952 0.078798889 1.1109339e-21)
(0.89697184 0.10420116 9.680842e-20)
(0.97705552 0.12729436 5.4583316e-20)
(1.0435007 0.14707123 -6.1013157e-20)
(1.0965973 0.16294013 -1.0320409e-19)
(1.1372192 0.17468572 -3.5160688e-21)
(1.1666811 0.18240844 4.669368e-20)
(1.1865724 0.18644694 -7.1109202e-21)
(1.1985925 0.18729468 -1.3726396e-20)
(1.2044082 0.18552087 2.0859499e-20)
(1.2055459 0.18170622 4.7775344e-20)
(1.2033261 0.17640236 -4.7202217e-20)
(1.1988317 0.17007061 -1.1092613e-19)
(1.1928518 0.16289222 2.7218345e-20)
(0.080106819 -0.004050138 -3.7105955e-20)
(0.23153435 -0.0055377974 -1.7838736e-19)
(0.37841796 0.0097080129 9.0790255e-20)
(0.51805258 0.034333969 1.0113892e-19)
(0.64777825 0.063444515 6.2659007e-20)
(0.76528545 0.094148947 9.5560669e-21)
(0.86875328 0.12406396 -1.1669093e-19)
(0.95704659 0.15127431 0)
(1.0298185 0.17445454 -7.7188417e-20)
(1.0874956 0.1928513 -1.7056839e-20)
(1.1311713 0.20621281 6.0446205e-20)
(1.1624357 0.21469776 1.1979752e-20)
(1.1831761 0.21876698 -4.9845245e-20)
(1.195379 0.21906891 -5.3221553e-20)
(1.2009625 0.21633406 2.6743778e-20)
(1.2016535 0.21128899 4.9070756e-20)
(1.1989153 0.20459683 -6.043179e-20)
(1.1939243 0.19682627 -1.1597255e-19)
(1.1875822 0.18841811 -2.9464292e-21)
(1.1805208 0.17959394 2.8939056e-20)
(0.093533651 0.0018104214 -4.6661385e-21)
(0.26474598 0.011476375 9.2885692e-20)
(0.42507547 0.037035661 -1.1494726e-20)
(0.57276006 0.070448696 -9.37307e-20)
(0.70580825 0.10637791 4.9431086e-20)
(0.82252046 0.14169938 5.1974964e-20)
(0.92180909 0.17399748 6.1182034e-21)
(1.0033899 0.20151949 -1.0918447e-19)
(1.0678208 0.22326023 -2.7593216e-21)
(1.1164092 0.23888622 5.5569162e-20)
(1.1510261 0.24860131 6.5382016e-21)
(1.1738755 0.2529972 -2.1739754e-20)
(1.1872622 0.25290082 -8.2294187e-20)
(1.1933935 0.24923469 -6.5586644e-21)
(1.1942363 0.24290515 4.6881529e-20)
(1.1914363 0.2347256 3.972259e-20)
(1.1862934 0.22537505 2.0887481e-20)
(1.1797831 0.21538541 -5.7714442e-20)
(1.1726065 0.20514179 1.2789674e-20)
(1.1652285 0.1948798 8.7752765e-20)
(-0.0013889544 0.0014909427 -3.4958964e-22)
(-0.0047934986 0.0032002697 1.5401441e-21)
(-0.010841806 0.004030174 3.5109549e-21)
(-0.017506271 0.0042787204 1.2892966e-21)
(-0.023911854 0.0041271568 -4.0169995e-21)
(-0.029633052 0.0036996567 4.1432841e-21)
(-0.034392299 0.0030863694 -1.103596e-20)
(-0.038020494 0.0023515901 -9.467501e-21)
(-0.040433039 0.0015405248 1.6197534e-20)
(-0.041599615 0.00068476501 -1.3657315e-20)
(-0.041523403 -0.00019387619 -2.1239958e-22)
(-0.04022823 -0.0010806171 5.0281181e-21)
(-0.037749915 -0.0019656437 -7.5844475e-22)
(-0.034130373 -0.0028424962 2.9611233e-20)
(-0.029413983 -0.0037066372 2.1704625e-22)
(-0.023647144 -0.0045539302 -5.1939599e-20)
(-0.016880901 -0.0053799501 9.7731063e-21)
(-0.0091626373 -0.0061827067 2.9498451e-20)
(-0.00050701643 -0.0069607746 -5.3817071e-20)
(0.0090166472 -0.0076628313 -3.3738341e-20)
(-0.0017473193 0.0043311561 -6.2777784e-21)
(-0.0053865916 0.0092690725 7.6658026e-21)
(-0.011112955 0.011646537 -1.1083608e-20)
(-0.017087777 0.012328197 8.8767256e-21)
(-0.022544121 0.011842115 1.0219624e-20)
(-0.027111567 0.010552252 1.2891426e-21)
(-0.030551167 0.0087229621 -3.666595e-20)
(-0.032721735 0.0065427494 -2.8332206e-21)
(-0.0335574 0.0041441866 2.8682065e-20)
(-0.033040062 0.0016199327 -6.9928651e-21)
(-0.03118073 -0.00096603839 -2.9555904e-20)
(-0.028008029 -0.0035703839 6.4982323e-21)
(-0.0235605 -0.0061643544 2.8933455e-20)
(-0.017881237 -0.0087290656 1.3270423e-20)
(-0.011014149 -0.011251309 2.8271388e-20)
(-0.0030045187 -0.013719279 -2.4856847e-20)
(0.0060908121 -0.016120514 -2.6733742e-20)
(0.016211155 -0.018448523 2.6738156e-20)
(0.027414204 -0.020688358 3.2347698e-20)
(0.039899224 -0.022665013 1.8330041e-20)
(-0.0023881195 0.0067522766 -5.1108449e-21)
(-0.0063962071 0.014365824 -3.3498047e-21)
(-0.011426005 0.017976519 -4.1789655e-22)
(-0.01600177 0.018924277 -2.4003925e-21)
(-0.019562667 0.018033704 9.1653843e-21)
(-0.021844586 0.015880839 1.4167244e-20)
(-0.022683608 0.012885076 -5.6889018e-21)
(-0.021992893 0.0093457348 -2.6050299e-20)
(-0.01974346 0.0054737628 9.0558171e-21)
(-0.015941863 0.0014169125 1.7472517e-20)
(-0.0106156 -0.0027226134 8.2536026e-21)
(-0.0038043003 -0.0068754748 2.3186141e-20)
(0.0044461512 -0.010995732 2.2275429e-21)
(0.014087811 -0.01505352 -4.234377e-20)
(0.02507439 -0.019028209 2.211589e-21)
(0.037359597 -0.02290184 -2.6101345e-20)
(0.050874164 -0.026657607 -3.113904e-20)
(0.06552833 -0.030287093 5.6984015e-20)
(0.081497123 -0.03373627 3.1606751e-20)
(0.099496422 -0.036629455 1.1681448e-21)
(-0.003178546 0.0085277616 -6.6109355e-21)
(-0.0075226599 0.017959361 -1.6442309e-20)
(-0.01141266 0.022313368 4.7173299e-21)
(-0.013866394 0.02326832 5.6998523e-21)
(-0.014605867 0.021868347 2.3171934e-21)
(-0.013515979 0.018858527 1.125169e-20)
(-0.01053967 0.014783318 1.3480163e-20)
(-0.0056687755 0.010031699 -2.1014957e-21)
(0.0010707182 0.0048786475 -1.5572911e-20)
(0.0096338024 -0.00048260316 -3.8643538e-20)
(0.01996537 -0.0059180105 3.5576887e-22)
(0.032004958 -0.01133643 5.2188711e-20)
(0.045690571 -0.016677691 -2.2493087e-20)
(0.060960197 -0.021902849 -1.5399271e-20)
(0.077755671 -0.02698603 -1.8579945e-22)
(0.096021116 -0.031906833 4.012744e-20)
(0.11566692 -0.036651368 -1.9591022e-20)
(0.13655472 -0.041219665 -6.4113074e-20)
(0.15897596 -0.045496337 5.3773189e-20)
(0.18436804 -0.048788192 3.9353353e-20)
(-0.0039426231 0.0095080685 -2.5294224e-23)
(-0.0083597388 0.019685179 -1.4719195e-20)
(-0.010561007 0.024161067 -4.6492544e-20)
(-0.010136822 0.024793398 -9.4757651e-21)
(-0.007142372 0.022753554 -2.8740342e-21)
(-0.0016431734 0.018902602 8.9656803e-21)
(0.006285292 0.0138725 -7.001996e-21)
(0.016551109 0.008114848 -1.2211528e-20)
(0.029055535 0.0019498279 2.868137e-20)
(0.043699453 -0.0043969105 6.1897483e-21)
(0.060386201 -0.010768209 -3.3413293e-20)
(0.079020761 -0.017056824 1.3550168e-20)
(0.099509848 -0.023191842 0)
(0.12176205 -0.029128399 1.4952922e-20)
(0.14569058 -0.034838775 -1.1897677e-20)
(0.17121276 -0.040305006 -1.7891274e-20)
(0.19820435 -0.045525988 3.4732028e-23)
(0.22645642 -0.050531135 -3.372539e-21)
(0.25633115 -0.055145776 5.2198256e-20)
(0.29011563 -0.058227538 -1.4698686e-20)
(-0.0044818626 0.0096301853 -8.3219589e-21)
(-0.0084327265 0.019372187 3.0550427e-20)
(-0.0082508637 0.023276463 -1.4468728e-20)
(-0.0041286746 0.023219878 -3.4898267e-20)
(0.0035213212 0.020404961 -3.3074405e-20)
(0.014432848 0.015751555 -1.9292388e-20)
(0.028378891 0.0099369949 -1.3112583e-21)
(0.045149201 0.0034441475 7.266001e-21)
(0.064555512 -0.0033836699 2.4772726e-20)
(0.086427849 -0.010303473 9.2701988e-21)
(0.11060824 -0.017145836 -8.7996796e-21)
(0.13694705 -0.023795094 -1.8545325e-21)
(0.16529871 -0.030175269 -4.7284777e-20)
(0.19551882 -0.036239857 -1.5546691e-20)
(0.2274655 -0.041963436 2.3990368e-20)
(0.26100099 -0.047335856 -2.621936e-20)
(0.29594324 -0.05237882 -1.0817746e-20)
(0.33199027 -0.057178612 3.4752686e-20)
(0.3695014 -0.061539396 5.7746309e-20)
(0.41163852 -0.063772551 4.1599048e-21)
(-0.0045931405 0.0089119887 1.8362799e-20)
(-0.0072347493 0.017041565 1.5966298e-20)
(-0.003792123 0.019681336 6.1068873e-20)
(0.0049492283 0.018582827 2.9393925e-20)
(0.018217035 0.014888219 2.3615847e-22)
(0.035534164 0.0095189071 -5.0089151e-20)
(0.05650908 0.0031543585 -3.0160179e-20)
(0.080799119 -0.0037233327 1.3066587e-20)
(0.10810642 -0.0107721 1.7890254e-20)
(0.13816741 -0.017749972 -1.5777731e-20)
(0.17073968 -0.024488897 -5.4730897e-20)
(0.20559194 -0.030875608 3.6700647e-20)
(0.24249619 -0.036837801 2.3920045e-20)
(0.28122194 -0.042334757 -3.3530187e-20)
(0.32153597 -0.04735039 1.4454113e-20)
(0.36320679 -0.051889863 2.8909178e-20)
(0.40596174 -0.056007535 9.9734882e-21)
(0.44938436 -0.05987533 -1.5123651e-20)
(0.49375045 -0.063352582 -1.5197964e-20)
(0.54300501 -0.064199146 1.0505115e-20)
(-0.0040804814 0.0074367859 1.2737258e-20)
(-0.0042559348 0.012883178 -2.9085593e-20)
(0.0035372068 0.013644804 8.2300234e-21)
(0.017952697 0.011225022 4.0877449e-20)
(0.037870372 0.0066226769 6.1813728e-20)
(0.062599899 0.0007074568 2.4619509e-20)
(0.091575183 -0.0058803756 -7.0614614e-21)
(0.12430187 -0.012693767 -1.4943871e-20)
(0.16035096 -0.019417769 -7.7423787e-21)
(0.19933838 -0.025832229 4.1933543e-20)
(0.24090461 -0.031787952 -6.0447696e-21)
(0.28469988 -0.037189073 -2.0684745e-20)
(0.33037328 -0.041980493 -2.3532346e-20)
(0.37756543 -0.046139966 -5.7572875e-20)
(0.425908 -0.049673112 2.7666419e-20)
(0.47503255 -0.052612858 -1.6789378e-20)
(0.52454241 -0.055059963 3.1379232e-20)
(0.57390056 -0.057304478 2.5294532e-20)
(0.62324707 -0.059375322 -9.6313067e-20)
(0.67711409 -0.058644835 1.0768624e-21)
(-0.0027625329 0.0053363352 2.4396284e-20)
(0.000988838 0.0072269714 -3.1143905e-20)
(0.014441124 0.0056590416 -5.1749641e-20)
(0.035728373 0.0017834782 -3.2057082e-20)
(0.06340237 -0.0036170352 -2.4404044e-21)
(0.09655574 -0.0097749315 1.5868872e-20)
(0.13443484 -0.016130121 -3.4391822e-21)
(0.17637437 -0.022304098 2.1687068e-20)
(0.22178545 -0.028037914 1.0577021e-20)
(0.2701278 -0.033158183 -1.3703501e-20)
(0.32088378 -0.037556941 1.1162948e-20)
(0.37354048 -0.041176356 -2.8927664e-20)
(0.42757786 -0.043997615 1.0562621e-20)
(0.48246182 -0.046033889 2.0300444e-20)
(0.53764466 -0.047326013 -3.7057759e-21)
(0.5925766 -0.047943626 2.3591202e-21)
(0.64669385 -0.048036033 -1.0615276e-21)
(0.69932874 -0.04799521 2.3849688e-20)
(0.75047016 -0.048032807 3.8856507e-21)
(0.80500941 -0.045612935 -5.0937346e-21)
(-0.00047296532 0.0027777071 2.7025897e-20)
(0.0089399924 0.00052451545 6.6838037e-20)
(0.029549535 -0.0035676518 -5.5801265e-20)
(0.059012231 -0.0087964647 -1.1590447e-20)
(0.095569492 -0.014667674 2.3843541e-20)
(0.13809431 -0.020564472 2.5072571e-21)
(0.1856303 -0.026048896 -3.5010949e-20)
(0.23731478 -0.030849219 8.2829484e-21)
(0.29236356 -0.03479719 8.3877876e-21)
(0.35003905 -0.037798619 -3.130433e-20)
(0.40962265 -0.03981772 1.5325289e-21)
(0.47039873 -0.040864133 -4.478209e-20)
(0.53164712 -0.040982173 -4.3847821e-20)
(0.59264227 -0.040242209 7.9320267e-20)
(0.65265827 -0.038733103 6.7025436e-21)
(0.71097784 -0.03656064 -1.8187167e-20)
(0.76688034 -0.033885452 2.3018893e-20)
(0.81957327 -0.031005406 -1.0590025e-21)
(0.8686318 -0.027953598 2.2121069e-20)
(0.91763833 -0.023279704 -2.482928e-20)
(0.020338128 -0.0079587315 7.0776953e-20)
(0.03357492 -0.0084484585 1.812497e-20)
(0.048299554 -0.0088283329 -4.0461279e-20)
(0.064144571 -0.0090212979 1.9851839e-20)
(0.080807525 -0.0091158733 0)
(0.098206339 -0.0091447516 0)
(0.11626815 -0.0091113931 -2.5529579e-20)
(0.13489792 -0.0090242102 -1.7949699e-20)
(0.15400846 -0.008893948 2.1145098e-20)
(0.17352522 -0.0087286398 1.9662701e-20)
(0.19337986 -0.008534404 1.0153577e-21)
(0.21350811 -0.0083166332 -1.0614988e-20)
(0.23385011 -0.0080800742 9.0608244e-21)
(0.25435021 -0.0078287769 1.82973e-20)
(0.27495647 -0.0075662123 -5.7628897e-21)
(0.29562015 -0.0072953919 -9.8845208e-21)
(0.3162956 -0.0070189377 -4.1243165e-21)
(0.33694001 -0.0067391356 -3.9593477e-21)
(0.35751334 -0.006457984 6.1082924e-22)
(0.37797818 -0.0061772338 1.176359e-21)
(0.39829975 -0.0058984192 2.6023591e-21)
(0.41844583 -0.0056228818 6.1196797e-21)
(0.43838676 -0.0053517904 -7.813325e-23)
(0.45809544 -0.0050861559 -3.1264653e-21)
(0.47754731 -0.0048268442 7.4080839e-23)
(0.49672033 -0.0045745869 -5.0754976e-22)
(0.51559493 -0.0043299904 1.0770662e-21)
(0.534154 -0.004093545 7.9537958e-22)
(0.55238283 -0.0038656332 -1.2725316e-21)
(0.57026899 -0.003646538 -5.3886481e-23)
(0.5878023 -0.0034364513 -2.0693826e-22)
(0.60497468 -0.0032354823 -2.8069488e-22)
(0.62178009 -0.0030436661 -4.1817144e-22)
(0.63821437 -0.0028609725 1.6373704e-22)
(0.65427516 -0.0026873147 -1.04022e-22)
(0.66996178 -0.002522558 -1.4082448e-22)
(0.68527508 -0.0023665285 1.5680817e-22)
(0.70021746 -0.0022190218 1.6603921e-22)
(0.7147926 -0.0020798142 -8.3470398e-23)
(0.72900594 -0.001948667 -1.7882022e-22)
(0.74286327 -0.0018253571 -1.476021e-23)
(0.75637526 -0.0017096339 7.740835e-24)
(0.76954418 -0.0016014326 5.1344572e-23)
(0.78240601 -0.0015003086 -9.6766261e-23)
(0.79490654 -0.001407406 -1.7202562e-22)
(0.80727429 -0.0013196595 3.332127e-23)
(0.81893838 -0.001248457 1.9535463e-23)
(0.83168491 -0.0011638636 -8.2744314e-24)
(0.84063056 -0.0011661228 1.8453811e-23)
(0.85944813 -0.0010026021 3.8925657e-22)
(0.052384772 -0.023415661 -1.6535632e-20)
(0.064455885 -0.02490398 -7.4355766e-20)
(0.078507343 -0.026021909 -3.6841425e-20)
(0.09365712 -0.02657017 4.4915594e-20)
(0.10947598 -0.026840655 1.6926714e-20)
(0.12596587 -0.026928291 -2.1489049e-20)
(0.14308983 -0.026835393 6.2542334e-21)
(0.16075622 -0.026585117 2.7841117e-20)
(0.17888541 -0.026209392 -7.4410111e-22)
(0.19741313 -0.025731345 -8.6086222e-21)
(0.21627877 -0.025168314 -1.2667751e-20)
(0.23542377 -0.024535791 -9.5753054e-21)
(0.25479309 -0.023847525 1.8230806e-20)
(0.27433513 -0.023115255 1.0937122e-20)
(0.29400118 -0.022349074 -1.5597927e-20)
(0.3137451 -0.021557773 -5.9393353e-21)
(0.33352328 -0.02074904 2.8823448e-21)
(0.35329455 -0.019929605 7.629603e-21)
(0.37302012 -0.019105373 6.8166716e-21)
(0.39266355 -0.018281535 -7.2561062e-21)
(0.41219074 -0.017462659 -3.7900716e-21)
(0.43156996 -0.01665275 1.9813757e-21)
(0.45077187 -0.015855308 1.2103156e-21)
(0.46976951 -0.015073373 1.3067541e-21)
(0.48853834 -0.014309554 3.4672748e-22)
(0.50705619 -0.013566064 -4.6512158e-22)
(0.52530332 -0.012844745 -7.9300371e-22)
(0.54326229 -0.012147094 1.262028e-21)
(0.560918 -0.011474286 9.560501e-22)
(0.57825757 -0.0108272 -5.1157708e-22)
(0.59527028 -0.010206443 6.7870867e-22)
(0.61194748 -0.0096123739 -1.9113058e-22)
(0.62828248 -0.0090451313 -4.9339136e-22)
(0.64427045 -0.0085046566 -6.4050712e-22)
(0.65990832 -0.0079907216 3.3399708e-22)
(0.67519465 -0.007502954 -3.0412546e-22)
(0.69012955 -0.0070408636 3.3947123e-22)
(0.70471463 -0.0066038682 -5.1062889e-22)
(0.71895279 -0.006191326 5.960619e-22)
(0.73284866 -0.0058025494 4.5654427e-23)
(0.74640725 -0.0054368972 3.3860117e-23)
(0.7596384 -0.0050936428 2.8857083e-22)
(0.77254367 -0.0047726173 3.9267962e-22)
(0.78515802 -0.0044725067 3.1285103e-22)
(0.79742708 -0.004196764 3.5985603e-22)
(0.80957648 -0.0039362115 1.6738038e-24)
(0.82104068 -0.0037249543 1.8375299e-22)
(0.83358523 -0.0034734529 1.5582402e-22)
(0.84238353 -0.0034809922 -2.1300569e-22)
(0.86093403 -0.0029943968 4.9176701e-23)
(0.114076 -0.037490358 1.202444e-20)
(0.12388817 -0.039990482 5.0461099e-21)
(0.13652834 -0.041800551 -1.7215766e-20)
(0.15028915 -0.042641813 -2.5211708e-21)
(0.1644398 -0.043067813 1.8387083e-20)
(0.17914225 -0.043228764 -1.70581e-20)
(0.19443716 -0.043106771 -3.4760901e-20)
(0.21023613 -0.042733805 1.7160784e-20)
(0.22647081 -0.042161909 2.0973145e-20)
(0.24309574 -0.041427022 -1.3161841e-20)
(0.26006428 -0.040555138 1.097696e-21)
(0.27732777 -0.039570047 7.8513403e-21)
(0.29483943 -0.03849323 -1.6803645e-20)
(0.31255463 -0.037343121 5.6008168e-21)
(0.33043017 -0.036135645 8.3824326e-21)
(0.34842429 -0.034884789 -1.6716325e-21)
(0.36649682 -0.033602887 -7.8391261e-22)
(0.38460925 -0.032300816 -8.0917921e-21)
(0.40272485 -0.03098819 5.6096537e-21)
(0.4208087 -0.029673521 9.0414779e-21)
(0.4388278 -0.028364342 -4.0187049e-21)
(0.45675117 -0.027067302 -2.0817976e-21)
(0.47454989 -0.025788245 6.1666818e-22)
(0.49219715 -0.024532268 -1.8954197e-21)
(0.50966835 -0.023303777 1.2169823e-21)
(0.52694107 -0.022106532 6.3867377e-22)
(0.54399509 -0.020943682 2.3633182e-21)
(0.56081239 -0.01981781 -2.6246651e-21)
(0.5773771 -0.018730971 2.9593972e-21)
(0.59367547 -0.017684725 6.7038567e-22)
(0.60969578 -0.016680184 1.0501636e-21)
(0.6254283 -0.015718049 2.5861411e-22)
(0.64086516 -0.01479865 1.3108137e-21)
(0.65600027 -0.013921993 -1.940144e-21)
(0.67082925 -0.013087796 5.6202541e-22)
(0.68534931 -0.012295539 4.4976918e-22)
(0.69955913 -0.011544501 -1.4977513e-22)
(0.71345891 -0.010833806 -1.3290284e-22)
(0.72705009 -0.010162476 -4.5756538e-22)
(0.74033583 -0.0095294521 3.04873e-22)
(0.75331967 -0.0089337515 -1.8536941e-23)
(0.76600998 -0.0083742411 8.5033068e-22)
(0.77840692 -0.0078507155 -3.8384579e-22)
(0.79054363 -0.0073610498 1.5737325e-23)
(0.8023654 -0.0069110477 1.3721265e-22)
(0.81409249 -0.0064855086 -1.3100385e-22)
(0.82516943 -0.0061409618 -2.2242495e-22)
(0.83732248 -0.0057293807 7.4805809e-22)
(0.84583454 -0.0057439353 1.8978576e-22)
(0.86386626 -0.0049465331 -8.8435045e-22)
(0.20155309 -0.049295838 2.4942252e-21)
(0.20811291 -0.052798888 -1.2330839e-20)
(0.21851822 -0.055231542 6.4838426e-21)
(0.23018373 -0.056298067 -1.5677744e-20)
(0.24187922 -0.056872157 -2.3023245e-21)
(0.25396821 -0.057144694 1.1713768e-20)
(0.26661792 -0.057055223 -1.3357608e-20)
(0.27974139 -0.056635458 1.7245441e-22)
(0.29327852 -0.055954399 1.4361037e-20)
(0.30720777 -0.055057801 4.7279458e-21)
(0.32150066 -0.053977066 -6.7319431e-21)
(0.33612014 -0.052741599 -3.9816229e-21)
(0.35102899 -0.051378724 -4.8947788e-21)
(0.36619068 -0.049912221 -7.4910006e-21)
(0.38156839 -0.048362825 1.8114601e-21)
(0.39712523 -0.04674896 -9.1209347e-22)
(0.4128248 -0.045087073 2.0048113e-21)
(0.4286315 -0.043391844 -3.3738217e-21)
(0.44451072 -0.041676384 -5.3012951e-21)
(0.46042908 -0.039952413 2.8583727e-21)
(0.47635462 -0.038230393 4.1291539e-21)
(0.49225695 -0.036519635 -2.4224951e-21)
(0.50810743 -0.034828384 1.8923411e-21)
(0.52387924 -0.033163886 -7.6679767e-22)
(0.53954745 -0.031532451 -5.1151311e-21)
(0.55508912 -0.029939502 -3.1141632e-21)
(0.57048332 -0.02838963 -5.1452102e-22)
(0.58571108 -0.026886641 6.1600606e-23)
(0.60075547 -0.025433606 -2.1901065e-21)
(0.6156015 -0.024032912 -1.5226539e-21)
(0.6302361 -0.022686318 1.8840617e-22)
(0.64464803 -0.021395008 -1.703057e-21)
(0.65882784 -0.020159647 -2.1194115e-22)
(0.67276778 -0.018980443 -6.9237497e-22)
(0.68646171 -0.017857199 -3.6685742e-22)
(0.69990502 -0.01678938 -1.0522213e-21)
(0.71309454 -0.015776166 -1.5113254e-21)
(0.72602855 -0.014816515 7.8557864e-23)
(0.73870659 -0.013909233 -2.5649831e-24)
(0.75112985 -0.013053012 -8.1762254e-22)
(0.76329995 -0.012246635 1.4280237e-22)
(0.77522324 -0.011488673 -6.1003724e-22)
(0.78689809 -0.010778978 -1.0042836e-21)
(0.79835512 -0.010114715 7.2943815e-22)
(0.8095393 -0.0095040666 1.070184e-23)
(0.82066327 -0.0089260299 3.6719821e-22)
(0.83118619 -0.0084588566 -2.6781823e-22)
(0.84277772 -0.0078984316 -5.0075909e-22)
(0.85087916 -0.0079220579 3.6110781e-23)
(0.86816337 -0.0068343802 5.2703584e-22)
(0.30985309 -0.057951902 -2.7363943e-20)
(0.31224063 -0.062450337 5.5081035e-20)
(0.31949849 -0.065429447 1.1564786e-20)
(0.32832086 -0.066683953 -1.8685499e-20)
(0.33682263 -0.067440671 -3.52781e-21)
(0.34554752 -0.067902098 1.8189532e-21)
(0.35483323 -0.067948963 -3.0523407e-21)
(0.3645976 -0.0676033 -5.2736733e-21)
(0.37477812 -0.066943517 -4.4955044e-21)
(0.38537549 -0.066021306 -1.3533408e-20)
(0.39638068 -0.064870921 2.1140309e-20)
(0.40776767 -0.063524687 8.0938031e-21)
(0.41950728 -0.062013555 -1.7940644e-20)
(0.43156995 -0.060365227 9.1750418e-21)
(0.44392432 -0.058604315 7.0097729e-21)
(0.45653752 -0.05675301 7.3739208e-22)
(0.46937607 -0.054831438 -2.0917303e-21)
(0.48240644 -0.05285784 -5.292846e-21)
(0.49559548 -0.05084873 -2.0641923e-21)
(0.50891068 -0.048819039 -1.8184131e-21)
(0.52232052 -0.046782233 -4.1374396e-21)
(0.5357947 -0.04475041 0)
(0.54930434 -0.042734373 -1.8297587e-21)
(0.56282213 -0.040743694 4.1156135e-21)
(0.57632243 -0.038786776 6.332936e-21)
(0.58978139 -0.036870909 -8.3448069e-22)
(0.60317695 -0.035002321 -4.1125289e-21)
(0.61648892 -0.033186243 4.442821e-21)
(0.62969896 -0.031426959 -4.3592461e-22)
(0.64279053 -0.029727878 4.5418362e-21)
(0.65574891 -0.028091595 -4.4507145e-22)
(0.66856109 -0.026519965 1.9868832e-21)
(0.68121579 -0.025014168 -1.1477736e-21)
(0.69370329 -0.02357479 6.869184e-22)
(0.70601544 -0.022201893 -7.7216511e-22)
(0.71814557 -0.02089509 6.3177011e-22)
(0.7300884 -0.019653623 7.1431757e-22)
(0.74184004 -0.018476436 6.0336016e-22)
(0.75339785 -0.017362273 -1.4495704e-21)
(0.76476083 -0.016309712 1.0417701e-21)
(0.7759284 -0.015317444 -5.2440493e-22)
(0.78690464 -0.014383868 -1.9254235e-21)
(0.79768587 -0.01350901 2.4538862e-21)
(0.8082998 -0.012689442 -3.8113475e-23)
(0.81869122 -0.011935741 -2.8164816e-22)
(0.82906331 -0.011221424 -4.9401202e-24)
(0.83889407 -0.0106454 -3.3850416e-22)
(0.84978125 -0.009950972 -8.4776408e-22)
(0.85736796 -0.0099858762 5.8452136e-22)
(0.87370818 -0.0086354251 -6.1805415e-23)
(0.43325482 -0.062477155 -2.3040305e-20)
(0.43064517 -0.068032693 1.4142275e-20)
(0.43380492 -0.071535304 5.6975876e-21)
(0.43900483 -0.07303454 -9.1565438e-21)
(0.44365683 -0.074091146 1.4162686e-20)
(0.44838671 -0.074876517 9.0922925e-21)
(0.4537195 -0.075215746 -1.3408375e-20)
(0.4595954 -0.075118756 -6.9112961e-21)
(0.46593579 -0.074660803 1.4296175e-20)
(0.4727513 -0.073892874 -1.916556e-20)
(0.48004914 -0.072850549 -1.543212e-20)
(0.48781219 -0.071567564 1.771896e-20)
(0.49601582 -0.070076688 7.4299554e-21)
(0.50463415 -0.068408379 -7.3049183e-21)
(0.51363881 -0.066590573 -2.7426529e-22)
(0.52299893 -0.064648963 -2.6341199e-21)
(0.53268219 -0.062607258 3.8019943e-21)
(0.54265564 -0.060487314 3.7274673e-21)
(0.55288623 -0.058309208 -2.887048e-21)
(0.56334122 -0.056091318 3.0922146e-21)
(0.57398855 -0.05385039 3.3644614e-21)
(0.58479716 -0.051601607 -3.7343993e-21)
(0.59573718 -0.049358636 3.5960945e-22)
(0.60678015 -0.047133688 -3.0402853e-21)
(0.61789917 -0.044937561 1.0096845e-20)
(0.62906895 -0.042779703 7.4157989e-21)
(0.64026592 -0.040668266 1.5466017e-21)
(0.65146827 -0.038610169 -1.9902027e-21)
(0.66265591 -0.036611172 5.4968836e-21)
(0.67381051 -0.034675948 9.9460861e-21)
(0.68491546 -0.032808162 2.5990697e-21)
(0.69595581 -0.031010559 4.5498212e-21)
(0.70691824 -0.029285046 2.4525955e-21)
(0.71779096 -0.027632789 1.0865108e-21)
(0.72856372 -0.026054295 -2.0695331e-22)
(0.73922766 -0.024549513 3.8724719e-21)
(0.74977533 -0.023117919 8.5529489e-22)
(0.76020063 -0.021758611 3.6897665e-22)
(0.77049868 -0.020470426 5.8231501e-23)
(0.78066622 -0.019251984 1.6707377e-21)
(0.79070045 -0.018102021 3.2049902e-23)
(0.80060311 -0.0170189 8.4991234e-22)
(0.81036847 -0.016002937 -1.2479746e-22)
(0.82002113 -0.015050243 -6.4548835e-22)
(0.82950598 -0.014173775 -2.9342742e-22)
(0.83901536 -0.013341958 -7.9016219e-22)
(0.84804982 -0.012673015 3.81027e-22)
(0.85812237 -0.011861985 -2.2582452e-22)
(0.86511468 -0.011910419 -3.3742639e-22)
(0.88035315 -0.010329875 3.5118403e-22)
(0.56527485 -0.061978604 3.0178368e-21)
(0.5571008 -0.068675712 -2.0155346e-20)
(0.5552983 -0.07274692 -3.1678143e-21)
(0.55615124 -0.074707447 6.1561906e-21)
(0.55647585 -0.076316625 4.7167662e-21)
(0.5567955 -0.07764688 1.9607535e-21)
(0.55778241 -0.078495272 9.2725412e-21)
(0.5594386 -0.078873931 9.270111e-21)
(0.56166826 -0.078845362 1.0637547e-20)
(0.56447015 -0.078451401 -1.3148178e-20)
(0.56785709 -0.077727086 -2.5786496e-20)
(0.57181767 -0.076707504 -5.7216943e-21)
(0.57632824 -0.075426827 1.8651137e-20)
(0.58136249 -0.073917923 1.4661633e-20)
(0.58689185 -0.072212127 -5.4069957e-21)
(0.59288507 -0.070338978 -1.0557584e-22)
(0.59930901 -0.068326194 -5.3077995e-21)
(0.60612964 -0.066199707 4.8926291e-21)
(0.61331264 -0.063983658 -2.9792475e-22)
(0.62082385 -0.061700369 -2.1875455e-21)
(0.62862965 -0.059370364 9.9244916e-21)
(0.63669732 -0.057012383 -9.0857444e-22)
(0.64499525 -0.054643418 9.8993967e-22)
(0.65349319 -0.052278741 -4.8820351e-23)
(0.66216235 -0.04993195 -4.9526823e-21)
(0.67097554 -0.047615024 4.8145696e-21)
(0.67990725 -0.045338386 1.7173963e-21)
(0.68893366 -0.043110973 -3.7278421e-21)
(0.69803268 -0.040940318 -4.0079079e-21)