/*--------------------------------*- C++ -*----------------------------------*\
  =========                 |
  \\      /  F ield         | OpenFOAM: The Open Source CFD Toolbox
   \\    /   O peration     | Website:  https://openfoam.org
    \\  /    A nd           | Version:  6
     \\/     M anipulation  |
\*---------------------------------------------------------------------------*/
FoamFile
{
    version     2.0;
    format      ascii;
    class       surfaceScalarField;
    location    "32";
    object      phi_0;
}
// * * * * * * * * * * * * * * * * * * * * * * * * * * * * * * * * * * * * * //

dimensions      [0 3 -1 0 0 0 0];

internalField   nonuniform List<scalar> 
18180
(
0.00032349848
-0.00017225008
-0.0001512484
0.0013282963
-0.0014045417
0.00039974389
0.0030763882
-0.0034102446
0.0016621527
0.0056283565
-0.0061015994
0.0035496311
0.0090430056
-0.0094234649
0.0060088158
0.013375256
-0.013332038
0.0089997875
0.018673359
-0.017789352
0.012491249
0.024975801
-0.022760486
0.016458044
0.032308034
-0.028210383
0.020878151
0.040679303
-0.034101191
0.025729921
0.050079903
-0.040390501
0.030989901
0.060479244
-0.047030458
0.036631118
0.07182514
-0.053967724
0.042621828
0.084044793
-0.061144331
0.048924678
0.097048063
-0.06849951
0.05549624
0.11073354
-0.075972578
0.062287096
0.12499689
-0.083506735
0.069243395
0.1397462
-0.091053442
0.076304132
0.15497514
-0.098594115
0.083365174
-0.10612597
0.090224622
0.17087649
0.00040290922
-0.0005751593
0.0016309946
-0.0026326271
0.0037375793
-0.0055168293
0.0067736707
-0.0091376907
0.010785961
-0.013435756
0.015813019
-0.018359095
0.021881132
-0.023857465
0.02900023
-0.029879584
0.037160162
-0.036370316
0.046327778
-0.043268806
0.056445231
-0.050507954
0.067429894
-0.058015121
0.079176114
-0.065713943
0.091558885
-0.073527103
0.10443922
-0.08137984
0.11767054
-0.089203903
0.13110522
-0.096941412
0.14460151
-0.10454973
0.15802268
-0.11201529
-0.11927001
0.17116672
0.00048664477
-0.0010618041
0.0019421308
-0.0040881131
0.0044046322
-0.0079793307
0.007908502
-0.012641561
0.012479844
-0.018007098
0.018130939
-0.024010191
0.02485504
-0.030581566
0.032622025
-0.037646569
0.041375369
-0.04512366
0.05103094
-0.052924378
0.06147799
-0.060955004
0.0725825
-0.069119632
0.084192744
-0.077324187
0.096146606
-0.085480965
0.10827989
-0.09351312
0.12043448
-0.1013585
0.13246523
-0.10897216
0.14424342
-0.11632792
0.15564927
-0.12342114
-0.13020429
0.16658354
0.00057272533
-0.0016345294
0.002252979
-0.0057683668
0.0050554662
-0.010781818
0.0089891661
-0.016575261
0.014049837
-0.023067769
0.020212991
-0.030173344
0.027428482
-0.037797057
0.035617191
-0.045835278
0.044670274
-0.054176743
0.054451326
-0.062705429
0.064801503
-0.071305181
0.075547222
-0.079865351
0.086509689
-0.088286654
0.097515228
-0.096486504
0.10840521
-0.10440311
0.11904446
-0.11199774
0.12932714
-0.11925485
0.13917928
-0.12618006
0.14855534
-0.1327972
-0.13910839
0.15745945
0.00065784622
-0.0022923756
0.0025503735
-0.0076608941
0.0056596459
-0.01389109
0.0099597981
-0.020875413
0.015406438
-0.028514409
0.021929024
-0.03669593
0.02942662
-0.045294652
0.037767212
-0.05417587
0.046790824
-0.063200355
0.056316268
-0.072230873
0.066150864
-0.081139777
0.076102005
-0.089816492
0.085989152
-0.098173802
0.09565478
-0.10615213
0.10497296
-0.11372129
0.11385475
-0.12087953
0.12225002
-0.12765011
0.13014588
-0.13407592
0.13756198
-0.1402133
-0.1461084
0.144562
0.00073781855
-0.0030301942
0.0028183447
-0.0097414202
0.0061819145
-0.01725466
0.010758825
-0.025452323
0.016456274
-0.034211858
0.023151519
-0.043391175
0.030690412
-0.052833545
0.038890864
-0.062376323
0.047550827
-0.071860317
0.056459756
-0.081139802
0.065412001
-0.090092023
0.074220249
-0.098624739
0.082727172
-0.10668072
0.090813838
-0.1142388
0.098403953
-0.1213114
0.10546382
-0.1279394
0.11199857
-0.13418486
0.11804571
-0.14012306
0.12366732
-0.14583491
-0.15139311
0.12895203
0.00080791589
-0.00383811
0.0030395254
-0.01197303
0.00658559
-0.020800725
0.01132547
-0.030192204
0.01711287
-0.039999258
0.023771438
-0.050049743
0.031097557
-0.060159663
0.038868826
-0.070147592
0.046856812
-0.079848303
0.054842012
-0.089125002
0.062628651
-0.097878662
0.070057023
-0.10605311
0.077011706
-0.11363541
0.083424731
-0.12065182
0.089273775
-0.12716045
0.094576188
-0.13324181
0.099380312
-0.13898898
0.10375576
-0.14449851
0.10778423
-0.14986338
-0.15516549
0.1115566
0.00086299882
-0.0047011089
0.0031960987
-0.01430613
0.0068353121
-0.024439938
0.011605275
-0.034962166
0.017305593
-0.045699576
0.023710482
-0.056454632
0.030576678
-0.067025859
0.037656762
-0.077227676
0.044715338
-0.08690688
0.051545133
-0.095954797
0.057980189
-0.10431372
0.063904137
-0.11197706
0.069252589
-0.11898386
0.074009853
-0.12540909
0.078201126
-0.13135172
0.081881935
-0.13692262
0.085126773
-0.14223382
0.088018674
-0.14739041
0.090641024
-0.15248573
-0.15759811
0.093073647
0.00089668941
-0.0055977983
0.0032698369
-0.016679277
0.0068992963
-0.028069397
0.011555243
-0.039618113
0.016987478
-0.051131811
0.022930212
-0.062397367
0.029114988
-0.073210635
0.035287539
-0.083400227
0.041225064
-0.092844405
0.046750517
-0.10148025
0.051741347
-0.10930455
0.056131563
-0.11636727
0.059907383
-0.12275968
0.06309792
-0.12859962
0.065763003
-0.13401681
0.067980395
-0.13914002
0.06983431
-0.14408774
0.071406587
-0.14896269
0.072771059
-0.15385021
-0.15881786
0.073990809
0.00090549124
-0.0065032895
0.0032516844
-0.01902547
0.0067630107
-0.031580724
0.011159294
-0.044014396
0.016149526
-0.056122044
0.021441703
-0.067689544
0.026759545
-0.078528476
0.031860583
-0.088501265
0.036551626
-0.097535448
0.040698404
-0.10562703
0.044227852
-0.112834
0.047123209
-0.11926263
0.049413567
-0.12505004
0.051160322
-0.13034638
0.052443068
-0.13529955
0.053347065
-0.14004401
0.053953693
-0.14469437
0.054334466
-0.14934346
0.054548361
-0.1540641
0.054640858
-0.15891036
-0.0002054014
0.00020540144
-2.2653971e-11
-0.00068747423
0.00048207289
-4.3652683e-11
-0.0013611044
0.00067363027
-5.4243486e-11
-0.0021611236
0.00080001925
-5.0782783e-11
-0.0030351244
0.00087400082
-3.4109252e-11
-0.0039402988
0.00090517446
-5.0264023e-12
-0.0048411531
0.00090085429
3.5558012e-11
-0.0057075965
0.00086644337
8.764408e-11
-0.0065134378
0.00080584115
1.5094321e-10
-0.0072352077
0.00072176974
2.257736e-10
-0.0078512186
0.0006160106
3.1253246e-10
-0.0083408089
0.00048959
4.1106706e-10
-0.0086837458
0.00034293633
5.2262101e-10
-0.0088597738
0.00017602745
6.4518755e-10
-0.0088483446
-1.1429946e-05
7.8074867e-10
-0.0086286326
-0.00021971282
9.2510131e-10
-0.0081797984
-0.00044883527
1.083616e-09
-0.0074805704
-0.00069922919
1.2441792e-09
-0.0065088122
-0.00097175954
1.4162821e-09
-0.0012526318
-0.0052561819
1.5921737e-09
-0.00019063534
0.00039603679
-0.00063346877
0.00092490634
-0.0012447756
0.0012849371
-0.0019594918
0.0015147354
-0.0027245659
0.0016390749
-0.0034959531
0.0016765617
-0.0042364205
0.0016413216
-0.0049136968
0.0015437198
-0.0054990033
0.0013911477
-0.0059658914
0.0011886579
-0.0062893054
0.00093942465
-0.0064448198
0.00064510435
-0.0064080155
0.00030613209
-0.006153982
-7.8006018e-05
-0.0056569746
-0.00050843726
-0.0048903221
-0.00098636526
-0.0038266331
-0.0015125242
-0.0024377185
-0.0020881438
-0.00069442238
-0.0027150556
-0.0033631059
0.0014160517
-0.00016089893
0.00055693572
-0.00052493957
0.001288947
-0.001011731
0.0017717286
-0.001556934
0.0020599385
-0.0021066304
0.0021887713
-0.0026146782
0.0021846095
-0.0030407265
0.00206737
-0.0033485124
0.0018515056
-0.0035044854
0.0015471207
-0.0034767069
0.0011608793
-0.0032339463
0.00069666408
-0.00274494
0.00015609809
-0.0019777415
-0.00046106636
-0.00089919488
-0.0011565526
0.00052550978
-0.0019331419
0.0023331374
-0.0027939928
0.0045623892
-0.003741776
0.0072535803
-0.0047793349
0.010448554
-0.0059100292
-0.007083244
0.014168692
-0.00011862307
0.0006755588
-0.00036981738
0.0015401413
-0.00067767085
0.0020795821
-0.00097887944
0.0023611471
-0.001218399
0.0024282908
-0.0013472786
0.0023134892
-0.0013209737
0.0020410652
-0.0010978618
0.0016283937
-0.00063802415
0.001087283
9.7726705e-05
0.00042512851
0.0011486473
-0.00035425649
0.0025547196
-0.0012499742
0.0043572025
-0.0022635492
0.0065991181
-0.0033984682
0.0093257647
-0.0046597884
0.012585283
-0.0060535109
0.016429045
-0.0075855384
0.02091136
-0.0092616491
0.026089246
-0.011087915
-0.012989548
0.03199555
-6.6945694e-05
0.0007425045
-0.00017833945
0.0016515351
-0.00026294666
0.0021641893
-0.00025845413
0.0023566546
-0.00010840463
0.0022782414
0.00023945768
0.0019656269
0.00083453288
0.00144599
0.0017245505
0.00073837608
0.0029565556
-0.00014472196
0.0045777001
-0.001196016
0.0066358089
-0.0024123652
0.0091797905
-0.0037939559
0.012259956
-0.0053437149
0.015928331
-0.0070668429
0.020238999
-0.0089704565
0.025248699
-0.011063211
0.031017693
-0.013354532
0.037610283
-0.015854239
0.045095607
-0.018573239
-0.021412093
0.053518152
-9.0121744e-06
0.00075151668
3.9054129e-05
0.0016034688
0.00021140661
0.0019918368
0.00056969911
0.0019983621
0.0011720589
0.0016758816
0.0020742455
0.0010634402
0.0033306194
0.00018961618
0.0049950269
-0.0009260314
0.0071214525
-0.0022711476
0.0097643809
-0.0038389443
0.012978994
-0.0056269779
0.016821247
-0.0076362098
0.021347764
-0.0098702312
0.026615616
-0.012334695
0.032682165
-0.015037006
0.039605277
-0.017986323
0.047444434
-0.021193689
0.056262767
-0.024672572
0.066130947
-0.028441419
-0.032382275
0.077101129
5.2651895e-05
0.00069886479
0.00027365025
0.0013824704
0.00072732391
0.0015381631
0.0014750996
0.0012505864
0.0025768525
0.00057412871
0.0040916537
-0.00045136098
0.006078351
-0.0017970812
0.0085959327
-0.0034436131
0.011703634
-0.0053788487
0.015460878
-0.0075961881
0.019926962
-0.010093062
0.025160476
-0.012869724
0.031218503
-0.015928258
0.038155633
-0.019271826
0.046022937
-0.02290431
0.054867293
-0.026830678
0.064732056
-0.031058452
0.075660346
-0.035600863
0.08770398
-0.040485052
-0.045595253
0.10091696
0.00011651237
0.00058235242
0.00051962171
0.0009793611
0.0012719273
0.00078585755
0.0024348665
8.7647229e-05
0.0040697915
-0.0010607963
0.0062382766
-0.0026198461
0.0090020585
-0.004560863
0.012422819
-0.0068643732
0.016561726
-0.0095177557
0.021478625
-0.012513088
0.027230929
-0.015845366
0.033872206
-0.019511001
0.041450502
-0.023506554
0.05000644
-0.027827763
0.059571223
-0.032469093
0.070164906
-0.037424362
0.081796084
-0.04268963
0.094464868
-0.048269646
0.1081742
-0.054194383
-0.060384499
0.12296344
0.00018192004
0.00040043238
0.00077391064
0.00038737051
0.0018373967
-0.00027762852
0.0034334899
-0.001508446
0.0056239258
-0.0032512321
0.008470751
-0.0054666713
0.012035638
-0.0081257496
0.016378884
-0.01120762
0.021558052
-0.014696923
0.027626249
-0.018581285
0.034630105
-0.022849221
0.042607469
-0.027488365
0.051584896
-0.032483981
0.061574938
-0.037817805
0.072573257
-0.043467412
0.084555614
-0.049406718
0.097475669
-0.055609686
0.11126633
-0.062060306
0.12585299
-0.068781039
-0.075776124
0.14124461
0.00024918399
0.0010362984
0.0024208226
0.0044620077
0.0072195914
0.010752708
0.015118207
0.020368631
0.026549858
0.033698495
0.041839175
0.050981927
0.061119774
0.072226647
0.084255475
0.097135853
0.11076956
0.12501339
0.13959752
0.15404602
-0.0032335456
-0.0020226387
2.4048684e-09
-0.00091692863
-0.0023166196
2.7051769e-09
0.0016722603
-0.0025891919
3.0018175e-09
0.0044766193
-0.0028043621
3.279086e-09
0.007469723
-0.0029931071
3.495875e-09
0.010635027
-0.0031653078
3.6409364e-09
0.013954263
-0.0033192401
3.6764819e-09
0.017410035
-0.0034557749
3.5641319e-09
0.020987332
-0.0035773002
3.2514822e-09
0.024672694
-0.0036853652
2.6843099e-09
0.028453649
-0.0037809562
1.847256e-09
0.032318653
-0.0038650051
7.146589e-10
0.036257041
-0.0039383866
-7.0832945e-10
0.040258903
-0.00400186
-2.427465e-09
0.044315012
-0.0040561043
-4.4169578e-09
0.048416777
-0.0041017586
-6.6526299e-09
0.05255623
-0.0041394441
-9.0708807e-09
0.056726023
-0.0041697807
-1.1598282e-08
0.060919443
-0.0041934064
-1.4115712e-08
0.065130454
-0.0042109939
-1.6490741e-08
0.069353737
-0.0042232651
-1.8545744e-08
0.07358476
-0.004231003
-2.0096465e-08
0.077819843
-0.0042350622
-2.0923057e-08
0.082056241
-0.0042363767
-2.0821116e-08
0.086292225
-0.0042359646
-1.9573416e-08
0.090527172
-0.0042349299
-1.701894e-08
0.094761642
-0.0042344575
-1.3018951e-08
0.098997451
-0.0042358006
-7.5473715e-09
0.10323771
-0.0042402556
-6.3671305e-10
0.10748682
-0.0042491196
7.5121299e-09
0.11175043
-0.0042636278
1.6624775e-08
0.11603527
-0.0042848619
2.6231038e-08
0.12034886
-0.0043136331
3.5821417e-08
0.12469916
-0.0043503374
4.472567e-08
0.1290939
-0.0043947945
5.2329883e-08
0.13353993
-0.0044460863
5.7971399e-08
0.13804228
-0.004502417
6.117599e-08
0.14260324
-0.0045610236
6.1583118e-08
0.14722135
-0.0046181652
5.9094918e-08
0.1518905
-0.0046692011
5.3857256e-08
0.15659925
-0.0047088019
4.6217795e-08
0.16133037
-0.004731153
3.6741758e-08
0.16606095
-0.0047306038
2.6051084e-08
0.17076194
-0.004701008
1.4845129e-08
0.17540158
-0.0046396439
3.7072368e-09
0.17993632
-0.0045347374
-6.8698606e-09
0.18434648
-0.0044101429
-1.6446258e-08
0.18851516
-0.0041686488
-2.4567628e-08
0.19267813
-0.0041629432
-3.1365702e-08
-0.0032191309
-3.5197741e-08
0.0033231563
-0.0039297432
0.005518707
-0.0045121702
0.0079730482
-0.0050435331
0.010623189
-0.0054545026
0.013448443
-0.0058183613
0.016437327
-0.0061541916
0.0195738
-0.0064557131
0.022842091
-0.0067240663
0.026228892
-0.0069641011
0.02972222
-0.0071786933
0.033310776
-0.0073695115
0.036983977
-0.0075382059
0.040731957
-0.0076863667
0.04454547
-0.0078153736
0.04841583
-0.0079264644
0.052334891
-0.0080208187
0.056295043
-0.0080995967
0.060289233
-0.0081639702
0.064310984
-0.0082151577
0.068354446
-0.0082544557
0.072414446
-0.008283265
0.076486556
-0.0083031133
0.080567168
-0.0083156742
0.084653573
-0.0083227813
0.088744046
-0.0083264382
0.092837936
-0.0083288194
0.096935741
-0.0083322623
0.10103918
-0.0083392411
0.10515124
-0.0083523181
0.10927619
-0.0083740612
0.11341948
-0.0084069194
0.11758766
-0.0084530442
0.12178808
-0.0085140573
0.12602851
-0.0085907656
0.13031656
-0.008682841
0.13465897
-0.0087885
0.13906078
-0.0089042248
0.14352434
-0.0090245826
0.14804837
-0.0091422019
0.15262709
-0.0092479202
0.1572495
-0.0093312047
0.16189888
-0.009380539
0.16655301
-0.009384732
0.17118355
-0.0093315462
0.17575957
-0.0092156683
0.18023828
-0.0090134436
0.18460105
-0.0087729158
0.18873187
-0.0082994701
0.19286438
-0.0082954456
-0.006431423
0.01583372
-0.0055947708
0.01776863
-0.0064470799
0.019937602
-0.0072125057
0.022270334
-0.0077872346
0.024755656
-0.0083036826
0.027390835
-0.0087893712
0.030164007
-0.009228885
0.033062354
-0.0096224128
0.036075511
-0.0099772589
0.039194063
-0.010297245
0.042408749
-0.010584197
0.045710634
-0.010840091
0.049091204
-0.011066937
0.052542322
-0.011266491
0.056056195
-0.011440338
0.059625401
-0.011590025
0.063242913
-0.011717108
0.066902138
-0.011823196
0.070596969
-0.011909988
0.074321837
-0.011979324
0.078071784
-0.012033212
0.08184253
-0.012073859
0.085630556
-0.012103701
0.089433188
-0.012125413
0.093248679
-0.012141929
0.0970763
-0.01215644
0.10091642
-0.01217238
0.10477057
-0.012193391
0.1086415
-0.012223248
0.11253318
-0.012265747
0.11645078
-0.012324515
0.12040049
-0.012402756
0.12438934
-0.012502906
0.12842479
-0.012626216
0.13251423
-0.012772277
0.13666427
-0.012938544
0.14087996
-0.01311992
0.14516387
-0.013308485
0.14951511
-0.013493446
0.15392854
-0.013661352
0.15839404
-0.013796704
0.16289601
-0.013882505
0.1674135
-0.013902223
0.17191962
-0.013837666
0.17638503
-0.013681084
0.18076859
-0.013396999
0.18505322
-0.013057551
0.18912619
-0.012372437
0.19321324
-0.012382493
-0.0096478861
0.03327964
-0.0068788608
0.034803474
-0.0079709145
0.036527128
-0.0089361591
0.038377882
-0.0096379889
0.040357057
-0.010282857
0.042471862
-0.010904177
0.044715927
-0.011472949
0.047080445
-0.011986931
0.049558611
-0.012455425
0.052144035
-0.012882668
0.054829899
-0.013270061
0.057609195
-0.013619387
0.06047494
-0.013932682
0.063420214
-0.014211765
0.066438193
-0.014458317
0.069522206
-0.014674039
0.072665812
-0.014860714
0.075862864
-0.015020247
0.079107587
-0.015154712
0.082394655
-0.015266392
0.085719268
-0.015357825
0.089077237
-0.015431828
0.092465067
-0.015491531
0.095880045
-0.01554039
0.099320323
-0.015582207
0.10278501
-0.015621124
0.10627424
-0.01566161
0.10978925
-0.015708408
0.11333246
-0.015766449
0.11690741
-0.015840702
0.12051883
-0.015935933
0.12417245
-0.016056379
0.12787485
-0.016205303
0.13163308
-0.016384445
0.13545421
-0.016593413
0.13934471
-0.016829043
0.14330965
-0.017084861
0.14735187
-0.017350707
0.15147109
-0.017612663
0.15566305
-0.017853313
0.15991887
-0.018052524
0.1642245
-0.018188137
0.16856084
-0.018238562
0.17290304
-0.018179862
0.17722399
-0.018002037
0.18148499
-0.017657994
0.18567095
-0.017243513
0.18967454
-0.016376032
0.19370864
-0.016416591
-0.012883865
0.054262594
-0.0076233025
0.055213353
-0.0089216738
0.05632484
-0.010047646
0.057532522
-0.010845671
0.058852153
-0.011602487
0.060298827
-0.012350851
0.061871848
-0.013045971
0.063567147
-0.01368223
0.065381318
-0.014269596
0.067310611
-0.014811961
0.069350405
-0.015309855
0.07149539
-0.015764373
0.073739829
-0.016177121
0.076077732
-0.016549667
0.078502966
-0.016883551
0.08100936
-0.017180433
0.083590811
-0.017442165
0.086241392
-0.017670828
0.088955448
-0.017868768
0.091727698
-0.018038642
0.09455332
-0.018183446
0.097428045
-0.018306554
0.10034825
-0.018411733
0.10331103
-0.018503171
0.1063143
-0.018585483
0.10935689
-0.018663708
0.11243857
-0.018743291
0.11556018
-0.01883002
0.11872366
-0.018929926
0.12193205
-0.019049096
0.12518952
-0.019193404
0.12850125
-0.019368104
0.13187325
-0.019577306
0.13531211
-0.019823303
0.13882452
-0.020105827
0.14241676
-0.020421276
0.14609392
-0.020762027
0.14985919
-0.021115979
0.15371297
-0.021466441
0.15765208
-0.02179242
0.16166911
-0.022069559
0.1657519
-0.022270926
0.16988357
-0.022370229
0.17404177
-0.022338064
0.17820214
-0.022162404
0.18232903
-0.021784882
0.18640968
-0.021324162
0.190344
-0.020310356
0.19432789
-0.02040048
-0.016160616
0.077130747
-0.0076529203
0.077341807
-0.0091327343
0.077677812
-0.01038365
0.078097048
-0.011264908
0.078628764
-0.012134203
0.079290465
-0.013012552
0.080085909
-0.013841416
0.08101588
-0.0146122
0.082079524
-0.015333241
0.083274532
-0.016006968
0.084597546
-0.016632869
0.086044216
-0.017211042
0.087609362
-0.017742268
0.089287284
-0.018227589
0.091071975
-0.018668241
0.092957264
-0.019065723
0.094936952
-0.019421852
0.097004934
-0.01973881
0.099155334
-0.020019168
0.1013826
-0.02026591
0.10368162
-0.020482464
0.10604779
-0.020672726
0.10847714
-0.020841082
0.11096639
-0.020992418
0.11351304
-0.021132136
0.11611547
-0.021266135
0.11877298
-0.021400799
0.12148587
-0.021542917
0.12425552
-0.021699578
0.12708439
-0.021877957
0.12997599
-0.022085007
0.13293489
-0.022327002
0.1359665
-0.022608924
0.1390769
-0.022933694
0.14227236
-0.023301296
0.14555895
-0.023707866
0.14894182
-0.024144889
0.15242447
-0.024598637
0.15600806
-0.025050024
0.15969055
-0.025474908
0.16346614
-0.025845157
0.16732473
-0.02612951
0.17125188
-0.026297382
0.17522805
-0.026314235
0.17923192
-0.026166277
0.18323135
-0.025784311
0.18721611
-0.025308915
0.19109479
-0.024189037
0.19504322
-0.024348909
-0.019506331
0.10007971
-0.0068156719
0.099408323
-0.0084613476
0.098833072
-0.0098083993
0.098356534
-0.010788369
0.098015998
-0.011793667
0.09782325
-0.012819805
0.0977843
-0.013802465
0.097903984
-0.014731884
0.098182684
-0.015611941
0.09861796
-0.016442244
0.099206303
-0.017221212
0.099943212
-0.017947951
0.10082316
-0.01862222
0.10183995
-0.019244378
0.102987
-0.019815292
0.10425755
-0.02033627
0.10564478
-0.020809087
0.10714199
-0.021236019
0.10874269
-0.021619862
0.11044071
-0.021963938
0.11223036
-0.022272115
0.11410646
-0.02254882
0.11606444
-0.022799062
0.11810045
-0.023028429
0.12021142
-0.023243102
0.12239512
-0.023449839
0.12465026
-0.023655939
0.12697653
-0.023869182
0.12937464
-0.024097691
0.13184639
-0.024349713
0.13439467
-0.024633279
0.13702336
-0.024955695
0.1397373
-0.02532286
0.14254201
-0.025738404
0.1454434
-0.026202689
0.14844731
-0.02671178
0.15155894
-0.027256513
0.15478215
-0.027821848
0.1581188
-0.028386676
0.16156803
-0.028924133
0.16512565
-0.029402779
0.16878363
-0.029787492
0.17253008
-0.030043837
0.17634836
-0.030132509
0.18022033
-0.03003825
0.18411757
-0.029681546
0.18803244
-0.029223788
0.1918832
-0.028039801
0.19582359
-0.0282893
-0.022956487
0.1212136
-0.0050658242
0.119602
-0.006849755
0.11804975
-0.0082561407
0.1166415
-0.0093801201
0.11541408
-0.010566251
0.11436554
-0.011771262
0.11350194
-0.012938867
0.1128303
-0.014060241
0.11235082
-0.015132468
0.11205974
-0.016151157
0.11195204
-0.017113521
0.11202195
-0.018017851
0.11226275
-0.018863026
0.11266712
-0.01964875
0.11322738
-0.020375543
0.11393569
-0.021044588
0.11478428
-0.021657677
0.1157655
-0.022217235
0.11687197
-0.02272633
0.11809669
-0.023188663
0.11943316
-0.023608582
0.12087542
-0.023991081
0.12241818
-0.024341818
0.12405685
-0.024667106
0.12578768
-0.024973925
0.12760773
-0.025269894
0.12951504
-0.025563246
0.1315086
-0.025862744
0.13358846
-0.026177551
0.13575574
-0.026516994
0.13801265
-0.026890193
0.14036248
-0.027305519
0.14280947
-0.027769848
0.14535867
-0.028287606
0.14801565
-0.028859669
0.15078607
-0.029482204
0.15367519
-0.030145632
0.15668723
-0.030833884
0.15982473
-0.031524176
0.16308792
-0.032187327
0.16647417
-0.03278903
0.16997745
-0.033290767
0.17358832
-0.033654707
0.17729297
-0.03383716
0.18107645
-0.033821729
0.18491402
-0.033519116
0.18880062
-0.033110388
0.19266461
-0.031903793
0.19663658
-0.032261274
-0.026553536
0.13872167
-0.0025428848
0.13626742
-0.0043955003
0.13378164
-0.0057703621
0.13150481
-0.0071032884
0.12946375
-0.0085251897
0.12764043
-0.0099479475
0.12603831
-0.011336749
0.12466305
-0.012684978
0.12351378
-0.013983194
0.1225855
-0.015222879
0.12187152
-0.01639954
0.12136432
-0.017510648
0.12105576
-0.018554472
0.12093725
-0.019530239
0.1209999
-0.020438195
0.12123476
-0.021279448
0.12163296
-0.022055877
0.12218584
-0.022770116
0.12288506
-0.023425548
0.1237227
-0.024026304
0.12469137
-0.024577246
0.12578426
-0.025083974
0.12699527
-0.025552828
0.12831904
-0.025990876
0.12975103
-0.026405919
0.13128761
-0.026806465
0.13292605
-0.027201692
0.13466468
-0.027601368
0.13650284
-0.028015714
0.138441
-0.028455154
0.14048074
-0.028929934
0.14262476
-0.02944954
0.14487681
-0.030021894
0.14724153
-0.030652323
0.14972421
-0.031342348
0.15233041
-0.03208841
0.1550655
-0.032880721
0.15793405
-0.033702435
0.16093927
-0.034529394
0.16408239
-0.035330449
0.16736219
-0.036068832
0.17077448
-0.036703052
0.1743121
-0.037192326
0.17796389
-0.037488953
0.1817179
-0.037575736
0.18555289
-0.037354108
0.18946616
-0.03702366
0.19339628
-0.035833915
0.19745003
-0.036315027
-0.030346069
0.15154555
-4.2412956e-05
0.14830817
-0.0011581218
0.14507173
-0.0025339213
0.14209128
-0.0041228339
0.13936979
-0.0058037093
0.13690169
-0.0074798403
0.13468956
-0.0091246188
0.13273407
-0.010729491
0.13103337
-0.012282498
0.12958298
-0.013772482
0.12837584
-0.015192405
0.12740338
-0.016538185
0.12665626
-0.017807352
0.12612472
-0.018998694
0.12579871
-0.020112185
0.12566813
-0.021148867
0.12572298
-0.022110732
0.12595353
-0.023000663
0.12635039
-0.023822407
0.12690464
-0.02458056
0.12760795
-0.025280549
0.12845259
-0.025928619
0.1294316
-0.026531833
0.13053877
-0.027098054
0.1317688
-0.027635941
0.13311725
-0.028154922
0.13458071
-0.02866515
0.13615677
-0.02917743
0.13784413
-0.02970307
0.1396426
-0.03025363
0.1415532
-0.030840531
0.1435781
-0.031474436
0.14572061
-0.032164405
0.14798506
-0.032916779
0.15037658
-0.033733866
0.15290072
-0.034612546
0.15556301
-0.035543012
0.15836843
-0.036507858
0.16132083
-0.037481796
0.16442238
-0.038431993
0.16767311
-0.039319561
0.17107045
-0.040100395
0.1746093
-0.040731177
0.17828084
-0.04116049
0.1820759
-0.041370802
0.18597615
-0.041254355
0.18998187
-0.041029383
0.19403823
-0.039890267
0.19823779
-0.040514596
-0.03438312
0.19116208
0.0044598579
-0.19566435
0.18744878
0.0025551756
0.18415626
0.00075860025
0.18111548
-0.0010820508
0.1782891
-0.0029773308
0.17565238
-0.0048431197
0.17318779
-0.0066600307
0.17088695
-0.0084286471
0.16874654
-0.010142092
0.16676504
-0.011790985
0.16494128
-0.013368648
0.1632739
-0.014870802
0.16176105
-0.016294501
0.1604003
-0.017637941
0.15918864
-0.018900528
0.1581226
-0.020082824
0.1571983
-0.021186433
0.15641158
-0.022213947
0.15575809
-0.023168916
0.15523336
-0.024055828
0.1548329
-0.024880087
0.15455227
-0.025647995
0.15438718
-0.026366739
0.1543335
-0.027044378
0.15438738
-0.02768982
0.15454525
-0.028312794
0.15480391
-0.028923805
0.15516052
-0.029534044
0.15561269
-0.030155238
0.15615845
-0.030799385
0.15679625
-0.031478335
0.15752497
-0.032203158
0.15834381
-0.032983243
0.15925217
-0.033825136
0.16024947
-0.03473117
0.16133495
-0.035698019
0.16250735
-0.036715411
0.16376472
-0.037765229
0.1651042
-0.038821281
0.1665219
-0.039849692
0.16801284
-0.040810501
0.16957084
-0.041658397
0.17118879
-0.042349123
0.17285768
-0.042829382
0.17456944
-0.043082556
0.17630929
-0.042994209
0.17807914
-0.04279923
0.17983384
-0.041644968
0.18165827
-0.042339032
-0.036035631
0.21902453
0.0077607445
-0.22232542
0.21565296
0.0059267494
0.21254376
0.0038677949
0.20954656
0.0019151503
0.2066128
-4.3574527e-05
0.20377357
-0.0020038888
0.20104625
-0.0039327025
0.19843597
-0.005818372
0.19594924
-0.0076553602
0.19359352
-0.0094352635
0.19137472
-0.011149852
0.18929702
-0.012793104
0.18736324
-0.014360722
0.18557497
-0.015849666
0.18393261
-0.01725817
0.18243555
-0.018585768
0.18108233
-0.019833211
0.17987077
-0.021002386
0.17879814
-0.022096283
0.17786127
-0.023118957
0.17705668
-0.0240755
0.1763807
-0.024972011
0.17582953
-0.025815574
0.17539938
-0.026614229
0.17508651
-0.027376946
0.17488731
-0.02811359
0.17479837
-0.028834864
0.17481654
-0.029552215
0.17493897
-0.030277676
0.17516318
-0.031023588
0.17548701
-0.031802169
0.17590869
-0.032624843
0.17642676
-0.033501304
0.17703992
-0.034438298
0.17774693
-0.035438186
0.17854637
-0.036497451
0.17943634
-0.037605387
0.18041434
-0.038743223
0.18147701
-0.03988396
0.18262017
-0.040992853
0.18383877
-0.042029095
0.1851269
-0.042946532
0.18647797
-0.043700189
0.18788423
-0.04423564
0.18933795
-0.044536276
0.19082847
-0.044484728
0.19235169
-0.044322451
0.19388633
-0.04317961
0.19545478
-0.043907484
-0.037536384
0.24577453
0.010393929
-0.24840771
0.24302017
0.0086811019
0.2402652
0.0066227737
0.23752128
0.0046590687
0.23475232
0.0027253832
0.23197882
0.00076961588
0.22923207
-0.0011859603
0.22653195
-0.0031182514
0.22389488
-0.0050182855
0.22133728
-0.0068776691
0.21887364
-0.0086862107
0.21651566
-0.010435123
0.21427273
-0.012117792
0.21215226
-0.013729195
0.2101598
-0.015265711
0.20829923
-0.016725194
0.20657295
-0.018106932
0.20498212
-0.01941156
0.20352684
-0.020641004
0.20220632
-0.021798431
0.20101903
-0.022888206
0.19996286
-0.023915849
0.19903528
-0.024887995
0.19823341
-0.025812357
0.19755415
-0.026697688
0.19699429
-0.027553732
0.1965506
-0.028391166
0.19621988
-0.029221494
0.19599909
-0.030056888
0.1958854
-0.030909899
0.19587624
-0.031793008
0.19596933
-0.032717931
0.19616266
-0.033694639
0.19645444
-0.034730075
0.1968429
-0.035826648
0.19732613
-0.036980681
0.19790182
-0.038181076
0.19856706
-0.039408464
0.19931823
-0.040635131
0.200151
-0.041825621
0.2010604
-0.0429385
0.202041
-0.043927124
0.20308682
-0.044746013
0.20419159
-0.04534041
0.205348
-0.045692681
0.20654996
-0.045686689
0.20778633
-0.045558827
0.20906305
-0.04445633
0.21032914
-0.045173577
-0.038853421
0.27107221
0.012350141
-0.27302842
0.26898606
0.010767249
0.26672988
0.0088789494
0.2643809
0.0070080491
0.26194843
0.005157854
0.25944275
0.0032752958
0.25688998
0.0013668163
0.25431443
-0.00054270074
0.2517366
-0.0024404573
0.2491769
-0.0043179724
0.24665511
-0.0061644173
0.24418893
-0.0079689477
0.24179378
-0.009722636
0.23948288
-0.011418298
0.23726737
-0.013050199
0.23515631
-0.014614133
0.23315685
-0.016107477
0.23127443
-0.017529143
0.22951294
-0.018879513
0.22787491
-0.020160393
0.22636167
-0.021374966
0.22497355
-0.022527736
0.22371004
-0.023624481
0.22256989
-0.024672204
0.22155128
-0.025679081
0.22065196
-0.026654409
0.21986933
-0.027608538
0.2192006
-0.028552765
0.21864288
-0.029499173
0.21819332
-0.030460336
0.21784918
-0.031448862
0.21760792
-0.032476673
0.21746725
-0.033553977
0.2174251
-0.034687919
0.21747944
-0.03588099
0.21762816
-0.037129403
0.2178688
-0.038421717
0.21819836
-0.039738023
0.2186132
-0.04104997
0.2191091
-0.042321518
0.21968139
-0.043510796
0.22032526
-0.044570992
0.2210356
-0.045456347
0.22180766
-0.046112477
0.22263487
-0.046519891
0.22351543
-0.046567245
0.22443232
-0.046475713
0.2254154
-0.045439419
0.22634804
-0.046106209
-0.039951143
0.2945599
0.013623941
-0.2958337
0.29314201
0.012185134
0.29148563
0.010535327
0.28965777
0.0088359166
0.28769418
0.0071214457
0.28560615
0.0053633229
0.28341232
0.0035606414
0.28113633
0.0017332899
0.27879961
-0.00010373394
0.27642258
-0.0019409412
0.27402621
-0.0037680487
0.27163087
-0.0055736041
0.26925545
-0.0073472242
0.26691722
-0.0090800608
0.26463162
-0.010764599
0.26241221
-0.012394723
0.2602706
-0.013965868
0.25821651
-0.015475055
0.25625787
-0.016920874
0.25440093
-0.018303455
0.25265041
-0.019624443
0.25100962
-0.02088695
0.24948065
-0.022095511
0.24806448
-0.023256031
0.24676113
-0.024375732
0.24556982
-0.025463102
0.24448911
-0.026527823
0.24351702
-0.027580674
0.24265122
-0.028633371
0.24188917
-0.029698286
0.24122829
-0.030787982
0.24066609
-0.031914479
0.24020029
-0.033088176
0.2398288
-0.034316431
0.23954969
-0.035601872
0.23936095
-0.036940672
0.23926035
-0.038321117
0.23924515
-0.039722821
0.23931204
-0.041116856
0.23945722
-0.042466698
0.23967661
-0.043730188
0.23996623
-0.044860609
0.24032202
-0.045812142
0.24074091
-0.046531369
0.24121737
-0.046996343
0.2417534
-0.047103278
0.24232768
-0.047049995
0.24298958
-0.046101317
0.24356826
-0.04668489
-0.040798367
0.31644311
0.014282539
-0.31710171
0.3156304
0.012997847
0.31457481