/*--------------------------------*- C++ -*----------------------------------*\
  =========                 |
  \\      /  F ield         | OpenFOAM: The Open Source CFD Toolbox
   \\    /   O peration     | Website:  https://openfoam.org
    \\  /    A nd           | Version:  6
     \\/     M anipulation  |
\*---------------------------------------------------------------------------*/
FoamFile
{
    version     2.0;
    format      ascii;
    class       volVectorField;
    location    "32";
    object      U;
}
// * * * * * * * * * * * * * * * * * * * * * * * * * * * * * * * * * * * * * //

dimensions      [0 1 -1 0 0 0 0];

internalField   nonuniform List<vector> 
9200
(
(0.0011265138 0.0013752385 -5.9903069e-20)
(0.014059886 -0.0022576374 4.667372e-20)
(0.039151431 -0.0062172139 -3.9002051e-20)
(0.073693468 -0.010268383 -6.1003983e-20)
(0.11586882 -0.014154354 1.909876e-20)
(0.16445814 -0.017432598 3.3178362e-20)
(0.21839331 -0.019808969 -1.2459551e-20)
(0.27668544 -0.021132741 9.4181842e-21)
(0.3384057 -0.021340735 1.6995597e-20)
(0.40265321 -0.020434385 1.5044596e-21)
(0.46853125 -0.018468302 -2.1767063e-20)
(0.53513838 -0.015539227 2.0986259e-20)
(0.60157159 -0.011775056 -4.101049e-20)
(0.66693972 -0.0073236313 -2.1494943e-20)
(0.73038548 -0.0023407799 6.0002758e-21)
(0.79111344 0.0030196186 -2.5623184e-20)
(0.84843699 0.0086289228 2.5772283e-20)
(0.90190284 0.014531016 2.2987169e-20)
(0.95111293 0.02086034 -1.5614616e-22)
(0.99337362 0.024278223 -1.48571e-21)
(0.0054024252 -0.0014265013 -1.7260306e-20)
(0.027535191 -0.0092761429 4.0255194e-20)
(0.062825669 -0.015277503 2.3880469e-20)
(0.10815867 -0.019807481 -1.1702865e-19)
(0.16140646 -0.023010541 -1.2897582e-20)
(0.22108843 -0.024673253 7.4113847e-20)
(0.28586565 -0.02469991 -3.5910975e-20)
(0.35446435 -0.023124994 -8.490331e-21)
(0.42566314 -0.020055114 3.4731964e-20)
(0.49826945 -0.015650132 -4.3862597e-20)
(0.57110874 -0.010115147 -3.0814583e-20)
(0.64303232 -0.003689959 7.3176721e-20)
(0.71293868 0.0033628728 3.8955151e-20)
(0.77980421 0.010769922 -6.9312025e-20)
(0.84271856 0.018257142 1.4957981e-20)
(0.90091921 0.025554867 -3.7564367e-20)
(0.95383347 0.032411902 -1.402411e-20)
(1.0011784 0.038668218 7.2955991e-20)
(1.0428333 0.043915683 3.0852147e-20)
(1.0770353 0.045050594 -8.4746377e-20)
(0.011084794 -0.0041532352 3.7168224e-20)
(0.044746931 -0.015789405 2.5306554e-21)
(0.092030605 -0.02310789 2.2636574e-20)
(0.14946408 -0.027220999 9.9169835e-22)
(0.21461684 -0.028761035 -4.1321152e-20)
(0.28571929 -0.02780844 1.8754707e-20)
(0.36112425 -0.02452699 1.3600182e-20)
(0.43923776 -0.019195014 -5.0957073e-20)
(0.51852346 -0.012142876 5.8031548e-20)
(0.59749885 -0.0037356396 1.450914e-20)
(0.67474701 0.0056349085 -5.522927e-20)
(0.74894688 0.015564187 -1.8630007e-20)
(0.81891357 0.025651694 9.0063023e-21)
(0.88364064 0.035517701 2.3960538e-20)
(0.94233744 0.044817648 -1.1672415e-20)
(0.99445409 0.053251546 2.8523059e-20)
(1.0396956 0.060578273 -2.0618325e-20)
(1.0780518 0.066662441 -7.1974293e-20)
(1.1096757 0.071240447 -2.4511568e-20)
(1.1337466 0.072458544 4.9538654e-20)
(0.018272064 -0.0065561758 2.4751854e-20)
(0.065819138 -0.021100969 5.1583459e-20)
(0.12676011 -0.028665739 2.0084644e-20)
(0.19733954 -0.031223862 1.3083274e-20)
(0.27484018 -0.029984034 1.7434206e-20)
(0.35718413 -0.025390856 -4.8244701e-20)
(0.44239673 -0.017932719 -2.595383e-20)
(0.52856169 -0.0081900577 0)
(0.61385503 0.0032359841 1.4251585e-20)
(0.69657142 0.015743666 -6.0733884e-21)
(0.77516355 0.02874259 -9.9586277e-20)
(0.8482931 0.04167393 -1.5957388e-20)
(0.91488112 0.054033096 6.6537229e-20)
(0.97414733 0.065389768 3.1746691e-22)
(1.0256314 0.075402616 -1.6087905e-21)
(1.069191 0.083826628 2.2478069e-20)
(1.104979 0.09051991 -5.430679e-21)
(1.133417 0.095471714 -6.2506059e-20)
(1.1550782 0.098664187 -4.7082016e-20)
(1.1699662 0.099168416 7.0846511e-20)
(0.026993305 -0.008352908 -3.9452325e-21)
(0.090655415 -0.024457899 -5.1729752e-21)
(0.16662715 -0.030872741 5.7146872e-20)
(0.25097499 -0.030546098 1.8704866e-20)
(0.34073263 -0.025347286 -3.2279749e-20)
(0.4335207 -0.016155969 1.2292466e-20)
(0.52705841 -0.0038463088 2.6738457e-21)
(0.61916169 0.010653171 3.4124597e-20)
(0.70781654 0.02644553 5.7501411e-21)
(0.79123924 0.042692602 -1.351717e-20)
(0.8679383 0.058633029 6.1487428e-20)
(0.93677271 0.073607718 -5.9007106e-20)
(0.9969922 0.087083683 -1.3489e-19)
(1.0482505 0.098669671 -5.6987144e-21)
(1.0905888 0.10812126 8.5072284e-20)
(1.1243896 0.11533477 0)
(1.1503101 0.12033613 1.0327756e-20)
(1.1692098 0.12328308 -1.5823962e-20)
(1.1820345 0.1243657 -8.8181845e-21)
(1.1893718 0.12321494 2.1419933e-20)
(0.037187424 -0.0092375906 -5.4402822e-21)
(0.1189066 -0.025093263 4.3970973e-21)
(0.2108521 -0.028699086 -8.8415165e-21)
(0.30905708 -0.024063967 2.8738796e-20)
(0.41037964 -0.013785493 -2.9713593e-20)
(0.51219122 0.00076198498 -1.7129397e-20)
(0.61198631 0.018276479 3.7721457e-20)
(0.70743902 0.037465495 4.7804733e-21)
(0.79651744 0.057151447 -2.4990958e-20)
(0.87757012 0.076307153 7.1082033e-20)
(0.94939328 0.094076891 3.756613e-22)
(1.011272 0.1097995 -8.217416e-20)
(1.0629844 0.1230223 0)
(1.1047652 0.13349961 4.0472409e-20)
(1.1372364 0.14117597 5.6617557e-21)
(1.1613111 0.14615652 -7.9269775e-20)
(1.1780884 0.14867242 -2.0013587e-20)
(1.1887533 0.14905746 -1.2738948e-20)
(1.1944691 0.14766194 -1.5043621e-20)
(1.1961078 0.14444736 4.1287944e-20)
(0.048689655 -0.0089018582 -1.739055e-20)
(0.14995381 -0.022285475 -2.3145373e-21)
(0.25827116 -0.021254235 3.0613623e-20)
(0.36982802 -0.010912569 3.7765103e-20)
(0.48142698 0.005379943 -2.0144071e-20)
(0.59030168 0.025723531 -7.0036892e-20)
(0.69387247 0.048384625 -2.8451355e-20)
(0.78986733 0.071739255 8.0118948e-20)
(0.87646683 0.094398279 8.8308561e-21)
(0.95239632 0.11524595 -2.5237285e-20)
(1.0169714 0.13345358 1.3761815e-20)
(1.0700936 0.14848591 -4.4558094e-21)
(1.1121952 0.16008968 0)
(1.144141 0.16826153 2.7747144e-20)
(1.1671034 0.17319984 -8.0932486e-20)
(1.1824289 0.17524775 -3.2118074e-20)
(1.1915129 0.17483716 8.2713156e-20)
(1.1956984 0.17244793 -4.4282045e-21)
(1.1961928 0.16853116 3.6159342e-21)
(1.19392 0.16323032 2.773083e-20)
(0.061225256 -0.0070628019 -3.2615564e-20)
(0.18291403 -0.015430769 -8.2315079e-20)
(0.30738121 -0.0078856462 2.490728e-21)
(0.43118939 0.0094091421 7.0876081e-20)
(0.55125581 0.032351799 6.3113441e-20)
(0.66485063 0.058534288 -7.2321832e-20)
(0.76953421 0.085843054 -1.572382e-22)
(0.86333483 0.11241495 8.696973e-20)
(0.94490044 0.13677476 4.9618516e-20)
(1.0135671 0.15786347 -5.522152e-20)
(1.0693529 0.17502731 -9.4023917e-20)
(1.1128855 0.18798938 -3.2177047e-21)
(1.1452767 0.1967979 4.2918428e-20)
(1.1679656 0.20175431 -6.7344823e-21)
(1.1825549 0.20333209 -1.3101755e-20)
(1.1906627 0.20209699 2.0027702e-20)
(1.1938053 0.1986394 4.4722238e-20)
(1.1933188 0.19352905 -4.4670407e-20)
(1.190317 0.18725452 -1.043566e-19)
(1.1856307 0.18004589 2.5141557e-20)
(0.07437997 -0.0034938924 -3.5292679e-20)
(0.21660168 -0.0041197777 -1.7497836e-19)
(0.35631616 0.011737632 8.2998797e-20)
(0.49070775 0.036976276 9.3745731e-20)
(0.61702672 0.066837933 5.8589705e-20)
(0.73281075 0.098484849 8.7298125e-21)
(0.83601774 0.12953955 -1.0768102e-19)
(0.92523802 0.15805225 0)
(0.99982112 0.18263347 -7.0016803e-20)
(1.05989 0.20245153 -1.5509698e-20)
(1.1062613 0.21717638 5.5663606e-20)
(1.1402962 0.22689997 1.1175555e-20)
(1.1637118 0.2320351 -4.6419704e-20)
(1.1783849 0.23320376 -4.9930385e-20)
(1.1861775 0.23113026 2.4750582e-20)
(1.188803 0.22655131 4.5677577e-20)
(1.18774 0.22015099 -5.6644466e-20)
(1.1841962 0.21252416 -1.0948106e-19)
(1.1791102 0.20414171 -3.1434016e-21)
(1.1731524 0.19526411 2.7538587e-20)
(0.087583643 0.0019595283 -3.6481605e-21)
(0.24953347 0.011847647 8.8645403e-20)
(0.40288521 0.037628626 -1.6173559e-20)
(0.54570269 0.071462794 -8.5398752e-20)
(0.67581979 0.10809857 4.5727984e-20)
(0.79130229 0.14442178 4.9656916e-20)
(0.8907676 0.17797732 5.6200572e-21)
(0.9735997 0.20693555 -1.0100704e-19)
(1.0400191 0.2301938 -2.5459844e-21)
(1.0910209 0.24731909 5.136779e-20)
(1.1282137 0.25842878 6.0885335e-21)
(1.1536033 0.26405074 -2.0066534e-20)
(1.1693637 0.26497458 -7.69832e-20)
(1.1776321 0.26211071 -6.3332974e-21)
(1.1803532 0.25637366 4.4250568e-20)
(1.1791835 0.24859868 3.7627334e-20)
(1.1754527 0.23949355 2.0069646e-20)
(1.1701727 0.22962059 -5.4067609e-20)
(1.1640797 0.21939412 1.2983629e-20)
(1.1576712 0.20907657 8.4018395e-20)
(-0.0013127475 0.0014561984 -1.128754e-21)
(-0.004815437 0.0032326284 2.0901825e-21)
(-0.010923244 0.0041919273 9.2220685e-22)
(-0.01799711 0.0045981564 -2.4329436e-21)
(-0.025068991 0.0046211601 -1.4651671e-21)
(-0.031703131 0.0043751445 1.6021798e-21)
(-0.037625083 0.0039433953 -7.0337216e-21)
(-0.042654285 0.0033864722 -6.1007834e-21)
(-0.04668899 0.0027476367 1.1432721e-20)
(-0.049682021 0.0020574754 -9.9724668e-21)
(-0.051620572 0.0013373546 -2.0004566e-22)
(-0.052513234 0.00060194339 3.7627282e-21)
(-0.052381482 -0.00013887351 -6.4584565e-22)
(-0.051253867 -0.00087847052 2.3414535e-20)
(-0.049162353 -0.0016120921 3.0455046e-22)
(-0.046141795 -0.0023353684 -4.2028055e-20)
(-0.042232342 -0.0030437059 7.7714378e-21)
(-0.037471044 -0.0037350927 2.456864e-20)
(-0.03186411 -0.0044081007 -4.5199079e-20)
(-0.025469704 -0.0050135388 -2.8616824e-20)
(-0.0016760765 0.0042426452 -5.4682852e-21)
(-0.0054724312 0.0093974122 1.0989416e-20)
(-0.011367533 0.012167153 -1.0355654e-20)
(-0.017883525 0.013320092 4.0409316e-21)
(-0.024148885 0.01335239 4.9498597e-21)
(-0.029777923 0.012599331 7.3116501e-22)
(-0.0345309 0.01130556 -2.3039097e-20)
(-0.038252352 0.0096488721 -2.0814412e-21)
(-0.040857428 0.0077562412 2.0620512e-20)
(-0.042309743 0.0057174014 -5.1630935e-21)
(-0.042602963 0.0035949835 -2.2278303e-20)
(-0.041749047 0.001431919 5.0151145e-21)
(-0.039770587 -0.00074296349 2.3170085e-20)
(-0.036695429 -0.0029104638 1.0571635e-20)
(-0.032552829 -0.005056932 2.2452656e-20)
(-0.027373945 -0.0071700646 -2.0309535e-20)
(-0.021201742 -0.0092370511 -2.2271826e-20)
(-0.014082347 -0.011251488 2.1837785e-20)
(-0.0059469192 -0.013198792 2.760434e-20)
(0.0034015499 -0.014909677 1.629364e-20)
(-0.0023347198 0.0066540977 -4.4335925e-21)
(-0.0066223122 0.014675298 -5.6896547e-21)
(-0.012032445 0.018950147 3.0328703e-22)
(-0.017399542 0.020675289 1.0703872e-21)
(-0.022037825 0.020629799 6.8194899e-21)
(-0.025657972 0.019345997 1.086756e-20)
(-0.028087609 0.017213112 -3.8028314e-21)
(-0.029220107 0.01451412 -1.9290844e-20)
(-0.029003621 0.011451336 6.6825937e-21)
(-0.027423183 0.0081679009 1.3142792e-20)
(-0.024485796 0.0047637691 5.9880236e-21)
(-0.020211113 0.0013073899 1.8553721e-20)
(-0.014625393 -0.0021555271 1.7706113e-21)
(-0.0077570882 -0.0055950682 -3.4662714e-20)
(0.00036701411 -0.0089903986 1.2650312e-21)
(0.0097201243 -0.012323174 -2.2639927e-20)
(0.020252397 -0.015576216 -2.5170259e-20)
(0.031896096 -0.018741098 4.7141929e-20)
(0.044845846 -0.021764045 2.6135945e-20)
(0.059798071 -0.024276519 1.897477e-22)
(-0.0031684436 0.0084828686 -5.3808382e-21)
(-0.0079856798 0.01857025 -8.7206453e-21)
(-0.012560203 0.023871572 4.4246263e-21)
(-0.01615499 0.02589692 4.2231903e-21)
(-0.018341318 0.025641277 2.0428427e-21)
(-0.018964889 0.02379636 7.4695525e-21)
(-0.017949056 0.020869504 9.4956084e-21)
(-0.015257552 0.017229727 -1.3775175e-21)
(-0.010887159 0.013141379 -1.1707824e-20)
(-0.004855767 0.0087918749 -2.9671119e-20)
(0.0028075682 0.0043122396 7.5676225e-23)
(0.012068088 -0.00020781675 4.1562958e-20)
(0.022889696 -0.0047089208 -1.8750521e-20)
(0.035236596 -0.0091526872 -1.2572904e-20)
(0.049077546 -0.013513654 5.2422311e-22)
(0.064384059 -0.017771561 3.310028e-20)
(0.081093606 -0.021912386 -1.528046e-20)
(0.099098474 -0.025935399 -5.4686294e-20)
(0.1187257 -0.029721949 4.6935523e-20)
(0.14138751 -0.032581172 3.3883086e-20)
(-0.0040158505 0.0095857328 -6.8251317e-22)
(-0.0091793607 0.020728203 -1.2733638e-20)
(-0.012450189 0.026444491 -3.4767135e-20)
(-0.013593455 0.028422028 -5.8493828e-21)
(-0.012486326 0.027790281 -3.6635691e-21)
(-0.0091383642 0.025353583 6.4205481e-21)
(-0.0035914326 0.02170399 -4.7317533e-21)
(0.0041016204 0.017272094 -8.9584215e-21)
(0.013880208 0.012366918 2.2290558e-20)
(0.025680506 0.0072078927 5.1313391e-21)
(0.039440015 0.0019488343 -2.5821153e-20)
(0.055097731 -0.0033048057 1.1275444e-20)
(0.07259469 -0.0084833049 0)
(0.091874505 -0.013542905 1.2339441e-20)
(0.11288649 -0.018456987 -9.9087022e-21)
(0.13558474 -0.023208466 -1.4677913e-20)
(0.15988014 -0.027796819 -1.497848e-21)
(0.18560137 -0.032250021 -2.3142468e-21)
(0.21316571 -0.036381869 4.7120267e-20)
(0.24485444 -0.039034678 -1.0878739e-20)
(-0.0046916748 0.0098932214 -7.6412685e-21)
(-0.0097494522 0.020962716 2.4929547e-20)
(-0.01109134 0.026404474 -1.069326e-20)
(-0.0090167149 0.027944236 -2.7920488e-20)
(-0.0037349033 0.026759556 -2.7972955e-20)
(0.0045618364 0.023716476 -1.5166958e-20)
(0.015696125 0.019454068 -7.0021922e-22)
(0.029509862 0.014435916 5.6319731e-21)
(0.045864105 0.0089953828 1.9918674e-20)
(0.064634782 0.0033700504 7.4760967e-21)
(0.085708227 -0.0022734082 -7.3004795e-21)
(0.1089788 -0.0078206839 -2.0151852e-21)
(0.13434509 -0.013196711 -3.8899957e-20)
(0.16170718 -0.018356005 -1.2933847e-20)
(0.1909683 -0.023274361 1.9180985e-20)
(0.22203582 -0.027942912 -2.1495132e-20)
(0.25476902 -0.032385037 -9.1648882e-21)
(0.2889054 -0.036686444 3.1002994e-20)
(0.32487402 -0.040629434 5.1487894e-20)
(0.36587729 -0.042475641 3.4383913e-21)
(-0.0050022049 0.0094068145 1.7001051e-20)
(-0.0092032932 0.019258349 1.4658707e-20)
(-0.00779724 0.023725761 5.1916085e-20)
(-0.0016169764 0.024444339 2.3764038e-20)
(0.0087887689 0.022555463 1.8547443e-22)
(0.023034834 0.018935198 -3.9996812e-20)
(0.040796167 0.014230474 -2.4695648e-20)
(0.061796674 0.008908668 1.0614183e-20)
(0.085800624 0.0033051916 1.4618091e-20)
(0.11260217 -0.0023410083 -1.3283926e-20)
(0.14201442 -0.0078626964 -4.4759979e-20)
(0.17386057 -0.013146288 3.0120017e-20)
(0.20796609 -0.018118882 2.0326919e-20)
(0.24415284 -0.022739413 -2.8034382e-20)
(0.28223862 -0.026991862 1.1882164e-20)
(0.32204069 -0.030881981 2.4647197e-20)
(0.3633281 -0.034466612 8.2501549e-21)
(0.40571731 -0.037920315 -1.2057873e-20)
(0.44955419 -0.041073816 -1.4388644e-20)
(0.49888559 -0.041590142 6.2319087e-21)
(-0.0047559585 0.0081878877 1.1251979e-20)
(-0.0070358446 0.015755325 -2.3747387e-20)
(-0.001841129 0.018612627 8.701462e-21)
(0.0094832363 0.018191875 3.410143e-20)
(0.026054724 0.015519525 5.2889613e-20)
(0.04729162 0.011432661 2.057168e-20)
(0.072711267 0.0065484587 -5.9601079e-21)
(0.10190048 0.0013064904 -1.2443197e-20)
(0.13450543 -0.0039795921 -6.316435e-21)
(0.17021172 -0.0090884457 3.4746442e-20)
(0.20872597 -0.013868124 -4.6230433e-21)
(0.24976154 -0.01821922 -1.6927862e-20)
(0.2930272 -0.022082985 -1.9979722e-20)
(0.33821876 -0.025433897 -4.8241143e-20)
(0.38501765 -0.028274952 2.3629669e-20)
(0.43309846 -0.030637566 -1.4355262e-20)
(0.48209584 -0.032624975 2.6527822e-20)
(0.53148728 -0.034535516 2.1461398e-20)
(0.58146285 -0.03637348 -8.688675e-20)
(0.63671126 -0.035371372 -2.6850705e-23)
(-0.0037705652 0.0063443988 2.2206579e-20)
(-0.0027548363 0.010728296 -2.6567545e-20)
(0.0074990023 0.011483498 -4.5637998e-20)
(0.025164031 0.0097396312 -2.7643689e-20)
(0.049037447 0.0063370053 -2.072238e-21)
(0.078335316 0.0020266296 1.3200427e-20)
(0.11240297 -0.0026421881 -2.8481895e-21)
(0.15066991 -0.0072887492 1.8350207e-20)
(0.1926343 -0.011647902 8.9666641e-21)
(0.23783554 -0.015538926 -1.1530606e-20)
(0.28582935 -0.018845759 9.0531484e-21)
(0.33616959 -0.021502178 -2.4253139e-20)
(0.38839477 -0.023481191 8.2228669e-21)
(0.44201919 -0.024788423 1.7038473e-20)
(0.49653139 -0.025458123 -2.6884763e-21)
(0.55140399 -0.025555074 1.6872263e-21)
(0.60607771 -0.025229535 -3.0489777e-22)
(0.65986588 -0.024886924 1.9965492e-20)
(0.7127668 -0.024729179 4.1123438e-21)
(0.76986572 -0.022075312 -9.8001752e-22)
(-0.0018735474 0.0040199695 2.4022883e-20)
(0.0040994486 0.0045728384 5.7999448e-20)
(0.02088693 0.0029698487 -4.9907231e-20)
(0.046212476 -5.5847841e-05 -1.0079333e-20)
(0.078564553 -0.0039225082 2.0503855e-20)
(0.11695158 -0.0080115097 2.1700573e-21)
(0.1605294 -0.011880901 -3.0179828e-20)
(0.20854108 -0.015245029 7.0501789e-21)
(0.26029796 -0.017920083 7.2323029e-21)
(0.31514719 -0.019796779 -2.6620728e-20)
(0.37244396 -0.020824637 1.3194693e-21)
(0.43153371 -0.020999245 -3.7730841e-20)
(0.49174218 -0.020351897 -3.6928464e-20)
(0.55237175 -0.018941243 6.6826228e-20)
(0.61270418 -0.016845925 5.6688714e-21)
(0.67200769 -0.014163568 -1.5542439e-20)
(0.72952252 -0.011051787 1.9719778e-20)
(0.78438694 -0.0078157223 -9.3614746e-22)
(0.83610947 -0.0044781097 2.0543452e-20)
(0.8884033 0.00051083083 -2.016727e-20)
(-0.017849489 -0.0053091119 6.0290652e-20)
(-0.0088699798 -0.0058698949 1.6280134e-20)
(0.0015644412 -0.0063290042 -3.6328743e-20)
(0.013098851 -0.0066161462 1.743964e-20)
(0.025465173 -0.0068150428 0)
(0.038607432 -0.0069538503 0)
(0.052469731 -0.007035015 -2.3909775e-20)
(0.06697528 -0.0070662835 -1.7181369e-20)
(0.082056579 -0.0070571492 2.0012883e-20)
(0.097657498 -0.0070144829 1.902892e-20)
(0.11372675 -0.0069435294 1.0877065e-21)
(0.13021647 -0.0068489278 -1.0798665e-20)
(0.14708269 -0.0067347376 8.8362569e-21)
(0.16428501 -0.0066044224 1.9153446e-20)
(0.18178606 -0.0064609768 -5.6255195e-21)
(0.19955127 -0.006307035 -1.0719194e-20)
(0.21754875 -0.006144935 -4.5574524e-21)
(0.23574933 -0.005976771 -4.6240158e-21)
(0.25412653 -0.0058044391 7.5943184e-22)
(0.27265676 -0.0056296736 1.3253622e-21)
(0.29131948 -0.0054540737 2.8489116e-21)
(0.31009748 -0.0052791244 7.2324102e-21)
(0.32897717 -0.0051062109 1.3894354e-22)
(0.34794899 -0.0049366288 -3.831484e-21)
(0.36700777 -0.0047715894 1.4014422e-22)
(0.38615314 -0.0046122203 -6.5582941e-22)
(0.40539 -0.0044595611 1.4346687e-21)
(0.42472889 -0.0043145523 1.1640698e-21)
(0.44418634 -0.0041780159 -1.7002954e-21)
(0.46378507 -0.0040506261 -1.1026408e-22)
(0.48355402 -0.0039328688 -1.7532773e-22)
(0.50352799 -0.0038249894 -4.6078731e-22)
(0.52374689 -0.0037269322 -6.6357593e-22)
(0.54425437 -0.0036382758 2.2557743e-22)
(0.56509576 -0.0035581743 -2.0447207e-22)
(0.58631526 -0.0034853163 -3.1227488e-22)
(0.60795232 -0.0034179161 3.7245724e-22)
(0.63003752 -0.0033537476 4.3044548e-22)
(0.65258788 -0.003290232 -1.5049279e-22)
(0.67560278 -0.0032245718 -4.1819048e-22)
(0.69905854 -0.003153945 -1.4143195e-23)
(0.72291005 -0.0030756611 -3.9604826e-25)
(0.7470739 -0.0029875326 1.4199849e-22)
(0.77147724 -0.0028874834 -2.3735294e-22)
(0.79590551 -0.0027755548 -4.2197691e-22)
(0.82048411 -0.0026474594 9.8809407e-23)
(0.84421136 -0.0025165491 6.3411846e-23)
(0.86943708 -0.0023389005 -1.4701435e-23)
(0.88832899 -0.0022765721 3.0499173e-23)
(0.92266522 -0.0018150764 7.6985022e-22)
(0.012338357 -0.015659685 -1.3233817e-20)
(0.020452182 -0.017357012 -6.5353434e-20)
(0.030503677 -0.018704971 -3.1680338e-20)
(0.041621188 -0.019525325 3.9896206e-20)
(0.053420516 -0.020097721 1.5227666e-20)
(0.065926229 -0.020504187 -1.9007163e-20)
(0.079113904 -0.020743984 4.9741047e-21)
(0.092909402 -0.020838346 2.6495096e-20)
(0.10725255 -0.020815584 -1.1684474e-23)
(0.12209664 -0.020695418 -8.0588709e-21)
(0.13739737 -0.020492599 -1.346024e-20)
(0.15311214 -0.020220392 -9.0474865e-21)
(0.16920149 -0.019890507 1.8648928e-20)
(0.18562878 -0.019512941 9.7589482e-21)
(0.20235973 -0.019096358 -1.7210786e-20)
(0.21936227 -0.018648418 -6.3728653e-21)
(0.23660658 -0.018175947 3.3403078e-21)
(0.25406514 -0.017685086 8.7750678e-21)
(0.27171284 -0.017181413 7.5022183e-21)
(0.28952714 -0.016670049 -7.7074099e-21)
(0.30748837 -0.01615573 -3.7250597e-21)
(0.32557992 -0.015642864 1.7704095e-21)
(0.34378868 -0.01513557 8.02125e-22)
(0.36210534 -0.014637708 1.4441018e-21)
(0.38052481 -0.014152893 3.0295211e-22)
(0.39904663 -0.013684492 -4.7440767e-22)
(0.41767544 -0.013235615 -9.4032939e-22)
(0.43642133 -0.012809076 1.4444761e-21)
(0.45530016 -0.012407343 1.1916529e-21)
(0.47433385 -0.012032443 -5.1417091e-22)
(0.4935503 -0.011685848 9.1231094e-22)
(0.51298314 -0.011368314 -3.1242582e-22)
(0.53267097 -0.011079706 -7.2753528e-22)
(0.55265602 -0.010818803 -1.0683474e-21)
(0.57298219 -0.01058312 6.5349252e-22)
(0.59369229 -0.010368788 -4.3612193e-22)
(0.61482454 -0.010170523 5.9837765e-22)
(0.63640856 -0.0099817282 -1.067876e-21)
(0.65846077 -0.0097947513 1.2396807e-21)
(0.68098047 -0.0096012813 1.2135022e-22)
(0.70394444 -0.0093929284 1.4910723e-23)
(0.72730867 -0.0091616818 6.8770561e-22)
(0.75099153 -0.0089010296 9.6063657e-22)
(0.77492228 -0.0086047581 7.7724374e-22)
(0.79888976 -0.008273039 9.1090563e-22)
(0.82302056 -0.0078929365 2.2507148e-23)
(0.84632388 -0.0075046399 4.3051317e-22)
(0.87112894 -0.0069762899 3.192907e-22)
(0.88969213 -0.0067925381 -2.5268876e-22)
(0.9235218 -0.0054183894 1.6998496e-22)
(0.071151741 -0.025136985 9.7881693e-21)
(0.077528867 -0.0279715 3.485177e-21)
(0.086690588 -0.030144031 -1.2806078e-20)
(0.096919913 -0.031407074 -1.3655108e-21)
(0.10754572 -0.032302144 1.5636692e-20)
(0.11874988 -0.032961264 -1.547539e-20)
(0.13057813 -0.033361034 -3.1180201e-20)
(0.14295767 -0.033530189 1.5230271e-20)
(0.15583918 -0.033515244 1.9109244e-20)
(0.16919346 -0.033346734 -1.2208546e-20)
(0.18298891 -0.033046413 1.068112e-21)
(0.19719203 -0.032634412 8.8862948e-21)
(0.21177108 -0.032128883 -1.619429e-20)
(0.22669598 -0.031545385 3.5860153e-21)
(0.24193772 -0.030897463 8.0976559e-21)
(0.25746846 -0.030197195 -3.7187281e-22)
(0.2732618 -0.029455449 1.0104648e-23)
(0.28929298 -0.028682071 -8.1329509e-21)
(0.30553907 -0.027886072 4.7094652e-21)
(0.32197928 -0.027075776 9.4252829e-21)
(0.33859521 -0.02625892 -4.2915041e-21)
(0.35537122 -0.02544274 -2.4147182e-21)
(0.37229481 -0.024634021 9.7021391e-22)
(0.38935696 -0.02383914 -2.0613236e-21)
(0.40655257 -0.02306408 1.515523e-21)
(0.42388088 -0.022314426 8.1596182e-22)
(0.44134586 -0.021595345 2.4164604e-21)
(0.45895662 -0.020911528 -2.9514023e-21)
(0.47672774 -0.020267095 3.4891705e-21)
(0.49467945 -0.019665455 8.5445441e-22)
(0.51283768 -0.019109106 1.1715681e-21)
(0.53123375 -0.018599388 4.1937572e-22)
(0.5499037 -0.018136179 1.8615915e-21)
(0.56888707 -0.017717582 -2.9759421e-21)
(0.58822499 -0.017339629 9.0664082e-22)
(0.60795759 -0.016996081 6.7887635e-22)
(0.62812073 -0.016678365 -2.4685244e-22)
(0.64874214 -0.016375745 -1.6399896e-22)
(0.66983709 -0.016075731 -9.8956393e-22)
(0.69140465 -0.015764731 6.5779205e-22)
(0.71342247 -0.015428996 -5.4295353e-23)
(0.73584857 -0.015055366 1.9520724e-21)
(0.75860462 -0.014633139 -9.2026789e-22)
(0.78162396 -0.014152012 4.1045635e-23)
(0.80470182 -0.013612383 3.5451322e-22)
(0.82796713 -0.012992556 -3.1913511e-22)
(0.85044975 -0.012359655 -4.8686006e-22)
(0.87443942 -0.011494436 1.6267237e-21)
(0.89236405 -0.011197657 2.2378743e-22)
(0.92520763 -0.0089423628 -1.7321349e-21)
(0.15585972 -0.033075215 1.6071559e-21)
(0.15962165 -0.03701501 -1.1823752e-20)
(0.16721045 -0.039916948 6.7508041e-21)
(0.1759849 -0.041514398 -1.3791706e-20)
(0.18478032 -0.042680046 -2.0489176e-21)
(0.19398333 -0.043587214 9.639402e-21)
(0.20375895 -0.044166711 -1.0420941e-20)
(0.21403205 -0.04444516 1.4313579e-21)
(0.22476075 -0.04448485 1.3470919e-20)
(0.23593853 -0.044324644 3.7050215e-21)
(0.24755043 -0.04399011 -6.503771e-21)
(0.25957359 -0.043505591 -3.1644387e-21)
(0.27198521 -0.042893855 -5.8995279e-21)
(0.28476284 -0.042174695 -6.9563463e-21)
(0.29788356 -0.0413655 3.078223e-21)
(0.31132427 -0.040481962 4.6670631e-22)
(0.32506234 -0.039538396 1.6191682e-21)
(0.33907596 -0.038547939 -3.6126056e-21)
(0.35334448 -0.037522736 -4.8983976e-21)
(0.36784882 -0.036474103 2.7347378e-21)
(0.3825718 -0.035412642 3.8764209e-21)
(0.39749858 -0.034348325 -2.0858596e-21)
(0.41261705 -0.033290549 1.9237967e-21)
(0.42791819 -0.032248175 -6.3001565e-22)
(0.44339656 -0.031229538 -5.2104178e-21)
(0.45905063 -0.030242445 -3.6690365e-21)
(0.47488322 -0.029294127 -4.3824576e-22)
(0.49090186 -0.028391173 2.8687869e-22)
(0.50711912 -0.027539392 -2.8697975e-21)
(0.52355277 -0.026743631 -1.711495e-21)
(0.54022582 -0.026007499 2.8738525e-22)
(0.5571663 -0.025333031 -2.3026864e-21)
(0.57440659 -0.024720276 -2.2320848e-22)
(0.59198235 -0.024166859 -1.0138748e-21)
(0.60993074 -0.023667578 -6.9973702e-22)
(0.62828807 -0.023214111 -1.691138e-21)
(0.64708675 -0.022794935 -2.6466085e-21)
(0.66635175 -0.022395527 9.0850767e-23)
(0.68609656 -0.021998935 -6.5252753e-24)
(0.70631974 -0.021586644 -1.7512851e-21)
(0.72700001 -0.021139881 2.2410362e-22)
(0.74809805 -0.020640604 -1.4026954e-21)
(0.76954006 -0.020074129 -2.3646678e-21)
(0.79126498 -0.019426159 1.7821788e-21)
(0.81307699 -0.018697409 2.2807363e-23)
(0.83510813 -0.017857429 9.0846381e-22)
(0.85641799 -0.016999925 -6.1789611e-22)
(0.87923846 -0.01582055 -1.0874401e-21)
(0.89624682 -0.015422435 -2.5150744e-23)
(0.92766644 -0.012338286 1.0592225e-21)
(0.26257798 -0.03870434 -2.1609686e-20)
(0.26281866 -0.043703435 4.8925685e-20)
(0.26796217 -0.04722386 1.0617364e-20)
(0.27458422 -0.049071164 -1.6299353e-20)
(0.28084903 -0.050489965 -2.2137449e-21)
(0.28733374 -0.05167252 2.587741e-21)
(0.29437188 -0.052487478 -1.8626211e-21)
(0.30188748 -0.052948877 -4.8742041e-21)
(0.30983427 -0.053127686 -4.1879788e-21)
(0.31822713 -0.053067903 -1.2757474e-20)
(0.32706927 -0.052796565 1.8989223e-20)
(0.33634775 -0.052339521 7.0248728e-21)
(0.34604715 -0.051721949 -1.7640666e-20)
(0.35615158 -0.050966471 1.0513908e-20)
(0.36664326 -0.050093337 8.4659662e-21)
(0.37750299 -0.049121114 -5.3008112e-22)
(0.38871099 -0.048067038 -3.0296431e-21)
(0.40024758 -0.046947189 -4.4913982e-21)
(0.41209365 -0.045776636 -1.7017619e-21)
(0.42423108 -0.044569571 -1.5318784e-21)
(0.43664323 -0.043339406 -3.7201824e-21)
(0.44931539 -0.042098841 0)
(0.46223519 -0.040859906 -1.7217266e-21)
(0.47539303 -0.039633987 4.568728e-21)
(0.48878244 -0.038431825 6.7596697e-21)
(0.50240053 -0.037263499 -1.0556857e-21)
(0.51624831 -0.036138375 -4.2951295e-21)
(0.53033106 -0.035065004 4.7451186e-21)
(0.54465861 -0.03405097 -1.8060591e-22)
(0.55924552 -0.033102653 5.5001623e-21)
(0.5741111 -0.032224902 -6.6988543e-22)
(0.58927919 -0.031420609 2.7758402e-21)
(0.60477762 -0.030690199 -1.5945803e-21)
(0.62063718 -0.030031082 9.1738234e-22)
(0.6368901 -0.029437134 -1.159646e-21)
(0.65356785 -0.028898326 1.1264551e-21)
(0.67069847 -0.028400597 1.2540634e-21)
(0.6883033 -0.027926099 1.1258739e-21)
(0.7063934 -0.027453887 -2.8964714e-21)
(0.72496644 -0.02696099 2.1961698e-21)
(0.74400207 -0.026424035 -1.1752571e-21)
(0.76346398 -0.025820456 -4.3686445e-21)
(0.78328363 -0.025131852 5.7800873e-21)
(0.80340658 -0.024340088 -9.4932406e-23)
(0.82364795 -0.023446271 -6.9076963e-22)
(0.84414306 -0.022411327 -8.58009e-24)
(0.86398926 -0.021354782 -8.7182158e-22)
(0.88534332 -0.019891073 -1.85385e-21)
(0.90120194 -0.019405551 1.0135845e-21)
(0.93081799 -0.015562562 -1.335913e-22)
(0.38632099 -0.041053435 -1.8105795e-20)
(0.38215089 -0.047121985 1.3128056e-20)
(0.38384895 -0.051190571 3.236548e-21)
(0.38750841 -0.053294257 -7.8876589e-21)
(0.39054766 -0.055030704 1.2469075e-20)
(0.39363816 -0.056571594 8.0778049e-21)
(0.39730799 -0.057728438 -1.2996412e-20)
(0.40149811 -0.058499855 -6.309688e-21)
(0.40614204 -0.058952464 1.3225656e-20)
(0.41126368 -0.059129062 -1.6286972e-20)
(0.41688179 -0.059056989 -1.4695368e-20)
(0.42299122 -0.058762172 1.5212587e-20)
(0.42958029 -0.058270345 7.1774275e-21)
(0.43663628 -0.057605736 -5.0078591e-21)
(0.44414411 -0.056790841 -1.5823853e-21)
(0.45208631 -0.055846733 -3.9104657e-21)
(0.46044415 -0.054793348 5.1983664e-21)
(0.46919843 -0.053649628 3.9094459e-21)
(0.47833013 -0.052433593 -3.3546243e-21)
(0.48782085 -0.0511624 3.3673604e-21)
(0.49765336 -0.049852403 3.2303509e-21)
(0.50781207 -0.048519184 -3.7434342e-21)
(0.51828341 -0.047177569 4.0869669e-22)
(0.5290563 -0.045841632 -3.5881366e-21)
(0.54012248 -0.044524679 9.8109608e-21)
(0.55147691 -0.043239217 7.9164952e-21)
(0.56311808 -0.041996885 1.4214054e-21)
(0.57504833 -0.040808341 -2.3370655e-21)
(0.58727408 -0.039683084 6.0175357e-21)
(0.59980602 -0.038629183 1.1672715e-20)
(0.61265907 -0.037652899 3.4311051e-21)
(0.62585225 -0.036758185 5.92141e-21)
(0.63940812 -0.035946095 3.4857258e-21)
(0.65335191 -0.035214121 1.5612834e-21)
(0.66771016 -0.034555579 -3.8357504e-22)
(0.68250878 -0.033959146 6.3437918e-21)
(0.69777065 -0.033408696 1.5041943e-21)
(0.71351277 -0.032883564 7.0743278e-22)
(0.72974312 -0.032359349 1.2447403e-22)
(0.7464579 -0.031809153 3.3676451e-21)
(0.76363742 -0.031205498 8.4299116e-23)
(0.78124827 -0.030521711 1.8644179e-21)
(0.79922745 -0.029736004 -3.0529221e-22)
(0.81752757 -0.028826589 -1.5302571e-21)
(0.83597599 -0.027795062 -7.192412e-22)
(0.85471097 -0.02659394 -1.9237757e-21)
(0.87287421 -0.025367498 9.5901159e-22)
(0.89253161 -0.023654137 -4.989628e-22)
(0.90705958 -0.023096316 -5.9742062e-22)
(0.93456274 -0.018578111 7.6579315e-22)
(0.5208825 -0.039148893 3.5996228e-21)
(0.51161454 -0.046310176 -1.9327871e-20)
(0.50888216 -0.050913415 -2.4073133e-21)
(0.50875854 -0.05344447 5.6292443e-21)
(0.50800337 -0.055707997 3.2433759e-21)
(0.50718787 -0.057781788 1.3458064e-22)
(0.50700238 -0.059451437 6.6360204e-21)
(0.5074489 -0.060716868 7.9809285e-21)
(0.50843827 -0.061630186 1.0188783e-20)
(0.50998031 -0.06222398 -1.1801696e-20)
(0.51209871 -0.062524206 -2.282247e-20)
(0.51479306 -0.062557003 -4.354455e-21)
(0.51805158 -0.06234821 1.6966723e-20)
(0.52186037 -0.061923219 1.3651118e-20)
(0.52620356 -0.061306762 -6.0398018e-21)
(0.53106287 -0.060522659 1.0931007e-21)
(0.53641842 -0.059593855 -4.2705453e-21)
(0.54224966 -0.058542487 3.1124874e-21)
(0.54853605 -0.057389884 -3.1214463e-22)
(0.55525757 -0.05615654 -2.108434e-21)
(0.5623952 -0.054862106 9.2295635e-21)
(0.56993136 -0.053525387 -5.5954964e-22)
(0.57785036 -0.052164323 7.0431602e-22)
(0.58613874 -0.05079597 -4.6154341e-22)
(0.59478567 -0.049436467 -5.2478001e-21)
(0.60378321 -0.048100992 5.2393186e-21)
(0.61312667 -0.046803679 2.1647793e-21)
(0.62281481 -0.045557503 -4.3221557e-21)
(0.6328501 -0.044374075 -5.1254632e-21)