/*--------------------------------*- C++ -*----------------------------------*\
  =========                 |
  \\      /  F ield         | OpenFOAM: The Open Source CFD Toolbox
   \\    /   O peration     | Website:  https://openfoam.org
    \\  /    A nd           | Version:  6
     \\/     M anipulation  |
\*---------------------------------------------------------------------------*/
FoamFile
{
    version     2.0;
    format      ascii;
    class       surfaceScalarField;
    location    "59";
    object      phi_0;
}
// * * * * * * * * * * * * * * * * * * * * * * * * * * * * * * * * * * * * * //

dimensions      [0 3 -1 0 0 0 0];

internalField   nonuniform List<scalar> 
18180
(
0.00031933977
-0.00016437116
-0.00015496839
0.001311656
-0.0013718754
0.00037955934
0.0030384636
-0.0033436676
0.0016168602
0.005559851
-0.0059923743
0.003470987
0.0089342089
-0.0092631029
0.0058887452
0.013216227
-0.013112355
0.0088303363
0.018454221
-0.017502597
0.012264603
0.024687145
-0.022399524
0.0161666
0.031941428
-0.027768922
0.020514639
0.040227888
-0.033574046
0.025287587
0.049539035
-0.039773862
0.030462715
0.05984715
-0.046322131
0.036014017
0.071103519
-0.053167322
0.041910954
0.083239308
-0.060253383
0.048117593
0.096168672
-0.067521458
0.054592094
0.10979462
-0.074912674
0.061286729
0.12401706
-0.082371826
0.068149383
0.13874808
-0.089851684
0.075120668
0.15398562
-0.097334938
0.082097391
-0.10481917
0.088877207
0.16992759
0.00039819235
-0.00056256334
0.0016123452
-0.0025860281
0.0036955234
-0.0054268456
0.0066985347
-0.0089953855
0.010668063
-0.013232632
0.015642992
-0.018087283
0.021650374
-0.023509979
0.028701458
-0.029450608
0.036788042
-0.035855506
0.045879573
-0.042665577
0.055921419
-0.049815707
0.066834666
-0.057235378
0.078517698
-0.064850355
0.090849633
-0.072585318
0.10369541
-0.080367233
0.11691191
-0.088129177
0.13035421
-0.09581412
0.14388234
-0.10337982
0.15736027
-0.11081287
-0.11804395
0.17058505
0.00048139942
-0.0010439626
0.0019217191
-0.0040263476
0.0043592048
-0.007864331
0.007828425
-0.012464606
0.012356017
-0.017760223
0.017955261
-0.023686527
0.024620988
-0.030175706
0.032325294
-0.037154914
0.041014516
-0.044544727
0.050607936
-0.052258997
0.060998613
-0.060206385
0.072056495
-0.068293259
0.083633682
-0.076427542
0.095571445
-0.084523081
0.10770824
-0.092504023
0.11988763
-0.10030857
0.13196503
-0.10789152
0.14381108
-0.11522586
0.15530405
-0.12230585
-0.12908171
0.16634181
0.00056701696
-0.0016109793
0.0022311795
-0.0056905099
0.0050077065
-0.010640858
0.008906325
-0.016363224
0.01392398
-0.022777878
0.020037945
-0.029800492
0.027200474
-0.037338235
0.03533547
-0.045289909
0.044337603
-0.053546861
0.054074285
-0.061995678
0.064390496
-0.070522596
0.075116165
-0.079018928
0.086075378
-0.087386755
0.09709644
-0.095544142
0.10802162
-0.10342921
0.1187155
-0.11100245
0.12907091
-0.11824694
0.13901163
-0.12516658
0.1484891
-0.13178331
-0.13809674
0.15750412
0.00065178824
-0.0022627673
0.002527717
-0.0075664384
0.0056109012
-0.013724042
0.0098768418
-0.020629164
0.015283041
-0.028184077
0.021761467
-0.036278918
0.029214286
-0.044791054
0.037513044
-0.053588667
0.046501539
-0.062535356
0.056002261
-0.0714964
0.065825762
-0.080346097
0.075781902
-0.088975068
0.0856916
-0.097296453
0.09539765
-0.10525019
0.10477333
-0.11280488
0.11372792
-0.11995704
0.12220881
-0.12672783
0.13020025
-0.13315802
0.1377189
-0.13930196
-0.14520368
0.14482584
0.00073156925
-0.0029943364
0.0027955011
-0.00963037
0.0061337768
-0.017062317
0.010678712
-0.0251741
0.01634008
-0.033845444
0.022998274
-0.042937111
0.030502706
-0.052295486
0.038675017
-0.061760978
0.047316717
-0.071177056
0.056220289
-0.080399973
0.065182261
-0.089308069
0.074016417
-0.097809224
0.082565369
-0.10584541
0.090709043
-0.11339387
0.098369134
-0.12046498
0.10550937
-0.12709728
0.11213212
-0.13335058
0.11827225
-0.13929815
0.12398957
-0.14501928
-0.15058532
0.12937121
0.0008016676
-0.0037960038
0.0030172571
-0.011845959
0.0065397766
-0.020584837
0.011251223
-0.029885546
0.017008443
-0.039602663
0.023638625
-0.049567294
0.030941845
-0.059598705
0.038699192
-0.069518325
0.046685152
-0.079163015
0.054682237
-0.088397058
0.062495576
-0.097121408
0.0699652
-0.10527885
0.076974372
-0.11285458
0.083453017
-0.11987251
0.089376256
-0.12638821
0.094758798
-0.13247982
0.099646592
-0.13823837
0.10410734
-0.14375889
0.10822144
-0.14913338
-0.15444311
0.11207923
0.00085696615
-0.0046529697
0.003175208
-0.014164201
0.0067935316
-0.02420316
0.011539719
-0.034631734
0.017216894
-0.045279838
0.023602939
-0.055953338
0.030458065
-0.066453831
0.037537753
-0.076598014
0.044608595
-0.086233856
0.051464172
-0.095252636
0.057938215
-0.10359545
0.063913009
-0.11125364
0.06932207
-0.11826364
0.074147219
-0.12469766
0.078411159
-0.13065215
0.082167222
-0.13623588
0.085488223
-0.14155937
0.088456133
-0.1467268
0.091153868
-0.15183112
-0.1569506
0.093661362
0.0008911059
-0.0055440752
0.0032511173
-0.016524212
0.0068631146
-0.027815157
0.011500763
-0.039269383
0.016917521
-0.050696595
0.0228511
-0.061886918
0.029036006
-0.072638737
0.035220043
-0.082782051
0.041181355
-0.092195168
0.046742663
-0.10081394
0.05178015
-0.10863294
0.056225813
-0.1156993
0.06006349
-0.12210131
0.063319928
-0.1279541
0.066052915
-0.13338514
0.068338693
-0.13852166
0.070260553
-0.14348123
0.071899971
-0.14836622
0.073330866
-0.15326201
-0.1582365
0.074616759
0.0009005661
-0.006444641
0.0032358006
-0.018859446
0.0067336548
-0.031313011
0.011117594
-0.043653321
0.016100154
-0.055679155
0.021392408
-0.067179171
0.026720311
-0.07796664
0.031842534
-0.087904273
0.036565844
-0.096918478
0.040754878
-0.10500298
0.044334706
-0.11221277
0.04728632
-0.11865092
0.04963656
-0.12445156
0.051444888
-0.12976243
0.052789467
-0.13472972
0.053754708
-0.1394869
0.054421672
-0.1441482
0.054861968
-0.14880651
0.055134941
-0.15353499
0.055286599
-0.15838816
-0.00020274574
0.00020274547
2.551668e-10
-0.0006789223
0.00047617627
2.8994407e-10
-0.0013446705
0.00066574794
2.7746744e-10
-0.0021357358
0.00079106503
2.8347491e-10
-0.003000434
0.00086469795
2.8705262e-10
-0.0038965548
0.00089612052
2.8794989e-10
-0.0047891214
0.00089256637
2.8199649e-10
-0.0056485165
0.00085939493
2.7167401e-10
-0.0064490077
0.00080049095
2.5656483e-10
-0.0071675929
0.00071858503
2.3630331e-10
-0.0077830797
0.00061548662
2.1329688e-10
-0.0082753473
0.00049226745
1.8420003e-10
-0.0086247647
0.00034941736
1.5408043e-10
-0.0088117556
0.00018699078
1.1709765e-10
-0.0088165406
4.7850394e-06
7.9590535e-11
-0.0086191611
-0.00019737951
3.4750448e-11
-0.0081997424
-0.00041941864
-9.7470141e-12
-0.0075380876
-0.00066165473
-6.1668345e-11
-0.0066132687
-0.0009248188
-1.1413992e-10
-0.0011952824
-0.0054179861
-1.6779745e-10
-0.00018829773
0.00039104321
-0.00062602808
0.00091390663
-0.0012306728
0.0012703927
-0.001938081
0.0014984732
-0.0026959515
0.0016225685
-0.0034608862
0.0016610553
-0.0041962372
0.0016279175
-0.0048702926
0.0015334503
-0.0054548345
0.0013850329
-0.005924001
0.0011877516
-0.0062533679
0.00094485351
-0.0064192041
0.00065810372
-0.0063978651
0.00032807839
-0.0061653111
-4.5563179e-05
-0.0056967802
-0.00046374582
-0.0049667067
-0.00092745298
-0.003948936
-0.0014371893
-0.002616646
-0.0019939447
-0.00094219461
-0.0025992702
-0.0032233045
0.0010858276
-0.0001591668
0.00055021002
-0.00051961692
0.0012743568
-0.0010020691
0.0017528449
-0.0015430879
0.0020394921
-0.0020895484
0.002169029
-0.0025960382
0.0021675451
-0.003022908
0.0020547874
-0.0033346003
0.0018451426
-0.0034982994
0.0015487321
-0.0034828531
0.0011723053
-0.0032578857
0.00071988617
-0.0027930762
0.0001932943
-0.0020575225
-0.00040747531
-0.0010192257
-0.0010838598
0.00035534022
-0.0018383117
0.0021015088
-0.0026736215
0.0042563826
-0.0035920631
0.0068585255
-0.0045960876
0.009947891
-0.0056886357
-0.0068194259
0.013544012
-0.00011769372
0.00066790376
-0.00036732735
0.0015239904
-0.00067397604
0.0020594936
-0.00097522407
0.0023407401
-0.0012168689
0.0024106738
-0.0013507862
0.0023014625
-0.0013332692
0.0020372704
-0.0011235697
0.0016354431
-0.0006826992
0.0011078616
2.7525673e-05
0.00046208044
0.0010452694
-0.00029785751
0.0024093256
-0.0011707618
0.0041596626
-0.0021578123
0.0063379062
-0.0032621033
0.0089878457
-0.0044882512
0.012155992
-0.0058417681
0.015891956
-0.0073280264
0.020248143
-0.0089522751
0.025279547
-0.010720039
-0.012556715
0.031016836
-6.6909003e-05
0.00073481281
-0.00017904547
0.0016361269
-0.00026603962
0.0021464878
-0.00026644686
0.0023411474
-0.00012469389
0.0022689209
0.00021056035
0.0019662083
0.00078775543
0.0014600754
0.0016536008
0.0007695978
0.0028540477
-9.2585175e-05
0.0044350753
-0.0011189471
0.0064432548
-0.002306037
0.008926165
-0.0036536719
0.011932717
-0.0051643638
0.01551348
-0.0068428667
0.019721056
-0.0086958269
0.024610691
-0.010731404
0.030241159
-0.012958494
0.036675265
-0.015386381
0.043980621
-0.018025395
-0.020775914
0.05219982
-9.8606809e-06
0.00074467355
3.5114556e-05
0.0015911518
0.00020137014
0.0019802323
0.00054971439
0.0019928032
0.0011373647
0.0016812706
0.0020191083
0.0010844648
0.0032482667
0.00023091706
0.0048775792
-0.00085971463
0.0069598597
-0.0021748656
0.0095483694
-0.0037074567
0.012697024
-0.0054546915
0.016460495
-0.0074171426
0.020894131
-0.009598
0.026053792
-0.012002527
0.03199574
-0.014637775
0.038776932
-0.017512596
0.046456193
-0.020637755
0.055096276
-0.024026464
0.064767702
-0.027696821
-0.031530167
0.075521955
5.0991433e-05
0.00069368219
0.0002666725
0.0013754708
0.00071068132
0.0015362235
0.001443627
0.0012598576
0.0025244764
0.00060042127
0.0040113143
-0.00040237311
0.0059619383
-0.0017197068
0.008434244
-0.0033320203
0.011486353
-0.0052269747
0.015176579
-0.0073976822
0.019563151
-0.009841264
0.024703685
-0.012557676
0.030654433
-0.015548748
0.037469382
-0.018817476
0.045199303
-0.022367695
0.053891191
-0.026204484
0.063589065
-0.030335629
0.074337343
-0.034774742
0.086189787
-0.039549265
-0.044542325
0.099201945
0.00011413976
0.00057954253
0.00050991416
0.00097969646
0.0012492805
0.00079685725
0.002392898
0.00011624022
0.0040012458
-0.0010079265
0.0061349639
-0.0025360911
0.0088548284
-0.0044395713
0.01222157
-0.006698762
0.016295463
-0.0093008676
0.021135571
-0.01223779
0.026798699
-0.015504392
0.03333806
-0.019097037
0.040801673
-0.023012361
0.049230543
-0.027246347
0.058656758
-0.03179391
0.069101844
-0.03664957
0.080576573
-0.041810358
0.09308406
-0.047282229
0.10663124
-0.053096446
-0.059172915
0.12126183
0.00017893027
0.00040061238
0.00076179507
0.00039683176
0.0018094211
-0.00025076866
0.003382205
-0.0014565436
0.0055411027
-0.0031668241
0.0083473659
-0.0053423543
0.01186191
-0.0079541153
0.016144382
-0.010981234
0.021251869
-0.014408355
0.027237266
-0.018223186
0.034147332
-0.022414458
0.04202048
-0.026970186
0.050884339
-0.031876219
0.0607531
-0.037115108
0.07162467
-0.04266548
0.083477655
-0.048502556
0.096269161
-0.054601864
0.10993613
-0.060949195
0.12440878
-0.067569099
-0.074466695
0.13970256
0.00024564405
0.0010220353
0.0023881268
0.0044025703
0.0071244914
0.010612474
0.014922961
0.020108328
0.026214613
0.033279013
0.04132727
0.050371101
0.060405836
0.071408321
0.083334935
0.096119108
0.10966663
0.1238381
0.13836639
0.15277691
-0.0034664541
-0.0019515316
-3.0532087e-10
-0.001232186
-0.0022342677
-4.0565103e-10
0.0012625888
-0.0024947743
-5.0988949e-10
0.0039608945
-0.002698305
-6.0890359e-10
0.0068359592
-0.002875064
-7.1290131e-10
0.0098705547
-0.0030345947
-8.0082073e-10
0.01304581
-0.0031752541
-8.8435215e-10
0.016343758
-0.0032979469
-9.5564384e-10
0.019748759
-0.003405
-1.0133615e-09
0.023246661
-0.0034979014
-1.055985e-09
0.026824249
-0.0035775866
-1.0698071e-09
0.030469172
-0.0036449218
-1.050378e-09
0.034169868
-0.0037006952
-9.8400634e-10
0.03791543
-0.0037455614
-8.6782917e-10
0.041695505
-0.0037800747
-6.9285959e-10
0.045500231
-0.0038047256
-4.6190053e-10
0.04932019
-0.0038199584
-1.7540347e-10
0.053146374
-0.003826185
1.5372092e-10
0.056970173
-0.0038237994
5.1094949e-10
0.060783362
-0.0038131897
8.6905885e-10
0.064578108
-0.0037947471
1.1959275e-09
0.068346979
-0.0037688722
1.4489674e-09
0.072082957
-0.0037359801
1.5805374e-09
0.075779458
-0.0036965021
1.5400379e-09
0.079430343
-0.0036508871
1.2763886e-09
0.083029943
-0.0035996006
7.5057195e-10
0.086573067
-0.0035431235
-6.7211273e-11
0.090055017
-0.0034819497
-1.1708128e-09
0.093471604
-0.0034165838
-2.5326372e-09
0.096819146
-0.0033475382
-4.0592684e-09
0.10009448
-0.0032753316
-5.6291346e-09
0.10329498
-0.0032004863
-7.0283018e-09
0.10641851
-0.0031235282
-8.0309612e-09
0.10946351
-0.003044986
-8.3131706e-09
0.11242891
-0.0029653933
-7.6026544e-09
0.1153142
-0.002885291
-5.5606613e-09
0.11811944
-0.0028052324
-2.0350052e-09
0.12084523
-0.0027257902
3.1278129e-09
0.12349279
-0.0026475716
9.6937267e-09
0.12606399
-0.0025712211
1.7362704e-08
0.12856146
-0.0024974943
2.5271947e-08
0.13098856
-0.0024271358
3.2447776e-08
0.13335001
-0.0023614794
3.7566851e-08
0.1356508
-0.0023008345
3.9285354e-08
0.13790099
-0.0022502246
3.6348575e-08
0.1401033
-0.0022023378
2.802294e-08
0.14229632
-0.0021930335
1.4039723e-08
0.14443185
-0.002135529
-3.7021724e-09
0.14675879
-0.0023269176
-2.6256109e-08
-0.0020756914
-4.3070427e-08
0.0029177999
-0.0037835039
0.0050277666
-0.0043442344
0.0073850452
-0.0048520529
0.0099271114
-0.0052403711
0.012632935
-0.0055808874
0.015490278
-0.0058919381
0.018482469
-0.006167445
0.021593159
-0.0064086368
0.024808394
-0.0066202352
0.028115483
-0.0068049901
0.031502367
-0.0069644708
0.034957644
-0.0071001986
0.038470541
-0.0072135923
0.042030805
-0.0073058251
0.045628619
-0.0073778887
0.049254563
-0.0074306693
0.052899582
-0.0074649784
0.056554974
-0.0074815769
0.060212376
-0.0074812016
0.063863774
-0.0074645872
0.067501508
-0.0074324813
0.071118293
-0.007385657
0.074707233
-0.0073249201
0.078261843
-0.0072511126
0.08177607
-0.0071651139
0.085244308
-0.0070678389
0.088661419
-0.0069602346
0.092022745
-0.0068432754
0.095324119
-0.0067179581
0.098561877
-0.0065852962
0.10173286
-0.0064463162
0.10483443
-0.0063020532
0.10786445
-0.0061535495
0.11082132
-0.0060018551
0.11370395
-0.0058480296
0.11651181
-0.0056931486
0.11924489
-0.0055383144
0.12190377
-0.0053846682
0.12448962
-0.0052334222
0.12700426
-0.005085863
0.12945027
-0.0049435033
0.13183097
-0.0048078322
0.13415101
-0.0046815188
0.13641536
-0.004565184
0.13863399
-0.0044688537
0.14080963
-0.0043779752
0.14298045
-0.0043638589
0.14509912
-0.0042541946
0.14740976
-0.004637566
-0.0041473131
0.015127422
-0.0053669136
0.016971839
-0.0061886513
0.019040113
-0.0069203266
0.021262253
-0.0074625111
0.023626668
-0.0079453028
0.026129806
-0.0083950756
0.028759123
-0.0087967626
0.031501204
-0.0091507176
0.034345018
-0.0094640487
0.037280411
-0.0097403834
0.040297343
-0.0099814031
0.043386038
-0.010188893
0.046537061
-0.010364615
0.049741255
-0.010510019
0.052989698
-0.010626331
0.056273696
-0.010714667
0.059584789
-0.010776072
0.062914761
-0.010811548
0.066255651
-0.010822092
0.069599776
-0.010808713
0.072939755
-0.010772461
0.076268533
-0.010714434
0.079579405
-0.010635792
0.082866047
-0.010537755
0.086122538
-0.010421604
0.089343379
-0.01028868
0.092523516
-0.010140372
0.095658356
-0.0099781159
0.098743779
-0.0098033811
0.10177615
-0.0096176662
0.10475232
-0.0094224883
0.10766965
-0.0092193814
0.11052599
-0.0090098915
0.11331971
-0.0087955775
0.1160497
-0.0085780153
0.11871536
-0.0083588069
0.12131664
-0.0081395962
0.12385406
-0.0079220886
0.12632874
-0.0077080977
0.12874243
-0.0074995521
0.13109764
-0.0072987206
0.13339765
-0.0071078399
0.13564704
-0.0069309112
0.13785075
-0.0067688868
0.1400186
-0.0066367091
0.14215346
-0.006512838
0.14429255
-0.0065029412
0.14639082
-0.00635247
0.1486818
-0.0069285485
-0.0062249215
0.032212878
-0.0065629558
0.03364179
-0.0076175629
0.035262168
-0.0085407055
0.037001052
-0.0092013946
0.038859192
-0.0098034427
0.040842986
-0.01037887
0.042945348
-0.010899124
0.045156825
-0.011362195
0.047469919
-0.011777142
0.049877483
-0.012147948
0.052371898
-0.012475818
0.054945297
-0.012762292
0.057589766
-0.013009084
0.060297366
-0.013217619
0.063060147
-0.013389113
0.065870189
-0.013524709
0.068719646
-0.013625528
0.07160079
-0.013692692
0.074506055
-0.013727357
0.077428077
-0.013730735
0.080359732
-0.013704116
0.083294178
-0.01364888
0.086224884
-0.013566499
0.089145671
-0.013458541
0.092050732
-0.013326666
0.094934665
-0.013172613
0.097792491
-0.012998198
0.10061967
-0.012805298
0.10341213
-0.012595839
0.10616625
-0.012371789
0.10887891
-0.012135141
0.11154744
-0.011887917
0.1141697
-0.011632152
0.11674403
-0.011369905
0.11926927
-0.011103259
0.1217448
-0.010834335
0.12417052
-0.010565313
0.12654689
-0.010298461
0.12887498
-0.010036192
0.13115651
-0.0097810772
0.13339393
-0.0095361447
0.13559048
-0.0093043851
0.13775069
-0.0090911272
0.1398795
-0.0088976882
0.14198658
-0.0087437937
0.14407506
-0.0086013164
0.14618072
-0.0086086018
0.14826214
-0.0084338927
0.15053719
-0.0092035994
-0.0083239077
0.052853097
-0.0072162326
0.053707405
-0.0084718717
0.054716119
-0.0095494191
0.055813675
-0.010298951
0.057014996
-0.011004764
0.058334464
-0.011698339
0.059770677
-0.012335337
0.061318851
-0.012910369
0.062974858
-0.013433149
0.064734187
-0.013907278
0.06659141
-0.01433304
0.068540352
-0.014711234
0.07057435
-0.015043082
0.07268641
-0.01532968
0.074869302
-0.015572005
0.077115639
-0.015771046
0.079417969
-0.015927858
0.08176885
-0.016043573
0.084160924
-0.016119431
0.086586979
-0.016156789
0.089039999
-0.016157137
0.091513223
-0.016122104
0.09400018
-0.016053456
0.096494732
-0.015953093
0.098991106
-0.01582304
0.10148392
-0.01566543
0.10396822
-0.015482497
0.10643948
-0.015276551
0.10889361
-0.015049973
0.11132701
-0.014805191
0.11373654
-0.014544675
0.11611955
-0.014270921
0.11847386
-0.01398646
0.12079779
-0.013693841
0.12309019
-0.013395655
0.1253504
-0.01309454
0.1275783
-0.012793213
0.12977434
-0.012494503
0.13193958
-0.01220143
0.13407571
-0.011917212
0.13618521
-0.011645645
0.13827131
-0.011390483
0.14033856
-0.01115838
0.14239194
-0.010951061
0.14444101
-0.010792865
0.14648928
-0.010649592
0.14857079
-0.010690114
0.15064878
-0.010511882
0.15292157
-0.011476381
-0.010467065
0.075463356
-0.0071576342
0.075581404
-0.0085899195
0.075819531
-0.0097875464
0.076134461
-0.010613881
0.076554371
-0.011424673
0.077096185
-0.012240153
0.07776302
-0.013002172
0.078554897
-0.013702246
0.079470216
-0.014348469
0.080505918
-0.014942979
0.08165785
-0.015484973
0.082920816
-0.015974201
0.084288735
-0.016411001
0.085754937
-0.016795881
0.087312362
-0.01712943
0.088953686
-0.01741237
0.09067143
-0.017645602
0.092458071
-0.017830214
0.094306135
-0.017967495
0.096208275
-0.018058929
0.09815734
-0.018106201
0.10014642
-0.018111189
0.10216893
-0.018075963
0.1042186
-0.018002763
0.10628956
-0.017893996
0.10837633
-0.0177522
0.11047387
-0.01758004
0.1125776
-0.017380277
0.11468338
-0.017155755
0.11678756
-0.016909377
0.11888699
-0.016644098
0.12097897
-0.016362907
0.12306134
-0.016068826
0.12513241
-0.015764915
0.12719103
-0.015454274
0.12923656
-0.015140071
0.13126892
-0.014825568
0.13328858
-0.014514169
0.13529666
-0.014209507
0.13729491
-0.013915465
0.13928588
-0.013636614
0.14127289
-0.013377493
0.14326059
-0.013146078
0.14525409
-0.012944557
0.14726291
-0.012801687
0.14929109
-0.012677775
0.15137072
-0.012769745
0.15347049
-0.012611646
0.15576652
-0.013772413
-0.012686019
0.098285952
-0.0062416418
0.09753044
-0.0078344067
0.096866536
-0.0091236432
0.096295321
-0.010042665
0.095853062
-0.010982414
0.095551054
-0.011938145
0.095394733
-0.012845851
0.095388198
-0.013695711
0.095531075
-0.014491346
0.095820189
-0.015232092
0.096251271
-0.015916054
0.096819008
-0.016541938
0.097517019
-0.017109012
0.09833818
-0.017617042
0.099274924
-0.018066174
0.10031941
-0.018456852
0.10146363
-0.018789824
0.10269956
-0.019066146
0.10401924
-0.019287179
0.10541488
-0.019454563
0.10687889
-0.019570213
0.108404
-0.019636297
0.10998326
-0.019655227
0.11161012
-0.019629627
0.11327845
-0.019562317
0.11498253
-0.019456289
0.11671717
-0.01931467
0.1184776
-0.01914071
0.12025959
-0.018937749
0.12205941
-0.018709196
0.12387383
-0.01845852
0.12570015
-0.018189227
0.12753619
-0.017904864
0.12938029
-0.017609016
0.13123134
-0.017305322
0.13308877
-0.016997497
0.13495257
-0.016689371
0.13682334
-0.016384941
0.13870231
-0.016088479
0.1405914
-0.015804548
0.1424933
-0.01553852
0.14441155
-0.015295741
0.14635099
-0.015085513
0.14831697
-0.014910539
0.15031908
-0.014803802
0.15236202
-0.014720713
0.15447587
-0.014883589
0.15663523
-0.014771008
0.15899274
-0.01612993
-0.015021822
0.11944721
-0.0044270178
0.11776452
-0.0061517229
0.11613569
-0.0074948133
0.11464472
-0.0085516911
0.11332791
-0.0096656067
0.11218284
-0.010793073
0.11121504
-0.011878052
0.11043088
-0.012911548
0.10982985
-0.013890321
0.10940746
-0.014809702
0.10915799
-0.01566658
0.10907486
-0.016458811
0.10915059
-0.017184739
0.10937697
-0.017843418
0.10974538
-0.018434589
0.11024702
-0.01895849
0.11087299
-0.019415792
0.11161443
-0.019807589
0.11246263
-0.020135379
0.1134091
-0.020401028
0.11444563
-0.020606743
0.11556438
-0.020755049
0.11675791
-0.020848759
0.11801923
-0.020890942
0.1193418
-0.020884897
0.12071963
-0.020834114
0.12214721
-0.020742251
0.12361959
-0.020613092
0.12513237
-0.020450523
0.12668168
-0.020258514
0.12826425
-0.020041085
0.12987733
-0.019802308
0.13151876
-0.019546291
0.13318693
-0.019277186
0.13488081
-0.018999203
0.13659995
-0.01871664
0.13834451
-0.018433928
0.14011526
-0.018155688
0.14191364
-0.017886859
0.14374181
-0.01763272
0.14560276
-0.017399468
0.1475003
-0.017193285
0.1494396
-0.017024817
0.15142639
-0.016897326
0.15347043
-0.016847841
0.15557716
-0.016827445
0.15777473
-0.017081163
0.16004389
-0.017040162
0.16251354
-0.018599577
-0.017524684
0.13713045
-0.0018549066
0.13462031
-0.0036415841
0.13207069
-0.0049451974
0.12972351
-0.0062045112
0.12760593
-0.0075480241
0.12569939
-0.0088865327
0.12400679
-0.010185457
0.1225333
-0.011438052
0.12127743
-0.012634454
0.12023351
-0.013765782
0.11939412
-0.014827194
0.11875102
-0.015815707
0.1182953
-0.01672902
0.11801755
-0.017565662
0.117908
-0.018325044
0.11795678
-0.019007266
0.11815399
-0.019613005
0.11848987
-0.020143469
0.11895485
-0.020600358
0.11953965
-0.020985832
0.12023537
-0.021302458
0.1210335
-0.021553181
0.12192603
-0.021741286
0.12290544
-0.021870351
0.12396476
-0.021944221
0.1250976
-0.021966958
0.12629815
-0.021942802
0.1275612
-0.021876142
0.12888216
-0.021771477
0.13025703
-0.021633386
0.13168246
-0.021466511
0.13315568
-0.021275534
0.13467457
-0.021065182
0.13623761
-0.020840221
0.13784389
-0.020605481
0.13949314
-0.020365888
0.14118572
-0.020126516
0.14292269
-0.019892651
0.14470577
-0.01966994
0.14653746
-0.019464414
0.14842113
-0.019283135
0.150361
-0.01913315
0.15236265
-0.019026473
0.15443229
-0.018966968
0.15658
-0.018995549
0.15881205
-0.019059487
0.16115474
-0.019423857
0.16359505
-0.019480468
0.16623831
-0.021242837
-0.020252853
0.15024573
0.00067627219
0.14696317
-0.0003590272
0.1436734
-0.0016554274
0.140634
-0.0031651149
0.13784828
-0.0047622976
0.13531004
-0.0063482956
0.13302122
-0.007896639
0.13098198
-0.0093988079
0.12918994
-0.010842415
0.12763999
-0.01221583
0.12632439
-0.013511597
0.12523384
-0.014725157
0.12435826
-0.015853441
0.1236871
-0.016894501
0.12320949
-0.01784743
0.12291443
-0.018712211
0.122791
-0.019489568
0.12282841
-0.020180881
0.12301617
-0.020788121
0.12334414
-0.021313804
0.12380261
-0.021760928
0.12438236
-0.022132932
0.12507472
-0.022433643
0.1258716
-0.02266723
0.12676553
-0.022838154
0.1277497
-0.022951124
0.12881795
-0.023011047
0.12996479
-0.023022987
0.13118544
-0.022992125
0.13247578
-0.022923727
0.13383239
-0.022823118
0.13525251
-0.022695663
0.1367341
-0.022546763
0.13827574
-0.022381863
0.13987672
-0.022206467
0.14153701
-0.022026179
0.14325727
-0.021846768
0.14503885
-0.021674233
0.14688388
-0.021514972
0.14879527
-0.021375809
0.15077685
-0.021264713
0.15283333
-0.021189625
0.15497083
-0.021163975
0.15719607
-0.021192205
0.15951962
-0.021319107
0.16194835
-0.021488212
0.16450771
-0.021983223
0.16718808
-0.02216083
0.17007931
-0.024134072
-0.023267225
0.18919983
0.0052660152
-0.19378957
0.18540174
0.0034390656
0.18202196
0.0017243442
0.1788897
-3.2848822e-05
0.17596758
-0.001840177
0.17323061
-0.003611327
0.17066065
-0.0053266816
0.16824879
-0.0069869437
0.16599121
-0.0085848328
0.16388583
-0.010110452
0.16193088
-0.011556648
0.16012434
-0.012918618
0.15846367
-0.014192767
0.15694567
-0.015376505
0.15556654
-0.016468304
0.15432194
-0.017467609
0.15320707
-0.018374695
0.15221677
-0.019190586
0.15134564
-0.019916986
0.15058806
-0.020556224
0.14993833
-0.021111196
0.1493907
-0.021585307
0.14893947
-0.021982415
0.14857902
-0.022306779
0.14830387
-0.022563001
0.14810872
-0.022755974
0.1479885
-0.022890833
0.14793842
-0.022972898
0.14795393
-0.023007641
0.14803084
-0.02300064
0.14816528
-0.022957554
0.14835372
-0.022884102
0.14859301
-0.022786053
0.14888038
-0.022669235
0.14921347
-0.022539555
0.14959032
-0.022403034
0.15000943
-0.022265876
0.15046974
-0.022134542
0.1509707
-0.022015926
0.15151227
-0.021917379
0.15209504
-0.021847485
0.1527202
-0.021814784
0.15338989
-0.021833669
0.15410663
-0.021908946
0.15487559
-0.022088063
0.15569898
-0.022311605
0.15659271
-0.022876954
0.15754186
-0.02310998
0.15862089
-0.025213101
-0.024377023
0.2171389
0.0086521214
-0.22052501
0.21367782
0.006900145
0.21047797
0.0049241966
0.20738616
0.0030589639
0.20435362
0.0011923587
0.20141135
-0.0006690532
0.19857629
-0.0024916245
0.19585304
-0.0042636925
0.19324757
-0.0059793604
0.19076679
-0.0076296722
0.18841599
-0.0092058537
0.18619868
-0.010701305
0.18411695
-0.012111034
0.18217161
-0.013431165
0.18036225
-0.014658943
0.17868737
-0.015792733
0.17714458
-0.016831902
0.1757307
-0.017776713
0.17444197
-0.018628251
0.1732741
-0.019388356
0.17222246
-0.02005955
0.17128212
-0.020644974
0.17044802
-0.021148317
0.169715
-0.021573754
0.16907788
-0.021925883
0.16853157
-0.02220966
0.16807107
-0.022430339
0.16769159
-0.022593419
0.16738854
-0.022704591
0.1671576
-0.022769694
0.16699472
-0.022794681
0.16689622
-0.022785597
0.16685873
-0.022748561
0.16687927
-0.022689777
0.16695526
-0.022615548
0.16708454
-0.022532315
0.16726539
-0.022446726
0.16749657
-0.022365716
0.16777733
-0.022296684
0.16810748
-0.022247529
0.16848744
-0.022227445
0.16891829
-0.02224564
0.16940193
-0.022317311
0.16994106
-0.022448075
0.17053971
-0.022686706
0.17120238
-0.022974276
0.17193709
-0.023611667
0.17274719
-0.023920082
0.17365164
-0.026117548
-0.02537577
0.24402872
0.01136455
-0.24674115
0.24119047
0.0097383993
0.2383497
0.0077649619
0.23551578
0.0058928831
0.23265175
0.0040563912
0.22977838
0.0022043108
0.22692692
0.00035984423
0.22411671
-0.0014534851
0.22136375
-0.0032264071
0.21868406
-0.0049499785
0.21609157
-0.0066133609
0.21359737
-0.008207104
0.21121017
-0.009723839
0.20893666
-0.011157648
0.20678157
-0.012503862
0.20474795
-0.013759106
0.20283728
-0.014921233
0.20104977
-0.015989204
0.19938451
-0.016962994
0.19783967
-0.01784351
0.19641263
-0.018632511
0.19510018
-0.019332524
0.19389862
-0.01994676
0.19280391
-0.020479045
0.19181176
-0.020933736
0.19091775
-0.021315647
0.1901174
-0.021629986
0.18940626
-0.021882279
0.18877999
-0.022078318
0.18823439
-0.022224102
0.18776551
-0.022325801
0.18736964
-0.022389721
0.18704336
-0.022422287
0.18678363
-0.022430043
0.18658775
-0.022419666
0.18645344
-0.022398005
0.18637886
-0.022372146
0.18636264
-0.022349496
0.18640392
-0.022337964
0.1865024
-0.022346011
0.18665838
-0.022383427
0.18687289
-0.022460144
0.18714757
-0.022592
0.18748537
-0.022785867
0.18788906
-0.023090401
0.18836569
-0.023450901
0.1889143
-0.024160282
0.18955911
-0.024564886
0.19025336
-0.026811804
-0.026236969
0.26951077
0.013387623
-0.27153385
0.26735327
0.011895903
0.26502252
0.010095712
0.26259491
0.0083204976
0.26007854
0.0065727534
0.25748362
0.0047992319
0.25483628
0.0030071904
0.25216071
0.0012220812
0.24947697
-0.00054266685
0.24680495
-0.0022779613
0.24416402
-0.0039724239
0.24157137
-0.0056144591
0.23904184
-0.0071943099
0.23658803
-0.008703833
0.23422034
-0.010136178
0.23194709
-0.011485849
0.22977458
-0.012748732
0.2277074
-0.013922018
0.2257485
-0.0150041
0.22389949
-0.015994498
0.22216075
-0.016893769
0.22053164
-0.017703418
0.21901069
-0.018425809
0.21759572
-0.01906407
0.21628399
-0.019622013
0.21507239
-0.02010404
0.21395747
-0.020515065
0.21293562
-0.020860436
0.21200317
-0.021145862
0.21115642
-0.021377351
0.21039178
-0.021561161
0.20970581
-0.021703753
0.20909529
-0.021811772
0.20855729
-0.021892037
0.20808917
-0.021951548
0.20768869
-0.021997523
0.207354
-0.022037462
0.20708374
-0.022079226
0.206877
-0.022131225
0.20673346
-0.022202477
0.20665338
-0.022303349
0.20663777
-0.022444535
0.20668813
-0.02264236
0.20680756
-0.022905293
0.2069978
-0.02328064
0.2072679
-0.023721
0.20760896
-0.024501346
0.208063
-0.025018921
0.20852291
-0.027271717
-0.026930919
0.29319406
0.014711235
-0.29451767
0.29172288
0.01336708
0.29000908
0.011809514
0.28811976
0.01020982
0.2860899
0.0086026118
0.28393038
0.0069587465
0.28165966
0.0052779188
0.27930102
0.0035807139
0.27687584
0.0018825129
0.27440428
0.00019360715
0.2719066
-0.0014747479
0.26940267
-0.0031105299
0.2669109
-0.0047025441
0.26444799
-0.0062409215
0.26202879
-0.0077169742
0.25966618
-0.0091232442
0.25737108
-0.010453629
0.25515245
-0.011703389
0.25301745
-0.0128691
0.25097155
-0.013948593
0.24901867
-0.014940891
0.24716138
-0.015846129
0.24540104
-0.016665467
0.24373797
-0.017401002
0.24217163
-0.018055669
0.24070074
-0.018633152
0.23932347
-0.019137794
0.23803754
-0.019574508
0.23684037
-0.019948694
0.23572919
-0.020266168
0.23470113
-0.0205331
0.23375334
-0.020755961
0.23288305
-0.02094149
0.23208769
-0.021096676
0.23136491
-0.02122876
0.23071265
-0.021345265
0.23012924
-0.021454049
0.2296134
-0.021563395
0.22916436
-0.021682178
0.22878184
-0.021819956
0.22846613
-0.021987645
0.2282183
-0.022196704
0.22803976
-0.022463818
0.22793373
-0.022799266
0.22790114
-0.023248045
0.22795241
-0.023772272
0.22807215
-0.024621083
0.22831602
-0.02526279
0.22852593
-0.027481628
-0.027431346