/*--------------------------------*- C++ -*----------------------------------*\
  =========                 |
  \\      /  F ield         | OpenFOAM: The Open Source CFD Toolbox
   \\    /   O peration     | Website:  https://openfoam.org
    \\  /    A nd           | Version:  6
     \\/     M anipulation  |
\*---------------------------------------------------------------------------*/
FoamFile
{
    version     2.0;
    format      ascii;
    class       volSymmTensorField;
    location    "59";
    object      UPrime2Mean;
}
// * * * * * * * * * * * * * * * * * * * * * * * * * * * * * * * * * * * * * //

dimensions      [0 2 -2 0 0 0 0];

internalField   nonuniform List<symmTensor> 
9200
(
(0.00033210704 -0.00025783142 1.2289244e-21 0.00020702909 -6.5943636e-22 1.9688274e-38)
(0.0020287908 -0.0016275396 3.0791573e-21 0.0013104967 -2.2987252e-21 2.1400286e-38)
(0.0040559151 -0.0031620737 4.279016e-22 0.0024778349 -3.1883737e-22 1.1742189e-38)
(0.0063218894 -0.0046170844 -4.5626241e-21 0.003405734 3.2238391e-21 2.3366794e-38)
(0.0084978822 -0.0058815253 1.7227413e-22 0.0041338755 -1.5751514e-22 3.4316618e-39)
(0.010426995 -0.006899707 1.8543696e-21 0.0046641502 -1.2497997e-21 5.1824774e-40)
(0.012008273 -0.0076560446 -3.7482913e-22 0.0050186378 2.7001043e-22 1.5545873e-39)
(0.013167357 -0.008157654 3.4193483e-22 0.0052321328 -2.3947087e-22 1.0472361e-39)
(0.013861002 -0.0084223284 1.7946353e-21 0.0053375706 -1.1080201e-21 2.9823668e-39)
(0.014077608 -0.008473157 1.372496e-22 0.0053626725 -8.571225e-23 8.4543498e-42)
(0.013835496 -0.0083359514 -1.8789276e-21 0.0053300835 1.1870387e-21 1.5885236e-39)
(0.013180586 -0.0080376443 1.5499279e-21 0.0052577381 -1.0228246e-21 2.0475434e-40)
(0.012182383 -0.007605273 -2.7372949e-21 0.0051593691 1.9208341e-21 3.3840215e-39)
(0.010927854 -0.007065354 -1.3674103e-21 0.0050451588 9.8252174e-22 2.0236929e-40)
(0.0095135826 -0.0064434741 3.5171285e-22 0.0049224259 -2.7408968e-22 2.6695068e-41)
(0.0080370215 -0.0057639439 -1.2980617e-21 0.0047962776 1.0746128e-21 2.6798438e-40)
(0.0065876963 -0.0050494775 1.1182185e-21 0.0046704258 -1.0109201e-21 3.2931224e-40)
(0.0052393695 -0.0043211347 7.9737134e-22 0.0045495621 -7.6005071e-22 1.4330087e-39)
(0.0040489873 -0.0035975234 -3.8517332e-23 0.0044402011 7.6893522e-23 2.6889524e-40)
(0.0030728753 -0.0028938902 -2.649684e-23 0.0043014967 7.151728e-23 3.3327141e-40)
(0.00043690999 -0.00029207118 1.3096796e-22 0.00020058742 -5.1283911e-23 3.4455e-40)
(0.0025770278 -0.0017902185 3.2658476e-21 0.0012473158 -2.1250834e-21 2.2849432e-38)
(0.0050619102 -0.0034247367 -1.0988762e-21 0.0023286433 7.3452778e-22 1.2423793e-38)
(0.0076660557 -0.0049069392 -8.1637528e-21 0.0031721322 5.1315307e-21 5.4030703e-38)
(0.010014961 -0.0061363338 -2.5698838e-22 0.0038196569 1.6825782e-22 6.8240471e-40)
(0.011933913 -0.0070665062 6.2178717e-21 0.0042798699 -3.7103987e-21 1.7837969e-38)
(0.013326687 -0.0076954839 -2.5098637e-21 0.0045803748 1.4920998e-21 5.8920862e-40)
(0.014143256 -0.008045046 -7.5766184e-22 0.0047581842 4.47243e-22 2.1868076e-40)
(0.014378912 -0.008146231 2.8403042e-21 0.0048465061 -1.6966163e-21 1.651302e-39)
(0.014070212 -0.008033265 -3.40505e-21 0.0048721002 2.0789708e-21 1.8764158e-39)
(0.013288545 -0.0077407983 -2.3888179e-21 0.0048556664 1.5030998e-21 2.355346e-39)
(0.012132263 -0.0073023532 5.0856511e-21 0.0048124264 -3.3511972e-21 1.1950874e-38)
(0.010716766 -0.0067495653 2.3425374e-21 0.0047528333 -1.6541112e-21 7.9749729e-40)
(0.0091630707 -0.0061119338 -3.6282766e-21 0.0046833666 2.7576442e-21 4.0267174e-39)
(0.0075862251 -0.0054168007 6.3646569e-22 0.0046072907 -5.2658584e-22 3.4225408e-40)
(0.0060851516 -0.0046893634 -1.398814e-21 0.0045253159 1.307808e-21 8.8176338e-40)
(0.0047351978 -0.0039526335 -5.8286471e-22 0.0044362657 6.4568346e-22 2.8406922e-40)
(0.0035841186 -0.0032270072 1.6864841e-21 0.0043378537 -2.0736368e-21 4.5648971e-39)
(0.0026541361 -0.0025284767 7.8111939e-22 0.0042232568 -1.1646967e-21 8.3888248e-40)
(0.0019530478 -0.0018735307 -3.053674e-22 0.0040564856 4.1558092e-22 6.7845794e-39)
(0.00055466181 -0.00031593544 -1.074526e-21 0.00018407079 4.5847956e-22 8.9106753e-39)
(0.0031571983 -0.0018811033 -1.7746178e-21 0.0011236052 9.8591674e-22 9.2937907e-39)
(0.0060855349 -0.0035421886 -2.0471137e-21 0.002072252 1.1911361e-21 2.3230246e-38)
(0.0089650616 -0.0049855087 6.5180232e-23 0.0028011858 -3.6065107e-23 2.5088779e-42)
(0.011386945 -0.006126785 1.7831432e-22 0.0033527844 -7.9622946e-23 1.6679746e-38)
(0.013174573 -0.0069341517 2.1917277e-21 0.0037417615 -1.1816398e-21 4.6585529e-39)
(0.014257275 -0.0074216633 1.7676878e-22 0.0039986533 -9.3179323e-23 1.9309561e-39)
(0.014631529 -0.0076253739 -3.5867528e-21 0.0041593848 1.9739529e-21 1.1763572e-39)
(0.014351106 -0.0075873413 4.2077354e-21 0.0042542212 -2.3857214e-21 2.2418158e-39)
(0.013515235 -0.0073495264 1.3734538e-21 0.0043060383 -8.2179927e-22 2.5460676e-39)
(0.012254655 -0.0069514627 -3.7155316e-21 0.0043310536 2.3392881e-21 5.1764699e-39)
(0.010716491 -0.0064293961 -1.1416575e-21 0.0043396998 7.7773305e-22 1.7115695e-39)
(0.0090485025 -0.0058163232 4.4107551e-22 0.0043375959 -3.153087e-22 4.6744477e-39)
(0.0073844308 -0.0051424363 9.5692268e-22 0.0043265754 -7.920534e-22 6.5345643e-40)
(0.0058324856 -0.0044355511 -3.1996682e-22 0.0043056857 3.0185071e-22 5.1030788e-40)
(0.0044684938 -0.0037212687 7.5261353e-22 0.0042721373 -8.1927954e-22 3.8274341e-40)
(0.0033342835 -0.0030228047 -5.1801319e-22 0.0042221667 6.672921e-22 1.415245e-40)
(0.0024407667 -0.0023604203 -9.8813984e-22 0.0041515121 1.5444036e-21 3.6857469e-39)
(0.0017746653 -0.0017502289 -1.1289796e-24 0.0040550121 3.1289031e-24 3.4270389e-39)
(0.0013082289 -0.0012064885 3.2775041e-22 0.0039225479 -8.3573153e-22 3.5491507e-40)
(0.00068124824 -0.00032588145 -8.5210182e-22 0.00015900488 3.1448804e-22 4.4268863e-39)
(0.0037385375 -0.0018848031 1.2538068e-21 0.00095241609 -6.1634331e-22 8.1013134e-40)
(0.0070634436 -0.003493931 1.1177836e-21 0.0017376146 -5.5376338e-22 9.5288779e-40)
(0.010128397 -0.0048375487 2.4600114e-21 0.0023366885 -1.1794949e-21 1.0312151e-38)
(0.012508247 -0.0058517966 2.1305983e-21 0.0027901829 -1.0212797e-21 4.5824664e-39)
(0.014046961 -0.0065222462 -3.6618744e-21 0.0031166098 1.7695715e-21 3.4644212e-39)
(0.014723865 -0.0068778748 -2.0259797e-21 0.0033458351 1.0019721e-21 9.8330318e-40)
(0.014603375 -0.0069649529 0 0.003509109 0 0)
(0.013812146 -0.006831197 2.1716288e-21 0.0036307106 -1.2211259e-21 1.2836706e-38)
(0.012516562 -0.0065207609 -9.2109162e-22 0.0037271911 5.693512e-22 4.8648972e-39)
(0.010899966 -0.0060732067 -5.3294831e-21 0.0038084413 3.3388106e-21 4.0421013e-39)
(0.0091412209 -0.0055239153 -6.8440726e-22 0.0038788393 4.5143449e-22 8.6581526e-40)
(0.0073964308 -0.0049050695 2.5153441e-21 0.0039384821 -2.0099884e-21 5.7273223e-39)
(0.0057860423 -0.0042465012 1.7035184e-22 0.0039844756 -1.1138919e-22 2.4232098e-39)
(0.0043887806 -0.0035759653 -3.7310284e-23 0.0040122182 4.0056989e-23 1.6373036e-42)
(0.0032424521 -0.0029187503 3.9047798e-22 0.0040166396 -5.0289514e-22 2.8808097e-40)
(0.0023502932 -0.0022968222 1.3943234e-23 0.0039932097 1.4187144e-24 3.5068942e-40)
(0.0016906099 -0.0017278609 -6.6185046e-22 0.003938334 1.2776156e-21 8.2991239e-40)
(0.0012268772 -0.0012243875 -3.5031878e-22 0.003851357 8.72515e-22 5.900236e-40)
(0.00091701811 -0.00079412006 1.4533806e-22 0.0037406127 -6.1463522e-22 3.9590535e-39)
(0.00081075779 -0.00031895702 6.3979536e-22 0.00012777526 -2.0376187e-22 1.7419203e-39)
(0.0042836644 -0.0017919627 2.6578704e-21 0.00075133339 -1.0603261e-21 1.5693962e-38)
(0.0079257541 -0.0032730469 2.0141186e-21 0.00135988 -8.3558952e-22 9.7476846e-40)
(0.011066212 -0.0044681271 2.2704529e-21 0.0018276779 -9.3381023e-22 5.5139347e-39)
(0.013288019 -0.0053353597 -3.4464177e-21 0.0021908394 1.441198e-21 8.6763378e-39)
(0.014482242 -0.0058767215 1.0960527e-22 0.0024684556 -3.5885783e-23 8.270909e-40)
(0.014701622 -0.0061306626 1.9072403e-22 0.0026860145 -8.5282257e-23 6.8220069e-42)
(0.014093434 -0.0061461368 2.6834948e-21 0.0028671258 -1.2916283e-21 3.0755197e-39)
(0.012860619 -0.0059691338 3.5618359e-22 0.0030279575 -1.8341368e-22 2.719166e-41)
(0.011227787 -0.0056400506 -9.3784748e-22 0.0031772986 5.6109333e-22 1.6740037e-39)
(0.009411452 -0.0051945922 2.9896034e-21 0.003317849 -1.9756436e-21 1.1608338e-38)
(0.0075966761 -0.0046654242 -2.1713568e-21 0.0034475914 1.5180499e-21 9.3499822e-40)
(0.0059221551 -0.0040834865 -3.9764855e-21 0.0035612968 3.349461e-21 6.7526129e-39)
(0.0044747832 -0.0034783322 -1.2836524e-22 0.0036521197 1.2913592e-22 1.4480552e-41)
(0.003292946 -0.0028774082 1.3307508e-21 0.0037131559 -1.6667777e-21 5.6820864e-39)
(0.0023760989 -0.0023046652 0 0.0037388249 0 0)
(0.0016973984 -0.0017790813 1.7189918e-22 0.0037257615 -2.7060699e-22 1.4831705e-40)
(0.001216279 -0.0013137124 -7.1429834e-23 0.0036728383 1.9698625e-22 2.2240066e-40)
(0.00088830246 -0.00091553525 -8.2512886e-23 0.0035836556 2.0387027e-22 5.6904439e-41)
(0.00067172548 -0.00058549428 2.4861833e-23 0.0034754224 -1.7994132e-22 4.0206096e-40)
(0.00093610643 -0.00029349759 1.3969923e-21 9.3636542e-05 -3.5963935e-22 7.0437922e-39)
(0.0047538693 -0.0016024467 1.3393686e-22 0.00054151208 -4.4056126e-23 1.2962451e-41)
(0.0086074233 -0.0028904769 -3.8057209e-22 0.00097780341 1.2942199e-22 5.7276886e-41)
(0.011705782 -0.0039059051 3.5703473e-22 0.0013243728 -1.1803579e-22 1.1378039e-39)
(0.01366878 -0.0046266811 -2.3493981e-21 0.0016106067 8.3773015e-22 2.1253985e-39)
(0.0144606 -0.0050653408 -1.109687e-21 0.0018529954 4.1401532e-22 1.8875226e-40)
(0.014224023 -0.0052604213 7.4262027e-22 0.0020699546 -2.3308599e-22 6.0898864e-39)
(0.013192534 -0.0052541035 -3.2230283e-23 0.0022759381 3.5463265e-23 4.7687825e-40)
(0.011635218 -0.0050833953 -1.7889514e-21 0.0024782619 9.3676056e-22 5.016182e-39)
(0.0098139833 -0.0047806816 3.05381e-21 0.0026776694 -1.6764253e-21 1.3772013e-39)
(0.0079520752 -0.0043763145 -6.3029727e-23 0.0028697446 1.2185009e-22 2.6189215e-39)
(0.0062153896 -0.0039005238 -2.3128016e-21 0.0030465494 1.8243027e-21 7.0785166e-39)
(0.0047067867 -0.0033837905 0 0.003198501 0 0)
(0.0034715265 -0.0028556474 5.1581228e-22 0.0033163056 -6.7498521e-22 3.8504738e-39)
(0.0025100742 -0.0023425455 1.8601583e-23 0.0033926591 -6.1665541e-23 2.1186317e-40)
(0.0017938096 -0.0018657053 -6.0234295e-22 0.0034234577 1.1118568e-21 4.426147e-39)
(0.001279799 -0.0014397025 -1.3680607e-22 0.0034081898 2.8466045e-22 8.8763614e-41)
(0.00092221948 -0.0010722326 -3.5083127e-23 0.0033493119 1.2961718e-22 1.4980567e-40)
(0.00067925378 -0.00076508269 -4.9537569e-23 0.0032540676 1.742389e-22 5.6283783e-41)
(0.00051605593 -0.00051491514 8.0527939e-23 0.0031422247 -4.2255704e-22 5.4597616e-40)
(0.0010498501 -0.00024955772 5.4088564e-22 6.0379639e-05 -1.0409882e-22 1.1156288e-39)
(0.0051141856 -0.0013262297 -3.8368599e-21 0.000345005 9.6636255e-22 2.4252769e-38)
(0.0090571406 -0.0023742789 -3.6471148e-22 0.00062850933 1.0198046e-22 2.2644612e-39)
(0.012001636 -0.0031990926 -1.0497674e-21 0.00087131683 3.0788761e-22 1.139306e-38)
(0.013633688 -0.0037917588 -7.1638413e-22 0.0010949189 2.0389076e-22 1.5484384e-40)
(0.014010625 -0.0041651186 -4.0562768e-21 0.0013112681 1.2956969e-21 2.0142504e-39)
(0.013370271 -0.0043463577 -1.9662943e-21 0.0015309544 7.1996848e-22 1.6625701e-39)
(0.012022056 -0.0043620325 3.7291113e-21 0.0017595802 -1.4695591e-21 1.2520752e-39)
(0.010279444 -0.0042353094 6.2639226e-22 0.0019961967 -3.4495442e-22 1.7223318e-39)
(0.0084145087 -0.0039893085 -7.9944582e-22 0.0022341146 3.8016575e-22 5.8229232e-40)
(0.006631881 -0.0036499992 3.8118979e-22 0.0024625382 -1.4025379e-22 2.2142487e-39)
(0.0050607596 -0.003246693 -5.8887914e-23 0.0026686819 9.897285e-23 5.6121893e-40)
(0.0037615246 -0.0028102057 0 0.0028401463 0 0)
(0.0027415279 -0.0023696761 3.6471595e-22 0.0029670887 -4.1706914e-22 1.2539487e-40)
(0.0019741127 -0.0019493868 -7.5006082e-22 0.0030437373 1.1018214e-21 1.7743211e-39)
(0.0014160148 -0.0015666646 -2.399068e-22 0.0030689895 4.1471338e-22 1.4779854e-40)
(0.0010203793 -0.0012313022 3.9137298e-22 0.0030459668 -9.2693625e-22 2.1466578e-39)
(0.00074469944 -0.00094641068 -1.0106327e-22 0.0029806619 1.3555506e-22 4.7386494e-40)
(0.00055419712 -0.00071037661 -9.1990446e-24 0.0028826966 -1.1440353e-23 5.3296874e-41)
(0.00042198711 -0.00051830292 8.7115426e-23 0.0027705029 -3.0399506e-22 3.9066507e-41)
(0.0011450283 -0.00018902497 3.958038e-22 3.1819568e-05 -5.202889e-23 6.9844336e-40)
(0.0053378617 -0.00098239445 -3.5108545e-21 0.00018167232 6.3435565e-22 1.1100582e-38)
(0.0092435085 -0.0017657469 -2.7471725e-21 0.00034242358 5.4815471e-22 1.3309571e-38)
(0.011940166 -0.0024079714 3.8031472e-21 0.00050177643 -8.0906308e-22 3.2190584e-39)
(0.01320554 -0.0029025289 2.8131045e-21 0.00067411503 -6.5082522e-22 6.4380467e-40)
(0.013199195 -0.0032497933 -2.0011473e-21 0.00086714498 4.5608817e-22 7.0403771e-39)
(0.012245224 -0.0034549495 6.6574784e-22 0.0010851351 -2.655826e-22 2.9920139e-39)
(0.010707019 -0.003523121 3.7719691e-21 0.0013266673 -1.4080154e-21 3.2342217e-39)
(0.0089145429 -0.0034624103 1.6276221e-21 0.001583931 -6.7407532e-22 3.9100562e-40)
(0.007124097 -0.0032882745 -1.568627e-21 0.0018438578 8.5540333e-22 1.05065e-39)
(0.0055040017 -0.0030246031 -2.0949573e-21 0.0020903733 1.3356287e-21 1.1929322e-39)
(0.0041403021 -0.0027012083 -5.6099111e-23 0.0023072948 4.3648049e-23 1.2393049e-42)
(0.003054819 -0.0023492364 5.8111303e-22 0.0024811945 -5.5089221e-22 1.9163549e-40)
(0.0022276077 -0.0019964463 -1.1803135e-23 0.0026034842 7.3130707e-23 3.2341308e-40)
(0.0016175891 -0.001663905 -7.0193437e-24 0.002671278 1.1737817e-22 8.7527473e-40)
(0.0011778901 -0.0013647539 -4.0759386e-24 0.002687015 -1.5132834e-22 1.5811008e-39)
(0.00086512177 -0.0011048073 1.8219795e-22 0.0026570872 -4.2181807e-22 4.4888108e-40)
(0.00064360733 -0.00088432023 -9.000301e-23 0.0025899556 3.5202405e-22 1.1982031e-39)
(0.00048612482 -0.00070036907 -2.4646323e-22 0.0024959977 8.3976938e-22 2.2712007e-39)
(0.00037257877 -0.00054837614 8.9574358e-23 0.0023902304 -2.421249e-22 4.5515891e-41)
(0.001216336 -0.00011544878 -1.0076664e-21 1.1256451e-05 8.3825064e-23 2.0827082e-39)
(0.0054101364 -0.00059665514 -7.2303758e-22 6.6509291e-05 7.8938453e-23 2.2311039e-39)
(0.0091581595 -0.0011137116 5.9423832e-21 0.00013963971 -7.6392117e-22 2.7439076e-38)
(0.011539825 -0.0015963833 4.3193577e-21 0.00023468556 -6.4119764e-22 2.9360009e-39)
(0.012441277 -0.0020270588 1.8834055e-21 0.0003622754 -3.0601236e-22 1.4544265e-39)
(0.012119129 -0.0023813007 3.7765715e-22 0.00052869331 -8.062803e-23 1.3321871e-41)
(0.01096231 -0.0026351219 -3.4725569e-21 0.00073515182 8.0379567e-22 6.0619226e-39)
(0.0093593888 -0.002770714 0 0.00097576652 0 0)
(0.0076296246 -0.0027832636 -2.0628057e-21 0.0012374341 9.5661426e-22 5.0391134e-39)
(0.0059947313 -0.0026837461 -3.4372337e-22 0.0015018416 2.4994342e-22 1.1543615e-39)
(0.0045794497 -0.0024961901 9.8043457e-22 0.0017489162 -6.0697381e-22 2.4977538e-40)
(0.0034299915 -0.0022514175 9.552744e-23 0.0019606808 -1.4669499e-22 6.3600791e-40)
(0.0025396479 -0.0019801447 -4.4463597e-22 0.0021243379 4.8165855e-22 7.2380984e-40)
(0.0018731889 -0.001707742 -3.2135857e-22 0.0022337848 4.827538e-22 1.5687505e-39)
(0.0013853922 -0.0014517021 2.1907465e-22 0.0022894369 -2.3233444e-22 1.8869675e-40)
(0.0010325018 -0.0012216281 2.9536869e-22 0.0022967795 -4.0647991e-22 1.6183791e-40)
(0.00077769894 -0.0010208137 -2.5315513e-22 0.0022642926 4.6325936e-22 1.4386858e-40)
(0.00059257734 -0.00084843697 -3.2053033e-22 0.0022014165 8.0389626e-22 1.8899302e-39)
(0.00045643067 -0.00070178777 3.2058843e-23 0.0021178547 -3.4191431e-24 2.3040296e-40)
(0.00035440021 -0.00057740259 3.7839987e-23 0.0020244911 -1.6852626e-22 2.6837078e-40)
(0.0012598823 -3.3461928e-05 -6.665277e-22 1.0220977e-06 1.7015919e-23 1.0198804e-39)
(0.0053279482 -0.00019811598 2.7912002e-21 7.9638154e-06 -1.0145693e-22 5.6380784e-39)
(0.0088146182 -0.0004688919 4.2713829e-21 2.8343893e-05 -2.6849949e-22 4.1055693e-38)
(0.010847046 -0.00082487552 -4.8510387e-21 7.4491095e-05 4.3718943e-22 1.1222838e-38)
(0.011421998 -0.0012233459 1.7077919e-21 0.00015919339 -1.9818957e-22 2.6693675e-40)
(0.01087374 -0.00160625 6.5635882e-22 0.00029201656 1.1286266e-23 1.043854e-38)
(0.0096267027 -0.0019183776 1.7864677e-22 0.00047500584 -3.8547285e-23 3.4262877e-42)
(0.0080656668 -0.0021217443 -2.4979071e-21 0.00070019548 6.0791399e-22 3.4301106e-39)
(0.0064783472 -0.0022029564 -5.5909876e-23 0.00095050871 2.0639887e-23 5.0037169e-43)
(0.0050428242 -0.0021718559 9.0017901e-22 0.0012035235 -5.1008725e-22 1.31764e-39)
(0.0038422313 -0.0020538743 6.699129e-23 0.0014365928 -7.9785223e-23 1.9179459e-40)
(0.0028920499 -0.0018803862 -3.2997335e-22 0.0016315028 7.8640395e-23 2.4811111e-39)
(0.002168427 -0.0016806468 -6.9502144e-22 0.0017772853 6.067679e-22 2.3507857e-40)
(0.0016306916 -0.0014770723 1.8985985e-24 0.0018707363 6.2382602e-23 3.236168e-40)
(0.0012359422 -0.0012839343 2.2380103e-22 0.0019150748 -3.2805997e-22 3.0510393e-40)
(0.00094655928 -0.0011084117 1.4496268e-22 0.0019176523 -2.6226648e-22 2.9949353e-40)
(0.00073280649 -0.00095267771 2.6215846e-23 0.0018875912 -1.2674468e-22 4.9563786e-40)
(0.00057271073 -0.00081605078 -2.4006567e-22 0.0018339763 3.5308068e-22 3.7704894e-40)
(0.0004507536 -0.0006967317 -6.1485394e-23 0.001764936 -4.429318e-23 1.7039656e-39)
(0.00035596934 -0.00059236618 1.0806758e-22 0.0016874107 -4.3743308e-22 2.7861305e-39)
(8.7265035e-06 -1.0859009e-06 8.7380903e-23 1.3299218e-06 -1.7515312e-23 9.9729627e-40)
(4.1176023e-05 -1.7235179e-05 -1.2460023e-22 8.8536226e-06 3.4524698e-23 9.6042388e-40)
(9.2231966e-05 -3.9839663e-05 2.7689004e-22 1.7638633e-05 -1.0339845e-22 5.5109279e-39)
(0.00029564691 -8.3989848e-05 7.7147694e-22 2.5242803e-05 -1.6378128e-22 1.8542953e-38)
(0.00064825337 -0.00013829229 -5.4968837e-22 3.2002742e-05 9.2884929e-23 4.8192914e-39)
(0.001156973 -0.00019872887 6.9131769e-22 3.7914908e-05 -9.2842872e-23 5.3257715e-39)
(0.0018371333 -0.0002630561 -9.4378331e-22 4.2988824e-05 1.17975e-22 5.8394871e-39)
(0.0026914918 -0.00032905534 -9.7097909e-22 4.7341749e-05 9.959488e-23 6.1802818e-39)
(0.0037140603 -0.00039492873 1.2113936e-21 5.1101346e-05 -1.2277222e-22 6.5221206e-39)
(0.0048958786 -0.00045934722 -9.3344651e-22 5.4369337e-05 8.8847645e-23 3.319494e-39)
(0.0062261638 -0.00052131022 -4.7975876e-23 5.7224571e-05 7.817416e-25 3.8774132e-41)
(0.0076925028 -0.00058004568 2.6151502e-22 5.9728429e-05 -2.7265569e-23 1.208611e-40)
(0.0092813733 -0.00063494952 -4.6007524e-23 6.1928631e-05 2.0713462e-24 1.9446858e-41)
(0.010978621 -0.0006855472 1.3964925e-21 6.3863759e-05 -1.2195471e-22 5.7949355e-39)
(0.01276975 -0.00073148031 3.6319535e-24 6.5568943e-05 2.6721017e-24 1.2607607e-41)
(0.01464021 -0.00077252624 -1.9767441e-21 6.7081774e-05 1.8278356e-22 1.1891683e-38)
(0.016575788 -0.00080861806 3.5598486e-22 6.8442085e-05 -3.795938e-23 2.4876837e-40)
(0.018562667 -0.00083976295 8.4200672e-22 6.9680613e-05 -8.4871672e-23 3.0234016e-39)
(0.020587048 -0.00086615697 -1.3129013e-21 7.0827725e-05 1.4599445e-22 8.5605607e-39)
(0.022633872 -0.00088922447 -6.9110318e-22 7.18914e-05 8.5108765e-23 3.2154845e-39)
(9.8849223e-06 -4.5513863e-06 2.8673998e-23 1.1708904e-05 -1.049658e-23 9.7962301e-41)
(5.2494616e-05 -5.906028e-05 -7.8888684e-22 7.8020203e-05 5.9482459e-22 3.2118386e-38)
(0.00011778954 -0.00013404838 1.5666047e-22 0.00015535311 -1.2980588e-22 2.8990138e-39)
(0.00034757633 -0.00027163593 8.2810206e-22 0.00022229927 -5.0633954e-22 1.5484682e-38)
(0.00073024215 -0.00043828645 1.1475056e-21 0.00028167383 -5.4764156e-22 1.7508943e-38)
(0.0012699136 -0.0006221696 1.3829385e-22 0.00033337147 -5.4906823e-23 1.6442204e-40)
(0.0019796224 -0.00081659151 -3.6621341e-21 0.00037749621 1.2517658e-21 8.7519782e-38)
(0.0028594619 -0.0010150061 -1.2681862e-22 0.00041509173 5.1843492e-23 2.4717089e-41)
(0.003901066 -0.001212152 2.0430507e-21 0.0004472831 -6.0969017e-22 1.4898779e-38)
(0.0050933183 -0.0014041479 -4.901356e-22 0.00047496825 1.3218425e-22 8.2871119e-40)
(0.0064233403 -0.001588072 -1.8406619e-21 0.00049884383 4.9238876e-22 9.1745539e-39)
(0.0078766486 -0.00176167 3.8407479e-22 0.00051944979 -9.5605182e-23 4.1793728e-40)
(0.0094376627 -0.0019231775 1.6117697e-21 0.00053720155 -3.4824672e-22 9.8656976e-39)
(0.011090146 -0.0020712039 6.5303405e-22 0.00055242873 -1.5854375e-22 1.1226626e-39)
(0.012817437 -0.0022046862 1.2798957e-21 0.00056542369 -3.3682289e-22 3.2314623e-39)
(0.014602748 -0.0023229425 -9.9668758e-22 0.00057649142 2.4794499e-22 2.7426778e-39)
(0.016429889 -0.0024257505 -9.3278998e-22 0.00058595847 2.3117859e-22 3.0025984e-39)
(0.018283098 -0.0025131013 9.1319028e-22 0.00059409714 -2.6590993e-22 1.7197326e-39)
(0.020142501 -0.0025855972 8.0194935e-22 0.00060121692 -2.3076757e-22 3.0299813e-39)
(0.021983559 -0.002648437 2.9124157e-22 0.00060748644 -8.1908988e-23 1.2937751e-39)
(1.27108e-05 -1.1672528e-05 2.2065467e-23 3.1252176e-05 -1.0930068e-23 5.1441269e-41)
(7.9327465e-05 -0.00012203539 5.9884276e-22 0.00020825406 -6.4106323e-22 1.3687384e-38)
(0.00017709827 -0.0002693471 -1.3078588e-22 0.00041417786 1.6844724e-22 7.1655155e-40)
(0.00046168664 -0.00051465471 -8.9847922e-22 0.00059224896 7.5482656e-22 1.6965748e-38)
(0.00090587129 -0.00080401292 3.2690096e-22 0.00074956571 -2.7334752e-22 4.749548e-40)
(0.0015081695 -0.0011182664 4.2796065e-22 0.0008855478 -3.466657e-22 2.4099935e-40)
(0.0022770457 -0.0014463948 -5.3854901e-22 0.0010004781 2.8276586e-22 1.5088834e-39)
(0.003207607 -0.0017778603 -1.384353e-21 0.0010971526 8.0097831e-22 2.9724679e-39)
(0.004287022 -0.0021042899 6.0501462e-22 0.0011785728 -2.903501e-22 8.3877332e-40)
(0.0055001038 -0.0024195151 1.2809548e-21 0.0012471516 -5.2348247e-22 4.7777347e-39)
(0.0068300522 -0.002718886 3.3804013e-22 0.0013047723 -2.3913192e-22 1.7461597e-40)
(0.0082585544 -0.0029988094 1.5475173e-21 0.0013528935 -4.9992718e-22 8.8798559e-39)
(0.0097662636 -0.0032564624 1.2867849e-22 0.0013926267 -4.6768102e-23 3.6679971e-41)
(0.011333192 -0.0034895991 -2.2339661e-21 0.0014248309 7.3614099e-22 1.4247221e-38)
(0.012938868 -0.0036964681 1.5272263e-22 0.0014502416 -1.0711791e-22 7.8425375e-41)
(0.014562664 -0.0038759 -1.0197059e-21 0.0014696051 2.7187513e-22 5.5636197e-39)
(0.016185141 -0.0040274769 -1.3854742e-21 0.0014837151 5.5522047e-22 2.2499199e-39)
(0.017787648 -0.0041511618 2.202252e-21 0.0014933593 -8.7490633e-22 7.4907473e-39)
(0.01934093 -0.0042480132 1.1291896e-21 0.0014997901 -4.8726017e-22 1.5109785e-39)
(0.02080641 -0.0043287518 2.2934518e-22 0.0015041952 -1.1051448e-22 3.2168275e-41)
(1.8732869e-05 -2.4168114e-05 -3.3183386e-23 5.7593329e-05 4.1904387e-23 7.4489572e-41)
(0.00012994179 -0.00021657094 -1.3852358e-21 0.00038406981 1.7525927e-21 4.5372617e-38)
(0.00028673049 -0.00046588174 -1.0122944e-22 0.00076277193 1.3007425e-22 6.2081378e-40)
(0.00066111605 -0.00083947121 2.2943496e-22 0.0010894639 -2.5405539e-22 3.9354106e-40)
(0.0012040855 -0.0012656955 -3.8602552e-23 0.0013764886 1.0718464e-23 1.0215116e-40)
(0.0019059052 -0.0017185315 1.1647331e-21 0.0016220723 -8.5072858e-22 7.4465523e-39)
(0.0027681673 -0.0021827206 1.2805629e-21 0.001826675 -8.3174528e-22 6.7615526e-39)
(0.0037787768 -0.0026442359 -3.8995308e-22 0.0019954902 1.8666143e-22 1.0676509e-39)
(0.0049184679 -0.0030921143 -1.4075345e-21 0.002134107 7.2740398e-22 6.7755806e-39)
(0.0061661844 -0.0035182919 -2.7965766e-21 0.0022470783 1.495401e-21 1.4312266e-38)
(0.0074995413 -0.0039166832 -6.9198912e-23 0.002338006 -3.1500705e-23 3.287325e-40)
(0.0088948892 -0.0042825871 3.5020028e-21 0.0024097045 -1.6115073e-21 2.3407061e-38)
(0.010327762 -0.0046123004 -1.4174429e-21 0.0024643225 5.275059e-22 6.9416636e-39)
(0.011773295 -0.0049028835 -8.9546928e-22 0.002503516 3.8802144e-22 1.3636632e-39)
(0.013206348 -0.0051520272 -9.5900264e-23 0.002528657 1.2211093e-22 2.9590945e-40)
(0.014601888 -0.0053581486 2.0563912e-21 0.0025410631 -9.0164399e-22 5.5725598e-39)
(0.015937072 -0.0055207109 -1.1379876e-21 0.0025420889 5.8474938e-22 3.5584062e-40)
(0.017191047 -0.0056399291 -2.5792781e-21 0.0025333463 1.0957971e-21 1.2012801e-38)
(0.018325729 -0.005717632 1.6735272e-21 0.0025184574 -7.4696575e-22 6.0348982e-39)
(0.019288725 -0.0057708177 1.4463703e-21 0.002502111 -5.9013903e-22 5.632125e-39)
(2.9961848e-05 -4.3059302e-05 1.4868138e-22 8.7830301e-05 -1.4454097e-22 9.7803937e-40)
(0.0002152899 -0.00034859628 4.9692056e-23 0.00058576302 -1.4107463e-23 4.3749297e-40)
(0.00046841751 -0.00073482841 -1.8914587e-21 0.0011606811 2.7151648e-21 3.7124467e-38)
(0.00097552101 -0.0012598591 -1.0864736e-21 0.0016545665 1.1549542e-21 1.1515476e-38)
(0.0016604696 -0.0018373576 7.2946281e-22 0.0020851527 -5.8040027e-22 6.9680388e-39)
(0.0025025085 -0.0024345764 8.9208241e-22 0.0024486655 -7.184529e-22 3.2755901e-39)
(0.0034937726 -0.0030320428 -1.1631011e-21 0.0027457977 7.5686068e-22 7.6756413e-39)
(0.0046126785 -0.0036128911 -1.7664022e-21 0.0029846577 1.0074494e-21 1.6844041e-38)
(0.0058315487 -0.0041642776 2.5730865e-21 0.0031740067 -1.529585e-21 1.7249588e-38)
(0.0071217164 -0.0046768355 7.4687397e-22 0.0033211135 -2.9722331e-22 4.0247796e-39)
(0.0084537074 -0.0051435554 -2.2425031e-21 0.0034318563 1.4979255e-21 1.2705407e-39)
(0.0097973648 -0.0055591095 9.9863581e-22 0.003510927 -4.4728726e-22 3.0938587e-39)
(0.011122406 -0.005919415 0 0.0035619929 0 0)
(0.012398911 -0.006221342 9.4259655e-22 0.0035879137 -4.5791074e-22 1.2052476e-39)
(0.013597566 -0.0064625536 -6.9840505e-22 0.0035910266 3.3150533e-22 6.4319051e-40)
(0.014690217 -0.0066415872 -1.051716e-21 0.0035734458 5.3053307e-22 7.7449154e-40)
(0.015652773 -0.0067583072 3.7142397e-22 0.0035371437 -3.293925e-22 1.1040519e-39)
(0.016465763 -0.0068139275 -3.048836e-22 0.0034845958 1.9141386e-22 3.8720374e-41)
(0.017087637 -0.0068119552 1.4208625e-21 0.003423307 -6.2016459e-22 6.5297985e-39)
(0.017455068 -0.0067748071 -1.1741494e-21 0.0033660397 5.9435794e-22 3.6552513e-40)
(4.8708055e-05 -6.863644e-05 1.4275088e-22 0.00011904403 -1.2003389e-22 7.8503201e-40)
(0.00034759782 -0.00051890677 6.8007951e-22 0.00079252805 -9.071841e-22 2.898758e-39)
(0.0007458577 -0.0010765992 -9.1169381e-22 0.001564577 1.2129988e-21 6.9794476e-39)
(0.0014357086 -0.0017738528 -1.4787301e-21 0.0022234654 1.6715596e-21 5.8031499e-39)
(0.0023090572 -0.002512538 -4.0496255e-22 0.0027919355 6.2023858e-22 4.5936576e-39)
(0.0033308156 -0.0032530239 -1.3255331e-21 0.0032637944 1.1694208e-21 2.8590286e-39)
(0.0044806314 -0.0039717284 -6.2928526e-22 0.0036403472 3.8657869e-22 3.3250404e-39)
(0.0057250781 -0.0046498463 1.0763097e-21 0.0039331307 -6.4526747e-22 6.1309745e-39)
(0.0070261918 -0.0052736764 2.5389612e-21 0.0041546203 -1.5092082e-21 2.0975386e-38)
(0.0083462497 -0.005833542 7.6904123e-22 0.0043154059 -4.7409533e-22 8.7717079e-40)
(0.0096479106 -0.0063225317 -7.2975385e-22 0.0044242658 3.8569174e-22 1.3946654e-39)
(0.010894457 -0.0067357397 -1.4895149e-22 0.0044883933 -2.9067764e-23 1.2169662e-39)
(0.012050621 -0.0070698053 -3.3752763e-21 0.0045135768 1.8548539e-21 1.1505738e-38)
(0.013083376 -0.0073226088 -1.0371313e-21 0.0045044496 5.446398e-22 1.1905188e-39)
(0.01396249 -0.0074930879 1.7024861e-21 0.0044648088 -1.0047706e-21 5.4231262e-40)
(0.014661295 -0.0075812451 -1.6819603e-21 0.0043979202 9.2517096e-22 1.1592617e-39)
(0.015160231 -0.0075885588 -5.8746096e-22 0.0043064285 2.9227479e-22 3.7579014e-40)
(0.015448622 -0.0075183964 1.2968911e-21 0.0041931797 -5.4163729e-22 5.8748473e-39)
(0.015492238 -0.0073772757 1.9127359e-21 0.0040697726 -9.7955073e-22 4.4171044e-39)
(0.015222478 -0.0071907814 2.355932e-22 0.0039622293 -1.1160982e-22 8.6379311e-41)
(7.7398936e-05 -0.00010048022 -4.0283892e-22 0.00014855891 3.2724664e-22 4.6459342e-39)
(0.00053882279 -0.00072309277 -4.4830867e-22 0.00098466444 4.5495905e-22 3.7028466e-39)
(0.0011409444 -0.0014803024 1.0877468e-21 0.001933352 -1.3865739e-21 1.6042464e-39)
(0.0020674367 -0.0023626203 1.6793807e-21 0.0027354613 -1.7469829e-21 7.73542e-39)
(0.0031735034 -0.0032628151 2.194262e-23 0.0034181602 -1.9822527e-23 1.5398919e-42)
(0.0044056976 -0.0041342595 -4.530056e-21 0.0039732107 3.7524815e-21 4.5267946e-38)
(0.0057278911 -0.0049497887 -1.7326406e-21 0.0044034293 1.5006575e-21 6.1595429e-40)
(0.00709274 -0.0056900371 1.3695409e-21 0.0047244305 -9.2579458e-22 4.9731451e-39)
(0.0084509627 -0.0063420634 1.54741e-21 0.0049529443 -1.0449753e-21 3.0336546e-39)
(0.009755727 -0.0068975534 -1.5247704e-21 0.0051034494 8.4780505e-22 8.3529852e-39)
(0.01096284 -0.007351412 -4.3634182e-21 0.0051882169 2.7807238e-21 1.2073589e-38)
(0.012031424 -0.0077009623 2.843298e-21 0.0052175174 -1.7418273e-21 4.9605282e-39)
(0.012925177 -0.0079454617 1.6902147e-21 0.005199815 -8.8312505e-22 5.9866319e-39)
(0.013613592 -0.0080857853 -2.3023894e-21 0.0051420323 1.2839946e-21 4.917631e-39)
(0.014072867 -0.0081242 9.9617681e-22 0.0050498641 -5.8637451e-22 3.2446698e-40)
(0.014286764 -0.0080642182 1.6387452e-21 0.004928024 -8.5283595e-22 3.6670106e-39)
(0.014250041 -0.0079106961 6.1502096e-22 0.004779821 -3.5553333e-22 1.2213131e-40)
(0.013971107 -0.0076703427 -1.042552e-21 0.0046075423 6.7039569e-22 1.4821595e-40)
(0.013436986 -0.0073534384 -2.2895241e-22 0.0044249233 6.7172534e-23 9.1258461e-40)
(0.012583683 -0.0069851183 1.3461763e-21 0.0042739766 -8.0514329e-22 3.504781e-40)
(0.00011838414 -0.0001374846 -1.2967754e-23 0.00017401378 -1.1595681e-23 8.4063512e-41)
(0.00079899648 -0.00095178055 -1.6048217e-21 0.0011448657 1.6988288e-21 1.2145102e-38)
(0.001669755 -0.0019243701 -1.2905453e-21 0.0022317038 1.3852811e-21 1.8421157e-38)
(0.0028850803 -0.0029916155 2.3661264e-21 0.0031394713 -2.2783918e-21 1.0718748e-38)
(0.0042587785 -0.0040399038 1.9140295e-21 0.0038991733 -1.9064605e-21 4.4931581e-39)
(0.0057146262 -0.0050161201 1.6466208e-21 0.0045018562 -1.3721003e-21 1.773202e-39)
(0.0071978804 -0.0058909316 -1.4247539e-22 0.0049532629 1.8182293e-22 8.4170318e-40)
(0.0086466856 -0.0066465964 -1.5110532e-21 0.0052737458 1.0265949e-21 4.8492899e-39)