/*--------------------------------*- C++ -*----------------------------------*\
  =========                 |
  \\      /  F ield         | OpenFOAM: The Open Source CFD Toolbox
   \\    /   O peration     | Website:  https://openfoam.org
    \\  /    A nd           | Version:  6
     \\/     M anipulation  |
\*---------------------------------------------------------------------------*/
FoamFile
{
    version     2.0;
    format      ascii;
    class       volScalarField;
    location    "331";
    object      pMean;
}
// * * * * * * * * * * * * * * * * * * * * * * * * * * * * * * * * * * * * * //

dimensions      [0 2 -2 0 0 0 0];

internalField   nonuniform List<scalar> 
9200
(
-0.38761041
-0.37590057
-0.36546146
-0.35622281
-0.34719129
-0.33837473
-0.32985416
-0.32159545
-0.31352912
-0.30558208
-0.29768104
-0.2897575
-0.28175471
-0.27363485
-0.26538941
-0.25705656
-0.24871554
-0.24045639
-0.23329337
-0.23146592
-0.40577186
-0.39161195
-0.37923297
-0.3684699
-0.35805565
-0.34796661
-0.33827422
-0.32891401
-0.31978516
-0.31078933
-0.30183443
-0.29284041
-0.28374668
-0.27451791
-0.26514927
-0.25567001
-0.2461143
-0.23648571
-0.22746232
-0.22119516
-0.42430476
-0.40767922
-0.39341099
-0.38119562
-0.36945324
-0.3581108
-0.34721886
-0.33667565
-0.3263479
-0.31611679
-0.30588134
-0.29556386
-0.28511641
-0.27452356
-0.26380175
-0.25299459
-0.2421452
-0.23126584
-0.2207551
-0.21172717
-0.44276281
-0.42369693
-0.40760782
-0.39400173
-0.38094922
-0.3683119
-0.35611242
-0.34421222
-0.33245455
-0.32071634
-0.30890911
-0.29698146
-0.28492167
-0.272755
-0.26053645
-0.24834038
-0.23623658
-0.22426564
-0.21269556
-0.20227051
-0.46050338
-0.43910618
-0.42131516
-0.40639471
-0.39203915
-0.37803476
-0.36437725
-0.35090307
-0.33745346
-0.32392884
-0.31028304
-0.29651881
-0.28268302
-0.26885616
-0.2551387
-0.24163669
-0.22844165
-0.21561185
-0.20333591
-0.19212525
-0.47669005
-0.4531758
-0.43386008
-0.41771352
-0.40204585
-0.38656924
-0.37126613
-0.3559747
-0.34056901
-0.3250094
-0.30932442
-0.29359482
-0.27793857
-0.26249252
-0.24739407
-0.23276646
-0.21870374
-0.20525985
-0.19256042
-0.18094557
-0.49030734
-0.46500861
-0.44440652
-0.42713281
-0.41013113
-0.39305666
-0.37590758
-0.35856536
-0.3409815
-0.32321518
-0.30539693
-0.28769812
-0.27030585
-0.25339958
-0.23713285
-0.22162268
-0.20694242
-0.19311999
-0.18022108
-0.16844877
-0.50018339
-0.47356578
-0.45198877
-0.43371096
-0.41536135
-0.39657327
-0.37740431
-0.3578318
-0.33793271
-0.31789908
-0.29797951
-0.27843438
-0.25950442
-0.24138789
-0.22422845
-0.20811323
-0.19307581
-0.17910415
-0.16620528
-0.15446665
-0.50497013
-0.47756434
-0.45531215
-0.43610402
-0.41635448
-0.39573818
-0.37443249
-0.3525673
-0.33038349
-0.30822002
-0.2864356
-0.26535607
-0.24524451
-0.22628673
-0.20859056
-0.19219515
-0.17708406
-0.16320159
-0.15050019
-0.13896814
-0.50331533
-0.47558269
-0.45282324
-0.4326419
-0.41138709
-0.38885874
-0.36541874
-0.34139387
-0.31720078
-0.29330672
-0.27014209
-0.24805226
-0.22727998
-0.2079662
-0.19016319
-0.17385418
-0.15897369
-0.14542835
-0.13312335
-0.12196045
-0.27160525
-0.27611862
-0.27837633
-0.2789059
-0.27845707
-0.27720739
-0.27524542
-0.27266266
-0.26953282
-0.26591215
-0.26184632
-0.2573744
-0.252531
-0.24734769
-0.2418542
-0.23608094
-0.23006039
-0.22381462
-0.21734395
-0.21073679
-0.27444089
-0.27852682
-0.28047164
-0.28078015
-0.28014722
-0.27874173
-0.27665019
-0.27396008
-0.27074135
-0.26704723
-0.26292088
-0.25839914
-0.25351464
-0.24829685
-0.24277281
-0.23697182
-0.23093376
-0.22467907
-0.21810022
-0.21117086
-0.27996682
-0.28321869
-0.28455464
-0.28443086
-0.2834372
-0.28172698
-0.27938287
-0.27648451
-0.27309448
-0.26926011
-0.26501947
-0.26040498
-0.25544527
-0.25016581
-0.24458864
-0.23874001
-0.23267104
-0.22640115
-0.2196296
-0.21209277
-0.28792681
-0.28998739
-0.29044351
-0.28968439
-0.28815477
-0.28598822
-0.28326293
-0.28004793
-0.2763956
-0.27234502
-0.26792702
-0.26316758
-0.25808956
-0.2527125
-0.24705145
-0.24112723
-0.23500256
-0.22870172
-0.22167813
-0.21329303
-0.29799824
-0.29857335
-0.29791193
-0.29632719
-0.29409103
-0.29131616
-0.288077
-0.28443046
-0.28041691
-0.27606566
-0.27139884
-0.26643377
-0.26118547
-0.25566628
-0.249883
-0.24384787
-0.23763114
-0.2312705
-0.22396345
-0.21455424
-0.30984664
-0.30870734
-0.30672728
-0.30414373
-0.30103972
-0.29750871
-0.29362354
-0.2894293
-0.28495374
-0.28021396
-0.27522081
-0.26998197
-0.26450328
-0.25878843
-0.25283495
-0.24664373
-0.24028465
-0.23381483
-0.22620604
-0.21566973
-0.32317483
-0.32014906
-0.3166853
-0.3129516
-0.30883467
-0.30441215
-0.29975923
-0.29490882
-0.2898734
-0.28465709
-0.27925881
-0.27367455
-0.2678993
-0.26192701
-0.25574608
-0.24934578
-0.24278873
-0.23615461
-0.22825339
-0.21660108
-0.33775218
-0.33271087
-0.327633
-0.32262688
-0.31737996
-0.31195722
-0.30643655
-0.30083805
-0.29515896
-0.28938854
-0.28351097
-0.27750767
-0.27135982
-0.26504923
-0.25855475
-0.25185706
-0.24501635
-0.23815833
-0.23004975
-0.21751131
-0.353414
-0.34624943
-0.33944951
-0.33307286
-0.32660138
-0.32008626
-0.31361011
-0.3071798
-0.30077461
-0.29436594
-0.28791982
-0.28139917
-0.27476615
-0.26798251
-0.26100508
-0.25378779
-0.24635623
-0.23881901
-0.22994094
-0.21624938
-0.37005229
-0.36064684
-0.35201155
-0.34416022
-0.33635674
-0.32863838
-0.32109244
-0.3137105
-0.30645165
-0.29926805
-0.29210762
-0.28491688
-0.2776439
-0.27023845
-0.26264675
-0.25480719
-0.2466658
-0.23802126
-0.22724704
-0.21134082
-0.20325319
-0.1939262
-0.18461577
-0.17539334
-0.16620279
-0.15708507
-0.14809534
-0.13926938
-0.13063615
-0.12222377
-0.11405747
-0.10615863
-0.098545265
-0.091232452
-0.084232342
-0.077554253
-0.07120481
-0.065188079
-0.059505693
-0.054156991
-0.049139165
-0.044447424
-0.040075165
-0.036014157
-0.032254733
-0.028785991
-0.025595997
-0.022671984
-0.020000553
-0.017567868
-0.015359835
-0.013362279
-0.011561105
-0.0099424443
-0.0084927929
-0.0071991336
-0.006049059
-0.0050308648
-0.0041337268
-0.0033476092
-0.0026641285
-0.0020744335
-0.0015768485
-0.001154401
-0.00084581944
-0.00053504375
-0.00058447741
1.3414698e-05
-0.0017707156
0.0026348352
-0.20441204
-0.19466882
-0.18523927
-0.17602586
-0.16681003
-0.15765405
-0.14863248
-0.13977738
-0.13111493
-0.12267387
-0.11447981
-0.10655398
-0.098914399
-0.091576187
-0.084551566
-0.077849906
-0.07147788
-0.0654396
-0.059736736
-0.05436865
-0.04933255
-0.044623649
-0.040235338
-0.03615937
-0.032386056
-0.028904465
-0.025702625
-0.022767729
-0.020086334
-0.017644554
-0.015428246
-0.013423184
-0.011615221
-0.0099904357
-0.0085352727
-0.0072366643
-0.0060821538
-0.0050599889
-0.0041592994
-0.0033700044
-0.0026836757
-0.0020914205
-0.0015915027
-0.0011669491
-0.00085621454
-0.00054384875
-0.00058957066
6.3012675e-06
-0.0017574729
0.0026058702
-0.20680236
-0.19617535
-0.18651083
-0.17735755
-0.16810572
-0.15887463
-0.14979207
-0.14088043
-0.13215873
-0.12365799
-0.11540523
-0.1074216
-0.099725188
-0.092331485
-0.085252989
-0.078499279
-0.072077217
-0.06599108
-0.060242664
-0.054831424
-0.049754629
-0.045007519
-0.040583486
-0.036474263
-0.032670113
-0.029160042
-0.025931998
-0.02297308
-0.020269744
-0.017807991
-0.015573564
-0.013552116
-0.01172938
-0.010091313
-0.0086242406
-0.0073149779
-0.0061509547
-0.005120309
-0.0042120647
-0.0034160391
-0.0027237044
-0.002126073
-0.0016212847
-0.0011923427
-0.00087718554
-0.00056148639
-0.00059981469
-7.7018271e-06
-0.0017313793
0.0025485327
-0.21021214
-0.1981712
-0.18816566
-0.17920277
-0.16994804
-0.16062322
-0.15147028
-0.14249429
-0.13369828
-0.12511853
-0.11678607
-0.10872217
-0.10094526
-0.093471686
-0.0863147
-0.079484407
-0.072988125
-0.066830519
-0.061013701
-0.055537361
-0.050398938
-0.045593784
-0.041115348
-0.036955367
-0.033104074
-0.029550405
-0.026282206
-0.023286455
-0.02054946
-0.018057065
-0.01579484
-0.013748262
-0.011902877
-0.010244462
-0.008759157
-0.0074335982
-0.0062550398
-0.00521145
-0.0042916894
-0.0034854169
-0.002783951
-0.0021781568
-0.001665986
-0.0012303976
-0.00090856917
-0.00058781186
-0.00061511881
-2.8415836e-05
-0.0016929897
0.0024640364
-0.21435707
-0.20034242
-0.18989639
-0.18132678
-0.17215689
-0.16274243
-0.15353038
-0.14450617
-0.13564082
-0.12697786
-0.11855721
-0.1104015
-0.10252963
-0.094959524
-0.087705871
-0.080779862
-0.074189683
-0.067940748
-0.06203578
-0.056474956
-0.05125608
-0.046374769
-0.041824646
-0.037597544
-0.03368372
-0.030072072
-0.026750365
-0.023705445
-0.020923459
-0.018390061
-0.01609061
-0.014010358
-0.012134619
-0.010448927
-0.0089391835
-0.0075917864
-0.0063937565
-0.0053328346
-0.0043976621
-0.0035776851
-0.0028640151
-0.0022473182
-0.0017252946
-0.0012808398
-0.00095012784
-0.00062261026
-0.00063537078
-5.5550355e-05
-0.0016432047
0.0023542661
-0.21884128
-0.20237424
-0.19140447
-0.18346542
-0.17453044
-0.16506288
-0.15581699
-0.14678079
-0.13787435
-0.12914268
-0.12063981
-0.11239316
-0.10442285
-0.096748795
-0.089388053
-0.082353702
-0.075655408
-0.069299833
-0.063290749
-0.057629183
-0.052313606
-0.047340146
-0.042702794
-0.03839363
-0.03440305
-0.030719999
-0.027332207
-0.024226422
-0.021388638
-0.01880431
-0.016458568
-0.014336404
-0.012422858
-0.01070318
-0.0091629806
-0.0077883664
-0.0065660711
-0.0054835546
-0.0045291858
-0.0036921452
-0.0029632857
-0.0023330247
-0.0017987473
-0.001343269
-0.0010015217
-0.00066558347
-0.00066041725
-8.8736498e-05
-0.0015831818
0.0022216732
-0.22323713
-0.2040654
-0.1924628
-0.18532285
-0.17684814
-0.1674388
-0.15819811
-0.14919024
-0.14028829
-0.13152153
-0.12295646
-0.11463075
-0.1065682
-0.098791259
-0.091320118
-0.084170758
-0.077355173
-0.070881921
-0.064756373
-0.058980877
-0.053554963
-0.048475587
-0.043737366
-0.03933283
-0.03525267
-0.031485995
-0.028020586
-0.024843146
-0.021939544
-0.019295048
-0.016894548
-0.01472276
-0.012764421
-0.011004456
-0.0094281423
-0.0080212496
-0.0067701756
-0.0056620495
-0.0046849182
-0.0038276474
-0.0030807826
-0.0024344453
-0.0018856441
-0.0014171027
-0.0010622748
-0.00071634158
-0.00069005922
-0.0001275777
-0.0015142489
0.0020691322
-0.22726633
-0.20579806
-0.19329148
-0.18671096
-0.17889142
-0.16977511
-0.16062176
-0.15167003
-0.14281222
-0.13405018
-0.12544955
-0.11706093
-0.1089162
-0.10104166
-0.093461035
-0.086194006
-0.079255721
-0.072657288
-0.066406205
-0.060506595
-0.054959438
-0.049762843
-0.04491232
-0.040401071
-0.036220256
-0.032359286
-0.028806092
-0.025547407
-0.022569023
-0.019856046
-0.017393138
-0.015164732
-0.013155241
-0.01134924
-0.0097316413
-0.0082878372
-0.0070038484
-0.00586643
-0.0048632623
-0.0039828513
-0.0032153897
-0.0025506605
-0.0019852359
-0.0015017423
-0.0011319212
-0.00077452764
-0.00072415291
-0.00017174288
-0.0014378757
0.0018998974
-0.22858974
-0.20778277
-0.19455599
-0.18755803
-0.18022553
-0.1716906
-0.16281292
-0.15398691
-0.14523022
-0.13653758
-0.12795783
-0.11954957
-0.11135614
-0.10340999
-0.095739082
-0.088367438
-0.081314264
-0.074594099
-0.06821734
-0.062190584
-0.056516897
-0.051196096
-0.046225075
-0.041598117
-0.037307202
-0.033342325
-0.029691803
-0.026342576
-0.023280496
-0.020490609
-0.01795741
-0.015665091
-0.013597757
-0.011739636
-0.010075253
-0.0085895998
-0.0072682853
-0.0060976494
-0.0050649623
-0.0041583237
-0.003367525
-0.0026819633
-0.0020977123
-0.0015972857
-0.001210502
-0.00084007228
-0.00076280349
-0.00022071692
-0.001355948
0.0017182097
-0.21887709
-0.2071102
-0.19577217
-0.18735764
-0.17996396
-0.17221484
-0.16395072
-0.15549527
-0.14702727
-0.1385743
-0.13016612
-0.12186158
-0.11371685
-0.10577511
-0.098072078
-0.090638809
-0.083501119
-0.076679337
-0.070188784
-0.064040251
-0.058240339
-0.052791807
-0.047693948
-0.042942961
-0.038532328
-0.034453175
-0.030694632
-0.027244179
-0.024087983
-0.021211207
-0.01859831
-0.016233318
-0.014100077
-0.012182475
-0.010464649
-0.0089311625
-0.0075671763
-0.0063585704
-0.0052921541
-0.0043555665
-0.0035381434
-0.0028288379
-0.0022231661
-0.001703481
-0.0012975515
-0.00091216376
-0.00080556428
-0.0002725649
-0.0012709157
0.0015296899
-0.19699294
-0.20107211
-0.19539109
-0.1862036
-0.17839572
-0.1710655
-0.16325559
-0.15510755
-0.14688541
-0.13865354
-0.13043399
-0.12228131
-0.11425564
-0.10640478
-0.098767816
-0.091378969
-0.084267218
-0.077455859
-0.070962889
-0.064801499
-0.058980429
-0.053504323
-0.048374114
-0.043587414
-0.039138908
-0.035020732
-0.031222853
-0.027733428
-0.024539163
-0.021625636
-0.018977615
-0.016579341
-0.014414795
-0.012467934
-0.010722907
-0.0091642476
-0.0077770444
-0.0065470782
-0.0054610312
-0.0045064001
-0.0036723279
-0.0029476386
-0.0023273647
-0.0017942879
-0.0013733455
-0.00097771484
-0.00084252413
-0.00032409744
-0.0011828323
0.0013425618
-0.18619971
-0.1913875
-0.18753573
-0.1785797
-0.17112005
-0.16457451
-0.15759489
-0.15018841
-0.14264731
-0.13504775
-0.12740261
-0.11976243
-0.11218998
-0.10473699
-0.097446431
-0.090356611
-0.08350084
-0.076906699
-0.070596288
-0.06458668
-0.058890258
-0.05351504
-0.048465063
-0.043740772
-0.03933942
-0.035255455
-0.031480911
-0.028005783
-0.024818396
-0.021905746
-0.01925383
-0.016847948
-0.014672979
-0.01271364
-0.010954712
-0.0093812416
-0.0079787326
-0.0067332908
-0.0056318356
-0.0046620475
-0.0038131183
-0.0030740399
-0.0024393549
-0.0018928995
-0.0014556788
-0.0010502791
-0.00088164635
-0.00038447745
-0.0010822341
0.0011400216
-0.17716155
-0.17983566
-0.17721202
-0.17000571
-0.16343303
-0.15761208
-0.15142586
-0.14477428
-0.13791954
-0.13095726
-0.12390266
-0.11680036
-0.10971201
-0.10269134
-0.095783627
-0.089029774
-0.082466238
-0.07612405
-0.070028836
-0.064201179
-0.058656891
-0.053407288
-0.048459529
-0.04381698
-0.039479601
-0.035444326
-0.031705447
-0.028255001
-0.025083133
-0.022178457
-0.019528388
-0.017119463
-0.014937625
-0.012968499
-0.011197629
-0.0096106967
-0.0081937217
-0.0069332236
-0.0058164324
-0.0048312752
-0.0039670332
-0.0032129183
-0.0025629504
-0.0020021678
-0.0015472171
-0.001131152
-0.00092559199
-0.0004517255
-0.00097241465
0.00091746691
-0.16718264
-0.16735738
-0.1652192
-0.16010093
-0.15478451
-0.14973623
-0.14436677
-0.13854964
-0.13245883
-0.12619521
-0.11978947
-0.11328439
-0.10673838
-0.10020591
-0.09373426
-0.08736653
-0.081141871
-0.07509449
-0.069253422
-0.063642743
-0.058281771
-0.053185267
-0.048363711
-0.04382363
-0.039567949
-0.035596359
-0.031905688
-0.028490277
-0.025342355
-0.022452394
-0.019809457
-0.017401523
-0.015215792
-0.013238962
-0.011457492
-0.0098578279
-0.0084266193
-0.0071508942
-0.0060182729
-0.0050169931
-0.0041364749
-0.0033661853
-0.0026996383
-0.0021230843
-0.0016487603
-0.0012202466
-0.00097540924
-0.00052292941
-0.00086103626
0.00068513318
-0.15632546
-0.15472861
-0.15266119
-0.14926613
-0.14526252
-0.14104683
-0.13649883
-0.1315465
-0.12627165
-0.12075736
-0.11504948
-0.10919332
-0.10324317
-0.097252415
-0.091269383
-0.085338604
-0.079501158
-0.073793838
-0.068248704
-0.062893103
-0.05774976
-0.052836892
-0.048168408
-0.043754163
-0.039600268
-0.035709419
-0.032081247
-0.028712676
-0.02559829
-0.022730686
-0.020100828
-0.017698372
-0.01551199
-0.013529652
-0.011738906
-0.010127117
-0.0086816977
-0.0073903004
-0.0062410314
-0.0052225165
-0.004324379
-0.0035363759
-0.0028515674
-0.0022573602
-0.0017617402
-0.0013183463
-0.0010323944
-0.00059718934
-0.00075404197
0.00045116201
-0.14428992
-0.14198809
-0.14008209
-0.13797139
-0.13515441
-0.13179891
-0.12806058
-0.12395199
-0.1194954
-0.11474675
-0.10975913
-0.10457958
-0.099257989
-0.093845369
-0.088389873
-0.082936387
-0.077526795
-0.07219947
-0.06698872
-0.061924573
-0.05703273
-0.05233458
-0.047847298
-0.043584021
-0.039554082
-0.035763286
-0.032214217
-0.028906572
-0.025837498
-0.02300194
-0.020392982
-0.018002183
-0.015819891
-0.01383555
-0.012037978
-0.010415624
-0.0089568121
-0.0076499464
-0.0064837315
-0.0054472719
-0.0045304751
-0.0037234307
-0.0030188271
-0.002405134
-0.0018864106
-0.0014255014
-0.0010973176
-0.00067379097
-0.0006573124
0.00022415006
-0.13139514
-0.12928131
-0.12776172
-0.12657619
-0.12473748
-0.12221243
-0.11925481
-0.11594256
-0.11227373
-0.10827842
-0.10400828
-0.09951164
-0.094833121
-0.090018867
-0.085115633
-0.080167797
-0.075217006
-0.07030206
-0.065458493
-0.06071819
-0.056109163
-0.051655449
-0.047377106
-0.043290293
-0.039407413
-0.035737321
-0.032285573
-0.02905471
-0.02604456
-0.023252565
-0.020674102
-0.018302808
-0.016130898
-0.014149467
-0.012348778
-0.010718528
-0.0092481033
-0.0079267954
-0.0067440275
-0.005689484
-0.0047534499
-0.0039263971
-0.0032007515
-0.0025659269
-0.002022522
-0.0015414219
-0.00117069
-0.00075206744
-0.00057671033
1.3305258e-05
-0.11834886
-0.11685214
-0.11585054
-0.11533602
-0.11426759
-0.11249591
-0.11026732
-0.10768866
-0.10475474
-0.10147824
-0.09790273
-0.094074245
-0.090034047
-0.085822748
-0.081482559
-0.077056148
-0.072584205
-0.068104973
-0.063654122
-0.05926441
-0.05496533
-0.050782871
-0.046739407
-0.042853672
-0.039140816
-0.035612522
-0.032277189
-0.029140147
-0.02620392
-0.023468504
-0.020931667
-0.01858925
-0.016435475
-0.014463239
-0.012664405
-0.011030072
-0.0095508294
-0.0082169934
-0.0070188294
-0.0059467089
-0.0049913966
-0.004143805
-0.0033962267
-0.0027388934
-0.0021695108
-0.0016656471
-0.0012527998
-0.00083162123
-0.00051732051
-0.00017263204
-0.10568326
-0.10487706
-0.10441353
-0.10440846
-0.10394262
-0.10282432
-0.1012536
-0.099337338
-0.097073502
-0.094465358
-0.091546559
-0.088357573
-0.084935096
-0.081315259
-0.077535661
-0.073634806
-0.069651084
-0.065621419
-0.061580734
-0.057561692
-0.053594359
-0.049705881
-0.045920259
-0.042258228
-0.038737216
-0.035371373
-0.032171673
-0.02914606
-0.026299647
-0.023634949
-0.021152136
-0.018849308
-0.016722778
-0.014767354
-0.012976619
-0.011343199
-0.0098590202
-0.0085155471
-0.0073040086
-0.0062155711
-0.0052415861
-0.0043734724
-0.0036035313
-0.0029226972
-0.0023264033
-0.0017974933
-0.0013436151
-0.00091236306
-0.00048269884
-0.00032657863
-0.093676264
-0.093473413
-0.09349544
-0.093892133
-0.093901237
-0.09333214
-0.092336555
-0.091006859
-0.089343028
-0.087343527
-0.085032787
-0.082444071
-0.079608694
-0.076557645
-0.073323966
-0.069942001
-0.066446326
-0.062871315
-0.05925035
-0.05561519
-0.051995615
-0.048419109
-0.044910563
-0.041492062
-0.038182751
-0.034998783
-0.031953334
-0.029056675
-0.026316306
-0.023737121
-0.021321622
-0.019070147
-0.01698112
-0.015051313
-0.013276107
-0.011649748
-0.010165605
-0.0088163992
-0.0075944314
-0.0064917665
-0.0055004484
-0.0046124739
-0.0038202993
-0.0031154731
-0.0024917797
-0.0019360133
-0.0014427169
-0.00099442649
-0.00047431513
-0.0004441624
-0.082463508
-0.082730475
-0.083148681
-0.083860179
-0.084242297
-0.084123038
-0.083615638
-0.082794141
-0.08165786
-0.080202217
-0.078443844
-0.076408475
-0.074121525
-0.071608628
-0.068897674
-0.066018572
-0.063002016
-0.059878875
-0.056679948
-0.053435319
-0.050173742
-0.046922265
-0.043705932
-0.040547498
-0.037467223
-0.034482732
-0.031608954
-0.028858121
-0.026239827
-0.023761132
-0.021426716
-0.019239059
-0.017198656
-0.015304236
-0.013553009
-0.011940897
-0.010462782
-0.0091127258
-0.0078841956
-0.0067702457
-0.005763711
-0.0048572415
-0.0040435922
-0.0033148717
-0.0026638039
-0.0020799884
-0.0015492705
-0.0010780205
-0.00049126767
-0.00052448488
-0.072102516
-0.072709166
-0.073425191
-0.074372096
-0.075040001
-0.07527908
-0.075174052
-0.074782006
-0.074099968
-0.073120801
-0.071854649
-0.07032016
-0.068536743
-0.06652461
-0.064306391
-0.061907087
-0.059353163
-0.056671799
-0.053890529
-0.051036918
-0.048137977
-0.045219636
-0.04230639
-0.039420993
-0.036584193
-0.033814526
-0.031128179
-0.028538917
-0.026058073
-0.023694587
-0.021455098
-0.019344072
-0.017363964
-0.015515407
-0.013797415
-0.012207603
-0.0107424
-0.009397269
-0.0081669099
-0.0070454443
-0.006026586
-0.0051037125
-0.0042700132
-0.0035181401
-0.0028402798
-0.0022279316
-0.0016620236
-0.0011632529
-0.00053036155
-0.0005703719
-0.06260319
-0.063440766
-0.064364248
-0.065474012
-0.066350837
-0.066865654
-0.067081944
-0.067042749
-0.066742488
-0.066171749
-0.0653353
-0.064245502
-0.062916055
-0.061361889
-0.059600464
-0.057651801
-0.055537792
-0.053281604
-0.050907247
-0.048439213
-0.045902083
-0.043320023
-0.040716341
-0.038113153
-0.035531074
-0.032988974
-0.030503769
-0.028090292
-0.02576121
-0.023527003
-0.021395991
-0.019374408
-0.01746651
-0.015674719
-0.013999793
-0.012441004
-0.010996333
-0.0096626663
-0.0084359848
-0.0073115347
-0.006283983
-0.0053475051
-0.0044958485
-0.0037222264
-0.0030187284
-0.0023781031
-0.0017793355
-0.0012499692
-0.00058658477
-0.00058795277
-0.053949116
-0.054932135
-0.055987234
-0.057196667
-0.05821549
-0.058933077
-0.059396765
-0.05963844
-0.059650358
-0.059421302
-0.058951688
-0.058248539
-0.057320445
-0.05617744
-0.054832086
-0.05329957
-0.05159719
-0.049743871
-0.047759826
-0.045666189
-0.043484638
-0.041236997
-0.038944812
-0.036628967
-0.034309359
-0.032004615
-0.029731846
-0.027506455
-0.025342001
-0.023250119
-0.021240483
-0.019320824
-0.017496989
-0.01577303
-0.01415133
-0.01263275
-0.011216786
-0.0099017429
-0.0086848999
-0.0075626668
-0.006530721
-0.0055841
-0.0047172189
-0.0039238965
-0.0031964764
-0.0025285431
-0.0018992445
-0.0013376537
-0.00065391801
-0.00058556908
-0.046108103
-0.047171116
-0.048297481
-0.049554572
-0.050659106
-0.051516784
-0.052162611
-0.052619807
-0.052879178
-0.05292834
-0.052764364
-0.052389944
-0.051809335
-0.051028263
-0.050054859
-0.048899812
-0.047576009
-0.046098167
-0.044482569
-0.042746778
-0.040909293
-0.038989187
-0.03700575
-0.034978119
-0.032924934
-0.030864036
-0.028812197
-0.026784885
-0.024796087
-0.022858171
-0.020981797
-0.01917588
-0.017447593
-0.015802411
-0.014244184
-0.012775246
-0.011396537
-0.010107738
-0.008907418
-0.0077931664
-0.0067617103
-0.0058090032
-0.0049302205
-0.0041198482
-0.0033707489
-0.0026771238
-0.0020195717
-0.001425418
-0.0007263097
-0.00057222101
-0.03903755
-0.040131744
-0.041283316
-0.042547468
-0.043692279
-0.04463793
-0.045410105
-0.04602543
-0.04647399
-0.046742905
-0.046826875
-0.046725271
-0.046438872
-0.045969815
-0.045322412
-0.044503354
-0.043521478
-0.042387513
-0.041113897
-0.039714566
-0.038204684
-0.036600333
-0.034918195
-0.033175238
-0.031388383
-0.029574197
-0.027748611
-0.025926669
-0.024122311
-0.022348198
-0.020615576
-0.018934192
-0.017312242
-0.015756368
-0.014271686
-0.012861845
-0.011529111
-0.010274471
-0.0090977423
-0.0079976835
-0.00697209
-0.0060178708
-0.0051310366
-0.0043068081
-0.0035387536
-0.0028216135
-0.0021380493
-0.0015120724
-0.00079857815
-0.00055593717
-0.032688959
-0.03377916
-0.034922169
-0.036163217
-0.037313125
-0.038304873
-0.039157203
-0.039881838
-0.040468767
-0.040905222
-0.041184415
-0.041303339
-0.041260161
-0.041054198
-0.040686642
-0.040160797
-0.03948195
-0.038657222
-0.037695456
-0.036607087
-0.035403946
-0.03409902
-0.032706191
-0.031239961
-0.029715171
-0.028146705
-0.026549215
-0.024936862
-0.023323086
-0.021720398
-0.020140221
-0.018592749
-0.017086868
-0.015630093
-0.014228558
-0.012887028
-0.011608945
-0.010396485
-0.0092506421
-0.0081713041
-0.0071573283
-0.0062066006
-0.0053160197
-0.0044816043
-0.0036977496
-0.0029597471
-0.0022524495
-0.0015962495
-0.00086700477
-0.00054251622
-0.027011339
-0.028073312
-0.029184139
-0.030380857
-0.031509818
-0.03251522
-0.033410699
-0.034204407
-0.034886724
-0.035445475
-0.035873135
-0.036165154
-0.036317885
-0.036328584
-0.03619604
-0.035920835
-0.035505294
-0.034953416
-0.03427084
-0.033464772
-0.032543868
-0.031518068
-0.030398398
-0.029196747
-0.027925633
-0.026597951
-0.025226717
-0.023824816
-0.022404773
-0.020978538
-0.019557294
-0.018151302
-0.016769775
-0.015420782
-0.014111195
-0.01284666
-0.011631595
-0.010469221
-0.009361595
-0.0083096664
-0.007313318
-0.0063714098
-0.005481757
-0.0046412246
-0.0038451042
-0.003089295
-0.0023606898
-0.0016765375
-0.00092947917
-0.00053497675
-0.021953494
-0.022971609
-0.024034803
-0.025173347
-0.026263117
-0.027258062
-0.028168083
-0.028998774
-0.029741239
-0.030384248
-0.030920117
-0.03134345
-0.03164948
-0.031834088
-0.031894347
-0.031828776
-0.031637357
-0.031321524
-0.030884181
-0.030329692
-0.029663826
-0.028893659
-0.028027441
-0.027074436
-0.026044733
-0.024949048
-0.023798503
-0.022604402
-0.021378007
-0.020130333
-0.018871947
-0.017612801
-0.016362074
-0.015128056
-0.013918051
-0.012738317
-0.011594029
-0.01048926
-0.0094269911
-0.0084091254
-0.0074365065
-0.0065089368
-0.0056251488
-0.0047828804
-0.0039783495
-0.0032081311
-0.0024608991
-0.0017515869
-0.00098522083
-0.00053379312
-0.01746589
-0.018431128
-0.01943765
-0.020510083
-0.021548851
-0.022516323
-0.023419663
-0.024262644
-0.025037294
-0.025733538
-0.026343962
-0.026862856
-0.0272849
-0.027605182
-0.027819666
-0.027925424
-0.027920696
-0.027804915
-0.027578767
-0.027244228
-0.026804557
-0.026264258
-0.025629007
-0.024905547
-0.024101565
-0.023225529
-0.022286522
-0.021294056
-0.020257869
-0.019187739
-0.018093291
-0.01698382
-0.015868133
-0.014754407
-0.01365007
-0.01256171
-0.011495003
-0.010454664
-0.0094444205
-0.008466995
-0.007524093
-0.0066163985
-0.005743532
-0.0049041044
-0.0040952595
-0.0033143082
-0.0025514522
-0.0018201769
-0.0010342594
-0.00053770196
-0.013501725
-0.014410049
-0.015355784
-0.016358792
-0.017339932
-0.018268807
-0.01915055
-0.019987638
-0.020773106
-0.021498129
-0.022155843
-0.022740609
-0.02324698
-0.023669721
-0.024004185
-0.024246533
-0.024393804
-0.02444397
-0.024396016
-0.024250005
-0.024007114
-0.023669639
-0.023240971
-0.022725551
-0.022128785
-0.021456947
-0.020717052
-0.019916712
-0.019063977
-0.018167168
-0.017234707
-0.016274947
-0.01529602
-0.014305681
-0.013311182
-0.012319153
-0.011335512
-0.010365384
-0.0094130447
-0.0084818707
-0.0075743039
-0.0066918188
-0.0058348652
-0.0050028988
-0.0041939663
-0.0034061533
-0.002630995
-0.0018812559
-0.001076919
-0.0005446867
-0.01001842
-0.010869387
-0.011753846
-0.012687578
-0.013608477
-0.014492332
-0.015342747
-0.016161259
-0.016941905
-0.017677122
-0.018360745
-0.018987463
-0.019552003
-0.020049146
-0.020474029
-0.020822334
-0.021090361
-0.021275098
-0.021374305
-0.021386598
-0.02131151
-0.021149528
-0.020902106
-0.020571662
-0.020161545
-0.019675978
-0.019119979
-0.018499261
-0.017820117
-0.017089286
-0.016313808
-0.015500879
-0.014657703
-0.013791353
-0.012908628
-0.012015935
-0.011119176
-0.010223648
-0.0093339623
-0.0084539697
-0.0075866982
-0.0067342961
-0.005897957
-0.0050779267
-0.0042731106
-0.0034823846
-0.0026984857
-0.0019339788
-0.0011134892
-0.00055277479
-0.0069775714
-0.0077734193
-0.0085988579
-0.0094661385
-0.010327369
-0.011163601
-0.011977259
-0.012769175
-0.013534332
-0.014266361
-0.014959862
-0.015609993
-0.016211846
-0.016760446
-0.017250998
-0.017679033
-0.018040482
-0.018331744
-0.018549768
-0.018692148
-0.018757187
-0.018743959
-0.018652353
-0.018483092
-0.01823774
-0.01791869
-0.01752912
-0.01707294
-0.01655471
-0.015979551
-0.015353035
-0.014681061
-0.013969732
-0.013225229
-0.012453676
-0.011661018
-0.010852907
-0.010034586
-0.00921079
-0.0083856552
-0.0075626318
-0.0067444066
-0.0059328091
-0.0051287958
-0.0043320697
-0.0035422841
-0.0027532891
-0.0019777761
-0.0011441409
-0.00056047446
-0.0043464384
-0.0050909968
-0.0058613856
-0.0066667486
-0.0074710433
-0.0082597812
-0.0090344602
-0.0097953627
-0.010538318
-0.011258047
-0.011949907
-0.012609588
-0.01323264
-0.013814475
-0.014350544
-0.014836459
-0.015268054
-0.015641447
-0.015953115
-0.016199984
-0.016379498
-0.016489689
-0.016529233
-0.016497498
-0.01639457
-0.016221273
-0.015979163
-0.015670509
-0.015298248
-0.014865936
-0.014377669
-0.013837996
-0.01325182
-0.01262429
-0.011960688
-0.011266314
-0.010546369
-0.0098058392
-0.0090493914
-0.0082812618
-0.0075051568
-0.0067241562
-0.0059406034
-0.0051560682
-0.0043709727
-0.0035857094
-0.0027951699
-0.0020123463
-0.0011689357
-0.0005668384
-0.0020992458
-0.0027979691
-0.0035189294
-0.0042686236
-0.0050208191
-0.0057647553
-0.0065011816
-0.0072299377
-0.0079475838
-0.0086497977
-0.0093326377
-0.009992325
-0.0106249
-0.011226217
-0.011792077
-0.012318316
-0.012800854
-0.013235751
-0.013619267
-0.013947947
-0.014218681
-0.014428781
-0.014576039
-0.014658786
-0.01467594
-0.014627043
-0.014512282
-0.0143325
-0.014089187
-0.013784456
-0.013421002
-0.013002054
-0.012531296
-0.012012789
-0.011450878
-0.010850095
-0.010215045
-0.0095503044
-0.0088603051
-0.0081492224
-0.0074208638
-0.0066785591
-0.0059250376
-0.0051623731
-0.0043916129
-0.0036138263
-0.0028248692
-0.0020381025
-0.001188244
-0.00057155171
-0.00021116465
-0.00086958596
-0.0015470484
-0.0022476659
-0.0029532718
-0.0036562159
-0.0043566429
-0.0050540216
-0.005745519
-0.0064276264
-0.0070970199
-0.0077504105
-0.0083843077
-0.0089950139
-0.009578714
-0.010131539
-0.010649603
-0.011129048
-0.011566097
-0.011957118
-0.012298688
-0.012587654
-0.0128212
-0.012996907
-0.013112807
-0.013167438
-0.013159883
-0.013089798
-0.012957435
-0.012763641
-0.012509853
-0.012198071
-0.011830813
-0.011411066
-0.010942214
-0.010427959
-0.0098722309
-0.0092790846
-0.0086525967
-0.0079967511
-0.0073153229
-0.0066117615
-0.0058890575
-0.005149675
-0.0043951831
-0.0036272446
-0.0028425887
-0.0020549414
-0.0012018308
-0.00057416571
0.0013145413
0.00068892947
4.7247907e-05
-0.00061286679
-0.0012796546
-0.0019479059
-0.0026172697
-0.0032869172
-0.0039545015
-0.0046171731
-0.0052721194
-0.005916471
-0.0065471502
-0.0071608661
-0.0077541708
-0.0083235023
-0.0088652126
-0.0093756009
-0.0098509578
-0.010287616
-0.010682003
-0.011030703
-0.011330512
-0.011578498
-0.011772067
-0.011909012
-0.011987573
-0.012006476
-0.011964974
-0.011862873
-0.011700541
-0.011478912
-0.011199473
-0.010864235
-0.010475682
-0.01003672
-0.0095505962
-0.009020816
-0.0084510455
-0.0078450028
-0.0072063421
-0.0065385331
-0.0058447241
-0.0051276626
-0.0043893331
-0.003631893
-0.0028528318
-0.0020661878
-0.0012120379
-0.00057587908
0.0025199092
0.001921306
0.0013089296
0.00068203491
4.7381542e-05
-0.00059177009
-0.001234687
-0.0018802914
-0.0025266048
-0.003171291
-0.0038119433
-0.0044460308
-0.0050708155
-0.0056833484
-0.0062805016
-0.0068589938
-0.0074154115
-0.0079462345
-0.0084478696
-0.0089166916
-0.0093490886
-0.0097415122