/*--------------------------------*- C++ -*----------------------------------*\
  =========                 |
  \\      /  F ield         | OpenFOAM: The Open Source CFD Toolbox
   \\    /   O peration     | Website:  https://openfoam.org
    \\  /    A nd           | Version:  6
     \\/     M anipulation  |
\*---------------------------------------------------------------------------*/
FoamFile
{
    version     2.0;
    format      ascii;
    class       volScalarField;
    location    "50";
    object      pMean;
}
// * * * * * * * * * * * * * * * * * * * * * * * * * * * * * * * * * * * * * //

dimensions      [0 2 -2 0 0 0 0];

internalField   nonuniform List<scalar> 
9200
(
-0.43973698
-0.42599594
-0.41362468
-0.40276771
-0.39210358
-0.38160635
-0.37137246
-0.36135889
-0.35148422
-0.34166898
-0.3318384
-0.32192712
-0.31188645
-0.30169109
-0.29134793
-0.28091137
-0.27047695
-0.260147
-0.25087673
-0.24666798
-0.45957449
-0.44339092
-0.42910195
-0.4166952
-0.40458884
-0.39273105
-0.38120843
-0.36994993
-0.35884767
-0.34780352
-0.33673186
-0.32556489
-0.31425963
-0.3028025
-0.29121258
-0.27954311
-0.26785242
-0.25616543
-0.24513358
-0.23682528
-0.47952797
-0.46092689
-0.44479698
-0.43092191
-0.41742392
-0.4042083
-0.39134323
-0.37872683
-0.36622852
-0.35374116
-0.34118268
-0.32850008
-0.31567435
-0.30272096
-0.28968669
-0.27664275
-0.26365637
-0.25075814
-0.23834318
-0.22752142
-0.49908277
-0.47812397
-0.46023812
-0.44495614
-0.43007187
-0.41543456
-0.40109147
-0.38691613
-0.37276996
-0.35855799
-0.34422639
-0.3297621
-0.31519257
-0.30057986
-0.28601088
-0.27158521
-0.25739053
-0.24347678
-0.23011505
-0.21806696
-0.51752557
-0.49435152
-0.47484108
-0.45822438
-0.44194632
-0.42579462
-0.40980262
-0.39383755
-0.37777962
-0.36157698
-0.3452346
-0.32880524
-0.3123809
-0.29607928
-0.28002827
-0.2643514
-0.24914791
-0.23447463
-0.22052233
-0.20782501
-0.53395373
-0.50881064
-0.48786145
-0.46999171
-0.45229705
-0.43451116
-0.41667413
-0.39867966
-0.38046517
-0.3620589
-0.34355443
-0.32508926
-0.30682635
-0.28893397
-0.27156762
-0.25485691
-0.23889252
-0.22371717
-0.20945457
-0.19646352
-0.54729457
-0.52054403
-0.49839998
-0.47936985
-0.46022788
-0.44067797
-0.42080275
-0.40056833
-0.38001481
-0.35928674
-0.33858819
-0.31814743
-0.29819007
-0.27891644
-0.26048609
-0.24301088
-0.22655106
-0.21111648
-0.19676633
-0.18371422
-0.55633188
-0.52846484
-0.50544165
-0.48537137
-0.46476777
-0.44334722
-0.42128386
-0.39867064
-0.37569624
-0.35265011
-0.32985605
-0.30762487
-0.2862243
-0.26586029
-0.2466701
-0.22872565
-0.2120403
-0.19658024
-0.18234201
-0.16941419
-0.55968544
-0.53124778
-0.50764393
-0.4866074
-0.46450165
-0.44112448
-0.41680389
-0.39181363
-0.3665227
-0.34137136
-0.31678758
-0.29313577
-0.27069206
-0.24963691
-0.23006136
-0.21198222
-0.19535893
-0.18011295
-0.1661831
-0.15354947
-0.55599375
-0.52744558
-0.50342145
-0.4813821
-0.4576976
-0.43233325
-0.40583187
-0.3786837
-0.35143925
-0.32466135
-0.29883718
-0.27433615
-0.25140094
-0.23015708
-0.21063362
-0.19278801
-0.17652979
-0.16174376
-0.1483186
-0.13613869
-0.3062876
-0.30989271
-0.31073988
-0.31002436
-0.30825765
-0.3055648
-0.30207421
-0.29789954
-0.29312307
-0.28780941
-0.28201345
-0.27578306
-0.26916125
-0.26218793
-0.25490116
-0.24733989
-0.23954554
-0.23154894
-0.22335756
-0.21507594
-0.30969877
-0.31280857
-0.31330866
-0.31235889
-0.31040254
-0.30755622
-0.30394569
-0.29967877
-0.29483268
-0.28946826
-0.28363715
-0.2773844
-0.27075051
-0.2637728
-0.25648612
-0.24892772
-0.24114618
-0.23317054
-0.22489229
-0.21628281
-0.31632253
-0.31847567
-0.31830646
-0.31689924
-0.31457231
-0.31142613
-0.30758072
-0.30313281
-0.29815002
-0.29268558
-0.28678465
-0.28048657
-0.27382678
-0.26683765
-0.25954813
-0.25199135
-0.2442262
-0.23628136
-0.22784743
-0.21862835
-0.32581117
-0.32661286
-0.32548447
-0.32340534
-0.32052574
-0.31692548
-0.31271721
-0.30798288
-0.30277685
-0.29714173
-0.29111341
-0.28472298
-0.27799858
-0.27096545
-0.26364457
-0.25606222
-0.24828678
-0.24035324
-0.23170961
-0.22165547
-0.3377285
-0.33686797
-0.33453347
-0.33158259
-0.32797085
-0.32375688
-0.31904612
-0.31390381
-0.30836894
-0.30247156
-0.29623616
-0.28968305
-0.28283075
-0.27569589
-0.26829023
-0.26063047
-0.25278992
-0.24481822
-0.23592582
-0.22488339
-0.35162441
-0.34887663
-0.34513592
-0.34113372
-0.3366194
-0.33163315
-0.32627547
-0.32059528
-0.31461532
-0.30835039
-0.30181117
-0.29500595
-0.28794224
-0.28062662
-0.27306095
-0.26525028
-0.25726547
-0.24917576
-0.23999589
-0.22788326
-0.36709967
-0.36231297
-0.35701149
-0.35180499
-0.34623587
-0.34033099
-0.33419007
-0.32784541
-0.32130126
-0.31455677
-0.3076081
-0.30044974
-0.29307671
-0.28548486
-0.27766687
-0.26961704
-0.26139866
-0.25310316
-0.24361781
-0.23045948
-0.38384174
-0.37691888
-0.3699449
-0.36341611
-0.35667232
-0.34973118
-0.34269211
-0.33557124
-0.32835489
-0.32102493
-0.31356057
-0.3059401
-0.2981437
-0.29015479
-0.28195706
-0.27353815
-0.26496097
-0.25636313
-0.24661924
-0.23263504
-0.40162072
-0.39248943
-0.38375652
-0.37581401
-0.36779907
-0.35972003
-0.35167873
-0.34367529
-0.33567625
-0.32764405
-0.3195387
-0.31131962
-0.30294853
-0.29439022
-0.28560863
-0.27656809
-0.26730136
-0.25793073
-0.2473446
-0.23223791
-0.42027745
-0.40884977
-0.39826074
-0.38880281
-0.37940332
-0.37006159
-0.36088225
-0.3518486
-0.34290661
-0.33399971
-0.32507074
-0.31606462
-0.30693187
-0.29762913
-0.28811424
-0.2783416
-0.2682748
-0.25774238
-0.24525362
-0.22802587
-0.20573671
-0.19430099
-0.18300355
-0.17195755
-0.16109327
-0.1504476
-0.14008467
-0.13004435
-0.12035361
-0.1110377
-0.10211867
-0.093613167
-0.085532883
-0.077885549
-0.070675193
-0.063902281
-0.057564017
-0.051654669
-0.046165866
-0.041086879
-0.036404913
-0.032105403
-0.028172307
-0.024588391
-0.021335512
-0.018394889
-0.01574736
-0.013373622
-0.011254454
-0.0093709209
-0.0077045484
-0.006237486
-0.0049526428
-0.0038338057
-0.0028657416
-0.0020342853
-0.0013264254
-0.0007303681
-0.00023568374
0.00016678225
0.00048408699
0.0007231714
0.00088338576
0.00097845963
0.00096525814
0.00095745499
0.00057004752
0.00086170641
-0.0014420452
0.0030642697
-0.20772792
-0.19576999
-0.18429692
-0.17322989
-0.16229949
-0.15157014
-0.14113378
-0.13102561
-0.12126829
-0.11188801
-0.10290769
-0.094343771
-0.086207856
-0.078507729
-0.071247453
-0.064427481
-0.058044987
-0.052094203
-0.046566702
-0.041451685
-0.036736274
-0.03240581
-0.028444146
-0.024833939
-0.021556929
-0.018594216
-0.015926515
-0.013534403
-0.011398538
-0.0094998631
-0.0078197892
-0.0063403525
-0.0050443532
-0.0039154738
-0.0029383822
-0.0020988191
-0.0013836843
-0.00078110048
-0.00028055927
0.00012716852
0.00044921071
0.00069257766
0.00085669423
0.00095534461
0.00094559908
0.00094082977
0.00055793668
0.0008500847
-0.0014354002
0.0030371788
-0.21163712
-0.19861035
-0.18680396
-0.17574856
-0.16471228
-0.15382669
-0.14325416
-0.13301903
-0.12313375
-0.11362761
-0.10452595
-0.095845209
-0.087597012
-0.079789546
-0.072427171
-0.065510482
-0.059036737
-0.053000203
-0.047392433
-0.042202557
-0.037417578
-0.033022687
-0.029001554
-0.025336629
-0.022009427
-0.019000809
-0.016291244
-0.013861055
-0.011690647
-0.0097607103
-0.0080524089
-0.0065475376
-0.0052286636
-0.0040792463
-0.0030837409
-0.0022276865
-0.0014977933
-0.0008820052
-0.00036964649
4.8670453e-05
0.00038022216
0.00063216609
0.00080407782
0.00090986553
0.00090698789
0.000908272
0.00053429913
0.00082742641
-0.0014218127
0.002983461
-0.21695394
-0.20230607
-0.19004621
-0.17913219
-0.16801674
-0.15694157
-0.14620715
-0.135821
-0.1257755
-0.11610609
-0.10684385
-0.098005848
-0.089604115
-0.081647936
-0.074142581
-0.067089224
-0.060485537
-0.054326094
-0.04860263
-0.043304344
-0.038418218
-0.033929337
-0.029821203
-0.026076043
-0.022675106
-0.019598952
-0.016827726
-0.014341409
-0.012120056
-0.010144002
-0.0083940588
-0.0068516716
-0.0054990694
-0.0043193842
-0.0032967577
-0.0024164314
-0.0016648332
-0.0010296415
-0.00049993117
-6.6078183e-05
0.00027941582
0.00054392807
0.00072725857
0.00084350025
0.00085069147
0.00086083728
0.00050002623
0.00079441712
-0.0014010457
0.0029041838
-0.22307176
-0.20630034
-0.1935032
-0.18293894
-0.17184501
-0.1605922
-0.14970823
-0.13918589
-0.12898238
-0.11914062
-0.1097027
-0.1006882
-0.092110138
-0.083979777
-0.076304267
-0.069086124
-0.06232402
-0.056013311
-0.050146311
-0.044712601
-0.039699379
-0.035091805
-0.030873336
-0.027026055
-0.023530985
-0.020368396
-0.017518092
-0.014959676
-0.012672797
-0.010637373
-0.008833784
-0.0072430484
-0.0058469713
-0.0046282722
-0.0035706944
-0.0026590977
-0.0018795476
-0.0012193789
-0.00066734343
-0.00021350976
0.00014990928
0.0004305774
0.0006285888
0.00075827391
0.00077844398
0.00079998459
0.00045631154
0.00075207156
-0.0013730029
0.0028010719
-0.22932356
-0.21008694
-0.19671208
-0.18673209
-0.17583094
-0.16446439
-0.15347228
-0.14285996
-0.13253514
-0.12254171
-0.11293736
-0.10374836
-0.094990059
-0.086676478
-0.078817792
-0.071418965
-0.064480524
-0.057999301
-0.051968776
-0.046379401
-0.041218984
-0.03647307
-0.032125311
-0.028157826
-0.024551537
-0.021286508
-0.018342245
-0.015697989
-0.013332975
-0.011226669
-0.0093589796
-0.0077104421
-0.0062623758
-0.00499702
-0.0038976499
-0.0029486732
-0.0021357232
-0.0014457233
-0.00086703663
-0.00038936089
-4.5595107e-06
0.00029537814
0.00051090583
0.00065663504
0.00069234495
0.00072748191
0.00040459134
0.00070162219
-0.0013376549
0.0026763651
-0.2351146
-0.2133548
-0.19936018
-0.19011485
-0.17964255
-0.16830781
-0.15727324
-0.1466282
-0.13624167
-0.12614245
-0.11640113
-0.10705623
-0.098128619
-0.089636053
-0.081592773
-0.074007479
-0.066883666
-0.060220507
-0.054013369
-0.048254189
-0.042931882
-0.038032779
-0.033541047
-0.029439081
-0.025707889
-0.022327456
-0.019277081
-0.016535689
-0.014082123
-0.011895399
-0.0099549306
-0.0082407362
-0.0067336049
-0.0054152451
-0.0042684081
-0.003276992
-0.0024261394
-0.0017023047
-0.0010934061
-0.00058871523
-0.00017969325
0.00014207004
0.00037744818
0.00054136504
0.00059476678
0.00064530755
0.00034645821
0.00064439803
-0.0012950276
0.0025326503
-0.2400707
-0.21641094
-0.20164347
-0.19289569
-0.18303787
-0.17198493
-0.16101278
-0.15038014
-0.13998463
-0.12983106
-0.11998961
-0.11051331
-0.10143315
-0.092772253
-0.084549601
-0.076778585
-0.069466671
-0.062616189
-0.056225055
-0.050287252
-0.044793289
-0.039730682
-0.035084431
-0.030837472
-0.0269711
-0.023465378
-0.020299505
-0.017452174
-0.01490188
-0.012627208
-0.010607085
-0.0088209951
-0.0072491741
-0.0058727649
-0.0046739552
-0.0036360897
-0.0027437744
-0.0019829477
-0.0013410361
-0.00080683933
-0.00037137048
-2.5775291e-05
0.00023129543
0.00041509541
0.00048794423
0.00055530906
0.00028338802
0.00058160271
-0.0012452907
0.0023727615
-0.24187299
-0.21927699
-0.20406015
-0.19495872
-0.18558504
-0.17511079
-0.16440861
-0.15388158
-0.14355322
-0.1334252
-0.12355308
-0.11399944
-0.10480859
-0.096011653
-0.087633387
-0.079692822
-0.072202575
-0.065169282
-0.058594419
-0.052474917
-0.046803674
-0.041570082
-0.036760567
-0.032359092
-0.028347643
-0.024706674
-0.02141554
-0.018452881
-0.015796979
-0.013426079
-0.011318666
-0.0094537189
-0.0078109145
-0.0063708121
-0.005115003
-0.0040262365
-0.003088534
-0.0022872661
-0.0016093144
-0.0010429518
-0.00057869011
-0.00020717756
7.3473312e-05
0.00027887212
0.00037291066
0.00045851779
0.00021621977
0.00051437845
-0.0011892848
0.0022004078
-0.23300288
-0.21906969
-0.20583502
-0.19559568
-0.18631781
-0.17669262
-0.1666435
-0.15651176
-0.14647523
-0.13656997
-0.12683721
-0.11734324
-0.10814793
-0.099295771
-0.090821681
-0.082753797
-0.075113083
-0.067913382
-0.061162215
-0.054861544
-0.049008399
-0.04359549
-0.03861184
-0.03404338
-0.029873525
-0.0260837
-0.022653843
-0.019562861
-0.016789044
-0.014310439
-0.012105177
-0.010151762
-0.0084293153
-0.0069177829
-0.0055981137
-0.0044524016
-0.0034640159
-0.0026176872
-0.0018996793
-0.0012976651
-0.00080158466
-0.00040151751
-9.497082e-05
0.00013408238
0.0002512351
0.00035676269
0.00014635915
0.00044542591
-0.0011287882
0.0020212526
-0.21254442
-0.21311982
-0.20516244
-0.19439465
-0.18488406
-0.17575644
-0.16622184
-0.15645558
-0.14671148
-0.13706036
-0.1275382
-0.1182087
-0.10913665
-0.10037231
-0.091955251
-0.083917948
-0.076285622
-0.069076077
-0.062300384
-0.055963665
-0.050065727
-0.044601692
-0.03956264
-0.034936241
-0.030707347
-0.026858558
-0.023370747
-0.020223546
-0.017395791
-0.014865915
-0.012612306
-0.010613609
-0.0088489987
-0.0072984007
-0.0059426831
-0.0047638141
-0.0037450019
-0.0028707898
-0.0021272318
-0.0015017779
-0.00098410503
-0.00056407439
-0.00023867694
7.8929721e-06
0.00014381352
0.00026405505
8.4984302e-05
0.00037796233
-0.0010617695
0.0018442995
-0.20040127
-0.20205866
-0.19609194
-0.18592224
-0.17703022
-0.16887093
-0.16033242
-0.15146155
-0.14252981
-0.13361967
-0.12476151
-0.11601686
-0.10745417
-0.09912901
-0.091086444
-0.083364703
-0.07599493
-0.069000768
-0.062398878
-0.056199646
-0.050407775
-0.045022887
-0.040040153
-0.035450924
-0.031243339
-0.0274029
-0.023913026
-0.020755557
-0.017911224
-0.015360076
-0.013081854
-0.011056333
-0.0092636055
-0.0076843386
-0.0062999832
-0.0050929537
-0.0040467861
-0.0031462517
-0.0023775382
-0.0017281699
-0.0011877636
-0.00074622718
-0.00039995801
-0.00013403953
2.3702201e-05
0.00015920288
1.8706212e-05
0.00029723391
-0.00097917966
0.0016498531
-0.18970374
-0.18932927
-0.18477122
-0.17652647
-0.16872444
-0.1614607
-0.15386378
-0.14588584
-0.13776428
-0.12959764
-0.12141975
-0.11328765
-0.10526938
-0.097423292
-0.089797906
-0.082435327
-0.075371138
-0.068633754
-0.062244672
-0.056219047
-0.050566199
-0.045290133
-0.040390123
-0.035861305
-0.03169527
-0.027880638
-0.024403606
-0.02124847
-0.018398109
-0.015834426
-0.013538751
-0.011492195
-0.0096759712
-0.0080716607
-0.0066614543
-0.0054283496
-0.0043563285
-0.0034304909
-0.0026372405
-0.0019642459
-0.0014011085
-0.00093784066
-0.00057020376
-0.00028435045
-0.0001035756
4.7645899e-05
-5.0447455e-05
0.00020999143
-0.00088326156
0.0014342437
-0.17806368
-0.17580146
-0.17195242
-0.16586186
-0.15946221
-0.15313848
-0.14650095
-0.13948367
-0.132242
-0.12487683
-0.11743582
-0.1099748
-0.10255928
-0.095248982
-0.088095349
-0.081143766
-0.074433674
-0.067997855
-0.061862429
-0.05604724
-0.050566252
-0.045427979
-0.040635985
-0.036189435
-0.032083645
-0.028310639
-0.02485969
-0.02171784
-0.018870394
-0.016301374
-0.013993942
-0.011930772
-0.010094395
-0.0084674866
-0.0070331338
-0.0057750523
-0.0046777847
-0.0037268557
-0.0029089639
-0.0022119846
-0.0016255491
-0.0011398088
-0.00074989145
-0.00044305347
-0.00023790369
-6.9665675e-05
-0.00012280485
0.00011994677
-0.000781169
0.001207068
-0.16562013
-0.16218999
-0.1586841
-0.15436325
-0.14938535
-0.1440487
-0.1383687
-0.13233196
-0.12601154
-0.11949067
-0.11283036
-0.1060885
-0.099326765
-0.092604146
-0.085973779
-0.079483429
-0.0731755
-0.067086435
-0.06124649
-0.055679898
-0.050405123
-0.04543517
-0.040777988
-0.036436937
-0.032411286
-0.028696725
-0.025285888
-0.022168859
-0.019333658
-0.016766711
-0.014453273
-0.01237783
-0.010524453
-0.0088771153
-0.0074199742
-0.0061376182
-0.005015282
-0.0040390252
-0.0031959318
-0.0024741543
-0.0018634102
-0.0013540196
-0.0009405098
-0.00061120491
-0.00038008342
-0.0001929113
-0.00019909917
2.8510197e-05
-0.00067797748
0.00097543253
-0.1522176
-0.14856531
-0.14548234
-0.14250252
-0.13879928
-0.13445758
-0.1297129
-0.12462619
-0.11922083
-0.11355355
-0.10768969
-0.10168931
-0.095610381
-0.089509379
-0.083439417
-0.077449321
-0.071583244
-0.065880191
-0.060373675
-0.055091651
-0.050056591
-0.045285668
-0.040791036
-0.036580193
-0.032656397
-0.029019119
-0.025664521
-0.022585927
-0.019774304
-0.017218713
-0.014906745
-0.012824923
-0.010959079
-0.0092946848
-0.0078171542
-0.0065121119
-0.0053656296
-0.0043644258
-0.0034960747
-0.0027490903
-0.002113347
-0.0015793698
-0.0011411494
-0.00078799763
-0.00052949475
-0.00032132119
-0.00027938043
-6.291459e-05
-0.00057849196
0.00074639471
-0.1382249
-0.13508736
-0.13260451
-0.13062339
-0.12798044
-0.12458514
-0.12073485
-0.11654296
-0.11201444
-0.10718254
-0.10210847
-0.096851585
-0.09146572
-0.086003713
-0.080517079
-0.0750543
-0.069659994
-0.064374506
-0.059233528
-0.054267837
-0.049503196
-0.044960389
-0.040655373
-0.036599518
-0.032799927
-0.029259805
-0.025978874
-0.022953794
-0.020178614
-0.017645199
-0.015343662
-0.013262761
-0.01139028
-0.0097133795
-0.0082189081
-0.0068936915
-0.0057247866
-0.0046997018
-0.003806616
-0.0030344973
-0.0023734609
-0.0018142777
-0.0013504938
-0.00097229441
-0.00068525355
-0.00045396629
-0.00036361179
-0.00015301559
-0.00048766828
0.00052726374
-0.12430444
-0.12198923
-0.12018781
-0.11896314
-0.117173
-0.11463237
-0.1116129
-0.10824622
-0.10453574
-0.10049903
-0.096187976
-0.09165812
-0.086958784
-0.082137892
-0.077243829
-0.072323433
-0.067420571
-0.062575699
-0.057825523
-0.053202619
-0.048735162
-0.044446816
-0.040356758
-0.036479788
-0.032826541
-0.029403756
-0.026214608
-0.023259074
-0.020534322
-0.018035112
-0.015754199
-0.013682724
-0.011810586
-0.010126796
-0.0086198029
-0.0072777889
-0.0060889432
-0.0050416975
-0.0041249549
-0.0033282379
-0.0026419958
-0.0020572934
-0.0015673465
-0.0011630824
-0.00084658334
-0.00059009593
-0.00045184213
-0.00024092894
-0.00041008253
0.00032483498
-0.11092718
-0.10943596
-0.10829639
-0.10766772
-0.1065616
-0.10476426
-0.10249355
-0.099874006
-0.096911545
-0.093614948
-0.090025308
-0.08619146
-0.08215768
-0.07796665
-0.073662189
-0.06928812
-0.064886453
-0.060496655
-0.056155318
-0.05189575
-0.047747586
-0.043736536
-0.039884287
-0.036208492
-0.032722859
-0.029437324
-0.026358285
-0.023488891
-0.020829367
-0.01837737
-0.016128349
-0.014075913
-0.012212191
-0.010528176
-0.0090140551
-0.0076595112
-0.0064540029
-0.0053870154
-0.0044482963
-0.0036280278
-0.0029170933
-0.0023069092
-0.0017904899
-0.0013593778
-0.0010127514
-0.00072912349
-0.00054414535
-0.00032633682
-0.00034937529
0.00014463508
-0.098328209
-0.097536756
-0.09697851
-0.096830732
-0.096275784
-0.095107892
-0.093493324
-0.091537852
-0.089247964
-0.086627347
-0.083707103
-0.080527848
-0.077127841
-0.073544328
-0.069816013
-0.065982513
-0.062082863
-0.058154552
-0.054233048
-0.050351375
-0.046539667
-0.042824808
-0.039230217
-0.035775727
-0.032477567
-0.029348419
-0.02639756
-0.023631065
-0.021052057
-0.018660998
-0.016456007
-0.014433184
-0.012586949
-0.010910368
-0.0093954731
-0.0080335644
-0.0068154936
-0.0057319208
-0.0047735551
-0.0039313439
-0.0031967092
-0.0025614851
-0.0020186239
-0.0015601762
-0.0011830321
-0.00087059889
-0.00064056949
-0.00040943623
-0.00030786463
-9.6421772e-06
-0.086617064
-0.086372669
-0.086287546
-0.086523058
-0.08640938
-0.085762593
-0.084708244
-0.083331039
-0.081635439
-0.079621362
-0.077311272
-0.074737321
-0.071931124
-0.068924113
-0.065749576
-0.062442333
-0.059037516
-0.055569704
-0.052072341
-0.048577248
-0.045114137
-0.041710198
-0.038389779
-0.035174177
-0.03208151
-0.02912668
-0.026321411
-0.023674367
-0.021191319
-0.018875365
-0.016727189
-0.014745343
-0.012926539
-0.011265958
-0.0097575466
-0.0083943132
-0.0071686026
-0.0060723567
-0.0050973545
-0.0042354113
-0.0034785925
-0.0028192246
-0.0022503403
-0.0017644259
-0.0013566823
-0.0010141697
-0.00074109131
-0.00049082486
-0.00028634147
-0.00013646268
-0.075834911
-0.075995898
-0.076272741
-0.076801878
-0.077033578
-0.076807919
-0.076219749
-0.075334778
-0.074154087
-0.072674226
-0.070910286
-0.068886432
-0.066627504
-0.064158939
-0.06150837
-0.058705477
-0.055780951
-0.052765707
-0.049690368
-0.04658473
-0.04347725
-0.040394586
-0.037361224
-0.034399183
-0.031527802
-0.028763615
-0.026120295
-0.023608681
-0.021236864
-0.019010333
-0.016932165
-0.015003248
-0.013222537
-0.011587318
-0.010093479
-0.0087357904
-0.0075081661
-0.006403917
-0.0054159869
-0.0045371552
-0.003760232
-0.0030781173
-0.002484066
-0.0019709679
-0.001532887
-0.0011595023
-0.00084555548
-0.00057131506
-0.00028407771
-0.0002364757
-0.065980413
-0.066429296
-0.06696836
-0.067710003
-0.0682022
-0.068307271
-0.068096731
-0.067620529
-0.066876287
-0.065857545
-0.064573158
-0.063040141
-0.061276872
-0.059302886
-0.057140157
-0.054813051
-0.052347494
-0.049770277
-0.047108568
-0.044389444
-0.041639364
-0.038883696
-0.0361463
-0.033449185
-0.030812228
-0.028252972
-0.025786484
-0.023425307
-0.021179457
-0.019056497
-0.017061652
-0.015197977
-0.013466551
-0.011866703
-0.010396246
-0.0090517286
-0.0078286757
-0.0067218313
-0.0057253815
-0.0048331543
-0.0040387994
-0.003335875
-0.0027179953
-0.0021784615
-0.0017106875
-0.0013061794
-0.00095360852
-0.0006517133
-0.00029904587
-0.00031221976
-0.05702814
-0.057671967
-0.058389963
-0.059274043
-0.059952933
-0.060308821
-0.060395249
-0.06024954
-0.05986646
-0.059237133
-0.058365287
-0.057261796
-0.055939211
-0.054411545
-0.052695351
-0.05080975
-0.048775792
-0.046615878
-0.044353331
-0.042011974
-0.03961566
-0.0371878
-0.03475094
-0.032326384
-0.029933873
-0.027591317
-0.0253146
-0.023117444
-0.021011341
-0.01900555
-0.017107139
-0.01532109
-0.013650435
-0.012096426
-0.010658734
-0.0093356576
-0.0081243431
-0.0070210009
-0.0060211149
-0.0051196314
-0.0043111238
-0.0035898923
-0.0029500402
-0.0023853229
-0.0018889156
-0.0014536015
-0.0010646465
-0.00073261819
-0.00032830422
-0.00036756855
-0.048938085
-0.049704893
-0.050535253
-0.051504159
-0.052307654
-0.052845621
-0.053157766
-0.053271503
-0.053179591
-0.052871485
-0.052346899
-0.051611665
-0.050673334
-0.049541013
-0.048226294
-0.046743352
-0.045108483
-0.043339648
-0.041456131
-0.039478176
-0.037426579
-0.035322267
-0.033185879
-0.031037391
-0.028895771
-0.02677868
-0.024702224
-0.022680759
-0.020726764
-0.018850761
-0.017061303
-0.015365
-0.013766604
-0.012269117
-0.010873948
-0.0095810752
-0.0083892314
-0.0072960958
-0.0062984789
-0.005392495
-0.0045737106
-0.0038372467
-0.0031778145
-0.0025896925
-0.0020661526
-0.0016009153
-0.0011777901
-0.00081427848
-0.00036846354
-0.0004070334
-0.041660851
-0.042496165
-0.043387499
-0.04439593
-0.045273673
-0.045936341
-0.046413115
-0.046723796
-0.046859967
-0.046810183
-0.046571233
-0.046145005
-0.045534981
-0.044746122
-0.043785693
-0.042663415
-0.041391158
-0.039982609
-0.038453021
-0.036818927
-0.035097811
-0.033307737
-0.031466981
-0.02959367
-0.027705443
-0.025819136
-0.023950504
-0.022113993
-0.020322554
-0.018587516
-0.016918504
-0.015323412
-0.013808422
-0.012378062
-0.011035304
-0.0097816851
-0.0086174505
-0.0075417118
-0.0065526029
-0.0056474315
-0.004822808
-0.0040747422
-0.0033986574
-0.0027894386
-0.00224072
-0.0017469815
-0.0012918931
-0.00089653272
-0.00041613474
-0.00043507257
-0.035142004
-0.036005712
-0.036919624
-0.03793338
-0.038845966
-0.039586884
-0.040177426
-0.040631658
-0.040940712
-0.041092932
-0.041083162
-0.040910392
-0.040574971
-0.040078545
-0.039424782
-0.038619577
-0.037670864
-0.036588405
-0.03538362
-0.034069393
-0.032659815
-0.031169892
-0.029615232
-0.028011724
-0.026375221
-0.024721235
-0.023064658
-0.0214195
-0.019798684
-0.018213866
-0.016675312
-0.015191813
-0.013770649
-0.012417597
-0.011136971
-0.0099316962
-0.0088034104
-0.0077525803
-0.0067786258
-0.0058800437
-0.0050545155
-0.0042989911
-0.0036096925
-0.0029821966
-0.0024107024
-0.0018903837
-0.0014055804
-0.00097882619
-0.00046826878
-0.00045554459
-0.029325316
-0.030188864
-0.031097696
-0.032092058
-0.033009777
-0.033792509
-0.03445569
-0.035009158
-0.035444148
-0.035749351
-0.035918503
-0.035948618
-0.03583779
-0.035585167
-0.035191589
-0.034659818
-0.033994449
-0.033201798
-0.032289808
-0.031267939
-0.030146989
-0.028938878
-0.027656401
-0.026312964
-0.02492231
-0.023498236
-0.022054326
-0.020603696
-0.019158766
-0.01773106
-0.01633104
-0.014967991
-0.013649929
-0.01238356
-0.011174277
-0.010026178
-0.0089421279
-0.0079238301
-0.0069719148
-0.006086031
-0.0052649293
-0.0045065297
-0.0038079165
-0.0031654352
-0.0025739975
-0.0020294705
-0.0015173058
-0.0010602826
-0.00052234044
-0.00047139295
-0.024155003
-0.024998954
-0.025883717
-0.026841787
-0.027743195
-0.028540126
-0.029243695
-0.029860664
-0.030382773
-0.030799458
-0.03110401
-0.031292239
-0.03136075
-0.031306945
-0.031129571
-0.030828958
-0.030407007
-0.029867144
-0.029214302
-0.028454872
-0.027596601
-0.026648448
-0.025620411
-0.024523319
-0.023368613
-0.022168105
-0.020933739
-0.019677354
-0.018410454
-0.017144004
-0.015888247
-0.014652552
-0.013445295
-0.012273773
-0.011144156
-0.010061466
-0.0090295874
-0.0080513011
-0.0071283331
-0.0062614127
-0.0054503266
-0.0046939667
-0.0039903166
-0.0033365486
-0.0027283877
-0.0021624231
-0.0016254174
-0.0011398016
-0.0005763777
-0.00048457613
-0.019577479
-0.020389445
-0.021237971
-0.022149129
-0.023019602
-0.023810622
-0.024530122
-0.025182643
-0.025760675
-0.026254664
-0.026657933
-0.026965697
-0.027173706
-0.027278256
-0.027276662
-0.02716748
-0.026950548
-0.026626991
-0.026199251
-0.025671091
-0.025047557
-0.024334903
-0.023540473
-0.022672567
-0.021740271
-0.020753273
-0.019721658
-0.018655705
-0.017565673
-0.016461609
-0.015353154
-0.014249383
-0.013158663
-0.012088534
-0.011045628
-0.01003561
-0.0090631483
-0.0081319064
-0.0072445561
-0.006402799
-0.0056073914
-0.0048581682
-0.004154019
-0.0034929756
-0.0028716351
-0.0022873426
-0.0017282278
-0.0012161586
-0.00062888297
-0.0004961912
-0.015542497
-0.016315441
-0.017120833
-0.017979381
-0.018809798
-0.019581035
-0.020298663
-0.020965627
-0.021575293
-0.022119239
-0.022591157
-0.022986108
-0.023299471
-0.023526959
-0.023665006
-0.023710975
-0.023663222
-0.023521134
-0.023285192
-0.022957013
-0.02253936
-0.022036115
-0.021452229
-0.020793633
-0.020067133
-0.019280275
-0.018441189
-0.017558421
-0.016640755
-0.015697035
-0.014735992
-0.013766071
-0.01279529
-0.011831099
-0.010880277
-0.0099488413
-0.0090419857
-0.0081640374
-0.0073184327
-0.0065077058
-0.0057334832
-0.0049964822
-0.0042964726
-0.0036323488
-0.0030016014
-0.0024023556
-0.0018240883
-0.0012880981
-0.00067871138
-0.00050670093
-0.012004249
-0.012735055
-0.013494349
-0.014298304
-0.015083827
-0.015826408
-0.016529855
-0.017195951
-0.01781897
-0.018391654
-0.018908257
-0.01936399
-0.019754211
-0.020074441
-0.02032067
-0.020489546
-0.020578443
-0.020585519
-0.020509796
-0.020351219
-0.020110708
-0.019790163
-0.019392461
-0.018921421
-0.018381742
-0.017778919
-0.017119142
-0.016409164
-0.015656165
-0.014867602
-0.014051056
-0.013214079
-0.012364048
-0.011508026
-0.010652641
-0.0098039801
-0.0089675009
-0.0081479591
-0.007349355
-0.0065748904
-0.005826934
-0.0051069945
-0.0044156646
-0.0037526737
-0.0031163945
-0.002505738
-0.0019114733
-0.0013544185
-0.00072496363
-0.00051617698
-0.0089219648
-0.0096104734
-0.010323685
-0.011073934
-0.011813111
-0.01252221
-0.013203704
-0.013858518
-0.014481796
-0.015067403
-0.015610248
-0.016105878
-0.016549858
-0.016937788
-0.017265541
-0.01752942
-0.017726222
-0.017853305
-0.017908673
-0.017891044
-0.017799917
-0.017635613
-0.017399294
-0.01709297
-0.016719482
-0.016282457
-0.015786253
-0.015235871
-0.01463686
-0.0139952
-0.013317183
-0.012609275
-0.01187799
-0.011129758
-0.010370801
-0.0096070164
-0.0088438747
-0.0080863284
-0.0073387323
-0.0066047753
-0.0058874191
-0.005188847
-0.004510389
-0.0038525517
-0.003214549
-0.0025960616
-0.0019890785
-0.0014140554
-0.00076692255
-0.00052450057
-0.0062598817
-0.0069078108
-0.0075769274
-0.0082762625
-0.0089700146
-0.009643778
-0.010299002
-0.010935967
-0.011550608
-0.012137819
-0.012693185
-0.013212678
-0.013692206
-0.01412762
-0.014514894
-0.014850251
-0.01513022
-0.015351702
-0.015512047
-0.015609127
-0.015641408
-0.015608005
-0.015508726
-0.015344103
-0.015115403
-0.014824624
-0.014474475
-0.014068329
-0.013610164
-0.013104486
-0.01255624
-0.011970706
-0.011353389
-0.010709906
-0.010045868
-0.0093667668
-0.0086778677
-0.0079841042
-0.0072899836
-0.0065994986
-0.0059160445
-0.0052423454
-0.0045803611
-0.0039312931
-0.0032951305
-0.0026722858
-0.0020558855
-0.0014661335
-0.00080401471
-0.00053149107
-0.0039913363
-0.0046021893
-0.0052309703
-0.0058839608
-0.0065353753
-0.007174598
-0.0078022819
-0.0084182122
-0.0090190118
-0.0096004867
-0.010158857
-0.010690548
-0.011191868
-0.011659007
-0.012088175
-0.012475688
-0.012818026
-0.013111886
-0.013354247
-0.013542447
-0.013674247
-0.013747896
-0.013762179
-0.013716474
-0.013610777
-0.013445729
-0.01322262
-0.012943382
-0.012610561
-0.012227275
-0.011797156
-0.011324279
-0.010813079
-0.010268259
-0.009694685
-0.0090972881
-0.0084809536
-0.0078504169
-0.007210159
-0.0065643051
-0.0059165263
-0.0052699465
-0.0046270333
-0.0039895812
-0.0033582672
-0.0027341743
-0.0021114719
-0.0015101969
-0.00083593893
-0.00053705758
-0.0020875533
-0.0026652482
-0.0032580534
-0.0038698486
-0.0044829312
-0.0050897953
-0.005690475
-0.0062843641
-0.0068686622
-0.007439949
-0.0079950137
-0.0085307153
-0.009043762
-0.0095307134
-0.0099880722
-0.010412351
-0.010800113
-0.011148022
-0.011452893
-0.011711764
-0.011921949
-0.012081107
-0.012187294
-0.012239023
-0.012235308
-0.012175705
-0.012060339
-0.01188992
-0.011665746
-0.01138969
-0.011064174
-0.010692124
-0.010276919
-0.0098223179
-0.0093323819
-0.008811385
-0.008263717
-0.0076937813
-0.0071058897
-0.0065041541
-0.0058923779
-0.0052739498
-0.0046517205
-0.0040279662
-0.0034039499
-0.0027813475
-0.0021552648
-0.001545625
-0.0008621973
-0.00054095826
-0.0005535319
-0.0011038558
-0.0016667143
-0.0022442481
-0.0028250617
-0.0034040543
-0.0039807739
-0.0045543168
-0.0051223475
-0.0056820727
-0.0062307578
-0.0067656403
-0.0072837921
-0.0077821207
-0.0082574293
-0.0087064617
-0.009125936
-0.0095125813
-0.0098631853
-0.010174646
-0.010444028
-0.010668618
-0.010845985
-0.010974031
-0.011051054
-0.01107579
-0.011047458
-0.010965795
-0.010831079
-0.010644141
-0.01040636
-0.010119653
-0.0097864377
-0.0094095945
-0.0089924028
-0.0085384715
-0.0080516554
-0.0075359614
-0.0069954465
-0.0064341095
-0.005855776
-0.0052639846
-0.0046618527
-0.0040520247
-0.0034362375
-0.0028166626
-0.0021892166
-0.0015737227
-0.00088367938
-0.00054371437
0.00065924345
0.00013162612
-0.00040658645
-0.00095597447
-0.0015099764
-0.0020653805
-0.0026213736
-0.0031768158
-0.0037297254