/*--------------------------------*- C++ -*----------------------------------*\
  =========                 |
  \\      /  F ield         | OpenFOAM: The Open Source CFD Toolbox
   \\    /   O peration     | Website:  https://openfoam.org
    \\  /    A nd           | Version:  6
     \\/     M anipulation  |
\*---------------------------------------------------------------------------*/
FoamFile
{
    version     2.0;
    format      ascii;
    class       volSymmTensorField;
    location    "50";
    object      UPrime2Mean;
}
// * * * * * * * * * * * * * * * * * * * * * * * * * * * * * * * * * * * * * //

dimensions      [0 2 -2 0 0 0 0];

internalField   nonuniform List<symmTensor> 
9200
(
(0.0003907448 -0.00030336559 1.4530951e-21 0.00024362286 -7.804084e-22 2.3224465e-38)
(0.0023814203 -0.0019113682 3.620337e-21 0.0015397477 -2.7029921e-21 2.5238731e-38)
(0.0047471735 -0.0037058336 5.1863325e-22 0.0029072025 -3.8520603e-22 1.385094e-38)
(0.0073776429 -0.0053994096 -5.3414435e-21 0.0039898493 3.7789486e-21 2.7550888e-38)
(0.0098857459 -0.0068623895 1.8828994e-22 0.0048352625 -1.7763783e-22 4.047775e-39)
(0.012088851 -0.008030742 2.150652e-21 0.0054464814 -1.4554166e-21 6.0499029e-40)
(0.013871827 -0.0088878553 -4.2644109e-22 0.0058501747 3.1082685e-22 1.8335691e-39)
(0.015152191 -0.0094438426 3.8946729e-22 0.006087766 -2.7594807e-22 1.2352287e-39)
(0.015884944 -0.0097213007 2.0796439e-21 0.0061983215 -1.289942e-21 3.5161231e-39)
(0.016062638 -0.009748922 1.5831723e-22 0.0062146403 -9.9487894e-23 9.9520318e-42)
(0.015712779 -0.0095584231 -2.1593745e-21 0.0061634452 1.3745156e-21 1.8690163e-39)
(0.014894496 -0.009182634 1.7735391e-21 0.0060658435 -1.1815581e-21 2.3695399e-40)
(0.01369327 -0.0086542848 -3.1234769e-21 0.0059379539 2.2166041e-21 3.9765032e-39)
(0.01221332 -0.0080052573 -1.5530123e-21 0.0057916962 1.1299011e-21 2.3341956e-40)
(0.010568166 -0.0072660958 3.983461e-22 0.0056356186 -3.148785e-22 3.1077504e-41)
(0.0088703893 -0.0064655954 -1.4607218e-21 0.0054756797 1.2291659e-21 3.0800401e-40)
(0.0072216155 -0.0056304221 1.2505373e-21 0.0053161996 -1.1519034e-21 3.7997107e-40)
(0.0057038945 -0.0047850063 8.7976228e-22 0.0051625421 -8.5675451e-22 1.6831401e-39)
(0.0043787047 -0.0039506618 -4.6442937e-23 0.0050222422 9.1466393e-23 3.1729391e-40)
(0.0033045937 -0.0031454768 -3.3174205e-23 0.0048500903 8.5988988e-23 3.9324893e-40)
(0.00051365604 -0.00034337744 1.5563473e-22 0.00023584786 -6.1244169e-23 4.0594003e-40)
(0.0030218352 -0.0021003326 3.8411617e-21 0.001464118 -2.4996209e-21 2.6954081e-38)
(0.0059173164 -0.0040090728 -1.3040394e-21 0.0027292933 8.7098679e-22 1.4659103e-38)
(0.0089334082 -0.0057310614 -9.549647e-21 0.0037120508 6.0112928e-21 6.3694154e-38)
(0.011631338 -0.0071497652 -2.9290473e-22 0.0044626427 1.9348719e-22 8.0466354e-40)
(0.013809872 -0.0082126269 7.2430073e-21 0.0049920484 -4.3347636e-21 2.101628e-38)
(0.015361867 -0.0089194007 -2.9092283e-21 0.0053333173 1.737433e-21 6.8771193e-40)
(0.016235653 -0.009297601 -8.7791715e-22 0.0055303122 5.2079228e-22 2.5746988e-40)
(0.016433177 -0.0093853962 3.2783424e-21 0.0056222365 -1.9708582e-21 1.9384964e-39)
(0.016004408 -0.0092244463 -3.91625e-21 0.0056405855 2.4098794e-21 2.1968844e-39)
(0.015038986 -0.0088566462 -2.7376061e-21 0.0056096479 1.7385328e-21 2.7690302e-39)
(0.013656311 -0.0083223087 5.8013902e-21 0.0055472333 -3.8652904e-21 1.4041598e-38)
(0.011993472 -0.0076592847 2.6622563e-21 0.0054655444 -1.9041562e-21 9.2511664e-40)
(0.010191702 -0.0069026758 -4.1002081e-21 0.0053721438 3.1637186e-21 4.6986547e-39)
(0.0083829977 -0.0060848096 7.1383796e-22 0.0052708712 -6.0129471e-22 4.0142776e-40)
(0.0066787382 -0.0052352501 -1.5626342e-21 0.0051626418 1.4909317e-21 1.0250581e-39)
(0.005161694 -0.0043807432 -6.5222004e-22 0.0050462322 7.3824316e-22 3.3223207e-40)
(0.0038821807 -0.0035447298 1.8515831e-21 0.0049191636 -2.3419092e-21 5.3313351e-39)
(0.0028609989 -0.0027454314 8.5042639e-22 0.0047740258 -1.3116549e-21 9.7111649e-40)
(0.0021018082 -0.0020017946 -3.2149931e-22 0.0045713006 4.5036622e-22 7.9983668e-39)
(0.00065157671 -0.00037112868 -1.2699142e-21 0.00021624392 5.4213638e-22 1.0513265e-38)
(0.0036982079 -0.0022047341 -2.0925042e-21 0.0013176435 1.1625344e-21 1.0966586e-38)
(0.0071049121 -0.00414183 -2.4205141e-21 0.0024263096 1.4079968e-21 2.7411372e-38)
(0.010431797 -0.0058155663 7.6186147e-23 0.0032745515 -4.2223982e-23 2.9568846e-42)
(0.01320254 -0.007129151 2.3812309e-22 0.0039131705 -1.0584901e-22 1.9678819e-38)
(0.015216548 -0.0080475167 2.5567507e-21 0.0043601369 -1.3822709e-21 5.494453e-39)
(0.01639929 -0.0085893726 1.9588281e-22 0.0046517402 -1.049156e-22 2.2781478e-39)
(0.016755624 -0.0087989164 -4.1424332e-21 0.0048303414 2.2941386e-21 1.372229e-39)
(0.016357045 -0.0087270407 4.8456877e-21 0.0049314834 -2.7683852e-21 2.6206294e-39)
(0.01532673 -0.0084242066 1.5773285e-21 0.0049819363 -9.5240266e-22 3.0013352e-39)
(0.013822367 -0.0079377496 -4.2449156e-21 0.0050006132 2.70247e-21 6.0777769e-39)
(0.012017947 -0.00731091 -1.2960419e-21 0.0049996468 8.9526137e-22 2.0154885e-39)
(0.010085289 -0.0065828962 5.0951239e-22 0.0049855709 -3.6687464e-22 5.5156454e-39)
(0.0081772966 -0.0057894001 1.0749714e-21 0.0049605592 -9.0646207e-22 7.656018e-40)
(0.0064152435 -0.0049630725 -3.5421669e-22 0.0049236172 3.4264577e-22 6.009966e-40)
(0.0048817092 -0.0041336861 8.3550475e-22 0.0048717038 -9.3214426e-22 4.4456864e-40)
(0.0036196319 -0.0033279211 -5.7450547e-22 0.0048007312 7.5950616e-22 1.6270885e-40)
(0.0026366901 -0.0025687293 -1.0725056e-21 0.0047060981 1.7392073e-21 4.3132659e-39)
(0.001913577 -0.0018740598 1.0237879e-23 0.0045823812 -8.5624516e-24 4.0431644e-39)
(0.0014150914 -0.0012595574 3.500706e-22 0.0044192283 -9.393687e-22 4.0834155e-40)
(0.00079964211 -0.00038249397 -1.006628e-21 0.00018663619 3.7165102e-22 5.2234144e-39)
(0.0043743891 -0.002206834 1.4664905e-21 0.0011158424 -7.2124321e-22 9.513968e-40)
(0.0082359626 -0.0040808359 1.3089097e-21 0.0020325469 -6.49162e-22 1.1233813e-39)
(0.011767828 -0.0056362677 2.8866199e-21 0.0027290383 -1.3854528e-21 1.216691e-38)
(0.014477983 -0.0068007795 2.490191e-21 0.003253775 -1.1962536e-21 5.4052805e-39)
(0.016193136 -0.0075598873 -4.2546922e-21 0.0036289569 2.0644373e-21 4.0765115e-39)
(0.01689979 -0.0079496573 -2.3466521e-21 0.0038898311 1.1669066e-21 1.1562158e-39)
(0.016683648 -0.0080259636 0 0.0040730415 0 0)
(0.015701378 -0.0078459897 2.5015572e-21 0.0042069309 -1.4189894e-21 1.5141086e-38)
(0.014153167 -0.0074624629 -1.053915e-21 0.0043107352 6.5942161e-22 5.7388148e-39)
(0.012255525 -0.0069225239 -6.0726992e-21 0.0043958986 3.8529012e-21 4.6926792e-39)
(0.010216263 -0.0062682405 -7.8011217e-22 0.0044674704 5.2064519e-22 1.0203372e-39)
(0.0082137382 -0.0055377395 2.8290138e-21 0.0045255877 -2.3040748e-21 6.7206042e-39)
(0.0063827967 -0.0047661445 2.0091757e-22 0.004567011 -1.3138542e-22 2.8593875e-39)
(0.0048088695 -0.0039858367 -4.1414548e-23 0.0045866321 4.5616481e-23 1.9135792e-42)
(0.0035299844 -0.0032259704 4.2966007e-22 0.0045789077 -5.7050034e-22 3.3666827e-40)
(0.0025449633 -0.0025114901 1.9438306e-23 0.0045390026 -9.2394838e-25 4.1377449e-40)
(0.0018250729 -0.0018620849 -7.1711564e-22 0.0044632081 1.441105e-21 9.5527948e-40)
(0.0013258454 -0.0012912861 -3.7324301e-22 0.0043512744 9.7901905e-22 6.8301103e-40)
(0.0009975548 -0.00080690316 1.4297607e-22 0.0042134849 -6.8134639e-22 4.662058e-39)
(0.00095090291 -0.00037405703 7.5463991e-22 0.0001498516 -2.403118e-22 2.0554484e-39)
(0.0050066888 -0.0020960418 3.132702e-21 0.00087946832 -1.249806e-21 1.8518608e-38)
(0.0092293315 -0.0038187958 2.3509435e-21 0.0015893525 -9.7692609e-22 1.1448526e-39)
(0.012838091 -0.0052002328 2.6585405e-21 0.0021329975 -1.0951427e-21 6.5045155e-39)
(0.015354427 -0.0061939368 -4.0209646e-21 0.0025533539 1.6862859e-21 1.0231631e-38)
(0.016663313 -0.0068044329 1.2121856e-22 0.0028730211 -3.9865188e-23 9.7581256e-40)
(0.016838964 -0.0070784731 2.2048974e-22 0.0031218593 -9.9236557e-23 8.0090294e-42)
(0.016064162 -0.0070746393 3.0921789e-21 0.0033273625 -1.5007704e-21 3.6193494e-39)
(0.014583281 -0.0068477606 4.0841187e-22 0.0035082457 -2.1249862e-22 3.1847664e-41)
(0.0126618 -0.0064459798 -1.0692422e-21 0.0036745969 6.4874943e-22 1.9729391e-39)
(0.010551604 -0.005911857 3.3884876e-21 0.0038294508 -2.276517e-21 1.3662835e-38)
(0.0084645242 -0.0052842647 -2.4583308e-21 0.003970444 1.74536e-21 1.0817004e-39)
(0.0065561997 -0.0045998267 -4.4642011e-21 0.0040916098 3.8369028e-21 7.8476782e-39)
(0.0049211601 -0.0038932094 -1.4300463e-22 0.0041852522 1.4740019e-22 1.6887433e-41)
(0.0035978969 -0.0031962221 1.4648282e-21 0.0042437465 -1.8938283e-21 6.6662161e-39)
(0.002580861 -0.002536209 0 0.0042611047 0 0)
(0.0018355394 -0.0019344182 1.9068289e-22 0.0042339512 -3.0733875e-22 1.74131e-40)
(0.0013130509 -0.0014050375 -7.4351638e-23 0.0041614892 2.2063843e-22 2.6162467e-40)
(0.00096131528 -0.00095514211 -8.9865521e-23 0.0040483159 2.2975987e-22 6.6499822e-41)
(0.00073227893 -0.00058479287 2.210687e-23 0.0039145091 -1.9962169e-22 4.7356581e-40)
(0.0010970671 -0.00034392251 1.6471198e-21 0.00010972407 -4.2394983e-22 8.3114397e-39)
(0.0055500958 -0.0018725857 1.5694278e-22 0.00063335215 -5.1646878e-23 1.5275245e-41)
(0.010010013 -0.0033692352 -4.448225e-22 0.0011420562 1.5151453e-22 6.7463491e-41)
(0.013559745 -0.0045418232 4.0714984e-22 0.0015449454 -1.3552775e-22 1.3418173e-39)
(0.015767942 -0.0053667934 -2.7339312e-21 0.001876731 9.7867856e-22 2.5038969e-39)
(0.016607682 -0.0058604834 -1.2850977e-21 0.0021566986 4.823127e-22 2.2142872e-40)
(0.016259176 -0.0060691734 8.4668582e-22 0.0024062186 -2.6725483e-22 7.1843969e-39)
(0.015004777 -0.0060431134 -3.8314069e-23 0.0026419307 4.1925327e-23 5.627162e-40)
(0.013163454 -0.0058264564 -2.0459139e-21 0.0028721199 1.0856192e-21 5.9116202e-39)
(0.011040834 -0.0054579982 3.4763189e-21 0.0030974543 -1.9350075e-21 1.5951271e-39)
(0.0088934047 -0.0049741422 -6.6005328e-23 0.0033127014 1.4053954e-22 3.0901844e-39)
(0.0069082684 -0.0044109742 -2.5970513e-21 0.0035086904 2.0932542e-21 8.3117037e-39)
(0.0051982051 -0.0038045256 0 0.0036745263 0 0)
(0.003809443 -0.0031892644 5.6368126e-22 0.0037998279 -7.6820678e-22 4.5365094e-39)
(0.0027374974 -0.0025956047 1.7693882e-23 0.0038766551 -6.956752e-23 2.4991781e-40)
(0.0019458159 -0.0020475035 -6.4978313e-22 0.0039008361 1.2570218e-21 5.2010908e-39)
(0.001382866 -0.0015609789 -1.4774467e-22 0.0038723372 3.2107564e-22 1.0326951e-40)
(0.00099504343 -0.0011440146 -3.5430867e-23 0.0037944763 1.451848e-22 1.7638853e-40)
(0.00073424247 -0.00079780596 -5.1625123e-23 0.0036759424 1.9494388e-22 6.5721616e-41)
(0.00056092386 -0.00051769568 8.048973e-23 0.0035395005 -4.7140752e-22 6.3985339e-40)
(0.0012294565 -0.00029221197 6.3835619e-22 7.0699707e-05 -1.2286349e-22 1.3164407e-39)
(0.0059641953 -0.0015484783 -4.5153039e-21 0.00040325932 1.1374611e-21 2.8616161e-38)
(0.010519392 -0.0027654803 -4.3634895e-22 0.00073385574 1.2162614e-22 2.6718507e-39)
(0.013882005 -0.0037177816 -1.2430146e-21 0.0010164869 3.6418299e-22 1.3443746e-38)
(0.01570179 -0.0043964263 -8.2816959e-22 0.0012763019 2.3712915e-22 1.8195246e-40)
(0.016062317 -0.0048173303 -4.6885686e-21 0.0015270757 1.5086336e-21 2.3564584e-39)
(0.015254252 -0.0050129352 -2.2657706e-21 0.0017808845 8.3750101e-22 1.9561589e-39)
(0.013646254 -0.0050150067 4.2733058e-21 0.0020439301 -1.7029657e-21 1.4475461e-39)
(0.011605747 -0.0048516024 7.1395855e-22 0.002314797 -4.000261e-22 2.0311411e-39)
(0.0094469006 -0.0045509138 -9.094878e-22 0.0025854831 4.3760917e-22 6.8472762e-40)
(0.0074020535 -0.0041444096 4.3593126e-22 0.0028433826 -1.6017424e-22 2.6123591e-39)
(0.0056144155 -0.0036671388 -6.2938877e-23 0.0030738013 1.1378263e-22 6.6211829e-40)
(0.0041474833 -0.0031553959 0 0.0032627208 0 0)
(0.0030045149 -0.0026429692 4.043549e-22 0.0033992693 -4.7484765e-22 1.4503077e-40)
(0.0021510765 -0.0021575364 -8.2267921e-22 0.0034773838 1.2502207e-21 2.071875e-39)
(0.0015351703 -0.0017184085 -2.6185175e-22 0.0034963991 4.6897926e-22 1.7107892e-40)
(0.0011019532 -0.0013360615 4.1873373e-22 0.0034604406 -1.0444594e-21 2.5148724e-39)
(0.00080246784 -0.0010132918 -1.1380975e-22 0.0033768111 1.5256841e-22 5.5877193e-40)
(0.00059714697 -0.00074756021 -1.135799e-23 0.0032568072 -1.2696454e-23 6.2885856e-41)
(0.00045573837 -0.00053265282 9.2476868e-23 0.0031215233 -3.3941144e-22 4.3575318e-41)
(0.001339992 -0.00022118525 4.6777376e-22 3.7235163e-05 -6.1515445e-23 8.2411595e-40)
(0.0062183418 -0.0011462719 -4.1179912e-21 0.00021228465 7.4453804e-22 1.3091021e-38)
(0.010722265 -0.0020560075 -3.2232208e-21 0.00039995167 6.4407481e-22 1.5703456e-38)
(0.013791127 -0.0027984177 4.425397e-21 0.00058590034 -9.4571289e-22 3.7854691e-39)
(0.015184761 -0.0033661912 3.25545e-21 0.0007867658 -7.5851227e-22 7.4938795e-40)
(0.015106538 -0.0037598351 -2.297203e-21 0.0010112501 5.2792547e-22 8.2988612e-39)
(0.013946029 -0.0039857004 7.6850832e-22 0.0012639563 -3.1029578e-22 3.5299972e-39)
(0.01213171 -0.0040505814 4.3136137e-21 0.0015428132 -1.6323055e-21 3.7788664e-39)
(0.010046883 -0.003965261 1.8528166e-21 0.0018383525 -7.7813232e-22 4.5165971e-40)
(0.0079847232 -0.0037493055 -1.7755024e-21 0.0021351457 9.859548e-22 1.2262581e-39)
(0.0061339689 -0.0034319085 -2.360517e-21 0.0024145187 1.5336477e-21 1.3731777e-39)
(0.0045876392 -0.0030486435 -6.2872447e-23 0.0026579559 4.9955988e-23 1.425281e-42)
(0.00336541 -0.0026359902 6.4767428e-22 0.0028503844 -6.2841458e-22 2.2008255e-40)
(0.0024403044 -0.0022259099 -1.0249004e-23 0.0029824885 8.3756149e-23 3.8155556e-40)
(0.0017626134 -0.0018422016 -2.7983325e-24 0.0030515801 1.3395752e-22 1.0326184e-39)
(0.0012773035 -0.0014993022 -1.1350424e-23 0.0030610468 -1.7211369e-22 1.865319e-39)
(0.00093427683 -0.0012031761 1.9562169e-22 0.0030186916 -4.7525578e-22 5.2534458e-40)
(0.00069282762 -0.00095348385 -9.1686838e-23 0.0029345366 3.9577626e-22 1.4107169e-39)
(0.00052219077 -0.00074636525 -2.5795511e-22 0.0028206282 9.3975591e-22 2.6590093e-39)
(0.00039984981 -0.00057616928 9.6754039e-23 0.0026940901 -2.6976831e-22 5.1698538e-41)
(0.0014225661 -0.00013502939 -1.1849468e-21 1.3169286e-05 9.8526477e-23 2.4562734e-39)
(0.0062960143 -0.00069611086 -8.3073203e-22 7.7763725e-05 9.1119782e-23 2.6269706e-39)
(0.0106103 -0.0012977454 6.9456827e-21 0.00016339917 -8.9587466e-22 3.23557e-38)
(0.013310378 -0.0018577217 5.0171419e-21 0.00027472241 -7.4985211e-22 3.4437642e-39)
(0.014284524 -0.0023544719 2.1718061e-21 0.00042394344 -3.5630935e-22 1.7097575e-39)
(0.013848515 -0.002758812 4.3472313e-22 0.00061807652 -9.3907002e-23 1.5456393e-41)
(0.012464852 -0.0030429424 -3.9747629e-21 0.00085808295 9.3112073e-22 7.1210014e-39)
(0.010588039 -0.0031872344 0 0.0011365849 0 0)
(0.0085860931 -0.0031878515 -2.3409494e-21 0.0014378794 1.1072611e-21 5.9253339e-39)
(0.0067103313 -0.0030594292 -3.8653361e-22 0.0017404409 2.8930144e-22 1.3611471e-39)
(0.0050985663 -0.0028313647 1.1028265e-21 0.0020210317 -6.9600052e-22 2.8514948e-40)
(0.0037983433 -0.002540248 1.0421367e-22 0.0022591759 -1.691224e-22 7.5019863e-40)
(0.002797558 -0.0022218313 -4.9260318e-22 0.002440636 5.4988856e-22 8.4893408e-40)
(0.0020528825 -0.0019051273 -3.5138039e-22 0.0025590179 5.5021365e-22 1.84621e-39)
(0.0015109054 -0.0016097326 2.4382252e-22 0.002615419 -2.6190919e-22 2.209209e-40)
(0.0011209056 -0.0013460456 3.2605731e-22 0.002616653 -4.5762281e-22 1.8578378e-40)
(0.00084072488 -0.0011172506 -2.7606427e-22 0.0025728113 5.2093959e-22 1.6309356e-40)
(0.00063813884 -0.00092192299 -3.4297404e-22 0.0024949257 9.0288506e-22 2.2097797e-39)
(0.00048982963 -0.0007565981 3.703821e-23 0.0023941829 -2.8740734e-24 2.7186265e-40)
(0.00037917141 -0.00061704467 3.8381045e-23 0.0022829708 -1.8853009e-22 3.1566997e-40)
(0.0014727436 -3.9173262e-05 -7.8421876e-22 1.1990892e-06 2.0027614e-23 1.2030841e-39)
(0.0061943459 -0.00023193157 3.2677354e-21 9.3605418e-06 -1.1920361e-22 6.6457016e-39)
(0.010200449 -0.00054951875 5.0014656e-21 3.3374864e-05 -3.1610084e-22 4.8438233e-38)
(0.012494968 -0.00096549438 -5.6348142e-21 8.7696668e-05 5.1357627e-22 1.3216698e-38)
(0.013095804 -0.0014276644 1.9699603e-21 0.00018718794 -2.3198356e-22 3.0963114e-40)
(0.01240739 -0.0018671748 7.4346006e-22 0.00034270214 1.5384328e-23 1.2315203e-38)
(0.010930506 -0.002220031 2.0427381e-22 0.00055606447 -4.4821374e-23 3.9436431e-42)
(0.0091122723 -0.0024436058 -2.8422429e-21 0.0008173306 7.0173484e-22 4.0201734e-39)
(0.0072820559 -0.0025245131 -6.3359855e-23 0.0011060882 2.3814295e-23 5.7158628e-43)
(0.0056398507 -0.0024762447 1.014109e-21 0.0013960486 -5.8850321e-22 1.5473676e-39)
(0.0042756804 -0.0023297413 7.4279976e-23 0.0016610743 -9.2412895e-23 2.2622949e-40)
(0.0032026015 -0.0021220144 -3.7357429e-22 0.0018805177 8.5512673e-23 2.9265233e-39)
(0.0023899286 -0.0018869127 -7.7418144e-22 0.002042318 6.8979083e-22 2.6488882e-40)
(0.0017891033 -0.0016499198 4.1085182e-24 0.0021434192 7.2325225e-23 3.8184199e-40)
(0.0013501074 -0.0014269162 2.4545489e-22 0.0021880793 -3.7195128e-22 3.5681786e-40)
(0.0010296743 -0.0012255959 1.5759142e-22 0.0021851545 -2.9677129e-22 3.5132486e-40)
(0.00079393214 -0.0010479815 2.6049103e-23 0.0021453669 -1.4430042e-22 5.8451544e-40)
(0.00061803539 -0.00089293607 -2.6413704e-22 0.0020792513 3.9343829e-22 4.385753e-40)
(0.00048453371 -0.00075814776 -7.1888851e-23 0.001996139 -5.3163235e-23 2.0106701e-39)
(0.00038115281 -0.0006407539 1.1069743e-22 0.0019039317 -4.9097962e-22 3.2803575e-39)
(1.0294635e-05 -1.2798556e-06 1.0313153e-22 1.5684468e-06 -2.0680672e-23 1.1766251e-39)
(4.8587292e-05 -2.0337445e-05 -1.4703423e-22 1.0447264e-05 4.0740089e-23 1.1332143e-39)
(0.00010883304 -4.7012447e-05 3.2676802e-22 2.0809563e-05 -1.2191786e-22 6.5007771e-39)
(0.00034883825 -9.9084323e-05 9.1001532e-22 2.9764127e-05 -1.9295262e-22 2.187641e-38)
(0.00076470132 -0.00016306416 -6.4793041e-22 3.7701889e-05 1.0924761e-22 5.6846908e-39)
(0.0013643097 -0.00023416334 8.1437968e-22 4.4616145e-05 -1.0905043e-22 6.2823514e-39)
(0.0021653382 -0.00030968781 -1.1100506e-21 5.0518637e-05 1.3816331e-22 6.8853271e-39)
(0.0031705281 -0.00038698012 -1.1412496e-21 5.5549665e-05 1.1643935e-22 7.2889951e-39)
(0.0043722346 -0.00046388787 1.4205526e-21 5.9862322e-05 -1.4304414e-22 7.6884679e-39)
(0.0057592604 -0.0005388191 -1.0923773e-21 6.3579183e-05 1.032077e-22 3.9123811e-39)
(0.0073182313 -0.00061057561 -5.657096e-23 6.6795678e-05 9.1598066e-25 4.5753419e-41)
(0.0090338386 -0.00067823392 3.0367781e-22 6.9586358e-05 -3.1468306e-23 1.4205954e-40)
(0.010889466 -0.00074107286 -5.3748e-23 7.2009359e-05 2.3735668e-24 2.2942616e-41)
(0.012867762 -0.00079852723 1.6132264e-21 7.4111757e-05 -1.3975948e-22 6.8242375e-39)
(0.014950983 -0.00085017131 4.8092804e-24 7.5936304e-05 3.0951741e-24 1.487464e-41)
(0.017121345 -0.00089574166 -2.2577171e-21 7.7528471e-05 2.0799217e-22 1.3995839e-38)
(0.019361482 -0.000935161 4.0291926e-22 7.8936353e-05 -4.314589e-23 2.9206204e-40)
(0.021654526 -0.00096844225 9.452139e-22 8.0197384e-05 -9.5790856e-23 3.5582397e-39)
(0.023983617 -0.00099582157 -1.4541729e-21 8.1348527e-05 1.6420326e-22 1.0072232e-38)
(0.026330513 -0.0010190238 -7.5237694e-22 8.2405784e-05 9.5367528e-23 3.7837148e-39)
(1.166164e-05 -5.3666842e-06 3.3810286e-23 1.3810425e-05 -1.2347444e-23 1.153515e-40)
(6.1943489e-05 -6.9690996e-05 -9.308641e-22 9.2063723e-05 7.0187402e-22 3.7896509e-38)
(0.00013898656 -0.00015816182 1.8489363e-22 0.00018327096 -1.532736e-22 3.4206057e-39)
(0.00041002748 -0.00032037207 9.762424e-22 0.00026209046 -5.9618953e-22 1.8264439e-38)
(0.00086111938 -0.00051660342 1.3518096e-21 0.00033179217 -6.4393733e-22 2.0651637e-38)
(0.0014967649 -0.00073275086 1.6276851e-22 0.0003922324 -6.444996e-23 1.9391708e-40)
(0.00233184 -0.00096077812 -4.3054941e-21 0.00044354021 1.4663152e-21 1.0321248e-37)
(0.0033658618 -0.0011928487 -1.483852e-22 0.00048696534 6.0437595e-23 2.8974727e-41)
(0.0045883109 -0.0014226689 2.3926979e-21 0.0005238577 -7.1014479e-22 1.7558637e-38)
(0.0059853884 -0.001645596 -5.7304774e-22 0.00055529987 1.5355007e-22 9.7673794e-40)
(0.0075412017 -0.0018581384 -2.1455112e-21 0.0005821356 5.7011975e-22 1.0807699e-38)
(0.0092379672 -0.0020576086 4.4661683e-22 0.00060502146 -1.1034435e-22 4.9239671e-40)
(0.011056624 -0.0022419097 1.8711209e-21 0.0006244647 -4.00354e-22 1.1629663e-38)
(0.012977363 -0.0024093976 7.5367861e-22 0.00064086915 -1.8171344e-22 1.3221213e-39)
(0.014979911 -0.0025588234 1.4681218e-21 0.00065459263 -3.8500641e-22 3.8008415e-39)
(0.017043891 -0.0026893961 -1.1381477e-21 0.00066600638 2.8210929e-22 3.2286752e-39)
(0.019149689 -0.0028008771 -1.058262e-21 0.0006755067 2.6180572e-22 3.5354884e-39)
(0.021278279 -0.0028932932 1.0255972e-21 0.00068342684 -3.0109424e-22 2.0201539e-39)
(0.023405741 -0.0029673926 8.8918643e-22 0.00069014573 -2.5912891e-22 3.5663771e-39)
(0.025502279 -0.0030294103 3.157453e-22 0.00069591966 -9.0553884e-23 1.5248762e-39)
(1.4996786e-05 -1.3769231e-05 2.6019051e-23 3.6867894e-05 -1.2857028e-23 6.053151e-41)
(9.3598926e-05 -0.00014399482 7.065243e-22 0.00024573334 -7.5635242e-22 1.6149491e-38)
(0.00020890278 -0.00031771393 -1.5421867e-22 0.0004885471 1.9859601e-22 8.4536947e-40)
(0.00054431884 -0.00060670566 -1.0588762e-21 0.00069812308 8.8904031e-22 2.0015834e-38)
(0.0010673164 -0.00094704505 3.8401632e-22 0.00088271507 -3.2073919e-22 5.5859652e-40)
(0.0017756107 -0.0013158823 5.0113169e-22 0.0010415999 -4.0554605e-22 2.8067776e-40)
(0.0026785242 -0.001699998 -6.3235115e-22 0.0011751369 3.3114089e-22 1.7793097e-39)
(0.0037695534 -0.002086794 -1.6180962e-21 0.0012866784 9.3406061e-22 3.4920541e-39)
(0.0050328034 -0.0024662755 7.0688861e-22 0.0013798287 -3.3805456e-22 9.8784382e-40)
(0.0064495944 -0.0028310891 1.4954153e-21 0.001457499 -6.0819281e-22 5.631322e-39)
(0.0079993599 -0.0031757073 3.8859105e-22 0.0015219722 -2.7659454e-22 2.0428293e-40)
(0.0096597876 -0.0034958785 1.8006574e-21 0.0015750244 -5.771887e-22 1.0470659e-38)
(0.011407402 -0.0037882865 1.4889668e-22 0.0016180166 -5.3816609e-23 4.3208156e-41)
(0.013218049 -0.0040503186 -2.57842e-21 0.0016520073 8.4358952e-22 1.6790287e-38)
(0.01506709 -0.0042799674 1.7235668e-22 0.0016779047 -1.2319585e-22 9.2234545e-41)
(0.016929818 -0.0044759303 -1.1689526e-21 0.0016966252 3.0763489e-22 6.5604416e-39)
(0.01878304 -0.0046378096 -1.5702547e-21 0.001709138 6.3168538e-22 2.6416732e-39)
(0.020604701 -0.0047656894 2.4795293e-21 0.0017164054 -9.9130516e-22 8.8021942e-39)
(0.022360222 -0.0048609504 1.2593464e-21 0.0017199456 -5.5096822e-22 1.7713911e-39)
(0.024002762 -0.0049363452 2.5717432e-22 0.0017213055 -1.2620103e-22 3.7628786e-41)
(2.2104208e-05 -2.8516494e-05 -3.9173885e-23 6.7954015e-05 4.9504051e-23 8.7368372e-41)
(0.00015328511 -0.00025550443 -1.6336341e-21 0.00045314981 2.0670523e-21 5.3520391e-38)
(0.00033800629 -0.00054931699 -1.1956242e-22 0.00089953669 1.536285e-22 7.325231e-40)
(0.00077865665 -0.000988978 2.6970059e-22 0.0012838187 -2.986553e-22 4.6364819e-40)
(0.0014167379 -0.0014895402 -4.5888837e-23 0.0016203759 1.2977136e-23 1.2051042e-40)
(0.0022399951 -0.0020199606 1.3678968e-21 0.0019070784 -9.9814256e-22 8.7822401e-39)
(0.0032494381 -0.0025619735 1.5016049e-21 0.002144537 -9.7387119e-22 7.9733684e-39)
(0.0044299212 -0.0030988555 -4.5791639e-22 0.0023389902 2.186226e-22 1.259657e-39)
(0.0057578728 -0.0036175748 -1.6456592e-21 0.0024971557 8.480141e-22 7.9901328e-39)
(0.0072076631 -0.0041085811 -3.2565031e-21 0.0026245297 1.7372652e-21 1.6860878e-38)
(0.0087521769 -0.0045647119 -8.325174e-23 0.0027254794 -3.6235515e-23 3.8787813e-40)
(0.010362916 -0.0049804837 4.0597711e-21 0.0028034335 -1.8617676e-21 2.7580727e-38)
(0.012010559 -0.0053516349 -1.6427778e-21 0.0028610272 6.0708441e-22 8.1861215e-39)
(0.013665476 -0.0056748461 -1.0311043e-21 0.0029003071 4.4542255e-22 1.6062471e-39)
(0.015297903 -0.0059475796 -1.0627306e-22 0.0029229775 1.4091117e-22 3.4900696e-40)
(0.016878406 -0.0061681864 2.3464991e-21 0.0029306694 -1.028806e-21 6.5574102e-39)
(0.01838035 -0.0063362773 -1.2891909e-21 0.0029250482 6.6754131e-22 4.1312958e-40)
(0.019779789 -0.0064523891 -2.9119167e-21 0.0029080698 1.240266e-21 1.4140838e-38)
(0.021032672 -0.0065189694 1.8692814e-21 0.0028840488 -8.4080311e-22 7.1023758e-39)
(0.022075765 -0.0065561319 1.6167349e-21 0.0028587176 -6.6306962e-22 6.6340863e-39)
(3.5354606e-05 -5.0810228e-05 1.7543693e-22 0.00010363958 -1.7056314e-22 1.1539518e-39)
(0.00025387122 -0.00041115111 5.9130015e-23 0.00069098348 -1.7202658e-23 5.1481694e-40)
(0.00055171846 -0.00086595742 -2.2250817e-21 0.0013683221 3.196206e-21 4.3760747e-38)
(0.0011475171 -0.0014830665 -1.2781147e-21 0.0019488515 1.358955e-21 1.3583981e-38)
(0.0019504512 -0.0021600818 8.5951794e-22 0.0024532912 -6.837507e-22 8.2221108e-39)
(0.0029350046 -0.00285798 1.0464505e-21 0.0028771929 -8.4265146e-22 3.8630508e-39)
(0.0040908498 -0.0035535392 -1.3651382e-21 0.0032215172 8.8750815e-22 9.0555713e-39)
(0.005391575 -0.0042267472 -2.0709247e-21 0.0034960203 1.1792601e-21 1.9872458e-38)
(0.0068037172 -0.0048624451 3.0034505e-21 0.0037112394 -1.7831639e-21 2.0340641e-38)
(0.0082928028 -0.0054496619 8.7477302e-22 0.0038759485 -3.4665244e-22 4.7488542e-39)
(0.0098235977 -0.0059802821 -2.5912482e-21 0.0039972691 1.7353153e-21 1.479376e-39)
(0.011360289 -0.0064482407 1.1592343e-21 0.0040809097 -5.1715074e-22 3.648924e-39)
(0.012867171 -0.0068490044 0 0.0041313576 0 0)
(0.014309255 -0.0071792236 1.0842033e-21 0.0041521383 -5.2619699e-22 1.4197428e-39)
(0.015652582 -0.007436541 -8.0036292e-22 0.0041461508 3.7972243e-22 7.5752726e-40)
(0.01686488 -0.0076196753 -1.1989812e-21 0.0041160183 6.0656425e-22 9.1013562e-40)
(0.017918949 -0.0077289332 4.1747561e-22 0.0040641809 -3.7940502e-22 1.3019961e-39)
(0.018793451 -0.0077662304 -3.4382685e-22 0.0039936309 2.1899943e-22 4.5290844e-41)
(0.01944167 -0.0077361582 1.5888309e-21 0.0039131783 -6.9506765e-22 7.6944846e-39)
(0.019788368 -0.0076651248 -1.319835e-21 0.0038379464 6.7461476e-22 4.2598779e-40)
(5.7466568e-05 -8.098218e-05 1.6848636e-22 0.00014046326 -1.4167978e-22 9.2615578e-40)
(0.0004096808 -0.00061176619 8.0019022e-22 0.00093457289 -1.0678924e-21 3.4095845e-39)
(0.00087767283 -0.0012678572 -1.0723882e-21 0.001843577 1.4278014e-21 8.2309797e-39)
(0.0016865921 -0.002086237 -1.7336981e-21 0.0026173613 1.9621797e-21 6.8310792e-39)
(0.0027075807 -0.0029505346 -4.6533808e-22 0.0032825964 7.2144674e-22 5.4113563e-39)
(0.0038980065 -0.0038136422 -1.550469e-21 0.0038320751 1.3693933e-21 3.3678868e-39)
(0.0052327484 -0.0046475966 -7.4002667e-22 0.004267587 4.5434701e-22 3.9234299e-39)
(0.0066715289 -0.0054302506 1.2613926e-21 0.0046030283 -7.5559296e-22 7.2336592e-39)
(0.0081690109 -0.0061456161 2.9647141e-21 0.0048534041 -1.7610364e-21 2.4742939e-38)
(0.0096804525 -0.006782563 8.9383092e-22 0.0050314828 -5.5123822e-22 1.0339553e-39)
(0.011161902 -0.007333315 -8.4791816e-22 0.0051478757 4.4757512e-22 1.6449235e-39)
(0.012570515 -0.0077925433 -1.7723411e-22 0.0052113028 -3.3496344e-23 1.4360126e-39)
(0.01386555 -0.0081568162 -3.8891493e-21 0.0052288096 2.1396509e-21 1.3551995e-38)
(0.015009317 -0.0084242351 -1.1914986e-21 0.0052060655 6.2637297e-22 1.4023782e-39)
(0.015967825 -0.0085942109 1.9443222e-21 0.0051477408 -1.154128e-21 6.3170969e-40)
(0.016711675 -0.0086674558 -1.9158195e-21 0.0050578653 1.0591173e-21 1.3598658e-39)
(0.017220083 -0.0086464326 -6.6719677e-22 0.0049397221 3.3290806e-22 4.4242133e-40)
(0.017483024 -0.0085357996 1.4664164e-21 0.0047967703 -6.103659e-22 6.9268464e-39)
(0.017463796 -0.0083437899 2.144351e-21 0.0046424789 -1.1060303e-21 5.196644e-39)
(0.017082863 -0.0081003492 2.6499814e-22 0.0045071267 -1.2601244e-22 1.0173541e-40)
(9.1287538e-05 -0.00011851866 -4.7552792e-22 0.00017524619 3.8634877e-22 5.481469e-39)
(0.00063465768 -0.0008520106 -5.2987813e-22 0.0011605732 5.3779047e-22 4.3686967e-39)
(0.0013412568 -0.0017418864 1.2713215e-21 0.0022766652 -1.6243898e-21 1.8634867e-39)
(0.0024254971 -0.0027759056 1.9693006e-21 0.003217639 -2.050909e-21 9.1169289e-39)
(0.0037149704 -0.0038270213 2.5731485e-23 0.0040155 -2.3265775e-23 1.8162036e-42)
(0.0051453343 -0.0048400278 -5.3025154e-21 0.0046607716 4.3970371e-21 5.3381623e-38)
(0.0066730231 -0.0057829563 -2.0147906e-21 0.0051571568 1.7507738e-21 7.1653839e-40)
(0.0082417347 -0.0066332544 1.5999167e-21 0.0055234625 -1.0822003e-21 5.8662708e-39)
(0.0097933804 -0.0073761059 1.8003451e-21 0.0057797909 -1.2176721e-21 3.5760465e-39)
(0.011273252 -0.0080022742 -1.7766633e-21 0.0059435612 9.8746323e-22 9.8543875e-39)
(0.012630258 -0.0085064168 -5.0462903e-21 0.006029554 3.2248525e-21 1.421246e-38)
(0.013817727 -0.0088861225 3.2794957e-21 0.0060501569 -2.0152991e-21 5.8383588e-39)
(0.014794864 -0.0091413277 1.9488453e-21 0.0060155993 -1.018695e-21 7.0596725e-39)
(0.015528151 -0.0092739296 -2.6410956e-21 0.0059342718 1.4773429e-21 5.7921043e-39)
(0.01599235 -0.0092875066 1.1374936e-21 0.0058130997 -6.7340527e-22 3.8051844e-40)
(0.016171409 -0.0091871245 1.8663239e-21 0.0056578377 -9.7410384e-22 4.3204607e-39)
(0.016062242 -0.008979418 6.9724064e-22 0.0054725894 -4.0608938e-22 1.4303718e-40)
(0.015677711 -0.0086731219 -1.1779889e-21 0.0052602152 7.6664947e-22 1.7152038e-40)
(0.015006657 -0.0082808871 -2.54424e-22 0.00503654 7.1918766e-23 1.076558e-39)
(0.013977112 -0.0078318243 1.5135756e-21 0.0048498561 -9.1477855e-22 4.0712574e-40)
(0.00013956176 -0.00016209171 -1.5627287e-23 0.000205187 -1.333632e-23 9.8390187e-41)
(0.0009404087 -0.0011206921 -1.8888124e-21 0.0013485308 1.9997372e-21 1.4321338e-38)
(0.0019608932 -0.0022623797 -1.5221574e-21 0.0026259591 1.6340215e-21 2.1736915e-38)
(0.0033803415 -0.003511114 2.7724324e-21 0.00368958 -2.6730289e-21 1.2632157e-38)
(0.0049774588 -0.0047325368 2.2218453e-21 0.0045761042 -2.2231453e-21 5.273793e-39)
(0.0066612562 -0.0058640871 1.9214467e-21 0.0052753889 -1.6046311e-21 2.0867068e-39)
(0.0083667192 -0.006871579 -1.6074029e-22 0.0057947213 2.0991002e-22 9.9278008e-40)
(0.010021208 -0.0077347236 -1.7633649e-21 0.006158581 1.1996692e-21 5.7200331e-39)
(0.011555435 -0.0084427086 -4.9199448e-22 0.0063926648 4.2984885e-22 5.2583036e-40)