/*--------------------------------*- C++ -*----------------------------------*\
  =========                 |
  \\      /  F ield         | OpenFOAM: The Open Source CFD Toolbox
   \\    /   O peration     | Website:  https://openfoam.org
    \\  /    A nd           | Version:  6
     \\/     M anipulation  |
\*---------------------------------------------------------------------------*/
FoamFile
{
    version     2.0;
    format      ascii;
    class       surfaceScalarField;
    location    "163";
    object      phi_0;
}
// * * * * * * * * * * * * * * * * * * * * * * * * * * * * * * * * * * * * * //

dimensions      [0 3 -1 0 0 0 0];

internalField   nonuniform List<scalar> 
18180
(
0.00031872946
-0.00016316058
-0.00015556888
0.0013092118
-0.0013669181
0.00037643572
0.0030328895
-0.0033336244
0.0016099467
0.0055497769
-0.0059759664
0.003459079
0.0089182023
-0.0092390904
0.005870665
0.01319282
-0.013079544
0.0088049265
0.018421952
-0.01745986
0.012230728
0.024644618
-0.022345824
0.016123158
0.031887387
-0.027703346
0.020460577
0.040161301
-0.033495843
0.025221928
0.049459191
-0.039682481
0.030384591
0.059753749
-0.046217258
0.0359227
0.070996763
-0.053048904
0.04180589
0.083119971
-0.060121645
0.047998437
0.096038148
-0.067376904
0.054458727
0.10965494
-0.07475607
0.061139281
0.12387087
-0.082204167
0.067988232
0.1385986
-0.089674155
0.074946426
0.1538367
-0.097148905
0.081910808
-0.10462604
0.088678968
0.16978378
0.0003974973
-0.00056065788
0.0016095956
-0.0025790164
0.0036893201
-0.0054133488
0.0066874472
-0.0089740935
0.010650658
-0.013202301
0.015617877
-0.018046764
0.021616269
-0.023458252
0.028657271
-0.029386825
0.036732961
-0.035779036
0.045813164
-0.042576046
0.055843712
-0.049713028
0.06674623
-0.057119776
0.07841969
-0.064722364
0.090743808
-0.072445763
0.1035841
-0.080217191
0.11679794
-0.087969918
0.13024081
-0.095647036
0.14377301
-0.10320635
0.15725861
-0.1106345
-0.11786197
0.17049453
0.00048062368
-0.0010412816
0.0019186992
-0.0040170919
0.004352481
-0.0078471305
0.0078165671
-0.01243818
0.01233767
-0.017723404
0.017929215
-0.023638309
0.024586259
-0.030115296
0.032281223
-0.037081789
0.040960856
-0.04445867
0.050544939
-0.052160129
0.060927088
-0.060095177
0.071977828
-0.068170516
0.083549821
-0.076294357
0.095484835
-0.084380777
0.10762171
-0.092354068
0.11980428
-0.10015249
0.13188803
-0.10773078
0.1437435
-0.11506183
0.15524872
-0.12213972
-0.12891436
0.16630111
0.00056616996
-0.0016074515
0.0022279435
-0.0056788654
0.0050006135
-0.0106198
0.0088940145
-0.016331581
0.013905263
-0.022734653
0.02001189
-0.029744935
0.027166498
-0.037269905
0.035293429
-0.04520872
0.044287872
-0.053453112
0.054017794
-0.061890051
0.064328738
-0.070406122
0.075051151
-0.078892928
0.086009544
-0.087252751
0.097032518
-0.095403751
0.10796248
-0.10328403
0.11866398
-0.11085398
0.12902966
-0.11809647
0.13898298
-0.12501515
0.14847492
-0.13163166
-0.13794526
0.15750582
0.00065088655
-0.0022583381
0.0025243428
-0.0075523216
0.0056036369
-0.013699095
0.009864469
-0.020592413
0.015264617
-0.028134801
0.021736418
-0.036216736
0.029182492
-0.044715978
0.037474907
-0.053501135
0.046458017
-0.062436222
0.055954853
-0.071386887
0.065776448
-0.080227717
0.075733029
-0.088849509
0.085645733
-0.097165455
0.095357409
-0.10511543
0.10474122
-0.11266785
0.1137062
-0.11981896
0.12219937
-0.12658964
0.13020456
-0.13302034
0.13773799
-0.13916509
-0.14506763
0.14486036
0.00073063616
-0.0029889742
0.0027920874
-0.0096137729
0.0061265768
-0.017033584
0.010666716
-0.025132552
0.016322656
-0.033790741
0.022975251
-0.042869331
0.030474439
-0.052215166
0.038642409
-0.061669106
0.047281199
-0.071075012
0.056183745
-0.080289433
0.065146897
-0.089190869
0.073984608
-0.09768722
0.08253949
-0.10572034
0.090691305
-0.11326724
0.098361455
-0.120338
0.1055133
-0.1269708
0.11214878
-0.13322513
0.11830239
-0.13917394
0.1240336
-0.14489631
-0.15046335
0.12942932
0.00080073153
-0.0037897058
0.0030139172
-0.011826959
0.0065328967
-0.020552563
0.011240056
-0.029839711
0.016992702
-0.039543388
0.023618551
-0.04949518
0.030918223
-0.059514837
0.038673326
-0.069424209
0.046658781
-0.079060467
0.054657405
-0.088288057
0.062474465
-0.097007929
0.06994996
-0.10516271
0.076966965
-0.11273734
0.083455099
-0.11975538
0.089389105
-0.126272
0.094783305
-0.132365
0.099683291
-0.13812511
0.10415648
-0.14364713
0.10828308
-0.14902291
-0.15433361
0.11215334
0.00085605903
-0.0046457648
0.0031720617
-0.014142961
0.0067872279
-0.02416773
0.011529805
-0.034582289
0.017203438
-0.045217021
0.023586554
-0.055878295
0.030439881
-0.066368164
0.037519334
-0.076503663
0.044591804
-0.086132937
0.051451008
-0.09514726
0.057930635
-0.10348756
0.063912776
-0.11114486
0.069330641
-0.11815521
0.074165686
-0.12459042
0.078440244
-0.13054656
0.082207321
-0.13613208
0.085539482
-0.14145727
0.088518536
-0.14662619
0.091227329
-0.1517317
-0.15685209
0.093745809
0.00089026265
-0.0055360274
0.0032482842
-0.016500983
0.0068576239
-0.027777069
0.011492467
-0.039217131
0.016906813
-0.050631367
0.022838899
-0.061810381
0.029023674
-0.072552939
0.035209254
-0.082689243
0.041173931
-0.092097614
0.046740397
-0.10071373
0.051784654
-0.10853181
0.056238403
-0.1155986
0.060085131
-0.12200194
0.063351235
-0.12785652
0.066094198
-0.13328952
0.068390035
-0.13842791
0.070321899
-0.14338914
0.071971207
-0.14827549
0.073411892
-0.15317239
-0.15814774
0.074707541
0.00089981848
-0.0064358459
0.0032333813
-0.018834546
0.0067291654
-0.031272854
0.011111178
-0.043599144
0.016092487
-0.055612676
0.021384625
-0.067102519
0.026713887
-0.0778822
0.031839117
-0.087814473
0.036567085
-0.096825582
0.040762269
-0.10490891
0.044349468
-0.11211901
0.04730934
-0.11855848
0.049668393
-0.12436099
0.051485797
-0.12967393
0.052839504
-0.13464323
0.053813794
-0.13940221
0.054489681
-0.14406502
0.054938786
-0.1487246
0.055220509
-0.15345411
0.05538094
-0.15830817
-0.0002023784
0.00020237847
-1.0484304e-10
-0.00067774686
0.00047536857
-1.4406568e-10
-0.0013424265
0.00066467975
-1.6762546e-10
-0.0021322952
0.00078986885
-1.8184785e-10
-0.0029957745
0.00086347942
-1.8301276e-10
-0.003890742
0.00089496764
-1.7183048e-10
-0.0047822977
0.00089155585
-1.5417322e-10
-0.005640895
0.00085859743
-1.3259035e-10
-0.0064408701
0.00079997516
-1.1105826e-10
-0.007159291
0.00071842095
-9.0816698e-11
-0.0077750392
0.00061574828
-7.3527656e-11
-0.0082680746
0.00049303537
-5.8827526e-11
-0.0086188553
0.00035078078
-4.7200787e-11
-0.008807905
0.00018904969
-3.7498843e-11
-0.008815557
7.6520753e-06
-3.0143985e-11
-0.0086219787
-0.00019357826
-2.378865e-11
-0.008207435
-0.00041454378
-1.8950556e-11
-0.0075518827
-0.00065555221
-1.4723887e-11
-0.0066345658
-0.00091731696
-1.149713e-11
-0.0011862344
-0.0054483313
-8.9501101e-12
-0.00018797458
0.00039035304
-0.00062500741
0.00091240136
-0.001228754
0.0012684263
-0.0019351957
0.0014963105
-0.0026921408
0.0016204245
-0.003456286
0.0016591128
-0.0041910693
0.0016263392
-0.0048648611
0.0015323892
-0.0054495263
0.0013846403
-0.0059192889
0.0011881836
-0.0062498172
0.00094627653
-0.0064174813
0.00066069952
-0.006398749
0.00033204841
-0.006169706
-3.9993346e-05
-0.0057057313
-0.00045632259
-0.004981417
-0.0009178926
-0.0039707838
-0.001425177
-0.0026472022
-0.0019791338
-0.00098324235
-0.0025812768
-0.0032017902
0.0010323135
-0.00015892793
0.00054928095
-0.00051889171
0.0012723651
-0.0010007705
0.001750305
-0.0015412601
0.0020368
-0.0020873508
0.0021665151
-0.0025937362
0.0021654981
-0.0030208692
0.0020534721
-0.0033332943
0.0018448143
-0.0034983024
0.0015496483
-0.0034848543
0.0011747355
-0.0032626973
0.00072411945
-0.0028016448
0.00019964708
-0.0020709434
-0.00039865303
-0.0010387581
-0.0010721786
0.00032825627
-0.001823337
0.0020652322
-0.0026548686
0.0042090489
-0.0035689936
0.0067980261
-0.004568111
0.0098718554
-0.0056551061
-0.0067797521
0.013449817
-0.00011756698
0.00066684793
-0.00036699863
0.0015217967
-0.00067351377
0.0020568201
-0.00097482574
0.0023381119
-0.001216854
0.0024085432
-0.0013515938
0.0023002379
-0.001335459
0.0020373373
-0.0011278271
0.0016371824
-0.00068984281
0.001111664
1.653407e-05
0.00046835856
0.0010293128
-0.00028865934
0.0023871188
-0.0011581589
0.0041297386
-0.0021412728
0.0062986015
-0.0032410415
0.0089372857
-0.0044620213
0.012092075
-0.0058096579
0.015812334
-0.0072892521
0.020150205
-0.008905982
0.025160399
-0.0106653
-0.012492639
0.030873286
-6.6907612e-05
0.00073375554
-0.00017916642
0.0016340555
-0.00026653358
0.0021441873
-0.00026769095
0.0023392693
-0.00012719327
0.0022680455
0.0002061686
0.001966876
0.00078069623
0.0014628096
0.0016429531
0.00077492551
0.0028387342
-8.4117158e-05
0.0044138521
-0.0011067593
0.0064147001
-0.0022895073
0.008888669
-0.0036321278
0.011884472
-0.0051370761
0.015452476
-0.0068090452
0.019645073
-0.0086546179
0.024517301
-0.010681887
0.030127726
-0.012899677
0.036538944
-0.0153172
0.043818354
-0.01794471
-0.020682569
0.052008284
-9.9845559e-06
0.0007437401
3.453524e-05
0.0015895357
0.0001998908
0.0019788317
0.00054676694
0.0019923931
0.0011322492
0.0016825633
0.0020109843
0.0010881409
0.0032361446
0.00023764934
0.0048603106
-0.00084924055
0.0069361291
-0.0021599356
0.0095166868
-0.003687317
0.01265572
-0.00542854
0.016407716
-0.0073841243
0.020827845
-0.0095572053
0.025971795
-0.011952995
0.031895673
-0.014578496
0.038656307
-0.017442521
0.046312432
-0.020555801
0.054926744
-0.023931513
0.06456974
-0.027587706
-0.031405636
0.075292806
5.0751409e-05
0.0006929887
0.00026565815
0.001374629
0.00070825526
0.0015362346
0.001439032
0.0012616164
0.002516823
0.00060477225
0.0039995705
-0.00039460657
0.0059449202
-0.0017077004
0.0084106109
-0.0033149313
0.011454604
-0.0052039291
0.015135054
-0.0073677671
0.019510039
-0.0098035243
0.024637032
-0.012511117
0.030572168
-0.015492342
0.037369347
-0.018750174
0.045079296
-0.022288445
0.053749027
-0.026112252
0.06342265
-0.030229423
0.074144764
-0.034653627
0.085969403
-0.039412345
-0.044388555
0.098952322
0.00011379643
0.00057919228
0.00050850391
0.00097992148
0.0012459835
0.00079875498
0.0023867797
0.00012082017
0.0039912442
-0.00099969227
0.0061198809
-0.0025232433
0.0088333267
-0.0044211462
0.012192175
-0.0066737793
0.016256569
-0.0092683237
0.021085461
-0.012196658
0.026735567
-0.01545363
0.033260046
-0.019035597
0.040706913
-0.022939208
0.049117226
-0.027160487
0.058523194
-0.031694413
0.068946553
-0.036535611
0.080398379
-0.04168125
0.092882214
-0.047137462
0.10640556
-0.05293569
-0.05899573
0.12101274
0.00017849597
0.00040069631
0.00076003051
0.00039838695
0.0018053403
-0.00024655482
0.0033747162
-0.0014485558
0.0055289995
-0.0031539755
0.0083293253
-0.0053235691
0.011836498
-0.0079283192
0.01611007
-0.010947351
0.021207057
-0.014365311
0.027180322
-0.018169923
0.034076641
-0.022349949
0.041934506
-0.026893462
0.050781694
-0.031786397
0.060632633
-0.037011425
0.071485545
-0.042547325
0.083319442
-0.048369508
0.096091919
-0.054453727
0.10974049
-0.060786033
0.12419607
-0.067391272
-0.074274685
0.13947503
0.00024512744
0.0010199501
0.002383342
0.0043938653
0.0071105548
0.010591912
0.014894321
0.020070128
0.026165395
0.0332174
0.041252042
0.050281279
0.060300772
0.071287784
0.083199186
0.095968959
0.10950346
0.12366386
0.13818339
0.15258768
-0.0035077013
-0.00194063
-1.0195156e-11
-0.0012859111
-0.0022217902
-7.8482417e-12
0.0011947042
-0.0024806152
-5.3712947e-12
0.0038772453
-0.0026825411
-3.1964302e-12
0.0067349085
-0.0028576632
-1.5006344e-12
0.0097503879
-0.0030154794
1.2105075e-12
0.012904749
-0.0031543611
2.54814e-12
0.016179969
-0.0032752201
4.4044134e-12
0.019560347
-0.0033803777
6.8007339e-12
0.023031663
-0.0034713164
9.8840458e-12
0.026580632
-0.0035489687
1.3467872e-11
0.030194828
-0.0036141962
1.7539427e-11
0.033862608
-0.0036677805
2.1924814e-11
0.037572977
-0.0037103685
2.6580918e-11
0.041315482
-0.0037425051
3.12746e-11
0.045080152
-0.0037646697
3.5835294e-11
0.048857445
-0.0037772936
3.9886361e-11
0.052638219
-0.0037807735
4.3104742e-11
0.056413705
-0.0037754859
4.4979285e-11
0.060175503
-0.0037617986
4.5076473e-11
0.063915583
-0.0037400794
4.2804804e-11
0.067626285
-0.0037107027
3.7735359e-11
0.071300338
-0.0036740528
2.9361279e-11
0.074930865
-0.0036305267
1.7521958e-11
0.078511399
-0.0035805339
2.11471e-12
0.082035894
-0.0035244952
-1.6333272e-11
0.085498735
-0.0034628408
-3.7076996e-11
0.088894742
-0.0033960071
-5.8405545e-11
0.092219175
-0.0033244333
-7.8321833e-11
0.095467733
-0.0032485575
-9.3640724e-11
0.098636547
-0.0031688138
-1.0115484e-10
0.10172218
-0.0030856285
-9.6645614e-11
0.10472159
-0.0029994173
-7.6800384e-11
0.10763218
-0.0029105836
-3.8166669e-11
0.11045169
-0.0028195167
2.0019577e-11
0.11317829
-0.0027265924
9.7121938e-11
0.11581046
-0.0026321733
1.874368e-10
0.11834707
-0.0025366115
2.823685e-10
0.12078733
-0.002440256
3.6655581e-10
0.12313078
-0.0023434533
4.2201016e-10
0.12537737
-0.0022465895
4.2611635e-10
0.12752738
-0.0021500157
3.5862833e-10
0.1295818
-0.0020544219
2.0380038e-10
0.1315416
-0.0019597968
-3.996784e-11
0.13341086
-0.0018692617
-3.5568312e-10
0.1351881
-0.0017772373
-7.0218934e-10
0.13689777
-0.0017096658
-1.0067646e-09
0.13849572
-0.0015979495
-1.1788995e-09
0.14018278
-0.001687062
-1.1625414e-09
-0.0013313118
-4.6290229e-10
0.0028529307
-0.0037612473
0.0049500794
-0.0043189389
0.0072929409
-0.0048234767
0.0098190731
-0.0052086732
0.012507415
-0.0055460049
0.015345641
-0.0058537053
0.01831701
-0.0061257301
0.021405115
-0.0063633258
0.024595939
-0.006571201
0.027876717
-0.006752095
0.031235319
-0.0069075706
0.034660263
-0.0070391402
0.038140693
-0.0071482098
0.041666261
-0.0072359367
0.04522705
-0.0073032942
0.048813526
-0.0073511464
0.052416512
-0.0073802788
0.05602716
-0.0073914223
0.059636953
-0.0073852787
0.063237696
-0.0073625419
0.066821531
-0.0073239135
0.070380941
-0.0072701133
0.073908775
-0.0072018863
0.077398253
-0.0071200055
0.080842991
-0.0070252717
0.084237007
-0.0069185105
0.087574733
-0.0068005675
0.090851028
-0.006672302
0.094061175
-0.00653458
0.097200884
-0.0063882667
0.10026629
-0.0062342196
0.10325394
-0.0060732814
0.1061608
-0.0059062748
0.10898422
-0.0057339987
0.11172192
-0.0055572247
0.11437203
-0.0053766978
0.11693299
-0.0051931382
0.11940363
-0.0050072456
0.12178309
-0.004819715
0.12407087
-0.0046312358
0.12626686
-0.0044425792
0.12837129
-0.0042544458
0.13038508
-0.0040682129
0.13230915
-0.0038838619
0.13414749
-0.0037076029
0.13589863
-0.0035283771
0.13758655
-0.0033975911
0.13916816
-0.0031795582
0.14083908
-0.0033579785
-0.0026601697
0.015021156
-0.0053325858
0.016852258
-0.0061500411
0.018905797
-0.0068770158
0.021111845
-0.0074147211
0.023458767
-0.0078929272
0.025942911
-0.0083378491
0.028551658
-0.0087344772
0.031271528
-0.0090831961
0.034091421
-0.0093910941
0.037001107
-0.0096617807
0.039990465
-0.0098969284
0.043049634
-0.010098309
0.04616909
-0.010267666
0.049339578
-0.010406424
0.052552067
-0.010515784
0.055797748
-0.010596827
0.059068029
-0.01065056
0.062354548
-0.010677942
0.065649183
-0.010679914
0.068944069
-0.010657427
0.072231617
-0.010611462
0.075504541
-0.010543037
0.078755875
-0.01045322
0.081978998
-0.010343128
0.085167651
-0.010213925
0.088315958
-0.010066817
0.091418432
-0.0099030415
0.094469991
-0.0097238619
0.097465963
-0.0095305511
0.10040208
-0.0093243851
0.10327449
-0.0091066277
0.10607973
-0.0088785236
0.10881475
-0.0086412892
0.11147685
-0.008396106
0.11406375
-0.0081441175
0.11657348
-0.007886428
0.11900444
-0.0076241073
0.1213554
-0.0073581963
0.12362541
-0.0070897301
0.12581391
-0.006819738
0.12792071
-0.0065493727
0.12994594
-0.0062796843
0.13189046
-0.0060127306
0.1337551
-0.0057485016
0.13554371
-0.005496213
0.13725491
-0.0052395715
0.13891171
-0.0050543908
0.14047334
-0.0047411928
0.14212482
-0.0050094566
-0.0039972652
0.032056579
-0.0065158786
0.033471778
-0.0075652399
0.035077283
-0.0084825213
0.036800119
-0.0091375567
0.03864097
-0.0097337787
0.040606135
-0.010303014
0.042688441
-0.010816783
0.044878365
-0.011273121
0.047168332
-0.011681061
0.049551113
-0.012044561
0.052019
-0.012364815
0.054564037
-0.012643347
0.057178214
-0.012881843
0.059853488
-0.013081698
0.062581796
-0.013244092
0.065355094
-0.013370125
0.068165402
-0.013460867
0.071004841
-0.013517381
0.073865679
-0.013540752
0.076740365
-0.013532113
0.079621564
-0.013492662
0.082502198
-0.013423671
0.085375472
-0.013326494
0.088234904
-0.01320256
0.091074349
-0.01305337
0.093888019
-0.012880487
0.096670501
-0.012685524
0.099416765
-0.012470125
0.10212217
-0.012235958
0.10478248
-0.011984691
0.10739383
-0.01171798
0.10995276
-0.011437458
0.1124562
-0.011144723
0.11490142
-0.010841328
0.11728608
-0.010528776
0.11960817
-0.010208524
0.12186605
-0.0098819827
0.12405838
-0.0095505284
0.12618418
-0.0092155316
0.1282428
-0.0088783591
0.13023397
-0.0085405426
0.13215777
-0.0082034821
0.13401495
-0.007869908
0.13580629
-0.0075398432
0.13753546
-0.0072253856
0.13920127
-0.0069053748
0.14082534
-0.0066784682
0.1423704
-0.0062862489
0.14400617
-0.006645227
-0.0053584924
0.052648578
-0.0071561723
0.053489165
-0.0084058265
0.054483279
-0.0094766355
0.055565233
-0.010219511
0.056749844
-0.01091839
0.058051406
-0.011604576
0.05946843
-0.012233807
0.060996047
-0.012800738
0.062630047
-0.013315061
0.064365833
-0.013780347
0.066197883
-0.014196866
0.068119928
-0.014565392
0.070125204
-0.014887119
0.072206609
-0.015163103
0.074356795
-0.015394278
0.07656825
-0.01558158
0.078833381
-0.015725998
0.081144594
-0.015828595
0.083494362
-0.015890519
0.085875281
-0.015913031
0.088280124
-0.015897505
0.09070189
-0.015845437
0.09313384
-0.015758444
0.095569531
-0.015638251
0.098002849
-0.015486688
0.10042803
-0.015305665
0.10283966
-0.015097161
0.10523274
-0.014863198
0.10760261
-0.01460583
0.10994503
-0.014327113
0.11225614
-0.01402909
0.11453246
-0.013713776
0.11677088
-0.013383147
0.11896867
-0.013039118
0.12112345
-0.012683554
0.12323318
-0.012318257
0.12529618
-0.011944976
0.12731107
-0.011565421
0.12927684
-0.011181298
0.13119279
-0.010794311
0.13305862
-0.010406371
0.13487437
-0.010019232
0.13664075
-0.0096362889
0.13835853
-0.009257628
0.14003122
-0.0088980755
0.14165791
-0.0085320669
0.14325858
-0.0082791303
0.14480034
-0.0078280129
0.14643403
-0.0082789208
-0.0067670907
0.075221789
-0.0070851548
0.075326747
-0.0085107846
0.075551111
-0.0097010002
0.075851399
-0.010519798
0.076255644
-0.011322635
0.076780698
-0.01212963
0.077429599
-0.012882707
0.078202275
-0.013573414
0.079097035
-0.014209821
0.080110731
-0.014794043
0.08123912
-0.015325254
0.082476904
-0.015803177
0.083817901
-0.016228115
0.08525533
-0.016600531
0.086782014
-0.016920962
0.088390501
-0.017190067
0.090073173
-0.01740867
0.091822351
-0.017577772
0.093630391
-0.01769856
0.095489755
-0.017772396
0.097393078
-0.017800828
0.099333217
-0.017785576
0.1013033
-0.01772853
0.10329677
-0.017631722
0.10530741
-0.017497322
0.10732934
-0.0173276
0.1093571
-0.017124917
0.11138559
-0.016891686
0.11341011
-0.016630358
0.11542639
-0.016343387
0.11743051
-0.016033214
0.11941898
-0.015702248
0.12138868
-0.015352844
0.12333686
-0.014987294
0.12526113
-0.014607824
0.12715946
-0.014216589
0.12903017
-0.013815685
0.13087191
-0.013407158
0.13268366
-0.012993057
0.13446478
-0.012575428
0.13621498
-0.012156568
0.13793434
-0.011738593
0.1396236
-0.011325553
0.14128361
-0.01091764
0.14291777
-0.010532228
0.14452558
-0.010139879
0.14612517
-0.0098787224
0.14768883
-0.0093916734
0.14934603
-0.0099361217
-0.0082551736
0.098025326
-0.006158159
0.097258051
-0.0077435098
0.096581758
-0.0090247076
0.09599732
-0.0099353595
0.095540863
-0.010866179
0.095223621
-0.011812388
0.095050961
-0.012710047
0.095026886
-0.013549338
0.095150927
-0.014333863
0.095419821
-0.015062937
0.095829206
-0.015734639
0.096373674
-0.016347644
0.097046738
-0.01690118
0.097841168
-0.017394961
0.098749278
-0.017829072
0.099763097
-0.018203887
0.10087449
-0.018520062
0.10207527
-0.018778554
0.10335731
-0.018980603
0.10471263
-0.01912771
0.10613343
-0.01922163
0.1076122
-0.019264346
0.10914173
-0.019258057
0.11071515
-0.019205147
0.11232599
-0.019108161
0.11396817
-0.018969775
0.11563601
-0.01879276
0.11732428
-0.01857996
0.11902818
-0.018334254
0.12074332
-0.018058525
0.12246574
-0.017755643
0.12419192
-0.017428428
0.12591873
-0.017079646
0.12764342
-0.016711983
0.12936364
-0.016328048
0.13107742
-0.015930366
0.13278312
-0.015521393
0.1344795
-0.015103532
0.13616563
-0.014679185
0.13784095
-0.014250756
0.13950533
-0.01382094
0.14115896
-0.013392229
0.14280273
-0.012969323
0.14443765
-0.012552561
0.14606711
-0.012161687
0.14769117
-0.011763938
0.14932606
-0.01151361
0.15094969
-0.011015307
0.15266899
-0.011655419
-0.0098645008
0.11918909
-0.0043345163
0.11749649
-0.0060509071
0.11585697
-0.0073851909
0.11435445
-0.0084328321
0.11302515
-0.0095368788
0.11186658
-0.010653826
0.11088423
-0.01172769
0.11008435
-0.012749466
0.10946638
-0.013715887
0.10902571
-0.014622263
0.10875652
-0.015465456
0.10865217
-0.01624329
0.10870505
-0.016954059
0.10890685
-0.017596762
0.10924885
-0.018171072
0.1097221
-0.018677143
0.11031759
-0.019115547
0.11102629
-0.019487261
0.11183934
-0.019793648
0.11274804
-0.020036414
0.113744
-0.020217585
0.11481913
-0.020339472
0.11596572
-0.020404649
0.11717648
-0.020415906
0.11844454
-0.020376227
0.11976351
-0.020288745
0.12112746
-0.020156706
0.12253093
-0.019983429
0.12396895
-0.019772272
0.12543702
-0.0195266
0.12693113
-0.019249744
0.12844769
-0.018944989
0.12998358
-0.018615543
0.13153612
-0.018264523
0.13310303
-0.017894953
0.13468242
-0.017509758
0.13627281
-0.017111785
0.1378731
-0.016703816
0.13948254
-0.016288631
0.1411008
-0.015869014
0.14272794
-0.015448077
0.14436442
-0.015028707
0.14601136
-0.014616261
0.14767006
-0.014211265
0.14934402
-0.013835652
0.15103398
-0.013453893
0.15275431
-0.013233942
0.15448882
-0.012749815
0.15632174
-0.013488338
-0.01164642
0.13689606
-0.001755548
0.1343781
-0.0035329484
0.13181953
-0.0048266248
0.12946247
-0.0060757689
0.12733412
-0.0074085256
0.12541585
-0.0087355576
0.12371049
-0.010022336
0.12222314
-0.011262115
0.12095225
-0.01244499
0.11989203
-0.013562046
0.11903499
-0.014608415
0.11837277
-0.015581076
0.11789639
-0.016477677
0.11759632
-0.017296686
0.11746268
-0.018037434
0.11748547
-0.018699931
0.11765466
-0.019284744
0.11796035
-0.019792949
0.1183928
-0.020226095
0.11894255
-0.020586163
0.11960048
-0.020875516
0.12035787
-0.021096861
0.12120643
-0.021253211
0.12213836
-0.021347834
0.12314635
-0.021384217
0.12422362
-0.021366019
0.12536393
-0.021297019
0.12656158
-0.02118108
0.12781141
-0.021022101
0.12910879
-0.02082398
0.13044963
-0.020590577
0.13183032
-0.020325687
0.13324779
-0.020033012
0.13469942
-0.019716148
0.13618304
-0.019378578
0.13769695
-0.019023669
0.13923986
-0.018654695
0.1408109
-0.018274852
0.1424096
-0.017887333
0.14403592
-0.017495332
0.14569025
-0.017102403
0.14737339
-0.016711854
0.14908684
-0.016329709
0.1508323
-0.015956724
0.1526135
-0.015616855
0.15443195
-0.015272339
0.1563003
-0.015102291
0.15820835
-0.014657869
0.16021809
-0.015498074
-0.01366097
0.15005218
0.00077995144
0.14676323
-0.00024400571
0.1434659
-0.0015292898
0.14041812
-0.0030279939
0.13762323
-0.0046136362
0.13507498
-0.006187298
0.13277518
-0.0077225418
0.13072394
-0.0092108709
0.1289188
-0.010639856
0.12735458
-0.011997822
0.12602344
-0.013277275
0.12491598
-0.014473614
0.12402202
-0.015583717
0.1233309
-0.016605568
0.12283164
-0.017538176
0.12251313
-0.018381421
0.1223643
-0.019135909
0.12237422
-0.019802875
0.12253225
-0.020384125
0.12282807
-0.020881976
0.12325175
-0.0212992
0.12379386
-0.021638972
0.12444547
-0.02190482
0.1251982
-0.022100565
0.12604426
-0.022230276
0.12697645
-0.022298209
0.12798819
-0.022308757
0.12907351
-0.022266399
0.13022705
-0.022175649
0.13144408
-0.022041008
0.13272044
-0.021866932
0.13405254
-0.021657789
0.13543736
-0.021417837
0.13687242
-0.021151208
0.13835574
-0.020861894
0.13988583
-0.020553757
0.14146167
-0.02023054
0.14308272
-0.019895897
0.14474885
-0.019553471
0.14646042
-0.019206899
0.14821823
-0.018860212
0.15002354
-0.018517161
0.15187829
-0.018184464
0.15378468
-0.017863114
0.15574684
-0.017579009
0.15776694
-0.017292445
0.15985653
-0.017191885
0.16200986
-0.016811196
0.16427168
-0.017759891
-0.015973119
0.18890891
0.005382048
-0.19351101
0.18509888
0.0035660269
0.18170685
0.0018627393
0.17856173
0.00011712613
0.17562617
-0.0016780829
0.17287515
-0.0034362788
0.17029044
-0.0051378324
0.16786305
-0.006783478
0.16558909
-0.0083658986
0.16346642
-0.0098751447
0.16149316
-0.011304018
0.15966721
-0.012647667
0.15798593
-0.013902437
0.15644603
-0.015065663
0.15504358
-0.016135725
0.15377411
-0.017111957
0.15263271
-0.017994505
0.15161407
-0.018784235
0.15071261
-0.019482673
0.14992257
-0.020091935
0.14923805
-0.020614672
0.14865308
-0.021054006
0.14816173
-0.021413472
0.14775812
-0.021696956
0.14743648
-0.021908636
0.14719119
-0.022052919
0.14701682
-0.022134387
0.14690815
-0.022157731
0.14686021
-0.022127703
0.14686826
-0.022049059
0.14692785
-0.021926522
0.1470348
-0.021764737
0.14718521
-0.021568246
0.14737546
-0.021341462
0.14760224
-0.021088667
0.14786248
-0.020814005
0.14815345
-0.020521506
0.14847266
-0.02021511
0.14881794
-0.019898751
0.14918741
-0.019576364
0.1495795
-0.019252307
0.14999299
-0.018930647
0.1504271
-0.018618575
0.15088131
-0.018317327
0.15135624
-0.018053941
0.15185175
-0.017787948
0.1523723
-0.017712442
0.1529136
-0.017352496
0.15349864
-0.018344923
-0.01656596
0.21685779
0.0087803743
-0.22025612
0.21338391
0.0070399093
0.2101711
0.0050755466
0.2070658
0.0032224341
0.20401921
0.0013685076
0.20106229
-0.00047936378
0.19821193
-0.0022874761
0.19547265
-0.004044193
0.19285034
-0.0057435855
0.19035183
-0.0073766352
0.18798232
-0.0089345114
0.18574521
-0.010410561
0.1836425
-0.011799726
0.18167489
-0.013098048
0.17984183
-0.014302669
0.17814171
-0.015411834
0.17657198
-0.01642477
0.17512931
-0.017341573
0.17380977
-0.018163132
0.1726089
-0.018891059
0.17152184
-0.019527617
0.17054348
-0.020075641
0.16966848
-0.020538473
0.16889141
-0.02091989
0.16820681
-0.021224035
0.16760923
-0.021455343
0.16709332
-0.021618476
0.16665385
-0.021718257
0.16628575
-0.021759606
0.16598417
-0.021747481
0.16574448
-0.021686832
0.1655623
-0.02158255
0.16543349
-0.021439438
0.16535421
-0.021262186
0.1653209
-0.021055353
0.16533026
-0.020823369
0.16537931
-0.020570555
0.16546535
-0.020301146
0.16558597
-0.020019377
0.1657391
-0.019729494
0.16592298
-0.019436187
0.16613622
-0.01914388
0.1663778
-0.018860158
0.16664724
-0.018586763
0.16694437
-0.01835108
0.16727045
-0.018114022
0.16762468
-0.018066675
0.16801537
-0.017743188
0.1684245
-0.018754046
-0.017040006
0.24376671
0.011504323
-0.24649066
0.24091627
0.0098903423
0.23806307
0.0079287521
0.23521611
0.0060693912
0.23233831
0.0042463053
0.2294505
0.0024084509
0.22658389
0.00057913568
0.22375778
-0.001218081
0.22098808
-0.0029738908
0.21829074
-0.0046792939
0.21567961
-0.0063233817
0.21316569
-0.007896642
0.21075759
-0.0093916298
0.20846188
-0.010802332
0.20628318
-0.012123966
0.20422437
-0.013353026
0.20228681
-0.014487211
0.20047054
-0.015525304
0.19877448
-0.016467068
0.19719659
-0.01731317
0.19573406
-0.018065087
0.19438344
-0.018725022
0.19314078
-0.019295816
0.19200176
-0.019780868
0.19096177
-0.020184049
0.19001605
-0.02050962
0.18915973
-0.020762154
0.18838793
-0.020946456
0.18769582
-0.021067494
0.18707866
-0.021130328
0.18653188
-0.021140053
0.18605108
-0.021101745
0.18563206
-0.021020423
0.18527089
-0.020901012
0.18496387
-0.020748329
0.18470757
-0.020567076
0.18449887
-0.020361857
0.18433493
-0.020137201
0.1842132
-0.019897647
0.18413147
-0.019647764
0.18408786
-0.019392571
0.18408087
-0.01913689
0.18410931
-0.018888607
0.18417279
-0.018650241
0.1842704
-0.018448684
0.18440484
-0.018248468
0.18456974
-0.018231568
0.18478697
-0.017960418
0.18499264
-0.018959718
-0.0173728
0.26927447
0.013537271
-0.27130741
0.26710643
0.012058382
0.26476467
0.010270509
0.26232545
0.0085086121
0.2597967
0.0067750503
0.25718861
0.0050165406
0.2545273
0.0032404478
0.25183694
0.0014722809
0.24913753
-0.00027447682
0.24644886
-0.0019906328
0.24379025
-0.0036647637
0.24117881
-0.0052852024
0.23862927
-0.0068420954
0.23615413
-0.008327192
0.23376368
-0.0097335161
0.23146608
-0.011055427
0.22926752
-0.012288645
0.22717238
-0.013430167
0.22518347
-0.014478162
0.22330219
-0.015431889
0.22152871
-0.016291605
0.21986216
-0.017058471
0.2183008
-0.017734454
0.21684216
-0.018322232
0.21548321
-0.018825098
0.21422046
-0.019246865
0.21305008
-0.019591773
0.21196802
-0.0198644
0.21097011
-0.020069582
0.2100521
-0.020212326
0.2092098
-0.020297744
0.20843904
-0.020330993
0.20773584
-0.020317219
0.20709635
-0.020261519
0.20651693
-0.020168916
0.2059942
-0.020044347
0.20552502
-0.019892672
0.20510652
-0.0197187
0.20473614
-0.019527267
0.20441164
-0.019323263
0.20413109
-0.019112028
0.20389301
-0.018898808
0.20369612
-0.018691719
0.20354013
-0.018494246
0.20342355
-0.018332109
0.20335031
-0.018175226
0.20330922
-0.018190477
0.2033335
-0.017984702
0.20331796
-0.018944173
-0.017542159
0.29298522
0.014868409
-0.29431636
0.29150599
0.013537621
0.2897835
0.011992997
0.28788487
0.010407242
0.28584496
0.0088149565
0.28367459
0.0071869078
0.28139218
0.0055228645
0.27902095
0.0038435042
0.27658223
0.0021642505
0.27409616
0.00049543652
0.27158295
-0.001151553
0.26906232
-0.002764575
0.2665526
-0.0043323747
0.26407038
-0.0058449696
0.26163039
-0.0072935314
0.25924541
-0.0086704443
0.25692619
-0.009969426
0.25468155
-0.011185529
0.25251848
-0.012315087
0.25044224
-0.013355651
0.24845656
-0.014305926
0.24656377
-0.01516568
0.24476497
-0.015935653
0.2430602
-0.016617461
0.24144859
-0.017213492
0.23992853
-0.017726804
0.23849778
-0.018161026
0.23715364
-0.018520256
0.23589302
-0.018808967
0.23471261
-0.019031915
0.23360893
-0.019194057
0.23257841
-0.01930048
0.23161753
-0.019356335
0.2307228
-0.019366788
0.22989087
-0.019336988
0.22911856
-0.01927204
0.22840291
-0.019177016
0.22774118
-0.019056968
0.22713091
-0.018917003
0.22656997
-0.018762319
0.22605651
-0.018598566
0.22558912
-0.018431417
0.22516656
-0.018269159
0.22478867
-0.018116362
0.22445363
-0.017997069
0.22416619
-0.017887781
0.2239115
-0.017935795
0.22373114
-0.017804334