/*--------------------------------*- C++ -*----------------------------------*\
  =========                 |
  \\      /  F ield         | OpenFOAM: The Open Source CFD Toolbox
   \\    /   O peration     | Website:  https://openfoam.org
    \\  /    A nd           | Version:  6
     \\/     M anipulation  |
\*---------------------------------------------------------------------------*/
FoamFile
{
    version     2.0;
    format      ascii;
    class       volScalarField;
    location    "163";
    object      pPrime2Mean;
}
// * * * * * * * * * * * * * * * * * * * * * * * * * * * * * * * * * * * * * //

dimensions      [0 4 -4 0 0 0 0];

internalField   nonuniform List<scalar> 
9200
(
0.068902717
0.057109156
0.047124817
0.040625694
0.035438868
0.03106778
0.027296484
0.024014896
0.021149748
0.018642353
0.016444094
0.014514211
0.012818282
0.011327059
0.010015573
0.0088624757
0.0078496982
0.0069621777
0.0061888096
0.0055152598
0.055858836
0.046207826
0.038137494
0.032833881
0.028579726
0.024984325
0.021878001
0.019174231
0.016814739
0.014752529
0.012948346
0.011368972
0.0099860579
0.0087752327
0.0077154199
0.006788349
0.0059782926
0.0052717091
0.0046560448
0.0041134254
0.043628483
0.036038061
0.029765116
0.02558724
0.022209473
0.019341142
0.016856891
0.01469297
0.012805829
0.011159815
0.0097245575
0.0084737829
0.0073845476
0.0064366685
0.0056123199
0.0048957653
0.0042731988
0.0037324508
0.0032613318
0.0028438342
0.032551109
0.026874164
0.02222787
0.019073806
0.016492079
0.014282987
0.012362292
0.010687603
0.0092292493
0.0079620017
0.0068633816
0.0059130695
0.0050926116
0.0043852618
0.0037759123
0.0032510662
0.0027988002
0.0024085625
0.0020699478
0.0017708347
0.022932573
0.018962709
0.015728509
0.013468639
0.011581851
0.0099477422
0.0085188001
0.0072718624
0.006189637
0.0052558134
0.0044543704
0.0037696772
0.0031867706
0.0026916518
0.0022715443
0.0019150647
0.001612269
0.0013545293
0.0011338579
0.00094212982
0.01504243
0.012518559
0.010446869
0.0089282997
0.0076178186
0.0064606801
0.005440535
0.0045505249
0.0037835308
0.0031301486
0.0025790879
0.0021180642
0.0017346774
0.0014171216
0.0011546776
0.00093797617
0.00075904909
0.00061122208
0.00048883033
0.00038687014
0.0091060557
0.0077197131
0.0065358714
0.0055874412
0.0047206912
0.0039315102
0.0032280383
0.0026160132
0.0020957098
0.001662321
0.0013075103
0.0010211087
0.00079251803
0.00061169678
0.00046973974
0.00035911609
0.00027365596
0.00020841677
0.0001596066
0.00012432521
0.0052988869
0.0047037527
0.0041186732
0.0035561487
0.0029901562
0.0024514342
0.0019650081
0.001544907
0.0011957057
0.00091485872
0.00069536102
0.00052813437
0.00040377362
0.00031362103
0.000250286
0.00020777384
0.00018137757
0.00016750493
0.00016366551
0.00016818573
0.0037415315
0.0035639919
0.0032835694
0.0029144271
0.0024998192
0.0020889277
0.0017150201
0.00139557
0.0011362552
0.00093467927
0.00078388621
0.00067515208
0.00059980556
0.00055020083
0.0005200775
0.00050455075
0.00049992033
0.00050346672
0.00051340056
0.00052855559
0.0044945001
0.0043462957
0.0040784828
0.003706881
0.0032921581
0.0028845227
0.0025159967
0.0022024939
0.0019478626
0.0017481938
0.0015956898
0.0014814711
0.0013971982
0.0013358
0.0012916464
0.0012604222
0.0012388919
0.0012246785
0.0012161029
0.0012118904
0.16372924
0.13769631
0.11379699
0.098685577
0.086687727
0.076617945
0.067948871
0.060395988
0.053783164
0.047971967
0.042849301
0.038321533
0.034310234
0.030749106
0.027581696
0.024759652
0.022241365
0.019989575
0.017969301
0.016160313
0.16164239
0.13580785
0.11218245
0.097244765
0.085397342
0.075456031
0.066898135
0.059443825
0.052918993
0.047186543
0.042134451
0.03766999
0.03371551
0.030205395
0.027083793
0.024302905
0.021821666
0.019603362
0.017612816
0.015830502
0.15738588
0.13206901
0.10903546
0.094469513
0.082930061
0.073249174
0.064915407
0.05765771
0.051306551
0.045728137
0.040813066
0.036470747
0.032625322
0.029212701
0.026178352
0.023475645
0.021064628
0.018909671
0.016975719
0.015243619
0.1510342
0.12657066
0.10444695
0.090445996
0.079363916
0.07006804
0.062065399
0.055097335
0.04900118
0.043648294
0.03893338
0.034769183
0.031082609
0.027811898
0.024904512
0.022315534
0.020006568
0.017943556
0.016092143
0.014432978
0.14276087
0.11946888
0.098549882
0.085293127
0.074805602
0.066008853
0.058435514
0.051842544
0.046076159
0.04101453
0.036557822
0.032623219
0.029141292
0.026053353
0.023309464
0.020866907
0.01868917
0.016744133
0.014999107
0.013434279
0.13280168
0.11097034
0.091516644
0.079162821
0.06939048
0.061192896
0.054134924
0.047991927
0.042620775
0.037907901
0.033760131
0.030100062
0.026862739
0.023993212
0.021444689
0.019177077
0.017156002
0.015351461
0.013733517
0.012282458
0.12144289
0.1013229
0.083551273
0.072233209
0.063276466
0.05576106
0.049289738
0.043658558
0.038736564
0.034419685
0.030622417
0.027273626
0.02431355
0.021691585
0.019364594
0.017295521
0.015452383
0.013807307
0.012333912
0.011013825
0.1090108
0.090806746
0.074882879
0.064703141
0.056639134
0.049869399
0.044039047
0.038966559
0.034534363
0.030648879
0.027233112
0.024222919
0.021564363
0.01921174
0.017126056
0.015273737
0.013625566
0.012155924
0.010842454
0.0096693615
0.095859956
0.079724034
0.065757395
0.056784963
0.049665284
0.04368346
0.038529927
0.034046654
0.030130368
0.026698754
0.023683991
0.021029511
0.018687718
0.016618284
0.014786799
0.013163623
0.011722827
0.010441555
0.0093020381
0.0082911271
0.082360353
0.068390407
0.056428844
0.048695319
0.042543996
0.037369862
0.032909704
0.029029323
0.025640305
0.0226721
0.020066486
0.017774825
0.015756174
0.013975851
0.012404322
0.011016285
0.0097899515
0.0087069382
0.007755607
0.0069233068
0.014251773
0.012348906
0.010735308
0.0093342894
0.0081373203
0.0071119313
0.0062299564
0.0054672379
0.004804138
0.0042247113
0.003716045
0.003267793
0.0028716471
0.0025208475
0.002209816
0.0019338888
0.0016891128
0.0014720908
0.0012798691
0.0011098529
0.00095974248
0.00082748367
0.00071123025
0.00060931408
0.00052022226
0.00044257928
0.00037513284
0.00031674254
0.00026637073
0.00022307467
0.00018600001
0.0001543747
0.00012750364
0.00010476336
8.5597146e-05
6.9510061e-05
5.6064355e-05
4.4874547e-05
3.5603411e-05
2.7956451e-05
2.16806e-05
1.6552531e-05
1.2395245e-05
9.0229626e-06
6.3650773e-06
4.1725424e-06
2.6618605e-06
1.2196257e-06
1.6157435e-06
2.6404026e-06
0.013974966
0.0121354
0.010568094
0.009202642
0.008034877
0.0070330585
0.0061693063
0.0054203796
0.004767649
0.0041959701
0.0036930995
0.003249242
0.0028564968
0.0025083829
0.0021995117
0.0019253483
0.0016820274
0.0014662138
0.001274999
0.0011058228
0.00095641283
0.00082473749
0.00070896919
0.00060745556
0.00051869704
0.00044132946
0.00037411014
0.00031590683
0.00026568872
0.00022251886
0.0001855477
0.00015400723
0.00012720565
0.00010452225
8.5402587e-05
6.9353575e-05
5.5938992e-05
4.4774608e-05
3.5524224e-05
2.7894189e-05
2.1632128e-05
1.6515294e-05
1.2367162e-05
9.0023814e-06
6.3506432e-06
4.1632172e-06
2.6569763e-06
1.2167769e-06
1.6058525e-06
2.588789e-06
0.01348769
0.011762068
0.010278572
0.0089783773
0.0078630839
0.0069028596
0.0060707015
0.0053451979
0.0047097183
0.0041507053
0.0036571737
0.0032203185
0.0028329482
0.0024890564
0.0021835684
0.0019121591
0.0016711052
0.0014571701
0.001267517
0.0010996405
0.00095131163
0.00082053419
0.00070551021
0.00060461234
0.00051636218
0.00043941351
0.00037253885
0.00031461878
0.00026463328
0.00022165438
0.00018484001
0.00015342831
0.00012673259
0.00010413627
8.5088318e-05
6.9098411e-05
5.5732575e-05
4.4608413e-05
3.5391222e-05
2.7788581e-05
2.1549126e-05
1.6450951e-05
1.2318242e-05
8.9662702e-06
6.3252182e-06
4.1467542e-06
2.6484947e-06
1.2118042e-06
1.5860999e-06
2.4879891e-06
0.012819792
0.011251873
0.0098874188
0.0086814901
0.0076397708
0.0067360476
0.0059458019
0.0052506691
0.0046371206
0.0040940355
0.0036122141
0.003184149
0.0028035445
0.0024649815
0.0021637683
0.0018958359
0.0016576367
0.0014460583
0.0012583558
0.0010920946
0.00094510258
0.00081542983
0.00070131702
0.00060116929
0.00051353564
0.00043709293
0.0003706331
0.000313053
0.00026334613
0.00022059576
0.00018396906
0.00015271175
0.00012614328
0.0001036521
8.4691196e-05
6.8773515e-05
5.5467708e-05
4.4393508e-05
3.5217935e-05
2.764998e-05
2.1439444e-05
1.6365391e-05
1.2252839e-05
8.9177858e-06
6.2909944e-06
4.1246348e-06
2.6371277e-06
1.2053364e-06
1.5564907e-06
2.3431909e-06
0.012000771
0.010628284
0.0094159737
0.0083323897
0.0073828601
0.0065468371
0.0058053015
0.0051446869
0.0045556691
0.0040303359
0.0035616575
0.0031435543
0.0027706761
0.0024382237
0.0021419135
0.0018779547
0.0016429966
0.0014340717
0.0012485451
0.0010840684
0.0009385385
0.00081006222
0.00069692684
0.00059757638
0.0005105923
0.00043467843
0.0003686491
0.00031141969
0.00026199891
0.00021948249
0.00018304766
0.00015194832
0.00012551042
0.00010312764
8.4257105e-05
6.8415047e-05
5.5172722e-05
4.4151949e-05
3.5021415e-05
2.7491467e-05
2.1313025e-05
1.6266084e-05
1.2176476e-05
8.8609286e-06
6.2507441e-06
4.0987236e-06
2.6237443e-06
1.1981752e-06
1.5173244e-06
2.1620056e-06
0.011055995
0.0099127192
0.0088835547
0.0079477524
0.0071054962
0.0063443646
0.0056550845
0.0050311389
0.0044681871
0.0039618882
0.003507517
0.0031004006
0.0027360947
0.0024104167
0.0021195096
0.0018598847
0.0016284149
0.0014223029
0.0012390456
0.0010763988
0.00093234269
0.00080505167
0.00069286802
0.00059428075
0.00050790822
0.00043248445
0.00036684831
0.00030993507
0.00026076949
0.00021846008
0.00018219426
0.00015123392
0.00012491126
0.00010262479
8.3835354e-05
6.8062067e-05
5.4878371e-05
4.3907792e-05
3.4820341e-05
2.7327426e-05
2.1180837e-05
1.6161292e-05
1.2095274e-05
8.8001356e-06
6.2075274e-06
4.0710647e-06
2.6092533e-06
1.1911748e-06
1.4690879e-06
1.953672e-06
0.010010275
0.0091266419
0.0083074029
0.0075377068
0.0068120267
0.006129502
0.0054944735
0.004909268
0.0043745711
0.0038893133
0.0034509405
0.0030561491
0.0027014045
0.0023831834
0.0020981163
0.0018430765
0.00161521
0.0014119296
0.0012308955
0.0010699909
0.00092729698
0.00080106812
0.00068971046
0.00059176402
0.00050588794
0.00043084876
0.00036551116
0.00030883076
0.00025984812
0.00021768405
0.00018153533
0.00015067088
0.00012442816
0.00010220949
8.3478472e-05
6.7756172e-05
5.4617397e-05
4.3686634e-05
3.4634576e-05
2.7173137e-05
2.105451e-05
1.6059753e-05
1.2015674e-05
8.7400412e-06
6.1645054e-06
4.0437418e-06
2.594534e-06
1.1851586e-06
1.4124456e-06
1.7281905e-06
0.0088944238
0.0082945615
0.007700753
0.0071008681
0.0064934413
0.0058928196
0.0053164965
0.004774943
0.0042731264
0.0038126612
0.0033930213
0.0030124184
0.0026684263
0.0023583537
0.002079463
0.0018291031
0.0016047773
0.0014041681
0.0012251408
0.0010657354
0.00092415354
0.00079874229
0.00068797979
0.0005904618
0.00050489064
0.00043006612
0.00036487844
0.0003083025
0.00025939325
0.00021728206
0.00018117324
0.00015034094
0.00012412605
0.00010193308
8.3226821e-05
6.7528924e-05
5.4414327e-05
4.3507413e-05
3.4478633e-05
2.7039624e-05
2.0942331e-05
1.5967612e-05
1.1942144e-05
8.6838167e-06
6.1237726e-06
4.0181055e-06
2.5799858e-06
1.1806561e-06
1.3481615e-06
1.4956107e-06
0.0077388197
0.0074272948
0.0070499842
0.0066057305
0.0061154628
0.005606355
0.0051008676
0.0046137331
0.0041534274
0.0037242626
0.0033279886
0.0029647414
0.0026336111
0.0023330519
0.0020611859
0.0018160028
0.00159548
0.0013976506
0.0012206401
0.0010626827
0.00092212537
0.00079742519
0.0006871435
0.00058993931
0.00050456295
0.00042985056
0.00036471958
0.000308165
0.00025925639
0.00021713541
0.00018101331
0.0001501687
0.00012394505
0.00010174809
8.3042911e-05
6.7350822e-05
5.4246071e-05
4.3352178e-05
3.4338679e-05
2.6916348e-05
2.0836384e-05
1.587903e-05
1.1870465e-05
8.6284963e-06
6.0832635e-06
3.9928046e-06
2.5644816e-06
1.1773341e-06
1.2773153e-06
1.2662404e-06
0.0065883685
0.0064983736
0.0062939078
0.0059954039
0.0056345037
0.0052370454
0.004821965
0.0044052163
0.0039987723
0.0036103357
0.0032445023
0.0029038206
0.0025893475
0.0023010549
0.0020382047
0.0017996353
0.0015839513
0.0013896469
0.001215187
0.0010590565
0.00091978909
0.00079598152
0.00068630052
0.00058948497
0.00050434579
0.00042976503
0.0003646946
0.00030815513
0.00025923491
0.00021708883
0.00018093722
0.00015006454
0.00012381772
0.00010160418
8.2889495e-05
6.7194631e-05
5.4092998e-05
4.3207031e-05
3.4205105e-05
2.6796864e-05
2.0732525e-05
1.579148e-05
1.1799219e-05
8.5733329e-06
6.042654e-06
3.9675602e-06
2.5478508e-06
1.1748735e-06
1.2025965e-06
1.0508495e-06
0.0053359248
0.0053757603
0.0053125075
0.0051533648
0.0049290331
0.0046583326
0.0043541558
0.0040307028
0.0037010958
0.0033749983
0.0030591034
0.0027580543
0.0024748484
0.0022111332
0.0019675606
0.0017440985
0.0015402541
0.0013552346
0.0011880628
0.001037659
0.00090289596
0.00078263447
0.00067574723
0.00058113409
0.00049773207
0.00042452222
0.0003605343
0.00030485027
0.00025660669
0.00021499651
0.00017927001
0.00014873518
0.00012275744
0.00010075873
8.2215941e-05
6.6658955e-05
5.3668138e-05
4.28714e-05
3.3941408e-05
2.6591239e-05
2.0573761e-05
1.5670735e-05
1.170894e-05
8.5086446e-06
5.9968973e-06
3.941391e-06
2.5282328e-06
1.1736655e-06
1.1251461e-06
8.614021e-07
0.0041351339
0.0042451848
0.0042696029
0.0042095384
0.0040898616
0.003924295
0.0037203595
0.0034889602
0.0032418181
0.0029881697
0.0027349201
0.0024873985
0.0022495429
0.0020240143
0.0018124531
0.0016157421
0.0014342051
0.0012677582
0.0011160304
0.00097845447
0.00085433372
0.00074288974
0.00064329694
0.00055470756
0.00047626994
0.00040714222
0.00034650268
0.00029355787
0.0002475489
0.00020775629
0.00017350364
0.00014416019
0.0001191424
9.7914613e-05
7.998887e-05
6.4924063e-05
5.2324442e-05
4.1837517e-05
3.3151945e-05
2.5993924e-05
2.0126751e-05
1.5341225e-05
1.1469952e-05
8.3413601e-06
5.8811057e-06
3.8725094e-06
2.4785934e-06
1.1626914e-06
1.026996e-06
6.8170122e-07
0.0031028647
0.0032584032
0.0033440823
0.0033603388
0.0033227322
0.0032412881
0.0031205545
0.0029682629
0.0027940478
0.0026061499
0.0024111225
0.0022144009
0.0020203679
0.0018323176
0.0016525956
0.0014827936
0.0013239087
0.0011764707
0.0010406532
0.00091636379
0.00080331474
0.00070107732
0.00060912335
0.00052685729
0.00045364102
0.00038881328
0.00033170497
0.00028165148
0.00023800254
0.00020013011
0.00016743461
0.00013934964
0.00011534542
9.4931086e-05
7.7655846e-05
6.3109332e-05
5.0921118e-05
4.0759519e-05
3.2330169e-05
2.53732e-05
1.9662964e-05
1.4999882e-05
1.1222629e-05
8.1685128e-06
5.7610421e-06
3.8016119e-06
2.425009e-06
1.1531529e-06
9.2072023e-07
5.1341171e-07
0.0022353974
0.0024140543
0.0025373203
0.0026066249
0.002629221
0.0026117885
0.0025572758
0.0024707057
0.0023592173
0.0022295916
0.0020876043
0.0019383243
0.0017861195
0.001634534
0.0014863162
0.0013435346
0.0012076865
0.001079793
0.00096048795
0.00085009804
0.00074870978
0.00065622381
0.00057239908
0.00049688865
0.00042926859
0.00036906143
0.00031575532
0.00026881977
0.00022771859
0.00019192046
0.00016090756
0.00013418235
0.00011127281
9.1736342e-05
7.5162356e-05
6.1173785e-05
4.9427694e-05
3.9614999e-05
3.14598e-05
2.471738e-05
1.9174129e-05
1.4640882e-05
1.0962975e-05
7.9871789e-06
5.6348959e-06
3.7267984e-06
2.3671066e-06
1.1432509e-06
8.1396804e-07
3.6985099e-07
0.0015377981
0.0017167681
0.0018557693
0.0019558427
0.0020180245
0.0020457186
0.0020406615
0.00200577
0.0019457428
0.0018656405
0.0017701643
0.0016636775
0.0015501603
0.0014330585
0.0013152265
0.0011989657
0.0010860808
0.00097793589
0.00087551626
0.00077948943
0.00069026153
0.00060802606
0.0005328059
0.00046448905
0.00040285877
0.000347619
0.00029841579
0.00025485532
0.00021651914
0.00018297685
0.00015379673
0.00012855432
0.0001068394
8.826127e-05
7.2452778e-05
5.9073016e-05
4.7808988e-05
3.8376303e-05
3.0519277e-05
2.4009791e-05
1.8647474e-05
1.4254523e-05
1.0683742e-05
7.7919185e-06
5.4988447e-06
3.6450154e-06
2.3034319e-06
1.1310524e-06
7.1110595e-07
2.5799229e-07
0.0010035084
0.0011646109
0.0013010076
0.0014123338
0.0014956509
0.0015514573
0.0015802112
0.001583175
0.001562954
0.0015228711
0.0014663871
0.0013969467
0.0013178844
0.0012322702
0.0011428057
0.0010517971
0.00096116278
0.00087245342
0.0007868821
0.00070536293
0.00062855141
0.00055688295
0.00049060843
0.00042982632
0.00037451124
0.00032453902
0.00027970858
0.0002397609
0.00020439553
0.00017328467
0.00014608515
0.00012244854
0.0001020294
8.4491956e-05
6.9515319e-05
5.6797314e-05
4.6057195e-05
3.7037269e-05
2.9503803e-05
2.3246731e-05
1.8080157e-05
1.3838595e-05
1.0383222e-05
7.5812958e-06
5.3518461e-06
3.5550838e-06
2.2337446e-06
1.115175e-06
6.1569149e-07
1.8022416e-07
0.00061520153
0.00074735383
0.00086794482
0.00097521038
0.0010642664
0.0011335115
0.0011821494
0.0012101105
0.0012183375
0.0012085893
0.0011830695
0.0011442129
0.0010945574
0.0010366056
0.00097270272
0.00090496557
0.00083525052
0.00076514129
0.00069595134
0.00062873837
0.00056432622
0.00050332983
0.00044618125
0.00039315515
0.00034439307
0.00029992592
0.00025969446
0.00022356782
0.00019136
0.00016284445
0.00013776681
0.00011585584
9.6832701e-05
8.041867e-05
6.6341319e-05
5.4339389e-05
4.4166428e-05
3.5593305e-05
2.8409895e-05
2.2425609e-05
1.7470271e-05
1.3391677e-05
1.0060356e-05
7.3544149e-06
5.1932931e-06
3.4561874e-06
2.1581938e-06
1.0943755e-06
5.3039694e-07
1.3456242e-07
0.0003505235
0.00044907761
0.00054603895
0.00063877977
0.00072197487
0.00079286271
0.00084967621
0.00089133621
0.00091755626
0.0009288211
0.0009261901
0.00091111067
0.00088528488
0.00085054618
0.00080874552
0.00076166348
0.00071094959
0.00065808504
0.0006043627
0.00055088032
0.00049854413
0.00044807908
0.00040004333
0.0003548451
0.00031276057
0.00027395186
0.00023848445
0.00020634371
0.00017745027
0.00015167404
0.00012884693
0.00010877397
9.1243115e-05
7.6033576e-05
6.292274e-05
5.169182e-05
4.2130283e-05
3.403915e-05
2.7233393e-05
2.1543236e-05
1.681543e-05
1.2912004e-05
9.7138609e-06
7.110288e-06
5.0225696e-06
3.3476453e-06
2.0770886e-06
1.0676855e-06
4.5667671e-07
1.1510903e-07
0.00018605896
0.00025103679
0.0003211444
0.00039347385
0.00046315495
0.00052706246
0.00058290093
0.00062895104
0.00066410887
0.00068792524
0.00070052527
0.00070248371
0.00069471514
0.00067837355
0.0006547541
0.00062520767
0.00059107219
0.00055361933
0.00051401772
0.00047331021
0.0004324018
0.00039205615
0.00035289822
0.00031542163
0.00027999885
0.00024689333
0.00021627247
0.00018822096
0.00016275379
0.00013982887
0.00011935869
0.00010122115
8.5269189e-05
7.1339314e-05
5.9258883e-05
4.8852267e-05
3.9945844e-05
3.2371932e-05
2.5971785e-05
2.059758e-05
1.6114089e-05
1.2398457e-05
9.3429727e-06
6.8484025e-06
4.8394607e-06
3.2292674e-06
1.9910436e-06
1.0347326e-06
3.9487889e-07
1.1351306e-07
9.9676593e-05
0.00013407225
0.00017752547
0.00022727695
0.00027932646
0.00033072596
0.00037908783
0.00042242466
0.00045918874
0.00048833734
0.00050932211
0.00052202637
0.00052669385
0.00052385739
0.00051426501
0.0004988068
0.00047844994
0.00045418376
0.00042697454
0.00039773182
0.00036728531
0.00033637019
0.00030561948
0.00027556198
0.00024662468
0.00021913827
0.00019334486
0.00016940711
0.00014741812
0.00012741158
0.00010937183
9.3243496e-05
7.8940478e-05
6.6354124e-05
5.5360507e-05
4.5826724e-05
3.7616215e-05
3.0593108e-05
2.462568e-05
1.9588877e-05
1.5366374e-05
1.1851183e-05
8.9479081e-06
6.5690605e-06
4.6443926e-06
3.1015255e-06
1.9010033e-06
9.9584394e-07
3.4451519e-07
1.20981e-07
7.1902649e-05
8.0285198e-05
9.9497375e-05
0.00012716958
0.00016027853
0.0001963456
0.00023321177
0.00026893124
0.00030182493
0.00033056083
0.000354183
0.00037209629
0.00038403383
0.0003900172
0.00039030931
0.00038536169
0.00037576117
0.00036218064
0.00034533544
0.00032594597
0.00030470813
0.00028227137
0.00025922315
0.00023607932
0.00021327923
0.00019118486
0.00017008304
0.00015018993
0.00013165708
0.00011457864
9.8999026e-05
8.4920836e-05
7.2312594e-05
6.111612e-05
5.125332e-05
4.2632296e-05
3.5152668e-05
2.8710095e-05
2.3200004e-05
1.8520494e-05
1.4574689e-05
1.1272013e-05
8.5301455e-06
6.2735595e-06
4.4385443e-06
2.9656055e-06
1.8082116e-06
9.520155e-07
3.0457926e-07
1.3018034e-07
8.6471797e-05
7.3947157e-05
7.2516543e-05
8.0285018e-05
9.5141283e-05
0.00011517982
0.00013864649
0.00016384573
0.00018919774
0.00021332424
0.00023509707
0.00025365257
0.00026838939
0.00027895661
0.00028523202
0.00028729143
0.00028537238
0.00027983612
0.0002711308
0.00025975737
0.00024623937
0.00023109759
0.00021483021
0.0001978978
0.00018071291
0.0001636337
0.00014696104
0.00013093844
0.00011575412
0.00010154486
8.840092e-05
7.6371728e-05
6.5471923e-05
5.5687466e-05
4.698155e-05
3.9300139e-05
3.2576992e-05
2.6738078e-05
2.1705364e-05
1.7399905e-05
1.3744396e-05
1.0664904e-05
8.0926951e-06
5.9643256e-06
4.2238906e-06
2.8233461e-06
1.7141087e-06
9.047124e-07
2.7374494e-07
1.3640966e-07
0.00013031477
0.000101846
8.3788216e-05
7.4703402e-05
7.3245346e-05
7.8065527e-05
8.786889e-05
0.00010131476
0.00011706468
0.00013386359
0.00015059377
0.00016630325
0.00018022255
0.00019177297
0.00020056546
0.00020638961
0.00020919489
0.00020906681
0.00020620055
0.00020087396
0.00019342142
0.00018420982
0.00017361747
0.00016201684
0.00014976065
0.00013717175
0.00012453601
0.00011209837
0.00010006115
8.8584545e-05
7.7788671e-05
6.7756744e-05
5.8539124e-05
5.0157798e-05
4.2611068e-05
3.5878185e-05
2.9923768e-05
2.4701845e-05
2.015946e-05
1.6239754e-05
1.2884565e-05
1.0036439e-05
7.6404027e-06
5.6450587e-06
4.0032455e-06
2.6771635e-06
1.6202548e-06
8.5563838e-07
2.5048687e-07
1.3776855e-07
0.0001932484
0.00015327229
0.00012250977
9.9910404e-05
8.4720056e-05
7.6067848e-05
7.3090669e-05
7.4823921e-05
8.0233342e-05
8.8284253e-05
9.7991081e-05
0.00010844872
0.00011885708
0.00012854088
0.00013696213
0.00014372401
0.00014856696
0.00015135856
0.00015207884
0.00015080257
0.00014767999
0.00014291723
0.0001367576
0.00012946457
0.00012130707
0.00011254729
0.00010343113
9.4181199e-05
8.499223e-05
7.6028531e-05
6.7423289e-05
5.9279308e-05
5.1670867e-05
4.4646398e-05
3.8231686e-05
3.2433347e-05
2.7242357e-05
2.2637483e-05
1.8588474e-05
1.5058922e-05
1.2008765e-05
9.3963765e-06
7.1802951e-06
5.320904e-06
3.7803153e-06
2.5299683e-06
1.5282705e-06
8.0650184e-07
2.3314739e-07
1.3447281e-07
0.0002675368
0.00021979641
0.0001798626
0.00014698819
0.00012084497
0.00010093688
8.6762769e-05
7.7700915e-05
7.3024462e-05
7.195556e-05
7.3705467e-05
7.7501709e-05
8.2612605e-05
8.8370664e-05
9.4191734e-05
9.9587918e-05
0.00010417413
0.00010766891
0.00010989035
0.00011074781
0.00011023066
0.000108395
0.00010534946
0.00010124098
9.6241421e-05
9.053542e-05
8.4309965e-05
7.7745866e-05
7.1011116e-05
6.4256179e-05
5.7610977e-05
5.1183414e-05
4.5059183e-05
3.9302592e-05
3.3958173e-05
2.9052827e-05
2.4598284e-05
2.0593701e-05
1.7028241e-05
1.3883522e-05
1.1135853e-05
8.7582308e-06
6.7219828e-06
4.9986942e-06
3.5598243e-06
2.3851681e-06
1.4398757e-06
7.5889668e-07
2.2008406e-07
1.2781831e-07
0.00034743248
0.00029494953
0.00024885179
0.00020861695
0.00017420085
0.00014538045
0.00012193222
0.00010351653
8.9679719e-05
7.9893768e-05
7.3585518e-05
7.0156451e-05
6.9002575e-05
6.9535939e-05
7.1204774e-05
7.3509999e-05
7.6017476e-05
7.8365984e-05
8.0270989e-05
8.1524404e-05
8.1990842e-05
8.1601021e-05
8.0343135e-05
7.825295e-05
7.5403367e-05
7.1894102e-05
6.7842016e-05
6.3372432e-05
5.8611755e-05
5.3681467e-05
4.8693571e-05
4.3747402e-05
3.8927693e-05
3.4303731e-05
2.9929422e-05
2.5844066e-05
2.2073651e-05
1.8632477e-05
1.5524981e-05
1.2747598e-05
1.0290591e-05
8.1397857e-06
6.2780486e-06
4.6872149e-06
3.3476836e-06
2.246737e-06
1.3569918e-06
7.142842e-07
2.0988677e-07
1.1929505e-07
0.00042875792
0.00037388312
0.00032407018
0.00027895791
0.00023867496
0.00020318346
0.00017245647
0.0001463677
0.00012468464
0.00010709609
9.3231612e-05
8.2673515e-05
7.4970323e-05
6.9653501e-05
6.6254879e-05
6.4322644e-05
6.3435168e-05
6.3212305e-05
6.3323817e-05
6.3494658e-05
6.3507152e-05
6.320027e-05
6.2466453e-05
6.1246479e-05
5.9522942e-05
5.7312888e-05
5.4660157e-05
5.1627885e-05
4.8291505e-05
4.4732546e-05
4.1033383e-05
3.7273032e-05
3.3523993e-05
2.9850088e-05
2.6305206e-05
2.2932816e-05
1.9766113e-05
1.6828639e-05
1.4135247e-05
1.1693292e-05
9.5039104e-06
7.5633756e-06
5.864308e-06
4.39742e-06
3.1511615e-06
2.1193408e-06
1.2819005e-06
6.7407896e-07
2.0161892e-07
1.1011875e-07
0.00050854951
0.00045304858
0.00040143924
0.00035347374
0.00030937244
0.0002692133
0.00023309714
0.00020104672
0.00017299471
0.00014880231
0.000128271
0.00011114793
9.7133218e-05
8.589104e-05
7.7062586e-05
7.0279083e-05
6.5174302e-05
6.1396077e-05
5.8616406e-05
5.6539586e-05
5.4908117e-05
5.3506256e-05
5.21613e-05
5.0742796e-05
4.9160001e-05
4.7357964e-05
4.5312632e-05
4.3025418e-05
4.0517592e-05
3.7824819e-05
3.4992107e-05
3.2069353e-05
2.9107602e-05
2.6156068e-05
2.3259929e-05
2.0458825e-05
1.7786003e-05
1.5268008e-05
1.2924797e-05
1.0770196e-05
8.8125825e-06
7.0557555e-06
5.499791e-06
4.1424739e-06
2.9789557e-06
2.0084285e-06
1.2173713e-06
6.3976087e-07
1.9494908e-07
1.0112717e-07
0.00058476769
0.00052991709
0.00047795946
0.000428727
0.00038247619
0.0003393499
0.00029952317
0.00026311388
0.00023016875
0.0002006757
0.00017457025
0.0001517362
0.00013200798
0.00011517663
0.00010099805
8.920206e-05
7.9502042e-05
7.1604675e-05
6.5219444e-05
6.006732e-05
5.5888236e-05
5.2447022e-05
4.9537656e-05
4.698577e-05
4.4649487e-05
4.2418736e-05
4.0213306e-05
3.7979897e-05
3.5688503e-05
3.3328414e-05
3.0904108e-05
2.8431274e-05
2.5933149e-05
2.3437296e-05
2.0972904e-05
1.8568655e-05
1.6251127e-05
1.4043721e-05
1.1966033e-05
1.0033622e-05
8.258078e-06
6.6473733e-06
5.2063e-06
3.937505e-06
2.8410797e-06
1.9202224e-06
1.1667071e-06
6.1296288e-07
1.9012299e-07
9.2850938e-08
0.00065606658
0.00060274541
0.00055148733
0.00050218186
0.00045508624
0.00041037312
0.00036825288
0.00032889698
0.00029242386
0.0002589073
0.0002283794
0.00020082842
0.00017619771
0.00015438775
0.00013526035
0.00011864391
0.00010433967
9.2128786e-05
8.1779834e-05
7.3056479e-05
6.5724752e-05
5.9559649e-05
5.4350776e-05
4.9906813e-05
4.6058695e-05
4.2661483e-05
3.959498e-05
3.6763222e-05
3.4093039e-05
3.1531884e-05
2.9045175e-05
2.661336e-05
2.4228906e-05
2.1893388e-05
1.9614811e-05
1.7405247e-05
1.5278862e-05
1.3250339e-05
1.13337e-05
9.5415081e-06
7.8843859e-06
6.3708665e-06
5.0074014e-06
3.7989604e-06
2.748475e-06
1.8615276e-06
1.1336495e-06
5.9547972e-07
1.8779239e-07
8.5604467e-08
0.00072161365
0.00067038493
0.00062054387
0.00057202272
0.00052505863
0.00047983137
0.00043656041
0.00039544081
0.00035663043
0.00032025562
0.00028641232
0.00025516245
0.00022653094
0.00020050511
0.00017703587
0.00015603985
0.00013740264
0.00012098293
0.00010661769
9.4127841e-05
8.332424e-05
7.4013662e-05
6.6004498e-05
5.9111877e-05
5.3162051e-05
4.7995846e-05
4.347115e-05
3.9464379e-05
3.5871008e-05
3.2605246e-05
2.9599015e-05
2.6800371e-05
2.417157e-05
2.1686904e-05
1.9330495e-05
1.7094138e-05
1.4975327e-05
1.2975498e-05
1.1098558e-05
9.3497115e-06
7.7345741e-06
6.2586023e-06
4.9267108e-06
3.7434532e-06
2.7122711e-06
1.8393019e-06
1.1221188e-06
5.8917756e-07
1.8879079e-07
7.9551804e-08
0.00078094771
0.00073212716
0.000684154
0.00063699399
0.0005908536
0.0005459062
0.00050236384
0.00046042519
0.00042026444
0.0003820354
0.00034587161
0.00031188232
0.00028014873
0.00025072188
0.00022362187
0.00019883782
0.00017632866
0.00015602496
0.00013783163
0.00012163147
0.0001072894
9.4656995e-05
8.3577332e-05
7.3889766e-05
6.5434464e-05
5.8056483e-05
5.1609259e-05
4.5957375e-05
4.0978571e-05
3.6564969e-05
3.2623575e-05
2.907613e-05
2.5858406e-05
2.2919095e-05
2.0218389e-05
1.7726403e-05
1.5421541e-05
1.3288901e-05
1.1318794e-05
9.5054408e-06
7.845873e-06
6.339079e-06
4.985328e-06
3.7859952e-06
2.7426172e-06
1.859937e-06
1.1357738e-06
5.9579647e-07
1.9392429e-07
7.4754607e-08
0.0008338684
0.00078758065
0.00074171465
0.0006962642
0.00065140093
0.00060728473
0.00056411102
0.00052206971
0.0004813361
0.00044207379
0.00040443442
0.00036855389
0.00033454849
0.00030251222
0.00027251486
0.00024460066
0.00021878749
0.00019506681
0.00017340454
0.00015374258
0.00013600121
0.00012008201
0.00010587133
9.3244058e-05
8.2067577e-05
7.2205631e-05
6.3522047e-05
5.5884049e-05
4.9165131e-05
4.3247338e-05
3.8022963e-05
3.3395623e-05
2.9280772e-05
2.5605692e-05
2.2309052e-05
1.934014e-05
1.6657846e-05
1.4229514e-05
1.2029736e-05
1.0039175e-05
8.2434666e-06
6.6322733e-06
5.1984466e-06
3.9376111e-06
2.8470711e-06
1.9282358e-06
1.1773917e-06
6.1665169e-07
2.038021e-07
7.1208622e-08
0.00088034218
0.00083656511
0.00079287926
0.00074930318
0.00070597361
0.0006630341
0.0006206593
0.00057902375
0.00053829461
0.00049863387
0.00046019784
0.000423134
0.00038757746
0.00035364816
0.00032144863
0.00029106188
0.00026254972
0.00023595152
0.00021128368
0.00018853969
0.00016769091
0.0001486879
0.00013146249
0.00011593023
0.00010199333
8.9543789e-05
7.8466729e-05
6.8643621e-05
5.9955393e-05
5.2285224e-05
4.5520977e-05
3.9557157e-05
3.4296409e-05
2.965051e-05
2.5540915e-05
2.1898872e-05
1.8665201e-05
1.5789784e-05
1.3230866e-05
1.0954231e-05
8.9323262e-06
7.1434154e-06
5.5707511e-06
4.2020512e-06
3.0283539e-06
2.0459658e-06
1.2480049e-06
6.522026e-07
2.1867077e-07
6.8862314e-08
0.00092043868
0.0008790382
0.00083747568
0.00079579296
0.00075409389
0.00071250552
0.00067118094
0.00063027665
0.00058994704
0.00055034584
0.00051162566
0.00047393549
0.00043741761
0.00040220525
0.00036842008
0.0003361701
0.00030554742
0.00027662649
0.00024946264
0.00022409114
0.00020052675
0.00017876384
0.00015877707
0.00014052263
0.00012393999
0.00010895405
9.547768e-05
8.3414423e-05
7.2661349e-05
6.3111863e-05
5.4658395e-05
4.7194844e-05
4.0618722e-05
3.4832917e-05
2.9747074e-05
2.527856e-05
2.1353049e-05
1.7904764e-05
1.4876413e-05
1.2218894e-05
9.8908245e-06
7.8579755e-06
6.0926102e-06
4.5730212e-06
3.2824246e-06
2.2106119e-06
1.3461645e-06
7.0169677e-07
2.3831457e-07
6.7628303e-08
0.00095423833
0.00091499208
0.00087539278
0.00083550476
0.00079540219
0.00075519706
0.00071502228
0.00067501639
0.00063531941
0.00059607379
0.00055742394
0.00051951431
0.000482487
0.00044647967
0.00041162331
0.00037804022
0.00034584166
0.0003151259
0.00028597628
0.00025845967
0.00023262523
0.00020850361
0.00018610658
0.00016542724
0.00014644058
0.00012910473
0.00011336247
9.9143233e-05
8.6365358e-05