/*--------------------------------*- C++ -*----------------------------------*\
  =========                 |
  \\      /  F ield         | OpenFOAM: The Open Source CFD Toolbox
   \\    /   O peration     | Website:  https://openfoam.org
    \\  /    A nd           | Version:  6
     \\/     M anipulation  |
\*---------------------------------------------------------------------------*/
FoamFile
{
    version     2.0;
    format      ascii;
    class       volVectorField;
    location    "163";
    object      UMean;
}
// * * * * * * * * * * * * * * * * * * * * * * * * * * * * * * * * * * * * * //

dimensions      [0 1 -1 0 0 0 0];

internalField   nonuniform List<vector> 
9200
(
(0.0018854115 0.00077272556 -6.1434491e-20)
(0.016488838 -0.0040979204 4.8987796e-20)
(0.043271086 -0.0090985984 -4.0268208e-20)
(0.079504697 -0.014027048 -6.3992941e-20)
(0.12327855 -0.018675454 1.9836597e-20)
(0.17331931 -0.022611713 3.4785915e-20)
(0.22851501 -0.025551091 -1.3003986e-20)
(0.28783819 -0.027354456 9.8408952e-21)
(0.35032897 -0.02796934 1.8194714e-20)
(0.41506381 -0.027406454 1.6082727e-21)
(0.48113252 -0.025728421 -2.3312702e-20)
(0.54763017 -0.023038727 2.2389096e-20)
(0.61366088 -0.019470688 -4.3670939e-20)
(0.67835137 -0.015176278 -2.298271e-20)
(0.74087239 -0.010314305 6.4225649e-21)
(0.80046528 -0.0050407146 -2.7420678e-20)
(0.8564866 0.00051425027 2.7564985e-20)
(0.90852915 0.0063913824 2.4494781e-20)
(0.95624135 0.012718459 -2.4931664e-22)
(0.99700413 0.016192402 -1.5716176e-21)
(0.0063459174 -0.0020747297 -1.7697612e-20)
(0.030435789 -0.01119309 4.204246e-20)
(0.067623431 -0.018225197 2.437418e-20)
(0.11477103 -0.023599645 -1.2198804e-19)
(0.16966261 -0.027518752 -1.3335081e-20)
(0.23076453 -0.029786775 7.7839503e-20)
(0.29669612 -0.030323541 -3.7668507e-20)
(0.36615005 -0.029179676 -8.9930679e-21)
(0.43788219 -0.026475691 3.6810629e-20)
(0.51068922 -0.022382738 -4.657173e-20)
(0.58339855 -0.017114793 -3.2893458e-20)
(0.65487636 -0.010918146 7.8124445e-20)
(0.7240487 -0.0040594775 4.1479708e-20)
(0.78993066 0.0031858814 -7.3790215e-20)
(0.85165957 0.01054394 1.587422e-20)
(0.90852639 0.017746723 -3.9881364e-20)
(0.96001412 0.024545963 -1.5149254e-20)
(1.0058936 0.030785318 7.6963122e-20)
(1.046092 0.036063203 3.3135825e-20)
(1.0789007 0.037306172 -8.5717747e-20)
(0.012219123 -0.0048204697 3.7710057e-20)
(0.048117665 -0.017709549 2.2743181e-21)
(0.097480669 -0.026014418 2.280711e-20)
(0.15681511 -0.030915962 1.0290482e-21)
(0.2236113 -0.03311151 -4.2237972e-20)
(0.29605151 -0.032706053 1.9866481e-20)
(0.37245378 -0.029884411 1.3918238e-20)
(0.45120143 -0.024944581 -5.3505368e-20)
(0.53074999 -0.018232639 6.1225833e-20)
(0.60962437 -0.010125195 1.564242e-20)
(0.68643053 -0.001021743 -5.8707179e-20)
(0.75988463 0.0086690337 -1.9870461e-20)
(0.82885109 0.018545781 9.4083591e-21)
(0.89238156 0.028230606 2.5322462e-20)
(0.9497481 0.037382735 -1.2234717e-20)
(1.0004638 0.045707104 3.0015213e-20)
(1.0442926 0.052967871 -2.1847625e-20)
(1.0812763 0.059035006 -7.4971659e-20)
(1.1116097 0.063649686 -2.4527878e-20)
(1.1345051 0.064961511 5.1266263e-20)
(0.01959715 -0.0072138939 2.4964971e-20)
(0.06964069 -0.022949024 5.2757896e-20)
(0.13281073 -0.031425038 2.0693041e-20)
(0.20533609 -0.034697839 1.3936107e-20)
(0.2844333 -0.03404598 1.8407251e-20)
(0.36798615 -0.029944238 -5.042495e-20)
(0.45399812 -0.022905943 -2.7257508e-20)
(0.54054739 -0.013532668 0)
(0.62582257 -0.0024406797 1.5906661e-20)
(0.70814895 0.0097590487 -6.9129404e-21)
(0.78602598 0.022472095 -1.0495417e-19)
(0.858175 0.035140071 -1.6692662e-20)
(0.92358507 0.047262309 7.0032031e-20)
(0.98154711 0.05841468 4.7489709e-22)
(1.0316698 0.068263024 -1.6819879e-21)
(1.0738729 0.076569212 2.341705e-20)
(1.1083608 0.083196991 -5.4327703e-21)
(1.135595 0.088139855 -6.4991266e-20)
(1.1561748 0.091380106 -4.8800307e-20)
(1.1701152 0.091974292 7.2058871e-20)
(0.028501592 -0.0089717625 -3.817359e-21)
(0.094889026 -0.026159946 -4.722706e-21)
(0.17319969 -0.033384818 5.8462393e-20)
(0.2594942 -0.033687526 1.9642802e-20)
(0.35075741 -0.029009049 -3.3974959e-20)
(0.44458726 -0.02026265 1.2482518e-20)
(0.53870031 -0.0083486654 2.8018022e-21)
(0.63092998 0.0057848092 3.610341e-20)
(0.71930014 0.021229405 6.0504887e-21)
(0.80208304 0.037142912 -1.4442036e-20)
(0.87785708 0.052765925 6.4904063e-20)
(0.94555919 0.067445735 -6.1735965e-20)
(1.0045188 0.080658376 -1.4099383e-19)
(1.0544649 0.092022413 -5.9375453e-21)
(1.095504 0.10130236 8.81811e-20)
(1.1280707 0.10840125 0)
(1.1528592 0.11334883 1.0872779e-20)
(1.1707515 0.11630409 -1.6193813e-20)
(1.1827027 0.11745285 -9.2478919e-21)
(1.1892942 0.11640381 2.1756072e-20)
(0.03886367 -0.0097889205 -5.050714e-21)
(0.12349516 -0.026580882 4.4732212e-21)
(0.2178446 -0.030875861 -9.0447909e-21)
(0.31795339 -0.026780035 2.9191485e-20)
(0.42065291 -0.016960634 -3.1002836e-20)
(0.52331344 -0.0028257686 -1.7837854e-20)
(0.62345167 0.014298825 3.8406088e-20)
(0.71878628 0.033106322 4.7703962e-21)
(0.80735016 0.052414668 -2.6626485e-20)
(0.88757181 0.071200282 7.4260955e-20)
(0.95833574 0.0886167 2.1525697e-22)
(1.019016 0.10401514 -8.5603609e-20)
(1.0694728 0.11695592 0)
(1.1100113 0.1272048 4.169945e-20)
(1.1413068 0.1347146 5.757509e-21)
(1.1643093 0.13959471 -8.1361645e-20)
(1.1801375 0.14207648 -2.0572426e-20)
(1.1899827 0.14249091 -1.2974116e-20)
(1.1950037 0.14118022 -1.5388971e-20)
(1.196057 0.13808208 4.2134233e-20)
(0.050511472 -0.0093593745 -1.7315162e-20)
(0.15482467 -0.023499742 -3.3675581e-21)
(0.2655642 -0.023024519 3.0761303e-20)
(0.37894242 -0.013133933 3.7706987e-20)
(0.49176193 0.0027494224 -2.0646295e-20)
(0.60128188 0.022696082 -7.2774407e-20)
(0.70497342 0.044955407 -2.990199e-20)
(0.80063755 0.06789805 8.3315949e-20)
(0.88654483 0.090140046 9.4616339e-21)
(0.96151968 0.11057823 -2.6112379e-20)
(1.024977 0.12840034 1.4180534e-20)
(1.0769095 0.1430881 -4.6022425e-21)
(1.1178257 0.15440296 0)
(1.1486481 0.16235198 2.8590934e-20)
(1.1705872 0.16713885 -8.3115622e-20)
(1.1850091 0.16910682 -3.2956764e-20)
(1.1933138 0.16868363 8.4531611e-20)
(1.1968382 0.16634233 -4.7962553e-21)
(1.1967774 0.16252343 3.6132809e-21)
(1.1940365 0.15734851 2.8406453e-20)
(0.063164198 -0.0074041786 -3.2600902e-20)
(0.18798289 -0.016325594 -8.3852977e-20)
(0.31484478 -0.009198661 1.5077907e-21)
(0.44035913 0.0077259609 7.3051373e-20)
(0.56147359 0.030295284 6.4998617e-20)
(0.67551391 0.056080379 -7.3959815e-20)
(0.78012104 0.082961511 3.2489779e-22)
(0.87342293 0.10908214 9.0445102e-20)
(0.95417789 0.13298334 5.1338563e-20)
(1.0218329 0.15362754 -5.7182669e-20)
(1.076508 0.17038304 -9.7076657e-20)
(1.1189161 0.18299209 -3.3147911e-21)
(1.1502332 0.19151655 4.4120261e-20)
(1.1719401 0.19626503 -6.8263226e-21)
(1.1856612 0.19771173 -1.3243429e-20)
(1.1930198 0.19641784 2.0201437e-20)
(1.1955257 0.19296561 4.5580937e-20)
(1.194502 0.187915 -4.5319214e-20)
(1.191047 0.18174291 -1.0607911e-19)
(1.1859742 0.17466143 2.5724409e-20)
(0.076402694 -0.0037020783 -3.5907336e-20)
(0.22177662 -0.0046642387 -1.7585184e-19)
(0.36381623 0.01091054 8.5891299e-20)
(0.49977492 0.035848913 9.6418459e-20)
(0.62696583 0.065358542 6.001561e-20)
(0.7430131 0.096594232 9.0230369e-21)
(0.84598315 0.12718673 -1.1079888e-19)
(0.93458789 0.15520665 0)
(1.0083005 0.179292 -7.2430647e-20)
(1.0673589 0.19863983 -1.6011582e-20)
(1.1126764 0.21294535 5.7209291e-20)
(1.1456879 0.22231902 1.1412673e-20)
(1.1681591 0.22718394 -4.7460667e-20)
(1.1819929 0.22816442 -5.0888658e-20)
(1.189059 0.22598054 2.5359615e-20)
(1.1910654 0.22136026 4.6677076e-20)
(1.1894781 0.21497668 -5.770964e-20)
(1.1854892 0.20741331 -1.1120585e-19)
(1.1800222 0.19912965 -3.0620809e-21)
(1.1737336 0.19037283 2.7873074e-20)
(0.089652943 0.0018956216 -4.033766e-21)
(0.25471921 0.011668574 9.008255e-20)
(0.41029047 0.037294049 -1.4306669e-20)
(0.55452249 0.070884284 -8.8418034e-20)
(0.68534379 0.1071758 4.7025467e-20)
(0.80093537 0.14306454 5.0397067e-20)
(0.90004639 0.17612038 5.7898027e-21)
(0.98219754 0.20454821 -1.0372667e-19)
(1.0477386 0.22728258 -2.6158974e-21)
(1.0977758 0.24392402 5.2714005e-20)
(1.1340042 0.25461537 6.2267109e-21)
(1.1584884 0.25989992 -2.0599766e-20)
(1.1734358 0.26057269 -7.8580774e-20)
(1.1809957 0.25754119 -6.3878665e-21)
(1.1831107 0.25171128 4.4995053e-20)
(1.1814258 0.24390652 3.8201121e-20)
(1.1772559 0.23482224 2.0271272e-20)
(1.1715979 0.22500917 -5.5055507e-20)
(1.1651752 0.21487147 1.2884541e-20)
(1.1584744 0.20466285 8.4884103e-20)
(-0.0013350272 0.0014592677 -7.8638414e-22)
(-0.0047669637 0.0031932058 1.8363167e-21)
(-0.010802689 0.004090085 2.0259198e-21)
(-0.017647279 0.0044261718 -8.1613279e-22)
(-0.024380827 0.0043747442 -2.5466595e-21)
(-0.030575348 0.0040533904 2.677607e-21)
(-0.035957086 0.003547742 -8.6854194e-21)
(-0.040351863 0.0029195639 -7.486954e-21)
(-0.043666289 0.0022127017 1.3362225e-20)
(-0.045861112 0.001458027 -1.144891e-20)
(-0.046930925 0.00067702479 -2.0446992e-22)
(-0.046891338 -0.00011560805 4.2604999e-21)
(-0.045770469 -0.00091000032 -6.8767643e-22)
(-0.043603136 -0.0016995551 2.5780101e-20)
(-0.040427236 -0.0024795554 2.6613629e-22)
(-0.036283246 -0.0032456835 -4.5704071e-20)
(-0.031216664 -0.0039933872 8.5129147e-21)
(-0.025269741 -0.0047206214 2.6321434e-20)
(-0.018453606 -0.0054259192 -4.8198724e-20)
(-0.010831978 -0.0060598288 -3.0356156e-20)
(-0.0016937346 0.004246594 -5.7667397e-21)
(-0.0053930571 0.0092690928 9.4722439e-21)
(-0.011173162 0.011850908 -1.0580825e-20)
(-0.01741058 0.012794848 6.0812973e-21)
(-0.023286026 0.012606574 7.1681993e-21)
(-0.028423415 0.011631088 9.6417816e-22)
(-0.032585245 0.010119758 -2.8678261e-20)
(-0.035623618 0.0082538207 -2.3840323e-21)
(-0.037462878 0.0061619281 2.3876143e-20)
(-0.038075291 0.0039346466 -5.8953152e-21)
(-0.037462659 0.0016349722 -2.5159554e-20)
(-0.035644758 -0.00069404509 5.5951798e-21)
(-0.032651707 -0.0030235601 2.5381156e-20)
(-0.028518645 -0.0053343819 1.159978e-20)
(-0.023281957 -0.0076128766 2.4652126e-20)
(-0.016979763 -0.0098468014 -2.1988548e-20)
(-0.0096618225 -0.012023392 -2.3879995e-20)
(-0.0013812982 -0.014136098 2.3606509e-20)
(0.0079234081 -0.01617021 2.9225815e-20)
(0.018444866 -0.017956169 1.6934881e-20)
(-0.0023404527 0.0066442848 -4.6856241e-21)
(-0.0064772808 0.014431203 -4.6419311e-21)
(-0.011689683 0.018391816 -8.6400669e-24)
(-0.016685115 0.019774122 -4.2712163e-22)
(-0.020837146 0.019370384 7.7698467e-21)
(-0.023869735 0.017727696 1.2191516e-20)
(-0.025615763 0.015245543 -4.5795501e-21)
(-0.025978445 0.012212125 -2.2014158e-20)
(-0.024916864 0.0088323342 7.6372305e-21)
(-0.022426257 0.0052506304 1.4871861e-20)
(-0.018523341 0.0015676001 6.8886611e-21)
(-0.01323727 -0.0021480176 2.0350598e-20)
(-0.0066036883 -0.0058503374 1.9466754e-21)
(0.0013395651 -0.0095092603 -3.7561537e-20)
(0.010556222 -0.013103778 1.6420375e-21)
(0.021010033 -0.016615435 -2.3867302e-20)
(0.032641783 -0.02002695 -2.7375935e-20)
(0.045373728 -0.023329683 5.0688501e-20)
(0.059388248 -0.026470202 2.8078395e-20)
(0.075377319 -0.029081403 5.7818319e-22)
(-0.0031507653 0.0084386233 -5.8620305e-21)
(-0.0077339809 0.018173218 -1.1950198e-20)
(-0.011992435 0.023033864 4.5155396e-21)
(-0.015086124 0.024590982 4.8233725e-21)
(-0.016654611 0.023852952 2.1442713e-21)
(-0.01656207 0.021529436 9.0338285e-21)
(-0.014741478 0.018140326 1.1128696e-20)
(-0.011169792 0.014060962 -1.67811e-21)
(-0.0058574318 0.0095588256 -1.3264943e-20)
(0.0011649958 0.0048229904 -3.3243853e-20)
(0.0098562106 -1.4662281e-05 1.8995149e-22)
(0.020169293 -0.0048639263 4.5706979e-20)
(0.032055949 -0.0096650117 -2.0175059e-20)
(0.045468058 -0.014379077 -1.3649028e-20)
(0.060361736 -0.018980156 2.3135413e-22)
(0.076695653 -0.023447521 3.5714549e-20)
(0.094394894 -0.02776675 -1.6905541e-20)
(0.11333878 -0.031936948 -5.803808e-20)
(0.13383526 -0.035841665 4.9258398e-20)
(0.15728599 -0.038796452 3.5778684e-20)
(-0.0039584997 0.0094846849 -3.9924699e-22)
(-0.0087732115 0.020139197 -1.3487131e-20)
(-0.01157925 0.02528996 -3.9525914e-20)
(-0.012064827 0.026685277 -7.3588771e-21)
(-0.01018477 0.02546447 -3.2965169e-21)
(-0.0059733462 0.022450782 7.4645385e-21)
(0.00051249631 0.018249642 -5.672754e-21)
(0.0092023189 0.013298172 -1.0290695e-20)
(0.020018249 0.0079085881 2.4855487e-20)
(0.032880324 0.0023020342 5.550603e-21)
(0.047710404 -0.0033667458 -2.8830914e-20)
(0.064431962 -0.0089917278 1.2155901e-20)
(0.082970451 -0.014502656 0)
(0.10325376 -0.019855118 1.3337932e-20)
(0.12521521 -0.025021719 -1.0659118e-20)
(0.14879282 -0.029984575 -1.5886771e-20)
(0.17388255 -0.034742311 -8.7290936e-22)
(0.20029866 -0.039322565 -2.7213968e-21)
(0.22843339 -0.043544446 4.878721e-20)
(0.26054299 -0.046266774 -1.2313785e-20)
(-0.0045741923 0.0097157075 -7.8786296e-21)
(-0.0091354487 0.020149545 2.7146562e-20)
(-0.0098389292 0.024905516 -1.2229216e-20)
(-0.0069323566 0.025763176 -3.0707251e-20)
(-0.00071120602 0.02390304 -2.995718e-20)
(0.0086008551 0.020208782 -1.6826538e-20)
(0.020805191 0.015332109 -9.6100636e-22)
(0.035721073 0.0097423608 6.2978435e-21)
(0.053187877 0.0037755186 2.1863529e-20)
(0.073061358 -0.0023295172 8.1887122e-21)
(0.095208382 -0.0084054561 -7.8895468e-21)
(0.11950415 -0.014337669 -1.9424536e-21)
(0.1458283 -0.020050764 -4.2155723e-20)
(0.17406223 -0.025498758 -1.3937477e-20)
(0.20409077 -0.030656769 2.103488e-20)
(0.23580338 -0.035515113 -2.3287819e-20)
(0.26904368 -0.040095959 -9.7774381e-21)
(0.30353635 -0.044483947 3.2321362e-20)
(0.33968392 -0.048469585 5.3645152e-20)
(0.38064339 -0.05034603 3.7065169e-21)
(-0.0048013685 0.0091392814 1.7472273e-20)
(-0.0083250619 0.01820274 1.5121446e-20)
(-0.0060874073 0.021873041 5.5471391e-20)
(0.0011079696 0.021826409 2.6005766e-20)
(0.012619586 0.019197832 2.0589624e-22)
(0.028024279 0.014877762 -4.4052281e-20)
(0.04696937 0.0095235299 -2.6862139e-20)
(0.069150759 0.0036064268 1.159936e-20)
(0.094306501 -0.0025368255 1.5922187e-20)
(0.12220643 -0.0086669643 -1.427492e-20)
(0.15264051 -0.01461697 -4.8699347e-20)
(0.18540967 -0.020273692 3.2705655e-20)
(0.22031813 -0.025564629 2.1720531e-20)
(0.25716771 -0.030448929 -3.0157734e-20)
(0.29575767 -0.034910582 1.2872548e-20)
(0.33588866 -0.038955101 2.6251948e-20)
(0.3773169 -0.042638202 8.901276e-21)
(0.41965182 -0.046132211 -1.3228813e-20)
(0.46321874 -0.049276884 -1.4630142e-20)
(0.51199965 -0.049783259 7.8920907e-21)
(-0.0044476176 0.0078247423 1.1810396e-20)
(-0.0058376648 0.014457085 -2.5851632e-20)
(0.0003962471 0.016420296 8.4505195e-21)
(0.012920106 0.015170731 3.676546e-20)
(0.0307545 0.011717744 5.6348305e-20)
(0.0532737 0.0069079824 2.2169584e-20)
(0.079961355 0.0013654252 -6.3859833e-21)
(0.11037128 -0.0044692345 -1.3444615e-20)
(0.14411924 -0.010283151 -6.8755693e-21)
(0.18086304 -0.015856343 3.7593967e-20)
(0.22028355 -0.021038532 -5.1792541e-21)
(0.26207047 -0.025732081 -1.8404976e-20)
(0.3059113 -0.029879931 -2.1367017e-20)
(0.35148362 -0.033458051 -5.1859486e-20)
(0.39845415 -0.036470676 2.5169153e-20)
(0.44648693 -0.038950103 -1.5270374e-20)
(0.4952118 -0.040999042 2.8341805e-20)
(0.54410998 -0.042912243 2.2895559e-20)
(0.59336482 -0.044700146 -9.0255685e-20)
(0.64758978 -0.043654057 4.0841294e-22)
(-0.0033317408 0.0058886201 2.3002745e-20)
(-0.0011862242 0.0092069274 -2.8335831e-20)
(0.010323108 0.0089915213 -4.7950336e-20)
(0.029366102 0.0063777271 -2.9347776e-20)
(0.054641476 0.0021775858 -2.2167881e-21)
(0.085316388 -0.0028543077 1.4278614e-20)
(0.12069732 -0.0081665388 -3.0975597e-21)
(0.16017674 -0.013380973 1.9673996e-20)
(0.20321944 -0.018236136 9.6132028e-21)
(0.24933523 -0.022555034 -1.2392872e-20)
(0.29805387 -0.026225329 9.8740041e-21)
(0.3489072 -0.029184422 -2.6093429e-20)
(0.40141646 -0.031408712 9.1454641e-21)
(0.45508425 -0.032906903 1.8301419e-20)
(0.50939376 -0.033715952 -3.104159e-21)
(0.56381919 -0.033902832 1.9656979e-21)
(0.61781074 -0.033618248 -6.426702e-22)
(0.67070138 -0.033263289 2.1447365e-20)
(0.72250199 -0.033040908 3.9750126e-21)
(0.77822294 -0.030325335 -2.5441159e-21)
(-0.00128444 0.0034829746 2.5145742e-20)
(0.0060791628 0.0028674587 6.1379346e-20)
(0.02434023 0.00024426723 -5.2103341e-20)
(0.051208874 -0.0036670997 -1.066257e-20)
(0.085076212 -0.008324017 2.1820003e-20)
(0.12489833 -0.013111138 2.301996e-21)
(0.16978863 -0.017589945 -3.2080033e-20)
(0.21895097 -0.021481707 7.5505712e-21)
(0.27166264 -0.024609729 7.6670057e-21)
(0.32724238 -0.026871256 -2.845556e-20)
(0.38502293 -0.028221846 1.3972979e-21)
(0.44433398 -0.028662606 -4.0490593e-20)
(0.50449317 -0.028229744 -3.9613538e-20)
(0.56480329 -0.026986185 7.1628664e-20)
(0.62455559 -0.025014226 6.0597089e-21)
(0.68303703 -0.02241448 -1.6496452e-20)
(0.73951596 -0.019346082 2.0957599e-20)
(0.79316956 -0.016112117 -9.7999393e-22)
(0.84354517 -0.012738125 2.1130492e-20)
(0.89431617 -0.0077143518 -2.1854598e-20)
(-0.0017672903 -0.0063460316 6.377253e-20)
(0.0088607712 -0.0068615448 1.6805649e-20)
(0.020922682 -0.0072720469 -3.7462708e-20)
(0.034060399 -0.0075058889 1.8126563e-20)
(0.047991959 -0.0076475998 0)
(0.06264852 -0.0077268869 0)
(0.077964596 -0.0077467998 -2.4091567e-20)
(0.093853804 -0.0077154287 -1.7135866e-20)
(0.11023843 -0.0076427516 2.0007165e-20)
(0.12705243 -0.0075360998 1.8825896e-20)
(0.14423503 -0.0074010687 1.0364202e-21)
(0.16172898 -0.0072425832 -1.0449039e-20)
(0.17948097 -0.0070649456 8.648533e-21)
(0.19744127 -0.0068718097 1.8264901e-20)
(0.21556311 -0.0066663037 -5.462146e-21)
(0.23380235 -0.0064511426 -1.0050423e-20)
(0.25211724 -0.0062286945 -4.2353803e-21)
(0.27046826 -0.006001033 -4.2232696e-21)
(0.288818 -0.0057699842 6.8192998e-22)
(0.30713108 -0.0055371636 1.2061701e-21)
(0.32537412 -0.005304005 2.5831265e-21)
(0.34351576 -0.0050717818 6.4230453e-21)
(0.36152663 -0.0048416242 1.0609405e-22)
(0.37937943 -0.0046145316 -3.3110312e-21)
(0.39704894 -0.0043913829 1.2002644e-22)
(0.41451201 -0.0041729442 -5.4702341e-22)
(0.43174764 -0.0039598757 1.1714863e-21)
(0.44873692 -0.0037527374 9.4061966e-22)
(0.46546308 -0.003551995 -1.2884561e-21)
(0.48191141 -0.0033580258 -9.2388464e-23)
(0.49806927 -0.0031711244 -7.0583789e-23)
(0.51392601 -0.0029915087 -3.2114475e-22)
(0.52947294 -0.0028193268 -4.1179512e-22)
(0.54470321 -0.0026546636 1.0306743e-22)
(0.55961179 -0.0024975479 -1.2343113e-22)
(0.57419537 -0.0023479595 -1.8771167e-22)
(0.58845229 -0.002205837 2.1302071e-22)
(0.60238253 -0.0020710855 2.3937155e-22)
(0.61598755 -0.0019435862 -4.1400588e-23)
(0.62927071 -0.0018232008 -1.6641785e-22)
(0.64223601 -0.0017098013 1.0720162e-23)
(0.65489236 -0.0016032249 -1.9388119e-23)
(0.66724121 -0.0015034904 7.5172884e-23)
(0.67931575 -0.0014102141 -2.9941586e-23)
(0.69106594 -0.0013246439 -1.414265e-22)
(0.70270456 -0.0012435986 1.0536037e-23)
(0.71370373 -0.0011790775 8.5707998e-24)
(0.72572437 -0.0010991855 -5.904509e-24)
(0.73423395 -0.0011107878 2.4583635e-23)
(0.75198984 -0.00094197834 3.7579457e-22)
(0.028722977 -0.018678662 -1.4399253e-20)
(0.038347807 -0.020243534 -6.8125873e-20)
(0.049888576 -0.021450086 -3.3290742e-20)
(0.062476045 -0.022116231 4.1287008e-20)
(0.075710707 -0.022523004 1.5651194e-20)
(0.089604655 -0.022756619 -1.9638772e-20)
(0.10412529 -0.022818227 5.3625403e-21)
(0.11918932 -0.022730107 2.6494246e-20)
(0.13472648 -0.022521953 -2.7260273e-22)
(0.15068044 -0.02221483 -8.0743097e-21)
(0.16699766 -0.021824534 -1.2868898e-20)
(0.18362633 -0.021365183 -8.9842715e-21)
(0.20051773 -0.020849208 1.7975423e-20)
(0.21762595 -0.020287177 9.8071593e-21)
(0.23490738 -0.019688161 -1.6122304e-20)
(0.25232036 -0.019060068 -5.9968435e-21)
(0.2698252 -0.018409826 3.0702671e-21)
(0.28738401 -0.017743527 8.0498159e-21)
(0.3049607 -0.017066553 6.9124628e-21)
(0.32252093 -0.016383686 -7.0986542e-21)
(0.34003216 -0.015699182 -3.4411559e-21)
(0.35746364 -0.015016835 1.6323414e-21)
(0.37478651 -0.01434002 7.4692477e-22)
(0.3919738 -0.01367173 1.2536617e-21)
(0.40900048 -0.013014604 2.5508627e-22)
(0.42584355 -0.012370947 -3.8740555e-22)
(0.442482 -0.011742751 -7.5488887e-22)
(0.45889688 -0.011131711 1.0994815e-21)
(0.47507124 -0.010539241 8.8303231e-22)
(0.49099018 -0.0099664937 -3.0940237e-22)
(0.50664077 -0.0094143721 6.0878781e-22)
(0.52201201 -0.0088835528 -2.1822682e-22)
(0.53709482 -0.0083745026 -4.251185e-22)
(0.55188191 -0.0078874997 -6.245197e-22)
(0.56636777 -0.0074226539 3.9537183e-22)
(0.58054858 -0.0069799287 -1.4235426e-22)
(0.59442212 -0.0065591639 2.4009565e-22)
(0.60798782 -0.0061600979 -4.7366138e-22)
(0.62124654 -0.0057823982 4.7217471e-22)
(0.63420103 -0.0054256726 5.8060626e-23)
(0.64685469 -0.0050895591 -4.3337921e-23)
(0.65921577 -0.0047735901 2.2705661e-22)
(0.67128518 -0.0044778421 3.0585616e-22)
(0.68309523 -0.0042011833 2.3457334e-22)
(0.69459593 -0.0039473642 2.5486361e-22)
(0.70599714 -0.0037068893 -1.4639642e-23)
(0.71677699 -0.003515596 1.3089186e-22)
(0.72857429 -0.0032783474 1.1437567e-22)
(0.73691836 -0.0033134455 -2.0753903e-22)
(0.75437718 -0.0028120015 5.5781748e-25)
(0.087868741 -0.029897759 1.0574428e-20)
(0.095516958 -0.032522411 4.0586087e-21)
(0.10592177 -0.034472064 -1.4366151e-20)
(0.11738305 -0.035495294 -1.79061e-21)
(0.1292136 -0.03613241 1.6461546e-20)
(0.14158257 -0.036520683 -1.5835225e-20)
(0.1545296 -0.036640163 -3.1990273e-20)
(0.16797368 -0.036521485 1.5658345e-20)
(0.18185575 -0.036213247 1.9401512e-20)
(0.19613741 -0.035748091 -1.228192e-20)
(0.21077825 -0.035149506 1.0535048e-21)
(0.22573584 -0.034439046 8.3232479e-21)
(0.24096935 -0.033636055 -1.5932375e-20)
(0.25643956 -0.032757046 4.08437e-21)
(0.27210815 -0.031816263 7.8975119e-21)
(0.28793775 -0.030826228 -7.1180393e-22)
(0.30389205 -0.029798009 -1.9251415e-22)
(0.31993591 -0.028741411 -7.7124085e-21)
(0.33603539 -0.027665167 4.626085e-21)
(0.35215786 -0.026577082 8.724951e-21)
(0.36827208 -0.025484149 -3.9166459e-21)
(0.3843483 -0.024392637 -2.1565132e-21)
(0.40035837 -0.023308149 8.3987245e-22)
(0.41627582 -0.022235679 -1.7949838e-21)
(0.43207592 -0.021179649 1.2943509e-21)
(0.44773578 -0.020143941 6.8398073e-22)
(0.46323433 -0.019131923 1.8939388e-21)
(0.47855241 -0.018146476 -2.2483572e-21)
(0.49367278 -0.017190022 2.5477827e-21)
(0.50858005 -0.016264545 6.0436101e-22)
(0.52326075 -0.015371622 6.8726511e-22)
(0.53770323 -0.014512454 2.9426821e-22)
(0.55189763 -0.013687892 1.0665918e-21)
(0.56583585 -0.012898476 -1.6232566e-21)
(0.57951147 -0.012144463 4.5549628e-22)
(0.59291969 -0.011425868 2.5923942e-22)
(0.60605731 -0.010742499 -9.1292219e-23)
(0.61892267 -0.010093994 -9.5513703e-24)
(0.63151556 -0.0094798705 -4.1117431e-22)
(0.64383759 -0.0088995459 2.3756177e-22)
(0.65589104 -0.0083524851 -2.7971685e-23)
(0.66768298 -0.007837974 5.9571951e-22)
(0.67921324 -0.0073561999 -2.7456376e-22)
(0.69051255 -0.0069053394 3.4046565e-23)
(0.70153099 -0.0064916532 8.5371245e-23)
(0.71247295 -0.0060994906 -1.0036507e-22)
(0.72282795 -0.0057879908 -1.6967355e-22)
(0.73419252 -0.0054005771 5.5686497e-22)
(0.7422153 -0.005459729 1.8454708e-22)
(0.75909783 -0.0046407149 -8.6022012e-22)
(0.17260258 -0.039236641 1.93408e-21)
(0.17734225 -0.042906182 -1.1900641e-20)
(0.18586697 -0.04552056 6.5748379e-21)
(0.19557323 -0.046814312 -1.4351659e-20)
(0.20528516 -0.047652766 -2.1183552e-21)
(0.21537461 -0.048213121 1.0274331e-20)
(0.22600175 -0.048431422 -1.1333241e-20)
(0.23708494 -0.048337366 9.5862962e-22)
(0.2485732 -0.047995794 1.3540861e-20)
(0.26045125 -0.047448223 3.9814363e-21)
(0.27269579 -0.046722622 -6.4383515e-21)
(0.28527541 -0.045845341 -3.3518819e-21)
(0.29815842 -0.044840813 -5.4290301e-21)
(0.31131338 -0.043730185 -6.908356e-21)
(0.32470814 -0.042531866 2.6147254e-21)
(0.33831012 -0.041262231 7.8901086e-23)
(0.3520868 -0.039935948 1.646285e-21)
(0.366006 -0.038566176 -3.380963e-21)
(0.38003606 -0.037164755 -4.7062434e-21)
(0.39414609 -0.035742377 2.5793175e-21)
(0.40830617 -0.034308701 3.6211554e-21)
(0.42248748 -0.032872452 -1.9395197e-21)
(0.43666251 -0.031441486 1.7209591e-21)
(0.45080516 -0.030022844 -5.5562406e-22)
(0.46489083 -0.028622802 -4.4445089e-21)
(0.47889655 -0.027246896 -3.070425e-21)
(0.49280103 -0.025899963 -3.3229631e-22)
(0.5065847 -0.024586169 2.6824491e-22)
(0.52022973 -0.023309043 -2.203522e-21)
(0.53372004 -0.022071509 -1.1483474e-21)
(0.54704132 -0.020875924 2.1111625e-22)
(0.56018096 -0.019724118 -1.45024e-21)
(0.57312806 -0.018617437 -8.9455682e-23)
(0.58587336 -0.017556786 -5.426699e-22)
(0.5984092 -0.01654268 -4.2678484e-22)
(0.61072947 -0.015575289 -7.5508739e-22)
(0.6228296 -0.014654493 -1.1382924e-21)
(0.6347065 -0.01377993 3.8179661e-24)
(0.64635848 -0.012951069 -3.3383266e-24)
(0.65778566 -0.012167232 -6.5345555e-22)
(0.66898881 -0.011427802 1.0955203e-23)
(0.67997337 -0.010731908 -4.5710861e-22)
(0.69073779 -0.010079928 -6.9097318e-22)
(0.70131061 -0.0094694381 5.3724325e-22)
(0.71164209 -0.0089091961 1.3265206e-23)
(0.7219289 -0.0083777024 2.6703562e-22)
(0.73167699 -0.0079563827 -1.9637535e-22)
(0.74242208 -0.0074305131 -3.7663759e-22)
(0.74998498 -0.0075141738 -5.1869126e-24)
(0.76603944 -0.0064022756 4.9436972e-22)
(0.27875091 -0.045883634 -2.3718876e-20)
(0.27967126 -0.050575943 5.0856543e-20)
(0.28543308 -0.053766303 1.0879245e-20)
(0.2926712 -0.055270828 -1.7039581e-20)
(0.29955215 -0.056319121 -2.679135e-21)
(0.30663508 -0.057104005 2.2727807e-21)
(0.31424748 -0.057500871 -2.267756e-21)
(0.32230895 -0.057528314 -4.9428394e-21)
(0.33076539 -0.057260287 -4.2255218e-21)
(0.33962333 -0.056743771 -1.2787349e-20)
(0.34887803 -0.05600877 1.9314499e-20)
(0.3585084 -0.055083738 7.2086185e-21)
(0.36849044 -0.053996026 -1.7289212e-20)
(0.37879941 -0.052770031 9.8206732e-21)
(0.38940847 -0.051427391 7.7862756e-21)
(0.40028899 -0.049987653 -1.7374598e-22)
(0.41141141 -0.048468623 -2.6729976e-21)
(0.42274573 -0.04688654 -4.4638476e-21)
(0.43426194 -0.045256223 -1.6843759e-21)
(0.44593025 -0.043591207 -1.4876123e-21)
(0.45772148 -0.041903849 -3.5124146e-21)
(0.46960722 -0.04020541 0)
(0.48156012 -0.038506107 -1.557532e-21)
(0.493554 -0.036815166 4.0134208e-21)
(0.50556399 -0.035140855 5.8136714e-21)
(0.51756669 -0.033490523 -8.9499705e-22)
(0.5295402 -0.03187063 -3.4479416e-21)
(0.54146422 -0.030286784 3.6483677e-21)
(0.55332003 -0.028743777 -4.7669875e-23)
(0.56509059 -0.027245626 3.9233337e-21)
(0.57676045 -0.025795618 -4.9594767e-22)
(0.5883158 -0.024396364 1.8377201e-21)
(0.59974443 -0.023049846 -9.5354094e-22)
(0.61103568 -0.021757481 4.6522267e-22)
(0.6221804 -0.020520175 -5.8337722e-22)
(0.63317097 -0.01933839 5.9417398e-22)
(0.64400118 -0.018212208 5.7142974e-22)
(0.65466631 -0.017141395 4.8092016e-22)
(0.66516297 -0.016125493 -1.1788384e-21)
(0.67548955 -0.015163846 8.4448108e-22)
(0.68564507 -0.014255871 -4.3990583e-22)
(0.69563313 -0.01340065 -1.4730088e-21)
(0.7054506 -0.01259884 1.880576e-21)
(0.71512344 -0.011847537 -5.2263511e-23)
(0.72460231 -0.011157957 -2.1470839e-22)
(0.73407425 -0.010503177 -6.7394403e-24)
(0.74306621 -0.0099854751 -2.233866e-22)
(0.7530369 -0.0093365453 -6.4456223e-22)
(0.76002557 -0.009445 7.4799459e-22)
(0.77503893 -0.0080729159 -5.2405014e-23)
(0.40118199 -0.048881724 -1.9913147e-20)
(0.39742752 -0.054633546 1.3404078e-20)
(0.39945928 -0.058356324 4.1622432e-21)
(0.40344475 -0.060103453 -8.2990497e-21)
(0.40682552 -0.061451123 1.2975388e-20)
(0.41025321 -0.062568493 8.3592641e-21)
(0.4142459 -0.063274373 -1.2980527e-20)
(0.41874148 -0.063573154 -6.4363161e-21)
(0.42366765 -0.063535117 1.3395939e-20)
(0.42904061 -0.063206398 -1.6990525e-20)
(0.43487146 -0.062617748 -1.4662019e-20)
(0.44114732 -0.061798258 1.5697346e-20)
(0.44784832 -0.060776379 7.0867425e-21)
(0.45495317 -0.059578593 -5.5576622e-21)
(0.46243793 -0.058229205 -1.1651763e-21)
(0.47027591 -0.056750635 -3.437313e-21)
(0.47843874 -0.055163684 4.6497572e-21)
(0.48689711 -0.053487673 3.6948904e-21)
(0.49562129 -0.051740507 -3.087111e-21)
(0.50458151 -0.049938748 3.1188167e-21)
(0.51374831 -0.048097671 3.0286843e-21)
(0.52309283 -0.046231316 -3.4408675e-21)
(0.53258709 -0.044352519 3.6591548e-22)
(0.54220417 -0.042472947 -3.1637121e-21)
(0.55191834 -0.040603118 8.495932e-21)
(0.56170522 -0.03875244 6.6834577e-21)
(0.57154185 -0.036929235 1.1326933e-21)
(0.58140677 -0.035140779 -1.8666879e-21)
(0.59128005 -0.033393345 4.4910632e-21)
(0.60114332 -0.031692248 8.4031414e-21)
(0.61097975 -0.030041903 2.4362764e-21)
(0.62077408 -0.028445885 3.8612698e-21)
(0.6305126 -0.026906993 2.1988951e-21)
(0.64018305 -0.02542732 8.964145e-22)
(0.64977469 -0.024008328 -2.3933261e-22)
(0.65927821 -0.022650924 3.2325356e-21)
(0.66868569 -0.021355539 7.2501544e-22)
(0.67799066 -0.020122209 3.2840247e-22)
(0.68718796 -0.018950683 5.7332291e-23)
(0.69627416 -0.017840458 1.2937314e-21)
(0.70524649 -0.016791106 4.0715519e-23)
(0.71410664 -0.015801777 6.2463101e-22)
(0.72284984 -0.014873505 -1.2673765e-22)
(0.73149929 -0.014003034 -4.4184729e-22)
(0.74000634 -0.013203975 -2.1619894e-22)
(0.74854697 -0.012444483 -5.9071274e-22)
(0.75667302 -0.011845935 2.6242823e-22)
(0.76575285 -0.011091953 -1.7316822e-22)
(0.77208244 -0.011225303 -4.2810632e-22)
(0.78588855 -0.0096315705 2.9440066e-22)
(0.53371908 -0.04731552 3.3728179e-21)
(0.52466098 -0.054176634 -1.9481385e-20)
(0.52204098 -0.058447034 -2.6831563e-21)
(0.52200887 -0.060629976 5.7790864e-21)
(0.52137045 -0.062506341 3.77838e-21)
(0.52068064 -0.064151781 8.2663123e-22)
(0.52061484 -0.065358662 7.5343251e-21)
(0.52117131 -0.066132626 8.3431064e-21)
(0.52225713 -0.066530176 1.0198963e-20)
(0.52387569 -0.066587893 -1.2079077e-20)
(0.52604352 -0.066335589 -2.3416929e-20)
(0.52875292 -0.065803054 -4.7150922e-21)
(0.53198445 -0.065019405 1.7123909e-20)
(0.53571609 -0.064012825 1.3619216e-20)
(0.53992348 -0.062810333 -5.6895484e-21)
(0.54457945 -0.061437523 7.3277493e-22)
(0.54965478 -0.05991857 -4.3800863e-21)
(0.55511914 -0.058276287 3.4011431e-21)
(0.56094163 -0.056532104 -2.9422073e-22)
(0.56709123 -0.054706058 -2.0065934e-21)
(0.57353715 -0.052816784 8.7453648e-21)
(0.58024916 -0.050881525 -5.6214107e-22)
(0.58719784 -0.048916143 6.6824169e-22)
(0.59435479 -0.046935123 -3.9106476e-22)
(0.60169278 -0.044951594 -4.5890363e-21)
(0.60918592 -0.042977353 4.4757944e-21)
(0.61680969 -0.041022893 1.8229638e-21)
(0.62454105 -0.039097445 -3.4940853e-21)