/*--------------------------------*- C++ -*----------------------------------*\
  =========                 |
  \\      /  F ield         | OpenFOAM: The Open Source CFD Toolbox
   \\    /   O peration     | Website:  https://openfoam.org
    \\  /    A nd           | Version:  6
     \\/     M anipulation  |
\*---------------------------------------------------------------------------*/
FoamFile
{
    version     2.0;
    format      ascii;
    class       volSymmTensorField;
    location    "314";
    object      UPrime2Mean;
}
// * * * * * * * * * * * * * * * * * * * * * * * * * * * * * * * * * * * * * //

dimensions      [0 2 -2 0 0 0 0];

internalField   nonuniform List<symmTensor> 
9200
(
(6.3233606e-05 -4.908229e-05 2.2872482e-22 3.9387333e-05 -1.2223245e-22 3.7051464e-39)
(0.00039038615 -0.00031247154 5.8817098e-22 0.0002510714 -4.3889287e-22 4.0311184e-39)
(0.00079059654 -0.00061273971 7.0263037e-23 0.00047771001 -5.3294314e-23 2.209942e-39)
(0.0012484344 -0.00090329051 -8.8859513e-22 0.00066103281 6.2422104e-22 4.4067386e-39)
(0.0017015277 -0.0011623124 4.3484531e-23 0.00080795337 -3.5662015e-23 6.4598154e-40)
(0.0021186402 -0.0013781285 3.7617974e-22 0.00091823926 -2.4905197e-22 1.0220697e-40)
(0.0024779299 -0.001546518 -8.2213049e-23 0.00099559128 5.6475259e-23 2.9273056e-40)
(0.0027615813 -0.0016675644 7.4680046e-23 0.0010462799 -4.9886082e-23 1.9715217e-40)
(0.0029570186 -0.0017434353 3.6534747e-22 0.0010763464 -2.2103647e-22 5.6262688e-40)
(0.0030574025 -0.0017774005 2.8488436e-23 0.0010909361 -1.7318639e-23 1.6062334e-42)
(0.0030617281 -0.0017733732 -3.9601306e-22 0.0010943044 2.4229682e-22 3.024759e-40)
(0.0029748276 -0.0017356261 3.3253696e-22 0.0010898644 -2.1087272e-22 4.189796e-41)
(0.002807022 -0.0016686101 -5.9393627e-22 0.0010802632 3.9774301e-22 6.4808509e-40)
(0.0025732769 -0.0015768451 -3.0231113e-22 0.0010674878 2.0636936e-22 4.1985051e-41)
(0.0022918838 -0.0014648491 7.8606988e-23 0.0010529823 -5.7810708e-23 5.3268292e-42)
(0.0019827815 -0.0013370759 -2.9745451e-22 0.0010377607 2.3070195e-22 5.6421403e-41)
(0.0016656504 -0.0011978581 2.6235649e-22 0.0010225687 -2.2036637e-22 6.8257344e-41)
(0.0013579878 -0.0010514292 1.9658153e-22 0.0010084211 -1.7279293e-22 2.7511276e-40)
(0.0010747512 -0.00090172727 -6.3175485e-24 0.00099665223 1.3786906e-23 5.05276e-41)
(0.00083255154 -0.00075145768 -3.3380218e-24 0.00097731901 1.2102646e-23 6.2631614e-41)
(8.3482591e-05 -5.5804414e-05 2.3800504e-23 3.8306149e-05 -9.0977272e-24 6.5210787e-41)
(0.00049820618 -0.00034525883 6.228813e-22 0.00024000595 -4.0516192e-22 4.2994616e-39)
(0.00099218562 -0.00066707669 -2.0098662e-22 0.00045108292 1.3486432e-22 2.3351411e-39)
(0.0015236187 -0.00096549656 -1.5956936e-21 0.00061877775 9.9648608e-22 1.0198091e-38)
(0.0020199411 -0.0012201562 -5.597126e-23 0.00075034668 3.5350147e-23 1.2864989e-40)
(0.002444781 -0.0014207248 1.2379029e-21 0.00084685368 -7.2912303e-22 3.3756355e-39)
(0.002775381 -0.0015653081 -5.1046308e-22 0.00091313638 2.9745735e-22 1.1627818e-40)
(0.0029969008 -0.0016566641 -1.5431552e-22 0.0009560129 8.9142846e-23 4.1510599e-41)
(0.0031028469 -0.0016994843 5.880895e-22 0.00098171155 -3.4169017e-22 3.1765556e-40)
(0.0030949168 -0.0016992526 -7.1553877e-22 0.000995323 4.2250032e-22 3.6528921e-40)
(0.0029823594 -0.0016617231 -5.0945404e-22 0.0010008413 3.0829941e-22 4.5012963e-40)
(0.0027809751 -0.0015926174 1.1050645e-21 0.0010012434 -6.954341e-22 2.2901158e-39)
(0.0025115603 -0.0014974717 5.1665826e-22 0.00099859643 -3.4602676e-22 1.6160228e-40)
(0.0021978268 -0.0013815835 -8.182243e-22 0.00099418514 5.8499507e-22 7.9573563e-40)
(0.0018640316 -0.001250009 1.4775327e-22 0.00098863777 -1.1385477e-22 6.6117274e-41)
(0.0015326483 -0.0011075702 -3.2962606e-22 0.0009820357 2.8459109e-22 1.7714251e-40)
(0.0012223782 -0.00095885422 -1.3646104e-22 0.0009740396 1.3883116e-22 5.5558306e-41)
(0.00094672468 -0.00080812115 4.2325312e-22 0.00096405972 -4.6817086e-22 8.9913746e-40)
(0.00071400024 -0.00065881638 2.0184312e-22 0.00095032875 -2.6584279e-22 1.7171271e-40)
(0.00052999381 -0.00051434833 -8.8002471e-23 0.00092383226 1.0858034e-22 1.2805627e-39)
(0.00010636658 -6.0591535e-05 -2.0042873e-22 3.5288872e-05 8.5305099e-23 1.6753091e-39)
(0.00061332436 -0.00036445433 -3.3456348e-22 0.0002171438 1.8586286e-22 1.7463475e-39)
(0.0011996333 -0.00069351281 -3.8091555e-22 0.00040327168 2.2195518e-22 4.365167e-39)
(0.0017934724 -0.00098643183 1.2785009e-23 0.00054897575 -7.0216934e-24 4.7406764e-43)
(0.002313641 -0.0012254386 1.2762271e-23 0.00066163672 -6.1151613e-24 3.1365643e-39)
(0.0027212573 -0.0014026894 4.3360669e-22 0.00074357435 -2.3087172e-22 8.7726418e-40)
(0.0029964973 -0.0015192616 4.2745879e-23 0.00080033905 -2.1252095e-23 3.6310902e-40)
(0.003131966 -0.0015807084 -7.4085519e-22 0.00083870634 3.9676161e-22 2.3273318e-40)
(0.0031316766 -0.0015939936 8.7962857e-22 0.0008644918 -4.8270697e-22 4.3943806e-40)
(0.0030095732 -0.0015662927 2.9041276e-22 0.00088216358 -1.6716601e-22 4.8062659e-40)
(0.0027874716 -0.0015045133 -8.0255498e-22 0.00089494013 4.8226327e-22 9.9513509e-40)
(0.002492508 -0.0014150988 -2.5295799e-22 0.00090492061 1.6275355e-22 3.2468659e-40)
(0.0021541383 -0.0013040218 9.0923922e-23 0.0009132401 -6.2988914e-23 8.7846244e-40)
(0.0018010079 -0.0011768751 2.2085891e-22 0.00092024366 -1.6973827e-22 1.2685963e-40)
(0.0014581564 -0.0010389752 -7.7951393e-23 0.00092566293 6.6834594e-23 9.6763523e-41)
(0.0011449783 -0.00089541736 1.815623e-22 0.00092879248 -1.7973765e-22 7.7195451e-41)
(0.00087419307 -0.00075105689 -1.2542074e-22 0.00092866469 1.4614443e-22 2.9777347e-41)
(0.00065184826 -0.00061038028 -2.580309e-22 0.00092415914 3.5267947e-22 7.1964358e-40)
(0.00047831179 -0.00047717955 -9.5911355e-24 0.00091379696 1.0190692e-23 6.4454133e-40)
(0.00035038103 -0.00035498277 9.0218928e-23 0.00089443902 -1.9216636e-22 7.4530303e-41)
(0.00013112129 -6.2737323e-05 -1.5924396e-22 3.0603431e-05 5.8674289e-23 8.3204323e-40)
(0.00072985617 -0.00036685235 2.4525437e-22 0.00018484669 -1.2029196e-22 1.5563335e-40)
(0.0014004993 -0.00068750952 2.1750034e-22 0.00033961201 -1.0721171e-22 1.7980734e-40)
(0.0020396562 -0.00096222862 4.7414481e-22 0.00045983486 -2.2627177e-22 1.9386728e-39)
(0.0025603971 -0.0011768075 4.1800264e-22 0.00055268253 -1.9839318e-22 8.6252219e-40)
(0.0029254239 -0.0013266649 -7.3729691e-22 0.00062137377 3.4991105e-22 6.5943412e-40)
(0.0031227288 -0.0014158639 -4.1339633e-22 0.00067151948 1.9961683e-22 1.8776665e-40)
(0.0031570927 -0.0014521562 0 0.00070916648 0 0)
(0.0030467607 -0.0014438556 4.5348185e-22 0.00073910945 -2.4557852e-22 2.4165652e-39)
(0.0028198974 -0.0013987889 -1.9776338e-22 0.00076468331 1.1613562e-22 9.1540752e-40)
(0.0025105942 -0.0013240382 -1.1637971e-21 0.00078792339 6.9157515e-22 8.16525e-40)
(0.0021546782 -0.0012259947 -1.4925239e-22 0.00080974881 9.371086e-23 1.6366106e-40)
(0.0017857035 -0.0011105633 5.7805688e-22 0.00083017075 -4.2797739e-22 1.1042271e-39)
(0.001431677 -0.00098337076 3.1863196e-23 0.0008485241 -2.0851604e-23 4.5531655e-40)
(0.0011129885 -0.00084986609 -9.0070657e-24 0.00086371161 8.7588094e-24 3.2147081e-43)
(0.00084174907 -0.00071527309 9.727374e-23 0.00087445585 -1.1164741e-22 5.6587525e-41)
(0.00062243239 -0.00058441336 2.134534e-25 0.00087952366 2.3006877e-24 6.5925899e-41)
(0.00045344962 -0.00046146216 -1.7393301e-22 0.00087783594 2.9000706e-22 1.7403768e-40)
(0.00032909746 -0.00034968927 -9.7247253e-23 0.00086886357 2.0208344e-22 1.2088233e-40)
(0.00024164949 -0.00025151464 4.9961652e-23 0.00085379387 -1.4891104e-22 7.5129925e-40)
(0.00015661807 -6.1637015e-05 1.2044489e-22 2.4688697e-05 -3.8377589e-23 3.2731571e-40)
(0.00084047502 -0.00035035861 5.0200633e-22 0.00014641216 -2.0022987e-22 2.9490552e-39)
(0.0015806802 -0.00064711176 3.9759951e-22 0.00026679559 -1.6373061e-22 1.8716759e-40)
(0.0022433473 -0.00089300912 4.4183411e-22 0.00036083876 -1.804215e-22 1.0374701e-39)
(0.0027401654 -0.0010780099 -6.8150721e-22 0.00043508031 2.8132575e-22 1.6349982e-39)
(0.0030406267 -0.0012008697 2.6708775e-23 0.00049305761 -8.5926651e-24 1.5552583e-40)
(0.0031456259 -0.001267797 3.9239363e-23 0.00053972403 -1.7053102e-23 1.3120554e-42)
(0.0030759483 -0.0012873916 5.5974411e-22 0.00057979201 -2.5989572e-22 5.8508957e-40)
(0.002865832 -0.0012678823 7.5832645e-23 0.00061657687 -3.7362778e-23 5.2857957e-42)
(0.0025569047 -0.0012165043 -2.0436163e-22 0.00065194919 1.1529207e-22 3.1631296e-40)
(0.0021923218 -0.0011396349 6.6688864e-22 0.00068653985 -4.1179371e-22 2.207265e-39)
(0.0018116021 -0.0010431425 -4.8654247e-22 0.00071996915 3.1928354e-22 1.9174369e-40)
(0.001446746 -0.00093271916 -9.2056123e-22 0.0007511144 7.1524709e-22 1.3588183e-39)
(0.0011200974 -0.00081402913 -3.0587541e-23 0.00077841383 2.7980399e-23 2.8706577e-42)
(0.00084405423 -0.00069261929 3.3111791e-22 0.00080018546 -3.6786362e-22 1.096825e-39)
(0.00062231868 -0.00057364017 0 0.00081493383 0 0)
(0.00045211104 -0.00046149103 4.1653305e-23 0.00082157532 -5.9781726e-23 2.8525527e-41)
(0.00032669217 -0.00035952633 -2.1217974e-23 0.00081948783 4.5964088e-23 4.2407949e-41)
(0.00023753979 -0.00026992535 -2.1358932e-23 0.00080906945 4.6423024e-23 1.1177637e-41)
(0.00017597434 -0.00019367072 1.0442856e-23 0.00079369376 -4.351474e-23 7.6215936e-41)
(0.00018147723 -5.6926109e-05 2.6346208e-22 1.8160498e-05 -6.7884418e-23 1.3236835e-39)
(0.00093741754 -0.00031465348 2.599005e-23 0.00010590956 -8.5308083e-24 2.450974e-42)
(0.0017266577 -0.00057390163 -7.4676929e-23 0.00019239594 2.5210201e-23 1.0854016e-41)
(0.0023886463 -0.00078372905 7.7706573e-23 0.00026196742 -2.4975791e-23 2.1438749e-40)
(0.0028391877 -0.00093817779 -4.6996828e-22 0.00032012315 1.6465616e-22 4.0236162e-40)
(0.003060066 -0.0010384697 -2.2665693e-22 0.00037009396 8.2381009e-23 3.6426638e-41)
(0.0030691963 -0.0010912629 1.6182507e-22 0.00041561231 -4.9576848e-23 1.1455308e-39)
(0.0029051053 -0.0011041453 -5.8200482e-24 0.0004597099 6.5987687e-24 8.9604643e-41)
(0.0026170086 -0.0010837205 -3.8503564e-22 0.00050402903 1.90608e-22 9.4808093e-40)
(0.0022564473 -0.0010356374 6.6973597e-22 0.00054887678 -3.4694752e-22 2.8108781e-40)
(0.0018704029 -0.00096514165 -1.8262257e-23 0.00059345326 2.5332538e-23 4.9219987e-40)
(0.0014964614 -0.00087757008 -5.3504879e-22 0.00063613439 3.8701991e-22 1.3607636e-39)
(0.0011604121 -0.00077855892 0 0.00067482353 0 0)
(0.00087623027 -0.0006738969 1.3155891e-22 0.00070734421 -1.4807061e-22 7.2885468e-40)
(0.00064790485 -0.00056911269 6.8199899e-24 0.00073181763 -1.4019203e-23 3.9871397e-41)
(0.00047227556 -0.00046897829 -1.6052157e-22 0.00074696503 2.5037567e-22 8.4823998e-40)
(0.00034204282 -0.00037710521 -3.6362486e-23 0.00075225198 6.4670961e-23 1.7796682e-41)
(0.0002483303 -0.00029576256 -1.1293244e-23 0.0007478109 3.0261876e-23 2.8442706e-41)
(0.00018240333 -0.00022598191 -1.4700257e-23 0.00073487906 4.0834535e-23 1.1106499e-41)
(0.00013655429 -0.00016769618 2.668898e-23 0.00071757012 -1.0011218e-22 1.0596252e-40)
(0.0002042222 -4.8571359e-05 1.0152977e-22 1.175086e-05 -1.9535434e-23 2.0962601e-40)
(0.0010134839 -0.00026142239 -7.2990606e-22 6.767102e-05 1.8366452e-22 4.5585796e-39)
(0.0018273399 -0.00047297105 -6.3961961e-23 0.00012383857 1.8185149e-23 4.2565408e-40)
(0.0024648342 -0.00064352968 -1.9382671e-22 0.00017230042 5.7159231e-23 2.1407901e-39)
(0.0028518845 -0.00077028146 -1.4745453e-22 0.00021725469 4.087082e-23 2.9663737e-41)
(0.0029872578 -0.00085509592 -8.3532763e-22 0.00026119539 2.5840905e-22 3.9356467e-40)
(0.0029079183 -0.00090284046 -4.1025088e-22 0.00030642928 1.4416352e-22 3.1659844e-40)
(0.0026690989 -0.00091821082 7.9622413e-22 0.0003543209 -2.9909023e-22 2.5751215e-40)
(0.0023312907 -0.00090503366 1.3669567e-22 0.00040492347 -7.0006589e-23 3.245256e-40)
(0.0019505836 -0.00086696576 -1.7581477e-22 0.00045707548 7.9564986e-23 1.1118527e-40)
(0.0015721824 -0.00080824161 8.2084971e-23 0.00050866523 -3.0280565e-23 4.1638866e-40)
(0.0012273057 -0.0007339808 -1.6105632e-23 0.00055701224 2.0857011e-23 1.0554389e-40)
(0.0009331973 -0.00064997673 0 0.00059933873 0 0)
(0.00069542562 -0.00056210795 8.8529588e-23 0.00063324381 -9.1328894e-23 2.5780086e-41)
(0.00051134404 -0.00047563773 -1.8916724e-22 0.00065707861 2.4459417e-22 3.4995991e-40)
(0.00037364173 -0.00039465725 -6.1561857e-23 0.00067014922 9.3291033e-23 3.0296963e-41)
(0.00027325733 -0.00032181481 1.0720403e-22 0.00067269574 -2.1152253e-22 4.1725478e-40)
(0.00020134881 -0.00025835957 -2.3198064e-23 0.00066565435 3.0988853e-23 8.9326704e-41)
(0.00015029746 -0.00020447906 -1.3152471e-24 0.00065086038 -2.7851533e-24 1.001808e-41)
(0.00011394786 -0.00015959923 2.4543261e-23 0.00063225532 -7.1794872e-23 9.2687419e-42)
(0.00022344511 -3.6901938e-05 7.380014e-23 6.2098813e-06 -9.6809026e-24 1.3127543e-40)
(0.0010629555 -0.00019421626 -6.7823195e-22 3.5680763e-05 1.2217109e-22 2.0915145e-39)
(0.0018754279 -0.00035224911 -5.2979177e-22 6.7363802e-05 1.0500634e-22 2.5021782e-39)
(0.0024675729 -0.0004843318 7.6112416e-22 9.8818903e-05 -1.5864081e-22 6.1451451e-40)
(0.0027810433 -0.00058896304 5.7650175e-22 0.00013300208 -1.2925714e-22 1.2863209e-40)
(0.0028343609 -0.00066620419 -4.2425971e-22 0.00017165332 9.3267057e-23 1.3294445e-39)
(0.0026828162 -0.00071689825 1.3787275e-22 0.00021590155 -5.2168334e-23 5.6262131e-40)
(0.0023946636 -0.00074147991 8.1227878e-22 0.00026578462 -2.8606138e-22 6.3570346e-40)
(0.0020362313 -0.00074056632 3.5710169e-22 0.00032003633 -1.3943155e-22 8.0747899e-41)
(0.0016625078 -0.00071605096 -3.5205449e-22 0.00037622459 1.7810307e-22 2.0755626e-40)
(0.0013125231 -0.0006716314 -4.786165e-22 0.0004311279 2.8250578e-22 2.5009476e-40)
(0.0010089049 -0.00061256373 -1.3083375e-23 0.0004812865 9.3574538e-24 2.6085254e-43)
(0.00076042605 -0.00054485748 1.3839276e-22 0.0005236074 -1.1971496e-22 4.0582342e-41)
(0.00056604598 -0.00047428848 -5.0872637e-24 0.00055586287 1.5670427e-23 6.082453e-41)
(0.00041907819 -0.00040559055 -5.6205752e-24 0.00057696402 2.5527754e-23 1.6462316e-40)
(0.00031058177 -0.00034203069 4.3937104e-24 0.00058697318 -3.3382216e-23 2.9738406e-40)
(0.00023162091 -0.00028538014 4.9383289e-23 0.00058688014 -9.6321324e-23 8.7666612e-41)
(0.0001744647 -0.00023617882 -2.8351674e-23 0.00057823147 8.1108431e-23 2.2758503e-40)
(0.00013298128 -0.00019419877 -7.2284076e-23 0.00056311468 1.9684271e-22 4.4295719e-40)
(0.00010248849 -0.0001587819 2.3903386e-23 0.00054479128 -5.7633188e-23 1.0092416e-41)
(0.00023803464 -2.2584422e-05 -1.9240787e-22 2.1988963e-06 1.6039081e-23 3.9232983e-40)
(0.0010823776 -0.00011800703 -1.52939e-22 1.3025214e-05 1.6362599e-23 4.2365305e-40)
(0.0018681644 -0.00022141529 1.1660294e-21 2.7239973e-05 -1.476182e-22 5.172355e-39)
(0.0023991546 -0.00031912423 8.7124621e-22 4.5688436e-05 -1.2543234e-22 5.6708109e-40)
(0.0026369257 -0.0004084569 3.9191052e-22 7.0612323e-05 -6.1003177e-23 2.7811528e-40)
(0.0026197549 -0.00048513883 7.9165371e-23 0.00010348862 -1.605262e-23 2.6996289e-42)
(0.0024177742 -0.0005443378 -7.4517723e-22 0.00014489691 1.6377203e-22 1.163024e-39)
(0.0021067596 -0.00058170217 0 0.00019406483 0 0)
(0.0017530842 -0.00059494579 -4.5829483e-22 0.00024872711 1.9567316e-22 9.6248391e-40)
(0.0014061014 -0.00058483806 -7.9114643e-23 0.00030540125 5.1149174e-23 2.176571e-40)
(0.0010963417 -0.00055506305 2.2554116e-22 0.00035999989 -1.2912065e-22 5.4170595e-41)
(0.00083783593 -0.00051119535 2.4500386e-23 0.00040860639 -3.0550718e-23 1.1972663e-40)
(0.00063258596 -0.00045933464 -1.0824546e-22 0.0004481724 1.0437435e-22 1.3992844e-40)
(0.00047539431 -0.00040491545 -8.1914282e-23 0.00047694064 1.0536856e-22 2.9852145e-40)
(0.00035787497 -0.00035199915 5.252441e-23 0.00049452132 -5.2881119e-23 3.6778689e-41)
(0.00027116602 -0.00030309284 7.2968364e-23 0.00050167437 -9.302928e-23 3.436412e-41)
(0.00020740116 -0.00025935199 -6.5267315e-23 0.00049991489 1.0655741e-22 3.2145737e-41)
(0.00016027306 -0.00022097478 -8.7917723e-23 0.00049108596 1.8588817e-22 3.7078583e-40)
(0.00012504694 -0.00018766315 6.6273345e-24 0.00047720075 -1.4997975e-24 4.330155e-41)
(9.8238993e-05 -0.00015888494 1.2088638e-23 0.000460642 -3.9593385e-23 5.1209566e-41)
(0.00024714114 -6.5163686e-06 -1.2693679e-22 1.9708427e-07 3.2345845e-24 1.9191034e-40)
(0.0010706016 -3.8561534e-05 5.4388738e-22 1.5220704e-06 -1.9437022e-23 1.0648148e-39)
(0.0018073089 -9.0758648e-05 8.313466e-22 5.3724337e-06 -5.0956045e-23 7.7197626e-39)
(0.0022679307 -0.00016051364 -9.7847878e-22 1.4129436e-05 8.3756367e-23 2.128272e-39)
(0.0024354329 -0.00024119756 3.5491127e-22 3.0356275e-05 -3.8572389e-23 5.4158106e-41)
(0.0023648779 -0.00032223783 1.4685122e-22 5.6166454e-05 6.2717933e-25 1.9631016e-39)
(0.0021357876 -0.00039245384 3.8504183e-23 9.2383902e-05 -7.7260738e-24 7.1833696e-43)
(0.001825469 -0.00044308795 -5.492265e-22 0.00013793087 1.2567238e-22 6.6509538e-40)
(0.00149551 -0.00046979548 -1.2493956e-23 0.00018981565 4.2774656e-24 1.0823152e-43)
(0.0011870058 -0.00047297441 2.0586315e-22 0.00024372251 -1.0579464e-22 2.5321308e-40)
(0.00092172613 -0.00045665044 1.6245906e-23 0.0002949766 -1.6286755e-23 3.6104831e-41)
(0.0007066046 -0.00042667816 -7.410517e-23 0.0003395324 2.021728e-23 4.6709376e-40)
(0.00053916862 -0.0003890259 -1.6600516e-22 0.00037466714 1.3369898e-22 5.3690771e-41)
(0.00041227848 -0.0003486159 -1.1022151e-24 0.00039922579 1.270102e-23 6.0827082e-41)
(0.00031746493 -0.00030884813 5.6519112e-23 0.00041345458 -7.3116208e-23 5.9784115e-41)
(0.00024683635 -0.00027166153 3.7733657e-23 0.00041858473 -5.8925029e-23 5.7871193e-41)
(0.00019389603 -0.00023788079 8.7613931e-24 0.0004163505 -2.7832951e-23 9.3391155e-41)
(0.00015369713 -0.00020763763 -6.0099929e-23 0.0004085897 8.4008985e-23 7.5723896e-41)
(0.0001226683 -0.00018074398 -1.2041113e-23 0.0003970203 -7.6819547e-24 3.2017816e-40)
(9.8239945e-05 -0.0001568275 3.3639901e-23 0.00038316039 -1.0155349e-22 5.2917947e-40)
(1.6417012e-06 -2.0521566e-07 1.6402403e-23 2.5057971e-07 -3.2815386e-24 1.8752242e-40)
(7.7373693e-06 -3.2385806e-06 -2.3406784e-23 1.6636112e-06 6.4857331e-24 1.8052272e-40)
(1.7331226e-05 -7.4842045e-06 5.198783e-23 3.3167859e-06 -1.949044e-23 1.0370219e-39)
(5.5565604e-05 -1.5796154e-05 1.4516724e-22 4.7582325e-06 -3.0990063e-23 3.48726e-39)
(0.00012195952 -2.6065877e-05 -1.0376571e-22 6.0558942e-06 1.7705701e-23 9.0703446e-40)
(0.00021801231 -3.7572809e-05 1.3085759e-22 7.2110796e-06 -1.7804828e-23 1.0021916e-39)
(0.00034689865 -4.9929703e-05 -1.7988987e-22 8.2253189e-06 2.2919533e-23 1.1010572e-39)
(0.00050950656 -6.2748854e-05 -1.8565062e-22 9.1193105e-06 1.9493784e-23 1.1639813e-39)
(0.00070513078 -7.5715526e-05 2.3397971e-22 9.9153095e-06 -2.438993e-23 1.2310632e-39)
(0.00093254216 -8.8597834e-05 -1.8192104e-22 1.0630616e-05 1.7877936e-23 6.2710474e-40)
(0.0011901902 -0.00010122119 -9.0442724e-24 1.1278335e-05 1.5166721e-25 7.2856288e-42)
(0.0014762275 -0.00011345029 5.2684448e-23 1.1868487e-05 -5.6364155e-24 2.3117613e-41)
(0.0017885991 -0.00012517845 -9.0380477e-24 1.2408738e-05 4.4093837e-25 3.6574926e-42)
(0.0021251263 -0.00013632112 2.8754948e-22 1.2905242e-05 -2.5947921e-23 1.0990171e-39)
(0.0024835578 -0.00014681386 3.0732987e-25 1.3363692e-05 5.4385289e-25 2.3706175e-42)
(0.0028616204 -0.00015661632 -4.2601287e-22 1.3790372e-05 3.9993032e-23 2.2613288e-39)
(0.0032570878 -0.00016571564 7.9403661e-23 1.4192006e-05 -8.3422703e-24 4.7841979e-41)
(0.0036677908 -0.00017411093 1.9364903e-22 1.4573548e-05 -1.9162235e-23 5.7507214e-40)
(0.0040915747 -0.00018183667 -3.1650516e-22 1.4939915e-05 3.3399495e-23 1.6303394e-39)
(0.0045259758 -0.00018912832 -1.7632928e-22 1.5287628e-05 1.9742867e-23 6.1209114e-40)
(1.8593383e-06 -8.5831633e-07 5.4067062e-24 2.2049948e-06 -2.0020852e-24 1.8587633e-41)
(9.8636732e-06 -1.1097321e-05 -1.4823905e-22 1.4659852e-05 1.1176748e-22 6.0372488e-39)
(2.213503e-05 -2.5196155e-05 2.9414925e-23 2.9219823e-05 -2.4318806e-23 5.4489376e-40)
(6.5381868e-05 -5.1145074e-05 1.5622733e-22 4.1921346e-05 -9.604685e-23 2.9149595e-39)
(0.00013759484 -8.2748089e-05 2.1718785e-22 5.3332378e-05 -1.045204e-22 3.2963515e-39)
(0.00023981203 -0.00011788855 2.6281226e-23 6.3448427e-05 -1.0560159e-23 3.0967782e-41)
(0.00037484385 -0.00015540992 -6.9938581e-22 7.2285354e-05 2.429434e-22 1.6489016e-38)
(0.00054313819 -0.00019416549 -2.4733273e-23 8.0026689e-05 1.0274189e-23 4.7840656e-42)
(0.00074359517 -0.00023323064 3.969037e-22 8.6867999e-05 -1.21282e-22 2.8154525e-39)
(0.00097462507 -0.00027192383 -9.5927657e-23 9.2961569e-05 2.6597987e-23 1.5654763e-40)
(0.0012343199 -0.00030973012 -3.6500305e-22 9.8422775e-05 1.0044295e-22 1.7372666e-39)
(0.0015204702 -0.00034624852 7.6946888e-23 0.00010333918 -1.976367e-23 7.9094288e-41)
(0.0018306503 -0.00038116051 3.2522685e-22 0.00010777668 -7.3163185e-23 1.8624809e-39)
(0.0021622937 -0.00041421005 1.3501674e-22 0.00011178668 -3.3718021e-23 2.1287806e-40)
(0.0025127304 -0.0004451963 2.7124886e-22 0.00011541506 -7.2407746e-23 6.1625164e-40)
(0.0028792364 -0.00047398415 -2.1503882e-22 0.0001187112 5.4278741e-23 5.2103634e-40)
(0.0032591603 -0.00050051784 -2.0639797e-22 0.0001217287 5.1531445e-23 5.698157e-40)
(0.0036498721 -0.00052477158 2.097344e-22 0.00012451027 -5.9311783e-23 3.2991849e-40)
(0.0040480071 -0.00054683501 1.928014e-22 0.00012710422 -5.3120322e-23 5.7606543e-40)
(0.0044496118 -0.00056761301 7.5431943e-23 0.00012949861 -1.9933992e-23 2.4444244e-40)
(2.389898e-06 -2.1967819e-06 4.1600426e-24 5.8802251e-06 -2.0853761e-24 9.7908385e-42)
(1.4910101e-05 -2.2933994e-05 1.1259458e-22 3.913363e-05 -1.205143e-22 2.572992e-39)
(3.3324987e-05 -5.0686311e-05 -2.4649518e-23 7.794376e-05 3.1769233e-23 1.3475483e-40)
(8.7075083e-05 -9.7106915e-05 -1.6975939e-22 0.00011178527 1.429957e-22 3.190532e-39)
(0.00017134059 -0.00015225669 6.2658321e-23 0.00014208395 -5.2655956e-23 9.0592335e-41)
(0.00028623084 -0.00021271787 8.3188331e-23 0.00016876165 -6.7668693e-23 4.7987261e-41)
(0.00043382116 -0.00027657939 -1.0344842e-22 0.00019185547 5.4947256e-23 2.8436911e-40)
(0.00061372641 -0.00034198378 -2.7127053e-22 0.00021185367 1.5852305e-22 5.6980596e-40)
(0.00082409056 -0.00040744503 1.1876859e-22 0.00022927578 -5.7858787e-23 1.589979e-40)
(0.0010626215 -0.00047186252 2.5237705e-22 0.00024452948 -1.0527112e-22 9.0241173e-40)
(0.0013267144 -0.00053439645 7.0997191e-23 0.00025792533 -4.8990356e-23 3.4100395e-41)
(0.0016134549 -0.00059438447 3.0930625e-22 0.00026969802 -1.0322167e-22 1.6740745e-39)
(0.0019196956 -0.00065129043 2.6328308e-23 0.00028002092 -9.7886677e-24 6.9467078e-42)
(0.0022421165 -0.00070466985 -4.6197987e-22 0.00028902366 1.5668085e-22 2.6928533e-39)
(0.002577243 -0.00075415619 3.4424933e-23 0.00029681586 -2.2464797e-23 1.4960671e-41)
(0.002921496 -0.00079947886 -2.1688332e-22 0.00030351245 6.0805341e-23 1.048845e-39)
(0.0032714343 -0.00084049567 -3.0782881e-22 0.0003092395 1.2159859e-22 4.32554e-40)
(0.0036236178 -0.00087711186 5.0162464e-22 0.00031412174 -1.9470865e-22 1.4349125e-39)
(0.0039726355 -0.00090943647 2.6615987e-22 0.00031836474 -1.0929676e-22 2.9252015e-40)
(0.0043122902 -0.00093941259 5.2947935e-23 0.00032207925 -2.3849163e-23 6.2854403e-42)
(3.5203963e-06 -4.5428314e-06 -6.2208074e-24 1.0827101e-05 7.8278696e-24 1.4384814e-41)
(2.444696e-05 -4.0724925e-05 -2.6094317e-22 7.219817e-05 3.2997961e-22 8.5394152e-39)
(5.4109892e-05 -8.782916e-05 -1.8939735e-23 0.0001436853 2.4339824e-23 1.1667785e-40)
(0.00012525574 -0.00015885634 4.385198e-23 0.00020592499 -4.8541265e-23 7.4477855e-41)
(0.00022915857 -0.00024064517 -7.0078368e-24 0.00026137596 1.7760394e-24 1.9214698e-41)
(0.00036455293 -0.00032855509 2.235354e-22 0.00030973704 -1.6395915e-22 1.4026018e-39)
(0.00053237733 -0.00041991435 2.4746445e-22 0.00035104911 -1.6175713e-22 1.2743141e-39)
(0.00073100563 -0.00051221852 -7.4885857e-23 0.00038621095 3.6256141e-23 2.0073379e-40)
(0.00095744204 -0.00060348372 -2.7555306e-22 0.00041618522 1.4416455e-22 1.2768085e-39)
(0.0012083185 -0.00069222656 -5.5715289e-22 0.00044173894 3.008356e-22 2.7094413e-39)
(0.0014799604 -0.00077729726 -1.1840774e-23 0.0004634648 -6.5973834e-24 6.1787263e-41)
(0.0017683797 -0.00085777298 7.111517e-22 0.00048181439 -3.3186145e-22 4.4272312e-39)
(0.0020693363 -0.00093288644 -2.8821859e-22 0.00049711998 1.103752e-22 1.3080444e-39)
(0.0023783992 -0.0010019841 -1.870304e-22 0.00050962645 8.2027743e-23 2.5835005e-40)
(0.0026909494 -0.0010645034 -2.3046143e-23 0.00051953079 2.5258513e-23 5.5721428e-41)
(0.0030022411 -0.0011199949 4.4542002e-22 0.00052702614 -1.9526084e-22 1.0605484e-39)
(0.0033077846 -0.0011681877 -2.533667e-22 0.00053231947 1.2639166e-22 7.1853134e-41)
(0.0036032113 -0.0012089221 -5.8221983e-22 0.0005356757 2.449221e-22 2.2827061e-39)
(0.0038807655 -0.0012423374 3.9295744e-22 0.00053774472 -1.7050739e-22 1.1480361e-39)
(0.004131777 -0.0012715911 3.3872859e-22 0.00053924725 -1.3559518e-22 1.0671005e-39)
(5.6299559e-06 -8.0905086e-06 2.7941141e-23 1.6503504e-05 -2.7153108e-23 1.8386871e-40)
(4.0571469e-05 -6.5631412e-05 8.9835914e-24 0.00011020772 -2.2618724e-24 8.325478e-41)
(8.8734676e-05 -0.00013887187 -3.6032153e-22 0.00021897659 5.1563487e-22 7.0092414e-39)
(0.00018587747 -0.00023925777 -2.0697647e-22 0.00031337711 2.1979304e-22 2.1668418e-39)
(0.00031841777 -0.00035095908 1.3795666e-22 0.00039689909 -1.0985143e-22 1.3094051e-39)
(0.00048321462 -0.00046810892 1.7212563e-22 0.00046883663 -1.3868946e-22 6.1703854e-40)
(0.00067956857 -0.00058723557 -2.2386232e-22 0.0005292215 1.4624687e-22 1.4434628e-39)
(0.00090413208 -0.00070526003 -3.4168403e-22 0.00057944418 1.9619944e-22 3.1675194e-39)
(0.0011523146 -0.00081978094 5.0742871e-22 0.00062100846 -3.0320498e-22 3.2513036e-39)
(0.0014192298 -0.00092898819 1.4512512e-22 0.00065513905 -5.8814146e-23 7.5653127e-40)
(0.0016997025 -0.0010314608 -4.6158786e-22 0.00068280703 3.0495523e-22 2.5327481e-40)
(0.001988267 -0.0011260452 2.0172432e-22 0.00070477029 -9.1832891e-23 5.8267594e-40)
(0.0022792487 -0.0012117761 0 0.00072160255 0 0)
(0.002566832 -0.0012878234 1.9780152e-22 0.00073373267 -9.6411012e-23 2.2826909e-40)
(0.002845085 -0.0013534645 -1.4877944e-22 0.00074149819 7.0707485e-23 1.2191593e-40)
(0.0031080569 -0.001408108 -2.2871398e-22 0.00074520394 1.1400773e-22 1.4830621e-40)
(0.0033503555 -0.0014513944 8.5074368e-23 0.00074513993 -6.867198e-23 2.0802011e-40)
(0.0035671427 -0.001483204 -6.9073389e-23 0.00074172143 4.1018982e-23 7.5690207e-42)
(0.003748944 -0.0015038696 3.327583e-22 0.00073639092 -1.4389514e-22 1.2349765e-39)
(0.0038844142 -0.0015176394 -2.6940715e-22 0.00073147616 1.3142019e-22 7.2617946e-41)
(9.1581027e-06 -1.2902199e-05 2.6794179e-23 2.237331e-05 -2.2527661e-23 1.4764191e-40)
(6.5655939e-05 -9.7881418e-05 1.2944452e-22 0.00014933515 -1.7229526e-22 5.5269484e-40)
(0.00014189484 -0.00020408722 -1.7377121e-22 0.00029582527 2.3045162e-22 1.3148997e-39)
(0.00027521694 -0.00033825107 -2.8599332e-22 0.00042227628 3.2147482e-22 1.1025667e-39)
(0.00044628323 -0.00048236919 -8.5231321e-23 0.0005330913 1.2410028e-22 8.6986746e-40)
(0.00064941972 -0.00062925863 -2.5902797e-22 0.0006270426 2.2735088e-22 5.4141797e-40)
(0.00088163598 -0.00077460085 -1.2007982e-22 0.00070420016 7.3947679e-23 6.2485378e-40)
(0.0011372921 -0.00091484422 2.0855924e-22 0.00076653028 -1.254706e-22 1.1526478e-39)
(0.0014096847 -0.0010472958 4.9996836e-22 0.00081617339 -2.9800886e-22 3.9470971e-39)
(0.0016919315 -0.0011699387 1.5451088e-22 0.0008549232 -9.5056159e-23 1.6562875e-40)
(0.0019769756 -0.0012812087 -1.468226e-22 0.00088424663 7.7980949e-23 2.6262854e-40)
(0.0022576053 -0.0013798587 -2.6924417e-23 0.00090532757 -6.0386074e-24 2.28671e-40)
(0.0025265928 -0.0014648765 -7.0332716e-22 0.00091909815 3.8448541e-22 2.1801197e-39)
(0.0027768314 -0.0015354313 -2.1876891e-22 0.00092628258 1.1430493e-22 2.2548879e-40)
(0.0030014319 -0.0015908439 3.6769803e-22 0.00092745639 -2.1193176e-22 1.0794661e-40)
(0.0031938894 -0.0016306 -3.6714102e-22 0.00092310562 1.9782653e-22 2.2377125e-40)
(0.0033488491 -0.0016544535 -1.2973767e-22 0.00091360916 6.3761297e-23 7.1359068e-41)
(0.0034624008 -0.0016625352 2.9151066e-22 0.00089943067 -1.2312464e-22 1.10796e-39)
(0.003525376 -0.0016556724 4.4392387e-22 0.00088291046 -2.2113016e-22 8.4159344e-40)
(0.0035240016 -0.0016388561 5.3983825e-23 0.00086922187 -2.5183264e-23 1.6372746e-41)
(1.4573263e-05 -1.8912998e-05 -7.5564094e-23 2.794996e-05 6.1348486e-23 8.7351046e-40)
(0.00010206868 -0.00013674686 -8.359824e-23 0.00018595345 8.480591e-23 6.9625141e-40)
(0.00021803407 -0.00028163622 2.1328722e-22 0.00036660807 -2.6904008e-22 3.2312791e-40)
(0.00039869311 -0.00045257196 3.2456924e-22 0.00052128838 -3.3587341e-22 1.4614215e-39)
(0.00061800136 -0.00062979906 4.240323e-24 0.00065514866 -3.8150184e-24 2.8997714e-43)
(0.00086688403 -0.00080470973 -8.8259088e-22 0.00076647249 7.2750522e-22 8.5310048e-39)
(0.0011392766 -0.00097215396 -3.4734765e-22 0.00085551954 2.9652594e-22 1.2326967e-40)
(0.0014266466 -0.0011282908 2.6916923e-22 0.00092495011 -1.8140676e-22 9.359356e-40)
(0.0017197335 -0.0012703706 3.095598e-22 0.0009776479 -2.0757743e-22 5.7270052e-40)
(0.0020093784 -0.0013964246 -3.031067e-22 0.0010160919 1.6875643e-22 1.571074e-39)
(0.0022865463 -0.0015050172 -8.9544266e-22 0.0010423699 5.6373455e-22 2.2937976e-39)
(0.0025424496 -0.0015951078 5.9005315e-22 0.001058217 -3.5661897e-22 9.431253e-40)
(0.0027687972 -0.0016659692 3.5134238e-22 0.001065048 -1.8310657e-22 1.1282259e-39)
(0.0029580544 -0.0017171363 -4.887405e-22 0.0010640018 2.690131e-22 9.3188709e-40)
(0.0031036569 -0.0017483733 2.1538396e-22 0.001055998 -1.2379924e-22 6.2698324e-41)
(0.0032002489 -0.0017596608 3.581202e-22 0.0010417809 -1.840352e-22 6.9391067e-40)
(0.0032445244 -0.0017512393 1.3680068e-22 0.0010218259 -7.6725158e-23 2.3743902e-41)
(0.0032358282 -0.0017237569 -2.3485215e-22 0.00099644588 1.4398924e-22 3.0334887e-41)
(0.0031685566 -0.001678755 -5.4989643e-23 0.00096850817 1.8144898e-23 1.7169547e-40)
(0.0030281343 -0.0016213683 3.0895832e-22 0.00094682486 -1.7735428e-22 7.058183e-41)
(2.2337728e-05 -2.5932037e-05 -2.2007542e-24 3.2801477e-05 -2.4281995e-24 1.6389902e-41)