/*--------------------------------*- C++ -*----------------------------------*\
  =========                 |
  \\      /  F ield         | OpenFOAM: The Open Source CFD Toolbox
   \\    /   O peration     | Website:  https://openfoam.org
    \\  /    A nd           | Version:  6
     \\/     M anipulation  |
\*---------------------------------------------------------------------------*/
FoamFile
{
    version     2.0;
    format      ascii;
    class       volScalarField;
    location    "340";
    object      pPrime2Mean;
}
// * * * * * * * * * * * * * * * * * * * * * * * * * * * * * * * * * * * * * //

dimensions      [0 4 -4 0 0 0 0];

internalField   nonuniform List<scalar> 
9200
(
0.033128835
0.027467773
0.022674675
0.019553673
0.017061932
0.014961299
0.013148307
0.011570166
0.010191733
0.008984877
0.0079263065
0.0069965116
0.006179029
0.0054598821
0.0048271444
0.0042706177
0.0037816682
0.0033530885
0.0029794695
0.0026536857
0.026881518
0.022247418
0.018371775
0.015823647
0.013778667
0.012049456
0.01055474
0.0092530418
0.0081164281
0.0071223984
0.0062521785
0.005489899
0.0048220308
0.0042369506
0.0037246055
0.0032762746
0.0028844428
0.0025426258
0.0022447394
0.0019820991
0.021023444
0.017377193
0.014363219
0.012354562
0.010729355
0.0093482118
0.0081511295
0.0071075837
0.0061967432
0.0054015875
0.0047076395
0.0041023912
0.0035749245
0.0031156312
0.0027160132
0.0023685514
0.0020666315
0.0018044035
0.0015759719
0.001373614
0.015717013
0.012988263
0.010754209
0.0092361853
0.0079922102
0.0069265599
0.0059989911
0.0051892749
0.0044832964
0.0038690861
0.0033359939
0.0028743914
0.0024755211
0.0021314141
0.001834855
0.0015793714
0.0013592216
0.0011693029
0.0010045741
0.00085919019
0.011108512
0.0091985007
0.0076416027
0.006552093
0.0056408628
0.004850278
0.0041577718
0.0035524155
0.0030261033
0.0025712003
0.0021801866
0.0018456917
0.0015606203
0.0013182939
0.0011125812
0.00093798832
0.00078969191
0.00066348769
0.00055548875
0.00046177021
0.007326854
0.0061105956
0.0051112878
0.004377015
0.0037416546
0.0031791505
0.0026819713
0.0022471032
0.0018713972
0.0015505779
0.0012794089
0.0010521115
0.00086278776
0.00070577086
0.00057587601
0.000468542
0.00037986785
0.00030657064
0.0002458737
0.00019534714
0.0044798395
0.0038096203
0.0032363019
0.002775241
0.0023522243
0.0019655996
0.0016196916
0.0013176298
0.0010598796
0.00084439591
0.00066734836
0.00052393774
0.00040908455
0.00031792351
0.00024610308
0.00018991801
0.00014631454
0.00011283407
8.7597146e-05
6.9178678e-05
0.0026514299
0.0023613595
0.0020755065
0.0017993863
0.0015202491
0.0012533004
0.0010110845
0.00080080189
0.00062502593
0.00048279346
0.00037087725
0.0002849509
0.00022045707
0.00017315353
0.00013938775
0.0001161761
0.00010116109
9.2533357e-05
8.903926e-05
8.9837903e-05
0.0018994164
0.0018104585
0.0016711138
0.0014877091
0.0012809775
0.0010751245
0.00088675815
0.00072479669
0.00059235213
0.00048849976
0.00040998259
0.00035259005
0.00031207344
0.00028464756
0.0002671877
0.00025723873
0.00025292915
0.0002528753
0.00025616312
0.00026219154
0.0022529412
0.0021789512
0.0020461136
0.0018616369
0.0016548859
0.0014506982
0.0012651572
0.0011064511
0.00097678297
0.00087444595
0.0007957216
0.00073627993
0.00069200445
0.0006593742
0.00063556653
0.00061840562
0.00060625204
0.00059789636
0.00059248118
0.00058935003
0.078537715
0.066055086
0.054594244
0.047346911
0.041592205
0.0367617
0.032602683
0.028978821
0.025805707
0.023017007
0.02055853
0.018385411
0.016460072
0.014750744
0.013230376
0.011875796
0.010667061
0.0095863102
0.0086167683
0.0077487336
0.077538654
0.065150934
0.053821292
0.046657176
0.040974534
0.036205581
0.032099838
0.028523211
0.025392262
0.022641295
0.02021663
0.018073835
0.016175705
0.014490796
0.012992346
0.011657446
0.010466416
0.009401655
0.0084462912
0.0075909558
0.075500759
0.063360846
0.052314703
0.045328673
0.039793577
0.0351494
0.031151054
0.027668643
0.024620917
0.021943758
0.019584739
0.01750045
0.015654542
0.014016302
0.012559599
0.011262086
0.010104614
0.0090701058
0.0081417432
0.0073103213
0.072459615
0.060728282
0.050117998
0.043402636
0.038086661
0.033626951
0.029787265
0.026443639
0.023518103
0.020949002
0.018685874
0.016686904
0.014917063
0.013346756
0.011950806
0.010707688
0.009598998
0.0086084169
0.0077194639
0.0069228152
0.068498228
0.057327926
0.047294798
0.040935963
0.035904828
0.03168425
0.028050254
0.02488635
0.022118816
0.019689255
0.017549817
0.015660811
0.013988963
0.012506148
0.011188438
0.010015359
0.008969412
0.0080352102
0.0071970896
0.0064454832
0.063729429
0.053258704
0.043927616
0.038001361
0.03331285
0.029379319
0.02599223
0.023043904
0.020465715
0.01820322
0.016211754
0.014454218
0.012899481
0.011521209
0.010296982
0.0092075865
0.0082365486
0.007369499
0.0065921291
0.0058949202
0.05829022
0.048639261
0.040114131
0.034684105
0.030386319
0.026779589
0.023673537
0.020970388
0.018607346
0.016534512
0.014710893
0.013102392
0.011680366
0.010420565
0.009302321
0.0083078839
0.0074219249
0.0066311001
0.0059228493
0.0052883395
0.052336816
0.043603764
0.03596405
0.031079416
0.02720931
0.023959785
0.021160762
0.018725209
0.016596738
0.014730473
0.013089497
0.011643063
0.010365319
0.009234368
0.008231533
0.0073407383
0.006547986
0.0058410161
0.0052092423
0.0046451516
0.046038991
0.038296888
0.031595124
0.027288958
0.023871248
0.02099914
0.018524283
0.016370897
0.014489444
0.012840446
0.011391386
0.010115147
0.0089889241
0.0079934026
0.0071121116
0.0063308674
0.0056372583
0.0050203498
0.0044717801
0.003985398
0.039573925
0.032869768
0.027128941
0.023416395
0.020462576
0.017977323
0.015834506
0.013969768
0.012340695
0.010913454
0.009660134
0.0085574298
0.0075857335
0.0067284486
0.0059714507
0.005302646
0.0047116205
0.0041896008
0.0037311714
0.0033304748
0.006833104
0.0059203821
0.0051466354
0.0044750475
0.0039014726
0.0034102963
0.0029879681
0.0026228621
0.0023055266
0.0020282857
0.0017849231
0.0015704591
0.0013808973
0.0012129889
0.0010640569
0.00093186653
0.00081452725
0.00071041786
0.00061813159
0.00053643496
0.00046423646
0.00040056239
0.00034453821
0.00029537396
0.00025235307
0.00021482358
0.00018219136
0.00015391458
0.00012949947
0.00010849662
9.049794e-05
7.5133975e-05
6.2071407e-05
5.1010692e-05
4.1683858e-05
3.3852231e-05
2.7304355e-05
2.1853728e-05
1.7336943e-05
1.3611119e-05
1.0553278e-05
8.0548901e-06
6.0295254e-06
4.3873214e-06
3.0921422e-06
2.0265903e-06
1.2871519e-06
5.9371445e-07
7.7890164e-07
1.3001044e-06
0.0067006634
0.0058181511
0.0050664982
0.0044118823
0.003852244
0.0033723194
0.002958692
0.0026001739
0.0022877956
0.0020142636
0.0017736805
0.0015613297
0.0013734084
0.0012068009
0.0010589196
0.00092759088
0.00081096577
0.00070745217
0.00061566459
0.00053438585
0.00046253738
0.00039915613
0.00034337645
0.00029441593
0.00025156441
0.00021417543
0.00018165951
0.00015347885
0.00012914302
0.00010820547
9.0260531e-05
7.4940731e-05
6.1914432e-05
5.088348e-05
4.1581054e-05
3.3769429e-05
2.7237931e-05
2.1800703e-05
1.729487e-05
1.3577988e-05
1.0527442e-05
8.0350021e-06
6.0144893e-06
4.3762632e-06
3.0843521e-06
2.0215044e-06
1.2844531e-06
5.9210058e-07
7.7433649e-07
1.2752186e-06
0.0064676563
0.0056394936
0.0049278258
0.0043043422
0.0037697312
0.0033096472
0.0029110916
0.00256375
0.0022596089
0.0019921326
0.0017560238
0.0015470376
0.0013617092
0.0011971478
0.0010509145
0.00092093486
0.0008054264
0.00070284331
0.00061183367
0.00053120593
0.00045990193
0.00039697531
0.00034157451
0.00029292905
0.00025033895
0.00021316645
0.00018082949
0.00015279656
0.00012858256
0.00010774542
8.988321e-05
7.4631584e-05
6.1661479e-05
5.0676869e-05
4.1412677e-05
3.3632614e-05
2.7127177e-05
2.1711471e-05
1.722341e-05
1.35212e-05
1.0482762e-05
8.0003187e-06
5.9880689e-06
4.3567001e-06
3.0705176e-06
2.0124483e-06
1.279716e-06
5.8924583e-07
7.6521009e-07
1.2266036e-06
0.0061484254
0.0053954806
0.004740614
0.0041621168
0.0036625961
0.0032294497
0.002850872
0.002518005
0.0022243194
0.0019644441
0.0017339339
0.0015291623
0.0013470907
0.0011851067
0.0010409525
0.00091267379
0.00079857055
0.00069715489
0.00060711767
0.00052730043
0.00045667147
0.00039430623
0.00033937138
0.0002911119
0.00024884096
0.00021193193
0.00017981221
0.00015195827
0.00012789171
0.00010717605
8.941401e-05
7.4245077e-05
6.1343334e-05
5.0415332e-05
4.119809e-05
3.3457027e-05
2.6984024e-05
2.1595317e-05
1.7129741e-05
1.3446262e-05
1.0423432e-05
7.9539961e-06
5.9526065e-06
4.330339e-06
3.0518335e-06
2.0002348e-06
1.27335e-06
5.8549361e-07
7.5151417e-07
1.1567446e-06
0.0057570304
0.0050973586
0.0045151247
0.0039950485
0.0035395105
0.0031386334
0.002783258
0.0024668236
0.002184813
0.0019333905
0.0017091477
0.0015091386
0.0013307742
0.0011717358
0.001029958
0.00090361687
0.00079110447
0.00069100029
0.00060204623
0.00052312384
0.00045323366
0.00039147755
0.00033704413
0.0002891968
0.00024726419
0.00021063265
0.00017874044
0.00015107308
0.00012715969
0.00010656999
8.8911759e-05
7.3828636e-05
6.0998048e-05
5.0129245e-05
4.0961417e-05
3.3261723e-05
2.6823438e-05
2.1463922e-05
1.7022921e-05
1.3360147e-05
1.0354766e-05
7.9000422e-06
5.9110794e-06
4.2993475e-06
3.0298138e-06
1.9858909e-06
1.2658576e-06
5.8128433e-07
7.333751e-07
1.0692932e-06
0.0053054343
0.0047553176
0.0042605876
0.0038111203
0.003406791
0.0030416159
0.002711122
0.00241213
0.0021425086
0.0019001328
0.0016826967
0.0014879251
0.0013136597
0.0011578742
0.0010187039
0.00089446683
0.00078365936
0.00068494015
0.00059711238
0.00051910591
0.00044996005
0.00038880817
0.00033486463
0.00028741405
0.00024580257
0.00020943097
0.00017774935
0.00015025294
0.00012647873
0.00010600282
8.8438096e-05
7.3432265e-05
6.0665973e-05
4.9851006e-05
4.0728526e-05
3.3067241e-05
2.6661629e-05
2.1330001e-05
1.6912851e-05
1.3270499e-05
1.0282616e-05
7.842882e-06
5.8667795e-06
4.2661245e-06
3.0061264e-06
1.9705404e-06
1.2577658e-06
5.77088e-07
7.1099684e-07
9.6868172e-07
0.0048053071
0.0043795418
0.0039852096
0.0036151337
0.0032664847
0.002938802
0.0026341438
0.0023535779
0.002097383
0.0018650016
0.0016551678
0.0014662607
0.0012965554
0.0011443379
0.0010079745
0.00088595336
0.00077689895
0.00067956811
0.00059284007
0.00051570412
0.00044724646
0.00038663779
0.00033312233
0.00028600868
0.00024466224
0.00020849931
0.00017698238
0.00014961653
0.00012594652
0.00010555454
8.80582e-05
7.3108808e-05
6.038974e-05
4.9614823e-05
4.0526725e-05
3.2895257e-05
2.6515702e-05
2.1206958e-05
1.6809962e-05
1.3185369e-05
1.0213127e-05
7.7871501e-06
5.8231396e-06
4.2331535e-06
2.9824797e-06
1.9553198e-06
1.2495803e-06
5.7335646e-07
6.8465394e-07
8.5970435e-07
0.0042712221
0.0039816638
0.0036952846
0.0034063836
0.0031142273
0.0028256348
0.0025489575
0.002289174
0.0020486197
0.0018280246
0.0016270952
0.0014449362
0.0012803516
0.0011320238
0.00099861921
0.00087885108
0.0007715122
0.00067548626
0.00058974863
0.00051336185
0.00044546831
0.00038528209
0.00033208106
0.00028519995
0.00024402455
0.00020798693
0.0001765618
0.00014926356
0.00012564401
0.00010529059
8.7824731e-05
7.2900446e-05
6.0202977e-05
4.9447377e-05
4.0377072e-05
3.2762306e-05
2.6398559e-05
2.1104804e-05
1.672196e-05
1.3110641e-05
1.0150749e-05
7.7361667e-06
5.7825904e-06
4.2021739e-06
2.9600387e-06
1.9409909e-06
1.2415589e-06
5.7039026e-07
6.5465496e-07
7.4717283e-07
0.0037176747
0.0035666334
0.0033841166
0.0031697015
0.0029335484
0.0026886732
0.0024458087
0.0022119778
0.0019912028
0.0017855103
0.0015956994
0.0014217978
0.0012633354
0.0011195421
0.00098949394
0.00087220885
0.00076670432
0.00067202954
0.00058728231
0.00051161621
0.00044424179
0.00038442445
0.00033148101
0.00028477585
0.00024371732
0.0002077547
0.00017637565
0.00014910427
0.00012549949
0.00010515385
8.76923e-05
7.2771208e-05
6.0077249e-05
4.9326257e-05
4.0261967e-05
3.2654619e-05
2.6299497e-05
2.1015271e-05
1.6642524e-05
1.3041536e-05
1.0091924e-05
7.6873341e-06
5.7432762e-06
4.1718984e-06
2.9379158e-06
1.9269816e-06
1.2332026e-06
5.6806343e-07
6.2145877e-07
6.3602734e-07
0.0031669848
0.0031217054
0.0030220675
0.0028776332
0.0027034731
0.0025120243
0.0023123872
0.0021121818
0.0019171125
0.0017308385
0.001555529
0.0013923708
0.0012418379
0.0011038873
0.00097813988
0.00086401834
0.0007608382
0.00066786709
0.00058436296
0.00050959732
0.00044286822
0.00038350649
0.00033087824
0.00028438525
0.00024346437
0.00020758652
0.00017625578
0.00014900855
0.00012541283
0.00010506768
8.7602629e-05
7.2677066e-05
5.9979545e-05
4.9226927e-05
4.0163361e-05
3.2559094e-05
2.620915e-05
2.0931805e-05
1.6567184e-05
1.2975115e-05
1.0034814e-05
7.6395764e-06
5.7046359e-06
4.1420672e-06
2.9160303e-06
1.9132139e-06
1.2244517e-06
5.6625232e-07
5.8632063e-07
5.3148144e-07
0.0025681112
0.0025835844
0.0025513409
0.0024739145
0.0023653325
0.002234671
0.002088197
0.0019327011
0.0017744392
0.0016180156
0.0014666093
0.0013224151
0.0011868395
0.0010606446
0.00094411853
0.00083722553
0.00073971372
0.00065119176
0.0005711843
0.00049917063
0.00043461037
0.00037696008
0.00032568382
0.00028025985
0.00024018494
0.00020497706
0.00017417734
0.00014735135
0.00012409017
0.00010401103
8.675783e-05
7.2001302e-05
5.9438924e-05
4.8794591e-05
3.9817978e-05
3.2283685e-05
2.5990158e-05
2.0758374e-05
1.643059e-05
1.286834e-05
9.9521703e-06
7.5765595e-06
5.6574102e-06
4.1080971e-06
2.8920181e-06
1.8992386e-06
1.2144353e-06
5.6512965e-07
5.4966623e-07
4.3938504e-07
0.0019909305
0.0020403577
0.0020504645
0.0020208844
0.0019627084
0.0018825932
0.0017842722
0.0016729648
0.0015542608
0.0014325684
0.0013111765
0.0011926152
0.0010787476
0.00097082599
0.00086961567
0.00077552176
0.00068868493
0.00060905428
0.00053644482
0.00047058093
0.00041112784
0.00035771401
0.00030994712
0.00026742544
0.00022974614
0.00019651135
0.00016733275
0.0001418352
0.00011965954
0.0001004648
8.3929901e-05
6.9754907e-05
5.7661793e-05
4.7394855e-05
3.8720712e-05
3.1427989e-05
2.5326702e-05
2.0247345e-05
1.6039953e-05
1.2572457e-05
9.7304972e-06
7.412964e-06
5.5386441e-06
4.0248422e-06
2.8344489e-06
1.864815e-06
1.1901215e-06
5.5931353e-07
5.0266692e-07
3.5164231e-07
0.0014943664
0.0015663421
0.0016060955
0.0016132824
0.0015946258
0.0015549709
0.0014966268
0.0014233013
0.0013395887
0.0012494251
0.0011559366
0.0010617099
0.00096882568
0.00087884391
0.0007928709
0.00071165397
0.00063565798
0.00056512701
0.00050013729
0.00044064054
0.00038649751
0.0003375035
0.00029340789
0.00025392904
0.00021876567
0.00018760579
0.00016013365
0.00013603541
0.00011500364
9.6740978e-05
8.0963033e-05
6.7400656e-05
5.5801606e-05
4.5931691e-05
3.7575427e-05
3.053627e-05
2.4636481e-05
1.971663e-05
1.5634994e-05
1.2266278e-05
9.501512e-06
7.2442665e-06
5.4163238e-06
3.9392558e-06
2.7750839e-06
1.8296024e-06
1.1640269e-06
5.542575e-07
4.5141697e-07
2.690569e-07
0.0010769918
0.0011607903
0.0012188237
0.0012515337
0.0012618645
0.0012530146
0.0012264975
0.0011847302
0.0011311176
0.0010688994
0.0010008334
0.0009293349
0.00085648187
0.00078395743
0.00071306393
0.00064477924
0.00057980961
0.00051863535
0.0004615537
0.00040871719
0.00036016548
0.00031585115
0.00027566048
0.00023943023
0.00020696105
0.00017802839
0.00015239134
0.0001297999
0.00011000098
9.2743347e-05
7.7781671e-05
6.4879738e-05
5.3812992e-05
4.4370422e-05
3.6355878e-05
2.9588869e-05
2.3904931e-05
1.9155569e-05
1.5208008e-05
1.1944306e-05
9.261347e-06
7.0677608e-06
5.2886039e-06
3.8499923e-06
2.7130896e-06
1.7927184e-06
1.1359673e-06
5.4912389e-07
3.9961958e-07
1.981089e-07
0.00074129238
0.00082585752
0.00089168569
0.00093921452
0.0009686144
0.00098149537
0.00097875535
0.00096180529
0.00093288673
0.00089441798
0.00084864484
0.00079764784
0.00074332258
0.00068730791
0.00063095967
0.00057536936
0.00052139181
0.00046967275
0.00042067817
0.00037472393
0.00033200256
0.00029260649
0.00025654786
0.00022377532
0.00019418818
0.0001676482
0.00014398963
0.00012302753
0.00010456494
8.8398762e-05
7.4324788e-05
6.214178e-05
5.165478e-05
4.2677703e-05
3.5035284e-05
2.8564452e-05
2.311519e-05
1.8550938e-05
1.4748708e-05
1.1598603e-05
9.0039358e-06
6.8788468e-06
5.1520514e-06
3.754475e-06
2.6466513e-06
1.7527099e-06
1.1052373e-06
5.4298732e-07
3.4938158e-07
1.4219532e-07
0.00048419405
0.00056062138
0.00062540845
0.0006783945
0.00071799584
0.00074443003
0.00075795452
0.00075918656
0.00074936988
0.00073009213
0.00070300699
0.00066975759
0.00063193255
0.00059099332
0.00054822458
0.00050472188
0.00046139599
0.0004189827
0.00037805766
0.00033905493
0.00030228632
0.00026795975
0.00023619603
0.00020704408
0.00018049427
0.00015649018
0.00013493879
0.00011571938
9.86912e-05
8.370011e-05
7.058421e-05
5.9178621e-05
4.9319437e-05
4.084693e-05
3.3608077e-05
2.745846e-05
2.2263616e-05
1.7899882e-05
1.4254888e-05
1.1227477e-05
8.7279864e-06
6.6765225e-06
5.0058905e-06
3.6520457e-06
2.575285e-06
1.7090175e-06
1.0717148e-06
5.3517819e-07
3.0244055e-07
1.0249477e-07
0.00029735923
0.00036016791
0.00041753074
0.00046863087
0.00051103978
0.00054397527
0.00056707664
0.0005803201
0.0005841561
0.0005794247
0.00056717858
0.00054857921
0.00052483583
0.00049713978
0.00046660685
0.00043424349
0.00040093185
0.00036742439
0.00033434524
0.00030219737
0.00027137307
0.0002421659
0.000214783
0.00018935713
0.00016595808
0.00014460318
0.0001252669
0.00010788953
9.2384841e-05
7.8647003e-05
6.6556524e-05
5.5985455e-05
4.6801803e-05
3.8873207e-05
3.2069945e-05
2.6267294e-05
2.1347327e-05
1.7200171e-05
1.372487e-05
1.0829695e-05
8.4325991e-06
6.4601233e-06
4.849628e-06
3.5422855e-06
2.498704e-06
1.6612489e-06
1.0354663e-06
5.2508853e-07
2.6014739e-07
7.8088933e-08
0.00016998871
0.00021684277
0.00026298577
0.00030717992
0.00034682732
0.00038059647
0.00040765278
0.0004274862
0.00043995988
0.00044530479
0.00044402645
0.00043681481
0.00042448048
0.00040789602
0.00038794177
0.00036546441
0.00034124808
0.0003159969
0.00029032555
0.0002647563
0.00023972081
0.00021556501
0.00019255603
0.00017089009
0.00015070093
0.00013206824
0.00011502577
9.9569094e-05
8.5662769e-05
7.3246949e-05
6.224333e-05
5.2560439e-05
4.4098272e-05
3.6752263e-05
3.0416627e-05
2.4987082e-05
2.0363017e-05
1.6449113e-05
1.3156543e-05
1.0403647e-05
8.1165798e-06
6.2287725e-06
4.6826313e-06
3.4247108e-06
2.4166068e-06
1.6090719e-06
9.966411e-07
5.1224208e-07
2.2330686e-07
6.6197483e-08
9.0788819e-05
0.00012164047
0.00015498629
0.00018944517
0.00022265522
0.00025311485
0.00027973244
0.00030168937
0.00031845775
0.00032982197
0.0003358408
0.00033678726
0.00033309601
0.00032531556
0.00031406143
0.00029997546
0.00028369346
0.00026581987
0.00024691033
0.00022746099
0.00020790283
0.00018860011
0.00016985157
0.00015189385
0.00013490632
0.0001190167
0.00010430711
9.0820297e-05
7.8565704e-05
6.7525385e-05
5.7659497e-05
4.8911381e-05
4.1212137e-05
3.4484675e-05
2.8647215e-05
2.3616238e-05
1.9308921e-05
1.5645046e-05
1.2548489e-05
9.9482059e-06
7.7790796e-06
5.981861e-06
4.5044882e-06
3.2990484e-06
2.3288762e-06
1.5523883e-06
9.5554226e-07
4.9645339e-07
1.9222258e-07
6.2892606e-08
4.9107789e-05
6.5362042e-05
8.5984794e-05
0.00010966062
0.00013445242
0.00015894549
0.00018200219
0.00020267425
0.00022022126
0.00023414376
0.00024417848
0.00025026803
0.00025252672
0.0002512066
0.00024666223
0.00023931582
0.00022962638
0.00021806373
0.00020508704
0.00019112882
0.00017658404
0.00016180311
0.00014708831
0.00013269275
0.00011882144
0.00010563381
9.3247329e-05
8.1741676e-05
7.116337e-05
6.1530509e-05
5.2837474e-05
4.5059458e-05
3.8156712e-05
3.2078428e-05
2.6766206e-05
2.2157076e-05
1.8186063e-05
1.4788299e-05
1.1900708e-05
9.4632636e-06
7.4199976e-06
5.7193466e-06
4.3152281e-06
3.1653979e-06
2.2356944e-06
1.4914167e-06
9.1263669e-07
4.7788035e-07
1.6680816e-07
6.4070182e-08
3.5584952e-05
3.9415221e-05
4.8457577e-05
6.158071e-05
7.7320199e-05
9.4487039e-05
0.00011205184
0.0001290855
0.00014478461
0.00015851136
0.00016980763
0.00017838742
0.0001841212
0.000187017
0.00018719787
0.00018487687
0.00018033164
0.00017388104
0.00016586444
0.00015662406
0.00014649083
0.00013577404
0.0001247539
0.00011367696
0.00010275375
9.2158273e-05
8.2028949e-05
7.2470682e-05
6.3557647e-05
5.5336606e-05
4.7830501e-05
4.1042149e-05
3.495789e-05
2.9551069e-05
2.4785265e-05
2.0617211e-05
1.6999346e-05
1.3882004e-05
1.1215223e-05
8.9501654e-06
7.0402827e-06
5.4419588e-06
4.1154583e-06
3.0243173e-06
2.1375932e-06
1.4267134e-06
8.6853453e-07
4.5700847e-07
1.4671178e-07
6.635368e-08
4.2407007e-05
3.6250227e-05
3.5427467e-05
3.9033719e-05
4.6045026e-05
5.5547285e-05
6.6704056e-05
7.8705554e-05
9.0795845e-05
0.00010231506
0.00011272285
0.00012160497
0.00012867227
0.00013375499
0.00013679247
0.0001378185
0.00013694414
0.00013433957
0.00013021664
0.00012481273
0.00011837637
0.00011115521
0.00010338657
9.5290252e-05
8.7063605e-05
7.8878405e-05
7.0879409e-05
6.3184225e-05
5.5884236e-05
4.9046325e-05
4.2715147e-05
3.6915773e-05
3.165652e-05
2.6931823e-05
2.2725032e-05
1.9011051e-05
1.5758736e-05
1.2933025e-05
1.0496761e-05
8.4122039e-06
6.6422754e-06
5.1514204e-06
3.9064967e-06
2.8768864e-06
2.0354716e-06
1.3591392e-06
8.2393173e-07
4.3454933e-07
1.3137961e-07
6.7625474e-08
6.329788e-05
4.9525529e-05
4.0755831e-05
3.6302126e-05
3.5509946e-05
3.7732262e-05
4.2351729e-05
4.8728119e-05
5.6221039e-05
6.4229713e-05
7.2218907e-05
7.9732415e-05
8.6400944e-05
9.1946155e-05
9.6180141e-05
9.9000222e-05
0.00010038004
0.00010035826
9.9026029e-05
9.6514175e-05
9.2980824e-05
8.8599962e-05
8.355143e-05
7.8012666e-05
7.2152103e-05
6.6124272e-05
6.0066396e-05
5.4096404e-05
4.8312087e-05
4.2791243e-05
3.7592562e-05
3.2757104e-05
2.8310148e-05
2.4263299e-05
2.0616688e-05
1.7361168e-05
1.4480417e-05
1.1952875e-05
9.7534792e-06
7.8551563e-06
6.2300886e-06
4.850701e-06
3.6905258e-06
2.724779e-06
1.9306148e-06
1.2898174e-06
7.7956613e-07
4.1132269e-07
1.2008971e-07
6.7064383e-08
9.3367915e-05
7.4101042e-05
5.9259714e-05
4.8342562e-05
4.0981176e-05
3.6757571e-05
3.5260658e-05
3.6030006e-05
3.8570882e-05
4.2388095e-05
4.7009822e-05
5.2002496e-05
5.6982483e-05
6.1625573e-05
6.567298e-05
6.8933236e-05
7.1280368e-05
7.2649119e-05
7.3028014e-05
7.2450955e-05
7.0988086e-05
6.873652e-05
6.5811435e-05
6.2337977e-05
5.8444252e-05
5.4255489e-05
4.9889466e-05
4.5453109e-05
4.1040249e-05
3.6730353e-05
3.2588118e-05
2.8663763e-05
2.499386e-05
2.1602561e-05
1.8503096e-05
1.5699397e-05
1.3187782e-05
1.095858e-05
8.9976639e-06
7.2878315e-06
5.8100141e-06
4.5442985e-06
3.47077e-06
2.5703521e-06
1.824722e-06
1.2200937e-06
7.3618512e-07
3.8813822e-07
1.1197993e-07
6.4779645e-08
0.00012890255
0.00010593099
8.6708094e-05
7.0877444e-05
5.8276581e-05
4.866729e-05
4.1811357e-05
3.7412316e-05
3.5122629e-05
3.4570144e-05
3.5377383e-05
3.7174451e-05
3.9610712e-05
4.2365992e-05
4.5159756e-05
4.7757313e-05
4.9972986e-05
5.1670556e-05
5.2761351e-05
5.3200381e-05
5.2980994e-05
5.2128593e-05
5.0693916e-05
4.8746274e-05
4.6367166e-05
4.3644501e-05
4.0667601e-05
3.7523106e-05
3.4291762e-05
3.1046128e-05
2.7849082e-05
2.4753065e-05
2.179993e-05
1.9021297e-05
1.6439277e-05
1.4067471e-05
1.1912118e-05
9.9733288e-06
8.2463158e-06
6.7225656e-06
5.3909182e-06
4.238536e-06
3.251703e-06
2.4167721e-06
1.7199738e-06
1.1515398e-06
6.9456626e-07
3.657366e-07
1.0613955e-07
6.1306223e-08
0.00016714187
0.00014191068
0.00011974497
0.00010039573
8.3838061e-05
6.9964737e-05
5.8670135e-05
4.9792665e-05
4.3115616e-05
3.83865e-05
3.5331145e-05
3.3663075e-05
3.3092982e-05
3.3339021e-05
3.4136449e-05
3.5245544e-05
3.6457482e-05
3.7598192e-05
3.8530195e-05
3.9152548e-05
3.9399099e-05
3.9235389e-05
3.8654579e-05
3.767276e-05
3.6323993e-05
3.4655399e-05
3.2722543e-05
3.0585276e-05
2.8304194e-05
2.5937728e-05
2.3539938e-05
2.1158941e-05
1.8835944e-05
1.6604797e-05
1.4491988e-05
1.2516977e-05
1.0692791e-05
9.0267869e-06
7.5215067e-06
6.1755712e-06
4.9845535e-06
3.9418202e-06
3.0392462e-06
2.2681526e-06
1.6191212e-06
1.0859943e-06
6.5557364e-07
3.4478438e-07
1.0175232e-07
5.721121e-08
0.00020607963
0.000179713
0.00015577607
0.00013409676
0.0001147341
9.7669713e-05
8.2891844e-05
7.0340905e-05
5.9906052e-05
5.1438657e-05
4.4761664e-05
3.967527e-05
3.5963341e-05
3.3401397e-05
3.1764955e-05
3.0837187e-05
3.0415547e-05
3.0317197e-05
3.0383065e-05
3.0480416e-05
3.0503931e-05
3.0375407e-05
3.0042285e-05
2.9475235e-05
2.8665075e-05
2.7619279e-05
2.6358329e-05
2.491214e-05
2.3316703e-05
2.1611113e-05
1.9835028e-05
1.802663e-05
1.6221083e-05
1.4449459e-05
1.273811e-05
1.1108398e-05
9.5767382e-06
8.1548797e-06
6.8503501e-06
5.6670142e-06
4.605687e-06
3.6647831e-06
2.8409011e-06
2.1296664e-06
1.5255766e-06
1.0256299e-06
6.2024364e-07
3.2592196e-07
9.8252224e-08
5.292406e-08
0.00024429236
0.00021763462
0.0001928445
0.0001698041
0.0001486172
0.00012932105
0.00011196485
9.6560233e-05
8.3075436e-05
7.1444387e-05
6.1572376e-05
5.3338593e-05
4.6599592e-05
4.1194579e-05
3.6951615e-05
3.3693841e-05
3.1245473e-05
2.9437319e-05
2.8111634e-05
2.7126035e-05
2.635636e-05
2.5698399e-05
2.506855e-05
2.4403472e-05
2.3658914e-05
2.2807863e-05
2.183823e-05
2.0750269e-05
1.9553893e-05
1.8266067e-05
1.6908377e-05
1.5504877e-05
1.4080282e-05
1.2658515e-05
1.1261617e-05
9.9090086e-06
8.6170526e-06
7.3988826e-06
6.2644434e-06
5.2206964e-06
4.271939e-06
3.4202187e-06
2.6657436e-06
2.0075695e-06
1.4434537e-06
9.7300572e-07
5.8985554e-07
3.0982484e-07
9.5410524e-08
4.8734427e-08
0.00028080017
0.00025446155
0.00022951103
0.00020586884
0.00018365671
0.00016294309
0.00014381251
0.00012632204
0.0001104945
9.6324474e-05
8.3781452e-05
7.2810088e-05
6.3331319e-05
5.5245198e-05
4.8434836e-05
4.2770753e-05
3.8115469e-05
3.4328174e-05
3.1269287e-05
2.8804628e-05
2.6809012e-05
2.5169114e-05
2.3785535e-05
2.2574029e-05
2.1465937e-05
2.0407884e-05
1.9360878e-05
1.8298914e-05
1.7207263e-05
1.6080558e-05
1.4920832e-05
1.3735608e-05
1.2536129e-05
1.1335798e-05
1.0148869e-05
8.9894007e-06
7.870469e-06
6.8036349e-06
5.7986269e-06
4.8632137e-06
4.0032289e-06
3.2227307e-06
2.5242109e-06
1.9090856e-06
1.3775171e-06
9.3106654e-07
5.6595939e-07
2.9725094e-07
9.3323566e-08
4.4843579e-08
0.00031495618
0.00028935675
0.00026474702
0.00024107451
0.0002184618
0.00019699166
0.00017676542
0.00015786567
0.00014034953
0.0001242527
0.0001095909
9.635881e-05
8.4529558e-05
7.4055669e-05
6.4871065e-05
5.6893582e-05
5.002796e-05
4.4169205e-05
3.9206216e-05
3.5025438e-05
3.1514365e-05
2.8564717e-05
2.6075156e-05
2.3953453e-05
2.2118028e-05
2.0498873e-05
1.9037873e-05
1.7688583e-05
1.6415552e-05
1.5193301e-05
1.4005055e-05
1.2841338e-05
1.1698528e-05
1.0577453e-05
9.4820976e-06
8.4184509e-06
7.393549e-06
6.4147004e-06
5.4889067e-06
4.6224635e-06
3.8207225e-06
3.0880077e-06
2.4276156e-06
1.8420955e-06
1.3329973e-06
9.0305427e-07
5.5033239e-07
2.8904689e-07
9.2315489e-08
4.1395796e-08
0.00034635999
0.00032176857
0.00029784264
0.00027455007
0.00025200415
0.00023029113
0.00020951654
0.00018977419
0.00017114004
0.00015367493
0.00013742511
0.00012242055
0.00010867345
9.6177962e-05
8.4910725e-05
7.4831911e-05
6.5886744e-05
5.8007497e-05
5.1115955e-05
4.5126126e-05
3.9947129e-05
3.5486056e-05
3.1650712e-05
2.8352086e-05
2.5506466e-05
2.3037113e-05
2.087547e-05
1.8961885e-05
1.7245882e-05
1.5686023e-05
1.4249423e-05
1.2911008e-05
1.1652588e-05
1.0461815e-05
9.3311249e-06
8.2566926e-06
7.2374729e-06
6.2743481e-06
5.3694092e-06
4.5253787e-06
3.7451777e-06
3.0316399e-06
2.3873228e-06
1.8145845e-06
1.3152364e-06
8.9230253e-07
5.448536e-07
2.8610419e-07
9.2811584e-08
3.8485565e-08
0.00037478945
0.0003513565
0.00032832975
0.00030569304
0.00028354518
0.0002619694
0.00024106755
0.00022093512
0.00020165583
0.00018330363
0.00016594277
0.00014962585
0.00013439201
0.00012026594
0.00010725746
9.5361476e-05
8.4558434e-05
7.4815098e-05
6.6085894e-05
5.8314593e-05
5.1436319e-05
4.537975e-05
4.0069438e-05
3.5428093e-05
3.1378779e-05
2.7846874e-05
2.476176e-05
2.2058165e-05
1.9677138e-05
1.7566653e-05
1.5681865e-05
1.3985039e-05
1.2445231e-05
1.1037748e-05
9.7434743e-06
8.5481097e-06
7.4413775e-06
6.4162542e-06
5.468249e-06
4.5947685e-06
3.7945792e-06
3.0673892e-06
2.4135163e-06
1.8337936e-06
1.3291267e-06
9.0189083e-07
5.5128992e-07
2.8926262e-07
9.522448e-08
3.6161145e-08
0.00040014778
0.00037793229
0.00035591879
0.00033410444
0.00031257154
0.00029139685
0.0002706742
0.0002504948
0.00023094287
0.00021209701
0.0001940301
0.0001768075
0.00016048514
0.00014510827
0.0001307105
0.00011731321
0.00010492508
9.3542108e-05
8.3148011e-05
7.3714947e-05
6.5204659e-05
5.7569878e-05
5.0755984e-05
4.4702818e-05
3.9346574e-05
3.4621679e-05
3.0462566e-05
2.680529e-05
2.3588903e-05
2.0756574e-05
1.8256401e-05
1.6041947e-05
1.4072492e-05
1.2313029e-05
1.0734065e-05
9.3112481e-06
8.0248787e-06
6.8593557e-06
5.8025911e-06
4.8454386e-06
3.9811588e-06
3.2049567e-06
2.5135732e-06
1.9050751e-06
1.3783384e-06
9.341534e-07
5.709969e-07
2.9916526e-07
9.9867556e-08
3.4433377e-08
0.00042241806
0.00040140884
0.00038044304
0.00035952964
0.00033873429
0.00031812594
0.0002977884
0.00027780549
0.00025825747
0.00023922214
0.00022077461
0.00020298573
0.00018592043
0.00016963639
0.00015418289
0.00013959989
0.00012591714
0.00011315362
0.00010131727
9.0405027e-05
8.0403157e-05
7.1287941e-05
6.3026625e-05
5.5578615e-05
4.8896878e-05
4.2929459e-05
3.7621069e-05
3.2914648e-05
2.8752864e-05
2.5079459e-05
2.1840428e-05
1.8984965e-05
1.6466192e-05
1.4241645e-05
1.2273534e-05
1.0528811e-05
8.979056e-06
7.6002413e-06
6.3723859e-06
5.2791592e-06
4.3074549e-06
3.446978e-06
2.6898413e-06
2.0303052e-06
1.4642342e-06
9.8997941e-07
6.0449957e-07
3.1604867e-07
1.0687451e-07
3.3284074e-08
0.00044163349
0.0004217657
0.00040181989
0.00038181613
0.00036180437
0.00034184562
0.00032201334
0.00030238267
0.00028302771
0.00026402229
0.00024543972
0.00022735152
0.00020982608
0.00019292738
0.00017671389
0.00016123754
0.00014654259
0.00013266486
0.00011963095
0.00010745784
9.6152664e-05
8.5712723e-05
7.6125852e-05
6.7370994e-05
5.9419038e-05
5.2233862e-05
4.5773536e-05
3.9991638e-05
3.4838621e-05
3.0263168e-05
2.6213489e-05
2.2638502e-05
1.9488868e-05
1.6717847e-05
1.4281966e-05
1.2141484e-05
1.0260683e-05
8.6079793e-06
7.1558966e-06
5.8809225e-06
4.7632785e-06
3.7866437e-06
2.9378341e-06
2.2065713e-06
1.584958e-06
1.0682227e-06
6.5114497e-07
3.3957561e-07
1.1615667e-07
3.267292e-08
0.00045783163
0.00043899829
0.00041999532
0.00040085359
0.00038160881
0.00036231476
0.00034303522
0.00032383667
0.00030478633
0.00028595259