/*--------------------------------*- C++ -*----------------------------------*\
  =========                 |
  \\      /  F ield         | OpenFOAM: The Open Source CFD Toolbox
   \\    /   O peration     | Website:  https://openfoam.org
    \\  /    A nd           | Version:  6
     \\/     M anipulation  |
\*---------------------------------------------------------------------------*/
FoamFile
{
    version     2.0;
    format      ascii;
    class       surfaceScalarField;
    location    "8";
    object      phi_0;
}
// * * * * * * * * * * * * * * * * * * * * * * * * * * * * * * * * * * * * * //

dimensions      [0 3 -1 0 0 0 0];

internalField   nonuniform List<scalar> 
18180
(
0.00039218691
-0.000265577
-0.00012660982
0.0015994273
-0.001822448
0.00061520772
0.0036878091
-0.0042972721
0.0022088904
0.0067219494
-0.0076012883
0.0045671481
0.010762707
-0.011678277
0.0076375197
0.015863048
-0.016481119
0.011380779
0.022063131
-0.021965144
0.015765061
0.029385117
-0.02808436
0.020762373
0.037828067
-0.034787369
0.02634442
0.047363451
-0.042014137
0.032478754
0.057931919
-0.04969418
0.039125712
0.069441969
-0.05774624
0.046236191
0.081771107
-0.0660795
0.053750362
0.094769982
-0.074596287
0.061597412
0.10826987
-0.083196202
0.069696311
0.12209368
-0.091781451
0.07795765
0.13606946
-0.10026293
0.08628715
0.15004911
-0.10856616
0.094586511
0.16397136
-0.11664953
0.10272727
-0.12449807
0.11050816
0.17796126
0.00047648918
-0.00074206612
0.0019192694
-0.0032652282
0.0043823192
-0.0067603219
0.0079155681
-0.011134537
0.01256059
-0.016323299
0.018344486
-0.022265015
0.025273632
-0.02889429
0.033327927
-0.036138655
0.042456162
-0.043915604
0.052573249
-0.052131224
0.063559993
-0.060680924
0.075265877
-0.069452124
0.087514976
-0.078328599
0.10011476
-0.087196066
0.11286697
-0.095948418
0.12557943
-0.1044939
0.1380769
-0.11276041
0.15021085
-0.12070011
0.16186081
-0.12829948
-0.13551147
0.17287422
0.00056462996
-0.001306696
0.0022433188
-0.0049439169
0.0050697993
-0.0095868024
0.0090706329
-0.015135371
0.014258042
-0.021510708
0.020622062
-0.028629035
0.028123754
-0.036395981
0.036690257
-0.044705159
0.046212448
-0.053437794
0.056545891
-0.062464667
0.067515459
-0.071650493
0.078923494
-0.080860159
0.090560843
-0.089965948
0.10221963
-0.098854857
0.11370624
-0.10743503
0.12485273
-0.11564039
0.13552508
-0.12343276
0.14562653
-0.13080157
0.15509004
-0.13776299
-0.14430604
0.1638846
0.00065417234
-0.0019608683
0.0025615008
-0.0068512453
0.0057255696
-0.012750871
0.01013947
-0.019549271
0.015775325
-0.027146564
0.022575481
-0.03542919
0.030446616
-0.044267116
0.039257458
-0.053516001
0.048840682
-0.063021018
0.058999232
-0.072623217
0.069516653
-0.082167914
0.080170364
-0.09151387
0.090746286
-0.10054187
0.10105297
-0.10916154
0.1109334
-0.11731546
0.12027302
-0.12498001
0.12900322
-0.13216296
0.13709988
-0.13889822
0.14457619
-0.1452393
-0.15122469
0.15149484
0.00074111786
-0.0027019861
0.0028586746
-0.008968802
0.0063158241
-0.016208021
0.01106196
-0.024295406
0.017019333
-0.033103936
0.02407466
-0.042484518
0.032075991
-0.052268447
0.040834938
-0.062274947
0.050134256
-0.072320336
0.059740046
-0.082229006
0.069417045
-0.091844914
0.078944928
-0.10104175
0.088133344
-0.10973029
0.09683365
-0.11786185
0.10494591
-0.12542772
0.1124206
-0.1324547
0.11925537
-0.13899773
0.12548796
-0.14513082
0.13118674
-0.15093807
-0.15649251
0.13645456
0.00082066145
-0.0035226475
0.0031172328
-0.011265373
0.0068029598
-0.019893748
0.011774707
-0.029267154
0.017897857
-0.039227086
0.025000165
-0.049586826
0.032873187
-0.060141469
0.04128032
-0.07068208
0.049970342
-0.081010358
0.058694441
-0.090953105
0.067224074
-0.10037455
0.07536691
-0.10918459
0.08297851
-0.11734189
0.089968307
-0.12485164
0.096299476
-0.13175888
0.10198342
-0.13813864
0.10707042
-0.14408473
0.11163842
-0.14969882
0.11578199
-0.15508164
-0.16032069
0.11961017
0.00088768874
-0.0044103362
0.0033190032
-0.013696688
0.0071498838
-0.023724628
0.012218756
-0.034336026
0.018331481
-0.045339811
0.025259331
-0.056514675
0.032746229
-0.067628368
0.040522804
-0.078458655
0.048324695
-0.088812249
0.055911889
-0.0985403
0.063085732
-0.10754839
0.069700859
-0.11579972
0.075670484
-0.12331151
0.080964798
-0.13014596
0.085603522
-0.13639761
0.089644534
-0.14217965
0.09317088
-0.14761108
0.096278397
-0.15280634
0.099065606
-0.15786885
-0.16288505
0.10162996
0.00093690672
-0.0053472429
0.003446262
-0.016206043
0.0073228536
-0.02760122
0.012345015
-0.039358187
0.018261753
-0.051256549
0.024796298
-0.063049221
0.031659462
-0.074491531
0.038568545
-0.085367738
0.045267945
-0.095511649
0.051547456
-0.10481981
0.05725493
-0.11325586
0.062301416
-0.1208462
0.066658594
-0.12766869
0.070349803
-0.13383717
0.073436961
-0.13948477
0.076006052
-0.14474874
0.078153581
-0.14975861
0.07997576
-0.15462852
0.08156129
-0.15945438
-0.1643123
0.082988549
0.00096188082
-0.0063091236
0.0034816065
-0.018725768
0.0072934843
-0.031413097
0.012118766
-0.044183469
0.017657417
-0.0567952
0.023597938
-0.068989742
0.029635904
-0.080529497
0.035495462
-0.091227295
0.040949055
-0.10096524
0.045831341
-0.1097021
0.050044877
-0.1174694
0.053557192
-0.12435852
0.056390755
-0.13050225
0.05860844
-0.13605485
0.060297557
-0.14117388
0.061555127
-0.14600631
0.062476258
-0.15067974
0.063146576
-0.15529883
0.063638552
-0.15994636
-0.16468421
0.064010454
0.000959627
-0.0072687506
0.0034183263
-0.021184468
0.0070528848
-0.035047656
0.011534468
-0.048665051
0.016526312
-0.061787044
0.021699028
-0.074162458
0.026752241
-0.08558271
0.031435572
-0.095910627
0.035564184
-0.10509385
0.039025677
-0.11316359
0.041777565
-0.12022129
0.043836721
-0.12641767
0.045263723
-0.13192925
0.046145499
-0.13693663
0.046579312
-0.1416077
0.046660144
-0.14608715
0.04647241
-0.150492
0.046085987
-0.15491241
0.04555562
-0.15941599
0.044921427
-0.16405001
-0.00027660065
0.00027660042
3.0184366e-10
-0.00092350451
0.00064690316
7.9210987e-10
-0.0018286166
0.00090511101
1.1564572e-09
-0.002908249
0.0010796311
1.4434329e-09
-0.0040956721
0.0011874216
1.6773318e-09
-0.0053360978
0.001240424
1.8532431e-09
-0.0065830609
0.0012469612
1.9915412e-09
-0.0077953542
0.0012122914
2.0769411e-09
-0.0089345274
0.0011391712
2.1357338e-09
-0.0099628042
0.0010282749
2.1413918e-09
-0.010841271
0.00087846533
2.1299746e-09
-0.011528258
0.00068698468
2.0607215e-09
-0.011977869
0.00044960892
1.9787143e-09
-0.012138668
0.00016079795
1.8270841e-09
-0.01195257
-0.00018609957
1.6615938e-09
-0.011354182
-0.0005983891
1.4031253e-09
-0.010270692
-0.0010834905
1.1224599e-09
-0.0086210844
-0.0016496083
7.2118052e-10
-0.0063151682
-0.0023059161
2.8769331e-10
-0.003040007
-0.0032751608
-2.771376e-10
-0.00025264058
0.00052924106
-0.00083817483
0.0012324375
-0.0016476424
0.0017145786
-0.0025976339
0.0020296227
-0.0036200896
0.0022098773
-0.0046576706
0.0022780051
-0.005660357
0.0022496477
-0.0065825379
0.0021344725
-0.0073806206
0.0019372541
-0.0080110386
0.001658693
-0.0084285363
0.0012959632
-0.0085846569
0.00084310542
-0.0084264069
0.00029135905
-0.0078950917
-0.00037051695
-0.0069254354
-0.0011557557
-0.0054450129
-0.0020788113
-0.0033742937
-0.0031542097
-0.00062696697
-0.0043969348
0.0028898161
-0.005822699
-0.0074036236
0.0072534328
-0.00020580886
0.00073504998
-0.00067123648
0.0016978652
-0.00129399
0.0023373322
-0.0019919346
0.0027275674
-0.0026951704
0.0029131132
-0.0033422117
0.0029250465
-0.0038770602
0.0027844963
-0.0042466518
0.0025040642
-0.004398744
0.0020893464
-0.0042801686
0.0015401178
-0.0038353767
0.00085117146
-0.003005203
1.2931844e-05
-0.0017259
-0.00098794379
7.1559081e-05
-0.0021679758
0.002462037
-0.0035462335
0.0055265064
-0.0051432805
0.0093517759
-0.006979479
0.014029119
-0.0090742776
0.019652499
-0.011446079
-0.014046674
0.026295549
-0.0001417505
0.00087680055
-0.00044099473
0.0019971095
-0.00080407266
0.0027004102
-0.0011508037
0.0030742985
-0.0014093289
0.0031716385
-0.0015133355
0.0030290532
-0.0013998011
0.002670962
-0.0010069782
0.0021112415
-0.00027274465
0.0013551129
0.00086670941
0.00040066384
0.0024778722
-0.00075999124
0.0046305676
-0.0021397634
0.0073983318
-0.003755708
0.010858501
-0.0056281445
0.015092024
-0.0077797569
0.020183145
-0.010234402
0.026218899
-0.013015233
0.033287517
-0.016142895
0.041476335
-0.019634896
-0.023418917
0.050848579
-6.7290445e-05
0.00094409105
-0.00016970207
0.0020995212
-0.00022236923
0.0027530775
-0.00014735044
0.0029992798
0.00012890816
0.00289538
0.0006772659
0.0024806956
0.0015673621
0.0017808659
0.002868918
0.00080968575
0.0046527741
-0.00042874312
0.0069915908
-0.0019381528
0.0099601247
-0.003728525
0.013635096
-0.0058147345
0.018094722
-0.0082153342
0.023417889
-0.010951311
0.029682972
-0.01404484
0.036966598
-0.017518027
0.045342676
-0.021391311
0.054881388
-0.025681607
0.065648714
-0.030402222
-0.035456156
0.077685953
1.1274852e-05
0.00093281626
0.00012168671
0.0019891094
0.00040868441
0.0024660798
0.00094805936
0.002459905
0.0018145253
0.0020289142
0.0030824131
0.0012128079
0.0048263304
3.6948633e-05
0.0071217459
-0.0014857297
0.010045222
-0.003352219
0.013674137
-0.0055670681
0.018086084
-0.0081404716
0.02335786
-0.011086511
0.029563941
-0.014421414
0.036774488
-0.018161858
0.045053017
-0.022323369
0.05445404
-0.026919051
0.065021499
-0.03195877
0.076788795
-0.037448903
0.089781929
-0.043395356
-0.049681331
0.1040071
8.9525164e-05
0.00084329116
0.0004177435
0.0016608912
0.0010568845
0.0018269389
0.002080878
0.0014359116
0.0035648289
0.00054496331
0.0055849442
-0.00080730723
0.0082184192
-0.0025965263
0.011542967
-0.004810277
0.015635988
-0.0074452399
0.020573442
-0.010504522
0.026428172
-0.013995202
0.033267703
-0.017926041
0.04115155
-0.022305261
0.050128125
-0.027138433
0.060231389
-0.032426633
0.071477668
-0.038165329
0.083863667
-0.044344769
0.097367613
-0.050952849
0.11195718
-0.057984926
-0.065321218
0.12759707
0.00016547132
0.00067781991
0.00071043882
0.0011159237
0.001704025
0.00083335281
0.0032184172
-7.8480533e-05
0.0053280801
-0.0015646995
0.0081089248
-0.0035881518
0.011637106
-0.0061247074
0.015987584
-0.0091607547
0.021232273
-0.012689929
0.027437627
-0.016709876
0.034661725
-0.0212193
0.042950908
-0.026215224
0.052336093
-0.031690446
0.06282897
-0.03763131
0.074418398
-0.044016061
0.087067471
-0.050814402
0.10071228
-0.057989579
0.11526429
-0.06550486
0.13062039
-0.073341021
-0.081401266
0.14670044
0.00023912647
0.00043869351
0.00099814493
0.00035690537
0.0023441467
-0.00051264886
0.0043470095
-0.0020813432
0.0070786002
-0.0042962901
0.01061106
-0.0071206114
0.015014653
-0.010528301
0.020355113
-0.014501215
0.026690465
-0.019025281
0.03406737
-0.024086781
0.042517137
-0.029669067
0.052051586
-0.035749673
0.062659058
-0.042297919
0.074300887
-0.049273138
0.086908638
-0.056623813
0.10038241
-0.064288174
0.11459095
-0.072198116
0.12937577
-0.080289685
0.14456439
-0.088529642
-0.096883342
0.16004647
0.00031208372
0.0012841969
0.0029804385
0.0054662435
0.0088074731
0.01306764
0.018304401
0.02456556
0.031884699
0.040276671
0.049733316
0.060219834
0.071672277
0.083996552
0.097069049
0.11073853
0.12482756
0.13912439
0.15332202
0.16694684
0.0014700924
-0.0047452515
-1.4285124e-09
0.0071498084
-0.0056797134
-2.5661562e-09
0.013780064
-0.0066302515
-3.5785583e-09
0.021298043
-0.0075179744
-4.465388e-09
0.029667876
-0.008369828
-5.3408913e-09
0.038849904
-0.0091820229
-6.2276675e-09
0.048778583
-0.0099286725
-7.0584816e-09
0.059365216
-0.010586625
-7.88732e-09
0.070502175
-0.01113695
-8.7331716e-09
0.0820639
-0.011561715
-9.5813664e-09
0.093908684
-0.011844774
-1.0372003e-08
0.10588209
-0.011973394
-1.108436e-08
0.11782092
-0.011938823
-1.1692871e-08
0.12955744
-0.011736505
-1.2188322e-08
0.14092403
-0.011366574
-1.2569904e-08
0.15175872
-0.010834678
-1.2824376e-08
0.16191182
-0.010153089
-1.2963305e-08
0.17125375
-0.009341921
-1.2962464e-08
0.1796837
-0.0084299303
-1.2843271e-08
0.18713782
-0.0074541147
-1.2576219e-08
0.19359518
-0.006457349
-1.2197875e-08
0.19907904
-0.0054838434
-1.1682392e-08
0.20365221
-0.0045731593
-1.1087179e-08
0.20740671
-0.0037544907
-1.0395496e-08
0.21044997
-0.0030432508
-9.6795637e-09
0.21289122
-0.0024412434
-8.9255225e-09
0.21483133
-0.0019401001
-8.1953398e-09
0.21635753
-0.0015261926
-7.4648988e-09
0.21754242
-0.0011848848
-6.7658413e-09
0.21844533
-0.00090290043
-6.0717536e-09
0.21911428
-0.00066894863
-5.3901331e-09
0.2195878
-0.00047351528
-4.7090871e-09
0.21989641
-0.00030860336
-4.0263978e-09
0.22006406
-0.00016764693
-3.3508077e-09
0.22010952
-4.5456295e-05
-2.6764096e-09
0.22004758
6.1941905e-05
-2.0248374e-09
0.21989002
0.00015755994
-1.3890128e-09
0.21964632
0.00024370785
-7.9299042e-10
0.21932412
0.00032219255
-2.2052988e-10
0.21892967
0.00039445304
3.0838688e-10
0.21846802
0.00046164982
7.9682022e-10
0.21794329
0.00052472828
1.2269866e-09
0.21735882
0.00058446399
1.5942721e-09
0.21671731
0.00064150718
1.8987058e-09
0.21602093
0.00069638579
2.140722e-09
0.21527132
0.00074960376
2.3200547e-09
0.2144699
0.00080141863
2.4204474e-09
0.21361724
0.00085265507
2.4316267e-09
0.21271554
0.0009017041
2.3709109e-09
0.00095934357
2.0193575e-09
0.011788043
-0.0092798616
0.017175446
-0.011067116
0.023427128
-0.012881934
0.030479129
-0.014569976
0.038306324
-0.016197023
0.046880291
-0.017755991
0.056145349
-0.019193731
0.066023796
-0.020465071
0.076420709
-0.021533864
0.087224403
-0.022365409
0.09830785
-0.022928221
0.1095318
-0.023197345
0.12074831
-0.023155334
0.13180435
-0.022792541
0.14254574
-0.022107969
0.15282188
-0.021110813
0.16249142
-0.019822631
0.17142936
-0.018279866
0.17953517
-0.016535731
0.18674092
-0.014659874
0.19301783
-0.012734255
0.19837863
-0.010844646
0.20287448
-0.0090690099
0.20658606
-0.0074660674
0.20961092
-0.0060681146
0.21205049
-0.0048808113
0.21399991
-0.003889518
0.21554249
-0.0030687751
0.21674829
-0.0023906786
0.21767503
-0.001829646
0.21836984
-0.0013637521
0.21887071
-0.00097439309
0.21920794
-0.00064583333
0.21940538
-0.00036508406
0.21948176
-0.00012184082
0.2194519
9.1806555e-05
0.2193276
0.0002818636
0.21911837
0.00045293922
0.21883192
0.00060864171
0.21847452
0.00075184553
0.2180513
0.00088486846
0.21756643
0.0010095997
0.21702331
0.0011275893
0.21642468
0.0012401361
0.21577277
0.0013482936
0.21506931
0.0014530698
0.21431575
0.0015549732
0.21351274
0.0016556653
0.21266256
0.0017518803
0.0018652616
0.030394767
-0.013379079
0.035191544
-0.015863893
0.040695825
-0.018386215
0.046850129
-0.02072428
0.053648472
-0.022995366
0.061081471
-0.02518899
0.069111637
-0.027223897
0.077681496
-0.02903493
0.086718799
-0.030571167
0.096136266
-0.031782876
0.10583249
-0.032624442
0.11569453
-0.033059383
0.12560076
-0.033061564
0.13542358
-0.032615366
0.14503228
-0.031716664
0.15429627
-0.03037481
0.16308935
-0.028615712
0.17129519
-0.026485703
0.17881435
-0.024054896
0.18557221
-0.021417731
0.19152616
-0.0186882
0.19667004
-0.015988525
0.2010337
-0.013432675
0.20467694
-0.011109311
0.20767905
-0.0090702224
0.21012693
-0.0073286905
0.21210511
-0.0058676985
0.21368963
-0.004653296
0.21494581
-0.0036468584
0.21592848
-0.0028123099
0.21668305
-0.0021183229
0.21724666
-0.0015380074
0.2176492
-0.0010483744
0.2179144
-0.00063027998
0.218061
-0.00026843643
0.21810386
4.8941194e-05
0.2180549
0.0003308231
0.21792374
0.00058410253
0.2177182
0.00081418076
0.21744468
0.0010253629
0.21710843
0.0012211215
0.21671374
0.0014042875
0.21626415
0.0015771825
0.21576253
0.0017417517
0.21521125
0.0018995711
0.21461217
0.0020521521
0.21396691
0.0022002401
0.21327621
0.0023463554
0.2125426
0.0024854923
0.0026503092
0.054301172
-0.016831673
0.058260878
-0.019823599
0.062729159
-0.022854496
0.067666258
-0.025661379
0.07309168
-0.028420788
0.07901744
-0.031114751
0.085428702
-0.033635159
0.092293884
-0.035900112
0.099568816
-0.037846099
0.10719593
-0.039409992
0.11510481
-0.040533315
0.1232141
-0.041168672
0.13143366
-0.041281128
0.13966648
-0.040848188
0.14781042
-0.039860608
0.15576006
-0.038324444
0.16340902
-0.036264675
0.17065358
-0.033730267
0.17739794
-0.030799247
0.18356116
-0.027580956
0.18908498
-0.024212019
0.19394024
-0.020843786
0.19812983
-0.017622264
0.20168634
-0.014665825
0.20466477
-0.012048648
0.2071324
-0.0097963254
0.20915924
-0.0078945304
0.21081121
-0.0063052744
0.21214703
-0.0049826716
0.21321737
-0.0038826506
0.21406526
-0.0029662173
0.2147266
-0.0021993447
0.21523072
-0.0015524958
0.2156012
-0.0010007607
0.21585682
-0.00052405933
0.21601258
-0.0001068175
0.21608055
0.00026286123
0.21607051
0.00059413659
0.2159905
0.00089419326
0.2158471
0.0011687617
0.21564576
0.0014224666
0.21539097
0.0016590773
0.21508646
0.0018816848
0.21473534
0.0020928771
0.21434016
0.0022947479
0.213903
0.0024893102
0.21342571
0.0026775284
0.21290926
0.0028628094
0.21235646
0.0030382896
0.0032478568
0.080268031
-0.019413751
0.083182595
-0.022738163
0.086408217
-0.026080118
0.089927872
-0.029181035
0.093787745
-0.032280662
0.098018439
-0.035345445
0.10262747
-0.038244193
0.10761028
-0.040882923
0.1129513
-0.043187115
0.11862272
-0.045081416
0.12458501
-0.046495605
0.13078811
-0.047371764
0.13717285
-0.047665873
0.14367242
-0.047347762
0.15021338
-0.046401559
0.15671632
-0.044827389
0.16309668
-0.042645038
0.16926619
-0.039899775
0.17513599
-0.036669045
0.180622
-0.033066972
0.18565235
-0.029242366
0.19017536
-0.025366794
0.19416572
-0.021612628
0.19762633
-0.018126434
0.20058474
-0.015007058
0.20308553
-0.012297115
0.20518147
-0.0099904685
0.20692632
-0.0080501286
0.20837063
-0.0064269723
0.20955989
-0.0050719121
0.21053409
-0.0039404189
0.21132752
-0.0029927748
0.21196883
-0.0021938116
0.21248143
-0.0015133582
0.21288417
-0.00092679546
0.21319222
-0.00041487061
0.21341789
3.7195083e-05
0.21357122
0.00044080444
0.2136605
0.00080491726
0.21369257
0.0011366843
0.21367316
0.0014418776
0.21360703
0.0017252047
0.2134982
0.0019905201
0.21335002
0.0022410536
0.21316536
0.0024794079
0.21294658
0.0027080958
0.21269583
0.0029282786
0.21241435
0.0031442863
0.2121054
0.0033472372
0.0035925372
0.10548031
-0.020886958
0.10716416
-0.024422008
0.10900589
-0.027921856
0.11101105
-0.031186185
0.11324395
-0.034513568
0.11574588
-0.037847377
0.11854223
-0.041040543
0.12165185
-0.043992541
0.12508386
-0.046619127
0.12883615
-0.048833703
0.13289588
-0.050555334
0.13723997
-0.051715852
0.14183588
-0.052261785
0.14664273
-0.052154618
0.15161207
-0.051370893
0.15668794
-0.04990326
0.16180657
-0.047763673
0.16689614
-0.044989341
0.17187767
-0.04165058
0.17666825
-0.037857551
0.18118712
-0.033761238
0.18536417
-0.029543845
0.18914858
-0.025397038
0.19251458
-0.021492431
0.19546201
-0.01795449
0.1980117
-0.0148468
0.20019787
-0.012176643
0.20206086
-0.0099131125
0.20364195
-0.0080080607
0.20498065
-0.0064106216
0.20611335
-0.0050731133
0.2070724
-0.0039518227
0.20788562
-0.0030070367
0.20857622
-0.0022039602
0.20916317
-0.0015137407
0.20966188
-0.00091358241
0.21008496
-0.00038588312
0.21044278
8.2985752e-05
0.21074395
0.00050374812
0.21099566
0.00088496813
0.21120397
0.0012335671
0.21137399
0.0015551851
0.21151007
0.0018544399
0.21161593
0.0021351943
0.21169478
0.0024005567
0.21174934
0.0026535366
0.21178216
0.0028954599
0.21179482
0.0031316257
0.21179112
0.003350943
0.0036206849
0.12777043
-0.021060317
0.12808762
-0.024739194
0.12847157
-0.028305806
0.12895684
-0.031671456
0.12960958
-0.035166306
0.13047004
-0.038707838
0.13157482
-0.042145324
0.13295918
-0.045376903
0.13464994
-0.048309892
0.13666412
-0.050847875
0.13900914
-0.052900359
0.14168261
-0.05438932
0.14467246
-0.055251631
0.14795779
-0.055439954
0.15150961
-0.054922714
0.15529078
-0.053684432
0.15925521
-0.051728101
0.16334654
-0.049080666
0.16749723
-0.045801276
0.17162952
-0.041989835
0.17565942
-0.037791146
0.17950452
-0.033388943
0.18309383
-0.028986342
0.18637673
-0.02477533
0.18932751
-0.020905275
0.19194407
-0.017463354
0.19424208
-0.014474655
0.19624799
-0.01191903
0.1979933
-0.0097533651
0.19951093
-0.0079282569
0.2008332
-0.0063953772
0.20199023
-0.0051088586
0.2030089
-0.0040257003
0.20391216
-0.0031072212
0.20471913
-0.0023207146
0.20544555
-0.0016400014
0.20610438
-0.0010447158
0.2067064
-0.00051902947
0.20726061
-5.046585e-05
0.20777462
0.0003709575
0.20825489
0.00075330334
0.20870693
0.0011031439
0.20913551
0.0014258568
0.20954477
0.0017259371
0.20993834
0.0020069817
0.21031938
0.0022725037
0.21069089
0.0025239504
0.21105486
0.0027676574
0.21141573
0.002990066
0.0032707675
0.14553207
-0.019891947
0.14446108
-0.023668208
0.14340936
-0.027254085
0.14246639
-0.030728492
0.14168316
-0.034383068
0.14108743
-0.038112111
0.1407201
-0.041777993
0.14062428
-0.045281087
0.14083628
-0.048521895
0.14138492
-0.051396511
0.14229099
-0.053806434
0.1435662
-0.055664528
0.14521282
-0.056898244
0.14722415
-0.05745129
0.1495852
-0.057283759
0.1522727
-0.056371931
0.1552543
-0.054709701
0.1584868
-0.052313168
0.16191413
-0.049228603
0.16546631
-0.04554202
0.16906128
-0.041386112
0.17261081
-0.036938477
0.1760304
-0.032405932
0.17925016
-0.027995094
0.18222278
-0.023877891
0.18492553
-0.020166099
0.18735669
-0.016905821
0.1895292
-0.014091542
0.19146464
-0.011688797
0.19318906
-0.0096526813
0.19473035
-0.0079366696
0.19611616
-0.0064946698
0.19737223
-0.0052817619
0.19852123
-0.0042562243
0.19958246
-0.0033819413
0.200572
-0.0026295442
0.20150326
-0.0019759798
0.20238748
-0.0014032457
0.20323413
-0.00089711398
0.20405128
-0.0004461957
0.20484586
-4.1280624e-05
0.20562388
0.0003251322
0.20639056
0.00065917692
0.20715052
0.00096597478
0.2079079
0.0012496031
0.20866632
0.0015140752
0.20942936
0.0017609182
0.21019944
0.0019975723
0.21098178
0.0022077242
0.0024838011
0.15772219
-0.017567668
0.15542669
-0.021372702
0.15309128
-0.024918683
0.1509172
-0.028554404
0.14892892
-0.032394795
0.14713698
-0.036320171
0.14557969
-0.040220698
0.14429963
-0.044001027
0.14333592
-0.047558187
0.14272374
-0.050784329
0.14249233
-0.053575025
0.14266302
-0.055835217
0.14324828
-0.05748351
0.14425172
-0.058454732
0.14566845
-0.058700484
0.14748523
-0.058188718
0.1496799
-0.056904365
0.1522196
-0.054852865
0.15505838
-0.052067391
0.158135
-0.048618641
0.16137263
-0.044623734
0.16468261
-0.040248455
0.16797311
-0.035696432
0.17116076
-0.031182747
0.17418115
-0.026898279
0.17699403
-0.022978978
0.17958214
-0.019493931
0.18194589
-0.016455298
0.1840974
-0.013840309
0.18605593
-0.011611211
0.18784482
-0.0097255587
0.18948907
-0.0081389152
0.19101318
-0.0068058692
0.19243954
-0.00568259
0.19378765
-0.0047300545
0.19507404
-0.0039159305
0.19631262
-0.0032145588
0.19751515
-0.0026057787
0.19869166
-0.002073624
0.19985076
-0.0016052933
0.20099991
-0.0011904265
0.20214563
-0.00082059518
0.20329372
-0.00048890907
0.20444932
-0.0001896302
0.20561713
8.1795743e-05
0.20680133
0.00032987398
0.20800609
0.00055616576
0.20923436
0.00076930156
0.2104922
0.00094987713
0.0012037506
0.16429151
-0.014912337
0.16100303
-0.018084221
0.15769593
-0.021611586
0.15457152
-0.02542999
0.15163443
-0.029457705
0.14890394
-0.033589688
0.14641705
-0.0377338
0.14421331
-0.041797294
0.14233358
-0.045678453
0.14081825
-0.049268997
0.13970358
-0.052460363
0.13901884
-0.055150473
0.13878467
-0.057249344
0.13901258
-0.058682634
0.13970501
-0.059392921
0.14085574
-0.059339445
0.14244953
-0.058498152
0.14446088
-0.056864215
0.14685175
-0.054458261
0.14956884
-0.051335732
0.15254187
-0.047596765
0.15568506
-0.04339165
0.15890375
-0.038915118
0.16210562
-0.034384615
0.16521288
-0.03000554
0.16817041
-0.025936512
0.17094721
-0.022270732
0.17353242
-0.019040507
0.17592954
-0.016237423
0.17815154
-0.013833215
0.18021751
-0.011791534
0.18214994
-0.010071341
0.18397221
-0.0086281357
0.18570655
-0.0074169361
0.18737283
-0.0063963347
0.18898816
-0.0055312597
0.19056711
-0.0047935019
0.19212208
-0.0041607544
0.19366375
-0.0036152918
0.19520134
-0.003142883
0.19674293
-0.0027320151
0.19829565
-0.0023733167
0.19986589
-0.0020591483
0.2014594
-0.0017831445
0.2030815
-0.0015403028
0.20473698
-0.0013256023
0.20643068
-0.0011375396
0.20816607
-0.00096608797
0.20995039
-0.00083443588
-0.00062198893
0.21528584
-0.011523143
-0.21867504
0.2125177
-0.01531608
0.21004637
-0.019140254
0.20771804
-0.02310166
0.20546706
-0.027206729
0.20324867
-0.031371296
0.20103539
-0.035520518
0.19881552
-0.039577431
0.19659011
-0.043453043
0.19437106
-0.047049944
0.19217964
-0.050268942
0.19004461
-0.053015439
0.18800001
-0.055204744
0.18608288
-0.056765512
0.18433099
-0.057641025
0.1827806
-0.057789059
0.18146463
-0.057182185
0.18041102
-0.055810601
0.17964114
-0.053688382
0.17916773
-0.050862321
0.17899197
-0.047421002
0.17910043
-0.043500116
0.17946361
-0.039278293
0.18003748
-0.034958483
0.18076844
-0.030736502
0.18160007
-0.026768145
0.18247966
-0.023150317
0.18336295
-0.019923797
0.18421662
-0.017091098
0.18501859
-0.014635182
0.18575663
-0.012529578
0.18642612
-0.010740829
0.18702751
-0.0092295233
0.18756421
-0.0079536436
0.18804111
-0.006873233
0.18846359
-0.0059537341
0.18883701
-0.0051669269
0.18916648
-0.0044902235
0.18945668
-0.0039054947
0.18971187
-0.0033980658
0.18993584
-0.0029559865
0.190132
-0.002569474
0.19030337
-0.0022305206
0.19045264
-0.0019324127
0.19058223
-0.0016698984
0.19069417
-0.0014375453
0.19079074
-0.0012341053
0.19087248
-0.0010478245
0.19094481
-0.00090676888
-0.00067414691
0.24001285
-0.0089975757
-0.24253841
0.2373825
-0.012685738
0.23486494
-0.016622694
0.23233843
-0.020575149
0.22974538
-0.024613678
0.22708887
-0.028714779
0.22437185
-0.032803503
0.22159731
-0.036802891
0.21877748
-0.040633211
0.21593437
-0.044206834
0.21309798
-0.047432552
0.21030495
-0.050222408
0.20759693
-0.052496724
0.20501842
-0.054187006
0.20261444
-0.055237044
0.20042827
-0.055602885
0.19849952
-0.055253437
0.19686256
-0.054173646
0.19554504
-0.052370855
0.19456584
-0.049883128
0.19393219
-0.04678735
0.19363608
-0.043204007
0.19365191
-0.039294123
0.19393711
-0.035243681
0.19443652
-0.031235909
0.19508934
-0.027420969
0.19583646
-0.023897435
0.19662615
-0.02071349
0.19741742
-0.017882368
0.19818093
-0.015398688
0.19889808
-0.013246727
0.19955899
-0.01140174
0.20016006
-0.0098305944
0.20070174
-0.0084953241
0.20118682
-0.0073583088
0.20161925
-0.0063861642
0.20200345
-0.0055511253
0.20234387
-0.0048306449
0.20264479
-0.004206411
0.20291018
-0.0036634582
0.2031437
-0.0031895038
0.20334865
-0.0027744266
0.20352803
-0.0024098981
0.20368451
-0.0020888947
0.20382053
-0.0018059233
0.20393818
-0.0015551942
0.20403969
-0.0013356096
0.20412586
-0.0011339945
0.20420167
-0.00098258375
-0.00072931572
0.26299874
-0.0068517574
-0.26514455
0.26066708
-0.010354085
0.25820655
-0.014162158
0.2556309
-0.017999498
0.2529044
-0.021887179
0.25002741
-0.025837795
0.24701596
-0.029792053
0.24388697
-0.033673896
0.24066282
-0.037409068
0.23737443
-0.040918435
0.23406018
-0.044118305
0.23076453
-0.046926762
0.22753646
-0.049268655
0.22442749
-0.051078035
0.2214894
-0.052298952
0.21877201
-0.052885496
0.21632128
-0.052802709
0.21417776
-0.052030123
0.21237516
-0.050568254
0.2109385
-0.048446473
0.20988122
-0.045730063
0.2092014
-0.042524186
0.20887875
-0.038971475
0.20887427
-0.035239205
0.20913387
-0.031495503
0.20959509
-0.027882193
0.21019488
-0.024497229
0.21087602
-0.021394629
0.21159116
-0.01859751
0.21230443
-0.016111958
0.21299107
-0.013933361
0.2136358
-0.012046473
0.21423068
-0.010425472
0.21477285
-0.0090374997
0.21526273
-0.0078481851
0.21570259
-0.0068260264
0.21609569
-0.005944228
0.2164457
-0.0051806469
0.21675633
-0.0045170446
0.21703122
-0.0039383454
0.21727378
-0.0034320616
0.21748717
-0.0029878237
0.21767432
-0.0025970431
0.21783786
-0.0022524355
0.21798021
-0.0019482778
0.21810352
-0.0016784978
0.21820991
-0.0014419992
0.21830056
-0.0012246444
0.21837964
-0.00106167
-0.00078762968
0.28426505
-0.0050592499
-0.28605755
0.28225703
-0.0083460656
0.27997296
-0.01187809
0.27747285
-0.015499395
0.27476301
-0.019177334
0.27184274
-0.022917531
0.26872753
-0.026676838
0.26544052
-0.030386883
0.2620099
-0.033978451
0.25847145
-0.037379985
0.25486877
-0.040515627
0.25125176
-0.04330975
0.24767479
-0.045691688
0.24419475
-0.047597995
0.2408688
-0.048972999
0.23775219
-0.049768881
0.23489636
-0.049946879
0.23234742
-0.049481184
0.23014472
-0.048365558
0.22831906
-0.046620815
0.22688992
-0.044300919
0.22586175
-0.041496019
0.22522062
-0.03833034
0.22493307
-0.034951664
0.22494891
-0.031511339
0.22520729
-0.02814057
0.22564437
-0.024934309
0.22620008
-0.021950338
0.22682267
-0.019220106
0.22747094
-0.016760223
0.22811448
-0.014576906
0.22873274
-0.012664734
0.22931322
-0.011005953
0.22984947
-0.0095737474
0.23033918
-0.0083378938
0.23078267
-0.0072695108
0.23118177
-0.0063433326
0.23153915
-0.005538031
0.23185785
-0.0048357388
0.23214099
-0.0042214859
0.23239166
-0.003682735
0.23261282
-0.0032089805
0.23280723
-0.0027914525
0.23297746
-0.0024226676
0.23312588
-0.0020966968
0.23325465
-0.0018072636
0.23336579
-0.0015531402
0.2334608
-0.0013196575
0.23354309
-0.0011439559
-0.00084902373
0.30397535
-0.0036239176
-0.30541068
0.30229462
-0.006665342
0.30028351
-0.0098669757
0.29798549
-0.013201374
0.29542674
-0.016618579
0.29261263
-0.020103424
0.2895566
-0.023620814
0.28628326
-0.027113544
0.28282362
-0.030518803
0.27921538
-0.033771753
0.27550404
-0.036804282
0.27174179
-0.039547502
0.26798569
-0.041935592
0.2642956
-0.0439079
0.26073199
-0.045409394
0.25735388
-0.046390769
0.25421692
-0.046809915
0.25137184
-0.046636105
0.24886297
-0.045856685
0.24672638
-0.044484225
0.24498725
-0.042561794
0.24365638
-0.040165151
0.24272673
-0.037400687
0.24217183
-0.034396766
0.24194764
-0.031287144
0.2419978
-0.028190734
0.24226077
-0.025197275
0.24267642
-0.022365997
0.2431909
-0.019734584
0.24375924
-0.017328559
0.24434635
-0.015164019
0.24492677
-0.013245155
0.24548349
-0.011562671
0.24600627
-0.010096526
0.24648983
-0.0088214549
0.24693225
-0.0077119242
0.2473337
-0.0067447831
0.24769563
-0.0058999647
0.2480202
-0.0051603087
0.24830991
-0.0045112003
0.24856742
-0.0039402373
0.24879535
-0.0034369144
0.24899628
-0.0029923777
0.24917263
-0.0025990221
0.24932668
-0.0022507499
0.24946058
-0.0019411614
0.24957623
-0.0016687891
0.24967539
-0.0014188199
0.24976075
-0.0012293124
-0.00091336369
0.32269838
-0.002520266
-0.32380203
0.32132539
-0.0052923564
0.31961754
-0.0081591209
0.3175911