/*--------------------------------*- C++ -*----------------------------------*\
  =========                 |
  \\      /  F ield         | OpenFOAM: The Open Source CFD Toolbox
   \\    /   O peration     | Website:  https://openfoam.org
    \\  /    A nd           | Version:  6
     \\/     M anipulation  |
\*---------------------------------------------------------------------------*/
FoamFile
{
    version     2.0;
    format      ascii;
    class       surfaceScalarField;
    location    "91";
    object      phi_0;
}
// * * * * * * * * * * * * * * * * * * * * * * * * * * * * * * * * * * * * * //

dimensions      [0 3 -1 0 0 0 0];

internalField   nonuniform List<scalar> 
18180
(
0.00031878908
-0.00016327845
-0.00015551058
0.0013094506
-0.0013674014
0.00037673993
0.003033434
-0.0033346042
0.0016106209
0.0055507611
-0.005977568
0.0034602409
0.0089197661
-0.0092414348
0.0058724299
0.013195107
-0.013082748
0.0088074073
0.018425105
-0.017464034
0.012234036
0.024648773
-0.022351068
0.0161274
0.031892667
-0.02770975
0.020465856
0.040167807
-0.033503479
0.025228339
0.049466992
-0.039691403
0.030392217
0.059762875
-0.046227495
0.035931613
0.071007194
-0.053060463
0.041816143
0.083131633
-0.060134502
0.048010063
0.096050904
-0.06739101
0.054471738
0.10966859
-0.074771349
0.061153663
0.12388516
-0.082220521
0.068003948
0.13861322
-0.089691469
0.074963416
0.15385126
-0.097167045
0.081928998
-0.10464487
0.08869829
0.16979785
0.00039756522
-0.00056084363
0.0016098643
-0.0025797004
0.0036899263
-0.0054146661
0.0066885308
-0.0089761724
0.010652359
-0.013205263
0.015620332
-0.018050721
0.021619603
-0.023463304
0.02866159
-0.029393055
0.036738345
-0.035786505
0.045819656
-0.042584789
0.055851308
-0.049723055
0.066754876
-0.057131063
0.078429272
-0.064734859
0.090754156
-0.072459385
0.10359498
-0.080231835
0.11680909
-0.087985458
0.13025191
-0.095663337
0.14378371
-0.10322327
0.15726856
-0.1106519
-0.11787971
0.1705034
0.00048069951
-0.0010415431
0.0019189944
-0.0040179953
0.0043531383
-0.0078488099
0.0078177264
-0.01244076
0.012339464
-0.017727
0.017931762
-0.023643019
0.024589655
-0.030121198
0.032285532
-0.037088932
0.040966103
-0.044467076
0.0505511
-0.052169786
0.060934084
-0.060106039
0.071985523
-0.068182502
0.083558025
-0.076307362
0.09549331
-0.08439467
0.10763018
-0.092368706
0.11981244
-0.10016772
0.13189557
-0.10774646
0.14375013
-0.11507783
0.15525416
-0.12215592
-0.12893068
0.16630512
0.00056625278
-0.0016077958
0.0022282599
-0.0056800024
0.0050013071
-0.010621857
0.0088952184
-0.016334672
0.013907094
-0.022738876
0.020014438
-0.029750363
0.027169821
-0.037276581
0.035297542
-0.045216653
0.044292737
-0.053462271
0.054023321
-0.06190037
0.064334782
-0.070417499
0.075057514
-0.078905234
0.086015989
-0.087265837
0.097038778
-0.095417459
0.10796828
-0.10329821
0.11866903
-0.11086847
0.12903372
-0.11811115
0.1389858
-0.12502992
0.14847633
-0.13164645
-0.13796003
0.15750569
0.00065097474
-0.0022587705
0.0025246728
-0.0075537004
0.0056043475
-0.013701532
0.0098656794
-0.020596004
0.01526642
-0.028139616
0.021738869
-0.036222812
0.029185603
-0.044723315
0.037478639
-0.053509689
0.046462276
-0.062445909
0.055959494
-0.071397587
0.065781277
-0.080239282
0.075737816
-0.088861773
0.085650228
-0.097178249
0.095361356
-0.10512859
0.10474437
-0.11268122
0.11370834
-0.11983244
0.12220031
-0.12660312
0.13020416
-0.13303377
0.13773615
-0.13917844
-0.1450809
0.14485702
0.00073072744
-0.0029894979
0.0027924214
-0.0096153943
0.0061272813
-0.017036391
0.01066789
-0.025136612
0.016324361
-0.033796087
0.022977504
-0.042875955
0.030477205
-0.052223016
0.038645601
-0.061678084
0.047284677
-0.071084985
0.056187324
-0.080300234
0.065150362
-0.08920232
0.073987727
-0.097699139
0.082542031
-0.10573255
0.090693052
-0.11327961
0.09836222
-0.12035039
0.10551293
-0.12698315
0.11214717
-0.13323737
0.11829946
-0.13918606
0.12402932
-0.1449083
-0.15047524
0.12942367
0.00080082312
-0.003790321
0.0030142441
-0.011828815
0.00653357
-0.020555717
0.011241149
-0.029844191
0.016994243
-0.039549182
0.023620517
-0.049502229
0.030920536
-0.059523035
0.03867586
-0.069433408
0.046661365
-0.07907049
0.054659839
-0.088298709
0.062476537
-0.097019017
0.069951458
-0.10517406
0.076967699
-0.11274879
0.083454907
-0.11976681
0.089387862
-0.12628335
0.094780924
-0.13237621
0.09967972
-0.13813616
0.10415169
-0.14365804
0.10827708
-0.14903369
-0.15434429
0.11214612
0.00085614781
-0.0046464687
0.0031723697
-0.014145037
0.0067878449
-0.024171193
0.011530776
-0.034587122
0.017204756
-0.045223161
0.023588158
-0.055885631
0.030441662
-0.066376538
0.037521139
-0.076512885
0.044593451
-0.086142802
0.051452301
-0.095157559
0.057931383
-0.1034981
0.063912807
-0.11115548
0.069329812
-0.1181658
0.074163891
-0.12460089
0.078437412
-0.13055687
0.082203414
-0.13614221
0.085534485
-0.14146724
0.088512453
-0.146636
0.091220167
-0.1517414
-0.1568617
0.093737576
0.00089034521
-0.0055368138
0.0032485615
-0.016503253
0.0068581615
-0.027780792
0.011493279
-0.039222239
0.016907861
-0.050637743
0.022840094
-0.061817864
0.029024883
-0.072561327
0.035210313
-0.082698316
0.041174661
-0.09210715
0.046740624
-0.10072352
0.05178422
-0.10854169
0.056237178
-0.11560844
0.060083022
-0.12201164
0.063348183
-0.12786605
0.066090171
-0.13329886
0.068385027
-0.13843707
0.070315914
-0.14339812
0.071964258
-0.14828435
0.073403989
-0.15318113
-0.1581564
0.074698686
0.00089989167
-0.0064367054
0.0032336182
-0.018836979
0.006729605
-0.031276779
0.011111807
-0.043604441
0.016093239
-0.055619175
0.021385388
-0.067110013
0.026714517
-0.077890456
0.031839454
-0.087823252
0.036566967
-0.096834663
0.04076155
-0.1049181
0.044348029
-0.11212817
0.047307095
-0.11856751
0.049665286
-0.12436983
0.051481804
-0.12968257
0.05283462
-0.13465167
0.053808027
-0.13941047
0.054483043
-0.14407314
0.054931289
-0.14873259
0.05521216
-0.153462
0.055371735
-0.15831597
-0.00020241423
0.00020241397
2.4660474e-10
-0.00067786148
0.00047544704
2.0285171e-10
-0.0013426452
0.0006647836
1.4747345e-10
-0.0021326305
0.00078998509
1.2187996e-10
-0.0029962283
0.00086359772
9.4788169e-11
-0.0038913077
0.00089507938
6.2524377e-11
-0.0047829613
0.00089165352
2.585577e-11
-0.0056416353
0.0008586741
-1.2829553e-11
-0.0064416594
0.00080002411
-5.1763364e-11
-0.0071600946
0.00071843531
-8.9269063e-11
-0.0077758153
0.00061572083
-1.2319599e-10
-0.0082687733
0.00049295824
-1.5303417e-10
-0.0086194184
0.00035064526
-1.764204e-10
-0.0088082642
0.00018884605
-1.9396308e-10
-0.0088156334
7.3693642e-06
-2.0376943e-10
-0.0086216809
-0.00019395229
-2.0682133e-10
-0.008206658
-0.00041502266
-2.0086616e-10
-0.0075505069
-0.00065615085
-1.883269e-10
-0.0066324548
-0.00091805198
-1.6674159e-10
-0.00118712
-0.0054453347
-1.3608766e-10
-0.00018800613
0.0003904201
-0.000625107
0.0009125479
-0.0012289411
0.0012686177
-0.0019354769
0.0014965209
-0.002692512
0.0016206328
-0.0034567337
0.0016593011
-0.0041915718
0.0016264916
-0.0048653884
0.0015324907
-0.0054500404
0.0013846761
-0.0059197435
0.0011881384
-0.0062501569
0.00094613419
-0.0064176409
0.00066044225
-0.0063986522
0.0003316566
-0.0061692645
-4.0541638e-05
-0.0057048431
-0.000457052
-0.0049799647
-0.00091883065
-0.0039686332
-0.0014263542
-0.0026442003
-0.0019805837
-0.00097921567
-0.0025830366
-0.0032038925
0.0010375569
-0.00015895129
0.00054937138
-0.00051896256
0.0012725592
-0.0010008973
0.0017505525
-0.0015414385
0.0020370621
-0.0020875651
0.0021667594
-0.0025939604
0.0021656964
-0.0030210673
0.0020535985
-0.0033334204
0.0018448438
-0.0034983
0.0015495558
-0.0034846562
0.0011744946
-0.0032622241
0.00072370207
-0.0028008042
0.00019902236
-0.0020696284
-0.00039951912
-0.0010368461
-0.0010733239
0.00033090559
-0.0018248037
0.0020687786
-0.0026567037
0.0042136737
-0.0035712493
0.0068039343
-0.0045708444
0.0098792774
-0.0056583796
-0.0067836228
0.013459008
-0.00011757942
0.00066695081
-0.00036703089
0.0015220106
-0.00067355916
0.0020570808
-0.00097486495
0.0023383679
-0.0012168558
0.0024087502
-0.0013515153
0.002300356
-0.0013352456
0.0020373288
-0.0011274118
0.0016370101
-0.00068914571
0.0011112897
1.7606769e-05
0.00046774213
0.00103087
-0.0002895612
0.0023892858
-0.0011593934
0.0041326582
-0.0021428915
0.0063024356
-0.0032431013
0.0089422169
-0.0044645849
0.012098308
-0.0058127944
0.015820096
-0.0072930373
0.02015975
-0.0089104987
0.025172009
-0.010670638
-0.012498884
0.03088727
-6.6907853e-05
0.00073385868
-0.00017915489
0.0016342577
-0.00026648584
0.0021444117
-0.0002675702
0.0023394522
-0.00012695021
0.0022681303
0.00020659614
0.0019668097
0.00078138389
0.0014625411
0.0016439907
0.00077440327
0.0028402268
-8.4946386e-05
0.004415921
-0.001107952
0.0064174837
-0.002291124
0.0088923242
-0.0036342338
0.011889175
-0.0051397423
0.015458422
-0.0068123482
0.019652478
-0.0086586407
0.024526402
-0.010686718
0.030138778
-0.012905413
0.036552224
-0.015323945
0.043834159
-0.017952573
-0.020691662
0.052026937
-9.9725846e-06
0.00074383127
3.4591451e-05
0.0015896937
0.0002000346
0.0019789686
0.00054705374
0.0019924331
0.0011327473
0.0016824368
0.0020117757
0.0010877813
0.0032373258
0.00023699097
0.0048619936
-0.00085026458
0.0069384422
-0.0021613949
0.0095197752
-0.003689285
0.012659746
-0.0054310946
0.016412861
-0.0073873487
0.020834306
-0.0095611878
0.025979787
-0.011957829
0.031905425
-0.014584279
0.038668062
-0.017449356
0.046326439
-0.020563791
0.054943261
-0.023940767
0.064589025
-0.027598337
-0.031417764
0.075315127
5.0774721e-05
0.00069305657
0.00026575683
0.0013747116
0.00070849147
0.001536234
0.0014394796
0.001261445
0.0025175688
0.00060434755
0.0040007152
-0.00039536505
0.0059465793
-0.0017088731
0.0084129152
-0.0033166004
0.0114577
-0.0052061798
0.015139103
-0.0073706883
0.019515218
-0.0098072089
0.024643531
-0.012515662
0.030580189
-0.015497846
0.0373791
-0.01875674
0.045090996
-0.022296174
0.053762886
-0.026121246
0.063438872
-0.030239776
0.074163535
-0.03466543
0.085990883
-0.039425685
-0.044403532
0.098976651
0.00011382985
0.00057922673
0.00050864131
0.00097990016
0.0012463048
0.00079857045
0.0023873762
0.00012037366
0.0039922196
-0.0010004958
0.0061213521
-0.0025244975
0.0088354242
-0.0044229452
0.012195042
-0.0066762186
0.016260364
-0.0092715011
0.021090349
-0.012200674
0.026741726
-0.015458585
0.033267657
-0.019041593
0.040716157
-0.022946346
0.04912828
-0.027168863
0.058536223
-0.031704117
0.0689617
-0.036546723
0.08041576
-0.041693837
0.092901901
-0.047151571
0.10642757
-0.052951355
-0.059012991
0.12103703
0.00017853832
0.00040068844
0.00076020263
0.00039823587
0.0018057385
-0.00024696535
0.003375447
-0.0014493349
0.0055301807
-0.0031552295
0.0083310861
-0.0053254029
0.011838979
-0.0079308378
0.016113419
-0.010950659
0.021211431
-0.014369514
0.02718588
-0.018175123
0.034083541
-0.022356246
0.041942898
-0.02690095
0.050791713
-0.031795162
0.060644391
-0.037021541
0.071499124
-0.04255885
0.083334885
-0.048382483
0.096109219
-0.054468171
0.10975959
-0.060801938
0.12421683
-0.067408603
-0.074293395
0.13949724
0.00024517787
0.0010201537
0.0023838092
0.0043947153
0.0071119158
0.01059392
0.014897118
0.020073859
0.026170201
0.033223417
0.041259389
0.050290052
0.060311033
0.071299556
0.083212444
0.095983624
0.1095194
0.12368088
0.13820127
0.15260617
-0.0035036398
-0.0019416947
-1.1734704e-10
-0.0012806325
-0.0022230073
-3.0348455e-11
0.0012013622
-0.0024819947
6.6058897e-11
0.0038854374
-0.0026840753
1.694014e-10
0.0067447923
-0.0028593552
2.7260863e-10
0.0097621284
-0.0030173365
3.7866193e-10
0.012918517
-0.0031563892
4.792473e-10
0.016195941
-0.0032774245
5.7524029e-10
0.019578705
-0.0033827643
6.6392732e-10
0.023052595
-0.0034738916
7.4299874e-10
0.026604334
-0.0035517391
8.1392387e-10
0.030221502
-0.0036171689
8.7632321e-10
0.033892464
-0.0036709633
9.3163625e-10
0.037606233
-0.0037137699
9.7869505e-10
0.041352366
-0.0037461343
1.0166922e-09
0.045120902
-0.0037685372
1.041901e-09
0.048902312
-0.0037814109
1.0499511e-09
0.052687465
-0.0037851537
1.0340146e-09
0.056467607
-0.0037801434
9.8660024e-10
0.060234356
-0.0037667498
8.9923486e-10
0.063979698
-0.003745343
7.6379245e-10
0.067695997
-0.0037162996
5.7379956e-10
0.071376004
-0.0036800069
3.2505464e-10
0.075012869
-0.003636865
1.8418282e-11
0.078600156
-0.0035872868
-3.41217e-10
0.082131854
-0.0035316974
-7.4088447e-10
0.085602387
-0.0034705315
-1.1634696e-09
0.089006619
-0.0034042307
-1.5823326e-09
0.092339861
-0.0033332402
-1.9696677e-09
0.095597868
-0.0032580046
-2.2889988e-09
0.098776836
-0.0031789657
-2.5089717e-09
0.1018734
-0.0030965582
-2.5918064e-09
0.10488461
-0.0030112075
-2.5140167e-09
0.10780794
-0.0029233281
-2.247707e-09
0.11064126
-0.002833322
-1.790701e-09
0.11338284
-0.0027415792
-1.1360352e-09
0.11603132
-0.0026484788
-3.1894547e-10
0.11858571
-0.0025543922
6.3496555e-10
0.1210454
-0.0024596904
1.6332422e-09
0.12341014
-0.0023647452
2.6075235e-09
0.12568011
-0.0022699742
3.4008213e-09
0.12785587
-0.002175761
3.9034665e-09
0.12993872
-0.0020828501
3.9603038e-09
0.13192997
-0.0019912533
3.5147039e-09
0.13383422
-0.0019042541
2.5439866e-09
0.13565033
-0.0018161171
1.1417533e-09
0.13740393
-0.0017535993
-4.2619036e-10
0.13905062
-0.0016466823
-1.8213143e-09
0.14079474
-0.001744117
-2.6581766e-09
-0.0013983438
-2.0046901e-09
0.0028592819
-0.0037634198
0.0049576797
-0.0043214051
0.0073019446
-0.0048262596
0.0098296264
-0.0052117572
0.012519667
-0.0055493955
0.015359749
-0.0058574184
0.018333137
-0.0061297781
0.021423432
-0.0063677194
0.024616621
-0.0065759524
0.027899946
-0.0067572172
0.031261284
-0.0069130774
0.034689162
-0.0070450461
0.038172729
-0.0071545307
0.041701649
-0.0072426898
0.045266013
-0.0073104986
0.048856299
-0.0073588231
0.052463339
-0.0073884513
0.056078303
-0.0074001168
0.059692684
-0.0073945246
0.063298307
-0.0073723725
0.06688733
-0.0073343662
0.07045226
-0.0072812304
0.073985969
-0.0072137157
0.077481706
-0.0071326014
0.080933114
-0.0070386956
0.084334249
-0.0069328318
0.087679582
-0.0068158649
0.090964016
-0.0066886647
0.094182885
-0.0065521089
0.097331956
-0.0064070759
0.10040743
-0.0062544383
0.10340593
-0.0060950559
0.10632449
-0.0059297709
0.10916057
-0.005759404
0.111912
-0.0055847523
0.11457701
-0.0054065897
0.1171542
-0.0052256694
0.11964253
-0.0050427295
0.12204135
-0.0048585093
0.12435036
-0.0046737493
0.12656967
-0.0044892837
0.12869978
-0.0043058786
0.13074195
-0.0041250209
0.13269744
-0.003946738
0.13457075
-0.003777566
0.13636077
-0.0036061308
0.13809264
-0.0034854777
0.13972301
-0.0032770499
0.14145107
-0.0034721806
-0.0027942037
0.015031522
-0.0053359336
0.016863919
-0.0061538028
0.018918891
-0.0068812314
0.021126502
-0.0074193685
0.023475123
-0.0078980161
0.025961109
-0.0083434049
0.028571851
-0.0087405194
0.031293873
-0.0090897416
0.034116082
-0.0093981616
0.037028255
-0.0096693907
0.04002028
-0.0099051021
0.043082304
-0.01010707
0.04620481
-0.010277037
0.049378553
-0.010416433
0.052594514
-0.010526459
0.055843892
-0.010608201
0.059118109
-0.010662669
0.062408818
-0.010690826
0.065707911
-0.010693618
0.06900754
-0.010672001
0.072300136
-0.010626962
0.075578434
-0.010559528
0.078835493
-0.010470775
0.08206472
-0.010361828
0.085259887
-0.010233863
0.088415152
-0.010088097
0.09152507
-0.0099257829
0.094584605
-0.0097481989
0.097589131
-0.0095566357
0.10053444
-0.0093523891
0.10341675
-0.0091367455
0.10623267
-0.0089109755
0.10897923
-0.0086763246
0.11165383
-0.0084340075
0.11425428
-0.0081852057
0.11677876
-0.0079310671
0.1192258
-0.0076727115
0.12159431
-0.0074112375
0.12388355
-0.0071477474
0.12609315
-0.0068833473
0.12822315
-0.0066192853
0.13027398
-0.0063567101
0.1322468
-0.0060978451
0.13414282
-0.00584275
0.13596638
-0.005601131
0.13771647
-0.0053562205
0.13941729
-0.0051862981
0.14102779
-0.0048875492
0.14273661
-0.0051810014
-0.0041983263
0.032071802
-0.0065204654
0.033488333
-0.0075703338
0.035095283
-0.0084881812
0.036819676
-0.0091437616
0.038662204
-0.0097405445
0.040629174
-0.010310375
0.042713423
-0.010824768
0.044905435
-0.011281753
0.04719764
-0.011690366
0.049582817
-0.012054569
0.052053269
-0.012375554
0.054601047
-0.012654848
0.05721815
-0.01289414
0.059896545
-0.013094828
0.062628181
-0.013258095
0.065405025
-0.013385045
0.068219109
-0.013476753
0.071062569
-0.013534286
0.073927689
-0.013558737
0.076806935
-0.013551247
0.079692993
-0.013513021
0.082578806
-0.013445342
0.085457604
-0.013349573
0.088322933
-0.013227157
0.091168681
-0.01307961
0.093989095
-0.012908511
0.096778802
-0.012715491
0.099532819
-0.012502215
0.10224656
-0.012270375
0.10491583
-0.012021664
0.10753686
-0.01175777
0.11010624
-0.011480361
0.11262099
-0.011191073
0.11507849
-0.010891502
0.11747649
-0.010583206
0.11981311
-0.010267696
0.12208686
-0.0099464533
0.12429655
-0.0096209302
0.12644139
-0.0092925877
0.12852094
-0.0089628962
0.13053517
-0.0086335158
0.13248444
-0.0083059792
0.13436983
-0.0079832391
0.13619249
-0.0076654131
0.13795662
-0.0073652549
0.13966137
-0.0070609724
0.14132959
-0.0068545172
0.1429237
-0.0064816577
0.14461712
-0.0068744193
-0.0056266688
0.05266849
-0.0071620187
0.053510408
-0.0084122514
0.054505938
-0.0094837112
0.055589405
-0.010227228
0.056775635
-0.010926775
0.058078931
-0.011613672
0.059497813
-0.01224365
0.061027419
-0.01281136
0.062663548
-0.013326495
0.06440161
-0.013792631
0.066236093
-0.014210037
0.068160737
-0.014579492
0.070168787
-0.01490219
0.072253151
-0.015179193
0.074406494
-0.015411438
0.076621315
-0.015599866
0.078890034
-0.015745472
0.081205073
-0.015849325
0.083558919
-0.015912584
0.085944188
-0.015936515
0.088353672
-0.015922504
0.090780392
-0.015872062
0.093217635
-0.015786816
0.095658987
-0.015668509
0.098098366
-0.015518989
0.10053004
-0.015340186
0.10294865
-0.015134102
0.10534922
-0.014902785
0.10772717
-0.01464832
0.1100783
-0.014372794
0.11239882
-0.014078291
0.11468532
-0.013766867
0.1169348
-0.013440547
0.1191446
-0.013101305
0.12131246
-0.012751068
0.12343648
-0.012391712
0.12551509
-0.01202507
0.12754712
-0.011652953
0.12953171
-0.011277178
0.13146839
-0.010899581
0.13335711
-0.010522235
0.1351982
-0.010147064
0.1369927
-0.0097777401
0.13874176
-0.0094144733
0.14044941
-0.0090729105
0.14211514
-0.0087267017
0.14376012
-0.0084994964
0.1453512
-0.00807274
0.14704296
-0.0085661727
-0.0071025321
0.075245313
-0.0070922046
0.075351539
-0.0085184777
0.075577237
-0.0097094092
0.075878943
-0.010528934
0.076284704
-0.011332537
0.076811382
-0.012140349
0.077462018
-0.012894286
0.078236552
-0.013585893
0.0791333
-0.014223244
0.080149124
-0.014808454
0.081279787
-0.015340701
0.082520005
-0.015819709
0.083863602
-0.016245787
0.085303809
-0.0166194
0.086833461
-0.01694109
0.088445117
-0.017211522
0.090131173
-0.017431528
0.091883965
-0.017602117
0.093695865
-0.017724484
0.095559354
-0.017800004
0.097467086
-0.017830236
0.099411941
-0.017816917
0.10138708
-0.017761951
0.10338596
-0.01766739
0.10540239
-0.017535427
0.10743056
-0.017368355
0.10946503
-0.017168564
0.11150074
-0.016938498
0.11353306
-0.016680643
0.11555776
-0.016397495
0.11757101
-0.016091541
0.11956939
-0.015765241
0.12154985
-0.01542101
0.12350975
-0.015061209
0.12544683
-0.014688141
0.12735917
-0.014304051
0.12924523
-0.013911137
0.13110385
-0.013511567
0.13293419
-0.013107524
0.13473583
-0.012701217
0.13650873
-0.012295139
0.13825328
-0.011891613
0.13997057
-0.011495025
0.14166181
-0.01110572
0.14333096
-0.01074206
0.14497793
-0.010373669
0.14662206
-0.010143627
0.14823537
-0.0096860481
0.14995113
-0.010281937
-0.0086580812
0.09805072
-0.006166274
0.097284584
-0.0077523416
0.096609491
-0.009034316
0.096026332
-0.0099457752
0.09557125
-0.010877455
0.095255483
-0.011824581
0.095084404
-0.012723207
0.095062025
-0.013563515
0.095187888
-0.014349107
0.095458737
-0.015079303
0.09587022
-0.015752183
0.096416936
-0.016366426
0.097092412
-0.016921262
0.097889423
-0.017416411
0.098800299
-0.017851965
0.099817079
-0.018228302
0.10093164
-0.01854609
0.10213582
-0.018806292
0.10342149
-0.01901016
0.1047807
-0.019159209
0.10620567
-0.019255207
0.10768891
-0.019300156
0.10922323
-0.019296273
0.1108018
-0.019245966
0.11241818
-0.019151803
0.11406632
-0.019016492
0.11574059
-0.018842834
0.1174358
-0.018633712
0.1191472
-0.018392046
0.12087048
-0.018120766
0.12260173
-0.017822798
0.12433751
-0.017501023
0.12607478
-0.017158275
0.12781089
-0.016797324
0.12954362
-0.016420868
0.13127111
-0.01603154
0.13299189
-0.015631917
0.13470486
-0.015224542
0.13640932
-0.014811982
0.13810494
-0.01439683
0.13979181
-0.013982015
0.14147047
-0.013570272
0.14314215
-0.013166703
0.14480826
-0.012771828
0.14647275
-0.012406547
0.14813609
-0.012037012
0.14981576
-0.011823295
0.1514894
-0.01135969
0.15326782
-0.012060356
-0.010335096
0.11921426
-0.0043435039
0.11752262
-0.006060699
0.11588414
-0.0073958338
0.11438273
-0.0084443663
0.11305464
-0.0095493645
0.11189738
-0.010667326
0.11091643
-0.011742259
0.11011808
-0.012765164
0.10950175
-0.013732772
0.10906284
-0.014640398
0.10879557
-0.015484907
0.10869326
-0.016264124
0.10874835
-0.01697635
0.10895253
-0.017620589
0.10929708
-0.018196518
0.10977308
-0.018704302
0.11037151
-0.01914452
0.11108338
-0.019518163
0.11189983
-0.019826602
0.11281218
-0.020071561
0.11381205
-0.020255082
0.11489139
-0.020379496
0.11604252
-0.020447398
0.11725816
-0.020461605
0.11853148
-0.020425131
0.11985613
-0.020341139
0.12122621
-0.020212916
0.12263632
-0.020043823
0.12408154
-0.019837265
0.12555744
-0.019596662
0.12706005
-0.01932541
0.12858589
-0.019026863
0.13013193
-0.01870431
0.13169556
-0.018360962
0.13327464
-0.017999949
0.13486742
-0.01762432
0.13647257
-0.01723706
0.13808915
-0.016841118
0.13971663
-0.016439464
0.1413549
-0.016035103
0.1430043
-0.015631415
0.1446656
-0.015231575
0.1463403
-0.014841402
0.14803011
-0.014461636
0.1497391
-0.014115542
0.15146844
-0.013766351
0.15323378
-0.013588631
0.15501864
-0.013144551
0.15691123
-0.01395295
-0.012184894
0.13691893
-0.0017651994
0.13440173
-0.0035434976
0.13184403
-0.0048381348
0.12948793
-0.0060882608
0.12736062
-0.0074220553
0.12544349
-0.0087501938
0.12373937
-0.010038142
0.12225336
-0.011279156
0.12098392
-0.012463331
0.11992528
-0.01358176
0.11906995
-0.014629576
0.11840959
-0.015603761
0.11793521
-0.016501969
0.11763729
-0.017322673
0.11750599
-0.018065212
0.11753129
-0.018729605
0.1177032
-0.019316429
0.11801181
-0.019826772
0.1184474
-0.020262197
0.11900054
-0.020624702
0.11966213
-0.020916669
0.12042346
-0.021140826
0.12127627
-0.021300213
0.12221279
-0.021398125
0.12322575
-0.021438084
0.12430839
-0.021423785
0.12545453
-0.02135905
0.1266585
-0.021247791
0.12791519
-0.021093961
0.12922005
-0.020901522
0.13056905
-0.020674404
0.13195866
-0.020416482
0.13338591
-0.020131552
0.13484826
-0.019823316
0.13634369
-0.019495377
0.13787061
-0.019151244
0.1394279
-0.018794352
0.14101487
-0.018428084
0.14263126
-0.018055852
0.14427726
-0.017681102
0.14595354
-0.017307698
0.14766124
-0.016939277
0.14940223
-0.016582391
0.15117864
-0.016238045
0.1529948
-0.0159317
0.15485265
-0.015624203
0.15676614
-0.015502126
0.15872481
-0.015103216
0.16079467
-0.016022815
-0.014267405
0.15007109
0.00076988126
0.14678276
-0.00025517464
0.14348616
-0.0015415343
0.1404392
-0.0030412993
0.1376452
-0.0046280559
0.13509792
-0.0062029077
0.13279919
-0.0077394143
0.13074911
-0.0092290766
0.12894525
-0.010659469
0.12738241
-0.012018922
0.12605278
-0.013299944
0.12494696
-0.01449794
0.12405478
-0.015609792
0.1233656
-0.01663349
0.12286844
-0.017568052
0.1225522
-0.018413368
0.12240583
-0.019170055
0.12241842
-0.019839362
0.12257933
-0.020423109
0.12287826
-0.020923632
0.12330531
-0.021343724
0.12385107
-0.021686586
0.12450663
-0.021955771
0.12526364
-0.022155135
0.12611434
-0.022288782
0.12705157
-0.022361011
0.12806878
-0.022376262
0.12916006
-0.022339069
0.1303201
-0.022254006
0.13154422
-0.022125646
0.13282834
-0.021958524
0.13416896
-0.021757098
0.13556314
-0.021525732
0.1370085
-0.021268676
0.13850318
-0.02099006
0.14004584
-0.020693903
0.14163562
-0.020384132
0.14327215
-0.020064612
0.14495553
-0.019739234
0.14668635
-0.01941192
0.14846571
-0.019087055
0.15029519
-0.018768758
0.15217715
-0.018464347
0.1541142
-0.018175096
0.15611109
-0.017928597
0.15817047
-0.017683578
0.16030521
-0.017636871
0.16250917
-0.01730717
0.16483153
-0.018345182
-0.01664725
0.18893729
0.0053707781
-0.19353818
0.18512841
0.0035536996
0.18173757
0.0018493066
0.1785937
0.0001025747
0.17565945
-0.0016938043
0.17290979
-0.0034532499
0.17032651
-0.0051561339
0.16790062
-0.0068031877
0.16562825
-0.008387098
0.16350725
-0.0098979202
0.16153576
-0.01132846
0.15971169
-0.012673872
0.15803241
-0.013930507
0.15649463
-0.015095707
0.15509443
-0.016167861
0.15382738
-0.017146312
0.15268854
-0.018031221
0.15167265
-0.018823468
0.15077413
-0.019524593
0.14998724
-0.020136736
0.14930608
-0.020662568
0.14872473
-0.021105238
0.14823727
-0.021468311
0.14783784
-0.021755707
0.14752071
-0.021971645
0.14728028
-0.022120578
0.14711115
-0.022207137
0.14700816
-0.022236073
0.14696635
-0.022212205
0.14698107
-0.022140364
0.14704791
-0.022025358
0.14716274
-0.021871933
0.14732175
-0.021684741
0.1475214
-0.021468326
0.14775846
-0.021227117
0.14802998
-0.020965429
0.14833334
-0.02068749
0.1486662
-0.020397469
0.14902653
-0.020099569
0.14941264
-0.01979803
0.14982318
-0.019497593
0.15025715
-0.019202723
0.15071406
-0.01892126
0.15119369
-0.018654731
0.15169712
-0.018432027
0.15222443
-0.018210881
0.15278126
-0.018193702
0.15336219
-0.017888106
0.15399556
-0.018978546
-0.017290776
0.21688522
0.0087679156
-0.22028235
0.21341258
0.0070263372
0.21020103
0.0050608549
0.20709703
0.0032065718
0.20405181
0.0013514218
0.20109631
-0.00049775583
0.19824744
-0.0023072623
0.19550971
-0.0040654586
0.19288903
-0.0057664189
0.19039224
-0.007401131
0.18802455
-0.0089607695
0.18578937
-0.010438687
0.18368869
-0.011829832
0.18172324
-0.013130253
0.17989248
-0.014337103
0.17819481
-0.01544864
0.17662769
-0.016464101
0.17518782
-0.017383599
0.17387127
-0.018208042
0.1726736
-0.018939064
0.17158998
-0.01957895
0.17061531
-0.020130565
0.16974428
-0.020597282
0.16897149
-0.020982918
0.1682915
-0.021291655
0.1676989
-0.021527979
0.16718837
-0.021696608
0.16675472
-0.021802425
0.16639294
-0.021850424
0.16609822
-0.021845644
0.16586599
-0.021793127
0.16569193
-0.021697871
0.16557199
-0.021564801
0.16550241
-0.021398744
0.16547971
-0.021204419
0.16550072
-0.020986443
0.16556258
-0.020749346
0.16566272
-0.020497612
0.16579891
-0.020235764
0.16596927
-0.01996838
0.16617223
-0.019700559
0.16640666
-0.019437156
0.16667185
-0.019186447
0.16696762
-0.018950497
0.16729424
-0.018758651
0.16765328
-0.01856992
0.16804491
-0.018585329
0.16847684
-0.018320034
0.16893517
-0.019436876
-0.017817022
0.24379227
0.011490742
-0.24651509
0.24094302
0.009875584
0.23809103
0.0079128492
0.23524534
0.0060522599
0.23236888
0.00422788
0.22948247
0.0023886532
0.22661733
0.00055787662
0.22379277
-0.0012408934
0.2210247
-0.0029983523
0.21832908
-0.0047055058
0.21571976
-0.0063514523
0.21320776
-0.0079266854
0.21080169
-0.0094237678
0.20850814
-0.010836695
0.20633173
-0.012160698
0.20427537
-0.01339228
0.20234043
-0.014529157
0.20052695
-0.015570127
0.19883389
-0.016514976
0.19725921
-0.01736439
0.19580014
-0.018119874
0.19445323
-0.01878366
0.19321458
-0.019358626
0.19207987
-0.019848209
0.19104454
-0.020256327
0.19010385
-0.020587292
0.18925298
-0.020845736
0.18848709
-0.021036533
0.18780139
-0.021164726
0.18719121
-0.021235463
0.18665202
-0.021253939
0.1861795
-0.021225345
0.18576952
-0.021154828
0.18541825
-0.021047465
0.18512207
-0.020908242
0.18487768
-0.02074206
0.18468209
-0.020553751
0.18453259
-0.020348108
0.18442681
-0.020129983
0.18436273
-0.0199043
0.18433868
-0.019676514
0.18435344
-0.019451913
0.1844061
-0.019239114
0.18449661
-0.019041005
0.18462446
-0.018886493
0.18479279
-0.018738251
0.18499587
-0.018788411
0.1852557
-0.018579864
0.18551076
-0.019691937
-0.018203269
0.26929752
0.013522727
-0.2713295
0.2671305
0.012042596
0.26478982
0.010253532
0.26235173
0.0084903487
0.2598242
0.0067554174
0.25721739
0.0049954586
0.25455744
0.0032178269
0.25186852
0.0014480258
0.24917063
-0.00030046669
0.2464836
-0.0020184677
0.2438267
-0.0036945583
0.2412171
-0.0053170785
0.23866951
-0.0068761842
0.23619645
-0.008363635
0.23380822
-0.0097724675
0.231513
-0.011097054
0.22931697
-0.012333133
0.22722456
-0.013477717
0.22523858
-0.014528997
0.22336045
-0.015486257
0.22159036
-0.016349781
0.21992746
-0.017120764
0.21837004
-0.017801209
0.21691567
-0.018393837
0.21556133
-0.018901989
0.21430358
-0.019329534
0.21313861
-0.019680775
0.21206244
-0.019960363
0.21107093
-0.020173215
0.2101599
-0.020324431
0.20932519
-0.020419232
0.20856274
-0.020462896
0.20786862
-0.020460706
0.20723908
-0.020417922
0.20667059
-0.020339749
0.20615986
-0.020231335
0.2057039
-0.020097787
0.20529999
-0.019944196
0.20494573
-0.019775729
0.20463909
-0.019597659
0.20437837
-0.019415791
0.20416233
-0.019235873
0.20398999
-0.019066779
0.20386143
-0.018912438
0.20377551
-0.01880058
0.2037367
-0.018699439
0.20373419
-0.018785899
0.20380194
-0.018647617
0.20383543
-0.019725423
-0.018426721
0.29300559
0.014853129
-0.29433599
0.29152714
0.013521046
0.2898055
0.011975171
0.28790778
0.010388068
0.28586886
0.0087943408
0.28369955
0.0071647643
0.28141828
0.0054991003
0.27904829
0.0038180176
0.27661089
0.0021369354
0.27412624
0.00046618295
0.27161455
-0.0011828676
0.26909555
-0.0027980849
0.26658759
-0.0043682202
0.26410726
-0.0058833021
0.2616693
-0.0073345161
0.25928651
-0.0087142617
0.25696965
-0.010016273
0.25472756
-0.011235624
0.25256723
-0.012368669
0.25049396
-0.013412988
0.2485115
-0.014367314
0.24662218
-0.01523145
0.24482715
-0.016006176
0.24312646
-0.016693153
0.24151929
-0.01729482
0.24000406
-0.017814295
0.23857856
-0.018255275
0.23724013
-0.018621934
0.23598574
-0.018918832
0.23481214
-0.019150825
0.23371589
-0.019322984
0.23269352
-0.019440526
0.23174156
-0.019508749
0.23085663
-0.019532992
0.23003548
-0.019518597
0.22927505
-0.019470898
0.22857248
-0.019395226
0.22792522
-0.019296935
0.22733098
-0.019181485
0.2267878
-0.019054482
0.22629408
-0.018922069
0.22584867
-0.018790459
0.22545061
-0.018668725
0.22510013
-0.018561956
0.22479572
-0.018496169
0.22454273
-0.018446455
0.22432647
-0.018569638
0.22418977
-0.018510912