/*--------------------------------*- C++ -*----------------------------------*\
  =========                 |
  \\      /  F ield         | OpenFOAM: The Open Source CFD Toolbox
   \\    /   O peration     | Website:  https://openfoam.org
    \\  /    A nd           | Version:  6
     \\/     M anipulation  |
\*---------------------------------------------------------------------------*/
FoamFile
{
    version     2.0;
    format      ascii;
    class       volVectorField;
    location    "91";
    object      U;
}
// * * * * * * * * * * * * * * * * * * * * * * * * * * * * * * * * * * * * * //

dimensions      [0 1 -1 0 0 0 0];

internalField   nonuniform List<vector> 
9200
(
(0.0010404827 0.0014193814 -5.9210803e-20)
(0.013681019 -0.0020609902 4.6050507e-20)
(0.038323917 -0.0058711693 -3.8508111e-20)
(0.072292569 -0.0097701097 -6.0267281e-20)
(0.11379156 -0.013498689 1.8830411e-20)
(0.16161749 -0.016616399 3.2749434e-20)
(0.21471876 -0.018830117 -1.2270427e-20)
(0.27212469 -0.019988826 9.2707415e-21)
(0.33292657 -0.020028289 1.6805981e-20)
(0.39624568 -0.018948293 1.4850649e-21)
(0.46120943 -0.016801306 -2.1460398e-20)
(0.52694191 -0.013681576 2.0674082e-20)
(0.59256606 -0.0097143358 -4.0429666e-20)
(0.65721587 -0.0050447805 -2.1138532e-20)
(0.72005703 0.00017368571 5.9058734e-21)
(0.7803134 0.0057891163 -2.5137923e-20)
(0.83731318 0.011674477 2.5224131e-20)
(0.89061356 0.017876529 2.225253e-20)
(0.93981573 0.024527517 -2.9751014e-22)
(0.98219551 0.028243863 -1.6669083e-21)
(0.0052541148 -0.0013473162 -1.7061915e-20)
(0.026969846 -0.0089927432 3.9754132e-20)
(0.061684891 -0.014815816 2.3580168e-20)
(0.10631867 -0.019180479 -1.1571463e-19)
(0.15876968 -0.022224273 -1.2729255e-20)
(0.21757875 -0.023732945 7.3307669e-20)
(0.28143006 -0.023609276 -3.5482004e-20)
(0.34907533 -0.021885033 -8.3918608e-21)
(0.41932074 -0.018663493 3.4293323e-20)
(0.49100281 -0.01410077 -4.3267407e-20)
(0.56297678 -0.0083979501 -3.0344667e-20)
(0.6341229 -0.001790827 7.1937663e-20)
(0.70336625 0.0054617179 3.8302546e-20)
(0.76970555 0.013089261 -6.799365e-20)
(0.83224703 0.020819739 1.4627947e-20)
(0.89023772 0.0283841 -3.6743937e-20)
(0.94310719 0.035530524 -1.3780309e-20)
(0.99056896 0.04209792 7.0999663e-20)
(1.0324895 0.047668374 2.9657096e-20)
(1.0670636 0.049089244 -8.3494351e-20)
(0.010861326 -0.0040438415 3.6778515e-20)
(0.043963561 -0.015435681 2.5050803e-21)
(0.090534781 -0.022559422 2.2345458e-20)
(0.1471414 -0.02650665 9.813036e-22)
(0.21138426 -0.027897514 -4.078087e-20)
(0.28152179 -0.026808082 1.8578759e-20)
(0.35593724 -0.023397333 1.3422572e-20)
(0.43306951 -0.01793774 -5.0335849e-20)
(0.51141627 -0.010753492 5.7271832e-20)
(0.58952873 -0.0022034805 1.4259982e-20)
(0.66602148 0.0073263517 -5.4312701e-20)
(0.73960068 0.017436494 -1.8242451e-20)
(0.80910233 0.027730265 9.0585002e-21)
(0.87353287 0.037830104 2.3451314e-20)
(0.93210554 0.047391658 -1.1366439e-20)
(0.98426515 0.056113042 2.7885899e-20)
(1.0297031 0.063749415 -2.0193661e-20)
(1.0683895 0.070160583 -7.014688e-20)
(1.1004517 0.075071438 -2.3805328e-20)
(1.1250244 0.076589577 4.8670802e-20)
(0.017961238 -0.0064238795 2.4511145e-20)
(0.064790306 -0.0207 5.1046174e-20)
(0.12487663 -0.02806859 1.9884297e-20)
(0.19450626 -0.030473783 1.2991339e-20)
(0.2709989 -0.029106196 1.7277789e-20)
(0.35231166 -0.024401743 -4.772698e-20)
(0.43650735 -0.016840032 -2.5650844e-20)
(0.52170846 -0.0069920312 0)
(0.60612859 0.0045502462 1.3924943e-20)
(0.68809637 0.01719329 -5.855201e-21)
(0.7660922 0.030353505 -9.7956173e-20)
(0.83879702 0.043476858 -1.5777167e-20)
(0.90514103 0.056061069 6.5121499e-20)
(0.9643424 0.067675402 4.823174e-22)
(1.015929 0.077975419 -1.5730166e-21)
(1.0597379 0.086710626 2.1964086e-20)
(1.095895 0.09373197 -5.2668265e-21)
(1.124792 0.099020862 -6.1048318e-20)
(1.1469702 0.10254841 -4.5866703e-20)
(1.1623944 0.10336132 6.9537223e-20)
(0.026584705 -0.0082075695 -3.9197596e-21)
(0.089360763 -0.024038929 -5.1262429e-21)
(0.16433714 -0.03027275 5.6606445e-20)
(0.2476245 -0.029819407 1.8541489e-20)
(0.33629889 -0.024523644 -3.1959308e-20)
(0.42802228 -0.015251483 1.2165484e-20)
(0.52055659 -0.0028639387 2.6407207e-21)
(0.61175919 0.011723453 3.3615835e-20)
(0.69965258 0.027625171 5.6611126e-21)
(0.78248154 0.04401209 -1.3208749e-20)
(0.85877255 0.060128878 6.0171102e-20)
(0.92739048 0.075318962 -5.8022128e-20)
(0.98757863 0.089048207 -1.3220087e-19)
(1.0389733 0.10092079 -5.5788482e-21)
(1.0815892 0.11068495 8.3175172e-20)
(1.1157774 0.11822778 0)
(1.1421608 0.12356533 1.0121583e-20)
(1.1615664 0.12684586 -1.5464381e-20)
(1.1749109 0.12824995 -8.6021938e-21)
(1.1827539 0.12739665 2.0997635e-20)
(0.036673555 -0.0090914694 -5.4310522e-21)
(0.11733543 -0.024690564 4.3583785e-21)
(0.20815358 -0.028147304 -8.763997e-21)
(0.30520681 -0.023423209 2.8475826e-20)
(0.40539979 -0.013084589 -2.9396825e-20)
(0.5061496 0.0015130178 -1.692964e-20)
(0.60499532 0.019084865 3.7368838e-20)
(0.69965035 0.038354022 4.7598179e-21)
(0.78811269 0.058155017 -2.4443171e-20)
(0.86874827 0.077468439 6.9883133e-20)
(0.9403568 0.095441558 5.2206317e-22)
(1.002213 0.1114114 -8.046639e-20)
(1.0540726 0.12491917 0)
(1.0961394 0.13570982 3.9553958e-20)
(1.1289993 0.14371659 5.5253605e-21)
(1.1535292 0.14903285 -7.7588045e-20)
(1.1707942 0.15187887 -1.959233e-20)
(1.1819512 0.15257941 -1.247108e-20)
(1.188142 0.15147806 -1.4713618e-20)
(1.1902232 0.14853349 4.0431476e-20)
(0.048066927 -0.008769121 -1.727942e-20)
(0.14810701 -0.021936502 -2.2210254e-21)
(0.2551807 -0.020803641 3.0383518e-20)
(0.36551961 -0.010419124 3.7487939e-20)
(0.47597479 0.0058950222 -1.9947311e-20)
(0.5838265 0.026262491 -6.9174306e-20)
(0.68653686 0.048969867 -2.8001655e-20)
(0.78186571 0.072409434 7.8944506e-20)
(0.86801157 0.095202485 8.5810417e-21)
(0.94370194 0.1162373 -2.4878155e-20)
(1.0082392 0.13468298 1.3643762e-20)
(1.0614987 0.14999673 -4.3211844e-21)
(1.1038775 0.16191381 0)
(1.1362009 0.1704173 2.721041e-20)
(1.1596024 0.17569184 -7.9342916e-20)
(1.1753939 0.17806827 -3.1483699e-20)
(1.1849429 0.17796874 8.1075676e-20)
(1.1895723 0.1758664 -4.298603e-21)
(1.1904779 0.17220922 3.5568825e-21)
(1.1885782 0.16714361 2.7119381e-20)
(0.060494711 -0.0069587089 -3.2417226e-20)
(0.18080504 -0.015173698 -8.1633225e-20)
(0.30393395 -0.0075873532 2.5786533e-21)
(0.4264865 0.0096996701 7.0171043e-20)
(0.54542704 0.032628106 6.2433276e-20)
(0.65806893 0.058816586 -7.1584186e-20)
(0.76200647 0.08617252 -2.8116521e-22)
(0.85528734 0.11284708 8.5541106e-20)
(0.93656174 0.13737112 4.883821e-20)
(1.0051508 0.15868364 -5.4231243e-20)
(1.0610437 0.17612211 -9.2355828e-20)
(1.1048291 0.18939608 -3.1597331e-21)
(1.1375762 0.19853774 4.2137963e-20)
(1.1606824 0.20383256 -6.6072788e-21)
(1.1757141 0.20573998 -1.2871778e-20)
(1.1842614 0.20481501 1.9695143e-20)
(1.1878211 0.20164116 4.3891355e-20)
(1.1877188 0.19678481 -4.3869809e-20)
(1.1850644 0.19073489 -1.0234797e-19)
(1.1806901 0.18372726 2.4574149e-20)
(0.073547999 -0.0034337488 -3.4983778e-20)
(0.21425727 -0.003990682 -1.7390032e-19)
(0.35256522 0.011838122 8.2114766e-20)
(0.48569303 0.037017894 9.2780142e-20)
(0.61093287 0.066835739 5.7978569e-20)
(0.72585753 0.098481456 8.6122412e-21)
(0.82844637 0.12959654 -1.0625864e-19)
(0.91729323 0.15824066 0)
(0.99173264 0.18302359 -6.8764814e-20)
(1.0518566 0.2031042 -1.5206333e-20)
(1.0984403 0.21813684 5.4715757e-20)
(1.1327985 0.2281948 1.0975966e-20)
(1.1566038 0.23367221 -4.5624166e-20)
(1.1716942 0.2351748 -4.9092235e-20)
(1.1799025 0.23341466 2.4293583e-20)
(1.1829221 0.22912088 4.4833795e-20)
(1.1822213 0.22297425 -5.5613744e-20)
(1.1790043 0.21556975 -1.0753643e-19)
(1.1742113 0.20738126 -3.1512986e-21)
(1.1685178 0.19867561 2.7052718e-20)
(0.0866624 0.0019613674 -3.5462092e-21)
(0.24699316 0.011817053 8.7922694e-20)
(0.39889915 0.037494115 -1.6475444e-20)
(0.54047258 0.071221626 -8.4323144e-20)
(0.6695801 0.10779308 4.5171627e-20)
(0.78431041 0.14411962 4.9181706e-20)
(0.8832867 0.17775986 5.5367614e-21)
(0.96587919 0.20688599 -9.9521818e-20)
(1.0322771 0.23038606 -2.5054051e-21)
(1.0834317 0.24780978 5.0514612e-20)
(1.1209024 0.259253 5.9867948e-21)
(1.1466466 0.26522175 -1.972168e-20)
(1.1627966 0.26648651 -7.5721012e-20)
(1.1714573 0.26394328 -6.2564103e-21)
(1.1745522 0.2584976 4.3542556e-20)
(1.1737264 0.25098086 3.7029785e-20)
(1.1703059 0.24210102 1.9797013e-20)
(1.1653043 0.2324233 -5.3008551e-20)
(1.1594622 0.22236653 1.295788e-20)
(1.1532831 0.21219841 8.2676643e-20)
(-0.0012934945 0.0014349211 -1.1234216e-21)
(-0.0047467868 0.0031879538 2.0649957e-21)
(-0.010773154 0.0041365637 8.8025216e-22)
(-0.017757139 0.0045402163 -2.441022e-21)
(-0.024744148 0.0045660507 -1.4121794e-21)
(-0.031304252 0.0043265803 1.5466256e-21)
(-0.037166622 0.0039039554 -6.872194e-21)
(-0.042153149 0.0033579916 -5.9590128e-21)
(-0.046163652 0.0027314868 1.1175282e-20)
(-0.04915198 0.0020547582 -9.7456353e-21)
(-0.051106096 0.0013490382 -1.9832479e-22)
(-0.052035265 0.00062895857 3.6685609e-21)
(-0.05196166 -9.5565508e-05 -6.3310794e-22)
(-0.050914618 -0.00081783147 2.282615e-20)
(-0.048927031 -0.0015329843 3.0401181e-22)
(-0.0460348 -0.0022365664 -4.089701e-20)
(-0.042279141 -0.002923928 7.5414245e-21)
(-0.037698336 -0.0035929815 2.3872738e-20)
(-0.032300779 -0.0042422283 -4.386879e-20)
(-0.026145868 -0.0048236551 -2.7749864e-20)
(-0.0016524856 0.0041816068 -5.3728494e-21)
(-0.0053983717 0.0092696696 1.0866881e-20)
(-0.011220266 0.012009314 -1.0193691e-20)
(-0.017660662 0.013155682 3.924567e-21)
(-0.023859817 0.013197184 4.8139475e-21)
(-0.029437254 0.012464213 7.1347226e-22)
(-0.034156573 0.011198126 -2.2516227e-20)
(-0.037864682 0.0095745644 -2.0375991e-21)
(-0.040478369 0.0077191599 2.0169341e-20)
(-0.041962461 0.0057208675 -5.0488211e-21)
(-0.042311648 0.0036419303 -2.1769086e-20)
(-0.041538872 0.0015251733 4.8987953e-21)
(-0.039667753 -0.00060048486 2.2642116e-20)
(-0.036727282 -0.0027156175 1.0311672e-20)
(-0.032748035 -0.0048062633 2.1861709e-20)
(-0.027762597 -0.0068598436 -1.9777396e-20)
(-0.021815257 -0.0088633606 -2.1680334e-20)
(-0.014953365 -0.010810218 2.1192604e-20)
(-0.0071122938 -0.012685891 2.6820064e-20)
(0.0018954012 -0.014325006 1.5860133e-20)
(-0.0023038034 0.0065613552 -4.3578393e-21)
(-0.0065402081 0.014482502 -5.6393307e-21)
(-0.011893774 0.01871334 3.0717657e-22)
(-0.017213274 0.020431015 1.0956213e-21)
(-0.021821615 0.020402889 6.6934938e-21)
(-0.025433531 0.019153748 1.0667781e-20)
(-0.027879421 0.017067734 -3.7237909e-21)
(-0.029054817 0.014424485 -1.8901214e-20)
(-0.028909582 0.011424226 6.5431159e-21)
(-0.027430214 0.0082088839 1.2866126e-20)
(-0.024625104 0.0048777999 5.8360175e-21)
(-0.020515315 0.0014992506 1.8164099e-20)
(-0.015128584 -0.0018809211 1.7301069e-21)
(-0.0084949447 -0.0052324371 -3.3874545e-20)
(-0.00064292505 -0.0085339974 1.2027754e-21)
(0.0083989787 -0.011766766 -2.2145484e-20)
(0.01857932 -0.014913099 -2.4474961e-20)
(0.029829629 -0.017964181 4.5835918e-20)
(0.042337987 -0.020867039 2.5358909e-20)
(0.056778022 -0.02326115 1.2316856e-22)
(-0.0031294984 0.0083703304 -5.2845406e-21)
(-0.0078974504 0.018339268 -8.4846515e-21)
(-0.012440383 0.023591104 4.3601309e-21)
(-0.01602796 0.025612925 4.1473342e-21)
(-0.018236104 0.025385588 2.0109821e-21)
(-0.018912984 0.023591462 7.3229164e-21)
(-0.017983877 0.020731512 9.3148367e-21)
(-0.015414252 0.01717057 -1.35148e-21)
(-0.011202508 0.013170345 -1.1484844e-20)
(-0.0053681317 0.0089167095 -2.9079511e-20)
(0.0020582732 0.0045398793 6.2053149e-23)
(0.011040246 0.00012933846 4.0708787e-20)
(0.021540073 -0.0042554174 -1.8387846e-20)
(0.03352036 -0.008575628 -1.2299572e-20)
(0.046948251 -0.012805255 5.5316392e-22)
(0.061793648 -0.016923326 3.2312587e-20)
(0.077992976 -0.020915007 -1.4835074e-20)
(0.09543922 -0.024778694 -5.3355865e-20)
(0.11445306 -0.028397112 4.5779413e-20)
(0.13640876 -0.031092495 3.3023882e-20)
(-0.003970951 0.0094671635 -6.878151e-22)
(-0.0090926792 0.020490613 -1.2537254e-20)
(-0.012365415 0.026162371 -3.4152488e-20)
(-0.013552869 0.028146453 -5.725783e-21)
(-0.012532413 0.027557502 -3.6227812e-21)
(-0.009314196 0.025189619 6.3065953e-21)
(-0.0039408611 0.021627793 -4.6473174e-21)
(0.0035337314 0.017297992 -8.8090099e-21)
(0.01304782 0.012506299 2.1904748e-20)
(0.024536228 0.0074703903 5.0576954e-21)
(0.037935116 0.00234315 -2.5297015e-20)
(0.053182232 -0.0027703358 1.1080817e-20)
(0.070217491 -0.0078003193 0)
(0.088983678 -0.012702739 1.2092744e-20)
(0.10942965 -0.017450448 -9.7042345e-21)
(0.13150937 -0.02202563 -1.4341384e-20)
(0.1551344 -0.026426705 -1.5730686e-21)
(0.18013689 -0.030679947 -2.2193054e-21)
(0.20693227 -0.034599661 4.6159218e-20)
(0.23775321 -0.037045508 -1.0475068e-20)
(-0.0046456497 0.0097821986 -7.5369966e-21)
(-0.0096780684 0.020750377 2.4521626e-20)
(-0.011064579 0.026163727 -1.0501814e-20)
(-0.0090956403 0.027726804 -2.7475038e-20)
(-0.0039764178 0.026603196 -2.7553557e-20)
(0.0041022962 0.023648712 -1.4924721e-20)
(0.014963762 0.019495314 -6.9074015e-22)
(0.028450033 0.014601925 5.5510634e-21)
(0.044421817 0.0092988778 1.961983e-20)
(0.062754726 0.0038219307 7.3546738e-21)
(0.083334794 -0.0016632694 -7.1877077e-21)
(0.10605639 -0.0070428887 -2.0103378e-21)
(0.1308186 -0.012241987 -3.8200782e-20)
(0.15752273 -0.017214984 -1.2696716e-20)
(0.1860742 -0.021937413 1.8756007e-20)
(0.21638346 -0.026399952 -2.1027626e-20)
(0.24831395 -0.030625132 -8.9754834e-21)
(0.28161086 -0.034696338 3.0447655e-20)
(0.31671005 -0.038393543 5.0484787e-20)
(0.35676497 -0.039995764 3.3569982e-21)
(-0.0049622408 0.0093150956 1.6786059e-20)
(-0.0091666379 0.019099537 1.4470359e-20)
(-0.0078584367 0.023565107 5.1155268e-20)
(-0.0018553132 0.02433 2.3392774e-20)
(0.0083021452 0.022523706 1.8255567e-22)
(0.022232409 0.019012844 -3.939629e-20)
(0.039612776 0.014437689 -2.4318751e-20)
(0.060168898 0.0092612172 1.0467756e-20)
(0.083666542 0.003816039 1.4404396e-20)
(0.1099013 -0.0016606638 -1.3115972e-20)
(0.13868815 -0.0070026641 -4.4048028e-20)
(0.16985283 -0.012096898 2.9624965e-20)
(0.20322443 -0.016870709 2.0024562e-20)
(0.23862967 -0.021283143 -2.7557385e-20)
(0.27589285 -0.025318246 1.1653084e-20)
(0.31483939 -0.028981803 2.420339e-20)
(0.35524775 -0.032330574 8.0746329e-21)
(0.3967473 -0.035537206 -1.1767819e-20)
(0.43970148 -0.038426374 -1.419288e-20)
(0.48812098 -0.038671386 5.8771154e-21)
(-0.004731056 0.0081244194 1.1095845e-20)
(-0.0070582124 0.01567206 -2.3357689e-20)
(-0.0020268436 0.018562392 8.6211058e-21)
(0.0090383868 0.018215551 3.3594501e-20)
(0.025266634 0.015649049 5.2134092e-20)
(0.046082002 0.011691786 2.0280294e-20)
(0.071006504 0.0069552042 -5.8651525e-21)
(0.099631117 0.0018751051 -1.2288344e-20)
(0.13160612 -0.0032372776 -6.2071469e-21)
(0.16662161 -0.0081620855 3.4247396e-20)
(0.20438963 -0.0127482 -4.5118245e-21)
(0.24463028 -0.016896617 -1.6646952e-20)
(0.28706068 -0.020548759 -1.9697349e-20)
(0.33138688 -0.02367922 -4.7454074e-20)
(0.37730261 -0.026291163 2.3243801e-20)
(0.42449689 -0.028416397 -1.4099336e-20)
(0.47261993 -0.030159131 2.6000218e-20)
(0.52116699 -0.031817747 2.1046137e-20)
(0.57035468 -0.033388457 -8.558712e-20)
(0.6248593 -0.032100042 -1.0709636e-22)
(-0.0037710086 0.0063149617 2.1928635e-20)
(-0.0028642646 0.010734858 -2.6170601e-20)
(0.0071467596 0.011562875 -4.5021233e-20)
(0.024459426 0.0099223279 -2.7258743e-20)
(0.047885779 0.0066479392 -2.0443485e-21)
(0.076650451 0.0024843236 1.3052067e-20)
(0.11010629 -0.0020237781 -2.8339916e-21)
(0.14769032 -0.0064985016 1.8121557e-20)
(0.18890871 -0.010676418 8.8698747e-21)
(0.23330986 -0.014377743 -1.1382146e-20)
(0.28046011 -0.017486762 8.8800991e-21)
(0.32992574 -0.019937194 -2.3907848e-20)
(0.3812598 -0.021701748 8.0525845e-21)
(0.43399312 -0.022785679 1.6760052e-20)
(0.48763267 -0.023222952 -2.6400892e-21)
(0.54167103 -0.023078482 1.6621938e-21)
(0.59556915 -0.02250405 -3.1934785e-22)
(0.64866036 -0.021907764 1.9595148e-20)
(0.7009724 -0.021485894 4.0442999e-21)
(0.75760747 -0.018543363 -5.7829418e-22)
(-0.0019105053 0.0040272115 2.3696296e-20)
(0.0038724361 0.0046750837 5.7170552e-20)
(0.020322682 0.0031850048 -4.9252657e-20)
(0.045191535 0.00028973052 -9.9471205e-21)
(0.076985563 -0.003430771 2.0259531e-20)
(0.11472493 -0.0073622586 2.1437161e-21)
(0.15757681 -0.011065773 -2.9819896e-20)
(0.2047964 -0.01425717 6.9856966e-21)
(0.25570835 -0.016753235 7.1113294e-21)
(0.30967483 -0.018444601 -2.6258834e-20)
(0.36606807 -0.019280149 1.2930576e-21)
(0.42425269 -0.019254408 -3.7181389e-20)
(0.48357538 -0.018397332 -3.6348607e-20)
(0.54336075 -0.016766111 6.5698232e-20)
(0.60291315 -0.014437978 5.5641132e-21)
(0.66152271 -0.011509564 -1.5193325e-20)
(0.71844923 -0.0081388458 1.936849e-20)
(0.77284638 -0.0046329233 -9.1910045e-22)
(0.82423998 -0.0010115249 2.0366875e-20)
(0.87637346 0.0042809461 -1.9561686e-20)
(-0.018821408 -0.005102447 5.8375441e-20)
(-0.010204866 -0.0056379678 1.5789647e-20)
(-0.0001958723 -0.0060722111 -3.5153733e-20)
(0.01085478 -0.0063376889 1.6797867e-20)
(0.02268092 -0.0065158602 0)
(0.035223931 -0.006634132 0)
(0.048424032 -0.0066952354 -2.2985676e-20)
(0.062201531 -0.0067070121 -1.6510587e-20)
(0.076486041 -0.0066788481 1.9132586e-20)
(0.091218083 -0.0066175332 1.8183529e-20)
(0.10634272 -0.0065282598 1.0528161e-21)
(0.12180817 -0.0064155919 -1.0322853e-20)
(0.13756617 -0.0062834891 8.3323111e-21)
(0.15357155 -0.0061352996 1.8243387e-20)
(0.1697816 -0.0059738878 -5.2315362e-21)
(0.1861557 -0.0058017403 -1.0180446e-20)
(0.20265515 -0.0056210293 -4.321943e-21)
(0.219243 -0.0054336652 -4.427633e-21)
(0.23588387 -0.0052413416 7.3687463e-22)
(0.25254399 -0.0050455701 1.2295004e-21)
(0.26919109 -0.0048477074 2.5692184e-21)
(0.28579449 -0.004648975 6.6589876e-21)
(0.30232511 -0.0044504738 2.4788998e-22)
(0.31875554 -0.0042531951 -3.4546004e-21)
(0.33506007 -0.0040580286 1.5542679e-22)
(0.35121479 -0.003865768 -5.7770744e-22)
(0.36719763 -0.0036771154 1.2448747e-21)
(0.38298838 -0.0034926857 1.0529723e-21)
(0.39856875 -0.0033130098 -1.3018501e-21)
(0.41392238 -0.0031385387 -1.2205462e-22)
(0.42903484 -0.0029696472 3.4025995e-23)
(0.44389361 -0.0028066385 -3.5263756e-22)
(0.45848808 -0.0026497491 -4.0756435e-22)
(0.47280949 -0.0024991539 5.671504e-23)
(0.48685093 -0.0023549723 -1.3859195e-22)
(0.50060727 -0.0022172742 -2.2416292e-22)
(0.51407512 -0.0020860868 2.5679431e-22)
(0.52725288 -0.0019614014 2.965099e-22)
(0.54014058 -0.0018431825 -9.3029049e-24)
(0.55274032 -0.0017313717 -1.577939e-22)
(0.56505512 -0.0016259174 3.0378631e-23)
(0.57709302 -0.0015267272 -4.0436617e-23)
(0.5888552 -0.0014338907 9.4347897e-23)
(0.60037381 -0.0013470705 2.1473227e-23)
(0.61160138 -0.0012676188 -1.2000114e-22)
(0.62274329 -0.0011922311 -7.240802e-24)
(0.63329528 -0.0011335077 2.0160205e-25)
(0.64485154 -0.0010578057 -4.3677134e-24)
(0.65307749 -0.0010776541 2.9227555e-23)
(0.67021105 -0.00090607001 3.6795787e-22)
(0.010471644 -0.015025982 -1.2752642e-20)
(0.018210356 -0.016650243 -6.3326963e-20)
(0.027815614 -0.017925493 -3.0555432e-20)
(0.038427989 -0.018682872 3.8492753e-20)
(0.049670882 -0.019195067 1.4669217e-20)
(0.061564228 -0.019541579 -1.8214191e-20)
(0.074078829 -0.019722655 4.6756208e-21)
(0.087137817 -0.019759897 2.5459124e-20)
(0.10067818 -0.019681277 9.086366e-23)
(0.11464973 -0.019506266 -7.6635604e-21)
(0.12900439 -0.019249474 -1.3025889e-20)
(0.14369558 -0.018923956 -8.5301885e-21)
(0.15867945 -0.018541132 1.7781716e-20)
(0.17391454 -0.018110661 8.9382717e-21)
(0.18936113 -0.017640831 -1.652955e-20)
(0.20498109 -0.017138868 -6.0424469e-21)
(0.22073774 -0.016611114 3.2157389e-21)
(0.23659576 -0.01606317 8.3755088e-21)
(0.25252117 -0.015500017 6.988175e-21)
(0.26848129 -0.014926123 -6.9796455e-21)
(0.28444478 -0.014345505 -3.1737722e-21)
(0.30038172 -0.013761794 1.3643603e-21)
(0.31626362 -0.013178271 3.9070988e-22)
(0.33206357 -0.012597896 1.2134199e-21)
(0.34775624 -0.012023331 1.847472e-22)
(0.36331799 -0.011456957 -3.2788847e-22)
(0.37872694 -0.010900883 -7.2611093e-22)
(0.39396302 -0.010356959 9.754353e-22)
(0.40900796 -0.0098267886 8.2772885e-22)
(0.42384537 -0.009311734 -1.5444916e-22)
(0.43846073 -0.008812933 5.558252e-22)
(0.45284137 -0.0083313095 -2.3932495e-22)
(0.46697648 -0.007867588 -3.7340678e-22)
(0.48085703 -0.0074223102 -6.1342084e-22)
(0.4944758 -0.0069958511 4.4331785e-22)
(0.50782734 -0.0065884382 -1.8648355e-23)
(0.52090787 -0.0062001712 1.6461628e-22)
(0.53371539 -0.0058310422 -4.4704657e-22)
(0.54624949 -0.0054809639 3.7919708e-22)
(0.55851181 -0.0051497792 6.7898694e-23)
(0.5705049 -0.0048373512 -1.0296973e-22)
(0.58223628 -0.0045434206 1.8152577e-22)
(0.59370673 -0.0042682722 2.4192334e-22)
(0.6049476 -0.0040109129 1.7691603e-22)
(0.61591165 -0.0037753953 1.772864e-22)
(0.6268013 -0.0035518759 -2.7900088e-23)
(0.63711887 -0.0033779178 9.3521673e-23)
(0.64843509 -0.0031533538 8.5813736e-23)
(0.65648156 -0.0032128364 -2.0823598e-22)
(0.67329429 -0.0027038269 -3.6366698e-23)
(0.067660098 -0.024043461 9.4568645e-21)
(0.073640145 -0.026764695 3.297321e-21)
(0.082322045 -0.028822553 -1.2169714e-20)
(0.092011145 -0.029986619 -1.2273828e-21)
(0.10205382 -0.030787043 1.4978338e-20)
(0.11262482 -0.031351125 -1.4893957e-20)
(0.12376297 -0.031657328 -2.9857616e-20)
(0.13539303 -0.031735244 1.4501868e-20)
(0.14746307 -0.031630819 1.819238e-20)
(0.15994019 -0.031374153 -1.1605297e-20)
(0.17278878 -0.030986802 1.0195959e-21)
(0.18597124 -0.030488594 8.6882382e-21)
(0.19945135 -0.029897227 -1.5263615e-20)
(0.21319406 -0.029227731 2.916643e-21)
(0.22716485 -0.028493055 7.52545e-21)
(0.24132975 -0.027704594 2.7424358e-23)
(0.25565548 -0.026872439 2.6294347e-22)
(0.27010949 -0.026005571 -7.4221882e-21)
(0.28466003 -0.025112044 3.8700509e-21)
(0.29927625 -0.024199119 8.4839389e-21)
(0.31392831 -0.02327338 -3.8394147e-21)
(0.32858745 -0.022340798 -2.2148181e-21)
(0.34322617 -0.0214068 1.0119496e-21)
(0.35781829 -0.020476301 -1.7185723e-21)
(0.37233903 -0.019553739 1.354532e-21)
(0.38676519 -0.018643093 7.1922193e-22)
(0.40107513 -0.017747904 1.5344484e-21)
(0.41524888 -0.016871289 -1.9609328e-21)
(0.42926819 -0.016015955 2.233829e-21)
(0.44311656 -0.01518422 5.5426757e-22)
(0.45677922 -0.014378025 4.0944484e-22)
(0.47024318 -0.013598961 3.2203347e-22)
(0.4834972 -0.012848288 8.808623e-22)
(0.49653176 -0.012126964 -1.3831275e-21)
(0.50933905 -0.01143567 3.7476565e-22)
(0.52191294 -0.010774843 1.1376534e-22)
(0.53424897 -0.010144706 -4.6712246e-23)
(0.54634435 -0.0095453042 8.5041184e-23)
(0.55819786 -0.00897655 -3.7736458e-22)
(0.56981029 -0.008438239 1.87124e-22)
(0.58118331 -0.0079301987 -3.5406521e-23)
(0.59232349 -0.0074520519 4.0437027e-22)
(0.60323078 -0.007004321 -1.9290558e-22)
(0.61393516 -0.0065854121 4.8675702e-23)
(0.62438973 -0.0062020593 4.6331373e-23)
(0.63479136 -0.0058380923 -7.8480936e-23)
(0.64465489 -0.0055553158 -1.3358961e-22)
(0.65550612 -0.0051893575 4.2110093e-22)
(0.66320432 -0.0052881409 1.8493544e-22)
(0.67939521 -0.0044588575 -8.4743546e-22)
(0.15028607 -0.031481071 1.5022371e-21)
(0.15362298 -0.035279696 -1.1569804e-20)
(0.16069868 -0.038034933 6.6455606e-21)
(0.1688955 -0.039504568 -1.3330273e-20)
(0.17707936 -0.040547534 -1.9766901e-21)
(0.18562859 -0.041330501 9.165455e-21)
(0.19469795 -0.041786803 -9.7736362e-21)
(0.20420991 -0.041944572 1.5648307e-21)
(0.21412056 -0.041865446 1.2910216e-20)
(0.22441943 -0.04158767 3.4065256e-21)
(0.23508727 -0.041136565 -6.2129488e-21)
(0.24609699 -0.040536125 -2.8670584e-21)
(0.25742122 -0.039808555 -5.8415705e-21)
(0.26903247 -0.038972971 -6.4606214e-21)
(0.2809022 -0.038045987 3.234036e-21)
(0.29300116 -0.037042402 8.4226199e-22)
(0.30529987 -0.035975513 1.3705232e-21)
(0.31776879 -0.034857307 -3.387283e-21)
(0.33037858 -0.033698647 -4.2493575e-21)
(0.34310032 -0.032509433 2.3652663e-21)
(0.35590566 -0.031298711 3.2313647e-21)
(0.36876705 -0.030074754 -1.5685828e-21)
(0.38165789 -0.028845125 1.5898123e-21)
(0.39455266 -0.027616712 -3.9345274e-22)
(0.4074271 -0.026395765 -3.9311077e-21)
(0.42025827 -0.025187916 -3.0385899e-21)
(0.43302466 -0.023998197 -1.9245958e-22)
(0.44570629 -0.022831058 4.2723082e-22)
(0.45828474 -0.021690386 -2.2157286e-21)
(0.4707432 -0.020579526 -8.6202678e-22)
(0.48306649 -0.019501304 2.2879361e-22)
(0.49524107 -0.018458057 -1.2581042e-21)
(0.50725505 -0.017451663 4.4005361e-24)
(0.51909817 -0.016483578 -4.2878804e-22)
(0.53076177 -0.015554872 -4.7365777e-22)
(0.5422388 -0.014666274 -5.2905409e-22)
(0.55352381 -0.013818214 -8.5551895e-22)
(0.56461293 -0.013010873 -5.35108e-23)
(0.57550384 -0.012244241 -3.946112e-24)
(0.58619615 -0.011518148 -5.3072793e-22)
(0.59669035 -0.010832463 -9.0370045e-23)
(0.60699171 -0.010186765 -3.4284956e-22)
(0.61709909 -0.0095818795 -4.5564731e-22)
(0.62704054 -0.0090156992 3.9480936e-22)
(0.63676975 -0.0084975935 1.5487566e-23)
(0.6464757 -0.0080054376 1.9385939e-22)
(0.65569123 -0.0076240211 -1.4621807e-22)
(0.66587762 -0.007128741 -2.8859526e-22)
(0.673078 -0.0072660631 -3.2648368e-23)
(0.68837696 -0.006144294 4.7275507e-22)
(0.25478382 -0.036579971 -2.0909009e-20)
(0.25457386 -0.041422561 4.7602272e-20)
(0.2591835 -0.044776648 1.0351383e-20)
(0.26520165 -0.04647473 -1.5771665e-20)
(0.27083453 -0.047748623 -2.0249628e-21)
(0.2766532 -0.048783715 2.6229018e-21)
(0.28297735 -0.049451265 -1.6630751e-21)
(0.28972795 -0.049767207 -4.6883024e-21)
(0.2968574 -0.049802058 -4.0178714e-21)
(0.30437669 -0.049599165 -1.2213816e-20)
(0.31228448 -0.049185253 1.7909794e-20)
(0.32056347 -0.048585791 6.5274602e-21)
(0.32919365 -0.047825354 -1.678983e-20)
(0.33815405 -0.046925789 1.0319693e-20)
(0.34742134 -0.045906441 8.385832e-21)
(0.35697016 -0.044784821 -8.7558589e-22)
(0.366774 -0.043576947 -3.1212193e-21)
(0.37680563 -0.042297515 -3.8265365e-21)
(0.38703747 -0.04096004 -1.3923885e-21)
(0.39744188 -0.039576984 -1.2333969e-21)
(0.40799149 -0.038159855 -3.0324919e-21)
(0.41865942 -0.036719268 0)
(0.42941951 -0.035264999 -1.3487195e-21)
(0.44024651 -0.033806006 3.9365959e-21)
(0.45111621 -0.032350464 5.4172765e-21)
(0.4620056 -0.030905772 -9.4202578e-22)
(0.47289299 -0.029478575 -2.939359e-21)
(0.48375803 -0.028074783 3.0405838e-21)
(0.49458185 -0.026699582 2.5054353e-22)
(0.50534706 -0.025357471 3.4520986e-21)
(0.51603779 -0.024052279 -5.3555941e-22)
(0.52663972 -0.02278721 1.7255795e-21)
(0.53714007 -0.021564877 -8.0590314e-22)
(0.54752759 -0.020387347 2.9592888e-22)
(0.55779257 -0.019256195 -4.3973575e-22)
(0.56792683 -0.018172549 5.6676833e-22)
(0.57792369 -0.017137156 4.6344604e-22)
(0.58777803 -0.016150437 3.8861118e-22)
(0.59748619 -0.015212566 -9.7584876e-22)
(0.60704644 -0.014323505 6.9711559e-22)
(0.61645785 -0.01348326 -3.7758762e-22)
(0.6257242 -0.012691464 -1.1354204e-21)
(0.63484309 -0.011949318 1.4551832e-21)
(0.64384026 -0.011254319 -6.3866559e-23)
(0.65267027 -0.010618393 -1.658013e-22)
(0.66151226 -0.010013964 -8.3051455e-24)
(0.66992195 -0.0095470905 -1.3923484e-22)
(0.67927908 -0.0089383112 -4.9990981e-22)
(0.68585941 -0.0091129955 8.7112833e-22)
(0.70004011 -0.0077353141 -4.5591708e-23)
(0.37647512 -0.038401823 -1.7502493e-20)
(0.37183918 -0.04430582 1.2835719e-20)
(0.37300276 -0.048199243 2.978437e-21)
(0.37605365 -0.050138352 -7.638379e-21)
(0.37845612 -0.051711302 1.2060878e-20)
(0.38088175 -0.053085548 7.7947754e-21)
(0.38384328 -0.054075041 -1.2651844e-20)
(0.38727686 -0.054679894 -6.0707618e-21)
(0.39111509 -0.054966551 1.2703368e-20)
(0.39537844 -0.054977406 -1.531591e-20)
(0.40008105 -0.054739484 -1.4070248e-20)
(0.40521335 -0.054278294 1.4141448e-20)
(0.4107591 -0.053618953 6.8232739e-21)
(0.41670065 -0.05278488 -4.2123274e-21)
(0.42301743 -0.05179758 -1.8516872e-21)
(0.42968603 -0.050676948 -4.0565961e-21)
(0.43668113 -0.049441547 5.3035781e-21)
(0.44397629 -0.048108742 3.6706192e-21)
(0.45154435 -0.04669477 -3.2418891e-21)
(0.45935786 -0.045214793 3.1401368e-21)
(0.46738938 -0.043682958 2.7711778e-21)
(0.47561183 -0.042112428 -3.2161631e-21)
(0.48399872 -0.040515405 3.709047e-22)
(0.49252432 -0.03890314 -3.2599862e-21)
(0.50116391 -0.037285945 7.2689526e-21)
(0.50989385 -0.035673204 6.1240682e-21)
(0.51869171 -0.034073378 8.1526152e-22)
(0.52753639 -0.032494029 -1.7730898e-21)
(0.53640815 -0.030941832 3.7219882e-21)
(0.54528868 -0.029422611 7.2258883e-21)
(0.55416112 -0.02794137 2.3138748e-21)
(0.56301009 -0.026502337 3.3374611e-21)
(0.57182167 -0.02510901 2.0073357e-21)
(0.58058344 -0.023764214 7.5204189e-22)
(0.58928445 -0.022470165 -2.6464884e-22)
(0.59791521 -0.021228525 2.7490347e-21)
(0.60646771 -0.020040483 6.2704356e-22)
(0.61493543 -0.018906821 2.983405e-22)
(0.6233133 -0.017828016 5.6868761e-23)
(0.6315981 -0.016804273 1.0101647e-21)
(0.63978746 -0.015835842 4.7623501e-23)
(0.64788354 -0.014922513 4.5542878e-22)
(0.65588265 -0.014065946 -1.2938821e-22)
(0.66380802 -0.013263364 -2.8877088e-22)
(0.67161539 -0.012529151 -1.5907311e-22)
(0.67947254 -0.011830871 -4.45045e-22)
(0.68696218 -0.011293778 1.7627506e-22)
(0.69536861 -0.010589974 -1.3546237e-22)
(0.70124005 -0.010800487 -4.9603694e-22)
(0.71412939 -0.0092097877 2.5306983e-22)
(0.50941877 -0.036013786 3.6465556e-21)
(0.49968043 -0.043002203 -1.8962961e-20)
(0.49643175 -0.047427074 -2.3095504e-21)
(0.49571916 -0.049782378 5.4886948e-21)
(0.49434021 -0.051865667 3.054973e-21)
(0.49287416 -0.05375508 -4.7899618e-23)
(0.4919989 -0.055239349 6.194688e-21)
(0.49170984 -0.056319102 7.6291699e-21)
(0.49191625 -0.057046215 9.8618758e-21)
(0.49262513 -0.057453211 -1.125625e-20)
(0.49385589 -0.05756587 -2.1593215e-20)
(0.49560372 -0.057409898 -3.9398994e-21)
(0.49785243 -0.057010508 1.5949316e-20)
(0.50058333 -0.056392274 1.2818004e-20)
(0.50377533 -0.055578885 -5.908115e-21)
(0.50740443 -0.054592894 1.3786621e-21)
(0.51144447 -0.053455747 -3.6664245e-21)
(0.51586799 -0.052187849 2.2533499e-21)
(0.52064676 -0.050808551 -2.9143674e-22)
(0.52575221 -0.049336124 -1.867815e-21)
(0.53115577 -0.047787755 7.8403677e-21)
(0.53682916 -0.046179539 -2.957459e-22)
(0.5427447 -0.04452647 4.2099021e-22)
(0.54887547 -0.042842437 -6.5446507e-22)
(0.5551955 -0.041140215 -4.311488e-21)
(0.56167993 -0.039431467 4.2176517e-21)
(0.56830511 -0.037726752 1.9051796e-21)
(0.57504866 -0.036035538 -3.3167976e-21)
(0.58188959 -0.034366229 -4.1196973e-21)