/*--------------------------------*- C++ -*----------------------------------*\
  =========                 |
  \\      /  F ield         | OpenFOAM: The Open Source CFD Toolbox
   \\    /   O peration     | Website:  https://openfoam.org
    \\  /    A nd           | Version:  6
     \\/     M anipulation  |
\*---------------------------------------------------------------------------*/
FoamFile
{
    version     2.0;
    format      ascii;
    class       volSymmTensorField;
    location    "91";
    object      UPrime2Mean;
}
// * * * * * * * * * * * * * * * * * * * * * * * * * * * * * * * * * * * * * //

dimensions      [0 2 -2 0 0 0 0];

internalField   nonuniform List<symmTensor> 
9200
(
(0.00021656012 -0.0001681134 7.9352777e-22 0.00013495355 -4.2505998e-22 1.2773443e-38)
(0.0013290267 -0.0010651314 2.0106463e-21 0.00085685872 -1.5007405e-21 1.388982e-38)
(0.0026720112 -0.0020777916 2.6238854e-22 0.0016245678 -1.9689616e-22 7.6184101e-39)
(0.0041887381 -0.0030466412 -3.0046415e-21 0.0022395217 2.1176361e-21 1.5173898e-38)
(0.0056651017 -0.003898266 1.281746e-22 0.002726639 -1.1113134e-22 2.2266704e-39)
(0.006996736 -0.0045947494 1.2434458e-21 0.0030862697 -8.3143492e-22 3.4317469e-40)
(0.0081138961 -0.0051240611 -2.6048295e-22 0.0033320626 1.8358499e-22 1.008848e-39)
(0.0089626499 -0.0054889491 2.3714623e-22 0.0034861787 -1.6252031e-22 6.7953829e-40)
(0.0095083552 -0.0056992025 1.2052961e-21 0.0035697526 -7.3748041e-22 1.9369631e-39)
(0.0097365921 -0.0057682052 9.2987604e-23 0.0036006627 -5.7375113e-23 5.5076703e-42)
(0.0096526748 -0.0057113043 -1.2818615e-21 0.0035935908 7.9822583e-22 1.0358598e-39)
(0.009280794 -0.0055447968 1.0660568e-21 0.0035602283 -6.9090152e-22 1.3784083e-40)
(0.0086620136 -0.0052852854 -1.8925377e-21 0.0035095766 1.3000564e-21 2.2122128e-39)
(0.0078507476 -0.0049492844 -9.5366599e-22 0.0034483459 6.6931166e-22 1.370876e-40)
(0.0069098969 -0.0045529639 2.4654201e-22 0.0033813818 -1.8707195e-22 1.7769629e-41)
(0.0059051176 -0.0041119284 -9.2067276e-22 0.0033120748 7.3942044e-22 1.8275368e-40)
(0.0048987352 -0.0036410136 8.0206302e-22 0.0032429018 -7.0051969e-22 2.2297338e-40)
(0.0039439901 -0.003154296 5.8578937e-22 0.0031771 -5.3714535e-22 9.3774974e-40)
(0.00308411 -0.0026645076 -2.3676256e-23 0.0031190577 4.8916189e-23 1.7434234e-40)
(0.0023644947 -0.0021813291 -1.4829312e-23 0.0030389477 4.4442391e-23 2.1609191e-40)
(0.00028533616 -0.00019074113 8.3714391e-23 0.00013096854 -3.2450898e-23 2.2408568e-40)
(0.0016916105 -0.0011738971 2.1311321e-21 0.00081708763 -1.3865128e-21 1.4823514e-38)
(0.0033428752 -0.0022554734 -7.0432841e-22 0.0015299148 4.7156063e-22 8.0560708e-39)
(0.0050937251 -0.0032460319 -5.3846068e-21 0.0020904786 3.3749992e-21 3.5098912e-38)
(0.0066980466 -0.00407821 -1.7800562e-22 0.002525017 1.1463313e-22 4.4307122e-40)
(0.0080372706 -0.0047195176 4.1345926e-21 0.0028383041 -2.4531211e-21 1.1600807e-38)
(0.00904205 -0.0051664098 -1.6848967e-21 0.0030477171 9.9280162e-22 3.9028074e-40)
(0.0096718766 -0.0054310246 -5.0895389e-22 0.0031770502 2.9756022e-22 1.4240762e-40)
(0.0099153974 -0.0055317934 1.9221358e-21 0.0032478159 -1.1340267e-21 1.0815885e-39)
(0.0097886843 -0.0054895034 -2.3198476e-21 0.0032774562 1.3952385e-21 1.2354653e-39)
(0.0093319056 -0.0053255018 -1.6385036e-21 0.0032795455 1.0129564e-21 1.5383285e-39)
(0.0086049247 -0.0050606729 3.5184118e-21 0.0032641251 -2.2703604e-21 7.8145372e-39)
(0.0076813218 -0.0047149302 1.631885e-21 0.0032381226 -1.1247206e-21 5.3450693e-40)
(0.0066410701 -0.0043070459 -2.55398e-21 0.003205837 1.8870668e-21 2.6687648e-39)
(0.005562727 -0.0038546389 4.5419916e-22 0.0031694047 -3.6351161e-22 2.2458045e-40)
(0.0045162216 -0.003374189 -1.0053912e-21 0.003129207 9.0549929e-22 5.8867658e-40)
(0.0035571461 -0.00288102 -4.1764202e-22 0.0030843046 4.446032e-22 1.8741938e-40)
(0.0027231601 -0.0023890036 1.2498104e-21 0.0030329765 -1.4606449e-21 3.020887e-39)
(0.0020347638 -0.0019091762 5.8729832e-22 0.002970083 -8.2463206e-22 5.6471683e-40)
(0.0015033461 -0.0014527127 -2.4272755e-22 0.0028689745 3.143601e-22 4.407237e-39)
(0.00036280645 -0.00020666288 -6.9449059e-22 0.00012038721 2.9600852e-22 5.7787408e-39)
(0.0020768157 -0.0012359595 -1.1522417e-21 0.0007374419 6.4013283e-22 6.0257374e-39)
(0.0040289221 -0.0023380844 -1.3217449e-21 0.0013642101 7.6953444e-22 1.5061732e-38)
(0.0059740653 -0.0033060929 4.3057381e-23 0.0018498027 -2.3746915e-23 1.6305737e-42)
(0.0076406296 -0.004082459 8.492556e-23 0.0022208297 -3.8517598e-23 1.0817992e-38)
(0.0089056285 -0.0046437622 1.4533392e-21 0.0024861691 -7.7926692e-22 3.0232528e-39)
(0.0097135285 -0.0049967922 1.2870027e-22 0.0026653402 -6.5960478e-23 1.2523613e-39)
(0.010052081 -0.0051631124 -2.4246038e-21 0.0027816715 1.3182235e-21 7.8006289e-40)
(0.0099471626 -0.0051685992 2.8598972e-21 0.0028549757 -1.5979282e-21 1.48052e-39)
(0.0094562053 -0.0050394095 9.383634e-22 0.0029003345 -5.51754e-22 1.6540528e-39)
(0.0086599768 -0.0048004069 -2.563409e-21 0.0029285145 1.5800897e-21 3.3895476e-39)
(0.0076531916 -0.004474554 -7.9699884e-22 0.0029464831 5.2889865e-22 1.1142748e-39)
(0.0065342271 -0.0040829156 2.9793144e-22 0.0029579982 -2.1001826e-22 3.0309001e-39)
(0.0053950536 -0.0036449597 6.8098134e-22 0.0029642466 -5.4452505e-22 4.2970803e-40)
(0.0043128264 -0.0031788672 -2.3369966e-22 0.0029644754 2.1067801e-22 3.3215571e-40)
(0.0033443275 -0.0027016731 5.4706627e-22 0.0029566058 -5.6938049e-22 2.5596553e-40)
(0.0025238466 -0.0022291734 -3.7719782e-22 0.002937811 4.6339601e-22 9.6478772e-41)
(0.0018643338 -0.0017755228 -7.4685532e-22 0.0029048547 1.0936793e-21 2.4296708e-39)
(0.0013613656 -0.0013523109 -1.4345742e-23 0.0028536409 1.6080661e-23 2.2228057e-39)
(0.00099986378 -0.00097005014 2.5443445e-22 0.0027757954 -5.9378432e-22 2.4170621e-40)
(0.00044631603 -0.00021352136 -5.5118482e-22 0.00010417108 2.0328203e-22 2.8705313e-39)
(0.0024645384 -0.0012408749 8.2723058e-22 0.00062625022 -4.0625208e-22 5.3029641e-40)
(0.0046882777 -0.0023113179 7.3579357e-22 0.0011460735 -3.6372388e-22 6.189353e-40)
(0.0067690942 -0.0032154587 1.6126497e-21 0.0015458617 -7.7163961e-22 6.6874477e-39)
(0.0084208486 -0.0039086187 1.4075951e-21 0.0018512318 -6.7180598e-22 2.9732592e-39)
(0.0095305277 -0.0043786649 -2.4471632e-21 0.0020737997 1.1731672e-21 2.2587501e-39)
(0.010072699 -0.004642334 -1.3620259e-21 0.0022329266 6.6648666e-22 6.419904e-40)
(0.010078318 -0.0047282269 0 0.0023491318 0 0)
(0.0096213398 -0.0046663141 1.4752642e-21 0.0024384998 -8.1568532e-22 8.3294948e-39)
(0.0088051335 -0.0044845286 -6.3371434e-22 0.0025120929 3.8273195e-22 3.1560974e-39)
(0.0077481227 -0.0042080035 -3.6953827e-21 0.0025765828 2.2600161e-21 2.7052741e-39)
(0.0065696321 -0.0038593048 -4.7426191e-22 0.0026349477 3.0588163e-22 5.6280213e-40)
(0.0053771743 -0.003459098 1.7863182e-21 0.0026872364 -1.3777302e-21 3.7548836e-39)
(0.0042568191 -0.0030267696 1.103116e-22 0.0027313895 -7.2145789e-23 1.5710921e-39)
(0.0032678855 -0.0025806754 -2.7128739e-23 0.0027640765 2.7795027e-23 1.0819913e-42)
(0.0024422651 -0.0021379249 2.8830513e-22 0.002781528 -3.5142918e-22 1.9040911e-40)
(0.0017877299 -0.0017137995 5.5425011e-24 0.0027802418 3.897025e-24 2.2741642e-40)
(0.0012938438 -0.0013210331 -5.0181172e-22 0.0027572919 9.021644e-22 5.6480543e-40)
(0.00093859264 -0.00096910555 -2.731175e-22 0.0027116578 6.2200903e-22 3.9731791e-40)
(0.00069491729 -0.0006644563 1.2727104e-22 0.0026481977 -4.4774728e-22 2.5777365e-39)
(0.00053200507 -0.00020932835 4.1515402e-22 8.3853111e-05 -1.322456e-22 1.1293953e-39)
(0.0028300906 -0.0011820802 1.7271077e-21 0.0004949054 -6.8895103e-22 1.0175491e-38)
(0.0052741882 -0.0021697219 1.3342214e-21 0.00089842609 -5.517267e-22 6.379297e-40)
(0.0074176819 -0.0029761931 1.4946365e-21 0.0012108528 -6.1280884e-22 3.5770687e-39)
(0.0089754058 -0.0035711287 -2.2848128e-21 0.0014552319 9.5004628e-22 5.6323503e-39)
(0.009861855 -0.0039534112 8.0093289e-23 0.0016438658 -2.6005367e-23 5.3641843e-40)
(0.010097905 -0.0041464606 1.2869481e-22 0.0017935218 -5.6820586e-23 4.4679067e-42)
(0.0097689056 -0.0041811258 1.8220255e-21 0.0019199149 -8.6297382e-22 2.0047137e-39)
(0.0090007545 -0.0040866112 2.4410376e-22 0.0020339361 -1.232209e-22 1.789161e-41)
(0.0079383143 -0.003888583 -6.4963744e-22 0.0021416052 3.7842067e-22 1.0879679e-39)
(0.006725699 -0.0036097033 2.0935306e-21 0.002244852 -1.3410764e-21 7.5649092e-39)
(0.0054899704 -0.0032707615 -1.5237145e-21 0.0023423631 1.0347146e-21 6.3000227e-40)
(0.0043298618 -0.00289165 -2.8336923e-21 0.0024305367 2.2988771e-21 4.5112668e-39)
(0.0033106035 -0.0024917098 -9.274707e-23 0.0025045232 8.922683e-23 9.6099419e-42)
(0.0024647208 -0.0020893279 9.8195936e-22 0.002559275 -1.1615246e-21 3.7270566e-39)
(0.0017974416 -0.0017010078 0 0.0025905127 0 0)
(0.0012946611 -0.0013402955 1.2519786e-22 0.0025953888 -1.8867728e-22 9.7134995e-41)
(0.00093134041 -0.0010169931 -5.7715507e-23 0.0025725693 1.4091656e-22 1.4510479e-40)
(0.00067837863 -0.00073690785 -6.2072215e-23 0.0025239828 1.441765e-22 3.7611868e-41)
(0.0005074512 -0.00050183752 2.4527011e-23 0.0024610052 -1.3095235e-22 2.6165962e-40)
(0.00061520809 -0.00019292816 9.0718645e-22 6.1550001e-05 -2.3363286e-22 4.5671061e-39)
(0.0031476471 -0.001059054 8.8057133e-23 0.00035726447 -2.8938197e-23 8.4269218e-42)
(0.0057425609 -0.0019196938 -2.5143649e-22 0.00064682929 8.5233681e-23 3.7271518e-41)
(0.0078693736 -0.0026062515 2.4718471e-22 0.00087814425 -8.0671144e-23 7.3857769e-40)
(0.0092626725 -0.0031017363 -1.565495e-21 0.0010702275 5.5390851e-22 1.3824646e-39)
(0.009882244 -0.0034125906 -7.46338e-22 0.0012339653 2.7524044e-22 1.2380284e-40)
(0.0098075228 -0.0035629302 5.1440412e-22 0.0013816992 -1.5968982e-22 3.9502398e-39)
(0.0091820623 -0.0035795967 -2.0556343e-23 0.0015232659 2.2899002e-23 3.0918499e-40)
(0.0081784288 -0.0034860619 -1.2321269e-21 0.0016638022 6.2900712e-22 3.2604759e-39)
(0.0069699595 -0.0033026776 2.12159e-21 0.0018040338 -1.1343081e-21 9.2596271e-40)
(0.0057089011 -0.0030484519 -5.0305813e-23 0.0019411369 8.2603742e-23 1.6981432e-39)
(0.0045123253 -0.002742488 -1.6475609e-21 0.0020697636 1.2483163e-21 4.6347909e-39)
(0.003456471 -0.0024044293 0 0.0021832584 0 0)
(0.002578741 -0.0020537937 3.8531956e-22 0.0022749563 -4.6902418e-22 2.5043581e-39)
(0.001885161 -0.0017085712 1.6928575e-23 0.002339372 -4.3565375e-23 1.3745378e-40)
(0.0013604064 -0.0013836903 -4.5995384e-22 0.0023730957 7.8209425e-22 2.8941175e-39)
(0.00097773507 -0.0010898966 -1.0431501e-22 0.0023751514 2.0107304e-22 5.919818e-41)
(0.00070701361 -0.0008333963 -2.9616073e-23 0.0023466503 9.2741598e-23 9.7559384e-41)
(0.00051981398 -0.00061637335 -3.9993484e-23 0.0022921121 1.2490163e-22 3.7272732e-41)
(0.00039181952 -0.0004374844 6.9063109e-23 0.0022249514 -3.0448458e-22 3.5894719e-40)
(0.00069098312 -0.00016429209 3.5054035e-22 3.974899e-05 -6.7457914e-23 7.233218e-40)
(0.0033936043 -0.00087798655 -2.500956e-21 0.00022790561 6.2964544e-22 1.5726604e-38)
(0.0060579841 -0.0015791646 -2.2973574e-22 0.00041602055 6.4678434e-23 1.4684106e-39)
(0.0080914814 -0.0021370227 -6.7563126e-22 0.00057766833 1.9860844e-22 7.3867897e-39)
(0.0092681813 -0.0025440842 -4.8347371e-22 0.00072701876 1.3599122e-22 1.0123566e-40)
(0.0096075244 -0.0028078608 -2.7381461e-21 0.00087218779 8.6226702e-22 1.3283186e-39)
(0.0092523549 -0.0029456112 -1.3351782e-21 0.0010205092 4.7998497e-22 1.0841651e-39)
(0.0083990862 -0.0029741086 2.5589388e-21 0.0011760749 -9.8687649e-22 8.4474619e-40)
(0.0072533976 -0.0029075893 4.3417328e-22 0.0013386085 -2.3135278e-22 1.1180133e-39)
(0.0059991018 -0.0027600285 -5.5610081e-22 0.0015039092 2.585441e-22 3.8015602e-40)
(0.0047788924 -0.0025473188 2.6259166e-22 0.0016648485 -9.6764211e-23 1.4361098e-39)
(0.0036867976 -0.0022879057 -4.558689e-23 0.0018127199 6.7508986e-23 3.6400246e-40)
(0.0027706562 -0.0020017904 0 0.0019388175 0 0)
(0.0020413819 -0.0017084772 2.6585977e-22 0.0020359426 -2.8957669e-22 8.4574271e-41)
(0.0014851383 -0.0014247567 -5.5710333e-22 0.0020995195 7.6986837e-22 1.1748103e-39)
(0.0010750463 -0.0011631039 -1.7971766e-22 0.0021281173 2.9157355e-22 9.9548289e-41)
(0.00078031886 -0.00093106358 3.0303981e-22 0.0021232529 -6.5608302e-22 1.4122499e-39)
(0.00057211614 -0.00073163246 -7.170281e-23 0.0020885366 9.6054582e-23 3.0765865e-40)
(0.00042627989 -0.00056448498 -5.3662699e-24 0.0020302529 -8.3451962e-24 3.4560456e-41)
(0.00032374676 -0.00042695095 6.8411723e-23 0.0019610639 -2.1872336e-22 2.8167098e-41)
(0.00075466919 -0.00012460662 2.5578582e-22 2.0972921e-05 -3.3593713e-23 4.5289355e-40)
(0.003549595 -0.0006512019 -2.3037173e-21 0.00012007948 4.1569575e-22 7.2055672e-39)
(0.0061980376 -0.001175165 -1.801329e-21 0.00022650139 3.5838601e-22 8.6312718e-39)
(0.0080725645 -0.001608477 2.534638e-21 0.00033207392 -5.3438626e-22 2.1014017e-39)
(0.0090045282 -0.0019464841 1.894772e-21 0.00044649766 -4.3231237e-22 4.2876402e-40)
(0.0090804898 -0.0021894013 -1.3687375e-21 0.00057520078 3.0694147e-22 4.574362e-39)
(0.0085023761 -0.0023403806 4.505443e-22 0.00072143384 -1.7556002e-22 1.9405118e-39)
(0.0075058503 -0.0024019509 2.5984485e-21 0.00088472524 -9.448065e-22 2.1383613e-39)
(0.0063113217 -0.0023780229 1.1309278e-21 0.0010603044 -4.5599098e-22 2.6427721e-40)
(0.0050951031 -0.002277129 -1.1015116e-21 0.0012397268 5.8036034e-22 6.9618187e-40)
(0.0039772745 -0.0021136016 -1.4834413e-21 0.0014122662 9.1268774e-22 8.1177196e-40)
(0.0030231487 -0.001906276 -4.0113633e-23 0.0015668053 3.001061e-23 8.4483145e-43)
(0.0022537402 -0.0016755955 4.1970319e-22 0.0016937923 -3.811394e-22 1.3099697e-40)
(0.0016600755 -0.0014403984 -1.1855582e-23 0.001786751 5.0257932e-23 2.0976726e-40)
(0.0012170093 -0.0012154971 -1.0843497e-23 0.0018430051 8.1215173e-23 5.6772116e-40)
(0.00089392716 -0.0010105932 4.8945702e-24 0.0018635555 -1.0539155e-22 1.0255455e-39)
(0.00066152459 -0.00083045781 1.4030413e-22 0.0018522397 -2.9864543e-22 2.9592017e-40)
(0.00049514514 -0.00067597962 -7.5069897e-23 0.0018144848 2.5026985e-22 7.8044593e-40)
(0.00037563551 -0.00054573342 -1.9772416e-22 0.0017572267 6.0196734e-22 1.4963339e-39)
(0.00028862996 -0.00043704465 6.8401849e-23 0.0016908545 -1.7486421e-22 3.177586e-41)
(0.00080265753 -7.6172994e-05 -6.5786224e-22 7.4225034e-06 5.4775352e-23 1.351795e-39)
(0.0036050444 -0.00039558243 -4.9395247e-22 4.3905907e-05 5.3439066e-23 1.4530461e-39)
(0.0061555547 -0.0007401054 3.9259947e-21 9.2027677e-05 -5.0135087e-22 1.7814794e-38)
(0.00782287 -0.0010634796 2.8887015e-21 0.00015453438 -4.230864e-22 1.9263938e-39)
(0.0085080128 -0.0013552062 1.2773055e-21 0.00023868026 -2.0361492e-22 9.5012972e-40)
(0.0083627382 -0.0015998903 2.5697823e-22 0.00034897922 -5.3618263e-23 8.9281485e-42)
(0.0076349489 -0.0017814796 -2.3882922e-21 0.00048673768 5.4007938e-22 3.9657618e-39)
(0.0065807471 -0.0018869295 0 0.00064863066 0 0)
(0.0054166192 -0.0019110756 -1.4416603e-21 0.0008264479 6.4385475e-22 3.2902383e-39)
(0.0042977025 -0.0018591326 -2.4425294e-22 0.0010082472 1.6825341e-22 7.4954638e-40)
(0.0033153391 -0.0017454682 6.9649044e-22 0.0011805402 -4.1585299e-22 1.7262717e-40)
(0.0025073589 -0.0015897638 7.1560704e-23 0.0013308698 -9.9525252e-23 4.1268355e-40)
(0.0018741925 -0.0014124345 -3.2456766e-22 0.0014499852 3.3278768e-22 4.7506857e-40)
(0.0013950635 -0.0012309254 -2.3995103e-22 0.001533029 3.3464105e-22 1.022631e-39)
(0.0010407899 -0.0010577265 1.5871092e-22 0.0015795829 -1.6426104e-22 1.2429186e-40)
(0.00078204004 -0.00090010211 2.1711312e-22 0.0015928085 -2.8811629e-22 1.1075211e-40)
(0.00059353406 -0.00076097764 -1.9005068e-22 0.0015780932 3.2912245e-22 1.0079839e-40)
(0.00045542016 -0.00064033738 -2.483087e-22 0.0015416641 5.7252071e-22 1.2483613e-39)
(0.00035302788 -0.0005367325 2.1674318e-23 0.0014900962 -3.4892163e-24 1.4939598e-40)
(0.00027570455 -0.00044808911 3.1795263e-23 0.0014309465 -1.2092182e-22 1.7514678e-40)
(0.00083225062 -2.2035354e-05 -4.3465974e-22 6.7019486e-07 1.1087863e-23 6.616519e-40)
(0.0035571252 -0.00013044126 1.8383968e-21 5.2019942e-06 -6.6336676e-23 3.6634843e-39)
(0.0059381607 -0.00030799492 2.8119968e-21 1.8448089e-05 -1.7484402e-22 2.6626672e-38)
(0.007371971 -0.00054310647 -3.24424e-21 4.8499389e-05 2.8587515e-22 7.3052694e-39)
(0.0078322193 -0.0008101235 1.1575178e-21 0.00010388786 -1.3049496e-22 1.7899014e-40)
(0.0075242655 -0.0010718775 4.6024553e-22 0.00019128633 5.0889702e-24 6.7703828e-39)
(0.0067230455 -0.001291359 1.2311118e-22 0.00031267147 -2.5711959e-23 2.3316548e-42)
(0.0056855031 -0.0014415357 -1.7372983e-21 0.00046349454 4.1115853e-22 2.2543297e-39)
(0.0046093348 -0.0015110255 -3.917946e-23 0.00063299727 1.3974526e-23 3.4540524e-43)
(0.0036212771 -0.0015040791 6.3769713e-22 0.00080648185 -3.4546405e-22 8.6260385e-40)
(0.0027842886 -0.0014360909 4.881404e-23 0.00096863748 -5.3645863e-23 1.2444908e-40)
(0.002114316 -0.0013273603 -2.3174292e-22 0.00110673 5.9039275e-23 1.6099574e-39)
(0.0015988274 -0.0011975635 -5.026356e-22 0.0012126699 4.2249563e-22 1.6643888e-40)
(0.0012121687 -0.0010622901 -9.0537581e-25 0.0012835652 4.1888799e-23 2.0984694e-40)
(0.00092590444 -0.00093185566 1.6631518e-22 0.0013209779 -2.296269e-22 2.014269e-40)
(0.00071441979 -0.00081178483 1.0936238e-22 0.0013294573 -1.8426075e-22 1.9652442e-40)
(0.00055708933 -0.00070409846 2.260641e-23 0.0013149519 -8.8089405e-23 3.2173147e-40)
(0.00043845921 -0.00060873523 -1.7758492e-22 0.0012835482 2.5494534e-22 2.516285e-40)
(0.00034750223 -0.00052474736 -4.0589741e-23 0.0012407998 -2.7758569e-23 1.1047784e-39)
(0.00027635957 -0.00045070959 8.9522476e-23 0.0011915236 -3.1206973e-22 1.8147004e-39)
(5.6608017e-06 -7.0576938e-07 5.6629359e-23 8.632613e-07 -1.1341987e-23 6.4679651e-40)
(2.6697179e-05 -1.117461e-05 -8.0777147e-23 5.7402978e-06 2.2382324e-23 6.2278371e-40)
(5.9800045e-05 -2.5827872e-05 1.7946786e-22 1.1439934e-05 -6.7132841e-23 3.5753011e-39)
(0.00019170561 -5.4477662e-05 5.0050927e-22 1.6389192e-05 -1.065127e-22 1.2026947e-38)
(0.00042053215 -8.978515e-05 -3.5711773e-22 2.0813257e-05 6.0601045e-23 3.1268314e-39)
(0.00075106525 -0.00012919644 4.4966187e-22 2.4712723e-05 -6.0733315e-23 3.4551942e-39)
(0.0011936831 -0.00017130797 -6.1573572e-22 2.809334e-05 7.7613254e-23 3.7917455e-39)
(0.0017507256 -0.00021472453 -6.3433678e-22 3.1029118e-05 6.5737195e-23 4.011045e-39)
(0.0024189363 -0.00025831467 7.9492317e-22 3.3600229e-05 -8.1570516e-23 4.2369177e-39)
(0.0031931825 -0.00030124304 -6.149562e-22 3.586991e-05 5.9369039e-23 2.1572256e-39)
(0.0040671808 -0.00034288065 -3.1149403e-23 3.7886727e-05 5.139365e-25 2.5139337e-41)
(0.005033604 -0.00038274123 1.7484534e-22 3.9688209e-05 -1.8442089e-23 7.8967158e-41)
(0.0060844063 -0.00042044301 -3.0414984e-23 4.1303348e-05 1.4198934e-24 1.2613541e-41)
(0.0072111248 -0.00045568492 9.4289863e-22 4.2755518e-05 -8.3581354e-23 3.7722423e-39)
(0.0084050607 -0.00048823857 1.7939422e-24 4.4066128e-05 1.7948102e-24 8.176664e-42)
(0.009657463 -0.00051796153 -1.362884e-21 4.525838e-05 1.2690259e-22 7.7498999e-39)
(0.010959773 -0.00054480962 2.4942912e-22 4.6356952e-05 -2.6408625e-23 1.629194e-40)
(0.012303663 -0.00056878379 5.9860852e-22 4.7380542e-05 -5.9799349e-23 1.9705671e-39)
(0.013680832 -0.00059000725 -9.5497245e-22 4.834765e-05 1.0350953e-22 5.582561e-39)
(0.015082054 -0.00060935556 -5.1710231e-22 4.9256102e-05 6.0742673e-23 2.096461e-39)
(6.4118145e-06 -2.9554558e-06 1.8618755e-23 7.5986261e-06 -6.8492152e-24 6.3782032e-41)
(3.4035045e-05 -3.8291862e-05 -5.1149178e-22 5.0584544e-05 3.8566166e-22 2.0827402e-38)
(7.6373288e-05 -8.6924307e-05 1.0153804e-22 0.00010076845 -8.4052205e-23 1.879838e-39)
(0.0002254635 -0.00017627585 5.3785175e-22 0.00014435777 -3.296483e-22 1.0047599e-38)
(0.00047403537 -0.00028476023 7.4635331e-22 0.00018323538 -3.574908e-22 1.1361578e-38)
(0.00082515715 -0.00040486526 9.0107022e-23 0.00021735534 -3.5962789e-23 1.0671241e-40)
(0.001287818 -0.00053240131 -2.3912341e-21 0.00024677927 8.2314628e-22 5.6809479e-38)
(0.0018627199 -0.00066324769 -8.3574723e-23 0.00027216488 3.4407958e-23 1.6233382e-41)
(0.0025451414 -0.00079408774 1.3440613e-21 0.00029421787 -4.0531982e-22 9.6834628e-39)
(0.0033286174 -0.00092247539 -3.235001e-22 0.00031349582 8.8326514e-23 5.3853762e-40)
(0.0042055585 -0.0010465662 -1.2219552e-21 0.0003304272 3.3104602e-22 5.9682425e-39)
(0.0051673341 -0.0011649314 2.5614103e-22 0.00034534129 -6.4665364e-23 2.718096e-40)
(0.0062045866 -0.0012764455 1.0783289e-21 0.00035848923 -2.372858e-22 6.4094138e-39)
(0.0073075061 -0.0013802138 4.4173017e-22 0.00037006893 -1.0863475e-22 7.3074856e-40)
(0.0084659707 -0.0014755444 8.7560636e-22 0.00038025637 -2.3193946e-22 2.1085813e-39)
(0.0096697309 -0.0015619836 -6.8750094e-22 0.00038923735 1.7218291e-22 1.7866619e-39)
(0.010908865 -0.0016393653 -6.5104902e-22 0.00039721196 1.6190359e-22 1.9550868e-39)
(0.01217364 -0.0017076468 6.4876772e-22 0.00040434406 -1.8628235e-22 1.1250453e-39)
(0.01345171 -0.001767182 5.8247498e-22 0.0004108196 -1.6409289e-22 1.9744607e-39)
(0.014728128 -0.0018212342 2.1952919e-22 0.00041668364 -5.9834788e-23 8.4080555e-40)
(8.2433454e-06 -7.5730335e-06 1.4326741e-23 2.0273961e-05 -7.1328505e-24 3.3537668e-41)
(5.1439264e-05 -7.9127913e-05 3.8837218e-22 0.00013502699 -4.1572863e-22 8.8759716e-39)
(0.00011489595 -0.0001747483 -8.4908529e-23 0.00026871684 1.0939167e-22 4.6475086e-40)
(0.00029982587 -0.00033428753 -5.8393687e-22 0.00038474484 4.9114268e-22 1.1003803e-38)
(0.00058902057 -0.0005230633 2.1379322e-22 0.00048784917 -1.7916179e-22 3.0994631e-40)
(0.00098209706 -0.00072892577 2.8161536e-22 0.00057769854 -2.2854181e-22 1.6027596e-40)
(0.0014852654 -0.00094496662 -3.5253902e-22 0.00065445154 1.8604381e-22 9.7955747e-40)
(0.0020961476 -0.0011645349 -9.1418961e-22 0.00071986513 5.3128093e-22 1.9439997e-39)
(0.002807249 -0.0013823305 3.9984963e-22 0.00077581869 -1.9317324e-22 5.4589453e-40)
(0.0036095559 -0.0015944397 8.4793098e-22 0.00082380832 -3.4969795e-22 3.1046209e-39)
(0.0044929938 -0.0017978965 2.3031463e-22 0.00086499027 -1.6108688e-22 1.1513207e-40)
(0.0054464685 -0.0019903888 1.0309221e-21 0.00090025134 -3.3795053e-22 5.7655394e-39)
(0.0064581565 -0.0021700761 8.6628274e-23 0.00093025911 -3.1811606e-23 2.3862639e-41)
(0.0075157401 -0.0023354668 -1.5111875e-21 0.00095552292 5.0458014e-22 9.2606999e-39)
(0.0086064919 -0.0024853679 1.0754625e-22 0.00097647677 -7.2929373e-23 5.1181534e-41)
(0.0097174705 -0.0026189432 -6.9866809e-22 0.00099356661 1.9070126e-22 3.6122928e-39)
(0.010836377 -0.002735825 -9.6884768e-22 0.0010072724 3.8563706e-22 1.473272e-39)
(0.011951204 -0.0028358565 1.5582337e-21 0.00101807 -6.1224839e-22 4.8972645e-39)
(0.013043097 -0.0029195881 8.122354e-22 0.0010267271 -3.422403e-22 9.9239898e-40)
(0.014088576 -0.0029938633 1.6335071e-22 0.0010338489 -7.6236987e-23 2.1215046e-41)
(1.214623e-05 -1.5671831e-05 -2.1493788e-23 3.7348442e-05 2.7102066e-23 4.8872738e-41)
(8.4295245e-05 -0.00014046277 -8.9911274e-22 0.00024906235 1.1373179e-21 2.9438265e-38)
(0.00018625415 -0.00030249461 -6.5511427e-23 0.00049509303 8.418299e-23 4.0254713e-40)
(0.00043018527 -0.00054595758 1.4986266e-22 0.00070818805 -1.6592222e-22 2.5594544e-40)
(0.00078503077 -0.00082484742 -2.4662231e-23 0.0008965558 6.5943032e-24 6.6260564e-41)
(0.0012453177 -0.0011226612 7.6214702e-22 0.0010590922 -5.577098e-22 4.8330636e-39)
(0.0018130281 -0.0014297949 8.4046889e-22 0.0011960261 -5.4743369e-22 4.38957e-39)
(0.0024812792 -0.0017373473 -2.5523385e-22 0.0013106091 1.2278724e-22 6.9239831e-40)
(0.0032385044 -0.0020383213 -9.2908177e-22 0.0014063337 4.8277362e-22 4.3984499e-39)
(0.0040719216 -0.0023275337 -1.8603319e-21 0.0014860195 9.9912194e-22 9.3094184e-39)
(0.0049678014 -0.0026010271 -4.3134889e-23 0.0015518762 -2.1434865e-23 2.1316265e-40)
(0.0059114802 -0.0028556919 2.3495552e-21 0.001605613 -1.0880767e-21 1.5219236e-38)
(0.0068876169 -0.0030890183 -9.5152533e-22 0.0016485162 3.5875133e-22 4.5061601e-39)
(0.0078804383 -0.0032989469 -6.0847526e-22 0.0016815604 2.6513347e-22 8.8728131e-40)
(0.0088737888 -0.0034837861 -6.9659325e-23 0.0017055441 8.2617511e-23 1.9203314e-40)
(0.0098513625 -0.0036422806 1.4209003e-21 0.0017212401 -6.2297463e-22 3.6329677e-39)
(0.010798043 -0.0037738263 -7.965251e-22 0.0017294553 4.0366406e-22 2.3811875e-40)
(0.011699628 -0.0038782625 -1.8169669e-21 0.0017311779 7.6836084e-22 7.8263219e-39)
(0.012530515 -0.003956468 1.2013284e-21 0.0017287111 -5.2899225e-22 3.9335751e-39)
(0.013258431 -0.004019408 1.0369503e-21 0.0017248614 -4.1924599e-22 3.6646723e-39)
(1.9426115e-05 -2.7917212e-05 9.6404414e-23 5.6945353e-05 -9.3705496e-23 6.3425824e-40)
(0.00013976262 -0.00022621115 3.1689444e-23 0.00037999977 -8.5616893e-24 2.852092e-40)
(0.00030477807 -0.0004776283 -1.2336792e-21 0.00075386678 1.7685634e-21 2.411977e-38)
(0.00063633593 -0.00082062669 -7.0864153e-22 0.0010764766 7.5297493e-22 7.470707e-39)
(0.0010861501 -0.0011998136 4.7428286e-22 0.0013595588 -3.7749556e-22 4.5179253e-39)
(0.0016418899 -0.0015943802 5.8509731e-22 0.0016006688 -4.7132386e-22 2.1260598e-39)
(0.0022996093 -0.0019919768 -7.620226e-22 0.001800107 4.9673203e-22 4.9783391e-39)
(0.0030463613 -0.0023817991 -1.1598144e-21 0.001962931 6.6347307e-22 1.0924668e-38)
(0.0038651005 -0.0027555341 1.703906e-21 0.0020946079 -1.0152497e-21 1.1198884e-38)
(0.0047379747 -0.003107031 4.9135848e-22 0.0021996398 -1.971221e-22 2.609893e-39)
(0.0056464037 -0.0034315869 -1.5137464e-21 0.0022816384 1.006167e-21 8.4538546e-40)
(0.0065711212 -0.003725517 6.6839046e-22 0.0023434611 -3.0158542e-22 2.0079076e-39)
(0.0074925031 -0.0039858763 0 0.0023873132 0 0)
(0.008390849 -0.0042102719 6.4185183e-22 0.0024148869 -3.1230344e-22 7.8410497e-40)
(0.0092465094 -0.0043967634 -4.7885665e-22 0.0024275457 2.2744031e-22 4.1858927e-40)
(0.010040235 -0.0045439286 -7.2801859e-22 0.0024265223 3.6524617e-22 5.062696e-40)
(0.010755106 -0.0046511802 2.6352678e-22 0.0024129749 -2.2365026e-22 7.1666432e-40)
(0.011376739 -0.0047187854 -2.1515816e-22 0.0023884336 1.316096e-22 2.5540532e-41)
(0.011875703 -0.0047485312 1.0185043e-21 0.0023578127 -4.426137e-22 4.2454822e-39)
(0.0122117 -0.0047550037 -8.3356239e-22 0.0023292907 4.146511e-22 2.4283159e-40)
(3.1589009e-05 -4.4509113e-05 9.2510077e-23 7.7190492e-05 -7.7783826e-23 5.0917795e-40)
(0.00022587994 -0.0003370055 4.4340782e-22 0.00051447177 -5.9092649e-22 1.8913454e-39)
(0.00048619317 -0.00070070644 -5.9477652e-22 0.0010171664 7.9023563e-22 4.5303102e-39)
(0.00093897593 -0.0011574784 -9.7086889e-22 0.0014483179 1.0947954e-21 3.7805811e-39)
(0.0015155855 -0.0016443412 -2.761601e-22 0.0018228613 4.134035e-22 2.9883038e-39)
(0.0021946323 -0.0021359878 -8.742425e-22 0.0021366828 7.6955795e-22 1.8599239e-39)
(0.0029641518 -0.0026172913 -4.1073716e-22 0.002390365 2.5259451e-22 2.1559223e-39)
(0.0038034143 -0.0030760277 7.0723495e-22 0.0025910864 -4.2465866e-22 3.9759942e-39)
(0.0046884327 -0.0035031327 1.6801954e-21 0.0027466309 -9.9999174e-22 1.3608147e-38)
(0.0055950414 -0.0038920326 5.1348676e-22 0.0028635716 -3.16275e-22 5.6991981e-40)
(0.0064989552 -0.0042378471 -4.8755179e-22 0.0029473276 2.5826279e-22 9.0508616e-40)
(0.0073758888 -0.0045369073 -9.49864e-23 0.0030023123 -1.9708239e-23 7.8903013e-40)
(0.0082020674 -0.0047864645 -2.2909698e-21 0.0030320469 1.2560704e-21 7.4868256e-39)
(0.008954726 -0.0049844979 -7.0787732e-22 0.0030393171 3.7090576e-22 7.7453701e-40)
(0.0096124552 -0.0051296031 1.1747259e-21 0.0030263791 -6.8582884e-22 3.6059221e-40)
(0.010155737 -0.0052210144 -1.1662658e-21 0.0029951601 6.3546538e-22 7.6043947e-40)
(0.01056939 -0.0052589102 -4.095531e-22 0.0029471988 2.02622e-22 2.4475472e-40)
(0.010843668 -0.0052447277 9.1159786e-22 0.0028842338 -3.8282163e-22 3.8150169e-39)
(0.010952319 -0.0051821017 1.3650986e-21 0.0028140239 -6.9002051e-22 2.8810396e-39)
(0.010849498 -0.0050878915 1.6712647e-22 0.0027538733 -7.8609271e-23 5.6215156e-41)
(5.0227098e-05 -6.5196307e-05 -2.6098942e-22 9.637306e-05 2.1196035e-22 3.0130104e-39)
(0.00035058045 -0.00047013584 -2.8971202e-22 0.0006398156 2.9395942e-22 2.4014776e-39)
(0.0007451838 -0.00096497447 7.184976e-22 0.0012584873 -9.1167691e-22 1.0723509e-39)
(0.0013556634 -0.0015447074 1.1022534e-21 0.0017844598 -1.144023e-21 5.027099e-39)
(0.0020898591 -0.0021403902 1.4401196e-23 0.0022354172 -1.298677e-23 9.9933556e-43)
(0.0029145452 -0.0027220137 -2.9837875e-21 0.0026057641 2.4663435e-21 2.9387111e-38)
(0.0038073603 -0.0032718912 -1.1557552e-21 0.0028969226 9.9463309e-22 4.1055811e-40)
(0.0047381333 -0.0037771605 9.055395e-22 0.0031186073 -6.1133857e-22 3.2265655e-39)
(0.0056748948 -0.0042289527 1.0312099e-21 0.0032812772 -6.9422737e-22 1.9708651e-39)
(0.0065867302 -0.0046212674 -1.013253e-21 0.0033939591 5.6374668e-22 5.4179975e-39)
(0.0074438837 -0.0049500859 -2.941236e-21 0.0034642843 1.8642421e-21 7.8653906e-39)
(0.0082181929 -0.0052128693 1.9262847e-21 0.0034986213 -1.1729397e-21 3.2325949e-39)
(0.0088839249 -0.0054082595 1.1459229e-21 0.0035021962 -5.9809465e-22 3.8864181e-39)
(0.0094186155 -0.0055358863 -1.5759829e-21 0.0034792565 8.7371933e-22 3.2000498e-39)
(0.0098037231 -0.0055962354 6.8767975e-22 0.0034332704 -4.0041097e-22 2.129407e-40)
(0.010025302 -0.0055905753 1.1368359e-21 0.0033670841 -5.8825138e-22 2.3847631e-39)
(0.010076521 -0.0055210586 4.3019879e-22 0.0032826254 -2.4523645e-22 8.0365003e-41)
(0.009959536 -0.0053911291 -7.3361974e-22 0.0031812029 4.614044e-22 9.9787136e-41)
(0.0096612719 -0.0052068749 -1.6608128e-22 0.0030721457 5.1712938e-23 5.9200348e-40)
(0.0091364271 -0.0049852011 9.5568155e-22 0.0029840659 -5.6070438e-22 2.342594e-40)
(7.6894697e-05 -8.9286823e-05 -8.0560356e-24 0.00011297938 -7.890564e-24 5.5385e-41)
(0.00052062085 -0.00061967028 -1.0457701e-21 0.00074484901 1.1067027e-21 7.8850654e-39)
(0.001092778 -0.0012566905 -8.3745056e-22 0.0014549169 8.987898e-22 1.1943439e-38)
(0.0018966648 -0.0019601399 1.5554041e-21 0.0020516049 -1.4939519e-21 6.9669246e-39)
(0.0028133418 -0.002656705 1.2809969e-21 0.0025548928 -1.2647841e-21 2.9438739e-39)
(0.0037945862 -0.0033118488 1.0911081e-21 0.0029585274 -9.0527556e-22 1.1558388e-39)
(0.0048054216 -0.0039061107 -1.0044141e-22 0.0032656851 1.2293017e-22 5.4618899e-40)