/*--------------------------------*- C++ -*----------------------------------*\
  =========                 |
  \\      /  F ield         | OpenFOAM: The Open Source CFD Toolbox
   \\    /   O peration     | Website:  https://openfoam.org
    \\  /    A nd           | Version:  6
     \\/     M anipulation  |
\*---------------------------------------------------------------------------*/
FoamFile
{
    version     2.0;
    format      ascii;
    class       volScalarField;
    location    "305";
    object      pMean;
}
// * * * * * * * * * * * * * * * * * * * * * * * * * * * * * * * * * * * * * //

dimensions      [0 2 -2 0 0 0 0];

internalField   nonuniform List<scalar> 
9200
(
-0.38843401
-0.3766932
-0.36622463
-0.35696132
-0.34790492
-0.33906276
-0.3305161
-0.32223067
-0.3141368
-0.30616131
-0.29823088
-0.29027706
-0.28224321
-0.2740917
-0.26581426
-0.25744929
-0.2490763
-0.2407855
-0.23359025
-0.23172636
-0.40662109
-0.39243031
-0.3800222
-0.36923407
-0.35879402
-0.34867803
-0.33895777
-0.32956864
-0.32040974
-0.3113827
-0.30239555
-0.29336841
-0.28424095
-0.27497818
-0.26557563
-0.2560629
-0.24647455
-0.23681447
-0.22776034
-0.22146189
-0.42517575
-0.40852004
-0.39422341
-0.38198273
-0.37021358
-0.3588426
-0.3479206
-0.3373458
-0.32698498
-0.31671948
-0.30644862
-0.29609506
-0.28561132
-0.27498242
-0.26422527
-0.25338391
-0.24250182
-0.23159155
-0.22105162
-0.21199617
-0.44365064
-0.42455582
-0.40843929
-0.39480764
-0.3817272
-0.36905939
-0.35682725
-0.34489237
-0.33309829
-0.32132235
-0.30947661
-0.29751023
-0.28541212
-0.27320805
-0.26095356
-0.24872337
-0.23658755
-0.22458684
-0.21298928
-0.2025393
-0.46140203
-0.43997765
-0.42216038
-0.40721404
-0.39282916
-0.37879203
-0.36509893
-0.35158677
-0.33809738
-0.32453189
-0.31084492
-0.29703998
-0.28316461
-0.2692999
-0.25554672
-0.2420114
-0.22878558
-0.21592751
-0.20362584
-0.19239234
-0.4775925
-0.45405332
-0.43471263
-0.41853978
-0.40284119
-0.38732936
-0.3719876
-0.35665493
-0.34120637
-0.32560328
-0.30987522
-0.29410379
-0.27840767
-0.26292417
-0.24779099
-0.23313145
-0.21903957
-0.20556911
-0.19284567
-0.18120967
-0.49120568
-0.46588471
-0.44525904
-0.42795852
-0.41092419
-0.39381194
-0.37662126
-0.35923489
-0.34160567
-0.32379408
-0.30593179
-0.28819102
-0.27075949
-0.25381695
-0.23751706
-0.22197675
-0.20726919
-0.19342201
-0.1805008
-0.16870881
-0.50106904
-0.47443225
-0.45283313
-0.43452795
-0.41614394
-0.39731567
-0.37810252
-0.35848355
-0.33853745
-0.31845775
-0.29849418
-0.27890793
-0.25994012
-0.24178914
-0.22459855
-0.20845527
-0.19339254
-0.17939802
-0.16647856
-0.15472165
-0.50583398
-0.47841234
-0.45613947
-0.43690341
-0.41711789
-0.39645942
-0.37510766
-0.35319469
-0.33096336
-0.30875416
-0.28692687
-0.26580793
-0.24566062
-0.22667067
-0.20894566
-0.19252439
-0.17739008
-0.16348666
-0.15076637
-0.13921737
-0.50414815
-0.47640296
-0.45362414
-0.43341442
-0.41212248
-0.38955078
-0.36606397
-0.34199132
-0.31775152
-0.29381329
-0.27060792
-0.24848111
-0.22767566
-0.20833226
-0.19050284
-0.17417022
-0.15926856
-0.14570414
-0.13338192
-0.12220336
-0.27216261
-0.27666226
-0.27889861
-0.27940929
-0.27894044
-0.27766884
-0.27568364
-0.27307667
-0.26992179
-0.26627536
-0.26218319
-0.25768449
-0.25281401
-0.24760342
-0.24208258
-0.23628205
-0.23023443
-0.22396194
-0.21746498
-0.21083222
-0.27500703
-0.2790782
-0.28100113
-0.28129055
-0.28063753
-0.27921014
-0.27709551
-0.27438143
-0.27113795
-0.26741841
-0.26326611
-0.25871801
-0.25380687
-0.24856225
-0.24301134
-0.23718354
-0.23111888
-0.22483791
-0.2182331
-0.21127805
-0.28054971
-0.28378495
-0.28509808
-0.28495482
-0.28394091
-0.28220887
-0.27984194
-0.27692001
-0.27350575
-0.26964658
-0.26538067
-0.26074053
-0.25575493
-0.25044941
-0.24484614
-0.23897145
-0.2328766
-0.22658114
-0.21978419
-0.21222163
-0.28853302
-0.29057452
-0.2910066
-0.29022743
-0.2886773
-0.28648895
-0.28374112
-0.28050301
-0.27682705
-0.27275236
-0.26830984
-0.26352557
-0.25842247
-0.25302016
-0.24733381
-0.2413843
-0.23523444
-0.22890868
-0.22186033
-0.21344971
-0.29863261
-0.29918592
-0.2984991
-0.29689361
-0.29463654
-0.29183979
-0.28857826
-0.28490896
-0.28087226
-0.27649748
-0.27180678
-0.26681753
-0.2615448
-0.25600099
-0.25019297
-0.24413307
-0.23789156
-0.23150633
-0.22417507
-0.21474086
-0.31051224
-0.3093485
-0.3073417
-0.30473658
-0.30161112
-0.29805798
-0.29415041
-0.28993356
-0.28543511
-0.28067211
-0.27565543
-0.27039273
-0.2648899
-0.25915066
-0.25317261
-0.2469567
-0.24057281
-0.23407827
-0.22644549
-0.21588505
-0.32387319
-0.32082064
-0.31732894
-0.31357284
-0.30943381
-0.30498874
-0.30031318
-0.29544003
-0.29038164
-0.28514208
-0.27972019
-0.27411197
-0.26831238
-0.26231541
-0.25610954
-0.24968409
-0.2431017
-0.23644223
-0.22851682
-0.21684146
-0.33848358
-0.33341364
-0.32830691
-0.32327762
-0.31800791
-0.31256206
-0.30701829
-0.30139661
-0.29569412
-0.28989996
-0.28399823
-0.27797031
-0.27179735
-0.26546119
-0.25894076
-0.25221682
-0.24534963
-0.23846507
-0.23033151
-0.21777094
-0.35417772
-0.34698319
-0.34015385
-0.33375335
-0.32725837
-0.32071943
-0.31421945
-0.30776519
-0.30133575
-0.29490236
-0.28843098
-0.28188446
-0.27522497
-0.26841429
-0.26140936
-0.25416427
-0.24670471
-0.2391395
-0.23023534
-0.21652213
-0.37084683
-0.36141056
-0.35274551
-0.3448697
-0.33704192
-0.32929882
-0.32172801
-0.31432092
-0.30703645
-0.29982661
-0.29263925
-0.28542085
-0.27811954
-0.27068518
-0.26306415
-0.25519511
-0.24702432
-0.23835094
-0.22755052
-0.21162406
-0.20332025
-0.19396098
-0.18462009
-0.17536968
-0.16615341
-0.15701218
-0.14800127
-0.13915653
-0.1305069
-0.12208045
-0.11390237
-0.10599396
-0.098373154
-0.091054906
-0.084051249
-0.077371369
-0.071021748
-0.065006303
-0.059326517
-0.053981576
-0.048968519
-0.044282408
-0.039916495
-0.035862411
-0.032110359
-0.028649318
-0.02546724
-0.022551258
-0.019887882
-0.017463195
-0.015263034
-0.013273165
-0.011479443
-0.0098679604
-0.0084251815
-0.0071380669
-0.0059941942
-0.0049818513
-0.0040902137
-0.0033092506
-0.0026305932
-0.0020454033
-0.0015520559
-0.0011335504
-0.00082888336
-0.00052144098
-0.00057565912
2.1388726e-05
-0.0017762277
0.0026503933
-0.20449178
-0.19471466
-0.1852538
-0.17601196
-0.16676979
-0.1575896
-0.14854623
-0.13967176
-0.13099235
-0.12253668
-0.11433032
-0.10639446
-0.098746978
-0.091402915
-0.084374362
-0.077670554
-0.071298021
-0.065260726
-0.059560184
-0.054195606
-0.049164045
-0.044460564
-0.040078407
-0.036009191
-0.032243094
-0.028769063
-0.025575013
-0.022648034
-0.01997459
-0.017540716
-0.015332198
-0.013334749
-0.011534172
-0.0099165047
-0.0084681607
-0.007176049
-0.0060276973
-0.0050113451
-0.004116121
-0.003331949
-0.002650415
-0.002062639
-0.0015669351
-0.0011463012
-0.00083946082
-0.00053040658
-0.0005808965
1.4164695e-05
-0.0017630972
0.002621396
-0.20690526
-0.19624152
-0.18654419
-0.17736175
-0.16808253
-0.158826
-0.1497205
-0.14078843
-0.13204872
-0.12353236
-0.11526636
-0.10727179
-0.099566643
-0.092166302
-0.085083141
-0.078326604
-0.071903409
-0.065817681
-0.06007106
-0.054662846
-0.04959015
-0.04484806
-0.040429822
-0.036327023
-0.032529796
-0.029027019
-0.025806526
-0.022855311
-0.020159734
-0.017705716
-0.015478924
-0.013464952
-0.011649478
-0.010018419
-0.0085580669
-0.0072552123
-0.0060972683
-0.0050723636
-0.0041695203
-0.0033785594
-0.0026909665
-0.0020977659
-0.0015971472
-0.0011720832
-0.00086078212
-0.00054835329
-0.00059141792
-5.2653099e-08
-0.0017372153
0.0025639923
-0.21034411
-0.19826328
-0.18822322
-0.17923045
-0.16994717
-0.16059546
-0.15141818
-0.14242045
-0.13360513
-0.12500849
-0.11666156
-0.10858555
-0.1007988
-0.093317543
-0.086154913
-0.07932088
-0.072822618
-0.066664639
-0.060848896
-0.055374923
-0.050239999
-0.045439319
-0.04096618
-0.036812176
-0.0329674
-0.02942066
-0.026159685
-0.023171343
-0.020441844
-0.017956948
-0.015702148
-0.013662856
-0.011824565
-0.010173007
-0.0086942872
-0.0073750154
-0.0062024276
-0.0051644811
-0.0042500332
-0.0034487455
-0.0027519489
-0.002150519
-0.0016424568
-0.0012106887
-0.00089266322
-0.00057511858
-0.00060711651
-2.1073417e-05
-0.0016991204
0.002479395
-0.21451914
-0.20046228
-0.18998027
-0.18138012
-0.17218074
-0.16273806
-0.15350031
-0.14445303
-0.13556702
-0.12688582
-0.11844938
-0.11028027
-0.10239733
-0.09481836
-0.087557948
-0.080627151
-0.074034012
-0.067783792
-0.061879059
-0.056319827
-0.051103739
-0.046226255
-0.041680842
-0.037459183
-0.033551395
-0.029946244
-0.02663137
-0.02359351
-0.020818707
-0.018292528
-0.016000252
-0.013927063
-0.012058218
-0.010379205
-0.0088758872
-0.0075346342
-0.0063424463
-0.0052870522
-0.0043570882
-0.0035420014
-0.0028329146
-0.002220503
-0.0017025151
-0.0012618112
-0.00093483811
-0.00061046312
-0.00062785802
-4.859104e-05
-0.0016496926
0.0023694886
-0.21903032
-0.20252084
-0.19151426
-0.18354401
-0.17457891
-0.16508222
-0.1558095
-0.14674905
-0.13782074
-0.12906958
-0.12054964
-0.11228833
-0.10430571
-0.096621591
-0.089252936
-0.082212699
-0.07551041
-0.06915258
-0.063142828
-0.057482019
-0.052168463
-0.047198127
-0.042564844
-0.038260544
-0.034275475
-0.030598447
-0.027217065
-0.024117959
-0.021287019
-0.018709606
-0.016370767
-0.014255425
-0.012348558
-0.010635366
-0.0091014203
-0.0077327962
-0.0065162049
-0.005439092
-0.0044898194
-0.0036575672
-0.002933198
-0.0023071367
-0.0017768158
-0.0013250126
-0.00098693338
-0.00065405971
-0.00065346284
-8.2217244e-05
-0.0015900644
0.0022367243
-0.22344744
-0.20423602
-0.19259682
-0.18542469
-0.1769194
-0.16748055
-0.15821232
-0.14917928
-0.14025447
-0.13146715
-0.12288388
-0.11454236
-0.10646632
-0.098678168
-0.091197989
-0.08404166
-0.077221047
-0.070744565
-0.064617436
-0.058841848
-0.053417172
-0.048340201
-0.043605394
-0.039205126
-0.03512994
-0.031368805
-0.027909372
-0.024738223
-0.021841118
-0.019203229
-0.016809359
-0.014644149
-0.012692272
-0.010938601
-0.0093683688
-0.0079673127
-0.0067218053
-0.0056189591
-0.0046468123
-0.0037942284
-0.003051761
-0.0024095374
-0.0018646128
-0.0013996693
-0.0010484367
-0.00070548703
-0.00068370335
-0.00012153452
-0.0015215365
0.0020839756
-0.22749074
-0.20598883
-0.19344764
-0.18683401
-0.1789833
-0.16983731
-0.16065606
-0.15167852
-0.14279705
-0.13401357
-0.12539377
-0.11698829
-0.10882903
-0.1009422
-0.09335148
-0.086076452
-0.079132147
-0.072529544
-0.066275992
-0.060375463
-0.054828779
-0.049633885
-0.044786135
-0.040278571
-0.036102206
-0.032246303
-0.028698664
-0.025445894
-0.022473674
-0.019767009
-0.017310468
-0.015088408
-0.013085173
-0.011285285
-0.0096736062
-0.008235495
-0.0069569444
-0.0058246906
-0.0048264032
-0.0039505844
-0.0031874334
-0.0025267372
-0.0019651134
-0.0014851437
-0.0011188473
-0.00076435747
-0.00071840737
-0.00016619137
-0.0014455504
0.0019144935
-0.22882131
-0.20798691
-0.19472966
-0.18769957
-0.18033587
-0.17177125
-0.16286559
-0.15401348
-0.14523263
-0.13651789
-0.1279182
-0.11949222
-0.11128332
-0.10332391
-0.095641927
-0.088261302
-0.081201149
-0.074475889
-0.068095782
-0.062067281
-0.056393295
-0.051073487
-0.046104589
-0.041480727
-0.03719373
-0.033233445
-0.029588052
-0.026244364
-0.023188115
-0.020404245
-0.017877156
-0.015590956
-0.013529681
-0.011677496
-0.01001888
-0.008538784
-0.007222787
-0.0060572082
-0.0050293047
-0.0041271705
-0.003340602
-0.0026589984
-0.0020784777
-0.0015815056
-0.0011981791
-0.00083057677
-0.00075765603
-0.0002156536
-0.0013639686
0.0017325166
-0.21912128
-0.20732127
-0.19595424
-0.18751182
-0.18008934
-0.17231151
-0.16402005
-0.15553889
-0.1470468
-0.13857149
-0.13014291
-0.12181999
-0.11365899
-0.10570311
-0.097988038
-0.090544799
-0.083399137
-0.07657128
-0.070076435
-0.063925257
-0.058124204
-0.052675883
-0.047579429
-0.042830887
-0.038423585
-0.034348499
-0.030594619
-0.027149294
-0.023998568
-0.021127494
-0.018520431
-0.01616132
-0.014033929
-0.012122084
-0.010409867
-0.0088818017
-0.0075230136
-0.0063193595
-0.0052576335
-0.0043254666
-0.0035121977
-0.00280678
-0.0022047727
-0.0016884771
-0.0012859414
-0.00090330869
-0.00080098076
-0.00026796268
-0.0012792316
0.0015436759
-0.19725877
-0.20128439
-0.19556861
-0.18635697
-0.17852306
-0.17116535
-0.16332903
-0.15515618
-0.14691068
-0.13865699
-0.13041738
-0.12224654
-0.11420468
-0.10633963
-0.098690502
-0.091291486
-0.084171504
-0.077353771
-0.07085618
-0.064691799
-0.058869235
-0.053392987
-0.048263837
-0.043479248
-0.039033754
-0.034919345
-0.031125848
-0.027641291
-0.024452257
-0.021544213
-0.018901827
-0.016509253
-0.014350394
-0.012409143
-0.010669594
-0.0091162353
-0.0077341228
-0.0065090115
-0.0054275672
-0.0044772771
-0.0036472863
-0.0029264175
-0.0023097445
-0.0017799967
-0.0013623845
-0.00096944901
-0.00083843792
-0.00031993271
-0.001191348
0.0013562224
-0.18644469
-0.1915785
-0.18769444
-0.17871988
-0.17123833
-0.1646681
-0.1576646
-0.15023568
-0.14267324
-0.13505353
-0.12738971
-0.11973249
-0.11214472
-0.1046782
-0.097375921
-0.090276201
-0.083412316
-0.076811789
-0.070496637
-0.064483834
-0.058785647
-0.053409967
-0.048360695
-0.04363814
-0.039239414
-0.03515883
-0.031388287
-0.027917659
-0.02473515
-0.021827651
-0.019181059
-0.016780587
-0.014611039
-0.012657067
-0.010903395
-0.0093350251
-0.0079374263
-0.0066966773
-0.0055996796
-0.0046341027
-0.0037891382
-0.0030537758
-0.0024225954
-0.0018793842
-0.0014454014
-0.0010426347
-0.00087803287
-0.00038081291
-0.0010907725
0.0011532641
-0.17738096
-0.1800084
-0.17735521
-0.17013307
-0.1635416
-0.15769858
-0.15149076
-0.14481886
-0.13794467
-0.13096388
-0.12389199
-0.1167738
-0.10967107
-0.1026376
-0.095718705
-0.088955323
-0.082383893
-0.076035408
-0.069935432
-0.064104467
-0.058558227
-0.053307918
-0.048360578
-0.04371945
-0.039384365
-0.035352129
-0.031616912
-0.028170631
-0.025003319
-0.022103486
-0.019458452
-0.017054667
-0.014878001
-0.012914013
-0.01114819
-0.0095661695
-0.0081539346
-0.0068979766
-0.0057855062
-0.0048044379
-0.0039440511
-0.0031935544
-0.0025470003
-0.0019893827
-0.0015375794
-0.0011240948
-0.00092239851
-0.00044856
-0.00098082789
0.00093019097
-0.16737639
-0.16751379
-0.16534946
-0.16021638
-0.15488341
-0.14981563
-0.14442675
-0.13859123
-0.13248277
-0.12620222
-0.11978054
-0.11326072
-0.10670127
-0.10015674
-0.093674473
-0.087297611
-0.081065307
-0.075011749
-0.069165928
-0.063551856
-0.058188772
-0.053091341
-0.048269939
-0.043730981
-0.039477277
-0.0355084
-0.031821061
-0.028409491
-0.025265811
-0.022380392
-0.019742207
-0.017339151
-0.015158348
-0.013186432
-0.011409807
-0.0098148725
-0.0083882397
-0.007116908
-0.0059884767
-0.0049911698
-0.0041144034
-0.0033476399
-0.0026844216
-0.0021109593
-0.0016396954
-0.0012137178
-0.00097256676
-0.00052022858
-0.00086918522
0.00069725341
-0.15649466
-0.1548697
-0.15278028
-0.14937111
-0.14535263
-0.1411198
-0.13655447
-0.13158552
-0.12629464
-0.12076488
-0.11504234
-0.10917253
-0.10320983
-0.09720774
-0.091214639
-0.085275116
-0.079430271
-0.073716892
-0.068167014
-0.062807937
-0.057662322
-0.052748308
-0.048079712
-0.043666292
-0.039514054
-0.035625588
-0.032000415
-0.028635357
-0.025524895
-0.022661532
-0.020036139
-0.017638296
-0.015456597
-0.01347895
-0.011692847
-0.010085606
-0.0086446009
-0.0073574534
-0.0062122478
-0.0051975941
-0.0043031098
-0.0035185464
-0.0028369867
-0.0022458036
-0.0017531607
-0.0013122655
-0.0010298166
-0.00059489574
-0.0007617795
0.0004625962
-0.14443789
-0.14211535
-0.14019134
-0.1380674
-0.13523689
-0.13186631
-0.12811258
-0.123989
-0.11951785
-0.11475509
-0.10975399
-0.10456178
-0.099228499
-0.093805215
-0.088340169
-0.082878305
-0.077461543
-0.072128267
-0.066912774
-0.061845061
-0.05695078
-0.052251258
-0.047763593
-0.043500836
-0.039472227
-0.035683475
-0.032137067
-0.0288326
-0.025767126
-0.022935498
-0.020330716
-0.017944258
-0.015766403
-0.013786528
-0.011993395
-0.010375408
-0.0089208499
-0.0076180931
-0.0064558181
-0.0054231125
-0.0045098753
-0.0037061895
-0.0030047608
-0.0023940303
-0.0018782066
-0.0014197658
-0.0010949
-0.00067182387
-0.00066448181
0.00023481126
-0.13152599
-0.12939646
-0.12786214
-0.12666447
-0.12481349
-0.12227513
-0.11930384
-0.11597811
-0.1122961
-0.10828794
-0.10400543
-0.099497073
-0.094807627
-0.089983343
-0.085071045
-0.080115176
-0.075157427
-0.070236623
-0.065388302
-0.060644333
-0.056032692
-0.051577369
-0.04729836
-0.04321175
-0.039329862
-0.035661465
-0.032212025
-0.028983992
-0.025977106
-0.023188721
-0.020614133
-0.018246902
-0.016079173
-0.014101976
-0.012305519
-0.010679453
-0.0092131195
-0.0078957793
-0.0067168294
-0.0056659352
-0.0047333708
-0.0039095999
-0.0031870606
-0.0025551426
-0.0020145664
-0.0015359098
-0.0011683143
-0.00075032468
-0.00058315175
2.3097807e-05
-0.11846602
-0.11695676
-0.11594292
-0.11541756
-0.11433812
-0.11255467
-0.11031396
-0.10772323
-0.1047774
-0.10148922
-0.097902392
-0.094063098
-0.09001272
-0.08579198
-0.081443188
-0.077009075
-0.07253038
-0.068045378
-0.063589755
-0.05919627
-0.054894394
-0.050710081
-0.046665657
-0.042779796
-0.039067579
-0.035540616
-0.032207222
-0.029072646
-0.02613933
-0.023407189
-0.020873911
-0.018535264
-0.016385401
-0.014417157
-0.012622339
-0.010991997
-0.0095166785
-0.0081866652
-0.0069921949
-0.0059236183
-0.0049716866
-0.0041273024
-0.0033827652
-0.0027282862
-0.0021616669
-0.0016602257
-0.0012503402
-0.00082998468
-0.00052287956
-0.00016381312
-0.10578923
-0.10497253
-0.10449865
-0.10448406
-0.10400844
-0.10287975
-0.1012983
-0.09937126
-0.097096701
-0.094477979
-0.091548855
-0.08834993
-0.08491801
-0.08128933
-0.077501581
-0.073593349
-0.069603081
-0.065567741
-0.061522275
-0.057499358
-0.053529048
-0.049638471
-0.045851592
-0.0421891
-0.038668365
-0.035303475
-0.03210533
-0.029081803
-0.026237931
-0.023576152
-0.021096563
-0.018797194
-0.016674292
-0.014722602
-0.012935651
-0.011306018
-0.0098255848
-0.0084857805
-0.0072778048
-0.0061928009
-0.0052221045
-0.0043571225
-0.0035901579
-0.0029121271
-0.0023185351
-0.0017920276
-0.0013409463
-0.00091070662
-0.00048723758
-0.00031884338
-0.09377288
-0.093561003
-0.093574145
-0.093962519
-0.093963
-0.093384735
-0.092379663
-0.091040367
-0.089366923
-0.087357873
-0.085037749
-0.082439927
-0.079595826
-0.076536531
-0.073295171
-0.069906168
-0.066404167
-0.062823592
-0.059197857
-0.055558738
-0.051936023
-0.048357184
-0.044847093
-0.041427798
-0.0381184
-0.034935001
-0.031890714
-0.028995748
-0.026257532
-0.023680894
-0.021268267
-0.01901992
-0.016934215
-0.015007864
-0.013236193
-0.011613401
-0.01013281
-0.0087871057
-0.0075685585
-0.0064692078
-0.005481079
-0.0045961551
-0.0038068892
-0.0031048134
-0.0024837621
-0.0019303764
-0.0014397232
-0.00099262595
-0.00047772491
-0.0004376153
-0.08255221
-0.082811329
-0.083221822
-0.083926042
-0.084300575
-0.084173233
-0.083657444
-0.082827416
-0.081682541
-0.080218307
-0.078451434
-0.076407755
-0.074112778
-0.071592225
-0.068874069
-0.065988294
-0.06296566
-0.059837092
-0.056633433
-0.053384792
-0.050119937
-0.046865919
-0.04364777
-0.040488225
-0.037407509
-0.034423206
-0.031550196
-0.028800655
-0.026184118
-0.023707583
-0.021375668
-0.019190791
-0.017153385
-0.015262124
-0.013514162
-0.011905376
-0.010430601
-0.0090838637
-0.0078585968
-0.0067478284
-0.0057443728
-0.0048408636
-0.0040300483
-0.0033040195
-0.0026555327
-0.0020740714
-0.001545855
-0.0010759641
-0.00049348246
-0.0005192081
-0.072184491
-0.072784294
-0.073493582
-0.074434093
-0.075095318
-0.07532727
-0.075214825
-0.074815205
-0.074125499
-0.073138621
-0.071864794
-0.070322748
-0.068531975
-0.066512764
-0.064287824
-0.061882226
-0.059322499
-0.05663588
-0.05384995
-0.050992307
-0.048089987
-0.045168928
-0.042253626
-0.039366825
-0.036529249
-0.033759404
-0.031073438
-0.02848507
-0.026005583
-0.023643864
-0.021406494
-0.019297884
-0.017320432
-0.015474716
-0.013759702
-0.012172955
-0.010710862
-0.0093688469
-0.0081415763
-0.0070231434
-0.0060072396
-0.0050872235
-0.0042562733
-0.0035070246
-0.0028316798
-0.0022216521
-0.0016581156
-0.0011608508
-0.00053136922
-0.00056640502
-0.062679454
-0.06351105
-0.064428628
-0.065532751
-0.066403678
-0.066912205
-0.067121935
-0.067076017
-0.066768921
-0.066191275
-0.065347912
-0.064251262
-0.062915096
-0.061354415
-0.059586745
-0.057632175
-0.055512657
-0.053251415
-0.050872505
-0.048400458
-0.045859885
-0.043274969
-0.040669029
-0.038064174
-0.035481013
-0.03293839
-0.030453196
-0.028040227
-0.025712108
-0.023479274
-0.021349995
-0.019330455
-0.017424859
-0.01563558
-0.013963325
-0.012407323
-0.010965512
-0.0096347397
-0.0084109533
-0.0072893698
-0.0062646316
-0.0053308935
-0.0044818884
-0.0037108123
-0.0030097575
-0.0023714101
-0.0017748958
-0.0012471609
-0.00058643315
-0.00058527428
-0.054020546
-0.054998339
-0.056048253
-0.057252692
-0.058266296
-0.058978321
-0.059436202
-0.05967191
-0.059677737
-0.059442503
-0.058966672
-0.058257325
-0.057323113
-0.056174131
-0.054822998
-0.053284965
-0.051577384
-0.049719233
-0.047730773
-0.045633179
-0.04344816
-0.041197566
-0.038902957
-0.036585222
-0.034264258
-0.031958678
-0.029685574
-0.027460323
-0.025296451
-0.023205555
-0.021197268
-0.019279278
-0.017457385
-0.015735596
-0.01411625
-0.012600163
-0.011186793
-0.0098744056
-0.0086602469
-0.0075406968
-0.0065114069
-0.0055673927
-0.0047030516
-0.0039121841
-0.0031871268
-0.0025214192
-0.0018942672
-0.0013344113
-0.00065271306
-0.00058408608
-0.046175457
-0.047233897
-0.048355701
-0.049608361
-0.050708265
-0.051561018
-0.052201701
-0.052653597
-0.052907542
-0.05295118
-0.05278162
-0.052401605
-0.051815439
-0.0510289
-0.050050169
-0.048889991
-0.047561301
-0.046078868
-0.044459018
-0.042719357
-0.040878416
-0.038955298
-0.036969312
-0.034939608
-0.03288483
-0.030822816
-0.028770326
-0.026742811
-0.024754234
-0.022816933
-0.020941533
-0.019136914
-0.017410209
-0.015766851
-0.014210652
-0.012743904
-0.011367508
-0.010081112
-0.0088832498
-0.0077714816
-0.0067425081
-0.0057922594
-0.0049158911
-0.0041078701
-0.0033610445
-0.0026695835
-0.0020140828
-0.0014217461
-0.00072420467
-0.00057177236
-0.039101482
-0.040191671
-0.041339225
-0.042599437
-0.04374013
-0.044681414
-0.045449025
-0.046059639
-0.046503364
-0.046767341
-0.046846301
-0.046739653
-0.046448217
-0.045974172
-0.045321873
-0.04449806
-0.043511614
-0.042373309
-0.041095625
-0.039692538
-0.038179246
-0.03657186
-0.034887088
-0.033141914
-0.031353269
-0.029537723
-0.027711204
-0.025888746
-0.024084272
-0.022310422
-0.020578416
-0.018897969
-0.017277245
-0.015722851
-0.014239867
-0.012831905
-0.011501196
-0.010248694
-0.0090741845
-0.007976396
-0.0069530975
-0.0060011745
-0.0051166161
-0.0042946232
-0.0035287446
-0.0028136986
-0.0021321018
-0.0015080033
-0.00079575494
-0.00055631171
-0.032750032
-0.03383672
-0.034976183
-0.03621372
-0.037359961
-0.038347828
-0.039196104
-0.039916547
-0.040499166
-0.040931205
-0.041205904
-0.041320285
-0.041272547
-0.041062042
-0.04069
-0.040159764
-0.039476659
-0.038647848
-0.037682212
-0.036590223
-0.035383745
-0.034075796
-0.032680283
-0.031211731
-0.029684992
-0.028114961
-0.026516292
-0.024903143
-0.023288943
-0.021686192
-0.02010629
-0.01855941
-0.01705441
-0.015598776
-0.014198611
-0.012858648
-0.011582297
-0.010371703
-0.0092278303
-0.0081505384
-0.0071386585
-0.0061900526
-0.0053015973
-0.0044692911
-0.0036875067
-0.0029515211
-0.0022461169
-0.0015918371
-0.00086365167
-0.00054348211
-0.027070036
-0.028128923
-0.029236615
-0.030430198
-0.031555886
-0.032557833
-0.033449704
-0.034239678
-0.034918147
-0.035472949
-0.035896577
-0.036184504
-0.036333111
-0.036339681
-0.036203034
-0.035923783
-0.03550429
-0.034948587
-0.034262348
-0.033452812
-0.032528669
-0.031499886
-0.030377517
-0.029173474
-0.02790029
-0.026570876
-0.025198253
-0.02379531
-0.022374569
-0.020947971
-0.019526687
-0.018120961
-0.016739985
-0.015391805
-0.014083267
-0.012819988
-0.011606361
-0.010445577
-0.009339667
-0.0082895523
-0.0072950914
-0.0063551207
-0.0054674335
-0.0046288747
-0.0038347125
-0.0030808368
-0.0023540587
-0.0016718494
-0.00092577023
-0.00053631405
-0.022010228
-0.023025626
-0.024086042
-0.025221781
-0.026308623
-0.027300486
-0.028207291
-0.029034649
-0.029773675
-0.030413146
-0.030945396
-0.031365044
-0.031667345
-0.031848201
-0.031904712
-0.031835422
-0.031640344
-0.03132094
-0.030880145
-0.030322353
-0.029653363
-0.028880278
-0.028011375
-0.027055941
-0.026024084
-0.024926535
-0.023774429
-0.022579076
-0.021351741
-0.020103436
-0.018844723
-0.01758554
-0.016335053
-0.015101534
-0.013892267
-0.012713488
-0.011570346
-0.010466891
-0.0094060802
-0.0083897913
-0.0074188449
-0.0064930211
-0.005611031
-0.0047705932
-0.0039679024
-0.0031995288
-0.002454062
-0.0017466972
-0.00098130198
-0.00053532008
-0.017521013
-0.018483851
-0.019487904
-0.020557823
-0.021593965
-0.02255868
-0.023459146
-0.024299146
-0.025070716
-0.025763788
-0.026370958
-0.02688653
-0.0273052
-0.027622076
-0.027833138
-0.027935483
-0.027927372
-0.027808266
-0.027578878
-0.027241207
-0.02679854
-0.026255408
-0.025617509
-0.024891612
-0.024085423
-0.023207427
-0.022266723
-0.02127283
-0.020235496
-0.0191645
-0.018069465
-0.016959681
-0.015843947
-0.014730426
-0.013626531
-0.012538833
-0.011472988
-0.010433692
-0.0094246498
-0.0084485625
-0.0075071146
-0.0066009695
-0.0057297277
-0.0048919818
-0.0040848543
-0.0033056539
-0.0025445017
-0.0018151605
-0.0010302433
-0.0005392885
-0.013555536
-0.014461733
-0.015405266
-0.016406013
-0.017384792
-0.018311195
-0.019190361
-0.020024776
-0.020807479
-0.02152965
-0.022184433
-0.0227662
-0.023269516
-0.023689159
-0.024020499
-0.024259715
-0.024403864
-0.02445094
-0.02439995
-0.02425098
-0.02400523
-0.023665019
-0.023233763
-0.022715922
-0.022116925
-0.021443063
-0.020701366
-0.01989946
-0.019045405
-0.018147527
-0.017214252
-0.016253933
-0.015274696
-0.01428429
-0.013289955
-0.012298312
-0.011315261
-0.010345912
-0.0093945212
-0.0084644489
-0.0075581178
-0.0066769837
-0.0058214783
-0.004991041
-0.0041836989
-0.0033975383
-0.0026240195
-0.0018761844
-0.0010728875
-0.00054625415
-0.010071172
-0.010920243
-0.011802731
-0.012734422
-0.013653191
-0.014534821
-0.015382918
-0.016199024
-0.01697718
-0.017709825
-0.018390802
-0.019014805
-0.019576573
-0.020070895
-0.020492923
-0.020838351
-0.021103497
-0.021285364
-0.021381732
-0.021391236
-0.021313429
-0.021148819
-0.020898881
-0.020566054
-0.020153705
-0.019666076
-0.019108201
-0.01848581
-0.017805205
-0.017073136
-0.016296649
-0.015482943
-0.014639224
-0.013772559
-0.012889745
-0.011997179
-0.011100752
-0.010205751
-0.0093167714
-0.0084376499
-0.0075713988
-0.0067201505
-0.0058850829
-0.005066427
-0.0042630718
-0.0034738951
-0.0026915659
-0.0019289175
-0.0011095
-0.00055428579
-0.0070294807
-0.0078236279
-0.0086472908
-0.0095127229
-0.010372025
-0.011206244
-0.012017808
-0.012807549
-0.013570454
-0.014300154
-0.014991255
-0.015638922
-0.01623825
-0.016784276
-0.017272212
-0.017697601
-0.018056387
-0.018344982
-0.018560352
-0.018700106
-0.018762565
-0.018746821
-0.018652781
-0.018481187
-0.018233622
-0.017912496
-0.017521005
-0.017063071
-0.016543271
-0.015966736
-0.015339046
-0.01466611
-0.013954033
-0.013208995
-0.012437122
-0.011644355
-0.010836339
-0.010018308
-0.0091949877
-0.0083705033
-0.0075482923
-0.0067310285
-0.0059205281
-0.0051177356
-0.0043223395
-0.0035339966
-0.0027464953
-0.0019727818
-0.0011402344
-0.00056191901
-0.0043976777
-0.0051406983
-0.0059094772
-0.0067131573
-0.0075156962
-0.0083026052
-0.0090753818
-0.0098343084
-0.010575216
-0.011292826
-0.0119825
-0.012639932
-0.013260677
-0.013840152
-0.014373816
-0.014857291
-0.01528642
-0.01565733
-0.015966515
-0.016210911
-0.016387978
-0.016495765
-0.016532963
-0.016498956
-0.016393848
-0.016218479
-0.015974422
-0.015663961
-0.015290048
-0.014856251
-0.014366677
-0.013825886
-0.013238786
-0.012610531
-0.011946406
-0.01125171
-0.010531643
-0.0097911868
-0.0090350011
-0.0082673148
-0.007491825
-0.0067116016
-0.0059289774
-0.0051455126
-0.004361617
-0.0035776881
-0.0027885605
-0.0020074664
-0.0011651403
-0.00056822183
-0.0021499783
-0.002847297
-0.0035667849
-0.0043149363
-0.0050655228
-0.0058077847
-0.0065424701
-0.0072694178
-0.0079851885
-0.0086854615
-0.0093662972
-0.010023919
-0.010654372
-0.011253514
-0.011817152
-0.012341129
-0.012821373
-0.013253951
-0.013635137
-0.013961483
-0.014229895
-0.014437697
-0.014582695
-0.014663235
-0.014678251
-0.014627299
-0.014510583
-0.014328961
-0.014083938
-0.013777638
-0.013412773
-0.012992578
-0.01252075
-0.012001356
-0.011438747
-0.010837457
-0.010202094
-0.0095372323
-0.0088473017
-0.0081364731
-0.0074085478
-0.0066668487
-0.0059140972
-0.0051523599
-0.004382674
-0.0036061143
-0.0028184842
-0.0020333702
-0.0011845765
-0.00057288424
-0.00026149194
-0.00091861721
-0.0015947212
-0.0022939144
-0.0029980354
-0.0036994353
-0.0043982569
-0.005093968
-0.0057837354
-0.0064640516
-0.0071315937
-0.0077830746
-0.0084150064
-0.0090236949
-0.0096053291
-0.010156045
-0.010671964
-0.011149233
-0.011584087
-0.0119729
-0.012312261
-0.012599028
-0.012830397
-0.013003963
-0.013117771
-0.013170375
-0.01316087
-0.013088929
-0.012954816
-0.012759395
-0.012504114
-0.012190985
-0.011822539
-0.011401771
-0.010932074
-0.010417156
-0.0098609488
-0.0092675124
-0.0086409227
-0.0079851625
-0.0073040038
-0.0066008919
-0.0058788122
-0.0051402234
-0.004386687
-0.0036198716
-0.002836457
-0.0020503819
-0.0011983038
-0.00057546165
0.0012644795
0.00064008111
-3.3011735e-07
-0.00065911425
-0.0013245155
-0.0019913251
-0.0026591905
-0.0033272815
-0.0039932511
-0.0046542499
-0.0053074663
-0.0059500321
-0.0065788713
-0.0071906954
-0.0077820599
-0.0083494067
-0.0088890929
-0.0093974234
-0.0098706957
-0.01030525
-0.010697524
-0.01104411
-0.011341814
-0.011587719
-0.01177924
-0.011914186
-0.011990809
-0.012007849
-0.011964575
-0.011860804
-0.011696919
-0.011473867
-0.011193148
-0.010856783
-0.010467267
-0.010027513
-0.0095407756
-0.0090105649
-0.00844055
-0.0078344505
-0.0071959201
-0.0065284269
-0.0058351161
-0.0051187322
-0.0043812531
-0.0036248425
-0.0028469436
-0.0020617955
-0.0012086414
-0.00057714284
0.0024700818
0.0018726266
0.00126145
0.00063580956
2.4627414e-06
-0.00063533027
-0.001276835
-0.0019209725
-0.0025657639
-0.0032088729
-0.0038478932
-0.0044802946
-0.0051033404
-0.0057140835
-0.0063093983
-0.0068860068
-0.0074404996
-0.0079693611
-0.008469004
-0.0089358096
-0.0093661735