/*--------------------------------*- C++ -*----------------------------------*\
  =========                 |
  \\      /  F ield         | OpenFOAM: The Open Source CFD Toolbox
   \\    /   O peration     | Website:  https://openfoam.org
    \\  /    A nd           | Version:  6
     \\/     M anipulation  |
\*---------------------------------------------------------------------------*/
FoamFile
{
    version     2.0;
    format      ascii;
    class       volVectorField;
    location    "190";
    object      U_0;
}
// * * * * * * * * * * * * * * * * * * * * * * * * * * * * * * * * * * * * * //

dimensions      [0 1 -1 0 0 0 0];

internalField   nonuniform List<vector> 
9200
(
(0.0010393469 0.0014199819 -5.9201851e-20)
(0.013676071 -0.0020583685 4.6042536e-20)
(0.038313175 -0.0058665712 -3.8501745e-20)
(0.072274452 -0.0097635098 -6.0257751e-20)
(0.11376476 -0.013490035 1.8826969e-20)
(0.16158092 -0.016605665 3.2743885e-20)
(0.21467152 -0.018817294 -1.2268011e-20)
(0.27206612 -0.019973901 9.2688642e-21)
(0.33285628 -0.020011235 1.6803427e-20)
(0.39616354 -0.018929065 1.4848074e-21)
(0.46111563 -0.01677983 -2.1456339e-20)
(0.52683695 -0.013657747 2.0670007e-20)
(0.59245078 -0.0096880143 -4.0422155e-20)
(0.65709141 -0.0050157933 -2.1133905e-20)
(0.71992482 0.00020554388 5.9046536e-21)
(0.78017513 0.0058240767 -2.5131678e-20)
(0.83717071 0.011712793 2.5217117e-20)
(0.89046888 0.017918491 2.2243192e-20)
(0.93967082 0.024573389 -2.9929816e-22)
(0.98205198 0.028293357 -1.6691892e-21)
(0.0052521817 -0.0013462737 -1.7059355e-20)
(0.026962507 -0.0089890288 3.974771e-20)
(0.061670127 -0.014809768 2.3576303e-20)
(0.10629491 -0.019172274 -1.1569758e-19)
(0.15873568 -0.022214002 -1.2727091e-20)
(0.21753355 -0.023720691 7.3297084e-20)
(0.281373 -0.023595103 -3.5476405e-20)
(0.34900607 -0.021868972 -8.3905577e-21)
(0.41923927 -0.018645532 3.4287545e-20)
(0.49090951 -0.014080849 -4.3259585e-20)
(0.5628724 -0.00837596 -3.0338485e-20)
(0.63400856 -0.0017666043 7.1921443e-20)
(0.70324339 0.0054883836 3.8294054e-20)
(0.76957592 0.01311862 -6.7976568e-20)
(0.83211256 0.020852069 1.4623693e-20)
(0.89010048 0.028419689 -3.6733406e-20)
(0.94296927 0.035569655 -1.3777196e-20)
(0.99043241 0.042140864 7.0974784e-20)
(1.0323562 0.047715283 2.9641986e-20)
(1.0669349 0.04913966 -8.3478337e-20)
(0.010858429 -0.0040424167 3.6773465e-20)
(0.043953421 -0.01543108 2.5047412e-21)
(0.09051545 -0.022552287 2.2341722e-20)
(0.14711142 -0.026497364 9.8116826e-22)
(0.21134258 -0.027886304 -4.0773949e-20)
(0.28146771 -0.026795122 1.8576403e-20)
(0.35587045 -0.023382736 1.3420303e-20)
(0.43299013 -0.017921546 -5.0327711e-20)
(0.51132484 -0.01073566 5.7261867e-20)
(0.58942621 -0.0021838911 1.4256689e-20)
(0.66590924 0.0073478934 -5.4300718e-20)
(0.73948045 0.017460249 -1.8237405e-20)
(0.80897608 0.027756546 9.0591644e-21)
(0.87340274 0.037859253 2.3444741e-20)
(0.93197372 0.047424021 -1.1362507e-20)
(0.98413377 0.056148947 2.7877733e-20)
(1.0295741 0.063789144 -2.0188244e-20)
(1.0682646 0.070204358 -7.0123603e-20)
(1.1003322 0.07511934 -2.3796278e-20)
(1.1249113 0.076641196 4.8659837e-20)
(0.017957217 -0.0064221644 2.4508022e-20)
(0.064777005 -0.020694803 5.1039229e-20)
(0.1248523 -0.028060852 1.9881695e-20)
(0.19446969 -0.030464072 1.2990091e-20)
(0.27094935 -0.029094848 1.7275702e-20)
(0.35224884 -0.024388986 -4.7720177e-20)
(0.43643145 -0.016825981 -2.564686e-20)
(0.52162015 -0.0069766796 0)
(0.60602903 0.0045670217 1.3920617e-20)
(0.68798715 0.01721172 -5.8523392e-21)
(0.76597527 0.030373908 -9.7934962e-20)
(0.83867456 0.043499616 -1.5774821e-20)
(0.90501535 0.056086598 6.5103208e-20)
(0.9642158 0.067704114 4.8442796e-22)
(1.0158036 0.078007691 -1.5725569e-21)
(1.0596156 0.086746765 2.1957498e-20)
(1.0957774 0.093772197 -5.2647205e-21)
(1.1246801 0.099065299 -6.1029745e-20)
(1.1468648 0.10259704 -4.585124e-20)
(1.1622958 0.10341381 6.9520527e-20)
(0.026579424 -0.0082056893 -3.9194239e-21)
(0.089344033 -0.02403351 -5.1256423e-21)
(0.16430756 -0.030264993 5.6599415e-20)
(0.24758123 -0.029810025 1.8539323e-20)
(0.33624165 -0.024513034 -3.1955069e-20)
(0.42795131 -0.015239867 1.2163842e-20)
(0.52047268 -0.0028513704 2.6402867e-21)
(0.61166365 0.011737087 3.3609175e-20)
(0.6995472 0.027640133 5.6599513e-21)
(0.78236846 0.044028758 -1.3204741e-20)
(0.85865415 0.060147712 6.0154046e-20)
(0.9272692 0.075340456 -5.8009368e-20)
(0.98745686 0.089072844 -1.3216615e-19)
(1.0388532 0.100949 -5.5773045e-21)
(1.0814726 0.11071706 8.3150786e-20)
(1.1156656 0.11826402 0)
(1.1420549 0.1236058 1.0118961e-20)
(1.1614669 0.12689053 -1.5459773e-20)
(1.174818 0.12829867 -8.5994613e-21)
(1.1826674 0.12744912 2.0992232e-20)
(0.036666914 -0.0090895809 -5.4309214e-21)
(0.11731512 -0.024685361 4.3578749e-21)
(0.20811871 -0.028140183 -8.7629849e-21)
(0.30515706 -0.02341496 2.8472401e-20)
(0.40533544 -0.013075597 -2.9392669e-20)
(0.50607153 0.0015226096 -1.6927027e-20)
(0.60490497 0.019095134 3.7364238e-20)
(0.69954967 0.038365248 4.7595461e-21)
(0.78800401 0.058167638 -2.443606e-20)
(0.86863415 0.077482995 6.986757e-20)
(0.94023982 0.095458631 5.2394045e-22)
(1.0020957 0.11143155 -8.0444328e-20)
(1.053957 0.12494289 0)
(1.0960274 0.13573748 3.9542122e-20)
(1.1288922 0.14374841 5.5236009e-21)
(1.1534279 0.1490689 -7.7566413e-20)
(1.1706991 0.15191911 -1.9586925e-20)
(1.1818624 0.15262365 -1.2467634e-20)
(1.1880592 0.15152602 -1.470939e-20)
(1.1901461 0.14858489 4.0420526e-20)
(0.048058874 -0.0087674063 -1.7277965e-20)
(0.14808312 -0.021931996 -2.2198141e-21)
(0.25514073 -0.020797838 3.0380513e-20)
(0.36546389 -0.010412797 3.7484317e-20)
(0.47590427 0.0059015845 -1.9944737e-20)
(0.58374273 0.026269303 -6.9163045e-20)
(0.68644193 0.048977205 -2.7995802e-20)
(0.78176212 0.072417784 7.892922e-20)
(0.86790205 0.095212472 8.5778137e-21)
(0.94358925 0.1162496 -2.4873487e-20)
(1.0081259 0.13469826 1.3642217e-20)
(1.0613871 0.15001554 -4.3194487e-21)
(1.1037694 0.16193658 0)
(1.1360976 0.17044426 2.7203488e-20)
(1.1595047 0.17572307 -7.9322428e-20)
(1.1753021 0.17810367 -3.1475534e-20)
(1.184857 0.1780081 8.105459e-20)
(1.1894922 0.17590942 -4.2969862e-21)
(1.190403 0.17225555 3.5561074e-21)
(1.188508 0.16719295 2.7111573e-20)
(0.060485258 -0.0069573648 -3.2414626e-20)
(0.18077775 -0.015170383 -8.1624333e-20)
(0.30388933 -0.0075835295 2.5797766e-21)
(0.42642561 0.0097033541 7.0161836e-20)
(0.54535155 0.032631552 6.2424391e-20)
(0.65798108 0.058820042 -7.1574527e-20)
(0.76190891 0.086176506 -2.8274949e-22)
(0.855183 0.11285231 8.5522554e-20)
(0.93645355 0.13737837 4.8828074e-20)
(1.0050416 0.15869369 -5.4218413e-20)
(1.0609357 0.17613562 -9.233423e-20)
(1.1047243 0.18941353 -3.1589833e-21)
(1.137476 0.19855942 4.2127875e-20)
(1.1605874 0.20385855 -6.6056281e-21)
(1.1756248 0.20577017 -1.2868788e-20)
(1.1841777 0.20484917 1.969081e-20)
(1.1877428 0.20167894 4.3880625e-20)
(1.1876454 0.19682585 -4.3859438e-20)
(1.1849954 0.19077881 -1.0232203e-19)
(1.180625 0.18377377 2.4566884e-20)
(0.073537224 -0.0034329739 -3.4979754e-20)
(0.2142269 -0.0039890271 -1.7388619e-19)
(0.35251661 0.011839375 8.2103286e-20)
(0.48562803 0.037018337 9.2767561e-20)
(0.61085386 0.066835553 5.7970579e-20)
(0.72576734 0.098481179 8.6107104e-21)
(0.82834811 0.12959696 -1.0624009e-19)
(0.91719006 0.15824269 0)
(0.99162753 0.18302814 -6.8748589e-20)
(1.0517522 0.20311206 -1.5202409e-20)
(1.0983384 0.2181486 5.4703475e-20)
(1.1327008 0.22821081 1.0973379e-20)
(1.156511 0.23369259 -4.5613863e-20)
(1.1716068 0.23519945 -4.908137e-20)
(1.1798204 0.23344333 2.4287687e-20)
(1.1828451 0.22915321 4.4822901e-20)
(1.1821489 0.22300983 -5.5600419e-20)
(1.1789361 0.2156082 -1.0751124e-19)
(1.1741469 0.20742221 -3.1513618e-21)
(1.1684568 0.19871878 2.7046404e-20)
(0.086650455 0.0019613862 -3.5448938e-21)
(0.24696021 0.011816634 8.7913284e-20)
(0.39884744 0.037492311 -1.6479263e-20)
(0.54040471 0.071218384 -8.430921e-20)
(0.66949909 0.10778894 4.5164384e-20)
(0.7842196 0.14411544 4.9175435e-20)
(0.88318948 0.17775669 5.5356776e-21)
(0.96577878 0.2068849 -9.9502473e-20)
(1.0321764 0.23038802 -2.5048779e-21)
(1.0833329 0.24781553 5.0503544e-20)
(1.1208071 0.259263 5.9854751e-21)
(1.1465559 0.26523619 -1.971722e-20)
(1.1627108 0.26650532 -7.5704649e-20)
(1.1713765 0.2639662 -6.2554012e-21)
(1.1744763 0.25852427 4.3533362e-20)
(1.1736548 0.25101086 3.7022019e-20)
(1.1702383 0.24213393 1.9793443e-20)
(1.1652403 0.23245872 -5.2994855e-20)
(1.1594014 0.22240415 1.2957449e-20)
(1.1532252 0.21223797 8.2659109e-20)
(-0.0012932617 0.00143466 -1.1234436e-21)
(-0.004745961 0.0031874152 2.0646971e-21)
(-0.01077136 0.0041359046 8.7950403e-22)
(-0.017754289 0.0045395365 -2.4411046e-21)
(-0.024740321 0.0045654171 -1.4114824e-21)
(-0.031299596 0.004326039 1.5459984e-21)
(-0.037161331 0.0039035384 -6.8700824e-21)
(-0.042147447 0.0033577219 -5.9573013e-21)
(-0.046157781 0.0027313813 1.1171999e-20)
(-0.049146194 0.0020548305 -9.74275e-21)
(-0.051100658 0.0013493002 -1.9832917e-22)
(-0.052030448 0.00062942153 3.6673459e-21)
(-0.051957741 -9.4890037e-05 -6.3295542e-22)
(-0.050911885 -0.00081693112 2.2818748e-20)
(-0.04892578 -0.0015318456 3.0401029e-22)
(-0.046035343 -0.0022351751 -4.0882881e-20)
(-0.042281798 -0.0029222693 7.5385647e-21)
(-0.037703442 -0.00359104 2.3864116e-20)
(-0.032308692 -0.0042399882 -4.3852386e-20)
(-0.02615696 -0.004821115 -2.7739212e-20)
(-0.0016522002 0.0041808669 -5.3716051e-21)
(-0.0053974818 0.0092681394 1.086544e-20)
(-0.011218511 0.012007445 -1.0191548e-20)
(-0.017658028 0.013153765 3.9229763e-21)
(-0.023856435 0.013195414 4.8121448e-21)
(-0.029433321 0.012462725 7.1324189e-22)
(-0.034152324 0.011197015 -2.250949e-20)
(-0.037860381 0.0095738975 -2.037025e-21)
(-0.040474302 0.0077189875 2.0163544e-20)
(-0.041958925 0.0057212303 -5.0473608e-21)
(-0.042308953 0.003642864 -2.1762594e-20)
(-0.041537339 0.0015267118 4.8973177e-21)
(-0.039667714 -0.00059830681 2.2635424e-20)
(-0.036729082 -0.0027127628 1.0308393e-20)
(-0.032752033 -0.0048026914 2.185429e-20)
(-0.027769169 -0.0068555112 -1.9770732e-20)
(-0.021824792 -0.008858223 -2.1672948e-20)
(-0.014966266 -0.010804229 2.1184623e-20)
(-0.0071290117 -0.012679005 2.6810371e-20)
(0.0018743028 -0.014317228 1.5854769e-20)
(-0.0023034295 0.0065602336 -4.3568703e-21)
(-0.0065392246 0.014480197 -5.6387555e-21)
(-0.011892133 0.018710545 3.0723945e-22)
(-0.017211101 0.020428182 1.0959889e-21)
(-0.021819144 0.020400325 6.6918427e-21)
(-0.025431043 0.019151667 1.0665172e-20)
(-0.027877233 0.017066289 -3.7227642e-21)
(-0.02905327 0.014423783 -1.889617e-20)
(-0.028909038 0.011424352 6.5413186e-21)
(-0.02743105 0.0082099045 1.2862572e-20)
(-0.024627713 0.0048797749 5.8340877e-21)
(-0.020520107 0.0015022368 1.8159107e-20)
(-0.015135983 -0.0018768659 1.7295918e-21)
(-0.008505395 -0.0052272511 -3.3864533e-20)
(-0.00065688759 -0.0085276142 1.2020183e-21)
(0.0083810239 -0.011759114 -2.2139213e-20)
(0.018556876 -0.014904102 -2.4466309e-20)
(0.029802191 -0.017953759 4.5819721e-20)
(0.042304976 -0.020855124 2.5349354e-20)
(0.056738586 -0.023247774 1.2239373e-22)
(-0.003129028 0.0083689711 -5.2833083e-21)
(-0.0078963997 0.018336515 -8.4815295e-21)
(-0.012438987 0.023587811 4.3593058e-21)
(-0.016026536 0.025609661 4.146346e-21)
(-0.018235025 0.025382747 2.0105713e-21)
(-0.018912652 0.023589323 7.3209968e-21)
(-0.017984717 0.020730274 9.3124794e-21)
(-0.015416709 0.017170378 -1.3511354e-21)
(-0.011207046 0.013171314 -1.1481948e-20)
(-0.0053752314 0.0089189304 -2.9071882e-20)
(0.0020481145 0.0045434351 6.1892848e-23)
(0.011026512 0.00013430796 4.0697827e-20)
(0.02152223 -0.004248955 -1.8383174e-20)
(0.033497857 -0.0085675899 -1.229609e-20)
(0.04692052 -0.012795552 5.5348866e-22)
(0.061760104 -0.016911862 3.230265e-20)
(0.077953024 -0.020901678 -1.4829548e-20)
(0.095392277 -0.024763385 -5.3339194e-20)
(0.11439847 -0.028379728 4.5765017e-20)
(0.1363454 -0.031073106 3.3013175e-20)
(-0.0039704101 0.0094657334 -6.8788998e-22)
(-0.0090916588 0.020487794 -1.2534742e-20)
(-0.012364472 0.026159089 -3.414454e-20)
(-0.013552541 0.028143341 -5.724163e-21)
(-0.01253324 0.027555009 -3.6222744e-21)
(-0.0093167236 0.025188066 6.3051046e-21)
(-0.0039456429 0.021627412 -4.6461966e-21)
(0.0035261314 0.017298959 -8.8070281e-21)
(0.013036826 0.012508751 2.1899712e-20)
(0.024521249 0.0074744405 5.0567074e-21)
(0.037915548 0.0023489007 -2.5290299e-20)
(0.053157457 -0.0027627886 1.1078279e-20)
(0.070186882 -0.0077908804 0)
(0.0889466 -0.01269131 1.2089577e-20)
(0.10938546 -0.017436928 -9.7016191e-21)
(0.13145744 -0.022009906 -1.4337122e-20)
(0.1550741 -0.026408657 -1.5738934e-21)
(0.18006764 -0.030659433 -2.2181563e-21)
(0.20685346 -0.034576548 4.614707e-20)
(0.23766364 -0.037019884 -1.047013e-20)
(-0.0046450983 0.0097808634 -7.5356688e-21)
(-0.0096772516 0.020747882 2.4516403e-20)
(-0.011064381 0.026160979 -1.0499348e-20)
(-0.0090968323 0.027724447 -2.7469285e-20)
(-0.0039797193 0.026601696 -2.754815e-20)
(0.0040961859 0.023648409 -1.4921571e-20)
(0.014954154 0.019496457 -6.9059599e-22)
(0.028436243 0.014604704 5.5499785e-21)
(0.044403158 0.0093034444 1.961588e-20)
(0.06273051 0.003828412 7.3530862e-21)
(0.083304333 -0.00165476 -7.1862216e-21)
(0.106019 -0.0070322449 -2.0102302e-21)
(0.1307736 -0.012229105 -3.8191715e-20)
(0.15746947 -0.017199762 -1.2693646e-20)
(0.18601203 -0.021919745 1.875061e-20)
(0.21631181 -0.02637973 -2.1021678e-20)
(0.24823228 -0.030602237 -8.9730592e-21)
(0.28151873 -0.034670624 3.0440469e-20)
(0.3166071 -0.038364837 5.0472078e-20)
(0.35665023 -0.03996412 3.355967e-21)
(-0.0049617688 0.0093139997 1.6783306e-20)
(-0.0091662698 0.019097711 1.446794e-20)
(-0.0078593647 0.023563368 5.1145493e-20)
(-0.0018585379 0.024328945 2.3387984e-20)
(0.0082957266 0.022523784 1.8251776e-22)
(0.022221946 0.019014384 -3.9388459e-20)
(0.039597451 0.014440935 -2.4313863e-20)
(0.060147917 0.009266357 1.0465817e-20)
(0.083639132 0.0038232243 1.4401588e-20)
(0.10986671 -0.0016513045 -1.3113711e-20)
(0.13864565 -0.0069910164 -4.403872e-20)
(0.16980174 -0.012082856 2.9618502e-20)
(0.20316408 -0.016854169 2.0020553e-20)
(0.2385595 -0.021264007 -2.7551159e-20)
(0.27581235 -0.025296416 1.1650137e-20)
(0.31474817 -0.028957182 2.4197616e-20)
(0.35514552 -0.032303069 8.0723958e-21)
(0.39663395 -0.035506695 -1.1764214e-20)
(0.43957709 -0.038392662 -1.4190299e-20)
(0.48798519 -0.038634424 5.8727644e-21)
(-0.0047307766 0.008123674 1.1093846e-20)
(-0.0070586005 0.015671177 -2.3352722e-20)
(-0.0020293647 0.018562033 8.6200562e-21)
(0.0090325235 0.018216225 3.358797e-20)
(0.025256368 0.015651149 5.2124347e-20)
(0.046066348 0.011695602 2.0276512e-20)
(0.070984537 0.0069609496 -5.8639373e-21)
(0.099601967 0.0018829472 -1.2286284e-20)
(0.13156897 -0.0032272036 -6.2057486e-21)
(0.1665757 -0.0081496644 3.4240838e-20)
(0.20433428 -0.012733329 -4.5104408e-21)
(0.24456489 -0.016879197 -1.6643303e-20)
(0.28698474 -0.020528697 -1.9693574e-20)
(0.33130003 -0.023656424 -4.7443743e-20)
(0.37720465 -0.026265546 2.3238705e-20)
(0.42438777 -0.028387875 -1.4095985e-20)
(0.47249981 -0.030127635 2.5993402e-20)
(0.52103626 -0.031783205 2.1040827e-20)
(0.57021404 -0.033350695 -8.5570398e-20)
(0.62470926 -0.032058858 -1.0807121e-22)
(-0.0037710521 0.0063146399 2.1925057e-20)
(-0.0028657657 0.010735096 -2.6165532e-20)
(0.0071421074 0.011564137 -4.5013301e-20)
(0.024450238 0.009924989 -2.7253784e-20)
(0.04787086 0.0066523043 -2.0439869e-21)
(0.076628717 0.0024906144 1.3050092e-20)
(0.11007675 -0.0020153992 -2.833768e-21)
(0.14765208 -0.0064879092 1.8118538e-20)
(0.18886099 -0.01066351 8.8685612e-21)
(0.23325199 -0.014362429 -1.1380173e-20)
(0.28039153 -0.017468958 8.8779162e-21)
(0.32984608 -0.019916815 -2.390327e-20)
(0.38116886 -0.021678708 8.0504812e-21)
(0.43389091 -0.022759886 1.6756393e-20)
(0.48751943 -0.023194313 -2.6395146e-21)
(0.54154724 -0.023046904 1.6618988e-21)
(0.59543555 -0.022469459 -3.1957726e-22)
(0.64851793 -0.021870119 1.9590424e-20)
(0.7008225 -0.021445078 4.0433999e-21)
(0.75745161 -0.018499097 -5.7334788e-22)
(-0.0019110142 0.0040273483 2.3692115e-20)
(0.0038694316 0.00467652 5.7159963e-20)
(0.020315315 0.0031879636 -4.9244232e-20)
(0.045178293 0.00029442447 -9.9454149e-21)
(0.076965165 -0.0034241545 2.0256344e-20)
(0.11469625 -0.0073535896 2.1433718e-21)
(0.15753885 -0.011054961 -2.9815163e-20)
(0.20474834 -0.014244145 6.9848099e-21)
(0.25564954 -0.016737935 7.1097897e-21)
(0.30960478 -0.018426965 -2.6254081e-20)
(0.36598653 -0.019260106 1.2927332e-21)
(0.42415965 -0.019231876 -3.7174116e-20)
(0.48347109 -0.018372213 -3.634102e-20)
(0.54324573 -0.016738287 6.5683487e-20)
(0.60278821 -0.014407314 5.5627489e-21)
(0.66138894 -0.011475912 -1.5188795e-20)
(0.71830795 -0.0081020598 1.9363968e-20)
(0.77269912 -0.0045928816 -9.1888143e-22)
(0.82408846 -0.00096806552 2.0364579e-20)
(0.87621978 0.0043280499 -1.955415e-20)
(-0.018836414 -0.0050997043 5.8352054e-20)
(-0.010224651 -0.0056349276 1.5783667e-20)
(-0.00022118956 -0.0060688805 -3.5139559e-20)
(0.010823233 -0.00633411 1.6790236e-20)
(0.022642474 -0.0065120472 0)
(0.035177894 -0.00663009 0)
(0.048369672 -0.0066909733 -2.2974947e-20)
(0.062138089 -0.0067025396 -1.650287e-20)
(0.076412733 -0.006674174 1.9122594e-20)
(0.091134097 -0.0066126653 1.8174034e-20)
(0.10624721 -0.0065232053 1.0524251e-21)
(0.12170025 -0.0064103575 -1.0317635e-20)
(0.13744494 -0.0062780806 8.3268805e-21)
(0.15343605 -0.0061297219 1.8233715e-20)
(0.16963082 -0.0059681446 -5.2274184e-21)
(0.18598861 -0.0057958341 -1.0174934e-20)
(0.20247065 -0.0056149616 -4.319587e-21)
(0.21903991 -0.0054274361 -4.4257377e-21)
(0.23566099 -0.0052349497 7.366716e-22)
(0.2523 -0.0050390126 1.2286041e-21)
(0.2689246 -0.00484098 2.566632e-21)
(0.28550403 -0.0046420716 6.6539468e-21)
(0.30200908 -0.0044433866 2.4894308e-22)
(0.31841222 -0.0042459143 -3.4514707e-21)
(0.3346876 -0.0040505425 1.5558742e-22)
(0.35081116 -0.0038580626 -5.7709797e-22)
(0.36676064 -0.0036691746 1.2434366e-21)
(0.38251564 -0.003484491 1.0522435e-21)
(0.39805763 -0.0033045401 -1.2987947e-21)
(0.41336998 -0.0031297702 -1.221872e-22)
(0.42843798 -0.0029605532 3.5748607e-23)
(0.44324876 -0.0027971891 -3.5187609e-22)
(0.45779133 -0.002639911 -4.0565514e-22)
(0.47205651 -0.0024888902 5.5413952e-23)
(0.48603688 -0.002344242 -1.3809051e-22)
(0.49972674 -0.0022060318 -2.234318e-22)
(0.51312208 -0.0020742818 2.557195e-22)
(0.52622055 -0.0019489776 2.9502008e-22)
(0.53902135 -0.0018300776 -8.271958e-24)
(0.5515256 -0.0017175162 -1.5517536e-22)
(0.56373526 -0.0016112325 3.0406486e-23)
(0.57565692 -0.0015111261 -4.0144822e-23)
(0.58729076 -0.0014172682 9.2204813e-23)
(0.59866578 -0.0013293223 2.1976787e-23)
(0.60973637 -0.001248572 -1.1394916e-22)
(0.62069453 -0.0011718079 -6.7616785e-24)
(0.63106264 -0.0011112604 -7.2223744e-26)
(0.64235135 -0.001033965 -3.5617547e-24)
(0.65042939 -0.0010508245 2.9453574e-23)
(0.66701065 -0.00087558101 3.6051195e-22)
(0.010445884 -0.015017615 -1.274682e-20)
(0.018179716 -0.016641018 -6.3302344e-20)
(0.027779238 -0.01791542 -3.0541947e-20)
(0.038385172 -0.018672078 3.847602e-20)
(0.049621019 -0.019183596 1.4662614e-20)
(0.061506666 -0.01952944 -1.8204933e-20)
(0.074012863 -0.019709874 4.6722038e-21)
(0.087062718 -0.019746501 2.5447194e-20)
(0.1005932 -0.01966729 9.1992158e-23)
(0.11455407 -0.01949171 -7.6591271e-21)
(0.12889724 -0.019234369 -1.3021018e-20)
(0.14357608 -0.018908321 -8.5245333e-21)
(0.15854672 -0.018524983 1.7772338e-20)
(0.17376764 -0.018094011 8.9295504e-21)
(0.18919908 -0.017623689 -1.6522439e-20)
(0.20480286 -0.017121242 -6.0390596e-21)
(0.22054225 -0.016593007 3.214505e-21)
(0.23638187 -0.016044581 8.3716335e-21)
(0.25228766 -0.015480943 6.9832294e-21)
(0.26822688 -0.014906552 -6.9727198e-21)
(0.28416809 -0.014325425 -3.1685496e-21)
(0.30008127 -0.013741186 1.3605366e-21)
(0.31593784 -0.01315711 3.868309e-22)
(0.33171074 -0.012576153 1.2113965e-21)
(0.34737451 -0.012000971 1.836843e-22)
(0.36290536 -0.011433937 -3.2661708e-22)
(0.37828122 -0.010877155 -7.2434966e-22)
(0.3934818 -0.010332467 9.7156814e-22)
(0.40848863 -0.0098014695 8.2483113e-22)
(0.42328505 -0.0092855167 -1.5147541e-22)
(0.43785623 -0.0087857378 5.5306233e-22)
(0.45218917 -0.0083030472 -2.388094e-22)
(0.46627266 -0.0078381595 -3.7070048e-22)
(0.48009726 -0.007391605 -6.0999281e-22)
(0.49365526 -0.0069637468 4.4171817e-22)
(0.50694062 -0.0065547987 -1.5479164e-23)
(0.51994894 -0.0061648454 1.6124938e-22)
(0.53267747 -0.0057938621 -4.4175073e-22)
(0.54512498 -0.0054417419 3.7189953e-22)
(0.55729212 -0.0051083065 6.7175651e-23)
(0.56918039 -0.0047933911 -1.0285405e-22)
(0.58079587 -0.0044967119 1.7614003e-22)
(0.5921383 -0.0042184979 2.3340145e-22)
(0.60323595 -0.0039577592 1.6926921e-22)
(0.61404336 -0.0037183416 1.676774e-22)
(0.62474969 -0.0034906893 -2.6099345e-23)
(0.63488368 -0.0033112524 8.4049642e-23)
(0.64593304 -0.0030819134 7.6297717e-23)
(0.65383155 -0.003132408 -1.9467401e-22)
(0.67009382 -0.0026124988 -3.8024839e-23)
(0.067614713 -0.024029155 9.4528322e-21)
(0.073589698 -0.026749058 3.2951002e-21)
(0.082265538 -0.028805578 -1.2162205e-20)
(0.091947855 -0.029968515 -1.2257923e-21)
(0.10198325 -0.030767875 1.4970592e-20)
(0.11254638 -0.031330903 -1.4887126e-20)
(0.12367601 -0.031636082 -2.9842279e-20)
(0.13529687 -0.031713018 1.4493526e-20)
(0.14735701 -0.031607648 1.8181971e-20)
(0.15982349 -0.031350069 -1.1598519e-20)
(0.17266067 -0.030961833 1.0190554e-21)
(0.1858309 -0.030462767 8.6860154e-21)
(0.19929793 -0.029870566 -1.5253545e-20)
(0.21302667 -0.029200253 2.9095198e-21)
(0.22698254 -0.028464775 7.5194385e-21)
(0.24113153 -0.02767552 3.1594917e-23)
(0.25544029 -0.026842574 2.6556201e-22)
(0.26987621 -0.025974913 -7.4150894e-21)
(0.28440748 -0.025080581 3.8616881e-21)
(0.29900317 -0.024166836 8.4749094e-21)
(0.31363333 -0.023240251 -3.8351782e-21)
(0.32826913 -0.022306792 -2.2130373e-21)
(0.34288294 -0.021371875 1.0124433e-21)
(0.35744845 -0.020440406 -1.7155342e-21)
(0.37194076 -0.019516814 1.353226e-21)
(0.38633648 -0.018605067 7.1845954e-22)
(0.40061381 -0.017708696 1.5268435e-21)
(0.41475256 -0.016830806 -1.9526666e-21)
(0.42873427 -0.015974092 2.2235741e-21)
(0.44254215 -0.015140857 5.5188671e-22)
(0.45616115 -0.01433303 4.0322948e-22)
(0.46957794 -0.013552185 3.2134505e-22)
(0.48278088 -0.012799566 8.7325451e-22)
(0.49576003 -0.012076113 -1.3708677e-21)
(0.50850709 -0.011382485 3.7065807e-22)
(0.52101537 -0.010719097 1.0941558e-22)
(0.53327975 -0.010086148 -4.5173219e-23)
(0.54529671 -0.0094836542 8.6731587e-23)
(0.55706422 -0.0089114951 -3.7185288e-22)
(0.56858206 -0.0083694307 1.8293748e-22)
(0.57985086 -0.007857242 -3.4987369e-23)
(0.59087576 -0.0073745107 3.9005024e-22)
(0.60165567 -0.0069216661 -1.8544869e-22)
(0.6122175 -0.0064971197 4.7324382e-23)
(0.62251609 -0.0061072605 4.360506e-23)
(0.6327352 -0.0057364007 -7.3602468e-23)
(0.64241573 -0.0054444817 -1.2083317e-22)
(0.65300143 -0.0050705808 3.8811283e-22)
(0.66055156 -0.0051543362 1.7271357e-22)
(0.67619556 -0.0043071152 -8.3040914e-22)
(0.15021533 -0.031460441 1.5010133e-21)
(0.15354694 -0.035257408 -1.1566611e-20)
(0.16061627 -0.038010934 6.6441951e-21)
(0.16880596 -0.039479113 -1.3324743e-20)
(0.1769823 -0.040520705 -1.9758312e-21)
(0.18552352 -0.041302296 9.1599434e-21)
(0.19458427 -0.041757253 -9.7662213e-21)
(0.20408699 -0.041913727 1.5662765e-21)
(0.21398776 -0.041833349 1.2903802e-20)
(0.22427608 -0.041554354 3.4032013e-21)
(0.23493263 -0.041102064 -6.2096972e-21)
(0.24593031 -0.040500469 -2.8638114e-21)
(0.2572417 -0.039771769 -5.8409056e-21)
(0.26883924 -0.038935077 -6.4553165e-21)
(0.28069436 -0.038006997 3.2356907e-21)
(0.29277777 -0.037002325 8.4620765e-22)
(0.3050599 -0.035934349 1.3679595e-21)
(0.31751115 -0.034815047 -3.3850429e-21)
(0.33010213 -0.033655274 -4.2428896e-21)
(0.34280381 -0.032464921 2.3616529e-21)
(0.35558777 -0.031253023 3.2251392e-21)
(0.36842635 -0.030027843 -1.5636225e-21)
(0.38129283 -0.02879693 1.5867285e-21)
(0.39416158 -0.027567161 -3.9124128e-22)
(0.40700818 -0.026344774 -3.9196474e-21)
(0.41980953 -0.025135384 -3.0332845e-21)
(0.43254394 -0.023944009 -1.902642e-22)
(0.44519123 -0.022775082 4.2858839e-22)
(0.45773274 -0.021632475 -2.2106062e-21)
(0.47015139 -0.020519513 -8.5497592e-22)
(0.4824317 -0.019439003 2.2837676e-22)
(0.49455981 -0.018393259 -1.2498732e-21)
(0.50652343 -0.017384138 6.2618526e-24)
(0.51831186 -0.016413068 -4.2421154e-22)
(0.52991597 -0.015481092 -4.7193707e-22)
(0.54132814 -0.014588906 -5.1996246e-22)
(0.55254226 -0.013736906 -8.4133977e-22)
(0.56355374 -0.012925232 -5.4495627e-23)
(0.57435944 -0.012153829 -3.9160609e-24)
(0.58495799 -0.011422477 -5.1972998e-22)
(0.59534881 -0.010730978 -9.1606299e-23)
(0.60553575 -0.010078855 -3.3239989e-22)
(0.61551665 -0.0094668019 -4.3760992e-22)
(0.62531649 -0.0088927195 3.7842714e-22)
(0.63489067 -0.0083654933 1.4821429e-23)
(0.64441524 -0.0078636771 1.8238289e-22)
(0.65344862 -0.0074694445 -1.3247596e-22)
(0.66337139 -0.0069630634 -2.669249e-22)
(0.67042356 -0.0070792777 -4.4683913e-23)
(0.68518084 -0.0059328287 4.6230253e-22)
(0.25468571 -0.03655277 -2.0900315e-20)
(0.25447025 -0.041393522 4.7585958e-20)
(0.25907338 -0.044745671 1.0348096e-20)
(0.26508417 -0.046442057 -1.5765321e-20)
(0.27070938 -0.047714329 -2.0227957e-21)
(0.27652 -0.04874779 2.6232259e-21)
(0.28283555 -0.049413733 -1.6608209e-21)
(0.28957696 -0.049728115 -4.6861428e-21)
(0.29669663 -0.049761447 -4.0159174e-21)
(0.30420553 -0.04955707 -1.2207641e-20)
(0.31210225 -0.049141706 1.789776e-20)
(0.32036944 -0.048540821 6.521993e-21)
(0.32898707 -0.047778985 -1.6780528e-20)
(0.3379341 -0.04687804 1.0317574e-20)
(0.34718716 -0.045857322 8.3849909e-21)
(0.35672084 -0.044734336 -8.7923445e-22)
(0.36650855 -0.043525091 -3.1222221e-21)
(0.376523 -0.042244272 -3.8197354e-21)
(0.38673653 -0.040905385 -1.3892596e-21)
(0.39712143 -0.039520879 -1.2304208e-21)
(0.40765023 -0.038102248 -3.0257643e-21)
(0.41829594 -0.036660097 0)
(0.4290323 -0.035204183 -1.3451931e-21)
(0.43983391 -0.033743452 3.9309539e-21)
(0.45067644 -0.032286059 5.4052729e-21)
(0.4615367 -0.030839387 -9.4112601e-22)
(0.47239282 -0.029410061 -2.9274502e-21)
(0.48322424 -0.02800397 3.0258465e-21)
(0.49401186 -0.02662628 2.5447224e-22)
(0.50473802 -0.025281464 3.4352543e-21)
(0.51538656 -0.023973329 -5.3459791e-22)
(0.52594282 -0.022705048 1.7173511e-21)
(0.53639362 -0.021479205 -7.9964712e-22)
(0.5467273 -0.020297836 2.9094418e-22)
(0.55693365 -0.019162475 -4.3404258e-22)
(0.56700392 -0.018074214 5.6231873e-22)
(0.57693079 -0.017033752 4.5710228e-22)
(0.58670843 -0.016041458 3.825593e-22)
(0.59633234 -0.015097449 -9.5937122e-22)
(0.60579981 -0.01420162 6.8356182e-22)
(0.61510887 -0.013353892 -3.6957803e-22)
(0.62426187 -0.012553826 -1.1033363e-21)
(0.63325538 -0.011802453 1.4078433e-21)
(0.64211213 -0.011097279 -6.2006954e-23)
(0.65078829 -0.01044961 -1.5816423e-22)
(0.65945036 -0.0098327439 -7.8247839e-24)
(0.66767899 -0.0093493703 -1.2622358e-22)
(0.676775 -0.0087263394 -4.6584581e-22)
(0.68320696 -0.0088737962 8.7882313e-22)
(0.69685276 -0.0074650733 -4.4316604e-23)
(0.37635135 -0.038368181 -1.7495103e-20)
(0.37170983 -0.044270244 1.2832048e-20)
(0.37286696 -0.048161628 2.9754619e-21)
(0.37591052 -0.050098867 -7.6353751e-21)
(0.37830534 -0.051669988 1.2055986e-20)
(0.38072301 -0.053042391 7.7914133e-21)
(0.38367609 -0.054030058 -1.2647692e-20)
(0.38710066 -0.054633122 -6.0679779e-21)
(0.39092932 -0.054918023 1.2697343e-20)
(0.39518252 -0.054927154 -1.530498e-20)
(0.39987435 -0.054687536 -1.4063194e-20)
(0.40499517 -0.054224674 1.4129641e-20)
(0.41052873 -0.053563682 6.8193858e-21)
(0.41645729 -0.052727972 -4.2037723e-21)
(0.42276027 -0.05173904 -1.8545586e-21)
(0.42941417 -0.050616774 -4.05817e-21)
(0.43639362 -0.049379727 5.3047585e-21)
(0.44367211 -0.048045253 3.6682103e-21)
(0.4512224 -0.046629575 -3.24083e-21)
(0.45901696 -0.045147843 3.13795e-21)
(0.46702825 -0.043614188 2.7666828e-21)
(0.4752291 -0.042041756 -3.2111162e-21)
(0.48359289 -0.040442732 3.7056583e-22)
(0.49209377 -0.038828349 -3.257166e-21)
(0.50070687 -0.037208898 7.2454292e-21)
(0.50940838 -0.03559374 6.1080695e-21)
(0.5181757 -0.033991316 8.0973525e-22)
(0.52698752 -0.032409159 -1.768326e-21)
(0.53582385 -0.030853922 3.7021893e-21)
(0.54466613 -0.029331397 7.1885423e-21)
(0.5534972 -0.027846559 2.3049363e-21)
(0.56230134 -0.026403601 3.3164994e-21)
(0.57106426 -0.025005986 1.995628e-21)
(0.57977309 -0.023656498 7.4558336e-22)
(0.58841639 -0.022357307 -2.6374604e-22)
(0.59698412 -0.021110025 2.7203302e-21)
(0.60546763 -0.019915787 6.1992629e-22)
(0.61385967 -0.018775311 2.9487984e-22)
(0.62215437 -0.017689001 5.623286e-23)
(0.63034751 -0.016656981 9.8967813e-22)
(0.63843569 -0.015679398 4.7020445e-23)
(0.64641966 -0.014755951 4.4248214e-22)
(0.6542947 -0.013888093 -1.2621995e-22)
(0.66208106 -0.013073057 -2.7735497e-22)
(0.66973602 -0.012324471 -1.5219048e-22)
(0.67741502 -0.011610966 -4.2209309e-22)
(0.68472495 -0.011053681 1.6140255e-22)
(0.69287334 -0.010332486 -1.2724145e-22)
(0.69859628 -0.010509608 -5.0125984e-22)
(0.71095903 -0.008881964 2.4587469e-22)
(0.50927437 -0.035974294 3.6471451e-21)
(0.49953046 -0.042960675 -1.8958301e-20)
(0.49627562 -0.047383473 -2.3083856e-21)
(0.49555598 -0.049736778 5.486952e-21)
(0.49416959 -0.051818043 3.0528117e-21)
(0.49269579 -0.053705409 -4.988478e-23)
(0.49181235 -0.055187647 6.1896709e-21)
(0.49151457 -0.056265396 7.6251041e-21)
(0.49171173 -0.05699053 9.8580428e-21)
(0.49241079 -0.057395571 -1.1250045e-20)
(0.49363111 -0.057506298 -2.157943e-20)
(0.49536785 -0.057348413 -3.9353501e-21)
(0.49760475 -0.056947127 1.5938149e-20)
(0.50032311 -0.056327005 1.2808963e-20)
(0.50350175 -0.055511728 -5.9066957e-21)
(0.50711662 -0.054523841 1.3817025e-21)
(0.5111415 -0.053384778 -3.6600878e-21)
(0.51554886 -0.052114933 2.244381e-21)
(0.52031041 -0.05073364 -2.9123032e-22)
(0.52539748 -0.049259158 -1.865411e-21)
(0.5307814 -0.047708653 7.8265969e-21)
(0.5364338 -0.046098203 -2.9308966e-22)
(0.54232688 -0.044442782 4.1818311e-22)
(0.54843358 -0.042756256 -6.5646499e-22)
(0.5547278 -0.041051377 -4.302943e-21)
(0.56118452 -0.039339782 4.208521e-21)
(0.56777988 -0.037632003 1.9031227e-21)
(0.57449133 -0.035937481 -3.3081967e-21)