/*--------------------------------*- C++ -*----------------------------------*\
  =========                 |
  \\      /  F ield         | OpenFOAM: The Open Source CFD Toolbox
   \\    /   O peration     | Website:  https://openfoam.org
    \\  /    A nd           | Version:  6
     \\/     M anipulation  |
\*---------------------------------------------------------------------------*/
FoamFile
{
    version     2.0;
    format      ascii;
    class       volVectorField;
    location    "212";
    object      UMean;
}
// * * * * * * * * * * * * * * * * * * * * * * * * * * * * * * * * * * * * * //

dimensions      [0 1 -1 0 0 0 0];

internalField   nonuniform List<vector> 
9200
(
(0.001689859 0.00092232715 -6.0918457e-20)
(0.015838718 -0.0036265149 4.8307054e-20)
(0.042125155 -0.008351574 -3.9859922e-20)
(0.077833558 -0.013041608 -6.3129622e-20)
(0.12107961 -0.017476939 1.960324e-20)
(0.1706062 -0.021223524 3.4313937e-20)
(0.22531534 -0.023994697 -1.2833879e-20)
(0.28419277 -0.025648575 9.7086804e-21)
(0.34629048 -0.026129969 1.7873143e-20)
(0.41069537 -0.02544706 1.579736e-21)
(0.47650599 -0.023660118 -2.2883638e-20)
(0.54282421 -0.020870486 2.199176e-20)
(0.60875856 -0.017209603 -4.2920041e-20)
(0.67343753 -0.012827868 -2.2555392e-20)
(0.73603076 -0.0078828354 6.3028591e-21)
(0.79577559 -0.0025295185 -2.6891617e-20)
(0.8520221 0.0031025866 2.7022318e-20)
(0.90435487 0.0090556603 2.3974368e-20)
(0.95241139 0.015458506 -2.6086852e-22)
(0.99354823 0.018989313 -1.5941689e-21)
(0.0060931203 -0.0019063603 -1.755009e-20)
(0.029633003 -0.010683661 4.1512072e-20)
(0.066247434 -0.017435782 2.4189764e-20)
(0.11281193 -0.022576339 -1.2053412e-19)
(0.16713706 -0.026292656 -1.3194555e-20)
(0.22770644 -0.02838471 7.6789606e-20)
(0.29315446 -0.028768385 -3.7161843e-20)
(0.36218753 -0.02748994 -8.8538086e-21)
(0.43357322 -0.024665893 3.6227464e-20)
(0.50611751 -0.020463908 -4.5806188e-20)
(0.57865431 -0.015094972 -3.2302923e-20)
(0.65005316 -0.0088029354 7.6690735e-20)
(0.71923994 -0.0018526648 4.0743402e-20)
(0.78522605 0.0054816512 -7.2446496e-20)
(0.84714165 0.012926474 1.5585184e-20)
(0.90426759 0.020213582 -3.9153771e-20)
(0.95607453 0.027093885 -1.4832128e-20)
(1.00232 0.033409942 7.5579028e-20)
(1.0429173 0.038756365 3.2328289e-20)
(1.0761351 0.040041263 -8.520015e-20)
(0.011904624 -0.0046406369 3.749358e-20)
(0.047155176 -0.017182922 2.3275753e-21)
(0.095870786 -0.02521421 2.2699543e-20)
(0.15457228 -0.029894684 1.0179816e-21)
(0.22077561 -0.031903799 -4.1899588e-20)
(0.29268074 -0.03133985 1.9568303e-20)
(0.36862085 -0.028381668 1.3803149e-20)
(0.44699223 -0.023321335 -5.277091e-20)
(0.52626023 -0.01649985 6.0309634e-20)
(0.60495594 -0.008289708 1.5322134e-20)
(0.68168742 0.00091274497 -5.7688706e-20)
(0.75516859 0.010700962 -1.949301e-20)
(0.82425735 0.02067468 9.3276483e-21)
(0.88799497 0.03045609 2.4888462e-20)
(0.94563989 0.039703593 -1.2033122e-20)
(0.9966894 0.048120543 2.9521174e-20)
(1.0408907 0.055469008 -2.1464089e-20)
(1.0782689 0.061616594 -7.3851121e-20)
(1.1090032 0.066300683 -2.4358783e-20)
(1.1322877 0.067661053 5.0663836e-20)
(0.01921811 -0.0070309001 2.4859355e-20)
(0.068516538 -0.022428002 5.2360658e-20)
(0.13097129 -0.030647468 2.0505513e-20)
(0.20282452 -0.033719281 1.3717454e-20)
(0.28131674 -0.032901617 1.8145715e-20)
(0.36434876 -0.028660243 -4.9799791e-20)
(0.44993791 -0.021500671 -2.6885236e-20)
(0.53617271 -0.012017371 0)
(0.62124766 -0.00082097783 1.5447623e-20)
(0.70348893 0.011481597 -6.6678022e-21)
(0.78139164 0.024298454 -1.0333181e-19)
(0.85366784 0.037072227 -1.648052e-20)
(0.91929303 0.049301881 6.8892825e-20)
(0.97754131 0.060561762 4.7709926e-22)
(1.0280026 0.070515324 -1.6566949e-21)
(1.0705776 0.078921565 2.3079702e-20)
(1.1054524 0.085641254 -5.393929e-21)
(1.1330722 0.090665068 -6.4075634e-20)
(1.154023 0.093972692 -4.8118685e-20)
(1.1683079 0.094618324 7.1472181e-20)
(0.028057318 -0.0087946988 -3.8409488e-21)
(0.093607403 -0.025668459 -4.8158353e-21)
(0.17114444 -0.032663728 5.80318e-20)
(0.25674074 -0.032791313 1.9387753e-20)
(0.34740236 -0.027969877 -3.3508098e-20)
(0.44074217 -0.019101726 1.2408862e-20)
(0.53448733 -0.0070780662 2.7644708e-21)
(0.62647693 0.0071605693 3.5526913e-20)
(0.71473462 0.022711127 5.9602231e-21)
(0.79752639 0.038734449 -1.4156058e-20)
(0.87341868 0.05447209 6.3806184e-20)
(0.94133181 0.069270454 -6.087463e-20)
(1.0005753 0.082603225 -1.3895348e-19)
(1.0508566 0.094085629 -5.8542823e-21)
(1.0922609 0.1034784 8.7018436e-20)
(1.1252035 0.11068084 0)
(1.150362 0.11571954 1.0698547e-20)
(1.1686056 0.11875095 -1.6024154e-20)
(1.1808803 0.11995966 -9.0980191e-21)
(1.1877625 0.11895673 2.1579525e-20)
(0.03835593 -0.009627281 -5.1385902e-21)
(0.12206676 -0.026142767 4.4465611e-21)
(0.21559664 -0.030243559 -8.9796566e-21)
(0.31499575 -0.02600226 2.9025281e-20)
(0.41711256 -0.016062679 -3.0630675e-20)
(0.51932829 -0.0018207205 -1.7627333e-20)
(0.61916495 0.015407405 3.8165283e-20)
(0.7143401 0.034321826 4.7678883e-21)
(0.80287866 0.053744361 -2.6120209e-20)
(0.88319473 0.072652416 7.3245505e-20)
(0.95415321 0.090198087 2.8660284e-22)
(1.0151052 0.10572931 -8.4411137e-20)
(1.0658866 0.11880196 0)
(1.1067792 0.12917697 4.1200825e-20)
(1.1384374 0.1368026 5.7034457e-21)
(1.1617943 0.14178449 -8.0484448e-20)
(1.177956 0.14435142 -2.0344646e-20)
(1.1881059 0.1448329 -1.2857052e-20)
(1.1933986 0.14357146 -1.5231899e-20)
(1.1946908 0.14050961 4.1738142e-20)
(0.0499446 -0.009222552 -1.7306564e-20)
(0.15326648 -0.023137386 -3.102281e-21)
(0.26315501 -0.022509862 3.0673289e-20)
(0.37582711 -0.012504992 3.765552e-20)
(0.48809672 0.0034779872 -2.0484142e-20)
(0.59722803 0.023521967 -7.1939706e-20)
(0.70069021 0.045884972 -2.9461409e-20)
(0.79627485 0.068942704 8.2302037e-20)
(0.8822359 0.091312445 9.2573556e-21)
(0.9573754 0.11188907 -2.5826032e-20)
(1.0210822 0.12985599 1.4056111e-20)
(1.0733218 0.14468925 -4.5368803e-21)
(1.1145768 0.15614422 0)
(1.1457473 0.16422236 2.8270252e-20)
(1.1680257 0.16912294 -8.2238895e-20)
(1.1827655 0.17118628 -3.2614405e-20)
(1.1913592 0.17083881 8.3727963e-20)
(1.1951403 0.16855359 -4.6808582e-21)
(1.195304 0.16477283 3.6000664e-21)
(1.1927587 0.15962387 2.8107166e-20)
(0.06254501 -0.0073009059 -3.2557846e-20)
(0.18631756 -0.016058588 -8.3337866e-20)
(0.31231263 -0.0088253528 1.7555605e-21)
(0.43713866 0.0081829994 7.2383506e-20)
(0.55774728 0.03083527 6.440363e-20)
(0.67146152 0.056713603 -7.34085e-20)
(0.77591165 0.083704599 1.8445099e-22)
(0.86920711 0.10995355 8.9307348e-20)
(0.95008124 0.13399917 5.0758311e-20)
(1.0179519 0.15479849 -5.6497537e-20)
(1.0729088 0.17171265 -9.5980533e-20)
(1.115636 0.18447629 -3.278779e-21)
(1.1472846 0.19314438 4.3659758e-20)
(1.1693161 0.19802013 -6.7753134e-21)
(1.1833415 0.19957429 -1.3156838e-20)
(1.1909761 0.19836658 2.0083416e-20)
(1.1937268 0.19497953 4.5187942e-20)
(1.1929172 0.18997457 -4.4981815e-20)
(1.1896483 0.18383139 -1.0521073e-19)
(1.1847378 0.17676757 2.5456869e-20)
(0.075740394 -0.0036398798 -3.5692943e-20)
(0.22003164 -0.0045081758 -1.7539751e-19)
(0.36120453 0.011125224 8.5015761e-20)
(0.49650513 0.036119204 9.5574613e-20)
(0.62324185 0.065699926 5.9542937e-20)
(0.73902707 0.097030366 8.9277353e-21)
(0.84190714 0.12774381 -1.0974521e-19)
(0.93056671 0.15590838 0)
(1.0044469 0.18015554 -7.157961e-20)
(1.0637517 0.19967351 -1.5824557e-20)
(1.1093625 0.21414799 5.6630118e-20)
(1.1426862 0.2236808 1.1311139e-20)
(1.1654669 0.22868829 -4.7033813e-20)
(1.1795924 0.22979044 -5.0470937e-20)
(1.1869237 0.22770543 2.5111858e-20)
(1.1891654 0.22316146 4.6248518e-20)
(1.1877841 0.21683339 -5.7222133e-20)
(1.1839746 0.20930741 -1.1035191e-19)
(1.1786643 0.20104632 -3.0827167e-21)
(1.172514 0.19230184 2.7682005e-20)
(0.088958974 0.0019108219 -3.9207736e-21)
(0.25292586 0.011702795 8.9581156e-20)
(0.40764562 0.037339874 -1.480882e-20)
(0.55125943 0.070961506 -8.7468343e-20)
(0.68168159 0.10731752 4.659531e-20)
(0.79707183 0.14330744 5.0114715e-20)
(0.89615023 0.17649858 5.7310667e-21)
(0.97840265 0.2050883 -1.0275033e-19)
(1.0441417 0.22800035 -2.5902374e-21)
(1.0944376 0.24482347 5.22031e-20)
(1.1309539 0.25568958 6.1709541e-21)
(1.1557304 0.2611333 -2.039578e-20)
(1.1709569 0.26194391 -7.791601e-20)
(1.1787724 0.25902621 -6.35725e-21)
(1.181115 0.25328598 4.4657211e-20)
(1.1796297 0.24554856 3.7928593e-20)
(1.1756339 0.2365122 2.0160831e-20)
(1.1701285 0.226731 -5.4579226e-20)
(1.1638407 0.2166125 1.2901392e-20)
(1.1572612 0.20641369 8.4369839e-20)
(-0.0013253739 0.0014535801 -8.6428974e-22)
(-0.0047621094 0.0031918675 1.8891028e-21)
(-0.010795448 0.0041006755 1.7609454e-21)
(-0.017672013 0.0044523741 -1.1917153e-21)
(-0.024463918 0.0044188149 -2.2842839e-21)
(-0.030742746 0.0041164083 2.4160568e-21)
(-0.036235427 0.003629978 -8.265837e-21)
(-0.040766881 0.0030208363 -7.1334033e-21)
(-0.044242154 0.0023325852 1.2855994e-20)
(-0.046620401 0.0015959674 -1.1054562e-20)
(-0.047894685 0.00083240917 -2.0305087e-22)
(-0.048079152 5.6592122e-05 4.1234029e-21)
(-0.047200547 -0.00072160228 -6.750288e-22)
(-0.045292422 -0.0014955525 2.5095638e-20)
(-0.042391522 -0.0022605095 2.7489037e-22)
(-0.038537268 -0.0030121228 -4.4589742e-20)
(-0.033774171 -0.0037458178 8.2877114e-21)
(-0.028143567 -0.0044595392 2.575347e-20)
(-0.021655959 -0.0051518129 -4.7194149e-20)
(-0.014374071 -0.0057735227 -2.9751298e-20)
(-0.0016841347 0.0042314025 -5.6754112e-21)
(-0.0053940799 0.0092688727 9.7942564e-21)
(-0.011183644 0.011887089 -1.049085e-20)
(-0.017467774 0.012877806 5.5824399e-21)
(-0.023417866 0.012742674 6.6236398e-21)
(-0.028656837 0.011823307 9.0617879e-22)
(-0.032947448 0.010368747 -2.7252462e-20)
(-0.036140606 0.0085589329 -2.3038277e-21)
(-0.038158915 0.0065218145 2.3018043e-20)
(-0.038972924 0.0043475833 -5.6993259e-21)
(-0.038582793 0.0020990602 -2.4374408e-20)
(-0.037006722 -0.00018075719 5.4338818e-21)
(-0.034273331 -0.0024630066 2.474653e-20)
(-0.03041634 -0.0047284421 1.1301299e-20)
(-0.025470795 -0.0069633532 2.4005457e-20)
(-0.01947354 -0.009155419 -2.1475941e-20)
(-0.012473073 -0.011291821 -2.3369877e-20)
(-0.0045212179 -0.013365997 2.3046735e-20)
(0.0044443139 -0.015363282 2.866753e-20)
(0.014614881 -0.017115095 1.6685233e-20)
(-0.0023318955 0.006624858 -4.6096385e-21)
(-0.0064915981 0.014442527 -4.8723292e-21)
(-0.011736476 0.018465485 6.4369804e-23)
(-0.016806687 0.019925297 -7.5082223e-23)
(-0.021064118 0.019608437 7.5206853e-21)
(-0.024230603 0.018056822 1.1838729e-20)
(-0.026138461 0.015666376 -4.3815196e-21)
(-0.026689136 0.01272331 -2.1293491e-20)
(-0.025839583 0.0094314326 7.3839303e-21)
(-0.023583025 0.0059346134 1.440745e-20)
(-0.019934257 0.0023331496 6.6449153e-21)
(-0.014920567 -0.0013043273 1.9844075e-20)
(-0.0085757741 -0.0049319414 1.8965005e-21)
(-0.00093591917 -0.0085195515 -3.6707043e-20)
(0.0079645153 -0.012046081 1.5403349e-21)
(0.018091067 -0.015492984 -2.3467887e-20)
(0.029386313 -0.018842897 -2.6703428e-20)
(0.041774651 -0.022087136 4.9563172e-20)
(0.055439761 -0.02517238 2.7447628e-20)
(0.071069316 -0.027733066 4.7283566e-22)
(-0.0031457412 0.0084225246 -5.7282693e-21)
(-0.0077715212 0.018210962 -1.1148477e-20)
(-0.012095648 0.0231619 4.479429e-21)
(-0.015303483 0.024826432 4.66689e-21)
(-0.017019895 0.024206537 2.113369e-21)
(-0.017105365 0.022005542 8.6379384e-21)
(-0.015491094 0.018738947 1.070891e-20)
(-0.01215139 0.014779648 -1.6025358e-21)
(-0.0070938985 0.010393787 -1.2852836e-20)
(-0.0003466593 0.0057696932 -3.2279578e-20)
(0.0080515108 0.0010388596 1.6035296e-22)
(0.018056105 -0.0037086748 4.4549205e-20)
(0.029621272 -0.0084131884 -1.9760898e-20)
(0.042701364 -0.013035858 -1.3336321e-20)
(0.057255044 -0.017550697 3.0580984e-22)
(0.073243574 -0.021936923 3.4925951e-20)
(0.090594657 -0.026180014 -1.6425713e-20)
(0.10919078 -0.03027891 -5.6952019e-20)
(0.1293428 -0.034116975 4.8450967e-20)
(0.15244596 -0.037011342 3.5139488e-20)
(-0.0039612526 0.0094803048 -4.6596161e-22)
(-0.008846815 0.02021977 -1.3267004e-20)
(-0.01176074 0.025490844 -3.8282107e-20)
(-0.012408685 0.027022283 -6.9810425e-21)
(-0.010727577 0.025947661 -3.37181e-21)
(-0.0067461075 0.023083456 7.1965563e-21)
(-0.00051792187 0.019030353 -5.4354839e-21)
(0.0078903711 0.014222882 -9.9477723e-21)
(0.01840462 0.0089718328 2.4172313e-20)
(0.030948276 0.0034975425 5.4364482e-21)
(0.045446502 -0.0020456775 -2.8012565e-20)
(0.061826066 -0.0075520214 1.1906829e-20)
(0.080015763 -0.012951351 0)
(0.09994692 -0.018199334 1.3049397e-20)
(0.12155645 -0.023268633 -1.043781e-20)
(0.14478607 -0.028141376 -1.5528598e-20)
(0.16953532 -0.032816139 -1.0349294e-21)
(0.19562264 -0.037320241 -2.6050819e-21)
(0.22344559 -0.041471681 4.8176991e-20)
(0.25525486 -0.044129525 -1.1887658e-20)
(-0.004590581 0.0097307673 -7.7993605e-21)
(-0.0092606768 0.02028784 2.6538649e-20)
(-0.01012217 0.025195694 -1.1829389e-20)
(-0.0074326362 0.026216489 -2.9958854e-20)
(-0.0014666637 0.024526786 -2.9400377e-20)
(0.0075596826 0.02100379 -1.6386239e-20)
(0.01945283 0.016294623 -8.9850593e-22)
(0.034037317 0.010866204 6.1249882e-21)
(0.051157449 0.0050531988 2.1344026e-20)
(0.070673571 -0.00090622337 7.9955725e-21)
(0.09245698 -0.0068451551 -7.7269861e-21)
(0.1163873 -0.012649153 -1.9581191e-21)
(0.14234868 -0.01824293 -4.1239515e-20)
(0.17022712 -0.023580597 -1.3649988e-20)
(0.1999122 -0.028637366 2.0506913e-20)
(0.23129826 -0.033403637 -2.2764042e-20)
(0.26423351 -0.037901659 -9.5915207e-21)
(0.29844739 -0.042215777 3.1886629e-20)
(0.33435015 -0.046134058 5.2911755e-20)
(0.37509782 -0.047946442 3.6254937e-21)
(-0.0048384422 0.0091796646 1.7313031e-20)
(-0.008519492 0.018409597 1.49704e-20)
(-0.0064969633 0.02226373 5.4471539e-20)
(0.00042231508 0.022404826 2.5400714e-20)
(0.011620204 0.019966566 2.0049273e-22)
(0.026683175 0.015833868 -4.2974324e-20)
(0.045265485 0.010660099 -2.6273151e-20)
(0.067069916 0.0049146174 1.1337362e-20)
(0.091840934 -0.0010668152 1.5570728e-20)
(0.11935433 -0.0070454218 -1.4006528e-20)
(0.14940586 -0.01285437 -4.7622128e-20)
(0.18180219 -0.01838053 3.1992116e-20)
(0.21635329 -0.023551365 2.1327612e-20)
(0.25286677 -0.028326002 -2.9555272e-20)
(0.29114768 -0.032688443 1.259001e-20)
(0.33100243 -0.036644265 2.5777127e-20)
(0.3721924 -0.040249426 8.7096955e-21)
(0.41433167 -0.043676318 -1.2890297e-20)
(0.45775442 -0.046761197 -1.4528481e-20)
(0.50644916 -0.047206412 7.4253601e-21)
(-0.0045130648 0.0078938351 1.1644778e-20)
(-0.0061198622 0.014737701 -2.5274054e-20)
(-0.00016438918 0.016915321 8.4897049e-21)
(0.012021562 0.015874642 3.6031041e-20)
(0.029483707 0.01262688 5.5372014e-20)
(0.051607852 0.0080145541 2.1732035e-20)
(0.077886528 0.0026587294 -6.2653216e-21)
(0.10788215 -0.0030010428 -1.3176888e-20)
(0.14121848 -0.0086522971 -6.7207522e-21)
(0.17756078 -0.014075084 3.6818952e-20)
(0.21659717 -0.019118935 -5.0246697e-21)
(0.25802438 -0.023685898 -1.7997797e-20)
(0.30153678 -0.027718564 -2.0980232e-20)
(0.34681856 -0.031192584 -5.0838868e-20)
(0.39354273 -0.034111948 2.4722966e-20)
(0.44137913 -0.036508838 -1.4998935e-20)
(0.48996235 -0.038486316 2.7799014e-20)
(0.53877692 -0.040339971 2.2466872e-20)
(0.58801395 -0.04207693 -8.9172767e-20)
(0.64230139 -0.040974041 2.8903698e-22)
(-0.0034332797 0.005987087 2.2753657e-20)
(-0.0015744199 0.0095601362 -2.7834206e-20)
(0.0095878771 0.009586135 -4.7271494e-20)
(0.028229889 0.0071976127 -2.8863788e-20)
(0.053076572 0.003211836 -2.1768483e-21)
(0.083308392 -0.0016189258 1.3994664e-20)
(0.11824257 -0.0067448146 -3.0365894e-21)
(0.15728189 -0.011787766 1.931448e-20)
(0.19990075 -0.016485861 9.4410927e-21)
(0.24561788 -0.020661462 -1.2158805e-20)
(0.29397155 -0.024201454 9.6437761e-21)
(0.34450157 -0.027042384 -2.5587214e-20)
(0.3967366 -0.0291598 8.8923781e-21)
(0.4501858 -0.030561606 1.7944314e-20)
(0.50433792 -0.031284069 -2.9967645e-21)
(0.55867145 -0.031393684 1.8954801e-21)
(0.61263914 -0.031041411 -5.6799273e-22)
(0.6655741 -0.030629968 2.1018167e-20)
(0.71749119 -0.030360746 3.9908194e-21)
(0.77342204 -0.027591919 -2.0886089e-21)
(-0.0014292613 0.0036087968 2.4809763e-20)
(0.0055684235 0.0032855906 6.0404114e-20)
(0.023409944 0.00092464938 -5.144251e-20)
(0.049815016 -0.0027514652 -1.0496813e-20)
(0.083201492 -0.0071915027 2.1458592e-20)
(0.12254031 -0.011780385 2.265333e-21)
(0.16695732 -0.016079502 -3.155655e-20)
(0.21566829 -0.019808876 7.419806e-21)
(0.26796151 -0.022790308 7.5382152e-21)
(0.32316578 -0.024919513 -2.7946728e-20)
(0.38062302 -0.026150504 1.3731296e-21)
(0.43967106 -0.026482866 -3.972405e-20)
(0.49963431 -0.025951356 -3.8857155e-20)
(0.55982066 -0.024617572 7.0254545e-20)
(0.61952447 -0.022562633 5.9448457e-21)
(0.67803348 -0.019886231 -1.6194211e-20)
(0.73461413 -0.016747234 2.058926e-20)
(0.78843821 -0.013449658 -9.658689e-22)
(0.83904813 -0.010017693 2.0953465e-20)
(0.89013354 -0.004930974 -2.1322891e-20)
(-0.0057125098 -0.0060579658 6.2519687e-20)
(0.0044495213 -0.0065780347 1.6569438e-20)
(0.016035659 -0.006993957 -3.6925756e-20)
(0.02868955 -0.0072350538 1.7817696e-20)
(0.042132886 -0.0073851378 0)
(0.056299185 -0.0074733826 0)
(0.071124269 -0.0075027651 -2.3833482e-20)
(0.086523295 -0.0074813183 -1.6989562e-20)
(0.10242024 -0.0074188831 1.9802713e-20)
(0.11875057 -0.0073226653 1.8675232e-20)
(0.13545484 -0.0071981671 1.0401196e-21)
(0.15247708 -0.00705023 -1.0418669e-20)
(0.16976512 -0.0068830768 8.5741895e-21)
(0.18727027 -0.0067002903 1.8257695e-20)
(0.20494671 -0.0065049377 -5.4078934e-21)
(0.22275109 -0.0062996808 -1.0079203e-20)
(0.24064235 -0.0060868422 -4.2548436e-21)
(0.25858155 -0.0058684574 -4.2700669e-21)
(0.27653175 -0.0056463216 6.9458259e-22)
(0.2944579 -0.005422026 1.2113554e-21)
(0.31232687 -0.0051969862 2.5793144e-21)
(0.33010743 -0.0049724631 6.4764149e-21)
(0.34777027 -0.0047495798 1.3911099e-22)
(0.36528801 -0.0045293335 -3.3434917e-21)
(0.38263529 -0.0043126049 1.2824572e-22)
(0.39978877 -0.0041001662 -5.539747e-22)
(0.41672713 -0.0038926866 1.1881165e-21)
(0.43343114 -0.0036907383 9.6641966e-22)
(0.4498836 -0.0034948016 -1.2908461e-21)
(0.46606937 -0.0033052701 -9.9275903e-23)
(0.48197534 -0.0031224561 -4.6007163e-23)
(0.49759034 -0.0029465967 -3.2824788e-22)
(0.51290513 -0.0027778597 -4.1037625e-22)
(0.52791235 -0.0026163498 9.2053352e-23)
(0.5426064 -0.0024621158 -1.2681947e-22)
(0.55698342 -0.0023151573 -1.9596787e-22)
(0.57104122 -0.0021754324 2.2288998e-22)
(0.58477922 -0.0020428645 2.52234e-22)
(0.59819838 -0.0019173529 -3.3743632e-23)
(0.61130152 -0.001798776 -1.6381977e-22)
(0.62409219 -0.0016870214 1.527032e-23)
(0.63657874 -0.0015819405 -2.4185727e-23)
(0.64876236 -0.0014835645 7.9109876e-23)
(0.66067523 -0.0013915203 -1.7941616e-23)
(0.67226837 -0.0013070644 -1.3507654e-22)
(0.68374975 -0.0012270088 6.5378991e-24)
(0.69460309 -0.0011634064 6.5731543e-24)
(0.7064546 -0.0010841148 -5.36314e-24)
(0.71486446 -0.0010969327 2.5709198e-23)
(0.73234895 -0.00092663676 3.7226342e-22)
(0.024498559 -0.017832478 -1.4017323e-20)
(0.033686319 -0.019410879 -6.7011005e-20)
(0.044778405 -0.020633113 -3.2655409e-20)
(0.056907879 -0.021320179 4.0637301e-20)
(0.069680551 -0.021751162 1.5422703e-20)
(0.083110318 -0.022010717 -1.9307367e-20)
(0.097165356 -0.022099789 5.2029818e-21)
(0.11176384 -0.022040502 2.6252241e-20)
(0.1268372 -0.021862151 -1.8833321e-22)
(0.14233049 -0.021585432 -7.9783483e-21)
(0.15819145 -0.021225866 -1.2904059e-20)
(0.17436945 -0.020797326 -8.8780121e-21)
(0.1908169 -0.020312008 1.7928485e-20)
(0.20748891 -0.019780269 9.6043168e-21)
(0.22434275 -0.019210998 -1.6214789e-20)
(0.24133757 -0.018611946 -6.0066015e-21)
(0.25843436 -0.017989904 3.1036053e-21)
(0.27559581 -0.017350849 8.1241989e-21)
(0.29278631 -0.01670007 6.92882e-21)
(0.30997187 -0.016042276 -7.0695477e-21)
(0.32712023 -0.015381666 -3.3781486e-21)
(0.34420079 -0.014721995 1.5695191e-21)
(0.36118475 -0.014066615 6.6369607e-22)
(0.37804513 -0.013418511 1.2438932e-21)
(0.3947568 -0.012780324 2.3858314e-22)
(0.41129658 -0.012154377 -3.7335558e-22)
(0.42764321 -0.011542687 -7.4783055e-22)
(0.44377743 -0.010946984 1.0699172e-21)
(0.45968195 -0.010368723 8.6958061e-22)
(0.47534144 -0.0098091023 -2.7290085e-22)
(0.49074255 -0.009269079 5.959083e-22)
(0.50587382 -0.008749384 -2.229842e-22)
(0.52072566 -0.0082505414 -4.1254119e-22)
(0.5352903 -0.0077728876 -6.2116263e-22)
(0.54956171 -0.0073165911 4.0608422e-22)
(0.56353556 -0.0068816731 -1.1302986e-22)
(0.57720914 -0.0064680301 2.2187229e-22)
(0.59058135 -0.0060754553 -4.662867e-22)
(0.60365259 -0.0057036682 4.4899911e-22)
(0.61642511 -0.005352326 6.0167531e-23)
(0.62890188 -0.0050211125 -5.7094044e-23)
(0.64109065 -0.0047096024 2.1528911e-22)
(0.65299206 -0.0044179076 2.8911105e-22)
(0.66463747 -0.0041449289 2.1948082e-22)
(0.67597795 -0.0038944391 2.3471381e-22)
(0.68721858 -0.0036569286 -1.7288628e-23)
(0.69784918 -0.0034683766 1.2006679e-22)
(0.70947366 -0.0032329569 1.0557628e-22)
(0.71771477 -0.0032716151 -2.0456781e-22)
(0.73489712 -0.002765905 -8.3597911e-24)
(0.083187393 -0.028541338 1.0315192e-20)
(0.090448873 -0.031188006 3.8821377e-21)
(0.10045406 -0.03316236 -1.385675e-20)
(0.11150417 -0.034217881 -1.6600626e-21)
(0.1229198 -0.034892497 1.611694e-20)
(0.13487139 -0.035321161 -1.561609e-20)
(0.14739836 -0.035483563 -3.1493805e-20)
(0.16042104 -0.035410097 1.5389119e-20)
(0.173882 -0.035148749 1.9119638e-20)
(0.18774411 -0.034731571 -1.2123965e-20)
(0.20196808 -0.034181605 1.0455426e-21)
(0.21651255 -0.033520005 8.4070955e-21)
(0.23133777 -0.032765734 -1.5775477e-20)
(0.24640548 -0.031934962 3.8128253e-21)
(0.2616782 -0.031041631 7.8101279e-21)
(0.27711936 -0.030098003 -5.3998114e-22)
(0.29269333 -0.029114918 -8.6638396e-23)
(0.30836554 -0.02810199 -7.6436895e-21)
(0.32410257 -0.027067791 4.4494095e-21)
(0.33987215 -0.026020002 8.6671597e-21)
(0.35564336 -0.024965518 -3.8978167e-21)
(0.37138665 -0.023910537 -2.169578e-21)
(0.38707401 -0.022860619 8.7975905e-22)
(0.40267898 -0.02182074 -1.7766209e-21)
(0.41817682 -0.020795321 1.307959e-21)
(0.4335445 -0.019788264 6.9195001e-22)
(0.44876079 -0.018802976 1.8090925e-21)
(0.4638063 -0.017842389 -2.1800149e-21)
(0.47866349 -0.016908988 2.4728493e-21)
(0.49331667 -0.016004832 5.922329e-22)
(0.50775198 -0.015131578 6.2161637e-22)
(0.5219574 -0.014290513 3.0052665e-22)
(0.53592265 -0.01348258 1.0219066e-21)
(0.54963921 -0.01270841 -1.5649234e-21)
(0.56310021 -0.011968354 4.3588812e-22)
(0.57630044 -0.01126252 2.2461103e-22)
(0.58923624 -0.010590805 -8.0632886e-23)
(0.60190552 -0.009952935 1.2702458e-23)
(0.61430765 -0.0093485115 -4.020868e-22)
(0.62644383 -0.0087770307 2.2493705e-22)
(0.63831594 -0.0082380306 -2.9593311e-23)
(0.6499306 -0.0077308656 5.4818524e-22)
(0.66128746 -0.0072557788 -2.539677e-22)
(0.67241634 -0.0068110013 3.711572e-23)
(0.68326842 -0.0064028233 7.571823e-23)
(0.69404334 -0.0060155855 -9.4180214e-23)
(0.70424247 -0.005708613 -1.5838711e-22)
(0.71542707 -0.0053243238 5.1786641e-22)
(0.72334063 -0.0053891648 1.8181405e-22)
(0.73993698 -0.0045636341 -8.533325e-22)
(0.16742818 -0.037439315 1.8339845e-21)
(0.1718424 -0.041138308 -1.1823437e-20)
(0.18003074 -0.043784848 6.590869e-21)
(0.18938647 -0.045118916 -1.4114306e-20)
(0.19874348 -0.046004322 -2.0854135e-21)
(0.20847508 -0.046615812 1.0016761e-20)
(0.21874018 -0.046888812 -1.0971053e-20)
(0.22945807 -0.046852662 1.0990762e-21)
(0.24057942 -0.046571461 1.3393617e-20)
(0.25209003 -0.046085966 3.8477881e-21)
(0.26396754 -0.045423536 -6.3855027e-21)
(0.27618152 -0.044609975 -3.2390736e-21)
(0.28870128 -0.0436692 -5.5242279e-21)
(0.30149627 -0.042621888 -6.8036448e-21)
(0.31453518 -0.04148603 2.7582502e-21)
(0.32778617 -0.040277636 2.5624972e-22)
(0.34121742 -0.039011057 1.5819554e-21)
(0.35479732 -0.037699176 -3.3819063e-21)
(0.36849477 -0.036353609 -4.5991484e-21)
(0.38227929 -0.034984859 2.5290087e-21)
(0.3961213 -0.033602444 3.5296243e-21)
(0.40999227 -0.032214979 -1.8526386e-21)
(0.42386486 -0.030830252 1.6899346e-21)
(0.43771307 -0.029455265 -5.1763027e-22)
(0.45151236 -0.028096285 -4.3231983e-21)
(0.46523972 -0.026758866 -3.0618414e-21)
(0.47887377 -0.025447888 -2.9946849e-22)
(0.49239478 -0.024167578 3.0530521e-22)
(0.50578476 -0.022921544 -2.2051602e-21)
(0.51902738 -0.021712803 -1.080541e-21)
(0.53210807 -0.020543816 2.1510577e-22)
(0.54501392 -0.019416525 -1.4039302e-21)
(0.55773371 -0.018332393 -6.7332592e-23)
(0.57025786 -0.017292448 -5.1529112e-22)
(0.58257835 -0.016297325 -4.3722126e-22)
(0.59468875 -0.015347317 -7.0074396e-22)
(0.6065841 -0.014442423 -1.0696594e-21)
(0.61826099 -0.013582396 -9.66003e-24)
(0.62971738 -0.012766817 -3.471865e-24)
(0.64095305 -0.011995111 -6.2254913e-22)
(0.65196846 -0.01126676 -1.2749869e-23)
(0.66276869 -0.010580985 -4.2828623e-22)
(0.67335203 -0.0099382338 -6.3241592e-22)
(0.68374622 -0.0093361602 5.0053859e-22)
(0.69390269 -0.0087835506 1.362501e-23)
(0.70401335 -0.0082589179 2.4747163e-22)
(0.71359628 -0.007843861 -1.8160844e-22)
(0.72415134 -0.0073224976 -3.51283e-22)
(0.73159622 -0.0074136859 -1.4313924e-23)
(0.74735095 -0.006293806 4.8695952e-22)
(0.27318869 -0.043726977 -2.3067417e-20)
(0.27384651 -0.048453596 5.0100608e-20)
(0.27934053 -0.051681351 1.075648e-20)
(0.28629497 -0.053230221 -1.674506e-20)
(0.29288568 -0.054330283 -2.5274341e-21)
(0.29967454 -0.055172622 2.3537798e-21)
(0.3069872 -0.05563168 -2.1274741e-21)
(0.31474356 -0.055725444 -4.8835089e-21)
(0.32289104 -0.055527071 -4.1770758e-21)
(0.33143717 -0.055082701 -1.2653361e-20)
(0.340378 -0.054421578 1.8987047e-20)
(0.3496933 -0.053571467 7.0499181e-21)
(0.35935998 -0.052559076 -1.717164e-20)
(0.36935416 -0.051408211 9.9355232e-21)
(0.37964981 -0.050139977 7.9246581e-21)
(0.39021904 -0.048773451 -3.3680648e-22)
(0.40103296 -0.047326023 -2.7768277e-21)
(0.41206222 -0.045813572 -4.3149736e-21)
(0.42327734 -0.044250614 -1.6161655e-21)
(0.43464902 -0.042650432 -1.4281675e-21)
(0.44614846 -0.041025187 -3.3999351e-21)
(0.4577476 -0.039385984 0)
(0.46941932 -0.037742937 -1.5084542e-21)
(0.48113763 -0.036105204 3.9943609e-21)
(0.49287778 -0.03448103 5.7192793e-21)
(0.50461644 -0.032877771 -9.0565907e-22)
(0.51633169 -0.031301925 -3.3276412e-21)
(0.52800318 -0.029759164 3.5044854e-21)
(0.5396121 -0.028254368 2.2164221e-23)
(0.55114127 -0.026791657 3.8105256e-21)
(0.56257508 -0.025374442 -5.0488113e-22)
(0.57389952 -0.02400546 1.8099003e-21)
(0.58510215 -0.022686835 -9.1797216e-22)
(0.59617208 -0.021420125 4.2494213e-22)
(0.60709992 -0.020206383 -5.4886212e-22)
(0.61787779 -0.019046215 5.8681195e-22)
(0.62849923 -0.017939846 5.4500603e-22)
(0.63895924 -0.016887183 4.581868e-22)
(0.6492542 -0.015887898 -1.1281152e-21)
(0.65938222 -0.014941465 8.0728976e-22)
(0.66934211 -0.014047416 -4.2365219e-22)
(0.67913718 -0.013204945 -1.3875712e-21)
(0.68876423 -0.012414794 1.7713204e-21)
(0.69824847 -0.011674154 -5.4515847e-23)
(0.70754183 -0.010994263 -2.0164053e-22)
(0.71682661 -0.010348248 -6.9903748e-24)
(0.72564217 -0.0098384833 -2.009313e-22)
(0.73541074 -0.0091955419 -6.0326063e-22)
(0.74227076 -0.0093130156 7.7823207e-22)
(0.75696812 -0.0079324682 -5.0535691e-23)
(0.39544285 -0.046451712 -1.9354261e-20)
(0.39148336 -0.05223826 1.3271864e-20)
(0.39331297 -0.056000009 3.8879401e-21)
(0.39708073 -0.057791079 -8.1456537e-21)
(0.40023361 -0.059190396 1.2762885e-20)
(0.40342786 -0.060366712 8.2280161e-21)
(0.40718027 -0.061137723 -1.2903599e-20)
(0.4114283 -0.061506833 -6.3511817e-21)
(0.4161008 -0.061543438 1.3234472e-20)
(0.42121495 -0.061292807 -1.6600943e-20)
(0.42678254 -0.060784829 -1.4523613e-20)
(0.43279144 -0.060047768 1.5335001e-20)
(0.4392226 -0.059109302 7.0249484e-21)
(0.44605558 -0.057995204 -5.244736e-21)
(0.45326719 -0.056729129 -1.3245142e-21)
(0.4608315 -0.055332912 -3.5808127e-21)
(0.46872081 -0.053826836 4.8011488e-21)
(0.47690647 -0.052229765 3.6887241e-21)
(0.48535934 -0.050559217 -3.1226406e-21)
(0.49405014 -0.048831427 3.1232394e-21)
(0.50294986 -0.047061405 2.968128e-21)
(0.51203005 -0.045262986 -3.3877653e-21)
(0.52126303 -0.043448854 3.6699038e-22)
(0.53062212 -0.041630575 -3.1853127e-21)
(0.5400818 -0.039818618 8.2069044e-21)
(0.54961782 -0.038022376 6.5504696e-21)
(0.55920731 -0.036250201 1.0580482e-21)
(0.56882883 -0.034509428 -1.843954e-21)
(0.57846244 -0.032806417 4.3087323e-21)
(0.58808973 -0.031146595 8.1224147e-21)
(0.59769379 -0.029534504 2.405921e-21)
(0.60725927 -0.027973864 3.7353593e-21)
(0.6167723 -0.026467626 2.1519155e-21)
(0.6262205 -0.025018044 8.6155365e-22)
(0.63559296 -0.023626743 -2.4497549e-22)
(0.6448802 -0.022294792 3.1141532e-21)
(0.65407413 -0.021022787 7.0072714e-22)
(0.66316811 -0.01981092 3.2065489e-22)
(0.6721568 -0.018659091 5.7078286e-23)
(0.6810366 -0.017566943 1.2234584e-21)
(0.68980459 -0.01653418 4.2172897e-23)
(0.69846225 -0.01556008 5.8253278e-22)
(0.70700481 -0.014645774 -1.2661854e-22)
(0.7154548 -0.013788118 -4.0382982e-22)
(0.72376493 -0.013000727 -2.0140572e-22)
(0.73210644 -0.012251867 -5.5174324e-22)
(0.74004388 -0.011662859 2.3908044e-22)
(0.74890847 -0.010916458 -1.625544e-22)
(0.75509786 -0.011059931 -4.4501362e-22)
(0.76857046 -0.0094583661 2.8318568e-22)
(0.52806914 -0.044694205 3.4362234e-21)
(0.51885254 -0.051584273 -1.9360485e-20)
(0.51608581 -0.055889897 -2.5965349e-21)
(0.51589479 -0.058112216 5.711565e-21)
(0.51508348 -0.06003594 3.6106782e-21)
(0.51421247 -0.061737297 6.2404047e-22)
(0.51395769 -0.063007822 7.223533e-21)
(0.51431672 -0.063852001 8.1771536e-21)
(0.51519714 -0.064325267 1.0120166e-20)
(0.51660317 -0.064463262 -1.1887462e-20)
(0.51855201 -0.064294866 -2.2992226e-20)
(0.5210366 -0.063848926 -4.5348694e-21)
(0.52403824 -0.063153653 1.6849844e-20)
(0.52753568 -0.062236396 1.3431942e-20)
(0.53150529 -0.061123402 -5.7397383e-21)
(0.53592063 -0.05983956 8.8276245e-22)
(0.54075317 -0.058408413 -4.2136725e-21)
(0.54597323 -0.056852212 3.1337797e-21)
(0.55155051 -0.055191905 -2.9352958e-22)
(0.55745452 -0.053447117 -1.973962e-21)
(0.56365499 -0.051636144 8.5330102e-21)
(0.57012209 -0.049775959 -4.9995507e-22)
(0.57682679 -0.047882219 6.1044558e-22)
(0.58374099 -0.045969266 -4.5240694e-22)
(0.59083775 -0.044050143 -4.5229123e-21)
(0.59809133 -0.042136609 4.4140204e-21)
(0.60547741 -0.040239165 1.8414915e-21)
(0.61297304 -0.038367092 -3.4511219e-21)
(0.62055677 -0.036528489 -4.0791345e-21)