/*--------------------------------*- C++ -*----------------------------------*\
  =========                 |
  \\      /  F ield         | OpenFOAM: The Open Source CFD Toolbox
   \\    /   O peration     | Website:  https://openfoam.org
    \\  /    A nd           | Version:  6
     \\/     M anipulation  |
\*---------------------------------------------------------------------------*/
FoamFile
{
    version     2.0;
    format      ascii;
    class       volSymmTensorField;
    location    "212";
    object      UPrime2Mean;
}
// * * * * * * * * * * * * * * * * * * * * * * * * * * * * * * * * * * * * * //

dimensions      [0 2 -2 0 0 0 0];

internalField   nonuniform List<symmTensor> 
9200
(
(9.351986e-05 -7.2592193e-05 3.391344e-22 5.8257392e-05 -1.813199e-22 5.486854e-39)
(0.00057669415 -0.00046170996 8.6956803e-22 0.00037107109 -6.4890477e-22 5.968953e-39)
(0.0011662575 -0.00090447127 1.0575067e-22 0.00070554564 -8.003229e-23 3.2726168e-39)
(0.0018390574 -0.0013319728 -1.3109406e-21 0.00097558617 9.2149566e-22 6.5242827e-39)
(0.0025028058 -0.0017120647 6.2561768e-23 0.0011915222 -5.1814789e-23 9.5658823e-40)
(0.0031115256 -0.0020276517 5.525688e-22 0.0013531065 -3.6652366e-22 1.5058125e-40)
(0.0036333397 -0.0022726962 -1.1981185e-22 0.0014658946 8.2695616e-23 4.3346861e-40)
(0.0040424966 -0.0024475291 1.0887845e-22 0.0015392182 -7.3077127e-23 2.9194557e-40)
(0.004321108 -0.0025555558 5.3645962e-22 0.0015820494 -3.2525802e-22 8.3295301e-40)
(0.0044598183 -0.0026017963 4.174702e-23 0.0016020198 -2.5450198e-23 2.3761164e-42)
(0.00445788 -0.0025922023 -5.7941193e-22 0.0016054318 3.5568357e-22 4.4734499e-40)
(0.0043230849 -0.0025332332 4.8566681e-22 0.0015973336 -3.0923347e-22 6.1488902e-41)
(0.0040711798 -0.0024315865 -8.6646552e-22 0.0015816347 5.8300675e-22 9.5787277e-40)
(0.0037245657 -0.0022940342 -4.402147e-22 0.0015612658 3.0205297e-22 6.1529019e-41)
(0.0033103173 -0.0021273172 1.1434395e-22 0.0015383541 -8.4579027e-23 7.838228e-42)
(0.002857702 -0.0019380522 -4.3165051e-22 0.0015143923 3.3692427e-22 8.2561384e-41)
(0.0023953988 -0.001732647 3.7987559e-22 0.0014904769 -3.213426e-22 1.0003956e-40)
(0.0019487221 -0.0015173271 2.8335422e-22 0.0014680884 -2.5094504e-22 4.0650479e-40)
(0.0015391185 -0.0012978533 -9.5161752e-24 0.0014491852 2.0534017e-23 7.4837569e-41)
(0.0011901856 -0.001078262 -5.2242174e-24 0.0014194184 1.8152358e-23 9.2763864e-41)
(0.00012341902 -8.2500707e-05 3.5385745e-23 5.6634564e-05 -1.356422e-23 9.6507559e-41)
(0.00073559253 -0.00050990385 9.2103891e-22 0.00035454763 -5.9912706e-22 6.3670593e-39)
(0.0014627519 -0.00098412405 -2.9859989e-22 0.00066587328 2.0027518e-22 3.4585301e-39)
(0.0022428839 -0.0014228215 -2.353194e-21 0.00091272742 1.4705793e-21 1.5097122e-38)
(0.0029688711 -0.0017960814 -8.1625055e-23 0.0011059587 5.1738881e-23 1.904765e-40)
(0.0035874263 -0.0020888684 1.8219564e-21 0.0012472358 -1.0746361e-21 4.9957996e-39)
(0.0040656167 -0.0022986292 -7.4961284e-22 0.0013437819 4.3774124e-22 1.7130056e-40)
(0.0043823639 -0.0024296699 -2.2657807e-22 0.0014057179 1.3118646e-22 6.1412969e-41)
(0.0045289829 -0.0024891282 8.620054e-22 0.0014422706 -5.0229444e-22 4.6926736e-40)
(0.0045088495 -0.0024852839 -1.0472266e-21 0.0014609696 6.2049843e-22 5.389349e-40)
(0.0043363595 -0.0024267853 -7.4449773e-22 0.0014677131 4.5234451e-22 6.6544785e-40)
(0.0040353667 -0.0023222035 1.6118889e-21 0.0014668908 -1.0191286e-21 3.3845751e-39)
(0.003636828 -0.0021798065 7.5251136e-22 0.0014615471 -5.066704e-22 2.3740549e-40)
(0.0031757085 -0.0020074823 -1.1891738e-21 0.0014535736 8.5536588e-22 1.1720991e-39)
(0.0026875028 -0.0018127347 2.1414799e-22 0.0014438981 -1.6615852e-22 9.7628109e-41)
(0.0022048555 -0.0016026923 -4.7708093e-22 0.0014326496 4.1506502e-22 2.6046846e-40)
(0.0017547118 -0.0013841069 -1.9762578e-22 0.001419345 2.0272275e-22 8.1927676e-41)
(0.0013563182 -0.0011632184 6.091138e-22 0.0014031373 -6.8036438e-22 1.3248549e-39)
(0.0010212961 -0.00094505844 2.8974033e-22 0.0013814897 -3.8593046e-22 2.5198506e-40)
(0.00075749472 -0.00073462601 -1.251974e-22 0.0013414267 1.5573289e-22 1.8957194e-39)
(0.0001571874 -8.9540763e-05 -2.9710616e-22 5.215123e-05 1.2648806e-22 2.4811857e-39)
(0.00090508434 -0.00053798297 -4.9534844e-22 0.00032062172 2.7518663e-22 2.5865611e-39)
(0.0017674991 -0.0010225533 -5.6480873e-22 0.00059499684 3.2905436e-22 6.4653473e-39)
(0.0026382873 -0.0014528021 1.8847066e-23 0.00080935634 -1.0359428e-23 7.0171656e-43)
(0.0033979026 -0.0018027258 2.2351889e-23 0.00097472833 -1.0526395e-23 4.6452543e-39)
(0.0039896982 -0.0020610143 6.3861582e-22 0.0010946224 -3.4048715e-22 1.2990245e-39)
(0.0043853976 -0.0022295221 6.1726576e-23 0.0011772903 -3.0855463e-23 5.3776481e-40)
(0.0045751667 -0.0023166771 -1.0861915e-21 0.0012327632 5.8337077e-22 3.4276952e-40)
(0.004565965 -0.0023329491 1.2880593e-21 0.0012696334 -7.0924597e-22 6.4784837e-40)
(0.0043792318 -0.0022890842 4.2476477e-22 0.0012944903 -2.454817e-22 7.115027e-40)
(0.0040477431 -0.0021953999 -1.171325e-21 0.0013120724 7.0721331e-22 1.4701978e-39)
(0.0036117834 -0.0020615016 -3.6826538e-22 0.0013254655 2.3830256e-22 4.8039159e-40)
(0.0031147062 -0.0018962739 1.3333756e-22 0.0013363374 -9.2677251e-23 1.3010955e-39)
(0.0025983601 -0.0017080149 3.2027768e-22 0.0013451988 -2.4793284e-22 1.8721878e-40)
(0.0020990526 -0.0015045855 -1.1247919e-22 0.0013516668 9.7309003e-23 1.4317347e-40)
(0.0016446541 -0.0012934865 2.6221474e-22 0.0013547265 -2.6192914e-22 1.1345929e-40)
(0.0012531938 -0.0010818285 -1.810745e-22 0.0013529879 2.1301091e-22 4.3575409e-41)
(0.00093296083 -0.00087614491 -3.7006396e-22 0.0013448446 5.1196628e-22 1.0613737e-39)
(0.00068401921 -0.00068192627 -1.262131e-23 0.0013281913 1.3482349e-23 9.5454806e-40)
(0.00050128502 -0.0005042581 1.2882415e-22 0.0012985859 -2.787778e-22 1.0908464e-40)
(0.0001936915 -9.2672928e-05 -2.3600524e-22 4.520735e-05 8.6973846e-23 1.2323258e-39)
(0.0010764707 -0.00054125136 3.6164889e-22 0.00027280654 -1.7742429e-22 2.2994632e-40)
(0.0020621617 -0.001013151 3.2090677e-22 0.00050083686 -1.5827055e-22 2.6619201e-40)
(0.0029983251 -0.001416353 7.0029704e-22 0.000677634 -3.3436925e-22 2.8712586e-39)
(0.0037573712 -0.001730187 6.1618712e-22 0.00081388838 -2.9277065e-22 1.2772634e-39)
(0.0042853794 -0.0019481774 -1.08386e-21 0.00091441032 5.1537904e-22 9.7530415e-40)
(0.0045659142 -0.0020765713 -6.0686121e-22 0.00098751034 2.9377836e-22 2.7760903e-40)
(0.0046072767 -0.0021270063 0 0.0010421154 0 0)
(0.0044374187 -0.0021119043 6.6411751e-22 0.0010852884 -3.6106159e-22 3.5784948e-39)
(0.0040985785 -0.0020429361 -2.888073e-22 0.001121931 1.704943e-22 1.3556234e-39)
(0.0036413174 -0.0019306501 -1.6967101e-21 0.0011550283 1.0136631e-21 1.19992e-39)
(0.0031183382 -0.0017845555 -2.1762539e-22 0.0011859252 1.3732473e-22 2.4224186e-40)
(0.0025786422 -0.0016134233 8.3860223e-22 0.0012146392 -6.2553884e-22 1.630841e-39)
(0.00206282 -0.0014255847 4.7225324e-23 0.001240205 -3.0900983e-23 6.7438393e-40)
(0.0016001404 -0.0012290732 -1.3007232e-23 0.0012610357 1.2768174e-23 4.7384109e-43)
(0.0012077064 -0.0010315488 1.4007915e-22 0.0012752932 -1.6251195e-22 8.3404508e-41)
(0.00089149687 -0.00084003873 7.222426e-25 0.0012812146 3.0663442e-24 9.763954e-41)
(0.0006487402 -0.00066058602 -2.4931415e-22 0.0012772687 4.2122723e-22 2.5475907e-40)
(0.00047079155 -0.00049788163 -1.3876349e-22 0.00126274 2.9295986e-22 1.7737257e-40)
(0.00034617298 -0.00035534868 7.018819e-23 0.0012394513 -2.1498071e-22 1.1115361e-39)
(0.00023126254 -9.1009787e-05 1.7835712e-22 3.6454523e-05 -5.6827264e-23 4.8479579e-40)
(0.0012389501 -0.00051666309 7.4310863e-22 0.00021598743 -2.9640235e-22 4.367909e-39)
(0.0023260121 -0.00095313061 5.8571618e-22 0.00039329038 -2.4139052e-22 2.7655343e-40)
(0.0032954403 -0.0013137939 6.5189027e-22 0.00053156264 -2.6640641e-22 1.5363964e-39)
(0.0040180839 -0.0015841423 -1.0037717e-21 0.0006405296 4.1493665e-22 2.4208649e-39)
(0.0044504232 -0.0017626005 3.8541151e-23 0.00072543876 -1.2419493e-23 2.3033479e-40)
(0.0045952846 -0.0018585325 5.7553321e-23 0.00079359928 -2.508739e-23 1.9383177e-42)
(0.0044846041 -0.0018847748 8.198268e-22 0.00085194488 -3.8208889e-22 8.6540025e-40)
(0.0041697478 -0.0018535837 1.1083676e-22 0.0009053397 -5.4858427e-23 7.7996727e-42)
(0.0037124763 -0.0017757346 -2.9800232e-22 0.00095651761 1.6912669e-22 4.6820728e-40)
(0.0031763046 -0.0016607285 9.7023387e-22 0.0010063921 -6.0318747e-22 3.2649182e-39)
(0.0026189816 -0.0015173032 -7.0754466e-22 0.0010544006 4.6725137e-22 2.8133085e-40)
(0.0020869182 -0.0013539103 -1.3345489e-21 0.001098903 1.0451111e-21 1.9976245e-39)
(0.0016122077 -0.0011789227 -4.4224181e-23 0.0011376317 4.0825139e-23 4.2269022e-42)
(0.0012123477 -0.0010004925 4.7687505e-22 0.0011681591 -5.3576006e-22 1.6196834e-39)
(0.0008921843 -0.00082614157 0 0.0011883446 0 0)
(0.00064721925 -0.00066224796 6.013002e-23 0.0011966585 -8.7059843e-23 4.214095e-41)
(0.00046731989 -0.0005136306 -3.0117841e-23 0.0011922479 6.6586607e-23 6.2708301e-41)
(0.000339889 -0.00038337286 -3.0653575e-23 0.0011757493 6.7408097e-23 1.6474813e-41)
(0.00025220782 -0.00027279567 1.4495184e-23 0.0011521373 -6.2830906e-23 1.1277382e-40)
(0.00026786504 -8.402007e-05 3.9006175e-22 2.6804178e-05 -1.0049473e-22 1.9605224e-39)
(0.0013811049 -0.0004637938 3.8357807e-23 0.00015617607 -1.2593267e-23 3.6276612e-42)
(0.0025392431 -0.00084491469 -1.1008006e-22 0.00028352663 3.7191592e-23 1.6060981e-41)
(0.0035064559 -0.0011525371 1.1332666e-22 0.00038583382 -3.6527763e-23 3.1743688e-40)
(0.004160156 -0.0013781375 -6.9134883e-22 0.00047124621 2.4267624e-22 5.9545283e-40)
(0.0044752732 -0.0015237132 -3.3269306e-22 0.000544527 1.2125658e-22 5.3793349e-41)
(0.004479829 -0.001599222 2.3597363e-22 0.00061115909 -7.2470258e-23 1.6964739e-39)
(0.0042317826 -0.0016159581 -8.660345e-24 0.00067558015 9.7846064e-24 1.3271629e-40)
(0.0038042617 -0.0015837602 -5.6215094e-22 0.00074017791 2.7989573e-22 1.4033117e-39)
(0.0032732258 -0.0015110675 9.7599004e-22 0.00080537897 -5.0857452e-22 4.1262156e-40)
(0.0027074293 -0.0014057263 -2.5976131e-23 0.00086999318 3.7115263e-23 7.2899471e-40)
(0.0021614777 -0.0012756991 -7.7571389e-22 0.0009316366 5.6587974e-22 2.010359e-39)
(0.0016724926 -0.0011293508 0 0.00098725264 0 0)
(0.0012602603 -0.00097521673 1.8906283e-22 0.0010336889 -2.1577721e-22 1.0786363e-39)
(0.00093003565 -0.00082139414 9.5436585e-24 0.0010682467 -2.0358506e-23 5.9044298e-41)
(0.00067676445 -0.00067482139 -2.2982306e-22 0.0010891168 3.6393448e-22 1.2535894e-39)
(0.00048950345 -0.00054070285 -5.207142e-23 0.0010955808 9.3923515e-23 2.617273e-41)
(0.00035514706 -0.00042226246 -1.5936978e-23 0.0010878901 4.3836301e-23 4.2078143e-41)
(0.00026090228 -0.000320912 -2.0866738e-23 0.0010678984 5.9131175e-23 1.6361504e-41)
(0.00019554522 -0.00023645824 3.7584636e-23 0.0010416329 -1.4482297e-22 1.5638052e-40)
(0.00030132492 -7.1661791e-05 1.5039651e-22 1.7337282e-05 -2.8938787e-23 3.1048355e-40)
(0.0014923759 -0.00038517147 -1.0796014e-21 9.9757734e-05 2.7168588e-22 6.7516056e-39)
(0.0026856675 -0.00069607554 -9.5498343e-23 0.00018246916 2.7097437e-23 6.3042206e-40)
(0.003615858 -0.00094610924 -2.8765933e-22 0.00025377776 8.4776731e-23 3.1707834e-39)
(0.0041757275 -0.0011312896 -2.1626324e-22 0.00031987483 6.0110413e-23 4.3841396e-41)
(0.0043654493 -0.001254475 -1.225067e-21 0.00038441301 3.8025989e-22 5.8041676e-40)
(0.0042410632 -0.0013229137 -6.0085222e-22 0.00045075612 2.1205303e-22 4.6822633e-40)
(0.0038848694 -0.0013436087 1.1634124e-21 0.00052087319 -4.3918472e-22 3.7771411e-40)
(0.0033862069 -0.0013223148 1.9930021e-22 0.00059480421 -1.028281e-22 4.8051527e-40)
(0.0028273325 -0.0012645628 -2.5613905e-22 0.0006708125 1.1649698e-22 1.6438533e-40)
(0.0022740796 -0.0011767326 1.1983668e-22 0.00074578361 -4.4198465e-23 6.1667096e-40)
(0.0017715321 -0.001066473 -2.3011609e-23 0.00081579312 3.0515787e-23 1.5630909e-40)
(0.001344246 -0.00094236589 0 0.00087680087 0 0)
(0.00099976838 -0.00081305256 1.2778005e-22 0.0009253424 -1.3311407e-22 3.7814044e-41)
(0.00073378173 -0.00068621309 -2.7210884e-22 0.00095906947 3.5602332e-22 5.1557379e-40)
(0.00053531797 -0.00056776862 -8.8420093e-23 0.00097703563 1.3561721e-22 4.445247e-41)
(0.00039099619 -0.00046150723 1.531366e-22 0.00097965466 -3.0706676e-22 6.1568778e-40)
(0.00028786088 -0.00036916823 -3.3655071e-23 0.00096834526 4.4981321e-23 1.3225678e-40)
(0.00021480736 -0.00029094727 -2.0180422e-24 0.00094582178 -4.018327e-24 1.4837472e-41)
(0.00016290225 -0.0002259359 3.4977061e-23 0.00091784299 -1.0388975e-22 1.3406242e-41)
(0.00032957355 -5.4426783e-05 1.0940359e-22 9.1593163e-06 -1.435468e-23 1.9442959e-40)
(0.0015644083 -0.00028606155 -1.0014675e-21 5.2591651e-05 1.8045712e-22 3.0968553e-39)
(0.002754708 -0.00051832951 -7.8243633e-22 9.927374e-05 1.5519577e-22 3.7058357e-39)
(0.0036175192 -0.00071206844 1.1195938e-21 0.00014561298 -2.3387075e-22 9.0857376e-40)
(0.0040691787 -0.00086509901 8.4590543e-22 0.0001959455 -1.9029199e-22 1.8924856e-40)
(0.0041390314 -0.00097751224 -6.2035362e-22 0.00025279989 1.3688591e-22 1.9679903e-39)
(0.0039099106 -0.001050577 2.020826e-22 0.00031779382 -7.6893039e-23 8.3324556e-40)
(0.0034829239 -0.001085024 1.18585e-21 0.00039093254 -4.2013078e-22 9.3690752e-40)
(0.0029555992 -0.0010819173 5.2036984e-22 0.00047030672 -2.0439771e-22 1.18388e-40)
(0.0024082493 -0.0010442302 -5.1188088e-22 0.00055230961 2.6091033e-22 3.0573086e-40)
(0.0018974518 -0.00097757212 -6.9471231e-22 0.00063220256 4.1318946e-22 3.6610439e-40)
(0.0014556438 -0.00088978728 -1.8953578e-23 0.00070493038 1.3667492e-23 3.816952e-43)
(0.0010950381 -0.00078975201 2.0009692e-22 0.00076600645 -1.7461902e-22 5.9345505e-41)
(0.00081363852 -0.00068592913 -7.0537691e-24 0.00081223335 2.2888152e-23 9.0079809e-41)
(0.00060136634 -0.00058520175 -7.6027474e-24 0.00084208951 3.7230217e-23 2.438017e-40)
(0.00044499853 -0.0004922762 5.6406144e-24 0.00085573361 -4.8616708e-23 4.40415e-40)
(0.0003314288 -0.00040966276 7.0601888e-23 0.0008546673 -1.3981953e-22 1.2929064e-40)
(0.00024937693 -0.00033807893 -4.0070452e-23 0.000841189 1.1763433e-22 3.3667426e-40)
(0.00018992999 -0.00027713311 -1.0269602e-22 0.00081836806 2.8503072e-22 6.533674e-40)
(0.00014630411 -0.00022581648 3.4215022e-23 0.00079096228 -8.3336821e-23 1.46909e-41)
(0.00035098396 -3.3302433e-05 -2.8447105e-22 3.2429494e-06 2.3708063e-23 5.8092707e-40)
(0.0015921985 -0.00017380507 -2.2367293e-22 1.9204511e-05 2.3980286e-23 6.2674408e-40)
(0.0027424791 -0.00032592981 1.7188238e-21 4.0180325e-05 -2.1796639e-22 7.6581853e-39)
(0.0035150321 -0.00046948819 1.2805122e-21 6.7407993e-05 -1.8496197e-22 8.3736231e-40)
(0.0038557838 -0.00060040868 5.7414378e-22 0.00010416725 -8.9773718e-23 4.1112233e-40)
(0.0038230887 -0.00071230556 1.1588883e-22 0.00015259657 -2.3626641e-23 3.9658586e-42)
(0.0035213209 -0.00079807389 -1.0882674e-21 0.00021349591 2.40458e-22 1.7186011e-39)
(0.0030622631 -0.00085143444 0 0.00028566558 0 0)
(0.0025431653 -0.00086923094 -6.6700598e-22 0.00036571716 2.8717605e-22 1.4229623e-39)
(0.0020358479 -0.00085281903 -1.1475412e-22 0.00044849876 7.5063752e-23 3.2225318e-40)
(0.0015843487 -0.00080779516 3.2715675e-22 0.00052800833 -1.8874093e-22 7.9027997e-41)
(0.0012085561 -0.00074245386 3.5192722e-23 0.00059853392 -4.4752622e-23 1.7729389e-40)
(0.00091088811 -0.0006657764 -1.5619478e-22 0.00065566747 1.522839e-22 2.0659752e-40)
(0.00068340648 -0.00058570188 -1.1772122e-22 0.000696908 1.5362316e-22 4.4152245e-40)
(0.00051366937 -0.00050811718 7.5893826e-23 0.00072175639 -7.6787721e-23 5.425344e-41)
(0.00038865616 -0.00043661867 1.0514879e-22 0.00073138375 -1.3501384e-22 5.0237588e-41)
(0.00029687289 -0.00037282817 -9.370085e-23 0.00072804768 1.5457181e-22 4.6757751e-41)
(0.00022913889 -0.00031698013 -1.2556832e-22 0.00071446687 2.6951069e-22 5.4656146e-40)
(0.00017858197 -0.00026859761 9.7152238e-24 0.00069359177 -2.0792216e-24 6.4133783e-41)
(0.00014015767 -0.00022687229 1.7067168e-23 0.00066889549 -5.7318114e-23 7.5716897e-41)
(0.0003643175 -9.6136844e-06 -1.8772828e-22 2.9107731e-07 4.784673e-24 2.8419866e-40)
(0.0015741415 -5.6894117e-05 8.023368e-22 2.2501776e-06 -2.8727118e-23 1.5762277e-39)
(0.0026517176 -0.00013398988 1.22656e-21 7.9497357e-06 -7.5389917e-23 1.1433082e-38)
(0.0033208301 -0.00023683614 -1.4381167e-21 2.0906126e-05 1.2379063e-22 3.1490099e-39)
(0.0035589866 -0.00035537987 5.2000767e-22 4.4889463e-05 -5.6911676e-23 7.9550167e-41)
(0.0034490387 -0.00047390345 2.1358467e-22 8.2977863e-05 1.1754632e-24 2.9073262e-39)
(0.0031088156 -0.0005759791 5.6207153e-23 0.0001363186 -1.1363484e-23 1.0515505e-42)
(0.0026519926 -0.00064890431 -8.0015829e-22 0.00020324533 1.8424191e-22 9.8166751e-40)
(0.00216854 -0.00068654859 -1.8173418e-23 0.00027929013 6.2692854e-24 1.5793831e-43)
(0.001718054 -0.0006897443 2.9877969e-22 0.00035807711 -1.5504395e-22 3.7410371e-40)
(0.0013317524 -0.00066458109 2.345097e-23 0.00043275129 -2.3907533e-23 5.3464848e-41)
(0.0010192315 -0.00061973883 -1.0773719e-22 0.00049742403 2.9040066e-23 6.9167797e-40)
(0.000776491 -0.00056398009 -2.3995195e-22 0.00054817268 1.9474916e-22 7.7934577e-41)
(0.00059286995 -0.00050447775 -1.3878347e-24 0.0005833788 1.864845e-23 9.0089573e-41)
(0.00045589056 -0.00044614816 8.1288607e-23 0.00060346722 -1.0638238e-22 8.8137877e-41)
(0.00035400051 -0.00039176476 5.4128944e-23 0.00061028697 -8.5667121e-23 8.5447897e-41)
(0.00027772845 -0.00034247942 1.2332842e-23 0.00060640378 -4.0553358e-23 1.3828079e-40)
(0.00021988377 -0.00029844367 -8.6500095e-23 0.00059451818 1.2148048e-22 1.1134165e-40)
(0.00017528618 -0.00025935372 -1.775364e-23 0.00057714319 -1.1483455e-23 4.7422512e-40)
(0.00014021484 -0.00022464619 4.7582239e-23 0.00055649172 -1.4717745e-22 7.82834e-40)
(2.4312413e-06 -3.0375414e-07 2.4296829e-23 3.7102536e-07 -4.8619848e-24 2.7772366e-40)
(1.1459981e-05 -4.7967423e-06 -3.466946e-23 2.4640214e-06 9.6064813e-24 2.6736798e-40)
(2.5669646e-05 -1.1085371e-05 7.7007741e-23 4.9121949e-06 -2.8857829e-23 1.5357141e-39)
(8.2297799e-05 -2.3393861e-05 2.1497846e-22 7.0451029e-06 -4.5865001e-23 5.1645856e-39)
(0.00018061335 -3.8593843e-05 -1.5361235e-22 8.9625976e-06 2.6182917e-23 1.3431904e-39)
(0.00032280431 -5.5612373e-05 1.9366e-22 1.0666286e-05 -2.6312054e-23 1.4841322e-39)
(0.00051352423 -7.3870207e-05 -2.6602086e-22 1.2158474e-05 3.3822823e-23 1.6301783e-39)
(0.00075402737 -9.278826e-05 -2.7444566e-22 1.3470037e-05 2.8744163e-23 1.7235607e-39)
(0.0010431998 -0.00011189653 3.4550695e-22 1.4634221e-05 -3.5906554e-23 1.822446e-39)
(0.0013791457 -0.00013084861 -2.6837278e-22 1.5676949e-05 2.6284049e-23 9.2826595e-40)
(0.0017594902 -0.00014938365 -1.3390846e-23 1.6617914e-05 2.2384656e-25 1.0790971e-41)
(0.0021814163 -0.00016729961 7.7447256e-23 1.7472206e-05 -8.263413e-24 3.4172674e-41)
(0.0026418 -0.00018443734 -1.3321526e-23 1.8251392e-05 6.4452267e-25 5.4166546e-42)
(0.0031373348 -0.0002006708 4.2174245e-22 1.8964769e-05 -3.7930369e-23 1.6261054e-39)
(0.0036646075 -0.00021590405 5.1700744e-25 1.9620917e-05 7.986251e-25 3.5109222e-42)
(0.0042201749 -0.00023007706 -6.2195257e-22 2.0229273e-05 5.8299405e-23 3.3448629e-39)
(0.0048006654 -0.00024317077 1.1553694e-22 2.0799916e-05 -1.2155589e-23 7.067798e-41)
(0.0054027949 -0.00025518421 2.8095249e-22 2.1340324e-05 -2.7848765e-23 8.5059821e-40)
(0.0060232993 -0.0002661688 -4.5722191e-22 2.1857905e-05 4.8479234e-23 2.4111204e-39)
(0.0066584681 -0.00027647861 -2.5346552e-22 2.2348338e-05 2.8619289e-23 9.0527269e-40)
(2.7535944e-06 -1.2707556e-06 8.0048944e-24 3.265059e-06 -2.9603652e-24 2.7500756e-41)
(1.4609399e-05 -1.6436598e-05 -2.1956042e-22 2.1713177e-05 1.6554265e-22 8.9415901e-39)
(3.2784509e-05 -3.7317471e-05 4.3570779e-23 4.3273711e-05 -3.6031065e-23 8.0703052e-40)
(9.6827424e-05 -7.5735555e-05 2.3129074e-22 6.2066312e-05 -1.4210931e-22 4.3165454e-39)
(0.00020373365 -0.00012249635 3.2142582e-22 7.8925713e-05 -1.5454211e-22 4.8812659e-39)
(0.00035499743 -0.00017444724 3.8877302e-23 9.3842688e-05 -1.5600916e-23 4.5855283e-41)
(0.00055472168 -0.00022985844 -1.0340264e-21 0.00010684131 3.5855514e-22 2.4415103e-38)
(0.00080349865 -0.00028701773 -3.6484194e-23 0.00011819546 1.5129465e-23 7.0627094e-42)
(0.0010996212 -0.00034454495 5.8571985e-22 0.00012819741 -1.7852458e-22 4.1674101e-39)
(0.0014406521 -0.00040142271 -1.4144914e-22 0.00013707542 3.9104213e-23 2.3172963e-40)
(0.0018236807 -0.00045688259 -5.3745635e-22 0.00014500293 1.4745947e-22 2.5709053e-39)
(0.0022453494 -0.00051032685 1.1317883e-22 0.00015211192 -2.8974996e-23 1.1705556e-40)
(0.0027019822 -0.00056128151 4.7800458e-22 0.00015850199 -1.0708557e-22 2.7571324e-39)
(0.0031896975 -0.00060936637 1.9794153e-22 0.00016425101 -4.9290709e-23 3.1498027e-40)
(0.0037044636 -0.00065428403 3.9666733e-22 0.00016942844 -1.0573559e-22 9.1124685e-40)
(0.0042421746 -0.00069583542 -3.1390574e-22 0.00017410869 7.912001e-23 7.7077908e-40)
(0.004798838 -0.00073394017 -3.0054767e-22 0.00017837243 7.4983393e-23 8.430369e-40)
(0.0053705028 -0.00076856397 3.0432621e-22 0.00018228433 -8.6298987e-23 4.8752648e-40)
(0.0059521232 -0.00079984333 2.7858234e-22 0.00018591753 -7.7058828e-23 8.5210858e-40)
(0.0065377337 -0.00082913038 1.0828764e-22 0.00018926166 -2.8770091e-23 3.6182751e-40)
(3.5394914e-06 -3.2531265e-06 6.1592351e-24 8.7080333e-06 -3.083411e-24 1.448077e-41)
(2.2083092e-05 -3.3967691e-05 1.6675558e-22 5.7961614e-05 -1.7848821e-22 3.8107501e-39)
(4.9350837e-05 -7.506073e-05 -3.6496911e-23 0.0001154255 4.7035097e-23 1.9957054e-40)
(0.00012891657 -0.0001437621 -2.5128224e-22 0.0001654866 2.1160421e-22 4.7251538e-39)
(0.00025359286 -0.00022531805 9.2601965e-23 0.00021024139 -7.7777216e-23 1.3395605e-40)
(0.00042347756 -0.00031463632 1.2275527e-22 0.00024956892 -9.9808895e-23 7.0628086e-41)
(0.00064156434 -0.0004088599 -1.528487e-22 0.00028352668 8.1084576e-23 4.2104724e-40)
(0.0009071943 -0.00050521724 -3.9994641e-22 0.00031284396 2.3346933e-22 8.4209097e-40)
(0.0012175265 -0.0006014928 1.7507182e-22 0.00033829753 -8.5151012e-23 2.3526626e-40)
(0.0015690727 -0.00069604661 3.7187265e-22 0.00036049878 -1.5477859e-22 1.3358157e-39)
(0.0019578834 -0.00078762906 1.0392e-22 0.00037991479 -7.189043e-23 5.0293624e-41)
(0.0023795545 -0.00087525687 4.5505851e-22 0.00039689967 -1.5134876e-22 2.4786031e-39)
(0.0028293428 -0.0009581367 3.8640014e-23 0.00041171607 -1.4332667e-23 1.0279942e-41)
(0.0033022583 -0.0010356137 -6.7726381e-22 0.00042456118 2.2902503e-22 3.9858467e-39)
(0.0037930923 -0.0011071511 5.0040384e-23 0.00043560208 -3.2886653e-23 2.2121548e-41)
(0.0042964938 -0.0011723563 -3.170419e-22 0.00044501316 8.8449167e-23 1.5529045e-39)
(0.0048073299 -0.001231029 -4.4806524e-22 0.0004529849 1.772412e-22 6.3904386e-40)
(0.0053204937 -0.0012830431 7.2841344e-22 0.00045970592 -2.8336291e-22 2.1207427e-39)
(0.0058279552 -0.001328575 3.8526512e-22 0.00046548558 -1.5894026e-22 4.3183076e-40)
(0.0063203586 -0.0013705141 7.6791497e-23 0.00047050677 -3.4813162e-23 9.2696734e-42)
(5.2140812e-06 -6.7282426e-06 -9.2162533e-24 1.6035434e-05 1.160185e-23 2.1241494e-41)
(3.6204112e-05 -6.03139e-05 -3.8638311e-22 0.00010692991 4.8863462e-22 1.2645691e-38)
(8.0105605e-05 -0.00013003909 -2.8065647e-23 0.00021275798 3.6067114e-23 1.7281061e-40)
(0.00018535047 -0.00023510325 6.4828311e-23 0.00030480284 -7.1763585e-23 1.1022352e-40)
(0.00033893446 -0.00035596301 -1.0420109e-23 0.00038668292 2.6698261e-24 2.8456073e-41)
(0.00053889001 -0.00048570368 3.303123e-22 0.00045794664 -2.4216763e-22 2.0768751e-39)
(0.00078650122 -0.00062033558 3.6539639e-22 0.00051866198 -2.3868037e-22 1.8867941e-39)
(0.0010792523 -0.00075612741 -1.1064918e-22 0.00057017276 5.3504894e-23 2.9729272e-40)
(0.0014126025 -0.00089012799 -4.062988e-22 0.00061391925 2.1228984e-22 1.8905116e-39)
(0.0017814652 -0.0010201347 -8.1997727e-22 0.00065105204 4.4229577e-22 4.009698e-39)
(0.0021803093 -0.0011444454 -1.7729763e-23 0.00068246287 -9.6595056e-24 9.1511947e-41)
(0.0026031518 -0.0012616996 1.0445149e-21 0.00070883332 -4.8672273e-22 6.5524958e-39)
(0.0030436526 -0.0013707723 -4.2326513e-22 0.00073066732 1.6161657e-22 1.9367699e-39)
(0.0034952077 -0.0014707121 -2.7390676e-22 0.00074833848 1.1998404e-22 3.8229904e-40)
(0.0039509576 -0.0015607067 -3.3302901e-23 0.00076214859 3.7028611e-23 8.2510867e-41)
(0.0044038785 -0.0016401153 6.4994013e-22 0.00077239266 -2.8492494e-22 1.5685768e-39)
(0.0048473525 -0.0017085646 -3.6871483e-22 0.00077938507 1.8446592e-22 1.0559636e-40)
(0.0052749822 -0.0017658509 -8.4615052e-22 0.00078352443 3.5628896e-22 3.3767492e-39)
(0.0056753781 -0.0018122139 5.6898274e-22 0.00078577845 -2.4753814e-22 1.6980496e-39)
(0.0060354991 -0.0018523365 4.9058083e-22 0.00078724158 -1.9673273e-22 1.5790481e-39)
(8.3386811e-06 -1.1983155e-05 4.138386e-23 2.44438e-05 -4.021839e-23 2.7231784e-40)
(6.0072231e-05 -9.7187473e-05 1.3364126e-23 0.00016320886 -3.413886e-24 1.2313714e-40)
(0.00013130937 -0.00020555653 -5.3287233e-22 0.00032418819 7.6282519e-22 1.0376051e-38)
(0.00027488406 -0.00035395581 -3.0609247e-22 0.00046374465 3.250848e-22 3.2088657e-39)
(0.00047055965 -0.00051887395 2.0418512e-22 0.00058702073 -1.625737e-22 1.9393816e-39)
(0.0007135581 -0.00069157371 2.5419639e-22 0.00069297014 -2.0480796e-22 9.1365743e-40)
(0.0010027142 -0.0008668817 -3.3069081e-22 0.00078165598 2.1594507e-22 2.1377567e-39)
(0.0013329519 -0.0010402223 -5.0446195e-22 0.00085515964 2.8945742e-22 4.6910919e-39)
(0.0016973704 -0.0012080366 7.4760623e-22 0.00091573186 -4.4647554e-22 4.8139323e-39)
(0.0020886486 -0.0013676514 2.1415667e-22 0.00096520986 -8.6620946e-23 1.1204759e-39)
(0.0024990604 -0.0015169789 -6.770129e-22 0.001005054 4.4779282e-22 3.7272612e-40)
(0.0029204758 -0.0016543355 2.9644722e-22 0.0010364071 -1.3472763e-22 8.6279703e-40)
(0.0033444863 -0.0017783239 0 0.001060138 0 0)
(0.0037625089 -0.0018877544 2.8954038e-22 0.0010768998 -1.4108009e-22 3.3779741e-40)
(0.0041658266 -0.0019816032 -2.1745135e-22 0.0010872093 1.033325e-22 1.8039754e-40)
(0.0045457337 -0.0020590465 -3.3359686e-22 0.001091533 1.6648737e-22 2.1919994e-40)
(0.0048943855 -0.0021196069 1.2347452e-22 0.001090314 -1.0059046e-22 3.080109e-40)
(0.005204811 -0.0021631644 -1.003517e-22 0.0010841753 5.9917333e-23 1.1162087e-41)
(0.0054632521 -0.0021902658 4.8191801e-22 0.0010752483 -2.0858101e-22 1.8278248e-39)
(0.0056528074 -0.0022071972 -3.9092726e-22 0.001066993 1.9137685e-22 1.0690403e-40)
(1.3563394e-05 -1.9108974e-05 3.9690388e-23 3.3137012e-05 -3.3370732e-23 2.1865459e-40)
(9.7188747e-05 -0.00014491306 1.9145078e-22 0.00022111634 -2.5488983e-22 8.1728562e-40)
(0.00020987661 -0.00030198469 -2.5697102e-22 0.00043785361 3.4091224e-22 1.9469655e-39)
(0.00040673298 -0.00050017932 -4.2224803e-22 0.00062470828 4.7492717e-22 1.6310336e-39)
(0.00065895289 -0.00071275864 -1.2472679e-22 0.00078818011 1.8256047e-22 1.2872741e-39)
(0.00095797964 -0.00092903972 -3.8200675e-22 0.00092646097 3.3547842e-22 8.0121465e-40)
(0.0012992451 -0.0011426071 -1.7755024e-22 0.0010396833 1.0931004e-22 9.2547693e-40)
(0.0016742888 -0.0013482031 3.0785757e-22 0.0011307925 -1.8514022e-22 1.7071162e-39)
(0.0020731098 -0.001541858 7.3672749e-22 0.0012029925 -4.390045e-22 5.8452019e-39)
(0.002485479 -0.0017206172 2.2719326e-22 0.0012589723 -1.3980258e-22 2.4518396e-40)
(0.0029009496 -0.0018822074 -2.1585588e-22 0.0013009347 1.1458832e-22 3.8889256e-40)
(0.0033088905 -0.0020248349 -4.0054133e-23 0.0013306611 -8.8488918e-24 3.3869107e-40)
(0.0036986944 -0.0021470631 -1.0302604e-21 0.0013495575 5.6351967e-22 3.2260277e-39)
(0.0040599832 -0.0022477329 -3.2006234e-22 0.0013587209 1.6731842e-22 3.3368158e-40)
(0.0043827525 -0.0023259174 5.3667898e-22 0.0013590264 -3.1006639e-22 1.5888117e-40)
(0.0046576142 -0.0023809399 -5.3530208e-22 0.0013512152 2.8903173e-22 3.3044861e-40)
(0.0048769151 -0.0024125225 -1.8894392e-22 0.0013358677 9.2972428e-23 1.0556795e-40)
(0.0050351793 -0.0024209421 4.2381311e-22 0.0013136825 -1.7881933e-22 1.6403557e-39)
(0.0051192815 -0.0024074899 6.4344826e-22 0.0012880992 -3.2136576e-22 1.2445776e-39)
(0.0051089627 -0.0023795275 7.8342013e-23 0.0012667342 -3.6600856e-23 2.4226601e-41)
(2.1579986e-05 -2.8007266e-05 -1.1194163e-22 4.1391721e-05 9.0888326e-23 1.2936932e-39)
(0.0001510413 -0.00020239559 -1.239256e-22 0.00027526781 1.2572107e-22 1.0311583e-39)
(0.0003223343 -0.00041656527 3.1443455e-22 0.00054244629 -3.9707971e-22 4.7500152e-40)
(0.00058882724 -0.00066889324 4.7923865e-22 0.00077089431 -4.9621486e-22 2.1632423e-39)
(0.00091175144 -0.00093005398 6.2610667e-24 0.00096823744 -5.6356146e-24 4.2938949e-43)
(0.0012775045 -0.0011872722 -1.302037e-21 0.001131961 1.0738265e-21 1.2631368e-38)
(0.0016769831 -0.0014329271 -5.1086026e-22 0.0012624939 4.3678773e-22 1.8133165e-40)
(0.0020974875 -0.0016613625 3.9671546e-22 0.0013638216 -2.6745534e-22 1.3859975e-39)
(0.0025253004 -0.0018685582 4.5538402e-22 0.0014402579 -3.0559243e-22 8.4780109e-40)
(0.0029469141 -0.0020516647 -4.4618941e-22 0.0014955145 2.4838614e-22 2.3267092e-39)
(0.003349066 -0.0022086347 -1.3137435e-21 0.0015327197 8.2814014e-22 3.3932459e-39)
(0.0037189226 -0.0023380154 8.6469367e-22 0.0015544757 -5.2334398e-22 1.395063e-39)
(0.0040444461 -0.0024388268 5.1478447e-22 0.0015629068 -2.6836147e-22 1.6704967e-39)
(0.0043147744 -0.0025104842 -7.1457488e-22 0.0015597267 3.9384642e-22 1.3789431e-39)
(0.0045205315 -0.0025527479 3.1433004e-22 0.0015463224 -1.8110615e-22 9.2577545e-41)
(0.0046541671 -0.0025657015 5.2208335e-22 0.0015238198 -2.6863626e-22 1.0269629e-39)
(0.0047111707 -0.0025498132 1.9909078e-22 0.0014929471 -1.1199502e-22 3.5035919e-41)
(0.0046909446 -0.0025061445 -3.413732e-22 0.001454187 2.1027863e-22 4.4518052e-41)
(0.0045857172 -0.0024370435 -7.9450025e-23 0.001411739 2.5955653e-23 2.5426651e-40)
(0.0043743213 -0.0023500465 4.4829575e-22 0.0013785035 -2.5836184e-22 1.0375796e-40)
(3.3069728e-05 -3.8392517e-05 -3.2985705e-24 4.856616e-05 -3.555351e-24 2.4177012e-41)
(0.00022464568 -0.00026715579 -4.5128932e-22 0.00032088182 4.7743128e-22 3.3895328e-39)
(0.00047369316 -0.00054351146 -3.5979518e-22 0.00062812202 3.8608695e-22 5.1266874e-39)