/*--------------------------------*- C++ -*----------------------------------*\
  =========                 |
  \\      /  F ield         | OpenFOAM: The Open Source CFD Toolbox
   \\    /   O peration     | Website:  https://openfoam.org
    \\  /    A nd           | Version:  6
     \\/     M anipulation  |
\*---------------------------------------------------------------------------*/
FoamFile
{
    version     2.0;
    format      ascii;
    class       surfaceScalarField;
    location    "80";
    object      phi;
}
// * * * * * * * * * * * * * * * * * * * * * * * * * * * * * * * * * * * * * //

dimensions      [0 3 -1 0 0 0 0];

internalField   nonuniform List<scalar> 
18180
(
0.00031886106
-0.0001634221
-0.00015543895
0.0013097389
-0.0013679887
0.00037711083
0.0030340915
-0.0033357927
0.0016114401
0.0055519495
-0.0059795082
0.0034616503
0.0089216543
-0.0092442729
0.005874568
0.013197868
-0.013086625
0.0088104106
0.018428912
-0.017469082
0.012238038
0.02465379
-0.02235741
0.016132531
0.031899043
-0.027717493
0.020472241
0.040175664
-0.033512713
0.025236092
0.049476415
-0.039702194
0.030401443
0.059773899
-0.04623988
0.035942396
0.071019797
-0.053074448
0.041828551
0.083145723
-0.060150062
0.048024136
0.096066319
-0.067408086
0.054487491
0.10968509
-0.074789853
0.061171081
0.12390244
-0.082240335
0.068022988
0.13863088
-0.089712455
0.074984007
0.15386887
-0.097189041
0.081951051
-0.10466771
0.088721726
0.16981486
0.00039764721
-0.0005610693
0.0016101887
-0.0025805301
0.003690658
-0.0054162621
0.0066898387
-0.0089786889
0.010654412
-0.013208846
0.015623295
-0.018055507
0.021623627
-0.023469413
0.028666804
-0.029400587
0.036744845
-0.035795535
0.045827493
-0.042595362
0.05586048
-0.049735181
0.066765316
-0.057144716
0.078440845
-0.064749977
0.090766655
-0.072475872
0.10360813
-0.080249564
0.11682256
-0.08800428
0.13026531
-0.095683089
0.14379664
-0.10324379
0.1572806
-0.11067299
-0.11790125
0.17051413
0.00048079102
-0.0010418603
0.0019193507
-0.0040190898
0.0043539315
-0.0078508429
0.0078191253
-0.012443883
0.012341628
-0.017731349
0.017934835
-0.023648713
0.024593753
-0.030128331
0.032290733
-0.037097567
0.040972436
-0.044477238
0.050558536
-0.052181462
0.060942528
-0.060119173
0.071994813
-0.068197
0.083567931
-0.076323096
0.095503544
-0.084411485
0.10764041
-0.092386429
0.1198223
-0.10018617
0.13190468
-0.10776547
0.14375813
-0.11509724
0.15526072
-0.12217558
-0.12895049
0.16630996
0.0005663527
-0.001608213
0.0022286417
-0.0056813787
0.0050021439
-0.010624345
0.0088966709
-0.01633841
0.013909302
-0.022743981
0.020017512
-0.029756924
0.027173831
-0.03728465
0.035302504
-0.04522624
0.044298608
-0.053473342
0.054029991
-0.061912845
0.064342076
-0.070431257
0.075065195
-0.07892012
0.08602377
-0.087281671
0.097046337
-0.095434051
0.10797528
-0.10331537
0.11867513
-0.11088603
0.12903861
-0.11812895
0.13898922
-0.12504784
0.14847804
-0.1316644
-0.13797797
0.15750552
0.00065108113
-0.0022592941
0.0025250709
-0.0075553685
0.0056052046
-0.013704479
0.0098671394
-0.020600344
0.015268594
-0.028145435
0.021741825
-0.036230155
0.029189356
-0.04473218
0.037483141
-0.053520025
0.046467416
-0.062457617
0.055965094
-0.071410523
0.065787104
-0.080253267
0.075743594
-0.08887661
0.085655654
-0.097193732
0.095366121
-0.10514452
0.10474818
-0.11269743
0.11371092
-0.11984877
0.12220145
-0.12661948
0.13020368
-0.13305007
0.13773393
-0.13919465
-0.14509701
0.14485297
0.00073083755
-0.0029901316
0.0027928242
-0.0096173552
0.006128131
-0.017039786
0.010669306
-0.025141519
0.016326418
-0.033802547
0.022980222
-0.04288396
0.030480543
-0.052232501
0.038649453
-0.061688935
0.047288873
-0.071097038
0.056191644
-0.080313293
0.065154545
-0.089216168
0.073991493
-0.097713558
0.082545099
-0.10574734
0.090695162
-0.11329458
0.098363145
-0.12036541
0.10551249
-0.12699811
0.11214523
-0.13325222
0.11829593
-0.13920077
0.12402415
-0.14492287
-0.1504897
0.12941683
0.0008009336
-0.0037910652
0.0030146383
-0.01183106
0.0065343821
-0.020559529
0.011242467
-0.029849604
0.016996102
-0.039556182
0.023622887
-0.049510745
0.030923326
-0.05953294
0.038678916
-0.069444525
0.046664483
-0.079082604
0.054662778
-0.088311588
0.062479038
-0.097032428
0.069953269
-0.10518779
0.076968587
-0.11276266
0.083454677
-0.11978067
0.089386362
-0.1262971
0.094778049
-0.1323898
0.099675406
-0.13814958
0.10414591
-0.14367127
0.10826982
-0.14904678
-0.15435727
0.11213739
0.00085625489
-0.0046473201
0.0031727411
-0.014147546
0.0067885893
-0.024175378
0.011531947
-0.034592962
0.017206345
-0.04523058
0.023590094
-0.055894495
0.030443812
-0.066386657
0.037523318
-0.076524031
0.044595439
-0.086154725
0.051453863
-0.095170012
0.057932287
-0.10351085
0.063912846
-0.11116835
0.069328813
-0.11817862
0.074161725
-0.12461358
0.078433993
-0.13056937
0.082198694
-0.1361545
0.085528448
-0.14147933
0.088505098
-0.14664792
0.091211505
-0.15175318
-0.15687338
0.093727615
0.00089044478
-0.0055377648
0.0032488961
-0.016505997
0.0068588101
-0.027785291
0.011494259
-0.039228411
0.016909127
-0.050645448
0.022841537
-0.061826905
0.029026342
-0.072571462
0.035211592
-0.082709281
0.041175545
-0.092118678
0.0467409
-0.10073537
0.051783698
-0.10855365
0.056235703
-0.11562035
0.060080479
-0.1220234
0.063344499
-0.1278776
0.066085309
-0.13331018
0.068378977
-0.13844817
0.070308682
-0.14340903
0.071955856
-0.1482951
0.073394429
-0.15319176
-0.15816692
0.074687972
0.00089998
-0.0064377448
0.0032339041
-0.018839921
0.0067301357
-0.031281523
0.011112565
-0.043610841
0.016094146
-0.055627028
0.02138631
-0.067119069
0.02671528
-0.077900432
0.031839863
-0.087833864
0.036566828
-0.096845643
0.040760686
-0.10492922
0.044346296
-0.11213926
0.047304387
-0.11857844
0.049661538
-0.12438055
0.051476984
-0.12969305
0.052828721
-0.13466192
0.053801059
-0.13942051
0.05447502
-0.144083
0.054922224
-0.1487423
0.055202059
-0.15347159
0.055360595
-0.15832546
-0.00020245732
0.00020245765
-3.3001516e-10
-0.00067799939
0.00047554235
-2.8831107e-10
-0.0013429085
0.00066490932
-2.4108992e-10
-0.002133034
0.00079012571
-2.3588678e-10
-0.0029967746
0.00086374083
-2.3415134e-10
-0.003891989
0.00089521463
-2.310478e-10
-0.0047837607
0.00089177189
-2.2675004e-10
-0.0056425278
0.00085876728
-2.2076159e-10
-0.0064426116
0.00080008402
-2.1321921e-10
-0.0071610651
0.00071845371
-2.029193e-10
-0.007776754
0.00061568899
-1.9205258e-10
-0.0082696205
0.00049286668
-1.7892829e-10
-0.0086201038
0.00035048345
-1.6733669e-10
-0.0088087059
0.00018860218
-1.5459353e-10
-0.0088157359
7.0301333e-06
-1.4592089e-10
-0.008621334
-0.00019440178
-1.3720243e-10
-0.008205735
-0.00041559889
-1.3461903e-10
-0.0075488629
-0.00065687204
-1.3320484e-10
-0.0066299244
-0.00091893843
-1.4047878e-10
-0.0011881891
-0.0054417351
-1.5449055e-10
-0.00018804403
0.00039050168
-0.00062522669
0.00091272501
-0.0012291661
0.0012688487
-0.001935815
0.0014967747
-0.0026929584
0.0016208841
-0.0034572722
0.0016595285
-0.0041921762
0.0016266759
-0.0048660229
0.0015326139
-0.0054506593
0.0013847204
-0.0059202911
0.0011880855
-0.0062505664
0.00094596434
-0.0064178339
0.00066013408
-0.0063985368
0.00033118635
-0.006168734
-4.1200614e-05
-0.0057037742
-0.00045792965
-0.0049782155
-0.00091996052
-0.003966041
-0.0014277735
-0.0026405796
-0.0019823335
-0.00097435586
-0.0025851622
-0.003206434
0.001043889
-0.00015897926
0.00054948094
-0.00051904747
0.0012727932
-0.0010010492
0.0017508505
-0.0015416521
0.0020373775
-0.0020878214
0.0021670535
-0.0025942281
0.0021659352
-0.0030213031
0.0020537508
-0.0033335687
0.0018448796
-0.003498293
0.0015494447
-0.0034844125
0.0011742049
-0.0032616479
0.00072319974
-0.0027997839
0.00019827006
-0.0020680349
-0.00040056271
-0.0010345308
-0.0010747048
0.00033411274
-0.0018265732
0.0020730712
-0.002658919
0.0042192719
-0.0035739741
0.006811087
-0.0045741486
0.0098882644
-0.0056623396
-0.0067883086
0.013470139
-0.0001175942
0.00066707513
-0.00036706912
0.0015222681
-0.00067361261
0.0020573939
-0.00097491019
0.0023386751
-0.001216855
0.0024089983
-0.0013514168
0.0023004969
-0.0013349831
0.0020373171
-0.0011269046
0.001636801
-0.00068829717
0.0011108373
1.8910092e-05
0.00046699764
0.0010327599
-0.00029065012
0.0023919139
-0.0011608839
0.0041361976
-0.0021448465
0.0063070826
-0.0032455898
0.0089481927
-0.0044676832
0.01210586
-0.0058165868
0.015829503
-0.0072976164
0.02017132
-0.0089159656
0.025186082
-0.010677103
-0.012506451
0.030904225
-6.6907876e-05
0.000733983
-0.00017914017
0.0016345004
-0.00026642667
0.0021446804
-0.00026742199
0.0023396704
-0.00012665329
0.0022682296
0.00020711696
0.0019667266
0.00078222008
0.001462214
0.0016452509
0.00077377013
0.0028420382
-8.5950018e-05
0.0044184303
-0.0011093944
0.0064208587
-0.0022930786
0.0088967548
-0.00363678
0.011894875
-0.0051429661
0.015465628
-0.0068163431
0.019661452
-0.0086635075
0.024537431
-0.010692566
0.030152174
-0.012912359
0.036568322
-0.015332114
0.043853321
-0.017962102
-0.020702686
0.052049556
-9.9578602e-06
0.00074394086
3.4660151e-05
0.0015898824
0.00020020982
0.0019791307
0.00054740258
0.0019924776
0.0011333524
0.0016822798
0.0020127362
0.0010873427
0.0032387585
0.00023619166
0.0048640341
-0.00085150544
0.0069412455
-0.0021631615
0.0095235173
-0.0036916662
0.012664624
-0.0054341851
0.016419093
-0.0073912494
0.020842133
-0.0095660062
0.025989468
-0.011963678
0.03191724
-0.014591279
0.038682305
-0.01745763
0.046343414
-0.020573468
0.05496328
-0.02395198
0.064612402
-0.027611224
-0.031432473
0.075342189
5.0803118e-05
0.00069313773
0.00026587675
0.0013748087
0.00070877818
0.0015362293
0.0014400225
0.0012612333
0.0025184728
0.00060382941
0.0040021021
-0.00039628654
0.0059485888
-0.0017102951
0.0084157055
-0.0033186221
0.011461448
-0.0052089044
0.015144005
-0.0073742233
0.019521488
-0.0098116672
0.024651399
-0.012521161
0.030589901
-0.015504508
0.03739091
-0.018764687
0.045105163
-0.022305533
0.05377967
-0.026132137
0.06345852
-0.030252319
0.074186275
-0.034679734
0.086016909
-0.039441858
-0.044421697
0.099006133
0.0001138704
0.00057926733
0.00050880783
0.00097987129
0.0012466941
0.00079834302
0.0023880985
0.00011982891
0.0039934002
-0.0010014723
0.0061231323
-0.0025260187
0.0088379619
-0.0044251246
0.012198512
-0.0066791719
0.016264954
-0.0092753466
0.021096263
-0.012205533
0.026749176
-0.015464581
0.033276865
-0.019048849
0.040727341
-0.022954985
0.049141656
-0.027179002
0.05855199
-0.031715867
0.068980034
-0.036560181
0.0804368
-0.041709085
0.092925738
-0.047168672
0.10645423
-0.052970346
-0.059033927
0.12106646
0.00017858957
0.00040067776
0.00076041084
0.00039805001
0.00180622
-0.0002474661
0.0033763306
-0.0014502817
0.0055316087
-0.0031567504
0.0083332147
-0.0053276247
0.011841977
-0.0079338869
0.016117467
-0.010954662
0.021216719
-0.014374598
0.0271926
-0.018181413
0.034091883
-0.022363864
0.041953044
-0.02691001
0.050803828
-0.031805769
0.060658611
-0.037033785
0.071515548
-0.042572804
0.083353565
-0.048398198
0.096130149
-0.05448567
0.10978269
-0.060821215
0.12424196
-0.067429616
-0.074316089
0.13952412
0.0002452388
0.0010203996
0.0023843736
0.0043957422
0.0071135598
0.010596346
0.014900497
0.020078366
0.026176008
0.033230687
0.041268266
0.050300652
0.060323434
0.071313785
0.083228472
0.096001356
0.10953867
0.12370147
0.1382229
0.15262854
-0.0034987526
-0.0019429823
-2.4372642e-10
-0.001274271
-0.0022244813
-2.9408733e-10
0.001209397
-0.0024836677
-3.6012653e-10
0.0038953357
-0.0026859382
-4.3963434e-10
0.006756748
-0.0028614117
-5.2965471e-10
0.0097763444
-0.0030195958
-6.2288458e-10
0.012935204
-0.0031588587
-7.2123087e-10
0.016215315
-0.0032801107
-8.1732133e-10
0.01960099
-0.0033856742
-9.0765428e-10
0.023078024
-0.003477033
-9.8854678e-10
0.026633146
-0.00355512
-1.0581739e-09
0.030253945
-0.0036207979
-1.1122367e-09
0.033928795
-0.0036748496
-1.1480158e-09
0.03764672
-0.0037179236
-1.1606387e-09
0.041397288
-0.0037505667
-1.1474655e-09
0.045170549
-0.0037732606
-1.1038925e-09
0.04895699
-0.0037864395
-1.0282509e-09
0.052747494
-0.003790503
-9.1653104e-10
0.056533326
-0.0037858314
-7.6799334e-10
0.060306123
-0.0037727966
-5.7910995e-10
0.064057895
-0.0037517714
-3.5069092e-10
0.067781031
-0.0037231355
-8.0496803e-11
0.07146831
-0.0036872797
2.274509e-10
0.075112917
-0.0036446079
5.7232554e-10
0.078708454
-0.0035955376
9.4357166e-10
0.082248952
-0.0035404989
1.3336825e-09
0.085728882
-0.003479932
1.7203185e-09
0.089143165
-0.003414285
2.0852402e-09
0.092487172
-0.0033440102
2.3899526e-09
0.09575673
-0.0032695603
2.6055058e-09
0.098948114
-0.0031913863
2.6802688e-09
0.10205804
-0.0031099333
2.587005e-09
0.10508368
-0.0030256387
2.2787053e-09
0.10802261
-0.0029389303
1.7593731e-09
0.11087283
-0.0028502257
1.0189036e-09
0.11363277
-0.0027599328
1.3273342e-10
0.11630122
-0.0026684514
-8.4497125e-10
0.1188774
-0.0025761763
-1.7462456e-09
0.12136091
-0.0024835067
-2.4697061e-09
0.12375176
-0.0023908466
-2.8021384e-09
0.12605041
-0.0022986532
-2.6913058e-09
0.12825777
-0.0022073521
-2.0536547e-09
0.13037552
-0.0021177571
-1.0265325e-09
0.13240543
-0.0020299104
1.8279521e-10
0.13435273
-0.0019473006
1.1473613e-09
0.13621673
-0.001863999
1.3241721e-09
0.13802452
-0.0018077936
1.6058028e-10
0.13973139
-0.0017068597
-2.4323349e-09
0.14154622
-0.0018148269
-7.5963053e-09
-0.0014814271
-1.2338738e-08
0.0028669552
-0.0037660484
0.0049668672
-0.0043243933
0.0073128357
-0.0048296362
0.0098424008
-0.0052155033
0.012534508
-0.0055535186
0.01537685
-0.0058619379
0.0183527
-0.0061347094
0.021445666
-0.0063730758
0.02464174
-0.0065817485
0.027928176
-0.0067634689
0.031292857
-0.0069198011
0.034724318
-0.0070522593
0.038211721
-0.0071622522
0.041744737
-0.0072509403
0.045313472
-0.0073193008
0.048908413
-0.0073682024
0.05252041
-0.007398436
0.056140645
-0.0074107387
0.059760634
-0.0074058195
0.063372218
-0.0073843809
0.06696758
-0.007347134
0.070539254
-0.0072948096
0.07408014
-0.0072281653
0.07758352
-0.0071479882
0.081043078
-0.0070550952
0.084452909
-0.00695033
0.087807536
-0.0068345587
0.091101914
-0.0067086639
0.094331442
-0.0065735377
0.097491956
-0.0064300749
0.10057974
-0.0062791664
0.1035915
-0.0061216931
0.10652438
-0.0059585209
0.10937595
-0.0057904978
0.11214417
-0.0056184518
0.11482743
-0.0054431925
0.11742449
-0.0052655143
0.11993452
-0.005086203
0.12235707
-0.0049060536
0.12469209
-0.0047258706
0.12694001
-0.0045465682
0.12910165
-0.0043689959
0.13117867
-0.0041947796
0.13317277
-0.0040240083
0.1350891
-0.0038636294
0.13692698
-0.0037018799
0.13871307
-0.0035938786
0.14040363
-0.0033974218
0.1422025
-0.0036136975
-0.0029603143
0.015044078
-0.0053399879
0.016878049
-0.0061583639
0.018934762
-0.0068863488
0.021144274
-0.0074250161
0.023494962
-0.0079042066
0.025983194
-0.0083501694
0.028596367
-0.0087478824
0.031321015
-0.0090977235
0.034146051
-0.0094067852
0.037061263
-0.0096786808
0.040056547
-0.0099150844
0.043122058
-0.010117771
0.046248293
-0.010288487
0.049426016
-0.010428663
0.05264622
-0.010539505
0.055900118
-0.010622101
0.059179148
-0.010677466
0.062474977
-0.010706568
0.065779517
-0.01071036
0.069084941
-0.010689805
0.072383704
-0.010645897
0.075668567
-0.010579673
0.07893262
-0.010492218
0.082169302
-0.01038467
0.085372425
-0.010258219
0.088536191
-0.010114096
0.091655202
-0.0099535704
0.094724479
-0.0097779408
0.097739461
-0.009588519
0.10069601
-0.0093866255
0.10359042
-0.0091735745
0.10641939
-0.008950668
0.10918006
-0.0087191875
0.11186995
-0.0084803885
0.114487
-0.0082354995
0.11702953
-0.007985722
0.11949625
-0.0077322377
0.12188627
-0.007476217
0.12419906
-0.007218846
0.12643452
-0.0069613276
0.12859298
-0.0067050302
0.13067521
-0.0064512282
0.13268279
-0.0062023546
0.13461734
-0.0059585621
0.13648389
-0.0057301758
0.13828185
-0.0054998434
0.14003693
-0.0053489644
0.14170773
-0.0050682174
0.14348756
-0.0053935248
-0.0044474477
0.032090263
-0.0065260257
0.033508414
-0.0075765147
0.035117121
-0.0084950558
0.03684341
-0.0091513054
0.038687981
-0.0097487779
0.040657154
-0.010319342
0.042743773
-0.010834502
0.044938332
-0.011292282
0.04723327
-0.011701723
0.049621377
-0.012066788
0.052094963
-0.012388671
0.054646092
-0.0126689
0.057266773
-0.012909168
0.059948985
-0.013110875
0.062684689
-0.013275209
0.065465867
-0.013403279
0.068284567
-0.013496165
0.071132942
-0.013554943
0.074003295
-0.013580712
0.076888112
-0.013574622
0.079780106
-0.013537891
0.082672245
-0.013471812
0.08555779
-0.013377763
0.088430323
-0.013257203
0.091283769
-0.013111664
0.094112419
-0.012942746
0.096910953
-0.012752104
0.09967444
-0.012541428
0.10239836
-0.012312437
0.10507859
-0.01206686
0.10771144
-0.011806421
0.1102936
-0.011532829
0.11282218
-0.011247769
0.11529469
-0.010952893
0.11770901
-0.01064982
0.12006342
-0.010340135
0.12235658
-0.010025401
0.12458753
-0.0097071668
0.12675569
-0.0093870062
0.12886088
-0.0090665196
0.13090338
-0.0087475285
0.13288389
-0.0084317347
0.13480391
-0.0081223722
0.13666503
-0.0078196844
0.13847211
-0.0075372521
0.14022477
-0.0072525053
0.14194736
-0.0070715604
0.14360196
-0.0067228103
0.14536669
-0.007158261
-0.0059588369
0.052692644
-0.0071691131
0.053536183
-0.0084200539
0.054533438
-0.009492311
0.055618749
-0.010236616
0.056806954
-0.010936983
0.058112366
-0.011624754
0.059533516
-0.012255651
0.061065552
-0.012824318
0.062704282
-0.013340453
0.064445126
-0.013807632
0.066282584
-0.014226129
0.068210406
-0.014596722
0.070221849
-0.01492061
0.072309833
-0.01519886
0.074467037
-0.015432413
0.076685973
-0.015622216
0.07895908
-0.015769272
0.081278795
-0.015874658
0.083637625
-0.015939543
0.086028208
-0.015965205
0.088443361
-0.015953044
0.090876133
-0.015904584
0.093319841
-0.015821471
0.095768107
-0.015705468
0.098214887
-0.015558445
0.1006545
-0.015382355
0.10308162
-0.015179231
0.10549135
-0.014951154
0.10787916
-0.014700243
0.11024092
-0.014428627
0.11257294
-0.014138437
0.11487189
-0.013831783
0.11713488
-0.013510751
0.11935936
-0.013177382
0.12154323
-0.012833682
0.12368471
-0.01248162
0.12578245
-0.012123134
0.12783543
-0.011760154
0.12984307
-0.011394641
0.13180514
-0.011028595
0.13372191
-0.010664293
0.13559404
-0.01030387
0.13742303
-0.0099513565
0.13921046
-0.0096071208
0.14096106
-0.0092878458
0.14267477
-0.008966215
0.14437429
-0.0087710825
0.14602613
-0.0083746474
0.14778962
-0.0089217544
-0.007517838
0.075273843
-0.0071007674
0.075381617
-0.0085278279
0.075608942
-0.0097196361
0.075912378
-0.010540052
0.076319992
-0.011344597
0.076848651
-0.012153413
0.077501407
-0.012908408
0.078278211
-0.013601122
0.07917739
-0.014239632
0.080195815
-0.014826057
0.081329261
-0.015359575
0.082572455
-0.015839916
0.083919233
-0.016267388
0.085362839
-0.016642466
0.086896121
-0.016965695
0.088511654
-0.017237748
0.090201849
-0.017459466
0.091959059
-0.017631868
0.093775677
-0.017756161
0.095644206
-0.017833734
0.097557323
-0.017866162
0.099507938
-0.017855199
0.10148924
-0.017802771
0.10349473
-0.017710955
0.10551825
-0.017581968
0.10755403
-0.017418136
0.10959668
-0.017221881
0.11164121
-0.016995687
0.11368305
-0.016742085
0.11571805
-0.016463619
0.11774244
-0.016162834
0.11975291
-0.015842254
0.12174653
-0.015504367
0.12372076
-0.015151618
0.12567349
-0.014786405
0.12760295
-0.014411085
0.1295078
-0.014027982
0.13138706
-0.013639411
0.13324014
-0.013247729
0.13506689
-0.012855344
0.1368676
-0.012464996
0.13864299
-0.012079268
0.14039461
-0.011702975
0.14212415
-0.011336661
0.14383624
-0.010999932
0.14553128
-0.01066126
0.14723017
-0.010469966
0.14890456
-0.010049044
0.15069258
-0.01070977
-0.0091566554
0.098081504
-0.0061761389
0.09731676
-0.0077630835
0.096643133
-0.0090460088
0.096061538
-0.0099584581
0.095608136
-0.010891194
0.09529417
-0.011839447
0.095125024
-0.012739261
0.09510472
-0.013580818
0.095232811
-0.014367724
0.095506051
-0.015099297
0.0959201
-0.015773624
0.096469568
-0.016389384
0.097147993
-0.016945813
0.097948165
-0.017442637
0.098862424
-0.017879954
0.099882827
-0.018258151
0.10100127
-0.018577905
0.10220959
-0.018840192
0.10349971
-0.019046278
0.10486367
-0.019197693
0.10629373
-0.019296225
0.10778243
-0.019343896
0.10932261
-0.019342949
0.11090747
-0.019295818
0.11253061
-0.019205104
0.11418602
-0.019073549
0.11586813
-0.018903996
0.11757182
-0.018699372
0.11929238
-0.018462649
0.12102558
-0.018196818
0.12276762
-0.017904868
0.12451512
-0.017589759
0.12626516
-0.017254409
0.12801523
-0.016901687
0.12976323
-0.016534406
0.13150747
-0.016155327
0.13324667
-0.015767178
0.13497994
-0.015372678
0.13670681
-0.014974598
0.13842723
-0.014575764
0.14014163
-0.0141794
0.14185091
-0.013788549
0.14355675
-0.013408818
0.14526106
-0.013040965
0.14696848
-0.012707347
0.14868
-0.012372781
0.15041464
-0.012204613
0.15214974
-0.011784136
0.15400097
-0.012561001
-0.010917075
0.11924475
-0.0043544371
0.11755429
-0.0060726155
0.11591707
-0.0074087919
0.11441703
-0.0084584169
0.11309042
-0.0095645826
0.11193476
-0.010683788
0.11095553
-0.011760036
0.11015904
-0.012784326
0.10954471
-0.013753395
0.10910797
-0.014662557
0.10884303
-0.015508681
0.10874324
-0.016289595
0.10880103
-0.017003605
0.10900812
-0.017649723
0.10935579
-0.018227632
0.10983515
-0.018737507
0.11043718
-0.01917994
0.11115292
-0.019555932
0.11197352
-0.019866873
0.11289033
-0.020114504
0.11389499
-0.020300888
0.11497948
-0.020428382
0.11613614
-0.020499607
0.11735773
-0.020517414
0.11863748
-0.020484851
0.11996905
-0.020405124
0.12134662
-0.020281564
0.12276484
-0.020117586
0.12421884
-0.019916654
0.12570428
-0.019682256
0.12721727
-0.019417864
0.12875444
-0.019126921
0.13031284
-0.018812815
0.13189003
-0.01847887
0.13348397
-0.018128349
0.13509309
-0.017764451
0.13671625
-0.017390336
0.13835273
-0.017009154
0.14000224
-0.016624113
0.14166497
-0.016238491
0.14334158
-0.01585601
0.14503323
-0.0154802
0.14674188
-0.015117466
0.14846974
-0.014768828
0.15022161
-0.01445922
0.15199919
-0.014150358
0.15381969
-0.014025119
0.15566633
-0.013630772
0.15763227
-0.01452694
-0.012850354
0.13694663
-0.0017769454
0.13443036
-0.0035563409
0.13187372
-0.0048521533
0.12951878
-0.0061034821
0.12739275
-0.007438549
0.12547701
-0.0087680452
0.1237744
-0.01005743
0.12229003
-0.011299959
0.12102237
-0.012485734
0.11996567
-0.01360585
0.11911243
-0.01465544
0.11845433
-0.015631495
0.11798239
-0.016531672
0.11768712
-0.017354451
0.11755867
-0.01809918
0.11758705
-0.018765888
0.11776228
-0.019355165
0.11807446
-0.019868114
0.1185139
-0.020306315
0.11907119
-0.020671789
0.11973724
-0.02096694
0.12050338
-0.021194524
0.12136139
-0.021357613
0.12230351
-0.021459537
0.12332252
-0.02150386
0.12441172
-0.021494322
0.12556495
-0.021434798
0.12677663
-0.021329259
0.1280417
-0.021181726
0.12935568
-0.020996237
0.13071462
-0.02077681
0.13211512
-0.02052742
0.13355428
-0.020251977
0.13502973
-0.01995431
0.13653955
-0.019638176
0.13808235
-0.019307252
0.13965719
-0.018965176
0.1412636
-0.018615559
0.14290157
-0.018262086
0.1445716
-0.017908516
0.14627469
-0.017559102
0.14801238
-0.017217888
0.14978701
-0.016892096
0.15160123
-0.016583051
0.15346012
-0.016318107
0.15536616
-0.016056402
0.15733491
-0.015993868
0.15935556
-0.015651423
0.16149917
-0.016670544
-0.015016275
0.15009397
0.00075762205
0.1468064
-0.00026877483
0.1435107
-0.0015564492
0.14046473
-0.0030575132
0.13767182
-0.0046456354
0.13512572
-0.0062219468
0.13282829
-0.0077600032
0.13077964
-0.0092513025
0.12897733
-0.010683424
0.12741618
-0.012044703
0.12608839
-0.013327652
0.12498458
-0.01452768
0.12409458
-0.015641675
0.12340776
-0.016667635
0.12291317
-0.017604587
0.12259971
-0.018452433
0.12245635
-0.019211803
0.1224722
-0.019883962
0.12263664
-0.020470751
0.12293937
-0.020974528
0.12337055
-0.021398114
0.12392076
-0.021744739
0.12458114
-0.022017991
0.12534337
-0.022221767
0.12619973
-0.022360216
0.12714309
-0.022437688
0.12816698
-0.022458683
0.12926552
-0.0224278
0.13043348
-0.022349689
0.13166625
-0.02222901
0.13295984
-0.022070394
0.13431083
-0.021878414
0.13571641
-0.021657558
0.13717433
-0.021412226
0.13868287
-0.021146715
0.14024085
-0.020865237
0.14184762
-0.020571946
0.14350303
-0.020270967
0.14520744
-0.019966497
0.14696174
-0.019662814
0.14876738
-0.019364739
0.15062635
-0.019076858
0.15254149
-0.018807239
0.15451596
-0.018557519
0.15655527
-0.018357414
0.15866259
-0.01816373
0.1608525
-0.018183776
0.16311835
-0.017917273
0.16551479
-0.019066987
-0.017479019
0.1889717
0.0053570579
-0.19357114
0.18516424
0.0035386862
0.18177485
0.0018329405
0.1786325
8.4837909e-05
0.17569984
-0.0017129756
0.17295185
-0.0034739544
0.17037031
-0.0051784713
0.16794627
-0.0068272542
0.16567584
-0.0084129937
0.16355688
-0.0099257513
0.16158757
-0.011358338
0.1597658
-0.012705912
0.15808896
-0.013964831
0.15655377
-0.015132447
0.15515634
-0.016207159
0.15389223
-0.017188321
0.15275653
-0.01807611
0.151744
-0.018871423
0.15084907
-0.019575823
0.15006601
-0.020191472
0.14938897
-0.020721072
0.14881204
-0.021167805
0.14832932
-0.021535272
0.14793499
-0.021827438
0.14762334
-0.02204857
0.14738883
-0.022203176
0.1472261
-0.022295952
0.14713002
-0.022331718
0.1470957
-0.022315376
0.14711855
-0.022251851
0.14719421
-0.022146057
0.14731865
-0.022002858
0.14748814
-0.021827046
0.14769924
-0.021623325
0.14794883
-0.021396302
0.1482341
-0.021150505
0.14855255
-0.020890404
0.14890204
-0.02062045
0.14928071
-0.020345176
0.14968711
-0.020069205
0.15012012
-0.019797753
0.15057904
-0.01953578
0.15106374
-0.019291942
0.15157437
-0.019068141
0.15211254
-0.018895585
0.15267862
-0.01872981
0.15327969
-0.018784848
0.15390899
-0.018546577
0.15460133
-0.019759326
-0.018184451
0.21691849
0.008752749
-0.22031418
0.21344737
0.0070098079
0.21023736
0.0050429537
0.20713496
0.0031872356
0.2040914
0.001330585
0.20113764
-0.0005201956
0.19829058
-0.0023314133
0.19555475
-0.0040914261
0.19293607
-0.0057943114
0.19044138
-0.0074310642
0.18807591
-0.0089928655
0.18584307
-0.010473073
0.18374489
-0.011866644
0.18178207
-0.013169634
0.17995412
-0.01437921
0.17825944
-0.015493641
0.17669552
-0.016512183
0.17525906
-0.017434966
0.17394616
-0.018262922
0.1727524
-0.018997711
0.17167298
-0.019641649
0.17070281
-0.020197635
0.16983662
-0.020669086
0.16906904
-0.021059862
0.16839467
-0.021374199
0.16780814
-0.021616642
0.16730416
-0.021791977
0.16687761
-0.021905166
0.16652352
-0.021961289
0.16623716
-0.021965484
0.16601401
-0.021922909
0.16584984
-0.021838691
0.1657407
-0.021717904
0.16568292
-0.021565545
0.16567315
-0.02138653
0.16570834
-0.021185701
0.16578579
-0.02096785
0.1659031
-0.020737765
0.16605825
-0.020500324
0.16624957
-0.020260517
0.16647577
-0.020023952
0.166736
-0.019796019
0.16702992
-0.019585859
0.16735774
-0.019395956
0.16772025
-0.019258097
0.16811942
-0.019128977
0.16855656
-0.019221994
0.16903871
-0.019028725
0.16955692
-0.020277536
-0.018774285
0.24382331
0.011474211
-0.24654477
0.2409755
0.0098576119
0.23812498
0.0078934737
0.23528084
0.0060313782
0.23240601
0.0042054109
0.22952132
0.0023644997
0.22665798
0.00053192951
0.2238353
-0.0012687475
0.22106922
-0.0030282309
0.21837569
-0.0047375328
0.21576858
-0.0063857595
0.21325892
-0.0079634116
0.21085533
-0.00946306
0.20856441
-0.010878711
0.20639081
-0.012205608
0.20433744
-0.01344027
0.20240569
-0.01458043
0.20059563
-0.015624908
0.19890622
-0.016573511
0.19733546
-0.017426958
0.1958806
-0.018186784
0.19453822
-0.018855259
0.19330444
-0.019435305
0.19217499
-0.019930409
0.19114533
-0.020344544
0.19021078
-0.020682087
0.18936655
-0.020947743
0.18860785
-0.021146467
0.18792996
-0.021283398
0.18732826
-0.02136379
0.18679831
-0.021392961
0.18633586
-0.02137624
0.18593689
-0.021318935
0.18559765
-0.021226304
0.18531467
-0.021103546
0.18508477
-0.020955804
0.18490511
-0.02078819
0.18477317
-0.020605824
0.18468678
-0.020413937
0.18464416
-0.020217896
0.18464391
-0.020023699
0.1846851
-0.019837211
0.1847672
-0.01966796
0.18489056
-0.019519312
0.18505514
-0.01942268
0.18526464
-0.019338478
0.18551411
-0.019471459
0.1858257
-0.019340318
0.18614068
-0.020592514
-0.019225451
0.26932554
0.013505025
-0.27135635
0.26715978
0.012023374
0.2648204
0.010232851
0.26238369
0.0084680902
0.25985762
0.006731479
0.25725238
0.0049697425
0.25459408
0.0031902222
0.25190692
0.0014184155
0.24921089
-0.00033220596
0.24652583
-0.0020524708
0.24387104
-0.0037309651
0.24126366
-0.0053560368
0.23871846
-0.0069178526
0.23624793
-0.0084081844
0.2338624
-0.0098200831
0.23157007
-0.011147938
0.22937715
-0.012387505
0.22728806
-0.01353582
0.22530565
-0.014591101
0.22343135
-0.015552661
0.22166539
-0.016420822
0.22000695
-0.017196816
0.21845433
-0.017882694
0.21700515
-0.018481229
0.21565643
-0.018995822
0.21440476
-0.019430411
0.21324639
-0.019789377
0.21217738
-0.020077459
0.21119366
-0.020299674
0.2102911
-0.020461236
0.20946564
-0.020567498
0.20871329
-0.020623885
0.2080302
-0.020635853
0.20741276
-0.020608856
0.20685753
-0.020548324
0.2063614
-0.020459667
0.2059215
-0.02034829
0.2055353
-0.020219631
0.20520063
-0.020079267
0.20491568
-0.019932941
0.20467902
-0.019787036
0.20448973
-0.01964792
0.20434718
-0.019525419
0.20425189
-0.019424016
0.20420316
-0.019373949
0.20420609
-0.019341409
0.20425032
-0.019515688
0.20437075
-0.01946075
0.2044635
-0.020685269
-0.019514375
0.29303039
0.014834534
-0.29435989
0.29155289
0.013500868
0.28983229
0.011953459
0.28793567
0.010364705
0.28589794
0.0087692091
0.28372992
0.007137759
0.28145004
0.005470107
0.27908154
0.0037869113
0.27664575
0.0021035862
0.27416282
0.00043045626
0.27165298
-0.0012211212
0.26913597
-0.0028390288
0.26663014
-0.0044120241
0.26415211
-0.0059301488
0.26171663
-0.0073846048
0.2593365
-0.0087678092
0.25702251
-0.010073517
0.25478352
-0.011296826
0.25262654
-0.012434119
0.25055688
-0.013483008
0.24857833
-0.014442264
0.24669324
-0.015311734
0.2449028
-0.016092246
0.24320709
-0.016785518
0.24160532
-0.017394052
0.24009594
-0.01792104
0.23867683
-0.018370259
0.23734535
-0.018745979
0.23609854
-0.019052867
0.2349332
-0.0192959
0.23384599
-0.019480289
0.23283352
-0.019611407
0.2318924
-0.019694738
0.23101937
-0.019735827
0.2302113
-0.019740256
0.22946527
-0.019713635
0.2287786
-0.019661616
0.22814889
-0.019589923
0.22757407
-0.019504449
0.22705243
-0.019411304
0.22658264
-0.019317238
0.22616385
-0.019229133
0.22579547
-0.019157042
0.22547816
-0.019106705
0.22521081
-0.019106594
0.2249995
-0.0191301
0.22482966
-0.019345843
0.2247457
-0.019376799