/*--------------------------------*- C++ -*----------------------------------*\
  =========                 |
  \\      /  F ield         | OpenFOAM: The Open Source CFD Toolbox
   \\    /   O peration     | Website:  https://openfoam.org
    \\  /    A nd           | Version:  6
     \\/     M anipulation  |
\*---------------------------------------------------------------------------*/
FoamFile
{
    version     2.0;
    format      ascii;
    class       volVectorField;
    location    "80";
    object      U;
}
// * * * * * * * * * * * * * * * * * * * * * * * * * * * * * * * * * * * * * //

dimensions      [0 1 -1 0 0 0 0];

internalField   nonuniform List<vector> 
9200
(
(0.0010418788 0.0014186353 -5.9221398e-20)
(0.013687053 -0.0020642021 4.6060087e-20)
(0.038336975 -0.0058767837 -3.8515624e-20)
(0.072314561 -0.0097781526 -6.0278598e-20)
(0.11382406 -0.013509221 1.8834478e-20)
(0.16166182 -0.016629449 3.2755981e-20)
(0.214776 -0.018845699 -1.2273284e-20)
(0.27219564 -0.020006957 9.2729635e-21)
(0.33301172 -0.020049002 1.6808957e-20)
(0.39634517 -0.018971649 1.4853665e-21)
(0.46132307 -0.016827397 -2.1465167e-20)
(0.52706907 -0.013710533 2.0678882e-20)
(0.59270576 -0.0097463316 -4.0438501e-20)
(0.65736672 -0.0050800302 -2.1144007e-20)
(0.7202173 0.000134929 5.9073141e-21)
(0.78048107 0.0057465681 -2.514535e-20)
(0.83748601 0.011627827 2.5232507e-20)
(0.89078912 0.01782542 2.226378e-20)
(0.93999164 0.024471627 -2.9531931e-22)
(0.98236981 0.028183539 -1.6641124e-21)
(0.0052564775 -0.001348596 -1.7064959e-20)
(0.026978776 -0.008997274 3.9761877e-20)
(0.061702819 -0.014823181 2.3584713e-20)
(0.10634749 -0.01919046 -1.1573486e-19)
(0.15881089 -0.022236758 -1.273181e-20)
(0.2176335 -0.023747834 7.3320114e-20)
(0.28149918 -0.023626491 -3.5488583e-20)
(0.34915923 -0.021904541 -8.3933872e-21)
(0.41941941 -0.018685309 3.43001e-20)
(0.49111582 -0.014124969 -4.3276597e-20)
(0.56310322 -0.0084246709 -3.035196e-20)
(0.63426143 -0.0018202697 7.195687e-20)
(0.70351512 0.0054292945 3.8312593e-20)
(0.76986267 0.01305355 -6.8013964e-20)
(0.83241006 0.0207804 1.4633037e-20)
(0.89040416 0.028340781 -3.6756527e-20)
(0.94327452 0.03548288 -1.3783978e-20)
(0.9907347 0.042045618 7.1029615e-20)
(1.0326513 0.047611229 2.9675299e-20)
(1.06722 0.049027806 -8.3513832e-20)
(0.010864857 -0.0040455821 3.6784478e-20)
(0.043975881 -0.015441281 2.5054198e-21)
(0.090558236 -0.022568096 2.2349826e-20)
(0.14717774 -0.026517935 9.8146398e-22)
(0.21143476 -0.027911131 -4.0789028e-20)
(0.2815873 -0.026823821 1.8581527e-20)
(0.35601812 -0.023415058 1.3425238e-20)
(0.43316564 -0.017957407 -5.0345404e-20)
(0.511527 -0.010775152 5.7283546e-20)
(0.58965289 -0.0022272808 1.4263894e-20)
(0.66615742 0.0073001718 -5.4326899e-20)
(0.73974635 0.017407615 -1.8248481e-20)
(0.80925532 0.027698307 9.0575556e-21)
(0.87369061 0.037794648 2.3459176e-20)
(0.93226538 0.047352281 -1.1371184e-20)
(0.98442452 0.056069347 2.7895687e-20)
(1.0298596 0.063701058 -2.0200117e-20)
(1.0685411 0.07010729 -7.0174967e-20)
(1.1005967 0.075013112 -2.3816397e-20)
(1.1251619 0.076526709 4.8684025e-20)
(0.017966129 -0.0064259694 2.4514823e-20)
(0.06480645 -0.020706315 5.105447e-20)
(0.12490613 -0.028077989 1.9887401e-20)
(0.19455057 -0.030485576 1.2992846e-20)
(0.27105892 -0.029119974 1.7280262e-20)
(0.35238775 -0.024417232 -4.7734991e-20)
(0.43659927 -0.016857093 -2.5655534e-20)
(0.5218154 -0.0070106745 0)
(0.60624916 0.0045298688 1.3930161e-20)
(0.68822864 0.017170898 -5.8586873e-21)
(0.76623384 0.030328709 -9.79813e-20)
(0.83894539 0.043449193 -1.5779873e-20)
(0.90529334 0.05603003 6.5143414e-20)
(0.96449589 0.067640487 4.7964886e-22)
(1.0160811 0.077936171 -1.5735686e-21)
(1.0598863 0.086666669 2.1972013e-20)
(1.0960379 0.093683035 -5.2694155e-21)
(1.1249279 0.098966799 -6.1070682e-20)
(1.1470983 0.10248924 -4.5885365e-20)
(1.1625144 0.10329744 6.9557539e-20)
(0.026591122 -0.0082098568 -3.9201229e-21)
(0.089381058 -0.02404551 -5.1268491e-21)
(0.164373 -0.030282165 5.6614795e-20)
(0.24767691 -0.029830794 1.8544086e-20)
(0.3363682 -0.024536522 -3.1964353e-20)
(0.4281082 -0.015265584 1.2167395e-20)
(0.52065819 -0.0028791983 2.6412336e-21)
(0.61187486 0.011706895 3.3623753e-20)
(0.69978019 0.027606998 5.6624905e-21)
(0.7826185 0.04399184 -1.321358e-20)
(0.85891599 0.060105993 6.0191597e-20)
(0.92753744 0.075292842 -5.8037241e-20)
(0.98772624 0.089018266 -1.3224239e-19)
(1.039119 0.10088651 -5.5807008e-21)
(1.0817308 0.11064592 8.3204572e-20)
(1.1159131 0.11818373 0)
(1.1422895 0.12351614 1.012469e-20)
(1.1616874 0.12679156 -1.546997e-20)
(1.1750239 0.12819071 -8.6054607e-21)
(1.1828592 0.12733283 2.1004216e-20)
(0.036681618 -0.0090937644 -5.4311211e-21)
(0.11736005 -0.024696879 4.3589823e-21)
(0.20819584 -0.028155943 -8.7652031e-21)
(0.30526707 -0.023433219 2.8479838e-20)
(0.4054777 -0.013095502 -2.9401771e-20)
(0.50624412 0.0015013752 -1.6932736e-20)
(0.6051047 0.019072397 3.737413e-20)
(0.69977225 0.038340389 4.7600925e-21)
(0.78824429 0.058139689 -2.4451763e-20)
(0.86888651 0.077450761 6.9901653e-20)
(0.94049853 0.095420823 5.1967165e-22)
(1.0023553 0.11138693 -8.0492933e-20)
(1.0542127 0.12489037 0)
(1.0962752 0.13567624 3.9568325e-20)
(1.1291293 0.14367795 5.5275194e-21)
(1.1536522 0.14898906 -7.7614215e-20)
(1.1709098 0.15183001 -1.959885e-20)
(1.1820592 0.15252568 -1.2475267e-20)
(1.1882428 0.15141978 -1.4718733e-20)
(1.1903172 0.14847104 4.0444759e-20)
(0.048076695 -0.0087712034 -1.728112e-20)
(0.14813595 -0.021941968 -2.2226712e-21)
(0.25522912 -0.02081068 3.038702e-20)
(0.36558709 -0.010426799 3.7492064e-20)
(0.47606018 0.0058870587 -1.9950334e-20)
(0.58392792 0.026254222 -6.918768e-20)
(0.68665179 0.048960959 -2.8008672e-20)
(0.78199114 0.072399296 7.8962648e-20)
(0.86814421 0.095190361 8.5849976e-21)
(0.94383845 0.11622237 -2.4883639e-20)
(1.0083764 0.13466445 1.3645447e-20)
(1.061634 0.14997391 -4.3233395e-21)
(1.1040086 0.1618862 0)
(1.1363262 0.1703846 2.7218727e-20)
(1.1597211 0.17565397 -7.9367611e-20)
(1.1755054 0.17802532 -3.1493535e-20)
(1.1850473 0.17792098 8.110117e-20)
(1.1896699 0.17581419 -4.3004798e-21)
(1.1905692 0.17215297 3.5578395e-21)
(1.1886637 0.1670837 2.7128814e-20)
(0.060506174 -0.0069603404 -3.2420308e-20)
(0.18083812 -0.015177717 -8.1644013e-20)
(0.303988 -0.007591991 2.5771132e-21)
(0.42656023 0.0096951998 7.0182056e-20)
(0.54551842 0.032623922 6.2443809e-20)
(0.65817529 0.058812389 -7.1595442e-20)
(0.76212458 0.086167681 -2.7912686e-22)
(0.8554137 0.11284074 8.556331e-20)
(0.93669278 0.13736232 4.8850256e-20)
(1.0052832 0.15867146 -5.4246638e-20)
(1.0611745 0.17610575 -9.2381692e-20)
(1.1049562 0.18937493 -3.1606323e-21)
(1.1376979 0.19851147 4.2150069e-20)
(1.1607976 0.20380107 -6.6093216e-21)
(1.1758226 0.20570339 -1.287547e-20)
(1.1843631 0.20477361 1.9700484e-20)
(1.1879164 0.20159534 4.3904323e-20)
(1.1878082 0.19673503 -4.3882403e-20)
(1.1851484 0.1906816 -1.0237938e-19)
(1.1807693 0.18367082 2.4582913e-20)
(0.073561062 -0.0034346894 -3.4988677e-20)
(0.21429407 -0.0039926891 -1.7391721e-19)
(0.35262408 0.0118366 8.2128811e-20)
(0.48577173 0.037017353 9.2795231e-20)
(0.61102853 0.066835961 5.7987996e-20)
(0.72596673 0.09848179 8.6140675e-21)
(0.82856534 0.12959603 -1.0628053e-19)
(0.91741818 0.1582382 0)
(0.99185997 0.18301809 -6.8784417e-20)
(1.0519832 0.2030947 -1.5211144e-20)
(1.0985637 0.21812261 5.473047e-20)
(1.132917 0.22817542 1.0979156e-20)
(1.1567163 0.23364754 -4.5636605e-20)
(1.1718003 0.23514495 -4.9105404e-20)
(1.1800022 0.23337995 2.4300618e-20)
(1.1830157 0.22908172 4.4846853e-20)
(1.1823093 0.22293112 -5.5629792e-20)
(1.1790872 0.21552314 -1.0756689e-19)
(1.1742898 0.20733161 -3.1512656e-21)
(1.1685923 0.19862325 2.7060387e-20)
(0.086676877 0.0019613438 -3.5478375e-21)
(0.24703307 0.011817559 8.793417e-20)
(0.39896177 0.037496298 -1.6470437e-20)
(0.54055476 0.071225552 -8.4340097e-20)
(0.66967817 0.1077981 4.5180289e-20)
(0.78442037 0.14412469 4.9188865e-20)
(0.88340443 0.17776372 5.5380562e-21)
(0.96600079 0.20688732 -9.9544752e-20)
(1.0323992 0.23038372 -2.5060357e-21)
(1.0835515 0.24780286 5.0527982e-20)
(1.121018 0.25924093 5.9884261e-21)
(1.1467568 0.26520431 -1.9726846e-20)
(1.1629007 0.26646378 -7.5740636e-20)
(1.1715554 0.26391556 -6.2576857e-21)
(1.1746445 0.25846533 4.3553647e-20)
(1.1738134 0.25094455 3.7039171e-20)
(1.1703881 0.24206117 1.9801377e-20)
(1.1653822 0.23238038 -5.3024985e-20)
(1.1595363 0.22232094 1.2958516e-20)
(1.1533536 0.21215045 8.2697942e-20)
(-0.0012937754 0.0014352307 -1.1234639e-21)
(-0.0047477838 0.0031885977 2.0653527e-21)
(-0.01077532 0.0041373532 8.8098086e-22)
(-0.017760578 0.0045410308 -2.4408108e-21)
(-0.024748768 0.0045668095 -1.4130422e-21)
(-0.031309873 0.004327228 1.547499e-21)
(-0.037173012 0.0039044536 -6.8747308e-21)
(-0.042160039 0.0033583131 -5.9611874e-21)
(-0.04617075 0.0027316111 1.1179262e-20)
(-0.049158982 0.0020546689 -9.7491277e-21)
(-0.051112683 0.001348721 -1.9833562e-22)
(-0.052041113 0.00062839971 3.6700178e-21)
(-0.051966432 -9.6380232e-05 -6.3329413e-22)
(-0.050917966 -0.00081891731 2.2835085e-20)
(-0.048928595 -0.0015343579 3.0400919e-22)
(-0.046034206 -0.0022382455 -4.0914082e-20)
(-0.042275999 -0.0029259309 7.5448955e-21)
(-0.037692238 -0.0035953276 2.3883161e-20)
(-0.032291288 -0.0042449375 -4.3888645e-20)
(-0.026132531 -0.0048267296 -2.7762765e-20)
(-0.0016528294 0.0041824948 -5.3742847e-21)
(-0.0053994445 0.0092715104 1.0868604e-20)
(-0.011222383 0.012011564 -1.0196125e-20)
(-0.017663838 0.01315799 3.9264371e-21)
(-0.023863893 0.013199315 4.8161229e-21)
(-0.029441996 0.012466005 7.1375194e-22)
(-0.034161697 0.011199466 -2.252442e-20)
(-0.037869868 0.0095753714 -2.0382756e-21)
(-0.040483276 0.0077193729 2.0176314e-20)
(-0.04196673 0.0057204373 -5.0505816e-21)
(-0.042314904 0.0036408136 -2.1776901e-20)
(-0.04154073 0.0015233283 4.9005752e-21)
(-0.03966781 -0.00060310089 2.2650175e-20)
(-0.03672512 -0.0027190505 1.0315624e-20)
(-0.032743218 -0.0048105636 2.1870663e-20)
(-0.02775467 -0.0068650652 -1.9785434e-20)
(-0.021803745 -0.0088695594 -2.1689244e-20)
(-0.014937779 -0.010817452 2.1202269e-20)
(-0.0070920837 -0.012694217 2.6831783e-20)
(0.0019209241 -0.01433442 1.5866603e-20)
(-0.0023042532 0.0065627035 -4.3589765e-21)
(-0.0065413916 0.014485275 -5.6400173e-21)
(-0.011895749 0.018716705 3.0710113e-22)
(-0.017215886 0.020434427 1.0951481e-21)
(-0.021824584 0.020405978 6.6954305e-21)
(-0.025436515 0.019156255 1.0670841e-20)
(-0.027882041 0.017069479 -3.7250258e-21)
(-0.029056659 0.014425336 -1.8907206e-20)
(-0.028910211 0.011424083 6.5452658e-21)
(-0.027429174 0.0082076646 1.2870394e-20)
(-0.024621919 0.0048754317 5.838326e-21)
(-0.02050949 0.0014956636 1.8170091e-20)
(-0.015119602 -0.0018857982 1.7307257e-21)
(-0.0084822702 -0.0052386808 -3.3886567e-20)
(-0.00062599608 -0.0085416905 1.203702e-21)
(0.0084207465 -0.011775998 -2.2152999e-20)
(0.018606533 -0.014923965 -2.4485415e-20)
(0.029862901 -0.01797678 4.5855495e-20)
(0.042378026 -0.020881458 2.5370491e-20)
(0.056825871 -0.023277353 1.2413022e-22)
(-0.0031300634 0.0083719645 -5.2859964e-21)
(-0.0078987116 0.01834258 -8.4883325e-21)
(-0.012442054 0.023595067 4.3610955e-21)
(-0.016029659 0.025616853 4.1484996e-21)
(-0.01823738 0.025389006 2.0114609e-21)
(-0.01891335 0.023594036 7.3252134e-21)
(-0.017982819 0.020733004 9.317655e-21)
(-0.015411233 0.017170802 -1.3519009e-21)
(-0.011196969 0.013169183 -1.1488309e-20)
(-0.0053594896 0.0089140388 -2.9088626e-20)
(0.0020706215 0.0045355997 6.2246003e-23)
(0.011056928 0.0001233532 4.0721899e-20)
(0.021561736 -0.0042632063 -1.8393426e-20)
(0.033547674 -0.0085853235 -1.2303744e-20)
(0.046981908 -0.012816967 5.5275216e-22)
(0.061834361 -0.016937176 3.2324532e-20)
(0.078041471 -0.020931125 -1.4841763e-20)
(0.095496209 -0.024797223 -5.3375939e-20)
(0.11451934 -0.028418172 4.5796785e-20)
(0.13648572 -0.031116006 3.3036785e-20)
(-0.0039715992 0.0094688809 -6.8772124e-22)
(-0.009093899 0.020493999 -1.2540219e-20)
(-0.012366533 0.026166314 -3.4161898e-20)
(-0.013553233 0.02815019 -5.7277206e-21)
(-0.012531371 0.027560493 -3.6233537e-21)
(-0.00931109 0.025191478 6.3083704e-21)
(-0.0039350214 0.02162824 -4.6486643e-21)
(0.0035429871 0.017296818 -8.8113816e-21)
(0.013061189 0.012503337 2.1910736e-20)
(0.024554427 0.0074655003 5.0588681e-21)
(0.037958878 0.0023362082 -2.5305029e-20)
(0.053212307 -0.0027794481 1.1083833e-20)
(0.070254644 -0.00781172 0)
(0.089028683 -0.012716549 1.2096526e-20)
(0.10948328 -0.017466797 -9.7073617e-21)
(0.13157241 -0.022044656 -1.4346499e-20)
(0.15520762 -0.02644856 -1.5720155e-21)
(0.180221 -0.030704809 -2.2207097e-21)
(0.20702799 -0.034627695 4.6173817e-20)
(0.23786203 -0.037076614 -1.0481054e-20)
(-0.0046463079 0.0097837989 -7.5385666e-21)
(-0.0096790362 0.020753367 2.4527828e-20)
(-0.011064788 0.026167016 -1.0504752e-20)
(-0.0090941562 0.027729619 -2.7481852e-20)
(-0.0039723724 0.026604975 -2.7559924e-20)
(0.0041097478 0.023649049 -1.492845e-20)
(0.014975454 0.019493909 -6.9091792e-22)
(0.028466793 0.014598548 5.5523498e-21)
(0.044444477 0.0092933453 1.9624501e-20)
(0.062784121 0.0038140871 7.3565536e-21)
(0.083371761 -0.0016735635 -7.1894638e-21)
(0.10610176 -0.0070557647 -2.0104473e-21)
(0.1308732 -0.012257573 -3.8211558e-20)
(0.15758737 -0.01723341 -1.2700369e-20)
(0.18614964 -0.02195881 1.8762477e-20)
(0.21647043 -0.026424457 -2.1034753e-20)
(0.2484131 -0.030652895 -8.9783819e-21)
(0.28172273 -0.03472754 3.0456218e-20)
(0.31683509 -0.038428403 5.0500072e-20)
(0.35690436 -0.040034222 3.3582338e-21)
(-0.0049628002 0.0093164039 1.678931e-20)
(-0.0091670567 0.019101711 1.4473209e-20)
(-0.0078572745 0.023567169 5.1166844e-20)
(-0.0018513612 0.024331231 2.3398462e-20)
(0.008309971 0.022523568 1.8260072e-22)
(0.022245136 0.019010942 -3.9405562e-20)
(0.039631394 0.014433729 -2.4324523e-20)
(0.060194369 0.0092549717 1.047004e-20)
(0.083699803 0.0038073234 1.4407708e-20)
(0.10994327 -0.0016720068 -1.311862e-20)
(0.1387397 -0.007016776 -4.4059032e-20)
(0.16991481 -0.012113912 2.9632615e-20)
(0.20329762 -0.016890751 2.0029285e-20)
(0.23871479 -0.02130634 -2.7564765e-20)
(0.27599051 -0.025344721 1.1656598e-20)
(0.31495008 -0.029011676 2.4210253e-20)
(0.35537182 -0.032363969 8.0773114e-21)
(0.3968849 -0.035574274 -1.1772173e-20)
(0.4398525 -0.038467357 -1.4195953e-20)
(0.48828591 -0.038716355 5.8823652e-21)
(-0.0047313794 0.0081253019 1.1098222e-20)
(-0.0070577101 0.01567309 -2.3363641e-20)
(-0.0020237465 0.018562777 8.6223025e-21)
(0.0090455386 0.018214683 3.3602261e-20)
(0.025279121 0.015646456 5.2145605e-20)
(0.046101016 0.011687122 2.0284761e-20)
(0.071033164 0.0069482082 -5.8665896e-21)
(0.099666476 0.0018655755 -1.229076e-20)
(0.13165116 -0.0032495057 -6.2088055e-21)
(0.16667726 -0.008177154 3.4255116e-20)
(0.20445674 -0.012766238 -4.5134857e-21)
(0.24470957 -0.016917745 -1.6651272e-20)
(0.28715275 -0.020573097 -1.9701784e-20)
(0.33149219 -0.023706883 -4.7466295e-20)
(0.37742143 -0.026322264 2.3249826e-20)
(0.42462926 -0.028451042 -1.4103314e-20)
(0.47276567 -0.030197411 2.6008345e-20)
(0.52132565 -0.031859755 2.1052489e-20)
(0.57052541 -0.03343441 -8.5607152e-20)
(0.62504148 -0.032150194 -1.0592315e-22)
(-0.0037709387 0.0063153305 2.1932876e-20)
(-0.0028624102 0.010734527 -2.6176668e-20)
(0.0071524409 0.011561297 -4.5030631e-20)
(0.024470605 0.0099190512 -2.7264625e-20)
(0.047903899 0.0066425996 -2.0447768e-21)
(0.076676825 0.002476655 1.3054395e-20)
(0.11014211 -0.0020339718 -2.8342448e-21)
(0.14773667 -0.0065113731 1.8125097e-20)
(0.18896654 -0.010692094 8.8714025e-21)
(0.23338001 -0.014396334 -1.1384456e-20)
(0.28054322 -0.017508374 8.8826967e-21)
(0.33002228 -0.019961933 -2.391323e-20)
(0.38137002 -0.021729724 8.0550987e-21)
(0.43411703 -0.022817008 1.6764379e-20)
(0.48776998 -0.023257754 -2.6407755e-21)
(0.54182117 -0.023116875 1.6625432e-21)
(0.59573122 -0.022546127 -3.1906487e-22)
(0.64883319 -0.021953583 1.9600786e-20)
(0.70115435 -0.021535602 4.045392e-21)
(0.7577967 -0.018597304 -5.8423855e-22)
(-0.0019098698 0.0040270254 2.3701298e-20)
(0.0038761138 0.0046733043 5.7183254e-20)
(0.020331652 0.0031813718 -4.9262636e-20)
(0.045207623 0.00028399218 -9.9491488e-21)
(0.077010315 -0.0034388381 2.0263309e-20)
(0.11475971 -0.0073728102 2.1441218e-21)
(0.15762281 -0.011078919 -2.9825454e-20)
(0.20485463 -0.014272996 6.9867237e-21)
(0.25577962 -0.016771818 7.1131538e-21)
(0.3097597 -0.01846602 -2.6264419e-20)
(0.36616687 -0.019304491 1.2934451e-21)
(0.42436544 -0.019281777 -3.7189947e-20)
(0.48370178 -0.018427852 -3.6357568e-20)
(0.54350018 -0.016799931 6.5715698e-20)
(0.60306463 -0.014475266 5.5657356e-21)
(0.66168494 -0.011550505 -1.5198744e-20)
(0.7186206 -0.0081836205 1.9373885e-20)
(0.77302507 -0.0046816848 -9.1936321e-22)
(0.82442388 -0.0010644738 2.0369617e-20)
(0.87656005 0.0042235306 -1.957076e-20)
(-0.018803332 -0.00510577 5.8403823e-20)
(-0.010180995 -0.0056416561 1.5796875e-20)
(-0.00016528227 -0.0060762565 -3.517093e-20)
(0.010892946 -0.0063420404 1.6807179e-20)
(0.022727487 -0.0065205007 0)
(0.035279753 -0.0066390554 0)
(0.048490012 -0.0067004311 -2.2998788e-20)
(0.062278603 -0.0067124677 -1.6520025e-20)
(0.07657517 -0.006684553 1.9144836e-20)
(0.091320272 -0.0066234776 1.8195175e-20)
(0.106459 -0.0065344343 1.053294e-21)
(0.12193964 -0.0064219881 -1.0329256e-20)
(0.13771395 -0.0062900996 8.3389865e-21)
(0.1537368 -0.0061421181 1.8255269e-20)
(0.16996554 -0.0059809096 -5.2365984e-21)
(0.18635962 -0.0058089618 -1.0187221e-20)
(0.20288041 -0.0056284487 -4.3248393e-21)
(0.219491 -0.0054412825 -4.4299641e-21)
(0.23615612 -0.0052491584 7.3712474e-22)
(0.25284207 -0.0050535902 1.2306012e-21)
(0.2695167 -0.0048559365 2.5723925e-21)
(0.28614945 -0.0046574208 6.6651747e-21)
(0.30271137 -0.0044591465 2.4659934e-22)
(0.3191752 -0.0042621071 -3.4584394e-21)
(0.3355154 -0.0040671947 1.5522993e-22)
(0.35170826 -0.0038752056 -5.7845478e-22)
(0.36773193 -0.0036868445 1.246638e-21)
(0.38356645 -0.0035027291 1.0538657e-21)
(0.39919381 -0.0033233935 -1.3055956e-21)
(0.41459799 -0.0031492916 -1.2189206e-22)
(0.42976491 -0.0029808018 3.1914619e-23)
(0.44468247 -0.002818231 -3.5357033e-22)
(0.45934053 -0.0026618198 -4.0990321e-22)
(0.47373088 -0.0025117477 5.8310003e-23)
(0.4878472 -0.0023681391 -1.392051e-22)
(0.50168507 -0.0022310698 -2.2505455e-22)
(0.51524189 -0.0021005733 2.5810314e-22)
(0.52851696 -0.0019766482 2.9831915e-22)
(0.54151135 -0.0018592676 -1.0574561e-23)
(0.55422838 -0.0017483827 -1.6099801e-22)
(0.56667237 -0.0016439537 3.0330632e-23)
(0.57885316 -0.0015458993 -4.0771697e-23)
(0.59077321 -0.0014543328 9.6933383e-23)
(0.60246853 -0.0013689163 2.0764089e-23)
(0.61388946 -0.0012910888 -1.2740525e-22)
(0.62525793 -0.0012174266 -7.7563996e-24)
(0.63603692 -0.0011609985 5.5973305e-25)
(0.647924 -0.0010872959 -5.3496288e-24)
(0.65633295 -0.0011109568 2.8968007e-23)
(0.67415232 -0.00094391759 3.7756487e-22)
(0.010502821 -0.015036122 -1.2759744e-20)
(0.018247457 -0.016661439 -6.3356852e-20)
(0.027859687 -0.017937735 -3.0571866e-20)
(0.038479903 -0.018696005 3.8513146e-20)
(0.04973138 -0.019209041 1.4677275e-20)
(0.061634118 -0.019556378 -1.8225518e-20)
(0.074158978 -0.019738252 4.6798197e-21)
(0.087229123 -0.019776256 2.5473727e-20)
(0.10078157 -0.019698368 8.9469173e-23)
(0.11476618 -0.019524061 -7.669002e-21)
(0.1291349 -0.019267948 -1.3031861e-20)
(0.1438412 -0.018943085 -8.5371365e-21)
(0.15884128 -0.018560894 1.779324e-20)
(0.17409372 -0.018131039 8.9489845e-21)
(0.18955886 -0.017661811 -1.65383e-20)
(0.20519863 -0.017160441 -6.0466125e-21)
(0.22097642 -0.016633275 3.2172594e-21)
(0.23685697 -0.016085919 8.3802794e-21)
(0.2528064 -0.015523361 6.9942502e-21)
(0.26879211 -0.014950072 -6.9881426e-21)
(0.28478288 -0.014370078 -3.1801731e-21)
(0.30074889 -0.013787014 1.3690443e-21)
(0.31666181 -0.013204168 3.9545977e-22)
(0.33249486 -0.012624507 1.2158999e-21)
(0.34822289 -0.012050702 1.8604943e-22)
(0.36382247 -0.011485139 -3.2944655e-22)
(0.37927193 -0.010929937 -7.2826985e-22)
(0.39455144 -0.010386955 9.8017589e-22)
(0.40964304 -0.0098578032 8.312814e-22)
(0.42453066 -0.0093438558 -1.5809607e-22)
(0.43920013 -0.0088462604 5.592131e-22)
(0.45363921 -0.0083659522 -2.3995647e-22)
(0.46783755 -0.0079036683 -3.7672605e-22)
(0.48178667 -0.0074599636 -6.1762287e-22)
(0.49547997 -0.0070352287 4.4527392e-22)
(0.50891266 -0.0066297077 -2.2545844e-23)
(0.52208178 -0.0062435195 1.6875251e-22)
(0.53498623 -0.0058766775 -4.535346e-22)
(0.54762663 -0.0055291193 3.8815665e-22)
(0.56000583 -0.0052007158 6.8777237e-23)
(0.57212771 -0.0048913659 -1.0306884e-22)
(0.58400156 -0.0046008429 1.8813814e-22)
(0.59562944 -0.004329503 2.5238759e-22)
(0.60704657 -0.0040763521 1.8631927e-22)
(0.61820353 -0.0038457038 1.8913469e-22)
(0.62931917 -0.0036273576 -3.0031764e-23)
(0.63986332 -0.0034602881 1.0511305e-22)
(0.65150944 -0.0032417132 9.7501013e-23)
(0.65973892 -0.0033126635 -2.2479512e-22)
(0.67723499 -0.0028171987 -3.4305192e-23)
(0.067715178 -0.024060812 9.4617688e-21)
(0.073701382 -0.026783684 3.3000489e-21)
(0.08239066 -0.028843192 -1.217892e-20)
(0.092088026 -0.030008657 -1.2293461e-21)
(0.10213958 -0.030810399 1.4987812e-20)
(0.11272018 -0.03137579 -1.4902304e-20)
(0.12386874 -0.031683262 -2.9876397e-20)
(0.13551005 -0.031762394 1.4512099e-20)
(0.1475922 -0.031659142 1.8205152e-20)
(0.16008234 -0.031403608 -1.1613618e-20)
(0.1729449 -0.03101735 1.0202594e-21)
(0.18614233 -0.030520201 8.6909679e-21)
(0.19963846 -0.029929862 -1.527599e-20)
(0.21339829 -0.029261369 2.9253839e-21)
(0.22738735 -0.028527677 7.5328348e-21)
(0.24157175 -0.027740187 2.2317477e-23)
(0.25591825 -0.026908998 2.597394e-22)
(0.2703944 -0.0260431 -7.4309006e-21)
(0.28496854 -0.025150554 3.8802959e-21)
(0.2996099 -0.024238632 8.4950145e-21)
(0.31428876 -0.023313924 -3.8446102e-21)
(0.32897648 -0.022382417 -2.2170036e-21)
(0.34364569 -0.021449544 1.0113477e-21)
(0.35827036 -0.020520234 -1.7222958e-21)
(0.37282591 -0.019598935 1.3561335e-21)
(0.38728931 -0.018689641 7.2015671e-22)
(0.40163916 -0.017795906 1.5437695e-21)
(0.41585574 -0.016920859 -1.9710664e-21)
(0.4299211 -0.016067226 2.2464028e-21)
(0.44381903 -0.015237337 5.5718711e-22)
(0.45753516 -0.014433154 4.1707048e-22)
(0.47105691 -0.013656284 3.2287671e-22)
(0.4843735 -0.01290801 8.9019754e-22)
(0.49747596 -0.012189312 -1.3981715e-21)
(0.51035708 -0.011500895 3.7980739e-22)
(0.52301143 -0.010843225 1.1911436e-22)
(0.53543535 -0.010216557 -4.8605689e-23)
(0.54762693 -0.009620971 8.2946153e-23)
(0.55958601 -0.0090564212 -3.8411916e-22)
(0.57131457 -0.0085227491 1.9226694e-22)
(0.5828156 -0.0080198425 -3.5912936e-23)
(0.59409744 -0.007547378 4.2202135e-22)
(0.60516135 -0.0071059974 -2.0209585e-22)
(0.6160411 -0.0066941047 5.0291935e-23)
(0.62668771 -0.006318871 4.9731663e-23)
(0.63731428 -0.0059635265 -8.4461258e-23)
(0.64740357 -0.0056922392 -1.4914997e-22)
(0.65858292 -0.0053362398 4.6196084e-22)
(0.66646418 -0.0054541885 1.998541e-22)
(0.68333362 -0.0046471934 -8.6939442e-22)
(0.15037202 -0.031506114 1.5037563e-21)
(0.15371539 -0.035306782 -1.157365e-20)
(0.16079885 -0.038064129 6.6471896e-21)
(0.16900437 -0.039535566 -1.3337012e-20)
(0.17719743 -0.040580238 -1.9777382e-21)
(0.18575644 -0.041364912 9.1722124e-21)
(0.19483633 -0.041822883 -9.7827465e-21)
(0.20435959 -0.04198226 1.5630377e-21)
(0.21428232 -0.04190469 1.2918082e-20)
(0.22459412 -0.041628423 3.4106128e-21)
(0.23527578 -0.041178784 -6.2169424e-21)
(0.24630025 -0.040579769 -2.8710485e-21)
(0.25764023 -0.039853589 -5.8423931e-21)
(0.26926826 -0.039019369 -6.4671392e-21)
(0.28115588 -0.038093726 3.2320176e-21)
(0.29327391 -0.037091472 8.3743381e-22)
(0.30559292 -0.036025912 1.3736655e-21)
(0.31808346 -0.034909042 -3.3900362e-21)
(0.3307163 -0.033751739 -4.2572851e-21)
(0.34346259 -0.032563915 2.3696948e-21)
(0.3562941 -0.031354628 3.2389914e-21)
(0.36918341 -0.030132167 -1.5746569e-21)
(0.38210406 -0.028904107 1.5935907e-21)
(0.39503068 -0.027677354 -3.9616103e-22)
(0.40793919 -0.026458175 -3.9451487e-21)
(0.42080684 -0.025252218 -3.0450924e-21)
(0.43361237 -0.024064534 -1.9514994e-22)
(0.44633603 -0.022899592 4.2556667e-22)
(0.4589597 -0.021761301 -2.2220079e-21)
(0.4714669 -0.020653029 -8.7067381e-22)
(0.4838428 -0.019577625 2.2930431e-22)
(0.4960743 -0.018537454 -1.268201e-21)
(0.50814997 -0.017534422 2.1144469e-24)
(0.52006008 -0.016570016 -4.3440533e-22)
(0.53179659 -0.015645343 -4.757619e-22)
(0.54335314 -0.014761169 -5.4022372e-22)
(0.55472506 -0.01391797 -8.7293825e-22)
(0.56590941 -0.013115975 -5.2289547e-23)
(0.57690486 -0.012355235 -3.9826304e-24)
(0.58771226 -0.011635641 -5.442317e-22)
(0.59833339 -0.010957148 -8.8788208e-23)
(0.6087753 -0.010319412 -3.5570261e-22)
(0.61903813 -0.0097234224 -4.7792198e-22)
(0.62915372 -0.0091670718 4.1498268e-22)
(0.63907371 -0.0086603406 1.6291164e-23)
(0.64900307 -0.0081802621 2.0800109e-22)
(0.6584432 -0.0078149418 -1.6300348e-22)
(0.66895512 -0.0073335745 -3.1542687e-22)
(0.67633864 -0.0074977936 -1.8115221e-23)
(0.69230913 -0.0064066847 4.8620472e-22)
(0.25490305 -0.036613022 -2.0919501e-20)
(0.2546998 -0.041457878 4.7622072e-20)
(0.25931741 -0.044814356 1.0355364e-20)
(0.26534456 -0.046514539 -1.5779393e-20)
(0.27098681 -0.047790442 -2.0276326e-21)
(0.27681534 -0.048827558 2.6224814e-21)
(0.28315003 -0.049497105 -1.6658533e-21)
(0.28991187 -0.049814984 -4.6909478e-21)
(0.29705328 -0.049851719 -4.0202679e-21)
(0.30458532 -0.049650666 -1.2221397e-20)
(0.31250668 -0.04923855 1.7924583e-20)
(0.32080012 -0.048640845 6.5341803e-21)
(0.32944569 -0.04788213 -1.680127e-20)
(0.33842247 -0.046984261 1.0322313e-20)
(0.34770719 -0.045966591 8.3868867e-21)
(0.35727458 -0.044846641 -8.7112162e-22)
(0.36709817 -0.043640442 -3.1200036e-21)
(0.37715085 -0.042362701 -3.8348716e-21)
(0.3874051 -0.041026948 -1.396221e-21)
(0.3978334 -0.03964566 -1.2370415e-21)
(0.40840849 -0.038230361 -3.0407318e-21)
(0.4191036 -0.036791685 0)
(0.42989274 -0.035339425 -1.3530384e-21)
(0.44075079 -0.033882561 3.9435105e-21)
(0.45165374 -0.032429286 5.4319834e-21)
(0.46257877 -0.030987022 -9.431289e-22)
(0.47350442 -0.029562441 -2.9539519e-21)
(0.4844106 -0.028161472 3.0586462e-21)
(0.49527872 -0.026789334 2.4572668e-22)
(0.50609172 -0.02545055 3.472751e-21)
(0.5168341 -0.024148983 -5.367373e-22)
(0.52749195 -0.02288787 1.7356695e-21)
(0.53805296 -0.021669861 -8.1357829e-22)
(0.54850643 -0.020497064 3.0204952e-22)
(0.55884325 -0.019371098 -4.4672591e-22)
(0.56905592 -0.018293143 5.7222275e-22)
(0.57913855 -0.017264003 4.7123486e-22)
(0.58908693 -0.016284161 3.9604253e-22)
(0.59889843 -0.015353869 -9.96076e-22)
(0.6085725 -0.014473169 7.1375222e-22)
(0.61810953 -0.013642177 -3.8740777e-22)
(0.62751504 -0.012860624 -1.1748609e-21)
(0.63678793 -0.012129925 1.513373e-21)
(0.64595768 -0.011447575 -6.610526e-23)
(0.65497689 -0.010826284 -1.7518014e-22)
(0.66404034 -0.010237395 -8.8804953e-24)
(0.6726731 -0.0097912276 -1.5521945e-22)
(0.6823524 -0.0092003004 -5.4213612e-22)
(0.68911591 -0.0094096399 8.6254746e-22)
(0.70395903 -0.008070514 -4.7224889e-23)
(0.37662552 -0.038442743 -1.7511473e-20)
(0.37199643 -0.044349123 1.2840161e-20)
(0.37316789 -0.048245061 2.9821e-21)
(0.37622777 -0.050186484 -7.6420377e-21)
(0.3786396 -0.051761703 1.2066846e-20)
(0.38107498 -0.053138236 7.7988833e-21)
(0.38404688 -0.054129997 -1.2656904e-20)
(0.3874915 -0.054737072 -6.0741728e-21)
(0.39134145 -0.055025906 1.2710758e-20)
(0.39561724 -0.055038898 -1.5329348e-20)
(0.40033308 -0.054803074 -1.4078916e-20)
(0.40547944 -0.054343947 1.4155967e-20)
(0.41104016 -0.05368664 6.8280566e-21)
(0.41699761 -0.052854578 -4.2228308e-21)
(0.42333132 -0.051869276 -1.8481736e-21)
(0.43001793 -0.05075064 -4.0546824e-21)
(0.43703221 -0.049517247 5.3021533e-21)
(0.4443478 -0.048186478 3.6735807e-21)
(0.45193762 -0.046774584 -3.2431969e-21)
(0.45977433 -0.045296745 3.1428229e-21)
(0.4678306 -0.043767129 2.7766854e-21)
(0.47607949 -0.04219892 -3.222347e-21)
(0.48449463 -0.04060434 3.713203e-22)
(0.49305048 -0.038994665 -3.2634447e-21)
(0.50172248 -0.037380233 7.2977649e-21)
(0.51048718 -0.035770454 6.1436683e-21)
(0.51932241 -0.034173818 8.2203194e-22)
(0.52820729 -0.032597916 -1.7789275e-21)
(0.5371224 -0.031049457 3.7462551e-21)
(0.54604973 -0.029534299 7.2716704e-21)
(0.5549728 -0.028057485 2.3248323e-21)
(0.56387663 -0.026623283 3.3631674e-21)
(0.57274779 -0.025235237 2.0216927e-21)
(0.58157438 -0.023896223 7.5996571e-22)
(0.59034606 -0.022608509 -2.6575248e-22)
(0.59905402 -0.021373822 2.7842573e-21)
(0.60769103 -0.02019342 6.3577577e-22)
(0.61625148 -0.019068164 3.025828e-22)
(0.6247313 -0.017998621 5.7646378e-23)
(0.63312849 -0.016985098 1.035336e-21)
(0.64144194 -0.01602798 4.8354431e-23)
(0.64967557 -0.015127176 4.7137066e-22)
(0.65782698 -0.014284608 -1.3324047e-22)
(0.66592307 -0.013497497 -3.0291515e-22)
(0.67391773 -0.012781184 -1.6754998e-22)
(0.68199396 -0.012101908 -4.7329907e-22)
(0.68970479 -0.011590133 1.9449498e-22)
(0.69842925 -0.010908101 -1.4567432e-22)
(0.70448382 -0.011161052 -4.9020535e-22)
(0.71802437 -0.0096162312 2.6228489e-22)
(0.5095942 -0.036061866 3.6458602e-21)
(0.49986271 -0.043052788 -1.8968589e-20)
(0.49662159 -0.047480217 -2.3109732e-21)
(0.49591765 -0.049837994 5.4908034e-21)
(0.49454783 -0.051923791 3.057635e-21)
(0.49309126 -0.053815743 -4.5430196e-23)
(0.49222605 -0.05530253 6.2008678e-21)
(0.49194768 -0.05638477 7.6341606e-21)
(0.49216545 -0.057114338 9.86657e-21)
(0.49288638 -0.057523757 -1.1263876e-20)
(0.49412994 -0.057638805 -2.1610172e-20)
(0.49589138 -0.057485192 -3.9454976e-21)
(0.49815455 -0.057088138 1.5963055e-20)
(0.50090085 -0.056472222 1.2829126e-20)
(0.50410924 -0.055661144 -5.9098712e-21)
(0.50775577 -0.054677469 1.3749413e-21)
(0.51181438 -0.053542659 -3.6741965e-21)
(0.51625769 -0.052277133 2.2643347e-21)
(0.52105755 -0.050900263 -2.9169039e-22)
(0.52618551 -0.04943034 -1.8707625e-21)
(0.5316131 -0.047884572 7.8572396e-21)
(0.53731218 -0.046279078 -2.9899652e-22)
(0.5432552 -0.044628881 4.2442617e-22)
(0.5494154 -0.042947895 -6.5201866e-22)
(0.555767 -0.041248924 -4.3219559e-21)
(0.56228533 -0.039543664 4.2288375e-21)
(0.56894696 -0.037842706 1.9077004e-21)
(0.57572979 -0.036155555 -3.327336e-21)
(0.58261309 -0.034490651 -4.1295608e-21)