/*--------------------------------*- C++ -*----------------------------------*\
  =========                 |
  \\      /  F ield         | OpenFOAM: The Open Source CFD Toolbox
   \\    /   O peration     | Website:  https://openfoam.org
    \\  /    A nd           | Version:  6
     \\/     M anipulation  |
\*---------------------------------------------------------------------------*/
FoamFile
{
    version     2.0;
    format      ascii;
    class       surfaceScalarField;
    location    "104";
    object      phi_0;
}
// * * * * * * * * * * * * * * * * * * * * * * * * * * * * * * * * * * * * * //

dimensions      [0 3 -1 0 0 0 0];

internalField   nonuniform List<scalar> 
18180
(
0.00031875257
-0.00016320605
-0.00015554655
0.0013093044
-0.0013671051
0.00037655322
0.0030331005
-0.0033340038
0.0016102075
0.0055501584
-0.0059765867
0.0034595288
0.0089188086
-0.0092399986
0.0058713485
0.013193707
-0.013080786
0.0088058874
0.018423174
-0.017461477
0.01223201
0.024646229
-0.022347856
0.016124802
0.031889434
-0.027705828
0.020462623
0.040163824
-0.033498802
0.025224413
0.049462216
-0.039685939
0.030387547
0.059757288
-0.046221226
0.035926154
0.071000808
-0.053053385
0.041809864
0.083124493
-0.060126629
0.048002944
0.096043095
-0.067382373
0.054463771
0.10966023
-0.074761994
0.061144856
0.12387641
-0.082210508
0.067994325
0.13860427
-0.089680868
0.074953013
0.15384235
-0.097155938
0.081917861
-0.10463334
0.08868646
0.16978923
0.00039752362
-0.00056072969
0.0016096998
-0.0025792813
0.003689555
-0.0054138591
0.0066878672
-0.0089748989
0.010651317
-0.013203449
0.015618829
-0.018048297
0.021617562
-0.02346021
0.028658945
-0.02938924
0.036735049
-0.035781931
0.045815681
-0.042579435
0.055846657
-0.049716915
0.066749582
-0.057124152
0.078423406
-0.064727208
0.090747821
-0.072451044
0.10358832
-0.080222868
0.11680227
-0.087975943
0.13024511
-0.095653356
0.14377716
-0.10321291
0.15726247
-0.11064124
-0.11786885
0.17049797
0.00048065306
-0.0010413828
0.0019188136
-0.0040174418
0.0043527357
-0.0078477812
0.0078170165
-0.01243918
0.012338366
-0.017724798
0.017930202
-0.023640134
0.024587576
-0.030117584
0.032282894
-0.037084558
0.040962891
-0.044461928
0.050547328
-0.052163872
0.060929801
-0.060099388
0.071980812
-0.068175162
0.083553002
-0.076299399
0.095488121
-0.084386163
0.107625
-0.092359743
0.11980745
-0.10015839
0.13189095
-0.10773686
0.14374607
-0.11506803
0.15525083
-0.122146
-0.12892068
0.16630266
0.00056620205
-0.0016075848
0.0022280661
-0.0056793059
0.0050008823
-0.010620597
0.0088944812
-0.016332779
0.013905973
-0.02273629
0.020012877
-0.029747039
0.027167786
-0.037272492
0.035295024
-0.045211795
0.044289758
-0.053456663
0.054019937
-0.061894051
0.064331081
-0.070410532
0.075053618
-0.078897699
0.086012043
-0.087257824
0.097034945
-0.095409065
0.10796473
-0.10328953
0.11866594
-0.1108596
0.12903124
-0.11810216
0.13898408
-0.12502087
0.14847547
-0.13163739
-0.13795099
0.15750577
0.00065092072
-0.0022585056
0.0025244707
-0.0075528559
0.0056039123
-0.013700039
0.0098649382
-0.020593804
0.015265316
-0.028136667
0.021737368
-0.036219091
0.029183698
-0.044718822
0.037476354
-0.053504451
0.046459668
-0.062439977
0.055956652
-0.071391035
0.06577832
-0.0802322
0.075734885
-0.088854263
0.085647475
-0.097170415
0.095358939
-0.10512053
0.10474244
-0.11267303
0.11370703
-0.11982418
0.12219973
-0.12659487
0.13020441
-0.13302555
0.13773728
-0.13917027
-0.14507277
0.14485907
0.00073067153
-0.0029891771
0.0027922169
-0.0096144012
0.0061268498
-0.017034672
0.010667171
-0.025134126
0.016323317
-0.033792813
0.022976125
-0.042871899
0.030475511
-0.052218209
0.038643646
-0.061672586
0.047282548
-0.071078878
0.056185132
-0.08029362
0.06514824
-0.089195308
0.073985818
-0.097691841
0.082540475
-0.10572507
0.090691982
-0.11327204
0.098361751
-0.1203428
0.10551316
-0.12697559
0.11214816
-0.13322987
0.11830125
-0.13917864
0.12403194
-0.14490096
-0.15046796
0.12942713
0.00080076701
-0.0037899441
0.0030140439
-0.011827678
0.0065331576
-0.020553786
0.011240479
-0.029841448
0.0169933
-0.039545634
0.023619313
-0.049497912
0.030919119
-0.059518015
0.038674308
-0.069427775
0.046659783
-0.079064353
0.054658349
-0.088292186
0.062475268
-0.097012228
0.069950541
-0.10516711
0.07696725
-0.11274178
0.083455024
-0.11975981
0.089388623
-0.1262764
0.094782382
-0.13236935
0.099681906
-0.1381294
0.10415462
-0.14365136
0.10828075
-0.14902709
-0.15433775
0.11215054
0.00085609341
-0.0046460376
0.003172181
-0.014143766
0.006787467
-0.024169072
0.011530182
-0.034584162
0.017203949
-0.045219401
0.023587175
-0.055881139
0.030440571
-0.06637141
0.037520034
-0.076507238
0.044592443
-0.086136761
0.051451509
-0.095151253
0.057930924
-0.10349164
0.063912788
-0.11114898
0.069330319
-0.11815931
0.07416499
-0.12459448
0.078439146
-0.13055056
0.082205806
-0.13613601
0.085537544
-0.14146114
0.088516177
-0.14662999
0.091224552
-0.15173546
-0.15685582
0.093742616
0.00089029461
-0.0055363322
0.0032483916
-0.016501863
0.0068578321
-0.027778513
0.011492782
-0.039219112
0.016907219
-0.050633839
0.022839362
-0.061813282
0.029024142
-0.07255619
0.035209664
-0.08269276
0.041174214
-0.092101311
0.046740485
-0.10071752
0.051784486
-0.10853564
0.056237928
-0.11560242
0.060084313
-0.1220057
0.063350051
-0.12786022
0.066092636
-0.13329314
0.068388093
-0.13843146
0.070319578
-0.14339262
0.071968513
-0.14827893
0.073408828
-0.15317578
-0.15815109
0.074704107
0.00089984679
-0.0064361791
0.003233473
-0.018835489
0.0067293357
-0.031274375
0.011111422
-0.043601198
0.016092778
-0.055615195
0.021384921
-0.067105424
0.026714131
-0.0778854
0.031839248
-0.087817877
0.036567039
-0.096829102
0.04076199
-0.10491247
0.04434891
-0.11212256
0.047308469
-0.11856198
0.049667188
-0.12436442
0.051484249
-0.12967728
0.05283761
-0.1346465
0.053811558
-0.13940541
0.054487107
-0.14406817
0.054935879
-0.1487277
0.055217272
-0.15345717
0.055377371
-0.15831119
-0.00020239231
0.00020239233
1.0364274e-11
-0.00067779137
0.00047539911
2.7579949e-12
-0.0013425115
0.00066472015
-7.8747712e-12
-0.0021324255
0.00078991409
-1.5072276e-11
-0.0029959509
0.00086352549
-2.2325335e-11
-0.003890962
0.0008950112
-2.5278651e-11
-0.0047825559
0.00089159399
-2.879323e-11
-0.0056411833
0.00085862746
-2.7165245e-11
-0.0064411778
0.00079999448
-2.6720871e-11
-0.0071596046
0.00071842689
-2.0380767e-11
-0.0077753426
0.00061573803
-1.575753e-11
-0.0082683485
0.00049300588
-4.3821907e-12
-0.0086190772
0.00035072867
5.2782413e-12
-0.0088080484
0.00018897118
2.2995369e-11
-0.0088155913
7.5429096e-06
3.8779791e-11
-0.0086218686
-0.00019372284
6.4225642e-11
-0.0082071397
-0.00041472903
8.837821e-11
-0.0075513559
-0.00065578393
1.2242607e-10
-0.0066337545
-0.00091760161
1.5488029e-10
-0.0011865775
-0.0054471772
1.9405669e-10
-0.00018798684
0.00039037919
-0.00062504609
0.00091245841
-0.0012288267
0.0012685008
-0.001935305
0.0014963924
-0.0026922851
0.0016205057
-0.0034564602
0.0016591863
-0.004191265
0.0016263988
-0.0048650667
0.0015324292
-0.0054497271
0.0013846549
-0.005919467
0.0011881668
-0.0062499511
0.00094622216
-0.0064175459
0.00066060064
-0.0063987146
0.00033189741
-0.0061695385
-4.0204984e-05
-0.0057053911
-0.00045660444
-0.0049808586
-0.00091825534
-0.0039699552
-0.0014256325
-0.0026460441
-0.0019796951
-0.00098168736
-0.0025819583
-0.0032026047
0.0010343398
-0.00015893701
0.00054931622
-0.00051891924
0.0012724407
-0.0010008198
0.0017504014
-0.0015413295
0.0020369022
-0.0020874342
0.0021666105
-0.0025938236
0.0021655758
-0.0030209467
0.0020535219
-0.0033333441
0.0018448267
-0.0034983027
0.0015496134
-0.003484779
0.0011746431
-0.0032625156
0.00072395878
-0.002801321
0.00019940608
-0.0020704361
-0.00039898756
-0.0010380197
-0.0010726213
0.00032928022
-0.0018239044
0.0020666036
-0.0026555788
0.0042108381
-0.0035698669
0.0068003126
-0.0045691696
0.0098747285
-0.0056563743
-0.006781252
0.013453376
-0.00011757182
0.00066688807
-0.00036701118
0.0015218801
-0.00067353145
0.0020569217
-0.00097484109
0.0023382118
-0.0012168549
0.0024086243
-0.0013515637
0.0023002846
-0.0013353768
0.002037335
-0.0011276667
0.0016371167
-0.00068957337
0.0011115201
1.6948938e-05
0.00046812085
0.0010299154
-0.00028900763
0.0023879575
-0.0011586361
0.0041308689
-0.0021418989
0.0063000862
-0.0032418386
0.0089391955
-0.0044630137
0.012094489
-0.0058108725
0.015815341
-0.0072907183
0.020153903
-0.008907732
0.025164898
-0.010667369
-0.01249506
0.030878705
-6.690772e-05
0.00073379581
-0.00017916198
0.0016341344
-0.00026651511
0.0021442749
-0.00026764421
0.002339341
-0.00012709916
0.0022680793
0.00020633416
0.0019668513
0.00078096257
0.0014627066
0.001643355
0.00077472425
0.0028393125
-8.4437347e-05
0.0044146537
-0.0011072203
0.0064157787
-0.0022901327
0.0088900854
-0.0036329428
0.011886295
-0.0051381082
0.01545478
-0.0068103243
0.019647943
-0.0086561761
0.024520829
-0.010683759
0.03013201
-0.0129019
0.036544092
-0.015319814
0.043824481
-0.017947758
-0.020686094
0.052015516
-9.9799221e-06
0.00074377575
3.4557025e-05
0.0015895974
0.00019994654
0.0019788854
0.00054687811
0.0019924094
0.0011324422
0.0016825151
0.002011291
0.0010880025
0.0032366024
0.00023739523
0.004860963
-0.00084963633
0.0069370258
-0.0021605001
0.0095178841
-0.0036880786
0.01265728
-0.005429529
0.016409711
-0.0073853729
0.02083035
-0.0095587479
0.025974893
-0.011954867
0.031899454
-0.014580737
0.038660865
-0.01744517
0.046317863
-0.020558897
0.054933149
-0.0239351
0.064577218
-0.027591828
-0.031410338
0.075301462
5.0760444e-05
0.00069301533
0.00026569641
0.0013746615
0.00070834685
0.001536235
0.0014392055
0.0012615507
0.0025171122
0.00060460851
0.0040000143
-0.00039489961
0.0059455635
-0.001708154
0.0084115044
-0.0033155772
0.011455805
-0.0052048004
0.015136624
-0.0073688983
0.019512047
-0.0098049515
0.024639552
-0.012512878
0.030575279
-0.015494475
0.037373129
-0.018752718
0.045083833
-0.02229144
0.053754401
-0.026115738
0.06342894
-0.030233437
0.074152043
-0.034658203
0.085977733
-0.039417517
-0.044394362
0.098961756
0.00011380938
0.00057920595
0.00050855718
0.00097991371
0.0012461081
0.00079868408
0.002387011
0.00012064783
0.0039916224
-0.0010000029
0.0061204514
-0.0025237286
0.00883414
-0.0044218426
0.012193287
-0.0066747239
0.016258041
-0.0092695544
0.021087356
-0.012198214
0.026737955
-0.01545555
0.033262998
-0.019037921
0.040710498
-0.022941975
0.049121512
-0.027163733
0.058528247
-0.031698175
0.068952427
-0.036539918
0.08040512
-0.04168613
0.092889849
-0.047142932
0.1064141
-0.052941764
-0.059002423
0.12102216
0.00017851239
0.00040069356
0.00076009723
0.00039832885
0.0018054947
-0.00024671337
0.0033749996
-0.0014488571
0.0055294575
-0.0031544608
0.0083300081
-0.0053242792
0.01183746
-0.0079292947
0.016111369
-0.010948632
0.021208753
-0.014366939
0.027182477
-0.018171938
0.034079317
-0.022352389
0.04193776
-0.026896364
0.05078558
-0.031789794
0.060637193
-0.037015346
0.071490811
-0.042551793
0.083325431
-0.048374538
0.096098628
-0.054459327
0.1097479
-0.060792199
0.12420412
-0.067397992
-0.07428194
0.13948364
0.00024514699
0.001020029
0.0023835231
0.0043941948
0.0071110824
0.010592691
0.014895406
0.020071575
0.026167258
0.033219733
0.041254891
0.050284681
0.060304751
0.071292349
0.083204328
0.095974646
0.10950964
0.12367046
0.13819033
0.15259485
-0.0035061344
-0.0019410431
3.2090086e-10
-0.0012838721
-0.0022222626
3.9126541e-10
0.0011972783
-0.0024811509
4.565245e-10
0.0038804147
-0.0026831369
5.1662925e-10
0.0067387346
-0.0028583205
5.7045827e-10
0.0097549349
-0.0030162009
6.2316033e-10
0.012910083
-0.0031551491
6.5254498e-10
0.016186159
-0.0032760766
6.6520719e-10
0.019567464
-0.0033813049
6.5787449e-10
0.02303978
-0.0034723168
6.2968778e-10
0.026589824
-0.0035500447
5.694869e-10
0.030205174
-0.0036153505
4.7533093e-10
0.03387419
-0.003669016
3.396179e-10
0.037585878
-0.0037116883
1.6716181e-10
0.04132979
-0.0037439127
-4.2421026e-11
0.04509596
-0.003766169
-2.7726884e-10
0.048874849
-0.003778889
-5.3241988e-10
0.05265732
-0.0037824699
-7.9004204e-10
0.05643461
-0.0037772888
-1.0399395e-09
0.060198325
-0.0037637143
-1.2583211e-09
0.063940442
-0.0037421151
-1.4322304e-09
0.06765331
-0.0037128663
-1.5354444e-09
0.071329665
-0.0036763537
-1.5583271e-09
0.074962642
-0.0036329753
-1.4776046e-09
0.078545785
-0.0035831419
-1.2948318e-09
0.082073062
-0.0035272761
-9.9554277e-10
0.085538872
-0.0034658098
-6.0042151e-10
0.088938054
-0.0033991815
-1.0675818e-10
0.092265886
-0.0033278325
4.409827e-10
0.095518089
-0.0032522037
1.0364492e-09
0.098690819
-0.0031727321
1.611698e-09
0.10178066
-0.0030898471
2.1616808e-09
0.10478463
-0.0030039683
2.5990714e-09
0.10770013
-0.0029155033
2.9345729e-09
0.11052497
-0.0028248463
3.0646686e-09
0.11325735
-0.0027323784
3.0327827e-09
0.11589581
-0.0026384686
2.7217935e-09
0.11843929
-0.0025434762
2.2314322e-09
0.12088704
-0.0024477588
1.4441737e-09
0.12323872
-0.0023516724
5.2068371e-10
0.12549433
-0.0022556153
-6.1518851e-10
0.12765429
-0.0021599511
-1.8162337e-09
0.12971968
-0.0020653911
-2.9698453e-09
0.13169162
-0.0019719327
-3.8575852e-09
0.13357438
-0.00188276
-4.3385983e-09
0.13536662
-0.0017922334
-4.402151e-09
0.13709323
-0.0017266077
-3.6419891e-09
0.13870997
-0.0016167409
-2.6086804e-09
0.14041902
-0.0017090484
-8.5327259e-10
-0.0013571467
1.2812083e-09
0.0028553864
-0.0037620897
0.0049530195
-0.0043198956
0.0072964253
-0.0048245567
0.0098231587
-0.0052098704
0.01251216
-0.0055473214
0.015351106
-0.0058551473
0.018323259
-0.0061273023
0.021412215
-0.0063650323
0.024603957
-0.0065730466
0.027885724
-0.0067540844
0.031245389
-0.0069097091
0.034671471
-0.0070414332
0.038153119
-0.0071506633
0.041679987
-0.0072385571
0.045242163
-0.0073060887
0.048830117
-0.007354123
0.052434675
-0.0073834463
0.056046995
-0.0073947907
0.059658566
-0.0073888591
0.063261198
-0.007366347
0.066847041
-0.0073279576
0.070408587
-0.0072744126
0.073938693
-0.0072064592
0.07743059
-0.0071248729
0.080877906
-0.0070304572
0.08427467
-0.0069240409
0.087615334
-0.0068064732
0.09089477
-0.0066786175
0.094108282
-0.0065413445
0.097251603
-0.0063955244
0.10032089
-0.0062420206
0.10331273
-0.0060816826
0.1062241
-0.0059153406
0.1090524
-0.005743802
0.1117954
-0.005567848
0.11445126
-0.0053882348
0.11701848
-0.0052056952
0.11949595
-0.0050209435
0.12188288
-0.0048346914
0.12417886
-0.0046476478
0.12638385
-0.0044606082
0.1284982
-0.0042742983
0.13052295
-0.0040901377
0.13245914
-0.0039081254
0.13431098
-0.0037345971
0.13607711
-0.0035583722
0.13778199
-0.0034314865
0.13938241
-0.0032171531
0.14107534
-0.0034019871
-0.0027118262
0.01502517
-0.0053338837
0.016856774
-0.0061515001
0.018910869
-0.0068786514
0.021117523
-0.0074165247
0.023465104
-0.0078949026
0.025949963
-0.0083400062
0.028559484
-0.0087368235
0.03128019
-0.009085738
0.034100982
-0.0093938387
0.037011634
-0.0096647358
0.040002026
-0.0099001021
0.043062303
-0.01010171
0.046182943
-0.010271303
0.049354694
-0.010410308
0.05256853
-0.010519925
0.055815644
-0.010601237
0.059087451
-0.010655253
0.062375593
-0.010682933
0.065671955
-0.010685221
0.068968677
-0.010663069
0.072258179
-0.01061746
0.075533182
-0.010549415
0.07878673
-0.010460007
0.082012212
-0.010350355
0.085203382
-0.010221627
0.088354376
-0.010075035
0.091459724
-0.0099118212
0.094514362
-0.0097332552
0.097513634
-0.0095406168
0.1004533
-0.0093351899
0.10332953
-0.009118247
0.10613889
-0.0088910431
0.10887835
-0.0086548058
0.11154528
-0.0084107296
0.1141374
-0.0081599725
0.11665282
-0.0079036555
0.11909
-0.0076428675
0.12144772
-0.0073786714
0.12372516
-0.0071121277
0.12592181
-0.006844295
0.12803756
-0.0065763627
0.13007268
-0.0063094183
0.13202813
-0.0060455838
0.13390488
-0.0057848756
0.13570698
-0.0055366983
0.13743318
-0.0052845757
0.13910697
-0.005105268
0.14068745
-0.0047976349
0.14236103
-0.0050755667
-0.0040747567
0.032062478
-0.0065176568
0.033478194
-0.0075672153
0.035084259
-0.0084847169
0.036807699
-0.0091399644
0.038649201
-0.0097364046
0.040615066
-0.010305871
0.042698126
-0.010819883
0.04488886
-0.011276472
0.047179695
-0.011684674
0.049563406
-0.012048447
0.052032288
-0.012368984
0.054578389
-0.012647811
0.057193701
-0.012886615
0.059870185
-0.013086792
0.062599784
-0.013249523
0.065374457
-0.01337591
0.068186227
-0.013467024
0.071027225
-0.01352393
0.073889721
-0.013547717
0.076766171
-0.01353952
0.079649251
-0.013500539
0.082531889
-0.013432053
0.085407299
-0.013335417
0.08826901
-0.013212066
0.09111089
-0.013063507
0.093927165
-0.01289131
0.096712436
-0.012697093
0.099461692
-0.012482511
0.10217031
-0.012249239
0.10483408
-0.011998956
0.10744916
-0.01173333
0.11001213
-0.011454009
0.11251993
-0.011162604
0.11496988
-0.010860686
0.11735969
-0.010549778
0.11968739
-0.01023136
0.12195139
-0.0099068667
0.12415043
-0.0095777052
0.12628358
-0.0092452798
0.12835028
-0.0089109969
0.13035036
-0.0085764373
0.13228399
-0.0082430518
0.13415206
-0.0079136563
0.1359555
-0.0075883098
0.13769816
-0.0072793627
0.139379
-0.0069654109
0.14102011
-0.0067463767
0.14258408
-0.0063616133
0.14424208
-0.0067335601
-0.0054618577
0.052656298
-0.0071584387
0.0534974
-0.0084083179
0.054492063
-0.00947938
0.055574604
-0.010222505
0.056759843
-0.010921644
0.058062078
-0.011608106
0.059479822
-0.012237627
0.061008211
-0.012804861
0.062643036
-0.0133195
0.064379705
-0.013785115
0.066212699
-0.014201978
0.068135752
-0.014570864
0.070142104
-0.014892967
0.072224656
-0.015169344
0.074376066
-0.015400933
0.076588825
-0.015588669
0.078855347
-0.015733545
0.081168042
-0.015836626
0.083519389
-0.015899064
0.085901991
-0.015922122
0.08830863
-0.015907178
0.090732313
-0.015855735
0.093166309
-0.015769413
0.095604188
-0.015649945
0.098039848
-0.015499167
0.10046754
-0.015318997
0.10288186
-0.015111423
0.10527783
-0.014878478
0.10765082
-0.014622227
0.1099966
-0.014344738
0.11231134
-0.014048071
0.11459159
-0.013734257
0.11683428
-0.013405291
0.1190367
-0.013063111
0.12119653
-0.012709605
0.12331177
-0.012346605
0.1253808
-0.011975891
0.1274023
-0.011599211
0.12937534
-0.011218315
0.1312993
-0.010834955
0.13317397
-0.010451107
0.1349995
-0.010068586
0.13677674
-0.009690897
0.1385066
-0.0093181717
0.14019279
-0.0089655528
0.14183455
-0.0086071725
0.14345232
-0.008364142
0.14501311
-0.0079224074
0.1466692
-0.008389643
-0.0068963948
0.075230911
-0.0070878878
0.07533636
-0.0085137677
0.075561242
-0.0097042615
0.075862079
-0.010523342
0.076266912
-0.011326477
0.076792596
-0.01213379
0.077442169
-0.012887201
0.078215566
-0.013578258
0.079111097
-0.014215031
0.080125618
-0.014799636
0.081254889
-0.015331249
0.082493617
-0.015809592
0.083835621
-0.016234971
0.085274127
-0.01660785
0.086801962
-0.016928767
0.088411677
-0.017198385
0.09009566
-0.017417528
0.091846237
-0.017587203
0.093655772
-0.017708598
0.095516732
-0.017783083
0.097421761
-0.017812207
0.099363724
-0.017797698
0.10133576
-0.017741452
0.10333132
-0.017645507
0.1053442
-0.017512043
0.10736854
-0.01734334
0.10939889
-0.017141769
0.11143017
-0.016909755
0.1134577
-0.016649763
0.11547723
-0.016364264
0.11748488
-0.016055717
0.11947717
-0.01572655
0.12145102
-0.015379142
0.12340372
-0.015015812
0.12533293
-0.014638816
0.12723667
-0.014250343
0.12911331
-0.013852528
0.13096156
-0.013447465
0.1327805
-0.013037252
0.13456954
-0.012623998
0.13632851
-0.012210074
0.1380576
-0.011797677
0.13975769
-0.011390984
0.14142976
-0.010990248
0.14307743
-0.010613221
0.14470036
-0.010230103
0.14631715
-0.0099809272
0.14789997
-0.0095052299
0.14957976
-0.010069434
-0.008410502
0.098035174
-0.0061613051
0.09726834
-0.0077469343
0.096592513
-0.0090284339
0.09600857
-0.0099393995
0.095552647
-0.010870553
0.095235976
-0.011817119
0.095063929
-0.012715154
0.095040511
-0.01355484
0.095165259
-0.014339779
0.095434911
-0.015069288
0.095845109
-0.015741448
0.096390449
-0.016354932
0.097064448
-0.016908971
0.097859878
-0.01740328
0.09876906
-0.017837949
0.099784027
-0.018213351
0.10089665
-0.018530148
0.10209874
-0.018789299
0.10338219
-0.018992048
0.10473901
-0.019139903
0.10616143
-0.019234622
0.10764193
-0.019278196
0.10917331
-0.019272833
0.11074872
-0.019220923
0.1123617
-0.019125023
0.11400618
-0.018987818
0.1156765
-0.018812094
0.11736746
-0.018600709
0.11907425
-0.018356557
0.12079253
-0.018082541
0.12251837
-0.017781552
0.12424825
-0.017456435
0.12597909
-0.017109981
0.12770819
-0.01674491
0.12943324
-0.016363865
0.13115231
-0.015969413
0.13286384
-0.015564056
0.13456662
-0.01515025
0.13625983
-0.01473046
0.13794299
-0.014307162
0.13961606
-0.013883141
0.14127936
-0.013460981
0.14293392
-0.013045537
0.14458089
-0.012637218
0.14622388
-0.012256211
0.14786311
-0.011869336
0.14951529
-0.011633107
0.15115823
-0.011148172
0.15290035
-0.011811548
-0.010045949
0.11919885
-0.0043380008
0.11750662
-0.0060547039
0.11586751
-0.0073893182
0.11436541
-0.0084373056
0.11303658
-0.0095417219
0.11187853
-0.010659063
0.11089672
-0.011733343
0.11009743
-0.012755557
0.10948009
-0.013722439
0.10904011
-0.0146293
0.10877166
-0.015473004
0.1086681
-0.016251373
0.10872184
-0.016962706
0.10892456
-0.017606003
0.10926755
-0.018180938
0.10974187
-0.01868767
0.11033849
-0.019126774
0.11104843
-0.019499231
0.11186279
-0.019806409
0.1127729
-0.020050019
0.11377038
-0.020232094
0.11484713
-0.020354953
0.11599548
-0.020421177
0.11720812
-0.020433569
0.11847822
-0.020395122
0.11979939
-0.020308983
0.1211657
-0.020178411
0.12257174
-0.020006744
0.12401254
-0.019797357
0.12548363
-0.019553636
0.12698102
-0.019278939
0.12850116
-0.018976578
0.13004097
-0.018649792
0.1315978
-0.018301734
0.1331694
-0.017935471
0.13475396
-0.017553974
0.13635005
-0.017160144
0.13795663
-0.016756827
0.13957304
-0.016346873
0.14119903
-0.015933154
0.14283477
-0.015518881
0.14448085
-0.015107053
0.14613851
-0.014703204
0.14780924
-0.014307942
0.14949674
-0.013943712
0.15120191
-0.013574508
0.15293963
-0.013370825
0.15469359
-0.012902128
0.15654955
-0.013667508
-0.011854073
0.13690493
-0.00175929
0.13438726
-0.0035370389
0.13182903
-0.0048310883
0.12947234
-0.0060806136
0.12734439
-0.0074137734
0.12542657
-0.0087412352
0.12372169
-0.010028468
0.12223486
-0.011268727
0.12096453
-0.012452106
0.11990492
-0.013569695
0.11904854
-0.014616625
0.11838705
-0.015589877
0.11791144
-0.0164871
0.1176122
-0.017306765
0.11747947
-0.018048205
0.11750323
-0.018711434
0.11767348
-0.019297022
0.1179803
-0.019806051
0.11841397
-0.020240074
0.11896503
-0.020601081
0.11962437
-0.020891439
0.12038329
-0.021113866
0.12123349
-0.021271384
0.1221672
-0.021367273
0.12317711
-0.021405031
0.12425646
-0.021388333
0.12539902
-0.021320974
0.12659911
-0.021206835
0.12785159
-0.021049838
0.12915186
-0.020853905
0.13049585
-0.020622924
0.13187999
-0.020360721
0.13330123
-0.020071035
0.134757
-0.019757502
0.13624518
-0.019423653
0.13776412
-0.01907291
0.13931259
-0.018708609
0.14088977
-0.018334016
0.14249531
-0.017952409
0.14412923
-0.017567077
0.14579205
-0.017181694
0.14748469
-0.016799692
0.14920878
-0.016427299
0.1509662
-0.016065365
0.15276092
-0.015738427
0.1545946
-0.015408185
0.15648039
-0.015256621
0.158408
-0.014829739
0.16044097
-0.015700473
-0.013894873
0.15005951
0.00077604696
0.14677081
-0.00024833665
0.14347376
-0.0015340382
0.1404263
-0.0030331542
0.13763175
-0.0046192291
0.13508387
-0.006193353
0.13278449
-0.0077290873
0.1307337
-0.0092179341
0.12892906
-0.010647466
0.12736537
-0.012006008
0.12603481
-0.01328607
0.12492799
-0.014483052
0.12403472
-0.015593832
0.12334435
-0.016616397
0.12284591
-0.01754976
0.12252828
-0.018393805
0.1223804
-0.019149141
0.12239136
-0.01981701
0.1225505
-0.020399222
0.12284752
-0.020898101
0.12327251
-0.021316429
0.12381604
-0.02165739
0.12446917
-0.021924522
0.12522356
-0.02212166
0.12607141
-0.022252885
0.12700555
-0.02232247
0.12801941
-0.022334828
0.12910703
-0.022294458
0.13026309
-0.022205897
0.13148286
-0.022073675
0.13276221
-0.021902279
0.1340976
-0.021696111
0.13548604
-0.021459472
0.13692508
-0.02119654
0.13841278
-0.02091136
0.13994773
-0.020607854
0.14152895
-0.020289837
0.14315598
-0.019961044
0.14482878
-0.019625212
0.14654779
-0.019286086
0.14831393
-0.018947833
0.15012859
-0.018614346
0.15199386
-0.018292572
0.15391211
-0.017983612
0.1558877
-0.017714016
0.15792298
-0.017443475
0.16003004
-0.017363672
0.16220293
-0.017002637
0.16448815
-0.017985693
-0.016233182
0.18891991
0.0053776778
-0.19352154
0.18511033
0.0035612464
0.18171876
0.0018575297
0.17857413
0.00011148229
0.17563908
-0.0016841809
0.17288859
-0.003442862
0.17030443
-0.0051449321
0.16787762
-0.0067911244
0.16560428
-0.0083741232
0.16348225
-0.0098839807
0.16150968
-0.0113135
0.15968446
-0.012657832
0.15800395
-0.013913324
0.15646487
-0.015077314
0.15506329
-0.016148184
0.15379476
-0.017125273
0.15265435
-0.018008732
0.15163677
-0.018799432
0.15073646
-0.019498905
0.14994763
-0.020109276
0.14926441
-0.020633205
0.14868084
-0.021073823
0.148191
-0.021434677
0.147789
-0.021719666
0.1474691
-0.021932984
0.14722569
-0.022079057
0.14705335
-0.022162485
0.14694687
-0.022187981
0.1469013
-0.022160325
0.14691192
-0.022084302
0.14697431
-0.021964667
0.14708431
-0.021806106
0.14723804
-0.021613203
0.14743192
-0.021390424
0.14766267
-0.021142106
0.14792728
-0.02087246
0.14822303
-0.020585592
0.14854752
-0.02028553
0.14889862
-0.019976312
0.14927452
-0.019661987
0.14967374
-0.019347061
0.15009515
-0.019035753
0.15053808
-0.018735503
0.15100213
-0.018447659
0.15148809
-0.018199972
0.15199589
-0.017951279
0.15253048
-0.01789826
0.15308711
-0.017559268
0.15369083
-0.018589419
-0.016845623
0.21686843
0.0087755428
-0.22026629
0.21339503
0.0070346458
0.21018271
0.0050698487
0.20707791
0.0032162818
0.20403185
0.0013618805
0.20107548
-0.00048649799
0.1982257
-0.0022951514
0.19548702
-0.0040524425
0.19286534
-0.0057524434
0.1903675
-0.0073861379
0.1879987
-0.0089446972
0.18576233
-0.01042147
0.18366041
-0.011811402
0.18169363
-0.013110536
0.17986147
-0.014316018
0.17816229
-0.015426099
0.17659357
-0.016440009
0.17515199
-0.017357851
0.1738336
-0.018180521
0.17263397
-0.01890964
0.17154824
-0.019547479
0.17057131
-0.020096885
0.16969784
-0.020561213
0.16892243
-0.020944253
0.16823961
-0.021250166
0.16764396
-0.021483404
0.16713013
-0.021648653
0.1666929
-0.021750759
0.16632725
-0.021794669
0.16602832
-0.021785374
0.16579151
-0.021727859
0.16561246
-0.021627059
0.16548708
-0.021487823
0.16541155
-0.021314894
0.16538234
-0.021112895
0.16539621
-0.020886327
0.16545021
-0.020639592
0.1655417
-0.02037702
0.16566834
-0.020102958
0.16582813
-0.019821777
0.1660194
-0.019538324
0.16624083
-0.019257188
0.16649155
-0.018986219
0.16677117
-0.018727284
0.16707972
-0.018508521
0.16741855
-0.01829011
0.16778726
-0.018266964
0.16819391
-0.017965916
0.16862207
-0.019017586
-0.017339866
0.24377662
0.011499056
-0.24650013
0.24092664
0.0098846188
0.23807391
0.0079225845
0.23522744
0.0060627469
0.23235017
0.0042391588
0.2294629
0.0024007718
0.22659686
0.00057088942
0.22377134
-0.00122693
0.22100228
-0.0029833796
0.2183056
-0.0046894614
0.21569517
-0.0063342697
0.213182
-0.0079082942
0.21077469
-0.0094040927
0.20847981
-0.010815656
0.206302
-0.012138205
0.20424414
-0.013368239
0.20230759
-0.014503462
0.2004924
-0.015542664
0.1987975
-0.016485617
0.19722085
-0.017332995
0.19575966
-0.018086286
0.19441048
-0.018747703
0.19316937
-0.019320103
0.19203201
-0.019806899
0.19099383
-0.02021198
0.19005005
-0.020539629
0.18919584
-0.020794439
0.18842632
-0.020981242
0.18773669
-0.021105036
0.18712223
-0.021170916
0.18657839
-0.021184015
0.18610078
-0.021149455
0.18568526
-0.021072303
0.18532791
-0.020957545
0.18502508
-0.020810064
0.1847734
-0.020634639
0.18456976
-0.02043596
0.1844114
-0.02021866
0.18429584
-0.019987397
0.18422094
-0.019746876
0.1841849
-0.019502281
0.18418633
-0.019258615
0.18422415
-0.019024043
0.18429809
-0.018801225
0.1844074
-0.018617832
0.18455497
-0.018437676
0.18473465
-0.018446645
0.18496837
-0.01819964
0.18519317
-0.019242387
-0.017693356
0.2692834
0.013531631
-0.27131598
0.26711576
0.01205226
0.26477442
0.010263925
0.26233564
0.008501529
0.25980736
0.0067674358
0.25719977
0.0050083638
0.25453899
0.0032316738
0.25184918
0.001462873
0.24915036
-0.00028455759
0.24646233
-0.0020014289
0.24380438
-0.0036763193
0.24119365
-0.0052975642
0.23864487
-0.0068553136
0.23617053
-0.0083413208
0.23378094
-0.0097486143
0.23148426
-0.011071558
0.22928668
-0.012305881
0.2271926
-0.013448583
0.22520483
-0.014497844
0.22332476
-0.015452932
0.22155259
-0.016314115
0.21988746
-0.017082566
0.21832762
-0.017760267
0.21687063
-0.018349913
0.21551347
-0.018854814
0.21425264
-0.019278806
0.21308436
-0.019626153
0.21200458
-0.019901462
0.21100914
-0.0201096
0.21009384
-0.02025561
0.20925447
-0.020344647
0.20848693
-0.020381914
0.20778724
-0.020372612
0.20715159
-0.020321901
0.2065764
-0.020234875
0.20605832
-0.020116553
0.20559425
-0.01997189
0.20518139
-0.019805804
0.20481725
-0.019623257
0.20449966
-0.019429286
0.20422679
-0.01922941
0.20399724
-0.019029066
0.20380986
-0.018836662
0.20366449
-0.018655853
0.20355979
-0.018513134
0.20349988
-0.018377771
0.20347374
-0.018420501
0.20351486
-0.018240764
0.20351832
-0.019245848
-0.017883675
0.29299312
0.014862484
-0.29432397
0.29151419
0.013531193
0.28979203
0.011986084
0.28789375
0.010399806
0.28585423
0.0088069613
0.28368427
0.0071783198
0.2814023
0.0055136478
0.27903155
0.0038336194
0.27659333
0.0021536567
0.27410781
0.00048409123
0.27159519
-0.0011636969
0.2690752
-0.0027775691
0.26656616
-0.0043462728
0.26408467
-0.0058598297
0.26164547
-0.0073094167
0.25926133
-0.0086874236
0.25694303
-0.0099875748
0.25469937
-0.011204931
0.25253736
-0.012335833
0.25046227
-0.013377844
0.24847784
-0.014329679
0.24658639
-0.015191121
0.24478905
-0.015962925
0.24308586
-0.016646723
0.24147597
-0.017244925
0.23995778
-0.017760611
0.23852906
-0.018197437
0.23718713
-0.01855953
0.23592893
-0.018851397
0.23475115
-0.019077832
0.23365034
-0.019243839
0.23262298
-0.019354552
0.23166555
-0.019415183
0.23077461
-0.019430963
0.22994685
-0.019407117
0.22917914
-0.01934884
0.22846855
-0.019261301
0.22781242
-0.019149672
0.22720836
-0.019019193
0.22665429
-0.018875221
0.22614847
-0.018723592
0.2256896
-0.018570187
0.22527653
-0.018423596
0.22490926
-0.018288586
0.22458609
-0.018189964
0.224312
-0.018103683
0.22407222
-0.018180714
0.22390878
-0.018077324
0.2236825