/*--------------------------------*- C++ -*----------------------------------*\
| =========                 |                                                 |
| \\      /  F ield         | OpenFOAM: The Open Source CFD Toolbox           |
|  \\    /   O peration     | Version:  4.1                                   |
|   \\  /    A nd           | Web:      www.OpenFOAM.org                      |
|    \\/     M anipulation  |                                                 |
\*---------------------------------------------------------------------------*/
FoamFile
{
    version     2.0;
    format      ascii;
    class       volScalarField;
    location    "18";
    object      p;
}
// * * * * * * * * * * * * * * * * * * * * * * * * * * * * * * * * * * * * * //

dimensions      [0 2 -2 0 0 0 0];

internalField   nonuniform List<scalar> 
1000
(
1.5228338
1.506622
1.4906321
1.4748095
1.4590997
1.4434651
1.4278836
1.4123428
1.3968356
1.3813565
1.3659011
1.3504654
1.3350466
1.3196426
1.3042518
1.288873
1.2735051
1.2581471
1.2427982
1.2274577
1.2121249
1.1967993
1.1814802
1.1661673
1.1508601
1.1355582
1.1202611
1.1049687
1.0896805
1.0743963
1.0591157
1.0438386
1.0285648
1.0132939
0.99802582
0.98276037
0.96749737
0.95223665
0.93697807
0.92172147
0.90646674
0.89121375
0.87596238
0.86071254
0.8454641
0.830217
0.81497113
0.79972641
0.78448278
0.76924015
0.75399846
0.73875765
0.72351766
0.70827843
0.69303991
0.67780206
0.66256483
0.64732817
0.63209206
0.61685644
0.6016213
0.58638659
0.57115228
0.55591836
0.54068478
0.52545153
0.51021859
0.49498592
0.47975353
0.46452137
0.44928944
0.43405773
0.41882621
0.40359487
0.3883637
0.37313269
0.35790182
0.34267109
0.32744048
0.31220999
0.2969796
0.28174931
0.26651912
0.25128901
0.23605898
0.22082902
0.20559912
0.19036929
0.17513952
0.15990979
0.14468012
0.12945049
0.1142209
0.098991351
0.083761834
0.06853235
0.053302895
0.038073465
0.022844062
0.0076146726
1.5226486
1.5064176
1.4905653
1.4748567
1.4591834
1.443539
1.4279391
1.4123869
1.3968743
1.3813918
1.3659327
1.350493
1.3350707
1.3196638
1.3042707
1.2888901
1.2735206
1.2581612
1.2428112
1.2274696
1.2121359
1.1968094
1.1814896
1.166176
1.1508681
1.1355656
1.1202681
1.1049751
1.0896865
1.0744018
1.0591209
1.0438435
1.0285693
1.0132981
0.99802973
0.98276402
0.96750077
0.95223982
0.93698101
0.92172422
0.9064693
0.89121614
0.87596461
0.8607146
0.84546603
0.83021879
0.8149728
0.79972797
0.78448423
0.7692415
0.75399971
0.73875881
0.72351874
0.70827944
0.69304085
0.67780293
0.66256564
0.64732892
0.63209275
0.61685709
0.6016219
0.58638714
0.5711528
0.55591883
0.54068522
0.52545194
0.51021897
0.49498628
0.47975385
0.46452167
0.44928972
0.43405799
0.41882645
0.40359509
0.3883639
0.37313287
0.35790199
0.34267125
0.32744063
0.31221012
0.29697972
0.28174943
0.26651922
0.2512891
0.23605906
0.2208291
0.2055992
0.19036936
0.17513958
0.15990985
0.14468017
0.12945054
0.11422094
0.09899139
0.08376187
0.068532382
0.053302925
0.038073491
0.022844086
0.0076146854
1.5223078
1.5059937
1.4903308
1.4748259
1.4592494
1.4436124
1.4279894
1.4124195
1.3969014
1.3814186
1.3659588
1.3505166
1.3350909
1.319681
1.3042858
1.2889036
1.2735328
1.2581723
1.2428212
1.2274787
1.2121442
1.196817
1.1814966
1.1661824
1.1508741
1.1355711
1.1202732
1.1049798
1.0896908
1.0744059
1.0591247
1.043847
1.0285725
1.0133011
0.99803254
0.98276663
0.9675032
0.95224208
0.93698313
0.92172619
0.90647114
0.89121784
0.8759662
0.86071609
0.84546741
0.83022008
0.814974
0.79972908
0.78448526
0.76924246
0.75400061
0.73875965
0.72351952
0.70828016
0.69304152
0.67780356
0.66256622
0.64732947
0.63209326
0.61685756
0.60162233
0.58638755
0.57115317
0.55591918
0.54068555
0.52545224
0.51021924
0.49498653
0.47975409
0.46452189
0.44928993
0.43405817
0.41882662
0.40359525
0.38836405
0.37313301
0.35790212
0.34267136
0.32744073
0.31221022
0.29697982
0.28174951
0.2665193
0.25128917
0.23605913
0.22082916
0.20559925
0.19036941
0.17513962
0.15990989
0.14468021
0.12945057
0.11422098
0.09899142
0.083761898
0.068532408
0.053302947
0.038073511
0.022844101
0.007614695
1.5219637
1.5055302
1.4900314
1.4747446
1.4592933
1.4436817
1.4280397
1.412451
1.3969268
1.3814452
1.3659863
1.3505424
1.3351134
1.3197002
1.3043025
1.2889184
1.2735461
1.2581844
1.2428321
1.2274886
1.2121531
1.1968252
1.1815041
1.1661893
1.1508804
1.135577
1.1202786
1.1049848
1.0896955
1.0744102
1.0591287
1.0438507
1.028576
1.0133043
0.99803553
0.98276942
0.9675058
0.9522445
0.93698538
0.92172829
0.9064731
0.89121967
0.8759679
0.86071768
0.8454689
0.83022146
0.81497529
0.79973029
0.78448639
0.76924351
0.75400159
0.73876056
0.72352037
0.70828095
0.69304226
0.67780424
0.66256686
0.64733006
0.63209381
0.61685807
0.60162281
0.58638799
0.57115359
0.55591957
0.5406859
0.52545257
0.51021955
0.49498682
0.47975436
0.46452214
0.44929016
0.43405839
0.41882682
0.40359543
0.38836422
0.37313317
0.35790227
0.3426715
0.32744086
0.31221034
0.29697992
0.28174961
0.26651939
0.25128926
0.23605921
0.22082923
0.20559932
0.19036947
0.17513968
0.15990994
0.14468026
0.12945062
0.11422102
0.098991457
0.083761932
0.06853244
0.053302975
0.038073538
0.022844119
0.0076147133
1.5217547
1.505238
1.4898299
1.4746793
1.4593143
1.4437248
1.4280726
1.4124716
1.3969433
1.3814627
1.366005
1.3505605
1.3351294
1.3197142
1.3043147
1.2889293
1.2735561
1.2581934
1.2428403
1.227496
1.21216
1.1968314
1.1815098
1.1661946
1.1508853
1.1355815
1.1202827
1.1049887
1.0896991
1.0744135
1.0591318
1.0438536
1.0285787
1.0133068
0.99803787
0.9827716
0.96750783
0.9522464
0.93698715
0.92172994
0.90647463
0.89122111
0.87596924
0.86071893
0.84547006
0.83022255
0.81497631
0.79973124
0.78448727
0.76924434
0.75400236
0.73876128
0.72352104
0.70828158
0.69304284
0.67780479
0.66256736
0.64733053
0.63209425
0.61685848
0.60162319
0.58638835
0.57115392
0.55591988
0.54068619
0.52545284
0.5102198
0.49498705
0.47975457
0.46452234
0.44929034
0.43405856
0.41882698
0.40359558
0.38836436
0.3731333
0.35790238
0.34267161
0.32744096
0.31221043
0.29698001
0.28174969
0.26651947
0.25128933
0.23605927
0.22082929
0.20559937
0.19036952
0.17513973
0.15990999
0.1446803
0.12945065
0.11422105
0.098991488
0.08376196
0.068532466
0.053302998
0.038073561
0.022844136
0.0076147305
1.5217547
1.505238
1.4898299
1.4746793
1.4593142
1.4437248
1.4280726
1.4124716
1.3969433
1.3814627
1.366005
1.3505605
1.3351294
1.3197142
1.3043147
1.2889293
1.2735561
1.2581934
1.2428403
1.227496
1.21216
1.1968314
1.1815098
1.1661946
1.1508853
1.1355815
1.1202828
1.1049887
1.0896991
1.0744135
1.0591318
1.0438536
1.0285787
1.0133068
0.99803787
0.9827716
0.96750783
0.9522464
0.93698715
0.92172994
0.90647463
0.89122111
0.87596924
0.86071893
0.84547006
0.83022255
0.81497631
0.79973124
0.78448727
0.76924434
0.75400236
0.73876128
0.72352104
0.70828158
0.69304284
0.67780479
0.66256736
0.64733053
0.63209425
0.61685848
0.60162319
0.58638835
0.57115392
0.55591988
0.54068619
0.52545284
0.5102198
0.49498705
0.47975457
0.46452234
0.44929034
0.43405856
0.41882698
0.40359558
0.38836436
0.3731333
0.35790238
0.34267161
0.32744096
0.31221043
0.29698001
0.28174969
0.26651947
0.25128933
0.23605927
0.22082929
0.20559937
0.19036952
0.17513973
0.15990999
0.1446803
0.12945065
0.11422105
0.098991489
0.08376196
0.068532466
0.053302998
0.038073561
0.022844137
0.0076147308
1.5219637
1.5055302
1.4900314
1.4747446
1.4592933
1.4436817
1.4280397
1.412451
1.3969268
1.3814452
1.3659863
1.3505424
1.3351134
1.3197002
1.3043025
1.2889184
1.2735462
1.2581844
1.2428321
1.2274886
1.2121532
1.1968252
1.1815041
1.1661893
1.1508804
1.135577
1.1202786
1.1049849
1.0896955
1.0744102
1.0591287
1.0438507
1.028576
1.0133043
0.99803553
0.98276942
0.9675058
0.9522445
0.93698538
0.92172829
0.9064731
0.89121967
0.8759679
0.86071768
0.8454689
0.83022146
0.81497529
0.79973029
0.78448639
0.76924351
0.75400159
0.73876056
0.72352037
0.70828095
0.69304226
0.67780424
0.66256686
0.64733006
0.63209381
0.61685807
0.60162281
0.58638799
0.57115359
0.55591957
0.5406859
0.52545257
0.51021955
0.49498682
0.47975436
0.46452214
0.44929016
0.43405839
0.41882682
0.40359543
0.38836422
0.37313317
0.35790226
0.3426715
0.32744086
0.31221034
0.29697992
0.28174961
0.26651939
0.25128926
0.23605921
0.22082923
0.20559932
0.19036947
0.17513968
0.15990994
0.14468026
0.12945062
0.11422102
0.098991458
0.083761932
0.06853244
0.053302975
0.038073539
0.022844121
0.007614714
1.5223078
1.5059937
1.4903308
1.4748259
1.4592494
1.4436124
1.4279894
1.4124195
1.3969013
1.3814186
1.3659588
1.3505166
1.3350909
1.319681
1.3042858
1.2889036
1.2735328
1.2581723
1.2428212
1.2274787
1.2121442
1.196817
1.1814966
1.1661825
1.1508741
1.1355711
1.1202732
1.1049798
1.0896909
1.0744059
1.0591247
1.043847
1.0285725
1.0133011
0.99803254
0.98276663
0.9675032
0.95224208
0.93698313
0.92172619
0.90647114
0.89121784
0.8759662
0.86071609
0.84546741
0.83022008
0.814974
0.79972908
0.78448526
0.76924246
0.75400061
0.73875965
0.72351952
0.70828016
0.69304152
0.67780356
0.66256622
0.64732947
0.63209326
0.61685756
0.60162233
0.58638755
0.57115317
0.55591918
0.54068554
0.52545224
0.51021924
0.49498653
0.47975409
0.46452189
0.44928993
0.43405817
0.41882662
0.40359525
0.38836405
0.37313301
0.35790212
0.34267136
0.32744073
0.31221022
0.29697982
0.28174951
0.2665193
0.25128917
0.23605913
0.22082916
0.20559925
0.19036941
0.17513962
0.15990989
0.14468021
0.12945057
0.11422098
0.098991421
0.083761899
0.068532408
0.053302948
0.038073512
0.022844102
0.0076146957
1.5226486
1.5064176
1.4905653
1.4748567
1.4591834
1.443539
1.4279391
1.4123868
1.3968743
1.3813918
1.3659326
1.350493
1.3350707
1.3196638
1.3042707
1.2888901
1.2735206
1.2581612
1.2428112
1.2274696
1.2121359
1.1968094
1.1814896
1.166176
1.1508682
1.1355656
1.1202681
1.1049751
1.0896865
1.0744018
1.0591209
1.0438435
1.0285693
1.0132981
0.99802973
0.98276402
0.96750077
0.95223982
0.93698101
0.92172422
0.9064693
0.89121614
0.87596461
0.8607146
0.84546603
0.83021879
0.8149728
0.79972797
0.78448423
0.7692415
0.75399971
0.73875881
0.72351874
0.70827943
0.69304085
0.67780293
0.66256564
0.64732892
0.63209275
0.61685709
0.6016219
0.58638714
0.5711528
0.55591883
0.54068522
0.52545194
0.51021897
0.49498628
0.47975385
0.46452167
0.44928972
0.43405799
0.41882645
0.40359509
0.3883639
0.37313287
0.35790199
0.34267125
0.32744062
0.31221012
0.29697972
0.28174943
0.26651922
0.2512891
0.23605906
0.2208291
0.2055992
0.19036936
0.17513958
0.15990985
0.14468017
0.12945054
0.11422095
0.098991391
0.083761871
0.068532383
0.053302925
0.038073491
0.022844087
0.0076146858
1.5228338
1.506622
1.4906322
1.4748095
1.4590997
1.4434651
1.4278835
1.4123428
1.3968356
1.3813565
1.3659011
1.3504654
1.3350466
1.3196426
1.3042518
1.288873
1.2735051
1.2581471
1.2427982
1.2274577
1.2121249
1.1967993
1.1814802
1.1661673
1.1508601
1.1355582
1.1202612
1.1049687
1.0896805
1.0743963
1.0591157
1.0438386
1.0285648
1.0132939
0.99802582
0.98276038
0.96749737
0.95223665
0.93697807
0.92172147
0.90646674
0.89121375
0.87596238
0.86071254
0.8454641
0.830217
0.81497113
0.79972641
0.78448278
0.76924015
0.75399846
0.73875765
0.72351766
0.70827843
0.69303991
0.67780206
0.66256483
0.64732817
0.63209206
0.61685644
0.6016213
0.58638659
0.57115228
0.55591835
0.54068478
0.52545153
0.51021859
0.49498592
0.47975353
0.46452137
0.44928944
0.43405773
0.41882621
0.40359487
0.3883637
0.37313269
0.35790182
0.34267109
0.32744048
0.31220999
0.2969796
0.28174931
0.26651912
0.25128901
0.23605898
0.22082902
0.20559912
0.19036929
0.17513952
0.15990979
0.14468012
0.12945049
0.1142209
0.098991352
0.083761835
0.068532351
0.053302895
0.038073465
0.022844062
0.0076146729
)
;

boundaryField
{
    top
    {
        type            zeroGradient;
    }
    inlet
    {
        type            fixedValue;
        value           uniform 1.53103;
    }
    outlet
    {
        type            fixedValue;
        value           uniform 0;
    }
    bottom
    {
        type            zeroGradient;
    }
    back
    {
        type            empty;
    }
    front
    {
        type            empty;
    }
}


// ************************************************************************* //
