/*--------------------------------*- C++ -*----------------------------------*\
| =========                 |                                                 |
| \\      /  F ield         | OpenFOAM: The Open Source CFD Toolbox           |
|  \\    /   O peration     | Version:  4.1                                   |
|   \\  /    A nd           | Web:      www.OpenFOAM.org                      |
|    \\/     M anipulation  |                                                 |
\*---------------------------------------------------------------------------*/
FoamFile
{
    version     2.0;
    format      ascii;
    class       surfaceScalarField;
    location    "18";
    object      phi;
}
// * * * * * * * * * * * * * * * * * * * * * * * * * * * * * * * * * * * * * //

dimensions      [0 3 -1 0 0 0 0];

internalField   nonuniform List<scalar> 
1890
(
0.0030564214
1.3403931e-06
0.0030518987
4.5236514e-06
0.0030462935
5.6055007e-06
0.0030412265
5.0668913e-06
0.0030372036
4.0225328e-06
0.0030340546
3.148735e-06
0.003031475
2.5792259e-06
0.0030292624
2.2123087e-06
0.0030273248
1.9373737e-06
0.0030256223
1.7022755e-06
0.0030241242
1.497833e-06
0.0030227973
1.3267467e-06
0.0030216095
1.18761e-06
0.0030205355
1.0739102e-06
0.0030195571
9.7821483e-07
0.0030186619
8.9511079e-07
0.0030178402
8.2155886e-07
0.0030170842
7.5594788e-07
0.0030163869
6.9718776e-07
0.0030157425
6.4431595e-07
0.003015146
5.9646337e-07
0.003014593
5.5290944e-07
0.0030140799
5.1309512e-07
0.0030136033
4.7658512e-07
0.0030131602
4.4302579e-07
0.003012748
4.1211339e-07
0.0030123644
3.8358446e-07
0.0030120072
3.572074e-07
0.0030116744
3.3278265e-07
0.0030113642
3.101342e-07
0.0030110751
2.8910947e-07
0.0030108055
2.695711e-07
0.0030105541
2.5139891e-07
0.0030103196
2.3448295e-07
0.0030101008
2.187269e-07
0.0030098968
2.0404137e-07
0.0030097064
1.9034805e-07
0.0030095288
1.775732e-07
0.0030093632
1.6565228e-07
0.0030092086
1.5452355e-07
0.0030090645
1.441332e-07
0.0030089301
1.3442896e-07
0.0030088047
1.2536555e-07
0.0030086878
1.1689827e-07
0.0030085788
1.089887e-07
0.0030084772
1.0159833e-07
0.0030083825
9.4694393e-08
0.0030082942
8.824344e-08
0.003008212
8.2217372e-08
0.0030081354
7.6587028e-08
0.0030080641
7.1328248e-08
0.0030079977
6.6415447e-08
0.0030079359
6.1827788e-08
0.0030078783
5.7542785e-08
0.0030078248
5.3542461e-08
0.003007775
4.9806942e-08
0.0030077286
4.6320699e-08
0.0030076856
4.3066163e-08
0.0030076455
4.0029939e-08
0.0030076083
3.7196414e-08
0.0030075738
3.4554029e-08
0.0030075417
3.2088925e-08
0.0030075119
2.9791164e-08
0.0030074843
2.7648368e-08
0.0030074586
2.5652e-08
0.0030074348
2.3791029e-08
0.0030074128
2.2058164e-08
0.0030073923
2.0443506e-08
0.0030073734
1.8940839e-08
0.0030073558
1.7541308e-08
0.0030073396
1.6239661e-08
0.0030073246
1.5027906e-08
0.0030073107
1.390163e-08
0.0030072978
1.2853637e-08
0.003007286
1.1880284e-08
0.003007275
1.0975008e-08
0.0030072648
1.0134855e-08
0.0030072555
9.3538232e-09
0.0030072469
8.6296389e-09
0.0030072389
7.9566737e-09
0.0030072316
7.3333378e-09
0.0030072248
6.7542299e-09
0.0030072186
6.2185815e-09
0.0030072129
5.7208722e-09
0.0030072076
5.2614056e-09
0.0030072028
4.834102e-09
0.0030071983
4.4408907e-09
0.0030071943
4.0742699e-09
0.0030071905
3.7387344e-09
0.0030071871
3.4240727e-09
0.003007184
3.1389349e-09
0.0030071811
2.8683236e-09
0.0030071785
2.6272918e-09
0.0030071761
2.3933474e-09
0.0030071739
2.1898802e-09
0.0030071719
1.9860267e-09
0.0030071701
1.8123413e-09
0.0030071685
1.6403481e-09
0.003007167
1.490504e-09
1.455567e-09
0.0077507541
1.4787822e-06
0.0077488867
6.3923035e-06
0.0077455171
8.9755726e-06
0.0077415787
9.0051694e-06
0.0077377401
7.8608529e-06
0.0077341823
6.7061917e-06
0.007730877
5.8842869e-06
0.007727786
5.3030861e-06
0.0077249079
4.8152843e-06
0.007722255
4.3550075e-06
0.0077198277
3.924932e-06
0.0077176109
3.5433596e-06
0.0077155824
3.2159781e-06
0.0077137206
2.9355665e-06
0.0077120076
2.6910817e-06
0.0077104287
2.4739058e-06
0.0077089712
2.2789686e-06
0.0077076238
2.1033133e-06
0.0077063762
1.9446699e-06
0.0077052196
1.8009045e-06
0.007704146
1.6700445e-06
0.0077031484
1.5504181e-06
0.0077022208
1.4406797e-06
0.0077013576
1.3397469e-06
0.0077005538
1.2467148e-06
0.0076998051
1.1608049e-06
0.0076991073
1.0813346e-06
0.0076984568
1.0077084e-06
0.0076978502
9.3940396e-07
0.0076972843
8.7596445e-07
0.0076967564
8.1698391e-07
0.0076962639
7.6210287e-07
0.0076958043
7.1099706e-07
0.0076953753
6.6337705e-07
0.0076949751
6.1897918e-07
0.0076946015
5.7756687e-07
0.007694253
5.3892261e-07
0.0076939277
5.0285042e-07
0.0076936241
4.6916847e-07
0.007693341
4.3771237e-07
0.0076930767
4.0832838e-07
0.0076928303
3.8087738e-07
0.0076926004
3.5522828e-07
0.0076923861
3.3126229e-07
0.0076921862
3.0886673e-07
0.0076919998
2.8793966e-07
0.0076918261
2.683837e-07
0.0076916643
2.5011082e-07
0.0076915134
2.3303638e-07
0.0076913729
2.1708417e-07
0.0076912421
2.0218044e-07
0.0076911202
1.882589e-07
0.0076910068
1.75255e-07
0.0076909012
1.6311109e-07
0.007690803
1.5177062e-07
0.0076907116
1.4118325e-07
0.0076906267
1.3129924e-07
0.0076905477
1.2207474e-07
0.0076904742
1.1346603e-07
0.007690406
1.0543475e-07
0.0076903426
9.7942345e-08
0.0076902837
9.0955375e-08
0.0076902291
8.4439898e-08
0.0076901784
7.8366654e-08
0.0076901313
7.2705638e-08
0.0076900877
6.7431385e-08
0.0076900472
6.2517451e-08
0.0076900097
5.7941566e-08
0.007689975
5.3680315e-08
0.0076899428
4.9714362e-08
0.007689913
4.6023071e-08
0.0076898855
4.2589537e-08
0.00768986
3.9395484e-08
0.0076898364
3.6426254e-08
0.0076898146
3.3665785e-08
0.0076897945
3.1101212e-08
0.0076897759
2.8718397e-08
0.0076897587
2.6506075e-08
0.0076897429
2.445205e-08
0.0076897283
2.2546133e-08
0.0076897149
2.0778016e-08
0.0076897025
1.9138189e-08
0.0076896911
1.7618658e-08
0.0076896806
1.6209619e-08
0.007689671
1.4906066e-08
0.0076896621
1.3696594e-08
0.007689654
1.2580949e-08
0.0076896465
1.1543398e-08
0.0076896397
1.0591584e-08
0.0076896334
9.700813e-09
0.0076896276
8.8929717e-09
0.0076896224
8.1254359e-09
0.0076896176
7.44597e-09
0.0076896132
6.7772161e-09
0.0076896091
6.2159295e-09
0.0076896055
5.618744e-09
0.0076896022
5.1787383e-09
0.0076895992
4.6249748e-09
0.0076895963
4.3514573e-09
3.8056666e-09
0.011135613
1.0869316e-06
0.011136626
5.3804839e-06
0.011137467
8.1348066e-06
0.011137816
8.6566696e-06
0.011137801
7.8754116e-06
0.011137554
6.9526496e-06
0.011137132
6.3055772e-06
0.011136569
5.8661896e-06
0.011135903
5.4808918e-06
0.011135177
5.0809239e-06
0.011134424
4.6782487e-06
0.011133664
4.30282e-06
0.011132911
3.9687115e-06
0.011132174
3.6730967e-06
0.011131458
3.4071722e-06
0.011130767
3.1640429e-06
0.011130106
2.9402671e-06
0.011129475
2.7342513e-06
0.011128875
2.5446934e-06
0.011128306
2.3700793e-06
0.011127767
2.2088337e-06
0.011127258
2.0595549e-06
0.011126777
1.9210923e-06
0.011126324
1.7924974e-06
0.011125898
1.6729521e-06
0.011125497
1.5617219e-06
0.01112512
1.4581426e-06
0.011124766
1.3616139e-06
0.011124434
1.2715976e-06
0.011124123
1.1876078e-06
0.01112383
1.1092058e-06
0.011123556
1.0359905e-06
0.0111233
9.6759675e-07
0.011123059
9.0368802e-07
0.011122834
8.4395705e-07
0.011122624
7.88119e-07
0.011122427
7.3591325e-07
0.011122243
6.8709671e-07
0.01112207
6.4144648e-07
0.011121909
5.9875361e-07
0.011121759
5.5882634e-07
0.011121618
5.2148404e-07
0.011121487
4.8656086e-07
0.011121364
4.5389995e-07
0.01112125
4.2335738e-07
0.011121143
3.9479642e-07
0.011121043
3.6809176e-07
0.01112095
3.4312384e-07
0.011120863
3.1978334e-07
0.011120783
2.9796551e-07
0.011120707
2.7757476e-07
0.011120637
2.5851913e-07
0.011120571
2.4071498e-07
0.01112051
2.2408152e-07
0.011120454
2.0854545e-07
0.011120401
1.9403563e-07
0.011120352
1.8048788e-07
0.011120306
1.6783959e-07
0.011120263
1.5603446e-07
0.011120224
1.4501729e-07
0.011120187
1.3473879e-07
0.011120153
1.2515031e-07
0.011120121
1.1620864e-07
0.011120091
1.0787085e-07
0.011120064
1.0009913e-07
0.011120039
9.285563e-08
0.011120015
8.6107257e-08
0.011119993
7.9820556e-08
0.011119973
7.3966651e-08
0.011119954
6.8516018e-08
0.011119937
6.3443438e-08
0.011119921
5.8722774e-08
0.011119906
5.4332124e-08
0.011119892
5.024835e-08
0.011119879
4.6452462e-08
0.011119867
4.2923827e-08
0.011119856
3.9646202e-08
0.011119846
3.6601051e-08
0.011119837
3.3774716e-08
0.011119828
3.1150125e-08
0.01111982
2.8716426e-08
0.011119813
2.6457227e-08
0.011119806
2.4365015e-08
0.0111198
2.2422622e-08
0.011119794
2.0627404e-08
0.011119789
1.8958912e-08
0.011119784
1.7422474e-08
0.01111978
1.5989373e-08
0.011119776
1.4679508e-08
0.011119772
1.3446326e-08
0.011119768
1.2337446e-08
0.011119765
1.1269342e-08
0.011119762
1.0343495e-08
0.01111976
9.4022189e-09
0.011119757
8.6534978e-09
0.011119755
7.7945594e-09
0.011119753
7.2387606e-09
0.011119751
6.4086362e-09
0.01111975
6.0946439e-09
5.2668416e-09
0.013321636
5.577489e-07
0.013324058
2.9593248e-06
0.013327541
4.6516684e-06
0.01333109
5.1072821e-06
0.013334228
4.7371924e-06
0.013336947
4.2334718e-06
0.013339361
3.891694e-06
0.01334155
3.6769641e-06
0.013343541
3.4896442e-06
0.013345341
3.2810465e-06
0.01334696
3.059153e-06
0.013348416
2.8458249e-06
0.013349732
2.652478e-06
0.013350927
2.478702e-06
0.013352014
2.3196027e-06
0.013353007
2.1713643e-06
0.013353915
2.0324379e-06
0.013354746
1.9024336e-06
0.01335551
1.7810458e-06
0.013356212
1.6677153e-06
0.013356859
1.5617564e-06
0.013357456
1.462538e-06
0.013358008
1.3695464e-06
0.013358518
1.282364e-06
0.01335899
1.2006202e-06
0.013359428
1.1239733e-06
0.013359834
1.0520975e-06
0.013360211
9.84693e-07
0.013360561
9.2147776e-07
0.013360886
8.6219547e-07
0.013361189
8.0660247e-07
0.01336147
7.5447615e-07
0.013361732
7.0560198e-07
0.013361976
6.5978457e-07
0.013362203
6.1683441e-07
0.013362415
5.7658002e-07
0.013362612
5.3885372e-07
0.013362795
5.0350469e-07
0.013362967
4.7038425e-07
0.013363126
4.3935975e-07
0.013363274
4.1029929e-07
0.013363413
3.8308607e-07
0.013363542
3.5760298e-07
0.013363662
3.3374737e-07
0.013363774
3.1141524e-07
0.013363878
2.9051633e-07
0.013363975
2.7095818e-07
0.013364066
2.5266164e-07
0.01336415
2.3554454e-07
0.013364228
2.195374e-07
0.013364301
2.0456715e-07
0.013364369
1.90573e-07
0.013364433
1.7748996e-07
0.013364491
1.6526481e-07
0.013364546
1.5383971e-07
0.013364597
1.4316825e-07
0.013364644
1.3319894e-07
0.013364688
1.2389128e-07
0.013364729
1.1519936e-07
0.013364767
1.0708805e-07
0.013364802
9.9516423e-08
0.013364835
9.2453935e-08
0.013364865
8.5864052e-08
0.013364893
7.9720401e-08
0.013364919
7.399038e-08
0.013364944
6.8651184e-08
0.013364966
6.3673626e-08
0.013364987
5.9038173e-08
0.013365006
5.4718726e-08
0.013365024
5.0698505e-08
0.01336504
4.695409e-08
0.013365056
4.3471234e-08
0.01336507
4.0228973e-08
0.013365083
3.7215137e-08
0.013365095
3.4410914e-08
0.013365106
3.1806017e-08
0.013365116
2.9383697e-08
0.013365126
2.7135061e-08
0.013365134
2.5045321e-08
0.013365143
2.310664e-08
0.01336515
2.1306435e-08
0.013365157
1.9637088e-08
0.013365163
1.8088748e-08
0.013365169
1.6652882e-08
0.013365174
1.5323839e-08
0.013365179
1.4089709e-08
0.013365183
1.2951984e-08
0.013365188
1.1890846e-08
0.013365191
1.0921265e-08
0.013365195
1.0006328e-08
0.013365198
9.1868505e-09
0.013365201
8.3910773e-09
0.013365203
7.7098657e-09
0.013365206
7.0035707e-09
0.013365208
6.45876e-09
0.01336521
5.8079501e-09
0.013365212
5.4128224e-09
0.013365213
4.7738146e-09
0.013365215
4.5583031e-09
3.9405387e-09
0.014392368
3.2671111e-11
0.014395328
9.6771097e-11
0.01439998
3.3891777e-11
0.014405086
-1.9682953e-11
0.014409823
-2.052553e-11
0.014414056
4.2267763e-11
0.014417948
1.0946317e-10
0.014421624
1.4904419e-10
0.014425114
1.5921814e-10
0.014428394
1.6179625e-10
0.014431453
1.6520694e-10
0.014434299
1.7054214e-10
0.014436951
1.7157475e-10
0.014439429
1.683483e-10
0.014441749
1.6026316e-10
0.01444392
1.4982171e-10
0.014445952
1.3741654e-10
0.014447854
1.2402608e-10
0.014449635
1.0997075e-10
0.014451303
9.5502599e-11
0.014452864
8.1378755e-11
0.014454327
6.7377927e-11
0.014455696
5.4536588e-11
0.014456978
4.2136723e-11
0.014458179
3.1292509e-11
0.014459303
2.085727e-11
0.014460355
1.2148762e-11
0.014461339
4.0109744e-12
0.014462261
-2.6457185e-12
0.014463123
-9.3331591e-12
0.01446393
-1.41185e-11
0.014464684
-1.8962738e-11
0.01446539
-2.2135872e-11
0.01446605
-2.5700931e-11
0.014466666
-2.7684225e-11
0.014467243
-3.0184888e-11
0.014467782
-3.1138614e-11
0.014468285
-3.2891632e-11
0.014468756
-3.3196651e-11
0.014469195
-3.434266e-11
0.014469606
-3.404484e-11
0.014469989
-3.4807265e-11
0.014470346
-3.4204865e-11
0.01447068
-3.463987e-11
0.014470992
-3.3690239e-11
0.014471282
-3.3948817e-11
0.014471553
-3.2888923e-11
0.014471806
-3.296991e-11
0.014472041
-3.1698758e-11
0.014472261
-3.1706225e-11
0.014472465
-3.0420821e-11
0.014472656
-3.0321557e-11
0.014472834
-2.8887461e-11
0.014472999
-2.8758502e-11
0.014473153
-2.735092e-11
0.014473296
-2.7143089e-11
0.014473429
-2.561166e-11
0.014473553
-2.5388789e-11
0.014473668
-2.389849e-11
0.014473775
-2.3606024e-11
0.014473875
-2.2001789e-11
0.014473967
-2.1699246e-11
0.014474053
-2.0142909e-11
0.014474133
-1.9777104e-11
0.014474207
-1.811625e-11
0.014474276
-1.7747844e-11
0.014474339
-1.6145451e-11
0.014474399
-1.5726795e-11
0.014474453
-1.4037469e-11
0.014474504
-1.3632909e-11
0.014474551
-1.2022438e-11
0.014474594
-1.1591662e-11
0.014474635
-9.9237222e-12
0.014474672
-9.534691e-12
0.014474706
-7.9774138e-12
0.014474738
-7.597423e-12
0.014474767
-6.0253748e-12
0.014474795
-5.7239147e-12
0.01447482
-4.3066255e-12
0.014474843
-4.0593733e-12
0.014474864
-2.6873368e-12
0.014474884
-2.5636074e-12
0.014474902
-1.4063123e-12
0.014474918
-1.3919241e-12
0.014474934
-3.7628185e-13
0.014474948
-5.3327337e-13
0.014474961
2.3908055e-13
0.014474973
-1.7114646e-13
0.014474984
4.0004456e-13
0.014474994
-3.3966982e-13
0.014475003
-2.2187002e-13
0.014475011
-1.611322e-12
0.014475019
-2.1038923e-12
0.014475026
-4.1303553e-12
0.014475032
-4.7433359e-12
0.014475038
-5.9259465e-12
0.014475044
-6.5477366e-12
0.014475048
-6.9714265e-12
0.014475053
-1.0150028e-11
-1.1374447e-11
0.014392366
-5.5780889e-07
0.014395327
-2.9596681e-06
0.014399979
-4.6520155e-06
0.014405086
-5.1074712e-06
0.014409823
-4.7372174e-06
0.014414056
-4.2334095e-06
0.014417947
-3.8915652e-06
0.014421624
-3.6767828e-06
0.014425113
-3.4894252e-06
0.014428394
-3.2807964e-06
0.014431453
-3.0588801e-06
0.014434298
-2.845536e-06
0.014436951
-2.6521836e-06
0.014439429
-2.4784101e-06
0.014441748
-2.3193214e-06
0.01444392
-2.1710987e-06
0.014445952
-2.0321925e-06
0.014447854
-1.9022113e-06
0.014449635
-1.7808484e-06
0.014451303
-1.6675436e-06
0.014452864
-1.5616103e-06
0.014454327
-1.4624169e-06
0.014455696
-1.3694489e-06
0.014456978
-1.2822887e-06
0.014458179
-1.2005651e-06
0.014459303
-1.1239369e-06
0.014460355
-1.0520772e-06
0.01446134
-9.8468741e-07
0.014462261
-9.2148463e-07
0.014463123
-8.6221392e-07
0.01446393
-8.0663001e-07
0.014464684
-7.5451199e-07
0.01446539
-7.0564399e-07
0.01446605
-6.5983248e-07
0.014466667
-6.1688627e-07
0.014467243
-5.7663576e-07
0.014467782
-5.3891167e-07
0.014468286
-5.0356515e-07
0.014468756
-4.7044565e-07
0.014469195
-4.3942253e-07
0.014469606
-4.1036205e-07
0.014469989
-3.8314952e-07
0.014470346
-3.5766577e-07
0.01447068
-3.3381024e-07
0.014470992
-3.1147696e-07
0.014471282
-2.9057783e-07
0.014471553
-2.7101824e-07
0.014471806
-2.5272114e-07
0.014472041
-2.3560235e-07
0.014472261
-2.1959456e-07
0.014472465
-2.0462248e-07
0.014472656
-1.9062747e-07
0.014472834
-1.7754247e-07
0.014472999
-1.6531644e-07
0.014473153
-1.5388931e-07
0.014473296
-1.4321681e-07
0.014473429
-1.3324537e-07
0.014473553
-1.2393667e-07
0.014473668
-1.152426e-07
0.014473775
-1.071301e-07
0.014473875
-9.9556222e-08
0.014473967
-9.2492567e-08
0.014474053
-8.5900398e-08
0.014474133
-7.9755452e-08
0.014474207
-7.4023069e-08
0.014474276
-6.86826e-08
0.014474339
-6.370267e-08
0.014474398
-5.9065841e-08
0.014474453
-5.4743975e-08
0.014474504
-5.0722431e-08
0.014474551
-4.6975625e-08
0.014474594
-4.3491389e-08
0.014474635
-4.0246741e-08
0.014474672
-3.7231632e-08
0.014474706
-3.4425109e-08
0.014474738
-3.1818948e-08
0.014474767
-2.9394404e-08
0.014474795
-2.7144686e-08
0.01447482
-2.5052889e-08
0.014474843
-2.3113222e-08
0.014474864
-2.1311134e-08
0.014474884
-1.9641078e-08
0.014474902
-1.8091124e-08
0.014474918
-1.6654758e-08
0.014474934
-1.5324404e-08
0.014474948
-1.4090164e-08
0.014474961
-1.2951525e-08
0.014474973
-1.1890676e-08
0.014474984
-1.092065e-08
0.014474994
-1.0006639e-08
0.014475003
-9.1874712e-09
0.014475011
-8.3935977e-09
0.014475019
-7.7138863e-09
0.014475026
-7.0106264e-09
0.014475032
-6.4672396e-09
0.014475038
-5.8185226e-09
0.014475044
-5.4242692e-09
0.014475048
-4.7853125e-09
0.014475053
-4.5743348e-09
-3.9581332e-09
0.013321636
-1.0869187e-06
0.013324058
-5.3803935e-06
0.013327541
-8.1347574e-06
0.01333109
-8.6567094e-06
0.013334228
-7.8754706e-06
0.013336947
-6.9526916e-06
0.01333936
-6.3055674e-06
0.013341549
-5.8661326e-06
0.013343541
-5.4807874e-06
0.01334534
-5.0807853e-06
0.013346959
-4.6780796e-06
0.013348416
-4.302632e-06
0.013349733
-3.9685093e-06
0.013350927
-3.6728906e-06
0.013352014
-3.4069676e-06
0.013353007
-3.1638469e-06
0.013353915
-2.9400837e-06
0.013354747
-2.734084e-06
0.01335551
-2.5445443e-06
0.013356213
-2.3699492e-06
0.01335686
-2.2087236e-06
0.013357457
-2.0594634e-06
0.013358008
-1.9210198e-06
0.013358518
-1.7924412e-06
0.01335899
-1.6729126e-06
0.013359428
-1.5616956e-06
0.013359834
-1.45813e-06
0.013360211
-1.3616112e-06
0.013360561
-1.2716059e-06
0.013360887
-1.1876231e-06
0.013361189
-1.1092294e-06
0.013361471
-1.0360185e-06
0.013361733
-9.6763108e-07
0.013361976
-9.0372469e-07
0.013362204
-8.4399827e-07
0.013362415
-7.8816095e-07
0.013362612
-7.359586e-07
0.013362796
-6.8714165e-07
0.013362967
-6.4149386e-07
0.013363126
-5.987997e-07
0.013363275
-5.5887433e-07
0.013363413
-5.2153018e-07
0.013363542
-4.866084e-07
0.013363662
-4.5394521e-07
0.013363774
-4.2340385e-07
0.013363878
-3.9484038e-07
0.013363975
-3.6813665e-07
0.013364066
-3.4316601e-07
0.01336415
-3.1982641e-07
0.013364228
-2.9800578e-07
0.013364301
-2.7761576e-07
0.013364369
-2.5855721e-07
0.013364433
-2.4075384e-07
0.013364491
-2.2411743e-07
0.013364546
-2.0858199e-07
0.013364597
-1.9406915e-07
0.013364644
-1.8052209e-07
0.013364688
-1.6787076e-07
0.013364729
-1.5606618e-07
0.013364767
-1.4504591e-07
0.013364802
-1.3476801e-07
0.013364835
-1.2517643e-07
0.013364865
-1.1623522e-07
0.013364893
-1.0789426e-07
0.013364919
-1.0012306e-07
0.013364943
-9.2876407e-08
0.013364966
-8.6128429e-08
0.013364987
-7.9838525e-08
0.013365006
-7.3985094e-08
0.013365024
-6.8531295e-08
0.01336504
-6.3459092e-08
0.013365055
-5.8735252e-08
0.01336507
-5.4345095e-08
0.013365083
-5.0258224e-08
0.013365095
-4.6462779e-08
0.013365106
-4.2931088e-08
0.013365116
-3.9654077e-08
0.013365125
-3.6606005e-08
0.013365134
-3.3780298e-08
0.013365142
-3.1152893e-08
0.01336515
-2.8720062e-08
0.013365156
-2.6458255e-08
0.013365163
-2.4367009e-08
0.013365169
-2.2422193e-08
0.013365174
-2.0628286e-08
0.013365179
-1.8957663e-08
0.013365183
-1.7422759e-08
0.013365187
-1.5987809e-08
0.013365191
-1.4679997e-08
0.013365194
-1.3445418e-08
0.013365198
-1.2339061e-08
0.0133652
-1.1269922e-08
0.013365203
-1.0347439e-08
0.013365206
-9.4055831e-09
0.013365208
-8.6604685e-09
0.01336521
-7.8011056e-09
0.013365212
-7.2465316e-09
0.013365213
-6.414927e-09
0.013365215
-6.0999296e-09
-5.2731311e-09
0.011135613
-1.4787513e-06
0.011136626
-6.3921203e-06
0.011137467
-8.9753463e-06
0.011137815
-9.0050677e-06
0.0111378
-7.8609307e-06
0.011137554
-6.7063796e-06
0.011137132
-5.8844824e-06
0.011136569
-5.3032268e-06
0.011135903
-4.8153531e-06
0.011135177
-4.3550174e-06
0.011134424
-3.9248999e-06
0.011133664
-3.5432986e-06
0.011132912
-3.2158955e-06
0.011132174
-2.9354691e-06
0.011131458
-2.6909763e-06
0.011130768
-2.4737992e-06
0.011130106
-2.278866e-06
0.011129475
-2.1032182e-06
0.011128875
-1.9445848e-06
0.011128306
-1.8008302e-06
0.011127767
-1.6699821e-06
0.011127258
-1.550367e-06
0.011126778
-1.4406399e-06
0.011126325
-1.3397173e-06
0.011125899
-1.2466951e-06
0.011125498
-1.1607932e-06
0.011125121
-1.0813305e-06
0.011124767
-1.0077104e-06
0.011124435
-9.3941183e-07
0.011124123
-8.7597639e-07
0.011123831
-8.17e-07
0.011123557
-7.6212156e-07
0.0111233
-7.1101862e-07
0.01112306
-6.6339989e-07
0.011122835
-6.190038e-07
0.011122624
-5.7759199e-07
0.011122427
-5.3894891e-07
0.011122243
-5.0287651e-07
0.011122071
-4.6919514e-07
0.01112191
-4.3773852e-07
0.011121759
-4.0835491e-07
0.011121618
-3.8090303e-07
0.011121487
-3.5525401e-07
0.011121364
-3.3128706e-07
0.01112125
-3.0889158e-07
0.011121143
-2.8796337e-07
0.011121043
-2.6840731e-07
0.01112095
-2.5013333e-07
0.011120863
-2.3305886e-07
0.011120783
-2.1710543e-07
0.011120707
-2.0220155e-07
0.011120637
-1.8827887e-07
0.011120571
-1.7527492e-07
0.01112051
-1.6312977e-07
0.011120454
-1.5178912e-07
0.011120401
-1.4120058e-07
0.011120351
-1.313165e-07
0.011120306
-1.2209073e-07
0.011120263
-1.1348182e-07
0.011120224
-1.0544935e-07
0.011120187
-9.795684e-08
0.011120153
-9.096858e-08
0.011120121
-8.445287e-08
0.011120091
-7.8378411e-08
0.011120064
-7.2717255e-08
0.011120038
-6.7441692e-08
0.011120015
-6.2527499e-08
0.011119993
-5.7950387e-08
0.011119973
-5.3688983e-08
0.011119954
-4.9721724e-08
0.011119936
-4.6030178e-08
0.01111992
-4.2595441e-08
0.011119905
-3.940126e-08
0.011119891
-3.643077e-08
0.011119879
-3.3670101e-08
0.011119867
-3.11044e-08
0.011119856
-2.8721542e-08
0.011119846
-2.650807e-08
0.011119836
-2.4453965e-08
0.011119828
-2.2547064e-08
0.01111982
-2.0779064e-08
0.011119813
-1.9138274e-08
0.011119806
-1.7618873e-08
0.0111198
-1.6209082e-08
0.011119794
-1.4905912e-08
0.011119789
-1.3695761e-08
0.011119784
-1.258059e-08
0.011119779
-1.1542636e-08
0.011119775
-1.0591652e-08
0.011119772
-9.7006204e-09
0.011119768
-8.8937444e-09
0.011119765
-8.1259995e-09
0.011119762
-7.4475329e-09
0.011119759
-6.7783199e-09
0.011119757
-6.2185523e-09
0.011119755
-5.6221558e-09
0.011119753
-5.1815916e-09
0.011119751
-4.6264985e-09
0.011119749
-4.3481e-09
-3.8021965e-09
0.0077507545
-1.3402988e-06
0.007748887
-4.5234957e-06
0.0077455175
-5.6053683e-06
0.0077415792
-5.0668582e-06
0.0077377405
-4.0226622e-06
0.0077341827
-3.1489846e-06
0.0077308773
-2.5795085e-06
0.0077277863
-2.2125441e-06
0.0077249081
-1.937541e-06
0.0077222551
-1.7023828e-06
0.0077198278
-1.4979031e-06
0.0077176111
-1.3267911e-06
0.0077155826
-1.1876369e-06
0.0077137208
-1.0739221e-06
0.0077120079
-9.7821678e-07
0.007710429
-8.9510645e-07
0.0077089715
-8.2155205e-07
0.0077076241
-7.5594109e-07
0.0077063766
-6.971821e-07
0.00770522
-6.4431268e-07
0.0077041464
-5.9646207e-07
0.0077031488
-5.5291118e-07
0.0077022212
-5.1309873e-07
0.007701358
-4.7659165e-07
0.0077005543
-4.4303348e-07
0.0076998056
-4.1212348e-07
0.0076991078
-3.8359496e-07
0.0076984572
-3.5721981e-07
0.0076978506
-3.3279474e-07
0.0076972847
-3.1014772e-07
0.0076967568
-2.8912219e-07
0.0076962642
-2.6958496e-07
0.0076958046
-2.5141152e-07
0.0076953757
-2.3449647e-07
0.0076949754
-2.1873895e-07
0.0076946018
-2.0405425e-07
0.0076942532
-1.9035926e-07
0.0076939279
-1.7758518e-07
0.0076936244
-1.6566256e-07
0.0076933411
-1.5453464e-07
0.0076930769
-1.441425e-07
0.0076928304
-1.3443907e-07
0.0076926005
-1.2537392e-07
0.0076923862
-1.1690753e-07
0.0076921863
-1.0899619e-07
0.0076919999
-1.0160673e-07
0.0076918262
-9.4701096e-08
0.0076916643
-8.8251132e-08
0.0076915135
-8.2223343e-08
0.0076913729
-7.6593997e-08
0.0076912421
-7.1333568e-08
0.0076911202
-6.6421832e-08
0.0076910068
-6.1832502e-08
0.0076909012
-5.7548558e-08
0.0076908029
-5.3546629e-08
0.0076907116
-4.9812223e-08
0.0076906266
-4.6324344e-08
0.0076905475
-4.3070901e-08
0.0076904741
-4.0033102e-08
0.0076904058
-3.7200712e-08
0.0076903424
-3.4556716e-08
0.0076902836
-3.209272e-08
0.0076902289
-2.9793403e-08
0.0076901782
-2.7651751e-08
0.0076901311
-2.5653789e-08
0.0076900875
-2.3793933e-08
0.007690047
-2.2059528e-08
0.0076900095
-2.044602e-08
0.0076899748
-1.8941777e-08
0.0076899426
-1.7543367e-08
0.0076899128
-1.6240203e-08
0.0076898852
-1.5029607e-08
0.0076898597
-1.3901783e-08
0.0076898362
-1.2854928e-08
0.0076898144
-1.1880091e-08
0.0076897942
-1.0976e-08
0.0076897757
-1.0134339e-08
0.0076897585
-9.3544805e-09
0.0076897427
-8.6288639e-09
0.0076897281
-7.9571275e-09
0.0076897146
-7.3323475e-09
0.0076897023
-6.7544694e-09
0.0076896909
-6.2174647e-09
0.0076896804
-5.7210544e-09
0.0076896707
-5.2602361e-09
0.0076896619
-4.8342529e-09
0.0076896537
-4.4398007e-09
0.0076896463
-4.0745972e-09
0.0076896394
-3.7378747e-09
0.0076896331
-3.4246595e-09
0.0076896274
-3.138316e-09
0.0076896221
-2.8689301e-09
0.0076896173
-2.6260868e-09
0.0076896129
-2.3932035e-09
0.0076896089
-2.188774e-09
0.0076896053
-1.985575e-09
0.0076896019
-1.81146e-09
0.0076895989
-1.639889e-09
0.0076895961
-1.4869353e-09
-1.4508356e-09
0.0030564223
0.0030518992
0.0030462939
0.0030412269
0.003037204
0.0030340548
0.0030314751
0.0030292623
0.0030273246
0.0030256221
0.003024124
0.0030227971
0.0030216094
0.0030205354
0.003019557
0.0030186619
0.0030178402
0.0030170842
0.003016387
0.0030157426
0.0030151461
0.0030145932
0.00301408
0.0030136034
0.0030131603
0.0030127482
0.0030123646
0.0030120073
0.0030116745
0.0030113644
0.0030110752
0.0030108056
0.0030105542
0.0030103197
0.0030101009
0.0030098969
0.0030097065
0.0030095289
0.0030093632
0.0030092087
0.0030090645
0.0030089301
0.0030088047
0.0030086878
0.0030085788
0.0030084772
0.0030083825
0.0030082942
0.003008212
0.0030081354
0.0030080641
0.0030079977
0.0030079358
0.0030078783
0.0030078247
0.0030077749
0.0030077286
0.0030076855
0.0030076455
0.0030076083
0.0030075737
0.0030075417
0.0030075119
0.0030074842
0.0030074586
0.0030074348
0.0030074127
0.0030073923
0.0030073733
0.0030073558
0.0030073395
0.0030073245
0.0030073106
0.0030072978
0.0030072859
0.0030072749
0.0030072648
0.0030072554
0.0030072468
0.0030072388
0.0030072315
0.0030072247
0.0030072185
0.0030072128
0.0030072075
0.0030072027
0.0030071983
0.0030071942
0.0030071905
0.003007187
0.0030071839
0.003007181
0.0030071784
0.003007176
0.0030071738
0.0030071718
0.00300717
0.0030071684
0.0030071669
)
;

boundaryField
{
    top
    {
        type            calculated;
        value           uniform 0;
    }
    inlet
    {
        type            calculated;
        value           nonuniform List<scalar> 10(-0.0030577608 -0.0077508916 -0.01113522 -0.013321106 -0.014391809 -0.014391807 -0.013321106 -0.01113522 -0.007750892 -0.003057762);
    }
    outlet
    {
        type            calculated;
        value           nonuniform List<scalar> 10(0.0030071655 0.007689594 0.011119748 0.013365216 0.014475057 0.014475057 0.013365216 0.011119748 0.0076895937 0.0030071655);
    }
    bottom
    {
        type            calculated;
        value           uniform 0;
    }
    back
    {
        type            empty;
        value           nonuniform 0();
    }
    front
    {
        type            empty;
        value           nonuniform 0();
    }
}


// ************************************************************************* //
