/*--------------------------------*- C++ -*----------------------------------*\
| =========                 |                                                 |
| \\      /  F ield         | OpenFOAM: The Open Source CFD Toolbox           |
|  \\    /   O peration     | Version:  4.1                                   |
|   \\  /    A nd           | Web:      www.OpenFOAM.org                      |
|    \\/     M anipulation  |                                                 |
\*---------------------------------------------------------------------------*/
FoamFile
{
    version     2.0;
    format      ascii;
    class       volVectorField;
    location    "18";
    object      U;
}
// * * * * * * * * * * * * * * * * * * * * * * * * * * * * * * * * * * * * * //

dimensions      [0 1 -1 0 0 0 0];

internalField   nonuniform List<vector> 
1000
(
(0.31658795 0.00011676456 0)
(0.31632756 0.00034470828 0)
(0.31575315 0.00038128008 0)
(0.31516623 0.00029352144 0)
(0.3146872 0.0001927633 0)
(0.31431822 0.00012829819 0)
(0.3140252 9.6842483e-05 0)
(0.31377919 8.0942031e-05 0)
(0.31356519 6.947497e-05 0)
(0.31337714 5.93489e-05 0)
(0.31321183 5.0888828e-05 0)
(0.31306602 4.4501284e-05 0)
(0.31293626 3.9859824e-05 0)
(0.31281952 3.6314146e-05 0)
(0.31271353 3.3346944e-05 0)
(0.31261673 3.070454e-05 0)
(0.31252801 2.8309923e-05 0)
(0.31244647 2.6145552e-05 0)
(0.31237134 2.4192594e-05 0)
(0.31230199 2.2422229e-05 0)
(0.31223783 2.0805735e-05 0)
(0.3121784 1.9321482e-05 0)
(0.31212327 1.7954918e-05 0)
(0.31207209 1.6695276e-05 0)
(0.31202453 1.5533222e-05 0)
(0.3119803 1.4459859e-05 0)
(0.31193914 1.3467016e-05 0)
(0.31190083 1.2547293e-05 0)
(0.31186514 1.1694303e-05 0)
(0.31183188 1.0902314e-05 0)
(0.31180089 1.0166341e-05 0)
(0.31177199 9.4817812e-06 0)
(0.31174504 8.844617e-06 0)
(0.31171991 8.2510942e-06 0)
(0.31169646 7.6979627e-06 0)
(0.31167459 7.1821382e-06 0)
(0.31165419 6.7009665e-06 0)
(0.31163516 6.2518814e-06 0)
(0.31161741 5.8326884e-06 0)
(0.31160084 5.4412203e-06 0)
(0.3115854 5.0756444e-06 0)
(0.31157099 4.7341159e-06 0)
(0.31155755 4.4150924e-06 0)
(0.31154502 4.1169843e-06 0)
(0.31153333 3.8384843e-06 0)
(0.31152244 3.5782165e-06 0)
(0.31151228 3.335068e-06 0)
(0.31150282 3.1078352e-06 0)
(0.311494 2.8955668e-06 0)
(0.31148579 2.6972093e-06 0)
(0.31147814 2.5119478e-06 0)
(0.31147101 2.338851e-06 0)
(0.31146438 2.1772201e-06 0)
(0.31145821 2.026233e-06 0)
(0.31145246 1.8852909e-06 0)
(0.31144711 1.7536612e-06 0)
(0.31144214 1.6308305e-06 0)
(0.31143752 1.5161487e-06 0)
(0.31143322 1.4091769e-06 0)
(0.31142923 1.3093321e-06 0)
(0.31142552 1.2162398e-06 0)
(0.31142207 1.1293803e-06 0)
(0.31141887 1.0484357e-06 0)
(0.3114159 9.7293683e-07 0)
(0.31141314 9.0261504e-07 0)
(0.31141058 8.3705042e-07 0)
(0.31140821 7.760178e-07 0)
(0.31140602 7.1913563e-07 0)
(0.31140398 6.6621649e-07 0)
(0.31140209 6.169174e-07 0)
(0.31140035 5.7108475e-07 0)
(0.31139873 5.2840438e-07 0)
(0.31139723 4.8875216e-07 0)
(0.31139585 4.5184382e-07 0)
(0.31139457 4.1758221e-07 0)
(0.31139339 3.857037e-07 0)
(0.3113923 3.5613549e-07 0)
(0.31139129 3.2863542e-07 0)
(0.31139036 3.0315478e-07 0)
(0.3113895 2.7946247e-07 0)
(0.31138871 2.5753452e-07 0)
(0.31138798 2.3714877e-07 0)
(0.31138731 2.1831118e-07 0)
(0.31138669 2.0079231e-07 0)
(0.31138613 1.8463764e-07 0)
(0.3113856 1.6959773e-07 0)
(0.31138512 1.5577713e-07 0)
(0.31138468 1.4287293e-07 0)
(0.31138428 1.3108006e-07 0)
(0.31138391 1.2000457e-07 0)
(0.31138357 1.0997695e-07 0)
(0.31138326 1.0045555e-07 0)
(0.31138298 9.1945225e-08 0)
(0.31138272 8.3732515e-08 0)
(0.31138248 7.6426476e-08 0)
(0.31138226 6.935177e-08 0)
(0.31138207 6.2805874e-08 0)
(0.31138188 5.7323016e-08 0)
(0.31138175 5.1241461e-08 0)
(0.31138154 5.4191124e-08 0)
(0.80248651 0.0001319373 0)
(0.80269398 0.0005858972 0)
(0.80233677 0.00083045103 0)
(0.80183945 0.00082089682 0)
(0.80139519 0.0006920273 0)
(0.80101756 0.00056084418 0)
(0.80067392 0.00046777744 0)
(0.80034662 0.00040550377 0)
(0.80003583 0.00035760483 0)
(0.79974699 0.0003155103 0)
(0.79948284 0.00027804362 0)
(0.79924245 0.00024618878 0)
(0.79902314 0.00022005007 0)
(0.79882216 0.00019861648 0)
(0.79863737 0.00018058999 0)
(0.79846715 0.00016498683 0)
(0.79831013 0.00015123548 0)
(0.79816511 0.0001390187 0)
(0.79803095 0.00012811548 0)
(0.79790665 0.00011833242 0)
(0.79779133 0.00010949777 0)
(0.79768424 0.0001014707 0)
(0.79758468 9.4142353e-05 0)
(0.79749208 8.7428579e-05 0)
(0.79740587 8.1261389e-05 0)
(0.79732559 7.5583223e-05 0)
(0.79725078 7.0344381e-05 0)
(0.79718105 6.5501762e-05 0)
(0.79711603 6.1018125e-05 0)
(0.79705539 5.6861053e-05 0)
(0.79699882 5.3002205e-05 0)
(0.79694604 4.9416448e-05 0)
(0.7968968 4.6081484e-05 0)
(0.79685084 4.2977291e-05 0)
(0.79680795 4.0085976e-05 0)
(0.79676793 3.7391324e-05 0)
(0.79673058 3.4878751e-05 0)
(0.79669573 3.2534924e-05 0)
(0.79666321 3.0347785e-05 0)
(0.79663286 2.8306211e-05 0)
(0.79660455 2.6400102e-05 0)
(0.79657814 2.4620083e-05 0)
(0.7965535 2.2957615e-05 0)
(0.79653052 2.1404715e-05 0)
(0.7965091 1.9954099e-05 0)
(0.79648912 1.859892e-05 0)
(0.7964705 1.7332932e-05 0)
(0.79645314 1.6150222e-05 0)
(0.79643697 1.5045395e-05 0)
(0.7964219 1.4013326e-05 0)
(0.79640787 1.3049345e-05 0)
(0.7963948 1.2148985e-05 0)
(0.79638263 1.1308184e-05 0)
(0.7963713 1.0523044e-05 0)
(0.79636076 9.7900311e-06 0)
(0.79635096 9.105727e-06 0)
(0.79634184 8.467045e-06 0)
(0.79633336 7.8709907e-06 0)
(0.79632547 7.3148713e-06 0)
(0.79631815 6.796053e-06 0)
(0.79631134 6.3121786e-06 0)
(0.79630502 5.8609348e-06 0)
(0.79629914 5.4402649e-06 0)
(0.7962937 5.0481293e-06 0)
(0.79628864 4.6827265e-06 0)
(0.79628395 4.342263e-06 0)
(0.7962796 4.0251686e-06 0)
(0.79627557 3.729859e-06 0)
(0.79627183 3.4549599e-06 0)
(0.79626837 3.1990767e-06 0)
(0.79626517 2.9610154e-06 0)
(0.7962622 2.7395408e-06 0)
(0.79625946 2.5336108e-06 0)
(0.79625692 2.3421355e-06 0)
(0.79625458 2.1642162e-06 0)
(0.79625241 1.9988809e-06 0)
(0.79625041 1.8453544e-06 0)
(0.79624856 1.7027683e-06 0)
(0.79624686 1.5704723e-06 0)
(0.79624528 1.4476706e-06 0)
(0.79624383 1.3338322e-06 0)
(0.7962425 1.228208e-06 0)
(0.79624127 1.1304117e-06 0)
(0.79624014 1.0396844e-06 0)
(0.7962391 9.5581963e-07 0)
(0.79623814 8.7797485e-07 0)
(0.79623726 8.0621848e-07 0)
(0.79623645 7.3948058e-07 0)
(0.79623571 6.7825871e-07 0)
(0.79623504 6.2102946e-07 0)
(0.79623441 5.6901136e-07 0)
(0.79623384 5.1983313e-07 0)
(0.79623332 4.7589962e-07 0)
(0.79623285 4.333542e-07 0)
(0.79623242 3.9656514e-07 0)
(0.79623201 3.5923677e-07 0)
(0.79623167 3.2905073e-07 0)
(0.7962313 2.9598568e-07 0)
(0.79623109 2.7351818e-07 0)
(0.79623066 2.4855719e-07 0)
(1.1528302 0.00010579853 0)
(1.1534633 0.00054806484 0)
(1.1534627 0.00086521736 0)
(1.153312 0.00095091456 0)
(1.1532372 0.00088792372 0)
(1.153232 0.00078706641 0)
(1.1532295 0.00070427124 0)
(1.153195 0.00064447687 0)
(1.1531309 0.00059494873 0)
(1.1530525 0.00054706169 0)
(1.1529714 0.00049995329 0)
(1.1528916 0.00045598612 0)
(1.1528134 0.00041680642 0)
(1.1527365 0.00038242274 0)
(1.1526611 0.000351988 0)
(1.152588 0.00032465157 0)
(1.1525178 0.00029987183 0)
(1.1524507 0.00027734339 0)
(1.1523869 0.00025684568 0)
(1.1523263 0.00023816535 0)
(1.1522689 0.00022109145 0)
(1.1522147 0.00020543405 0)
(1.1521634 0.00019103417 0)
(1.1521151 0.00017776107 0)
(1.1520696 0.00016550459 0)
(1.1520268 0.00015416903 0)
(1.1519865 0.00014366987 0)
(1.1519487 0.00013393241 0)
(1.1519132 0.00012489065 0)
(1.1518799 0.00011648628 0)
(1.1518486 0.00010866743 0)
(1.1518193 0.00010138773 0)
(1.1517919 9.4605453e-05 0)
(1.1517662 8.8282944e-05 0)
(1.1517421 8.2386059e-05 0)
(1.1517196 7.6883816e-05 0)
(1.1516985 7.174792e-05 0)
(1.1516788 6.6952555e-05 0)
(1.1516603 6.2473999e-05 0)
(1.1516431 5.8290496e-05 0)
(1.1516269 5.4381954e-05 0)
(1.1516119 5.0729877e-05 0)
(1.1515978 4.7317113e-05 0)
(1.1515847 4.4127817e-05 0)
(1.1515724 4.1147242e-05 0)
(1.151561 3.8361738e-05 0)
(1.1515503 3.5758562e-05 0)
(1.1515403 3.3325894e-05 0)
(1.151531 3.1052671e-05 0)
(1.1515223 2.8928621e-05 0)
(1.1515142 2.6944113e-05 0)
(1.1515067 2.5090192e-05 0)
(1.1514997 2.3358444e-05 0)
(1.1514932 2.174105e-05 0)
(1.1514871 2.0230649e-05 0)
(1.1514814 1.88204e-05 0)
(1.1514761 1.7503848e-05 0)
(1.1514712 1.6275002e-05 0)
(1.1514666 1.5128204e-05 0)
(1.1514624 1.4058199e-05 0)
(1.1514584 1.3060017e-05 0)
(1.1514548 1.212905e-05 0)
(1.1514513 1.1260936e-05 0)
(1.1514482 1.045163e-05 0)
(1.1514452 9.6972963e-06 0)
(1.1514425 8.9943887e-06 0)
(1.15144 8.33954e-06 0)
(1.1514376 7.7296358e-06 0)
(1.1514354 7.1617155e-06 0)
(1.1514334 6.6330486e-06 0)
(1.1514315 6.1410391e-06 0)
(1.1514298 5.6832876e-06 0)
(1.1514282 5.2575155e-06 0)
(1.1514267 4.8616161e-06 0)
(1.1514253 4.4936007e-06 0)
(1.1514241 4.1516085e-06 0)
(1.1514229 3.83391e-06 0)
(1.1514218 3.5388517e-06 0)
(1.1514208 3.2649575e-06 0)
(1.1514199 3.0107243e-06 0)
(1.151419 2.7749313e-06 0)
(1.1514182 2.5561586e-06 0)
(1.1514175 2.3534915e-06 0)
(1.1514168 2.1654725e-06 0)
(1.1514162 1.9915987e-06 0)
(1.1514156 1.8301745e-06 0)
(1.1514151 1.6813587e-06 0)
(1.1514146 1.5428283e-06 0)
(1.1514142 1.4158974e-06 0)
(1.1514138 1.2968779e-06 0)
(1.1514134 1.1892525e-06 0)
(1.1514131 1.0864998e-06 0)
(1.1514128 9.9628332e-07 0)
(1.1514125 9.0633e-07 0)
(1.1514122 8.3260064e-07 0)
(1.151412 7.5139285e-07 0)
(1.1514118 6.9508907e-07 0)
(1.1514115 6.1774663e-07 0)
(1.1514114 5.8336527e-07 0)
(1.1514112 5.0669077e-07 0)
(1.3790886 6.6632657e-05 0)
(1.3799947 0.00037331487 0)
(1.3802157 0.00062018896 0)
(1.3802882 0.00071271525 0)
(1.3804811 0.00069094403 0)
(1.3807843 0.00063131672 0)
(1.3811016 0.00057920189 0)
(1.3813738 0.0005422689 0)
(1.3815953 0.00051200915 0)
(1.3817834 0.00048139136 0)
(1.3819529 0.000449337 0)
(1.3821094 0.000417818 0)
(1.3822533 0.00038857366 0)
(1.3823839 0.00036204564 0)
(1.382502 0.00033785646 0)
(1.3826092 0.00031551035 0)
(1.3827071 0.00029470555 0)
(1.3827967 0.00027531141 0)
(1.382879 0.00025725364 0)
(1.3829547 0.00024044778 0)
(1.3830244 0.00022479337 0)
(1.3830887 0.00021019102 0)
(1.383148 0.0001965541 0)
(1.3832028 0.0001838099 0)
(1.3832536 0.00017189526 0)
(1.3833006 0.00016075307 0)
(1.3833442 0.00015033034 0)
(1.3833846 0.00014057815 0)
(1.3834222 0.00013145128 0)
(1.3834571 0.00012290834 0)
(1.3834896 0.00011491097 0)
(1.3835198 0.00010742381 0)
(1.3835478 0.00010041384 0)
(1.383574 9.3850514e-05 0)
(1.3835983 8.7705182e-05 0)
(1.383621 8.1951359e-05 0)
(1.3836421 7.6564098e-05 0)
(1.3836618 7.152035e-05 0)
(1.3836801 6.6798326e-05 0)
(1.3836972 6.2377906e-05 0)
(1.3837131 5.8240006e-05 0)
(1.383728 5.4367025e-05 0)
(1.3837418 5.0742217e-05 0)
(1.3837547 4.735016e-05 0)
(1.3837667 4.4176138e-05 0)
(1.3837778 4.1206623e-05 0)
(1.3837882 3.8428664e-05 0)
(1.3837979 3.5830389e-05 0)
(1.383807 3.3400388e-05 0)
(1.3838154 3.1128235e-05 0)
(1.3838232 2.9003874e-05 0)
(1.3838305 2.7018146e-05 0)
(1.3838373 2.5162181e-05 0)
(1.3838436 2.3427935e-05 0)
(1.3838494 2.1807579e-05 0)
(1.3838549 2.029405e-05 0)
(1.38386 1.8880439e-05 0)
(1.3838647 1.7560542e-05 0)
(1.3838691 1.632826e-05 0)
(1.3838731 1.517815e-05 0)
(1.3838769 1.4104825e-05 0)
(1.3838804 1.3103512e-05 0)
(1.3838837 1.2169452e-05 0)
(1.3838867 1.1298463e-05 0)
(1.3838895 1.0486343e-05 0)
(1.3838921 9.7294275e-06 0)
(1.3838945 9.024005e-06 0)
(1.3838968 8.3668705e-06 0)
(1.3838988 7.7547455e-06 0)
(1.3839008 7.1848282e-06 0)
(1.3839025 6.6542229e-06 0)
(1.3839042 6.1604813e-06 0)
(1.3839057 5.7010504e-06 0)
(1.3839071 5.2737884e-06 0)
(1.3839084 4.8764492e-06 0)
(1.3839096 4.5071526e-06 0)
(1.3839107 4.1639377e-06 0)
(1.3839117 3.8451356e-06 0)
(1.3839126 3.5490619e-06 0)
(1.3839135 3.2741962e-06 0)
(1.3839143 3.0191531e-06 0)
(1.383915 2.7824652e-06 0)
(1.3839157 2.5631192e-06 0)
(1.3839163 2.359538e-06 0)
(1.3839169 2.17126e-06 0)
(1.3839174 1.9962944e-06 0)
(1.3839179 1.8351141e-06 0)
(1.3839184 1.6847209e-06 0)
(1.3839188 1.5473178e-06 0)
(1.3839191 1.417743e-06 0)
(1.3839195 1.3015131e-06 0)
(1.3839198 1.1890392e-06 0)
(1.3839201 1.0922278e-06 0)
(1.3839203 9.9279386e-07 0)
(1.3839206 9.1487489e-07 0)
(1.3839208 8.2377771e-07 0)
(1.383921 7.6617716e-07 0)
(1.3839212 6.7779993e-07 0)
(1.3839213 6.4447266e-07 0)
(1.3839215 5.5351949e-07 0)
(1.4899093 2.2604473e-05 0)
(1.4909491 0.00013094977 0)
(1.4912721 0.00022231216 0)
(1.4914436 0.0002602423 0)
(1.4917598 0.0002558082 0)
(1.4922143 0.00023602437 0)
(1.4926966 0.00021818786 0)
(1.493134 0.00020584176 0)
(1.4935147 0.00019600636 0)
(1.4938563 0.00018592866 0)
(1.4941752 0.00017507353 0)
(1.4944774 0.00016415654 0)
(1.4947625 0.00015387627 0)
(1.4950293 0.00014444925 0)
(1.4952779 0.00013576269 0)
(1.49551 0.00012764391 0)
(1.4957269 0.00011999007 0)
(1.4959302 0.00011276504 0)
(1.4961206 0.00010595567 0)
(1.4962989 9.9544529e-05 0)
(1.4964659 9.3506574e-05 0)
(1.4966222 8.7815457e-05 0)
(1.4967687 8.2448312e-05 0)
(1.4969058 7.7386384e-05 0)
(1.4970341 7.2613539e-05 0)
(1.4971543 6.8114892e-05 0)
(1.4972669 6.3876186e-05 0)
(1.4973722 5.9883776e-05 0)
(1.4974707 5.6124665e-05 0)
(1.497563 5.2586553e-05 0)
(1.4976493 4.9257708e-05 0)
(1.49773 4.6126969e-05 0)
(1.4978055 4.3183629e-05 0)
(1.4978761 4.0417482e-05 0)
(1.4979421 3.7818741e-05 0)
(1.4980038 3.5378116e-05 0)
(1.4980615 3.3086701e-05 0)
(1.4981154 3.0936061e-05 0)
(1.4981658 2.8918123e-05 0)
(1.4982128 2.702527e-05 0)
(1.4982568 2.5250213e-05 1.8742652e-33)
(1.4982978 2.358609e-05 0)
(1.4983361 2.2026343e-05 0)
(1.4983718 2.0564822e-05 0)
(1.4984052 1.919565e-05 0)
(1.4984363 1.7913322e-05 0)
(1.4984654 1.6712583e-05 0)
(1.4984924 1.558853e-05 0)
(1.4985177 1.4536479e-05 0)
(1.4985412 1.3552061e-05 0)
(1.4985632 1.2631105e-05 0)
(1.4985836 1.1769742e-05 0)
(1.4986026 1.0964264e-05 0)
(1.4986203 1.0211238e-05 0)
(1.4986368 9.5073749e-06 0)
(1.4986522 8.84964e-06 0)
(1.4986665 8.2351209e-06 0)
(1.4986798 7.6611318e-06 0)
(1.4986922 7.1250923e-06 0)
(1.4987037 6.6246381e-06 0)
(1.4987143 6.1574885e-06 0)
(1.4987243 5.7215543e-06 0)
(1.4987335 5.314818e-06 0)
(1.498742 4.9354457e-06 0)
(1.49875 4.5816571e-06 0)
(1.4987574 4.2518336e-06 0)
(1.4987642 3.9444024e-06 0)
(1.4987706 3.6579464e-06 0)
(1.4987764 3.39108e-06 0)
(1.4987819 3.142553e-06 0)
(1.4987869 2.9111431e-06 0)
(1.4987916 2.6957576e-06 0)
(1.4987959 2.4953234e-06 0)
(1.4988 2.3088736e-06 0)
(1.4988037 2.1354673e-06 0)
(1.4988071 1.9742545e-06 0)
(1.4988102 1.8244211e-06 0)
(1.4988132 1.6851997e-06 0)
(1.4988159 1.5558992e-06 0)
(1.4988184 1.4358152e-06 0)
(1.4988206 1.3243971e-06 0)
(1.4988228 1.2209442e-06 0)
(1.4988247 1.1250855e-06 0)
(1.4988265 1.0360493e-06 0)
(1.4988282 9.5374668e-07 0)
(1.4988297 8.7716086e-07 0)
(1.4988311 8.0668944e-07 0)
(1.4988324 7.4077402e-07 0)
(1.4988335 6.8071822e-07 0)
(1.4988346 6.2380627e-07 0)
(1.4988356 5.7305569e-07 0)
(1.4988365 5.2346707e-07 0)
(1.4988373 4.812918e-07 2.9521032e-35)
(1.4988381 4.3720353e-07 0)
(1.4988388 4.0345446e-07 0)
(1.4988395 3.6287901e-07 8.8562885e-36)
(1.49884 3.3822274e-07 0)
(1.4988406 2.9872585e-07 0)
(1.4988409 2.8449131e-07 0)
(1.4988417 2.4343056e-07 0)
(1.4899091 -2.2603571e-05 0)
(1.490949 -0.00013094743 0)
(1.491272 -0.0002223148 0)
(1.4914436 -0.00026024896 0)
(1.4917598 -0.00025581149 0)
(1.4922142 -0.00023601667 0)
(1.4926966 -0.00021816864 0)
(1.4931339 -0.0002058145 0)
(1.4935147 -0.00019597544 0)
(1.4938563 -0.00018589598 0)
(1.4941752 -0.00017503984 0)
(1.4944774 -0.00016412198 0)
(1.4947625 -0.00015384158 0)
(1.4950292 -0.0001444152 0)
(1.4952779 -0.00013573013 0)
(1.49551 -0.00012761339 0)
(1.4957269 -0.000119962 0)
(1.4959302 -0.00011273968 0)
(1.4961206 -0.00010593313 0)
(1.4962989 -9.9524906e-05 0)
(1.4964659 -9.3489804e-05 0)
(1.4966222 -8.7801509e-05 0)
(1.4967687 -8.2436977e-05 0)
(1.4969058 -7.7377556e-05 0)
(1.4970342 -7.2606936e-05 0)
(1.4971544 -6.8110402e-05 0)
(1.4972669 -6.3873497e-05 0)
(1.4973722 -5.9882786e-05 0)
(1.4974708 -5.6125053e-05 0)
(1.497563 -5.2588238e-05 0)
(1.4976493 -4.9260387e-05 0)
(1.49773 -4.6130608e-05 0)
(1.4978055 -4.318795e-05 0)
(1.4978761 -4.0422498e-05 0)
(1.4979421 -3.7824202e-05 0)
(1.4980038 -3.5384057e-05 0)
(1.4980615 -3.3092888e-05 0)
(1.4981154 -3.0942569e-05 0)
(1.4981658 -2.892474e-05 0)
(1.4982128 -2.7032086e-05 0)
(1.4982568 -2.5257026e-05 -1.8742652e-33)
(1.4982978 -2.3593016e-05 0)
(1.4983361 -2.2033195e-05 0)
(1.4983718 -2.0571724e-05 0)
(1.4984052 -1.9202417e-05 0)
(1.4984363 -1.7920097e-05 0)
(1.4984654 -1.6719192e-05 0)
(1.4984924 -1.5595114e-05 0)
(1.4985177 -1.4542862e-05 0)
(1.4985412 -1.3558399e-05 0)
(1.4985632 -1.2637231e-05 0)
(1.4985836 -1.1775804e-05 0)
(1.4986026 -1.0970093e-05 0)
(1.4986203 -1.0216994e-05 0)
(1.4986368 -9.5128923e-06 0)
(1.4986522 -8.8550724e-06 0)
(1.4986665 -8.240299e-06 0)
(1.4986798 -7.6662176e-06 0)
(1.4986922 -7.1299225e-06 0)
(1.4987036 -6.6293665e-06 0)
(1.4987143 -6.1619469e-06 0)
(1.4987243 -5.7259049e-06 0)
(1.4987335 -5.3188987e-06 0)
(1.498742 -4.9394103e-06 0)
(1.49875 -4.585339e-06 0)
(1.4987574 -4.2553952e-06 0)
(1.4987642 -3.9476835e-06 0)
(1.4987706 -3.6611015e-06 0)
(1.4987764 -3.3939449e-06 0)
(1.4987819 -3.1452912e-06 0)
(1.4987869 -2.9135974e-06 0)
(1.4987916 -2.6980843e-06 0)
(1.4987959 -2.4973619e-06 0)
(1.4987999 -2.3107898e-06 0)
(1.4988036 -2.1371078e-06 0)
(1.4988071 -1.975779e-06 0)
(1.4988102 -1.825673e-06 0)
(1.4988132 -1.6863493e-06 0)
(1.4988159 -1.5567972e-06 0)
(1.4988183 -1.4366267e-06 0)
(1.4988206 -1.3249696e-06 0)
(1.4988228 -1.2214548e-06 0)
(1.4988247 -1.1253889e-06 0)
(1.4988265 -1.0363202e-06 0)
(1.4988282 -9.5383511e-07 0)
(1.4988297 -8.7726008e-07 0)
(1.4988311 -8.0665535e-07 0)
(1.4988324 -7.4079889e-07 0)
(1.4988335 -6.8064958e-07 0)
(1.4988346 -6.238605e-07 0)
(1.4988356 -5.7309597e-07 0)
(1.4988365 -5.237388e-07 0)
(1.4988373 -4.8167934e-07 -2.9521032e-35)
(1.4988381 -4.3794376e-07 0)
(1.4988388 -4.043746e-07 0)
(1.4988395 -3.6400077e-07 -8.8562885e-36)
(1.49884 -3.3948386e-07 0)
(1.4988406 -2.9996314e-07 0)
(1.4988409 -2.8625017e-07 0)
(1.4988416 -2.4560428e-07 0)
(1.3790886 -6.663299e-05 0)
(1.3799947 -0.0003733248 0)
(1.3802157 -0.00062020797 0)
(1.3802882 -0.0007127367 0)
(1.380481 -0.00069096007 0)
(1.3807843 -0.00063132327 0)
(1.3811015 -0.00057919865 0)
(1.3813738 -0.00054225837 0)
(1.3815953 -0.00051199348 0)
(1.3817833 -0.00048137209 0)
(1.3819529 -0.00044931484 0)
(1.3821094 -0.00041779377 0)
(1.3822533 -0.00038854819 0)
(1.3823839 -0.00036201992 0)
(1.382502 -0.00033783127 0)
(1.3826092 -0.00031548634 0)
(1.3827071 -0.00029468319 0)
(1.3827967 -0.00027529103 0)
(1.3828791 -0.00025723545 0)
(1.3829548 -0.00024043187 0)
(1.3830245 -0.00022477981 0)
(1.3830887 -0.00021017971 0)
(1.383148 -0.000196545 0)
(1.3832029 -0.00018380281 0)
(1.3832536 -0.00017189009 0)
(1.3833006 -0.00016074957 0)
(1.3833442 -0.00015032841 0)
(1.3833847 -0.00014057752 0)
(1.3834222 -0.00013145187 0)
(1.3834571 -0.00012290992 0)
(1.3834896 -0.00011491346 0)
(1.3835198 -0.00010742699 0)
(1.3835479 -0.00010041768 0)
(1.383574 -9.3854808e-05 0)
(1.3835984 -8.770993e-05 0)
(1.383621 -8.195637e-05 0)
(1.3836421 -7.6569404e-05 0)
(1.3836618 -7.1525786e-05 0)
(1.3836802 -6.6803941e-05 0)
(1.3836972 -6.2383544e-05 0)
(1.3837131 -5.8245739e-05 0)
(1.383728 -5.4372714e-05 0)
(1.3837418 -5.0747941e-05 0)
(1.3837547 -4.7355785e-05 0)
(1.3837667 -4.4181757e-05 0)
(1.3837778 -4.1212113e-05 0)
(1.3837882 -3.8434122e-05 0)
(1.3837979 -3.5835689e-05 0)
(1.383807 -3.3405637e-05 0)
(1.3838154 -3.1133316e-05 0)
(1.3838232 -2.9008891e-05 0)
(1.3838305 -2.7022978e-05 0)
(1.3838373 -2.516694e-05 0)
(1.3838436 -2.3432506e-05 0)
(1.3838494 -2.181207e-05 0)
(1.3838549 -2.0298341e-05 0)
(1.38386 -1.8884642e-05 0)
(1.3838647 -1.7564545e-05 0)
(1.3838691 -1.633217e-05 0)
(1.3838731 -1.5181848e-05 0)
(1.3838769 -1.4108425e-05 0)
(1.3838804 -1.31069e-05 0)
(1.3838837 -1.2172738e-05 0)
(1.3838867 -1.1301527e-05 0)
(1.3838895 -1.0489298e-05 0)
(1.3838921 -9.7321629e-06 0)
(1.3838945 -9.0266291e-06 0)
(1.3838967 -8.3692666e-06 0)
(1.3838988 -7.7570275e-06 0)
(1.3839007 -7.1868868e-06 0)
(1.3839025 -6.6561681e-06 0)
(1.3839041 -6.1621993e-06 0)
(1.3839057 -5.7026568e-06 0)
(1.3839071 -5.2751771e-06 0)
(1.3839084 -4.8777325e-06 0)
(1.3839095 -4.5082203e-06 0)
(1.3839107 -4.1649084e-06 0)
(1.3839117 -3.8459072e-06 0)
(1.3839126 -3.54975e-06 0)
(1.3839135 -3.274695e-06 0)
(1.3839143 -3.0195854e-06 0)
(1.383915 -2.7827339e-06 0)
(1.3839157 -2.5633453e-06 0)
(1.3839163 -2.3596205e-06 0)
(1.3839169 -2.171329e-06 0)
(1.3839174 -1.9962546e-06 0)
(1.3839179 -1.8350962e-06 0)
(1.3839183 -1.684628e-06 0)
(1.3839187 -1.5472943e-06 0)
(1.3839191 -1.4176992e-06 0)
(1.3839194 -1.3016045e-06 0)
(1.3839198 -1.1891856e-06 0)
(1.38392 -1.0926002e-06 0)
(1.3839203 -9.9331786e-07 0)
(1.3839205 -9.1563544e-07 0)
(1.3839208 -8.2466353e-07 0)
(1.3839209 -7.6716993e-07 0)
(1.3839212 -6.7874526e-07 0)
(1.3839213 -6.4561083e-07 0)
(1.3839215 -5.5478289e-07 0)
(1.1528302 -0.0001057981 0)
(1.1534633 -0.00054805555 0)
(1.1534626 -0.00086520399 0)
(1.1533119 -0.00095090634 0)
(1.1532372 -0.00088792275 0)
(1.153232 -0.00078707094 0)
(1.1532295 -0.00070427657 0)
(1.153195 -0.00064447969 0)
(1.1531309 -0.00059494704 0)
(1.1530525 -0.00054705575 0)
(1.1529714 -0.00049994373 0)
(1.1528916 -0.00045597406 0)
(1.1528134 -0.00041679257 0)
(1.1527365 -0.0003824079 0)
(1.1526611 -0.00035197277 0)
(1.152588 -0.0003246366 0)
(1.1525178 -0.00029985759 0)
(1.1524507 -0.00027733025 0)
(1.1523869 -0.00025683391 0)
(1.1523264 -0.00023815505 0)
(1.152269 -0.00022108273 0)
(1.1522147 -0.00020542684 0)
(1.1521635 -0.00019102848 0)
(1.1521152 -0.00017775672 0)
(1.1520697 -0.00016550158 0)
(1.1520268 -0.00015416711 0)
(1.1519866 -0.00014366903 0)
(1.1519488 -0.00013393239 0)
(1.1519133 -0.00012489147 0)
(1.1518799 -0.00011648769 0)
(1.1518487 -0.00010866946 0)
(1.1518194 -0.00010139013 0)
(1.1517919 -9.4608298e-05 0)
(1.1517662 -8.828599e-05 0)
(1.1517421 -8.2389406e-05 0)
(1.1517196 -7.6887235e-05 0)
(1.1516985 -7.1751546e-05 0)
(1.1516788 -6.6956165e-05 0)
(1.1516603 -6.2477738e-05 0)
(1.1516431 -5.8294154e-05 0)
(1.151627 -5.4385699e-05 0)
(1.1516119 -5.0733503e-05 0)
(1.1515978 -4.7320788e-05 0)
(1.1515847 -4.4131341e-05 0)
(1.1515724 -4.1150803e-05 0)
(1.151561 -3.8365136e-05 0)
(1.1515503 -3.5761978e-05 0)
(1.1515403 -3.3329132e-05 0)
(1.151531 -3.1055927e-05 0)
(1.1515223 -2.8931697e-05 0)
(1.1515142 -2.6947196e-05 0)
(1.1515067 -2.5093087e-05 0)
(1.1514997 -2.336135e-05 0)
(1.1514931 -2.1743769e-05 0)
(1.1514871 -2.023337e-05 0)
(1.1514814 -1.8822926e-05 0)
(1.1514761 -1.7506381e-05 0)
(1.1514712 -1.6277344e-05 0)
(1.1514666 -1.5130543e-05 0)
(1.1514624 -1.4060339e-05 0)
(1.1514584 -1.3062158e-05 0)
(1.1514547 -1.2130995e-05 0)
(1.1514513 -1.1262872e-05 0)
(1.1514482 -1.0453363e-05 0)
(1.1514452 -9.6990258e-06 0)
(1.1514425 -8.995918e-06 0)
(1.1514399 -8.3410565e-06 0)
(1.1514376 -7.730947e-06 0)
(1.1514354 -7.1630205e-06 0)
(1.1514334 -6.6341532e-06 0)
(1.1514315 -6.1421308e-06 0)
(1.1514298 -5.6841767e-06 0)
(1.1514282 -5.2584015e-06 0)
(1.1514267 -4.8623076e-06 0)
(1.1514253 -4.4942862e-06 0)
(1.151424 -4.1521013e-06 0)
(1.1514229 -3.8344109e-06 0)
(1.1514218 -3.5391729e-06 0)
(1.1514208 -3.2652889e-06 0)
(1.1514198 -3.0108829e-06 0)
(1.151419 -2.7751202e-06 0)
(1.1514182 -2.5561933e-06 0)
(1.1514175 -2.3535653e-06 0)
(1.1514168 -2.1654046e-06 0)
(1.1514162 -1.9915975e-06 0)
(1.1514156 -1.8300568e-06 0)
(1.1514151 -1.6813274e-06 0)
(1.1514146 -1.5427021e-06 0)
(1.1514142 -1.4158998e-06 0)
(1.1514138 -1.2968215e-06 0)
(1.1514134 -1.1893653e-06 0)
(1.151413 -1.086576e-06 0)
(1.1514127 -9.9656696e-07 0)
(1.1514124 -9.0660142e-07 0)
(1.1514122 -8.330644e-07 0)
(1.1514119 -7.5192669e-07 0)
(1.1514117 -6.9564173e-07 0)
(1.1514115 -6.1825799e-07 0)
(1.1514114 -5.8364645e-07 0)
(1.1514111 -5.0678756e-07 0)
(0.80248655 -0.00013193233 0)
(0.80269403 -0.00058587865 0)
(0.80233681 -0.00083042824 0)
(0.80183948 -0.00082088311 0)
(0.80139524 -0.0006920313 0)
(0.8010176 -0.00056086412 0)
(0.80067397 -0.00046780482 0)
(0.80034665 -0.00040552939 0)
(0.80003585 -0.00035762401 0)
(0.799747 -0.00031552252 0)
(0.79948285 -0.00027805058 0)
(0.79924247 -0.00024619204 0)
(0.79902315 -0.00022005074 0)
(0.79882218 -0.00019861519 0)
(0.79863739 -0.00018058738 0)
(0.79846717 -0.0001649835 0)
(0.79831016 -0.00015123194 0)
(0.79816514 -0.00013901534 0)
(0.79803099 -0.0001281125 0)
(0.79790669 -0.00011832999 0)
(0.79779138 -0.00010949591 0)
(0.79768428 -0.00010146945 0)
(0.79758473 -9.4141652e-05 0)
(0.79749212 -8.742844e-05 0)
(0.79740592 -8.1261687e-05 0)
(0.79732563 -7.5583957e-05 0)
(0.79725082 -7.0345409e-05 0)
(0.79718109 -6.5503107e-05 0)
(0.79711607 -6.1019646e-05 0)
(0.79705543 -5.6862783e-05 0)
(0.79699886 -5.3004006e-05 0)
(0.79694608 -4.9418379e-05 0)
(0.79689683 -4.6083414e-05 0)
(0.79685087 -4.2979287e-05 0)
(0.79680799 -4.0087914e-05 0)
(0.79676796 -3.7393296e-05 0)
(0.79673061 -3.488064e-05 0)
(0.79669575 -3.2536821e-05 0)
(0.79666323 -3.0349574e-05 0)
(0.79663288 -2.8308002e-05 0)
(0.79660457 -2.6401784e-05 0)
(0.79657815 -2.4621758e-05 0)
(0.79655351 -2.2959172e-05 0)
(0.79653053 -2.140627e-05 0)
(0.79650911 -1.9955542e-05 0)
(0.79648913 -1.860036e-05 0)
(0.7964705 -1.7334256e-05 0)
(0.79645315 -1.615155e-05 0)
(0.79643697 -1.5046616e-05 0)
(0.7964219 -1.401455e-05 0)
(0.79640787 -1.3050459e-05 0)
(0.7963948 -1.215011e-05 0)
(0.79638263 -1.1309208e-05 0)
(0.7963713 -1.0524076e-05 0)
(0.79636076 -9.7909572e-06 0)
(0.79635095 -9.106668e-06 0)
(0.79634183 -8.467888e-06 0)
(0.79633335 -7.8718449e-06 0)
(0.79632546 -7.3156222e-06 0)
(0.79631813 -6.7968202e-06 0)
(0.79631132 -6.3128493e-06 0)
(0.796305 -5.8616175e-06 0)
(0.79629913 -5.4408453e-06 0)
(0.79629368 -5.0487263e-06 0)
(0.79628862 -4.6832279e-06 0)
(0.79628393 -4.3427764e-06 0)
(0.79627958 -4.0255808e-06 0)
(0.79627555 -3.7302882e-06 0)
(0.79627181 -3.4552951e-06 0)
(0.79626835 -3.1994253e-06 0)
(0.79626515 -2.9612652e-06 0)
(0.79626218 -2.7398098e-06 0)
(0.79625944 -2.5337895e-06 0)
(0.7962569 -2.3423311e-06 0)
(0.79625455 -2.1643184e-06 0)
(0.79625239 -1.9990076e-06 0)
(0.79625038 -1.8453978e-06 0)
(0.79624854 -1.7028358e-06 0)
(0.79624683 -1.5704555e-06 0)
(0.79624526 -1.4476875e-06 0)
(0.79624381 -1.3337772e-06 0)
(0.79624247 -1.2281886e-06 0)
(0.79624124 -1.130322e-06 0)
(0.79624011 -1.0396427e-06 0)
(0.79623907 -9.5572368e-07 0)
(0.79623812 -8.7793246e-07 0)
(0.79623724 -8.0612857e-07 0)
(0.79623643 -7.3946075e-07 0)
(0.79623569 -6.7821467e-07 0)
(0.79623501 -6.2106746e-07 0)
(0.79623439 -5.690306e-07 0)
(0.79623382 -5.1992479e-07 0)
(0.7962333 -4.759433e-07 0)
(0.79623282 -4.3341186e-07 0)
(0.79623239 -3.9662924e-07 0)
(0.79623199 -3.593489e-07 0)
(0.79623165 -3.2909738e-07 0)
(0.79623128 -2.9603016e-07 0)
(0.79623106 -2.7314762e-07 0)
(0.79623064 -2.4797325e-07 0)
(0.31658807 -0.00011675754 0)
(0.31632764 -0.00034469567 0)
(0.31575319 -0.00038127066 0)
(0.31516626 -0.00029352153 0)
(0.31468724 -0.00019277599 0)
(0.31431825 -0.00012831922 0)
(0.31402521 -9.6864858e-05 0)
(0.31377919 -8.0959917e-05 0)
(0.31356517 -6.9487086e-05 0)
(0.31337712 -5.935641e-05 0)
(0.31321181 -5.0893781e-05 0)
(0.313066 -4.4504748e-05 0)
(0.31293625 -3.9862374e-05 0)
(0.31281951 -3.6315913e-05 0)
(0.31271352 -3.3348181e-05 0)
(0.31261673 -3.0705452e-05 0)
(0.31252801 -2.8310712e-05 0)
(0.31244647 -2.6146337e-05 0)
(0.31237135 -2.4193404e-05 0)
(0.312302 -2.2423113e-05 0)
(0.31223784 -2.0806644e-05 0)
(0.31217841 -1.9322468e-05 0)
(0.31212328 -1.7955904e-05 0)
(0.3120721 -1.6696327e-05 0)
(0.31202454 -1.5534233e-05 0)
(0.31198031 -1.4460908e-05 0)
(0.31193916 -1.3467995e-05 0)
(0.31190084 -1.25483e-05 0)
(0.31186515 -1.1695213e-05 0)
(0.3118319 -1.0903238e-05 0)
(0.3118009 -1.0167158e-05 0)
(0.311772 -9.4826152e-06 0)
(0.31174505 -8.8453321e-06 0)
(0.31171992 -8.2518237e-06 0)
(0.31169647 -7.6985752e-06 0)
(0.3116746 -7.1827762e-06 0)
(0.3116542 -6.7014855e-06 0)
(0.31163517 -6.2524274e-06 0)
(0.31161741 -5.8331217e-06 0)
(0.31160085 -5.4416929e-06 0)
(0.3115854 -5.0760047e-06 0)
(0.31157099 -4.7345166e-06 0)
(0.31155755 -4.4153879e-06 0)
(0.31154502 -4.1173315e-06 0)
(0.31153333 -3.8387268e-06 0)
(0.31152244 -3.5785103e-06 0)
(0.31151229 -3.3352635e-06 0)
(0.31150282 -3.1080918e-06 0)
(0.311494 -2.895725e-06 0)
(0.31148579 -2.6974263e-06 0)
(0.31147814 -2.512072e-06 0)
(0.31147101 -2.3390424e-06 0)
(0.31146438 -2.1773175e-06 0)
(0.3114582 -2.0263943e-06 0)
(0.31145246 -1.8853631e-06 0)
(0.31144711 -1.7538043e-06 0)
(0.31144214 -1.6308828e-06 0)
(0.31143752 -1.5162675e-06 0)
(0.31143322 -1.4092095e-06 0)
(0.31142922 -1.3094376e-06 0)
(0.31142551 -1.216257e-06 0)
(0.31142206 -1.1294654e-06 0)
(0.31141886 -1.0484365e-06 0)
(0.31141589 -9.7301153e-07 0)
(0.31141314 -9.0260331e-07 0)
(0.31141058 -8.3710747e-07 0)
(0.31140821 -7.7599233e-07 0)
(0.31140601 -7.191846e-07 0)
(0.31140397 -6.6618075e-07 0)
(0.31140208 -6.1695106e-07 0)
(0.31140034 -5.7103762e-07 0)
(0.31139872 -5.2843232e-07 0)
(0.31139722 -4.8869725e-07 0)
(0.31139584 -4.518591e-07 0)
(0.31139456 -4.1751871e-07 0)
(0.31139338 -3.8571621e-07 0)
(0.31139229 -3.5606742e-07 0)
(0.31139128 -3.2863879e-07 0)
(0.31139035 -3.030819e-07 0)
(0.31138949 -2.7946715e-07 0)
(0.3113887 -2.5746156e-07 0)
(0.31138797 -2.3714931e-07 0)
(0.3113873 -2.1823891e-07 0)
(0.31138669 -2.0080017e-07 0)
(0.31138612 -1.8457194e-07 0)
(0.3113856 -1.6960901e-07 0)
(0.31138512 -1.5572058e-07 0)
(0.31138468 -1.4290126e-07 0)
(0.31138427 -1.3104267e-07 0)
(0.3113839 -1.2004895e-07 0)
(0.31138356 -1.0994943e-07 0)
(0.31138325 -1.0049131e-07 0)
(0.31138297 -9.1859401e-08 0)
(0.31138271 -8.369165e-08 0)
(0.31138247 -7.6331246e-08 0)
(0.31138226 -6.9270968e-08 0)
(0.31138206 -6.2691712e-08 0)
(0.31138188 -5.720326e-08 0)
(0.31138174 -5.0911579e-08 0)
(0.31138153 -5.3825035e-08 0)
)
;

boundaryField
{
    top
    {
        type            fixedValue;
        value           uniform (0 0 0);
    }
    inlet
    {
        type            pressureNormalInletOutletVelocity;
        phi             phi;
        rho             rho;