/*--------------------------------*- C++ -*----------------------------------*\
  =========                 |
  \\      /  F ield         | OpenFOAM: The Open Source CFD Toolbox
   \\    /   O peration     | Website:  https://openfoam.org
    \\  /    A nd           | Version:  6
     \\/     M anipulation  |
\*---------------------------------------------------------------------------*/
FoamFile
{
    version     2.0;
    format      ascii;
    class       volScalarField;
    location    "113";
    object      p;
}
// * * * * * * * * * * * * * * * * * * * * * * * * * * * * * * * * * * * * * //

dimensions      [0 2 -2 0 0 0 0];

internalField   nonuniform List<scalar> 
9200
(
-0.37803387
-0.36668697
-0.35659295
-0.34764337
-0.33890339
-0.33038688
-0.32217214
-0.31422663
-0.30648305
-0.29886944
-0.29131285
-0.28374423
-0.27610541
-0.26835639
-0.26048591
-0.25252926
-0.24456279
-0.2366743
-0.2298887
-0.22848793
-0.39589509
-0.38209697
-0.37005928
-0.35958988
-0.34947784
-0.33970463
-0.33033899
-0.32131764
-0.31254108
-0.30391094
-0.29533405
-0.28672818
-0.27802964
-0.26919925
-0.2602279
-0.25114056
-0.2419671
-0.23270723
-0.22404388
-0.21814292
-0.41417328
-0.39790111
-0.38396568
-0.37204689
-0.36061812
-0.3496102
-0.33907058
-0.32889753
-0.31895738
-0.30912925
-0.29930883
-0.28941406
-0.27939185
-0.26922126
-0.25891332
-0.2485067
-0.23804019
-0.22752274
-0.2173536
-0.20864781
-0.43243436
-0.41370726
-0.39793946
-0.38463292
-0.37190766
-0.35962755
-0.34781092
-0.33631708
-0.32498608
-0.31368992
-0.30233394
-0.29085992
-0.27924916
-0.26752033
-0.25572273
-0.24392618
-0.23219724
-0.22057481
-0.20932634
-0.19919292
-0.45004838
-0.42896939
-0.41148598
-0.39686875
-0.38285671
-0.36923593
-0.35599548
-0.34296637
-0.32998294
-0.31693712
-0.30377363
-0.29048631
-0.27711393
-0.26373035
-0.25043107
-0.23731902
-0.22448426
-0.21198534
-0.20001046
-0.18906704
-0.46619082
-0.44296848
-0.4239451
-0.40810663
-0.39280123
-0.37773729
-0.36288704
-0.34807881
-0.33317539
-0.31812501
-0.30294463
-0.28770484
-0.27251554
-0.25750792
-0.24281614
-0.22856222
-0.21484083
-0.20170785
-0.18928927
-0.17792186
-0.4798565
-0.45481817
-0.43449214
-0.41753253
-0.40091348
-0.38428152
-0.36761987
-0.35079492
-0.33374238
-0.31650619
-0.29920373
-0.28199615
-0.26506365
-0.2485819
-0.23270333
-0.21754585
-0.20318515
-0.18965233
-0.17701426
-0.16547212
-0.48988158
-0.46348828
-0.44217029
-0.4242131
-0.40626655
-0.38794926
-0.36929806
-0.35026966
-0.33092111
-0.311427
-0.29202247
-0.27295884
-0.25447194
-0.23675864
-0.2199637
-0.20417695
-0.18943556
-0.17573139
-0.16307333
-0.15154865
-0.49492382
-0.4677035
-0.4456935
-0.42681249
-0.40748445
-0.38736212
-0.36659601
-0.34529034
-0.32366308
-0.30203502
-0.28075245
-0.26013427
-0.24044116
-0.22185986
-0.20450117
-0.18840822
-0.17356889
-0.15993155
-0.1474511
-0.13611728
-0.49363274
-0.46604692
-0.44351414
-0.42366534
-0.40284535
-0.38082466
-0.35793286
-0.3344675
-0.31082126
-0.28744426
-0.26475667
-0.2430995
-0.2227155
-0.20374832
-0.18625438
-0.17022151
-0.1555887
-0.14226649
-0.13016303
-0.11918319
-0.26514773
-0.26982216
-0.27233063
-0.27308176
-0.2728676
-0.27187501
-0.27018547
-0.2678865
-0.2650503
-0.26173162
-0.2579745
-0.25381645
-0.24929057
-0.24442695
-0.23925384
-0.23380013
-0.22809671
-0.2221641
-0.21600132
-0.20969392
-0.2678805
-0.27213965
-0.27434136
-0.27487381
-0.27447657
-0.27332776
-0.27150694
-0.26909794
-0.26616942
-0.26277326
-0.2589511
-0.25473832
-0.25016617
-0.24526269
-0.24005357
-0.23456666
-0.22884031
-0.22289342
-0.21661867
-0.20999012
-0.27321022
-0.27665727
-0.27826096
-0.27836567
-0.27760949
-0.27615512
-0.2740786
-0.2714565
-0.26835053
-0.26480695
-0.26086257
-0.25654857
-0.25189241
-0.24691829
-0.24164705
-0.23610369
-0.23033797
-0.22436764
-0.21789358
-0.21065803
-0.28089698
-0.28318146
-0.28391959
-0.28339555
-0.28210644
-0.28019539
-0.27773446
-0.27479036
-0.27141515
-0.26764724
-0.26351658
-0.25904826
-0.25426419
-0.24918289
-0.24381837
-0.23819048
-0.23236092
-0.22635206
-0.21961837
-0.21153228
-0.29063848
-0.29146918
-0.2911057
-0.28976437
-0.28777337
-0.28525503
-0.28227824
-0.27889843
-0.27515623
-0.27108083
-0.26669391
-0.26201229
-0.25705036
-0.25181971
-0.24632624
-0.24058142
-0.23465495
-0.22858238
-0.22155901
-0.21244245
-0.3021209
-0.30126821
-0.29960187
-0.2972712
-0.29441863
-0.2911471
-0.28752452
-0.28359531
-0.27938811
-0.27492043
-0.27020318
-0.26524391
-0.26004819
-0.2546192
-0.24895368
-0.24305181
-0.23698329
-0.23080307
-0.22347535
-0.21322156
-0.3150653
-0.31235351
-0.30921738
-0.30574634
-0.30188842
-0.29773029
-0.29334279
-0.28875893
-0.28399267
-0.27904902
-0.27392741
-0.2686241
-0.26313408
-0.25745097
-0.25156242
-0.24545681
-0.23919665
-0.23285952
-0.22524165
-0.21385927
-0.32925563
-0.32455003
-0.31981035
-0.31507591
-0.31009607
-0.30494423
-0.29969447
-0.29436758
-0.28896276
-0.28347061
-0.2778762
-0.27216153
-0.26630796
-0.26029704
-0.25410675
-0.24771655
-0.24118617
-0.23463919
-0.22682309
-0.21454372
-0.34453885
-0.33772536
-0.33127039
-0.32517323
-0.31897724
-0.31274122
-0.30654436
-0.30039476
-0.29427398
-0.28815501
-0.28200499
-0.27578748
-0.26946473
-0.26299799
-0.2563428
-0.2494513
-0.24234779
-0.23513845
-0.22656599
-0.21312801
-0.36081606
-0.35177177
-0.34348529
-0.33592083
-0.32840232
-0.32097373
-0.31371933
-0.30663216
-0.29967369
-0.29279763
-0.28595286
-0.27908618
-0.27214528
-0.2650787
-0.25783061
-0.25033658
-0.24253949
-0.23423271
-0.22376544
-0.20809622
-0.20254263
-0.1935936
-0.18463959
-0.1757446
-0.16685493
-0.15801225
-0.14927009
-0.1406635
-0.13222178
-0.12397353
-0.11594455
-0.10815703
-0.10063012
-0.093380182
-0.086420798
-0.079762857
-0.073414654
-0.067381993
-0.061668287
-0.056274666
-0.051200102
-0.046441546
-0.041994084
-0.037851095
-0.034004434
-0.030444617
-0.027161012
-0.024142036
-0.02137535
-0.01884805
-0.016546852
-0.014458267
-0.012568769
-0.010864945
-0.0093336416
-0.0079620938
-0.0067380526
-0.0056498866
-0.0046867594
-0.0038385509
-0.0030966864
-0.0024521157
-0.0019025979
-0.0014312848
-0.001074237
-0.00072041461
-0.00071245318
-9.4874446e-05
-0.001733098
0.0024724425
-0.20355282
-0.19420651
-0.18514345
-0.1762628
-0.16735511
-0.15848224
-0.14971565
-0.1410868
-0.13262251
-0.12435193
-0.11630116
-0.10849226
-0.10094436
-0.093673897
-0.086694527
-0.080017199
-0.07365027
-0.067599605
-0.061868667
-0.05645863
-0.051368496
-0.04659524
-0.042133957
-0.037978029
-0.034119306
-0.030548288
-0.027254323
-0.024225801
-0.021450351
-0.018915036
-0.016606531
-0.014511309
-0.012615801
-0.010906551
-0.0093703622
-0.0079944276
-0.0067664556
-0.0056747732
-0.0047085039
-0.0038574876
-0.0031131101
-0.0024662844
-0.0019147125
-0.0014415543
-0.0010825902
-0.00072743295
-0.00071594448
-0.00010078623
-0.0017185815
0.0024437442
-0.20567179
-0.19547481
-0.18619431
-0.17738236
-0.16845107
-0.15951753
-0.15070332
-0.14203046
-0.13351914
-0.12520065
-0.11710233
-0.10924613
-0.10165128
-0.094334558
-0.087309902
-0.080588481
-0.074178861
-0.068087092
-0.062316791
-0.056869253
-0.051743572
-0.046936784
-0.042444017
-0.038258663
-0.034372558
-0.03077617
-0.027458796
-0.024408761
-0.02161362
-0.019060347
-0.016735527
-0.014625534
-0.012716697
-0.010995459
-0.00944852
-0.0080629703
-0.0068264187
-0.0057270948
-0.0047540274
-0.0038969648
-0.0031472021
-0.0024955674
-0.0019396443
-0.0014625867
-0.0010996452
-0.00074163766
-0.00072311029
-0.0001124651
-0.0016900838
0.0023869592
-0.20874079
-0.19716703
-0.18756555
-0.1789526
-0.17003193
-0.1610217
-0.15215337
-0.14343156
-0.13486121
-0.1264787
-0.11831506
-0.1103923
-0.10272994
-0.095345615
-0.088253955
-0.081466655
-0.074992741
-0.068838672
-0.063008399
-0.057503483
-0.052323223
-0.047464802
-0.042923447
-0.038692597
-0.034764095
-0.03112838
-0.027774691
-0.024691267
-0.021865553
-0.0192844
-0.016934254
-0.014801339
-0.01287183
-0.011132011
-0.0095684232
-0.0081679968
-0.0069181847
-0.0058070638
-0.004823515
-0.0039571425
-0.0031991004
-0.0025400828
-0.0019774934
-0.0014944665
-0.0011254733
-0.00076308304
-0.00073404085
-0.00012985556
-0.0016483434
0.002303315
-0.21253309
-0.19901262
-0.18898792
-0.1807758
-0.17195114
-0.1628669
-0.15395552
-0.14520111
-0.13657716
-0.12812729
-0.11989102
-0.1118915
-0.10414868
-0.096681626
-0.089506382
-0.082635666
-0.076079349
-0.069844629
-0.063936079
-0.05835576
-0.053103364
-0.048176373
-0.043570226
-0.0392785
-0.035293106
-0.031604493
-0.028201859
-0.02507336
-0.022206321
-0.019587443
-0.017203
-0.015039029
-0.013081504
-0.0113165
-0.0097303448
-0.0083097574
-0.0070419798
-0.0059148827
-0.0049171466
-0.0040381799
-0.0032689448
-0.0025999532
-0.0020283665
-0.0015372863
-0.0011601577
-0.00079182897
-0.00074886967
-0.00015284613
-0.00159449
0.0021946982
-0.21670135
-0.20073105
-0.19019225
-0.18261873
-0.17403633
-0.16490971
-0.15597765
-0.14722505
-0.13857424
-0.13007039
-0.12176685
-0.11369124
-0.10586451
-0.098307614
-0.091038818
-0.084072635
-0.07742035
-0.071090367
-0.065088285
-0.059417011
-0.054076916
-0.049066013
-0.044380139
-0.040013156
-0.035957155
-0.032202677
-0.028738933
-0.025554027
-0.022635175
-0.019968928
-0.01754137
-0.01533832
-0.013345515
-0.011548781
-0.0099341856
-0.0084881859
-0.007197763
-0.0060505297
-0.005034915
-0.0041400812
-0.0033567486
-0.0026751989
-0.0020922892
-0.001591076
-0.001203737
-0.00082790292
-0.00076773652
-0.00018128161
-0.0015299563
0.0020635684
-0.22084794
-0.20214071
-0.19096678
-0.18420366
-0.17608693
-0.16702311
-0.15810464
-0.14939116
-0.14075653
-0.1322301
-0.12387762
-0.11573658
-0.10783129
-0.10018503
-0.092819019
-0.085750534
-0.078993069
-0.072556846
-0.066449011
-0.06067376
-0.055232515
-0.050124121
-0.045345063
-0.040889682
-0.036750402
-0.03291797
-0.029381693
-0.026129677
-0.023149063
-0.020426258
-0.017947155
-0.015697338
-0.013662281
-0.01182752
-0.010178827
-0.0087023503
-0.0073847635
-0.0062133735
-0.0051763095
-0.0042624394
-0.0034621938
-0.0027655785
-0.0021690848
-0.0016557154
-0.0012561438
-0.00087126748
-0.000790761
-0.00021499687
-0.0014563712
0.0019128157
-0.22471194
-0.20363721
-0.19153587
-0.18534315
-0.17788868
-0.16911969
-0.16029286
-0.1516432
-0.14306206
-0.13455077
-0.12617414
-0.11798231
-0.11000732
-0.10227601
-0.09481292
-0.087638855
-0.080770316
-0.074219965
-0.067996996
-0.062107335
-0.056553823
-0.051336456
-0.04645262
-0.041897349
-0.03766357
-0.03374237
-0.03012325
-0.026794392
-0.023742909
-0.020955093
-0.018416654
-0.016112938
-0.014029134
-0.012150472
-0.010462387
-0.0089506867
-0.0076016937
-0.0064023668
-0.0053404915
-0.0044045966
-0.0035847778
-0.0028707226
-0.0022584968
-0.0017310451
-0.0013173044
-0.00092190642
-0.00081811359
-0.00025388375
-0.0013755147
0.0017457351
-0.22595103
-0.20546512
-0.19259498
-0.18597345
-0.17900643
-0.17081911
-0.16226879
-0.15374828
-0.14527418
-0.13683996
-0.12849328
-0.120292
-0.11227926
-0.10448774
-0.096945947
-0.089678785
-0.082706619
-0.076045384
-0.069707057
-0.063699953
-0.058028939
-0.052695694
-0.047698975
-0.043034907
-0.03869726
-0.034677738
-0.030966268
-0.027551284
-0.024420009
-0.021558723
-0.018953018
-0.016588045
-0.014448734
-0.012520001
-0.01078694
-0.0092349872
-0.0078500866
-0.006618809
-0.005528554
-0.0045674662
-0.0037252592
-0.0029912558
-0.0023610349
-0.0018174687
-0.0013875506
-0.00098001889
-0.00085015843
-0.00029763001
-0.0012895231
0.0015666008
-0.21608999
-0.20471091
-0.1937125
-0.18562461
-0.17856828
-0.17115528
-0.16321125
-0.15505669
-0.14687053
-0.13867882
-0.13050928
-0.12241941
-0.11446471
-0.10668811
-0.099125445
-0.091808278
-0.084763278
-0.078011912
-0.071570883
-0.065452545
-0.0596652
-0.054213394
-0.049098248
-0.044317794
-0.039867315
-0.035739672
-0.031925646
-0.028414263
-0.025193107
-0.022248636
-0.01956646
-0.01713162
-0.014928836
-0.012942739
-0.011158073
-0.0095598922
-0.0081337257
-0.0068657174
-0.0057428344
-0.0047527866
-0.0038848532
-0.0031279377
-0.0024770741
-0.0019150169
-0.0014666921
-0.0010450585
-0.00088668809
-0.00034454896
-0.0012009581
0.0013809335
-0.19395206
-0.19865823
-0.19338448
-0.18447982
-0.17697679
-0.16996853
-0.16246781
-0.15461014
-0.14666138
-0.13868473
-0.13069977
-0.12275939
-0.11492287
-0.10723757
-0.099742484
-0.092472111
-0.08545609
-0.078718683
-0.07227911
-0.066151988
-0.060347645
-0.054872416
-0.049728988
-0.044916749
-0.040432138
-0.036269
-0.032418932
-0.028871628
-0.025615212
-0.022636559
-0.019921598
-0.017455597
-0.015223426
-0.013209799
-0.011399492
-0.0097775403
-0.0083294209
-0.007041193
-0.0058997119
-0.0048925595
-0.0040088366
-0.0032373324
-0.0025726151
-0.0019978818
-0.001535276
-0.0011041219
-0.00091813048
-0.00039141333
-0.00111035
0.0011966541
-0.18340238
-0.18922228
-0.18574886
-0.17700994
-0.16980677
-0.1635503
-0.15685012
-0.1497064
-0.14241506
-0.13505116
-0.12762443
-0.12018346
-0.11278996
-0.105495
-0.098341128
-0.091366671
-0.084605307
-0.078085303
-0.071829717
-0.065856807
-0.060180315
-0.054809752
-0.049750732
-0.045005323
-0.040572404
-0.036448026
-0.032625767
-0.029097092
-0.025851695
-0.02287783
-0.020162635
-0.017692421
-0.015452955
-0.01342971
-0.011608102
-0.0099736941
-0.0085123907
-0.0072105934
-0.0060554131
-0.0050346343
-0.0041374284
-0.003352768
-0.0026747729
-0.0020876713
-0.0016098505
-0.0011697106
-0.0009518597
-0.00044638221
-0.001008978
0.00099789444
-0.17466327
-0.17788372
-0.17560623
-0.16858546
-0.16223279
-0.15667029
-0.15073694
-0.14432332
-0.13769608
-0.13095033
-0.12409797
-0.11718137
-0.11026104
-0.10338987
-0.096612551
-0.089969758
-0.08349809
-0.07722903
-0.07118893
-0.06539933
-0.059877192
-0.054635132
-0.049681709
-0.045021759
-0.040656734
-0.036585056
-0.032802472
-0.029302409
-0.026076325
-0.023114048
-0.020404104
-0.01793402
-0.015690617
-0.013660275
-0.011829176
-0.010183526
-0.0087097582
-0.007394702
-0.0062257955
-0.0051910874
-0.0042798605
-0.0034813206
-0.0027891114
-0.0021886253
-0.0016941145
-0.0012439853
-0.00099097475
-0.00050824722
-0.00089990828
0.00078009256
-0.16498409
-0.16559594
-0.16376407
-0.15881942
-0.15369675
-0.14887694
-0.14373475
-0.13813291
-0.13224876
-0.12618316
-0.11996377
-0.11363103
-0.10724208
-0.10085044
-0.094502642
-0.088241364
-0.082105691
-0.076130076
-0.070344061
-0.064772469
-0.059435564
-0.054349215
-0.049525132
-0.044971155
-0.040691568
-0.036687433
-0.032956932
-0.029495722
-0.026297279
-0.023353245
-0.020653757
-0.018187765
-0.015943331
-0.013907908
-0.012068592
-0.010412363
-0.0089262935
-0.0075977377
-0.0064145403
-0.0053650781
-0.0044387959
-0.0036251678
-0.0029173822
-0.0023019994
-0.0017891127
-0.0013271202
-0.0010367011
-0.00057443351
-0.00079073796
0.00055336455
-0.15441375
-0.1531459
-0.15133613
-0.14810636
-0.14427697
-0.14026205
-0.13591694
-0.1311591
-0.12607197
-0.12073861
-0.11520215
-0.10950563
-0.10370203
-0.097843732
-0.091978198
-0.08614937
-0.080398079
-0.074761172
-0.069271023
-0.063955523
-0.058838151
-0.05393805
-0.049270184
-0.044845569
-0.040671536
-0.036752036
-0.033087954
-0.029677445
-0.026516277
-0.023598165
-0.020915111
-0.018457721
-0.016215513
-0.014177207
-0.012330991
-0.01066477
-0.0091663947
-0.0078238562
-0.0066255044
-0.0055601225
-0.0046173832
-0.0037870654
-0.0030619569
-0.0024297283
-0.0018964911
-0.0014201189
-0.0010905149
-0.00064427387
-0.00068750875
0.0003258485
-0.14262603
-0.14056656
-0.13887141
-0.13691596
-0.13425743
-0.13107855
-0.1275206
-0.12358744
-0.11930116
-0.1147176
-0.10988767
-0.10485605
-0.099671191
-0.094383111
-0.08903909
-0.083683302
-0.078357215
-0.073099081
-0.067943341
-0.062920388
-0.05805649
-0.053373785
-0.048890339
-0.044620294
-0.040574068
-0.036758599
-0.033177625
-0.029831987
-0.026719948
-0.023837519
-0.021178785
-0.018736225
-0.016501023
-0.014463363
-0.012612707
-0.010938052
-0.0094281707
-0.008071824
-0.0068579785
-0.0057759166
-0.0048156207
-0.0039672195
-0.0032231841
-0.0025722039
-0.0020167411
-0.0015232702
-0.0011533778
-0.00071729226
-0.00059622379
0.00010623873
-0.12993092
-0.12800076
-0.12665375
-0.12561039
-0.1239155
-0.12154632
-0.11874871
-0.11559423
-0.11207974
-0.10823478
-0.10410928
-0.099749641
-0.095198814
-0.090501725
-0.085704286
-0.080850142
-0.075980403
-0.071133588
-0.066345196
-0.061647302
-0.057068313
-0.052632845
-0.048361683
-0.044271839
-0.040376662
-0.036686021
-0.033206517
-0.029941749
-0.02689259
-0.02405749
-0.021432786
-0.019013009
-0.016791191
-0.014759159
-0.012907823
-0.011227436
-0.0097078443
-0.0083387139
-0.0071097502
-0.0060108373
-0.0050323624
-0.0041648557
-0.0034005822
-0.0027291365
-0.0021497963
-0.0016364772
-0.0012259476
-0.0007930421
-0.00052279981
-9.6117493e-05
-0.11704415
-0.11569427
-0.11483597
-0.11444841
-0.11350909
-0.11187515
-0.10978834
-0.10735105
-0.10455656
-0.10141669
-0.097973542
-0.094271432
-0.090350208
-0.086249171
-0.082009407
-0.077672832
-0.073279575
-0.068867482
-0.064472033
-0.060126014
-0.055859147
-0.051697833
-0.047665013
-0.043780123
-0.040059119
-0.036514572
-0.033155817
-0.029989148
-0.027018056
-0.024243487
-0.021664121
-0.01927666
-0.017076124
-0.015056135
-0.0132092
-0.011526979
-0.010000537
-0.0086205813
-0.00737768
-0.0062624274
-0.0052657195
-0.0043785488
-0.0035931033
-0.0028997649
-0.002295184
-0.0017593912
-0.0013085862
-0.00087128573
-0.00047228346
-0.00027232267
-0.10450887
-0.10382556
-0.10348317
-0.10358965
-0.10323839
-0.10224176
-0.10079657
-0.099006516
-0.096868151
-0.094383775
-0.091585714
-0.088512945
-0.08520081
-0.081684275
-0.077999832
-0.074185024
-0.070277579
-0.066313974
-0.062328833
-0.058354701
-0.054421716
-0.050557277
-0.046785798
-0.043128564
-0.039603665
-0.036226011
-0.033007394
-0.029956625
-0.027079699
-0.024380013
-0.021858596
-0.019514373
-0.017344429
-0.015344281
-0.013508153
-0.011829239
-0.010299949
-0.0089121559
-0.0076574126
-0.0065271321
-0.0055128263
-0.004606019
-0.0037989614
-0.0030827184
-0.0024519141
-0.0018913411
-0.0014012478
-0.00095201277
-0.00044806882
-0.00041519659
-0.09261066
-0.092513447
-0.0926395
-0.093133629
-0.093243723
-0.092781963
-0.091897427
-0.090680075
-0.089128728
-0.087240931
-0.085039929
-0.082557675
-0.079824243
-0.076869506
-0.073725499
-0.070425629
-0.067003668
-0.063493422
-0.059927903
-0.056338645
-0.052755364
-0.049205648
-0.045714649
-0.042304854
-0.038995932
-0.035804659
-0.032744912
-0.029827719
-0.02706137
-0.024451568
-0.022001612
-0.019712617
-0.017583747
-0.015612466
-0.013794784
-0.012125515
-0.010598521
-0.0092069446
-0.0079434309
-0.0068003145
-0.0057698288
-0.0048441019
-0.0040155929
-0.0032759715
-0.0026184361
-0.0020312828
-0.0015034035
-0.0010353311
-0.00045132068
-0.0005203907
-0.081489864
-0.081848667
-0.082357159
-0.083153888
-0.083624828
-0.083600185
-0.083190965
-0.082469288
-0.081433555
-0.080078396
-0.078419407
-0.076481179
-0.074288021
-0.071864534
-0.069237646
-0.066436391
-0.063490676
-0.0604307
-0.057286782
-0.0540887
-0.050865034
-0.047642812
-0.044447198
-0.041301209
-0.038225488
-0.035238153
-0.032354709
-0.029588035
-0.026948415
-0.024443631
-0.022079093
-0.019858004
-0.017781555
-0.015849141
-0.014058584
-0.012406368
-0.010887869
-0.0094975836
-0.0082293374
-0.0070764762
-0.0060320521
-0.0050888733
-0.0042397469
-0.0034769036
-0.0027926771
-0.0021777964
-0.001614014
-0.0011213194
-0.00048067944
-0.00058723834
-0.071206939
-0.071893696
-0.072688563
-0.073710331
-0.074456441
-0.074778936
-0.074760699
-0.074457258
-0.073864926
-0.072975914
-0.071799493
-0.070353326
-0.068655855
-0.066726361
-0.064586585
-0.062260693
-0.059774398
-0.057154217
-0.054427128
-0.051620293
-0.048760468
-0.045873455
-0.04298375
-0.040114242
-0.037285933
-0.03451772
-0.031826244
-0.029225801
-0.026728314
-0.024343352
-0.022078206
-0.019938001
-0.017925839
-0.01604298
-0.014289028
-0.012662144
-0.01115925
-0.0097762439
-0.0085081989
-0.0073495451
-0.006294238
-0.005335839
-0.0044676347
-0.003682408
-0.0029721225
-0.0023291071
-0.0017315423
-0.0012098523
-0.0005323645
-0.00061903302
-0.061773803
-0.062681319
-0.063673882
-0.064849677
-0.065795525
-0.066383957
-0.066676992
-0.066716422
-0.066496103
-0.066006103
-0.065250469
-0.064240732
-0.06298976
-0.061511667
-0.059823106
-0.057943326
-0.055893502
-0.053696157
-0.051374738
-0.048953274
-0.04645601
-0.043906902
-0.041329161
-0.038744922
-0.036174939
-0.033638321
-0.031152324
-0.028732195
-0.026391086
-0.02414001
-0.021987858
-0.019941448
-0.018005628
-0.0161834
-0.014476078
-0.012883457
-0.011404003
-0.010035033
-0.0087729059
-0.0076131908
-0.0065508158
-0.0055801638
-0.0046951188
-0.0038890387
-0.0031539287
-0.0024831341
-0.0018540107
-0.0013004723
-0.00060070512
-0.00062259851
-0.053175658
-0.054219786
-0.055335538
-0.0566034
-0.057683298
-0.058465942
-0.058997539
-0.059308989
-0.059392108
-0.059235269
-0.058838302
-0.058207548
-0.057350891
-0.056277659
-0.054999705
-0.053531518
-0.051889727
-0.05009264
-0.048159919
-0.046112219
-0.043970829
-0.041757294
-0.039492984
-0.03719871
-0.034894405
-0.032598827
-0.030329313
-0.028101576
-0.025929554
-0.023825319
-0.021799027
-0.019858919
-0.018011367
-0.016260949
-0.014610564
-0.013061567
-0.011613916
-0.01026634
-0.0090164953
-0.00786112
-0.0067961682
-0.005816904
-0.0049179117
-0.0040931712
-0.0033350523
-0.0026375596
-0.0019791012
-0.001392321
-0.00067904003
-0.00060709296
-0.045381715
-0.04649817
-0.04767787
-0.04898679
-0.050145487
-0.05106075
-0.051766724
-0.052285868
-0.052608645
-0.052722352
-0.052623594
-0.052314507
-0.051798763
-0.051081487
-0.050170196
-0.049074963
-0.047808066
-0.046383649
-0.044817461
-0.043126591
-0.041329131
-0.039443824
-0.037489725
-0.035485824
-0.033450709
-0.031402259
-0.029357371
-0.027331724
-0.025339584
-0.02339366
-0.021505005
-0.019682967
-0.017935171
-0.01626756
-0.014684452
-0.013188637
-0.011781488
-0.010463096
-0.0092323977
-0.0080873119
-0.0070248505
-0.0060412083
-0.0051317555
-0.0042911549
-0.0035123787
-0.0027899175
-0.0021042973
-0.0014841755
-0.000760792
-0.0005823072
-0.03835059
-0.039491572
-0.040690113
-0.042000333
-0.043193274
-0.044189977
-0.045015486
-0.045685848
-0.046190886
-0.046517471
-0.046659938
-0.046617208
-0.046389587
-0.045978708
-0.04538836
-0.0446247
-0.043696026
-0.042612543
-0.041386191
-0.040030446
-0.038560061
-0.036990769
-0.035338973
-0.033621437
-0.031854962
-0.030056073
-0.028240741
-0.026424126
-0.024620357
-0.022842345
-0.021101643
-0.019408346
-0.017771034
-0.016196751
-0.014691026
-0.01325792
-0.011900101
-0.010618937
-0.0094146027
-0.0082861778
-0.0072317449
-0.006248463
-0.0053325555
-0.0044794326
-0.0036828309
-0.0029376844
-0.0022270431
-0.0015745523
-0.00084045735
-0.00055685646
-0.032034849
-0.033166063
-0.0343505
-0.035632574
-0.036825335
-0.037862421
-0.038762107
-0.039535685
-0.040172949
-0.040660937
-0.040992575
-0.041164504
-0.041174507
-0.041021487
-0.0407062
-0.040231491
-0.039602179
-0.038824919
-0.037908098
-0.036861719
-0.035697213
-0.034427213
-0.033065298
-0.031625729
-0.030123171
-0.028572405
-0.026988048
-0.025384299
-0.023774702
-0.022171936
-0.020587644
-0.019032293
-0.017515073
-0.016043839
-0.014625078
-0.013263919
-0.011964162
-0.010728339
-0.0095577745
-0.0084526682
-0.0074121589
-0.0064343847
-0.0055164675
-0.0046546231
-0.0038434513
-0.0030783673
-0.0023448948
-0.001661861
-0.00091424103
-0.00053679674
-0.026384438
-0.027482419
-0.028629854
-0.029863177
-0.031030367
-0.032076105
-0.033013699
-0.033850987
-0.034578205
-0.035183028
-0.035657712
-0.035997431
-0.036198232
-0.036257036
-0.036172274
-0.03594414
-0.035574559
-0.035067125
-0.034427066
-0.033661193
-0.032777786
-0.031786435
-0.030697858
-0.02952368
-0.028276207
-0.026968181
-0.025612526
-0.024222097
-0.022809451
-0.021386626
-0.019964952
-0.018554883
-0.017165866
-0.01580624
-0.01448317
-0.01320261
-0.011969297
-0.010786764
-0.0096573763
-0.0085823731
-0.0075619084
-0.0065950895
-0.0056799573
-0.0048135759
-0.0039914584
-0.0032095764
-0.002455633
-0.0017445457
-0.00098018355
-0.00052503529
-0.021348977
-0.022398775
-0.023494386
-0.02466566
-0.025789602
-0.026820508
-0.027768052
-0.028637612
-0.029420184
-0.030104424
-0.03068248
-0.031148745
-0.03149821
-0.031726489
-0.031830362
-0.031808029
-0.031659134
-0.031384763
-0.030987461
-0.030471235
-0.029841509
-0.029105029
-0.028269739
-0.02734463
-0.02633956
-0.025265056
-0.024132104
-0.022951923
-0.021735745
-0.020494609
-0.019239157
-0.017979462
-0.016724868
-0.015483868
-0.014263997
-0.013071766
-0.011912617
-0.010790897
-0.0097098595
-0.0086716731
-0.0076774343
-0.0067271818
-0.0058198686
-0.0049534271
-0.0041242977
-0.0033290904
-0.0025573258
-0.0018211887
-0.0010378102
-0.00052163774
-0.016879654
-0.01787285
-0.018908156
-0.02000992
-0.021079305
-0.022078913
-0.023015761
-0.023893481
-0.024704021
-0.025437219
-0.026085536
-0.026643099
-0.027104401
-0.027464322
-0.027718586
-0.027864007
-0.027898543
-0.027821334
-0.027632757
-0.027334473
-0.02692943
-0.026421825
-0.025817045
-0.025121564
-0.024342825
-0.023489089
-0.022569271
-0.021592756
-0.020569204
-0.019508358
-0.018419856
-0.017313053
-0.016196856
-0.015079579
-0.01396882
-0.012871362
-0.011793098
-0.010738971
-0.009712944
-0.0087179726
-0.0077559918
-0.0068279044
-0.0059335385
-0.0050716892
-0.0042397123
-0.0034349254
-0.0026483502
-0.0018905634
-0.0010875141
-0.00052477595
-0.012930276
-0.013863368
-0.014834748
-0.015864111
-0.016872758
-0.017830432
-0.018742183
-0.019610401
-0.020428063
-0.021186281
-0.021878093
-0.022497741
-0.023039636
-0.023498375
-0.023869125
-0.024147839
-0.024331324
-0.024417306
-0.024404508
-0.024292723
-0.024082852
-0.023776913
-0.023378029
-0.02289038
-0.022319135
-0.021670348
-0.020950846
-0.020168086
-0.019330001
-0.018444832
-0.017520964
-0.016566752
-0.015590368
-0.014599647
-0.013601951
-0.01260405
-0.011612025
-0.010631182
-0.0096659897
-0.0087200237
-0.0077959256
-0.0068953653
-0.0060189815
-0.005166398
-0.004335855
-0.0035254245
-0.0027274037
-0.0019516583
-0.0011299568
-0.0005318681
-0.0094588318
-0.010331854
-0.011239261
-0.012196749
-0.013142439
-0.014052193
-0.014929575
-0.015776075
-0.016585692
-0.017350812
-0.018065201
-0.018723458
-0.019320203
-0.019850088
-0.020308104
-0.020689765
-0.020991186
-0.02120915
-0.0213412
-0.02138572
-0.021342004
-0.021210291
-0.020991793
-0.020688683
-0.020304081
-0.019841991
-0.019307234
-0.018705349
-0.018042485
-0.017325266
-0.016560653
-0.015755796
-0.014917892
-0.014054034
-0.01317108
-0.012275523
-0.011373376
-0.010470069
-0.0095703617
-0.0086782661
-0.007796976
-0.0069288073
-0.0060751188
-0.0052363036
-0.0044114386
-0.0035993707
-0.0027935327
-0.002003699
-0.0011656939
-0.00054048575
-0.0064273246
-0.0072429419
-0.0080890287
-0.0089778113
-0.009861477
-0.010721103
-0.011559103
-0.012376292
-0.013167627
-0.013926701
-0.014648065
-0.015326812
-0.015957951
-0.016536412
-0.017057284
-0.017515966
-0.017908241
-0.018230341
-0.018479036
-0.018651723
-0.0187465
-0.018762228
-0.018698573
-0.018556039
-0.018335974
-0.018040558
-0.017672771
-0.017236339
-0.016735661
-0.016175719
-0.015561972
-0.014900236
-0.014196563
-0.013457108
-0.012688005
-0.011895236
-0.011084512
-0.010261164
-0.0094300318
-0.0085953706
-0.0077607616
-0.0069290271
-0.0061021353
-0.0052811664
-0.0044659706
-0.0036561622
-0.0028462246
-0.002046213
-0.001195089
-0.00054883409
-0.0038035461
-0.0045659643
-0.0053550549
-0.0061799741
-0.0070046683
-0.0078146474
-0.0086114169
-0.0093952588
-0.010161988
-0.010906297
-0.011623509
-0.012309266
-0.012959061
-0.013568229
-0.014132135
-0.014646288
-0.015106402
-0.01550846
-0.015848794
-0.016124165
-0.016331842
-0.016469673
-0.01653614
-0.016530411
-0.016452372
-0.016302649
-0.016082602
-0.015794315
-0.015440556
-0.015024722
-0.014550776
-0.014023153
-0.01344667
-0.012826413
-0.01216763
-0.011475611
-0.010755574
-0.010012547
-0.0092512583
-0.0084760236
-0.0076906425
-0.0068982982
-0.0061014425
-0.0053017454
-0.0044997514
-0.0036958075
-0.0028853853
-0.002079008
-0.0012183358
-0.00055579628
-0.0015618375
-0.0022768591
-0.0030149061
-0.0037825087
-0.0045533786
-0.00531674
-0.0060733595
-0.0068230868
-0.0075624746
-0.0082871822
-0.0089932434
-0.0096768466
-0.010333989
-0.01096047
-0.011552023
-0.012104403
-0.012613437
-0.013075076
-0.013485461
-0.013840999
-0.014138434
-0.014374919
-0.014548077
-0.014656061
-0.014697608
-0.014672072
-0.014579457
-0.014420424
-0.014196287
-0.013908994
-0.013561091
-0.013155671
-0.012696303
-0.012186956
-0.011631904
-0.01103563
-0.010402718
-0.0097377449
-0.0090451627
-0.0083291885
-0.0075936871
-0.0068420585
-0.0060771117
-0.0053009952
-0.0045148577
-0.0037197168
-0.0029119669
-0.00210266
-0.0012359369
-0.00056100287
0.00032191174
-0.00035153389
-0.0010447468
-0.0017618799
-0.0024847008
-0.0032055421
-0.0039245691
-0.0046412654
-0.0053527956
-0.0060556395
-0.0067464571
-0.0074219371
-0.0080785582
-0.0087125815
-0.0093201407
-0.0098973036
-0.010440111
-0.010944617
-0.011406947
-0.011823356
-0.012190297
-0.01250448
-0.012762942
-0.012963107
-0.013102844
-0.013180518
-0.013195037
-0.013145884
-0.013033135
-0.01285747
-0.012620166
-0.012323073
-0.011968576
-0.011559544
-0.011099261
-0.01059135
-0.010039683
-0.0094482804
-0.0088212033
-0.0081624416
-0.0074757941
-0.0067647491
-0.0060323485
-0.0052811085
-0.0045126782
-0.0037286665
-0.0029263057
-0.0021171592
-0.0012477069
-0.00056395835
0.0018448554
0.0012051881
0.00054879126
-0.00012673731
-0.00080958406
-0.0014945267
-0.002181234
-0.0028688924
-0.0035551568
-0.0042371712
-0.0049121136
-0.0055770995
-0.0062290292
-0.006864581
-0.0074802678
-0.0080724784
-0.0086375054
-0.0091715777
-0.0096709042
-0.010131723
-0.010550358
-0.010923274
-0.011247138
-0.011518881
-0.011735757
-0.011895404
-0.011995897
-0.012035795
-0.012014183
-0.011930696
-0.011785538
-0.011579485
-0.011313875
-0.010990582
-0.010611971
-0.010180843
-0.0097003592
-0.0091739608
-0.0086052688
-0.0079979767
-0.0073557329
-0.0066820187
-0.005980009
-0.0052524827
-0.0045014874
-0.0037291239
-0.0029333581
-0.0021261924
-0.0012562501
-0.00056597677
0.0030477817
0.0024358908
0.0018096272
0.0011682157
0.00051844444
-0.00013642289
-0.00079567001
-0.0014582327
-0.0021221367
-0.002785044
-0.0034445428
-0.0040980925
-0.0047429392
-0.0053761108
-0.005994449
-0.0065946331
-0.0071732016
-0.0077265759
-0.0082510945
-0.008743052
-0.0091987458
-0.0096145247
-0.0099868443
-0.010312324