/*--------------------------------*- C++ -*----------------------------------*\
  =========                 |
  \\      /  F ield         | OpenFOAM: The Open Source CFD Toolbox
   \\    /   O peration     | Website:  https://openfoam.org
    \\  /    A nd           | Version:  6
     \\/     M anipulation  |
\*---------------------------------------------------------------------------*/
FoamFile
{
    version     2.0;
    format      ascii;
    class       surfaceScalarField;
    location    "113";
    object      phi;
}
// * * * * * * * * * * * * * * * * * * * * * * * * * * * * * * * * * * * * * //

dimensions      [0 3 -1 0 0 0 0];

internalField   nonuniform List<scalar> 
18180
(
0.00031874134
-0.00016318403
-0.00015555732
0.0013092593
-0.0013670142
0.00037649616
0.0030329978
-0.0033338192
0.0016100807
0.0055499727
-0.0059762849
0.00345931
0.0089185134
-0.0092395566
0.0058710159
0.013193275
-0.013080181
0.0088054197
0.018422579
-0.01746069
0.012231386
0.024645444
-0.022346867
0.016124001
0.031888437
-0.02770462
0.020461627
0.040162595
-0.033497361
0.025223203
0.049460743
-0.039684256
0.030386108
0.059755565
-0.046219294
0.035924472
0.070998838
-0.053051203
0.041807929
0.083122292
-0.060124203
0.048000749
0.096040686
-0.06737971
0.054461315
0.10965765
-0.07475911
0.061142142
0.12387372
-0.082207421
0.067991359
0.13860151
-0.0896776
0.074949806
0.1538396
-0.097152514
0.081914427
-0.10462979
0.088682812
0.16978658
0.0003975108
-0.00056069485
0.001609649
-0.0025791525
0.0036894406
-0.0054136108
0.0066876627
-0.008974507
0.010650996
-0.01320289
0.015618366
-0.018047551
0.021616932
-0.023459257
0.02865813
-0.029388065
0.036734032
-0.035780522
0.045814456
-0.042577785
0.055845223
-0.049715023
0.06674795
-0.057122021
0.078421597
-0.064724849
0.090745867
-0.072448473
0.10358626
-0.080220104
0.11680016
-0.087973009
0.13024302
-0.095650279
0.14377514
-0.10320972
0.15726059
-0.11063796
-0.1178655
0.1704963
0.00048063872
-0.0010413336
0.0019187579
-0.0040172716
0.0043526116
-0.0078474646
0.0078167976
-0.012438693
0.012338027
-0.017724119
0.017929721
-0.023639246
0.024586935
-0.03011647
0.03228208
-0.03708321
0.0409619
-0.044460342
0.050546165
-0.05216205
0.06092848
-0.060097338
0.071979359
-0.0681729
0.083551454
-0.076296944
0.095486522
-0.084383541
0.1076234
-0.09235698
0.1198059
-0.10015552
0.13188953
-0.1077339
0.14374482
-0.11506501
0.1552498
-0.12214294
-0.1289176
0.16630191
0.00056618636
-0.00160752
0.0022280063
-0.0056790915
0.0050007513
-0.01062021
0.0088942538
-0.016332195
0.013905628
-0.022735493
0.020012396
-0.029746014
0.027167159
-0.037271232
0.035294247
-0.045210298
0.04428884
-0.053454934
0.054018894
-0.061892104
0.064329941
-0.070408385
0.075052417
-0.078895376
0.086010827
-0.087255354
0.097033763
-0.095406478
0.10796364
-0.10328685
0.11866498
-0.11085686
0.12903047
-0.11809939
0.13898354
-0.12501809
0.1484752
-0.1316346
-0.1379482
0.1575058
0.00065090401
-0.002258424
0.0025244083
-0.0075525958
0.0056037781
-0.013699579
0.0098647097
-0.020593127
0.015264976
-0.028135759
0.021736906
-0.036217944
0.029183111
-0.044717437
0.037475649
-0.053502836
0.046458864
-0.062438149
0.055955776
-0.071389016
0.065777409
-0.080230017
0.075733981
-0.088851948
0.085646627
-0.097168
0.095358194
-0.10511804
0.10474185
-0.11267051
0.11370662
-0.11982164
0.12219956
-0.12659232
0.13020448
-0.13302301
0.13773763
-0.13916775
-0.14507027
0.1448597
0.00073065426
-0.0029890783
0.0027921538
-0.0096140952
0.0061267168
-0.017034142
0.01066695
-0.02513336
0.016322995
-0.033791804
0.022975699
-0.042870648
0.030474989
-0.052216727
0.038643044
-0.061670891
0.047281891
-0.071076996
0.056184457
-0.080291581
0.065147586
-0.089193147
0.073985229
-0.097689591
0.082539996
-0.10572277
0.090691652
-0.1132697
0.098361607
-0.12034046
0.10551322
-0.12697326
0.11214846
-0.13322756
0.11830181
-0.13917636
0.12403275
-0.14489869
-0.15046571
0.1294282
0.00080074974
-0.003789828
0.0030139823
-0.011827328
0.0065330306
-0.020553191
0.011240273
-0.029840602
0.016993009
-0.03954454
0.023618942
-0.049496582
0.030918683
-0.059516467
0.03867383
-0.069426039
0.046659295
-0.079062461
0.054657889
-0.088290176
0.062474877
-0.097010134
0.069950258
-0.10516497
0.076967111
-0.11273962
0.08345506
-0.11975765
0.089388858
-0.12627426
0.094782831
-0.13236723
0.099682581
-0.13812731
0.10415553
-0.1436493
0.10828189
-0.14902505
-0.15433574
0.11215191
0.00085607674
-0.0046459047
0.0031721231
-0.014143374
0.0067873507
-0.024168418
0.011529999
-0.03458325
0.0172037
-0.045218242
0.023586873
-0.055879754
0.030440235
-0.06636983
0.037519693
-0.076505497
0.044592132
-0.0861349
0.051451265
-0.095149309
0.057930783
-0.10348965
0.063912782
-0.11114697
0.069330476
-0.11815731
0.074165329
-0.1245925
0.07843968
-0.13054861
0.082206543
-0.13613409
0.085538487
-0.14145925
0.088517326
-0.14662814
0.091225904
-0.15173363
-0.156854
0.09374417
0.00089027914
-0.0055361838
0.0032483394
-0.016501434
0.0068577309
-0.02777781
0.011492628
-0.039218148
0.016907021
-0.050632635
0.022839136
-0.06181187
0.029023914
-0.072554608
0.035209464
-0.082691048
0.041174076
-0.092099511
0.046740442
-0.10071568
0.051784567
-0.10853378
0.056238159
-0.11560056
0.060084711
-0.12200387
0.063350628
-0.12785842
0.066093396
-0.13329138
0.068389039
-0.13842974
0.070320708
-0.14339092
0.071969824
-0.14827726
0.07341032
-0.15317413
-0.15814946
0.074705779
0.00089983309
-0.0064360169
0.0032334284
-0.01883503
0.0067292529
-0.031273635
0.011111303
-0.043600198
0.016092637
-0.055613969
0.021384777
-0.06710401
0.026714012
-0.077883843
0.031839184
-0.08781622
0.036567061
-0.096827389
0.040762126
-0.10491074
0.044349182
-0.11212083
0.047308893
-0.11856027
0.049667774
-0.12436275
0.051485002
-0.12967565
0.052838532
-0.13464491
0.053812647
-0.13940385
0.05448836
-0.14406664
0.054937294
-0.14872619
0.055218848
-0.15345568
0.055379108
-0.15830972
-0.00020238558
0.00020238551
3.6340273e-11
-0.00067776977
0.00047538413
6.4631629e-11
-0.0013424702
0.00066470035
8.2942802e-11
-0.0021323621
0.00078989192
9.5184545e-11
-0.0029958651
0.00086350291
9.5837382e-11
-0.0038908549
0.00089498985
9.4718697e-11
-0.0047824303
0.00089157529
8.4695798e-11
-0.0056410431
0.00085861272
7.8059096e-11
-0.0064410281
0.00079998497
6.574303e-11
-0.0071594521
0.00071842391
5.7356885e-11
-0.0077751951
0.00061574295
4.4868374e-11
-0.0082682154
0.0004930202
3.4742646e-11
-0.0086189694
0.00035075402
2.109522e-11
-0.0088079789
0.00018900941
8.3787073e-12
-0.008815575
7.5960951e-06
-7.4858459e-12
-0.0086219226
-0.00019365238
-2.326545e-11
-0.0082072838
-0.00041463873
-4.2062413e-11
-0.0075516128
-0.00065567097
-6.1430914e-11
-0.0066341499
-0.00091746283
-8.3859453e-11
-0.0011864102
-0.0054477396
-1.0794469e-10
-0.00018798093
0.00039036641
-0.00062502735
0.00091243057
-0.0012287914
0.0012684645
-0.0019352518
0.0014963524
-0.0026922149
0.0016204661
-0.0034563754
0.0016591504
-0.0041911698
0.0016263697
-0.0048649667
0.0015324097
-0.0054496294
0.0013846477
-0.0059193805
0.0011881749
-0.0062498861
0.00094624859
-0.0064175147
0.00066064876
-0.0063987316
0.00033197093
-0.0061696203
-4.0101916e-05
-0.0057055571
-0.00045646716
-0.0049811308
-0.00091807864
-0.003970359
-0.0014254106
-0.0026466084
-0.0019794216
-0.0009824449
-0.0025816263
-0.0032022079
0.0010333527
-0.00015893265
0.00054929903
-0.00051890592
0.0012724039
-0.0010007959
0.0017503545
-0.0015412958
0.0020368524
-0.0020873936
0.002166564
-0.0025937811
0.0021655379
-0.003020909
0.0020534976
-0.00333332
0.0018448206
-0.0034983027
0.0015496304
-0.0034848158
0.0011746881
-0.0032626042
0.00072403699
-0.0028014789
0.00019952342
-0.0020706833
-0.00039882466
-0.0010383795
-0.0010724057
0.00032878136
-0.0018236281
0.0020659356
-0.0026552329
0.0042099666
-0.0035694416
0.006799199
-0.004568654
0.0098733292
-0.0056557566
-0.0067805214
0.013451643
-0.00011756951
0.00066686851
-0.00036700513
0.0015218395
-0.00067352291
0.0020568723
-0.00097483368
0.0023381632
-0.0012168545
0.0024085848
-0.0013515784
0.0023002619
-0.0013354169
0.0020373361
-0.0011277449
0.0016371487
-0.00068970468
0.0011115902
1.6746791e-05
0.00046823659
0.0010296218
-0.00028883804
0.002387549
-0.0011584037
0.0041303184
-0.0021415941
0.006299363
-0.0032414504
0.0089382654
-0.0044625304
0.012093314
-0.0058102811
0.015813876
-0.0072900043
0.020152102
-0.0089068798
0.025162707
-0.010666361
-0.012493881
0.030876066
-6.690769e-05
0.00073377619
-0.00017916418
0.001634096
-0.00026652416
0.0021442322
-0.00026766703
0.0023393061
-0.00012714504
0.0022680629
0.00020625348
0.0019668634
0.00078083281
0.0014627568
0.0016431592
0.00077482226
0.0028390308
-8.428144e-05
0.0044142632
-0.0011069958
0.0064152534
-0.0022898282
0.0088893956
-0.003632546
0.011885407
-0.0051376056
0.015453658
-0.0068097014
0.019646545
-0.0086554174
0.024519111
-0.010682847
0.030129924
-0.012900817
0.036541586
-0.015318541
0.043821498
-0.017946274
-0.020684378
0.052011995
-9.9821778e-06
0.00074375837
3.4546406e-05
0.0015895674
0.00019991937
0.0019788592
0.00054682393
0.0019924015
0.0011323482
0.0016825386
0.0020111416
0.0010880699
0.0032363794
0.00023751897
0.0048606453
-0.00084944362
0.006936589
-0.0021602252
0.009517301
-0.0036877078
0.01265652
-0.0054290475
0.016408739
-0.007384765
0.02082913
-0.0095579968
0.025973384
-0.011953956
0.031897613
-0.014579646
0.038658646
-0.01744388
0.046315218
-0.02055739
0.05493003
-0.023933353
0.064573577
-0.027589821
-0.031408048
0.075297247
5.0756065e-05
0.00069300232
0.00026567779
0.0013746456
0.00070830224
0.0015362347
0.001439121
0.0012615827
0.0025169713
0.00060468822
0.0039997981
-0.00039475693
0.0059452502
-0.0017079331
0.0084110692
-0.0033152627
0.01145522
-0.0052043762
0.01513586
-0.0073683475
0.019511069
-0.0098042566
0.024638324
-0.01251202
0.030573764
-0.015493436
0.037371288
-0.018751479
0.045081624
-0.022289982
0.053751784
-0.026114041
0.063425877
-0.030231483
0.074148499
-0.034655975
0.085973677
-0.039414999
-0.044391534
0.098957163
0.00011380311
0.00057919923
0.00050853128
0.00097991742
0.0012460474
0.00079871853
0.0023868983
0.00012073168
0.0039914382
-0.00099985172
0.0061201735
-0.0025234924
0.0088337439
-0.0044215036
0.012192745
-0.006674264
0.016257324
-0.0092689552
0.021086433
-0.012197457
0.026736792
-0.015454615
0.033261561
-0.019036789
0.040708752
-0.022940628
0.049119425
-0.027162152
0.058525787
-0.031696343
0.068949567
-0.036537821
0.080401838
-0.041683754
0.092886132
-0.047140268
0.10640994
-0.052938807
-0.058999164
0.12101757
0.00017850443
0.00040069481
0.00076006479
0.00039835703
0.0018054195
-0.00024663629
0.0033748616
-0.0014487105
0.0055292345
-0.0031542247
0.0083296756
-0.0053239336
0.011836992
-0.0079288198
0.016110736
-0.010948008
0.021207927
-0.014366147
0.027181428
-0.018170957
0.034078014
-0.022351201
0.041936175
-0.026894951
0.050783688
-0.03178814
0.060634973
-0.037013437
0.071488247
-0.042549617
0.083322515
-0.048372089
0.096095362
-0.0544566
0.10974429
-0.060789197
0.1242002
-0.06739472
-0.074278407
0.13947945
0.00024513751
0.0010199907
0.002383435
0.0043940344
0.0071108255
0.010592312
0.014894878
0.020070871
0.026166351
0.033218597
0.041253503
0.050283025
0.060302814
0.071290126
0.083201824
0.095971877
0.10950664
0.12366724
0.13818695
0.15259136
-0.0035068978
-0.0019408416
-1.8540194e-10
-0.0012848654
-0.0022220322
-2.3325734e-10
0.0011960244
-0.0024808895
-2.8215981e-10
0.0038788709
-0.0026828462
-3.3111209e-10
0.006736871
-0.0028579998
-3.7678739e-10
0.0097527203
-0.0030158489
-4.1913339e-10
0.012907485
-0.0031547646
-4.5429088e-10
0.016183145
-0.0032756587
-4.7812612e-10
0.019563998
-0.0033808526
-4.8551458e-10
0.023035827
-0.0034718289
-4.7201514e-10
0.026585347
-0.00354952
-4.3597853e-10
0.030200135
-0.0036147877
-3.7371639e-10
0.03386855
-0.0036684139
-2.8368592e-10
0.037579595
-0.0037110453
-1.6254428e-10
0.041322822
-0.0037432272
-1.0282995e-11
0.045088261
-0.0037654392
1.7368139e-10
0.048866374
-0.0037781128
3.8504317e-10
0.052648018
-0.003781645
6.191257e-10
0.05642443
-0.0037764124
8.6543262e-10
0.060187212
-0.0037627834
1.1128147e-09
0.063928337
-0.0037411263
1.3438129e-09
0.067640151
-0.0037118155
1.5412206e-09
0.071315386
-0.0036752364
1.6822356e-09
0.07494717
-0.0036317863
1.7474209e-09
0.078529044
-0.0035818754
1.714036e-09
0.082054968
-0.0035259253
1.5684564e-09
0.085519334
-0.0034643672
1.2974158e-09
0.088916971
-0.0033976383
9.0486301e-10
0.09224315
-0.0033261792
3.9818903e-10
0.095493579
-0.0032504292
-1.8990788e-10
0.098664404
-0.003170824
-8.2462361e-10
0.1017522
-0.0030877914
-1.4414073e-09
0.10475395
-0.0030017493
-1.9846739e-09
0.10766705
-0.0029131032
-2.3715998e-09
0.1104893
-0.0028222451
-2.5514839e-09
0.11321886
-0.0027295535
-2.4534456e-09
0.11585425
-0.0026353944
-2.0710621e-09
0.11839438
-0.0025401236
-1.3814942e-09
0.12083847
-0.0024440947
-4.5555924e-10
0.12318613
-0.0023476591
6.6077009e-10
0.12543734
-0.002251209
1.8236139e-09
0.12759244
-0.0021551021
2.9141033e-09
0.12965247
-0.002060039
3.7600755e-09
0.13161848
-0.0019660127
4.2516789e-09
0.13349465
-0.0018761764
4.2514766e-09
0.13527957
-0.0017849197
3.6831081e-09
0.13699791
-0.0017183445
2.5625092e-09
0.13860549
-0.0016075746
9.6960915e-10
0.14030381
-0.00169832
-1.0819678e-09
-0.0013445389
-3.2591806e-09
0.0028541903
-0.0037616792
0.0049515875
-0.0043194294
0.0072947283
-0.0048240303
0.009821169
-0.0052092869
0.012509849
-0.0055466797
0.015348444
-0.0058544444
0.018320216
-0.006126536
0.021408758
-0.0063642005
0.024600052
-0.0065721471
0.027881338
-0.0067531149
0.031240485
-0.006908667
0.034666013
-0.007040316
0.038147068
-0.007149468
0.041673303
-0.0072372808
0.045234804
-0.0073047279
0.048822038
-0.0073526738
0.05242583
-0.0073819046
0.056037337
-0.0073931516
0.059648042
-0.0073871173
0.063249754
-0.0073644963
0.066834619
-0.007325991
0.070395126
-0.0072723223
0.073924126
-0.0072042362
0.077414846
-0.0071225069
0.080860908
-0.0070279366
0.084256335
-0.0069213525
0.087595569
-0.0068036019
0.090873477
-0.0066755464
0.094085352
-0.0065380541
0.097226916
-0.0063919929
0.10029432
-0.0062382233
0.10328412
-0.0060775913
0.10619329
-0.0059109236
0.10901921
-0.0057390234
0.11175963
-0.0055626674
0.11441268
-0.0053826062
0.11697686
-0.0051995668
0.11945099
-0.0050142566
0.12183427
-0.0048273791
0.12412625
-0.004639634
0.12632685
-0.004451805
0.12843635
-0.0042646057
0.13045575
-0.004079435
0.13238602
-0.0038962832
0.13423126
-0.0037214245
0.13599008
-0.0035437372
0.13768669
-0.0034149497
0.13927792
-0.0031988119
0.14096012
-0.0033805132
-0.0026866212
0.015023215
-0.0053332514
0.016854575
-0.0061507893
0.018908399
-0.0068778545
0.021114758
-0.0074156459
0.023462018
-0.0078939401
0.025946529
-0.0083389552
0.028555673
-0.0087356802
0.031275972
-0.0090844994
0.034096327
-0.0093925014
0.037006508
-0.0096632961
0.039996397
-0.0098985559
0.043056134
-0.010100054
0.046176198
-0.010269531
0.049347334
-0.010408417
0.052560514
-0.010517908
0.05580693
-0.01059909
0.059077994
-0.010652968
0.062365346
-0.010680504
0.065660867
-0.010682638
0.068956695
-0.010660324
0.072245246
-0.010614542
0.075519237
-0.010546313
0.078771707
-0.010456707
0.081996041
-0.010346841
0.085185987
-0.010217882
0.088335673
-0.010071039
0.091439623
-0.0099075517
0.094492763
-0.0097286867
0.097490429
-0.0095357204
0.10042837
-0.0093299326
0.10330274
-0.0091125916
0.10611009
-0.0088849473
0.10884739
-0.0086482218
0.11151197
-0.0084036032
0.11410155
-0.0081522426
0.11661419
-0.0078952529
0.11904834
-0.0076337137
0.12140276
-0.0073686776
0.12367657
-0.0071011929
0.12586925
-0.0068323043
0.12798062
-0.0065631834
0.13001092
-0.0062948998
0.13196103
-0.0060295441
0.13383186
-0.0057671199
0.13562738
-0.0055169393
0.13734626
-0.0052626148
0.13901175
-0.0050804439
0.14058304
-0.0047700977
0.14224583
-0.0050433088
-0.0040369485
0.032059606
-0.0065167907
0.03347507
-0.0075662531
0.035080862
-0.0084836474
0.036804008
-0.0091387915
0.038645193
-0.0097351254
0.040610717
-0.010304479
0.04269341
-0.010818373
0.04488375
-0.011274839
0.047174162
-0.011682914
0.04955742
-0.012046554
0.052025818
-0.012366954
0.054571401
-0.012645637
0.057186161
-0.012884291
0.059862056
-0.013084311
0.062591026
-0.013246878
0.065365029
-0.013373093
0.068176088
-0.013464027
0.071016326
-0.013520742
0.073878015
-0.013544327
0.076753606
-0.013535915
0.079635771
-0.013496706
0.082517433
-0.013427975
0.085391803
-0.013331077
0.088252405
-0.013207442
0.0910931
-0.013058577
0.093908107
-0.012886046
0.096692022
-0.012691466
0.099439822
-0.012476487
0.10214688
-0.012242778
0.10480896
-0.011992015
0.10742223
-0.011725859
0.10998323
-0.011445951
0.11248891
-0.011153895
0.11493656
-0.010851254
0.11732385
-0.010539541
0.11964882
-0.010220223
0.12190984
-0.0098947265
0.1241056
-0.0095644418
0.12623517
-0.0092307575
0.12829792
-0.0088950611
0.13029365
-0.0085589098
0.13222248
-0.0082237301
0.13408523
-0.0078922964
0.13588276
-0.0075646498
0.13761884
-0.0072530174
0.13929234
-0.0069361134
0.14092514
-0.0067132417
0.14247988
-0.0063248441
0.14412703
-0.0066904599
-0.005411428
0.052652539
-0.0071573349
0.05349339
-0.0084071045
0.054487786
-0.0094780433
0.055570041
-0.010221047
0.056754975
-0.010920059
0.058056882
-0.011606386
0.059474275
-0.012235766
0.061002289
-0.012802853
0.062636712
-0.013317338
0.064372951
-0.013782793
0.066205486
-0.014199488
0.068128048
-0.014568199
0.070133876
-0.014890119
0.07221587
-0.015166305
0.074366684
-0.015397692
0.076578808
-0.015585218
0.078844653
-0.015729871
0.081156626
-0.015832716
0.083507204
-0.015894905
0.085888987
-0.015917698
0.088294752
-0.015902471
0.090717501
-0.015850725
0.093150501
-0.015764077
0.095587315
-0.015644256
0.098021835
-0.015493097
0.1004483
-0.015312512
0.10286132
-0.015104485
0.10525588
-0.014871045
0.10762735
-0.01461425
0.1099715
-0.014336162
0.11228447
-0.014038833
0.11456281
-0.013724286
0.11680342
-0.013394506
0.11900358
-0.013051422
0.12116095
-0.012696907
0.12327351
-0.012332782
0.12533959
-0.01196081
0.12735787
-0.011582722
0.12932736
-0.011200245
0.13124741
-0.010815111
0.13311776
-0.010429263
0.13493852
-0.010044487
0.13671046
-0.0096642345
0.13843442
-0.0092886154
0.14011402
-0.0089326175
0.14174843
-0.0085705204
0.14335785
-0.0083226615
0.14490936
-0.007876354
0.14655452
-0.00833562
-0.006833313
0.075226469
-0.0070865569
0.07533168
-0.0085123149
0.07555631
-0.0097026732
0.075856879
-0.010521616
0.076261426
-0.011324606
0.076786803
-0.012131764
0.077436049
-0.012885012
0.078209095
-0.013575899
0.079104251
-0.014212494
0.080118371
-0.014796912
0.081247212
-0.015328329
0.082485481
-0.015806468
0.083826995
-0.016231633
0.085264976
-0.016604286
0.086792251
-0.016924967
0.088401368
-0.017194335
0.090084712
-0.017413216
0.091834608
-0.017582612
0.093643415
-0.017703712
0.095503599
-0.017777881
0.097407797
-0.017806669
0.099348872
-0.0177918
0.10131996
-0.017735165
0.1033145
-0.017638801
0.10532629
-0.017504882
0.10734946
-0.017335683
0.10937855
-0.017133571
0.11140846
-0.016900965
0.11343454
-0.016640322
0.11545248
-0.016354105
0.11745841
-0.016044765
0.11944884
-0.015714719
0.12142067
-0.015366334
0.12337117
-0.015001919
0.12529797
-0.014623711
0.12719908
-0.014233885
0.12907282
-0.013834557
0.1309179
-0.013427797
0.13273333
-0.01301568
0.13451851
-0.012600285
0.13627319
-0.012183949
0.13799753
-0.011768828
0.13969234
-0.011359038
0.14135852
-0.010954802
0.1429996
-0.010573689
0.14461515
-0.010186073
0.14622355
-0.0099310582
0.14779702
-0.009449829
0.14946579
-0.010004392
-0.0083347274
0.098030379
-0.0061597731
0.097263331
-0.0077452667
0.096587277
-0.0090266193
0.096003093
-0.0099374321
0.09554691
-0.010868423
0.095229961
-0.011814815
0.095057616
-0.012712667
0.095033878
-0.013552161
0.095158282
-0.014336898
0.095427565
-0.015066195
0.095837367
-0.015738132
0.096382282
-0.016351383
0.097055827
-0.016905177
0.09785077
-0.017399229
0.09875943
-0.017833627
0.099773838
-0.018208743
0.10088586
-0.018525238
0.10208732
-0.018784069
0.10337008
-0.018986477
0.10472617
-0.019133968
0.1061478
-0.019228299
0.10762745
-0.019271456
0.10915793
-0.019265643
0.11073238
-0.019213247
0.11234432
-0.019116819
0.11398767
-0.01897904
0.11565679
-0.018802688
0.11734644
-0.018590614
0.11905182
-0.018345705
0.12076857
-0.018070854
0.12249275
-0.017768942
0.12422083
-0.017442801
0.1259497
-0.017095208
0.12767665
-0.016728869
0.12939935
-0.01634641
0.13111584
-0.015950376
0.13282453
-0.015543247
0.13452419
-0.015127455
0.13621395
-0.014705435
0.13789329
-0.014279626
0.13956211
-0.013852772
0.1412207
-0.013427412
0.14286998
-0.013008327
0.14451107
-0.012595891
0.14614746
-0.012210075
0.14777929
-0.011817902
0.14942303
-0.011574802
0.15105656
-0.011083353
0.15278754
-0.011735377
-0.0099574367
0.1191941
-0.0043363041
0.11750169
-0.0060528551
0.11586238
-0.0073873085
0.11436007
-0.0084351273
0.11303101
-0.0095393636
0.11187271
-0.010656513
0.11089064
-0.01173059
0.11009107
-0.012752591
0.10947342
-0.013719249
0.10903309
-0.014625873
0.10876429
-0.015469329
0.10866035
-0.016247437
0.10871366
-0.016958495
0.10891594
-0.017601504
0.10925845
-0.018176134
0.10973225
-0.018682545
0.11032832
-0.019121308
0.11103765
-0.019493404
0.11185137
-0.019800197
0.1127608
-0.020043397
0.11375754
-0.020225033
0.1148335
-0.020347419
0.11598099
-0.020413134
0.11719272
-0.020424974
0.11846183
-0.020385929
0.11978192
-0.020299136
0.12114709
-0.02016785
0.12255187
-0.0199954
0.12399132
-0.019785151
0.12546094
-0.019540479
0.12695673
-0.019264729
0.12847513
-0.018961199
0.13001303
-0.018633114
0.13156777
-0.018283607
0.13313709
-0.017915725
0.13471913
-0.017532419
0.13631244
-0.017136559
0.13791595
-0.016730964
0.13952897
-0.016318449
0.14115118
-0.015901845
0.14278273
-0.015484314
0.14442412
-0.015068802
0.14607655
-0.014660758
0.14774141
-0.014260749
0.1494223
-0.013890972
0.15112005
-0.01351565
0.15284929
-0.013304039
0.15459376
-0.012827824
0.15643848
-0.013580101
-0.011752782
0.13690061
-0.001757468
0.1343828
-0.0035350472
0.13182441
-0.0048289149
0.12946754
-0.0060782547
0.12733939
-0.0074112182
0.12542135
-0.0087384706
0.12371624
-0.010025482
0.12222916
-0.011265507
0.12095855
-0.012448641
0.11989865
-0.013565971
0.11904194
-0.014612627
0.1183801
-0.015585591
0.11790412
-0.016482512
0.11760447
-0.017301857
0.1174713
-0.018042961
0.11749458
-0.018705834
0.11766432
-0.019291045
0.11797059
-0.019799673
0.11840366
-0.020233269
0.11895408
-0.02059382
0.11961274
-0.020883689
0.12037091
-0.02110559
0.12122032
-0.02126254
0.12215316
-0.021357813
0.12316213
-0.021394903
0.12424047
-0.021377475
0.12538194
-0.021309318
0.12658084
-0.021194303
0.12783203
-0.021036341
0.1291309
-0.020839341
0.13047335
-0.020607179
0.13185581
-0.020343665
0.13327522
-0.020052519
0.13472897
-0.019737358
0.13621493
-0.019401688
0.13773142
-0.019048906
0.13927717
-0.018682317
0.14085136
-0.018305154
0.14245357
-0.017920653
0.14408378
-0.017532058
0.14574245
-0.017142986
0.14743046
-0.016756809
0.14914936
-0.016379658
0.15090095
-0.016012335
0.15268907
-0.015679095
0.15451532
-0.015341898
0.1563926
-0.015181326
0.15831068
-0.014745898
0.16033232
-0.015601739
-0.013780785
0.15005594
0.00077794802
0.14676712
-0.0002462279
0.14346993
-0.0015317262
0.14042232
-0.0030306416
0.13762761
-0.0046165059
0.13507954
-0.0061904047
0.13277996
-0.0077259002
0.13072895
-0.0092144949
0.12892407
-0.01064376
0.12736012
-0.012002022
0.12602928
-0.013281788
0.12492214
-0.014478457
0.12402854
-0.015588907
0.1233378
-0.016611125
0.12283896
-0.01754412
0.12252091
-0.018387776
0.12237256
-0.0191427
0.12238302
-0.019810129
0.12254162
-0.020391873
0.12283805
-0.020890252
0.12326241
-0.021308043
0.12380524
-0.021648426
0.12445763
-0.021914933
0.12521122
-0.022111394
0.1260582
-0.022241883
0.12699138
-0.022310664
0.12800421
-0.022322142
0.12909071
-0.022280804
0.13024554
-0.022191176
0.13146398
-0.022057777
0.13274187
-0.021885073
0.13407566
-0.021677454
0.13546234
-0.021439197
0.13689944
-0.021174458
0.13838501
-0.020887257
0.13991759
-0.020581485
0.14149619
-0.020260922
0.1431203
-0.019929266
0.14478986
-0.019590206
0.14650524
-0.019247438
0.14826731
-0.018905063
0.15007741
-0.018566904
0.15193755
-0.0182398
0.15385001
-0.017924797
0.15581905
-0.017648129
0.15784693
-0.017369781
0.15994547
-0.017279864
0.16210882
-0.016909253
0.16438264
-0.01787555
-0.016106341
0.18891456
0.0053798056
-0.19351641
0.18510475
0.003563574
0.18171296
0.0018600663
0.17856809
0.00011423029
0.17563279
-0.0016812118
0.17288205
-0.0034396566
0.17029762
-0.0051414752
0.16787053
-0.0067874013
0.16559689
-0.0083701186
0.16347454
-0.0098796785
0.16150164
-0.011308883
0.15967606
-0.012652883
0.15799518
-0.013908023
0.1564557
-0.015071642
0.1550537
-0.016142119
0.15378471
-0.01711879
0.15264382
-0.018001806
0.15162572
-0.018792035
0.15072485
-0.019491004
0.14993543
-0.020100835
0.14925158
-0.020624184
0.14866733
-0.021064178
0.14817675
-0.021424357
0.14777397
-0.021708614
0.14745322
-0.021921135
0.1472089
-0.022066338
0.14703557
-0.022148811
0.14692802
-0.02217326
0.14688129
-0.022144448
0.14689067
-0.022067148
0.14695169
-0.021946099
0.1470602
-0.021785965
0.14721232
-0.02159131
0.14740443
-0.021366574
0.14763324
-0.021116067
0.14789572
-0.020843967
0.14818914
-0.020554343
0.14851106
-0.020251181
0.14885932
-0.019938469
0.14923208
-0.019620201
0.14962783
-0.019300812
0.15004538
-0.018984447
0.15048401
-0.018678428
0.15094326
-0.018384047
0.15142384
-0.018128709
0.15192564
-0.017871587
0.15245339
-0.017807611
0.15300254
-0.01745841
0.15359716
-0.018470164
-0.016709229
0.21686325
0.0087778953
-0.22026134
0.21338962
0.0070372085
0.21017706
0.0050726229
0.20707201
0.0032192773
0.20402569
0.0013651072
0.20106906
-0.00048302442
0.198219
-0.0022914144
0.19548002
-0.004048426
0.19285804
-0.0057481306
0.19035987
-0.0073815112
0.18799072
-0.008939738
0.185754
-0.010416159
0.18365169
-0.011805718
0.18168451
-0.013104456
0.17985191
-0.014309519
0.17815227
-0.015419155
0.17658306
-0.016432591
0.17514095
-0.017349927
0.173822
-0.018172056
0.17262176
-0.018900596
0.17153539
-0.019537812
0.17055776
-0.020086545
0.16968355
-0.020550145
0.16890733
-0.020932396
0.16822364
-0.021237449
0.16762705
-0.021469748
0.16711221
-0.021633967
0.16667389
-0.021734941
0.16630705
-0.021777604
0.16600683
-0.02176693
0.16576861
-0.021707887
0.16558804
-0.021605388
0.16546099
-0.02146426
0.16538363
-0.021289219
0.16535242
-0.021084856
0.16536409
-0.020855639
0.16541568
-0.02060593
0.16550451
-0.020340013
0.16562822
-0.02006218
0.16578477
-0.019776743
0.16597243
-0.019488474
0.16618986
-0.019201883
0.16643613
-0.01892469
0.16671078
-0.018658704
0.16701377
-0.018431694
0.16734638
-0.018204198
0.16770803
-0.01816926
0.1681069
-0.017857281
0.16852579
-0.01888905
-0.01719363
0.24377179
0.011501621
-0.24649552
0.2409216
0.0098874054
0.23806863
0.0079255874
0.23522193
0.0060659818
0.2323444
0.0042426382
0.22945686
0.0024045106
0.22659054
0.00057490431
0.22376474
-0.0012226217
0.22099537
-0.0029787598
0.21829837
-0.0046845112
0.2156876
-0.0063289688
0.21317406
-0.0079026213
0.21076637
-0.0093980252
0.20847108
-0.010809169
0.20629283
-0.012131273
0.20423451
-0.013360833
0.20229747
-0.014495551
0.20048176
-0.015534213
0.19878629
-0.016476588
0.19720904
-0.017323346
0.1957472
-0.018075968
0.19439732
-0.018736664
0.19315545
-0.019308282
0.19201729
-0.01979423
0.19097822
-0.020198387
0.1900335
-0.020525024
0.18917826
-0.020778726
0.18840763
-0.020964312
0.18771679
-0.021086763
0.18710102
-0.021151159
0.18655574
-0.021162613
0.18607658
-0.021126224
0.18565936
-0.021047037
0.18530015
-0.020930006
0.18499527
-0.020779982
0.18474134
-0.020601708
0.18453524
-0.02039983
0.18437416
-0.020178931
0.18425559
-0.019943613
0.18417736
-0.019698514
0.18413763
-0.01944874
0.18413495
-0.019199206
0.1841682
-0.018957944
0.18423704
-0.018727544
0.18434065
-0.018535298
0.18448182
-0.018345368
0.18465429
-0.018341733
0.18487997
-0.018082966
0.18509546
-0.01910453
-0.017537037
0.26927905
0.013534377
-0.27131181
0.26711122
0.012055241
0.26476967
0.01026713
0.26233068
0.0085049775
0.25980217
0.006771143
0.25719434
0.0050123448
0.2545333
0.0032359455
0.25184322
0.0014674533
0.24914411
-0.0002796497
0.24645577
-0.0019961728
0.2437975
-0.0036706934
0.24118642
-0.005291546
0.23863728
-0.0068488786
0.23616255
-0.0083344425
0.23377254
-0.0097412643
0.23147541
-0.011063705
0.22927735
-0.012297491
0.22718276
-0.013439619
0.22519443
-0.014488264
0.22331378
-0.015442689
0.22154097
-0.016303159
0.21987514
-0.017070839
0.21831456
-0.017747704
0.21685677
-0.018336441
0.21549874
-0.018840352
0.21423698
-0.01926326
0.21306767
-0.01960942
0.21198678
-0.019883423
0.21099014
-0.020090121
0.21007352
-0.020234539
0.20923272
-0.020321812
0.20846361
-0.020357119
0.20776221
-0.020345634
0.20712469
-0.020292486
0.20654744
-0.020202735
0.20602709
-0.020081359
0.20556053
-0.019933267
0.20514492
-0.019763324
0.20477774
-0.019576432
0.20445679
-0.019377556
0.20418018
-0.01917213
0.20394647
-0.018965499
0.20375445
-0.018765929
0.2036039
-0.018576994
0.20349342
-0.018424811
0.20342701
-0.018278963
0.20339358
-0.018308305
0.2034265
-0.018115884
0.2034207
-0.019098734
-0.017717146
0.29298928
0.014865368
-0.29432027
0.29151019
0.013534322
0.28978787
0.01198945
0.28788943
0.010403426
0.28584972
0.0088108537
0.28367956
0.0071825008
0.28139737
0.0055181349
0.27902639
0.0038384318
0.27658793
0.0021588142
0.27410214
0.0004896146
0.27158923
-0.0011577848
0.26906893
-0.0027712432
0.26655956
-0.0043395069
0.26407771
-0.0058525955
0.26163813
-0.0073016836
0.25925358
-0.0086791582
0.25693483
-0.0099787403
0.2546907
-0.011195487
0.25252817
-0.012325734
0.25045252
-0.013367041
0.24846748
-0.014318117
0.24657538
-0.015178738
0.24477733
-0.015949651
0.24307337
-0.016632481
0.24146264
-0.017229626
0.23994354
-0.017744156
0.23851383
-0.018179715
0.23717082
-0.018540413
0.23591145
-0.018830743
0.23473239
-0.019055479
0.23363017
-0.019219601
0.23260128
-0.019328222
0.23164216
-0.019386521
0.23074938
-0.019399701
0.22991959
-0.019372946
0.22914964
-0.019311408
0.22843658
-0.01922021
0.22777772
-0.019104465
0.22717064
-0.018969348
0.22661322
-0.01882014
0.22610368
-0.018662588
0.22564065
-0.018502473
0.22522296
-0.018348237
0.22485052
-0.018204554
0.22452157
-0.018095857
0.22424097
-0.017998367
0.22399393
-0.018061262
0.22382224
-0.017944198