/*--------------------------------*- C++ -*----------------------------------*\
  =========                 |
  \\      /  F ield         | OpenFOAM: The Open Source CFD Toolbox
   \\    /   O peration     | Website:  https://openfoam.org
    \\  /    A nd           | Version:  6
     \\/     M anipulation  |
\*---------------------------------------------------------------------------*/
FoamFile
{
    version     2.0;
    format      ascii;
    class       volVectorField;
    location    "244";
    object      U;
}
// * * * * * * * * * * * * * * * * * * * * * * * * * * * * * * * * * * * * * //

dimensions      [0 1 -1 0 0 0 0];

internalField   nonuniform List<vector> 
9200
(
(0.001039346 0.0014199823 -5.9201843e-20)
(0.013676067 -0.0020583664 4.6042531e-20)
(0.038313166 -0.0058665675 -3.8501738e-20)
(0.072274436 -0.0097635044 -6.0257747e-20)
(0.11376474 -0.013490028 1.8826966e-20)
(0.16158088 -0.016605657 3.274388e-20)
(0.21467148 -0.018817283 -1.2268009e-20)
(0.27206607 -0.019973888 9.2688629e-21)
(0.33285622 -0.02001122 1.6803426e-20)
(0.39616347 -0.018929048 1.4848073e-21)
(0.46111555 -0.016779812 -2.1456338e-20)
(0.52683686 -0.013657726 2.0670007e-20)
(0.59245067 -0.0096879917 -4.0422157e-20)
(0.6570913 -0.0050157684 -2.1133905e-20)
(0.7199247 0.00020557138 5.9046533e-21)
(0.780175 0.0058241069 -2.5131675e-20)
(0.83717058 0.011712826 2.5217118e-20)
(0.89046874 0.017918528 2.2243177e-20)
(0.93967069 0.02457343 -2.9930753e-22)
(0.98205185 0.028293402 -1.6692067e-21)
(0.0052521801 -0.0013462728 -1.7059353e-20)
(0.0269625 -0.0089890257 3.9747707e-20)
(0.061670114 -0.014809763 2.3576297e-20)
(0.10629489 -0.019172267 -1.1569757e-19)
(0.15873565 -0.022213993 -1.2727088e-20)
(0.21753351 -0.023720681 7.3297076e-20)
(0.28137295 -0.023595091 -3.54764e-20)
(0.349006 -0.021868959 -8.3905567e-21)
(0.41923919 -0.018645517 3.4287541e-20)
(0.49090943 -0.014080832 -4.3259581e-20)
(0.5628723 -0.0083759411 -3.0338482e-20)
(0.63400845 -0.0017665835 7.1921437e-20)
(0.70324328 0.0054884065 3.8294053e-20)
(0.7695758 0.013118645 -6.7976562e-20)
(0.83211244 0.020852097 1.4623689e-20)
(0.89010035 0.02841972 -3.6733395e-20)
(0.94296915 0.035569689 -1.3777193e-20)
(0.99043229 0.042140901 7.0974724e-20)
(1.032356 0.047715323 2.9641921e-20)
(1.0669348 0.049139705 -8.3478211e-20)
(0.010858426 -0.0040424155 3.6773457e-20)
(0.043953412 -0.015431076 2.5047375e-21)
(0.090515433 -0.022552281 2.2341713e-20)
(0.14711139 -0.026497356 9.8116819e-22)
(0.21134254 -0.027886294 -4.0773938e-20)
(0.28146766 -0.026795111 1.8576402e-20)
(0.35587039 -0.023382724 1.34203e-20)
(0.43299006 -0.017921532 -5.0327703e-20)
(0.51132476 -0.010735645 5.7261859e-20)
(0.58942612 -0.0021838743 1.4256687e-20)
(0.66590914 0.0073479119 -5.430071e-20)
(0.73948034 0.01746027 -1.8237402e-20)
(0.80897596 0.027756569 9.0591659e-21)
(0.87340262 0.037859278 2.3444739e-20)
(0.9319736 0.047424049 -1.1362505e-20)
(0.98413365 0.056148978 2.7877725e-20)
(1.029574 0.063789178 -2.018823e-20)
(1.0682645 0.070204396 -7.0123581e-20)
(1.1003321 0.07511938 -2.3796309e-20)
(1.1249112 0.076641239 4.8659818e-20)
(0.017957214 -0.006422163 2.4508015e-20)
(0.064776994 -0.020694798 5.1039222e-20)
(0.12485228 -0.028060845 1.9881694e-20)
(0.19446965 -0.030464063 1.2990094e-20)
(0.27094931 -0.029094839 1.7275702e-20)
(0.35224878 -0.024388975 -4.772017e-20)
(0.43643138 -0.016825969 -2.5646855e-20)
(0.52162007 -0.0069766664 0)
(0.60602894 0.0045670361 1.3920614e-20)
(0.68798705 0.017211736 -5.8523377e-21)
(0.76597516 0.030373926 -9.7934947e-20)
(0.83867445 0.043499636 -1.5774819e-20)
(0.90501524 0.05608662 6.5103199e-20)
(0.96421568 0.067704139 4.8443045e-22)
(1.0158035 0.078007719 -1.5725569e-21)
(1.0596155 0.086746796 2.1957496e-20)
(1.0957773 0.093772232 -5.2647208e-21)
(1.12468 0.099065338 -6.1029753e-20)
(1.1468647 0.10259708 -4.5851334e-20)
(1.1622957 0.10341386 6.9520693e-20)
(0.026579419 -0.0082056878 -3.9194204e-21)
(0.089344018 -0.024033505 -5.1256324e-21)
(0.16430753 -0.030264986 5.6599407e-20)
(0.24758119 -0.029810017 1.8539323e-20)
(0.3362416 -0.024513025 -3.1955065e-20)
(0.42795125 -0.015239857 1.2163839e-20)
(0.52047261 -0.0028513594 2.6402861e-21)
(0.61166356 0.011737099 3.3609168e-20)
(0.6995471 0.027640145 5.6599503e-21)
(0.78236836 0.044028773 -1.3204739e-20)
(0.85865404 0.060147728 6.0154035e-20)
(0.92726909 0.075340475 -5.8009359e-20)
(0.98745674 0.089072865 -1.3216614e-19)
(1.038853 0.10094902 -5.5773039e-21)
(1.0814725 0.11071709 8.3150783e-20)
(1.1156655 0.11826405 0)
(1.1420548 0.12360583 1.0118961e-20)
(1.1614668 0.12689057 -1.5459775e-20)
(1.1748179 0.12829871 -8.5994788e-21)
(1.1826673 0.12744916 2.099226e-20)
(0.036666908 -0.0090895793 -5.4309127e-21)
(0.11731511 -0.024685356 4.3578744e-21)
(0.20811868 -0.028140176 -8.7629836e-21)
(0.30515702 -0.023414952 2.8472394e-20)
(0.40533538 -0.013075589 -2.9392663e-20)
(0.50607146 0.0015226181 -1.6927023e-20)
(0.60490489 0.019095143 3.7364232e-20)
(0.69954958 0.038365258 4.7595454e-21)
(0.78800391 0.058167649 -2.4436056e-20)
(0.86863404 0.077483008 6.9867557e-20)
(0.94023972 0.095458646 5.2394032e-22)
(1.0020955 0.11143157 -8.0444312e-20)
(1.0539569 0.12494291 0)
(1.0960273 0.1357375 3.9542113e-20)
(1.1288921 0.14374844 5.5235988e-21)
(1.1534278 0.14906894 -7.7566401e-20)
(1.170699 0.15191914 -1.9586924e-20)
(1.1818623 0.15262369 -1.2467631e-20)
(1.1880592 0.15152607 -1.4709384e-20)
(1.190146 0.14858494 4.0420531e-20)
(0.048058868 -0.0087674049 -1.7277958e-20)
(0.1480831 -0.021931992 -2.219828e-21)
(0.25514069 -0.020797833 3.0380503e-20)
(0.36546383 -0.010412791 3.7484307e-20)
(0.4759042 0.0059015904 -1.9944733e-20)
(0.58374265 0.026269309 -6.9163028e-20)
(0.68644184 0.048977212 -2.7995795e-20)
(0.78176202 0.072417791 7.8929207e-20)
(0.86790195 0.095212481 8.5778128e-21)
(0.94358915 0.11624962 -2.4873482e-20)
(1.0081258 0.13469828 1.3642213e-20)
(1.061387 0.15001556 -4.3194482e-21)
(1.1037693 0.1619366 0)
(1.1360975 0.17044428 2.7203482e-20)
(1.1595046 0.17572309 -7.932241e-20)
(1.175302 0.1781037 -3.1475528e-20)
(1.184857 0.17800814 8.1054574e-20)
(1.1894921 0.17590946 -4.2969889e-21)
(1.1904029 0.17225559 3.5561048e-21)
(1.188508 0.16719299 2.7111548e-20)
(0.06048525 -0.0069573638 -3.2414614e-20)
(0.18077772 -0.01517038 -8.1624318e-20)
(0.30388929 -0.0075835259 2.5797741e-21)
(0.42642555 0.0097033576 7.0161808e-20)
(0.54535148 0.032631555 6.2424373e-20)
(0.657981 0.058820045 -7.1574517e-20)
(0.76190882 0.086176509 -2.8275099e-22)
(0.8551829 0.11285231 8.5522543e-20)
(0.93645345 0.13737838 4.8828067e-20)
(1.0050415 0.1586937 -5.4218405e-20)
(1.0609356 0.17613563 -9.2334211e-20)
(1.1047242 0.18941355 -3.1589825e-21)
(1.1374759 0.19855944 4.2127864e-20)
(1.1605873 0.20385857 -6.605627e-21)
(1.1756247 0.2057702 -1.2868785e-20)
(1.1841776 0.2048492 1.9690805e-20)
(1.1877427 0.20167898 4.3880614e-20)
(1.1876453 0.19682589 -4.3859423e-20)
(1.1849953 0.19077885 -1.0232198e-19)
(1.180625 0.18377381 2.4566856e-20)
(0.073537215 -0.0034329734 -3.497975e-20)
(0.21422687 -0.0039890253 -1.7388611e-19)
(0.35251657 0.011839376 8.2103241e-20)
(0.48562797 0.037018337 9.2767512e-20)
(0.61085379 0.066835552 5.7970564e-20)
(0.72576726 0.098481178 8.610709e-21)
(0.82834802 0.12959696 -1.0624009e-19)
(0.91718997 0.15824269 0)
(0.99162743 0.18302814 -6.8748586e-20)
(1.0517521 0.20311207 -1.5202409e-20)
(1.0983384 0.21814861 5.4703463e-20)
(1.1327008 0.22821083 1.0973379e-20)
(1.1565109 0.2336926 -4.5613852e-20)
(1.1716067 0.23519947 -4.908136e-20)
(1.1798203 0.23344336 2.4287678e-20)
(1.182845 0.22915324 4.4822888e-20)
(1.1821488 0.22300987 -5.5600405e-20)
(1.178936 0.21560823 -1.0751121e-19)
(1.1741468 0.20742225 -3.1513641e-21)
(1.1684567 0.19871882 2.7046396e-20)
(0.086650445 0.001961386 -3.5448995e-21)
(0.24696018 0.011816634 8.7913241e-20)
(0.39884739 0.037492309 -1.6479242e-20)
(0.54040464 0.071218382 -8.4309147e-20)
(0.66949902 0.10778893 4.5164369e-20)
(0.78421952 0.14411543 4.917545e-20)
(0.88318939 0.17775668 5.5356779e-21)
(0.96577869 0.2068849 -9.9502483e-20)
(1.0321763 0.23038802 -2.5048779e-21)
(1.0833328 0.24781553 5.0503541e-20)
(1.120807 0.25926301 5.9854758e-21)
(1.1465558 0.2652362 -1.9717205e-20)
(1.1627107 0.26650533 -7.5704624e-20)
(1.1713765 0.26396622 -6.2554022e-21)
(1.1744762 0.2585243 4.3533352e-20)
(1.1736548 0.25101089 3.7022011e-20)
(1.1702383 0.24213396 1.9793441e-20)
(1.1652402 0.23245876 -5.2994841e-20)
(1.1594014 0.22240419 1.2957452e-20)
(1.1532251 0.212238 8.2659098e-20)
(-0.0012932614 0.0014346598 -1.1234443e-21)
(-0.0047459602 0.0031874148 2.0646967e-21)
(-0.010771358 0.004135904 8.7950111e-22)
(-0.017754286 0.0045395359 -2.441102e-21)
(-0.024740317 0.0045654165 -1.4114827e-21)
(-0.031299591 0.0043260384 1.5460011e-21)
(-0.037161326 0.003903538 -6.8700812e-21)
(-0.04214744 0.0033577216 -5.9573039e-21)
(-0.046157774 0.0027313812 1.1171998e-20)
(-0.049146188 0.0020548305 -9.7427489e-21)
(-0.051100652 0.0013493004 -1.9833032e-22)
(-0.052030442 0.00062942196 3.667344e-21)
(-0.051957736 -9.4889402e-05 -6.3295594e-22)
(-0.05091188 -0.00081693027 2.2818744e-20)
(-0.048925777 -0.0015318446 3.0401125e-22)
(-0.046035341 -0.0022351738 -4.0882871e-20)
(-0.042281798 -0.0029222677 7.5385612e-21)
(-0.037703444 -0.0035910382 2.386411e-20)
(-0.032308696 -0.0042399861 -4.3852374e-20)
(-0.026156967 -0.0048211127 -2.7739204e-20)
(-0.0016521999 0.0041808662 -5.3716029e-21)
(-0.0053974809 0.0092681379 1.0865438e-20)
(-0.011218509 0.012007443 -1.0191543e-20)
(-0.017658025 0.013153763 3.9229749e-21)
(-0.023856432 0.013195413 4.8121446e-21)
(-0.029433316 0.012462724 7.132419e-22)
(-0.034152319 0.011197013 -2.2509491e-20)
(-0.037860376 0.0095738966 -2.0370241e-21)
(-0.040474297 0.0077189871 2.0163541e-20)
(-0.04195892 0.0057212304 -5.0473602e-21)
(-0.042308949 0.0036428646 -2.176259e-20)
(-0.041537336 0.001526713 4.897317e-21)
(-0.039667712 -0.00059830502 2.2635422e-20)
(-0.036729082 -0.0027127604 1.0308391e-20)
(-0.032752035 -0.0048026883 2.1854285e-20)
(-0.027769173 -0.0068555074 -1.9770728e-20)
(-0.021824798 -0.0088582184 -2.1672943e-20)
(-0.014966275 -0.010804223 2.1184616e-20)
(-0.0071290243 -0.012678999 2.6810364e-20)
(0.0018742863 -0.014317221 1.5854766e-20)
(-0.0023034291 0.0065602325 -4.3568689e-21)
(-0.0065392236 0.014480195 -5.6387542e-21)
(-0.011892131 0.018710542 3.0723929e-22)
(-0.017211098 0.020428179 1.0959872e-21)
(-0.021819141 0.020400323 6.6918407e-21)
(-0.02543104 0.019151665 1.0665169e-20)
(-0.027877231 0.017066287 -3.722764e-21)
(-0.029053268 0.014423782 -1.8896165e-20)
(-0.028909036 0.011424352 6.5413174e-21)
(-0.02743105 0.008209905 1.286257e-20)
(-0.024627714 0.0048797762 5.834085e-21)
(-0.02052011 0.001502239 1.8159106e-20)
(-0.015135988 -0.0018768626 1.7295915e-21)
(-0.0085054026 -0.0052272468 -3.3864529e-20)
(-0.00065689831 -0.0085276087 1.2020169e-21)
(0.0083810097 -0.011759108 -2.2139211e-20)
(0.018556857 -0.014904094 -2.4466301e-20)
(0.029802168 -0.01795375 4.5819708e-20)
(0.042304949 -0.020855114 2.5349346e-20)
(0.056738552 -0.023247762 1.2239204e-22)
(-0.0031290275 0.0083689697 -5.2833071e-21)
(-0.0078963986 0.018336512 -8.4815279e-21)
(-0.012438985 0.023587808 4.3593048e-21)
(-0.016026534 0.025609657 4.1463453e-21)
(-0.018235023 0.025382744 2.0105708e-21)
(-0.018912651 0.023589321 7.3209962e-21)
(-0.017984717 0.020730272 9.3124786e-21)
(-0.015416711 0.017170377 -1.3511357e-21)
(-0.011207049 0.013171314 -1.1481947e-20)
(-0.0053752366 0.0089189317 -2.9071879e-20)
(0.0020481066 0.0045434377 6.1892273e-23)
(0.011026501 0.00013431184 4.0697822e-20)
(0.021522215 -0.0042489497 -1.8383172e-20)
(0.033497838 -0.0085675832 -1.2296088e-20)
(0.046920496 -0.012795544 5.5348963e-22)
(0.061760076 -0.016911852 3.2302643e-20)
(0.07795299 -0.020901666 -1.4829543e-20)
(0.095392237 -0.024763372 -5.3339183e-20)
(0.11439842 -0.028379713 4.5765009e-20)
(0.13634535 -0.031073089 3.3013172e-20)
(-0.0039704095 0.009465732 -6.8788986e-22)
(-0.0090916577 0.020487791 -1.253474e-20)
(-0.012364471 0.026159086 -3.4144536e-20)
(-0.01355254 0.028143337 -5.7241626e-21)
(-0.01253324 0.027555006 -3.6222738e-21)
(-0.0093167252 0.025188063 6.305104e-21)
(-0.0039456464 0.021627411 -4.6461964e-21)
(0.0035261255 0.017298959 -8.8070278e-21)
(0.013036817 0.012508752 2.1899711e-20)
(0.024521236 0.0074744433 5.0567076e-21)
(0.037915531 0.0023489051 -2.5290295e-20)
(0.053157436 -0.0027627826 1.1078279e-20)
(0.070186856 -0.0077908726 0)
(0.088946567 -0.012691301 1.2089576e-20)
(0.10938542 -0.017436916 -9.7016177e-21)
(0.13145739 -0.022009893 -1.4337119e-20)
(0.15507405 -0.026408642 -1.5738956e-21)
(0.18006758 -0.030659416 -2.2181548e-21)
(0.20685339 -0.034576528 4.6147065e-20)
(0.23766356 -0.037019862 -1.0470126e-20)
(-0.0046450978 0.0097808621 -7.5356679e-21)
(-0.0096772506 0.020747879 2.45164e-20)
(-0.01106438 0.026160976 -1.0499347e-20)
(-0.0090968329 0.027724444 -2.7469282e-20)
(-0.0039797217 0.026601694 -2.7548147e-20)
(0.0040961811 0.023648408 -1.4921569e-20)
(0.014954146 0.019496457 -6.9059605e-22)
(0.028436231 0.014604706 5.5499785e-21)
(0.044403142 0.0093034475 1.9615879e-20)
(0.062730489 0.0038284168 7.3530858e-21)
(0.083304307 -0.0016547533 -7.1862214e-21)
(0.10601896 -0.0070322363 -2.0102309e-21)
(0.13077356 -0.012229095 -3.8191712e-20)
(0.15746942 -0.017199749 -1.2693645e-20)
(0.18601198 -0.02191973 1.8750607e-20)
(0.21631175 -0.026379713 -2.1021674e-20)
(0.24823221 -0.030602218 -8.9730581e-21)
(0.28151865 -0.034670602 3.0440468e-20)
(0.31660701 -0.038364813 5.0472069e-20)
(0.35665012 -0.039964092 3.3559657e-21)
(-0.0049617683 0.0093139985 1.6783304e-20)
(-0.0091662692 0.019097709 1.4467939e-20)
(-0.0078593651 0.023563366 5.1145488e-20)
(-0.0018585403 0.024328943 2.3387982e-20)
(0.0082957213 0.022523783 1.8251774e-22)
(0.022221937 0.019014385 -3.9388456e-20)
(0.039597438 0.014440937 -2.4313861e-20)
(0.060147898 0.0092663606 1.0465817e-20)
(0.083639108 0.0038232298 1.4401587e-20)
(0.10986668 -0.0016512971 -1.3113711e-20)
(0.13864562 -0.0069910069 -4.4038718e-20)
(0.16980169 -0.012082844 2.96185e-20)
(0.20316403 -0.016854155 2.0020553e-20)
(0.23855944 -0.02126399 -2.7551158e-20)
(0.27581228 -0.025296397 1.1650135e-20)
(0.31474808 -0.028957161 2.4197615e-20)
(0.35514543 -0.032303045 8.0723946e-21)
(0.39663384 -0.035506668 -1.1764209e-20)
(0.43957698 -0.038392633 -1.4190298e-20)
(0.48798507 -0.038634392 5.8727557e-21)
(-0.0047307762 0.0081236732 1.1093845e-20)
(-0.0070586006 0.015671176 -2.3352719e-20)
(-0.0020293666 0.018562032 8.620056e-21)
(0.0090325187 0.018216225 3.3587966e-20)
(0.025256359 0.01565115 5.2124341e-20)
(0.046066334 0.011695604 2.027651e-20)
(0.070984518 0.0069609537 -5.8639364e-21)
(0.099601941 0.0018829533 -1.2286284e-20)
(0.13156893 -0.0032271956 -6.2057478e-21)
(0.16657566 -0.0081496543 3.4240837e-20)
(0.20433423 -0.012733316 -4.5104396e-21)
(0.24456483 -0.016879182 -1.6643302e-20)
(0.28698468 -0.02052868 -1.9693574e-20)
(0.33129996 -0.023656405 -4.7443743e-20)
(0.37720456 -0.026265524 2.3238706e-20)
(0.42438767 -0.028387851 -1.4095985e-20)
(0.4724997 -0.030127608 2.5993402e-20)
(0.52103614 -0.031783175 2.1040825e-20)
(0.57021391 -0.033350662 -8.5570381e-20)
(0.62470913 -0.032058822 -1.0807363e-22)
(-0.0037710521 0.0063146395 2.1925055e-20)
(-0.0028657668 0.010735096 -2.6165529e-20)
(0.0071421036 0.011564137 -4.5013296e-20)
(0.024450231 0.0099249906 -2.7253781e-20)
(0.047870847 0.0066523074 -2.0439868e-21)
(0.076628697 0.0024906191 1.3050093e-20)
(0.11007672 -0.0020153927 -2.8337686e-21)
(0.14765205 -0.0064879007 1.8118537e-20)
(0.18886095 -0.010663499 8.8685612e-21)
(0.23325193 -0.014362416 -1.1380173e-20)
(0.28039147 -0.017468943 8.8779153e-21)
(0.32984601 -0.019916798 -2.3903269e-20)
(0.38116878 -0.021678688 8.0504801e-21)
(0.43389082 -0.022759864 1.6756394e-20)
(0.48751933 -0.023194288 -2.6395141e-21)
(0.54154713 -0.023046877 1.6618987e-21)
(0.59543542 -0.022469429 -3.1957764e-22)
(0.6485178 -0.021870086 1.9590424e-20)
(0.70082236 -0.021445042 4.0434004e-21)
(0.75745147 -0.018499059 -5.7334369e-22)
(-0.0019110146 0.0040273483 2.3692112e-20)
(0.0038694292 0.0046765209 5.7159956e-20)
(0.020315309 0.0031879657 -4.9244226e-20)
(0.045178281 0.00029442801 -9.9454142e-21)
(0.076965147 -0.0034241493 2.0256343e-20)
(0.11469622 -0.0073535827 2.1433717e-21)
(0.15753882 -0.011054953 -2.9815161e-20)
(0.2047483 -0.014244134 6.9848097e-21)
(0.25564948 -0.016737922 7.1097889e-21)
(0.30960471 -0.01842695 -2.625408e-20)
(0.36598646 -0.019260089 1.2927332e-21)
(0.42415956 -0.019231857 -3.7174116e-20)
(0.48347099 -0.018372191 -3.634102e-20)
(0.54324562 -0.016738264 6.5683487e-20)
(0.60278809 -0.014407288 5.5627485e-21)
(0.66138882 -0.011475882 -1.5188792e-20)
(0.71830782 -0.008102028 1.9363971e-20)
(0.77269898 -0.0045928469 -9.1888149e-22)
(0.82408832 -0.00096802744 2.036458e-20)
(0.87621964 0.0043280916 -1.9554149e-20)
(-0.018836425 -0.0050997018 5.8352036e-20)
(-0.010224666 -0.0056349249 1.5783666e-20)
(-0.00022120936 -0.0060688776 -3.5139553e-20)
(0.010823207 -0.0063341068 1.6790228e-20)
(0.022642443 -0.0065120439 0)
(0.035177856 -0.0066300866 0)
(0.048369627 -0.0066909697 -2.2974939e-20)
(0.062138036 -0.0067025358 -1.6502866e-20)
(0.076412672 -0.0066741701 1.9122584e-20)
(0.091134026 -0.0066126613 1.8174025e-20)
(0.10624712 -0.0065232012 1.0524254e-21)
(0.12170016 -0.0064103533 -1.0317632e-20)
(0.13744484 -0.0062780763 8.3268735e-21)
(0.15343594 -0.0061297174 1.823371e-20)
(0.1696307 -0.00596814 -5.2274123e-21)
(0.18598846 -0.0057958294 -1.0174931e-20)
(0.20247049 -0.0056149568 -4.3195857e-21)
(0.21903974 -0.0054274311 -4.4257378e-21)
(0.2356608 -0.0052349446 7.3667186e-22)
(0.25229979 -0.0050390074 1.2286033e-21)
(0.26892438 -0.0048409746 2.566629e-21)
(0.28550378 -0.004642066 6.6539427e-21)
(0.30200881 -0.0044433808 2.489451e-22)
(0.31841193 -0.0042459084 -3.4514681e-21)
(0.33468729 -0.0040505364 1.5558779e-22)
(0.35081083 -0.0038580563 -5.7709747e-22)
(0.36676028 -0.0036691681 1.2434355e-21)
(0.38251524 -0.0034844843 1.0522433e-21)
(0.3980572 -0.0033045332 -1.2987916e-21)
(0.41336952 -0.0031297631 -1.2218748e-22)
(0.42843748 -0.0029605458 3.5750794e-23)
(0.44324823 -0.0027971815 -3.518755e-22)
(0.45779076 -0.0026399032 -4.056533e-22)
(0.4720559 -0.0024888821 5.5412488e-23)
(0.48603622 -0.0023442336 -1.3809013e-22)
(0.49972603 -0.002206023 -2.2343134e-22)
(0.51312131 -0.0020742726 2.5571881e-22)
(0.52621972 -0.001948968 2.9501917e-22)
(0.53902045 -0.0018300675 -8.2708349e-24)
(0.55152463 -0.0017175055 -1.5517307e-22)
(0.5637342 -0.0016112212 3.0406658e-23)
(0.57565577 -0.0015111142 -4.0144706e-23)
(0.58728951 -0.0014172554 9.2203126e-23)
(0.59866443 -0.0013293087 2.1977403e-23)
(0.60973489 -0.0012485573 -1.1394395e-22)
(0.62069291 -0.0011717921 -6.7612351e-24)
(0.63106088 -0.0011112431 -7.2476033e-26)
(0.64234937 -0.0010339464 -3.5610212e-24)
(0.65042731 -0.0010508035 2.9453769e-23)
(0.66700813 -0.00087555724 3.6050601e-22)
(0.010445864 -0.015017608 -1.2746813e-20)
(0.018179692 -0.01664101 -6.3302329e-20)
(0.027779209 -0.017915411 -3.0541935e-20)
(0.038385137 -0.018672069 3.8476004e-20)
(0.049620977 -0.019183586 1.4662608e-20)
(0.061506618 -0.01952943 -1.8204925e-20)
(0.074012807 -0.019709863 4.6721989e-21)
(0.087062654 -0.019746489 2.5447185e-20)
(0.10059312 -0.019667278 9.1994826e-23)
(0.11455399 -0.019491697 -7.6591223e-21)
(0.12889715 -0.019234356 -1.3021015e-20)
(0.14357598 -0.018908308 -8.5245269e-21)
(0.15854661 -0.018524969 1.777233e-20)
(0.17376751 -0.018093997 8.9295391e-21)
(0.18919894 -0.017623675 -1.6522435e-20)
(0.20480271 -0.017121227 -6.0390567e-21)
(0.22054208 -0.016592992 3.2145043e-21)
(0.23638169 -0.016044566 8.3716307e-21)
(0.25228747 -0.015480927 6.9832249e-21)
(0.26822666 -0.014906536 -6.972713e-21)
(0.28416785 -0.014325408 -3.1685441e-21)
(0.30008102 -0.013741169 1.3605325e-21)
(0.31593756 -0.013157093 3.8682679e-22)
(0.33171044 -0.012576136 1.2113946e-21)
(0.34737418 -0.012000953 1.8368326e-22)
(0.36290501 -0.011433918 -3.2661588e-22)
(0.37828084 -0.010877135 -7.2434809e-22)
(0.3934814 -0.010332448 9.7156467e-22)
(0.4084882 -0.0098014492 8.248286e-22)
(0.42328458 -0.0092854958 -1.5147274e-22)
(0.43785573 -0.0087857162 5.5305998e-22)
(0.45218863 -0.0083030248 -2.38809e-22)
(0.46627208 -0.0078381363 -3.7069822e-22)
(0.48009664 -0.007391581 -6.0999002e-22)
(0.49365459 -0.0069637217 4.4171695e-22)
(0.5069399 -0.0065547726 -1.5476464e-23)
(0.51994817 -0.0061648181 1.6124661e-22)
(0.53267664 -0.0057938333 -4.4174655e-22)
(0.54512408 -0.0054417115 3.7189369e-22)
(0.55729114 -0.0051082744 6.7175121e-23)
(0.56917933 -0.0047933571 -1.0285402e-22)
(0.58079472 -0.0044966758 1.7613606e-22)
(0.59213705 -0.0042184593 2.3339516e-22)
(0.60323459 -0.003957718 1.6926367e-22)
(0.61404188 -0.0037182973 1.6767059e-22)
(0.62474806 -0.0034906418 -2.6097755e-23)
(0.63488191 -0.0033112005 8.4042696e-23)
(0.64593106 -0.0030818578 7.6290579e-23)
(0.65382946 -0.0031323454 -1.946635e-22)
(0.67009131 -0.0026124279 -3.8026634e-23)
(0.067614675 -0.024029142 9.4528288e-21)
(0.073589655 -0.026749045 3.2950976e-21)
(0.08226549 -0.028805563 -1.21622e-20)
(0.091947801 -0.029968499 -1.2257918e-21)
(0.10198319 -0.030767858 1.4970586e-20)
(0.11254631 -0.031330885 -1.4887121e-20)
(0.12367594 -0.031636064 -2.9842265e-20)
(0.13529679 -0.031712999 1.4493517e-20)
(0.14735692 -0.031607629 1.818196e-20)
(0.15982339 -0.031350048 -1.1598512e-20)
(0.17266056 -0.030961812 1.0190549e-21)
(0.18583078 -0.030462745 8.6860148e-21)
(0.1992978 -0.029870543 -1.5253535e-20)
(0.21302652 -0.02920023 2.9095104e-21)
(0.22698239 -0.028464751 7.5194322e-21)
(0.24113136 -0.027675495 3.1600081e-23)
(0.2554401 -0.026842549 2.6556513e-22)
(0.26987601 -0.025974887 -7.4150823e-21)
(0.28440726 -0.025080555 3.8616794e-21)
(0.29900293 -0.02416681 8.4749008e-21)
(0.31363308 -0.023240224 -3.8351743e-21)
(0.32826886 -0.022306764 -2.2130357e-21)
(0.34288265 -0.021371846 1.0124439e-21)
(0.35744814 -0.020440377 -1.7155314e-21)
(0.37194042 -0.019516784 1.3532249e-21)
(0.38633612 -0.018605036 7.1845891e-22)
(0.40061342 -0.017708665 1.5268369e-21)
(0.41475215 -0.016830773 -1.9526596e-21)
(0.42873383 -0.015974058 2.2235655e-21)
(0.44254167 -0.015140823 5.5188474e-22)
(0.45616064 -0.014332994 4.0322429e-22)
(0.46957739 -0.013552148 3.2134451e-22)
(0.48278029 -0.012799528 8.732483e-22)
(0.4957594 -0.012076073 -1.3708578e-21)
(0.50850641 -0.011382444 3.7065476e-22)
(0.52101464 -0.010719054 1.0941202e-22)
(0.53327897 -0.010086103 -4.5171964e-23)
(0.54529587 -0.0094836065 8.6733043e-23)
(0.55706331 -0.0089114447 -3.718486e-22)
(0.56858108 -0.0083693774 1.8293424e-22)
(0.5798498 -0.0078571854 -3.4987057e-23)
(0.5908746 -0.0073744505 3.9003973e-22)
(0.60165442 -0.0069216019 -1.8544322e-22)
(0.61221613 -0.0064970512 4.7323273e-23)
(0.62251461 -0.0061071868 4.3603205e-23)
(0.63273357 -0.0057363216 -7.359881e-23)
(0.64241396 -0.0054443955 -1.2082329e-22)
(0.65299945 -0.0050704884 3.8808773e-22)
(0.66054947 -0.0051542321 1.7270409e-22)
(0.67619305 -0.0043069975 -8.3039578e-22)
(0.15021526 -0.031460423 1.5010115e-21)
(0.15354687 -0.035257388 -1.1566605e-20)
(0.1606162 -0.038010913 6.6441911e-21)
(0.16880588 -0.03947909 -1.3324739e-20)
(0.17698221 -0.040520681 -1.9758309e-21)
(0.18552343 -0.041302272 9.1599358e-21)
(0.19458417 -0.041757228 -9.7662094e-21)
(0.20408689 -0.041913701 1.5662792e-21)
(0.21398765 -0.041833321 1.2903795e-20)
(0.22427595 -0.041554325 3.4031974e-21)
(0.2349325 -0.041102034 -6.2096941e-21)
(0.24593017 -0.040500439 -2.8638075e-21)
(0.25724154 -0.039771738 -5.8409058e-21)
(0.26883907 -0.038935045 -6.4553108e-21)
(0.28069418 -0.038006965 3.2356929e-21)
(0.29277758 -0.037002292 8.4621205e-22)
(0.30505969 -0.035934314 1.3679569e-21)
(0.31751093 -0.034815011 -3.3850407e-21)
(0.3301019 -0.033655238 -4.2428833e-21)
(0.34280356 -0.032464885 2.3616495e-21)
(0.3555875 -0.031252986 3.2251334e-21)
(0.36842606 -0.030027805 -1.563618e-21)
(0.38129252 -0.02879689 1.5867257e-21)
(0.39416125 -0.027567121 -3.9123932e-22)
(0.40700783 -0.026344732 -3.9196375e-21)
(0.41980915 -0.025135341 -3.03328e-21)
(0.43254354 -0.023943965 -1.9026233e-22)
(0.4451908 -0.022775038 4.2858956e-22)
(0.45773228 -0.021632429 -2.210602e-21)
(0.47015089 -0.020519465 -8.5497012e-22)
(0.48243118 -0.019438953 2.2837643e-22)
(0.49455925 -0.018393208 -1.2498665e-21)
(0.50652283 -0.017384085 6.2633738e-24)
(0.51831122 -0.016413013 -4.2420786e-22)
(0.52991528 -0.015481035 -4.7193575e-22)
(0.5413274 -0.014588846 -5.1995517e-22)
(0.55254146 -0.013736843 -8.4132847e-22)
(0.56355289 -0.012925165 -5.4496466e-23)
(0.57435852 -0.012153759 -3.916039e-24)
(0.58495699 -0.011422403 -5.1972153e-22)
(0.59534773 -0.010730899 -9.1607264e-23)
(0.60553459 -0.010078772 -3.3239217e-22)
(0.61551539 -0.0094667125 -4.3759678e-22)
(0.62531512 -0.0088926239 3.7841514e-22)
(0.63488918 -0.0083653906 1.4820891e-23)
(0.64441361 -0.0078635668 1.8237445e-22)
(0.65344684 -0.0074693242 -1.3246535e-22)
(0.66336941 -0.0069629344 -2.669082e-22)
(0.67042147 -0.0070791325 -4.4693312e-23)
(0.68517832 -0.0059326648 4.6229414e-22)
(0.25468562 -0.036552746 -2.0900302e-20)
(0.25447016 -0.041393496 4.7585935e-20)
(0.25907328 -0.044745644 1.0348094e-20)
(0.26508407 -0.046442028 -1.5765321e-20)
(0.27070927 -0.0477143 -2.0227881e-21)
(0.27651988 -0.048747759 2.6232306e-21)
(0.28283542 -0.049413701 -1.6608175e-21)
(0.28957683 -0.049728081 -4.68614e-21)
(0.29669649 -0.049761412 -4.0159153e-21)
(0.30420538 -0.049557034 -1.2207635e-20)
(0.31210209 -0.049141668 1.7897747e-20)
(0.32036927 -0.048540783 6.5219868e-21)
(0.32898689 -0.047778946 -1.6780519e-20)
(0.33793391 -0.046877999 1.0317572e-20)
(0.34718696 -0.045857281 8.3849902e-21)
(0.35672062 -0.044734293 -8.7923817e-22)
(0.36650832 -0.043525047 -3.1222232e-21)
(0.37652275 -0.042244228 -3.8197288e-21)
(0.38673627 -0.040905339 -1.3892566e-21)
(0.39712115 -0.039520832 -1.2304181e-21)
(0.40764993 -0.038102201 -3.0257582e-21)
(0.41829563 -0.036660049 0)
(0.42903197 -0.035204134 -1.34519e-21)
(0.43983356 -0.033743401 3.930949e-21)
(0.45067607 -0.032286007 5.4052626e-21)
(0.46153631 -0.030839333 -9.4112525e-22)
(0.4723924 -0.029410006 -2.9274402e-21)
(0.48322379 -0.028003913 3.0258342e-21)
(0.49401138 -0.026626222 2.544755e-22)
(0.50473752 -0.025281404 3.4352406e-21)
(0.51538602 -0.023973267 -5.3459714e-22)
(0.52594224 -0.022704984 1.7173445e-21)
(0.53639301 -0.021479138 -7.996421e-22)
(0.54672665 -0.020297766 2.9094017e-22)
(0.55693295 -0.019162403 -4.3403802e-22)
(0.56700317 -0.018074138 5.6231524e-22)
(0.57692999 -0.017033672 4.5709725e-22)
(0.58670757 -0.016041374 3.8255453e-22)
(0.59633141 -0.01509736 -9.5935837e-22)
(0.60579881 -0.014201525 6.8355144e-22)
(0.61510779 -0.013353792 -3.6957198e-22)
(0.6242607 -0.012553719 -1.1033125e-21)
(0.63325411 -0.011802339 1.4078082e-21)
(0.64211075 -0.011097157 -6.2005464e-23)
(0.6507868 -0.010449479 -1.5815856e-22)
(0.65944873 -0.0098326028 -7.8243789e-24)
(0.66767722 -0.0093492164 -1.2621386e-22)
(0.67677303 -0.0087261745 -4.6581942e-22)
(0.68320486 -0.0088736103 8.7882943e-22)
(0.69685025 -0.0074648639 -4.4315517e-23)
(0.37635124 -0.038368152 -1.7495094e-20)
(0.37170972 -0.044270213 1.2832044e-20)
(0.37286684 -0.048161596 2.9754518e-21)
(0.37591039 -0.050098833 -7.6353769e-21)
(0.3783052 -0.051669953 1.2055984e-20)
(0.38072287 -0.053042353 7.791409e-21)
(0.38367594 -0.054030019 -1.2647684e-20)
(0.3871005 -0.054633081 -6.0679744e-21)
(0.39092916 -0.054917982 1.2697337e-20)
(0.39518235 -0.054927111 -1.5304967e-20)
(0.39987417 -0.054687491 -1.4063187e-20)
(0.40499498 -0.054224628 1.4129628e-20)
(0.41052853 -0.053563635 6.8193816e-21)
(0.41645708 -0.052727923 -4.2037634e-21)
(0.42276005 -0.051738991 -1.8545613e-21)
(0.42941393 -0.050616723 -4.0581714e-21)
(0.43639337 -0.049379675 5.3047595e-21)
(0.44367184 -0.0480452 3.6682079e-21)
(0.45122212 -0.046629521 -3.240829e-21)
(0.45901666 -0.045147788 3.1379479e-21)
(0.46702794 -0.043614131 2.7666788e-21)
(0.47522877 -0.042041698 -3.2111117e-21)
(0.48359254 -0.040442673 3.7056552e-22)
(0.49209341 -0.038828288 -3.2571635e-21)
(0.50070649 -0.037208835 7.2454092e-21)
(0.50940797 -0.035593676 6.1080561e-21)
(0.51817527 -0.03399125 8.0973064e-22)
(0.52698706 -0.032409092 -1.768322e-21)
(0.53582336 -0.030853852 3.7021731e-21)
(0.54466562 -0.029331325 7.1885119e-21)
(0.55349665 -0.027846485 2.3049291e-21)
(0.56230076 -0.026403524 3.3164826e-21)
(0.57106363 -0.025005906 1.9956187e-21)
(0.57977242 -0.023656415 7.4557821e-22)
(0.58841568 -0.022357219 -2.6374535e-22)
(0.59698336 -0.021109934 2.7203075e-21)
(0.60546682 -0.019915691 6.1992068e-22)
(0.61385881 -0.018775209 2.9487715e-22)
(0.62215343 -0.017688893 5.6232376e-23)
(0.63034651 -0.016656867 9.8966244e-22)
(0.63843461 -0.015679277 4.7019991e-23)
(0.6464185 -0.014755822 4.4247263e-22)
(0.65429344 -0.013887954 -1.2621752e-22)
(0.66207969 -0.013072909 -2.7734689e-22)
(0.66973452 -0.012324312 -1.5218546e-22)
(0.67741339 -0.011610795 -4.220761e-22)
(0.68472318 -0.011053494 1.6139127e-22)
(0.69287137 -0.010332285 -1.272351e-22)
(0.69859419 -0.010509382 -5.0126413e-22)
(0.71095653 -0.0088817099 2.458685e-22)
(0.50927424 -0.03597426 3.647146e-21)
(0.49953032 -0.042960639 -1.8958307e-20)
(0.49627548 -0.047383435 -2.3083834e-21)
(0.49555584 -0.049736739 5.4869565e-21)
(0.49416944 -0.051818002 3.0528078e-21)
(0.49269563 -0.053705366 -4.9883357e-23)
(0.49181218 -0.055187602 6.1896659e-21)
(0.4915144 -0.05626535 7.6250992e-21)
(0.49171155 -0.056990482 9.8580403e-21)
(0.4924106 -0.057395521 -1.1250038e-20)
(0.49363091 -0.057506247 -2.1579414e-20)
(0.49536764 -0.057348361 -3.9353452e-21)
(0.49760454 -0.056947073 1.5938137e-20)
(0.50032288 -0.056326949 1.2808954e-20)
(0.50350151 -0.055511671 -5.9066939e-21)
(0.50711637 -0.054523783 1.3817053e-21)
(0.51114124 -0.053384719 -3.6600818e-21)
(0.51554859 -0.052114872 2.2443729e-21)
(0.52031012 -0.050733578 -2.9123012e-22)
(0.52539717 -0.049259094 -1.8654088e-21)
(0.53078108 -0.047708588 7.8265846e-21)
(0.53643346 -0.046098136 -2.9308739e-22)
(0.54232652 -0.044442714 4.1818072e-22)
(0.5484332 -0.042756186 -6.5646665e-22)
(0.55472741 -0.041051305 -4.3029357e-21)
(0.5611841 -0.039339708 4.2085133e-21)
(0.56777944 -0.037631927 1.903121e-21)
(0.57449086 -0.035937402 -3.3081896e-21)