/*--------------------------------*- C++ -*----------------------------------*\
  =========                 |
  \\      /  F ield         | OpenFOAM: The Open Source CFD Toolbox
   \\    /   O peration     | Website:  https://openfoam.org
    \\  /    A nd           | Version:  6
     \\/     M anipulation  |
\*---------------------------------------------------------------------------*/
FoamFile
{
    version     2.0;
    format      ascii;
    class       volVectorField;
    location    "325";
    object      UMean;
}
// * * * * * * * * * * * * * * * * * * * * * * * * * * * * * * * * * * * * * //

dimensions      [0 1 -1 0 0 0 0];

internalField   nonuniform List<vector> 
9200
(
(0.0014636807 0.001095358 -6.0321602e-20)
(0.015086781 -0.0030812818 4.7519697e-20)
(0.040799756 -0.0074875564 -3.938769e-20)
(0.075900694 -0.011901837 -6.2131093e-20)
(0.11853629 -0.01609072 1.9333334e-20)
(0.16746816 -0.019617927 3.3768039e-20)
(0.22161455 -0.02219455 -1.2637129e-20)
(0.27997641 -0.02367553 9.5557585e-21)
(0.34161949 -0.024002527 1.7501211e-20)
(0.40564274 -0.023180798 1.5467299e-21)
(0.47115485 -0.021267889 -2.2387376e-20)
(0.53726553 -0.018362665 2.1532195e-20)
(0.60308843 -0.014594397 -4.2051541e-20)
(0.66775407 -0.010111661 -2.206115e-20)
(0.73043081 -0.0050705586 6.1644055e-21)
(0.79035139 0.00037497274 -2.6279697e-20)
(0.84685834 0.0060963006 2.6394661e-20)
(0.89952677 0.012137211 2.3372449e-20)
(0.94798155 0.018627695 -2.7423044e-22)
(0.98955103 0.022224272 -1.6202532e-21)
(0.0058007319 -0.0017116222 -1.7379464e-20)
(0.02870449 -0.010094449 4.0898616e-20)
(0.064655935 -0.016522736 2.3976465e-20)
(0.110546 -0.021392769 -1.1885249e-19)
(0.16421595 -0.024874536 -1.303202e-20)
(0.22416939 -0.026763063 7.557528e-20)
(0.28905812 -0.026969671 -3.6575826e-20)
(0.35760442 -0.025535568 -8.6927394e-21)
(0.42858939 -0.022572654 3.5552967e-20)
(0.50082978 -0.018244562 -4.4920751e-20)
(0.57316703 -0.012758817 -3.1619901e-20)
(0.64447454 -0.00635645 7.5032483e-20)
(0.71367803 0.0006997692 3.9891779e-20)
(0.77978458 0.0081369753 -7.089233e-20)
(0.84191611 0.015682152 1.5250879e-20)
(0.89934175 0.023066793 -3.8312225e-20)
(0.95151789 0.030040857 -1.4465335e-20)
(0.99818676 0.036445629 7.397816e-20)
(1.0392452 0.041871326 3.1394277e-20)
(1.0729362 0.043204721 -8.4601484e-20)
(0.011540869 -0.00443264 3.7243199e-20)
(0.046041948 -0.016573819 2.3891728e-21)
(0.094008771 -0.024288678 2.2575127e-20)
(0.15197819 -0.028713459 1.0051819e-21)
(0.21749581 -0.030506944 -4.1508207e-20)
(0.28878204 -0.029759679 1.9223427e-20)
(0.36418761 -0.026643573 1.3670035e-20)
(0.44212378 -0.021443865 -5.1921425e-20)
(0.52106728 -0.01449568 5.9249945e-20)
(0.59955634 -0.0061667566 1.4951686e-20)
(0.67620143 0.003150203 -5.6510724e-20)
(0.7497139 0.013051121 -1.9056444e-20)
(0.81894413 0.023136999 9.2342976e-21)
(0.88292132 0.033030122 2.4386489e-20)
(0.94088823 0.042387936 -1.1799953e-20)
(0.99232386 0.050911968 2.8949759e-20)
(1.0369559 0.058361867 -2.1020486e-20)
(1.0747904 0.064602507 -7.2555084e-20)
(1.1059883 0.069366877 -2.4163202e-20)
(1.1297229 0.070783395 4.9967057e-20)
(0.018779706 -0.0068192469 2.4737196e-20)
(0.067216327 -0.02182538 5.1901205e-20)
(0.12884375 -0.029748119 2.0288616e-20)
(0.1999196 -0.032587467 1.3464557e-20)
(0.27771206 -0.031578029 1.7843218e-20)
(0.36014169 -0.027175156 -4.9076723e-20)
(0.44524179 -0.019875313 -2.6454661e-20)
(0.53111287 -0.010264757 0)
(0.61595623 0.0010523931 1.4916694e-20)
(0.69809905 0.013473922 -6.3842717e-21)
(0.77603145 0.026410849 -1.0145536e-19)
(0.84845475 0.039306987 -1.6235152e-20)
(0.91432875 0.051660883 6.7575198e-20)
(0.97290809 0.063045111 4.7964727e-22)
(1.0237611 0.073120372 -1.6274406e-21)
(1.0667661 0.081642338 2.2689518e-20)
(1.1020884 0.088468333 -5.3490038e-21)
(1.1301543 0.093585778 -6.3016596e-20)
(1.1515341 0.096971327 -4.7330307e-20)
(1.1662175 0.097676464 7.0793601e-20)
(0.027543464 -0.0085899042 -3.8682327e-21)
(0.092125057 -0.025099998 -4.9235491e-21)
(0.1687673 -0.031829704 5.7533768e-20)
(0.25355603 -0.031754739 1.9092761e-20)
(0.34352185 -0.026767956 -3.2968121e-20)
(0.43629486 -0.017758984 1.2323669e-20)
(0.52961452 -0.0056084728 2.7212928e-21)
(0.62132644 0.0087517933 3.4860127e-20)
(0.70945403 0.024424909 5.8558205e-21)
(0.79225606 0.040575245 -1.3825292e-20)
(0.86828513 0.056445465 6.2536359e-20)
(0.93644231 0.071380954 -5.9878395e-20)
(0.99601406 0.084852669 -1.3659357e-19)
(1.046683 0.096471979 -5.7579787e-21)
(1.0885098 0.10599523 8.5673676e-20)
(1.1218872 0.11331747 0)
(1.1474736 0.11846154 1.0497028e-20)
(1.1661235 0.12158103 -1.5827922e-20)
(1.1787725 0.12285908 -8.9246734e-21)
(1.185991 0.12190948 2.1375326e-20)
(0.03776867 -0.0094403263 -5.2402285e-21)
(0.12041464 -0.025636036 4.4157254e-21)
(0.21299661 -0.029512229 -8.9043211e-21)
(0.3115749 -0.025102673 2.8833047e-20)
(0.41301773 -0.01502409 -3.0200227e-20)
(0.51471899 -0.00065826739 -1.738384e-20)
(0.61420684 0.016689603 3.7886764e-20)
(0.70919755 0.035727696 4.7649875e-21)
(0.79770683 0.055282304 -2.5534641e-20)
(0.87813209 0.074331976 7.2071017e-20)
(0.9493156 0.092027143 3.6912298e-22)
(1.0105818 0.10771194 -8.3031901e-20)
(1.0617388 0.12093712 0)
(1.1030408 0.13145802 4.0624103e-20)
(1.1351186 0.13921761 5.6409146e-21)
(1.1588853 0.14431724 -7.9469863e-20)
(1.1754328 0.14698266 -2.008119e-20)
(1.185935 0.1475417 -1.2721654e-20)
(1.1915421 0.14633721 -1.5050225e-20)
(1.1931106 0.14331734 4.1280014e-20)
(0.049288945 -0.0090643008 -1.7296618e-20)
(0.15146426 -0.02271828 -2.7954586e-21)
(0.26036849 -0.021914603 3.057149e-20)
(0.37222388 -0.01177755 3.7595991e-20)
(0.48385748 0.0043206553 -2.0296594e-20)
(0.59253927 0.024477197 -7.0974276e-20)
(0.69573616 0.04696012 -2.8951827e-20)
(0.79122885 0.070150965 8.112933e-20)
(0.87725209 0.092668457 9.0210837e-21)
(0.95258203 0.11340519 -2.5494837e-20)
(1.0165774 0.13153962 1.3912202e-20)
(1.0691721 0.14654117 -4.461281e-21)
(1.1108191 0.15815818 0)
(1.1423921 0.16638568 2.7899344e-20)
(1.165063 0.17141776 -8.1224855e-20)
(1.1801705 0.17359141 -3.2218425e-20)
(1.1890984 0.17333153 8.2798444e-20)
(1.1931765 0.17111117 -4.547388e-21)
(1.1936 0.16737453 3.584782e-21)
(1.1912808 0.16225559 2.7761004e-20)
(0.061828847 -0.0071814589 -3.2508046e-20)
(0.1843914 -0.015749765 -8.2742078e-20)
(0.3093839 -0.0083935791 2.0421337e-21)
(0.43341379 0.0087116162 7.1611038e-20)
(0.55343736 0.031459824 6.3715458e-20)
(0.66677445 0.057445996 -7.2770839e-20)
(0.77104297 0.084564063 2.2008209e-23)
(0.864331 0.11096142 8.79914e-20)
(0.94534296 0.1351741 5.008718e-20)
(1.013463 0.15615283 -5.57051e-20)
(1.0687458 0.17325049 -9.4712734e-20)
(1.1118421 0.18619293 -3.2371267e-21)
(1.1438742 0.19502716 4.312713e-20)
(1.1662812 0.20005011 -6.7163149e-21)
(1.1806584 0.20172856 -1.3056685e-20)
(1.1886124 0.20062054 1.9946909e-20)
(1.1916462 0.19730888 4.4733394e-20)
(1.1910842 0.19235672 -4.459157e-20)
(1.1880305 0.18624696 -1.0420635e-19)
(1.1833078 0.17920359 2.5147426e-20)
(0.074974365 -0.00356794 -3.5444971e-20)
(0.21801337 -0.0043276712 -1.7487201e-19)
(0.35818379 0.011373529 8.40031e-20)
(0.49272323 0.036431826 9.4598606e-20)
(0.61893462 0.066094775 5.8996236e-20)
(0.73441673 0.097534802 8.8175077e-21)
(0.83719274 0.12838814 -1.085265e-19)
(0.92591572 0.15672 0)
(0.99998967 0.18115432 -7.0595284e-20)
(1.0595795 0.20086907 -1.5608241e-20)
(1.1055295 0.21553897 5.5960235e-20)
(1.1392143 0.22525585 1.1193703e-20)
(1.162353 0.23042825 -4.6540103e-20)
(1.1768158 0.23167112 -4.9987791e-20)
(1.1844539 0.22970046 2.4825297e-20)
(1.1869678 0.22524475 4.5752837e-20)
(1.1858247 0.2189809 -5.6658271e-20)
(1.1822227 0.21149815 -1.0936422e-19)
(1.1770936 0.20326318 -3.1065843e-21)
(1.1711033 0.19453297 2.746101e-20)
(0.088156317 0.0019284026 -3.7900849e-21)
(0.25085164 0.011742376 8.9001234e-20)
(0.40458655 0.037392875 -1.5389614e-20)
(0.5474853 0.07105082 -8.6369914e-20)
(0.6774458 0.10748143 4.6097783e-20)
(0.79260318 0.14358837 4.9788141e-20)
(0.89164385 0.17693601 5.6631315e-21)
(0.9740134 0.20571296 -1.0162108e-19)
(1.0399814 0.22883052 -2.5605585e-21)
(1.0905766 0.24586379 5.1612176e-20)
(1.1274259 0.25693204 6.1064646e-21)
(1.1525405 0.26255985 -2.0159845e-20)
(1.1680898 0.26352988 -7.7147128e-20)
(1.1762009 0.26074382 -6.3218382e-21)
(1.1788067 0.2551073 4.4266453e-20)
(1.1775523 0.24744777 3.7613381e-20)
(1.1737579 0.23846684 2.0033092e-20)
(1.1684289 0.2287225 -5.4028347e-20)
(1.1622972 0.21862623 1.2920883e-20)
(1.1558579 0.20843876 8.3775026e-20)
(-0.0013142086 0.0014470016 -9.5439602e-22)
(-0.0047564945 0.0031903193 1.9501554e-21)
(-0.010787072 0.0041129241 1.4544733e-21)
(-0.017700619 0.0044826796 -1.6261175e-21)
(-0.02456002 0.0044697871 -1.9808174e-21)
(-0.030936357 0.0041892951 2.1135451e-21)
(-0.036557355 0.0037250927 -7.7805429e-21)
(-0.041246891 0.0031379687 -6.7244825e-21)
(-0.0449082 0.0024712435 1.2270481e-20)
(-0.047498598 0.0017555106 -1.0598455e-20)
(-0.049009375 0.0010121283 -2.0140958e-22)
(-0.049452985 0.00025576065 3.9648346e-21)
(-0.048854585 -0.00050369904 -6.6040035e-22)
(-0.047246265 -0.0012596008 2.4303979e-20)
(-0.044663432 -0.0020071583 2.850154e-22)
(-0.04114429 -0.0027419836 -4.330089e-20)
(-0.036732207 -0.0034594758 8.0272376e-21)
(-0.031467463 -0.0041575681 2.5096554e-20)
(-0.025359834 -0.0048347777 -4.6032238e-20)
(-0.018470893 -0.0054423771 -2.9051708e-20)
(-0.0016730312 0.0042138314 -5.5697792e-21)
(-0.0053952624 0.0092686172 1.0166698e-20)
(-0.011195766 0.011928935 -1.0386783e-20)
(-0.017533923 0.012973754 5.0054561e-21)
(-0.023570352 0.012900088 5.9937962e-21)
(-0.028926813 0.012045627 8.3909605e-22)
(-0.033366372 0.010656729 -2.5603366e-20)
(-0.036738557 0.0089118279 -2.211062e-21)
(-0.038963955 0.0069380622 2.2025554e-20)
(-0.040011132 0.0048251898 -5.4726422e-21)
(-0.039878349 0.0026358291 -2.3466298e-20)
(-0.038581982 0.00041291704 5.2473221e-21)
(-0.036148916 -0.0018146642 2.4012513e-20)
(-0.032611232 -0.0040276051 1.0956072e-20)
(-0.028002426 -0.0062121067 2.325751e-20)
(-0.022357868 -0.0083557575 -2.0883051e-20)
(-0.015724596 -0.010445676 -2.2779865e-20)
(-0.008152884 -0.012475288 2.239929e-20)
(0.00042035327 -0.014429978 2.8021807e-20)
(0.010185074 -0.016142296 1.6396486e-20)
(-0.002321998 0.0066023882 -4.5217524e-21)
(-0.0065081571 0.014455624 -5.1388094e-21)
(-0.011790596 0.01855069 1.4881371e-22)
(-0.016947298 0.020100145 3.3208993e-22)
(-0.021326633 0.01988377 7.232502e-21)
(-0.024647986 0.01843749 1.143069e-20)
(-0.026743018 0.016153114 -4.1524751e-21)
(-0.027511126 0.013314551 -2.0459958e-20)
(-0.026906808 0.010124355 7.0909599e-21)
(-0.024920954 0.0067257148 1.3870307e-20)
(-0.021566136 0.003218592 6.3629956e-21)
(-0.016867485 -0.00032850575 1.9258223e-20)
(-0.01085671 -0.003869714 1.8384674e-21)
(-0.0035677703 -0.0073748425 -3.5718721e-20)
(0.0049669162 -0.010822735 1.4227044e-21)
(0.014714955 -0.014194744 -2.3005915e-20)
(0.025620994 -0.017473406 -2.5925596e-20)
(0.037611911 -0.02064999 4.8261598e-20)
(0.050872888 -0.023671299 2.6718071e-20)
(0.06608662 -0.026173561 3.5098934e-22)
(-0.00313993 0.008403904 -5.5735592e-21)
(-0.0078149401 0.018254615 -1.0221199e-20)
(-0.012215024 0.023309985 4.4376626e-21)
(-0.015554883 0.025098753 4.4859004e-21)
(-0.017442386 0.024615495 2.0776268e-21)
(-0.017733744 0.02255621 8.1800472e-21)
(-0.016358108 0.019431315 1.0223381e-20)
(-0.013286717 0.015610886 -1.5151258e-21)
(-0.0085240093 0.011359512 -1.2376188e-20)
(-0.0020950569 0.0068646592 -3.1164284e-20)
(0.0059641734 0.0022573744 1.2611895e-22)
(0.015611966 -0.0023724979 4.3210107e-20)
(0.026805292 -0.0069653146 -1.9281872e-20)
(0.039501369 -0.011482273 -1.2974639e-20)
(0.053661801 -0.015897367 3.9192615e-22)
(0.06925085 -0.020189745 3.4013846e-20)
(0.086199247 -0.024344773 -1.5870736e-20)
(0.10439313 -0.0283612 -5.5695862e-20)
(0.12414675 -0.032122173 4.7517078e-20)
(0.1468479 -0.034946657 3.4400182e-20)
(-0.0039644364 0.0094752379 -5.4312438e-22)
(-0.0089319449 0.020312959 -1.3012401e-20)
(-0.011970652 0.025723186 -3.6843504e-20)
(-0.012806395 0.027412065 -6.5440346e-21)
(-0.011355392 0.026506523 -3.4588943e-21)
(-0.0076398915 0.023815212 6.8866049e-21)
(-0.0017097153 0.01993333 -5.1610544e-21)
(0.0063729565 0.015292411 -9.5511437e-21)
(0.016538276 0.010201592 2.3382146e-20)
(0.028713644 0.0048802803 5.3044151e-21)
(0.042828041 -0.00051771498 -2.7066051e-20)
(0.05881205 -0.0058868399 1.1618748e-20)
(0.076598328 -0.011157092 0)
(0.096122182 -0.016284234 1.2715674e-20)
(0.11732468 -0.02124099 -1.0181841e-20)
(0.14015179 -0.026009506 -1.511433e-20)
(0.16450725 -0.030588302 -1.2223237e-21)
(0.19021426 -0.035004323 -2.4705503e-21)
(0.21767661 -0.039074289 4.7471199e-20)
(0.2491385 -0.04165755 -1.1394792e-20)
(-0.0046095361 0.0097481849 -7.7076764e-21)
(-0.0094055163 0.020447792 2.5835528e-20)
(-0.01044977 0.025531315 -1.1366943e-20)
(-0.0080112645 0.026740793 -2.9093248e-20)
(-0.0023404346 0.025248216 -2.875637e-20)
(0.0063554498 0.021923303 -1.5876984e-20)
(0.017888673 0.017407876 -8.2621729e-22)
(0.032089863 0.012166052 5.9250616e-21)
(0.048809029 0.0065309775 2.0743162e-20)
(0.067911823 0.00073997459 7.7721844e-21)
(0.089274666 -0.0050404923 -7.5389661e-21)
(0.11278231 -0.010696194 -1.976238e-21)
(0.1383241 -0.016151966 -4.0179815e-20)
(0.16579137 -0.021362025 -1.3317475e-20)
(0.1950792 -0.026301696 1.9896258e-20)
(0.22608757 -0.030961472 -2.2158233e-20)
(0.25866998 -0.035363699 -9.3764855e-21)
(0.29256139 -0.039592378 3.1383808e-20)
(0.32818099 -0.043432751 5.2063493e-20)
(0.3686837 -0.045171041 3.531781e-21)
(-0.0048813218 0.0092263714 1.7128849e-20)
(-0.0087443715 0.018648848 1.4795698e-20)
(-0.0069706599 0.022715603 5.3315095e-20)
(-0.00037072075 0.023073826 2.4700901e-20)
(0.010464307 0.020855691 1.9424296e-22)
(0.025132037 0.016939709 -4.1727544e-20)
(0.043294749 0.011974667 -2.559192e-20)
(0.064663184 0.006427685 1.1034332e-20)
(0.088989222 0.00063341577 1.5164226e-20)
(0.11605555 -0.0051699262 -1.3696102e-20)
(0.14566461 -0.010815723 -4.6376201e-20)
(0.17762971 -0.016190873 3.1166826e-20)
(0.21176749 -0.021222796 2.0873157e-20)
(0.24789222 -0.025870595 -2.8858455e-20)
(0.28581568 -0.030118286 1.2263222e-20)
(0.32535092 -0.033971518 2.5227941e-20)
(0.3662653 -0.03748653 8.4881104e-21)
(0.40817827 -0.040835794 -1.2498765e-20)
(0.45143426 -0.043851512 -1.4410897e-20)
(0.50002933 -0.044225986 6.8855328e-21)
(-0.0045887614 0.007973748 1.1453223e-20)
(-0.0064462543 0.015062263 -2.460602e-20)
(-0.00081282743 0.01748787 8.5350264e-21)
(0.010982295 0.016688793 3.5181602e-20)
(0.02801389 0.013678395 5.4242821e-20)
(0.049681109 0.0092944268 2.1225959e-20)
(0.075486752 0.0041545797 -6.1257626e-21)
(0.10500319 -0.001302915 -1.2867232e-20)
(0.1378634 -0.0067660311 -6.5416886e-21)
(0.17374134 -0.012014858 3.5922559e-20)
(0.21233344 -0.016898705 -4.8458752e-21)
(0.2533446 -0.021319255 -1.7526849e-20)
(0.29647712 -0.025218697 -2.0532869e-20)
(0.34142286 -0.028572313 -4.9658405e-20)
(0.38786207 -0.031383807 2.4206898e-20)
(0.43547133 -0.033685233 -1.4684985e-20)
(0.48389072 -0.035580058 2.7171215e-20)
(0.53260859 -0.037364839 2.1971045e-20)
(0.58182502 -0.039042874 -8.7920245e-20)
(0.63618469 -0.037874288 1.5096511e-22)
(-0.0035507206 0.0061009745 2.2465558e-20)
(-0.0020234112 0.0099686606 -2.725402e-20)
(0.0087375005 0.010273871 -4.6486334e-20)
(0.026915731 0.008145901 -2.8304e-20)
(0.051266582 0.0044080614 -2.1306533e-21)
(0.080985914 -0.00019006868 1.3666244e-20)
(0.11540337 -0.005100431 -2.9660705e-21)
(0.15393367 -0.0099450439 1.889866e-20)
(0.19606229 -0.014461471 9.2420278e-21)
(0.24131834 -0.018471332 -1.188808e-20)
(0.28924986 -0.021860611 9.377491e-21)
(0.33940595 -0.024564872 -2.5001718e-20)
(0.39132379 -0.026558675 8.5996553e-21)
(0.44452016 -0.027849001 1.7531282e-20)
(0.49849023 -0.028471314 -2.8725508e-21)
(0.55271745 -0.028491563 1.8142653e-21)
(0.60665754 -0.028060999 -4.8162017e-22)
(0.65964375 -0.027584224 2.0521749e-20)
(0.71169556 -0.027260824 4.0091012e-21)
(0.7678692 -0.024430402 -1.5617624e-21)
(-0.0015967632 0.0037543239 2.4421164e-20)
(0.0049776963 0.0037692063 5.9276145e-20)
(0.022333963 0.001711587 -5.0678182e-20)
(0.048202859 -0.0016924316 -1.0305096e-20)
(0.081033163 -0.0058816229 2.104058e-20)
(0.11981298 -0.01024122 2.222928e-21)
(0.16368258 -0.014332505 -3.0951082e-20)
(0.21187149 -0.017874058 7.2685612e-21)
(0.26368071 -0.02068594 7.389254e-21)
(0.3184507 -0.022662098 -2.7358206e-20)
(0.375534 -0.02375476 1.3451761e-21)
(0.43427783 -0.023961746 -3.8837455e-20)
(0.49401445 -0.023316139 -3.7982311e-20)
(0.55405765 -0.021877997 6.8665217e-20)
(0.61370536 -0.019727082 5.8119931e-21)
(0.67224626 -0.016962018 -1.5844635e-20)
(0.72894455 -0.013741362 2.0163234e-20)
(0.7829658 -0.010370213 -9.4953164e-22)
(0.83384672 -0.0068711944 2.0748713e-20)
(0.88529578 -0.0017116685 -2.070791e-20)
(-0.010275594 -0.0057247848 6.1070626e-20)
(-0.00065258075 -0.0062501227 1.629623e-20)
(0.010383271 -0.006672314 -3.6304706e-20)
(0.02247756 -0.0069218015 1.7460454e-20)
(0.035356209 -0.0070815698 0)
(0.048955461 -0.0071801751 0)
(0.063212655 -0.0072205101 -2.3534973e-20)
(0.078044728 -0.0072105416 -1.6820341e-20)
(0.093377609 -0.0071599521 1.9566238e-20)
(0.10914851 -0.0070758023 1.8500966e-20)
(0.12529954 -0.0069634867 1.0443981e-21)
(0.14177618 -0.0068277498 -1.0383539e-20)
(0.15852761 -0.0066727228 8.4882002e-21)
(0.17550634 -0.0065019065 1.8249355e-20)
(0.1926676 -0.0063182973 -5.3451421e-21)
(0.20996901 -0.0061244956 -1.0112487e-20)
(0.22737029 -0.0059227713 -4.2773538e-21)
(0.24483317 -0.005715116 -4.3241922e-21)
(0.26232123 -0.005503289 7.0921662e-22)
(0.27979985 -0.0052888534 1.2173524e-21)
(0.29723616 -0.0050732037 2.574904e-21)
(0.31459909 -0.0048575866 6.53814e-21)
(0.33185936 -0.0046431168 1.7729924e-22)
(0.34898956 -0.0044307887 -3.3810343e-21)
(0.36596414 -0.0042214857 1.377523e-22)
(0.38275952 -0.0040159864 -5.6201432e-22)
(0.39935404 -0.0038149709 1.2073505e-21)
(0.41572807 -0.0036190254 9.9625981e-22)
(0.43186396 -0.0034286468 -1.2936088e-21)
(0.44774604 -0.0032442477 -1.0724205e-22)
(0.46336064 -0.0030661612 -1.7580728e-23)
(0.47869601 -0.0028946462 -3.3646302e-22)
(0.49374229 -0.0027298933 -4.087342e-22)
(0.50849149 -0.0025720303 7.9313702e-23)
(0.52293738 -0.0024211291 -1.3073819e-22)
(0.53707547 -0.0022772122 -2.055167e-22)
(0.55090291 -0.00214026 2.3430429e-22)
(0.56441853 -0.0020102175 2.6711005e-22)
(0.57762267 -0.0018870044 -2.4887002e-23)
(0.59051756 -0.0017705189 -1.6081345e-22)
(0.60310618 -0.0016606662 2.0533079e-23)
(0.6153963 -0.0015573148 -2.9734518e-23)
(0.62738872 -0.0014605093 8.3662302e-23)
(0.63911455 -0.0013698898 -4.0621383e-24)
(0.65052597 -0.0012867219 -1.2772898e-22)
(0.66182537 -0.0012078104 1.9139047e-24)
(0.67250996 -0.0011452696 4.2625338e-24)
(0.68416571 -0.0010666716 -4.7365698e-24)
(0.69246016 -0.001080894 2.7011146e-23)
(0.70963045 -0.00090887687 3.681755e-22)
(0.019612545 -0.016853769 -1.3575577e-20)
(0.028294784 -0.018447817 -6.5721524e-20)
(0.038867915 -0.019688189 -3.192057e-20)
(0.050467664 -0.020399451 3.9885835e-20)
(0.062705992 -0.020858436 1.5158424e-20)
(0.075598878 -0.021147992 -1.8924056e-20)
(0.089115393 -0.02126883 5.0184331e-21)
(0.10317543 -0.021242891 2.5972329e-20)
(0.11771233 -0.021099011 -9.0865736e-23)
(0.13267282 -0.020857456 -7.8673561e-21)
(0.14800604 -0.020533433 -1.2944723e-20)
(0.1636628 -0.020140529 -8.7551084e-21)
(0.17959677 -0.019690668 1.7874191e-20)
(0.19576424 -0.019193965 9.3697028e-21)
(0.21212352 -0.018659098 -1.6321755e-20)
(0.22863468 -0.018093635 -6.017886e-21)
(0.24525951 -0.017504209 3.142164e-21)
(0.26196136 -0.016896664 8.210229e-21)
(0.27870517 -0.016276184 6.9477362e-21)
(0.29545738 -0.015647388 -7.0358793e-21)
(0.31218602 -0.015014413 -3.305271e-21)
(0.32886068 -0.01438097 1.4968563e-21)
(0.34545265 -0.013750381 5.6743097e-22)
(0.36193491 -0.013125623 1.2325937e-21)
(0.37828223 -0.012509343 2.1949492e-22)
(0.3944712 -0.011903879 -3.5710459e-22)
(0.4104803 -0.01131128 -7.3966593e-22)
(0.42628989 -0.010733314 1.0357209e-21)
(0.44188228 -0.010171486 8.5402075e-22)
(0.45724167 -0.0096270484 -2.3068133e-22)
(0.47235421 -0.0091010175 5.8101033e-22)
(0.48720789 -0.0085941884 -2.2848636e-22)
(0.50179257 -0.0081071514 -3.9799276e-22)
(0.51609989 -0.0076403103 -6.1727805e-22)
(0.53012324 -0.0071939012 4.1847345e-22)
(0.54385769 -0.0067680124 -7.9111372e-23)
(0.55729994 -0.0063626057 2.0079327e-22)
(0.57044833 -0.0059775376 -4.5775434e-22)
(0.58330268 -0.0056125879 4.2219025e-22)
(0.59586469 -0.0052674712 6.2604017e-23)
(0.60813681 -0.0049419237 -7.3004409e-23)
(0.62012622 -0.0046355695 2.0167594e-22)
(0.63183324 -0.0043485609 2.6973913e-22)
(0.64328816 -0.0040798371 2.0202075e-22)
(0.65444326 -0.0038331959 2.1140346e-22)
(0.66549807 -0.0035991119 -2.0351497e-23)
(0.67595595 -0.0034137277 1.0754153e-22)
(0.68738039 -0.0031804209 9.5393912e-23)
(0.69550234 -0.0032231921 -2.0112417e-22)
(0.71236464 -0.0027125423 -1.8674733e-23)
(0.077772879 -0.026972482 1.0015355e-20)
(0.084587053 -0.029644613 3.6780284e-21)
(0.094130038 -0.031647536 -1.3267567e-20)
(0.10470457 -0.032740403 -1.5090695e-21)
(0.1156403 -0.033458392 1.5718361e-20)
(0.12710913 -0.033933773 -1.5362633e-20)
(0.13915026 -0.034145817 -3.0919577e-20)
(0.15168553 -0.034124645 1.5077726e-20)
(0.16465944 -0.033917529 1.8793615e-20)
(0.17803629 -0.033555841 -1.1941269e-20)
(0.19177808 -0.033062107 1.036333e-21)
(0.20584473 -0.032457019 8.5040733e-21)
(0.22019772 -0.031759099 -1.5594002e-20)
(0.23479987 -0.030984117 3.4987505e-21)
(0.24961474 -0.03014567 7.7090556e-21)
(0.26460661 -0.029255716 -3.4124715e-22)
(0.27974067 -0.028324833 3.5819836e-23)
(0.29498303 -0.027362413 -7.5642049e-21)
(0.31030082 -0.026376845 4.2450607e-21)
(0.32566224 -0.025375661 8.6003131e-21)
(0.34103671 -0.024365646 -3.8760366e-21)
(0.35639493 -0.023352917 -2.184688e-21)
(0.37170901 -0.022342984 9.2589251e-22)
(0.38695257 -0.021340798 -1.7553807e-21)
(0.40210078 -0.020350783 1.3236976e-21)
(0.41713051 -0.019376865 7.0116696e-22)
(0.43202032 -0.018422492 1.7109545e-21)
(0.44675055 -0.017490658 -2.1009654e-21)
(0.46130333 -0.01658392 2.3861755e-21)
(0.47566259 -0.015704422 5.7820419e-22)
(0.48981407 -0.014853916 5.4568324e-22)
(0.50374527 -0.014033789 3.0776486e-22)
(0.51744546 -0.013245088 9.7021937e-22)
(0.53090561 -0.012488551 -1.4974484e-21)
(0.54411837 -0.011764638 4.1320703e-22)
(0.55707799 -0.011073561 1.8455728e-22)
(0.56978033 -0.010415324 -6.8303415e-23)
(0.58222278 -0.0097897532 3.8442292e-23)
(0.59440423 -0.0091965468 -3.9157325e-22)
(0.60632539 -0.0086352929 2.1033303e-22)
(0.61798771 -0.0081056137 -3.1468675e-23)
(0.62939729 -0.0076069429 4.9319935e-22)
(0.64055351 -0.0071395881 -2.3014231e-22)
(0.65148519 -0.0067018433 4.0664809e-23)
(0.66214479 -0.0063000328 6.4552097e-23)
(0.67272641 -0.0059184877 -8.7024234e-23)
(0.68274518 -0.0056167467 -1.4532649e-22)
(0.69372147 -0.0052360673 4.7274347e-22)
(0.70150863 -0.0053074806 1.786466e-22)
(0.71777371 -0.0044744037 -8.4535761e-22)
(0.16144338 -0.0353605 1.7182124e-21)
(0.16548119 -0.039093558 -1.173414e-20)
(0.17328045 -0.041777295 6.6094098e-21)
(0.18223076 -0.043157992 -1.383978e-20)
(0.19117725 -0.044097703 -2.0473123e-21)
(0.20049497 -0.044768335 9.7188502e-21)
(0.21034132 -0.0451046 -1.055214e-20)
(0.22063671 -0.045135423 1.2615187e-21)
(0.23133366 -0.044924046 1.322331e-20)
(0.24241929 -0.04451035 3.6932076e-21)
(0.25387228 -0.043920983 -6.3243755e-21)
(0.26566336 -0.043181121 -3.1085968e-21)
(0.27776297 -0.042314083 -5.6343341e-21)
(0.29014161 -0.041340001 -6.6825321e-21)
(0.30276892 -0.040276386 2.9242531e-21)
(0.31561395 -0.039138824 4.6137481e-22)
(0.32864565 -0.037941297 1.5075499e-21)
(0.34183313 -0.036696374 -3.3829962e-21)
(0.35514586 -0.035415406 -4.475278e-21)
(0.36855388 -0.034108683 2.4708193e-21)
(0.38202801 -0.032785555 3.4237553e-21)
(0.39554002 -0.031454516 -1.7521485e-21)
(0.40906279 -0.030123268 1.6540497e-21)
(0.42257044 -0.028798772 -4.7368515e-22)
(0.43603848 -0.027487283 -4.1828835e-21)
(0.44944386 -0.026194379 -3.0519109e-21)
(0.4627651 -0.024924985 -2.6149839e-22)
(0.47598232 -0.023683403 3.481702e-22)
(0.48907728 -0.022473329 -2.2070524e-21)
(0.5020334 -0.021297889 -1.0021118e-21)
(0.51483579 -0.020159664 2.1971988e-22)
(0.52747122 -0.019060726 -1.3503635e-21)
(0.53992808 -0.018002674 -4.1743866e-23)
(0.55219641 -0.016986675 -4.8362222e-22)
(0.56426781 -0.016013507 -4.4929123e-22)
(0.57613542 -0.015083603 -6.3788518e-22)
(0.58779389 -0.014197098 -9.9027063e-22)
(0.5992394 -0.013353882 -2.52493e-23)
(0.61046953 -0.012553661 -3.6263009e-24)
(0.62148366 -0.011795985 -5.8679684e-22)
(0.63228187 -0.011080445 -4.0167957e-23)
(0.64286883 -0.010406369 -3.9494465e-22)
(0.65324268 -0.0097742895 -5.6467889e-22)
(0.66343018 -0.0091819461 4.5807726e-22)
(0.67338414 -0.0086381597 1.404081e-23)
(0.68329098 -0.0081214574 2.2483788e-22)
(0.69268278 -0.0077136375 -1.645218e-22)
(0.70301794 -0.0071974804 -3.2194659e-22)
(0.71032623 -0.0072973644 -2.4876582e-23)
(0.72573401 -0.0061682402 4.7838357e-22)
(0.26675531 -0.041232552 -2.231393e-20)
(0.2671095 -0.045998854 4.9226279e-20)
(0.27229376 -0.049269859 1.0614487e-20)
(0.2789201 -0.050870019 -1.640441e-20)
(0.28517511 -0.052029957 -2.3519744e-21)
(0.29162384 -0.052938746 2.4474644e-21)
(0.29858981 -0.053469737 -1.9652216e-21)
(0.30599328 -0.053640207 -4.8148855e-21)
(0.3137834 -0.053522396 -4.1210416e-21)
(0.32196888 -0.053161469 -1.2498386e-20)
(0.33054668 -0.052585794 1.8608307e-20)
(0.33949756 -0.051822337 6.8663609e-21)
(0.34879949 -0.050897061 -1.703565e-20)
(0.35842958 -0.049833091 1.0068359e-20)
(0.36836273 -0.048650917 8.084712e-21)
(0.3785719 -0.047369067 -5.2540565e-22)
(0.38902901 -0.046004453 -2.896919e-21)
(0.39970542 -0.044572538 -4.142781e-21)
(0.41057229 -0.043087487 -1.5372711e-21)
(0.42160087 -0.041562294 -1.3594116e-21)
(0.43276282 -0.040008887 -3.2698368e-21)
(0.44403045 -0.038438197 0)
(0.45537695 -0.036860214 -1.4516886e-21)
(0.46677652 -0.035284024 3.9723132e-21)
(0.47820457 -0.033717838 5.6100983e-21)
(0.48963781 -0.032169022 -9.179904e-22)
(0.50105434 -0.030644119 -3.1884946e-21)
(0.51243373 -0.029148877 3.3380623e-21)
(0.52375709 -0.027688274 1.0293701e-22)
(0.53500704 -0.026266554 3.6800421e-21)
(0.54616781 -0.024887264 -5.1521317e-22)
(0.55722514 -0.023553294 1.7777195e-21)
(0.56816636 -0.022266928 -8.7682977e-22)
(0.57898028 -0.02102989 3.7835073e-22)
(0.58965725 -0.019843399 -5.0893872e-22)
(0.60018908 -0.018708231 5.7829467e-22)
(0.610569 -0.017624777 5.1444087e-22)
(0.62079174 -0.016593102 4.3189009e-22)
(0.63085335 -0.015613034 -1.0694399e-21)
(0.64075168 -0.014684193 7.6426697e-22)
(0.65048525 -0.013806248 -4.0484895e-22)
(0.66005705 -0.012978519 -1.2887368e-21)
(0.66946379 -0.012201848 1.6449302e-21)
(0.67872982 -0.011473537 -5.7119933e-23)
(0.68780854 -0.010804846 -1.8652221e-22)
(0.69687677 -0.010168962 -7.2803526e-24)
(0.7054882 -0.0096683691 -1.7495266e-22)
(0.71502286 -0.0090323466 -5.5547346e-22)
(0.72173401 -0.009160238 8.1320895e-22)
(0.7360656 -0.0077698861 -4.8372985e-23)
(0.38880485 -0.043641121 -1.8707843e-20)
(0.38460822 -0.049467832 1.3118942e-20)
(0.38620401 -0.053274653 3.5706771e-21)
(0.38971997 -0.055116544 -7.9682328e-21)
(0.39260927 -0.056575596 1.25171e-20)
(0.39553351 -0.057820089 8.0762115e-21)
(0.39900799 -0.058666429 -1.2814621e-20)
(0.40296971 -0.059116883 -6.252713e-21)
(0.40734882 -0.059239818 1.3047714e-20)
(0.41216361 -0.059079503 -1.6150343e-20)
(0.4174267 -0.058664832 -1.4363527e-20)
(0.42312682 -0.058023107 1.4915903e-20)
(0.42924589 -0.057181116 6.9534747e-21)
(0.43576441 -0.056163811 -4.8827983e-21)
(0.44266009 -0.054994096 -1.5088074e-21)
(0.44990785 -0.05369313 -3.7467867e-21)
(0.45748081 -0.052280592 4.9762504e-21)
(0.46535105 -0.050774824 3.6815909e-21)
(0.47349009 -0.049192892 -3.1637338e-21)
(0.48186927 -0.047550654 3.1283535e-21)
(0.49046009 -0.045862815 2.8980858e-21)
(0.49923453 -0.044142969 -3.3263443e-21)
(0.50816529 -0.042403628 3.6823344e-22)
(0.51722598 -0.040656242 -3.2102947e-21)
(0.52639131 -0.038911216 7.8726003e-21)
(0.53563717 -0.037177936 6.396646e-21)
(0.54494078 -0.035464781 9.7171016e-22)
(0.55428077 -0.033779157 -1.8176574e-21)
(0.56363716 -0.032127525 4.0978366e-21)
(0.5729915 -0.030515439 7.7977043e-21)
(0.58232679 -0.028947593 2.3708069e-21)
(0.59162754 -0.027427869 3.5897193e-21)
(0.60087975 -0.025959397 2.0975724e-21)
(0.61007086 -0.024544616 8.2122993e-22)
(0.61918978 -0.023185339 -2.5150163e-22)
(0.62822684 -0.021882826 2.9772163e-21)
(0.63717374 -0.020637858 6.726314e-22)
(0.64602364 -0.019450811 3.1169219e-22)
(0.65477101 -0.018321761 5.6784172e-23)
(0.66341205 -0.017250517 1.1421694e-21)
(0.67194365 -0.016236937 4.3858195e-23)
(0.68036704 -0.015280446 5.3383499e-22)
(0.68867747 -0.014382286 -1.2647911e-22)
(0.69689668 -0.013539446 -3.5985272e-22)
(0.70497897 -0.012765543 -1.8429224e-22)
(0.71309009 -0.012028971 -5.0665903e-22)
(0.7208093 -0.011450988 2.1206855e-22)
(0.7294248 -0.010713346 -1.5027417e-22)
(0.73545197 -0.010868509 -4.6457147e-22)
(0.74853854 -0.0092578675 2.7021079e-22)
(0.5215343 -0.041662347 3.5095592e-21)
(0.51213435 -0.048585902 -1.9220647e-20)
(0.50919791 -0.052932266 -2.4963472e-21)
(0.50882309 -0.055200127 5.6334683e-21)
(0.50781183 -0.057178626 3.4167115e-21)
(0.50673123 -0.058944656 3.8972112e-22)
(0.50625787 -0.060288792 6.8640653e-21)
(0.50638853 -0.061214181 7.9852089e-21)
(0.50703138 -0.061775019 1.0029027e-20)
(0.5081916 -0.062005863 -1.1665835e-20)
(0.50988713 -0.061934516 -2.2501003e-20)
(0.5121117 -0.061588729 -4.3264197e-21)
(0.51484744 -0.060995673 1.6532851e-20)
(0.518074 -0.060181727 1.3215334e-20)
(0.52176859 -0.059172247 -5.7977876e-21)
(0.52590561 -0.057991305 1.056241e-21)
(0.53045733 -0.056661713 -4.0211935e-21)
(0.53539482 -0.055205075 2.82454e-21)
(0.54068846 -0.053641779 -2.9273008e-22)
(0.54630843 -0.051990974 -1.9362189e-21)
(0.55222498 -0.050270563 8.2873917e-21)
(0.55840881 -0.048497209 -4.280288e-22)
(0.56483131 -0.04668633 5.435966e-22)
(0.57146475 -0.044852103 -5.2335691e-22)
(0.57828246 -0.04300747 -4.4464283e-21)
(0.58525897 -0.041164148 4.3425672e-21)
(0.59237012 -0.039332649 1.8629196e-21)
(0.59959308 -0.037522308 -3.4014255e-21)
(0.60690649 -0.03574132 -4.0904368e-21)