/*--------------------------------*- C++ -*----------------------------------*\
  =========                 |
  \\      /  F ield         | OpenFOAM: The Open Source CFD Toolbox
   \\    /   O peration     | Website:  https://openfoam.org
    \\  /    A nd           | Version:  6
     \\/     M anipulation  |
\*---------------------------------------------------------------------------*/
FoamFile
{
    version     2.0;
    format      ascii;
    class       volScalarField;
    location    "124";
    object      p;
}
// * * * * * * * * * * * * * * * * * * * * * * * * * * * * * * * * * * * * * //

dimensions      [0 2 -2 0 0 0 0];

internalField   nonuniform List<scalar> 
9200
(
-0.37798726
-0.36664059
-0.35654675
-0.34759733
-0.33885751
-0.33034116
-0.32212656
-0.3141812
-0.30643776
-0.29882431
-0.29126789
-0.28369946
-0.27606084
-0.26831205
-0.26044182
-0.25248546
-0.24451928
-0.23663112
-0.22984588
-0.22844555
-0.3958482
-0.38205033
-0.37001286
-0.35954363
-0.34943177
-0.33965873
-0.33029325
-0.32127207
-0.31249568
-0.30386572
-0.29528903
-0.28668339
-0.2779851
-0.26915498
-0.26018393
-0.25109692
-0.2419238
-0.2326643
-0.22400133
-0.21810082
-0.41412612
-0.39785422
-0.38391902
-0.37200044
-0.36057186
-0.34956411
-0.33902468
-0.32885182
-0.31891187
-0.30908396
-0.29926379
-0.28936929
-0.27934738
-0.26917712
-0.25886953
-0.24846329
-0.23799716
-0.22748011
-0.21731137
-0.20860601
-0.43238694
-0.41366013
-0.39789258
-0.38458625
-0.37186119
-0.35958129
-0.34776487
-0.33627125
-0.3249405
-0.31364461
-0.30228893
-0.29081524
-0.27920484
-0.26747639
-0.25567919
-0.24388305
-0.23215453
-0.22053251
-0.20928444
-0.19915144
-0.45000072
-0.42892204
-0.41143888
-0.39682188
-0.38281005
-0.3691895
-0.3559493
-0.34292045
-0.32993733
-0.31689184
-0.30372872
-0.29044179
-0.27706982
-0.26368667
-0.25038783
-0.2372762
-0.22444188
-0.21194338
-0.19996891
-0.18902588
-0.46614296
-0.44292094
-0.42389781
-0.40805957
-0.3927544
-0.37769072
-0.36284076
-0.34803286
-0.3331298
-0.31807983
-0.30289987
-0.28766053
-0.2724717
-0.25746455
-0.24277322
-0.22851975
-0.21479879
-0.20166623
-0.18924805
-0.17788103
-0.47980851
-0.45477049
-0.43444471
-0.41748533
-0.40086653
-0.38423487
-0.36757356
-0.350749
-0.3336969
-0.31646117
-0.2991592
-0.28195212
-0.26502012
-0.24853886
-0.23266077
-0.21750374
-0.20314346
-0.18961105
-0.17697337
-0.16543159
-0.48983355
-0.46344053
-0.44212278
-0.42416583
-0.40621957
-0.38790261
-0.36925182
-0.35022388
-0.33087583
-0.31138225
-0.29197825
-0.27291515
-0.25442878
-0.23671597
-0.21992151
-0.2041352
-0.18939423
-0.17569045
-0.16303276
-0.15150842
-0.49487585
-0.4676558
-0.44564603
-0.42676527
-0.40743755
-0.38731562
-0.36654997
-0.34524482
-0.32361811
-0.30199061
-0.28070862
-0.26009098
-0.24039839
-0.22181758
-0.20445935
-0.18836683
-0.1735279
-0.15989094
-0.14741084
-0.13607734
-0.49358496
-0.46599938
-0.44346684
-0.42361832
-0.4027987
-0.38077847
-0.35788717
-0.33442237
-0.31077671
-0.28740029
-0.26471327
-0.24305664
-0.22267315
-0.20370645
-0.18621295
-0.17018048
-0.15554805
-0.1422262
-0.13012307
-0.11914353
-0.26510339
-0.26977774
-0.27228618
-0.27303732
-0.27282318
-0.27183064
-0.27014115
-0.26784225
-0.26500615
-0.26168758
-0.25793058
-0.25377267
-0.24924695
-0.24438351
-0.23921059
-0.23375709
-0.22805389
-0.22212151
-0.21595899
-0.20965185
-0.26783611
-0.27209519
-0.27429688
-0.27482935
-0.27443213
-0.27328337
-0.2714626
-0.26905368
-0.26612525
-0.26272919
-0.25890715
-0.25469451
-0.25012251
-0.24521921
-0.24001027
-0.23452356
-0.22879744
-0.22285078
-0.21657628
-0.20994801
-0.2731657
-0.27661271
-0.2782164
-0.27832113
-0.27756498
-0.27611066
-0.2740342
-0.27141217
-0.26830629
-0.26476281
-0.26081855
-0.25650469
-0.25184867
-0.24687472
-0.24160366
-0.2360605
-0.23029499
-0.22432489
-0.21785108
-0.21061581
-0.28085228
-0.28313675
-0.28387489
-0.28335088
-0.28206182
-0.28015083
-0.27768996
-0.27474594
-0.27137081
-0.26760301
-0.26347247
-0.25900428
-0.25422036
-0.24913921
-0.24377487
-0.23814717
-0.23231781
-0.22630916
-0.21957572
-0.21148993
-0.29059355
-0.29142427
-0.29106083
-0.28971955
-0.2877286
-0.28521033
-0.28223362
-0.27885389
-0.27511179
-0.27103648
-0.26664968
-0.2619682
-0.25700641
-0.25177591
-0.24628261
-0.24053797
-0.23461169
-0.22853933
-0.2215162
-0.21239994
-0.30207572
-0.30122308
-0.2995568
-0.2972262
-0.29437371
-0.29110225
-0.28747976
-0.28355064
-0.27934354
-0.27487597
-0.27015884
-0.2651997
-0.26000411
-0.25457527
-0.24890992
-0.24300822
-0.23693989
-0.23075988
-0.22343238
-0.21317889
-0.31501983
-0.31230814
-0.3091721
-0.30570115
-0.30184331
-0.29768528
-0.29329788
-0.28871412
-0.28394797
-0.27900444
-0.27388294
-0.26857976
-0.26308988
-0.25740692
-0.25151853
-0.2454131
-0.23915313
-0.2328162
-0.22519856
-0.21381646
-0.32920989
-0.32450441
-0.31976485
-0.31503051
-0.31005078
-0.30489905
-0.2996494
-0.29432262
-0.28891792
-0.28342589
-0.27783161
-0.27211707
-0.26626365
-0.26025287
-0.25406276
-0.24767273
-0.24114256
-0.2345958
-0.22677992
-0.21450082
-0.34449282
-0.33767949
-0.33122465
-0.32512763
-0.31893176
-0.31269586
-0.30649913
-0.30034965
-0.29422899
-0.28811015
-0.28196027
-0.2757429
-0.26942031
-0.26295373
-0.25629873
-0.24940743
-0.24230414
-0.23509505
-0.22652284
-0.21308513
-0.36076974
-0.35172564
-0.34343933
-0.33587502
-0.32835664
-0.3209282
-0.31367394
-0.30658691
-0.29962857
-0.29275266
-0.28590803
-0.27904152
-0.27210079
-0.2650344
-0.25778652
-0.25029272
-0.24249588
-0.23418938
-0.22372238
-0.20805343
-0.20250088
-0.19355226
-0.18459867
-0.17570412
-0.16681489
-0.15797268
-0.14923099
-0.14062489
-0.13218366
-0.12393589
-0.11590741
-0.10812039
-0.10059397
-0.093344515
-0.086385612
-0.079728145
-0.073380409
-0.067348208
-0.061634952
-0.056241772
-0.05116764
-0.04640951
-0.041962466
-0.037819891
-0.03397364
-0.030414231
-0.027131036
-0.024112473
-0.021346209
-0.018819341
-0.016518591
-0.014430475
-0.012541471
-0.010838172
-0.0093074328
-0.0079364942
-0.0067131163
-0.0056256771
-0.0046633512
-0.0038160316
-0.0030751543
-0.0024316946
-0.0018833952
-0.0014135217
-0.0010578727
-0.00070621866
-0.00069895802
-8.6748814e-05
-0.0017182197
0.0024614168
-0.20351099
-0.1941651
-0.18510247
-0.17622225
-0.167315
-0.1584426
-0.14967649
-0.14104812
-0.13258432
-0.12431423
-0.11626395
-0.10845554
-0.10090814
-0.09363816
-0.086659273
-0.07998242
-0.073615958
-0.067565753
-0.061835266
-0.056425671
-0.051335971
-0.046563141
-0.042102278
-0.037946764
-0.034088452
-0.030517843
-0.027224288
-0.024196181
-0.021421154
-0.018886271
-0.016578215
-0.014483462
-0.012588448
-0.010879723
-0.0093440989
-0.0079687737
-0.0067414651
-0.0056505096
-0.0046850415
-0.0038349142
-0.0030915237
-0.0024458089
-0.0018954554
-0.0014237369
-0.0010661724
-0.00071318359
-0.00070240047
-9.2608225e-05
-0.0017036801
0.0024327785
-0.20562981
-0.19543327
-0.18615319
-0.17734167
-0.16841083
-0.15947775
-0.15066402
-0.14199163
-0.1334808
-0.12516281
-0.11706498
-0.10920927
-0.10161492
-0.094298683
-0.087274511
-0.080553567
-0.074144416
-0.068053108
-0.06228326
-0.056836167
-0.051710921
-0.046904561
-0.042412215
-0.038227278
-0.034341586
-0.030745608
-0.027428646
-0.024379027
-0.021584309
-0.019031471
-0.016707101
-0.014597577
-0.012689235
-0.010968524
-0.009422149
-0.008037209
-0.006801321
-0.005702724
-0.0047304579
-0.003874284
-0.0031255082
-0.0024749841
-0.0019202795
-0.0014446616
-0.001083121
-0.00072728236
-0.00070946968
-0.00010418322
-0.0016751391
0.0023761166
-0.20869859
-0.19712532
-0.18752428
-0.17891173
-0.1699915
-0.16098173
-0.15211387
-0.14339254
-0.13482267
-0.12644066
-0.11827751
-0.11035525
-0.10269338
-0.095309544
-0.088218369
-0.081431547
-0.074958106
-0.0688045
-0.062974682
-0.057470213
-0.052290391
-0.047432402
-0.04289147
-0.038661039
-0.034732952
-0.031097651
-0.027744376
-0.02466137
-0.021836081
-0.019255364
-0.016905669
-0.014773225
-0.012844212
-0.01110492
-0.0095418973
-0.0081420809
-0.0068929326
-0.0057825386
-0.0047997908
-0.0039343068
-0.0031772511
-0.0025193437
-0.0019579726
-0.0014763857
-0.0011087952
-0.00074857425
-0.00072026062
-0.00012142275
-0.0016333398
0.0022926556
-0.21249066
-0.19897073
-0.18894647
-0.18073473
-0.17191049
-0.16282671
-0.1539158
-0.14516185
-0.13653839
-0.12808901
-0.11985324
-0.11185421
-0.10411188
-0.096645315
-0.089470558
-0.082600322
-0.076044479
-0.069810225
-0.063902133
-0.058322264
-0.053070309
-0.048143752
-0.043538032
-0.039246728
-0.035261752
-0.031573555
-0.028171338
-0.025043259
-0.022176647
-0.019558207
-0.017174217
-0.015010719
-0.013053691
-0.011289214
-0.0097036248
-0.0082836477
-0.0070165339
-0.0058901635
-0.0048932279
-0.004015149
-0.0032468996
-0.0025790175
-0.0020086485
-0.0015190084
-0.0011432848
-0.00077712556
-0.00073491377
-0.00014422086
-0.0015794202
0.0021842826
-0.21665871
-0.20068899
-0.19015064
-0.18257747
-0.17399546
-0.16486929
-0.15593769
-0.14718556
-0.13853522
-0.13003185
-0.1217288
-0.11365368
-0.10582745
-0.098271039
-0.09100273
-0.084037028
-0.077385218
-0.071055703
-0.065054082
-0.05938326
-0.05404361
-0.049033143
-0.044347699
-0.039981141
-0.035925561
-0.032171502
-0.028708177
-0.025523694
-0.022605272
-0.019939464
-0.01751236
-0.015309784
-0.013317478
-0.011521272
-0.0099072425
-0.0084618532
-0.0071720937
-0.0060255865
-0.0050107715
-0.0041168244
-0.0033344761
-0.0026540348
-0.002072342
-0.0015725685
-0.0011866371
-0.00081297231
-0.00075357697
-0.00017243031
-0.0015148203
0.0020534526
-0.22080515
-0.20209851
-0.19092504
-0.18416224
-0.17604588
-0.16698249
-0.15806446
-0.14935144
-0.14071727
-0.13219131
-0.12383931
-0.11569876
-0.10779395
-0.10014818
-0.092782657
-0.085714653
-0.078957664
-0.07252191
-0.066414536
-0.06063974
-0.055198941
-0.050090986
-0.045312361
-0.040857407
-0.036718551
-0.032886541
-0.029350686
-0.026099095
-0.023118912
-0.020396549
-0.017917902
-0.01566856
-0.013634001
-0.01179977
-0.010151642
-0.0086757754
-0.0073588513
-0.0061881863
-0.0051519206
-0.0042389355
-0.0034396724
-0.0027441636
-0.0021488856
-0.001636955
-0.0012387939
-0.00085608595
-0.0007763796
-0.0002058935
-0.0014411818
0.0019030571
-0.22466912
-0.20359492
-0.19149401
-0.18530161
-0.17784748
-0.1690789
-0.1602525
-0.15160328
-0.14302258
-0.13451175
-0.1261356
-0.11794424
-0.10996973
-0.1022389
-0.094776292
-0.087602705
-0.08073464
-0.074184757
-0.067962251
-0.062073044
-0.056519981
-0.051303055
-0.046419655
-0.041864813
-0.03763146
-0.033710683
-0.030091988
-0.026763557
-0.023712507
-0.020925134
-0.018387152
-0.016083911
-0.014000607
-0.012122473
-0.010434954
-0.0089238619
-0.0075755302
-0.0063769267
-0.0053158475
-0.0043808354
-0.0035619966
-0.0028490456
-0.0022380336
-0.0017120193
-0.0012996921
-0.00090646061
-0.0008035021
-0.00024451175
-0.0013602938
0.001736386
-0.22590834
-0.20542283
-0.19255306
-0.18593185
-0.17896516
-0.17077822
-0.16222829
-0.1537082
-0.14523453
-0.13680076
-0.12845453
-0.12025371
-0.11224145
-0.1044504
-0.096909079
-0.08964239
-0.082670694
-0.076009926
-0.06967206
-0.06366541
-0.057994845
-0.052662042
-0.047665759
-0.043002122
-0.038664903
-0.034645806
-0.030934761
-0.027520206
-0.024389366
-0.021528523
-0.018923276
-0.016558779
-0.014419966
-0.012491762
-0.010759264
-0.0092079194
-0.0078236782
-0.0065931217
-0.0055036601
-0.0045434521
-0.0037022217
-0.0029693194
-0.0023403097
-0.0017981788
-0.0013696772
-0.00096430844
-0.00083532179
-0.00028798402
-0.0012743066
0.0015577132
-0.21604752
-0.20466879
-0.1936707
-0.18558309
-0.17852706
-0.1711144
-0.16317074
-0.15501656
-0.1468308
-0.13863951
-0.13047041
-0.12238098
-0.11442673
-0.10665059
-0.099088386
-0.091771682
-0.084727144
-0.077976239
-0.071535666
-0.065417781
-0.059630883
-0.054179518
-0.049064807
-0.044284785
-0.039834734
-0.035707517
-0.031893918
-0.028382964
-0.025162244
-0.022218216
-0.019536498
-0.017102134
-0.014899848
-0.012914278
-0.011130175
-0.0095325995
-0.0081070899
-0.0068397997
-0.0057177068
-0.0047285351
-0.0038615745
-0.0031057562
-0.0024561005
-0.0018954757
-0.00144857
-0.0010290951
-0.00087164028
-0.00033463984
-0.0011857785
0.0013725467
-0.19390957
-0.19861627
-0.19334285
-0.18443843
-0.17693568
-0.16992773
-0.16242734
-0.15457003
-0.14662165
-0.1386454
-0.13066085
-0.12272089
-0.11488481
-0.10719995
-0.09970531
-0.092435387
-0.085419817
-0.078682861
-0.072243735
-0.066117058
-0.060313155
-0.054838362
-0.049695366
-0.044883554
-0.040399368
-0.036236654
-0.03238701
-0.028840133
-0.025584151
-0.022605941
-0.019891436
-0.017425909
-0.015194235
-0.013181133
-0.011371387
-0.0097500383
-0.0083025737
-0.0070150616
-0.0058743679
-0.0048680889
-0.0039853361
-0.0032149261
-0.0025514154
-0.0019781112
-0.001516932
-0.0010879254
-0.00090290912
-0.00038124955
-0.0010952702
0.0011888004
-0.18336039
-0.18918087
-0.18570775
-0.176969
-0.16976606
-0.16350988
-0.15680999
-0.14966659
-0.1423756
-0.13501206
-0.12758571
-0.12014513
-0.11275204
-0.10545748
-0.098304036
-0.091330004
-0.084569068
-0.078049494
-0.071794337
-0.065821855
-0.060145788
-0.054775648
-0.049717048
-0.044972057
-0.040539554
-0.036415592
-0.032593752
-0.029065499
-0.02582053
-0.022847105
-0.020132362
-0.017662619
-0.015423647
-0.013400926
-0.011579876
-0.0099460687
-0.0084854175
-0.0071843332
-0.0060299375
-0.0050100285
-0.0041137894
-0.0033302188
-0.002653428
-0.0020677478
-0.0015913637
-0.0011533423
-0.00093655465
-0.00043596808
-0.00099417676
0.00099065766
-0.17462183
-0.17784286
-0.17556566
-0.168545
-0.16219252
-0.15663027
-0.15069719
-0.14428386
-0.13765693
-0.1309115
-0.12405948
-0.11714324
-0.11022329
-0.10335251
-0.096575578
-0.089933186
-0.083461922
-0.07719327
-0.071153579
-0.065364388
-0.05984266
-0.054601008
-0.049647992
-0.044988448
-0.04062383
-0.03655256
-0.032770386
-0.029270739
-0.026045078
-0.023083236
-0.02037374
-0.017904123
-0.015661211
-0.013631389
-0.011800846
-0.010155794
-0.0086826753
-0.0073683289
-0.0062002038
-0.0051663619
-0.0042560982
-0.0034586434
-0.0027676368
-0.0021685637
-0.0016755024
-0.0012274577
-0.0009756172
-0.00049757447
-0.00088550317
0.00077358677
-0.16494326
-0.16555563
-0.16372404
-0.15877948
-0.15365696
-0.14883737
-0.14369542
-0.13809383
-0.13220996
-0.12614466
-0.11992558
-0.11359317
-0.10720456
-0.10081328
-0.09446584
-0.088204935
-0.082069642
-0.076094411
-0.070308784
-0.064737581
-0.059401067
-0.054315111
-0.049491421
-0.044937838
-0.040658646
-0.036654909
-0.032924811
-0.029464009
-0.026265983
-0.023322377
-0.020623333
-0.018157804
-0.015913857
-0.01387895
-0.012040187
-0.010384552
-0.0088991293
-0.0075712801
-0.0063888606
-0.005340261
-0.0044149384
-0.0036023908
-0.0028958062
-0.002281828
-0.0017704052
-0.001310462
-0.0010213292
-0.00056352328
-0.00077682299
0.00054766922
-0.15437359
-0.15310616
-0.15129664
-0.14806696
-0.14423768
-0.14022296
-0.13587806
-0.13112045
-0.12603357
-0.12070047
-0.1151643
-0.10946808
-0.10366478
-0.097806816
-0.091941618
-0.086113137
-0.080362201
-0.074725654
-0.069235871
-0.063920741
-0.058803742
-0.053904016
-0.049236528
-0.044812293
-0.040638644
-0.036719532
-0.033055843
-0.029645734
-0.026484976
-0.023567287
-0.020884671
-0.01842774
-0.016186015
-0.014148221
-0.012302554
-0.010636925
-0.0091391922
-0.0077973571
-0.0065997799
-0.0055352569
-0.0045934738
-0.0037642323
-0.0030403235
-0.0024094918
-0.0018777338
-0.0014033761
-0.0010751803
-0.00063316764
-0.00067417813
0.00032102851
-0.14258655
-0.14052739
-0.13883245
-0.13687708
-0.13421867
-0.13103996
-0.1274822
-0.12354924
-0.11926318
-0.11467986
-0.10985018
-0.10481884
-0.099634267
-0.094346486
-0.089002777
-0.083647311
-0.078321554
-0.073063758
-0.067908364
-0.062885761
-0.058022218
-0.053339872
-0.04885679
-0.044587112
-0.040541258
-0.036726166
-0.033145576
-0.02980033
-0.026688695
-0.023806682
-0.021148382
-0.018706275
-0.016471553
-0.014434402
-0.012584291
-0.010910225
-0.0094009838
-0.0080453377
-0.0068322639
-0.0057510578
-0.0047917154
-0.0039443867
-0.0032015504
-0.0025519605
-0.0019979928
-0.0015065038
-0.0011381428
-0.00070605121
-0.00058356382
0.00010233198
-0.12989207
-0.12796214
-0.12661531
-0.12557204
-0.12387725
-0.12150821
-0.11871077
-0.11555648
-0.11204219
-0.10819744
-0.10407218
-0.099712795
-0.095162234
-0.090465423
-0.085668274
-0.080814429
-0.075945
-0.071098504
-0.066310438
-0.061612877
-0.057034227
-0.052599102
-0.04832829
-0.044238801
-0.040343986
-0.036653712
-0.033174584
-0.029910201
-0.026861439
-0.024026751
-0.021402476
-0.018983149
-0.016761807
-0.014730282
-0.012879489
-0.011199688
-0.0096807348
-0.008312303
-0.0070841092
-0.0059860502
-0.005008527
-0.0041420905
-0.0033790166
-0.0027089565
-0.0021311278
-0.0016197617
-0.0012108846
-0.00078174383
-0.00051088949
-9.9089708e-05
-0.11700589
-0.11565618
-0.11479803
-0.11441057
-0.11347134
-0.11183753
-0.10975087
-0.10731376
-0.10451946
-0.10137978
-0.097936847
-0.094234967
-0.090313988
-0.086213213
-0.081973722
-0.077637428
-0.073244462
-0.06883267
-0.064437531
-0.06009183
-0.055825288
-0.051664304
-0.047631822
-0.043747277
-0.040026625
-0.036482438
-0.033124052
-0.029957762
-0.026987063
-0.024212902
-0.021633961
-0.019246949
-0.017046887
-0.015027404
-0.013181011
-0.011499376
-0.0099735723
-0.0085943147
-0.0073521831
-0.0062377843
-0.0052420282
-0.0043559274
-0.0035716837
-0.0028797287
-0.002276676
-0.0017428126
-0.0012937746
-0.00086002398
-0.00046118577
-0.00027436908
-0.10447115
-0.10378799
-0.10344573
-0.10355229
-0.10320113
-0.10220462
-0.10075957
-0.098969676
-0.09683148
-0.094347289
-0.091549428
-0.088476874
-0.085164967
-0.081648674
-0.077964487
-0.074149947
-0.070242779
-0.06627946
-0.062294615
-0.058320788
-0.054388117
-0.050523999
-0.046752849
-0.043095951
-0.039571397
-0.036194096
-0.032975844
-0.029925451
-0.027048915
-0.024349635
-0.021828643
-0.019484868
-0.017315398
-0.015315757
-0.013480173
-0.011801846
-0.010273197
-0.0088861041
-0.0076321329
-0.0065027084
-0.0054893571
-0.0045836219
-0.0037777707
-0.003062912
-0.0024336534
-0.0018749921
-0.001386771
-0.00094088813
-0.00043783094
-0.00041634305
-0.092573454
-0.092476374
-0.092602541
-0.093096752
-0.093206937
-0.092745291
-0.091860887
-0.090643681
-0.089092492
-0.087204868
-0.085004053
-0.082522001
-0.079788784
-0.076834275
-0.073690508
-0.070390893
-0.066969198
-0.063459226
-0.059893992
-0.056305028
-0.052722052
-0.049172648
-0.045681971
-0.042272507
-0.038963925
-0.035773003
-0.032713617
-0.029796798
-0.02703084
-0.024421444
-0.021971914
-0.019683369
-0.017554978
-0.015584206
-0.013767072
-0.012098396
-0.010572047
-0.0091811757
-0.0079184394
-0.0067761845
-0.0057466588
-0.0048220097
-0.0039947144
-0.003256482
-0.0026005104
-0.0020152574
-0.0014893431
-0.0010244474
-0.00044196747
-0.00052068917
-0.081453142
-0.081812069
-0.082320668
-0.083117475
-0.083588503
-0.083563968
-0.083154874
-0.082433334
-0.08139775
-0.080042754
-0.078383942
-0.076445904
-0.074252951
-0.07182968
-0.069203021
-0.066402007
-0.063456547
-0.060396837
-0.057253195
-0.054055399
-0.05083203
-0.047610114
-0.044414816
-0.041269153
-0.038193771
-0.035206784
-0.032323702
-0.029557403
-0.026918174
-0.0244138
-0.022049693
-0.019829059
-0.017753093
-0.015821195
-0.014031193
-0.012379577
-0.010861731
-0.0094721593
-0.008204699
-0.007052708
-0.0060092531
-0.0050671611
-0.0042192588
-0.0034578128
-0.0027751688
-0.0021621825
-0.0016004443
-0.0011107707
-0.00047221337
-0.00058675435
-0.071170678
-0.071857553
-0.072652523
-0.073674368
-0.074420564
-0.074743164
-0.074725047
-0.074421737
-0.073829547
-0.07294069
-0.071764437
-0.070318452
-0.068621175
-0.066691889
-0.064552332
-0.062226672
-0.059740622
-0.057120698
-0.054393878
-0.051587322
-0.048727787
-0.045841076
-0.042951684
-0.0400825
-0.037254527
-0.034486663
-0.03179555
-0.029195485
-0.026698393
-0.024313846
-0.022049137
-0.019909393
-0.017897723
-0.016015388
-0.014262001
-0.012635727
-0.011133497
-0.0097512163
-0.0084839691
-0.0073261976
-0.0062718721
-0.0053145724
-0.0044476056
-0.0036637878
-0.0029551037
-0.0023139814
-0.0017185245
-0.0011997202
-0.00052476175
-0.00061785201
-0.061737984
-0.062645614
-0.063638277
-0.06481415
-0.065760083
-0.066348618
-0.066641769
-0.066681325
-0.066461143
-0.065971293
-0.06521582
-0.064206257
-0.062955473
-0.061477579
-0.05978923
-0.057909675
-0.055860088
-0.053662992
-0.051341835
-0.048920645
-0.046423667
-0.043874856
-0.041297426
-0.03871351
-0.036143863
-0.033607596
-0.031121963
-0.028702216
-0.026361508
-0.024110853
-0.021959145
-0.019913206
-0.017977887
-0.016156195
-0.014449449
-0.012857452
-0.011378674
-0.010010444
-0.0087491291
-0.0075903114
-0.0065289332
-0.0055593958
-0.004675604
-0.0038709468
-0.0031374567
-0.0024685563
-0.0018415882
-0.0012908149
-0.00059391791
-0.00062081594
-0.053140264
-0.054184503
-0.055300353
-0.056568294
-0.057648278
-0.058431023
-0.058962734
-0.059274308
-0.05935756
-0.059200866
-0.058804057
-0.058173471
-0.057316995
-0.056243957
-0.054966208
-0.05349824
-0.05185668
-0.050059837
-0.048127372
-0.046079942
-0.043938835
-0.041725595
-0.039461593
-0.037167642
-0.034863674
-0.032568449
-0.030299303
-0.028071952
-0.025900337
-0.02379653
-0.021770691
-0.019831065
-0.017984025
-0.016234155
-0.01458436
-0.013036
-0.011589042
-0.010242221
-0.0089932053
-0.0078387444
-0.0067748067
-0.0057966742
-0.0048989524
-0.00407565
-0.0033191676
-0.0026235706
-0.0019672982
-0.0013831749
-0.00067299808
-0.00060481738
-0.04534673
-0.046463293
-0.04764309
-0.048952091
-0.050110876
-0.05102624
-0.051732327
-0.052251592
-0.052574501
-0.052688351
-0.052589746
-0.052280824
-0.051765257
-0.05104817
-0.050137081
-0.049042061
-0.047775391
-0.046351213
-0.044785278
-0.043094675
-0.041297494
-0.039412481
-0.037458689
-0.035455112
-0.033420335
-0.03137224
-0.029327725
-0.02730247
-0.025310743
-0.023365256
-0.021477064
-0.019655517
-0.017908246
-0.016241196
-0.014658693
-0.01316353
-0.01175709
-0.01043947
-0.0092096187
-0.0080654653
-0.0070040364
-0.0060215438
-0.0051133788
-0.0042742309
-0.0034971051
-0.0027765389
-0.0020931183
-0.0014755525
-0.00075540958
-0.00057965113
-0.038315999
-0.039457087
-0.040655725
-0.041966028
-0.043159058
-0.044155864
-0.044981485
-0.045651968
-0.046157136
-0.046483863
-0.046626481
-0.046583914
-0.046356467
-0.045945773
-0.045355624
-0.044592175
-0.043663724
-0.042580478
-0.041354376
-0.039998895
-0.038528788
-0.036959789
-0.035308301
-0.03359109
-0.031824956
-0.030026425
-0.02821147
-0.026395253
-0.024591904
-0.022814337
-0.021074108
-0.019381314
-0.017744539
-0.016170832
-0.014665726
-0.013233288
-0.011876194
-0.010595821
-0.0093923509
-0.0082648768
-0.0072114946
-0.0062293798
-0.0053147761
-0.0044631188
-0.003668177
-0.0029249208
-0.002216476
-0.0015664455
-0.00083564062
-0.00055393357
-0.032000638
-0.033131956
-0.034316491
-0.035598649
-0.036791502
-0.037828691
-0.038728491
-0.039502191
-0.040139585
-0.040627712
-0.040959501
-0.041131592
-0.041141767
-0.040988931
-0.04067384
-0.04019934
-0.03957025
-0.038793225
-0.037876653
-0.036830537
-0.035666309
-0.034396602
-0.033034996
-0.031595753
-0.030093538
-0.028543135
-0.026959161
-0.025355817
-0.023746647
-0.022144335
-0.020560526
-0.019005689
-0.017489019
-0.016018374
-0.014600247
-0.013239772
-0.011940758
-0.010705741
-0.0095360596
-0.0084319219
-0.0073924806
-0.0064158897
-0.0054992902
-0.0046389211
-0.0038294131
-0.0030662091
-0.0023349143
-0.0016542479
-0.00090989729
-0.00053371161
-0.026350593
-0.027448678
-0.02859621
-0.029829621
-0.030996904
-0.032042748
-0.032980456
-0.033817867
-0.034545215
-0.035150179
-0.035625013
-0.035964893
-0.036165866
-0.036224854
-0.036140286
-0.03591236
-0.035543001
-0.035035801
-0.03439599
-0.03363038
-0.032747251
-0.031756195
-0.030667929
-0.02949408
-0.028246954
-0.026939295
-0.025584028
-0.02419401
-0.0227818
-0.021359438
-0.019938257
-0.018528713
-0.017140259
-0.015781236
-0.014458814
-0.013178955
-0.011946399
-0.010764691
-0.0096362026
-0.0085621846
-0.0075428036
-0.0065771818
-0.0056633783
-0.004798478
-0.0039780224
-0.0031980034
-0.0024462055
-0.0017373945
-0.00097622876
-0.00052187741
-0.021315486
-0.022365386
-0.023461096
-0.024632459
-0.025756498
-0.026787511
-0.027735171
-0.028604854
-0.029387558
-0.030071939
-0.030650146
-0.031116572
-0.031466209
-0.031694672
-0.03179874
-0.031776615
-0.031627941
-0.031353805
-0.030956751
-0.03044079
-0.029811344
-0.029075159
-0.028240182
-0.027315406
-0.026310687
-0.025236555
-0.024103997
-0.022924234
-0.021708501
-0.020467837
-0.019212888
-0.01795373
-0.016699711
-0.015459327
-0.014240119
-0.013048604
-0.011890228
-0.010769348
-0.0096892259
-0.0086520397
-0.0076588982
-0.0067098542
-0.005803877
-0.0049389179
-0.0041114426
-0.003318075
-0.0025484125
-0.0018144625
-0.0010341737
-0.00051847496
-0.016846503
-0.017839801
-0.018875205
-0.019977062
-0.021046546
-0.022046263
-0.022983228
-0.023861073
-0.024671746
-0.025405087
-0.026053556
-0.026611281
-0.027072756
-0.027432861
-0.027687321
-0.027832951
-0.027867709
-0.027790735
-0.027602408
-0.02730439
-0.026899628
-0.026392323
-0.025787859
-0.025092713
-0.02431433
-0.023460972
-0.022541555
-0.021565465
-0.020542365
-0.019482
-0.018394012
-0.017287758
-0.016172147
-0.015055499
-0.013945417
-0.012848689
-0.011771214
-0.010717942
-0.0096928438
-0.0086988857
-0.0077380137
-0.0068111431
-0.0059181171
-0.005057747
-0.0042274107
-0.0034244345
-0.0026399102
-0.0018842237
-0.0010841398
-0.00052165346
-0.012897452
-0.013830645
-0.014802124
-0.015831582
-0.01684033
-0.017798116
-0.018709986
-0.01957833
-0.020396127
-0.021154489
-0.021846454
-0.022466266
-0.023008334
-0.023467259
-0.023838207
-0.02411713
-0.024300838
-0.024387057
-0.024374512
-0.024262995
-0.024053407
-0.02374777
-0.023349206
-0.022861898
-0.022291013
-0.021642609
-0.020923514
-0.020141187
-0.019303562
-0.018418885
-0.01749554
-0.016541887
-0.015566102
-0.014576023
-0.013579016
-0.012581858
-0.011590636
-0.010610661
-0.0096464103
-0.0087014689
-0.0077784885
-0.0068791504
-0.0060041068
-0.0051529952
-0.0043240746
-0.0035154213
-0.0027193953
-0.0019456663
-0.0011268016
-0.00052881032
-0.0094263206
-0.010299443
-0.011206949
-0.012164534
-0.013110329
-0.014020196
-0.014897699
-0.015744326
-0.01655408
-0.017319345
-0.018033889
-0.018692311
-0.019289232
-0.019819304
-0.020277518
-0.020659391
-0.020961037
-0.02117924
-0.021311544
-0.021356335
-0.021312906
-0.021181498
-0.020963323
-0.020660558
-0.020276322
-0.01981462
-0.019280277
-0.018678832
-0.018016437
-0.017299718
-0.016535638
-0.015731351
-0.014894056
-0.014030852
-0.0131486
-0.012253799
-0.011352466
-0.010450039
-0.0095512847
-0.0086602227
-0.0077800568
-0.0069131128
-0.0060607613
-0.0052234071
-0.0044001426
-0.0035898154
-0.0027859142
-0.0019980173
-0.0011627243
-0.00053750144
-0.0063951086
-0.0072108252
-0.0080570121
-0.0089458943
-0.0098296663
-0.010689407
-0.01152753
-0.012344849
-0.013136322
-0.013895543
-0.014617064
-0.015295977
-0.015927293
-0.016505943
-0.017027015
-0.017485911
-0.017878413
-0.018200755
-0.018449706
-0.018622666
-0.018717733
-0.018733769
-0.018670443
-0.018528257
-0.018308563
-0.018013541
-0.017646174
-0.01721019
-0.016709988
-0.016150554
-0.01553735
-0.014876194
-0.014173141
-0.013434352
-0.012665962
-0.011873959
-0.011064061
-0.010241603
-0.0094114321
-0.0085778117
-0.0077443307
-0.0069138211
-0.0060882602
-0.0052687385
-0.0044551189
-0.003647013
-0.0028389547
-0.0020408054
-0.0011922779
-0.00054592199
-0.0037716075
-0.0045341246
-0.0053233158
-0.0061483366
-0.0069731392
-0.0077832348
-0.0085801284
-0.0093641021
-0.010130971
-0.010875429
-0.011592799
-0.012278725
-0.012928698
-0.013538057
-0.014102165
-0.014616533
-0.015076876
-0.015479178
-0.015819771
-0.016095418
-0.016303388
-0.016441531
-0.01650833
-0.016502954
-0.016425291
-0.016275967
-0.016056346
-0.015768514
-0.015415238
-0.01499992
-0.014526525
-0.013999492
-0.013423639
-0.012804057
-0.012145997
-0.011454754
-0.010735552
-0.0099934243
-0.0092331044
-0.0084589154
-0.0076746646
-0.0068835425
-0.0060880098
-0.0052897439
-0.0044893004
-0.0036870208
-0.0028784227
-0.002073839
-0.0012156595
-0.00055294978
-0.0015301524
-0.0022452725
-0.0029834205
-0.0037511265
-0.0045221068
-0.0052855865
-0.0060423316
-0.0067921924
-0.0075317216
-0.0082565797
-0.0089628007
-0.0096465738
-0.010303897
-0.01093057
-0.011522327
-0.012074924
-0.01258419
-0.013046075
-0.013456721
-0.013812537
-0.014110269
-0.014347069
-0.014520562
-0.014628903
-0.01467083
-0.0146457
-0.014553517
-0.014394944
-0.014171297
-0.013884528
-0.013537184
-0.01313236
-0.012673631
-0.012164967
-0.011610648
-0.011015159
-0.010383091
-0.0097190237
-0.0090274161
-0.0083124911
-0.0075781201
-0.0068277098
-0.0060640762
-0.0052893746
-0.0045047613
-0.0037112481
-0.0029052708
-0.002097696
-0.0012333742
-0.00055821358
0.00035336527
-0.00032017861
-0.001013493
-0.001730731
-0.0024536639
-0.0031746249
-0.003893779
-0.00461061
-0.0053222831
-0.0060252788
-0.0067162576
-0.0073919091
-0.0080487123
-0.0086829293
-0.0092906943
-0.0098680763
-0.010411117
-0.010915871
-0.011378464
-0.011795155
-0.012162394
-0.012476895
-0.012735696
-0.012936222
-0.013076343
-0.013154426
-0.013169382
-0.013120694
-0.013008442
-0.012833306
-0.012596568
-0.012300079
-0.011946228
-0.011537887
-0.011078344
-0.010571225
-0.010020408
-0.0094299169
-0.0088038184
-0.0081461078
-0.0074605896
-0.0067507578
-0.0060196605
-0.0052698184
-0.0045028879
-0.0037204694
-0.0029198352
-0.0021123668
-0.0012452375
-0.00056121745
0.0018761156
0.0012363502
0.00057985126
-9.5783579e-05
-0.00077874398
-0.0014638076
-0.0021506432
-0.0028384377
-0.0035248463
-0.004207014
-0.004882119
-0.0055472778
-0.0061993911
-0.0068351381
-0.0074510324
-0.0080434637
-0.0086087255
-0.0091430477
-0.00964264
-0.010103742
-0.010522678
-0.010895915
-0.011220121
-0.011492227
-0.011709491
-0.011869551
-0.011970485
-0.012010853
-0.011989742
-0.01190679
-0.011762204
-0.011556761
-0.011291803
-0.010969208
-0.010591343
-0.010161013
-0.009681384
-0.0091559016
-0.0085881911
-0.0079819511
-0.0073408349
-0.0066683288
-0.0059676124
-0.0052414689
-0.0044919508
-0.0037211507
-0.0029270718
-0.0021215394
-0.0012538536
-0.00056327594
0.0030788724
0.0024668835
0.0018405176
0.001198999
0.00054911301
-0.00010587623
-0.00076525254
-0.0014279522
-0.0020920014
-0.0027550628
-0.0034147252
-0.0040684487
-0.0047134799
-0.0053468479
-0.0059653947
-0.0065658008
-0.0071446053
-0.0076982309
-0.0082230167
-0.0087152589
-0.0091712558
-0.0095873575