/*--------------------------------*- C++ -*----------------------------------*\
  =========                 |
  \\      /  F ield         | OpenFOAM: The Open Source CFD Toolbox
   \\    /   O peration     | Website:  https://openfoam.org
    \\  /    A nd           | Version:  6
     \\/     M anipulation  |
\*---------------------------------------------------------------------------*/
FoamFile
{
    version     2.0;
    format      ascii;
    class       volScalarField;
    location    "124";
    object      pPrime2Mean;
}
// * * * * * * * * * * * * * * * * * * * * * * * * * * * * * * * * * * * * * //

dimensions      [0 4 -4 0 0 0 0];

internalField   nonuniform List<scalar> 
9200
(
0.090414806
0.074923716
0.061809881
0.053275362
0.046465664
0.04072821
0.035779038
0.031473462
0.027715201
0.024427104
0.021545234
0.019015962
0.016793972
0.014840746
0.013123389
0.011613775
0.010288107
0.0091265611
0.0081146814
0.0072340448
0.073258361
0.060584024
0.049986419
0.043023861
0.037440789
0.032723735
0.028649539
0.025104459
0.02201188
0.01930998
0.016947081
0.014879422
0.013069639
0.011485595
0.0100995
0.0088872728
0.0078281992
0.0069044658
0.0060996792
0.0053905347
0.057172591
0.047206964
0.038972086
0.033489692
0.029059271
0.025298789
0.022043303
0.019208951
0.016738407
0.014584688
0.012707731
0.011072855
0.0096497655
0.0084118194
0.0073355055
0.0064000961
0.0055874363
0.0048815547
0.004266514
0.0037213519
0.042604263
0.035153673
0.029056914
0.024920659
0.021537307
0.01864432
0.016130735
0.013940667
0.012034937
0.01038017
0.0089466096
0.0077073574
0.0066380083
0.0057164505
0.0049227796
0.0042392568
0.0036502511
0.0031419647
0.0027008075
0.0023109015
0.02995601
0.024748837
0.020507997
0.017547461
0.015078309
0.01294212
0.011076092
0.0094494849
0.0080392634
0.0068236817
0.005781413
0.0048917069
0.0041347649
0.0034921307
0.0029470204
0.0024845301
0.0020916819
0.0017572464
0.0014708189
0.0012217686
0.019582685
0.01627542
0.013562274
0.01157644
0.0098655449
0.0083573098
0.0070297359
0.0058733538
0.0048783683
0.0040320322
0.0033192118
0.002723576
0.0022287475
0.0018192187
0.0014809751
0.001201816
0.00097140081
0.00078109399
0.00062354986
0.00049224248
0.01178096
0.0099678435
0.008421217
0.0071850386
0.0060580744
0.0050343923
0.0041239934
0.003333793
0.0026636002
0.0021066666
0.0016517587
0.0012853835
0.00099360722
0.00076331542
0.00058293822
0.00044273344
0.00033474936
0.00025263637
0.00019151183
0.00014762079
0.0067816865
0.0060072452
0.0052470195
0.0045182312
0.0037871258
0.003093333
0.0024688437
0.0019313131
0.001486126
0.0011295106
0.00085204182
0.00064174371
0.00048633329
0.00037458156
0.00029695461
0.00024575401
0.00021495939
0.00019999299
0.00019767998
0.00020588431
0.0047434555
0.0045164381
0.0041559405
0.0036813464
0.0031495195
0.0026240721
0.0021476439
0.0017423079
0.0014148824
0.0011618463
0.00097392721
0.00083970424
0.00074793057
0.00068875384
0.00065414901
0.00063788246
0.00063525165
0.00064281393
0.00065831029
0.00068027706
0.0057455893
0.0055556366
0.0052109496
0.0047329449
0.0042009072
0.0036795672
0.0032098065
0.0028116189
0.0024894703
0.0022379459
0.002046763
0.0019043698
0.0018000008
0.0017245774
0.0016709032
0.0016334832
0.0016082105
0.0015920759
0.001582959
0.0015792593
0.21515198
0.18093482
0.14952411
0.12966446
0.11389772
0.10066568
0.089274939
0.079351386
0.070663434
0.063029063
0.056299554
0.050351787
0.045082634
0.040404915
0.036244401
0.03253752
0.029229567
0.026271562
0.023617528
0.021240877
0.21240647
0.17845041
0.1474
0.12776882
0.1121999
0.099136808
0.08789226
0.078098317
0.069526064
0.061995239
0.055358537
0.049494031
0.044299618
0.039689017
0.035588791
0.031936094
0.028676936
0.025763054
0.023148219
0.020806779
0.20680671
0.17353176
0.14325971
0.12411742
0.1089535
0.096232859
0.08528302
0.075747599
0.067403706
0.060075427
0.053618913
0.047915049
0.04286409
0.038381764
0.034396372
0.030846602
0.027679928
0.024849509
0.022309286
0.020034117
0.19845082
0.16629845
0.13722296
0.11882367
0.10426122
0.092046866
0.081532437
0.072377858
0.064369274
0.057337558
0.051144266
0.045674673
0.04083267
0.036537054
0.032718745
0.029318686
0.026286396
0.023577093
0.021145635
0.01896666
0.18756721
0.15695588
0.12946467
0.11204406
0.09826349
0.086705503
0.076755603
0.068094261
0.06051932
0.053870618
0.048016903
0.042849289
0.038276493
0.034221351
0.030618199
0.027410871
0.024551366
0.02199744
0.019706112
0.017651449
0.17446618
0.14577601
0.12021169
0.10397849
0.091138447
0.080368404
0.071096235
0.063026629
0.055971451
0.049781413
0.044334026
0.039527532
0.035276528
0.031508768
0.028162722
0.025185672
0.022532429
0.020163522
0.018039535
0.016134662
0.15952439
0.13308493
0.10973246
0.094861328
0.083093865
0.073220958
0.0647203
0.057323806
0.05085936
0.045190167
0.040203831
0.035806839
0.031920621
0.02847864
0.025424167
0.022708471
0.020289502
0.018130588
0.016196907
0.014464351
0.14317113
0.11925124
0.098328371
0.084954137
0.0743607
0.065468452
0.057810788
0.051149112
0.045328917
0.040227208
0.035742781
0.031791316
0.028301898
0.025214426
0.022477613
0.020047295
0.017885046
0.015957158
0.014234021
0.012694777
0.12587281
0.1046724
0.086322947
0.074536281
0.065184716
0.057328713
0.050561251
0.044674622
0.039533121
0.035028567
0.031071815
0.027588497
0.024516029
0.021801367
0.019399239
0.017270632
0.015381438
0.013701571
0.012207415
0.010881432
0.10811611
0.089763645
0.074050426
0.063892865
0.055814801
0.049021117
0.043165724
0.038072246
0.033624506
0.029729784
0.026311543
0.023305829
0.020658784
0.01832477
0.016264908
0.014445875
0.012838979
0.011419989
0.010173335
0.0090820443
0.018733145
0.016232561
0.014111731
0.012269937
0.010696056
0.009347486
0.0081872818
0.0071837608
0.0063111707
0.0055486027
0.0048791259
0.0042891721
0.0037678426
0.0033062644
0.0028971098
0.0025342464
0.0022124695
0.0019273014
0.001674844
0.0014516689
0.0012547348
0.0010813232
0.00092898953
0.00079552489
0.00067892605
0.00057737243
0.00048920757
0.00041292423
0.00034715228
0.00029064827
0.00024228661
0.00020105133
0.00016602883
0.0001364006
0.00011143663
9.0488619e-05
7.2983775e-05
5.8418192e-05
4.6351456e-05
3.639926e-05
2.8231685e-05
2.1557593e-05
1.6146925e-05
1.1756798e-05
8.2981787e-06
5.4404004e-06
3.4801571e-06
1.5879442e-06
2.1172296e-06
3.4149983e-06
0.018368845
0.015951697
0.013891883
0.012096973
0.010561587
0.0092440804
0.0081078887
0.007122537
0.0062636003
0.0055112262
0.0048493658
0.0042651783
0.0037483018
0.0032902322
0.0028838923
0.0025233205
0.0022034288
0.0019198219
0.0016686615
0.0014465654
0.0012505285
0.0010778621
0.00092614641
0.00079319309
0.00067701649
0.00057581083
0.00048793218
0.0004118839
0.00034630472
0.00028995862
0.0002417262
0.00020059664
0.00016566056
0.00013610297
0.00011119671
9.0295848e-05
7.2829496e-05
5.8295324e-05
4.6254201e-05
3.6322877e-05
2.8172295e-05
2.1512037e-05
1.611263e-05
1.173173e-05
8.2806576e-06
5.4291697e-06
3.4743365e-06
1.584613e-06
2.1039444e-06
3.3473791e-06
0.017727326
0.015460416
0.013511095
0.011802218
0.010336019
0.0090733548
0.0079788176
0.0070243432
0.0061881379
0.0054524402
0.0048028608
0.0042278649
0.0037180272
0.0032654709
0.0028635348
0.0025065357
0.0021895745
0.0019083872
0.0016592312
0.0014387973
0.001244138
0.0010726118
0.00092183797
0.00078966113
0.00067412338
0.00057344241
0.00048599406
0.00041029831
0.00034500777
0.00028889799
0.00024085909
0.00019988813
0.00016508216
0.00013563142
0.00011081304
8.9984511e-05
7.2577768e-05
5.809275e-05
4.6092175e-05
3.6194304e-05
2.8071324e-05
2.1433847e-05
1.6053271e-05
1.1688015e-05
8.2499827e-06
5.4094721e-06
3.4643142e-06
1.5788612e-06
2.0774287e-06
3.2153431e-06
0.016847767
0.0147888
0.012996407
0.011411785
0.010042601
0.0088544562
0.0078152044
0.0069007942
0.0060935144
0.0053788118
0.0047446509
0.0041812086
0.0036802426
0.0032346531
0.002838287
0.0024858017
0.0021725322
0.0018943803
0.0016477264
0.0014293559
0.0012363973
0.0010662705
0.00091664607
0.00078541156
0.00067064507
0.0005705945
0.00048366098
0.00040838555
0.00034343828
0.00028760913
0.00023980001
0.00019901759
0.00016436669
0.00013504386
0.00011033124
8.9590389e-05
7.2256487e-05
5.7832085e-05
4.588201e-05
3.6026243e-05
2.7938381e-05
2.1330215e-05
1.5974144e-05
1.1629481e-05
8.2087971e-06
5.3830844e-06
3.4509129e-06
1.5714457e-06
2.0377053e-06
3.0257135e-06
0.015769082
0.013967707
0.012375818
0.010952405
0.0097047605
0.0086059175
0.0076309436
0.0067620997
0.005987207
0.0052959348
0.0046791057
0.0041287803
0.0036379651
0.0032003811
0.0028104172
0.0024631008
0.0021540302
0.0018793011
0.001635441
0.0014193509
0.0012282516
0.0010596386
0.00091124451
0.00078100836
0.00066705106
0.0005676559
0.00048125324
0.00040640816
0.0003418104
0.00028626586
0.00023868934
0.00019809783
0.00016360438
0.00013441203
0.00010980809
8.9158161e-05
7.1900596e-05
5.7540483e-05
4.5644657e-05
3.5834725e-05
2.7785622e-05
2.1210245e-05
1.5881963e-05
1.1560971e-05
8.160437e-06
5.3522365e-06
3.4351315e-06
1.5633278e-06
1.9851948e-06
2.7884911e-06
0.014524943
0.01302542
0.011674773
0.010446018
0.0093397491
0.0083396861
0.0074336849
0.0066132699
0.0058728184
0.0052066968
0.0046087614
0.004072927
0.0035933974
0.00316471
0.0027818196
0.0024401564
0.0021356171
0.001864525
0.0016235843
0.0014098353
0.0012206106
0.0010534959
0.00090629699
0.00077701283
0.00066381306
0.00056502069
0.0004790982
0.00040463659
0.00034034633
0.00028504978
0.00023767472
0.00019724825
0.00016289125
0.00013381278
0.00010930472
8.8736157e-05
7.1548082e-05
5.7247599e-05
4.5403098e-05
3.5637414e-05
2.7626482e-05
2.1084033e-05
1.5784181e-05
1.1487865e-05
8.1085904e-06
5.3193757e-06
3.4180125e-06
1.5555297e-06
1.9205836e-06
2.5158158e-06
0.01314834
0.011990327
0.010916032
0.009906027
0.0089533434
0.0080569296
0.0072225298
0.0064532814
0.0057501686
0.0051118596
0.0045350659
0.0040155057
0.0035485839
0.0031297095
0.0027544841
0.0024188183
0.002118973
0.0018515517
0.0016134768
0.0014019595
0.0012144671
0.0010486921
0.00090252576
0.00077403466
0.00066144257
0.00056311542
0.0004775496
0.00040336262
0.00033928547
0.00028415631
0.00023691484
0.00019659706
0.00016233036
0.0001333285
0.00010888664
8.8376181e-05
7.1239646e-05
5.6985198e-05
4.5181931e-05
3.5453188e-05
2.7475297e-05
2.0962317e-05
1.5688687e-05
1.141582e-05
8.0570917e-06
5.2870121e-06
3.4005712e-06
1.5490387e-06
1.8448156e-06
2.220834e-06
0.011680102
0.010894841
0.010117079
0.0093306813
0.0085337736
0.0077453125
0.0069883518
0.0062767244
0.0056170362
0.0050114822
0.0044594394
0.0039586196
0.0035058884
0.0030977528
0.0027306497
0.0024011202
0.0021058989
0.0018419484
0.0016064645
0.0013968675
0.0012107852
0.0010460344
0.00090060208
0.00077262911
0.00066039658
0.00056231441
0.00047691258
0.00040283381
0.00033882778
0.00028374621
0.00023653835
0.00019624673
0.00016200292
0.00013302321
0.00010860407
8.8117381e-05
7.1005625e-05
5.6776625e-05
4.4998985e-05
3.529554e-05
2.7342167e-05
2.0852555e-05
1.5600876e-05
1.1348639e-05
8.0084254e-06
5.2567303e-06
3.3832204e-06
1.5444736e-06
1.7589879e-06
1.9167662e-06
0.010160277
0.0097535695
0.0092602811
0.0086786715
0.0080360435
0.0073681364
0.0067045334
0.0060646668
0.0054597464
0.0048955081
0.0043743178
0.0038964168
0.003460665
0.0030650785
0.0027072279
0.002384501
0.0020942601
0.0018339329
0.001601061
0.0013933232
0.0012085413
0.0010446787
0.00089983345
0.00077223062
0.00066021515
0.00056224514
0.00047688644
0.00040280815
0.00033877896
0.0002836638
0.00023642077
0.00019609787
0.00016182974
0.00013283396
0.00010840711
8.792036e-05
7.0815066e-05
5.659772e-05
4.4835566e-05
3.5150163e-05
2.7216293e-05
2.0746737e-05
1.5514923e-05
1.1282198e-05
7.9597047e-06
5.2266272e-06
3.3644093e-06
1.5413397e-06
1.6646142e-06
1.6171655e-06
0.0086465848
0.0085318137
0.0082657078
0.007875513
0.0074029864
0.0068820098
0.0063374385
0.005790291
0.0052563654
0.004745842
0.0042648191
0.0038167045
0.0034029417
0.0030235426
0.0026775788
0.0023635573
0.0020796692
0.0018239527
0.0015943998
0.0013890225
0.0012058915
0.0010431562
0.00089905531
0.00077192039
0.00066017696
0.00056234396
0.00047703283
0.00040294635
0.0003388776
0.00028370865
0.00023640914
0.00019603442
0.0001617233
0.00013269524
0.00010824711
8.7749395e-05
7.0642079e-05
5.6430037e-05
4.4678811e-05
3.5008335e-05
2.7091978e-05
2.0641309e-05
1.5428764e-05
1.1215351e-05
7.9103783e-06
5.1962425e-06
3.3438755e-06
1.5391682e-06
1.5652861e-06
1.3361074e-06
0.0069976435
0.0070559994
0.0069760239
0.0067686971
0.0064755177
0.0061211367
0.005722359
0.0052978797
0.0048650058
0.0044364876
0.0040211724
0.0036252157
0.003252608
0.0029055609
0.002584972
0.0022908323
0.0020225205
0.0017790125
0.0015590355
0.0013611752
0.0011839495
0.0010258566
0.00088540721
0.00076114553
0.00065166375
0.00055561166
0.00047170351
0.00039872302
0.00033552689
0.0002810473
0.00023429322
0.00019435088
0.00016038328
0.00013162881
0.0001073991
8.7076191e-05
7.0109081e-05
5.6009707e-05
4.4349135e-05
3.4751705e-05
2.6894179e-05
2.0491159e-05
1.5316689e-05
1.1135273e-05
7.8537182e-06
5.16425e-06
3.3191355e-06
1.5384976e-06
1.4626992e-06
1.0891321e-06
0.0054216763
0.0055718478
0.0056065883
0.0055289278
0.0053729335
0.0051565149
0.0048893474
0.0045857804
0.00426127
0.0039279906
0.0035950547
0.0032695088
0.0029565705
0.0026597764
0.002381318
0.0021223859
0.0018834295
0.0016643566
0.0014646908
0.0012836929
0.0011204482
0.00097393069
0.00084304939
0.00072668205
0.0006237001
0.00053298736
0.00045345434
0.00038404932
0.00032376697
0.00027165494
0.0002268188
0.00018842532
0.00015570454
0.0001279505
0.00010452085
8.4835585e-05
6.8374898e-05
5.4676292e-05
4.3331666e-05
3.3982434e-05
2.6318904e-05
2.0067429e-05
1.5009565e-05
1.0920509e-05
7.7049748e-06
5.0760707e-06
3.2547752e-06
1.5250132e-06
1.3335777e-06
8.5548919e-07
0.004067522
0.0042762616
0.0043910718
0.0044134426
0.0043650436
0.0042589891
0.0041010451
0.003901373
0.003672678
0.0034258171
0.0031694303
0.0029106946
0.0026554045
0.0024079224
0.0021713615
0.0019478407
0.0017386921
0.0015446289
0.0013658905
0.0012023621
0.0010536677
0.00091924221
0.00079838705
0.00069031293
0.00059417332
0.00050909063
0.00043417696
0.00036855072
0.00031134995
0.0002617429
0.00021893631
0.00018218168
0.00015077973
0.00012408327
0.00010149871
8.2486286e-05
6.655931e-05
5.328246e-05
4.2269781e-05
3.3180849e-05
2.5720358e-05
1.9627194e-05
1.4690749e-05
1.0697874e-05
7.5501955e-06
4.9849464e-06
3.1850424e-06
1.513298e-06
1.1943468e-06
6.3735763e-07
0.0029297016
0.003167608
0.0033313962
0.0034233489
0.0034538799
0.0034317764
0.003360749
0.0032473854
0.0031010999
0.002930824
0.0027441689
0.0025478221
0.002347552
0.0021480439
0.001952936
0.0017649698
0.001586133
0.001417783
0.0012607639
0.0011155122
0.00098214434
0.00086052943
0.0007503475
0.00065113736
0.00056233527
0.00048330635
0.00041337033
0.0003518227
0.00029795201
0.00025105407
0.00021044332
0.00017546188
0.00014548642
0.00011993316
9.8261215e-05
7.9974457e-05
6.4622182e-05
5.1798614e-05
4.114191e-05
3.2331415e-05
2.5087506e-05
1.9162654e-05
1.4354868e-05
1.046343e-05
7.3869411e-06
4.8883298e-06
3.1094551e-06
1.5009444e-06
1.0550043e-06
4.5208941e-07
0.002014781
0.0022520797
0.0024361371
0.0025684236
0.0026508399
0.0026878965
0.0026817679
0.0026362679
0.0025575911
0.0024524027
0.0023268961
0.0021868251
0.0020374432
0.0018833011
0.0017281723
0.0015751015
0.0014264778
0.0012841084
0.0011492988
0.0010229335
0.0009055497
0.00079740247
0.00069851989
0.0006087508
0.00052780495
0.00045528703
0.00039072522
0.00033359541
0.00028334149
0.00023939229
0.00020117571
0.00016813007
0.00013971325
0.00011540967
9.4735435e-05
7.7241799e-05
6.2517264e-05
5.0188348e-05
3.9919626e-05
3.1412118e-05
2.4403467e-05
1.866097e-05
1.3992329e-05
1.0209973e-05
7.2101559e-06
4.7821881e-06
3.0261128e-06
1.4854079e-06
9.2126882e-07
3.0876476e-07
0.0013140232
0.0015271275
0.0017074182
0.0018543934
0.0019644785
0.0020383641
0.0020765897
0.0020807954
0.0020544146
0.0020018239
0.0019275822
0.0018362311
0.0017321702
0.0016194527
0.001501647
0.0013818012
0.0012624522
0.0011456508
0.0010330014
0.00092571256
0.00082464995
0.0007303873
0.00064325344
0.00056337499
0.00049071437
0.00042510317
0.00036627141
0.00031387293
0.00026750727
0.00022673854
0.00019111128
0.00016016387
0.00013343939
0.00011049441
9.0905725e-05
7.4275387e-05
6.0234125e-05
4.8443395e-05
3.859647e-05
3.0417954e-05
2.3664383e-05
1.811914e-05
1.3600809e-05
9.9355632e-06
7.0184415e-06
4.664959e-06
2.9347104e-06
1.4648814e-06
7.9776513e-07
2.1047085e-07
0.00080470319
0.00097932176
0.0011385827
0.0012801196
0.0013976558
0.0014891098
0.0015534005
0.0015904205
0.0016014114
0.0015886907
0.0015551613
0.0015040335
0.0014386557
0.0013623316
0.0012781581
0.0011889318
0.0010971059
0.0010047734
0.00091366998
0.00082519297
0.00074042964
0.00066019041
0.0005850432
0.00051534722
0.00045128535
0.00039289401
0.00034009056
0.00029269795
0.00025046676
0.00021309459
0.00018024298
0.00015155192
0.00012665208
0.00010517496
8.6760968e-05
7.1065807e-05
5.7765126e-05
4.6557765e-05
3.716787e-05
2.9345502e-05
2.2867723e-05
1.7535268e-05
1.3178891e-05
9.639004e-06
6.8109915e-06
4.53557e-06
2.8354507e-06
1.4377485e-06
6.8789302e-07
1.5454766e-07
0.00045757286
0.00058777376
0.00071579401
0.00083814323
0.00094789537
0.0010414329
0.0011164121
0.0011714024
0.0012060266
0.0012209242
0.0012174917
0.0011976382
0.0011636102
0.0011178285
0.0010627376
0.0010006899
0.00093386459
0.00086421875
0.00079346031
0.00072303894
0.00065415054
0.00058775069
0.00052457388
0.00046515584
0.00040985739
0.00035888837
0.00031233093
0.00027016153
0.00023227148
0.00019848563
0.00016857918
0.00014229254
0.00011934423
9.9441873e-05
8.2291277e-05
6.7603828e-05
5.5102241e-05
4.4524827e-05
3.5628558e-05
2.8190701e-05
2.2010432e-05
1.690708e-05
1.2724916e-05
9.3190124e-06
6.5870055e-06
4.3931349e-06
2.7287382e-06
1.4027551e-06
5.9338974e-07
1.3316656e-07
0.00024196483
0.00032787317
0.00042046694
0.00051590224
0.0006078217
0.00069212255
0.00076577281
0.00082650312
0.00087286015
0.00090425392
0.00092085093
0.00092341089
0.00091314236
0.00089157012
0.00086040568
0.00082143433
0.00077642412
0.00072705534
0.00067487181
0.00062125066
0.00056738632
0.00051428568
0.00046277173
0.00041349329
0.00036693864
0.00032345173
0.00028324954
0.00024643978
0.00021303843
0.00018298641
0.00015616522
0.00013241121
0.00011152843
9.3299775e-05
7.7496684e-05
6.3887147e-05
5.224225e-05
4.2341276e-05
3.3975585e-05
2.695114e-05
2.1090663e-05
1.623323e-05
1.2237959e-05
8.9749614e-06
6.3462247e-06
4.2374152e-06
2.6153673e-06
1.3594229e-06
5.1449046e-07
1.3522704e-07
0.00012885615
0.00017445796
0.00023192273
0.0002976111
0.00036629659
0.00043410614
0.00049788967
0.00055502723
0.00060348174
0.00064188181
0.00066950726
0.00068620718
0.00069230615
0.00068851026
0.00067580954
0.00065538146
0.00062850516
0.00059648858
0.00056060864
0.00052206679
0.00048195836
0.00044125313
0.00040078519
0.00036125032
0.00032320928
0.00028709525
0.00025322421
0.00022180712
0.00019296322
0.00016673356
0.00014309442
0.00012197013
0.00010324494
8.6773906e-05
7.2392434e-05
5.9924578e-05
4.9190003e-05
4.0009651e-05
3.2210236e-05
2.5627498e-05
2.0108848e-05
1.5514101e-05
1.1718429e-05
8.6073245e-06
6.0892479e-06
4.0690456e-06
2.4965581e-06
1.30818e-06
4.5031314e-07
1.4898689e-07
9.2689098e-05
0.00010401864
0.00012955043
0.00016616184
0.00020990346
0.00025751826
0.00030615881
0.00035326118
0.00039661561
0.00043446989
0.00046556716
0.00048912626
0.00050479898
0.00051261759
0.00051293263
0.00050634331
0.00049362715
0.00047567491
0.00045343278
0.00042785301
0.00039985479
0.00037029526
0.00033994902
0.00030949536
0.000279512
0.00025047401
0.00022275689
0.00019664264
0.00017232798
0.00014993395
0.00012951619
0.00011107551
9.4568149e-05
7.991557e-05
6.701342e-05
5.5739579e-05
4.5961158e-05
3.7540403e-05
3.0339561e-05
2.4224647e-05
1.9068493e-05
1.4752346e-05
1.1168442e-05
8.2179165e-06
5.8176827e-06
3.8896067e-06
2.373925e-06
1.2503241e-06
3.9932261e-07
1.6457847e-07
0.00011210826
9.589538e-05
9.4240278e-05
0.00010464636
0.00012435767
0.0001508703
0.00018187094
0.00021512568
0.00024855546
0.00028034703
0.00030901664
0.00033342926
0.00035279588
0.00036665775
0.00037485768
0.00037749953
0.00037490028
0.00036753976
0.00035601202
0.00034098025
0.00032313666
0.00030316922
0.00028173532
0.00025944201
0.00023683229
0.00021437687
0.00019247038
0.00017143145
0.00015150562
0.0001328705
0.00011564242
9.9884081e-05
8.5612553e-05
7.2807446e-05
6.1418717e-05
5.1373987e-05
4.2585154e-05
3.4954192e-05
2.8378094e-05
2.2752905e-05
1.797703e-05
1.3953462e-05
1.0592164e-05
7.8100679e-06
5.5342074e-06
3.7015533e-06
2.2493549e-06
1.1877678e-06
3.5964311e-07
1.7559572e-07
0.00016995126
0.00013273298
0.00010918107
9.7400751e-05
9.5637316e-05
0.00010211897
0.00011513755
0.00013292658
0.0001537245
0.00017588008
0.00019792296
0.00021860156
0.000236905
0.0002520741
0.00026359977
0.00027120843
0.00027483719
0.00027460234
0.00027076446
0.00026369271
0.00025383029
0.00024166261
0.00022768953
0.00021240247
0.00019626626
0.00017970562
0.00016309611
0.0001467588
0.00013095835
0.00011590369
0.00010175083
8.8607258e-05
7.6537257e-05
6.5567966e-05
5.5695577e-05
4.6891485e-05
3.9108107e-05
3.2284215e-05
2.6349651e-05
2.1229359e-05
1.6846773e-05
1.3126416e-05
9.9962038e-06
7.3888111e-06
5.2426303e-06
3.5081222e-06
2.1249183e-06
1.1227478e-06
3.2925592e-07
1.7938989e-07
0.0002528449
0.00020046338
0.00016017929
0.00013060817
0.00011077001
9.9520776e-05
9.572145e-05
9.8100744e-05
0.00010529728
0.00011594957
0.00012876095
0.00014254107
0.00015623833
0.00016896583
0.00018001783
0.00018887476
0.00019519799
0.00019881638
0.00019970684
0.00019797088
0.0001938091
0.00018749533
0.00017935182
0.00016972684
0.00015897524
0.00014744246
0.00013545191
0.00012329589
0.00011122956
9.9467746e-05
8.8184127e-05
7.751228e-05
6.7548245e-05
5.835413e-05
4.9962387e-05
4.2380439e-05
3.5595354e-05
2.957837e-05
2.4289092e-05
1.9679241e-05
1.569592e-05
1.2284334e-05
9.390039e-06
6.9610941e-06
4.9479539e-06
3.3132241e-06
2.0027967e-06
1.0575275e-06
3.0609395e-07
1.7623215e-07
0.00035062997
0.00028801316
0.00023564811
0.00019254973
0.00015829499
0.00013223243
0.0001136999
0.00010187754
9.5808344e-05
9.4468567e-05
9.6820314e-05
0.00010184744
0.00010858793
0.00011616463
0.00012381049
0.00013088547
0.00013688513
0.00014144166
0.00014431831
0.00014539853
0.00014467091
0.00014221167
0.00013816582
0.00013272843
0.00012612686
0.00011860482
0.00011040866
0.00010177611
9.2927648e-05
8.4060355e-05
7.5344025e-05
6.6919321e-05
5.8897595e-05
5.1362067e-05
4.4370005e-05
3.7955599e-05
3.2133239e-05
2.6900956e-05
2.2243824e-05
1.8137179e-05
1.4549545e-05
1.1445243e-05
8.7865268e-06
6.5360819e-06
4.6565307e-06
3.121443e-06
1.8853302e-06
9.9424232e-07
2.8820124e-07
1.679652e-07
0.00045575875
0.00038688465
0.00032639686
0.00027360646
0.00022846155
0.00019066942
0.00015993371
0.0001358059
0.00011768839
0.00010488601
9.6644327e-05
9.2175834e-05
9.0686158e-05
9.1402398e-05
9.359961e-05
9.6622513e-05
9.9901578e-05
0.00010296348
0.00010543595
0.00010704745
0.00010762206
0.00010707078
0.00010538006
0.00010259864
9.8823843e-05
9.418787e-05
8.8845096e-05
8.2960637e-05
7.6700663e-05
7.0224534e-05
6.3678875e-05
5.7193436e-05
5.0878623e-05
4.4824459e-05
3.9100731e-05
3.3758066e-05
2.8829674e-05
2.4333522e-05
2.0274744e-05
1.6648106e-05
1.3440398e-05
1.0632718e-05
8.2023922e-06
6.1254871e-06
4.3762688e-06
2.9381149e-06
1.7751401e-06
9.3487033e-07
2.7395423e-07
1.5678793e-07
0.00056274553
0.0004907088
0.00042532104
0.00036610563
0.00031323608
0.00026666294
0.0002263489
0.00019212639
0.00016368869
0.00014062582
0.00012244996
0.00010861131
9.8515882e-05
9.1547568e-05
8.709101e-05
8.4552672e-05
8.337901e-05
8.3071305e-05
8.3196699e-05
8.3395101e-05
8.338197e-05
8.2947298e-05
8.1951348e-05
8.031783e-05
7.8025248e-05
7.5097168e-05
7.1592103e-05
6.7593632e-05
6.3201189e-05
5.8521933e-05
5.3663863e-05
4.8730345e-05
4.3816001e-05
3.900393e-05
3.4364111e-05
2.9952815e-05
2.5812834e-05
2.1974343e-05
1.8456192e-05
1.5267477e-05
1.2409239e-05
9.876244e-06
7.6585585e-06
5.7438399e-06
4.1168428e-06
2.7694787e-06
1.6753207e-06
8.8133373e-07
2.6231306e-07
1.4454983e-07
0.00066769908
0.00059482436
0.00052706195
0.0004640848
0.00040618558
0.00035346696
0.00030606008
0.00026399365
0.00022717831
0.00019543085
0.00016848953
0.0001460213
0.00012763145
0.00011287818
0.00010128972
9.2381417e-05
8.5672215e-05
8.0699788e-05
7.7033801e-05
7.4286578e-05
7.2120821e-05
7.0254227e-05
6.8461116e-05
6.657133e-05
6.4466834e-05
6.2076496e-05
5.9369625e-05
5.6348781e-05
5.3042388e-05
4.9497547e-05
4.5773406e-05
4.1935328e-05
3.8050004e-05
3.4181582e-05
3.0388804e-05
2.6723082e-05
2.3227416e-05
1.9936015e-05
1.6874483e-05
1.4060438e-05
1.1504419e-05
9.2110431e-06
7.1801191e-06
5.4085355e-06
3.8897783e-06
2.6227859e-06
1.5895922e-06
8.3563393e-07
2.5295545e-07
1.3253635e-07
0.0007679418
0.00069590986
0.0006276788
0.00056302696
0.0005022935
0.0004456663
0.00039337441
0.0003455719
0.00030231947
0.00026360062
0.00022932993
0.00019935404
0.00017345483
0.00015135723
0.00013274011
0.00011724828
0.00010450509
9.4125277e-05
8.5727467e-05
7.8945559e-05
7.3438534e-05
6.8898222e-05
6.5054852e-05
6.1680298e-05
5.8589126e-05
5.5637651e-05
5.2721326e-05
4.9770834e-05
4.6747304e-05
4.3637038e-05
4.0446109e-05
3.7195137e-05
3.3914492e-05
3.0640085e-05
2.7409853e-05
2.4260983e-05
2.1227852e-05
1.8340649e-05
1.5624575e-05
1.3099563e-05
1.0780387e-05
8.6771273e-06
6.7957578e-06
5.1395082e-06
3.7082973e-06
2.5062785e-06
1.5223513e-06
7.9995827e-07
2.4623816e-07
1.2153299e-07
0.00086170721
0.00079167592
0.00072435552
0.00065960002
0.00059774877
0.00053902869
0.00048371561
0.00043203423
0.00038413968
0.00034012842
0.00030004211
0.00026386479
0.00023152152
0.0002028811
0.0001777616
0.00015593726
0.00013714681
0.00012110266
0.00010750088
9.6031238e-05
8.6386728e-05
7.827227e-05
7.141208e-05
6.5555513e-05
6.0481209e-05
5.5999508e-05
5.1953224e-05
4.8216943e-05
4.4695093e-05
4.1319079e-05
3.8043765e-05
3.4843616e-05
3.1708744e-05
2.8641097e-05
2.5650948e-05
2.2753829e-05
1.9967951e-05
1.7312162e-05
1.4804433e-05
1.2460813e-05
1.0294837e-05
8.3173288e-06
6.536427e-06
4.9583834e-06
3.5868063e-06
2.4289346e-06
1.4785424e-06
7.7668814e-07
2.4299736e-07
1.1196457e-07
0.00094790307
0.00088061433
0.00081514929
0.00075141832
0.00068973382
0.00063033201
0.00057350083
0.00051949622
0.00046852523
0.00042075353
0.00037630676
0.00033526588
0.00029766324
0.00026348182
0.00023265678
0.00020507832
0.00018059588
0.00015902372
0.00014014765
0.00012373246
0.00010952988
9.7286369e-05
8.6750611e-05
7.7680226e-05
6.9847509e-05
6.304394e-05
5.7083417e-05
5.1804159e-05
4.706937e-05
4.2766793e-05
3.8807341e-05
3.5123021e-05
3.166437e-05
2.8397632e-05
2.530185e-05
2.2366059e-05
1.9586699e-05
1.6965332e-05
1.4506731e-05
1.2217353e-05
1.0104198e-05
8.1740716e-06
6.4330967e-06
4.8869635e-06
3.5399235e-06
2.3999033e-06
1.4633189e-06
7.6828122e-07
2.4428531e-07
1.0402152e-07
0.0010259249
0.00096179518
0.00089877945
0.00083683229
0.00077622534
0.00071718637
0.00065999374
0.00060490825
0.00055215853
0.00050194638
0.00045444698
0.00040980357
0.00036812252
0.0003294706
0.00029387393
0.00026131795
0.00023174852
0.00020507424
0.00018117012
0.0001598822
0.00014103306
0.00012442788
0.00010986077
9.7121008e-05
8.5999009e-05
7.629166e-05
6.780689e-05
6.0367277e-05
5.3812666e-05
4.8001762e-05
4.2812761e-05
3.8143143e-05
3.3908736e-05
3.0042245e-05
2.6491394e-05
2.3216853e-05
2.0190101e-05
1.7391345e-05
1.4807591e-05
1.2430943e-05
1.0257181e-05
8.2846502e-06
6.5133876e-06
4.9449072e-06
3.5809443e-06
2.42756e-06
1.4814676e-06
7.7701511e-07
2.5111782e-07
9.7754785e-08
0.0010955104
0.0010347048
0.00097445399
0.00091474951
0.00085581694
0.00079786631
0.00074115425
0.00068593014
0.00063242411
0.00058085094
0.00053140964
0.00048427855
0.00043961022
0.0003975279
0.00035812308
0.00032145365
0.0002875429
0.00025637946
0.00022791844
0.00020208347
0.0001787698
0.00015784822
0.00013916955
0.00012256964
0.00010787452
9.4905516e-05
8.3484086e-05
7.3436188e-05
6.4596018e-05
5.6808997e-05
4.9933977e-05
4.3844646e-05
3.8430178e-05
3.359522e-05
2.9259301e-05
2.5355823e-05
2.1830728e-05
1.8640996e-05
1.5753071e-05
1.3141324e-05
1.0786626e-05
8.6751168e-06
6.7971158e-06
5.1465943e-06
3.719725e-06
2.5181644e-06
1.5365989e-06
8.0459737e-07
2.6426016e-07
9.3137966e-08
0.001156617
0.0010991074
0.0010417183
0.00098447383
0.00092755359
0.0008711461
0.00081548077
0.00076078682
0.00070728378
0.00065518433
0.0006046937
0.00055600549
0.00050929703
0.00046472574
0.00042242613
0.00038250709
0.00034504964
0.0003101054
0.00027769577
0.00024781214
0.00022041682
0.00019544488
0.00017280684
0.00015239185
0.00013407161
0.00011770448
0.00010313979
9.0222132e-05
7.8795388e-05
6.870642e-05
5.9808228e-05
5.1962519e-05
4.5041655e-05
3.8929951e-05
3.3524374e-05
2.8734697e-05
2.44832e-05
2.0704005e-05
1.7342158e-05
1.4352557e-05
1.169881e-05
9.3521316e-06
7.290268e-06
5.4968231e-06
3.9597445e-06
2.67397e-06
1.6300194e-06
8.5160442e-07
2.8401054e-07
9.0092814e-08
0.0012093364
0.0011549475
0.0011003462
0.0010455874
0.00099080736
0.00093617292
0.0008818852
0.00082814979
0.00077516943
0.00072314602
0.00067227996
0.00062276686
0.00057479355
0.00052853491
0.00048415067
0.00044178257
0.00040155149
0.00036355512
0.00032786605
0.00029453051
0.00026356784
0.00023497063
0.00020870559
0.00018471525
0.00016292017
0.00014322185
0.000125506
0.00010964614
9.5507302e-05
8.2949716e-05
7.1832347e-05
6.2016083e-05
5.3366538e-05
4.5756364e-05
3.9067047e-05
3.3190166e-05
2.8028165e-05
2.3494654e-05
1.9514336e-05
1.6022619e-05
1.2965001e-05
1.0296333e-05
7.9799649e-06
5.9871436e-06
4.295555e-06
2.8915707e-06
1.7597541e-06
9.1700779e-07
3.1006083e-07
8.8501922e-08
0.0012537761
0.0012022162
0.0011501929
0.0010977905
0.0010451065
0.00099228777
0.00093950903
0.00088695224
0.00083480132
0.00078324336
0.000732468
0.00068266497
0.00063402083
0.00058671636
0.00054092355
0.00049680296
0.00045450065
0.00041414563
0.00037584727
0.00033969337
0.00030574843
0.00027405269
0.0002446216
0.0002174461
0.00019249342
0.00016970862
0.00014901668
0.00013032505
0.00011352666
9.8503127e-05
8.5128105e-05
7.3270648e-05
6.2798394e-05
5.3580503e-05
4.5490248e-05
3.8407192e-05
3.2218906e-05