/*--------------------------------*- C++ -*----------------------------------*\
  =========                 |
  \\      /  F ield         | OpenFOAM: The Open Source CFD Toolbox
   \\    /   O peration     | Website:  https://openfoam.org
    \\  /    A nd           | Version:  6
     \\/     M anipulation  |
\*---------------------------------------------------------------------------*/
FoamFile
{
    version     2.0;
    format      ascii;
    class       surfaceScalarField;
    location    "158";
    object      phi_0;
}
// * * * * * * * * * * * * * * * * * * * * * * * * * * * * * * * * * * * * * //

dimensions      [0 3 -1 0 0 0 0];

internalField   nonuniform List<scalar> 
18180
(
0.00031872962
-0.00016316086
-0.00015556875
0.0013092124
-0.0013669193
0.00037643644
0.0030328908
-0.0033336267
0.0016099483
0.0055497793
-0.0059759703
0.0034590818
0.0089182061
-0.009239096
0.0058706692
0.013192826
-0.013079552
0.0088049324
0.018421959
-0.01745987
0.012230736
0.024644628
-0.022345837
0.016123168
0.031887399
-0.027703361
0.02046059
0.040161317
-0.033495861
0.025221944
0.04945921
-0.039682503
0.030384609
0.059753771
-0.046217282
0.035922721
0.070996788
-0.053048932
0.041805915
0.08312
-0.060121676
0.047998465
0.096038179
-0.067376938
0.054458759
0.10965497
-0.074756107
0.061139315
0.12387091
-0.082204206
0.06798827
0.13859864
-0.089674197
0.074946467
0.15383673
-0.097148949
0.081910852
-0.10462609
0.088679014
0.16978381
0.00039749747
-0.00056065834
0.0016095963
-0.0025790181
0.0036893215
-0.005413352
0.0066874498
-0.0089740985
0.010650662
-0.013202308
0.015617883
-0.018046773
0.021616277
-0.023458264
0.028657281
-0.02938684
0.036732974
-0.035779054
0.04581318
-0.042576067
0.05584373
-0.049713053
0.066746251
-0.057119803
0.078419713
-0.064722394
0.090743833
-0.072445796
0.10358412
-0.080217227
0.11679797
-0.087969955
0.13024084
-0.095647075
0.14377304
-0.10320639
0.15725863
-0.11063454
-0.11786201
0.17049455
0.00048062387
-0.0010412822
0.0019186999
-0.0040170941
0.0043524825
-0.0078471346
0.0078165699
-0.012438186
0.012337675
-0.017723413
0.017929221
-0.02363832
0.024586267
-0.030115311
0.032281233
-0.037081806
0.040960869
-0.04445869
0.050544954
-0.052160152
0.060927105
-0.060095204
0.071977847
-0.068170545
0.083549841
-0.076294389
0.095484856
-0.084380811
0.10762173
-0.092354104
0.1198043
-0.10015252
0.13188804
-0.10773082
0.14374352
-0.11506187
0.15524873
-0.12213976
-0.1289144
0.16630112
0.00056617016
-0.0016074524
0.0022279442
-0.0056788682
0.0050006151
-0.010619805
0.0088940174
-0.016331588
0.013905268
-0.022734663
0.020011896
-0.029744948
0.027166506
-0.037269921
0.035293439
-0.04520874
0.044287884
-0.053453134
0.054017807
-0.061890076
0.064328753
-0.070406149
0.075051166
-0.078892958
0.08600956
-0.087252782
0.097032533
-0.095403784
0.1079625
-0.10328407
0.11866399
-0.11085401
0.12902967
-0.1180965
0.13898299
-0.12501518
0.14847492
-0.13163169
-0.1379453
0.15750582
0.00065088676
-0.0022583391
0.0025243436
-0.007552325
0.0056036386
-0.013699101
0.0098644719
-0.020592421
0.015264622
-0.028134813
0.021736424
-0.03621675
0.029182499
-0.044715996
0.037474916
-0.053501156
0.046458027
-0.062436245
0.055954864
-0.071386913
0.06577646
-0.080227745
0.07573304
-0.088849538
0.085645743
-0.097165486
0.095357418
-0.10511546
0.10474123
-0.11266788
0.1137062
-0.11981899
0.12219937
-0.12658967
0.13020456
-0.13302037
0.13773799
-0.13916512
-0.14506766
0.14486036
0.00073063637
-0.0029889755
0.0027920882
-0.0096137768
0.0061265785
-0.017033591
0.010666719
-0.025132562
0.01632266
-0.033790754
0.022975257
-0.042869347
0.030474445
-0.052215185
0.038642417
-0.061669127
0.047281208
-0.071075036
0.056183753
-0.080289459
0.065146905
-0.089190897
0.073984616
-0.097687249
0.082539496
-0.10572037
0.090691309
-0.11326727
0.098361457
-0.12033803
0.1055133
-0.12697083
0.11214878
-0.13322516
0.11830238
-0.13917397
0.12403359
-0.14489633
-0.15046338
0.12942931
0.00080073173
-0.0037897072
0.003013918
-0.011826963
0.0065328983
-0.020552571
0.011240058
-0.029839722
0.016992706
-0.039543402
0.023618556
-0.049495197
0.030918228
-0.059514857
0.038673332
-0.069424231
0.046658787
-0.079060491
0.054657411
-0.088288082
0.06247447
-0.097007956
0.069949963
-0.10516274
0.076966967
-0.11273737
0.083455098
-0.1197554
0.089389102
-0.12627203
0.094783299
-0.13236503
0.099683283
-0.13812514
0.10415647
-0.14364716
0.10828307
-0.14902293
-0.15433364
0.11215333
0.00085605923
-0.0046457665
0.0031720624
-0.014142966
0.0067872294
-0.024167738
0.011529808
-0.0345823
0.017203441
-0.045217035
0.023586557
-0.055878313
0.030439885
-0.066368184
0.037519338
-0.076503685
0.044591808
-0.086132961
0.051451011
-0.095147285
0.057930636
-0.10348758
0.063912776
-0.11114488
0.069330639
-0.11815523
0.074165682
-0.12459045
0.078440237
-0.13054658
0.082207312
-0.1361321
0.08553947
-0.1414573
0.088518522
-0.14662621
0.091227312
-0.15173172
-0.15685211
0.093745789
0.00089026284
-0.0055360293
0.0032482848
-0.016500988
0.0068576252
-0.027777078
0.011492469
-0.039217144
0.016906815
-0.050631382
0.022838902
-0.061810399
0.029023677
-0.072552959
0.035209257
-0.082689265
0.041173933
-0.092097637
0.046740398
-0.10071375
0.051784653
-0.10853184
0.0562384
-0.11559863
0.060085126
-0.12200196
0.063351228
-0.12785655
0.066094188
-0.13328954
0.068390023
-0.13842794
0.070321884
-0.14338916
0.07197119
-0.14827552
0.073411873
-0.15317241
-0.15814776
0.074707519
0.00089981866
-0.006435848
0.0032333819
-0.018834552
0.0067291665
-0.031272863
0.01111118
-0.043599157
0.016092489
-0.055612691
0.021384627
-0.067102537
0.026713888
-0.07788222
0.031839118
-0.087814495
0.036567085
-0.096825604
0.040762267
-0.10490893
0.044349465
-0.11211903
0.047309335
-0.1185585
0.049668385
-0.12436101
0.051485787
-0.12967395
0.052839492
-0.13464325
0.05381378
-0.13940223
0.054489665
-0.14406504
0.054938768
-0.14872462
0.055220489
-0.15345413
0.055380917
-0.15830819
-0.00020237849
0.00020237845
3.7569755e-11
-0.00067774713
0.00047536864
1.8052724e-11
-0.001342427
0.00066467988
1.2270986e-11
-0.002132296
0.00078986899
1.9144478e-11
-0.0029957756
0.00086347956
2.5478193e-11
-0.0038907434
0.00089496777
2.6846056e-11
-0.0047822993
0.00089155597
2.5814444e-11
-0.0056408969
0.00085859751
2.2429672e-11
-0.0064408721
0.00079997519
1.9406214e-11
-0.007159293
0.00071842091
1.6106712e-11
-0.0077750411
0.00061574815
1.376933e-11
-0.0082680763
0.00049303514
1.1691652e-11
-0.0086188567
0.00035078041
1.0224089e-11
-0.0088079059
0.00018904916
9.0474031e-12
-0.0088155573
7.6513658e-06
8.130359e-12
-0.0086219781
-0.00019357918
7.5188555e-12
-0.0082074331
-0.00041454496
7.0225499e-12
-0.0075518795
-0.00065555367
6.9245513e-12
-0.0066345607
-0.00091731874
7.0601487e-12
-0.0011862366
-0.0054483242
7.6736989e-12
-0.00018797468
0.00039035313
-0.00062500767
0.00091240164
-0.0012287545
0.0012684267
-0.0019351963
0.0014963109
-0.0026921417
0.0016204249
-0.003456287
0.0016591131
-0.0041910705
0.0016263395
-0.0048648624
0.0015323894
-0.0054495275
0.0013846403
-0.00591929
0.0011881834
-0.006249818
0.00094627615
-0.0064174817
0.00066069886
-0.0063987488
0.00033204744
-0.0061697049
-3.9994688e-05
-0.0057057292
-0.00045632437
-0.0049814135
-0.00091789487
-0.0039707787
-0.0014251798
-0.002647195
-0.0019791373
-0.00098323269
-0.0025812811
-0.0032017953
0.001032326
-0.00015892801
0.00054928115
-0.00051889191
0.0012723655
-0.0010007708
0.0017503056
-0.0015412606
0.0020368006
-0.0020873513
0.0021665156
-0.0025937367
0.0021654986
-0.0030208696
0.0020534724
-0.0033332946
0.0018448144
-0.0034983024
0.0015496481
-0.0034848538
0.0011747349
-0.0032626961
0.00072411843
-0.0028016428
0.00019964556
-0.0020709402
-0.00039865513
-0.0010387535
-0.0010721814
0.00032826265
-0.0018233406
0.0020652408
-0.002654873
0.00420906
-0.0035689991
0.0067980403
-0.0045681176
0.0098718732
-0.005655114
-0.0067797614
0.013449839
-0.00011756703
0.00066684818
-0.00036699873
0.0015217972
-0.00067351389
0.0020568208
-0.00097482581
0.0023381126
-0.0012168539
0.0024085438
-0.0013515936
0.0023002382
-0.0013354585
0.0020373373
-0.0011278261
0.001637182
-0.00068984109
0.0011116631
1.6536688e-05
0.00046835708
0.0010293166
-0.00028866151
0.0023871241
-0.0011581619
0.0041297457
-0.0021412767
0.0062986107
-0.0032410464
0.0089372976
-0.0044620274
0.01209209
-0.0058096655
0.015812352
-0.0072892612
0.020150228
-0.0089059929
0.025160427
-0.010665313
-0.012492654
0.03087332
-6.6907637e-05
0.00073375582
-0.00017916642
0.001634056
-0.00026653347
0.0021441878
-0.00026769064
0.0023392697
-0.00012719265
0.0022680458
0.00020616967
0.0019668759
0.00078069794
0.001462809
0.0016429556
0.00077492428
0.0028387379
-8.4119133e-05
0.0044138571
-0.0011067622
0.0064147068
-0.0022895112
0.0088886778
-0.0036321329
0.011884484
-0.0051370825
0.01545249
-0.0068090531
0.01964509
-0.0086546276
0.024517323
-0.010681898
0.030127753
-0.01289969
0.036538976
-0.015317217
0.043818392
-0.017944729
-0.020682591
0.052008329
-9.9845448e-06
0.00074374036
3.4535359e-05
0.0015895361
0.00019989114
0.001978832
0.00054676764
0.0019923932
0.0011322504
0.001682563
0.0020109862
0.0010881401
0.0032361475
0.0002376478
0.0048603147
-0.00084924299
0.0069361347
-0.0021599391
0.0095166943
-0.0036873218
0.012655729
-0.0054285462
0.016407728
-0.007384132
0.020827861
-0.0095572149
0.025971814
-0.011953006
0.031895696
-0.01457851
0.038656336
-0.017442538
0.046312465
-0.02055582
0.054926784
-0.023931535
0.064569786
-0.027587732
-0.031405665
0.07529286
5.0751455e-05
0.0006929889
0.00026565838
0.0013746292
0.00070825583
0.0015362346
0.0014390331
0.001261616
0.0025168248
0.00060477127
0.0039995732
-0.00039460835
0.0059449242
-0.0017077032
0.0084106165
-0.0033149353
0.011454612
-0.0052039345
0.015135064
-0.0073677741
0.019510051
-0.0098035332
0.024637047
-0.012511128
0.030572188
-0.015492355
0.037369371
-0.018750189
0.045079324
-0.022288463
0.05374906
-0.026112274
0.063422689
-0.030229448
0.074144809
-0.034653655
0.085969454
-0.039412377
-0.044388591
0.09895238
0.00011379651
0.0005791924
0.00050850424
0.00097992146
0.0012459843
0.00079875458
0.0023867811
0.00012081914
0.0039912465
-0.00099969416
0.0061198845
-0.0025232463
0.0088333318
-0.0044211505
0.012192182
-0.0066737851
0.016256579
-0.0092683313
0.021085472
-0.012196668
0.026735581
-0.015453642
0.033260065
-0.019035611
0.040706935
-0.022939226
0.049117252
-0.027160507
0.058523226
-0.031694436
0.068946589
-0.036535637
0.080398421
-0.041681281
0.092882262
-0.047137496
0.10640561
-0.052935728
-0.058995772
0.12101279
0.00017849607
0.00040069632
0.00076003092
0.00039838661
0.0018053413
-0.00024655578
0.003374718
-0.0014485576
0.0055290024
-0.0031539785
0.0083293296
-0.0053235735
0.011836504
-0.0079283253
0.016110078
-0.010947359
0.021207068
-0.014365321
0.027180335
-0.018169936
0.034076658
-0.022349964
0.041934526
-0.02689348
0.050781719
-0.031786418
0.060632661
-0.037011449
0.071485578
-0.042547353
0.083319479
-0.048369539
0.096091961
-0.054453762
0.10974054
-0.060786071
0.12419612
-0.067391313
-0.07427473
0.13947508
0.00024512757
0.0010199506
0.0023833432
0.0043938673
0.0071105581
0.010591917
0.014894328
0.020070137
0.026165406
0.033217414
0.041252059
0.050281301
0.060300797
0.071287812
0.083199218
0.095968994
0.1095035
0.1236639
0.13818344
0.15258772
-0.0035076916
-0.0019406326
1.1333986e-11
-0.0012858984
-0.0022217932
1.2389831e-11
0.0011947202
-0.0024806186
1.3056865e-11
0.0038772649
-0.0026825448
1.3976199e-11
0.0067349322
-0.0028576673
1.4671303e-11
0.0097504162
-0.0030154839
1.7158588e-11
0.012904782
-0.003154366
1.8951687e-11
0.016180008
-0.0032752254
2.1145638e-11
0.019560391
-0.0033803834
2.3004563e-11
0.023031714
-0.0034713227
2.4475709e-11
0.026580689
-0.0035489754
2.5226476e-11
0.030194892
-0.0036142033
2.5164195e-11
0.03386268
-0.0036677882
2.3972028e-11
0.037573057
-0.0037103767
2.1511675e-11
0.041315571
-0.0037425138
1.7488047e-11
0.04508025
-0.003764679
1.1790025e-11
0.048857553
-0.0037773035
4.2254825e-12
0.052638337
-0.003780784
-5.1406135e-12
0.056413834
-0.0037754971
-1.619164e-11
0.060175645
-0.0037618104
-2.8431763e-11
0.063915737
-0.003740092
-4.1200748e-11
0.067626453
-0.003710716
-5.3371551e-11
0.07130052
-0.003674067
-6.3632486e-11
0.074931062
-0.0036305419
-7.0213956e-11
0.078511612
-0.0035805501
-7.1312158e-11
0.082036125
-0.0035245125
-6.4836642e-11
0.085498984
-0.0034628593
-4.9064684e-11
0.088895011
-0.0033960269
-2.2377096e-11
0.092219465
-0.0033244545
1.576205e-11
0.095468046
-0.0032485803
6.5176744e-11
0.098636884
-0.0031688384
1.2362321e-10
0.10172254
-0.003085655
1.8748499e-10
0.10472198
-0.0029994459
2.5008889e-10
0.1076326
-0.0029106144
3.0319447e-10
0.11045215
-0.0028195501
3.3528039e-10
0.11317878
-0.0027266286
3.3466987e-10
0.11581099
-0.0026322124
2.8817914e-10
0.11834764
-0.0025366539
1.8685766e-10
0.12078794
-0.0024403021
2.4873158e-11
0.12313145
-0.0023435036
-1.9240324e-10
0.12537809
-0.0022466445
-4.5011062e-10
0.12752817
-0.0021500762
-7.1685844e-10
0.12958266
-0.0020544887
-9.4758978e-10
0.13154253
-0.0019598709
-1.0847827e-09
0.13341188
-0.0018693445
-1.0686915e-09
0.13518921
-0.00177733
-8.5407313e-10
0.13689898
-0.0017097712
-4.1216916e-10
0.13849705
-0.0015980671
1.9612232e-10
0.14018425
-0.0016872001
9.8440338e-10
-0.0013314734
1.5171095e-09
0.002852946
-0.0037612526
0.0049500977
-0.0043189449
0.0072929625
-0.0048234834
0.0098190984
-0.0052086807
0.012507444
-0.0055460131
0.015345675
-0.0058537143
0.018317048
-0.0061257399
0.021405159
-0.0063633364
0.024595988
-0.0065712125
0.027876773
-0.0067521074
0.031235382
-0.0069075839
0.034660333
-0.0070391545
0.03814077
-0.007148225
0.041666346
-0.0072359529
0.045227144
-0.0073033115
0.04881363
-0.0073511649
0.052416624
-0.0073802985
0.056027284
-0.0073914432
0.059637087
-0.0073853009
0.063237843
-0.0073625655
0.066821689
-0.0073239385
0.070381113
-0.0072701399
0.073908961
-0.0072019147
0.077398454
-0.0071200357
0.080843208
-0.0070253039
0.084237241
-0.0069185449
0.087574986
-0.0068006042
0.0908513
-0.0066723413
0.094061468
-0.0065346222
0.097201199
-0.006388312
0.10026663
-0.0062342683
0.10325431
-0.0060733339
0.10616119
-0.0059063315
0.10898464
-0.0057340599
0.11172238
-0.005557291
0.11437252
-0.0053767696
0.11693352
-0.0051932161
0.1194042
-0.0050073305
0.12178371
-0.0048198075
0.12407154
-0.0046313369
0.12626759
-0.00444269
0.12837208
-0.0042545677
0.13038594
-0.0040683475
0.13231008
-0.0038840111
0.1341485
-0.0037077693
0.13589973
-0.0035285626
0.13758776
-0.0033978014
0.13916949
-0.0031797921
0.14084054
-0.0033582526
-0.002660491
0.015021181
-0.0053325938
0.016852286
-0.0061500502
0.018905828
-0.0068770259
0.02111188
-0.0074147323
0.023458806
-0.0078929395
0.025942955
-0.0083378626
0.028551707
-0.0087344918
0.031271582
-0.0090832119
0.034091481
-0.0093911111
0.037001172
-0.0096617991
0.039990537
-0.0098969481
0.043049713
-0.010098331
0.046169176
-0.010267689
0.049339672
-0.010406449
0.05255217
-0.010515809
0.055797859
-0.010596854
0.059068149
-0.010650589
0.062354679
-0.010677973
0.065649324
-0.010679947
0.068944221
-0.010657462
0.072231782
-0.010611499
0.075504719
-0.010543077
0.078756067
-0.010453262
0.081979204
-0.010343173
0.085167873
-0.010213973
0.088316196
-0.010066868
0.091418688
-0.0099030961
0.094470267
-0.0097239203
0.097466259
-0.0095306138
0.1004024
-0.0093244525
0.10327483
-0.0091067001
0.1060801
-0.0088786016
0.10881514
-0.0086413735
0.11147728
-0.0083961971
0.1140642
-0.0081442162
0.11657397
-0.0078865351
0.11900498
-0.0076242237
0.12135597
-0.0073583232
0.12362603
-0.0070898686
0.12581458
-0.0068198896
0.12792143
-0.0065495391
0.12994673
-0.0062798674
0.13189132
-0.0060129329
0.13375603
-0.0057487258
0.13554473
-0.0054964629
0.13725601
-0.0052398499
0.13891292
-0.0050547061
0.14047467
-0.0047415433
0.14212628
-0.0050098674
-0.0039977461
0.032056615
-0.0065158896
0.033471818
-0.0075652522
0.035077326
-0.0084825349
0.036800166
-0.0091375717
0.038641021
-0.009733795
0.04060619
-0.010303031
0.042688501
-0.010816802
0.044878431
-0.011273141
0.047168403
-0.011681083
0.049551189
-0.012044586
0.052019082
-0.012364841
0.054564127
-0.012643375
0.05717831
-0.012881872
0.059853591
-0.01308173
0.062581908
-0.013244126
0.065355215
-0.013370161
0.068165531
-0.013460905
0.07100498
-0.013517422
0.073865829
-0.013540795
0.076740525
-0.013532159
0.079621736
-0.01349271
0.082502383
-0.013423723
0.08537567
-0.01332655
0.088235116
-0.013202619
0.091074576
-0.013053433
0.093888262
-0.012880554
0.096670762
-0.012685595
0.099417044
-0.012470203
0.10212247
-0.012236041
0.1047828
-0.01198478
0.10739417
-0.011718075
0.10995313
-0.011437561
0.11245659
-0.011144835
0.11490184
-0.010841448
0.11728654
-0.010528907
0.11960867
-0.010208666
0.12186658
-0.0098821371
0.12405895
-0.0095506969
0.1261848
-0.0092157157
0.12824347
-0.0088785608
0.1302347
-0.0085407642
0.13215856
-0.0082037262
0.1340158
-0.0078701779
0.13580722
-0.0075401423
0.13753647
-0.0072257191
0.13920237
-0.0069057463
0.14082655
-0.0066788889
0.14237173
-0.0062867164
0.14400763
-0.0066457751
-0.0053591333
0.052648626
-0.0071561863
0.053489216
-0.008405842
0.054483333
-0.0094766526
0.055565291
-0.01021953
0.056749906
-0.01091841
0.058051473
-0.011604598
0.059468501
-0.01223383
0.060996123
-0.012800763
0.062630128
-0.013315088
0.064365919
-0.013780377
0.066197975
-0.014196897
0.068120026
-0.014565426
0.070125309
-0.014887155
0.072206721
-0.015163141
0.074356914
-0.015394319
0.076568377
-0.015581624
0.078833517
-0.015726045
0.08114474
-0.015828645
0.083494518
-0.015890573
0.085875447
-0.015913088
0.088280301
-0.015897565
0.090702079
-0.015845501
0.093134041
-0.015758512
0.095569746
-0.015638324
0.098003079
-0.015486766
0.10042827
-0.015305748
0.10283993
-0.015097249
0.10523302
-0.014863293
0.10760291
-0.014605932
0.10994535
-0.014327222
0.11225648
-0.014029208
0.11453283
-0.013713904
0.11677128
-0.013383284
0.1189691
-0.013039268
0.12112391
-0.012683716
0.12323367
-0.012318433
0.1252967
-0.011945168
0.12731164
-0.011565631
0.12927745
-0.011181527
0.13119345
-0.010794562
0.13305933
-0.010406647
0.13487514
-0.010019537
0.13664159
-0.009636626
0.13835945
-0.009258002
0.14003222
-0.0088984926
0.14165901
-0.0085325316
0.14325978
-0.0082796569
0.14480166
-0.0078285982
0.14643549
-0.0082796074
-0.0067678919
0.075221845
-0.0070851718
0.075326806
-0.0085108032
0.075551174
-0.0097010205
0.075851465
-0.01051982
0.076255714
-0.011322659
0.076780772
-0.012129656
0.077429677
-0.012882735
0.078202358
-0.013573444
0.079097123
-0.014209854
0.080110824
-0.014794078
0.081239218
-0.015325291
0.082477008
-0.015803217
0.083818011
-0.016228158
0.085255446
-0.016600577
0.086782138
-0.016921011
0.088390633
-0.017190119
0.090073313
-0.017408725
0.091822499
-0.017577831
0.093630548
-0.017698622
0.095489923
-0.017772462
0.097393257
-0.017800899
0.099333407
-0.017785652
0.10130351
-0.01772861
0.10329699
-0.017631808
0.10530764
-0.017497413
0.10732959
-0.017327698
0.10935736
-0.017125022
0.11138586
-0.016891798
0.11341041
-0.016630478
0.1154267
-0.016343516
0.11743085
-0.016033354
0.11941935
-0.015702399
0.12138907
-0.015353007
0.12333727
-0.014987471
0.12526157
-0.014608017
0.12715994
-0.014216799
0.12903068
-0.013815913
0.13087246
-0.013407408
0.13268427
-0.01299333
0.13446543
-0.012575728
0.13621568
-0.012156899
0.1379351
-0.011738958
0.13962444
-0.011325957
0.14128452
-0.010918088
0.14291876
-0.010532729
0.14452666
-0.010140437
0.14612636
-0.0098793554
0.14769014
-0.0093923772
0.14934748
-0.009936948
-0.0082561357
0.098025387
-0.0061581786
0.097258115
-0.0077435311
0.096581825
-0.0090247308
0.09599739
-0.0099353846
0.095540937
-0.010866206
0.095223698
-0.011812418
0.095051042
-0.012710079
0.09502697
-0.013549372
0.095151016
-0.0143339
0.095419915
-0.015062976
0.095829305
-0.015734682
0.096373778
-0.01634769
0.097046848
-0.016901228
0.097841284
-0.017395012
0.098749401
-0.017829128
0.099763227
-0.018203945
0.10087463
-0.018520125
0.10207542
-0.018778621
0.10335747
-0.018980674
0.10471279
-0.019127786
0.1061336
-0.01922171
0.10761238
-0.019264432
0.10914192
-0.019258149
0.11071536
-0.019205245
0.11232621
-0.019108265
0.1139684
-0.018969887
0.11563626
-0.01879288
0.11732455
-0.018580089
0.11902846
-0.018334392
0.12074362
-0.018058674
0.12246607
-0.017755804
0.12419227
-0.017428603
0.1259191
-0.017079834
0.12764382
-0.016712188
0.12936407
-0.01632827
0.13107788
-0.015930608
0.13278362
-0.015521658
0.13448004
-0.015103822
0.13616621
-0.014679503
0.13784159
-0.014251105
0.13950601
-0.013821325
0.14115971
-0.013392654
0.14280355
-0.012969794
0.14443854
-0.012553084
0.14606808
-0.012162271
0.14769224
-0.01176459
0.14932723
-0.01151435
0.15095098
-0.01101613
0.15267042
-0.011656386
-0.0098656244
0.11918915
-0.004334538
0.11749655
-0.0060509307
0.11585704
-0.0073852166
0.11435451
-0.0084328599
0.11302522
-0.0095369089
0.11186666
-0.010653859
0.1108843
-0.011727725
0.11008444
-0.012749504
0.10946646
-0.013715928
0.10902579
-0.014622306
0.10875662
-0.015465503
0.10865227
-0.01624334
0.10870515
-0.016954112
0.10890696
-0.01759682
0.10924896
-0.018171133
0.10972223
-0.018677208
0.11031772
-0.019115616
0.11102643
-0.019487336
0.11183949
-0.019793727
0.1127482
-0.020036499
0.11374416
-0.020217676
0.1148193
-0.020339569
0.1159659
-0.020404751
0.11717667
-0.020416015
0.11844475
-0.020376345
0.11976374
-0.020288871
0.1211277
-0.020156841
0.12253118
-0.019983574
0.12396922
-0.019772428
0.12543731
-0.019526768
0.12693144
-0.019249926
0.12844802
-0.018945186
0.12998394
-0.018615756
0.13153651
-0.018264754
0.13310344
-0.017895205
0.13468287
-0.017510033
0.13627329
-0.017112085
0.13787362
-0.016704145
0.13948311
-0.016288992
0.14110141
-0.015869411
0.1427286
-0.015448515
0.14436514
-0.015029192
0.14601214
-0.014616799
0.14767092
-0.014211863
0.14934497
-0.013836321
0.15103502
-0.013454639
0.15275546
-0.01323479
0.15449009
-0.012750759
0.15632315
-0.013489448
-0.011647705
0.13689611
-0.0017555713
0.13437816
-0.0035329738
0.13181959
-0.0048266526
0.12946253
-0.006075799
0.12733418
-0.0074085582
0.12541591
-0.0087355929
0.12371056
-0.010022374
0.12222322
-0.011262156
0.12095232
-0.012445034
0.11989211
-0.013562093
0.11903507
-0.014608466
0.11837286
-0.01558113
0.11789649
-0.016477736
0.11759641
-0.017296749
0.11746278
-0.018037501
0.11748558
-0.018700003
0.11765478
-0.019284821
0.11796048
-0.01979303
0.11839293
-0.020226181
0.11894269
-0.020586256
0.11960063
-0.020875615
0.12035802
-0.021096967
0.1212066
-0.021253324
0.12213854
-0.021347954
0.12314654
-0.021384347
0.12422382
-0.021366158
0.12536415
-0.021297168
0.12656182
-0.02118124
0.12781166
-0.021022274
0.12910906
-0.020824166
0.13044991
-0.020590778
0.13183063
-0.020325905
0.13324813
-0.020033249
0.13469978
-0.019716405
0.13618343
-0.019378858
0.13769737
-0.019023975
0.13924032
-0.01865503
0.14081139
-0.018275219
0.14241014
-0.017887736
0.1440365
-0.017495776
0.14569088
-0.017102893
0.14737408
-0.016712397
0.1490876
-0.016330313
0.15083313
-0.015957397
0.15261442
-0.015617608
0.15443296
-0.01527318
0.15630142
-0.015103247
0.15820959
-0.014658934
0.16021947
-0.015499328
-0.013662418
0.15005222
0.00077992717
0.14676328
-0.00024403263
0.14346595
-0.0015293193
0.14041818
-0.003028026
0.13762329
-0.004613671
0.13507503
-0.0061873356
0.13277524
-0.0077225825
0.130724
-0.0092109148
0.12891887
-0.010639903
0.12735465
-0.011997873
0.12602351
-0.01327733
0.12491605
-0.014473673
0.1240221
-0.01558378
0.12333098
-0.016605635
0.12283173
-0.017538248
0.12251323
-0.018381498
0.1223644
-0.019135991
0.12237433
-0.019802963
0.12253237
-0.020384219
0.12282819
-0.020882076
0.12325188
-0.021299307
0.123794
-0.021639087
0.12444562
-0.021904942
0.12519836
-0.022100696
0.12604443
-0.022230417
0.12697663
-0.02229836
0.12798838
-0.022308919
0.12907372
-0.022266574
0.13022728
-0.022175837
0.13144432
-0.022041212
0.1327207
-0.021867152
0.13405282
-0.021658027
0.13543767
-0.021418096
0.13687275
-0.021151489
0.13835609
-0.020862202
0.13988621
-0.020554093
0.14146209
-0.020230908
0.14308317
-0.019896301
0.14474935
-0.019553916
0.14646096
-0.019207389
0.14821882
-0.018860754
0.15002419
-0.018517762
0.15187901
-0.018185133
0.15378547
-0.01786386
0.15574771
-0.017579844
0.15776791
-0.01729338
0.15985761
-0.017192949
0.16201106
-0.016812382
0.16427302
-0.01776129
-0.015974729
0.18890898
0.0053820208
-0.19351107
0.18509895
0.0035659971
0.18170692
0.0018627069
0.1785618
0.00011709105
0.17562625
-0.0016781208
0.17287524
-0.0034363198
0.17029053
-0.0051378765
0.16786314
-0.0067835255
0.16558919
-0.0083659498
0.16346652
-0.0098751996
0.16149326
-0.011304077
0.15966732
-0.01264773
0.15798604
-0.013902504
0.15644614
-0.015065735
0.1550437
-0.016135803
0.15377424
-0.01711204
0.15263284
-0.017994593
0.15161421
-0.01878433
0.15071276
-0.019482774
0.14992273
-0.020092042
0.14923821
-0.020614787
0.14865325
-0.021054129
0.14816191
-0.021413604
0.14775831
-0.021697097
0.14743669
-0.021908787
0.14719141
-0.022053082
0.14701705
-0.022134562
0.1469084
-0.022157919
0.14686046
-0.022127905
0.14686853
-0.022049278
0.14692814
-0.021926759
0.14703511
-0.021764995
0.14718554
-0.021568525
0.14737581
-0.021341767
0.14760261
-0.021088999
0.14786289
-0.020814368
0.14815388
-0.020521903
0.14847313
-0.020215546
0.14881844
-0.019899232
0.14918795
-0.019576894
0.14958009
-0.019252894
0.14999362
-0.018931297
0.15042779
-0.018619299
0.15088206
-0.018318133
0.15135706
-0.018054845
0.15185264
-0.017788959
0.15237329
-0.017713593
0.15291468
-0.017353777
0.15349983
-0.018346437
-0.016567692
0.21685786
0.0087803442
-0.22025618
0.21338398
0.0070398765
0.21017118
0.0050755112
0.20706587
0.0032223959
0.20401928
0.0013684665
0.20106237
-0.00047940811
0.19821202
-0.0022875238
0.19547274
-0.0040442443
0.19285043
-0.0057436406
0.19035192
-0.0073766943
0.18798242
-0.0089345746
0.18574532
-0.010410629
0.18364262
-0.011799799
0.18167501
-0.013098125
0.17984195
-0.014302752
0.17814184
-0.015411923
0.17657211
-0.016424865
0.17512945
-0.017341674
0.17380992
-0.01816324
0.17260905
-0.018891175
0.17152201
-0.01952774
0.17054365
-0.020075773
0.16966866
-0.020538614
0.1688916
-0.020920042
0.16820701
-0.021224197
0.16760945
-0.021455517
0.16709355
-0.021618664
0.16665409
-0.021718459
0.16628601
-0.021759824
0.16598445
-0.021747717
0.16574478
-0.021687087
0.16556261
-0.021582827
0.16543382
-0.021439739
0.16535457
-0.021262514
0.16532128
-0.02105571
0.16533067
-0.02082376
0.16537975
-0.020570983
0.16546582
-0.020301616
0.16558648
-0.020019895
0.16573966
-0.019730066
0.16592358
-0.019436819
0.16613687
-0.019144582
0.1663785
-0.018860938
0.166648
-0.018587633
0.16694521
-0.018352055
0.16727137
-0.018115113
0.16762569
-0.018067915
0.16801648
-0.017744568
0.16842572
-0.018755678
-0.017041862
0.24376677
0.01150429
-0.24649072
0.24091634
0.0098903067
0.23806314
0.0079287138
0.23521618
0.0060693499
0.23233839
0.0042462608
0.22945058
0.0024084032
0.22658397
0.00057908444
0.22375786
-0.001218136
0.22098817
-0.0029739498
0.21829083
-0.004679357
0.21567971
-0.0063234494
0.21316579
-0.0078967144
0.2107577
-0.0093917072
0.20846199
-0.010802415
0.20628329
-0.012124055
0.20422449
-0.013353121
0.20228694
-0.014487312
0.20047068
-0.015525411
0.19877462
-0.016467184
0.19719674
-0.017313294
0.19573422
-0.018065219
0.19438361
-0.018725163
0.19314096
-0.019295967
0.19200195
-0.01978103
0.19096197
-0.020184222
0.19001626
-0.020509807
0.18915995
-0.020762355
0.18838817
-0.020946673
0.18769607
-0.021067728
0.18707893
-0.02113058
0.18653217
-0.021140326
0.18605139
-0.021102042
0.18563239
-0.021020745
0.18527124
-0.020901363
0.18496425
-0.020748712
0.18470798
-0.020567496
0.18449932
-0.020362317
0.18433541
-0.020137706
0.18421371
-0.019898204
0.18413203
-0.019648379
0.18408846
-0.01939325
0.18408152
-0.019137644
0.18411003
-0.018889446
0.18417357
-0.018651176
0.18427125
-0.018449732
0.18440577
-0.01824964
0.18457076
-0.0182329
0.18478809
-0.0179619
0.18499388
-0.018961468
-0.017374785
0.26927452
0.013537236
-0.27130747
0.26710648
0.012058344
0.26476473
0.010270468
0.26232551
0.0085085681
0.25979677
0.006775003
0.25718868
0.0050164898
0.25452737
0.0032403933
0.25183702
0.0014722225
0.2491376
-0.00027453946
0.24644895
-0.0019906999
0.24379033
-0.0036648355
0.2411789
-0.0052852792
0.23862937
-0.0068421776
0.23615423
-0.0083272798
0.23376379
-0.0097336099
0.2314662
-0.011055527
0.22926764
-0.012288752
0.22717251
-0.013430282
0.22518361
-0.014478284
0.22330233
-0.01543202
0.22152886
-0.016291745
0.21986232
-0.017058621
0.21830096
-0.017734615
0.21684234
-0.018322405
0.2154834
-0.018825283
0.21422066
-0.019247063
0.21305029
-0.019591986
0.21196825
-0.019864631
0.21097035
-0.020069831
0.21005236
-0.020212595
0.20921007
-0.020298036
0.20843934
-0.02033131
0.20773616
-0.020317563
0.20709669
-0.020261894
0.2065173
-0.020169325
0.2059946
-0.020044795
0.20552545
-0.019893163
0.20510698
-0.01971924
0.20473664
-0.019527862
0.20441218
-0.01932392
0.20413169
-0.019112755
0.20389366
-0.018899615
0.20369683
-0.018692616
0.2035409
-0.018495247
0.2034244
-0.01833323
0.20335124
-0.01817648
0.20331024
-0.018191902
0.20333463
-0.017986288
0.2033192
-0.018946042
-0.017544274
0.29298527
0.014868372
-0.29431641
0.29150604
0.013537581
0.28978355
0.011992954
0.28788492
0.010407196
0.28584502
0.0088149068
0.28367465
0.0071868544
0.28139224
0.0055228072
0.27902102
0.0038434428
0.2765823
0.0021641847
0.27409623
0.00049536602
0.27158302
-0.0011516285
0.2690624
-0.0027646557
0.26655268
-0.004332461
0.26407047
-0.0058450619
0.26163049
-0.0072936301
0.25924551
-0.0086705498
0.2569263
-0.0099695388
0.25468166
-0.01118565
0.25251859
-0.012315216
0.25044236
-0.013355789
0.24845669
-0.014306074
0.24656391
-0.015165838
0.24476512
-0.015935823
0.24306036
-0.016617643
0.24144876
-0.017213687
0.23992871
-0.017727014
0.23849798
-0.018161252
0.23715385
-0.0185205
0.23589325
-0.018809231
0.23471285
-0.0190322
0.23360918
-0.019194367
0.23257869
-0.019300816
0.23161783
-0.0193567
0.23072312
-0.019367187
0.22989122
-0.019337423
0.22911894
-0.019272517
0.22840332
-0.019177539
0.22774162
-0.019057543
0.22713139
-0.018917636
0.22657049
-0.018763019
0.22605708
-0.01859934
0.22558974
-0.018432277
0.22516724
-0.018270115
0.22478942
-0.018117428
0.22445445
-0.017998264
0.22416709
-0.017889119
0.2239125
-0.017937312
0.22373224
-0.017806025