/*--------------------------------*- C++ -*----------------------------------*\
  =========                 |
  \\      /  F ield         | OpenFOAM: The Open Source CFD Toolbox
   \\    /   O peration     | Website:  https://openfoam.org
    \\  /    A nd           | Version:  6
     \\/     M anipulation  |
\*---------------------------------------------------------------------------*/
FoamFile
{
    version     2.0;
    format      ascii;
    class       volSymmTensorField;
    location    "158";
    object      UPrime2Mean;
}
// * * * * * * * * * * * * * * * * * * * * * * * * * * * * * * * * * * * * * //

dimensions      [0 2 -2 0 0 0 0];

internalField   nonuniform List<symmTensor> 
9200
(
(0.00012528829 -9.7253727e-05 4.5555318e-22 7.8054574e-05 -2.4368175e-22 7.3607565e-39)
(0.00077164736 -0.00061795437 1.1645164e-21 0.00049676518 -8.6905389e-22 8.0066233e-39)
(0.0015581882 -0.0012092504 1.4426751e-22 0.00094384966 -1.0893283e-22 4.3902602e-39)
(0.0024534243 -0.0017788473 -1.7516625e-21 0.0013040865 1.23212e-21 8.7503186e-39)
(0.0033336581 -0.0022838269 8.1339693e-23 0.001591462 -6.8104379e-23 1.2832471e-39)
(0.0041376048 -0.0027015343 7.3492332e-22 0.0018057816 -4.8846642e-22 2.0091531e-40)
(0.0048231615 -0.0030241696 -1.579982e-22 0.0019546042 1.0961517e-22 5.8146926e-40)
(0.0053566733 -0.0032524696 1.4364426e-22 0.002050513 -9.6908327e-23 3.9163573e-40)
(0.0057151798 -0.0033912785 7.1321647e-22 0.0021055812 -4.3342062e-22 1.1171084e-39)
(0.005887221 -0.0034475822 5.538239e-23 0.0021300632 -3.3864625e-23 3.1840744e-42)
(0.00587284 -0.0034295862 -7.6736542e-22 0.0021324154 4.7274297e-22 5.9930084e-40)
(0.0056833871 -0.0033461426 6.4196395e-22 0.002119401 -4.1054903e-22 8.1702947e-41)
(0.005340641 -0.003206386 -1.1439192e-21 0.0020962498 7.7364643e-22 1.2823857e-39)
(0.00487499 -0.0030195126 -5.8001246e-22 0.0020668767 4.0019387e-22 8.1631309e-41)
(0.0043227375 -0.0027946362 1.5048247e-22 0.0020341197 -1.1200878e-22 1.04444e-41)
(0.0037227804 -0.0025406632 -5.6658608e-22 0.0019999688 4.4533369e-22 1.0935817e-40)
(0.0031129354 -0.0022661781 4.9741225e-22 0.0019658835 -4.2404084e-22 1.327359e-40)
(0.0025263194 -0.0019794711 3.6917314e-22 0.0019338191 -3.2967509e-22 5.4406247e-40)
(0.0019907106 -0.00168817 -1.2993047e-23 0.0019063775 2.7712591e-23 1.0041429e-40)
(0.0015363519 -0.0013977325 -7.4051887e-24 0.0018648394 2.4676396e-23 1.2446539e-40)
(0.00016527591 -0.00011048116 4.7668852e-23 7.5846826e-05 -1.8326135e-23 1.2938072e-40)
(0.0009837272 -0.00068209948 1.2336637e-21 0.0004744052 -8.0252089e-22 8.5417153e-39)
(0.0019530718 -0.0013149581 -4.0194071e-22 0.0008902879 2.6946241e-22 4.6403868e-39)
(0.0029899628 -0.001898929 -3.142996e-21 0.0012193584 1.9656324e-21 2.024617e-38)
(0.0039511808 -0.0023942183 -1.0772124e-22 0.0014763159 6.8547454e-23 2.5547585e-40)
(0.0047660518 -0.0027810275 2.4283576e-21 0.0016635308 -1.4344469e-21 6.6976312e-39)
(0.0053914797 -0.003056287 -9.9670372e-22 0.0017907763 5.8335055e-22 2.2854364e-40)
(0.005800456 -0.0032260863 -3.0121593e-22 0.0018716642 1.7482825e-22 8.23038e-41)
(0.0059826433 -0.0033002698 1.1438633e-21 0.0019185776 -6.6860896e-22 6.2792412e-40)
(0.0059437882 -0.0032901692 -1.3873795e-21 0.0019416043 8.2511328e-22 7.2015388e-40)
(0.0057041901 -0.0032075661 -9.8472929e-22 0.001948634 6.0089047e-22 8.9110974e-40)
(0.0052964926 -0.0030640971 2.1276969e-21 0.0019455292 -1.3520493e-21 4.5308977e-39)
(0.0047624506 -0.0028709526 9.9173131e-22 0.0019363501 -6.7159066e-22 3.1579293e-40)
(0.0041487608 -0.0026387754 -1.5635207e-21 0.0019236189 1.1320518e-21 1.5635275e-39)
(0.0035024375 -0.0023776542 2.8071127e-22 0.0019085768 -2.1945235e-22 1.3057074e-40)
(0.0028663754 -0.0020971357 -6.2440962e-22 0.0018914087 5.4781455e-22 3.4680291e-40)
(0.0022756652 -0.0018062191 -2.5882892e-22 0.0018714941 2.6790744e-22 1.0941793e-40)
(0.0017550671 -0.001513179 7.9219268e-22 0.0018477338 -8.9445959e-22 1.7679321e-39)
(0.0013191996 -0.0012246649 3.7575571e-22 0.0018168382 -5.0679452e-22 3.3479736e-40)
(0.00097757106 -0.00094731537 -1.6072223e-22 0.0017619279 2.0177418e-22 2.542264e-39)
(0.00021040775 -0.0001198563 -3.9899425e-22 6.9810958e-05 1.699157e-22 3.328948e-39)
(0.001209716 -0.00071927843 -6.6438462e-22 0.00042879394 3.6909544e-22 3.4705613e-39)
(0.0023584292 -0.0013654963 -7.5872339e-22 0.00079510079 4.4195277e-22 8.6749642e-39)
(0.0035144541 -0.0019377058 2.5162517e-23 0.001080679 -1.384264e-23 9.4092226e-43)
(0.0045184061 -0.0024014686 3.4860412e-23 0.0013004618 -1.6197832e-23 6.2322919e-39)
(0.0052956084 -0.0027420424 8.5177655e-22 0.0014592621 -4.5478895e-22 1.7425437e-39)
(0.0058096527 -0.0029622818 8.0584483e-23 0.0015681957 -4.0523364e-23 7.2149063e-40)
(0.0060489238 -0.0030737806 -1.4417337e-21 0.0016407163 7.7670075e-22 4.5718124e-40)
(0.0060241926 -0.0030908072 1.707408e-21 0.0016883221 -9.4359024e-22 8.6500523e-40)
(0.005765336 -0.0030279465 5.6234993e-22 0.0017198148 -3.2639728e-22 9.5415394e-40)
(0.005316987 -0.0028991651 -1.5471375e-21 0.0017415121 9.3892114e-22 1.9674067e-39)
(0.0047333277 -0.002717438 -4.8509519e-22 0.0017575213 3.158558e-22 6.438531e-40)
(0.0040721415 -0.0024947407 1.7702717e-22 0.0017700614 -1.2347982e-22 1.7457406e-39)
(0.0033887623 -0.0022422278 4.2007886e-22 0.0017798172 -3.2776807e-22 2.5024912e-40)
(0.0027308058 -0.0019704275 -1.4671874e-22 0.0017862954 1.2819227e-22 1.9189994e-40)
(0.0021344605 -0.0016893393 3.4237006e-22 0.0017881766 -3.4539869e-22 1.5099795e-40)
(0.0016227741 -0.0014083903 -2.3633976e-22 0.0017836567 2.8094423e-22 5.7721808e-41)
(0.001205925 -0.001136189 -4.7944092e-22 0.0017706553 6.7226264e-22 1.41775e-39)
(0.00088332071 -0.0008799247 -1.4698305e-23 0.0017464674 1.5815494e-23 1.2806409e-39)
(0.00064765912 -0.00064622328 1.6607394e-22 0.0017054256 -3.6580368e-22 1.4452509e-40)
(0.00025916079 -0.00012399397 -3.1686841e-22 6.0488034e-05 1.1679716e-22 1.6534439e-39)
(0.0014379657 -0.0007232638 4.8298434e-22 0.00036466666 -2.370127e-22 3.0773481e-40)
(0.0027497811 -0.0013521597 4.2883332e-22 0.00066894081 -2.1162307e-22 3.5699057e-40)
(0.003991059 -0.0018879512 9.3685231e-22 0.00090437117 -4.4756157e-22 3.8523322e-39)
(0.0049922471 -0.0023034185 8.2264648e-22 0.0010854073 -3.9131273e-22 1.7134494e-39)
(0.0056828637 -0.0025903101 -1.442754e-21 0.0012185642 6.874479e-22 1.3066527e-39)
(0.0060427613 -0.0027573318 -8.0659928e-22 0.0013149927 3.9152891e-22 3.7178481e-40)
(0.0060848001 -0.002820319 0 0.0013866297 0 0)
(0.0058477962 -0.0027960921 8.8043758e-22 0.001442897 -4.8068944e-22 4.8004554e-39)
(0.0053891611 -0.0027004209 -3.817167e-22 0.0014903187 2.2662171e-22 1.8186328e-39)
(0.0047768319 -0.0025475417 -2.2384451e-21 0.0015328582 1.3450689e-21 1.5966627e-39)
(0.0040810132 -0.0023502752 -2.8715163e-22 0.0015722971 1.8217849e-22 3.2480501e-40)
(0.0033664697 -0.0021204244 1.1004011e-21 0.0016086597 -8.2753993e-22 2.1816314e-39)
(0.0026864064 -0.0018691649 6.3410384e-23 0.0016406791 -4.1486068e-23 9.0486956e-40)
(0.0020787812 -0.0016072229 -1.6982062e-23 0.0016662802 1.6842898e-23 6.3254042e-43)
(0.0015653631 -0.0013447674 1.8231315e-22 0.0016830726 -2.1402704e-22 1.1133234e-40)
(0.001153261 -0.0010910661 1.5423331e-24 0.0016887806 3.6325701e-24 1.3100236e-40)
(0.00083816543 -0.00085402848 -3.2280099e-22 0.0016814448 5.534578e-22 3.3757423e-40)
(0.00060819818 -0.00063973398 -1.7874602e-22 0.0016602009 3.8411786e-22 2.3563591e-40)
(0.00044791033 -0.00045254814 8.8795942e-23 0.0016275857 -2.8058339e-22 1.4896815e-39)
(0.00030930003 -0.00012171521 2.3926143e-22 4.8754569e-05 -7.6228044e-23 6.5048267e-40)
(0.0016540535 -0.00069004769 9.9647678e-22 0.00028858011 -3.9747215e-22 5.8606947e-39)
(0.0030995431 -0.0012713635 7.8140681e-22 0.00052506746 -3.2231545e-22 3.7013081e-40)
(0.0043832572 -0.0017502897 8.7112453e-22 0.00070916008 -3.5629678e-22 2.0611639e-39)
(0.0053342322 -0.0021078658 -1.3388845e-21 0.0008539649 5.5428853e-22 3.247143e-39)
(0.0058964284 -0.0023423562 5.027626e-23 0.00096653432 -1.6230209e-23 3.0902927e-40)
(0.0060757562 -0.0024665632 7.6425339e-23 0.0010566369 -3.3420859e-23 2.5937086e-42)
(0.0059166906 -0.0024978501 1.0869936e-21 0.0011335112 -5.086515e-22 1.1594834e-39)
(0.0054890781 -0.0024527586 1.4662641e-22 0.0012036184 -7.2928797e-23 1.0424037e-41)
(0.0048759344 -0.0023458303 -3.9323858e-22 0.0012705749 2.2461983e-22 6.2781248e-40)
(0.0041619123 -0.0021898917 1.2771055e-21 0.001335577 -7.9983472e-22 4.3746598e-39)
(0.0034233909 -0.0019967312 -9.3088638e-22 0.0013978691 6.1896925e-22 3.7371711e-40)
(0.0027212521 -0.0017777195 -1.7498297e-21 0.0014552833 1.3821642e-21 2.6592314e-39)
(0.002097144 -0.0015440667 -5.7814171e-23 0.0015048409 5.3906281e-23 5.6363593e-42)
(0.0015733227 -0.0013066218 6.2072359e-22 0.0015433748 -7.0602938e-22 2.1663864e-39)
(0.0011553915 -0.0010753264 0 0.0015681176 0 0)
(0.0008367763 -0.00085854411 7.8472917e-23 0.0015771229 -1.1471843e-22 5.6389508e-41)
(0.00060366822 -0.00066252979 -3.8563748e-23 0.0015693432 8.7237452e-23 8.3994185e-41)
(0.00043920055 -0.00049121662 -3.9744123e-23 0.0015456989 8.8539792e-23 2.1991462e-41)
(0.00032650074 -0.00034618726 1.8077035e-23 0.0015128331 -8.201762e-23 1.5115861e-40)
(0.00035810564 -0.00011231932 5.2314758e-22 3.5832515e-05 -1.3476895e-22 2.6305351e-39)
(0.0018427743 -0.00061912994 5.1274192e-23 0.00020857867 -1.6838024e-23 4.863888e-42)
(0.0033814423 -0.0011264701 -1.4695935e-22 0.0003783993 4.9693649e-23 2.1528649e-41)
(0.0046604748 -0.0015347689 1.4956406e-22 0.0005146313 -4.8355954e-23 4.2578779e-40)
(0.0055183769 -0.0018330142 -9.2094649e-22 0.00062821331 3.2392039e-22 7.9825918e-40)
(0.0059242064 -0.0020241511 -4.4214096e-22 0.00072550525 1.6162501e-22 7.1953517e-41)
(0.0059176603 -0.0021216764 3.113846e-22 0.00081379989 -9.588392e-23 2.2759872e-39)
(0.0055777721 -0.002140823 -1.1676792e-23 0.00089897723 1.3144181e-23 1.7807499e-40)
(0.0050029907 -0.0020948735 -7.4279067e-22 0.00098417787 3.7214015e-22 1.8816239e-39)
(0.0042947011 -0.001995254 1.2870014e-21 0.0010699344 -6.7490836e-22 5.4841157e-40)
(0.0035439819 -0.0018526004 -3.3339781e-23 0.0011546423 4.922769e-23 9.7811897e-40)
(0.0028225986 -0.001677679 -1.0171661e-21 0.0012351332 7.4890883e-22 2.6902278e-39)
(0.0021788419 -0.0014817368 0 0.0013073747 0 0)
(0.0016379714 -0.0012761723 2.4550109e-22 0.0013672377 -2.8453368e-22 1.4460225e-39)
(0.0012061155 -0.0010717209 1.2018213e-23 0.0014112201 -2.6743643e-23 7.9209163e-41)
(0.00087596581 -0.00087750937 -2.9717495e-22 0.0014370134 4.7856963e-22 1.6781266e-39)
(0.0006326531 -0.00070031644 -6.7346458e-23 0.0014437573 1.2339441e-22 3.4854555e-41)
(0.00045865116 -0.00054427459 -2.0268867e-23 0.0014318671 5.7427082e-23 5.6389739e-41)
(0.0003369982 -0.00041111422 -2.6719058e-23 0.00140386 7.743458e-23 2.1828212e-41)
(0.00025290563 -0.00030044355 4.7684007e-23 0.0013677304 -1.8944015e-22 2.090309e-40)
(0.00040267871 -9.576021e-05 2.0182259e-22 2.3167685e-05 -3.8835228e-23 4.165978e-40)
(0.0019901078 -0.00051394718 -1.4464816e-21 0.00013318585 3.6405276e-22 9.0587592e-39)
(0.0035741002 -0.00092768282 -1.2921303e-22 0.00024348794 3.6588447e-23 8.4584345e-40)
(0.0048024083 -0.0012595202 -3.867869e-22 0.00033850461 1.1391532e-22 4.2544554e-39)
(0.0055347051 -0.0015043821 -2.8716008e-22 0.00042650553 8.0054979e-23 5.8691737e-41)
(0.0057740451 -0.00166623 -1.6265898e-21 0.0005123334 5.067239e-22 7.7525147e-40)
(0.0055974439 -0.0017548444 -7.9663063e-22 0.00060042713 2.8244857e-22 6.2726803e-40)
(0.0051160253 -0.0017796895 1.5385877e-21 0.00069335528 -5.8391093e-22 5.0158957e-40)
(0.0044493002 -0.0017486098 2.6294877e-22 0.00079111667 -1.3675655e-22 6.4453025e-40)
(0.0037064808 -0.0016691879 -3.3765829e-22 0.000891358 1.5440765e-22 2.2015157e-40)
(0.0029743188 -0.0015501371 1.583344e-22 0.00098991916 -5.8385188e-23 8.2735336e-40)
(0.0023116756 -0.0014018135 -2.9686364e-23 0.001081599 4.0414159e-23 2.097095e-40)
(0.0017501105 -0.0012357334 0 0.0011610811 0 0)
(0.0012987608 -0.0010633988 1.6673119e-22 0.0012238463 -1.7556505e-22 5.0215979e-41)
(0.00095127247 -0.00089495168 -3.5371202e-22 0.0012668764 4.6887504e-22 6.8788202e-40)
(0.0006927315 -0.00073814137 -1.1474184e-22 0.0012890163 1.7835474e-22 5.9050303e-41)
(0.00050524045 -0.00059786085 1.9750324e-22 0.0012909032 -4.0322452e-22 8.2283534e-40)
(0.00037161459 -0.00047628743 -4.4163172e-23 0.001274486 5.9059804e-23 1.7739089e-40)
(0.00027720762 -0.00037356771 -2.8065482e-24 0.0012434012 -5.2408412e-24 1.990762e-41)
(0.00021029213 -0.00028840053 4.4990596e-23 0.0012052641 -1.3594069e-22 1.7533583e-41)
(0.00044026707 -7.2703849e-05 1.4692998e-22 1.2235594e-05 -1.9283273e-23 2.608708e-40)
(0.002085006 -0.00038157301 -1.339388e-21 7.0204237e-05 2.414344e-22 4.1539278e-39)
(0.0036636537 -0.00069068328 -1.0466676e-21 0.00013249556 2.0776799e-22 4.9720756e-39)
(0.0048012562 -0.00094796449 1.4913252e-21 0.00019431945 -3.122523e-22 1.2168355e-39)
(0.0053894489 -0.001150555 1.1237616e-21 0.00026143456 -2.5369812e-22 2.5213201e-40)
(0.005470304 -0.0012985771 -8.2103599e-22 0.0003371651 1.8189815e-22 2.6390522e-39)
(0.0051562937 -0.0013937621 2.6814876e-22 0.00042360483 -1.0264334e-22 1.1179256e-39)
(0.0045831002 -0.0014372127 1.5668001e-21 0.00052068905 -5.5868864e-22 1.2505475e-39)
(0.0038805775 -0.0014305688 6.8615515e-22 0.00062580798 -2.7126403e-22 1.5714116e-40)
(0.0031548886 -0.001378058 -6.7333435e-22 0.00073411585 3.4601115e-22 4.0783914e-40)
(0.0024802096 -0.0012873945 -9.1212548e-22 0.00083930079 5.4701043e-22 4.8513169e-40)
(0.0018985431 -0.0011691868 -2.4831951e-23 0.00093467752 1.8067431e-23 5.0556697e-43)
(0.0014251728 -0.0010353105 2.6159411e-22 0.0010143594 -2.3049495e-22 7.8552024e-41)
(0.0010567788 -0.00089699086 -8.785349e-24 0.0010742006 3.0256381e-23 1.2085338e-40)
(0.00077959009 -0.00076328232 -9.1818518e-24 0.001112288 4.9136044e-23 3.2708828e-40)
(0.0005758922 -0.00064031259 6.3444533e-24 0.0011289284 -6.4065436e-23 5.908659e-40)
(0.00042828131 -0.00053129024 9.1144249e-23 0.001126187 -1.8358964e-22 1.7269485e-40)
(0.00032186238 -0.00043706185 -5.1052067e-23 0.0011071585 1.5431218e-22 4.5116248e-40)
(0.00024491502 -0.0003570259 -1.3163111e-22 0.0010759296 3.7324318e-22 8.7284358e-40)
(0.00018855012 -0.00028978058 4.4230253e-23 0.0010387813 -1.0895964e-22 1.9348617e-41)
(0.0004687146 -4.4475236e-05 -3.8097478e-22 4.3316675e-06 3.174315e-23 7.7923852e-40)
(0.0021209159 -0.00023182487 -2.9609498e-22 2.5644485e-05 3.1816269e-23 8.3990026e-40)
(0.0036451688 -0.0004344783 2.2946663e-21 5.367896e-05 -2.915074e-22 1.027165e-38)
(0.0046621177 -0.00062546131 1.704154e-21 9.0075434e-05 -2.470194e-22 1.119936e-39)
(0.0051032095 -0.00079916033 7.6143782e-22 0.0001391773 -1.1963703e-22 5.5049875e-40)
(0.0050490875 -0.00094692994 1.5356872e-22 0.00020378459 -3.1490649e-23 5.2751897e-42)
(0.0046405029 -0.0010593107 -1.4384128e-21 0.00028488803 3.1966118e-22 2.3003372e-39)
(0.0040268048 -0.0011281119 0 0.00038079933 0 0)
(0.0033369885 -0.0011494229 -8.7832761e-22 0.00048692498 3.8159551e-22 1.9056159e-39)
(0.0026656151 -0.0011253676 -1.5055044e-22 0.00059636109 9.973743e-23 4.3221285e-40)
(0.0020701055 -0.0010636527 4.2923004e-22 0.0007011274 -2.4971274e-22 1.0433536e-40)
(0.0015758841 -0.0009754609 4.5674021e-23 0.00079368568 -5.9346181e-23 2.378357e-40)
(0.0011854235 -0.00087276799 -2.037462e-22 0.00086827225 2.0107173e-22 2.762822e-40)
(0.00088773317 -0.00076607088 -1.5286653e-22 0.00092167501 2.0268056e-22 5.9153707e-40)
(0.00066608945 -0.00066308704 9.9147591e-23 0.00095333471 -1.0086301e-22 7.2484263e-41)
(0.00050316985 -0.00056847677 1.3695383e-22 0.00096488703 -1.7724069e-22 6.6475397e-41)
(0.0003837739 -0.00048428975 -1.2153448e-22 0.0009593802 2.0280687e-22 6.153222e-41)
(0.00029581091 -0.00041075718 -1.6192073e-22 0.00094044639 3.5341417e-22 7.2966053e-40)
(0.00023025857 -0.00034718898 1.2893415e-23 0.00091200021 -2.5891334e-24 8.6050763e-41)
(0.00018051134 -0.00029247223 2.1717721e-23 0.00087862264 -7.5037516e-23 1.0140957e-40)
(0.00048638721 -1.2845845e-05 -2.5149067e-22 3.8938696e-07 6.4112253e-24 3.8126506e-40)
(0.0020958191 -7.6027509e-05 1.0719903e-21 3.0132827e-06 -3.8458175e-23 2.1136627e-39)
(0.0035225035 -0.00017916885 1.6390245e-21 1.0656078e-05 -1.0103932e-22 1.5339311e-38)
(0.0044017659 -0.00031650144 -1.9138995e-21 2.8020996e-05 1.6572666e-22 4.2206769e-39)
(0.0047072907 -0.00047420517 6.8973778e-22 6.0129517e-05 -7.6053158e-23 1.0579923e-40)
(0.004552077 -0.0006311083 2.8104627e-22 0.00011103799 1.9252278e-24 3.9005647e-39)
(0.0040942907 -0.00076535515 7.4255913e-23 0.00018218264 -1.5134479e-23 1.3934345e-42)
(0.0034852908 -0.00086028117 -1.0548285e-21 0.00027122872 2.4453484e-22 1.3123369e-39)
(0.0028440332 -0.00090809058 -2.3916223e-23 0.00037212936 8.3184901e-24 2.0857598e-43)
(0.0022486882 -0.00091024308 3.9223961e-22 0.00047635251 -2.0570173e-22 5.0063736e-40)
(0.0017396945 -0.00087508899 3.0602821e-23 0.0005747979 -3.1774524e-23 7.1721868e-41)
(0.0013289773 -0.00081428657 -1.4170388e-22 0.00065971018 3.7688435e-23 9.2786309e-40)
(0.0010106922 -0.00073948413 -3.1359873e-22 0.0007259815 2.5668337e-22 1.0232795e-40)
(0.00077041297 -0.00066013996 -1.5167395e-24 0.00077157058 2.4791252e-23 1.2087492e-40)
(0.00059149088 -0.00058268206 1.0564942e-22 0.00079713234 -1.4004127e-22 1.1768175e-40)
(0.00045861763 -0.00051069288 7.0144792e-23 0.00080518367 -1.1267491e-22 1.1427472e-40)
(0.0003592982 -0.00044561968 1.5638853e-23 0.00079916302 -5.3466254e-23 1.8547942e-40)
(0.00028407684 -0.00038760432 -1.1251195e-22 0.00078266356 1.5883764e-22 1.48244e-40)
(0.00022615719 -0.00033620352 -2.3707221e-23 0.00075901264 -1.5557065e-23 6.3630062e-40)
(0.00018066677 -0.0002906446 6.0678364e-23 0.00073112932 -1.9290952e-22 1.0490428e-39)
(3.261699e-06 -4.0729023e-07 3.2604624e-23 4.9766734e-07 -6.5259243e-24 3.7261107e-40)
(1.5376564e-05 -6.4361022e-06 -4.6519816e-23 3.3061462e-06 1.2890068e-23 3.5873277e-40)
(3.444255e-05 -1.4874431e-05 1.0333658e-22 6.5904771e-06 -3.8706391e-23 2.0602221e-39)
(0.00011042179 -3.1385942e-05 2.8840497e-22 9.4494389e-06 -6.1490442e-23 6.9289813e-39)
(0.00024230692 -5.1765561e-05 -2.0600214e-22 1.2015908e-05 3.5072832e-23 1.8019061e-39)
(0.00043298763 -7.4565601e-05 2.5962541e-22 1.4291573e-05 -3.5221141e-23 1.9910201e-39)
(0.00068863937 -9.9000831e-05 -3.5634674e-22 1.6279584e-05 4.5207426e-23 2.1864345e-39)
(0.0010108589 -0.00012428742 -3.6749895e-22 1.8021675e-05 3.8386424e-23 2.3119914e-39)
(0.0013980536 -0.00014978932 4.6211227e-22 1.9562858e-05 -4.7870445e-23 2.4440068e-39)
(0.0018475738 -0.00017503752 -3.5857567e-22 2.0938337e-05 3.4991167e-23 1.2447323e-39)
(0.0023561215 -0.00019967889 -1.7960524e-23 2.2174933e-05 2.9923216e-25 1.4479014e-41)
(0.002919804 -0.00022344 1.030902e-22 2.3293244e-05 -1.0967817e-23 4.5756563e-41)
(0.0035343156 -0.00024610568 -1.7782668e-23 2.4309094e-05 8.52711e-25 7.2671046e-42)
(0.0041951073 -0.00026750571 5.600148e-22 2.5235211e-05 -5.0185343e-23 2.1794856e-39)
(0.0048974885 -0.00028751062 7.8096587e-25 2.6083318e-05 1.0618422e-24 4.7104687e-42)
(0.0056367312 -0.00030603948 -8.2177277e-22 2.6866255e-05 7.6903798e-23 4.4817427e-39)
(0.0064082072 -0.00032306675 1.5210151e-22 2.7597726e-05 -1.6027108e-23 9.4576382e-41)
(0.0072074097 -0.00033859161 3.6869141e-22 2.8287952e-05 -3.6614218e-23 1.139672e-39)
(0.0080298553 -0.00035268352 -5.9716277e-22 2.8947055e-05 6.3650757e-23 3.2300531e-39)
(0.0088704796 -0.00036582508 -3.2922095e-22 2.9570411e-05 3.7521783e-23 1.2128132e-39)
(3.6942286e-06 -1.7043244e-06 1.0736295e-23 4.3797941e-06 -3.9650951e-24 3.6857423e-41)
(1.9602479e-05 -2.2054171e-05 -2.9459839e-22 2.9134136e-05 2.2212088e-22 1.199705e-38)
(4.3988783e-05 -5.0069618e-05 5.8466843e-23 5.8056817e-05 -4.8362e-23 1.08281e-39)
(0.00012990374 -0.00010159578 3.101947e-22 8.3243926e-05 -1.9046831e-22 5.7905576e-39)
(0.00027327593 -0.00016427113 4.3091589e-22 0.00010580633 -2.069842e-22 6.5480418e-39)
(0.00047604917 -0.00023384076 5.209578e-23 0.00012572801 -2.0876301e-23 6.1510271e-41)
(0.00074364436 -0.00030796001 -1.3848072e-21 0.00014304209 4.7929779e-22 3.2749189e-38)
(0.0010767558 -0.00038431194 -4.874306e-23 0.00015811897 2.0176114e-23 9.4439033e-42)
(0.0014729826 -0.00046102968 7.828717e-22 0.00017135447 -2.3797219e-22 5.5879783e-39)
(0.0019289381 -0.00053673684 -1.8889977e-22 0.00018305868 5.2058255e-23 3.1073345e-40)
(0.0024405969 -0.00061039437 -7.1668106e-22 0.00019346794 1.9600796e-22 3.4464409e-39)
(0.0030033342 -0.00068119483 1.5074541e-22 0.00020276257 -3.8457709e-23 1.5692987e-40)
(0.0036121001 -0.00074849909 6.361509e-22 0.00021107903 -1.4187921e-22 3.6973997e-39)
(0.0042615725 -0.00081179564 2.6271808e-22 0.00021852424 -6.5219112e-23 4.2217965e-40)
(0.0049462339 -0.00087068559 5.2505439e-22 0.00022519351 -1.3974162e-22 1.2205636e-39)
(0.0056604735 -0.00092490327 -4.1470305e-22 0.00023118851 1.0436257e-22 1.0328765e-39)
(0.0063988423 -0.000974344 -3.9598924e-22 0.00023661928 9.871687e-23 1.1298429e-39)
(0.0071559606 -0.0010189672 3.9941718e-22 0.00024157455 -1.1360603e-22 6.5255936e-40)
(0.0079249703 -0.0010589613 3.639376e-22 0.00024615476 -1.0110933e-22 1.1417539e-39)
(0.0086977114 -0.0010961574 1.4044533e-22 0.00025035625 -3.7537394e-23 4.8517381e-40)
(4.7488194e-06 -4.364111e-06 8.2609905e-24 1.1682281e-05 -4.1297442e-24 1.9400595e-41)
(2.9629437e-05 -4.5576079e-05 2.2373125e-22 7.7770628e-05 -2.3947727e-22 5.112889e-39)
(6.6206468e-05 -0.0001006969 -4.8953203e-23 0.00015484718 6.3083089e-23 2.6775114e-40)
(0.00017290166 -0.00019280272 -3.3694632e-22 0.00022192934 2.8365457e-22 6.3394509e-39)
(0.00034000242 -0.00030205129 1.2396376e-22 0.00028180847 -1.0405831e-22 1.7942347e-40)
(0.00056754956 -0.00042156754 1.6406357e-22 0.00033431493 -1.3333158e-22 9.4135227e-41)
(0.00085944672 -0.00054748058 -2.0456286e-22 0.00037952949 1.0837412e-22 5.6475046e-40)
(0.001214685 -0.00067604286 -5.3403791e-22 0.00041843928 3.1139321e-22 1.1272587e-39)
(0.0016293226 -0.00080426107 2.3372044e-22 0.00045209685 -1.1348318e-22 3.1534813e-40)
(0.0020985478 -0.00092992091 4.9624224e-22 0.00048133317 -2.0606568e-22 1.7912658e-39)
(0.0026169316 -0.0010513376 1.376918e-22 0.00050678507 -9.5513668e-23 6.7181095e-41)
(0.0031784412 -0.0011671885 6.0625813e-22 0.00052893679 -2.0090695e-22 3.3244187e-39)
(0.0037765978 -0.0012764103 5.1343972e-23 0.00054814901 -1.8997335e-23 1.3780565e-41)
(0.004404603 -0.0013781294 -8.9886682e-22 0.00056469373 3.0300786e-22 5.3443929e-39)
(0.0050553802 -0.001471634 6.5805227e-23 0.00057880172 -4.3580523e-23 2.9629589e-41)
(0.0057216787 -0.0015564088 -4.1948167e-22 0.00059071286 1.1640359e-22 2.0828345e-39)
(0.0063965608 -0.0016321998 -5.9009163e-22 0.0006006881 2.3377653e-22 8.5515622e-40)
(0.0070731579 -0.0016988581 9.5681221e-22 0.0006089859 -3.7311285e-22 2.8391273e-39)
(0.007740673 -0.0017566407 5.0429946e-22 0.00061602831 -2.0910747e-22 5.773995e-40)
(0.0083863032 -0.0018094414 1.0073367e-22 0.0006220873 -4.5990522e-23 1.2381472e-41)
(6.9959808e-06 -9.0273581e-06 -1.2369522e-23 2.1514584e-05 1.5577966e-23 2.841045e-41)
(4.8570517e-05 -8.0920322e-05 -5.1828536e-22 0.00014346834 6.5548277e-22 1.6964375e-38)
(0.00010742941 -0.00017441576 -3.7676617e-23 0.00028538954 4.8417311e-23 2.3186585e-40)
(0.00024845835 -0.0003151953 8.6812221e-23 0.00040869464 -9.6103414e-23 1.4777059e-40)
(0.00045409571 -0.00047696582 -1.4038694e-23 0.00051820593 3.6377461e-24 3.8176721e-41)
(0.00072156975 -0.00065039105 4.4211238e-22 0.00061330976 -3.2397729e-22 2.7858978e-39)
(0.0010524539 -0.00083007187 4.8868184e-22 0.00069410775 -3.1897947e-22 2.5307535e-39)
(0.0014432212 -0.0010109708 -1.4808954e-22 0.00076242088 7.1515757e-23 3.9887011e-40)
(0.0018876324 -0.00118911 -5.4257464e-22 0.00082020197 2.8309848e-22 2.5357739e-39)
(0.0023787245 -0.0013615262 -1.0928257e-21 0.00086901544 5.8882767e-22 5.3753827e-39)
(0.0029089508 -0.0015259368 -2.4060367e-23 0.00091007738 -1.2802617e-23 1.2278374e-40)
(0.0034701759 -0.0016805251 1.3890857e-21 0.00094432028 -6.4628369e-22 8.7851542e-39)
(0.0040538081 -0.001823798 -5.6280844e-22 0.00097243692 2.1422168e-22 2.5978335e-39)
(0.0046509287 -0.0019545021 -3.6313014e-22 0.00099494402 1.5885977e-22 5.1246199e-40)
(0.0052523077 -0.0020715772 -4.3511106e-23 0.0010122607 4.9143867e-23 1.1068265e-40)
(0.005848529 -0.0021741988 8.5825711e-22 0.0010247953 -3.7625927e-22 2.1015169e-39)
(0.006430757 -0.002261905 -4.8547805e-22 0.0010329808 2.4364767e-22 1.4051792e-40)
(0.0069905118 -0.0023344691 -1.1124805e-21 0.0010373609 4.6892072e-22 4.5248425e-39)
(0.0075126489 -0.0023922601 7.4503808e-22 0.0010392411 -3.2507314e-22 2.2750874e-39)
(0.0079793888 -0.0024415695 6.4254844e-22 0.0010401282 -2.5818027e-22 2.1166495e-39)
(1.1188572e-05 -1.6078725e-05 5.5526779e-23 3.2797913e-05 -5.3965399e-23 3.6536591e-40)
(8.0575756e-05 -0.00013037335 1.8013831e-23 0.00021895615 -4.6706608e-24 1.6497609e-40)
(0.00017602011 -0.00027562502 -7.1384773e-22 0.0004347819 1.0222697e-21 1.3914446e-38)
(0.00036823176 -0.00047433999 -4.1004706e-22 0.00062166332 4.3554358e-22 4.3048421e-39)
(0.00062988867 -0.00069487967 2.7376251e-22 0.00078646329 -2.1795224e-22 2.6021794e-39)
(0.00095440206 -0.00092545335 3.4002277e-22 0.0009277768 -2.7394524e-22 1.2255557e-39)
(0.001340026 -0.0011590755 -4.4247106e-22 0.0010457112 2.8880907e-22 2.8680967e-39)
(0.0017797834 -0.0013895851 -6.7458998e-22 0.0011430902 3.8677674e-22 6.2937797e-39)
(0.0022642713 -0.0016122035 9.975231e-22 0.0012229668 -5.9538238e-22 6.4568318e-39)
(0.0027835482 -0.0018233554 2.8623025e-22 0.001287839 -1.1553303e-22 1.5033572e-39)
(0.0033271612 -0.0020202633 -8.9899563e-22 0.0013396972 5.9534986e-22 4.9671513e-40)
(0.0038841535 -0.0022007029 3.9447096e-22 0.0013801038 -1.7895409e-22 1.1573622e-39)
(0.0044432368 -0.0023628457 0 0.0014102515 0 0)
(0.0049929386 -0.0025051511 3.8365541e-22 0.0014310417 -1.8687297e-22 4.528247e-40)
(0.0055216598 -0.0026263113 -2.8766125e-22 0.0014431915 1.3667988e-22 2.4180386e-40)
(0.0060178718 -0.0027252944 -4.4032844e-22 0.0014473485 2.2003797e-22 2.9346537e-40)
(0.0064712495 -0.0028015378 1.6210048e-22 0.0014441257 -1.3338582e-22 4.1314723e-40)
(0.0068727144 -0.0028549612 -1.3188912e-22 0.0014343709 7.9213545e-23 1.4908323e-41)
(0.0072041943 -0.0028863743 6.3117904e-22 0.0014209361 -2.7344971e-22 2.4506349e-39)
(0.007442873 -0.0029042029 -5.1310024e-22 0.0014084818 2.5216254e-22 1.425194e-40)
(1.8197622e-05 -2.5638636e-05 5.326205e-23 4.4461168e-05 -4.4781977e-23 2.9335275e-40)
(0.00013032557 -0.00019435242 2.56497e-22 0.00029659069 -3.4157745e-22 1.0947357e-39)
(0.00028119948 -0.00040477757 -3.4422188e-22 0.00058707249 4.5683779e-22 2.6115729e-39)
(0.00054447293 -0.00066997585 -5.6466069e-22 0.00083717338 6.3552246e-22 2.1856332e-39)
(0.00088126851 -0.00095396849 -1.6522036e-22 0.0010555838 2.4319214e-22 1.7256553e-39)
(0.0012798894 -0.0012423592 -5.1023971e-22 0.0012398922 4.4835929e-22 1.0740637e-39)
(0.0017340102 -0.0015265131 -2.3780305e-22 0.0013903168 1.4636389e-22 1.2417594e-39)
(0.0022321276 -0.0017993789 4.1159778e-22 0.0015108566 -2.474302e-22 2.2904093e-39)
(0.0027607205 -0.0020556575 9.8316773e-22 0.0016058577 -5.8567574e-22 7.8415597e-39)
(0.0033060139 -0.0022914303 3.0250132e-22 0.0016789741 -1.8618824e-22 3.2879171e-40)
(0.0038539979 -0.0025037084 -2.8735972e-22 0.0017332038 1.524643e-22 5.216711e-40)
(0.0043904794 -0.0026901605 -5.3991297e-23 0.001770976 -1.1738966e-23 4.5444501e-40)
(0.0049013639 -0.0028489477 -1.3661968e-21 0.0017942137 7.4770975e-22 4.3243344e-39)
(0.0053729357 -0.0029786151 -4.2385579e-22 0.0018044228 2.2170484e-22 4.4730524e-40)
(0.0057920517 -0.0030780311 7.0890573e-22 0.0018028099 -4.1062806e-22 2.117678e-40)
(0.006146464 -0.0031464076 -7.0627915e-22 0.0017903988 3.8220257e-22 4.4199458e-40)
(0.0064262955 -0.0031834939 -2.4898156e-22 0.0017679964 1.2267761e-22 1.4147274e-40)
(0.0066246453 -0.0031897792 5.5743402e-22 0.0017365562 -2.3493104e-22 2.2000246e-39)
(0.0067245431 -0.0031670885 8.435105e-22 0.0017006556 -4.225076e-22 1.6672101e-39)
(0.006699005 -0.0031252565 1.0283704e-22 0.0016704494 -4.8123406e-23 3.2473265e-41)
(2.8948449e-05 -3.7571772e-05 -1.5023011e-22 5.5529983e-05 1.2198406e-22 1.7357128e-39)
(0.00020247118 -0.00027136467 -1.6642895e-22 0.00036912954 1.6884758e-22 1.3834637e-39)
(0.000431648 -0.0005581237 4.1982152e-22 0.00072706476 -5.3080821e-22 6.3227076e-40)
(0.00078768633 -0.00089548979 6.4092386e-22 0.0010326667 -6.6403133e-22 2.9007205e-39)
(0.0012182944 -0.001244022 8.3735215e-24 0.0012961552 -7.5406317e-24 5.7599469e-43)
(0.0017049931 -0.001586542 -1.739701e-21 0.0015141949 1.4356005e-21 1.6942521e-38)
(0.0022353966 -0.0019128344 -6.8036542e-22 0.0016874239 5.8267258e-22 2.4154537e-40)
(0.0027923781 -0.0022153564 5.2953523e-22 0.0018212534 -3.5712486e-22 1.8593445e-39)
(0.0033575295 -0.0024887871 6.0662427e-22 0.0019215322 -4.0741365e-22 1.1369291e-39)
(0.0039128085 -0.0027293978 -5.9480006e-22 0.0019932967 3.3106912e-22 3.121548e-39)
(0.0044405887 -0.0029345524 -1.7450625e-21 0.0020407952 1.1015403e-21 4.5470744e-39)
(0.0049239069 -0.0031024271 1.1471596e-21 0.0020675647 -6.9535344e-22 1.869273e-39)
(0.0053469535 -0.0032318435 6.8281804e-22 0.0020764965 -3.5606573e-22 2.2406425e-39)
(0.0056955748 -0.0033221642 -9.4564774e-22 0.0020699278 5.219619e-22 1.8483856e-39)
(0.0059576792 -0.0033732222 4.1514971e-22 0.0020497548 -2.3981719e-22 1.2381288e-40)
(0.006123676 -0.0033852888 6.8874353e-22 0.0020175211 -3.5488069e-22 1.3768062e-39)
(0.0061880579 -0.0033591495 2.6215251e-22 0.0019742382 -1.4794947e-22 4.6823969e-41)
(0.0061505492 -0.0032963724 -4.4890604e-22 0.001920581 2.7792724e-22 5.9151576e-41)
(0.0060014682 -0.0032001998 -1.0378488e-22 0.0018621169 3.3528769e-23 3.4111528e-40)
(0.0057130068 -0.0030806471 5.8836475e-22 0.001815942 -3.405596e-22 1.3811412e-40)
(4.4350305e-05 -5.1491063e-05 -4.480934e-24 6.5140496e-05 -4.712403e-24 3.2300851e-41)
(0.0003010192 -0.00035806035 -6.0470034e-22 0.00043015069 6.3978153e-22 4.5462878e-39)
(0.0006339933 -0.00072786021 -4.8265167e-22 0.00084155312 5.1794228e-22 6.8788386e-39)
(0.0011042186 -0.0011382157 9.0550684e-22 0.0011888878 -8.6802017e-22 4.020501e-39)