/*--------------------------------*- C++ -*----------------------------------*\
| =========                 |                                                 |
| \\      /  F ield         | OpenFOAM: The Open Source CFD Toolbox           |
|  \\    /   O peration     | Version:  4.1                                   |
|   \\  /    A nd           | Web:      www.OpenFOAM.org                      |
|    \\/     M anipulation  |                                                 |
\*---------------------------------------------------------------------------*/
FoamFile
{
    version     2.0;
    format      ascii;
    class       volScalarField;
    location    "6";
    object      p;
}
// * * * * * * * * * * * * * * * * * * * * * * * * * * * * * * * * * * * * * //

dimensions      [0 2 -2 0 0 0 0];

internalField   nonuniform List<scalar> 
1000
(
1.5221433
1.5050119
1.4885792
1.472563
1.4567684
1.441106
1.4255376
1.4100414
1.3946002
1.3792002
1.3638314
1.3484877
1.3331647
1.3178592
1.3025686
1.2872906
1.2720232
1.2567646
1.2415131
1.2262673
1.2110259
1.1957875
1.1805514
1.1653168
1.1500831
1.1348499
1.119617
1.1043842
1.0891515
1.0739187
1.0586859
1.0434531
1.0282202
1.0129873
0.99775444
0.98252156
0.96728867
0.95205577
0.93682288
0.92158999
0.90635709
0.8911242
0.87589131
0.86065841
0.84542552
0.83019263
0.81495973
0.79972684
0.78449395
0.76926106
0.75402816
0.73879527
0.72356238
0.70832949
0.69309659
0.6778637
0.66263081
0.64739791
0.63216502
0.61693213
0.60169924
0.58646634
0.57123345
0.55600056
0.54076767
0.52553477
0.51030188
0.49506899
0.4798361
0.4646032
0.44937031
0.43413742
0.41890452
0.40367163
0.38843874
0.37320585
0.35797295
0.34274006
0.32750717
0.31227428
0.29704138
0.28180849
0.2665756
0.25134271
0.23610981
0.22087692
0.20564403
0.19041113
0.17517824
0.15994535
0.14471246
0.12947956
0.11424667
0.099013779
0.083780887
0.068547995
0.053315103
0.038082213
0.022849323
0.0076164383
1.521735
1.5046107
1.488512
1.472703
1.4569364
1.4412367
1.4256361
1.4101215
1.3946669
1.3792541
1.3638739
1.3485209
1.3331907
1.3178796
1.3025844
1.2873026
1.2720321
1.256771
1.2415176
1.2262704
1.2110278
1.1957887
1.1805521
1.1653172
1.1500833
1.13485
1.119617
1.1043842
1.0891515
1.0739187
1.0586859
1.043453
1.0282202
1.0129873
0.99775444
0.98252156
0.96728866
0.95205577
0.93682288
0.92158999
0.90635709
0.8911242
0.87589131
0.86065841
0.84542552
0.83019263
0.81495973
0.79972684
0.78449395
0.76926106
0.75402816
0.73879527
0.72356238
0.70832949
0.69309659
0.6778637
0.66263081
0.64739791
0.63216502
0.61693213
0.60169924
0.58646634
0.57123345
0.55600056
0.54076767
0.52553477
0.51030188
0.49506899
0.4798361
0.4646032
0.44937031
0.43413742
0.41890452
0.40367163
0.38843874
0.37320585
0.35797295
0.34274006
0.32750717
0.31227428
0.29704138
0.28180849
0.2665756
0.25134271
0.23610981
0.22087692
0.20564403
0.19041113
0.17517824
0.15994535
0.14471246
0.12947956
0.11424667
0.099013779
0.083780887
0.068547994
0.053315102
0.038082211
0.02284932
0.0076164353
1.5210485
1.503834
1.4881906
1.472732
1.4570605
1.4413348
1.4257032
1.4101781
1.3947197
1.3793004
1.3639115
1.3485505
1.3332143
1.3178985
1.3025995
1.2873145
1.2720413
1.2567781
1.2415229
1.2262742
1.2110305
1.1957906
1.1805534
1.165318
1.1500838
1.1348503
1.1196172
1.1043843
1.0891515
1.0739187
1.0586859
1.043453
1.0282202
1.0129873
0.99775444
0.98252155
0.96728866
0.95205577
0.93682288
0.92158998
0.90635709
0.8911242
0.87589131
0.86065841
0.84542552
0.83019263
0.81495973
0.79972684
0.78449395
0.76926106
0.75402816
0.73879527
0.72356238
0.70832949
0.69309659
0.6778637
0.66263081
0.64739791
0.63216502
0.61693213
0.60169924
0.58646634
0.57123345
0.55600056
0.54076767
0.52553477
0.51030188
0.49506899
0.4798361
0.4646032
0.44937031
0.43413742
0.41890452
0.40367163
0.38843874
0.37320585
0.35797295
0.34274006
0.32750717
0.31227428
0.29704138
0.28180849
0.2665756
0.25134271
0.23610981
0.22087692
0.20564403
0.19041113
0.17517824
0.15994535
0.14471246
0.12947956
0.11424667
0.099013779
0.083780886
0.068547993
0.0533151
0.038082208
0.022849315
0.0076164318
1.5204167
1.5030605
1.4878084
1.4727064
1.4571591
1.4414227
1.425764
1.410231
1.3947724
1.3793492
1.3639525
1.3485838
1.3332413
1.3179208
1.3026179
1.2873296
1.2720535
1.2567878
1.2415306
1.2262802
1.211035
1.1957939
1.1805557
1.1653196
1.1500848
1.1348509
1.1196176
1.1043845
1.0891516
1.0739187
1.0586859
1.043453
1.0282202
1.0129873
0.99775444
0.98252155
0.96728866
0.95205577
0.93682288
0.92158998
0.90635709
0.8911242
0.87589131
0.86065841
0.84542552
0.83019263
0.81495973
0.79972684
0.78449395
0.76926106
0.75402816
0.73879527
0.72356238
0.70832949
0.69309659
0.6778637
0.66263081
0.64739791
0.63216502
0.61693213
0.60169924
0.58646634
0.57123345
0.55600056
0.54076767
0.52553477
0.51030188
0.49506899
0.4798361
0.4646032
0.44937031
0.43413742
0.41890452
0.40367163
0.38843874
0.37320585
0.35797295
0.34274006
0.32750717
0.31227428
0.29704138
0.28180849
0.2665756
0.25134271
0.23610981
0.22087692
0.20564403
0.19041113
0.17517824
0.15994535
0.14471246
0.12947956
0.11424667
0.099013778
0.083780885
0.068547992
0.053315097
0.038082205
0.02284931
0.007616429
1.5200586
1.5026025
1.4875654
1.4726791
1.457216
1.4414776
1.4258029
1.4102654
1.3948077
1.3793828
1.3639815
1.3486077
1.3332612
1.3179375
1.3026319
1.2873412
1.2720631
1.2567956
1.2415369
1.2262851
1.2110388
1.1957967
1.1805577
1.165321
1.1500858
1.1348515
1.119618
1.1043847
1.0891517
1.0739188
1.0586859
1.0434531
1.0282202
1.0129873
0.99775443
0.98252155
0.96728866
0.95205577
0.93682288
0.92158998
0.90635709
0.8911242
0.87589131
0.86065841
0.84542552
0.83019263
0.81495973
0.79972684
0.78449395
0.76926106
0.75402816
0.73879527
0.72356238
0.70832949
0.69309659
0.6778637
0.66263081
0.64739791
0.63216502
0.61693213
0.60169924
0.58646634
0.57123345
0.55600056
0.54076767
0.52553477
0.51030188
0.49506899
0.4798361
0.4646032
0.44937031
0.43413742
0.41890452
0.40367163
0.38843874
0.37320585
0.35797295
0.34274006
0.32750717
0.31227428
0.29704138
0.28180849
0.2665756
0.25134271
0.23610981
0.22087692
0.20564403
0.19041113
0.17517824
0.15994535
0.14471246
0.12947956
0.11424667
0.099013778
0.083780884
0.068547991
0.053315096
0.038082203
0.022849308
0.0076164275
1.5200586
1.5026025
1.4875654
1.4726791
1.457216
1.4414776
1.4258029
1.4102654
1.3948077
1.3793828
1.3639815
1.3486077
1.3332612
1.3179375
1.3026319
1.2873412
1.2720631
1.2567956
1.2415369
1.2262851
1.2110388
1.1957967
1.1805577
1.165321
1.1500858
1.1348515
1.119618
1.1043847
1.0891517
1.0739188
1.0586859
1.043453
1.0282202
1.0129873
0.99775443
0.98252155
0.96728866
0.95205577
0.93682288
0.92158998
0.90635709
0.8911242
0.87589131
0.86065841
0.84542552
0.83019263
0.81495973
0.79972684
0.78449395
0.76926106
0.75402816
0.73879527
0.72356238
0.70832949
0.69309659
0.6778637
0.66263081
0.64739791
0.63216502
0.61693213
0.60169924
0.58646634
0.57123345
0.55600056
0.54076767
0.52553477
0.51030188
0.49506899
0.4798361
0.4646032
0.44937031
0.43413742
0.41890452
0.40367163
0.38843874
0.37320585
0.35797295
0.34274006
0.32750717
0.31227428
0.29704138
0.28180849
0.2665756
0.25134271
0.23610981
0.22087692
0.20564403
0.19041113
0.17517824
0.15994535
0.14471246
0.12947956
0.11424667
0.099013778
0.083780884
0.068547991
0.053315096
0.038082203
0.022849308
0.0076164274
1.5204167
1.5030605
1.4878084
1.4727064
1.4571591
1.4414227
1.425764
1.410231
1.3947724
1.3793492
1.3639525
1.3485838
1.3332413
1.3179208
1.3026179
1.2873296
1.2720535
1.2567878
1.2415306
1.2262802
1.211035
1.1957939
1.1805557
1.1653196
1.1500848
1.1348509
1.1196176
1.1043845
1.0891516
1.0739187
1.0586859
1.043453
1.0282202
1.0129873
0.99775444
0.98252155
0.96728866
0.95205577
0.93682288
0.92158999
0.90635709
0.8911242
0.87589131
0.86065841
0.84542552
0.83019263
0.81495973
0.79972684
0.78449395
0.76926106
0.75402816
0.73879527
0.72356238
0.70832949
0.69309659
0.6778637
0.66263081
0.64739791
0.63216502
0.61693213
0.60169924
0.58646634
0.57123345
0.55600056
0.54076767
0.52553477
0.51030188
0.49506899
0.4798361
0.4646032
0.44937031
0.43413742
0.41890452
0.40367163
0.38843874
0.37320585
0.35797295
0.34274006
0.32750717
0.31227428
0.29704138
0.28180849
0.2665756
0.25134271
0.23610981
0.22087692
0.20564403
0.19041113
0.17517824
0.15994535
0.14471246
0.12947956
0.11424667
0.099013778
0.083780885
0.068547991
0.053315097
0.038082205
0.02284931
0.0076164287
1.5210485
1.503834
1.4881906
1.472732
1.4570605
1.4413348
1.4257032
1.4101781
1.3947197
1.3793003
1.3639115
1.3485505
1.3332143
1.3178985
1.3025995
1.2873145
1.2720413
1.2567781
1.2415229
1.2262742
1.2110305
1.1957906
1.1805534
1.165318
1.1500838
1.1348503
1.1196172
1.1043843
1.0891515
1.0739187
1.0586859
1.043453
1.0282202
1.0129873
0.99775444
0.98252156
0.96728866
0.95205577
0.93682288
0.92158999
0.90635709
0.8911242
0.87589131
0.86065841
0.84542552
0.83019263
0.81495973
0.79972684
0.78449395
0.76926106
0.75402816
0.73879527
0.72356238
0.70832949
0.69309659
0.6778637
0.66263081
0.64739791
0.63216502
0.61693213
0.60169924
0.58646634
0.57123345
0.55600056
0.54076767
0.52553477
0.51030188
0.49506899
0.4798361
0.4646032
0.44937031
0.43413742
0.41890452
0.40367163
0.38843874
0.37320585
0.35797295
0.34274006
0.32750717
0.31227428
0.29704138
0.28180849
0.2665756
0.25134271
0.23610981
0.22087692
0.20564403
0.19041113
0.17517824
0.15994535
0.14471246
0.12947956
0.11424667
0.099013778
0.083780885
0.068547993
0.053315099
0.038082208
0.022849314
0.0076164315
1.521735
1.5046107
1.4885121
1.472703
1.4569364
1.4412367
1.4256361
1.4101216
1.3946669
1.3792541
1.3638739
1.3485209
1.3331907
1.3178796
1.3025844
1.2873026
1.2720321
1.256771
1.2415176
1.2262704
1.2110278
1.1957887
1.1805521
1.1653172
1.1500833
1.13485
1.119617
1.1043842
1.0891514
1.0739187
1.0586859
1.043453
1.0282202
1.0129873
0.99775444
0.98252156
0.96728867
0.95205577
0.93682288
0.92158999
0.90635709
0.8911242
0.87589131
0.86065841
0.84542552
0.83019263
0.81495973
0.79972684
0.78449395
0.76926106
0.75402816
0.73879527
0.72356238
0.70832949
0.69309659
0.6778637
0.66263081
0.64739791
0.63216502
0.61693213
0.60169924
0.58646634
0.57123345
0.55600056
0.54076767
0.52553477
0.51030188
0.49506899
0.4798361
0.4646032
0.44937031
0.43413742
0.41890452
0.40367163
0.38843874
0.37320585
0.35797295
0.34274006
0.32750717
0.31227428
0.29704138
0.28180849
0.2665756
0.25134271
0.23610981
0.22087692
0.20564403
0.19041113
0.17517824
0.15994535
0.14471246
0.12947956
0.11424667
0.099013778
0.083780886
0.068547994
0.053315102
0.038082211
0.02284932
0.0076164351
1.5221433
1.5050119
1.4885792
1.472563
1.4567684
1.441106
1.4255376
1.4100414
1.3946002
1.3792002
1.3638314
1.3484877
1.3331647
1.3178592
1.3025686
1.2872906
1.2720232
1.2567646
1.2415131
1.2262673
1.2110258
1.1957875
1.1805514
1.1653168
1.1500831
1.1348499
1.119617
1.1043842
1.0891515
1.0739187
1.0586859
1.0434531
1.0282202
1.0129873
0.99775445
0.98252156
0.96728867
0.95205577
0.93682288
0.92158999
0.90635709
0.8911242
0.87589131
0.86065841
0.84542552
0.83019263
0.81495973
0.79972684
0.78449395
0.76926106
0.75402816
0.73879527
0.72356238
0.70832949
0.69309659
0.6778637
0.66263081
0.64739791
0.63216502
0.61693213
0.60169924
0.58646634
0.57123345
0.55600056
0.54076767
0.52553477
0.51030188
0.49506899
0.4798361
0.4646032
0.44937031
0.43413742
0.41890452
0.40367163
0.38843874
0.37320585
0.35797295
0.34274006
0.32750717
0.31227428
0.29704138
0.28180849
0.2665756
0.25134271
0.23610981
0.22087692
0.20564403
0.19041113
0.17517824
0.15994535
0.14471246
0.12947956
0.11424667
0.099013779
0.083780886
0.068547994
0.053315103
0.038082213
0.022849323
0.0076164382
)
;

boundaryField
{
    top
    {
        type            zeroGradient;
    }
    inlet
    {
        type            fixedValue;
        value           uniform 1.53103;
    }
    outlet
    {
        type            fixedValue;
        value           uniform 0;
    }
    bottom
    {
        type            zeroGradient;
    }
    back
    {
        type            empty;
    }
    front
    {
        type            empty;
    }
}


// ************************************************************************* //
