/*--------------------------------*- C++ -*----------------------------------*\
| =========                 |                                                 |
| \\      /  F ield         | OpenFOAM: The Open Source CFD Toolbox           |
|  \\    /   O peration     | Version:  4.1                                   |
|   \\  /    A nd           | Web:      www.OpenFOAM.org                      |
|    \\/     M anipulation  |                                                 |
\*---------------------------------------------------------------------------*/
FoamFile
{
    version     2.0;
    format      ascii;
    class       surfaceScalarField;
    location    "6";
    object      phi;
}
// * * * * * * * * * * * * * * * * * * * * * * * * * * * * * * * * * * * * * //

dimensions      [0 3 -1 0 0 0 0];

internalField   nonuniform List<scalar> 
1890
(
0.0020171234
4.8154228e-06
0.0020030638
1.4060908e-05
0.0019881301
1.493402e-05
0.0019764192
1.171089e-05
0.0019680183
8.4011034e-06
0.0019617717
6.2467075e-06
0.001956863
4.9086244e-06
0.0019529372
3.9258105e-06
0.0019498121
3.1251782e-06
0.0019473263
2.4859102e-06
0.0019453323
1.9941683e-06
0.0019437183
1.6142245e-06
0.0019424088
1.309645e-06
0.0019413521
1.0568679e-06
0.0019405087
8.4360638e-07
0.0019398458
6.630835e-07
0.0019393351
5.1082347e-07
0.0019389515
3.8370017e-07
0.001938672
2.7951742e-07
0.0019384757
1.9641647e-07
0.0019383434
1.3236209e-07
0.0019382585
8.4922843e-08
0.0019382072
5.1329557e-08
0.0019381786
2.8737902e-08
0.0019381642
1.4427689e-08
0.0019381583
5.9860552e-09
0.0019381569
1.3996832e-09
0.0019381575
-5.5515614e-10
0.0019381588
-1.2762765e-09
0.0019381602
-1.3159014e-09
0.0019381613
-1.072284e-09
0.0019381621
-7.6324343e-10
0.0019381626
-4.9294321e-10
0.0019381629
-2.8974685e-10
0.001938163
-1.5568209e-10
0.0019381631
-7.2832383e-11
0.0019381632
-2.8015702e-11
0.0019381632
-4.511846e-12
0.0019381632
3.7434435e-12
0.0019381632
7.3992103e-12
0.0019381632
6.3804177e-12
0.0019381632
6.0177275e-12
0.0019381631
3.708747e-12
0.0019381631
3.3632157e-12
0.0019381631
1.643017e-12
0.0019381631
1.8260947e-12
0.0019381631
6.181423e-13
0.0019381631
1.0410761e-12
0.0019381631
1.7592003e-13
0.0019381631
7.1587504e-13
0.0019381631
-3.1758279e-14
0.0019381631
5.2005673e-13
0.0019381631
-1.6607443e-13
0.0019381631
4.6555141e-13
0.0019381631
-2.3568924e-13
0.0019381631
3.8555354e-13
0.0019381631
-2.7835899e-13
0.0019381631
3.8770128e-13
0.0019381631
-2.9887573e-13
0.0019381631
3.3960992e-13
0.0019381631
-3.1468876e-13
0.0019381631
3.6146221e-13
0.0019381631
-3.202837e-13
0.0019381631
3.2450895e-13
0.0019381631
-3.2634126e-13
0.0019381631
3.5315076e-13
0.0019381631
-3.2640087e-13
0.0019381631
3.2025381e-13
0.0019381631
-3.2902742e-13
0.0019381631
3.5186586e-13
0.0019381631
-3.264039e-13
0.0019381631
3.2153862e-13
0.0019381631
-3.2637629e-13
0.0019381631
3.5597353e-13
0.0019381631
-3.2039222e-13
0.0019381631
3.3006711e-13
0.0019381631
-3.1440992e-13
0.0019381631
3.7212843e-13
0.0019381631
-2.9789386e-13
0.0019381631
3.6006843e-13
0.0019381631
-2.7462196e-13
0.0019381631
4.2532265e-13
0.0019381631
-2.2764509e-13
0.0019381631
4.469322e-13
0.0019381631
-1.4214186e-13
0.0019381631
5.7225371e-13
0.0019381631
2.3930695e-14
0.0019381631
7.5553642e-13
0.0019381631
3.3087796e-13
0.0019381631
1.2600223e-12
0.0019381631
1.144592e-12
0.0019381631
2.3314356e-12
0.0019381631
3.3639052e-12
0.0019381631
5.9231686e-12
0.0019381631
1.1864112e-11
0.0019381631
2.0296038e-11
0.0019381631
4.0520495e-11
0.001938163
6.3939025e-11
0.0019381628
1.4503134e-10
1.888117e-10
0.0046738335
5.5227608e-06
0.0046676227
2.0273321e-05
0.0046575635
2.4993317e-05
0.0046469683
2.2305977e-05
0.0046373784
1.7991195e-05
0.0046289825
1.4642859e-05
0.00462166
1.2231085e-05
0.0046153514
1.0234343e-05
0.0046100146
8.4618887e-06
0.0046055593
6.9411974e-06
0.0046018624
5.6911e-06
0.0045988056
4.6710873e-06
0.0045962916
3.8237537e-06
0.0045942417
3.1068217e-06
0.0045925899
2.4953984e-06
0.0045912791
1.9740124e-06
0.0045902583
1.5316387e-06
0.0045894818
1.1602726e-06
0.0045889072
8.5404638e-07
0.0045884958
6.0786892e-07
0.004588212
4.1620157e-07
0.0045880245
2.7246321e-07
0.0045879067
1.6916082e-07
0.0045878371
9.839291e-08
0.0045877991
5.2495309e-08
0.0045877805
2.4569476e-08
0.0045877731
8.8794776e-09
0.0045877716
1.0282373e-09
0.0045877726
-2.2522135e-09
0.0045877744
-3.0838286e-09
0.0045877762
-2.7843365e-09
0.0045877775
-2.1096849e-09
0.0045877785
-1.4255809e-09
0.0045877791
-8.7896606e-10
0.0045877794
-4.9463873e-10
0.0045877796
-2.5194958e-10
0.0045877797
-1.1010523e-10
0.0045877797
-3.6355862e-11
0.0045877798
-1.2804011e-12
0.0045877797
1.1147281e-11
0.0045877797
1.4527852e-11
0.0045877797
1.2281062e-11
0.0045877797
1.0060942e-11
0.0045877797
6.7430955e-12
0.0045877797
5.2243048e-12
0.0045877797
3.1654241e-12
0.0045877797
2.5893995e-12
0.0045877797
1.3986839e-12
0.0045877797
1.3825695e-12
0.0045877797
6.9881861e-13
0.0045877797
8.0515615e-13
0.0045877797
3.1855442e-13
0.0045877797
5.0209277e-13
0.0045877797
1.8812936e-13
0.0045877797
3.1877923e-13
0.0045877797
4.384259e-14
0.0045877797
2.1819464e-13
0.0045877797
2.9885193e-14
0.0045877797
1.5430111e-13
0.0045877797
-4.8739842e-14
0.0045877797
1.2106565e-13
0.0045877797
-2.1761089e-14
0.0045877797
9.9903735e-14
0.0045877797
-7.972341e-14
0.0045877797
9.4351308e-14
0.0045877797
-4.0469657e-14
0.0045877797
8.589884e-14
0.0045877797
-8.9649865e-14
0.0045877797
8.8012139e-14
0.0045877797
-4.3556553e-14
0.0045877797
8.5904056e-14
0.0045877797
-8.6502117e-14
0.0045877797
9.4532208e-14
0.0045877797
-3.319259e-14
0.0045877797
1.0066779e-13
0.0045877797
-6.646823e-14
0.0045877797
1.2576078e-13
0.0045877797
1.1417381e-15
0.0045877797
1.6477909e-13
0.0045877797
-5.9374608e-15
0.0045877797
2.4347223e-13
0.0045877797
1.1948004e-13
0.0045877797
3.7049774e-13
0.0045877797
1.9118868e-13
0.0045877797
6.0396344e-13
0.0045877797
4.3879482e-13
0.0045877797
1.0156955e-12
0.0045877797
8.2034444e-13
0.0045877797
1.8390696e-12
0.0045877797
1.8285887e-12
0.0045877797
3.7198531e-12
0.0045877797
4.0966984e-12
0.0045877797
8.7258656e-12
0.0045877797
1.2116847e-11
0.0045877797
2.5445696e-11
0.0045877797
3.768043e-11
0.0045877796
7.2272447e-11
0.0045877796
1.0696609e-10
0.0045877795
1.9096915e-10
2.4947917e-10
0.0063049262
3.9192931e-06
0.00630835
1.6850441e-05
0.0063105639
2.2779355e-05
0.0063109577
2.1912376e-05
0.0063101573
1.8792095e-05
0.0063086912
1.6109311e-05
0.0063068599
1.4062361e-05
0.0063048677
1.2226293e-05
0.0063028747
1.0454754e-05
0.0063009879
8.827987e-06
0.006299264
7.415056e-06
0.0062977268
6.2082844e-06
0.0062963828
5.1678511e-06
0.0062952282
4.2613912e-06
0.0062942534
3.4702653e-06
0.0062934448
2.7826651e-06
0.006292787
2.1894675e-06
0.0062922636
1.6836537e-06
0.0062918577
1.2599857e-06
0.0062915518
9.1372558e-07
0.0062913288
6.3924091e-07
0.006291172
4.2926311e-07
0.0062910662
2.749563e-07
0.0062909981
1.6652782e-07
0.0062909566
9.4060505e-08
0.0062909329
4.8335011e-08
0.0062909205
2.1359288e-08
0.0062909148
6.7861387e-09
0.0062909127
-1.8438179e-10
0.0062909125
-2.8061679e-09
0.006290913
-3.2250949e-09
0.0062909136
-2.7210415e-09
0.0062909142
-1.9717785e-09
0.0062909146
-1.2834637e-09
0.0062909149
-7.6269587e-10
0.0062909151
-4.1186271e-10
0.0062909152
-1.9843588e-10
0.0062909152
-7.9055586e-11
0.0062909152
-1.9872138e-11
0.0062909152
6.5990768e-12
0.0062909152
1.4287913e-11
0.0062909152
1.5104675e-11
0.0062909152
1.1952713e-11
0.0062909152
9.4122829e-12
0.0062909152
6.2887963e-12
0.0062909152
4.7263163e-12
0.0062909152
2.9327256e-12
0.0062909152
2.3392757e-12
0.0062909152
1.4365611e-12
0.0062909152
1.244318e-12
0.0062909152
7.6195914e-13
0.0062909152
7.0209665e-13
0.0062909152
4.5831475e-13
0.0062909152
3.9300443e-13
0.0062909152
2.8448832e-13
0.0062909152
1.8619692e-13
0.0062909152
2.0193034e-13
0.0062909152
9.0204752e-14
0.0062909152
1.3547013e-13
0.0062909152
3.289458e-14
0.0062909152
1.062842e-13
0.0062909152
3.9621546e-15
0.0062909152
7.11217e-14
0.0062909152
-1.4700183e-14
0.0062909152
7.0289139e-14
0.0062909152
-2.2621081e-14
0.0062909152
5.1754458e-14
0.0062909152
-2.8219457e-14
0.0062909152
6.1838465e-14
0.0062909152
-2.6498332e-14
0.0062909152
5.2288497e-14
0.0062909152
-2.3140066e-14
0.0062909152
7.193781e-14
0.0062909152
-1.0524122e-14
0.0062909152
7.5639877e-14
0.0062909152
9.837285e-15
0.0062909152
1.1812515e-13
0.0062909152
5.2857747e-14
0.0062909152
1.5878469e-13
0.0062909152
1.2811888e-13
0.0062909152
2.4238387e-13
0.0062909152
2.9470283e-13
0.0062909152
3.6417474e-13
0.0062909152
5.5504126e-13
0.0062909152
6.2114682e-13
0.0062909152
9.7489723e-13
0.0062909152
1.0905061e-12
0.0062909152
1.6978782e-12
0.0062909152
2.1118025e-12
0.0062909152
3.1007689e-12
0.0062909152
4.335588e-12
0.0062909152
6.1997145e-12
0.0062909152
1.093316e-11
0.0062909152
1.6550951e-11
0.0062909152
2.9831947e-11
0.0062909152
4.2922062e-11
0.0062909152
7.2849235e-11
0.0062909152
1.047152e-10
0.0062909152
1.6383398e-10
2.1209398e-10
0.0072181038
1.9194962e-06
0.0072258862
9.068876e-06
0.0072357594
1.2906088e-05
0.007244751
1.2920886e-05
0.0072521165
1.1427222e-05
0.0072581676
1.0058586e-05
0.0072632274
9.0025486e-06
0.0072674391
8.0143869e-06
0.0072708908
7.002911e-06
0.0072736903
6.0285585e-06
0.0072759548
5.1506404e-06
0.0072777856
4.3775702e-06
0.0072792605
3.6929921e-06
0.0072804393
3.0826704e-06
0.0072813702
2.5394783e-06
0.0072820935
2.0594055e-06
0.007282644
1.6390239e-06
0.0072830522
1.2755699e-06
0.0072833452
9.6697992e-07
0.0072835477
7.1126411e-07
0.0072836814
5.0559084e-07
0.0072837649
3.4578811e-07
0.0072838136
2.2635162e-07
0.0072838393
1.4083215e-07
0.007283851
8.2443032e-08
0.0072838548
4.463687e-08
0.0072838546
2.1625087e-08
0.0072838528
8.6410324e-09
0.0072838507
1.9852489e-09
0.0072838489
-9.4194963e-10
0.0072838475
-1.8165179e-09
0.0072838466
-1.7635366e-09
0.007283846
-1.367779e-09
0.0072838457
-9.3318047e-10
0.0072838455
-5.7212084e-10
0.0072838454
-3.2008413e-10
0.0072838454
-1.5785179e-10
0.0072838454
-6.7058076e-11
0.0072838454
-1.8333113e-11
0.0072838454
2.0185563e-12
0.0072838454
1.107743e-11
0.0072838454
9.9870212e-12
0.0072838454
1.0137077e-11
0.0072838454
6.1370647e-12
0.0072838454
5.7945975e-12
0.0072838454
2.6798281e-12
0.0072838454
3.1450636e-12
0.0072838454
1.0320625e-12
0.0072838454
1.8389392e-12
0.0072838454
3.0595457e-13
0.0072838454
1.2846368e-12
0.0072838454
4.2253034e-15
0.0072838454
9.6029752e-13
0.0072838454
-2.5177566e-13
0.0072838454
8.2861293e-13
0.0072838454
-3.5830366e-13
0.0072838454
7.0044168e-13
0.0072838454
-4.874017e-13
0.0072838454
6.8078051e-13
0.0072838454
-4.8841124e-13
0.0072838454
6.1141031e-13
0.0072838454
-5.6026179e-13
0.0072838454
6.2770103e-13
0.0072838454
-5.2994143e-13
0.0072838454
5.8144667e-13
0.0072838454
-5.8271144e-13
0.0072838454
6.1177295e-13
0.0072838454
-5.4095167e-13
0.0072838454
5.7529644e-13
0.0072838454
-5.8446825e-13
0.0072838454
6.144737e-13
0.0072838454
-5.3326059e-13
0.0072838454
5.8850098e-13
0.0072838454
-5.6435457e-13
0.0072838454
6.428556e-13
0.0072838454
-4.9254551e-13
0.0072838454
6.4274385e-13
0.0072838454
-4.8987249e-13
0.0072838454
7.3862513e-13
0.0072838454
-3.527377e-13
0.0072838454
8.1032526e-13
0.0072838454
-2.1231464e-13
0.0072838454
1.0519253e-12
0.0072838454
7.7999169e-14
0.0072838454
1.3992347e-12
0.0072838454
4.2785027e-13
0.0072838454
2.1033125e-12
0.0072838454
1.1314885e-12
0.0072838454
3.262542e-12
0.0072838454
2.402326e-12
0.0072838454
5.5342525e-12
0.0072838454
5.5933556e-12
0.0072838454
1.1808274e-11
0.0072838454
1.4800566e-11
0.0072838454
2.656292e-11
0.0072838454
3.2608136e-11
0.0072838455
5.227048e-11
0.0072838455
6.8366221e-11
0.0072838456
9.8722142e-11
1.2575904e-10
0.0076228797
8.28683e-12
0.0076319493
-7.0802605e-11
0.0076448553
-2.4562343e-10
0.0076577765
-2.0610209e-10
0.0076692046
5.7123783e-12
0.0076792636
1.4530144e-10
0.007688266
1.2638397e-10
0.0076962801
6.1222091e-11
0.0077032829
6.6087711e-11
0.0077093114
9.7393102e-11
0.0077144621
1.1636158e-10
0.0077188396
9.6849722e-11
0.0077225327
7.4692516e-11
0.0077256154
5.296707e-11
0.007728155
4.6069743e-11
0.0077302145
4.1029144e-11
0.0077318536
4.3524172e-11
0.0077331292
4.7390708e-11
0.0077340962
5.5858729e-11
0.0077348075
6.750494e-11
0.0077353131
8.2511367e-11
0.0077356589
1.0221974e-10
0.0077358852
1.230588e-10
0.007736026
1.464123e-10
0.0077361083
1.6617705e-10
0.0077361528
1.8639835e-10
0.0077361744
2.0092934e-10
0.0077361829
2.0429157e-10
0.0077361847
1.8438419e-10
0.0077361837
1.8546418e-10
0.0077361817
1.6453386e-10
0.0077361799
1.4143698e-10
0.0077361784
1.1504523e-10
0.0077361774
9.2460742e-11
0.0077361768
6.9858544e-11
0.0077361764
5.2777373e-11
0.0077361762
3.6627216e-11
0.0077361761
2.6389617e-11
0.0077361761
1.6581048e-11
0.0077361761
1.1673251e-11
0.0077361761
6.2434344e-12
0.0077361761
4.5517575e-12
0.0077361761
1.7510158e-12
0.0077361761
1.7729494e-12
0.0077361761
9.7240277e-14
0.0077361761
8.6399974e-13
0.0077361761
-2.4703981e-13
0.0077361761
7.1255944e-13
0.0077361761
-4.199775e-13
0.0077361761
6.7281159e-13
0.0077361761
-3.0253648e-13
0.0077361762
7.0714259e-13
0.0077361761
-4.4367274e-13
0.0077361762
6.4341005e-13
0.0077361761
-3.7152436e-13
0.0077361762
6.243705e-13
0.0077361761
-5.2656608e-13
0.0077361762
5.6551865e-13
0.0077361761
-4.3151794e-13
0.0077361762
5.7549467e-13
0.0077361761
-5.6399311e-13
0.0077361762
5.3628696e-13
0.0077361761
-4.5400376e-13
0.0077361762
5.5848769e-13
0.0077361761
-5.7627181e-13
0.0077361762
5.2760571e-13
0.0077361761
-4.5968897e-13
0.0077361762
5.5557635e-13
0.0077361761
-5.7627433e-13
0.0077361762
5.3072847e-13
0.0077361761
-4.5301861e-13
0.0077361762
5.6649564e-13
0.0077361761
-5.6000598e-13
0.0077361762
5.5386389e-13
0.0077361761
-4.2087191e-13
0.0077361762
6.1032296e-13
0.0077361761
-5.0072332e-13
0.0077361762
6.3354189e-13
0.0077361761
-3.1385707e-13
0.0077361762
7.5478368e-13
0.0077361761
-3.0914254e-13
0.0077361762
8.9893113e-13
0.0077361761
2.8415645e-14
0.0077361762
1.2081831e-12
0.0077361761
2.6056108e-13
0.0077361762
1.6408673e-12
0.0077361761
9.5977916e-13
0.0077361762
2.4250051e-12
0.0077361761
1.7631633e-12
0.0077361762
3.5962924e-12
0.0077361761
3.5462977e-12
0.0077361762
6.4548769e-12
0.0077361762
7.5520115e-12
0.0077361762
1.2004154e-11
0.0077361762
1.3641851e-11
0.0077361762
1.5718406e-11
0.0077361762
1.6920148e-11
0.0077361763
1.6109327e-11
0.0077361764
1.6391042e-11
1.7953449e-11
0.0076228784
-1.9195719e-06
0.0076319478
-9.069053e-06
0.0076448537
-1.2906065e-05
0.0076577749
-1.2920872e-05
0.007669203
-1.1427313e-05
0.0076792622
-1.005862e-05
0.0076882648
-9.0024731e-06
0.0076962789
-8.014267e-06
0.0077032817
-7.0027732e-06
0.0077093103
-6.028413e-06
0.0077144611
-5.1504893e-06
0.0077188387
-4.3774401e-06
0.0077225318
-3.6928893e-06
0.0077256146
-3.0825998e-06
0.0077281542
-2.5394245e-06
0.0077302138
-2.0593617e-06
0.0077318529
-1.6389756e-06
0.0077331286
-1.2755117e-06
0.0077340957
-9.6690232e-07
0.007734807
-7.1116134e-07
0.0077353126
-5.0545489e-07
0.0077356584
-3.4561257e-07
0.0077358848
-2.2613261e-07
0.0077360256
-1.4056774e-07
0.0077361079
-8.213988e-08
0.0077361525
-4.4298353e-08
0.0077361741
-2.1261598e-08
0.0077361826
-8.2662504e-09
0.0077361846
-1.6822656e-09
0.0077361835
1.2852351e-09
0.0077361816
2.1119175e-09
0.0077361798
2.0139436e-09
0.0077361784
1.5714414e-09
0.0077361774
1.0950085e-09
0.0077361768
6.9447036e-10
0.0077361764
4.1093995e-10
0.0077361762
2.2121358e-10
0.0077361762
1.1151199e-10
0.0077361761
4.6305089e-11
0.0077361761
1.6626171e-11
0.0077361762
-3.2517579e-13
0.0077361762
-3.5110536e-12
0.0077361762
-7.1482548e-12
0.0077361762
-4.21442e-12
0.0077361762
-5.4082399e-12
0.0077361762
-2.0334805e-12
0.0077361762
-3.1789219e-12
0.0077361762
-6.6304608e-13
0.0077361762
-1.9993627e-12
0.0077361762
2.1183246e-13
0.0077361762
-1.2809303e-12
0.0077361762
5.7062155e-13
0.0077361762
-1.1228352e-12
0.0077361762
8.3158195e-13
0.0077361762
-9.2563169e-13
0.0077361762
7.9432072e-13
0.0077361762
-9.9047029e-13
0.0077361762
9.1728187e-13
0.0077361762
-8.6538115e-13
0.0077361762
8.3614299e-13
0.0077361762
-9.6008798e-13
0.0077361762
9.402638e-13
0.0077361762
-8.4831996e-13
0.0077361762
8.4912119e-13
0.0077361762
-9.4965968e-13
0.0077361762
9.4885408e-13
0.0077361762
-8.4101873e-13
0.0077361762
8.5595103e-13
0.0077361762
-9.4240884e-13
0.0077361762
9.5729069e-13
0.0077361762
-8.3052319e-13
0.0077361762
8.6934425e-13
0.0077361762
-9.2478675e-13
0.0077361762
9.8077324e-13
0.0077361762
-7.9844191e-13
0.0077361762
9.1165753e-13
0.0077361762
-8.6790207e-13
0.0077361762
1.0557588e-12
0.0077361762
-6.9518633e-13
0.0077361762
1.0432991e-12
0.0077361762
-6.8827912e-13
0.0077361762
1.2822283e-12
0.0077361762
-3.4645187e-13
0.0077361762
1.4381578e-12
0.0077361762
-1.2352596e-13
0.0077361762
1.9918114e-12
0.0077361762
4.136261e-13
0.0077361762
2.624665e-12
0.0077361762
9.0537651e-13
0.0077361762
3.7418342e-12
0.0077361762
1.9338647e-12
0.0077361762
5.4954271e-12
0.0077361762
2.8948511e-12
0.0077361762
5.9458875e-12
0.0077361762
-1.0661123e-12
0.0077361763
-4.2604925e-12
0.0077361763
-2.1127028e-11
0.0077361763
-3.9343382e-11
0.0077361764
-6.8661683e-11
-9.4123621e-11
0.0072180997
-3.9192042e-06
0.0072258822
-1.6850313e-05
0.0072357556
-2.2779542e-05
0.0072447475
-2.1912649e-05
0.0072521129
-1.8792282e-05
0.0072581642
-1.6109389e-05
0.0072632241
-1.4062424e-05
0.0072674361
-1.222632e-05
0.0072708879
-1.0454768e-05
0.0072736876
-8.8279659e-06
0.0072759522
-7.4150425e-06
0.0072777831
-6.2082696e-06
0.0072792582
-5.1678642e-06
0.0072804371
-4.2614115e-06
0.0072813681
-3.4703012e-06
0.0072820916
-2.7826937e-06
0.0072826422
-2.1894889e-06
0.0072830505
-1.6836528e-06
0.0072833436
-1.2599605e-06
0.0072835462
-9.1367047e-07
0.00728368
-6.3915207e-07
0.0072837636
-4.2913984e-07
0.0072838124
-2.7479551e-07
0.0072838382
-1.6633599e-07
0.0072838501
-9.3832349e-08
0.0072838539
-4.8084194e-08
0.0072838539
-2.1115697e-08
0.0072838522
-6.5303342e-09
0.0072838502
4.1778284e-10
0.0072838485
3.0291712e-09
0.0072838473
3.4265552e-09
0.0072838464
2.8877243e-09
0.0072838459
2.109815e-09
0.0072838456
1.3877507e-09
0.0072838455
8.4359071e-10
0.0072838455
4.6703053e-10
0.0072838455
2.3922818e-10
0.0072838455
1.0336622e-10
0.0072838455
3.7277731e-11
0.0072838455
1.4609649e-12
0.0072838455
-7.7533331e-12
0.0072838455
-1.4336749e-11
0.0072838456
-9.8096864e-12
0.0072838455
-1.0948489e-11
0.0072838456
-5.2508223e-12
0.0072838456
-6.3565894e-12
0.0072838456
-2.0345468e-12
0.0072838456
-3.7841557e-12
0.0072838456
-4.3504445e-13
0.0072838456
-2.3086861e-12
0.0072838456
4.1958897e-13
0.0072838456
-1.839699e-12
0.0072838456
8.9796267e-13
0.0072838456
-1.4529472e-12
0.0072838456
1.0613488e-12
0.0072838456
-1.4749582e-12
0.0072838456
1.1684129e-12
0.0072838456
-1.2715389e-12
0.0072838456
1.1987295e-12
0.0072838456
-1.3786781e-12
0.0072838456
1.242678e-12
0.0072838456
-1.2162788e-12
0.0072838456
1.2400727e-12
0.0072838456
-1.3473519e-12
0.0072838456
1.2673174e-12
0.0072838456
-1.1972732e-12
0.0072838456
1.2549188e-12
0.0072838456
-1.334948e-12
0.0072838456
1.2786268e-12
0.0072838456
-1.1862644e-12
0.0072838456
1.2664266e-12
0.0072838456
-1.3216267e-12
0.0072838456
1.2950995e-12
0.0072838456
-1.165112e-12
0.0072838456
1.293637e-12
0.0072838456
-1.2853234e-12
0.0072838456
1.343215e-12
0.0072838456
-1.1002509e-12
0.0072838456
1.3763349e-12
0.0072838456
-1.1736618e-12
0.0072838456
1.4868452e-12
0.0072838456
-8.9891186e-13
0.0072838456
1.6255304e-12
0.0072838456
-8.266735e-13
0.0072838456
1.8868547e-12
0.0072838456
-2.9252747e-13
0.0072838456
2.228919e-12
0.0072838456
6.3145105e-14
0.0072838456
2.7316652e-12
0.0072838456
7.5255806e-13
0.0072838456
3.2055678e-12
0.0072838456
1.070172e-12
0.0072838456
1.5946694e-12
0.0072838456
-3.0719599e-12
0.0072838456
-1.0081858e-11
0.0072838456
-2.2734965e-11
0.0072838456
-4.996794e-11
0.0072838457
-8.3379538e-11
0.0072838457
-1.4276188e-10
-1.9112897e-10
0.0063049219
-5.5227201e-06
0.0063083456
-2.0273179e-05
0.0063105597
-2.4993328e-05
0.0063109536
-2.2306232e-05
0.0063101533
-1.7991542e-05
0.0063086873
-1.4643114e-05
0.006306856
-1.2231214e-05
0.006304864
-1.0234393e-05
0.0063028711
-8.461929e-06
0.0063009845
-6.9412367e-06
0.0062992607
-5.6911383e-06
0.0062977237
-4.6711169e-06
0.0062963797
-3.8237889e-06
0.0062952253
-3.1068636e-06
0.0062942507
-2.4954483e-06
0.0062934422
-1.9740586e-06
0.0062927845
-1.5316746e-06
0.0062922613
-1.1602911e-06
0.0062918556
-8.5404383e-07
0.0062915499
-6.0784428e-07
0.006291327
-4.1615299e-07
0.0062911704
-2.7239311e-07
0.0062910647
-1.6906838e-07
0.0062909968
-9.8281802e-08
0.0062909555
-5.2371147e-08
0.0062909319
-2.4437885e-08
0.0062909197
-8.7443651e-09
0.0062909141
-9.0214051e-10
0.0062909122
2.3711961e-09
0.0062909122
3.1924658e-09
0.0062909127
2.880732e-09
0.0062909135
2.1891872e-09
0.0062909141
1.4896507e-09
0.0062909146
9.265162e-10
0.006290915
5.2970348e-10
0.0062909152
2.7517962e-10
0.0062909153
1.2600288e-10
0.0062909154
4.5033501e-11
0.0062909154
6.5414e-12
0.0062909154
-9.5605337e-12
0.0062909154
-1.3601525e-11
0.0062909154
-1.3311948e-11
0.0062909154
-1.0624608e-11
0.0062909154
-8.1916713e-12
0.0062909154
-5.5963579e-12
0.0062909154
-4.29168e-12
0.0062909154
-2.79402e-12
0.0062909154
-2.1441511e-12
0.0062909154
-1.1810441e-12
0.0062909154
-1.1502022e-12
0.0062909154
-5.9883623e-13
0.0062909154
-6.4676581e-13
0.0062909154
-7.6387218e-14
0.0062909154
-4.5634678e-13
0.0062909154
-4.5919617e-14
0.0062909154
-3.2538547e-13
0.0062909154
1.4434671e-13
0.0062909154
-2.755936e-13
0.0062909154
8.1735035e-14
0.0062909154
-2.3209465e-13
0.0062909154
2.1459175e-13
0.0062909154
-2.1828244e-13
0.0062909154
1.1744237e-13
0.0062909154
-2.0044169e-13
0.0062909154
2.395728e-13
0.0062909154
-1.991711e-13
0.0062909154
1.3070233e-13
0.0062909154
-1.8870658e-13
0.0062909154
2.5033216e-13
0.0062909154
-1.8953722e-13
0.0062909154
1.3935348e-13
0.0062909154
-1.7877502e-13
0.0062909154
2.6326725e-13
0.0062909154
-1.74098e-13
0.0062909154
1.5786207e-13
0.0062909154
-1.5409571e-13
0.0062909154
3.0016912e-13
0.0062909154
-1.297625e-13
0.0062909154
2.1530647e-13
0.0062909154
-8.6857791e-14
0.0062909154
4.09488e-13
0.0062909154
-1.2855414e-14
0.0062909154
3.756805e-13
0.0062909154
1.4329381e-13
0.0062909154
6.712894e-13
0.0062909154
3.8392778e-13
0.0062909154
7.37284e-13
0.0062909154
7.2826002e-13
0.0062909154
1.140509e-12
0.0062909154
1.1027784e-12
0.0062909154
9.536349e-13
0.0062909154
6.0503008e-13
0.0062909154
-1.9452105e-12
0.0062909154
-5.6239165e-12
0.0062909154
-1.5740231e-11
0.0062909154
-2.5849712e-11
0.0062909154
-6.1288328e-11
0.0062909154
-9.6181162e-11
0.0062909155
-1.8166388e-10
-2.4122857e-10
0.0046738305
-4.8151701e-06
0.0046676193
-1.406046e-05
0.0046575604
-1.4933693e-05
0.0046469653
-1.1710887e-05
0.0046373753
-8.4013363e-06
0.0046289793
-6.2469416e-06
0.0046216569
-4.9086844e-06
0.0046153483
-3.9257699e-06
0.0046100116
-3.1251132e-06
0.0046055564
-2.4858684e-06
0.0046018596
-1.9941124e-06
0.0045988029
-1.6141597e-06
0.004596289
-1.3095669e-06
0.0045942392
-1.0568041e-06
0.0045925877
-8.4355206e-07
0.0045912769
-6.6304493e-07
0.0045902563
-5.1079089e-07
0.00458948
-3.8367388e-07
0.0045889056
-2.7949302e-07
0.0045884943
-1.9639055e-07
0.0045882107
-1.3233399e-07
0.0045880233
-8.4887337e-08
0.0045879056
-5.1289473e-08
0.0045878362
-2.8689382e-08
0.0045877983
-1.4377584e-08
0.0045877799
-5.9305101e-09
0.0045877726
-1.3405567e-09
0.0045877712
6.0201154e-10
0.0045877723
1.3183594e-09
0.0045877742
1.3558744e-09
0.0045877761
1.103746e-09
0.0045877775
7.9158662e-10
0.0045877785
5.1197098e-10
0.0045877792
3.0641554e-10
0.0045877795
1.6467518e-10
0.0045877798
8.1021455e-11
0.0045877799
3.087517e-11
0.0045877799
7.7550511e-12
0.0045877799
-4.0945463e-12
0.0045877799
-5.8789785e-12
0.0045877799
-8.1358687e-12
0.0045877799
-5.0963831e-12
0.0045877799
-5.6653785e-12
0.0045877799
-2.4388935e-12
0.0045877799
-3.3728738e-12
0.0045877799
-8.7884453e-13
0.0045877799
-2.0546452e-12
0.0045877799
5.7990633e-15
0.0045877799
-1.4233887e-12
0.0045877799
3.8652765e-13
0.0045877799
-1.1513485e-12
0.0045877799
7.0021608e-13
0.0045877799
-1.0013708e-12
0.0045877799
7.0628927e-13
0.0045877799
-9.4611604e-13
0.0045877799
8.461116e-13
0.0045877799
-9.0151433e-13
0.0045877799
7.8387233e-13
0.0045877799
-8.9161635e-13
0.0045877799
8.8753598e-13
0.0045877799
-8.7061807e-13
0.0045877799
8.074933e-13
0.0045877799
-8.7498555e-13
0.0045877799
9.0095344e-13
0.0045877799
-8.6013455e-13
0.0045877799
8.1541199e-13
0.0045877799
-8.6909491e-13
0.0045877799
9.0592032e-13
0.0045877799
-8.5580416e-13
0.0045877799
8.1920158e-13
0.0045877799
-8.655336e-13
0.0045877799
9.0997507e-13
0.0045877799
-8.5068868e-13
0.0045877799
8.2558296e-13
0.0045877799
-8.5739332e-13
0.0045877799
9.2094978e-13
0.0045877799
-8.359622e-13
0.0045877799
8.4357909e-13
0.0045877799
-8.3499175e-13
0.0045877799
9.4962226e-13
0.0045877799
-7.9560382e-13
0.0045877799
8.9383205e-13
0.0045877799
-7.667036e-13
0.0045877799
1.0381001e-12
0.0045877799
-6.8270955e-13
0.0045877799
1.0374233e-12
0.0045877799
-6.0778858e-13
0.0045877799
1.2425862e-12
0.0045877799
-4.3206302e-13
0.0045877799
1.3568463e-12
0.0045877799
-6.0878187e-13
0.0045877799
7.3747894e-13
0.0045877799
-3.3805839e-12
0.0045877799
-3.5088858e-12
0.0045877799
-1.0648429e-11
0.0045877799
-1.6967287e-11
0.0045877798
-3.9809417e-11
0.0045877798
-6.2253386e-11
0.0045877798
-1.4437753e-10
-1.8886791e-10
0.0020171229
0.0020030629
0.0019881293
0.0019764185
0.0019680173
0.0019617705
0.0019568618
0.0019529361
0.0019498111
0.0019473254
0.0019453314
0.0019437174
0.001942408
0.0019413514
0.001940508
0.0019398452
0.0019393345
0.0019389509
0.0019386715
0.0019384752
0.001938343
0.0019382581
0.0019382069
0.0019381783
0.001938164
0.0019381581
0.0019381568
0.0019381574
0.0019381588
0.0019381602
0.0019381613
0.0019381621
0.0019381626
0.0019381629
0.0019381631
0.0019381632
0.0019381632
0.0019381632
0.0019381632
0.0019381632
0.0019381632
0.0019381632
0.0019381632
0.0019381632
0.0019381632
0.0019381632
0.0019381632
0.0019381632
0.0019381632
0.0019381632
0.0019381632
0.0019381632
0.0019381632
0.0019381632
0.0019381632
0.0019381632
0.0019381632
0.0019381632
0.0019381632
0.0019381632
0.0019381632
0.0019381632
0.0019381632
0.0019381632
0.0019381632
0.0019381632
0.0019381632
0.0019381632
0.0019381632
0.0019381632
0.0019381632
0.0019381632
0.0019381632
0.0019381632
0.0019381632
0.0019381632
0.0019381632
0.0019381632
0.0019381632
0.0019381632
0.0019381632
0.0019381632
0.0019381632
0.0019381632
0.0019381632
0.0019381632
0.0019381632
0.0019381632
0.0019381632
0.0019381632
0.0019381632
0.0019381632
0.0019381632
0.0019381632
0.0019381632
0.0019381632
0.0019381631
0.0019381631
0.0019381629
)
;

boundaryField
{
    top
    {
        type            calculated;
        value           uniform 0;
    }
    inlet
    {
        type            calculated;
        value           nonuniform List<scalar> 10(-0.0020219369 -0.0046745393 -0.006303321 -0.0072161027 -0.0076209589 -0.0076209575 -0.0072160988 -0.0063033168 -0.0046745364 -0.002021937);
    }
    outlet
    {
        type            calculated;
        value           nonuniform List<scalar> 10(0.0019381626 0.0045877795 0.0062909153 0.0072838456 0.0077361765 0.0077361765 0.0072838458 0.0062909155 0.0045877797 0.0019381627);
    }
    bottom
    {
        type            calculated;
        value           uniform 0;
    }
    back
    {
        type            empty;
        value           nonuniform 0();
    }
    front
    {
        type            empty;
        value           nonuniform 0();
    }
}


// ************************************************************************* //
