/*--------------------------------*- C++ -*----------------------------------*\
| =========                 |                                                 |
| \\      /  F ield         | OpenFOAM: The Open Source CFD Toolbox           |
|  \\    /   O peration     | Version:  4.1                                   |
|   \\  /    A nd           | Web:      www.OpenFOAM.org                      |
|    \\/     M anipulation  |                                                 |
\*---------------------------------------------------------------------------*/
FoamFile
{
    version     2.0;
    format      ascii;
    class       volVectorField;
    location    "6";
    object      U;
}
// * * * * * * * * * * * * * * * * * * * * * * * * * * * * * * * * * * * * * //

dimensions      [0 1 -1 0 0 0 0];

internalField   nonuniform List<vector> 
1000
(
(0.20924663 0.00036637288 0)
(0.20839915 0.00092688577 0)
(0.20669984 0.00089154467 0)
(0.20521759 0.0006025151 0)
(0.20417032 0.00036691539 0)
(0.20342868 0.00024235311 0)
(0.20286147 0.00017878588 0)
(0.20240796 0.00013624758 0)
(0.20204503 0.00010324947 0)
(0.20175673 7.8963729e-05 0)
(0.20152694 6.2063213e-05 0)
(0.20134185 4.9916426e-05 0)
(0.20119174 4.0399517e-05 0)
(0.20107018 3.2467652e-05 0)
(0.20097257 2.5735237e-05 0)
(0.20089525 2.0029459e-05 0)
(0.20083507 1.5227861e-05 0)
(0.2007893 1.1241277e-05 0)
(0.20075544 8.008029e-06 0)
(0.20073122 5.4709518e-06 0)
(0.20071456 3.5592127e-06 0)
(0.20070361 2.1845979e-06 0)
(0.20069678 1.2478363e-06 0)
(0.20069282 6.4717374e-07 0)
(0.20069071 2.8805016e-07 0)
(0.20068974 9.2239702e-08 0)
(0.20068941 -3.3232148e-09 0)
(0.2006894 -4.7995708e-08 0)
(0.20068952 -5.7493172e-08 0)
(0.20068966 -4.9371791e-08 0)
(0.20068979 -3.6359524e-08 0)
(0.20068989 -2.3993604e-08 0)
(0.20068995 -1.4474161e-08 0)
(0.20068999 -7.8766709e-09 0)
(0.20069002 -3.8475102e-09 0)
(0.20069003 -1.5079583e-09 0)
(0.20069004 -3.858503e-10 0)
(0.20069004 1.7235502e-10 0)
(0.20069004 3.2000063e-10 0)
(0.20069004 3.7370272e-10 0)
(0.20069004 2.7381334e-10 0)
(0.20069004 2.4442261e-10 0)
(0.20069004 1.3798558e-10 0)
(0.20069004 1.3152391e-10 0)
(0.20069004 5.4164612e-11 0)
(0.20069004 7.4946575e-11 0)
(0.20069004 1.2232746e-11 0)
(0.20069003 4.631719e-11 0)
(0.20069003 -7.8259178e-12 0)
(0.20069003 3.5591796e-11 0)
(0.20069003 -1.6760587e-11 0)
(0.20069003 2.971737e-11 0)
(0.20069003 -1.9044422e-11 0)
(0.20069003 2.917979e-11 0)
(0.20069003 -2.1075969e-11 0)
(0.20069003 2.6508627e-11 0)
(0.20069003 -2.2132482e-11 0)
(0.20069003 2.6645955e-11 0)
(0.20069003 -2.3493749e-11 0)
(0.20069003 2.4616365e-11 0)
(0.20069003 -2.3820212e-11 0)
(0.20069003 2.5490916e-11 0)
(0.20069003 -2.4391271e-11 0)
(0.20069003 2.4080427e-11 0)
(0.20069003 -2.4175346e-11 0)
(0.20069003 2.5259355e-11 0)
(0.20069003 -2.4546486e-11 0)
(0.20069003 2.3979144e-11 0)
(0.20069003 -2.4236725e-11 0)
(0.20069003 2.5232326e-11 0)
(0.20069003 -2.4542213e-11 0)
(0.20069003 2.4013295e-11 0)
(0.20069003 -2.4169564e-11 0)
(0.20069003 2.5336373e-11 0)
(0.20069003 -2.4394068e-11 0)
(0.20069003 2.4240588e-11 0)
(0.20069003 -2.3772285e-11 0)
(0.20069003 2.5916564e-11 0)
(0.20069003 -2.3386267e-11 0)
(0.20069003 2.5529378e-11 0)
(0.20069003 -2.1828152e-11 0)
(0.20069003 2.8180511e-11 0)
(0.20069003 -2.0700654e-11 0)
(0.20069003 2.8103285e-11 0)
(0.20069003 -1.8771965e-11 0)
(0.20069003 3.1874266e-11 0)
(0.20069003 -1.3528087e-11 0)
(0.20069003 3.932289e-11 0)
(0.20069003 5.8792101e-12 0)
(0.20069003 6.6614243e-11 0)
(0.20069003 5.6341891e-11 0)
(0.20069003 1.3602327e-10 0)
(0.20069003 1.9298588e-10 0)
(0.20069003 3.7328867e-10 0)
(0.20069003 7.3925769e-10 0)
(0.20069003 1.3361678e-09 0)
(0.20069003 2.6088779e-09 0)
(0.20069002 4.3217973e-09 0)
(0.20069001 9.1994839e-09 0)
(0.20068999 1.1562789e-08 0)
(0.48376597 0.00052053944 0)
(0.48439881 0.0018766444 0)
(0.4831348 0.0022720427 0)
(0.48171203 0.0019458064 0)
(0.48061044 0.0014794723 0)
(0.47971991 0.001133735 0)
(0.47892701 0.0009032741 0)
(0.47821845 0.00072870622 0)
(0.47761005 0.0005837411 0)
(0.47710264 0.00046571622 0)
(0.47668302 0.00037338919 0)
(0.47633588 0.00030135842 0)
(0.4760493 0.00024350846 0)
(0.47581445 0.00019564206 0)
(0.4756241 0.00015544688 0)
(0.47547193 0.00012159586 0)
(0.47535233 9.3198743e-05 0)
(0.47526028 6.9627055e-05 0)
(0.47519125 5.0426869e-05 0)
(0.47514102 3.5208918e-05 0)
(0.47510575 2.3556854e-05 0)
(0.47508196 1.4989847e-05 0)
(0.47506666 8.9763571e-06 0)
(0.47505735 4.9717162e-06 0)
(0.47505206 2.4623409e-06 0)
(0.47504934 1.0029923e-06 0)
(0.47504813 2.318139e-07 0)
(0.47504775 -1.2543092e-07 0)
(0.47504777 -2.4490562e-07 0)
(0.47504794 -2.4372774e-07 0)
(0.47504814 -1.9476854e-07 0)
(0.4750483 -1.3699312e-07 0)
(0.47504842 -8.7499703e-08 0)
(0.4750485 -5.1114613e-08 0)
(0.47504855 -2.7175799e-08 0)
(0.47504857 -1.2738722e-08 0)
(0.47504859 -4.8613131e-09 0)
(0.47504859 -9.4107385e-10 0)
(0.47504859 6.8723216e-10 0)
(0.4750486 1.2027014e-09 0)
(0.47504859 1.1405476e-09 0)
(0.47504859 9.4807296e-10 0)
(0.47504859 6.783614e-10 0)
(0.47504859 4.9911125e-10 0)
(0.47504859 3.2369321e-10 0)
(0.47504859 2.4581596e-10 0)
(0.47504859 1.4623235e-10 0)
(0.47504859 1.2100862e-10 0)
(0.47504859 6.5050068e-11 0)
(0.47504859 7.0056596e-11 0)
(0.47504859 2.8298236e-11 0)
(0.47504859 3.8409627e-11 0)
(0.47504859 9.8535498e-12 0)
(0.47504859 2.8849142e-11 0)
(0.47504859 1.0179279e-12 0)
(0.47504859 1.6294718e-11 0)
(0.47504859 -4.4759515e-12 0)
(0.47504859 1.7172521e-11 0)
(0.47504859 -6.0759516e-12 0)
(0.47504859 1.0962114e-11 0)
(0.47504859 -7.901067e-12 0)
(0.47504859 1.4232563e-11 0)
(0.47504859 -8.3081693e-12 0)
(0.47504859 9.0905393e-12 0)
(0.47504859 -9.3711023e-12 0)
(0.47504859 1.308115e-11 0)
(0.47504859 -9.1637308e-12 0)
(0.47504859 8.4909235e-12 0)
(0.47504859 -9.7477902e-12 0)
(0.47504859 1.2906135e-11 0)
(0.47504859 -9.1476353e-12 0)
(0.47504859 8.6987603e-12 0)
(0.47504859 -9.3340857e-12 0)
(0.47504859 1.3552998e-11 0)
(0.47504859 -8.2370829e-12 0)
(0.47504859 9.9232412e-12 0)
(0.47504859 -7.8272358e-12 0)
(0.47504859 1.5603427e-11 0)
(0.47504859 -5.9690431e-12 0)
(0.47504859 1.3339244e-11 0)
(0.47504859 -3.9489491e-12 0)
(0.47504859 2.2537492e-11 0)
(0.47504859 2.492001e-12 0)
(0.47504859 2.7649918e-11 0)
(0.47504859 1.3865075e-11 0)
(0.47504859 4.9905924e-11 0)
(0.47504859 3.9721854e-11 0)
(0.47504859 7.9892467e-11 0)
(0.47504859 9.654803e-11 0)
(0.47504859 1.6122562e-10 0)
(0.47504859 2.3866922e-10 0)
(0.47504859 3.4492397e-10 0)
(0.47504859 6.1878656e-10 0)
(0.47504859 9.4873578e-10 0)
(0.47504859 1.9376901e-09 0)
(0.47504859 3.0403658e-09 0)
(0.47504858 6.0057716e-09 0)
(0.47504859 8.9658498e-09 0)
(0.47504856 1.7898731e-08 0)
(0.47504858 2.4338645e-08 0)
(0.65220229 0.00042498256 0)
(0.65419346 0.0018461195 0)
(0.65390529 0.0025327782 0)
(0.65343917 0.0024564652 0)
(0.65331825 0.0021009536 0)
(0.65329563 0.0017720429 0)
(0.65317954 0.0015175045 0)
(0.65297576 0.001298494 0)
(0.65275038 0.0010954897 0)
(0.65254066 0.00091306153 0)
(0.65235299 0.0007571382 0)
(0.65218488 0.00062642658 0)
(0.65203561 0.00051599672 0)
(0.65190582 0.00042151781 0)
(0.65179544 0.00034026487 0)
(0.6517033 0.00027050646 0)
(0.65162768 0.00021098197 0)
(0.65156684 0.00016074674 0)
(0.65151903 0.00011909143 0)
(0.65148248 8.5394996e-05 0)
(0.65145539 5.8973683e-05 0)
(0.651436 3.9001748e-05 0)
(0.65142265 2.4519103e-05 0)
(0.65141386 1.4495496e-05 0)
(0.65140836 7.9148365e-06 0)
(0.65140512 3.850774e-06 0)
(0.65140335 1.5222581e-06 0)
(0.65140248 3.207793e-07 0)
(0.65140213 -2.0796599e-07 0)
(0.65140204 -3.7184624e-07 0)
(0.65140207 -3.5997117e-07 0)
(0.65140213 -2.8253765e-07 0)
(0.6514022 -1.9574511e-07 0)
(0.65140225 -1.2319655e-07 0)
(0.65140229 -7.0930823e-08 0)
(0.65140231 -3.7066213e-08 0)
(0.65140232 -1.7007813e-08 0)
(0.65140233 -6.2026371e-09 0)
(0.65140233 -1.0102738e-09 0)
(0.65140234 1.0857061e-09 0)
(0.65140234 1.662772e-09 0)
(0.65140234 1.5514523e-09 0)
(0.65140234 1.2429224e-09 0)
(0.65140234 9.0260072e-10 0)
(0.65140234 6.4410247e-10 0)
(0.65140234 4.3860918e-10 0)
(0.65140234 3.0782413e-10 0)
(0.65140234 2.0744645e-10 0)
(0.65140234 1.5618542e-10 0)
(0.65140234 1.1051316e-10 0)
(0.65140234 8.6649598e-11 0)
(0.65140234 5.8921424e-11 0)
(0.65140234 5.1542659e-11 0)
(0.65140234 3.5858502e-11 0)
(0.65140234 3.0408496e-11 0)
(0.65140234 1.7360235e-11 0)
(0.65140234 1.9581824e-11 0)
(0.65140234 1.1471997e-11 0)
(0.65140234 1.171483e-11 0)
(0.65140234 3.0135407e-12 0)
(0.65140234 8.9060534e-12 0)
(0.65140234 3.450779e-12 0)
(0.65140234 5.8594432e-12 0)
(0.65140234 -1.5418845e-12 0)
(0.65140234 5.4098902e-12 0)
(0.65140234 7.7361535e-13 0)
(0.65140234 3.8744863e-12 0)
(0.65140234 -2.9493082e-12 0)
(0.65140234 4.5070645e-12 0)
(0.65140234 3.2690476e-13 0)
(0.65140234 3.8618814e-12 0)
(0.65140234 -2.5181121e-12 0)
(0.65140234 5.4166609e-12 0)
(0.65140234 1.7908079e-12 0)
(0.65140234 5.9847386e-12 0)
(0.65140234 4.6811338e-13 0)
(0.65140234 9.3796122e-12 0)
(0.65140234 7.3018042e-12 0)
(0.65140234 1.3285471e-11 0)
(0.65140234 1.0596232e-11 0)
(0.65140234 2.3054787e-11 0)
(0.65140234 2.4958169e-11 0)
(0.65140234 3.6987124e-11 0)
(0.65140234 3.9653462e-11 0)
(0.65140234 6.3770235e-11 0)
(0.65140234 7.4866076e-11 0)
(0.65140234 1.1095279e-10 0)
(0.65140234 1.2969251e-10 0)
(0.65140234 2.0693825e-10 0)
(0.65140234 2.5319099e-10 0)
(0.65140234 4.2176616e-10 0)
(0.65140234 5.2486923e-10 0)
(0.65140233 1.0006828e-09 0)
(0.65140234 1.4365001e-09 0)
(0.65140233 2.7915982e-09 0)
(0.65140234 4.0435084e-09 0)
(0.65140233 7.3545046e-09 0)
(0.65140234 1.0757304e-08 0)
(0.65140231 1.8178551e-08 0)
(0.65140236 2.4508373e-08 0)
(0.74653095 0.00026000269 0)
(0.74928225 0.0012521814 0)
(0.74951003 0.0018284107 0)
(0.7496646 0.001873548 0)
(0.75035296 0.0016825769 0)
(0.7511943 0.0014810876 0)
(0.7518715 0.0013178358 0)
(0.75235528 0.0011686712 0)
(0.75272543 0.0010195819 0)
(0.75303446 0.00087615114 0)
(0.75329467 0.00074634348 0)
(0.75350716 0.00063212787 0)
(0.75367702 0.00053159376 0)
(0.75381223 0.00044255648 0)
(0.75391967 0.00036370429 0)
(0.75400412 0.00029426929 0)
(0.75406915 0.00023366715 0)
(0.75411793 0.00018143399 0)
(0.7541534 0.00013721395 0)
(0.7541783 0.00010066868 0)
(0.75419503 7.1352663e-05 0)
(0.7542057 4.8637501e-05 0)
(0.75421207 3.1710513e-05 0)
(0.75421555 1.9630633e-05 0)
(0.75421721 1.141379e-05 0)
(0.75421782 6.1175179e-06 0)
(0.75421788 2.910994e-06 0)
(0.75421771 1.1145807e-06 0)
(0.75421746 2.1018295e-07 0)
(0.75421724 -1.7275708e-07 0)
(0.75421707 -2.8179117e-07 0)
(0.75421695 -2.6447736e-07 0)
(0.75421688 -2.0274898e-07 0)
(0.75421683 -1.3748492e-07 0)
(0.75421681 -8.4465662e-08 0)
(0.7542168 -4.7363338e-08 0)
(0.75421679 -2.3777493e-08 0)
(0.75421679 -1.0307241e-08 0)
(0.75421679 -3.1735365e-09 0)
(0.75421679 -3.5561488e-11 0)
(0.75421679 1.2117232e-09 0)
(0.75421679 1.3455346e-09 0)
(0.75421679 1.2421482e-09 0)
(0.75421679 8.9017474e-10 0)
(0.75421679 7.0672534e-10 0)
(0.75421679 4.2864821e-10 0)
(0.75421679 3.5986032e-10 0)
(0.75421679 1.8621313e-10 0)
(0.75421679 1.9492787e-10 0)
(0.75421679 7.3369583e-11 0)
(0.75421679 1.1905648e-10 0)
(0.75421679 2.4557342e-11 0)
(0.75421679 8.3272679e-11 0)
(0.75421679 -2.316048e-12 0)
(0.75421679 6.34079e-11 0)
(0.75421679 -1.3914097e-11 0)
(0.75421679 5.2798868e-11 0)
(0.75421679 -2.4048125e-11 0)
(0.75421679 4.5121171e-11 0)
(0.75421679 -2.7902084e-11 0)
(0.75421679 4.148225e-11 0)
(0.75421679 -3.2361026e-11 0)
(0.75421679 3.8854922e-11 0)
(0.75421679 -3.2462215e-11 0)
(0.75421679 3.8105639e-11 0)
(0.75421679 -3.4828723e-11 0)
(0.75421679 3.7067339e-11 0)
(0.75421679 -3.3696134e-11 0)
(0.75421679 3.7341556e-11 0)
(0.75421679 -3.5170191e-11 0)
(0.75421679 3.713658e-11 0)
(0.75421679 -3.3204511e-11 0)
(0.75421679 3.8312049e-11 0)
(0.75421679 -3.3642262e-11 0)
(0.75421679 3.9387187e-11 0)
(0.75421679 -3.008104e-11 0)
(0.75421679 4.2792559e-11 0)
(0.75421679 -2.7688574e-11 0)
(0.75421679 4.8121689e-11 0)
(0.75421679 -1.9158856e-11 0)
(0.75421679 5.8857502e-11 0)
(0.75421679 -8.7520229e-12 0)
(0.75421679 7.5981656e-11 0)
(0.75421679 1.5331558e-11 0)
(0.75421679 1.084441e-10 0)
(0.75421679 5.4967281e-11 0)
(0.75421679 1.6721595e-10 0)
(0.75421679 1.3137412e-10 0)
(0.75421679 2.8100242e-10 0)
(0.75421679 2.7170902e-10 0)
(0.75421679 5.1132751e-10 0)
(0.75421679 5.875246e-10 0)
(0.75421679 1.1458809e-09 0)
(0.7542168 1.559791e-09 0)
(0.75421679 2.839304e-09 0)
(0.7542168 3.8233944e-09 0)
(0.75421679 6.3163457e-09 0)
(0.75421681 8.85406e-09 0)
(0.75421677 1.3439296e-08 0)
(0.75421683 1.7628078e-08 0)
(0.78835105 8.6015815e-05 0)
(0.79142866 0.00043469081 0)
(0.79183025 0.00065198125 0)
(0.79221825 0.00068289188 0)
(0.79327632 0.00062451111 0)
(0.79456201 0.00055874718 0)
(0.79568161 0.00050527727 0)
(0.79657562 0.00045548708 0)
(0.79732382 0.00040379332 0)
(0.79798151 0.00035227452 0)
(0.79855871 0.00030430429 0)
(0.79905344 0.0002610606 0)
(0.7994701 0.00022215409 0)
(0.79981818 0.0001870058 0)
(0.80010678 0.00015532242 0)
(0.80034305 0.00012698137 0)
(0.80053297 0.00010189291 0)
(0.80068232 7.9982491e-05 0)
(0.80079687 6.1195507e-05 0)
(0.80088225 4.5469362e-05 0)
(0.80094386 3.268623e-05 0)
(0.80098668 2.2642166e-05 0)
(0.80101521 1.5044187e-05 0)
(0.80103332 9.5316558e-06 0)
(0.80104417 5.7111368e-06 0)
(0.80105022 3.1942603e-06 0)
(0.80105328 1.6290088e-06 0)
(0.8010546 7.1829795e-07 0)
(0.80105499 2.3311356e-07 0)
(0.80105495 9.1980625e-09 0)
(0.80105475 -7.5060853e-08 0)
(0.80105454 -8.959569e-08 0)
(0.80105436 -7.5115646e-08 0)
(0.80105423 -5.3218847e-08 0)
(0.80105415 -3.3407192e-08 0)
(0.8010541 -1.8798453e-08 0)
(0.80105408 -9.2788219e-09 0)
(0.80105406 -3.7683015e-09 0)
(0.80105406 -8.6741256e-10 0)
(0.80105406 3.674617e-10 0)
(0.80105406 7.8097571e-10 1.8740221e-33)
(0.80105406 7.6432185e-10 0)
(0.80105406 6.4771318e-10 0)
(0.80105406 4.6304098e-10 0)
(0.80105406 3.3883072e-10 0)
(0.80105406 2.1062522e-10 0)
(0.80105406 1.6964268e-10 0)
(0.80105406 9.4212362e-11 0)
(0.80105406 8.6951799e-11 0)
(0.80105406 3.5529454e-11 0)
(0.80105406 5.9012652e-11 0)
(0.80105406 1.7893608e-11 0)
(0.80105406 3.7490476e-11 0)
(0.80105406 -4.5981272e-13 0)
(0.80105406 3.3079628e-11 0)
(0.80105406 -3.459046e-12 0)
(0.80105406 2.1663558e-11 0)
(0.80105406 -1.2688454e-11 0)
(0.80105406 2.4286654e-11 0)
(0.80105406 -9.9870488e-12 0)
(0.80105406 1.6805065e-11 0)
(0.80105406 -1.6478311e-11 0)
(0.80105406 2.1293669e-11 0)
(0.80105406 -1.225226e-11 0)
(0.80105406 1.508881e-11 0)
(0.80105406 -1.7746572e-11 0)
(0.80105406 2.0392953e-11 0)
(0.80105406 -1.2821611e-11 0)
(0.80105406 1.4829829e-11 0)
(0.80105406 -1.7694978e-11 0)
(0.80105406 2.0780459e-11 0)
(0.80105406 -1.2058738e-11 0)
(0.80105406 1.6053845e-11 0)
(0.80105406 -1.5904364e-11 0)
(0.80105406 2.3331903e-11 0)
(0.80105406 -8.5892024e-12 0)
(0.80105406 2.0822904e-11 0)
(0.80105406 -9.617404e-12 0)
(0.80105406 3.1808209e-11 0)
(0.80105406 2.3943329e-12 0)
(0.80105406 3.5556492e-11 0)
(0.80105406 1.0698219e-11 0)
(0.80105406 6.0231507e-11 0)
(0.80105406 4.332003e-11 0)
(0.80105406 8.9857698e-11 0)
(0.80105406 8.6727632e-11 0)
(0.80105406 1.5607078e-10 0)
(0.80105406 1.7298091e-10 0)
(0.80105406 2.5726995e-10 0)
(0.80105406 3.0430445e-10 0)
(0.80105406 4.5321366e-10 0)
(0.80105406 6.0879952e-10 0)
(0.80105406 9.6719247e-10 2.9527654e-35)
(0.80105407 1.3471611e-09 0)
(0.80105406 2.0348816e-09 0)
(0.80105407 2.4909707e-09 8.8582947e-36)
(0.80105406 3.5276471e-09 0)
(0.80105408 4.3711264e-09 0)
(0.80105405 5.9147837e-09 0)
(0.80105411 7.4592184e-09 0)
(0.78835091 -8.6016741e-05 0)
(0.79142854 -0.00043470692 0)
(0.79183009 -0.00065201486 0)
(0.79221805 -0.00068292319 0)
(0.79327616 -0.00062451344 0)
(0.79456187 -0.00055872792 0)
(0.79568148 -0.00050525517 0)
(0.79657549 -0.00045547158 0)
(0.7973237 -0.0004037778 0)
(0.79798139 -0.00035225568 0)
(0.7985586 -0.00030428273 0)
(0.79905334 -0.00026104162 0)
(0.79947001 -0.00022213886 0)
(0.79981809 -0.00018699468 0)
(0.8001067 -0.00015531323 0)
(0.80034297 -0.00012697332 0)
(0.8005329 -0.0001018846 0)
(0.80068225 -7.9973447e-05 0)
(0.80079681 -6.118489e-05 0)
(0.8008822 -4.5456482e-05 0)
(0.8009438 -3.2670321e-05 0)
(0.80098663 -2.2622274e-05 0)
(0.80101516 -1.5019836e-05 0)
(0.80103327 -9.5023522e-06 0)
(0.80104413 -5.6775122e-06 0)
(0.80105019 -3.1565211e-06 0)
(0.80105325 -1.5892288e-06 0)
(0.80105457 -6.7735825e-07 0)
(0.80105497 -1.9266525e-07 0)
(0.80105493 2.8383705e-08 0)
(0.80105474 1.0816197e-07 0)
(0.80105453 1.1796165e-07 0)
(0.80105435 9.831318e-08 0)
(0.80105423 7.1810183e-08 0)
(0.80105415 4.7548248e-08 0)
(0.8010541 2.9429181e-08 0)
(0.80105408 1.6750719e-08 0)
(0.80105407 9.0883805e-09 0)
(0.80105406 4.2950185e-09 0)
(0.80105406 1.9732281e-09 0)
(0.80105406 5.1186639e-10 -1.8740221e-33)
(0.80105406 1.3540651e-10 0)
(0.80105407 -2.6414459e-10 0)
(0.80105407 -1.2429165e-10 0)
(0.80105407 -3.0188528e-10 0)
(0.80105407 -5.3979269e-11 0)
(0.80105407 -2.0532316e-10 0)
(0.80105407 2.9975444e-11 0)
(0.80105407 -1.5449053e-10 0)
(0.80105407 7.9516857e-11 0)
(0.80105407 -1.1248028e-10 0)
(0.80105407 9.7511882e-11 0)
(0.80105407 -1.1077116e-10 0)
(0.80105407 1.0464561e-10 0)
(0.80105407 -9.7794535e-11 0)
(0.80105407 1.0419154e-10 0)
(0.80105407 -1.0789272e-10 0)
(0.80105407 1.0517796e-10 0)
(0.80105407 -9.7678511e-11 0)
(0.80105407 1.0383847e-10 0)
(0.80105407 -1.0823832e-10 0)
(0.80105407 1.0485628e-10 0)
(0.80105407 -9.792019e-11 0)
(0.80105407 1.0366925e-10 0)
(0.80105407 -1.0830716e-10 0)
(0.80105407 1.0486702e-10 0)
(0.80105407 -9.7831807e-11 0)
(0.80105407 1.0385826e-10 0)
(0.80105407 -1.0797337e-10 0)
(0.80105407 1.0538869e-10 0)
(0.80105407 -9.7073858e-11 0)
(0.80105407 1.0493882e-10 0)
(0.80105407 -1.0646243e-10 0)
(0.80105407 1.0747651e-10 0)
(0.80105407 -9.4252416e-11 0)
(0.80105407 1.0879571e-10 0)
(0.80105407 -1.0129835e-10 0)
(0.80105407 1.1447106e-10 0)
(0.80105407 -8.5155425e-11 0)
(0.80105407 1.2130728e-10 0)
(0.80105407 -8.5105825e-11 0)
(0.80105407 1.3715358e-10 0)
(0.80105407 -5.6624723e-11 0)
(0.80105407 1.6035025e-10 0)
(0.80105407 -3.3610084e-11 0)
(0.80105407 2.0544271e-10 0)
(0.80105407 3.3647714e-11 0)
(0.80105407 2.7560064e-10 0)
(0.80105407 1.1003744e-10 0)
(0.80105407 3.8382704e-10 0)
(0.80105407 2.572284e-10 0)
(0.80105407 6.1350498e-10 0)
(0.80105407 5.130527e-10 -2.9527654e-35)
(0.80105407 9.2586895e-10 0)
(0.80105407 5.9852689e-10 0)
(0.80105408 5.7739567e-10 -8.8582947e-36)
(0.80105407 -1.5029743e-10 0)
(0.80105409 -1.1718092e-09 0)
(0.80105405 -2.6528954e-09 0)
(0.80105412 -3.9150004e-09 0)
(0.74653054 -0.00026000212 0)
(0.7492818 -0.0012521866 0)
(0.74950961 -0.0018284242 0)
(0.74966422 -0.0018735608 0)
(0.75035261 -0.001682583 0)
(0.75119394 -0.0014810867 0)
(0.75187116 -0.0013178337 0)
(0.75235494 -0.0011686679 0)
(0.75272512 -0.0010195766 0)
(0.75303417 -0.00087614283 0)
(0.7532944 -0.00074633506 0)
(0.7535069 -0.00063212098 0)
(0.75367678 -0.00053158996 0)
(0.753812 -0.00044255484 0)
(0.75391945 -0.00036370415 0)
(0.75400392 -0.00029426925 0)
(0.75406896 -0.00023366644 0)
(0.75411775 -0.00018143164 0)
(0.75415323 -0.00013720929 0)
(0.75417814 -0.00010066112 0)
(0.75419488 -7.134155e-05 0)
(0.75420556 -4.8622449e-05 0)
(0.75421194 -3.1691101e-05 0)
(0.75421543 -1.9607101e-05 0)
(0.7542171 -1.1386207e-05 0)
(0.75421773 -6.0870934e-06 0)
(0.7542178 -2.8780184e-06 0)
(0.75421764 -1.0810082e-06 0)
(0.75421741 -1.7709166e-07 0)
(0.7542172 2.0209715e-07 0)
(0.75421704 3.0758726e-07 0)
(0.75421693 2.8616851e-07 0)
(0.75421686 2.2052312e-07 0)
(0.75421683 1.5135167e-07 0)
(0.75421681 9.506516e-08 0)
(0.7542168 5.4991793e-08 0)
(0.7542168 2.9240348e-08 0)
(0.7542168 1.3906322e-08 0)
(0.7542168 5.5937059e-09 0)
(0.7542168 1.4018811e-09 0)
(0.7542168 -3.4266131e-10 0)
(0.75421681 -9.6412939e-10 0)
(0.75421681 -9.7209712e-10 0)
(0.75421681 -8.678446e-10 0)
(0.75421681 -6.2117013e-10 0)
(0.75421681 -4.7477777e-10 0)
(0.75421681 -2.8975743e-10 0)
(0.75421681 -2.3670944e-10 0)
(0.75421681 -1.1420197e-10 0)
(0.75421681 -1.0119956e-10 0)
(0.75421681 -2.8155174e-11 0)
(0.75421681 -6.3786163e-11 0)
(0.75421681 -4.4245033e-12 0)
(0.75421681 -3.3482637e-11 0)
(0.75421681 1.446414e-11 0)
(0.75421681 -3.6436971e-11 0)
(0.75421681 1.3000578e-11 0)
(0.75421681 -2.1603918e-11 0)
(0.75421681 2.2882146e-11 0)
(0.75421681 -3.0399413e-11 0)
(0.75421681 1.7404144e-11 0)
(0.75421681 -1.8283563e-11 0)
(0.75421681 2.5266027e-11 0)
(0.75421681 -2.8584183e-11 0)
(0.75421681 1.8841396e-11 0)
(0.75421681 -1.7145061e-11 0)
(0.75421681 2.6158249e-11 0)
(0.75421681 -2.7817297e-11 0)
(0.75421681 1.9575608e-11 0)
(0.75421681 -1.6394813e-11 0)
(0.75421681 2.6970464e-11 0)
(0.75421681 -2.6843504e-11 0)
(0.75421681 2.0823975e-11 0)
(0.75421681 -1.4776745e-11 0)
(0.75421681 2.907361e-11 0)
(0.75421681 -2.4023132e-11 0)
(0.75421681 2.4639926e-11 0)
(0.75421681 -9.7258568e-12 0)
(0.75421681 3.559529e-11 0)
(0.75421681 -1.5356603e-11 0)
(0.75421681 3.6098433e-11 0)
(0.75421681 5.5636215e-12 0)
(0.75421681 5.4968334e-11 0)
(0.75421681 1.1794773e-11 0)
(0.75421681 7.197269e-11 0)
(0.75421681 5.4730631e-11 0)
(0.75421681 1.1861143e-10 0)
(0.75421681 9.9497056e-11 0)
(0.75421681 1.679038e-10 0)
(0.75421681 1.9338913e-10 0)
(0.75421681 2.543634e-10 0)
(0.75421681 2.9875487e-10 0)
(0.75421681 2.2932303e-10 0)
(0.75421681 1.2825141e-10 0)
(0.75421681 -6.3995998e-10 0)
(0.75421682 -1.3775917e-09 0)
(0.75421681 -3.5785435e-09 0)
(0.75421683 -6.263295e-09 0)
(0.75421679 -1.0795195e-08 0)
(0.75421685 -1.4878196e-08 0)
(0.65220185 -0.00042497748 0)
(0.65419303 -0.0018461048 0)
(0.65390483 -0.0025327825 0)
(0.65343872 -0.0024564889 0)
(0.65331784 -0.0021009845 0)
(0.65329523 -0.0017720664 0)
(0.65317913 -0.0015175193 0)
(0.65297536 -0.0012985012 0)
(0.65275 -0.0010954946 0)
(0.65254031 -0.00091306465 0)
(0.65235264 -0.00075714178 0)
(0.65218455 -0.00062642998 0)
(0.65203528 -0.0005160016 0)
(0.65190551 -0.00042152339 0)
(0.65179515 -0.00034027143 0)
(0.65170302 -0.00027051241 0)
(0.65162742 -0.00021098675 0)
(0.6515666 -0.00016074922 0)
(0.6515188 -0.00011909121 0)
(0.65148226 -8.5391751e-05 0)
(0.65145519 -5.8967181e-05 0)
(0.65143582 -3.899216e-05 0)
(0.65142249 -2.4506351e-05 0)
(0.65141372 -1.4480215e-05 0)
(0.65140823 -7.8973111e-06 0)
(0.65140501 -3.8320671e-06 0)
(0.65140326 -1.5021533e-06 0)
(0.65140241 -3.0131739e-07 0)
(0.65140207 2.2530697e-07 0)
(0.65140199 3.8815447e-07 0)
(0.65140204 3.7444632e-07 0)
(0.65140211 2.9443072e-07 0)
(0.65140219 2.0540925e-07 0)
(0.65140225 1.3041508e-07 0)
(0.65140229 7.6373193e-08 0)
(0.65140232 4.0699634e-08 0)
(0.65140234 1.9591643e-08 0)
(0.65140235 7.6438533e-09 0)
(0.65140235 1.9724548e-09 0)
(0.65140235 -7.6323109e-10 0)
(0.65140236 -1.3863363e-09 0)
(0.65140235 -1.6319172e-09 0)
(0.65140236 -1.2043131e-09 0)
(0.65140235 -1.097933e-09 0)
(0.65140236 -6.1692724e-10 0)
(0.65140235 -6.0530214e-10 0)
(0.65140236 -2.5242476e-10 0)
(0.65140235 -3.5120247e-10 0)
(0.65140236 -5.2802956e-11 0)
(0.65140235 -2.1275869e-10 0)
(0.65140236 2.4347037e-11 0)
(0.65140235 -1.6463199e-10 0)
(0.65140236 6.9592218e-11 0)
(0.65140235 -1.2984219e-10 0)
(0.65140236 7.807509e-11 0)
(0.65140235 -1.2666548e-10 0)
(0.65140236 9.722288e-11 0)
(0.65140235 -1.096546e-10 0)
(0.65140236 9.2883744e-11 0)
(0.65140235 -1.1540546e-10 0)
(0.65140236 1.0584934e-10 0)
(0.65140235 -1.0313065e-10 0)
(0.65140236 9.7962871e-11 0)
(0.65140235 -1.1151337e-10 0)
(0.65140236 1.087844e-10 0)
(0.65140235 -1.0089398e-10 0)
(0.65140236 9.9751334e-11 0)
(0.65140235 -1.1004613e-10 0)
(0.65140236 1.1002993e-10 0)
(0.65140235 -9.9748117e-11 0)
(0.65140236 1.0092921e-10 0)
(0.65140235 -1.0874238e-10 0)
(0.65140236 1.1155164e-10 0)
(0.65140235 -9.7846448e-11 0)
(0.65140236 1.0342684e-10 0)
(0.65140235 -1.0544471e-10 0)
(0.65140236 1.1582662e-10 0)
(0.65140236 -9.2204125e-11 0)
(0.65140236 1.1089142e-10 0)
(0.65140235 -9.558848e-11 0)
(0.65140236 1.2837793e-10 0)
(0.65140236 -7.603877e-11 0)
(0.65140236 1.3225533e-10 0)
(0.65140236 -6.971741e-11 0)
(0.65140236 1.6042134e-10 0)
(0.65140236 -3.6878318e-11 0)
(0.65140236 1.7716436e-10 0)
(0.65140236 -8.0466954e-12 0)
(0.65140236 2.1753532e-10 0)
(0.65140236 5.7758688e-11 0)
(0.65140236 2.2939459e-10 0)
(0.65140236 4.5193195e-11 0)
(0.65140236 -1.9817447e-12 0)
(0.65140236 -4.8146083e-10 0)
(0.65140236 -1.3603432e-09 0)
(0.65140236 -2.4578118e-09 0)
(0.65140235 -5.6772918e-09 0)
(0.65140237 -9.1524236e-09 0)
(0.65140233 -1.6633737e-08 0)
(0.65140238 -2.3048899e-08 0)
(0.48376567 -0.00052052613 0)
(0.4843985 -0.001876615 0)
(0.48313445 -0.0022720202 0)
(0.48171169 -0.001945812 0)
(0.48061012 -0.0014795014 0)
(0.4797196 -0.0011337653 0)
(0.47892669 -0.00090328841 0)
(0.47821813 -0.00072870772 0)
(0.47760974 -0.00058373846 0)
(0.47710234 -0.00046571473 0)
(0.47668273 -0.00037338731 0)
(0.4763356 -0.00030135561 0)
(0.47604903 -0.00024350482 0)
(0.47581419 -0.00019563928 0)
(0.47562386 -0.00015544512 0)
(0.4754717 -0.00012159499 0)
(0.47535212 -9.3197961e-05 0)
(0.47526009 -6.96259e-05 0)
(0.47519107 -5.0424944e-05 0)
(0.47514086 -3.520592e-05 0)
(0.47510561 -2.3552693e-05 0)
(0.47508183 -1.4984392e-05 0)
(0.47506654 -8.9697808e-06 0)
(0.47505724 -4.9640949e-06 0)
(0.47505198 -2.4543025e-06 0)
(0.47504927 -9.9422005e-07 0)
(0.47504807 -2.2374549e-07 0)
(0.4750477 1.3336371e-07 0)
(0.47504774 2.5194172e-07 0)
(0.47504792 2.5014579e-07 0)
(0.47504812 2.0015125e-07 0)
(0.47504829 1.4145561e-07 0)
(0.47504842 9.0832101e-08 0)
(0.47504851 5.362396e-08 0)
(0.47504856 2.8799336e-08 0)
(0.47504859 1.3879905e-08 0)
(0.4750486 5.4431484e-09 0)
(0.47504861 1.3263421e-09 0)
(0.47504861 -6.3021791e-10 0)
(0.47504861 -1.1444428e-09 0)
(0.47504861 -1.2621615e-09 0)
(0.47504861 -9.9170731e-10 0)
(0.47504861 -8.4354902e-10 0)
(0.47504861 -5.290132e-10 0)
(0.47504861 -4.4867037e-10 0)
(0.47504861 -2.3869197e-10 0)
(0.47504861 -2.4945539e-10 0)
(0.47504861 -8.2130039e-11 0)
(0.47504861 -1.4000276e-10 0)
(0.47504861 -2.2156144e-11 0)
(0.47504861 -1.0589382e-10 0)
(0.47504861 1.5957671e-11 0)
(0.47504861 -7.2111425e-11 0)
(0.47504861 2.5384468e-11 0)
(0.47504861 -7.2129206e-11 0)
(0.47504861 4.063636e-11 0)
(0.47504861 -5.2900322e-11 0)
(0.47504861 3.9518905e-11 0)
(0.47504861 -6.1534556e-11 0)
(0.47504861 4.8767491e-11 0)
(0.47504861 -4.6609802e-11 0)
(0.47504861 4.4281546e-11 0)
(0.47504861 -5.7727914e-11 0)
(0.47504861 5.1658974e-11 0)
(0.47504861 -4.4467002e-11 0)
(0.47504861 4.5915058e-11 0)
(0.47504861 -5.6395993e-11 0)
(0.47504861 5.274172e-11 0)
(0.47504861 -4.3572251e-11 0)
(0.47504861 4.6731177e-11 0)
(0.47504861 -5.5554816e-11 0)
(0.47504861 5.3654684e-11 0)
(0.47504861 -4.252865e-11 0)
(0.47504861 4.805224e-11 0)
(0.47504861 -5.3805044e-11 0)
(0.47504861 5.5943251e-11 0)
(0.47504861 -3.9641525e-11 0)
(0.47504861 5.1906502e-11 0)
(0.47504861 -4.8756819e-11 0)
(0.47504861 6.2620653e-11 0)
(0.47504861 -3.1567764e-11 0)
(0.47504861 6.2562098e-11 0)
(0.47504861 -3.5760009e-11 0)
(0.47504861 7.8382104e-11 0)
(0.47504861 -1.3367293e-11 0)
(0.47504861 8.6232202e-11 0)
(0.47504861 -9.679129e-12 0)
(0.47504861 1.1208145e-10 0)
(0.47504861 1.9433792e-11 0)
(0.47504861 1.328162e-10 0)
(0.47504861 -1.5171956e-12 0)
(0.47504861 7.249884e-11 0)
(0.47504861 -3.0561441e-10 0)
(0.47504861 -5.3701212e-10 0)
(0.47504861 -1.4568635e-09 0)
(0.47504861 -2.3490446e-09 0)
(0.4750486 -5.5102495e-09 0)
(0.47504861 -8.4632033e-09 0)
(0.47504858 -1.7535615e-08 0)
(0.4750486 -2.4096389e-08 0)
(0.20924663 -0.00036635577 0)
(0.20839908 -0.00092685877 0)
(0.20669974 -0.00089152261 0)
(0.2052175 -0.00060251346 0)
(0.20417024 -0.00036692946 0)
(0.20342857 -0.00024236678 0)
(0.20286134 -0.00017878747 0)
(0.20240784 -0.00013624235 0)
(0.20204492 -0.0001032432 0)
(0.20175663 -7.8959437e-05 0)
(0.20152685 -6.2058235e-05 0)
(0.20134176 -4.9910801e-05 0)
(0.20119166 -4.0393144e-05 0)
(0.2010701 -3.2462298e-05 0)
(0.2009725 -2.5730757e-05 0)
(0.20089518 -2.0026143e-05 0)
(0.20083501 -1.5225163e-05 0)
(0.20078924 -1.123915e-05 0)
(0.20075539 -8.0062235e-06 0)
(0.20073117 -5.4692524e-06 0)
(0.20071451 -3.5575572e-06 0)
(0.20070357 -2.1827304e-06 0)
(0.20069675 -1.2458846e-06 0)
(0.20069279 -6.4498579e-07 0)
(0.20069068 -2.8593047e-07 0)
(0.20068972 -8.9966459e-08 0)
(0.2006894 5.0512387e-09 0)
(0.20068939 5.0083432e-08 0)
(0.20068951 5.9083931e-08 0)
(0.20068966 5.0838216e-08 0)
(0.20068979 3.7415208e-08 0)
(0.20068989 2.4944905e-08 0)
(0.20068996 1.503627e-08 0)
(0.20069 8.3801156e-09 0)
(0.20069002 4.0486132e-09 0)
(0.20069004 1.753743e-09 0)
(0.20069004 3.9401917e-10 0)
(0.20069005 -5.139702e-11 0)
(0.20069005 -3.9583173e-10 0)
(0.20069005 -3.0935592e-10 0)
(0.20069004 -3.7710064e-10 0)
(0.20069004 -1.9752117e-10 0)
(0.20069004 -2.391406e-10 0)
(0.20069004 -6.5640676e-11 0)
(0.20069004 -1.4525589e-10 0)
(0.20069004 -1.7642142e-12 0)
(0.20069004 -9.4571556e-11 0)
(0.20069004 4.451035e-11 0)
(0.20069004 -7.4479086e-11 0)
(0.20069004 4.7156956e-11 0)
(0.20069004 -6.4556174e-11 0)
(0.20069004 6.0472814e-11 0)
(0.20069004 -6.2572303e-11 0)
(0.20069004 5.4349923e-11 0)
(0.20069004 -5.8787548e-11 0)
(0.20069004 6.3497523e-11 0)
(0.20069004 -6.1147469e-11 0)
(0.20069004 5.5212748e-11 0)
(0.20069004 -5.813191e-11 0)
(0.20069004 6.3840518e-11 0)
(0.20069004 -6.0976955e-11 0)
(0.20069004 5.5330994e-11 0)
(0.20069004 -5.8122751e-11 0)
(0.20069004 6.3853561e-11 0)
(0.20069004 -6.094387e-11 0)
(0.20069004 5.536447e-11 0)
(0.20069004 -5.811016e-11 0)
(0.20069004 6.38696e-11 0)
(0.20069004 -6.0917375e-11 0)
(0.20069004 5.5390602e-11 0)
(0.20069004 -5.8091856e-11 0)
(0.20069004 6.3897834e-11 0)
(0.20069004 -6.0862353e-11 0)
(0.20069004 5.5465556e-11 0)
(0.20069004 -5.7999091e-11 0)
(0.20069004 6.4033459e-11 0)
(0.20069004 -6.0659899e-11 0)
(0.20069004 5.5672481e-11 0)
(0.20069004 -5.779944e-11 0)
(0.20069004 6.4235862e-11 0)
(0.20069004 -6.0249979e-11 0)
(0.20069004 5.6237146e-11 0)
(0.20069004 -5.6829991e-11 0)
(0.20069004 6.6265191e-11 0)
(0.20069004 -5.7816862e-11 0)
(0.20069004 6.0673152e-11 0)
(0.20069004 -5.3129322e-11 0)
(0.20069004 7.2960201e-11 0)
(0.20069004 -5.0073669e-11 0)
(0.20069004 7.2254497e-11 0)
(0.20069004 -6.1544213e-11 0)
(0.20069004 2.1573973e-11 0)
(0.20069004 -2.4786142e-10 0)
(0.20069004 -2.9017389e-10 0)