/*--------------------------------*- C++ -*----------------------------------*\
  =========                 |
  \\      /  F ield         | OpenFOAM: The Open Source CFD Toolbox
   \\    /   O peration     | Website:  https://openfoam.org
    \\  /    A nd           | Version:  6
     \\/     M anipulation  |
\*---------------------------------------------------------------------------*/
FoamFile
{
    version     2.0;
    format      ascii;
    class       surfaceScalarField;
    location    "181";
    object      phi;
}
// * * * * * * * * * * * * * * * * * * * * * * * * * * * * * * * * * * * * * //

dimensions      [0 3 -1 0 0 0 0];

internalField   nonuniform List<scalar> 
18180
(
0.00031872925
-0.0001631601
-0.00015556915
0.0013092109
-0.0013669162
0.00037643446
0.0030328874
-0.0033336205
0.001609944
0.0055497732
-0.0059759602
0.0034590744
0.0089181964
-0.0092390812
0.0058706581
0.013192811
-0.013079532
0.0088049168
0.01842194
-0.017459844
0.012230715
0.024644602
-0.022345804
0.016123142
0.031887366
-0.027703321
0.020460557
0.040161276
-0.033495813
0.025221904
0.049459161
-0.039682447
0.030384562
0.059753714
-0.046217218
0.035922665
0.070996723
-0.053048859
0.04180585
0.083119927
-0.060121596
0.047998392
0.0960381
-0.06737685
0.054458677
0.10965489
-0.074756011
0.061139225
0.12387082
-0.082204104
0.067988171
0.13859855
-0.089674089
0.074946361
0.15383664
-0.097148835
0.081910738
-0.10462597
0.088678893
0.16978372
0.00039749705
-0.00056065715
0.0016095946
-0.0025790137
0.0036893178
-0.0054133436
0.006687443
-0.0089740854
0.010650651
-0.013202289
0.015617868
-0.018046749
0.021616257
-0.023458232
0.028657254
-0.029386801
0.036732941
-0.035779008
0.045813139
-0.042576012
0.055843683
-0.04971299
0.066746197
-0.057119733
0.078419654
-0.064722316
0.090743769
-0.072445711
0.10358405
-0.080217135
0.1167979
-0.087969858
0.13024077
-0.095646973
0.14377297
-0.10320629
0.15725857
-0.11063443
-0.1178619
0.1704945
0.0004806234
-0.0010412805
0.0019186981
-0.0040170884
0.0043524785
-0.007847124
0.0078165627
-0.01243817
0.012337663
-0.01772339
0.017929205
-0.02363829
0.024586246
-0.030115274
0.032281206
-0.037081762
0.040960836
-0.044458637
0.050544916
-0.052160092
0.060927062
-0.060095136
0.071977799
-0.06817047
0.08354979
-0.076294307
0.095484803
-0.084380724
0.10762168
-0.092354012
0.11980425
-0.10015243
0.131888
-0.10773072
0.14374348
-0.11506177
0.1552487
-0.12213966
-0.12891429
0.16630109
0.00056616965
-0.0016074502
0.0022279423
-0.005678861
0.0050006108
-0.010619793
0.0088940099
-0.016331569
0.013905257
-0.022734637
0.02001188
-0.029744914
0.027166485
-0.037269879
0.035293414
-0.04520869
0.044287854
-0.053453077
0.054017773
-0.061890011
0.064328715
-0.070406078
0.075051127
-0.078892881
0.08600952
-0.087252701
0.097032494
-0.095403698
0.10796246
-0.10328398
0.11866396
-0.11085392
0.12902965
-0.11809641
0.13898297
-0.12501509
0.14847491
-0.1316316
-0.1379452
0.15750582
0.00065088622
-0.0022583364
0.0025243415
-0.0075523163
0.0056036342
-0.013699085
0.0098644644
-0.020592399
0.015264611
-0.028134783
0.021736409
-0.036216712
0.02918248
-0.04471595
0.037474893
-0.053501102
0.046458
-0.062436185
0.055954835
-0.071386846
0.06577643
-0.080227673
0.07573301
-0.088849462
0.085645716
-0.097165406
0.095357394
-0.10511538
0.10474121
-0.11266779
0.11370619
-0.11981891
0.12219937
-0.12658959
0.13020456
-0.13302029
0.137738
-0.13916504
-0.14506758
0.14486038
0.00073063581
-0.0029889722
0.0027920862
-0.0096137666
0.0061265741
-0.017033573
0.010666712
-0.025132537
0.01632265
-0.033790721
0.022975243
-0.042869305
0.030474428
-0.052215136
0.038642397
-0.061669071
0.047281186
-0.071074974
0.056183731
-0.080289391
0.065146884
-0.089190825
0.073984596
-0.097687174
0.082539481
-0.10572029
0.090691298
-0.11326719
0.098361452
-0.12033795
0.1055133
-0.12697075
0.11214879
-0.13322508
0.1183024
-0.1391739
0.12403362
-0.14489626
-0.1504633
0.12942934
0.00080073117
-0.0037897033
0.003013916
-0.011826951
0.0065328941
-0.020552551
0.011240051
-0.029839694
0.016992696
-0.039543366
0.023618544
-0.049495153
0.030918214
-0.059514805
0.038673317
-0.069424174
0.046658771
-0.079060429
0.054657396
-0.088288016
0.062474457
-0.097007886
0.069949954
-0.10516267
0.076966962
-0.1127373
0.0834551
-0.11975533
0.08938911
-0.12627196
0.094783314
-0.13236496
0.099683305
-0.13812507
0.1041565
-0.14364709
0.1082831
-0.14902287
-0.15433357
0.11215337
0.00085605868
-0.004645762
0.0031720605
-0.014142953
0.0067872255
-0.024167716
0.011529802
-0.03458227
0.017203433
-0.045216997
0.023586547
-0.055878267
0.030439874
-0.066368132
0.037519327
-0.076503627
0.044591798
-0.0861329
0.051451003
-0.095147221
0.057930632
-0.10348752
0.063912776
-0.11114482
0.069330644
-0.11815517
0.074165693
-0.12459038
0.078440255
-0.13054652
0.082207336
-0.13613204
0.085539501
-0.14145723
0.08851856
-0.14662615
0.091227356
-0.15173166
-0.15685205
0.09374584
0.00089026234
-0.0055360243
0.0032482831
-0.016500974
0.0068576218
-0.027777055
0.011492464
-0.039217112
0.016906809
-0.050631342
0.022838894
-0.061810353
0.029023669
-0.072552907
0.03520925
-0.082689208
0.041173928
-0.092097578
0.046740396
-0.10071369
0.051784656
-0.10853177
0.056238407
-0.11559857
0.060085139
-0.1220019
0.063351247
-0.12785649
0.066094213
-0.13328949
0.068390054
-0.13842788
0.070321922
-0.1433891
0.071971234
-0.14827546
0.073411923
-0.15317235
-0.15814771
0.074707575
0.00089981815
-0.0064358425
0.0032333803
-0.018834536
0.0067291637
-0.031272838
0.011111176
-0.043599124
0.016092484
-0.055612651
0.021384622
-0.067102491
0.026713884
-0.077882169
0.031839116
-0.08781444
0.036567085
-0.096825547
0.040762271
-0.10490888
0.044349474
-0.11211898
0.047309349
-0.11855844
0.049668405
-0.12436095
0.051485812
-0.1296739
0.052839523
-0.1346432
0.053813816
-0.13940217
0.054489706
-0.14406499
0.054938815
-0.14872457
0.055220541
-0.15345408
0.055380975
-0.15830814
-0.00020237826
0.00020237827
-5.9579066e-12
-0.00067774643
0.00047536819
-1.1004815e-11
-0.0013424257
0.00066467927
-1.3523175e-11
-0.002132294
0.00078986831
-1.5225292e-11
-0.0029957728
0.00086347889
-1.6607298e-11
-0.00389074
0.00089496714
-1.774058e-11
-0.0047822954
0.00089155543
-1.87513e-11
-0.0056408925
0.0008585971
-1.9689671e-11
-0.0064408674
0.00079997496
-2.0644906e-11
-0.0071592883
0.00071842089
-2.1614905e-11
-0.0077750367
0.0006157484
-2.2573897e-11
-0.0082680723
0.00049303569
-2.3485328e-11
-0.0086188536
0.00035078133
-2.4276498e-11
-0.0088079041
0.00018905051
-2.4923283e-11
-0.0088155573
7.653207e-06
-2.524258e-11
-0.0086219805
-0.00019357677
-2.5313428e-11
-0.0082074386
-0.00041454189
-2.499777e-11
-0.0075518887
-0.00065554985
-2.4195209e-11
-0.0066345746
-0.00091731408
-2.2984999e-11
-0.001186231
-0.0054483436
-2.1363979e-11
-0.00018797448
0.00039035274
-0.00062500706
0.00091240077
-0.0012287533
0.0012684255
-0.0019351946
0.0014963096
-0.0026921395
0.0016204237
-0.0034562844
0.0016591121
-0.0041910676
0.0016263386
-0.0048648593
0.0015323889
-0.0054495246
0.0013846402
-0.0059192875
0.0011881838
-0.0062498162
0.00094627716
-0.0064174811
0.00066070059
-0.0063987498
0.00033205001
-0.0061697082
-3.9991146e-05
-0.0057057353
-0.0004563197
-0.0049814231
-0.00091788889
-0.0039707927
-0.0014251723
-0.0026472144
-0.0019791281
-0.00098325855
-0.00258127
-0.003201782
0.0010322925
-0.00015892786
0.0005492806
-0.00051889147
0.0012723644
-0.0010007701
0.0017503041
-0.0015412595
0.0020367991
-0.00208735
0.0021665142
-0.0025937355
0.0021654975
-0.0030208686
0.0020534717
-0.003333294
0.0018448143
-0.0034983026
0.0015496488
-0.0034848553
0.0011747365
-0.0032626994
0.00072412119
-0.0028016484
0.00019964962
-0.0020709488
-0.00039864956
-0.0010387659
-0.0010721741
0.00032824562
-0.0018233312
0.0020652181
-0.0026548614
0.0042090306
-0.0035689848
0.0067980028
-0.0045681003
0.0098718262
-0.0056550934
-0.006779737
0.013449781
-0.00011756695
0.00066684755
-0.00036699854
0.001521796
-0.00067351364
0.0020568192
-0.00097482563
0.0023381111
-0.001216854
0.0024085426
-0.0013515942
0.0023002376
-0.0013354599
0.0020373375
-0.0011278288
0.0016371832
-0.00068984565
0.0011116656
1.6529755e-05
0.00046836111
0.0010293066
-0.00028865569
0.0023871102
-0.001158154
0.0041297271
-0.0021412664
0.0062985864
-0.0032410334
0.0089372664
-0.0044620112
0.012092051
-0.0058096457
0.015812303
-0.0072892373
0.020150167
-0.0089059644
0.025160354
-0.01066528
-0.012492615
0.030873232
-6.6907634e-05
0.00073375519
-0.0001791665
0.0016340548
-0.00026653379
0.0021441865
-0.00026769144
0.0023392687
-0.00012719423
0.0022680454
0.00020616691
0.0019668765
0.00078069353
0.0014628109
0.001642949
0.00077492773
0.0028387284
-8.4113759e-05
0.004413844
-0.0011067545
0.0064146893
-0.0022895009
0.0088886548
-0.0036321195
0.011884454
-0.0051370656
0.015452453
-0.0068090323
0.019645044
-0.0086546022
0.024517266
-0.010681868
0.030127683
-0.012899654
0.036538893
-0.015317174
0.043818293
-0.01794468
-0.020682534
0.052008212
-9.9846203e-06
0.0007437398
3.4535001e-05
0.0015895352
0.00019989022
0.0019788313
0.00054676582
0.0019923931
0.0011322472
0.001682564
0.0020109812
0.0010881425
0.00323614
0.0002376521
0.0048603041
-0.00084923639
0.0069361201
-0.0021599298
0.0095166749
-0.0036873093
0.012655704
-0.00542853
0.016407696
-0.0073841117
0.02082782
-0.0095571898
0.025971764
-0.011952976
0.031895635
-0.014578473
0.038656262
-0.017442495
0.046312378
-0.02055577
0.05492668
-0.023931477
0.064569666
-0.027587665
-0.031405589
0.07529272
5.0751307e-05
0.0006929885
0.00026565775
0.0013746288
0.00070825434
0.0015362347
0.0014390302
0.0012616172
0.0025168201
0.00060477409
0.0039995661
-0.00039460343
0.0059449138
-0.0017076957
0.0084106021
-0.0033149246
0.011454593
-0.0052039202
0.015135039
-0.0073677556
0.019510019
-0.00980351
0.024637007
-0.012511099
0.030572137
-0.015492321
0.03736931
-0.018750148
0.045079251
-0.022288415
0.053748974
-0.026112217
0.063422587
-0.030229383
0.074144692
-0.034653581
0.08596932
-0.039412294
-0.044388497
0.098952228
0.0001137963
0.0005791922
0.00050850338
0.00097992167
0.0012459822
0.00079875585
0.0023867774
0.00012082208
0.0039912405
-0.00099968897
0.0061198753
-0.0025232383
0.0088333187
-0.0044211391
0.012192164
-0.0066737697
0.016256555
-0.0092683113
0.021085442
-0.012196643
0.026735543
-0.015453611
0.033260017
-0.019035574
0.040706878
-0.022939181
0.049117184
-0.027160454
0.058523144
-0.031694376
0.068946495
-0.036535568
0.080398313
-0.041681202
0.092882139
-0.047137407
0.10640547
-0.05293563
-0.058995664
0.12101264
0.00017849581
0.0004006964
0.00076002985
0.00039838764
0.0018053388
-0.00024655309
0.0033747134
-0.0014485526
0.005528995
-0.0031539705
0.0083293186
-0.0053235619
0.011836489
-0.0079283094
0.016110057
-0.010947338
0.021207041
-0.014365295
0.027180301
-0.018169903
0.034076615
-0.022349925
0.041934474
-0.026893433
0.050781656
-0.031786363
0.060632588
-0.037011386
0.071485493
-0.042547281
0.083319383
-0.048369458
0.096091853
-0.054453671
0.10974042
-0.060785971
0.12419599
-0.067391205
-0.074274613
0.13947494
0.00024512725
0.0010199494
0.0023833403
0.0043938621
0.0071105496
0.010591904
0.014894311
0.020070114
0.026165376
0.033217377
0.041252014
0.050281246
0.060300733
0.071287739
0.083199135
0.095968903
0.1095034
0.12366379
0.13818333
0.15258761
-0.0035077177
-0.0019406259
-2.5603143e-11
-0.0012859322
-0.0022217855
-2.138026e-11
0.0011946777
-0.0024806099
-1.5935714e-11
0.0038772129
-0.0026825351
-1.0456669e-11
0.0067348695
-0.0028576566
-2.792068e-12
0.0097503417
-0.0030154722
2.5125842e-12
0.012904695
-0.0031543532
1.0327584e-11
0.016179906
-0.0032752115
1.7817564e-11
0.019560275
-0.0033803684
2.5329171e-11
0.023031581
-0.0034713064
3.2624249e-11
0.026580539
-0.0035489578
3.9172029e-11
0.030194723
-0.0036141845
4.4746171e-11
0.033862491
-0.003667768
4.8938419e-11
0.037572846
-0.0037103551
5.1642544e-11
0.041315337
-0.0037424907
5.252936e-11
0.045079991
-0.0037646544
5.1561209e-11
0.048857269
-0.0037772773
4.8516877e-11
0.052638025
-0.0037807561
4.35159e-11
0.056413492
-0.0037754674
3.6553179e-11
0.060175271
-0.0037617788
2.7973136e-11
0.063915329
-0.0037400584
1.8009104e-11
0.067626009
-0.0037106802
7.2095107e-12
0.071300038
-0.0036740289
-4.007587e-12
0.07493054
-0.0036305013
-1.4982554e-11
0.078511046
-0.0035805068
-2.5238017e-11
0.082035513
-0.0035244663
-3.4177179e-11
0.085498323
-0.00346281
-4.1424446e-11
0.088894297
-0.0033959742
-4.660964e-11
0.092218695
-0.003324398
-4.9510117e-11
0.095467215
-0.0032485197
-4.9994438e-11
0.098635988
-0.0031687733
-4.7820858e-11
0.10172157
-0.0030855849
-4.2904085e-11
0.10472094
-0.0029993702
-3.4759782e-11
0.10763148
-0.0029105327
-2.3245442e-11
0.11045094
-0.0028194616
-7.8794466e-12
0.11317747
-0.0027265325
1.1252694e-11
0.11580958
-0.0026321081
3.3492932e-11
0.11834612
-0.0025365404
5.7630735e-11
0.1207863
-0.0024401782
8.01803e-11
0.12312966
-0.0023433682
9.8678731e-11
0.12537616
-0.002246496
1.0717227e-10
0.12752607
-0.002149913
1.0179164e-10
0.12958038
-0.0020543086
7.6532401e-11
0.13154005
-0.0019596717
3.2019823e-11
0.13340918
-0.0018691228
-3.0004641e-11
0.13518626
-0.0017770833
-9.9432239e-11
0.13689575
-0.001709492
-1.6077959e-10
0.13849351
-0.0015977568
-1.9624936e-10
0.14018035
-0.0016868365
-1.8265901e-10
-0.0013310459
-6.7527235e-12
0.0028529055
-0.0037612389
0.0049500494
-0.0043189294
0.0072929054
-0.0048234659
0.0098190315
-0.0052086613
0.012507367
-0.0055459917
0.015345585
-0.0058536909
0.018316946
-0.0061257143
0.021405043
-0.0063633086
0.024595858
-0.0065711825
0.027876626
-0.006752075
0.031235217
-0.006907549
0.03466015
-0.007039117
0.038140567
-0.0071481849
0.041666122
-0.00723591
0.045226897
-0.0073032657
0.048813358
-0.007351116
0.052416327
-0.0073802464
0.056026959
-0.0073913878
0.059636733
-0.0073852418
0.063237457
-0.0073625026
0.066821271
-0.0073238717
0.070380659
-0.0072700688
0.073908469
-0.0072018389
0.077397923
-0.007119955
0.080842634
-0.0070252179
0.084236621
-0.0069184531
0.087574317
-0.0068005062
0.090850579
-0.0066722364
0.094060691
-0.0065345099
0.097200363
-0.0063881915
0.10026573
-0.0062341388
0.10325334
-0.0060731944
0.10616015
-0.005906181
0.10898351
-0.0057338973
0.11172117
-0.0055571148
0.11437121
-0.0053765784
0.11693211
-0.0051930083
0.11940268
-0.0050071039
0.12178206
-0.0048195601
0.12406976
-0.0046310661
0.12626565
-0.0044423929
0.12836998
-0.0042542408
0.13038366
-0.0040679867
0.1323076
-0.0038836118
0.1341458
-0.003707325
0.13589679
-0.0035280685
0.13758454
-0.0033972426
0.13916595
-0.0031791717
0.14083664
-0.003357526
-0.0026596376
0.015021115
-0.0053325728
0.016852212
-0.0061500265
0.018905746
-0.0068769994
0.021111787
-0.007414703
0.023458703
-0.0078929074
0.02594284
-0.0083378275
0.028551579
-0.0087344536
0.031271441
-0.0090831705
0.034091325
-0.0093910664
0.037001001
-0.0096617509
0.039990348
-0.0098968963
0.043049506
-0.010098275
0.04616895
-0.010267629
0.049339425
-0.010406385
0.052551901
-0.010515742
0.055797566
-0.010596782
0.059067832
-0.010650512
0.062354334
-0.01067789
0.065648951
-0.010679859
0.068943818
-0.010657369
0.072231346
-0.0106114
0.075504249
-0.010542971
0.07875556
-0.01045315
0.081978658
-0.010343053
0.085167286
-0.010213845
0.088315564
-0.010066732
0.091418008
-0.0099029504
0.094469536
-0.0097237644
0.097465473
-0.0095304467
0.10040155
-0.0093242731
0.10327392
-0.0091065072
0.10607912
-0.0088783939
0.10881409
-0.0086411492
0.11147615
-0.0083959546
0.11406299
-0.0081439534
0.11657266
-0.0078862498
0.11900356
-0.0076239133
0.12135444
-0.0073579846
0.12362438
-0.0070894986
0.1258128
-0.0068194842
0.1279195
-0.006549094
0.12994464
-0.0062793773
0.13188904
-0.0060123916
0.13375356
-0.0057481266
0.13554203
-0.0054957959
0.13725307
-0.0052391082
0.13890969
-0.0050538672
0.14047113
-0.0047406121
0.14212238
-0.0050087765
-0.0039964666
0.03205652
-0.0065158607
0.033471713
-0.0075652201
0.035077213
-0.0084824992
0.036800043
-0.0091375326
0.038640888
-0.0097337523
0.040606045
-0.010302985
0.042688343
-0.010816752
0.04487826
-0.011273087
0.047168217
-0.011681024
0.049550989
-0.012044522
0.052018866
-0.012364773
0.054563892
-0.012643302
0.057178058
-0.012881794
0.059853319
-0.013081646
0.062581614
-0.013244037
0.065354898
-0.013370066
0.068165191
-0.013460804
0.071004614
-0.013517314
0.073865435
-0.01354068
0.076740102
-0.013532036
0.079621282
-0.01349258
0.082501896
-0.013423585
0.085375148
-0.013326402
0.088234556
-0.013202461
0.091073975
-0.013053265
0.093887618
-0.012880375
0.096670071
-0.012685403
0.099416304
-0.012469997
0.10212168
-0.01223582
0.10478195
-0.011984543
0.10739326
-0.011717821
0.10995215
-0.011437287
0.11245554
-0.011144538
0.11490071
-0.010841127
0.11728532
-0.010528559
0.11960736
-0.010208288
0.12186517
-0.0098817254
0.12405743
-0.0095502475
0.12618316
-0.0092152242
0.1282417
-0.0088780219
0.13023277
-0.008540172
0.13215647
-0.0082030737
0.13401354
-0.0078694568
0.13580475
-0.0075393435
0.13753379
-0.0072248295
0.13919943
-0.0069047566
0.14082334
-0.0066777691
0.1423682
-0.0062854731
0.14400374
-0.0066443178
-0.0053574269
0.052648501
-0.0071561494
0.053489082
-0.0084058014
0.054483191
-0.0094766079
0.055565139
-0.010219481
0.056749744
-0.010918357
0.058051299
-0.01160454
0.059468315
-0.012233768
0.060995925
-0.012800696
0.062629916
-0.013315016
0.064365693
-0.013780299
0.066197734
-0.014196814
0.068119769
-0.014565337
0.070125033
-0.014887059
0.072206426
-0.015163039
0.0743566
-0.01539421
0.076568041
-0.015581507
0.078833158
-0.015725921
0.081144357
-0.015828512
0.083494108
-0.015890432
0.085875009
-0.015912938
0.088279834
-0.015897405
0.09070158
-0.015845331
0.093133509
-0.01575833
0.095569177
-0.01563813
0.098002471
-0.015486559
0.10042762
-0.015305526
0.10283923
-0.015097013
0.10523227
-0.01486304
0.10760211
-0.01460566
0.1099445
-0.01432693
0.11225557
-0.014028893
0.11453185
-0.013713564
0.11677023
-0.013382917
0.11896797
-0.01303887
0.1211227
-0.012683285
0.12323237
-0.012317964
0.12529531
-0.011944656
0.12731013
-0.011565072
0.12927582
-0.011180916
0.13119169
-0.010793891
0.13305743
-0.010405909
0.13487308
-0.010018723
0.13663935
-0.0096357256
0.13835701
-0.0092570038
0.14002956
-0.0088973801
0.14165609
-0.0085312932
0.14325658
-0.0082782549
0.14479815
-0.0078270409
0.14643161
-0.0082777808
-0.0067657576
0.075221698
-0.0070851272
0.075326651
-0.0085107545
0.07555101
-0.0097009673
0.075851292
-0.010519762
0.076255531
-0.011322596
0.076780579
-0.012129588
0.077429473
-0.012882662
0.078202142
-0.013573365
0.079096894
-0.014209768
0.080110582
-0.014793986
0.081238961
-0.015325193
0.082476736
-0.015803112
0.083817722
-0.016228045
0.08525514
-0.016600457
0.086781812
-0.016920883
0.088390287
-0.017189982
0.090072945
-0.017408579
0.091822108
-0.017577675
0.093630133
-0.017698456
0.095489481
-0.017772286
0.097392787
-0.01780071
0.099332907
-0.017785451
0.10130297
-0.017728396
0.10329642
-0.017631579
0.10530703
-0.017497169
0.10732894
-0.017327437
0.10935667
-0.017124742
0.11138513
-0.016891498
0.11340963
-0.016630156
0.11542587
-0.01634317
0.11742995
-0.016032981
0.11941839
-0.015701996
0.12138804
-0.015352571
0.12333617
-0.014986999
0.12526039
-0.014607503
0.12715866
-0.01421624
0.12902931
-0.013815304
0.13087098
-0.013406742
0.13268267
-0.0129926
0.1344637
-0.012574926
0.13621381
-0.012156015
0.13793307
-0.011737984
0.13962222
-0.011324878
0.14128211
-0.010916891
0.14291612
-0.010531393
0.14452378
-0.010138949
0.14612319
-0.0098776696
0.14768665
-0.0093905037
0.14934362
-0.0099347486
-0.008253572
0.098025228
-0.0061581272
0.097257949
-0.0077434752
0.096581651
-0.00902467
0.095997208
-0.0099353187
0.095540746
-0.010866134
0.095223498
-0.011812341
0.095050832
-0.012709996
0.095026749
-0.013549283
0.095150784
-0.014333803
0.095419669
-0.015062872
0.095829046
-0.01573457
0.096373505
-0.01634757
0.09704656
-0.0169011
0.097840979
-0.017394876
0.098749078
-0.017828982
0.099762886
-0.01820379
0.10087427
-0.018519959
0.10207503
-0.018778444
0.10335706
-0.018980485
0.10471236
-0.019127584
0.10613315
-0.019221495
0.1076119
-0.019264202
0.10914141
-0.019257904
0.11071481
-0.019204983
0.11232563
-0.019107986
0.11396778
-0.018969587
0.11563559
-0.018792559
0.11732384
-0.018579744
0.11902771
-0.018334022
0.12074281
-0.018058276
0.1224652
-0.017755374
0.12419135
-0.017428138
0.12591811
-0.017079331
0.12764275
-0.016711642
0.12936292
-0.016327677
0.13107664
-0.015929962
0.13278229
-0.015520952
0.1344786
-0.015103049
0.13616466
-0.014678656
0.1378399
-0.014250174
0.13950419
-0.013820298
0.14115772
-0.013391519
0.14280138
-0.012968537
0.14443618
-0.012551688
0.1460655
-0.012160712
0.1476894
-0.011762852
0.14932411
-0.011512378
0.15094754
-0.011013938
0.1526666
-0.01165381
-0.0098626295
0.119189
-0.0043344811
0.11749639
-0.0060508687
0.11585687
-0.0073851492
0.11435434
-0.0084327869
0.11302503
-0.0095368298
0.11186646
-0.010653773
0.1108841
-0.011727633
0.11008422
-0.012749405
0.10946624
-0.013715821
0.10902556
-0.014622191
0.10875637
-0.01546538
0.10865201
-0.016243207
0.10870488
-0.01695397
0.10890667
-0.017596668
0.10924866
-0.018170971
0.1097219
-0.018677035
0.11031738
-0.019115431
0.11102607
-0.019487138
0.1118391
-0.019793517
0.11274779
-0.020036274
0.11374373
-0.020217435
0.11481884
-0.020339312
0.11596542
-0.020404477
0.11717615
-0.020415722
0.1184442
-0.020376031
0.11976315
-0.020288535
0.12112707
-0.02015648
0.12253051
-0.019983187
0.1239685
-0.019772012
0.12543655
-0.019526319
0.12693061
-0.019249441
0.12844714
-0.018944662
0.12998299
-0.018615188
0.13153549
-0.018264138
0.13310235
-0.017894533
0.13468169
-0.017509301
0.13627202
-0.017111285
0.13787224
-0.016703268
0.13948161
-0.016288029
0.14109979
-0.015868352
0.14272684
-0.015447346
0.14436322
-0.015027899
0.14601005
-0.014615364
0.14766862
-0.014210268
0.14934245
-0.013834538
0.15103225
-0.01345265
0.1527524
-0.013232531
0.15448671
-0.012748245
0.15631939
-0.013486492
-0.011644278
0.13689597
-0.0017555102
0.13437801
-0.003532907
0.13181944
-0.0048265797
0.12946237
-0.0060757199
0.12733401
-0.0074084725
0.12541574
-0.0087355001
0.12371038
-0.010022274
0.12222303
-0.011262048
0.12095212
-0.012444917
0.1198919
-0.013561968
0.11903485
-0.014608331
0.11837263
-0.015580986
0.11789624
-0.016477581
0.11759616
-0.017296583
0.11746251
-0.018037324
0.11748529
-0.018699813
0.11765447
-0.019284618
0.11796015
-0.019792814
0.11839258
-0.02022595
0.11894232
-0.020586009
0.11960024
-0.020875351
0.12035761
-0.021096685
0.12120615
-0.021253022
0.12213806
-0.021347632
0.12314603
-0.021384001
0.12422329
-0.021365788
0.12536358
-0.021296771
0.1265612
-0.021180813
0.127811
-0.021021813
0.12910835
-0.020823669
0.13044915
-0.020590242
0.13182981
-0.020325324
0.13324724
-0.020032619
0.13469883
-0.01971572
0.13618241
-0.019378111
0.13769626
-0.019023159
0.13923912
-0.018654138
0.14081009
-0.018274241
0.14240872
-0.017886661
0.14403496
-0.017494591
0.1456892
-0.017101584
0.14737225
-0.016710947
0.14908558
-0.016328703
0.15083092
-0.015955604
0.15261198
-0.015615602
0.15443027
-0.015270939
0.15629844
-0.0151007
0.15820629
-0.014656098
0.16021579
-0.015495988
-0.013658557
0.1500521
0.00077999093
0.14676316
-0.00024396191
0.14346582
-0.0015292418
0.14041804
-0.0030279417
0.13762315
-0.0046135796
0.13507489
-0.0061872366
0.13277509
-0.0077224755
0.13072384
-0.0092107992
0.1289187
-0.010639779
0.12735447
-0.011997739
0.12602333
-0.013277185
0.12491586
-0.014473518
0.12402189
-0.015583614
0.12333077
-0.016605458
0.1228315
-0.017538057
0.12251298
-0.018381294
0.12236413
-0.019135773
0.12237405
-0.01980273
0.12253207
-0.02038397
0.12282787
-0.020881809
0.12325154
-0.021299021
0.12379364
-0.021638782
0.12444523
-0.021904616
0.12519794
-0.022100347
0.12604398
-0.022230041
0.12697615
-0.022297957
0.12798787
-0.022308487
0.12907316
-0.022266108
0.13022669
-0.022175335
0.13144369
-0.022040669
0.13272001
-0.021866565
0.13405208
-0.021657391
0.13543686
-0.021417405
0.13687188
-0.021150738
0.13835515
-0.020861382
0.13988519
-0.020553197
0.14146098
-0.020229927
0.14308196
-0.019895224
0.14474803
-0.01955273
0.14645952
-0.019206081
0.14821724
-0.018859307
0.15002245
-0.018516158
0.1518771
-0.018183349
0.15378337
-0.017861871
0.15574538
-0.017577616
0.15776533
-0.017290888
0.15985475
-0.017190114
0.16200787
-0.016809222
0.16426945
-0.017757564
-0.015970436
0.1889088
0.0053820921
-0.1935109
0.18509876
0.0035660752
0.18170673
0.001862792
0.1785616
0.00011718328
0.17562604
-0.0016780211
0.17287502
-0.0034362121
0.17029031
-0.0051377603
0.16786291
-0.0067834003
0.16558894
-0.008365815
0.16346626
-0.0098750548
0.16149299
-0.011303921
0.15966704
-0.012647563
0.15798575
-0.013902325
0.15644584
-0.015065544
0.15504338
-0.016135598
0.1537739
-0.01711182
0.15263249
-0.017994358
0.15161384
-0.018784079
0.15071237
-0.019482505
0.14992232
-0.020091756
0.14923778
-0.02061448
0.1486528
-0.021053801
0.14816143
-0.021413252
0.14775781
-0.02169672
0.14743615
-0.021908383
0.14719084
-0.022052648
0.14701645
-0.022134095
0.14690776
-0.022157417
0.14685979
-0.022127364
0.14686781
-0.022048693
0.14692737
-0.021926126
0.14703429
-0.021764308
0.14718466
-0.02156778
0.14737488
-0.021340955
0.14760161
-0.021088114
0.14786182
-0.0208134
0.14815273
-0.020520843
0.14847189
-0.020214382
0.14881711
-0.01989795
0.14918651
-0.01957548
0.14957853
-0.019251329
0.14999194
-0.018929562
0.15042596
-0.018617369
0.15088007
-0.018315982
0.15135489
-0.018052435
0.15185026
-0.017786264
0.15237067
-0.017710526
0.15291181
-0.017350364
0.15349665
-0.018342402
-0.016563074
0.21685769
0.0087804231
-0.22025602
0.2133838
0.0070399625
0.21017099
0.0050756043
0.20706568
0.0032224964
0.20401908
0.0013685748
0.20106216
-0.0004792914
0.1982118
-0.0022873981
0.19547251
-0.0040441092
0.19285019
-0.0057434954
0.19035167
-0.0073765384
0.18798216
-0.0089344075
0.18574504
-0.010410449
0.18364232
-0.011799607
0.1816747
-0.01309792
0.17984163
-0.014302532
0.1781415
-0.015411688
0.17657176
-0.016424613
0.17512908
-0.017341405
0.17380953
-0.018162952
0.17260864
-0.018890868
0.17152157
-0.019527411
0.17054319
-0.020075421
0.16966818
-0.020538237
0.16889109
-0.020919637
0.16820648
-0.021223764
0.16760888
-0.021455051
0.16709295
-0.021618163
0.16665345
-0.02171792
0.16628533
-0.021759242
0.16598372
-0.021747088
0.165744
-0.021686406
0.16556178
-0.021582088
0.16543294
-0.021438937
0.16535362
-0.02126164
0.16532027
-0.021054757
0.16532958
-0.020822718
0.16537858
-0.020569841
0.16546456
-0.020300361
0.16558512
-0.020018513
0.16573819
-0.019728541
0.16592199
-0.019435132
0.16613514
-0.019142711
0.16637663
-0.018858857
0.16664596
-0.018585313
0.16694298
-0.018349456
0.16726892
-0.018112206
0.167623
-0.018064609
0.16801353
-0.017740891
0.16842246
-0.018751328
-0.017036911
0.24376661
0.011504376
-0.24649056
0.24091617
0.0098904001
0.23806296
0.0079288145
0.235216
0.0060694584
0.2323382
0.0042463777
0.22945038
0.0024085289
0.22658376
0.00057921944
0.22375764
-0.001217991
0.22098794
-0.0029737942
0.21829059
-0.0046791903
0.21567945
-0.0063232707
0.21316553
-0.007896523
0.21075742
-0.0093915023
0.2084617
-0.010802195
0.20628299
-0.01212382
0.20422417
-0.01335287
0.2022866
-0.014487044
0.20047032
-0.015525125
0.19877424
-0.016466877
0.19719634
-0.017312966
0.1957338
-0.018064868
0.19438316
-0.018724787
0.19314049
-0.019295564
0.19200145
-0.019780598
0.19096145
-0.020183759
0.1900157
-0.020509309
0.18915936
-0.020761819
0.18838754
-0.020946095
0.1876954
-0.021067104
0.18707822
-0.021129907
0.18653141
-0.021139596
0.18605057
-0.02110125
0.18563152
-0.021019885
0.1852703
-0.020900426
0.18496324
-0.02074769
0.1847069
-0.020566377
0.18449814
-0.020361091
0.18433414
-0.020136359
0.18421235
-0.01989672
0.18413055
-0.019646741
0.18408685
-0.019391438
0.18407978
-0.019135633
0.18410813
-0.01888721
0.1841715
-0.018648683
0.18426898
-0.018446939
0.18440329
-0.018246517
0.18456803
-0.01822935
0.18478509
-0.01795795
0.18499057
-0.018956801
-0.017369491
0.26927438
0.013537328
-0.27130733
0.26710633
0.012058444
0.26476457
0.010270575
0.26232535
0.0085086838
0.2597966
0.0067751275
0.2571885
0.0050166236
0.25452718
0.0032405369
0.25183682
0.0014723766
0.2491374
-0.0002743742
0.24644873
-0.0019905228
0.2437901
-0.0036646457
0.24117866
-0.0052850761
0.23862911
-0.0068419602
0.23615397
-0.0083270472
0.23376351
-0.0097333612
0.2314659
-0.011055261
0.22926732
-0.012288468
0.22717218
-0.013429977
0.22518326
-0.014477959
0.22330196
-0.015431671
0.22152847
-0.016291372
0.2198619
-0.017058222
0.21830052
-0.017734187
0.21684187
-0.018321945
0.2154829
-0.01882479
0.21422013
-0.019246533
0.21304972
-0.019591415
0.21196765
-0.019864015
0.21096971
-0.020069166
0.21005168
-0.020211876
0.20920934
-0.020297257
0.20843855
-0.020330465
0.20773531
-0.020316644
0.20709578
-0.020260893
0.20651632
-0.020168233
0.20599354
-0.020043599
0.20552431
-0.019891852
0.20510575
-0.0197178
0.2047353
-0.019526275
0.20441073
-0.019322167
0.20413011
-0.019110816
0.20389194
-0.018897463
0.20369495
-0.018690223
0.20353884
-0.018492578
0.20342215
-0.018330241
0.20334877
-0.018173136
0.20330752
-0.018188104
0.20333163
-0.017982059
0.20331589
-0.01894106
-0.017538633
0.29298515
0.014868469
-0.29431629
0.2915059
0.013537685
0.28978341
0.011993067
0.28788478
0.010407317
0.28584487
0.0088150375
0.2836745
0.0071869949
0.28139208
0.0055229581
0.27902085
0.0038436047
0.27658212
0.0021643583
0.27409604
0.00049555216
0.27158282
-0.0011514291
0.26906219
-0.0027644422
0.26655246
-0.0043322325
0.26407023
-0.0058448173
0.26163024
-0.0072933684
0.25924525
-0.0086702699
0.25692602
-0.0099692393
0.25468137
-0.011185329
0.25251829
-0.012314873
0.25044204
-0.013355422
0.24845634
-0.01430568
0.24656354
-0.015165416
0.24476472
-0.015935371
0.24305994
-0.016617158
0.24144831
-0.017213165
0.23992823
-0.017726453
0.23849746
-0.018160648
0.2371533
-0.018519848
0.23589266
-0.018808527
0.23471222
-0.019031438
0.2336085
-0.019193541
0.23257796
-0.019299919
0.23161704
-0.019355725
0.23072227
-0.019366124
0.22989029
-0.019336262
0.22911794
-0.019271245
0.22840223
-0.019176144
0.22774044
-0.019056009
0.22713011
-0.018915947
0.2265691
-0.018761153
0.22605556
-0.018597274
0.22558808
-0.018429984
0.22516542
-0.018267564
0.22478743
-0.018114584
0.22445226
-0.017995078
0.22416468
-0.017885553
0.22390984
-0.017933267
0.2237293
-0.017801516
0.22348421
-0.018695972