/*--------------------------------*- C++ -*----------------------------------*\
  =========                 |
  \\      /  F ield         | OpenFOAM: The Open Source CFD Toolbox
   \\    /   O peration     | Website:  https://openfoam.org
    \\  /    A nd           | Version:  6
     \\/     M anipulation  |
\*---------------------------------------------------------------------------*/
FoamFile
{
    version     2.0;
    format      ascii;
    class       volScalarField;
    location    "181";
    object      pPrime2Mean;
}
// * * * * * * * * * * * * * * * * * * * * * * * * * * * * * * * * * * * * * //

dimensions      [0 4 -4 0 0 0 0];

internalField   nonuniform List<scalar> 
9200
(
0.06208498
0.051461715
0.042467966
0.036613282
0.031940437
0.028002219
0.02460418
0.021647176
0.019065221
0.016805465
0.014824131
0.013084524
0.01155566
0.010211215
0.0090287195
0.0079889608
0.0070756772
0.006275309
0.0055778254
0.0049702265
0.05034046
0.041646602
0.034376465
0.029598305
0.025765246
0.022525413
0.019726029
0.017289176
0.015162376
0.013303316
0.011676663
0.010252521
0.0090053818
0.007913321
0.0069573761
0.0061211072
0.0053903598
0.0047529418
0.0041975244
0.0037079695
0.039328287
0.032490089
0.026838587
0.023074133
0.020030171
0.017444925
0.015205537
0.01325461
0.011552943
0.010068456
0.0087738249
0.0076454231
0.006662617
0.0058072551
0.0050633017
0.004416594
0.0038547009
0.0033666571
0.0029414671
0.0025646976
0.029354034
0.02423908
0.020052493
0.017209965
0.014882736
0.01289097
0.011158856
0.0096482525
0.0083324792
0.0071888604
0.0061971987
0.0053392357
0.004598385
0.0039595872
0.0034092465
0.0029352079
0.0025267245
0.0021742781
0.0018684793
0.0015983998
0.020693021
0.017115506
0.014200648
0.012163327
0.010461778
0.0089876029
0.0076980907
0.0065724454
0.0055951605
0.0047516138
0.0040274351
0.0034085922
0.0028816381
0.0024339777
0.0020541031
0.0017317497
0.0014579424
0.0012248867
0.0010253689
0.00085206125
0.01358788
0.011312747
0.0094448875
0.0080750922
0.0068923875
0.0058475398
0.0049259357
0.0041214974
0.0034279084
0.0028367836
0.0023380186
0.0019205902
0.0015733484
0.0012856588
0.0010478517
0.00085146476
0.00068929304
0.00055529622
0.00044435096
0.00035194003
0.0082414882
0.006991008
0.0059228258
0.0050664282
0.004283188
0.0035695174
0.0029328983
0.002378634
0.0019070915
0.001514035
0.0011920167
0.00093190609
0.00072415938
0.00055971538
0.00043052491
0.00032977202
0.00025186605
0.00019232396
0.00014770884
0.00011539643
0.0048117817
0.0042741255
0.0037453078
0.0032364145
0.002723912
0.0022356505
0.0017943627
0.0014128529
0.0010953774
0.00083973623
0.0006396679
0.00048700628
0.00037326417
0.00029061195
0.00023235473
0.00019305463
0.00016843655
0.00015523418
0.00015118336
0.0001547631
0.0034073641
0.0032461014
0.0029918056
0.0026570651
0.0022808315
0.0019076205
0.0015676282
0.0012767843
0.001040342
0.00085622368
0.00071819299
0.00061838343
0.00054895316
0.00050297376
0.00047476315
0.00045988163
0.00045496195
0.00045752634
0.00046594324
0.0004791473
0.0040827761
0.0039482557
0.0037054812
0.0033685643
0.0029922399
0.0026219987
0.0022869408
0.0020015978
0.0017695638
0.0015873786
0.0014480272
0.0013434866
0.0012662045
0.0012097658
0.0011690559
0.0011401506
0.0011201043
0.0011067512
0.0010985606
0.0010943682
0.14746255
0.12401777
0.10249402
0.088884416
0.078078719
0.0690093
0.061201281
0.054398466
0.048442248
0.043207977
0.03859381
0.034515437
0.030902236
0.027694506
0.024841414
0.02229942
0.020031055
0.018002763
0.016183043
0.014553672
0.14558374
0.12231754
0.10104043
0.08758725
0.076917002
0.067963264
0.060255358
0.053541304
0.047664322
0.042500959
0.03795034
0.033928968
0.030366925
0.027205122
0.024393267
0.021888318
0.019653296
0.017655138
0.015862162
0.014256781
0.14175151
0.11895137
0.098207156
0.085088703
0.074695764
0.065976524
0.058470439
0.05193343
0.046212836
0.041188176
0.036760936
0.032849542
0.029385686
0.026311656
0.023578348
0.021143772
0.018971949
0.017030796
0.015288739
0.013728522
0.1360329
0.11400104
0.094076072
0.08146635
0.071485244
0.063112688
0.055904767
0.049628564
0.044137592
0.039316009
0.035068998
0.031317985
0.027997151
0.025050883
0.02243187
0.020099666
0.018019695
0.016161289
0.014493506
0.012998901
0.1285841
0.10760706
0.088766859
0.076827239
0.067381491
0.059458367
0.052637014
0.046698565
0.041504535
0.036945211
0.032930692
0.029386403
0.026249823
0.023468103
0.020996277
0.018795877
0.016834024
0.015081796
0.013509758
0.012100042
0.1196174
0.099955503
0.082434722
0.071308133
0.062506358
0.055122744
0.048765444
0.043232168
0.038394018
0.034148719
0.030412367
0.027115258
0.0241989
0.021613813
0.01931786
0.01727494
0.015454099
0.013828322
0.012370666
0.011063353
0.10939048
0.091269502
0.075263356
0.065069405
0.057002018
0.050232653
0.044403588
0.03933116
0.034897434
0.031008684
0.027587909
0.024571052
0.021904297
0.019542075
0.017445544
0.015581339
0.013920658
0.012438407
0.01111086
0.0099214627
0.098197125
0.081801335
0.067459039
0.05829009
0.051026549
0.0449286
0.039676668
0.035107283
0.031114558
0.027614213
0.02453691
0.021824885
0.019429567
0.017309803
0.015430482
0.013761378
0.01227618
0.010951827
0.0097682317
0.0087111919
0.086356558
0.071823034
0.059243193
0.051161369
0.044748126
0.039359619
0.034717088
0.030678211
0.027149976
0.024058249
0.021341952
0.018950144
0.016839967
0.014975109
0.013324593
0.011861734
0.01056319
0.0094083863
0.0083813765
0.007470374
0.074201898
0.061618788
0.050844508
0.043878267
0.038336955
0.033675685
0.029657441
0.026161362
0.023107817
0.020433268
0.018085284
0.016020068
0.014200756
0.012596126
0.011179595
0.0099283877
0.0088228954
0.0078465767
0.0069890099
0.0062388763
0.012834697
0.0111209
0.0096677088
0.0084060461
0.0073282082
0.0064049379
0.005610853
0.0049241824
0.0043272281
0.0038056188
0.0033477169
0.0029441979
0.0025875752
0.0022717583
0.0019917228
0.001743269
0.0015228387
0.0013273751
0.0011542217
0.0010010454
0.00086577912
0.00074657705
0.00064178032
0.00054989019
0.00046954734
0.00039951574
0.00033866985
0.00028598447
0.00024052643
0.00020144768
0.00016797936
0.00013942645
0.00011516293
9.4627122e-05
7.7317282e-05
6.2787191e-05
5.064206e-05
4.0534135e-05
3.2159103e-05
2.5251146e-05
1.9581771e-05
1.4949333e-05
1.1193872e-05
8.1477965e-06
5.7467012e-06
3.7670237e-06
2.4011134e-06
1.1015773e-06
1.4565948e-06
2.3900993e-06
0.012585513
0.010928671
0.0095171336
0.008287472
0.0072359109
0.0063338497
0.0055561627
0.0048819038
0.0042942824
0.0037796486
0.0033269663
0.0029274071
0.0025738506
0.0022604571
0.0019823724
0.0017355128
0.0015163988
0.0013220294
0.0011497884
0.00099737402
0.0008627437
0.00074407178
0.00063971621
0.00054819244
0.00046815318
0.00039837263
0.00033773395
0.00028521927
0.00023990166
0.00020093828
0.00016756465
0.00013908939
0.00011488951
9.440582e-05
7.713865e-05
6.2643473e-05
5.0526894e-05
4.0442299e-05
3.2086316e-05
2.5193898e-05
1.9537187e-05
1.4915069e-05
1.1168017e-05
8.1288343e-06
5.7333901e-06
3.7584049e-06
2.3965865e-06
1.0989227e-06
1.4477507e-06
2.3435679e-06
0.01214691
0.010592582
0.0092564498
0.0080855009
0.0070811473
0.0062165078
0.0054672461
0.0048140619
0.0042419642
0.0037387307
0.0032944576
0.0029012071
0.0025524968
0.0022429134
0.0019678848
0.0017235157
0.001506454
0.001313787
0.0011429629
0.00099172902
0.00085808166
0.00074022701
0.00063654965
0.00054558754
0.00046601244
0.00039661475
0.00033629138
0.00028403607
0.00023893163
0.0002001434
0.00016691368
0.0001385567
0.0001144541
9.4050483e-05
7.6849277e-05
6.2408485e-05
5.033677e-05
4.0289201e-05
3.1963778e-05
2.5096582e-05
1.9460684e-05
1.4855747e-05
1.1122897e-05
8.095506e-06
5.7099026e-06
3.7431612e-06
2.3887074e-06
1.0942756e-06
1.4300853e-06
2.2526884e-06
0.01154578
0.010133333
0.0089043077
0.0078181762
0.0068800146
0.0060662037
0.0053546449
0.0047287806
0.004176412
0.0036875098
0.0032537768
0.0028684425
0.0025258299
0.0022210535
0.0019498852
0.0017086595
0.0014941818
0.0013036506
0.0011345965
0.00098483021
0.000852399
0.0007355506
0.00063270424
0.00054242713
0.0004634157
0.00039448116
0.00033453796
0.00028259454
0.000237746
0.00019916786
0.0001661108
0.00013789597
0.00011391061
9.3603903e-05
7.6482961e-05
6.2108782e-05
5.0092439e-05
4.0090956e-05
3.180392e-05
2.4968717e-05
1.9359488e-05
1.4776792e-05
1.1062523e-05
8.050724e-06
5.6782647e-06
3.7226637e-06
2.3781414e-06
1.088217e-06
1.4035992e-06
2.1221321e-06
0.010808658
0.0095720568
0.0084799356
0.0075038985
0.0066486818
0.0058957714
0.0052280248
0.0046332044
0.0041028963
0.00362996
0.003208051
0.0028316831
0.0024960295
0.0021967618
0.0019300183
0.0016923827
0.0014808369
0.0012927095
0.0011256293
0.00097748417
0.0008463833
0.00073062513
0.00062867079
0.00053912239
0.0004607056
0.0003922559
0.00033270797
0.00028108699
0.00023650185
0.00019813933
0.00016525931
0.00013719035
0.00011332566
9.3119163e-05
7.6081786e-05
6.1777545e-05
4.9819908e-05
3.9867824e-05
3.1622419e-05
2.4822333e-05
1.9242747e-05
1.4685082e-05
1.0991989e-05
7.9981805e-06
5.6410393e-06
3.698639e-06
2.3657022e-06
1.0814893e-06
1.3685562e-06
1.9587544e-06
0.0099583186
0.0089280154
0.0080007193
0.0071576816
0.0063989914
0.0057134522
0.0050927033
0.004530856
0.0040239833
0.0035681602
0.0031591168
0.0027926324
0.0024646948
0.0021715297
0.0019096581
0.0016759349
0.0014675423
0.0012819611
0.0011169383
0.0009704549
0.0008406948
0.00072601694
0.00062493174
0.00053608172
0.00045822569
0.00039022633
0.0003310404
0.00027971112
0.00023536182
0.00019719095
0.00016446762
0.00013652766
0.00011276999
9.2652974e-05
7.5690957e-05
6.1450601e-05
4.9547402e-05
3.9641892e-05
3.1436432e-05
2.4670655e-05
1.9120553e-05
1.4588227e-05
1.0916934e-05
7.9419688e-06
5.6010541e-06
3.6729799e-06
2.3522409e-06
1.0748833e-06
1.325384e-06
1.7708763e-06
0.0090170248
0.0082204986
0.0074821643
0.0067886271
0.0061348452
0.0055200266
0.004948072
0.0044210597
0.0039395892
0.0035026813
0.0031080212
0.0027526202
0.0024332845
0.0021468323
0.0018902225
0.0016606348
0.0014554963
0.0012724762
0.0011094676
0.00096456589
0.00083604513
0.000722336
0.00062200618
0.00053374392
0.00045634467
0.00038870037
0.00032979104
0.00027867822
0.0002344996
0.00019646474
0.00016385125
0.0001360014
0.00011231891
9.2265664e-05
7.5358544e-05
6.1166033e-05
4.9304909e-05
3.9436619e-05
3.1264176e-05
2.4527703e-05
1.9003585e-05
1.4494252e-05
1.0843282e-05
7.8863564e-06
5.5612254e-06
3.6476121e-06
2.3385796e-06
1.069161e-06
1.2746654e-06
1.5675038e-06
0.0080124533
0.0074715364
0.0069361707
0.0063954732
0.0058481132
0.0053069897
0.0047878437
0.0043000904
0.0038481864
0.0034335698
0.0030557522
0.0027131093
0.0024034446
0.0021243245
0.001873276
0.0016479062
0.0014459628
0.001265357
0.0011041659
0.0009606252
0.00083311698
0.00072015509
0.00062037168
0.00053250501
0.00045538927
0.00038794632
0.00032917916
0.0002781667
0.00023405966
0.00019607716
0.00016350368
0.00013568626
0.0001120318
9.2004203e-05
7.5121506e-05
6.0952766e-05
4.911493e-05
3.9269393e-05
3.1118988e-05
2.4403618e-05
1.8899475e-05
1.440883e-05
1.0775162e-05
7.8342778e-06
5.523497e-06
3.623793e-06
2.3251018e-06
1.0648162e-06
1.2170677e-06
1.3576847e-06
0.0069719371
0.0066907854
0.0063504127
0.0059498243
0.0055079133
0.005049147
0.0045937397
0.0041549446
0.0037403796
0.0033539138
0.0029971084
0.0026700727
0.0023719749
0.0021014127
0.0018566863
0.0016359789
0.0014374643
0.0012593684
0.001100002
0.00095777477
0.00083119926
0.00071888779
0.00061954709
0.00053197216
0.00045504028
0.00038770594
0.00032899662
0.00027800936
0.00023390809
0.00019592124
0.00016333964
0.0001355144
0.00011185482
9.1825971e-05
7.4946216e-05
6.078437e-05
4.8956803e-05
3.9124171e-05
3.0988521e-05
2.428901e-05
1.880118e-05
1.4326772e-05
1.0708834e-05
7.7831105e-06
5.4860456e-06
3.6003328e-06
2.3108073e-06
1.0615608e-06
1.1535421e-06
1.1507012e-06
0.0059362004
0.0058543894
0.005669678
0.0054003831
0.0050749645
0.0047167086
0.0043426764
0.0039672249
0.0036011237
0.0032512972
0.0029218721
0.002615131
0.0023320137
0.0020724845
0.0018358697
0.0016211157
0.0014269603
0.0012520439
0.0010949817
0.00095440855
0.00082900433
0.00071750662
0.00061871665
0.00053150099
0.0004547913
0.00038758327
0.00032893539
0.00027796782
0.00023386134
0.00019585638
0.00016325202
0.00013540473
0.00011172699
9.1685483e-05
7.4799063e-05
6.0636301e-05
4.8812863e-05
3.8988475e-05
3.0864173e-05
2.4178127e-05
1.8705021e-05
1.424585e-05
1.0643062e-05
7.732217e-06
5.4486064e-06
3.5770006e-06
2.2955505e-06
1.059118e-06
1.0864986e-06
9.5627028e-07
0.0048088698
0.0048434434
0.0047857924
0.00464207
0.0044396764
0.0041955791
0.0039214195
0.0036299793
0.0033330634
0.0030393637
0.0027548973
0.0024838343
0.0022288632
0.0019914575
0.0017721958
0.0015710416
0.0013875457
0.00122099
0.0010704921
0.00093507852
0.00081373408
0.00070543389
0.00060916438
0.00052393683
0.00044879627
0.00038282739
0.00032515869
0.00027496548
0.000231472
0.00019395291
0.00016173427
0.00013419377
0.00011076056
9.0914409e-05
7.4184425e-05
6.0147219e-05
4.8424758e-05
3.8681725e-05
3.0623047e-05
2.3990007e-05
1.8559701e-05
1.4135271e-05
1.0560344e-05
7.6728994e-06
5.4066542e-06
3.5529201e-06
2.2776634e-06
1.0578347e-06
1.0169211e-06
7.8520713e-07
0.0037269537
0.0038248647
0.0038462807
0.003791908
0.0036838452
0.0035344782
0.0033506256
0.003142105
0.0029194613
0.0026910053
0.0024629476
0.0022400786
0.0020259358
0.0018229071
0.0016324621
0.0014553896
0.0012919756
0.0011421411
0.0010055491
0.00088168764
0.000769929
0.00066957277
0.00057987671
0.00050007905
0.00042941479
0.00036712785
0.00031248024
0.00026475932
0.00022328331
0.00018740572
0.00015651856
0.00013005469
0.00010748921
8.8340127e-05
7.216821e-05
5.8576253e-05
4.720777e-05
3.7745139e-05
2.9907728e-05
2.3448674e-05
1.8154498e-05
1.383651e-05
1.0343617e-05
7.5211527e-06
5.3016384e-06
3.490385e-06
2.2327746e-06
1.0477524e-06
9.2855172e-07
6.2280692e-07
0.0027967377
0.0029358785
0.0030125628
0.003026985
0.0029928932
0.0029193298
0.0028104368
0.0026731773
0.0025162186
0.0023469769
0.0021713482
0.0019942202
0.0018195328
0.0016502453
0.0014884636
0.0013356155
0.0011925942
0.0010598734
0.00093760667
0.00082570948
0.00072392227
0.00063185921
0.0005490456
0.00047494649
0.00040898892
0.00035057916
0.00029911648
0.00025400406
0.00021465786
0.00018051363
0.00015103252
0.0001257053
0.00010405552
8.5641519e-05
7.0057575e-05
5.6934195e-05
4.5937737e-05
3.6769351e-05
2.9163729e-05
2.2886592e-05
1.7734449e-05
1.3527297e-05
1.0119543e-05
7.3645168e-06
5.192866e-06
3.4260982e-06
2.1843729e-06
1.0389886e-06
8.3273766e-07
4.7057095e-07
0.0020149994
0.0021752251
0.0022858517
0.0023480792
0.0023682481
0.0023523726
0.0023031436
0.0022250878
0.002124628
0.0020078667
0.0018800013
0.0017455914
0.0016085645
0.0014721068
0.0013386877
0.0012101652
0.0010878834
0.00097275863
0.00086535928
0.00076597814
0.00067469244
0.00059141276
0.00051592272
0.00044791096
0.00038699712
0.00033275277
0.00028471857
0.00024241833
0.00020537062
0.00017309822
0.00014513582
0.00012103621
0.00010037493
8.2753832e-05
6.7803389e-05
5.5184141e-05
4.4587234e-05
3.573421e-05
2.8376425e-05
2.2293275e-05
1.7292139e-05
1.3202419e-05
9.8845466e-06
7.2003788e-06
5.0787189e-06
3.3583587e-06
2.1321204e-06
1.0299322e-06
7.3638033e-07
3.4052644e-07
0.0013863219
0.0015470506
0.0016719377
0.0017618985
0.0018177492
0.0018425472
0.0018378798
0.0018063784
0.0017522703
0.00168011
0.0015941285
0.0014982509
0.0013960574
0.001290646
0.0011845831
0.0010799367
0.00097832845
0.00088098386
0.00078878787
0.00070234016
0.00062200569
0.00054795859
0.00048021989
0.00041868957
0.00036317359
0.00031340668
0.00026907148
0.00022981474
0.00019526092
0.00016502359
0.00013871496
0.00011595358
9.6370646e-05
7.961475e-05
6.535552e-05
5.3286081e-05
4.312458e-05
3.4614826e-05
2.7526417e-05
2.1653728e-05
1.6816089e-05
1.2853157e-05
9.6321181e-06
7.0238511e-06
4.9557612e-06
3.2844208e-06
2.0747044e-06
1.0188429e-06
6.4341683e-07
2.3897247e-07
0.00090482391
0.0010496157
0.0011722316
0.0012723486
0.0013472574
0.0013973993
0.0014232002
0.0014258016
0.0014075476
0.0013714288
0.0013205599
0.00125804
0.0011868684
0.0011098061
0.0010292824
0.00094737021
0.00086579424
0.0007859481
0.00070892212
0.00063553801
0.00056638521
0.00050185553
0.0004421751
0.0003874332
0.00033760791
0.00029258849
0.00025219508
0.00021619568
0.00018432088
0.00015627657
0.00013175464
0.00011044209
9.2028442e-05
7.6211769e-05
6.2703378e-05
5.1231309e-05
4.1542781e-05
3.3405685e-05
2.6609419e-05
2.0964647e-05
1.6303764e-05
1.2477542e-05
9.3607339e-06
6.8336515e-06
4.8230599e-06
3.2032246e-06
2.0119063e-06
1.0044733e-06
5.5706238e-07
1.68072e-07
0.00055489071
0.00067370468
0.00078214181
0.00087862378
0.00095872096
0.001020986
0.0010647095
0.0010898321
0.0010972022
0.0010884026
0.0010654166
0.0010304346
0.00098573955
0.00093358207
0.00087607111
0.00081510998
0.00075236762
0.00068926782
0.00062699142
0.00056648947
0.00050850292
0.00045358511
0.00040212513
0.00035437071
0.00031045002
0.00027039179
0.00023414372
0.00020158901
0.00017256125
0.00014685739
0.00012424926
0.00010449333
8.733911e-05
7.2536041e-05
5.9839107e-05
4.9013218e-05
3.9836514e-05
3.2102641e-05
2.5622291e-05
2.02237e-05
1.5753451e-05
1.2074299e-05
9.0694453e-06
6.6289771e-06
4.68007e-06
3.1140349e-06
1.9438585e-06
9.8569959e-07
4.7974851e-07
1.2604997e-07
0.0003163618
0.00040497363
0.00049216995
0.0005755922
0.00065042864
0.00071418964
0.00076528837
0.0008027556
0.00082633354
0.00083645822
0.0008340828
0.00082050935
0.00079726872
0.00076600974
0.00072839675
0.00068603078
0.00064039491
0.0005928209
0.00054447118
0.00049633292
0.00044922121
0.00040378834
0.00036053677
0.00031983433
0.00028193021
0.00024697111
0.00021501685
0.00018605519
0.00016001557
0.00013678176
0.00011620319
9.8105003e-05
8.2296841e-05
6.8580327e-05
5.6755322e-05
4.6625016e-05
3.7999929e-05
3.0700896e-05
2.4561245e-05
1.9427989e-05
1.5162985e-05
1.1641829e-05
8.7570904e-06
6.4089346e-06
4.5262343e-06
3.0162363e-06
1.8708398e-06
9.6164544e-07
4.1282349e-07
1.0761176e-07
0.00016812599
0.00022653451
0.00028957519
0.00035463393
0.00041731517
0.00047480326
0.00052503422
0.00056646173
0.00059809213
0.00061952082
0.00063086003
0.00063262646
0.00062564237
0.00061094528
0.00058969963
0.00056311987
0.00053240886
0.00049870995
0.00046307389
0.00042643844
0.0003896176
0.00035329838
0.00031804331
0.0002842969
0.00025239488
0.00022257499
0.00019498868
0.00016971296
0.00014676217
0.00012609917
0.00010764594
9.1293184e-05
7.6909049e-05
6.4346755e-05
5.3451187e-05
4.4064427e-05
3.6030266e-05
2.9197759e-05
2.3423942e-05
1.8575628e-05
1.4530934e-05
1.1179097e-05
8.4229655e-06
6.1730527e-06
4.3613543e-06
2.9096552e-06
1.7934065e-06
9.3197303e-07
3.5664976e-07
1.0526406e-07
9.0237898e-05
0.00012112855
0.00016018541
0.00020492624
0.00025174169
0.0002979764
0.00034148271
0.00038047247
0.00041355246
0.0004397838
0.00045867252
0.00047011304
0.00047432393
0.00047178383
0.00046316491
0.00044926713
0.0004309598
0.00040913227
0.00038465326
0.00035834059
0.00033094045
0.00030311417
0.0002754314
0.0002483682
0.0002223092
0.00019755254
0.00017431674
0.00015274891
0.00013293355
0.00011490171
9.8639967e-05
8.4099072e-05
7.1202039e-05
5.985148e-05
4.9936156e-05
4.1336648e-05
3.3930155e-05
2.7594413e-05
2.2210826e-05
1.7666749e-05
1.3857354e-05
1.0686195e-05
8.0672384e-06
5.921587e-06
4.1858059e-06
2.7947137e-06
1.7124145e-06
8.9697719e-07
3.1084055e-07
1.1112787e-07
6.5151514e-05
7.2632856e-05
8.9874108e-05
0.000114743
0.00014451154
0.00017694731
0.00021010805
0.0002422428
0.00027184003
0.00029770045
0.00031896327
0.00033509227
0.00034584655
0.00035124471
0.00035152245
0.00034708516
0.00033846
0.00032625159
0.00031110286
0.00029366143
0.00027455303
0.00025436179
0.00023361623
0.00021278063
0.00019225061
0.00017235233
0.00015334442
0.00013542198
0.00011872207
0.00010333003
8.9286458e-05
7.6594266e-05
6.5225619e-05
5.5128564e-05
4.6233141e-05
3.8456873e-05
3.1709566e-05
2.5897383e-05
2.0926211e-05
1.6704289e-05
1.3144338e-05
1.016472e-05
7.6912042e-06
5.6556831e-06
4.0006387e-06
2.6724753e-06
1.6289887e-06
8.5755782e-07
2.7453635e-07
1.1864964e-07
7.8213491e-05
6.6879763e-05
6.5542318e-05
7.2495902e-05
8.5834956e-05
0.00010384326
0.00012494273
0.00014760753
0.0001704155
0.00019212573
0.00021172244
0.00022842778
0.00024169991
0.00025122225
0.00025688401
0.00025875254
0.00025704074
0.00025207285
0.00024425138
0.00023402649
0.00022186873
0.0002082464
0.00019360759
0.00017836671
0.00016289512
0.00014751539
0.00013249865
0.00011806451
0.00010438289
9.1577435e-05
7.9729919e-05
6.8885351e-05
5.9057381e-05
5.0233784e-05
4.2381771e-05
3.5452971e-05
2.938795e-05
2.4120194e-05
1.957952e-05
1.5694874e-05
1.2396631e-05
9.6181713e-06
7.2975286e-06
5.3774957e-06
3.8076139e-06
2.5445883e-06
1.5444279e-06
8.1503757e-07
2.4657225e-07
1.2364442e-07
0.0001176505
9.1968369e-05
7.5666009e-05
6.7449391e-05
6.6102924e-05
7.0412003e-05
7.9211627e-05
9.1295346e-05
0.00010545826
0.00012057048
0.00013562561
0.00014976647
0.00016229992
0.0001727045
0.00018062935
0.00018588434
0.0001884232
0.00018832209
0.00018575592
0.00018097405
0.00017427683
0.00016599396
0.00015646561
0.00014602679
0.0001349949
0.0001236606
0.0001122814
0.00010107805
9.0233041e-05
7.9890997e-05
7.0160481e-05
6.1116854e-05
5.2805876e-05
4.5247729e-05
3.8441222e-05
3.236796e-05
2.6996307e-05
2.2285037e-05
1.8186577e-05
1.4649788e-05
1.1622316e-05
9.0524113e-06
6.8905251e-06
5.090321e-06
3.6092428e-06
2.4132162e-06
1.4601337e-06
7.7095179e-07
2.2557789e-07
1.2443306e-07
0.00017428928
0.00013825217
0.0001105154
9.0133808e-05
7.6425789e-05
6.8606901e-05
6.5900835e-05
6.7439639e-05
7.2292302e-05
7.9527346e-05
8.8257451e-05
9.7667648e-05
0.00010703739
0.00011575838
0.00012334582
0.00012944192
0.00013381237
0.00013633729
0.000136998
0.00013586115
0.00013306136
0.00012878365
0.00012324661
0.00011668708
0.00010934695
0.00010146217
9.325416e-05
8.4923456e-05
7.664559e-05
6.8568784e-05
6.0813285e-05
5.3472006e-05
4.6612186e-05
4.0277776e-05
3.4492307e-05
2.9262011e-05
2.4578992e-05
2.0424312e-05
1.6770862e-05
1.3585947e-05
1.0833538e-05
8.4761623e-06
6.4764698e-06
4.798753e-06
3.4088351e-06
2.280962e-06
1.3775548e-06
7.2683556e-07
2.1003624e-07
1.2121205e-07
0.00024116116
0.00019813822
0.00016214769
0.00013251736
0.00010894982
9.0998191e-05
7.8211894e-05
7.0031616e-05
6.5803113e-05
6.4826162e-05
6.6390694e-05
6.9801213e-05
7.4398853e-05
7.9582439e-05
8.4825739e-05
8.9689094e-05
9.3825329e-05
9.6980522e-05
9.8990319e-05
9.977255e-05
9.9317082e-05
9.7673899e-05
9.4940345e-05
9.1248351e-05
8.6752354e-05
8.1618416e-05
7.6014816e-05
7.0104364e-05
6.4038424e-05
5.7952648e-05
5.196425e-05
4.6170659e-05
4.0649323e-05
3.5458437e-05
3.063838e-05
2.6213628e-05
2.2194968e-05
1.8581824e-05
1.5364585e-05
1.2526802e-05
1.0047214e-05
7.9015395e-06
6.0639694e-06
4.5089058e-06
3.210615e-06
2.1508724e-06
1.2982232e-06
6.8411584e-07
1.98424e-07
1.1511749e-07
0.0003130886
0.00026579976
0.00022426268
0.00018800752
0.00015699315
0.00013101861
0.00010988316
9.3281381e-05
8.0805008e-05
7.1978765e-05
6.6286711e-05
6.3190012e-05
6.2144835e-05
6.2621707e-05
6.4123653e-05
6.620106e-05
6.8462715e-05
7.0582998e-05
7.2305286e-05
7.3441761e-05
7.3870052e-05
7.3527323e-05
7.2402517e-05
7.0527464e-05
6.7967498e-05
6.4812172e-05
6.116656e-05
5.714344e-05
5.2856645e-05
4.8415644e-05
4.3921434e-05
3.9463648e-05
3.5118803e-05
3.0949521e-05
2.7004581e-05
2.3319596e-05
1.9918174e-05
1.6813372e-05
1.4009336e-05
1.1502973e-05
9.2856017e-06
7.344515e-06
5.6643156e-06
4.2286557e-06
3.0198761e-06
2.0265022e-06
1.2238486e-06
6.4409638e-07
1.8942098e-07
1.0743843e-07
0.00038630828
0.00033686948
0.00029199022
0.00025134563
0.00021505059
0.00018307094
0.00015538282
0.00013187286
0.00011233188
9.647984e-05
8.3983331e-05
7.4466357e-05
6.7522451e-05
6.2729726e-05
5.9666555e-05
5.7925976e-05
5.7128144e-05
5.6930505e-05
5.7035392e-05
5.7194798e-05
5.7212348e-05
5.6942668e-05
5.6288537e-05
5.5196287e-05
5.3649943e-05
5.1664603e-05
4.9279558e-05
4.6551537e-05
4.3548409e-05
4.0343599e-05
3.7011351e-05
3.362293e-05
3.0243772e-05
2.6931523e-05
2.3734898e-05
2.0693231e-05
1.7836597e-05
1.518636e-05
1.2756046e-05
1.0552397e-05
8.5765346e-06
6.8251753e-06
5.2917221e-06
3.9678393e-06
2.843138e-06
1.9120302e-06
1.1564653e-06
6.0803752e-07
1.8214181e-07
9.9214719e-08
0.00045815034
0.00040815093
0.0003616568
0.00031844516
0.00027871376
0.00024253279
0.00020999335
0.00018111618
0.00015584085
0.00013404252
0.00011554259
0.00010011349
8.7485275e-05
7.7355599e-05
6.9401358e-05
6.3290432e-05
5.8692935e-05
5.5291596e-05
5.2790852e-05
5.0924184e-05
4.9459445e-05
4.8202068e-05
4.6996232e-05
4.5724173e-05
4.4303903e-05
4.2685695e-05
4.0847689e-05
3.8791004e-05
3.6534696e-05
3.4110832e-05
3.1559948e-05
2.8927028e-05
2.6258127e-05
2.3597684e-05
2.0986521e-05
1.8460484e-05
1.6049668e-05
1.3778124e-05
1.1663959e-05
9.7197437e-06
7.9531241e-06
6.3676027e-06
4.9633095e-06
3.7382919e-06
2.6882131e-06
1.8123444e-06
1.0985499e-06
5.772598e-07
1.7626299e-07
9.1160641e-08
0.00052677731
0.00047736619
0.00043056077
0.00038621016
0.00034454491
0.00030569367
0.00026981428
0.0002370131
0.00020733236
0.00018076132
0.00015724204
0.00013667001
0.00011889625
0.00010373266
9.095946e-05
8.0333353e-05
7.1596202e-05
6.4483788e-05
5.8734377e-05
5.4096542e-05
5.0335897e-05
4.724045e-05
4.4624441e-05
4.2330611e-05
4.0230958e-05
3.8226144e-05
3.6243739e-05
3.4235583e-05
3.2174529e-05
3.0050849e-05
2.7868537e-05
2.564172e-05
2.3391362e-05
2.1142352e-05
1.8921071e-05
1.6753459e-05
1.4663571e-05
1.2672603e-05
1.0798322e-05
9.0548523e-06
7.4527301e-06
5.9992197e-06
4.6987065e-06
3.5536271e-06
2.5641064e-06
1.7330348e-06
1.053065e-06
5.5322483e-07
1.7199816e-07
8.3734982e-08
0.00059097655
0.0005429449
0.0004967714
0.00045235673
0.00040993228
0.00036965352
0.00033171009
0.00029625654
0.00026339965
0.00023320598
0.00020570455
0.00018088491
0.00015869614
0.0001390487
0.00012181821
0.00010685016
9.3965591e-05
8.2967364e-05
7.3647033e-05
6.579167e-05
5.9190454e-05
5.3640607e-05
4.8952491e-05
4.4953628e-05
4.1491578e-05
3.8435627e-05
3.5677356e-05
3.3130187e-05
3.0728091e-05
2.8423647e-05
2.6185639e-05
2.3996423e-05
2.1849212e-05
1.9745452e-05
1.7692402e-05
1.5701007e-05
1.3784113e-05
1.1955038e-05
1.0226512e-05
8.6099438e-06
7.114995e-06
5.7494331e-06
4.5191413e-06
3.4286549e-06
2.4806659e-06
1.680222e-06
1.023374e-06
5.3754395e-07
1.6993846e-07
7.7218564e-08
0.00064999788
0.00060385234
0.00055895654
0.00051524959
0.00047294493
0.00043220446
0.00039322593
0.00035618513
0.00032122431
0.00028845735
0.00025797074
0.00022982035
0.00020402871
0.00018058449
0.00015944355
0.00014053085
0.00012374339
0.00010895391
9.6015596e-05
8.4767106e-05
7.5038039e-05
6.665429e-05
5.9443184e-05
5.3238097e-05
4.7882411e-05
4.3232628e-05
3.9160616e-05
3.5554934e-05
3.2321322e-05
2.9382411e-05
2.6676801e-05
2.4157656e-05
2.1790949e-05
1.9553521e-05
1.743109e-05
1.5416307e-05
1.350697e-05
1.1704443e-05
1.0012322e-05
8.4353752e-06
6.9787432e-06
5.6474175e-06
4.4458965e-06
3.3783437e-06
2.4479166e-06
1.6601715e-06
1.0130074e-06
5.3189659e-07
1.7084375e-07
7.1764785e-08
0.00070342558
0.00065945015
0.00061623781
0.00057375783
0.00053219609
0.00049170874
0.00045248684
0.00041470936
0.00037853327
0.00034409714
0.00031152132
0.00028090427
0.00025231921
0.00022581216
0.00020140129
0.00017907686
0.00015880193
0.00014051398
0.00012412739
0.0001095366
9.6619919e-05
8.5243621e-05
7.5266315e-05
6.6543233e-05
5.8930323e-05
5.228793e-05
4.6483939e-05
4.1396273e-05
3.6914708e-05
3.2941985e-05
2.9394263e-05
2.6200989e-05
2.3304268e-05
2.0657858e-05
1.82259e-05
1.5981491e-05
1.390521e-05
1.198368e-05
1.0208232e-05
8.5737241e-06
7.0775516e-06
5.7188728e-06
4.4979981e-06
3.4162283e-06
2.4750079e-06
1.6786448e-06
1.0252646e-06
5.3785181e-07
1.7544936e-07
6.7435863e-08
0.00075107897
0.0007093856
0.00066807197
0.00062713254
0.00058672187
0.000546984
0.00050809496
0.00047022585
0.00043353458
0.00039816854
0.00036426438
0.00033194453
0.0003013138
0.00027245689
0.00024543672
0.00022029318
0.00019704241
0.00017567676
0.00015616554
0.00013845645
0.00012247767
0.00010814055
9.5342694e-05
8.397136e-05
7.3907038e-05
6.5026934e-05
5.7208314e-05
5.0331505e-05
4.4282472e-05
3.8954889e-05
3.4251665e-05
3.0085921e-05
2.6381449e-05
2.3072713e-05
2.0104448e-05
1.7430971e-05
1.5015262e-05
1.2827935e-05
1.084614e-05
9.0525078e-06
7.4341565e-06
5.9818336e-06
4.6891623e-06
3.5522611e-06
2.5687631e-06
1.7399784e-06
1.0626554e-06
5.5659855e-07
1.8431158e-07
6.4232579e-08
0.00079292754
0.00075349611
0.00071414671
0.0006748961
0.00063586742
0.00059719002
0.0005590212
0.00052151819
0.00048483158
0.00044910729
0.00041448615
0.00038110104
0.00034907367
0.00031851213
0.00028950879
0.00026213847
0.00023645687
0.00021249948
0.00019028111
0.00016979592
0.00015101809
0.00013390311
0.00011838957
0.00010440136
9.1850376e-05
8.0639289e-05
7.0664568e-05
6.1819386e-05
5.3996424e-05
4.7090389e-05
4.1000205e-05
3.5630789e-05
3.0894392e-05
2.6711504e-05
2.3011344e-05
1.9731964e-05
1.6820054e-05
1.4230478e-05
1.1925649e-05
9.8747784e-06
8.0530905e-06
6.4410562e-06
5.0236443e-06
3.7898476e-06
2.7316533e-06
1.8457792e-06
1.1261204e-06
5.8855637e-07
1.97658e-07
6.2110857e-08
0.00082903392
0.00079174348
0.00075430698
0.00071676213
0.0006792025
0.00064174253
0.00060452012
0.00056767625
0.00053134998
0.0004956798
0.0004608032
0.00042685438
0.00039396154
0.00036224469
0.00033181347
0.00030276517
0.0002751828
0.00024913344
0.00022466694
0.0002018151
0.00018059121
0.00016099023
0.00014298931
0.00012654899
0.00011161473
9.8118843e-05
8.5982815e-05
7.5119715e-05
6.5436777e-05
5.683793e-05
4.9226223e-05
4.2506028e-05
3.6584976e-05
3.1375548e-05
2.6796317e-05
2.2772822e-05
1.9238101e-05
1.6132898e-05
1.3405615e-05
1.1012045e-05
8.9149416e-06
7.0835117e-06
5.4928176e-06
4.123357e-06
2.9600687e-06
1.9938035e-06
1.2143695e-06
6.3305611e-07
2.1529965e-07
6.0992571e-08
0.0008594702
0.00082412036
0.00078845244
0.00075252439
0.00071640306
0.00068018933
0.00064400293
0.00060796862
0.00057221254
0.00053686301
0.00050205011
0.00046790399
0.00043455264
0.00040212006
0.00037072429
0.00034047548
0.00031147389
0.00028380804
0.00025755302
0.00023276909
0.00020950054
0.00018777497
0.00016760301
0.00014897842
0.00013187867
0.00011626602
0.0001020889