/*--------------------------------*- C++ -*----------------------------------*\
  =========                 |
  \\      /  F ield         | OpenFOAM: The Open Source CFD Toolbox
   \\    /   O peration     | Website:  https://openfoam.org
    \\  /    A nd           | Version:  6
     \\/     M anipulation  |
\*---------------------------------------------------------------------------*/
FoamFile
{
    version     2.0;
    format      ascii;
    class       volVectorField;
    location    "181";
    object      U;
}
// * * * * * * * * * * * * * * * * * * * * * * * * * * * * * * * * * * * * * //

dimensions      [0 1 -1 0 0 0 0];

internalField   nonuniform List<vector> 
9200
(
(0.0010393476 0.0014199816 -5.9201859e-20)
(0.013676074 -0.0020583701 4.6042541e-20)
(0.038313183 -0.0058665742 -3.850175e-20)
(0.072274465 -0.0097635142 -6.0257759e-20)
(0.11376478 -0.013490041 1.8826971e-20)
(0.16158095 -0.016605673 3.2743889e-20)
(0.21467156 -0.018817303 -1.2268013e-20)
(0.27206617 -0.019973912 9.2688653e-21)
(0.33285633 -0.020011247 1.6803429e-20)
(0.3961636 -0.018929079 1.4848076e-21)
(0.46111571 -0.016779846 -2.1456342e-20)
(0.52683703 -0.013657764 2.0670011e-20)
(0.59245086 -0.0096880335 -4.0422162e-20)
(0.65709151 -0.0050158145 -2.1133909e-20)
(0.71992492 0.00020552057 5.9046547e-21)
(0.78017523 0.0058240511 -2.5131683e-20)
(0.83717082 0.011712765 2.5217122e-20)
(0.89046899 0.017918461 2.2243199e-20)
(0.93967093 0.024573356 -2.9929712e-22)
(0.98205209 0.028293321 -1.6691879e-21)
(0.0052521831 -0.0013462743 -1.7059357e-20)
(0.026962512 -0.0089890313 3.9747715e-20)
(0.061670138 -0.014809772 2.3576305e-20)
(0.10629493 -0.01917228 -1.156976e-19)
(0.15873571 -0.022214009 -1.2727092e-20)
(0.21753359 -0.0237207 7.3297093e-20)
(0.28137305 -0.023595113 -3.5476409e-20)
(0.34900612 -0.021868984 -8.3905586e-21)
(0.41923933 -0.018645545 3.4287549e-20)
(0.49090958 -0.014080864 -4.3259591e-20)
(0.56287248 -0.008375976 -3.0338489e-20)
(0.63400865 -0.0017666221 7.1921454e-20)
(0.70324349 0.0054883641 3.8294061e-20)
(0.76957602 0.013118599 -6.7976581e-20)
(0.83211267 0.020852045 1.4623696e-20)
(0.89010058 0.028419663 -3.6733414e-20)
(0.94296938 0.035569626 -1.3777199e-20)
(0.99043251 0.042140832 7.0974804e-20)
(1.0323563 0.047715248 2.9641998e-20)
(1.066935 0.049139623 -8.3478348e-20)
(0.010858431 -0.0040424177 3.6773468e-20)
(0.043953429 -0.015431083 2.5047402e-21)
(0.090515465 -0.022552292 2.2341723e-20)
(0.14711144 -0.026497371 9.8116838e-22)
(0.21134261 -0.027886312 -4.0773954e-20)
(0.28146775 -0.026795131 1.8576404e-20)
(0.35587051 -0.023382747 1.3420306e-20)
(0.43299019 -0.017921557 -5.0327717e-20)
(0.51132491 -0.010735673 5.7261874e-20)
(0.58942629 -0.0021839054 1.425669e-20)
(0.66590933 0.0073478776 -5.4300726e-20)
(0.73948054 0.017460232 -1.8237408e-20)
(0.80897617 0.027756527 9.0591654e-21)
(0.87340284 0.037859231 2.3444746e-20)
(0.93197382 0.047423998 -1.136251e-20)
(0.98413388 0.056148921 2.7877739e-20)
(1.0295742 0.063789115 -2.0188249e-20)
(1.0682647 0.070204326 -7.0123621e-20)
(1.1003323 0.075119305 -2.3796284e-20)
(1.1249114 0.076641158 4.8659845e-20)
(0.01795722 -0.0064221657 2.4508023e-20)
(0.064777015 -0.020694807 5.1039233e-20)
(0.12485232 -0.028060858 1.9881697e-20)
(0.19446971 -0.030464079 1.2990091e-20)
(0.27094939 -0.029094857 1.7275702e-20)
(0.35224889 -0.024388995 -4.772018e-20)
(0.4364315 -0.016825991 -2.5646861e-20)
(0.52162021 -0.0069766908 0)
(0.60602911 0.0045670094 1.3920617e-20)
(0.68798724 0.017211706 -5.8523396e-21)
(0.76597536 0.030373893 -9.793498e-20)
(0.83867466 0.0434996 -1.5774823e-20)
(0.90501545 0.05608658 6.5103223e-20)
(0.96421589 0.067704093 4.8442706e-22)
(1.0158037 0.078007667 -1.5725572e-21)
(1.0596157 0.086746738 2.1957503e-20)
(1.0957775 0.093772167 -5.2647218e-21)
(1.1246801 0.099065267 -6.1029759e-20)
(1.1468649 0.10259701 -4.5851252e-20)
(1.1622959 0.10341377 6.9520539e-20)
(0.026579428 -0.0082056907 -3.9194237e-21)
(0.089344045 -0.024033514 -5.1256422e-21)
(0.16430758 -0.030264999 5.6599418e-20)
(0.24758126 -0.029810032 1.8539321e-20)
(0.33624169 -0.024513042 -3.1955066e-20)
(0.42795137 -0.015239875 1.2163845e-20)
(0.52047275 -0.0028513795 2.6402869e-21)
(0.61166372 0.011737077 3.3609178e-20)
(0.69954728 0.027640122 5.6599523e-21)
(0.78236855 0.044028746 -1.3204744e-20)
(0.85865424 0.060147698 6.015406e-20)
(0.9272693 0.07534044 -5.8009379e-20)
(0.98745695 0.089072826 -1.3216618e-19)
(1.0388533 0.10094898 -5.5773057e-21)
(1.0814727 0.11071704 8.3150804e-20)
(1.1156657 0.118264 0)
(1.142055 0.12360577 1.0118963e-20)
(1.161467 0.12689049 -1.5459776e-20)
(1.1748181 0.12829863 -8.5994636e-21)
(1.1826674 0.12744908 2.0992235e-20)
(0.036666919 -0.0090895822 -5.4309214e-21)
(0.11731514 -0.024685364 4.3578751e-21)
(0.20811874 -0.028140188 -8.7629849e-21)
(0.3051571 -0.023414966 2.8472404e-20)
(0.40533549 -0.013075603 -2.9392668e-20)
(0.50607159 0.0015226027 -1.6927027e-20)
(0.60490504 0.019095127 3.7364247e-20)
(0.69954975 0.03836524 4.7595472e-21)
(0.78800409 0.058167628 -2.4436066e-20)
(0.86863423 0.077482984 6.9867585e-20)
(0.94023991 0.095458619 5.2393919e-22)
(1.0020957 0.11143154 -8.0444346e-20)
(1.0539571 0.12494287 0)
(1.0960275 0.13573746 3.954213e-20)
(1.1288923 0.14374838 5.5236019e-21)
(1.153428 0.14906888 -7.7566429e-20)
(1.1706992 0.15191908 -1.9586929e-20)
(1.1818625 0.15262362 -1.2467637e-20)
(1.1880593 0.15152599 -1.4709393e-20)
(1.1901461 0.14858485 4.0420534e-20)
(0.04805888 -0.0087674074 -1.7277966e-20)
(0.14808314 -0.021931999 -2.2198075e-21)
(0.25514076 -0.020797842 3.0380516e-20)
(0.36546393 -0.010412801 3.7484327e-20)
(0.47590432 0.0059015798 -1.994474e-20)
(0.58374279 0.026269298 -6.9163052e-20)
(0.686442 0.0489772 -2.7995806e-20)
(0.7817622 0.072417778 7.8929239e-20)
(0.86790213 0.095212465 8.5778169e-21)
(0.94358934 0.1162496 -2.4873492e-20)
(1.008126 0.13469825 1.3642218e-20)
(1.0613872 0.15001553 -4.3194498e-21)
(1.1037695 0.16193656 0)
(1.1360976 0.17044424 2.7203493e-20)
(1.1595047 0.17572304 -7.9322442e-20)
(1.1753022 0.17810364 -3.147554e-20)
(1.1848571 0.17800807 8.1054606e-20)
(1.1894922 0.17590939 -4.2969881e-21)
(1.190403 0.17225552 3.5561078e-21)
(1.1885081 0.16719291 2.7111579e-20)
(0.060485265 -0.0069573658 -3.2414626e-20)
(0.18077777 -0.015170385 -8.1624323e-20)
(0.30388936 -0.0075835321 2.579788e-21)
(0.42642565 0.0097033516 7.0161829e-20)
(0.54535161 0.032631549 6.2424397e-20)
(0.65798115 0.058820039 -7.1574547e-20)
(0.76190898 0.086176503 -2.8275017e-22)
(0.85518308 0.1128523 8.5522579e-20)
(0.93645363 0.13737836 4.8828086e-20)
(1.0050417 0.15869369 -5.4218425e-20)
(1.0609358 0.17613561 -9.2334246e-20)
(1.1047244 0.18941352 -3.1589837e-21)
(1.137476 0.19855941 4.2127882e-20)
(1.1605875 0.20385853 -6.6056287e-21)
(1.1756249 0.20577015 -1.2868789e-20)
(1.1841778 0.20484914 1.9690812e-20)
(1.1877428 0.20167892 4.3880633e-20)
(1.1876454 0.19682582 -4.3859446e-20)
(1.1849955 0.19077877 -1.0232205e-19)
(1.1806251 0.18377373 2.456689e-20)
(0.073537231 -0.0034329745 -3.4979749e-20)
(0.21422692 -0.003989028 -1.7388617e-19)
(0.35251665 0.011839374 8.2103258e-20)
(0.48562808 0.037018336 9.2767553e-20)
(0.61085392 0.066835553 5.7970591e-20)
(0.72576741 0.098481179 8.6107129e-21)
(0.82834818 0.12959696 -1.0624013e-19)
(0.91719014 0.15824268 0)
(0.99162761 0.18302814 -6.8748608e-20)
(1.0517522 0.20311205 -1.5202412e-20)
(1.0983385 0.21814859 5.4703482e-20)
(1.1327009 0.2282108 1.0973381e-20)
(1.1565111 0.23369257 -4.5613868e-20)
(1.1716069 0.23519943 -4.9081377e-20)
(1.1798205 0.23344331 2.4287692e-20)
(1.1828451 0.22915318 4.4822911e-20)
(1.182149 0.22300981 -5.560043e-20)
(1.1789361 0.21560817 -1.0751126e-19)
(1.1741469 0.20742218 -3.1513613e-21)
(1.1684568 0.19871874 2.7046409e-20)
(0.086650464 0.0019613859 -3.5448928e-21)
(0.24696024 0.011816634 8.7913267e-20)
(0.39884748 0.037492312 -1.6479263e-20)
(0.54040476 0.071218387 -8.4309206e-20)
(0.66949915 0.10778894 4.5164394e-20)
(0.78421967 0.14411544 4.9175458e-20)
(0.88318955 0.17775669 5.5356797e-21)
(0.96577886 0.2068849 -9.9502506e-20)
(1.0321764 0.23038802 -2.5048784e-21)
(1.083333 0.24781552 5.0503551e-20)
(1.1208071 0.25926299 5.9854757e-21)
(1.1465559 0.26523618 -1.9717222e-20)
(1.1627109 0.2665053 -7.5704658e-20)
(1.1713766 0.26396619 -6.2554013e-21)
(1.1744763 0.25852425 4.3533369e-20)
(1.1736549 0.25101084 3.7022025e-20)
(1.1702384 0.2421339 1.9793445e-20)
(1.1652403 0.2324587 -5.2994868e-20)
(1.1594015 0.22240412 1.2957448e-20)
(1.1532252 0.21223794 8.2659121e-20)
(-0.0012932619 0.0014346603 -1.1234446e-21)
(-0.0047459617 0.0031874159 2.0646974e-21)
(-0.010771362 0.0041359054 8.7950142e-22)
(-0.017754292 0.0045395373 -2.4411032e-21)
(-0.024740324 0.0045654179 -1.4114829e-21)
(-0.0312996 0.0043260397 1.5460011e-21)
(-0.037161336 0.0039035391 -6.8700831e-21)
(-0.042147452 0.0033577225 -5.9573054e-21)
(-0.046157786 0.0027313817 1.1172001e-20)
(-0.0491462 0.0020548308 -9.7427523e-21)
(-0.051100664 0.0013493003 -1.9833007e-22)
(-0.052030453 0.00062942154 3.667346e-21)
(-0.051957745 -9.4890191e-05 -6.3295591e-22)
(-0.050911888 -0.00081693146 2.2818754e-20)
(-0.048925782 -0.0015318462 3.0401072e-22)
(-0.046035344 -0.0022351758 -4.0882892e-20)
(-0.042281797 -0.0029222703 7.5385665e-21)
(-0.037703439 -0.0035910412 2.3864123e-20)
(-0.032308687 -0.0042399897 -4.3852399e-20)
(-0.026156952 -0.0048211167 -2.773922e-20)
(-0.0016522004 0.0041808676 -5.3716051e-21)
(-0.0053974826 0.0092681409 1.0865442e-20)
(-0.011218512 0.012007447 -1.0191547e-20)
(-0.01765803 0.013153767 3.9229763e-21)
(-0.023856438 0.013195416 4.8121457e-21)
(-0.029433324 0.012462727 7.1324206e-22)
(-0.034152327 0.011197016 -2.2509496e-20)
(-0.037860385 0.0095738985 -2.0370249e-21)
(-0.040474305 0.0077189881 2.0163547e-20)
(-0.041958928 0.0057212305 -5.0473618e-21)
(-0.042308956 0.0036428637 -2.1762598e-20)
(-0.041537341 0.001526711 4.8973188e-21)
(-0.039667715 -0.00059830807 2.263543e-20)
(-0.036729081 -0.0027127646 1.0308395e-20)
(-0.032752031 -0.0048026938 2.1854295e-20)
(-0.027769165 -0.0068555142 -1.9770738e-20)
(-0.021824786 -0.0088582266 -2.1672954e-20)
(-0.014966257 -0.010804233 2.1184629e-20)
(-0.0071289999 -0.01267901 2.6810379e-20)
(0.0018743179 -0.014317234 1.5854773e-20)
(-0.0023034298 0.0065602346 -4.3568706e-21)
(-0.0065392255 0.014480199 -5.6387558e-21)
(-0.011892134 0.018710548 3.0723939e-22)
(-0.017211103 0.020428185 1.0959879e-21)
(-0.021819146 0.020400328 6.6918428e-21)
(-0.025431045 0.01915167 1.0665172e-20)
(-0.027877236 0.01706629 -3.722765e-21)
(-0.029053272 0.014423785 -1.8896171e-20)
(-0.028909039 0.011424353 6.5413195e-21)
(-0.02743105 0.0082099043 1.2862574e-20)
(-0.024627712 0.0048797739 5.834088e-21)
(-0.020520104 0.001502235 1.8159111e-20)
(-0.015135979 -0.0018768685 1.7295921e-21)
(-0.0085053879 -0.0052272547 -3.3864541e-20)
(-0.00065687787 -0.0085276187 1.2020185e-21)
(0.0083810367 -0.01175912 -2.2139218e-20)
(0.018556892 -0.014904109 -2.4466315e-20)
(0.029802211 -0.017953767 4.5819733e-20)
(0.042305001 -0.020855133 2.5349361e-20)
(0.056738615 -0.023247784 1.2239414e-22)
(-0.0031290284 0.0083689723 -5.2833089e-21)
(-0.0078964006 0.018336517 -8.4815311e-21)
(-0.012438988 0.023587814 4.359306e-21)
(-0.016026537 0.025609664 4.1463464e-21)
(-0.018235026 0.02538275 2.0105713e-21)
(-0.018912653 0.023589326 7.3209981e-21)
(-0.017984717 0.020730276 9.3124808e-21)
(-0.015416708 0.017170379 -1.3511358e-21)
(-0.011207043 0.013171313 -1.148195e-20)
(-0.0053752267 0.0089189293 -2.9071887e-20)
(0.0020481215 0.004543433 6.1892837e-23)
(0.011026522 0.00013430474 4.0697834e-20)
(0.021522243 -0.0042489594 -1.8383177e-20)
(0.033497873 -0.0085675956 -1.2296092e-20)
(0.04692054 -0.012795559 5.5348856e-22)
(0.061760129 -0.016911871 3.2302657e-20)
(0.077953054 -0.020901688 -1.4829552e-20)
(0.095392312 -0.024763396 -5.3339206e-20)
(0.11439851 -0.028379741 4.5765028e-20)
(0.13634545 -0.031073121 3.3013184e-20)
(-0.0039704105 0.0094657346 -6.8788983e-22)
(-0.0090916598 0.020487797 -1.2534743e-20)
(-0.012364473 0.026159092 -3.4144545e-20)
(-0.013552541 0.028143344 -5.7241643e-21)
(-0.012533239 0.027555012 -3.6222745e-21)
(-0.0093167222 0.025188068 6.3051054e-21)
(-0.0039456398 0.021627413 -4.646197e-21)
(0.0035261366 0.01729896 -8.8070286e-21)
(0.013036834 0.01250875 2.1899715e-20)
(0.02452126 0.0074744382 5.0567075e-21)
(0.037915562 0.002348897 -2.5290303e-20)
(0.053157476 -0.0027627937 1.1078281e-20)
(0.070186905 -0.007790887 0)
(0.088946627 -0.012691318 1.2089579e-20)
(0.10938549 -0.017436937 -9.701621e-21)
(0.13145748 -0.022009918 -1.4337125e-20)
(0.15507415 -0.026408671 -1.573893e-21)
(0.18006769 -0.030659449 -2.2181571e-21)
(0.20685352 -0.034576565 4.614708e-20)
(0.23766371 -0.037019903 -1.0470134e-20)
(-0.0046450988 0.0097808646 -7.5356696e-21)
(-0.0096772525 0.020747884 2.4516407e-20)
(-0.011064381 0.026160982 -1.049935e-20)
(-0.0090968318 0.02772445 -2.7469289e-20)
(-0.0039797173 0.026601698 -2.7548155e-20)
(0.0040961901 0.02364841 -1.4921573e-20)
(0.014954161 0.019496457 -6.905952e-22)
(0.028436253 0.014604703 5.5499781e-21)
(0.044403171 0.0093034417 1.9615881e-20)
(0.062730528 0.0038284078 7.3530871e-21)
(0.083304356 -0.0016547657 -7.1862224e-21)
(0.10601902 -0.0070322523 -2.0102299e-21)
(0.13077363 -0.012229115 -3.8191721e-20)
(0.15746951 -0.017199773 -1.2693649e-20)
(0.18601208 -0.021919758 1.8750614e-20)
(0.21631187 -0.026379745 -2.1021682e-20)
(0.24823234 -0.030602254 -8.9730611e-21)
(0.2815188 -0.034670643 3.0440475e-20)
(0.31660718 -0.038364859 5.0472088e-20)
(0.35665031 -0.039964143 3.3559678e-21)
(-0.0049617693 0.0093140007 1.6783308e-20)
(-0.0091662703 0.019097713 1.4467942e-20)
(-0.0078593643 0.02356337 5.1145502e-20)
(-0.0018585359 0.024328947 2.3387987e-20)
(0.0082957309 0.022523785 1.8251777e-22)
(0.022221954 0.019014384 -3.9388462e-20)
(0.039597462 0.014440933 -2.4313868e-20)
(0.060147932 0.009266354 1.0465818e-20)
(0.083639153 0.0038232197 1.4401589e-20)
(0.10986674 -0.0016513108 -1.3113712e-20)
(0.13864569 -0.0069910245 -4.4038727e-20)
(0.16980177 -0.012082866 2.9618507e-20)
(0.20316413 -0.016854181 2.0020556e-20)
(0.23855955 -0.02126402 -2.7551164e-20)
(0.27581241 -0.025296432 1.1650139e-20)
(0.31474824 -0.0289572 2.4197621e-20)
(0.3551456 -0.032303089 8.0723975e-21)
(0.39663403 -0.035506717 -1.1764217e-20)
(0.43957719 -0.038392687 -1.4190301e-20)
(0.48798529 -0.038634451 5.8727676e-21)
(-0.0047307769 0.0081236747 1.1093848e-20)
(-0.0070586005 0.015671178 -2.3352725e-20)
(-0.0020293632 0.018562034 8.6200592e-21)
(0.0090325275 0.018216226 3.3587974e-20)
(0.025256375 0.015651149 5.2124357e-20)
(0.046066359 0.0116956 2.0276515e-20)
(0.070984553 0.0069609461 -5.8639389e-21)
(0.099601989 0.0018829421 -1.2286285e-20)
(0.13156899 -0.0032272104 -6.20575e-21)
(0.16657574 -0.008149673 3.4240844e-20)
(0.20433432 -0.012733339 -4.5104419e-21)
(0.24456494 -0.016879209 -1.6643306e-20)
(0.2869848 -0.020528712 -1.9693577e-20)
(0.3313001 -0.023656441 -4.7443752e-20)
(0.37720472 -0.026265565 2.3238709e-20)
(0.42438785 -0.028387896 -1.4095988e-20)
(0.4724999 -0.030127658 2.5993408e-20)
(0.52103636 -0.031783231 2.1040831e-20)
(0.57021415 -0.033350723 -8.5570412e-20)
(0.62470938 -0.032058888 -1.080705e-22)
(-0.0037710522 0.0063146403 2.1925061e-20)
(-0.0028657649 0.010735096 -2.6165536e-20)
(0.0071421105 0.011564136 -4.5013309e-20)
(0.024450245 0.0099249877 -2.7253788e-20)
(0.047870871 0.0066523018 -2.0439872e-21)
(0.076628733 0.0024906104 1.3050093e-20)
(0.11007677 -0.0020154048 -2.833768e-21)
(0.14765211 -0.0064879165 1.811854e-20)
(0.18886102 -0.010663519 8.8685626e-21)
(0.23325203 -0.01436244 -1.1380175e-20)
(0.28039159 -0.017468971 8.8779175e-21)
(0.32984615 -0.01991683 -2.3903273e-20)
(0.38116893 -0.021678725 8.0504826e-21)
(0.43389099 -0.022759905 1.6756396e-20)
(0.48751952 -0.023194334 -2.6395151e-21)
(0.54154734 -0.023046927 1.6618991e-21)
(0.59543565 -0.022469484 -3.195772e-22)
(0.64851804 -0.021870146 1.9590428e-20)
(0.70082261 -0.021445107 4.0434005e-21)
(0.75745173 -0.01849913 -5.7335157e-22)
(-0.001911014 0.0040273484 2.3692118e-20)
(0.0038694336 0.0046765193 5.715997e-20)
(0.02031532 0.0031879619 -4.9244239e-20)
(0.045178303 0.00029442155 -9.945416e-21)
(0.07696518 -0.0034241588 2.0256346e-20)
(0.11469627 -0.0073535955 2.1433721e-21)
(0.15753888 -0.011054969 -2.9815168e-20)
(0.20474838 -0.014244154 6.9848111e-21)
(0.25564958 -0.016737946 7.1097906e-21)
(0.30960483 -0.018426977 -2.6254085e-20)
(0.36598659 -0.019260121 1.2927334e-21)
(0.42415972 -0.019231893 -3.7174122e-20)
(0.48347117 -0.018372231 -3.6341025e-20)
(0.54324582 -0.016738308 6.5683498e-20)
(0.6027883 -0.014407337 5.5627499e-21)
(0.66138904 -0.011475936 -1.5188799e-20)
(0.71830805 -0.0081020866 1.9363972e-20)
(0.77269923 -0.0045929108 -9.188816e-22)
(0.82408857 -0.00096809724 2.0364581e-20)
(0.87621989 0.0043280156 -1.9554156e-20)
(-0.018836404 -0.0050997062 5.8352072e-20)
(-0.010224637 -0.0056349298 1.5783672e-20)
(-0.00022117103 -0.0060688829 -3.513957e-20)
(0.010823256 -0.0063341127 1.6790242e-20)
(0.022642503 -0.0065120501 0)
(0.035177928 -0.0066300932 0)
(0.048369713 -0.0066909766 -2.2974955e-20)
(0.062138137 -0.0067025431 -1.6502875e-20)
(0.076412788 -0.0066741777 1.9122601e-20)
(0.091134159 -0.0066126692 1.8174041e-20)
(0.10624728 -0.0065232094 1.0524254e-21)
(0.12170033 -0.0064103617 -1.0317639e-20)
(0.13744503 -0.006278085 8.3268842e-21)
(0.15343615 -0.0061297263 1.8233722e-20)
(0.16963094 -0.0059681491 -5.2274212e-21)
(0.18598873 -0.0057958387 -1.0174938e-20)
(0.20247078 -0.0056149662 -4.3195885e-21)
(0.21904006 -0.0054274408 -4.4257389e-21)
(0.23566115 -0.0052349544 7.3667171e-22)
(0.25230017 -0.0050390173 1.2286046e-21)
(0.26892479 -0.0048409848 2.5666336e-21)
(0.28550423 -0.0046420764 6.6539496e-21)
(0.3020093 -0.0044433913 2.4894236e-22)
(0.31841246 -0.0042459192 -3.4514725e-21)
(0.33468786 -0.0040505474 1.5558729e-22)
(0.35081145 -0.0038580677 -5.7709832e-22)
(0.36676095 -0.0036691799 1.2434375e-21)
(0.38251597 -0.0034844964 1.0522439e-21)
(0.39805798 -0.0033045458 -1.2987967e-21)
(0.41337037 -0.0031297761 -1.2218707e-22)
(0.42843839 -0.0029605594 3.5747227e-23)
(0.44324921 -0.0027971956 -3.5187661e-22)
(0.45779182 -0.0026399179 -4.0565658e-22)
(0.47205704 -0.0024888975 5.5414997e-23)
(0.48603745 -0.0023442497 -1.3809089e-22)
(0.49972736 -0.0022060399 -2.2343236e-22)
(0.51312275 -0.0020742904 2.5572035e-22)
(0.52622128 -0.0019489867 2.9502128e-22)
(0.53902214 -0.0018300872 -8.2728336e-24)
(0.55152646 -0.0017175263 -1.5517756e-22)
(0.56373619 -0.0016112432 3.0406423e-23)
(0.57565794 -0.0015111375 -4.0145018e-23)
(0.58729187 -0.0014172802 9.2206403e-23)
(0.598667 -0.001329335 2.1976503e-23)
(0.6097377 -0.0012485855 -1.1395332e-22)
(0.62069599 -0.0011718223 -6.7618774e-24)
(0.63106423 -0.001111276 -7.1935767e-26)
(0.64235312 -0.0010339816 -3.5624209e-24)
(0.65043128 -0.0010508432 2.9453226e-23)
(0.66701292 -0.00087560248 3.6051731e-22)
(0.010445903 -0.015017621 -1.2746824e-20)
(0.018179739 -0.016641025 -6.3302363e-20)
(0.027779265 -0.017915428 -3.0541957e-20)
(0.038385204 -0.018672087 3.8476033e-20)
(0.049621056 -0.019183605 1.4662619e-20)
(0.061506709 -0.01952945 -1.820494e-20)
(0.074012912 -0.019709883 4.6722064e-21)
(0.087062774 -0.019746511 2.5447203e-20)
(0.10059326 -0.019667301 9.1991329e-23)
(0.11455414 -0.019491721 -7.6591303e-21)
(0.12889732 -0.019234381 -1.3021021e-20)
(0.14357617 -0.018908333 -8.5245372e-21)
(0.15854682 -0.018524995 1.7772345e-20)
(0.17376774 -0.018094023 8.9295562e-21)
(0.1891992 -0.017623702 -1.6522444e-20)
(0.20480299 -0.017121255 -6.0390618e-21)
(0.22054239 -0.01659302 3.2145057e-21)
(0.23638203 -0.016044594 8.3716358e-21)
(0.25228783 -0.015480956 6.9832324e-21)
(0.26822706 -0.014906566 -6.9727241e-21)
(0.28416829 -0.014325439 -3.1685529e-21)
(0.30008148 -0.0137412 1.3605391e-21)
(0.31593807 -0.013157125 3.8683358e-22)
(0.33171099 -0.012576168 1.2113978e-21)
(0.34737477 -0.012000986 1.8368504e-22)
(0.36290564 -0.011433953 -3.2661796e-22)
(0.37828153 -0.010877171 -7.2435084e-22)
(0.39348214 -0.010332484 9.7157087e-22)
(0.40848899 -0.0098014868 8.2483317e-22)
(0.42328544 -0.0092855348 -1.5147766e-22)
(0.43785665 -0.0087857567 5.5306435e-22)
(0.45218962 -0.008303067 -2.3880976e-22)
(0.46627315 -0.0078381803 -3.7070251e-22)
(0.4800978 -0.0073916269 -6.0999539e-22)
(0.49365584 -0.0069637698 4.4171938e-22)
(0.50694124 -0.0065548229 -1.5481581e-23)
(0.51994962 -0.006164871 1.6125195e-22)
(0.53267821 -0.005793889 -4.4175488e-22)
(0.54512577 -0.0054417703 3.7190528e-22)
(0.55729298 -0.0051083365 6.7176245e-23)
(0.56918133 -0.0047934228 -1.0285406e-22)
(0.58079689 -0.0044967455 1.7614464e-22)
(0.59213941 -0.0042185335 2.334085e-22)
(0.60323716 -0.0039577971 1.6927546e-22)
(0.61404469 -0.0037183821 1.6768538e-22)
(0.62475114 -0.0034907327 -2.6100462e-23)
(0.63488526 -0.0033112995 8.4056937e-23)
(0.64593481 -0.0030819638 7.6304605e-23)
(0.65383343 -0.0031324646 -1.9468447e-22)
(0.67009609 -0.0026125632 -3.8025212e-23)
(0.067614747 -0.024029165 9.4528351e-21)
(0.073589736 -0.02674907 3.2951017e-21)
(0.08226558 -0.028805591 -1.2162211e-20)
(0.091947902 -0.029968528 -1.2257934e-21)
(0.1019833 -0.03076789 1.4970598e-20)
(0.11254644 -0.031330918 -1.4887131e-20)
(0.12367608 -0.031636098 -2.984229e-20)
(0.13529694 -0.031713035 1.4493532e-20)
(0.14735709 -0.031607666 1.8181978e-20)
(0.15982358 -0.031350087 -1.1598524e-20)
(0.17266076 -0.030961852 1.0190558e-21)
(0.185831 -0.030462786 8.686017e-21)
(0.19929804 -0.029870585 -1.5253552e-20)
(0.21302679 -0.029200273 2.9095245e-21)
(0.22698267 -0.028464795 7.5194425e-21)
(0.24113167 -0.027675541 3.1592145e-23)
(0.25544044 -0.026842595 2.6556027e-22)
(0.26987638 -0.025974934 -7.4150939e-21)
(0.28440766 -0.025080603 3.8616935e-21)
(0.29900336 -0.024166859 8.474915e-21)
(0.31363354 -0.023240274 -3.8351808e-21)
(0.32826936 -0.022306815 -2.2130383e-21)
(0.34288318 -0.021371898 1.0124429e-21)
(0.35744871 -0.02044043 -1.7155361e-21)
(0.37194104 -0.019516839 1.3532268e-21)
(0.38633678 -0.018605093 7.1845998e-22)
(0.40061413 -0.017708723 1.5268488e-21)
(0.41475291 -0.016830834 -1.9526724e-21)
(0.42873464 -0.015974121 2.2235813e-21)
(0.44254255 -0.015140887 5.5188839e-22)
(0.45616158 -0.014333061 4.0323403e-22)
(0.4695784 -0.013552218 3.2134552e-22)
(0.48278138 -0.012799601 8.7326005e-22)
(0.49576057 -0.012076149 -1.3708767e-21)
(0.50850768 -0.011382523 3.7066109e-22)
(0.521016 -0.010719137 1.0941873e-22)
(0.53328043 -0.01008619 -4.5174329e-23)
(0.54529745 -0.0094836987 8.6730454e-23)
(0.55706502 -0.0089115421 -3.7185712e-22)
(0.56858293 -0.0083694803 1.8294074e-22)
(0.57985181 -0.0078572945 -3.4987707e-23)
(0.59087678 -0.0073745664 3.9006199e-22)
(0.60165679 -0.0069217253 -1.854547e-22)
(0.61221872 -0.0064971827 4.7325325e-23)
(0.62251743 -0.006107328 4.3607328e-23)
(0.63273666 -0.0057364729 -7.3606103e-23)
(0.64241732 -0.0054445602 -1.2084224e-22)
(0.6530032 -0.0050706647 3.8813528e-22)
(0.66055345 -0.0051544305 1.72723e-22)
(0.67619783 -0.0043072222 -8.3042021e-22)
(0.15021538 -0.031460456 1.5010141e-21)
(0.153547 -0.035257424 -1.1566613e-20)
(0.16061634 -0.038010952 6.6441962e-21)
(0.16880602 -0.039479132 -1.3324747e-20)
(0.17698237 -0.040520725 -1.9758319e-21)
(0.1855236 -0.041302317 9.1599475e-21)
(0.19458435 -0.041757275 -9.7662268e-21)
(0.20408708 -0.04191375 1.5662755e-21)
(0.21398786 -0.041833372 1.2903807e-20)
(0.22427618 -0.041554379 3.4032036e-21)
(0.23493275 -0.041102089 -6.2096995e-21)
(0.24593044 -0.040500495 -2.8638136e-21)
(0.25724183 -0.039771796 -5.8409061e-21)
(0.26883938 -0.038935104 -6.45532e-21)
(0.28069451 -0.038007025 3.2356896e-21)
(0.29277793 -0.037002354 8.4620501e-22)
(0.30506007 -0.035934378 1.3679612e-21)
(0.31751134 -0.034815076 -3.3850443e-21)
(0.33010233 -0.033655304 -4.2428937e-21)
(0.34280403 -0.032464952 2.3616552e-21)
(0.355588 -0.031253055 3.2251432e-21)
(0.36842659 -0.030027875 -1.5636258e-21)
(0.38129309 -0.028796963 1.5867304e-21)
(0.39416186 -0.027567195 -3.9124277e-22)
(0.40700848 -0.026344808 -3.919655e-21)
(0.41980985 -0.025135419 -3.0332878e-21)
(0.43254428 -0.023944045 -1.9026575e-22)
(0.44519159 -0.022775121 4.2858734e-22)
(0.45773312 -0.021632515 -2.2106096e-21)
(0.4701518 -0.020519555 -8.5498093e-22)
(0.48243215 -0.019439046 2.2837704e-22)
(0.49456029 -0.018393305 -1.2498791e-21)
(0.50652394 -0.017384186 6.2605094e-24)
(0.51831242 -0.016413119 -4.2421483e-22)
(0.52991656 -0.015481145 -4.7193837e-22)
(0.54132878 -0.014588962 -5.1996898e-22)
(0.55254295 -0.013736965 -8.4134999e-22)
(0.56355449 -0.012925293 -5.4494997e-23)
(0.57436025 -0.012153895 -3.9160857e-24)
(0.58495886 -0.011422546 -5.197384e-22)
(0.59534976 -0.010731051 -9.1605401e-23)
(0.60553678 -0.010078933 -3.3240821e-22)
(0.61551778 -0.0094668842 -4.3762427e-22)
(0.62531772 -0.0088928073 3.7843984e-22)
(0.634892 -0.0083655873 1.4821892e-23)
(0.6444167 -0.0078637777 1.8239141e-22)
(0.65345021 -0.007469554 -1.3248557e-22)
(0.66337317 -0.0069631806 -2.6693925e-22)
(0.67042545 -0.0070794096 -4.4675093e-23)
(0.68518311 -0.005932978 4.6230877e-22)
(0.25468578 -0.03655279 -2.0900321e-20)
(0.25447033 -0.041393544 4.758597e-20)
(0.25907346 -0.044745694 1.0348098e-20)
(0.26508426 -0.046442081 -1.5765325e-20)
(0.27070947 -0.047714355 -2.0227973e-21)
(0.2765201 -0.048747817 2.6232256e-21)
(0.28283565 -0.049413761 -1.6608226e-21)
(0.28957707 -0.049728144 -4.6861444e-21)
(0.29669675 -0.049761477 -4.0159189e-21)
(0.30420566 -0.049557101 -1.2207646e-20)
(0.31210238 -0.049141737 1.7897769e-20)
(0.32036959 -0.048540854 6.5219968e-21)
(0.32898722 -0.047779019 -1.6780535e-20)
(0.33793427 -0.046878074 1.0317575e-20)
(0.34718733 -0.045857357 8.3849914e-21)
(0.35672102 -0.044734371 -8.7923201e-22)
(0.36650874 -0.043525127 -3.1222214e-21)
(0.3765232 -0.042244309 -3.8197398e-21)
(0.38673674 -0.040905422 -1.3892616e-21)
(0.39712166 -0.039520917 -1.2304228e-21)
(0.40765047 -0.038102288 -3.0257686e-21)
(0.4182962 -0.036660137 0)
(0.42903257 -0.035204225 -1.3451954e-21)
(0.4398342 -0.033743495 3.9309573e-21)
(0.45067675 -0.032286103 5.4052806e-21)
(0.46153703 -0.030839432 -9.4112651e-22)
(0.47239317 -0.029410108 -2.9274582e-21)
(0.48322462 -0.028004018 3.0258566e-21)
(0.49401226 -0.026626331 2.5446938e-22)
(0.50473845 -0.025281517 3.4352659e-21)
(0.51538702 -0.023973384 -5.3459854e-22)
(0.52594331 -0.022705106 1.7173569e-21)
(0.53639415 -0.021479266 -7.9965155e-22)
(0.54672787 -0.0202979 2.909477e-22)
(0.55693426 -0.019162543 -4.3404662e-22)
(0.56700457 -0.018074285 5.6232199e-22)
(0.5769315 -0.017033827 4.5710683e-22)
(0.58670919 -0.016041537 3.8256368e-22)
(0.59633316 -0.015097532 -9.5938337e-22)
(0.60580069 -0.014201707 6.8357208e-22)
(0.61510982 -0.013353985 -3.6958424e-22)
(0.6242629 -0.012553925 -1.1033614e-21)
(0.63325651 -0.011802558 1.4078801e-21)
(0.64211336 -0.011097391 -6.2008291e-23)
(0.65078963 -0.01044973 -1.5816995e-22)
(0.65945183 -0.0098328725 -7.8250969e-24)
(0.66768059 -0.0093495104 -1.2623268e-22)
(0.67677678 -0.0087264895 -4.6586796e-22)
(0.68320884 -0.0088739652 8.7881905e-22)
(0.69685502 -0.0074652641 -4.4317185e-23)
(0.37635145 -0.038368206 -1.7495108e-20)
(0.37170993 -0.044270271 1.283205e-20)
(0.37286707 -0.048161656 2.9754642e-21)
(0.37591063 -0.050098897 -7.6353773e-21)
(0.37830545 -0.051670019 1.2055989e-20)
(0.38072313 -0.053042423 7.7914159e-21)
(0.38367621 -0.054030091 -1.2647695e-20)
(0.38710079 -0.054633156 -6.06798e-21)
(0.39092946 -0.054918059 1.2697347e-20)
(0.39518267 -0.054927191 -1.5304988e-20)
(0.3998745 -0.054687573 -1.4063199e-20)
(0.40499533 -0.054224713 1.4129649e-20)
(0.4105289 -0.053563721 6.8193885e-21)
(0.41645747 -0.052728012 -4.2037781e-21)
(0.42276046 -0.051739082 -1.8545566e-21)
(0.42941436 -0.050616816 -4.0581689e-21)
(0.43639383 -0.04937977 5.3047576e-21)
(0.44367233 -0.048045297 3.6682118e-21)
(0.45122263 -0.04662962 -3.2408306e-21)
(0.4590172 -0.045147889 3.1379513e-21)
(0.46702851 -0.043614235 2.7666857e-21)
(0.47522937 -0.042041804 -3.2111193e-21)
(0.48359318 -0.040442782 3.7056602e-22)
(0.49209408 -0.038828399 -3.2571675e-21)
(0.5007072 -0.03720895 7.2454446e-21)
(0.50940873 -0.035593794 6.1080799e-21)
(0.51817607 -0.033991372 8.0973903e-22)
(0.5269879 -0.032409218 -1.7683291e-21)
(0.53582426 -0.030853982 3.7022029e-21)
(0.54466657 -0.029331461 7.1885679e-21)
(0.55349767 -0.027846626 2.3049424e-21)
(0.56230184 -0.026403671 3.316514e-21)
(0.57106479 -0.025006059 1.9956362e-21)
(0.57977366 -0.023656575 7.455879e-22)
(0.588417 -0.022357388 -2.6374672e-22)
(0.59698478 -0.021110111 2.7203506e-21)
(0.60546833 -0.019915877 6.1993139e-22)
(0.61386044 -0.018775406 2.9488238e-22)
(0.62215519 -0.017689101 5.6233345e-23)
(0.6303484 -0.016657087 9.8969334e-22)
(0.63843666 -0.01567951 4.7020925e-23)
(0.64642071 -0.014756071 4.4249215e-22)
(0.65429583 -0.01388822 -1.2622235e-22)
(0.66208229 -0.013073193 -2.7736378e-22)
(0.66973735 -0.012324617 -1.5219564e-22)
(0.67741649 -0.011611123 -4.2210952e-22)
(0.68472655 -0.011053851 1.6141267e-22)
(0.69287511 -0.010332668 -1.2724666e-22)
(0.69859816 -0.010509814 -5.0125694e-22)
(0.71096128 -0.0088821954 2.4587781e-22)
(0.50927448 -0.035974323 3.6471448e-21)
(0.49953057 -0.042960705 -1.8958304e-20)
(0.49627574 -0.047383505 -2.3083865e-21)
(0.4955561 -0.049736811 5.4869532e-21)
(0.49416972 -0.051818078 3.0528133e-21)
(0.49269593 -0.053705445 -4.9883578e-23)
(0.49181249 -0.055187685 6.1896742e-21)
(0.49151471 -0.056265436 7.6251071e-21)
(0.49171188 -0.056990571 9.8580459e-21)
(0.49241095 -0.057395613 -1.1250049e-20)
(0.49363128 -0.057506341 -2.1579439e-20)
(0.49536802 -0.057348458 -3.9353533e-21)
(0.49760494 -0.056947172 1.5938157e-20)
(0.5003233 -0.056327051 1.2808969e-20)
(0.50350195 -0.055511775 -5.9066966e-21)
(0.50711683 -0.054523889 1.3817004e-21)
(0.51114172 -0.053384828 -3.660092e-21)
(0.5155491 -0.052114983 2.244387e-21)
(0.52031065 -0.050733692 -2.9123045e-22)
(0.52539773 -0.04925921 -1.8654125e-21)
(0.53078166 -0.047708707 7.8266057e-21)
(0.53643408 -0.046098258 -2.9309145e-22)
(0.54232717 -0.044442839 4.18185e-22)
(0.54843389 -0.042756315 -6.5646354e-22)
(0.55472813 -0.041051437 -4.3029484e-21)
(0.56118487 -0.039339845 4.2085268e-21)
(0.56778025 -0.037632068 1.9031239e-21)
(0.57449172 -0.035937548 -3.3082023e-21)