/*--------------------------------*- C++ -*----------------------------------*\
  =========                 |
  \\      /  F ield         | OpenFOAM: The Open Source CFD Toolbox
   \\    /   O peration     | Website:  https://openfoam.org
    \\  /    A nd           | Version:  6
     \\/     M anipulation  |
\*---------------------------------------------------------------------------*/
FoamFile
{
    version     2.0;
    format      ascii;
    class       volSymmTensorField;
    location    "181";
    object      UPrime2Mean;
}
// * * * * * * * * * * * * * * * * * * * * * * * * * * * * * * * * * * * * * //

dimensions      [0 2 -2 0 0 0 0];

internalField   nonuniform List<symmTensor> 
9200
(
(0.00010945218 -8.4960168e-05 3.9744221e-22 6.8185495e-05 -2.1254606e-22 6.4260002e-39)
(0.00067452673 -0.00054010704 1.0175171e-21 0.0004341314 -7.5933079e-22 6.9902312e-39)
(0.0013630883 -0.0010574804 1.2490126e-22 0.00082514617 -9.4416535e-23 3.8327502e-39)
(0.0021478347 -0.0015564451 -1.5322637e-21 0.0011405198 1.0774323e-21 7.6400467e-39)
(0.0029207294 -0.0019994408 7.2137667e-23 0.0013924063 -6.0068288e-23 1.1203029e-39)
(0.0036280984 -0.0023665684 6.4436505e-22 0.0015805762 -4.2784399e-22 1.7587691e-40)
(0.0042328977 -0.0026508877 -1.3912387e-22 0.0017115821 9.6271235e-23 5.0764485e-40)
(0.0047053579 -0.0028529146 1.2645622e-22 0.0017963814 -8.5092425e-23 3.419085e-40)
(0.0050249826 -0.0029767579 6.2545659e-22 0.0018454978 -3.7965217e-22 9.7538392e-40)
(0.005181292 -0.0030284068 4.8620331e-23 0.0018678763 -2.9684949e-23 2.7812679e-42)
(0.0051738684 -0.0030149286 -6.7424161e-22 0.001870899 4.1463176e-22 5.2355342e-40)
(0.0050122296 -0.0029439697 5.6460829e-22 0.0018604739 -3.6028365e-22 7.1669687e-41)
(0.004715104 -0.0028234398 -1.006694e-21 0.0018411734 6.7908975e-22 1.1206767e-39)
(0.0043088739 -0.0026613184 -5.1094936e-22 0.0018164223 3.5155813e-22 7.166179e-41)
(0.0038252405 -0.0024655314 1.3264114e-22 0.0017887051 -9.8418822e-23 9.1488774e-42)
(0.0032983204 -0.002243841 -5.0007182e-22 0.0017597646 3.9168027e-22 9.6080381e-41)
(0.0027614142 -0.0020037466 4.3955898e-22 0.0017308799 -3.7326115e-22 1.1651968e-40)
(0.0022438003 -0.0017525125 3.2706213e-22 0.0017037715 -2.9084667e-22 4.7552595e-40)
(0.0017701618 -0.0014968415 -1.1244236e-23 0.0016807218 2.412116e-23 8.7654757e-41)
(0.0013675168 -0.0012414797 -6.291984e-24 0.0016451578 2.1401344e-23 1.0865047e-40)
(0.00014441522 -9.6536178e-05 4.1529073e-23 6.6271477e-05 -1.5942511e-23 1.1298817e-40)
(0.00086014737 -0.00059632761 1.0778407e-21 0.00041469517 -7.0114019e-22 7.4569256e-39)
(0.0017090755 -0.0011502644 -3.5030461e-22 0.00077853452 2.3489962e-22 4.0507995e-39)
(0.0026185043 -0.0016620589 -2.7499043e-21 0.0010667264 1.7191438e-21 1.7678124e-38)
(0.0034631925 -0.0020968236 -9.4817191e-23 0.0012920398 6.0217757e-23 2.2305571e-40)
(0.0041810873 -0.0024371124 2.1268769e-21 0.001456487 -1.2554221e-21 5.8489869e-39)
(0.0047340933 -0.0026800905 -8.7401618e-22 0.0015685636 5.1096437e-22 2.0006947e-40)
(0.0050980792 -0.0028309378 -2.641593e-22 0.001640138 1.5313251e-22 7.1888162e-41)
(0.0052634483 -0.0028981317 1.0040635e-21 0.0016820185 -5.859799e-22 5.4888419e-40)
(0.0052346868 -0.0028914668 -1.2188167e-21 0.0017030176 7.2351078e-22 6.2993771e-40)
(0.0050290864 -0.0028211506 -8.6578912e-22 0.001710033 5.2717008e-22 7.7864545e-40)
(0.0046748653 -0.0026972816 1.8726078e-21 0.0017081944 -1.1869435e-21 3.9596907e-39)
(0.0042083774 -0.0025295862 8.7353459e-22 0.0017010565 -5.8984117e-22 2.7686261e-40)
(0.0036704808 -0.0023273291 -1.3788111e-21 0.0016908283 9.9501702e-22 1.3688372e-39)
(0.003102482 -0.0020993081 2.4792646e-22 0.0016785945 -1.9308792e-22 1.1416349e-40)
(0.0025422198 -0.0018538649 -5.5191225e-22 0.0016645117 4.8216913e-22 3.039039e-40)
(0.0020207891 -0.0015988812 -2.286999e-22 0.001648026 2.3564954e-22 9.5736239e-41)
(0.0015602671 -0.0013416229 7.0245732e-22 0.0016281617 -7.8882671e-22 1.5475112e-39)
(0.0011738393 -0.0010879388 3.3367313e-22 0.0016019975 -4.4720122e-22 2.9369511e-40)
(0.00087025157 -0.00084365395 -1.4346227e-22 0.0015545676 1.7926275e-22 2.2198059e-39)
(0.00018388943 -0.00010475092 -3.4814288e-22 6.1011419e-05 1.4823818e-22 2.9060361e-39)
(0.0010580423 -0.00062899852 -5.8007333e-22 0.00037491919 3.2225578e-22 3.029557e-39)
(0.0020644666 -0.001194827 -6.6192835e-22 0.00069548093 3.8560281e-22 7.5726463e-39)
(0.0030789821 -0.0016965398 2.2019919e-23 0.00094566005 -1.2108606e-23 8.2162819e-43)
(0.0039620136 -0.0021038776 2.8310189e-23 0.0011384329 -1.323645e-23 5.4405962e-39)
(0.0046477943 -0.0024037828 7.4576084e-22 0.0012779557 -3.9789832e-22 1.521312e-39)
(0.005103875 -0.0025985878 7.1319284e-23 0.0013739126 -3.5756176e-23 6.2983877e-40)
(0.0053194285 -0.0026982886 -1.2653616e-21 0.0014380503 6.8063857e-22 4.0027844e-40)
(0.0053032331 -0.0027152448 1.4995347e-21 0.0014804191 -8.2719483e-22 7.5694243e-40)
(0.0050808856 -0.0026621156 4.9419532e-22 0.0015087199 -2.8622051e-22 8.3313456e-40)
(0.0046910622 -0.0025510392 -1.3612151e-21 0.0015284847 8.2396462e-22 1.719697e-39)
(0.0041810037 -0.0023933042 -4.2738692e-22 0.0015433137 2.7741428e-22 5.6235234e-40)
(0.0036013194 -0.0021993407 1.5535134e-22 0.001555152 -1.0816872e-22 1.5239206e-39)
(0.0030006676 -0.0019788768 3.709057e-22 0.0015645975 -2.8825239e-22 2.1886575e-40)
(0.002421093 -0.0017411114 -1.2990508e-22 0.0015712107 1.1293657e-22 1.6760467e-40)
(0.001894711 -0.0014948015 3.0298508e-22 0.0015738214 -3.0414311e-22 1.3234973e-40)
(0.0014421387 -0.0012482259 -2.0919088e-22 0.0015708283 2.4736398e-22 5.0712059e-41)
(0.001072672 -0.001008968 -4.259643e-22 0.0015603826 5.9322954e-22 1.2403686e-39)
(0.00078608916 -0.00078338082 -1.380453e-23 0.0015400708 1.4796372e-23 1.1179707e-39)
(0.00057622521 -0.0005773344 1.4792254e-22 0.0015048183 -3.2291414e-22 1.2696202e-40)
(0.00022654625 -0.00010839111 -2.765149e-22 5.287571e-05 1.0191282e-22 1.4433624e-39)
(0.0012580334 -0.00063265168 4.2259746e-22 0.0003189277 -2.0735243e-22 2.689791e-40)
(0.0024078386 -0.001183499 3.7510297e-22 0.00058527339 -1.8505397e-22 3.1170484e-40)
(0.0034978475 -0.001653477 8.1901835e-22 0.00079156718 -3.9116194e-22 3.362915e-39)
(0.0043793373 -0.0020186003 7.1991253e-22 0.00095037656 -3.422493e-22 1.4958694e-39)
(0.0049899693 -0.0022714755 -1.2644457e-21 0.0010673623 6.0186649e-22 1.1414776e-39)
(0.0053113263 -0.0024195613 -7.0744343e-22 0.0011522582 3.4293269e-22 3.2484769e-40)
(0.0053538847 -0.0024765848 0 0.0012155022 0 0)
(0.0051509572 -0.0024571624 7.7319955e-22 0.0012653428 -4.2125039e-22 4.1909184e-39)
(0.0047523386 -0.0023750121 -3.3573567e-22 0.0013074982 1.9875761e-22 1.5876686e-39)
(0.0042172918 -0.0022425249 -1.9706166e-21 0.0013454463 1.1806964e-21 1.3995883e-39)
(0.0036073225 -0.0020708658 -2.527757e-22 0.0013807523 1.5993453e-22 2.836309e-40)
(0.0029793944 -0.0018703228 9.7137611e-22 0.0014134371 -7.2751748e-22 1.9072754e-39)
(0.0023804993 -0.0016506529 5.5333227e-23 0.0014423823 -3.6203915e-23 7.8988614e-40)
(0.0018443443 -0.0014212423 -1.5029088e-23 0.0014657531 1.4828529e-23 5.5357606e-43)
(0.0013904455 -0.0011910151 1.6160285e-22 0.0014814298 -1.8858388e-22 9.7436628e-41)
(0.0010254063 -0.00096813175 1.0967167e-24 0.0014873867 3.3807666e-24 1.1435899e-40)
(0.00074572207 -0.00075958317 -2.8688657e-22 0.001481872 4.8823841e-22 2.9653073e-40)
(0.00054114535 -0.00057076984 -1.5927361e-22 0.0014640895 3.3921242e-22 2.0671993e-40)
(0.0003982113 -0.00040560162 7.985556e-23 0.0014362141 -2.4835708e-22 1.3011456e-39)
(0.00027043289 -0.00010642247 2.0888121e-22 4.262852e-05 -6.6550838e-23 5.6782588e-40)
(0.0014474997 -0.00060375405 8.7011642e-22 0.00025244352 -3.4706579e-22 5.1159847e-39)
(0.002715013 -0.0011130841 6.8406768e-22 0.00045949524 -2.8204439e-22 3.2350734e-40)
(0.0038430227 -0.0015333304 7.6198105e-22 0.00062082077 -3.1152662e-22 1.7993918e-39)
(0.0046812763 -0.00184772 -1.1722114e-21 0.00074783639 4.8492618e-22 2.8350043e-39)
(0.0051798303 -0.0020545732 4.451342e-23 0.00084669337 -1.4356769e-23 2.6977235e-40)
(0.0053429214 -0.0021649618 6.7061387e-23 0.0009259358 -2.927883e-23 2.267201e-42)
(0.005208666 -0.0021939819 9.5454034e-22 0.00099365653 -4.4576891e-22 1.0128802e-39)
(0.0048376324 -0.0021560312 1.2890502e-22 0.0010555242 -6.3957166e-23 9.1174411e-42)
(0.0043022232 -0.0020637673 -3.4614867e-22 0.0011147182 1.9708278e-22 5.4821593e-40)
(0.0036765824 -0.0019283524 1.1255895e-21 0.0011722956 -7.0233766e-22 3.8214274e-39)
(0.0030278654 -0.0017600491 -8.2064334e-22 0.0012275973 5.437889e-22 3.2786767e-40)
(0.0024098235 -0.00156877 -1.5452564e-21 0.0012787164 1.2152992e-21 2.3305176e-39)
(0.0018594282 -0.0013643111 -5.1131542e-23 0.001323025 4.7435939e-23 4.9354571e-42)
(0.0013966394 -0.0011561818 5.5017945e-22 0.0013577192 -6.2190381e-22 1.8940869e-39)
(0.00102674 -0.00095312615 0 0.0013803376 0 0)
(0.00074422571 -0.00076252966 6.9462684e-23 0.0013891349 -1.0105372e-22 4.9291074e-41)
(0.0005371352 -0.00058994422 -3.4467924e-23 0.0013831545 7.70694e-23 7.3384499e-41)
(0.00039072942 -0.00043889204 -3.5297321e-23 0.0013631709 7.8119118e-23 1.9246604e-41)
(0.00029019573 -0.00031083733 1.6377499e-23 0.0013349969 -7.2591478e-23 1.3201949e-40)
(0.0003131702 -9.8228061e-05 4.5676886e-22 3.1336949e-05 -1.17675e-22 2.2962853e-39)
(0.0016131184 -0.0005418389 4.484284e-23 0.00018249836 -1.4724197e-23 4.2473955e-42)
(0.0029629233 -0.00098646854 -1.2860852e-22 0.00033119892 4.3469998e-23 1.880234e-41)
(0.0040875906 -0.0013448265 1.3164497e-22 0.00045057298 -4.2496939e-23 3.717432e-40)
(0.0048448449 -0.001607115 -8.0683179e-22 0.00055016696 2.8349774e-22 6.97129e-40)
(0.0052065018 -0.0017757895 -3.8781126e-22 0.0006355462 1.415546e-22 6.2908192e-41)
(0.0052063002 -0.0018625727 2.7409751e-22 0.00071310465 -8.4289696e-23 1.9869015e-39)
(0.0049126794 -0.0018807275 -1.0168362e-23 0.00078800751 1.146719e-23 1.5544669e-40)
(0.0044114354 -0.0018418132 -6.5340555e-22 0.0008630238 3.2633928e-22 1.6430889e-39)
(0.0037913031 -0.0017557594 1.1332819e-21 0.0009386358 -5.924051e-22 4.8100256e-40)
(0.003132299 -0.0016318033 -2.9762656e-23 0.0010134461 4.3221563e-23 8.5383886e-40)
(0.0024977236 -0.0014793075 -8.9821849e-22 0.0010846759 6.5826075e-22 2.351518e-39)
(0.0019303922 -0.0013080793 0 0.0011487751 0 0)
(0.0014529159 -0.0011280927 2.1786617e-22 0.0012020954 -2.5055056e-22 1.2628232e-39)
(0.0010710463 -0.00094877499 1.0833839e-23 0.0012415281 -2.3594733e-23 6.9150369e-41)
(0.00077863281 -0.00077817285 -2.6428757e-22 0.001265006 4.2200171e-22 1.4665844e-39)
(0.00056277678 -0.00062229267 -5.9886667e-23 0.0012717331 1.0885956e-22 3.0540177e-41)
(0.00040815357 -0.00048482596 -1.817878e-23 0.0012620379 5.0735568e-23 4.9254475e-41)
(0.00029986813 -0.00036735462 -2.3880934e-23 0.0012381048 6.8424832e-23 1.9108982e-41)
(0.00022489292 -0.00026959436 4.2820509e-23 0.0012069527 -1.6749244e-22 1.8281565e-40)
(0.00035221972 -8.3763183e-05 1.7616585e-22 2.0265094e-05 -3.3897765e-23 3.6366012e-40)
(0.0017425865 -0.00044988669 -1.263588e-21 0.00011655184 3.1800433e-22 7.9078017e-39)
(0.0031327591 -0.00081254047 -1.1232512e-22 0.00021313281 3.1838988e-23 7.383777e-40)
(0.0042136043 -0.0011038006 -3.3728288e-22 0.00029636435 9.936836e-23 3.7138399e-39)
(0.0048610863 -0.0013191186 -2.5198348e-22 0.0003734817 7.0143315e-23 5.1291775e-41)
(0.0050766422 -0.0014618977 -1.4273736e-21 0.00044873757 4.4385697e-22 6.7827851e-40)
(0.0049267076 -0.0015406516 -6.995715e-22 0.00052603928 2.4746236e-22 5.4798889e-40)
(0.0045079825 -0.0015636124 1.3528515e-21 0.00060766098 -5.1205295e-22 4.4012342e-40)
(0.0039249488 -0.0015375743 2.3148053e-22 0.00069362552 -1.1990789e-22 5.6272083e-40)
(0.0032734451 -0.001469086 -2.9737384e-22 0.00078188868 1.3561627e-22 1.923577e-40)
(0.0026298884 -0.0013656869 1.3928544e-22 0.00086881081 -5.1366315e-23 7.2225427e-40)
(0.0020463703 -0.0012363767 -2.6432262e-23 0.00094982357 3.5509928e-23 1.8307077e-40)
(0.0015510451 -0.0010912076 0 0.0010202406 0 0)
(0.0011523196 -0.00094026041 1.4760001e-22 0.0010760606 -1.5458114e-22 4.4062196e-41)
(0.00084489163 -0.00079245933 -3.1372783e-22 0.0011145913 4.1313823e-22 6.0217018e-40)
(0.00061582808 -0.00065465408 -1.0185875e-22 0.0011347742 1.572641e-22 5.1805685e-41)
(0.00044948115 -0.0005311985 1.7587735e-22 0.00113713 -3.5581347e-22 7.1970336e-40)
(0.00033076331 -0.00042406138 -3.8984251e-23 0.0011233401 5.2118856e-23 1.5487893e-40)
(0.00024677893 -0.00033342116 -2.4068933e-24 0.0010965812 -4.640563e-24 1.7378308e-41)
(0.00018717798 -0.00025817782 4.0118648e-23 0.0010635498 -1.2017131e-22 1.5503498e-41)
(0.00038516877 -6.3606547e-05 1.282004e-22 1.0704364e-05 -1.6823087e-23 2.2772557e-40)
(0.0018261891 -0.00033406845 -1.1710852e-21 6.1440801e-05 2.1105882e-22 3.6266669e-39)
(0.0032122755 -0.0006050058 -9.1505205e-22 0.00011596707 1.8157094e-22 4.3404006e-39)
(0.004214071 -0.00083075754 1.3065728e-21 0.00017008853 -2.7324837e-22 1.0631957e-39)
(0.0047352861 -0.0010087984 9.8586258e-22 0.00022885795 -2.2217023e-22 2.2087544e-40)
(0.0048114719 -0.0011392351 -7.2164252e-22 0.00029520701 1.5955549e-22 2.3043747e-39)
(0.0045402298 -0.0012235665 2.3538105e-22 0.00037099684 -8.9830892e-23 9.7591233e-40)
(0.0040399927 -0.0012627017 1.3783036e-21 0.0004562022 -4.8988601e-22 1.0944988e-39)
(0.0034245516 -0.00125798 6.0421711e-22 0.0005485658 -2.3809658e-22 1.3791698e-40)
(0.0027872757 -0.0012129881 -5.9364844e-22 0.00064386038 3.0381574e-22 3.5705158e-40)
(0.002193672 -0.0011343782 -8.0493826e-22 0.00073655598 4.8072146e-22 4.261402e-40)
(0.0016810681 -0.0010313745 -2.1937546e-23 0.0008207743 1.5889684e-23 4.4418952e-43)
(0.0012632859 -0.00091435842 2.3135343e-22 0.00089131865 -2.0286208e-22 6.9038898e-41)
(0.00093770671 -0.00079318547 -7.9647503e-24 0.0009445071 2.6609485e-23 1.0550207e-40)
(0.00069241726 -0.0006758384 -8.4589715e-24 0.00097861378 4.3248638e-23 2.8554114e-40)
(0.000511942 -0.00056774773 6.0712497e-24 0.00099386552 -5.6432767e-23 5.1581427e-40)
(0.00038100945 -0.00047178384 8.1124583e-23 0.00099204321 -1.6200957e-22 1.510915e-40)
(0.00028651259 -0.00038873631 -4.5746364e-23 0.00097584365 1.3623905e-22 3.94084e-40)
(0.0002181164 -0.00031811318 -1.1758853e-22 0.00094884801 3.2982218e-22 7.6359613e-40)
(0.00016796845 -0.00025871177 3.934077e-23 0.00091658392 -9.6359124e-23 1.7048127e-41)
(0.00041012351 -3.8914719e-05 -3.3287741e-22 3.7897838e-06 2.7738958e-23 6.8032083e-40)
(0.0018581361 -0.00020296826 -2.6022162e-22 2.2439616e-05 2.7930006e-23 7.3362875e-40)
(0.0031970438 -0.00038050739 2.008132e-21 4.6959727e-05 -2.548804e-22 8.9681065e-39)
(0.0040933203 -0.00054793586 1.4937014e-21 7.8790832e-05 -2.1613423e-22 9.7919724e-40)
(0.0044853813 -0.00070041898 6.6857033e-22 0.00012174934 -1.0479112e-22 4.8103959e-40)
(0.0044426014 -0.00083044353 1.3489392e-22 0.00017830966 -2.7580926e-23 4.6249323e-42)
(0.0040875394 -0.00092972001 -1.2651218e-21 0.0002493726 2.803384e-22 2.0104826e-39)
(0.0035508438 -0.00099099631 0 0.00033349864 0 0)
(0.0029457684 -0.0010107175 -7.7396425e-22 0.00042669844 3.3472951e-22 1.6650663e-39)
(0.0023556442 -0.0009906048 -1.3291054e-22 0.00052294159 8.7490825e-23 3.7736807e-40)
(0.001831322 -0.0009372996 3.789284e-22 0.00061523004 -2.1952051e-22 9.1818542e-41)
(0.0013955445 -0.00086054034 4.0543637e-23 0.00069692864 -5.2110501e-23 2.0763626e-40)
(0.0010508065 -0.00077081372 -1.803953e-22 0.00076294037 1.769402e-22 2.4157716e-40)
(0.00078766153 -0.00067735051 -1.356574e-22 0.00081039876 1.7842653e-22 5.1675497e-40)
(0.00059152402 -0.00058696652 8.7717803e-23 0.0008387675 -8.8990541e-23 6.3409202e-41)
(0.00044720809 -0.00050380178 1.2135017e-22 0.00084944645 -1.564242e-22 5.8434107e-41)
(0.00034134826 -0.00042970058 -1.079158e-22 0.00084508816 1.7903608e-22 5.42384e-41)
(0.00026329105 -0.00036490106 -1.442033e-22 0.00082887012 3.1207945e-22 6.3855266e-40)
(0.00020507416 -0.00030882264 1.131695e-23 0.00080422875 -2.3475314e-24 7.5117077e-41)
(0.00016086045 -0.00026050618 1.9472963e-23 0.00077519737 -6.6316839e-23 8.8603942e-41)
(0.00042564534 -1.1236811e-05 -2.1970657e-22 3.4041744e-07 5.6003347e-24 3.3284523e-40)
(0.0018366066 -6.6502178e-05 9.3775755e-22 2.6329674e-06 -3.3609143e-23 1.8456312e-39)
(0.0030903507 -0.00015666938 1.4336856e-21 9.3066312e-06 -8.8250922e-23 1.3390674e-38)
(0.0038659548 -0.00027683988 -1.6775449e-21 2.4473496e-05 1.4482954e-22 3.6863409e-39)
(0.0041387643 -0.00041509396 6.0557274e-22 5.2533133e-05 -6.6523659e-23 9.2764028e-41)
(0.0040066221 -0.00055298604 2.4774386e-22 9.7058575e-05 1.5290278e-24 3.405089e-39)
(0.0036075668 -0.0006713564 6.5325786e-23 0.00015934846 -1.3260404e-23 1.223992e-42)
(0.0030742324 -0.00075549288 -9.2897713e-22 0.00023740779 2.1462662e-22 1.1476824e-39)
(0.0025112269 -0.00079840311 -2.1081104e-23 0.0003259807 7.3021452e-24 1.8352688e-43)
(0.0019875687 -0.000801212 3.4616587e-22 0.00041760934 -1.8057834e-22 4.3759728e-40)
(0.0015391886 -0.00077113065 2.7089893e-23 0.00050430733 -2.7869235e-23 6.2614909e-41)
(0.0011769105 -0.00071833072 -1.2494053e-22 0.00057924128 3.3455276e-23 8.1004979e-40)
(0.00089584041 -0.00065302785 -2.7739063e-22 0.00063788473 2.2608049e-22 9.0301497e-41)
(0.00068343823 -0.00058355078 -1.4744238e-24 0.00067839905 2.1741455e-23 1.055172e-40)
(0.00052513002 -0.00051558411 9.371426e-23 0.00070131894 -1.2342159e-22 1.0297994e-40)
(0.00040746902 -0.00045231554 6.2313036e-23 0.00070882586 -9.9345995e-23 9.9917746e-41)
(0.00031945504 -0.00039505123 1.4047441e-23 0.00070392312 -4.7084641e-23 1.6193716e-40)
(0.00025275011 -0.00034394177 -9.9761402e-23 0.00068976051 1.4046606e-22 1.2990765e-40)
(0.00020135425 -0.00029861575 -2.0744398e-23 0.00066926198 -1.3515364e-23 5.5544536e-40)
(0.00016096186 -0.00025840596 5.4346611e-23 0.00064499751 -1.7038586e-22 9.1632345e-40)
(2.8474349e-06 -3.5565644e-07 2.8459833e-23 4.3449933e-07 -5.6956841e-24 3.2527611e-40)
(1.3422688e-05 -5.6182693e-06 -4.0607892e-23 2.8860322e-06 1.1251947e-23 3.131541e-40)
(3.0065988e-05 -1.2984141e-05 9.0201171e-23 5.7532611e-06 -3.3794101e-23 1.7985811e-39)
(9.6391645e-05 -2.7399106e-05 2.5177736e-22 8.2501987e-06 -5.3698487e-23 6.0488147e-39)
(0.0002115318 -4.519571e-05 -1.7987325e-22 1.0493317e-05 3.0641616e-23 1.5730867e-39)
(0.00037802903 -6.5113727e-05 2.267311e-22 1.2484293e-05 -3.0781951e-23 1.7381687e-39)
(0.00060130392 -8.6471199e-05 -3.1132319e-22 1.4225853e-05 3.9539087e-23 1.9089894e-39)
(0.00088278784 -0.00010858687 -3.2112445e-22 1.5754292e-05 3.3587715e-23 2.0184787e-39)
(0.0012211332 -0.00013090788 4.0403504e-22 1.7108731e-05 -4.1921575e-23 2.1340087e-39)
(0.0016140733 -0.00015302664 -3.136725e-22 1.8319713e-05 3.0664984e-23 1.0869055e-39)
(0.0020587774 -0.00017463627 -1.568127e-23 1.9410479e-05 2.6169545e-25 1.2639144e-41)
(0.0025518971 -0.00019549908 9.035021e-23 2.0398858e-05 -9.6262871e-24 3.9983729e-41)
(0.0030897232 -0.00021542797 -1.5562962e-23 2.129853e-05 7.4962108e-25 6.3440138e-42)
(0.0036683336 -0.00023427483 4.9140786e-22 2.2120495e-05 -4.4116767e-23 1.9035697e-39)
(0.0042836824 -0.00025192696 6.4372708e-25 2.2874895e-05 9.3114953e-25 4.1120702e-42)
(0.004931689 -0.00026831387 -7.2289917e-22 2.357286e-05 6.7706637e-23 3.9149836e-39)
(0.0056083591 -0.00028341327 1.3404649e-22 2.4226277e-05 -1.4113721e-23 8.2670465e-41)
(0.006309802 -0.00029722423 3.2544811e-22 2.4843983e-05 -3.228927e-23 9.9556468e-40)
(0.0070321493 -0.00030980717 -5.2838933e-22 2.5434736e-05 5.6171044e-23 2.8218345e-39)
(0.0077710175 -0.0003215801 -2.9212077e-22 2.5993989e-05 3.3136511e-23 1.0595073e-39)
(3.2249999e-06 -1.4880751e-06 9.3739521e-24 3.8237557e-06 -3.4643092e-24 3.2192315e-41)
(1.7111559e-05 -1.9251707e-05 -2.5716396e-22 2.5432009e-05 1.9389542e-22 1.0472793e-38)
(3.8399291e-05 -4.3708019e-05 5.1035271e-23 5.0682325e-05 -4.2209358e-23 9.4523324e-40)
(0.00011340386 -8.8696305e-05 2.7084074e-22 7.2681178e-05 -1.6635661e-22 5.0552908e-39)
(0.00023858867 -0.00014343656 3.7631728e-22 9.2402258e-05 -1.8084613e-22 5.7166255e-39)
(0.00041567715 -0.00020422534 4.5505793e-23 0.00010983317 -1.8248148e-23 5.3701483e-41)
(0.00064943804 -0.00026902627 -1.2099784e-21 0.00012500247 4.1917707e-22 2.8592182e-38)
(0.00094052112 -0.00033582531 -4.2640822e-23 0.00013823223 1.7666377e-23 8.2580648e-42)
(0.0012868787 -0.00040299936 6.8471066e-22 0.00014986636 -2.0841508e-22 4.8795309e-39)
(0.001685605 -0.00046935184 -1.6528471e-22 0.0001601739 4.5621965e-23 2.7133287e-40)
(0.0021332385 -0.00053397923 -6.275546e-22 0.00016935958 1.719061e-22 3.0098577e-39)
(0.0026257943 -0.00059617904 1.3207538e-22 0.00017757938 -3.3753778e-23 1.37046e-40)
(0.0031589152 -0.00065539474 5.5758827e-22 0.00018495122 -1.246365e-22 3.2284544e-39)
(0.003728005 -0.0007111804 2.3058574e-22 0.00019156735 -5.7331278e-23 3.6872939e-40)
(0.0043282945 -0.00076318776 4.6146273e-22 0.00019751006 -1.229126e-22 1.0663884e-39)
(0.0049549298 -0.00081118428 -3.648309e-22 0.0002028673 9.1884215e-23 9.0220766e-40)
(0.0056031947 -0.00085507721 -3.4883926e-22 0.00020773435 8.6997427e-23 9.8684678e-40)
(0.0062684269 -0.00089482873 3.5254665e-22 0.0002121878 -1.0012253e-22 5.703299e-40)
(0.0069446783 -0.00093060109 3.2198364e-22 0.00021631434 -8.9256709e-23 9.9735794e-40)
(0.0076248934 -0.00096398529 1.2471162e-22 0.00022010629 -3.3231455e-23 4.2365961e-40)
(4.1455401e-06 -3.8099228e-06 7.2126883e-24 1.0198627e-05 -3.6082321e-24 1.6948085e-41)
(2.5864824e-05 -3.9785002e-05 1.9530861e-22 6.7888456e-05 -2.0905223e-22 4.4633022e-39)
(5.779833e-05 -8.7908783e-05 -4.274018e-23 0.00013518246 5.5078892e-23 2.337393e-40)
(0.0001509634 -0.00016834354 -2.9422452e-22 0.00019377888 2.4772768e-22 5.5341592e-39)
(0.00029691154 -0.00026378849 1.0833643e-22 0.00024612379 -9.0966508e-23 1.5676099e-40)
(0.00049571779 -0.00036826066 1.4349705e-22 0.0002920723 -1.1664549e-22 8.2448329e-41)
(0.00075083903 -0.00047839733 -1.7879743e-22 0.00033169336 9.4786992e-23 4.9307325e-40)
(0.0010614489 -0.0005909397 -4.6730858e-22 0.0003658449 2.7263801e-22 9.8516359e-40)
(0.0014241631 -0.00070328377 2.0453766e-22 0.00039544125 -9.9398021e-23 2.7541805e-40)
(0.0018348385 -0.00081350264 4.3437101e-22 0.00042120314 -1.805825e-22 1.564123e-39)
(0.0022887925 -0.00092012914 1.2095504e-22 0.00044368209 -8.3788932e-23 5.8775563e-41)
(0.0027808126 -0.0010220102 5.3110399e-22 0.00046329684 -1.7632172e-22 2.9025457e-39)
(0.0033052931 -0.001118217 4.5038264e-23 0.00048035863 -1.6685141e-23 1.2035007e-41)
(0.0038563444 -0.0012079848 -7.88943e-22 0.00049510168 2.6637298e-22 4.6668847e-39)
(0.0044278273 -0.0012906886 5.802572e-23 0.00050772456 -3.8280382e-23 2.5887361e-41)
(0.0050134434 -0.0013658735 -3.687538e-22 0.00051843409 1.026027e-22 1.8185174e-39)
(0.0056071585 -0.0014333114 -5.199457e-22 0.00052745575 2.0582979e-22 7.474894e-40)
(0.0062029839 -0.0014928636 8.4417856e-22 0.0005350128 -3.287907e-22 2.4811527e-39)
(0.0067915045 -0.0015447454 4.4572101e-22 0.00054147063 -1.8434484e-22 5.0490751e-40)
(0.0073616528 -0.0015923486 8.8936177e-23 0.00054705507 -4.0460319e-23 1.0832661e-41)
(6.1070445e-06 -7.880414e-06 -1.0796219e-23 1.8781259e-05 1.3593687e-23 2.4839822e-41)
(4.2401687e-05 -7.064076e-05 -4.5249241e-22 0.0001252407 5.7225625e-22 1.4810101e-38)
(9.3801702e-05 -0.00015228164 -3.2880744e-23 0.0002491608 4.2254618e-23 2.0240512e-40)
(0.0002169907 -0.00027525595 7.5855999e-23 0.00035688358 -8.3972798e-23 1.2904722e-40)
(0.00039668781 -0.00041664233 -1.2229826e-23 0.00045263285 3.1513446e-24 3.3327646e-41)
(0.00063053086 -0.00056831629 3.8640766e-22 0.0005358763 -2.8322544e-22 2.4322351e-39)
(0.00091995846 -0.00072558477 4.2727955e-22 0.00060669812 -2.7900149e-22 2.2095555e-39)
(0.0012619577 -0.00088406387 -1.2943547e-22 0.00066668009 6.2548146e-23 3.4819758e-40)
(0.0016511461 -0.0010402891 -4.7475474e-22 0.00071751805 2.4788504e-22 2.2139238e-39)
(0.0020815054 -0.0011916771 -9.5717959e-22 0.00076056866 5.1602161e-22 4.6943778e-39)
(0.0025465025 -0.0013362348 -2.0884929e-23 0.00079688494 -1.1244675e-23 1.0718332e-40)
(0.0030390826 -0.0014723726 1.2179787e-21 0.00082727308 -5.6711497e-22 7.6717708e-39)
(0.0035517826 -0.0015987798 -4.9351965e-22 0.00085233058 1.8814586e-22 2.2681011e-39)
(0.0040768423 -0.0017143524 -3.1889842e-22 0.0008725018 1.3960138e-22 4.475586e-40)
(0.0046062159 -0.0018181519 -3.8493236e-23 0.00088814637 4.3134265e-23 9.6630256e-41)
(0.0051316802 -0.0019094432 7.552127e-22 0.00089961539 -3.3107981e-22 1.8358476e-39)
(0.0056455032 -0.001987806 -4.2781705e-22 0.00090728189 2.1436941e-22 1.2317084e-40)
(0.0061402373 -0.0020530222 -9.8107087e-22 0.00091161663 4.1331345e-22 3.952469e-39)
(0.0066026025 -0.0021053934 6.5838059e-22 0.00091375618 -2.8684286e-22 1.9874285e-39)
(0.007017201 -0.0021504079 5.6773529e-22 0.00091499917 -2.2789434e-22 1.8485859e-39)
(9.7668361e-06 -1.4035546e-05 4.8471296e-23 2.8630265e-05 -4.7107271e-23 3.1894804e-40)
(7.034882e-05 -0.00011381968 1.5688976e-23 0.00019114734 -4.0379561e-24 1.4411936e-40)
(0.00015372571 -0.00024068142 -6.2363665e-22 0.00037962255 8.9292015e-22 1.2149731e-38)
(0.00032170118 -0.00041432083 -3.5822874e-22 0.00054291841 3.8047965e-22 3.7581335e-39)
(0.00055049868 -0.00060715965 2.3906533e-22 0.00068704191 -1.9033705e-22 2.2715283e-39)
(0.0008344441 -0.00080893473 2.9727309e-22 0.00081076708 -2.395092e-22 1.0699808e-39)
(0.0011720928 -0.0010135674 -3.8678574e-22 0.00091417774 2.5251893e-22 2.5037668e-39)
(0.0015574267 -0.0012156889 -5.8986281e-22 0.00099972528 3.3832907e-22 5.4942775e-39)
(0.0019823002 -0.0014111293 8.7320214e-22 0.0010700604 -5.2133126e-22 5.6373818e-39)
(0.0024380866 -0.0015967626 2.5034584e-22 0.0011273493 -1.0115363e-22 1.3123517e-39)
(0.0029156989 -0.0017701539 -7.8885273e-22 0.0011733161 5.2208674e-22 4.3507656e-40)
(0.0034055934 -0.0019293464 3.4577914e-22 0.001209312 -1.5700651e-22 1.0104312e-39)
(0.0038979191 -0.0020727237 0 0.0012363664 0 0)
(0.0043826419 -0.0021989168 3.3701212e-22 0.0012552552 -1.6418244e-22 3.9546741e-40)
(0.0048495946 -0.0023067554 -2.5289695e-22 0.0012665941 1.2016908e-22 2.1118563e-40)
(0.0052886469 -0.0023953066 -3.8754648e-22 0.001270939 1.9353626e-22 2.5645769e-40)
(0.0056906985 -0.0024640454 1.4305856e-22 0.0012688169 -1.1712589e-22 3.6070587e-40)
(0.0060477048 -0.0025128667 -1.1633164e-22 0.0012609627 6.9662411e-23 1.3043792e-41)
(0.0063437209 -0.002542444 5.5769994e-22 0.0012498695 -2.4149705e-22 2.1400511e-39)
(0.0065588904 -0.0025601364 -4.5287937e-22 0.0012395977 2.2213239e-22 1.2481047e-40)
(1.588581e-05 -2.2381233e-05 4.6491073e-23 3.8811908e-05 -3.9088812e-23 2.5608977e-40)
(0.00011379952 -0.00016969397 2.240717e-22 0.00025894463 -2.9835837e-22 9.5644235e-40)
(0.00024564424 -0.00035352337 -3.0073124e-22 0.0005126582 3.9904297e-22 2.2800688e-39)
(0.00047583884 -0.00058534196 -4.9373562e-22 0.00073124635 5.5551518e-22 1.9091386e-39)
(0.00077054532 -0.0008337873 -1.4515507e-22 0.00092230863 2.1305677e-22 1.5070583e-39)
(0.0011196471 -0.0010863196 -4.4641568e-22 0.0010837336 3.9215901e-22 9.3800891e-40)
(0.0015177079 -0.0013354128 -2.0777177e-22 0.001215694 1.278981e-22 1.0839754e-39)
(0.0019547521 -0.0015749102 3.5993847e-22 0.0013216604 -2.1641809e-22 1.9994289e-39)
(0.0024190212 -0.0018001743 8.605658e-22 0.001405406 -5.1271967e-22 6.8457148e-39)
(0.0028985122 -0.0020077643 2.6508106e-22 0.0014701005 -1.6313644e-22 2.8709398e-40)
(0.0033809924 -0.0021950446 -2.518328e-22 0.0015183424 1.336509e-22 4.554398e-40)
(0.0038540412 -0.002359947 -4.7022622e-23 0.0015522353 -1.0305729e-23 3.9669839e-40)
(0.0043052949 -0.0025008279 -1.1996368e-21 0.0015734421 6.5635721e-22 3.7766884e-39)
(0.0047226895 -0.0026163736 -3.7243213e-22 0.0015832623 1.9475102e-22 3.9064799e-40)
(0.0050946299 -0.0027055472 6.2369903e-22 0.0015827353 -3.6080491e-22 1.8547408e-40)
(0.0054102726 -0.0027676089 -6.2174549e-22 0.0015727419 3.3607937e-22 3.8643578e-40)
(0.0056608251 -0.0028022864 -2.1931927e-22 0.0015539742 1.0799027e-22 1.2357192e-40)
(0.0058400688 -0.0028099555 4.9148878e-22 0.0015272576 -2.0725694e-22 1.9208811e-39)
(0.005932911 -0.0027921692 7.4496847e-22 0.0014966043 -3.7260396e-22 1.4565432e-39)
(0.0059157098 -0.0027575309 9.0762275e-23 0.0014709067 -4.2437921e-23 2.8361335e-41)
(2.5272955e-05 -3.2800767e-05 -1.3112705e-22 4.8477291e-05 1.0646911e-22 1.5152087e-39)
(0.00017682634 -0.00023697074 -1.4521562e-22 0.00032231814 1.4732276e-22 1.2077149e-39)
(0.00037716838 -0.0004875555 3.6737896e-22 0.00063501263 -4.6422069e-22 5.5413616e-40)
(0.0006886325 -0.00078257469 5.6039728e-22 0.00090218325 -5.8042505e-22 2.5329296e-39)
(0.0010656906 -0.0010876396 7.3214165e-24 0.0011327563 -6.5916093e-24 5.0286652e-43)
(0.0014923111 -0.0013877708 -1.5218287e-21 0.0013238035 1.2554537e-21 1.4792172e-38)
(0.0019577564 -0.0016740466 -5.9612789e-22 0.0014758546 5.1011065e-22 2.1161837e-40)
(0.002447114 -0.0019398625 4.6345099e-22 0.0015936053 -3.1250177e-22 1.6232259e-39)
(0.0029443158 -0.0021805418 5.3145436e-22 0.001682135 -3.5678457e-22 9.9273038e-40)
(0.0034335767 -0.0023927884 -5.2090933e-22 0.0017458155 2.8996131e-22 2.7250464e-39)
(0.0038994366 -0.0025742528 -1.5310143e-21 0.0017883332 9.6576143e-22 3.9718337e-39)
(0.0043269759 -0.0027232883 1.0070763e-21 0.0018127558 -6.0997879e-22 1.6328662e-39)
(0.004702245 -0.0028388069 5.9949374e-22 0.0018215894 -3.1256792e-22 1.9562611e-39)
(0.0050127056 -0.0029201879 -8.3120861e-22 0.0018168578 4.5846161e-22 1.61431e-39)
(0.0052475895 -0.0029672184 3.652742e-22 0.0018002007 -2.1073062e-22 1.0825616e-40)
(0.0053982896 -0.002980066 6.0635065e-22 0.0017729516 -3.1221007e-22 1.2023511e-39)
(0.0054597613 -0.0029593475 2.3100983e-22 0.0017359781 -1.3016058e-22 4.095507e-41)
(0.0054315347 -0.0029063695 -3.9584255e-22 0.0016898578 2.444477e-22 5.188831e-41)
(0.0053048334 -0.0028239222 -9.1824321e-23 0.0016394797 2.9833368e-23 2.9779198e-40)
(0.0050551246 -0.0027207904 5.1932493e-22 0.0015998606 -2.9994184e-22 1.2104509e-40)
(3.8724096e-05 -4.4957993e-05 -3.8875804e-24 5.6873524e-05 -4.1388769e-24 2.8256937e-41)
(0.00026294413 -0.00031273597 -5.2822015e-22 0.00037566467 5.5884149e-22 3.9693199e-39)
(0.0005541252 -0.00063598299 -4.2136879e-22 0.00073515696 4.5216928e-22 6.0047355e-39)
(0.00096568774 -0.0009949783 7.9190074e-22 0.0010389086 -7.5886169e-22 3.5108006e-39)