/*--------------------------------*- C++ -*----------------------------------*\
  =========                 |
  \\      /  F ield         | OpenFOAM: The Open Source CFD Toolbox
   \\    /   O peration     | Website:  https://openfoam.org
    \\  /    A nd           | Version:  6
     \\/     M anipulation  |
\*---------------------------------------------------------------------------*/
FoamFile
{
    version     2.0;
    format      ascii;
    class       volScalarField;
    location    "238";
    object      pPrime2Mean;
}
// * * * * * * * * * * * * * * * * * * * * * * * * * * * * * * * * * * * * * //

dimensions      [0 4 -4 0 0 0 0];

internalField   nonuniform List<scalar> 
9200
(
0.047272744
0.03918951
0.032345885
0.027890269
0.024333523
0.021335484
0.018748308
0.016496589
0.014530132
0.012808748
0.011299154
0.0099734616
0.0088081294
0.0077831658
0.0068815079
0.0060885662
0.0053919908
0.0047814774
0.0042493471
0.0037855633
0.038344581
0.031728549
0.026195655
0.022558581
0.019640276
0.017173094
0.015040891
0.013184411
0.011563748
0.01014674
0.0089065421
0.007820452
0.0068691077
0.0060358704
0.0053063499
0.0046680661
0.0041102693
0.0036236917
0.0031996789
0.0028258893
0.029972915
0.024768108
0.020466181
0.017599904
0.015281487
0.013311826
0.01160515
0.01011783
0.0088200814
0.0076875488
0.0066995034
0.0058380274
0.0050874774
0.0044340894
0.0038656963
0.0033715422
0.0029421757
0.0025692484
0.0022443676
0.001956528
0.022389935
0.018495756
0.015307952
0.013142689
0.011369114
0.0098504698
0.0085291861
0.0073763111
0.0063716194
0.0054979408
0.0047399895
0.004083947
0.003517252
0.0030284871
0.002607329
0.0022445323
0.0019319091
0.0016621948
0.0014282171
0.0012216454
0.015804819
0.013080072
0.010859531
0.0093065291
0.0080085391
0.006883177
0.0058980856
0.0050375533
0.0042898965
0.0036441042
0.0030893431
0.0026150144
0.0022109377
0.0018675542
0.0015761081
0.0013287716
0.0011186859
0.00093988312
0.00078684302
0.00065397537
0.010401903
0.0086679348
0.0072438004
0.0061983647
0.0052947104
0.0044955075
0.003789824
0.0031731998
0.0026409876
0.0021869482
0.0018035018
0.0014823306
0.0012149825
0.00099336607
0.00081010028
0.00065870831
0.00053366295
0.00043032122
0.00034475079
0.00027349789
0.0063353299
0.0053810259
0.0045652533
0.0039101878
0.0033100993
0.002762448
0.0022731739
0.0018465341
0.0014830053
0.0011795198
0.00093051175
0.00072908243
0.00056797456
0.00044026668
0.00033978868
0.00026130084
0.00020049472
0.00015390821
0.00011889112
9.3427136e-05
0.003725125
0.0033134203
0.0029080805
0.0025172538
0.0021228807
0.0017464189
0.0014054806
0.0011100844
0.00086369219
0.0006647831
0.00050867286
0.00038916634
0.00029978035
0.00023450622
0.00018818771
0.00015662435
0.0001365052
0.00012529461
0.00012123533
0.00012314783
0.0026538641
0.0025289484
0.0023326511
0.0020742719
0.0017834312
0.0014943549
0.001230397
0.0010039927
0.00081936795
0.00067507523
0.00056641785
0.00048739662
0.0004319936
0.00039486887
0.00037162811
0.00035882787
0.00035384961
0.00035476169
0.00036029002
0.00036959957
0.0031631042
0.0030590613
0.0028717995
0.0026118284
0.0023209399
0.0020341837
0.0017741237
0.0015521421
0.0013711842
0.0012287174
0.0011194184
0.0010371426
0.00097607632
0.0009312633
0.00089874083
0.00087546101
0.00085913157
0.00084806411
0.00084106337
0.00083721709
0.11217193
0.094340808
0.077969997
0.067618211
0.059398778
0.052499711
0.046559928
0.041384629
0.036853215
0.032870905
0.029360266
0.026257194
0.023507993
0.021067269
0.018896372
0.016962193
0.01523624
0.013692996
0.012308499
0.011068892
0.11074391
0.093048486
0.076865173
0.066632307
0.058515853
0.051704738
0.045841075
0.040733267
0.036262101
0.032333705
0.028871383
0.025811645
0.023101331
0.020695513
0.018555951
0.016649915
0.014949286
0.013428921
0.01206472
0.010843305
0.1078311
0.09048989
0.074711708
0.064733326
0.056827708
0.050194887
0.044484678
0.039511489
0.035159233
0.0313363
0.027967781
0.024991652
0.022355975
0.020016866
0.01793699
0.016084417
0.014431788
0.012954707
0.011629153
0.01044199
0.10348439
0.086727163
0.071571823
0.061980218
0.054387714
0.04801848
0.042534977
0.03776009
0.033582427
0.029913897
0.026682404
0.023828201
0.02130124
0.019059235
0.017066214
0.01529142
0.013708561
0.012294318
0.011025155
0.0098877759
0.097822479
0.081867074
0.067536467
0.058454329
0.051268849
0.04524132
0.040051729
0.035533646
0.031581752
0.028112618
0.025057879
0.022360827
0.019973922
0.017856981
0.01597581
0.014301161
0.01280803
0.011474431
0.010277981
0.0092050521
0.091006666
0.076051037
0.062723594
0.054259594
0.047563714
0.041946365
0.037109592
0.032899559
0.029218234
0.025987838
0.023144565
0.02063541
0.018415894
0.016448393
0.01470087
0.013145874
0.011759867
0.010522314
0.009412749
0.0084176124
0.083232799
0.069448644
0.057272822
0.049517904
0.043380363
0.038230009
0.033794835
0.029935165
0.026561297
0.023601949
0.020998563
0.018702425
0.016672612
0.014874475
0.013278482
0.011859267
0.010594929
0.0094663946
0.008455672
0.0075501569
0.074724165
0.062251655
0.051340949
0.044365352
0.038838957
0.034199052
0.030202638
0.026725387
0.023686757
0.021022648
0.018680323
0.016615857
0.014792313
0.013178403
0.011747435
0.010476434
0.0093453963
0.0083367961
0.0074354354
0.0066305481
0.065723413
0.054666848
0.045096278
0.038947249
0.034067317
0.029966759
0.026433613
0.023359632
0.020674063
0.018320518
0.016252545
0.014431404
0.01282451
0.01140426
0.010147108
0.0090327785
0.0080435292
0.0071637265
0.0063813366
0.0056874857
0.05648377
0.046910237
0.038712615
0.033411798
0.029194765
0.025647061
0.022588467
0.019927058
0.017602257
0.015565736
0.013777623
0.012204618
0.010818697
0.0095961341
0.008516732
0.007563193
0.0067206226
0.0059764648
0.0053228907
0.0047514154
0.0097612181
0.0084575922
0.0073523347
0.0063928803
0.0055733376
0.0048714276
0.0042678192
0.003745929
0.0032922755
0.0028959109
0.0025479693
0.0022413479
0.001970345
0.0017303242
0.0015174626
0.0013285672
0.0011609344
0.0010122442
0.00088048162
0.00076387863
0.0006608697
0.00057005763
0.0004901871
0.00042012409
0.00035884001
0.00030539927
0.00025894958
0.00021871418
0.00018398556
0.00015412029
0.00012853454
0.00010670013
8.8140944e-05
7.2429418e-05
5.9183348e-05
4.8062556e-05
3.876586e-05
3.1027785e-05
2.4615874e-05
1.9326965e-05
1.4986311e-05
1.1439691e-05
8.5645257e-06
6.2328871e-06
4.3944424e-06
2.8803538e-06
1.832579e-06
8.4308618e-07
1.1102905e-06
1.837964e-06
0.0095718686
0.0083114766
0.0072378378
0.0063026735
0.0055030764
0.0048172675
0.0042261088
0.0037136435
0.0032670795
0.0028760165
0.002532045
0.0022284388
0.0019597739
0.0017216039
0.0015102349
0.0013225613
0.0011559394
0.001008091
0.00087703186
0.00076101729
0.00065850041
0.00056809927
0.0004885713
0.00041879327
0.00035774574
0.00030450095
0.00025821323
0.00021811148
0.00018349297
0.00015371828
0.00012820698
0.00010643369
8.792465e-05
7.2254239e-05
5.9041858e-05
4.7948653e-05
3.8674533e-05
3.0954918e-05
2.4558086e-05
1.9281485e-05
1.4950866e-05
1.1412428e-05
8.5439322e-06
6.2177613e-06
4.3838041e-06
2.873435e-06
1.8289249e-06
8.4092052e-07
1.1036691e-06
1.8024928e-06
0.0092386635
0.0080560698
0.0070396622
0.0061490589
0.0053852873
0.0047278786
0.0041582932
0.003661824
0.0032270463
0.0028446435
0.0025070656
0.0022082616
0.0019432917
0.0017080324
0.001499003
0.0013132404
0.0011481969
0.001001661
0.00087169667
0.00075659636
0.00065484253
0.00056507724
0.0004860781
0.00041673896
0.00035605491
0.00030311054
0.00025707074
0.0002171733
0.00018272302
0.00015308678
0.0001276894
0.00010600987
8.7578038e-05
7.1971239e-05
5.8811306e-05
4.776137e-05
3.8522963e-05
3.0832831e-05
2.4460339e-05
1.9203831e-05
1.4889793e-05
1.1365043e-05
8.5078616e-06
6.1910828e-06
4.3649681e-06
2.8611536e-06
1.8225358e-06
8.3710769e-07
1.0904377e-06
1.7332066e-06
0.008782074
0.0077071525
0.0067720411
0.00594582
0.0052322801
0.0046134381
0.0040724575
0.0035967146
0.0031769063
0.0028053819
0.0024758106
0.0021830272
0.0019227024
0.0016911123
0.0014850362
0.0013016844
0.0011386278
0.00099373836
0.00086514218
0.00075117939
0.00065037066
0.00056138942
0.0004830395
0.00041423691
0.00035399549
0.00030141573
0.00025567592
0.00021602515
0.00018177768
0.00015230826
0.00012704823
0.00010548195
8.7143629e-05
7.1614202e-05
5.8518397e-05
4.752171e-05
3.8327576e-05
3.0674296e-05
2.4332498e-05
1.9101564e-05
1.480884e-05
1.1301858e-05
8.4595164e-06
6.1551812e-06
4.3395599e-06
2.8446129e-06
1.813958e-06
8.321146e-07
1.0705905e-06
1.6336569e-06
0.0082222316
0.0072807935
0.0064496163
0.0057069848
0.0050563981
0.0044837605
0.0039760107
0.0035238082
0.0031207265
0.0027613101
0.0024407111
0.0021547389
0.0018997083
0.0016723171
0.0014696213
0.0012890191
0.0011282142
0.00098517614
0.00085810479
0.00074539816
0.00064562351
0.00055749243
0.00047984033
0.00041160965
0.00035183638
0.00029963952
0.00025421281
0.00021481819
0.00018078051
0.00015148325
0.00012636485
0.00010491547
8.6673977e-05
7.1225044e-05
5.8196397e-05
4.7255924e-05
3.8108972e-05
3.0495377e-05
2.4187005e-05
1.8984248e-05
1.4715289e-05
1.1228358e-05
8.4029641e-06
6.1130122e-06
4.3096382e-06
2.8252047e-06
1.8038611e-06
8.2653884e-07
1.0443177e-06
1.5090587e-06
0.0075763383
0.0067915946
0.006085591
0.0054439644
0.0048666567
0.0043451357
0.003873027
0.0034458195
0.0030604971
0.0027140488
0.0024032032
0.0021247299
0.0018755611
0.0016528139
0.0014538335
0.0012762222
0.0011178345
0.00097675449
0.0008512705
0.00073985053
0.0006411179
0.00055382971
0.00047685849
0.00040917719
0.00034984692
0.00029800732
0.00025286901
0.00021370768
0.00017985933
0.00015071643
0.00012572457
0.0001043796
8.6224858e-05
7.0848511e-05
5.7881002e-05
4.6992333e-05
3.7889483e-05
3.0313571e-05
2.403747e-05
1.8862384e-05
1.4617165e-05
1.1150602e-05
8.3427061e-06
6.0678496e-06
4.2774725e-06
2.8044537e-06
1.7929464e-06
8.2101771e-07
1.0119272e-06
1.3657422e-06
0.0068611925
0.0062541637
0.0056917225
0.0051636486
0.0046660012
0.0041981494
0.0037630464
0.0033622446
0.0029961701
0.0026640518
0.0023641048
0.0020940343
0.0018513932
0.0016337472
0.0014387725
0.0012643169
0.0011084191
0.00096930508
0.000845373
0.00073517675
0.00063740744
0.00055087609
0.00047449833
0.0004072816
0.00034831473
0.00029675954
0.00025184434
0.00021285884
0.00017915005
0.00015011901
0.00012521794
0.0001039477
8.5855399e-05
7.0532013e-05
5.7610026e-05
4.6760924e-05
3.7692748e-05
3.0147389e-05
2.3898283e-05
1.8747062e-05
1.4522927e-05
1.1074961e-05
8.2834517e-06
6.0230936e-06
4.2453945e-06
2.7839059e-06
1.7818889e-06
8.1616449e-07
9.7383631e-07
1.2105561e-06
0.006097725
0.0056851851
0.0052770307
0.0048650533
0.004448222
0.0040363122
0.0036412739
0.0032702428
0.0029265812
0.0026113567
0.0023241733
0.0020637733
0.0018284669
0.001616387
0.0014256405
0.0012543981
0.0011009409
0.00096367731
0.00084114414
0.000732001
0.0006350201
0.00054907507
0.00047313007
0.00040623026
0.00034749371
0.0002961049
0.00025130961
0.00021241081
0.0001787655
0.0001497821
0.00012491818
0.00010367834
8.5612233e-05
7.0312497e-05
5.741259e-05
4.6584527e-05
3.7536557e-05
3.0010606e-05
2.378003e-05
1.8646351e-05
1.4438663e-05
1.1005966e-05
8.2285106e-06
5.9811057e-06
4.2149779e-06
2.764585e-06
1.7710196e-06
8.1238228e-07
9.3051821e-07
1.050378e-06
0.005306682
0.0050918631
0.0048320437
0.0045265454
0.0041898114
0.0038404425
0.0034937908
0.0031599119
0.0028445749
0.002550698
0.0022794452
0.0020308772
0.0018043414
0.0015987543
0.0014128091
0.0012451132
0.0010942702
0.00095892639
0.00083779483
0.00072966628
0.00063341123
0.0005479774
0.00047238512
0.00040572228
0.00034713945
0.0002958458
0.00025110569
0.00021223589
0.00017860353
0.00014962421
0.00012476042
0.00010352002
8.5454583e-05
7.0157755e-05
5.7263339e-05
4.6443262e-05
3.7405412e-05
2.9891221e-05
2.3673506e-05
1.855327e-05
1.4359155e-05
1.0939793e-05
8.1751379e-06
5.9399711e-06
4.1848969e-06
2.7456311e-06
1.7596022e-06
8.0947203e-07
8.826616e-07
8.9226605e-07
0.0045195029
0.0044560217
0.0043145923
0.0041090064
0.0038608492
0.0035878599
0.0033030264
0.0030172506
0.0027387016
0.0024726259
0.0022221412
0.0019889631
0.0017737869
0.0015765679
0.0013967787
0.0012336062
0.0010860812
0.00095316349
0.00083379631
0.00072694027
0.00063159192
0.00054679335
0.000471636
0.00040526169
0.000346862
0.00029567724
0.00025099527
0.00021215045
0.00017852278
0.0001495371
0.00012466231
0.00010341045
8.5335672e-05
7.0032958e-05
5.71366e-05
4.6318436e-05
3.7285907e-05
2.9779808e-05
2.357225e-05
1.8463534e-05
1.4281694e-05
1.0874829e-05
8.1224649e-06
5.8992631e-06
4.154994e-06
2.7269014e-06
1.7475391e-06
8.072406e-07
8.3207899e-07
7.4363978e-07
0.0036630881
0.0036872363
0.0036422564
0.0035322853
0.0033777516
0.0031915911
0.002982708
0.0027608127
0.0025348622
0.0023114499
0.0020951341
0.0018890678
0.0016952776
0.0015148677
0.0013482635
0.0011954253
0.0010560024
0.00092944175
0.00081506832
0.00071213997
0.00061988468
0.0005375246
0.00046429154
0.00039943698
0.0003422384
0.00029200357
0.0002480734
0.00020982407
0.00017666859
0.0001480578
0.00012348112
0.00010246675
8.4581574e-05
6.9430565e-05
5.6655865e-05
4.593548e-05
3.6981692e-05
2.9539111e-05
2.3382851e-05
1.8315618e-05
1.4167313e-05
1.0787697e-05
8.0572232e-06
5.8524014e-06
4.1218608e-06
2.7077423e-06
1.7335743e-06
8.0594306e-07
7.7944694e-07
6.1279182e-07
0.0028393942
0.0029118835
0.0029272237
0.0028854087
0.0028027521
0.0026887195
0.0025485722
0.0023897713
0.0022203189
0.0020465237
0.0018730959
0.0017036644
0.0015409044
0.0013866183
0.0012419111
0.0011073719
0.00098320987
0.00086935826
0.0007655568
0.00067141387
0.00058645165
0.00051013844
0.00044191182
0.00038119525
0.00032741018
0.00027998497
0.00023836174
0.00020200161
0.00017038885
0.00014303414
0.00011947699
9.9287545e-05
8.2067641e-05
6.7451368e-05
5.5105018e-05
4.4726569e-05
3.6044762e-05
2.8817736e-05
2.2831652e-05
1.7898296e-05
1.3854792e-05
1.0557159e-05
7.8899204e-06
5.7351886e-06
4.0407784e-06
2.6593551e-06
1.6991309e-06
7.97947e-07
7.1227416e-07
4.8834328e-07
0.0021309654
0.0022352489
0.002292785
0.0023033941
0.0022770957
0.0022207896
0.002137702
0.002033129
0.0019136477
0.0017848895
0.001651329
0.001516672
0.0013839029
0.0012552607
0.0011323362
0.0010162059
0.00090754139
0.00080669688
0.0007137852
0.00062873964
0.00055136199
0.00048135938
0.0004183723
0.00036199623
0.00031179815
0.00026732952
0.00022813645
0.0001937679
0.00016378225
0.00013775258
0.00011527092
9.5951398e-05
7.9432707e-05
6.5379639e-05
5.3484007e-05
4.3464926e-05
3.5068568e-05
2.8067413e-05
2.2259334e-05
1.7465743e-05
1.3531414e-05
1.0319011e-05
7.7172909e-06
5.614456e-06
3.9569884e-06
2.6097407e-06
1.6620813e-06
7.9099628e-07
6.3922943e-07
3.7143914e-07
0.001535562
0.0016563183
0.0017398218
0.0017868411
0.0018018824
0.0017895175
0.0017518519
0.0016923336
0.0016158365
0.0015269952
0.0014297556
0.0013275765
0.0012234356
0.0011197461
0.0010183773
0.00092073393
0.00082783136
0.00074036098
0.00065875115
0.0005832221
0.0005138315
0.00045051148
0.00039309855
0.00034135777
0.00029500216
0.00025370849
0.00021713006
0.00018490729
0.00015667641
0.00013207654
0.00011075555
9.2374697e-05
7.661221e-05
6.3165981e-05
5.1755403e-05
4.2122476e-05
3.4032282e-05
2.7272866e-05
2.1654834e-05
1.7010047e-05
1.3191596e-05
1.0069338e-05
7.5366591e-06
5.4882497e-06
3.8692807e-06
2.5576226e-06
1.6221653e-06
7.8388023e-07
5.6558266e-07
2.7128275e-07
0.0010567031
0.0011782069
0.0012727042
0.0013408549
0.0013830864
0.0014017111
0.0013979747
0.0013738859
0.0013326531
0.0012777355
0.0012123457
0.0011394624
0.0010618007
0.00098170907
0.00090113166
0.00082163437
0.00074444419
0.0006704883
0.00060043595
0.00053474072
0.00047367888
0.00041738267
0.00036586876
0.00031906248
0.00027681817
0.00023893626
0.00020517774
0.00017527626
0.00014894835
0.00012590207
0.00010584413
8.8485776e-05
7.3547531e-05
6.0762878e-05
4.9881011e-05
4.0668765e-05
3.2911811e-05
2.6415187e-05
2.1003427e-05
1.6519835e-05
1.2826643e-05
9.80154e-06
7.3430973e-06
5.3528711e-06
3.7750527e-06
2.5009187e-06
1.5783798e-06
7.752761e-07
4.94336e-07
1.9269652e-07
0.00068995745
0.00079959447
0.00089248749
0.00096839897
0.0010251651
0.0010631087
0.0010825763
0.0010844429
0.0010704881
0.0010429832
0.0010042936
0.00095677129
0.00090269135
0.00084414743
0.0007829807
0.00072076187
0.00065879713
0.00059814188
0.00053962181
0.00048385935
0.00043130135
0.00038224527
0.00033686342
0.0002952247
0.00025731394
0.00022304878
0.00019229442
0.00016487646
0.00014059199
0.00011921908
0.000100525
8.4272971e-05
7.0227884e-05
5.8160859e-05
4.7852828e-05
3.9097229e-05
3.1701897e-05
2.549024e-05
2.0301909e-05
1.5992647e-05
1.2434667e-05
9.5141529e-06
7.1354728e-06
5.207363e-06
3.6736042e-06
2.4388266e-06
1.5305544e-06
7.6423128e-07
4.2795363e-07
1.3734524e-07
0.00042343171
0.00051346666
0.00059566726
0.00066885029
0.00072959549
0.00077679361
0.0008099175
0.00082892777
0.00083446876
0.00082774234
0.00081025447
0.00078366764
0.00074971358
0.00071009891
0.00066642246
0.00062012673
0.00057247635
0.00052455007
0.00047724265
0.00043127495
0.00038720886
0.00034546448
0.0003063377
0.00027001759
0.00023660274
0.00020611649
0.00017852078
0.00015372856
0.00013161502
0.00011202739
9.4793586e-05
7.9729652e-05
6.6646076e-05
5.5353059e-05
4.5664785e-05
3.7402782e-05
3.0398454e-05
2.4494857e-05
1.9547889e-05
1.5426712e-05
1.2014377e-05
9.2062181e-06
6.9130727e-06
5.0511209e-06
3.5645232e-06
2.3707865e-06
1.4787869e-06
7.4988394e-07
3.6832603e-07
1.0389847e-07
0.00024174492
0.00030890142
0.00037501252
0.00043829751
0.00049507049
0.00054343355
0.00058218736
0.00061059914
0.00062847313
0.00063614008
0.00063432349
0.00062401123
0.00060636436
0.00058263301
0.00055407876
0.00052191508
0.00048726593
0.00045114055
0.00041441997
0.00037785254
0.00034205649
0.00030752693
0.00027464572
0.0002436929
0.00021485877
0.00018825605
0.00016393163
0.00014187774
0.00012204226
0.0001043383
8.865268e-05
7.4853618e-05
6.2797315e-05
5.2333668e-05
4.3311025e-05
3.5580072e-05
2.8996896e-05
2.3425286e-05
1.8738416e-05
1.4819778e-05
1.1564093e-05
8.8765e-06
6.6750033e-06
4.8834598e-06
3.4473824e-06
2.2963271e-06
1.4232899e-06
7.3156053e-07
3.1654222e-07
8.8357621e-08
0.00012880164
0.00017304431
0.0002208304
0.00027017958
0.00031773297
0.00036134732
0.00039945819
0.00043089294
0.00045489666
0.00047116152
0.00047977214
0.00048111999
0.00047582814
0.00046468284
0.00044856644
0.00042839914
0.00040509237
0.00037951259
0.00035245616
0.000324634
0.00029666344
0.00026906588
0.00024226858
0.00021660962
0.00019234479
0.00016965573
0.00014865871
0.00012941358
0.00011193258
9.6188786e-05
8.2124109e-05
6.9656543e-05
5.8686759e-05
4.9103897e-05
4.0790574e-05
3.3627094e-05
2.7494905e-05
2.2279315e-05
1.7871584e-05
1.4170321e-05
1.1082665e-05
8.5241698e-06
6.4207018e-06
4.7040048e-06
3.3220225e-06
2.2153121e-06
1.3644916e-06
7.0900002e-07
2.7295878e-07
8.5068815e-08
6.9408612e-05
9.2761733e-05
0.0001223408
0.00015626244
0.00019177028
0.00022684411
0.00025985474
0.00028944498
0.00031455621
0.00033447466
0.00034882443
0.00035752438
0.00036073924
0.00035883098
0.0003523084
0.00034177721
0.00032789577
0.00031133776
0.00029276145
0.00027278671
0.00025197934
0.0002308411
0.00020980448
0.0001892313
0.00016941425
0.0001505806
0.00013289736
0.00011647741
0.00010138613
8.7648286e-05
7.5254786e-05
6.4169209e-05
5.433391e-05
4.5675582e-05
3.8110228e-05
3.154747e-05
2.5894208e-05
2.105762e-05
1.6947559e-05
1.3478312e-05
1.0570039e-05
8.1492307e-06
6.1502519e-06
4.5129235e-06
3.1887161e-06
2.128058e-06
1.3030511e-06
6.8242733e-07
2.3736901e-07
8.810609e-08
5.0207386e-05
5.5785452e-05
6.8797947e-05
8.762606e-05
0.00011018623
0.0001347803
0.0001599345
0.00018431944
0.00020678651
0.00022642412
0.00024257773
0.00025483912
0.00026302418
0.00026714565
0.00026738103
0.0002640366
0.00025751109
0.00024826209
0.00023677644
0.0002235448
0.00020904145
0.00019370939
0.00017794973
0.00016211512
0.00014650635
0.00013137174
0.00011690853
0.00010326585
9.0548824e-05
7.8823326e-05
6.8121205e-05
5.84456e-05
4.9776191e-05
4.20742e-05
3.5287024e-05
2.9352407e-05
2.4202089e-05
1.9764918e-05
1.5969421e-05
1.2745823e-05
1.0027685e-05
7.7528081e-06
5.8645785e-06
4.3110493e-06
3.0482419e-06
2.0353664e-06
1.2398321e-06
6.5253155e-07
2.0919657e-07
9.2567584e-08
6.0044852e-05
5.1335347e-05
5.023718e-05
5.5455539e-05
6.5534267e-05
7.9167829e-05
9.5158763e-05
0.0001123485
0.0001296563
0.00014613902
0.00016102442
0.00017372085
0.00018381571
0.00019106736
0.00019539029
0.00019683423
0.00019555941
0.00019181065
0.00018589228
0.00017814499
0.0001689252
0.00015858785
0.0001474728
0.00013589464
0.00012413552
0.00011244081
0.00010101702
9.0031652e-05
7.9614622e-05
6.9860734e-05
6.0833002e-05
5.2566466e-05
4.5072276e-05
3.8341824e-05
3.2350764e-05
2.7062788e-05
2.2433058e-05
1.8411245e-05
1.4944124e-05
1.1977722e-05
9.4590778e-06
7.3374616e-06
5.5656348e-06
4.0999717e-06
2.9019108e-06
1.9384786e-06
1.1758258e-06
6.2032399e-07
1.8760408e-07
9.535128e-08
8.9961119e-05
7.0356307e-05
5.7891655e-05
5.1584676e-05
5.0505534e-05
5.3730201e-05
6.0374773e-05
6.9523224e-05
8.0259982e-05
9.1726289e-05
0.00010315717
0.0001139008
0.00012342985
0.00013134719
0.00013738517
0.00014139813
0.00014334961
0.00014329617
0.00014136937
0.00013775746
0.00013268756
0.00012640929
0.00011918044
0.00011125511
0.00010287431
9.4258933e-05
8.5604912e-05
7.7080432e-05
6.8824748e-05
6.0948439e-05
5.3534723e-05
4.66416e-05
4.0304543e-05
3.4539531e-05
2.9346218e-05
2.4711086e-05
2.0610457e-05
1.701326e-05
1.3883509e-05
1.1182422e-05
8.8702241e-06
6.9075385e-06
5.2566181e-06
3.8821381e-06
2.751595e-06
1.8390193e-06
1.1120919e-06
5.8697408e-07
1.715549e-07
9.5233388e-08
0.00013297532
0.00010550865
8.4359435e-05
6.8810168e-05
5.8338429e-05
5.2347362e-05
5.0248179e-05
5.1381987e-05
5.5041402e-05
6.051853e-05
6.7138963e-05
7.4283117e-05
8.1402979e-05
8.8035658e-05
9.3811948e-05
9.8459019e-05
0.00010179777
0.00010373599
0.00010425834
0.00010341435
0.0001013053
9.8070876e-05
9.3876449e-05
8.8901455e-05
8.3329364e-05
7.7339339e-05
7.1099698e-05
6.4763077e-05
5.8463252e-05
5.2313355e-05
4.6405335e-05
4.0810406e-05
3.5580271e-05
3.0748909e-05
2.6334728e-05
2.2342919e-05
1.8767856e-05
1.5595439e-05
1.2805275e-05
1.0372645e-05
8.2702332e-06
6.4695659e-06
4.9422157e-06
3.6609775e-06
2.5997656e-06
1.7389385e-06
1.0497148e-06
5.5364371e-07
1.5985539e-07
9.2366735e-08
0.00018378425
0.00015101525
0.00012359805
0.00010102246
8.3059295e-05
6.9368461e-05
5.9608502e-05
5.3354999e-05
5.0110945e-05
4.9344267e-05
5.0515341e-05
5.30955e-05
5.6583756e-05
6.0522813e-05
6.451218e-05
6.821703e-05
7.1372706e-05
7.3785337e-05
7.532907e-05
7.5940502e-05
7.5611005e-05
7.4377713e-05
7.231386e-05
6.9519109e-05
6.6110383e-05
6.2213612e-05
5.7956582e-05
5.3463085e-05
4.8848359e-05
4.4215818e-05
3.9654954e-05
3.5240283e-05
3.103116e-05
2.7072312e-05
2.3394896e-05
2.0017945e-05
1.6950024e-05
1.4191002e-05
1.173381e-05
9.5661171e-06
7.6718688e-06
6.0326649e-06
4.6288943e-06
3.4410749e-06
2.4495853e-06
1.6405168e-06
9.898317e-07
5.2140422e-07
1.512741e-07
8.7564246e-08
0.00023844772
0.00020244279
0.00017081465
0.00014320682
0.00011958582
9.9798642e-05
8.3693527e-05
7.1038933e-05
6.1524838e-05
5.4790177e-05
5.0442931e-05
4.8073591e-05
4.7268717e-05
4.7625657e-05
4.8766333e-05
5.0348539e-05
5.2074348e-05
5.3695593e-05
5.5016478e-05
5.5893465e-05
5.6232754e-05
5.5985821e-05
5.5143561e-05
5.3729553e-05
5.1792959e-05
4.9401481e-05
4.6634754e-05
4.3578413e-05
4.0319023e-05
3.693995e-05
3.3518218e-05
3.0122286e-05
2.6810692e-05
2.3631435e-05
2.0621992e-05
1.7809815e-05
1.5213194e-05
1.2842354e-05
1.0700695e-05
8.7860594e-06
7.0919875e-06
5.608912e-06
4.3251752e-06
3.2283624e-06
2.3050308e-06
1.546418e-06
9.337092e-07
4.9122699e-07
1.4472401e-07
8.17191e-08
0.00029410164
0.0002564683
0.00022230427
0.00019136314
0.00016373069
0.00013938083
0.00011829609
0.00010039081
8.5506288e-05
7.3429885e-05
6.390836e-05
5.6656028e-05
5.1363952e-05
4.7711368e-05
4.5377607e-05
4.4053039e-05
4.3448546e-05
4.3303264e-05
4.3390372e-05
4.3520742e-05
4.3544459e-05
4.3350372e-05
4.2863956e-05
4.204384e-05
4.0877381e-05
3.9375647e-05
3.7568202e-05
3.5497979e-05
3.3216492e-05
3.0779587e-05
2.8243822e-05
2.5663576e-05
2.3088851e-05
2.0563771e-05
1.8125688e-05
1.5804825e-05
1.3624351e-05
1.1600788e-05
9.744662e-06
8.0613019e-06
6.55172e-06
5.2135383e-06
4.0418207e-06
3.0302738e-06
2.1710175e-06
1.4597824e-06
8.8286023e-07
4.6404817e-07
1.3946253e-07
7.5531307e-08
0.00034871398
0.00031065966
0.00027527227
0.00024238289
0.00021214082
0.00018459936
0.0001598283
0.00013784385
0.00011860035
0.00010200314
8.7916659e-05
7.6168091e-05
6.6552334e-05
5.8839567e-05
5.2784116e-05
4.8133365e-05
4.4636309e-05
4.2051451e-05
4.0153719e-05
3.8740058e-05
3.7633496e-05
3.6685603e-05
3.5777399e-05
3.4818852e-05
3.3747165e-05
3.2524125e-05
3.1132778e-05
2.9573724e-05
2.7861287e-05
2.6019776e-05
2.4080022e-05
2.2076316e-05
2.0043827e-05
1.8016545e-05
1.6025741e-05
1.4098924e-05
1.2259232e-05
1.0525195e-05
8.9108097e-06
7.4258319e-06
6.0762426e-06
4.8648394e-06
3.7918228e-06
2.8557776e-06
2.0534538e-06
1.3842956e-06
8.3913966e-07
4.4085192e-07
1.3520231e-07
6.947781e-08
0.00040088609
0.00036328351
0.00032766327
0.00029391102
0.00026220138
0.00023263213
0.0002053237
0.0001803573
0.00015776528
0.00013753971
0.00011963676
0.00010397718
9.0447829e-05
7.8905806e-05
6.9184045e-05
6.1097548e-05
5.4449957e-05
4.9040221e-05
4.466911e-05
4.1145169e-05
3.8289848e-05
3.5941581e-05
3.3958726e-05
3.2221299e-05
3.0631575e-05
2.9113649e-05
2.7612119e-05
2.6090091e-05
2.4526716e-05
2.291446e-05
2.1256291e-05
1.9562954e-05
1.7850453e-05
1.613783e-05
1.44453e-05
1.2792772e-05
1.119874e-05
9.6795246e-06
8.2488366e-06
6.9175993e-06
5.6939903e-06
4.583674e-06
3.5901003e-06
2.7152095e-06
1.9591666e-06
1.3241862e-06
8.0478073e-07
4.2273503e-07
1.3209308e-07
6.3876078e-08
0.00044969477
0.00041314482
0.00037800837
0.00034421017
0.00031192576
0.0002812734
0.00025239754
0.00022541599
0.00020041014
0.00017743079
0.00015650023
0.00013761069
0.0001207236
0.00010577102
9.2658459e-05
8.1268468e-05
7.1464956e-05
6.3097967e-05
5.6008879e-05
5.003561e-05
4.501763e-05
4.0800483e-05
3.7239668e-05
3.4203713e-05
3.1576376e-05
2.9257939e-05
2.7165658e-05
2.523343e-05
2.341082e-05
2.1661592e-05
1.9961892e-05
1.8298242e-05
1.6665472e-05
1.5064725e-05
1.3501609e-05
1.1984568e-05
1.0523515e-05
9.1287378e-06
7.810083e-06
6.5763894e-06
5.4351568e-06
4.3924308e-06
3.4528061e-06
2.6198303e-06
1.8956365e-06
1.284097e-06
7.8233159e-07
4.1091478e-07
1.3059135e-07
5.8935861e-08
0.00049456877
0.00045945608
0.00042529397
0.00039203633
0.00035984524
0.00032884386
0.00029918278
0.00027099586
0.00024439143
0.00021945627
0.00019625632
0.00017483421
0.00015520724
0.00013736692
0.00012127978
0.00010688886
9.4115838e-05
8.2863974e-05
7.3021557e-05
6.4465819e-05
5.7067044e-05
5.0692661e-05
4.5211153e-05
4.0495577e-05
3.6426576e-05
3.2894768e-05
2.9802452e-05
2.7064641e-05
2.4609431e-05
2.23778e-05
2.0322908e-05
1.8409034e-05
1.6610243e-05
1.490891e-05
1.3294201e-05
1.1760591e-05
1.0306499e-05
8.9330758e-06
7.6431861e-06
6.4405906e-06
5.3293337e-06
4.3133405e-06
3.3961512e-06
2.5810359e-06
1.8704913e-06
1.2687915e-06
7.7447689e-07
4.0666651e-07
1.3129017e-07
5.4783196e-08
0.0005351913
0.00050173134
0.00046885169
0.00043652912
0.0004049049
0.00037409784
0.00034425336
0.00031550772
0.0002879804
0.00026177693
0.00023698896
0.00021369151
0.00019194039
0.00017177072
0.00015319643
0.00013621019
0.00012078398
0.0001068703
9.4404016e-05
8.3304844e-05
7.3480161e-05
6.4828175e-05
5.7241224e-05
5.060905e-05
4.4821918e-05
3.9773419e-05
3.5362868e-05
3.1497217e-05
2.8092442e-05
2.5074393e-05
2.2379154e-05
1.9952941e-05
1.7751633e-05
1.5740008e-05
1.3890776e-05
1.2183494e-05
1.0603435e-05
9.1405004e-06
7.7881861e-06
6.5426879e-06
5.4021367e-06
4.3660068e-06
3.4346457e-06
2.6091457e-06
1.8907052e-06
1.2826604e-06
7.8373349e-07
4.1118679e-07
1.3476427e-07
5.1476474e-08
0.00057142452
0.00053970198
0.00050826811
0.00047711878
0.00044637155
0.00041613601
0.00038654613
0.00035773213
0.00032981419
0.00030290454
0.00027710717
0.00025251532
0.00022920882
0.00020725218
0.00018669335
0.00016756277
0.00014987277
0.00013361759
0.00011877393
0.00010530201
9.3147204e-05
8.2242029e-05
7.2508534e-05
6.3860878e-05
5.6208038e-05
4.9456478e-05
4.3512692e-05
3.8285494e-05
3.3687984e-05
2.9639134e-05
2.6064948e-05
2.2899218e-05
2.0083877e-05
1.7568998e-05
1.5312498e-05
1.3279612e-05
1.1442192e-05
9.7779203e-06
8.2694761e-06
6.903723e-06
5.6709507e-06
4.5642184e-06
3.5787755e-06
2.7117679e-06
1.9614948e-06
1.3290205e-06
8.1202435e-07
4.2538722e-07
1.4144932e-07
4.9023915e-08
0.00060324473
0.00057324396
0.00054330538
0.0005134418
0.00048374692
0.00045431919
0.00042527829
0.00039674387
0.00036883053
0.00034164933
0.00031530747
0.00028990609
0.00026553785
0.00024228505
0.00022021803
0.00019939376
0.00017985469
0.00016162788
0.00014472462
0.0001291405
0.00011485591
0.00010183697
9.0036925e-05
7.9397852e-05
6.9852641e-05
6.1327175e-05
5.3742589e-05
4.7017502e-05
4.107015e-05
3.5820309e-05
3.1190964e-05
2.7109668e-05
2.3509566e-05
2.033009e-05
1.7517332e-05
1.5024128e-05
1.2809908e-05
1.0840344e-05
9.086873e-06
7.5261235e-06
6.1393146e-06
4.9116684e-06
3.8318375e-06
2.8915389e-06
2.0847739e-06
1.4091185e-06
8.6008256e-07
4.4959655e-07
1.5152758e-07
4.7395856e-08
0.00063069946
0.00060232814
0.00057384554
0.00054528035
0.00051670381
0.00048820304
0.00045988294
0.00043185078
0.00040421238
0.00037707315
0.0003505377
0.00032470818
0.00029968218
0.00027555104
0.00025239821
0.00023029779
0.00020931294
0.00018949477
0.00017088124
0.00015349657
0.00013735091
0.0001224404
0.00010874768
9.6242696e-05
8.4883914e-05
7.4619798e-05
6.5390535e-05
5.7129911e-05
4.9767258e-05
4.3229386e-05
3.7442434e-05
3.2333547e-05
2.7832359e-05
2.3872201e-05
2.0391057e-05
1.7332224e-05
1.4644725e-05
1.2283468e-05
1.0209208e-05
8.3883385e-06
6.7925715e-06
5.3985408e-06
4.1873484e-06
3.1442386e-06
2.2578454e-06
1.5212834e-06
9.2695177e-07
4.8331978e-07
1.6486406e-07
4.6533816e-08
0.00065384295
0.00062694845
0.00059981184
0.00057247719
0.00054499545
0.00051744337
0.00048991204
0.0004624964
0.00043529242
0.00040839775
0.00038191138
0.00035593235
0.00033055807
0.00030588292
0.00028199673
0.00025898335
0.00023691909
0.00021587134
0.00019589727