/*--------------------------------*- C++ -*----------------------------------*\
  =========                 |
  \\      /  F ield         | OpenFOAM: The Open Source CFD Toolbox
   \\    /   O peration     | Website:  https://openfoam.org
    \\  /    A nd           | Version:  6
     \\/     M anipulation  |
\*---------------------------------------------------------------------------*/
FoamFile
{
    version     2.0;
    format      ascii;
    class       surfaceScalarField;
    location    "76";
    object      phi;
}
// * * * * * * * * * * * * * * * * * * * * * * * * * * * * * * * * * * * * * //

dimensions      [0 3 -1 0 0 0 0];

internalField   nonuniform List<scalar> 
18180
(
0.00031890553
-0.00016351015
-0.00015539537
0.001309917
-0.0013683498
0.00037733835
0.0030344978
-0.0033365246
0.0016119439
0.0055526837
-0.0059807041
0.0034625181
0.008922821
-0.009246023
0.0058758857
0.013199574
-0.013089016
0.0088122625
0.018431264
-0.017472196
0.012240507
0.02465689
-0.022361324
0.016135697
0.031902982
-0.027722273
0.020476181
0.040180518
-0.033518413
0.025240878
0.049482236
-0.039708854
0.030407137
0.059780709
-0.046247525
0.035949052
0.07102758
-0.05308308
0.041836208
0.083154424
-0.060159665
0.048032821
0.096075836
-0.067418624
0.054497212
0.10969528
-0.074801269
0.061181829
0.1239131
-0.082252558
0.068034735
0.13864179
-0.089725397
0.074996708
0.15387974
-0.097202604
0.081964652
-0.10468179
0.088736177
0.16982536
0.00039769786
-0.000561208
0.0016103891
-0.002581041
0.0036911102
-0.0054172458
0.0066906469
-0.0089802408
0.010655681
-0.013211057
0.015625126
-0.018058461
0.021626113
-0.023473183
0.028670025
-0.029405236
0.03674886
-0.035801109
0.045832335
-0.042601888
0.055866146
-0.049742665
0.066771764
-0.057153143
0.078447992
-0.064759307
0.090774372
-0.072486046
0.10361625
-0.080260502
0.11683087
-0.088015891
0.13027359
-0.095695271
0.14380462
-0.10325643
0.15728802
-0.110686
-0.11791452
0.17052074
0.00048084756
-0.0010420555
0.0019195708
-0.0040197643
0.0043544216
-0.0078520966
0.0078199897
-0.012445809
0.012342966
-0.017734033
0.017936733
-0.023652228
0.024596285
-0.030132735
0.032293946
-0.037102898
0.040976349
-0.044483511
0.05056313
-0.052188669
0.060947744
-0.060127279
0.07200055
-0.068205949
0.083574048
-0.076332806
0.095509862
-0.08442186
0.10764672
-0.092397362
0.11982838
-0.10019755
0.13191031
-0.10777719
0.14376307
-0.1151092
0.15526477
-0.12218769
-0.12896269
0.16631294
0.00056641444
-0.00160847
0.0022288776
-0.0056822274
0.005002661
-0.01062588
0.0088975683
-0.016340716
0.013910667
-0.022747132
0.020019412
-0.029760973
0.027176308
-0.037289631
0.035305569
-0.045232159
0.044302235
-0.053480177
0.054034111
-0.061920545
0.06434658
-0.070439749
0.075069937
-0.078929306
0.086028574
-0.087291442
0.097051002
-0.095444288
0.10797959
-0.10332595
0.11867889
-0.11089685
0.12904163
-0.11813992
0.13899131
-0.12505888
0.14847908
-0.13167546
-0.13798902
0.15750541
0.00065114686
-0.0022596168
0.0025253169
-0.0075563974
0.0056057342
-0.013706297
0.0098680415
-0.020603023
0.015269937
-0.028149027
0.021743652
-0.036234688
0.029191675
-0.044737653
0.037485923
-0.053526407
0.04647059
-0.062464844
0.055968552
-0.071418507
0.065790702
-0.080261898
0.07574716
-0.088885765
0.085659002
-0.097203284
0.09536906
-0.10515435
0.10475053
-0.11270742
0.11371251
-0.11985884
0.12220215
-0.12662956
0.13020338
-0.13306011
0.13773254
-0.13920463
-0.14510694
0.14485046
0.00073090558
-0.0029905224
0.0027930731
-0.009618565
0.006128656
-0.01704188
0.010670181
-0.025144548
0.016327689
-0.033806535
0.022981901
-0.042888901
0.030482605
-0.052238357
0.038651831
-0.061695633
0.047291465
-0.071104478
0.05619431
-0.080321353
0.065157126
-0.089224714
0.073993815
-0.097722454
0.08254699
-0.10575646
0.09069646
-0.11330382
0.09836371
-0.12037467
0.10551221
-0.12700734
0.11214402
-0.13326137
0.11829374
-0.13920983
0.12402094
-0.14493184
-0.15049859
0.1294126
0.00080100185
-0.0037915242
0.0030148818
-0.011832445
0.0065348838
-0.020561882
0.011243281
-0.029852946
0.01699725
-0.039560504
0.023624352
-0.049516003
0.030925049
-0.059539055
0.038680804
-0.069451387
0.046666407
-0.079090081
0.054664591
-0.088319536
0.06248058
-0.097040703
0.069954384
-0.10519626
0.076969131
-0.11277121
0.083454529
-0.11978921
0.08938543
-0.12630558
0.094776267
-0.13239817
0.099672736
-0.13815784
0.10414233
-0.14367943
0.10826533
-0.14905483
-0.15436526
0.11213199
0.00085632104
-0.0046478453
0.0031729706
-0.014149094
0.006789049
-0.024177961
0.01153267
-0.034596567
0.017207327
-0.04523516
0.02359129
-0.055899966
0.030445139
-0.066392904
0.037524663
-0.076530911
0.044596666
-0.086162084
0.051454825
-0.095177696
0.057932843
-0.10351872
0.063912866
-0.11117628
0.069328192
-0.11818653
0.074160382
-0.1246214
0.078431876
-0.13057707
0.082195775
-0.13616207
0.085524715
-0.14148678
0.088500553
-0.14665526
0.091206154
-0.15176044
-0.15688057
0.093721463
0.00089050628
-0.0055383515
0.0032491028
-0.016507691
0.0068592106
-0.027788068
0.011494865
-0.039232221
0.016909908
-0.050650204
0.022842428
-0.061832485
0.029027243
-0.072577719
0.03521238
-0.082716048
0.041176088
-0.092125792
0.046741067
-0.10074268
0.051783372
-0.10856103
0.056234788
-0.1156277
0.060078905
-0.12203065
0.06334222
-0.12788472
0.066082303
-0.13331715
0.068375237
-0.13845501
0.070304213
-0.14341575
0.071950666
-0.14830172
0.073388524
-0.15319829
-0.1581734
0.074681356
0.00090003454
-0.006438386
0.0032340805
-0.018841737
0.0067304633
-0.031284451
0.011113034
-0.043614791
0.016094705
-0.055631876
0.021386879
-0.067124658
0.02671575
-0.07790659
0.031840114
-0.087840413
0.036566739
-0.096852418
0.040760149
-0.10493609
0.044345222
-0.1121461
0.047302711
-0.11858519
0.04965922
-0.12438716
0.051474004
-0.1296995
0.052825076
-0.13466822
0.053796753
-0.13942668
0.054470064
-0.14408906
0.054916625
-0.14874828
0.055195822
-0.15347749
0.055353719
-0.1583313
-0.00020248407
0.0002024845
-4.1563146e-10
-0.00067808497
0.00047560129
-3.7567529e-10
-0.0013430718
0.00066498718
-2.936669e-10
-0.0021332844
0.00079021287
-2.8281768e-10
-0.0029971137
0.00086382959
-2.9582624e-10
-0.003892412
0.00089529859
-3.1667288e-10
-0.0047842571
0.00089184546
-3.3639682e-10
-0.005643082
0.00085882529
-3.5730167e-10
-0.0064432031
0.00080012146
-3.7565543e-10
-0.0071616682
0.00071846548
-3.950744e-10
-0.0077773375
0.00061566968
-4.1273559e-10
-0.0082701475
0.0004928104
-4.3156174e-10
-0.0086205307
0.0003503837
-4.4950882e-10
-0.008808982
0.00018845167
-4.6844871e-10
-0.0088158021
6.8206418e-06
-4.8752362e-10
-0.0086211222
-0.00019467944
-5.0701382e-10
-0.0082051668
-0.00041595488
-5.2701591e-10
-0.0075478487
-0.00065731758
-5.4650095e-10
-0.0066283622
-0.00091948602
-5.6775253e-10
-0.0011888494
-0.0054395122
-5.8974999e-10
-0.00018806756
0.00039055207
-0.00062530101
0.00091283475
-0.0012293058
0.001268992
-0.0019360251
0.0014969322
-0.0026932357
0.0016210402
-0.0034576069
0.0016596698
-0.0041925521
0.0016267906
-0.0048664178
0.0015326909
-0.0054510449
0.0013847486
-0.0059206329
0.0011880535
-0.0062508232
0.00094586
-0.006417957
0.00065994415
-0.0063984694
0.00033089613
-0.0061684102
-4.160757e-05
-0.0057031177
-0.00045847183
-0.0049771386
-0.00092065858
-0.0039644432
-0.0014286503
-0.0026383464
-0.0019834144
-0.00097135735
-0.0025864751
-0.0032080035
0.0010477967
-0.00015899666
0.00054954874
-0.00051910028
0.0012729384
-0.0010011438
0.0017510355
-0.0015417851
0.0020375735
-0.0020879814
0.0021672364
-0.0025943956
0.002166084
-0.0030214512
0.0020538462
-0.0033336633
0.001844903
-0.0034982921
0.0015493773
-0.0034842657
0.0011740271
-0.0032612961
0.0007228904
-0.0027991581
0.00019780611
-0.0020670552
-0.00040120678
-0.0010331055
-0.0010755573
0.0003360886
-0.0018276659
0.0020757172
-0.0026602872
0.0042227237
-0.0035756569
0.0068154983
-0.004576189
0.0098938079
-0.0056647846
-0.0067912011
0.013477005
-0.00011760344
0.00066715218
-0.00036709307
0.001522428
-0.00067364628
0.0020575887
-0.00097493918
0.0023388664
-0.0012168561
0.0024091533
-0.0013513578
0.0023005858
-0.0013348234
0.0020373118
-0.0011265941
0.0016366738
-0.00068777636
0.0011105596
1.9711363e-05
0.00046653939
0.001033923
-0.00029132129
0.0023935324
-0.0011618033
0.0041383785
-0.0021460529
0.0063099471
-0.0032471259
0.0089518772
-0.004469596
0.012110518
-0.0058189281
0.015835304
-0.0073004432
0.020178456
-0.0089193402
0.025194763
-0.010681092
-0.012511121
0.030914683
-6.6907989e-05
0.00073406017
-0.00017913138
0.0016346514
-0.00026639071
0.002144848
-0.00026733138
0.0023398071
-0.00012647122
0.0022682931
0.00020743692
0.0019666776
0.00078273439
0.0014620143
0.0016460267
0.00077338141
0.002843154
-8.6567672e-05
0.0044199766
-0.0011102832
0.0064229392
-0.0022942839
0.0088994867
-0.0036383508
0.011898389
-0.0051449556
0.015470072
-0.0068188087
0.019666988
-0.0086665114
0.024544235
-0.010696175
0.030160437
-0.012916646
0.036578253
-0.015337156
0.043865142
-0.017967981
-0.020709488
0.052063508
-9.9488505e-06
0.00074400901
3.4702325e-05
0.0015900002
0.00020031755
0.0019792328
0.00054761726
0.0019925074
0.001133725
0.0016821854
0.002013328
0.0010870746
0.0032396416
0.00023570074
0.0048652921
-0.00085226911
0.0069429744
-0.0021642499
0.0095258255
-0.0036931344
0.012667633
-0.0054360914
0.016422938
-0.0073936562
0.020846962
-0.0095689797
0.025995442
-0.011967288
0.03192453
-0.0145956
0.038691092
-0.017462737
0.046353888
-0.020579441
0.05497563
-0.023958899
0.064626824
-0.027619174
-0.031441546
0.075358882
5.0820589e-05
0.00069318842
0.00026595062
0.0013748702
0.00070895488
0.0015362285
0.0014403572
0.001261105
0.0025190304
0.0006035122
0.0040029577
-0.0003968527
0.0059498287
-0.0017111703
0.0084174273
-0.0033198678
0.011463761
-0.0052105841
0.015147031
-0.0073764037
0.019525357
-0.0098144179
0.024656255
-0.012524554
0.030595894
-0.015508619
0.037398198
-0.018769592
0.045113907
-0.022311308
0.053790028
-0.026138859
0.063470646
-0.030260058
0.074200307
-0.03468856
0.086032967
-0.039451835
-0.044432901
0.099024322
0.0001138954
0.00057929301
0.00050891055
0.00097985499
0.0012469343
0.00079820473
0.0023885442
0.0001194951
0.0039941288
-0.0010020724
0.0061242313
-0.0025269551
0.0088395285
-0.0044264675
0.012200653
-0.0066809927
0.016267788
-0.0092777185
0.021099914
-0.01220853
0.026753777
-0.01546828
0.033282549
-0.019053327
0.040734247
-0.022960316
0.049149913
-0.027185259
0.058561723
-0.031723118
0.068991351
-0.036568486
0.080449787
-0.041718494
0.092940448
-0.047179221
0.10647067
-0.052982061
-0.059046839
0.12108461
0.0001786212
0.00040067181
0.00076053939
0.00039793679
0.0018065173
-0.00024777317
0.0033768763
-0.0014508639
0.0055324907
-0.0031576868
0.0083345293
-0.0053289938
0.011843829
-0.007935767
0.016119968
-0.010957132
0.021219984
-0.014377735
0.027196749
-0.018185295
0.034097035
-0.022368566
0.04195931
-0.026915602
0.050811309
-0.031812315
0.060667391
-0.037041341
0.071525689
-0.042581416
0.083365097
-0.048407895
0.096143069
-0.054496467
0.10979695
-0.060833107
0.12425747
-0.067442577
-0.074330083
0.13954071
0.00024527644
0.0010205516
0.0023847223
0.0043963765
0.0071145754
0.010597844
0.014902584
0.02008115
0.026179595
0.033235178
0.041273749
0.050307199
0.060331092
0.071322572
0.083238368
0.096012303
0.10955057
0.12371417
0.13823625
0.15264234
-0.003495734
-0.0019437774
-8.2110412e-10
-0.0012703422
-0.002225391
-8.4517266e-10
0.0012143582
-0.0024846996
-8.6258153e-10
0.0039014457
-0.0026870866
-8.7029614e-10
0.0067641255
-0.0028626789
-8.6919768e-10
0.0097851137
-0.0030209873
-8.5009135e-10
0.012945493
-0.003160379
-8.1967402e-10
0.016227258
-0.0032817638
-7.7277601e-10
0.019614723
-0.0033874645
-7.1016179e-10
0.023093689
-0.0034789653
-6.3267245e-10
0.026650889
-0.0035571993
-5.4051827e-10
0.030273919
-0.0036230296
-4.332282e-10
0.033951159
-0.0036772396
-3.1018107e-10
0.037671637
-0.0037204782
-1.6993092e-10
0.04142493
-0.0037532931
-1.1867591e-11
0.045201097
-0.0037761668
1.6571787e-10
0.048990631
-0.0037895341
3.621906e-10
0.052784426
-0.0037937961
5.7826351e-10
0.056573759
-0.003789334
8.1038137e-10
0.06035028
-0.0037765213
1.0560588e-09
0.064106011
-0.0037557323
1.305502e-09
0.067833357
-0.0037273485
1.5499229e-09
0.071525118
-0.0036917628
1.7702166e-09
0.075174498
-0.0036493816
1.9503566e-09
0.078775121
-0.0036006251
2.0620071e-09
0.082321045
-0.0035459262
2.0857922e-09
0.085806772
-0.0034857288
1.9898806e-09
0.089227255
-0.003420485
1.7630283e-09
0.092577905
-0.0033506514
1.3827939e-09
0.09585459
-0.0032766861
8.645232e-10
0.099053636
-0.0031990458
2.120261e-10
0.10217182
-0.0031181823
-5.1292289e-10
0.10520636
-0.0030345406
-1.2697698e-09
0.10815492
-0.0029485572
-1.9436571e-09
0.11101558
-0.0028606595
-2.4715885e-09
0.11378685
-0.0027712668
-2.7107175e-09
0.11646765
-0.0026807919
-2.6351382e-09
0.11905729
-0.0025896445
-2.1439874e-09
0.12155553
-0.0024982415
-1.3511466e-09
0.12396254
-0.0024070067
-2.9705206e-10
0.12627896
-0.0023164227
6.8019072e-10
0.1285059
-0.0022269413
1.3085474e-09
0.13064532
-0.0021394205
1.1466395e-09
0.13269925
-0.0020539232
-1.1238819e-10
0.13467332
-0.0019740684
-2.678772e-09
0.13656713
-0.0018938081
-6.515991e-09
0.13840873
-0.0018415902
-1.103025e-08
0.14015318
-0.0017444282
-1.5127152e-08
0.14201234
-0.0018591411
-1.861629e-08
-0.0015334653
-1.2077047e-08
0.0028716911
-0.0037676717
0.0049725377
-0.0043262376
0.007319557
-0.0048317189
0.0098502829
-0.0052178125
0.012543663
-0.0055560588
0.015387396
-0.0058647209
0.018364762
-0.0061377446
0.021459369
-0.0063763713
0.024657218
-0.0065853133
0.027945566
-0.0067673128
0.031312301
-0.0069239345
0.034745964
-0.0070566932
0.038235723
-0.0071669985
0.041771257
-0.0072560122
0.045342677
-0.0073247128
0.048940481
-0.0073739705
0.052555524
-0.007404578
0.056179003
-0.0074172746
0.059802441
-0.0074127719
0.063417694
-0.007391775
0.06701696
-0.0073549983
0.070592788
-0.0073031763
0.074138096
-0.0072370707
0.077646188
-0.0071574733
0.081110769
-0.0070652065
0.084525963
-0.0069611202
0.087886322
-0.0068460874
0.091186835
-0.0067209986
0.094422939
-0.006586755
0.097590514
-0.0064442616
0.10068589
-0.006294421
0.10370583
-0.0061381272
0.10664756
-0.0059762614
0.10950869
-0.0058096888
0.11228728
-0.0056392571
0.11498182
-0.0054657986
0.11759116
-0.0052901339
0.12011459
-0.0051130786
0.12255181
-0.0049354631
0.12490294
-0.0047581327
0.12716857
-0.004582052
0.12934975
-0.004408124
0.13144839
-0.0042380634
0.13346647
-0.0040720002
0.13540955
-0.0039171442
0.13727723
-0.0037614902
0.13909712
-0.0036614824
0.14082527
-0.0034725714
0.1426685
-0.0037023804
-0.0030643329
0.015051825
-0.0053424909
0.016886765
-0.0061611782
0.018944551
-0.0068895048
0.021155236
-0.0074284972
0.023507197
-0.0079080202
0.025996811
-0.0083543345
0.02861148
-0.0087524138
0.031337742
-0.0091026337
0.034164517
-0.0094120883
0.037081597
-0.0096843922
0.040078882
-0.0099212201
0.043146537
-0.010124348
0.046275063
-0.010295524
0.049455231
-0.01043618
0.052678042
-0.010547524
0.055934718
-0.010630647
0.059216706
-0.010686566
0.062515684
-0.010716253
0.065823576
-0.010720663
0.069132567
-0.010700766
0.072435127
-0.010657558
0.075724033
-0.010592083
0.078992394
-0.010505432
0.082233671
-0.01039875
0.085441699
-0.010273235
0.088610706
-0.010130127
0.091735326
-0.0099707074
0.094810613
-0.0097962849
0.097832043
-0.0096081856
0.10079553
-0.0094077453
0.1036974
-0.0091962957
0.10653443
-0.0089751587
0.10930381
-0.0087456384
0.11200314
-0.0085090163
0.11463043
-0.0082665506
0.11718411
-0.0080194768
0.11966299
-0.007769016
0.1220663
-0.0075163839
0.12439365
-0.0072628198
0.12664511
-0.0070095882
0.12882119
-0.0067581338
0.13092288
-0.0065098117
0.132952
-0.0062671889
0.13491048
-0.0060304801
0.13680374
-0.0058104043
0.1386315
-0.0055892455
0.14042041
-0.0054503945
0.14212883
-0.005180991
0.14395312
-0.0055266708
-0.0046034028
0.032101649
-0.0065294571
0.033520799
-0.0075803275
0.035130588
-0.0084992945
0.036858046
-0.0091559544
0.038703875
-0.0097538494
0.040674402
-0.010324862
0.042762479
-0.010840491
0.044958605
-0.011298759
0.047255223
-0.011708707
0.04964513
-0.012074299
0.052120642
-0.012396732
0.05467383
-0.012677536
0.057296708
-0.012918402
0.059981265
-0.013120737
0.062719469
-0.013285728
0.065503311
-0.013414489
0.068324848
-0.013508103
0.071176245
-0.01356765
0.074049816
-0.013594235
0.076938062
-0.013589012
0.07983371
-0.013553206
0.082729745
-0.013488118
0.085619446
-0.013395134
0.088496418
-0.013275721
0.091354608
-0.013131425
0.094188337
-0.012963856
0.096992312
-0.012774683
0.09976164
-0.012565613
0.10249184
-0.012338382
0.10517883
-0.01209474
0.10781897
-0.011836435
0.11040901
-0.011565202
0.11294613
-0.011282756
0.1154279
-0.010990785
0.1178523
-0.010690946
0.12021769
-0.010384871
0.12252285
-0.010074174
0.12476693
-0.0097604672
0.12694951
-0.0094453945
0.12907056
-0.0091306391
0.13113055
-0.0088181253
0.1331304
-0.0085096636
0.13507188
-0.0082086672
0.13695686
-0.0079154639
0.13879062
-0.0076441599
0.14057307
-0.0073717014
0.14232954
-0.00720686
0.14402184
-0.0068732948
0.14583119
-0.007336019
-0.0061667025
0.052707541
-0.0071734894
0.053552078
-0.0084248653
0.054550396
-0.009497612
0.055636841
-0.0102424
0.056826262
-0.01094327
0.058132977
-0.011631576
0.059555521
-0.012263036
0.061089051
-0.012832289
0.06272938
-0.013349035
0.064471934
-0.013816854
0.066311219
-0.014236018
0.068240993
-0.014607309
0.070254519
-0.014931929
0.072344727
-0.015210945
0.074504302
-0.015445303
0.076725767
-0.015635954
0.07900157
-0.015783906
0.081324159
-0.015890239
0.083686054
-0.01595613
0.086079907
-0.015982864
0.088498549
-0.015971848
0.090935047
-0.015924616
0.093382736
-0.015842823
0.095835261
-0.015728246
0.098286602
-0.015582766
0.1007311
-0.015408355
0.10316348
-0.015207061
0.10557885
-0.014980985
0.10797274
-0.014732268
0.11034107
-0.014463068
0.11268017
-0.014175542
0.11498681
-0.013871835
0.11725812
-0.013554071
0.11949167
-0.013224334
0.12168541
-0.012884681
0.12383767
-0.012537138
0.12594721
-0.01218371
0.12801314
-0.011826402
0.13003502
-0.011467268
0.13201279
-0.011108409
0.1339469
-0.010752235
0.13583825
-0.010401018
0.13768859
-0.010059011
0.13949982
-0.0097266925
0.14127707
-0.0094214022
0.14302059
-0.0091152217
0.14475405
-0.0089403202
0.14644372
-0.0085629709
0.14825203
-0.0091443264
-0.0077776062
0.07529144
-0.0071060473
0.075400166
-0.0085335915
0.075628493
-0.0097259383
0.075932994
-0.010546901
0.076341747
-0.011352023
0.076871624
-0.012161454
0.077525684
-0.012917096
0.078303883
-0.013610488
0.079204556
-0.014249708
0.080224579
-0.014836876
0.081359735
-0.015371174
0.082604756
-0.015852331
0.083953488
-0.01628066
0.085399181
-0.016656638
0.086934693
-0.016980814
0.088552606
-0.017253868
0.090245343
-0.017476642
0.092005268
-0.017650164
0.093824786
-0.017775648
0.095696414
-0.017854492
0.097612845
-0.017888279
0.099567005
-0.017878775
0.1015521
-0.017827919
0.10356166
-0.017737801
0.10558954
-0.017610655
0.10763001
-0.017448826
0.10967771
-0.017254756
0.11172768
-0.017030955
0.11377539
-0.016779979
0.11581673
-0.016504405
0.117848
-0.016206812
0.11986593
-0.015889765
0.12186765
-0.015555798
0.12385073
-0.015207409
0.1258131
-0.014847057
0.12775313
-0.014477168
0.12966957
-0.014100147
0.13156157
-0.013718401
0.1334287
-0.013334398
0.13527096
-0.012950672
0.13708885
-0.012570121
0.13888332
-0.012195494
0.14065619
-0.011831879
0.14240945
-0.011479952
0.14414816
-0.011160109
0.14587304
-0.010840105
0.14760595
-0.01067323
0.14931835
-0.010275365
0.15115142
-0.0109774
-0.0094683291
0.098100494
-0.0061822194
0.097336606
-0.0077697029
0.09666388
-0.0090532122
0.096083247
-0.009966269
0.095630877
-0.010899653
0.095318019
-0.011848596
0.095150061
-0.012749138
0.095131032
-0.013591459
0.095260492
-0.014379168
0.095535201
-0.015111586
0.095950826
-0.015786798
0.096501984
-0.016403488
0.09718222
-0.016960896
0.097984331
-0.017458749
0.098900668
-0.017897151
0.099923294
-0.018276494
0.10104411
-0.018597462
0.10225499
-0.018861037
0.10354783
-0.019068494
0.10491471
-0.019221373
0.10634791
-0.019321474
0.10783996
-0.01937083
0.10938374
-0.0193717
0.11097248
-0.019326535
0.11259978
-0.019237954
0.11425967
-0.019108721
0.11594662
-0.018941704
0.11765553
-0.018739859
0.11938174
-0.018506189
0.12112105
-0.018243722
0.12286973
-0.017955488
0.12462446
-0.017644495
0.12638238
-0.017313716
0.12814105
-0.016966081
0.12989847
-0.016604474
0.13165304
-0.01623174
0.13340359
-0.015850701
0.13514938
-0.015464186
0.13689008
-0.015075095
0.13862581
-0.014686406
0.14035721
-0.014301526
0.14208542
-0.013923697
0.14381239
-0.013558847
0.14554032
-0.013207891
0.14727432
-0.012894108
0.14901571
-0.012581488
0.15078447
-0.012441993
0.15255773
-0.01204862
0.15445427
-0.012873948
-0.011280646
0.11926357
-0.0043611739
0.11757382
-0.0060799568
0.11593738
-0.007416773
0.11443818
-0.0084670686
0.11311248
-0.0095739501
0.1119578
-0.010693918
0.11097964
-0.011770972
0.11018429
-0.01279611
0.10957119
-0.013766072
0.10913578
-0.014676175
0.10887227
-0.015523287
0.10877402
-0.016305242
0.10883347
-0.017020347
0.10904234
-0.017667619
0.10939194
-0.018246747
0.10987335
-0.01875791
0.1104776
-0.019201708
0.11119571
-0.019579151
0.11201886
-0.019891639
0.11293841
-0.020140923
0.11394601
-0.020329079
0.11503366
-0.020458479
0.11619372
-0.020531761
0.11741898
-0.020551795
0.11870268
-0.020521652
0.12003852
-0.020444561
0.1214207
-0.020323882
0.1228439
-0.020163063
0.12430332
-0.019965606
0.12579464
-0.019735038
0.12731403
-0.019474882
0.12885817
-0.019188633
0.1304242
-0.018879744
0.13200972
-0.01855161
0.13361283
-0.018207576
0.13523202
-0.017850936
0.13686628
-0.017484962
0.13851503
-0.017112929
0.14017813
-0.016738197
0.14185594
-0.016364216
0.14354934
-0.015994925
0.14525972
-0.015634081
0.14698934
-0.015288462
0.14874072
-0.014959271
0.15051911
-0.014672499
0.15232654
-0.01438892
0.15418122
-0.014296678
0.15606616
-0.013933556
0.15807764
-0.014885434
-0.013265767
0.13696372
-0.0017841816
0.13444802
-0.0035642517
0.13189203
-0.0048607862
0.12953781
-0.0061128535
0.12741257
-0.007448701
0.12549768
-0.0087790294
0.123796
-0.010069295
0.12231264
-0.011312752
0.12104608
-0.012499506
0.11999055
-0.013620653
0.1191386
-0.014671332
0.11848189
-0.015648532
0.11801146
-0.016549917
0.11771781
-0.01737397
0.11759111
-0.018120045
0.11762138
-0.018788179
0.11779864
-0.019378968
0.11811301
-0.019893525
0.11855481
-0.020333443
0.11911464
-0.020700752
0.11978344
-0.020997873
0.12055254
-0.021227579
0.12141374
-0.021392958
0.1223593
-0.021497365
0.12338204
-0.021544386
0.12447527
-0.02153779
0.12563287
-0.021481486
0.12684929
-0.021379479
0.12811951
-0.021235834
0.12943911
-0.021054635
0.13080418
-0.020839955
0.13221138
-0.020595832
0.13365789
-0.020326245
0.13514138
-0.020035108
0.13666008
-0.019726269
0.13821266
-0.019403516
0.1397983
-0.019070609
0.14141668
-0.018731308
0.14306795
-0.018389468
0.14475278
-0.018049046
0.1464724
-0.017714542
0.14822858
-0.017390261
0.15002397
-0.017083846
0.15186153
-0.016796834
0.1537468
-0.016557773
0.15568263
-0.016324745
0.15768555
-0.016299597
0.15974456
-0.015992567
0.16193384
-0.01707472
-0.015483371
0.15010809
0.00075007093
0.14682099
-0.000277151
0.14352583
-0.0015656336
0.14048048
-0.0030674953
0.13768823
-0.0046564554
0.13514286
-0.0062336619
0.13284624
-0.007772668
0.13079845
-0.00926497
0.1289971
-0.01069815
0.12743699
-0.012060547
0.12611034
-0.013344676
0.12500775
-0.014545949
0.12411909
-0.015661258
0.12343373
-0.016688606
0.12294071
-0.017627027
0.12262896
-0.018476429
0.12248745
-0.019237452
0.12250529
-0.019911371
0.12267189
-0.020500039
0.12297697
-0.021005828
0.12341067
-0.021431575
0.12396362
-0.021780527
0.12462695
-0.022056297
0.12539239
-0.022262802
0.12625223
-0.02240422
0.12719937
-0.022484932
0.12822736
-0.022509476
0.12933037
-0.022482488
0.1305032
-0.022408669
0.1317413
-0.02229273
0.13304071
-0.022139364
0.13439809
-0.021953212
0.13581069
-0.021738844
0.13727633
-0.02150075
0.13879339
-0.021243335
0.14036081
-0.020970932
0.14197804
-0.020687835
0.14364506
-0.020398336
0.14536242
-0.020106823
0.14713117
-0.019817799
0.14895299
-0.019536363
0.15083012
-0.019267393
0.15276571
-0.019019436
0.15476324
-0.018794364
0.1568287
-0.018623232
0.15896561
-0.018461655
0.16118957
-0.018523553
0.16349364
-0.018296643
0.16593586
-0.019516933
-0.017997358
0.18899291
0.0053486072
-0.19359145
0.18518632
0.0035294407
0.18179782
0.001822864
0.17865641
7.3920112e-05
0.17572473
-0.0017247733
0.17297776
-0.003486692
0.1703973
-0.0051922095
0.16797438
-0.0068420514
0.16570514
-0.008428911
0.16358745
-0.0099428534
0.16161946
-0.011376693
0.15979911
-0.012725592
0.15812376
-0.013985912
0.15659017
-0.015155011
0.15519443
-0.016231294
0.15393213
-0.017214124
0.15279836
-0.018103687
0.15178788
-0.018900892
0.15089516
-0.019607314
0.15011446
-0.02022513
0.14943994
-0.020757061
0.14886572
-0.021206306
0.14838592
-0.021576492
0.14799472
-0.021871608
0.14768645
-0.02209595
0.14745558
-0.022254062
0.14729678
-0.022350677
0.14720496
-0.02239066
0.14717525
-0.022378964
0.14720309
-0.02232057
0.14728418
-0.022220458
0.14741454
-0.022083568
0.14759047
-0.021914779
0.14780862
-0.021718892
0.14806591
-0.021500631
0.14835963
-0.021264654
0.14868738
-0.021015583
0.14904709
-0.020758047
0.14943706
-0.020496788
0.14985593
-0.02023667
0.15030277
-0.019983207
0.15077706
-0.019741676
0.15127887
-0.019521245
0.15180857
-0.019324065
0.15236813
-0.019182797
0.1529581
-0.019051621
0.15358643
-0.019151881
0.15424554
-0.018955759
0.15497421
-0.020245606
-0.018740941
0.21693899
0.0087434077
-0.22033379
0.2134688
0.0069996295
0.21025974
0.0050319332
0.20715832
0.0031753346
0.20411578
0.0013177637
0.20116309
-0.00053399929
0.19831715
-0.0023462655
0.19558249
-0.0041073906
0.19296503
-0.0058114547
0.19047163
-0.007449457
0.18810752
-0.0090125828
0.18587613
-0.010494194
0.18377946
-0.011889251
0.18181827
-0.013193819
0.17999205
-0.01440507
0.17829921
-0.015521281
0.17673724
-0.01654172
0.17530288
-0.017466529
0.17399222
-0.018296654
0.17280086
-0.01903377
0.17172401
-0.019680212
0.1707566
-0.020238903
0.16989339
-0.02071328
0.16912902
-0.021107234
0.1684581
-0.021425032
0.16787529
-0.021671256
0.16737535
-0.021850732
0.16695316
-0.021968471
0.1666038
-0.022029605
0.16632257
-0.022039338
0.16610501
-0.022002895
0.16594692
-0.021925485
0.16584442
-0.021812275
0.1657939
-0.021668369
0.16579207
-0.021498805
0.16583599
-0.021308567
0.16592302
-0.021102613
0.16605089
-0.020885918
0.16621768
-0.020663587
0.16642188
-0.020440867
0.16666236
-0.020223687
0.16693846
-0.020017777
0.16725004
-0.019832824
0.16759756
-0.019671582
0.16798213
-0.019567373
0.16840598
-0.019475462
0.16887111
-0.01961701
0.16938414
-0.019468793
0.16993913
-0.020800599
-0.019369855
0.24384242
0.01146403
-0.24656304
0.2409955
0.0098465457
0.23814589
0.0078815462
0.2353027
0.0060185268
0.23242888
0.0041915862
0.22954523
0.0023496427
0.22668299
0.00051597372
0.22386148
-0.0012858712
0.22109661
-0.0030465942
0.21840437
-0.0047572117
0.21579862
-0.006406835
0.2132904
-0.0079859691
0.21088834
-0.0094871907
0.20859903
-0.010904514
0.20642715
-0.012233188
0.20437561
-0.013469745
0.20244582
-0.014611926
0.20063786
-0.015658566
0.19895069
-0.016609487
0.19738234
-0.017465424
0.19593006
-0.018227932
0.19459047
-0.018899307
0.19335968
-0.019482493
0.19223346
-0.019981009
0.19120729
-0.020398862
0.1902765
-0.020740468
0.18943634
-0.021010576
0.18868206
-0.021214191
0.18800897
-0.021356512
0.18741249
-0.021442858
0.18688822
-0.021478623
0.18643195
-0.021469223
0.18603974
-0.021420065
0.1857079
-0.021336523
0.18543302
-0.021223925
0.18521202
-0.021087568
0.18504214
-0.020932738
0.18492099
-0.020764761
0.18484651
-0.020589108
0.18481706
-0.02041142
0.18483141
-0.020238039
0.18488883
-0.020075196
0.184989
-0.01993299
0.18513251
-0.019815097
0.18531964
-0.019754501
0.1855544
-0.019710223
0.18583231
-0.019894921
0.18617566
-0.019812138
0.18652732
-0.021152256
-0.019860791
0.26934278
0.013494123
-0.27137287
0.26717779
0.01201154
0.26483921
0.010220121
0.26240335
0.0084543922
0.25987818
0.006716751
0.2572739
0.0049539248
0.25461662
0.0031732475
0.25193054
0.0014002123
0.24923566
-0.00035171306
0.24655181
-0.0020733643
0.24389831
-0.0037533309
0.24129231
-0.005379966
0.23874856
-0.0069434434
0.23627959
-0.0084355429
0.23389572
-0.0098493247
0.23160517
-0.011179189
0.22941414
-0.012420903
0.2273271
-0.013571518
0.22534688
-0.014629266
0.22347493
-0.015593482
0.22171151
-0.016464505
0.22005579
-0.017243595
0.21850613
-0.01793283
0.21706014
-0.018535015
0.21571486
-0.019053587
0.21446692
-0.019492525
0.2133126
-0.019856258
0.21224799
-0.02014958
0.21126905
-0.020377568
0.2103717
-0.020545509
0.20955191
-0.020658835
0.20880575
-0.020723065
0.20812945
-0.02074376
0.20751942
-0.020726497
0.20697234
-0.020676847
0.20648516
-0.020600381
0.20605511
-0.020502692
0.20567979
-0.020389437
0.20535713
-0.020266447
0.20508547
-0.020139761
0.20486355
-0.020016124
0.20469066
-0.019902299
0.20456637
-0.019808703
0.20449145
-0.019740179
0.20446548
-0.019728534
0.20449396
-0.019738704
0.20456678
-0.019967733
0.20471943
-0.01996479
0.20484833
-0.021281152
-0.020189673
0.29304563
0.014823083
-0.29437458
0.29156872
0.013488444
0.28984875
0.011940094
0.28795281
0.010350327
0.28591582
0.0087537473
0.28374859
0.0071211486
0.28146956
0.0054522784
0.27910199
0.0037677881
0.27666718
0.002083089
0.27418532
0.00040850279
0.27167661
-0.0012446228
0.26916082
-0.002864179
0.26665631
-0.0044389278
0.26417968
-0.0059589194
0.26174572
-0.0074153661
0.25936723
-0.0088006965
0.25705501
-0.010108679
0.25481792
-0.011334425
0.25266299
-0.012474337
0.25059555
-0.013526046
0.24861939
-0.014488346
0.24673691
-0.015361109
0.24494927
-0.016145195
0.24325661
-0.016842354
0.24165815
-0.017455127
0.24015238
-0.017986751
0.23873717
-0.018441054
0.23740995
-0.018822362
0.23616779
-0.019135409
0.23500753
-0.019385245
0.23392586
-0.019577169
0.23291945
-0.019716654
0.23198499
-0.019809293
0.23111925
-0.019860764
0.23031921
-0.019876798
0.229582
-0.019863178
0.22890506
-0.019825753
0.22828611
-0.019770481
0.22772318
-0.019703525
0.22721473
-0.01963131
0.22675958
-0.019560967
0.22635708
-0.019499799
0.22600685
-0.019458471
0.22570981
-0.019443141
0.22546508
-0.019483811
0.22527921
-0.019552833
0.22513767
-0.019826185
0.22508587