/*--------------------------------*- C++ -*----------------------------------*\
  =========                 |
  \\      /  F ield         | OpenFOAM: The Open Source CFD Toolbox
   \\    /   O peration     | Website:  https://openfoam.org
    \\  /    A nd           | Version:  6
     \\/     M anipulation  |
\*---------------------------------------------------------------------------*/
FoamFile
{
    version     2.0;
    format      ascii;
    class       volVectorField;
    location    "76";
    object      UMean;
}
// * * * * * * * * * * * * * * * * * * * * * * * * * * * * * * * * * * * * * //

dimensions      [0 1 -1 0 0 0 0];

internalField   nonuniform List<vector> 
9200
(
(0.0028533216 3.2111739e-05 -6.3985555e-20)
(0.019706062 -0.0064312623 5.2355088e-20)
(0.048940833 -0.012795952 -4.2286996e-20)
(0.087771721 -0.018904138 -6.826369e-20)
(0.13415499 -0.024606757 2.0990547e-20)
(0.1867371 -0.029481305 3.7120578e-20)
(0.24433687 -0.033252648 -1.3845213e-20)
(0.30586171 -0.035795255 1.0494733e-20)
(0.37029298 -0.037070142 1.9786025e-20)
(0.43665568 -0.037100534 1.7494723e-21)
(0.50399639 -0.0359607 -2.5435609e-20)
(0.57137675 -0.033764717 2.4354854e-20)
(0.63787916 -0.030655174 -4.7385996e-20)
(0.7026218 -0.026791827 -2.5096662e-20)
(0.76478107 -0.022339691 7.0147942e-21)
(0.82361812 -0.017459304 -3.0037674e-20)
(0.87852192 -0.012284596 3.0248954e-20)
(0.92912594 -0.006781628 2.7067277e-20)
(0.97513262 -0.00082772182 -1.9306437e-22)
(1.0140435 0.0023665332 -1.4611522e-21)
(0.0075969189 -0.0029080595 -1.8426892e-20)
(0.034407849 -0.013714167 4.4665906e-20)
(0.074430487 -0.022131722 2.5285512e-20)
(0.12446123 -0.028663423 -1.2917992e-19)
(0.18215288 -0.033585792 -1.4029929e-20)
(0.24588633 -0.03672428 8.3033785e-20)
(0.31420651 -0.038018241 -4.0174938e-20)
(0.38573832 -0.037539905 -9.6820967e-21)
(0.45917982 -0.035429542 3.9695852e-20)
(0.53328185 -0.031875545 -5.0359142e-20)
(0.60683971 -0.027106678 -3.5814964e-20)
(0.6787033 -0.021381277 8.5216665e-20)
(0.74779953 -0.014974979 4.5121955e-20)
(0.81316209 -0.0081687585 -8.0436258e-20)
(0.87396375 -0.0012388276 1.7303484e-20)
(0.92954572 0.0055480609 -4.3479354e-20)
(0.97945213 0.011947711 -1.6718261e-20)
(1.0235194 0.017809227 8.3804934e-20)
(1.0617446 0.022749789 3.7127296e-20)
(1.0925295 0.023786975 -8.8272708e-20)
(0.013775206 -0.0057103706 3.8779546e-20)
(0.052879196 -0.02031533 2.0103859e-21)
(0.10544366 -0.029973825 2.3337906e-20)
(0.16790723 -0.035969119 1.0837862e-21)
(0.23763345 -0.039086991 -4.3910251e-20)
(0.31271718 -0.039465573 2.1342032e-20)
(0.39140157 -0.0373193 1.4487051e-20)
(0.47200609 -0.032975434 -5.7138662e-20)
(0.55293773 -0.026805157 6.5758276e-20)
(0.63269107 -0.019205404 1.7226969e-20)
(0.70986192 -0.010591234 -6.3745073e-20)
(0.78317768 -0.0013818676 -2.1737196e-20)
(0.85153516 0.0080159609 9.8084872e-21)
(0.91403764 0.017223959 2.7468466e-20)
(0.9700245 0.025905449 -1.3231069e-20)
(1.0190869 0.033773184 3.2457723e-20)
(1.0610723 0.040601655 -2.3744308e-20)
(1.0961043 0.046272501 -8.0508992e-20)
(1.1244555 0.050545629 -2.5360506e-20)
(1.1454269 0.051619019 5.4244093e-20)
(0.021472287 -0.0081192958 2.5486413e-20)
(0.075201204 -0.025526729 5.4721623e-20)
(0.14190801 -0.035271999 2.1620433e-20)
(0.21775569 -0.039539186 1.501837e-20)
(0.29984235 -0.039707645 1.9701467e-20)
(0.38596759 -0.036296706 -5.3517609e-20)
(0.47406671 -0.029858374 -2.9099173e-20)
(0.56216683 -0.021029326 0)
(0.64842767 -0.010453668 1.8177843e-20)
(0.73117045 0.001237574 -8.125511e-21)
(0.80891618 0.013437529 -1.129781e-19)
(0.88043231 0.025582785 -1.7742126e-20)
(0.94477522 0.037174499 7.5664506e-20)
(1.0013191 0.047796107 4.6514216e-22)
(1.0497653 0.057125237 -1.8070128e-21)
(1.0901282 0.064937958 2.5084343e-20)
(1.1227025 0.071112722 -5.6240085e-21)
(1.1480298 0.075656911 -6.9516273e-20)
(1.1667759 0.07856573 -5.2167966e-20)
(1.1790135 0.078907186 7.4955671e-20)
(0.030699138 -0.0098477068 -3.7003543e-21)
(0.10122762 -0.028591253 -4.2611638e-21)
(0.183363 -0.036952043 6.0591282e-20)
(0.27310826 -0.038121221 2.0904836e-20)
(0.36734351 -0.034150121 -3.6284948e-20)
(0.46359305 -0.026006195 1.2846457e-20)
(0.55952123 -0.01463489 2.9864655e-21)
(0.65293373 -0.0010216798 3.895512e-20)
(0.74185565 0.013898822 6.4969359e-21)
(0.82459053 0.029269358 -1.5856273e-20)
(0.89977599 0.044325811 7.0332491e-20)
(0.96643149 0.05841987 -6.5995187e-20)
(1.0239851 0.071039223 -1.5108075e-19)
(1.072272 0.081818933 -6.3491046e-21)
(1.1115037 0.090542211 9.3926479e-20)
(1.1422114 0.097130381 0)
(1.1651704 0.10162898 1.1734316e-20)
(1.1813266 0.10420934 -1.7031633e-20)
(1.1916788 0.10506335 -9.9887246e-21)
(1.1968338 0.10378796 2.2627576e-20)
(0.04137482 -0.010588468 -4.6154317e-21)
(0.13055879 -0.028747967 4.604994e-21)
(0.22895952 -0.03400368 -9.3668469e-21)
(0.33257518 -0.030627743 3.0012844e-20)
(0.43815293 -0.021403163 -3.2843847e-20)
(0.5430091 -0.0077983808 -1.8879128e-20)
(0.64463441 0.0088138136 3.9596327e-20)
(0.74075325 0.027092248 4.7826824e-21)
(0.82943825 0.04583579 -2.9130144e-20)
(0.90918937 0.064016024 7.9281968e-20)
(0.97898818 0.080793634 -1.3707512e-22)
(1.0383225 0.0955361 -9.1497866e-20)
(1.0871725 0.10782565 0)
(1.1259591 0.11745195 4.4162689e-20)
(1.1554609 0.12439031 6.0243257e-21)
(1.1767113 0.12876856 -8.5694634e-20)
(1.1908909 0.13083082 -2.1697683e-20)
(1.1992307 0.13091528 -1.3552061e-20)
(1.2029089 0.12936269 -1.6164657e-20)
(1.2027822 0.12608665 4.4090128e-20)
(0.053314739 -0.010036104 -1.735698e-20)
(0.16252918 -0.025291985 -4.6807306e-21)
(0.27747494 -0.025570375 3.1195629e-20)
(0.39434197 -0.016245531 3.7959999e-20)
(0.50987703 -0.00085545973 -2.1448036e-20)
(0.62131476 0.018609332 -7.6902498e-20)
(0.72613628 0.040355436 -3.2080959e-20)
(0.8221895 0.062728615 8.8329494e-20)
(0.90782728 0.084338801 1.047164e-20)
(0.98198498 0.10409259 -2.7528122e-20)
(1.0442064 0.12119906 1.4795977e-20)
(1.0946187 0.13516808 -4.9250277e-21)
(1.1338585 0.14579114 0)
(1.1629598 0.15310289 3.0175509e-20)
(1.1832214 0.15732891 -8.7446907e-20)
(1.1960719 0.15882676 -3.4648031e-20)
(1.2029486 0.15803064 8.8500632e-20)
(1.2052046 0.15541358 -5.3669417e-21)
(1.2040342 0.15140752 3.6783117e-21)
(1.2003276 0.14610565 2.9884588e-20)
(0.066225816 -0.0079149427 -3.2812766e-20)
(0.19621628 -0.017646232 -8.6399433e-20)
(0.32736201 -0.011045514 2.8128093e-22)
(0.45627676 0.0054643385 7.635425e-20)
(0.57988869 0.027622716 6.7940725e-20)
(0.69553736 0.052946037 -7.6685254e-20)
(0.80091692 0.079283323 1.019627e-21)
(0.894247 0.10476909 9.6070249e-20)
(0.97440967 0.12795608 5.4207034e-20)
(1.0409961 0.14783351 -6.0569127e-20)
(1.0942764 0.16380509 -1.02494e-19)
(1.1351059 0.17565056 -3.4927511e-21)
(1.1647832 0.18346592 4.639565e-20)
(1.1848851 0.18758635 -7.0780685e-21)
(1.1971024 0.1885031 -1.3670683e-20)
(1.2030969 0.18678447 2.0783637e-20)
(1.204393 0.18301136 4.7521622e-20)
(1.2023117 0.17773639 -4.6984728e-20)
(1.1979376 0.1714227 -1.1036614e-19)
(1.1920627 0.16425511 2.7045602e-20)
(0.079677133 -0.0040097168 -3.6967018e-20)
(0.23040281 -0.0054362925 -1.7809453e-19)
(0.3767253 0.0098479401 9.0221447e-20)
(0.5159346 0.034510468 1.0059111e-19)
(0.64536752 0.063667653 6.2352407e-20)
(0.76270669 0.094434026 9.4942285e-21)
(0.86611805 0.12442788 -1.1600767e-19)
(0.9544486 0.15173228 0)
(1.0273305 0.17501753 -7.6636961e-20)
(1.0851685 0.19352451 -1.6935762e-20)
(1.1290351 0.2069953 6.0071255e-20)
(1.1605024 0.21558303 1.1914155e-20)
(1.1814435 0.21974415 -4.9569275e-20)
(1.1938355 0.22012435 -5.2951719e-20)
(1.1995909 0.21745296 2.6583563e-20)
(1.2004342 0.2124567 4.8793828e-20)
(1.1978293 0.20579987 -6.0117046e-20)
(1.1929542 0.19805291 -1.1542178e-19)
(1.1867134 0.18965878 -2.9599018e-21)
(1.1797414 0.18084204 2.8816018e-20)
(0.093083607 0.0018203488 -4.5926827e-21)
(0.26358358 0.011498859 9.2560772e-20)
(0.42336205 0.037066126 -1.1821733e-20)
(0.5706473 0.070500092 -9.3114138e-20)
(0.70343846 0.10647171 4.915207e-20)
(0.82002192 0.14185931 5.1792214e-20)
(0.91929109 0.17424554 6.0801316e-21)
(1.0009389 0.20187274 -1.0855198e-19)
(1.0654994 0.22372871 -2.7427046e-21)
(1.1142563 0.23947233 5.5238487e-20)
(1.1490604 0.24930039 6.50215e-21)
(1.1720994 0.25379902 -2.1607716e-20)
(1.1856671 0.25379146 -8.1864479e-20)
(1.1919639 0.25019851 -6.5389542e-21)
(1.1929541 0.24392648 4.6663403e-20)
(1.1902832 0.23578997 3.9546738e-20)
(1.185253 0.2264699 2.0816345e-20)
(1.1788414 0.21650036 -5.7407131e-20)
(1.171752 0.20626866 1.2800825e-20)
(1.1644524 0.19601251 8.7421764e-20)
(-0.0013827132 0.0014872999 -4.0051238e-22)
(-0.0047905644 0.003199549 1.5747233e-21)
(-0.010837591 0.0040372833 3.3379657e-21)
(-0.017523255 0.0042960376 1.0439227e-21)
(-0.023967254 0.0041561371 -3.8457528e-21)
(-0.029743783 0.003740992 3.972589e-21)
(-0.034575711 0.0031402276 -1.076238e-20)
(-0.03829334 0.0024178457 -9.2370032e-21)
(-0.040811043 0.0016188951 1.5867684e-20)
(-0.042097458 0.00077488392 -1.3400459e-20)
(-0.042154762 -9.2412616e-05 -2.114813e-22)
(-0.041005825 -0.00096822265 4.9388715e-21)
(-0.038685564 -0.0018427255 -7.5022788e-22)
(-0.035235067 -0.0027094455 2.9166098e-20)
(-0.030697956 -0.0035638247 2.2277125e-22)
(-0.025119936 -0.0044017055 -5.1215498e-20)
(-0.018551402 -0.0052186482 9.6267651e-21)
(-0.011039139 -0.0060126563 2.9129795e-20)
(-0.0025973928 -0.0067822995 -5.316535e-20)
(0.0067051772 -0.0074764707 -3.3346162e-20)
(-0.0017411281 0.0043214408 -6.2184371e-21)
(-0.0053875161 0.0092693681 7.8766384e-21)
(-0.01112031 0.011670717 -1.1025385e-20)
(-0.017125909 0.012382958 8.5511826e-21)
(-0.022631249 0.011931562 9.8642928e-21)
(-0.027265235 0.010678289 1.2513091e-21)
(-0.03078908 0.0088859889 -3.5736209e-20)
(-0.033060811 0.0067423237 -2.7809689e-21)
(-0.034013412 0.0043794123 2.8122993e-20)
(-0.033627658 0.0018896715 -6.8652149e-21)
(-0.031913483 -0.00066303775 -2.9044707e-20)
(-0.028898478 -0.0032354065 6.3932558e-21)
(-0.024620198 -0.0057986743 2.8520689e-20)
(-0.019120811 -0.0083339217 1.3076322e-20)
(-0.012443342 -0.010827891 2.7850947e-20)
(-0.0046322398 -0.013268727 -2.4523797e-20)
(0.0042564849 -0.015643932 -2.6402527e-20)
(0.014163022 -0.017947009 2.6374662e-20)
(0.025145532 -0.020163038 3.1985673e-20)
(0.037402518 -0.022117637 1.8168453e-20)
(-0.002382635 0.0067399037 -5.0614606e-21)
(-0.0064058459 0.014373887 -3.5005261e-21)
(-0.011457055 0.018025463 -3.702051e-22)
(-0.016081838 0.019023881 -2.1704631e-21)
(-0.019711697 0.018190003 9.003025e-21)
(-0.022081118 0.016096512 1.3937433e-20)
(-0.023025805 0.013160494 -5.5597923e-21)
(-0.022457752 0.0096799824 -2.558079e-20)
(-0.020346585 0.0058652214 8.8908073e-21)
(-0.016697534 0.0018635836 1.7170064e-20)
(-0.011536838 -0.0022229154 8.0948649e-21)
(-0.0049029025 -0.006325005 2.2856591e-20)
(0.0031595852 -0.010396752 2.1949035e-21)
(0.012603862 -0.014408264 -4.1788272e-20)
(0.023384812 -0.018338871 2.145345e-21)
(0.035457317 -0.022170554 -2.5842149e-20)
(0.048753283 -0.025886453 -3.0702069e-20)
(0.063184354 -0.029478128 5.6253315e-20)
(0.078926427 -0.032891614 3.119732e-20)
(0.096692649 -0.035752214 1.0995276e-21)
(-0.0031753979 0.0085176319 -6.5238729e-21)
(-0.0075474932 0.017984817 -1.5919286e-20)
(-0.011480507 0.022397982 4.6939616e-21)
(-0.01400884 0.023423118 5.5978738e-21)
(-0.014844878 0.022100221 2.2971128e-21)
(-0.013871098 0.019170264 1.0993542e-20)
(-0.011029276 0.015174855 1.3206525e-20)
(-0.0063095088 0.010501396 -2.052215e-21)
(0.00026403602 0.0054239933 -1.5304449e-20)
(0.0086480312 0.00013540196 -3.8015601e-20)
(0.018788985 -0.0052305862 3.3646867e-22)
(0.030628017 -0.010582935 5.1435291e-20)
(0.044104731 -0.015861519 -2.2223793e-20)
(0.059158739 -0.021027406 -1.5195927e-20)
(0.075733543 -0.026054713 -1.3723655e-22)
(0.093774965 -0.030923002 3.9614973e-20)
(0.11319511 -0.035618323 -1.9279059e-20)
(0.13385767 -0.040140599 -6.3408166e-20)
(0.15605603 -0.044374315 5.3249705e-20)
(0.18122352 -0.047627269 3.8938742e-20)
(-0.0039445772 0.0095056167 -6.8867929e-23)
(-0.008408129 0.019738641 -1.4576055e-20)
(-0.010679875 0.024293283 -4.5682001e-20)
(-0.010361614 0.025014515 -9.2293283e-21)
(-0.0074968376 0.023070022 -2.923367e-21)
(-0.0021474169 0.019316483 8.7909903e-21)
(0.0056133277 0.01438278 -6.8472778e-21)
(0.015695986 0.0087188406 -1.1988021e-20)
(0.028004251 0.0026439221 2.8236384e-20)
(0.042441242 -0.0036168459 6.1154423e-21)
(0.058912457 -0.0099065841 -3.2880439e-20)
(0.077325036 -0.01611819 1.3388137e-20)
(0.097587881 -0.022180827 0)
(0.11961183 -0.028049683 1.4765283e-20)
(0.14331244 -0.033697079 -1.1753809e-20)
(0.16860946 -0.039105061 -1.7658442e-20)
(0.19538097 -0.044272495 -7.0905211e-23)
(0.22342077 -0.049228592 -3.2968618e-21)
(0.25309453 -0.053797954 5.1802991e-20)
(0.28668585 -0.056838306 -1.4421648e-20)
(-0.00449273 0.0096404094 -8.2705336e-21)
(-0.0085147926 0.019463275 3.0154654e-20)
(-0.0084360074 0.023466875 -1.4208156e-20)
(-0.0044552446 0.02351678 -3.4410843e-20)
(0.0030286087 0.02081299 -3.2712068e-20)
(0.013754239 0.016271154 -1.9005562e-20)
(0.027497939 0.010565639 -1.2704645e-21)
(0.044052898 0.0041777445 7.1533623e-21)
(0.063234074 -0.0025500592 2.4434383e-20)
(0.08487449 -0.0093752596 9.1444415e-21)
(0.10881907 -0.016128676 -8.6938771e-21)
(0.13492107 -0.022694764 -1.864803e-21)
(0.16303787 -0.028997614 -4.6688655e-20)
(0.19302806 -0.034990782 -1.5359705e-20)
(0.22475287 -0.040648909 2.3646902e-20)
(0.25807772 -0.0459619 -2.5878792e-20)
(0.29282352 -0.050951515 -1.069695e-20)
(0.32869138 -0.055703851 3.4470662e-20)
(0.36604566 -0.060021486 5.7270709e-20)
(0.40804778 -0.062213631 4.1072548e-21)
(-0.0046175017 0.0089386917 1.8259516e-20)
(-0.0073619069 0.017177262 1.5868275e-20)
(-0.0040594841 0.019937136 6.0418267e-20)
(0.0045021081 0.018961105 2.8999905e-20)
(0.017565825 0.015390538 2.3263829e-22)
(0.034660816 0.010143247 -4.9386975e-20)
(0.055400067 0.0038961352 -2.9776677e-20)
(0.079445406 -0.0028699518 1.2895934e-20)
(0.10650315 -0.0098135633 1.7661386e-20)
(0.13631363 -0.01669304 -1.5602993e-20)
(0.16863819 -0.023340448 -5.4029617e-20)
(0.2032493 -0.029642531 3.6236212e-20)
(0.2399227 -0.035526961 2.3664429e-20)
(0.27843164 -0.040953006 -3.3138274e-20)
(0.31854671 -0.045904586 1.4270325e-20)
(0.36004011 -0.050386904 2.8600549e-20)
(0.40264254 -0.05445448 9.848937e-21)
(0.44594052 -0.058279287 -1.4903476e-20)
(0.49021558 -0.061718392 -1.5132272e-20)
(0.53941713 -0.062525933 1.0201371e-20)
(-0.004123328 0.0074821485 1.26296e-20)
(-0.0044402269 0.013066802 -2.8709585e-20)
(0.0031715792 0.013968386 8.255915e-21)
(0.017367221 0.011684808 4.0399391e-20)
(0.037042912 0.00721616 6.1178508e-20)
(0.061515836 0.0014294648 2.4334658e-20)
(0.090225685 -0.0050368991 -6.9829547e-21)
(0.12268371 -0.011736611 -1.4769507e-20)
(0.15846612 -0.018354961 -7.6416056e-21)
(0.1971937 -0.024671812 4.1428957e-20)
(0.23851164 -0.030537843 -5.9441451e-21)
(0.28207474 -0.035856979 -2.0419703e-20)
(0.32753657 -0.040573892 -2.328067e-20)
(0.37454201 -0.044666129 -5.6908878e-20)
(0.42272679 -0.048139147 2.7376304e-20)
(0.47172623 -0.051025798 -1.6612959e-20)
(0.52114672 -0.053427068 3.1026486e-20)
(0.5704533 -0.055633554 2.5015919e-20)
(0.61979103 -0.057672041 -9.5610209e-20)
(0.67370159 -0.056905431 9.9913342e-22)
(-0.002828871 0.0054007707 2.4234528e-20)
(0.00073560042 0.0074577097 -3.0817559e-20)
(0.013962019 0.0060472352 -5.1308289e-20)
(0.034988547 0.0023184765 -3.1742223e-20)
(0.062384058 -0.0029424469 -2.4144081e-21)
(0.095249846 -0.0089694644 1.5683887e-20)
(0.13283925 -0.015203486 -3.3994061e-21)
(0.1744937 -0.021266043 2.1452993e-20)
(0.21963054 -0.026897887 1.0464926e-20)
(0.26771532 -0.03192521 -1.3551105e-20)
(0.31823589 -0.036239536 1.1013119e-20)
(0.37068451 -0.03978248 -2.8598169e-20)
(0.42454594 -0.042534667 1.0397831e-20)
(0.47929032 -0.044508753 2.0068129e-20)
(0.53437349 -0.045745119 -3.6357577e-21)
(0.58924842 -0.046313093 2.3133168e-21)
(0.64335291 -0.046362141 -1.012658e-21)
(0.69601931 -0.046285293 2.357057e-20)
(0.74723902 -0.046293201 3.8962414e-21)
(0.80191715 -0.04383953 -4.7974945e-21)
(-0.00056745279 0.0028598864 2.6807541e-20)
(0.00860711 0.00079733381 6.6203788e-20)
(0.028943749 -0.0031239005 -5.5371825e-20)
(0.058105209 -0.0081994834 -1.1482617e-20)
(0.094350304 -0.013929522 2.3608282e-20)
(0.13656168 -0.019697369 2.4833968e-21)
(0.18379107 -0.025064988 -3.4670213e-20)
(0.23518351 -0.029759834 8.1977492e-21)
(0.28996194 -0.033612668 8.3040629e-21)
(0.34739531 -0.036528303 -3.0973171e-20)
(0.40677096 -0.038469945 1.5168273e-21)
(0.46737848 -0.039446242 -4.4283244e-20)
(0.52850208 -0.039500567 -4.3355705e-20)
(0.58941944 -0.038702426 7.8426524e-20)
(0.64940662 -0.037139918 6.6278738e-21)
(0.70774677 -0.034918229 -1.7990962e-20)
(0.7637179 -0.032197813 2.2779488e-20)
(0.81652396 -0.029277144 -1.0498351e-21)
(0.86573684 -0.026188444 2.2006044e-20)
(0.91494946 -0.021474474 -2.4483991e-20)
(0.017764355 -0.0077712799 6.9965017e-20)
(0.030697988 -0.0082640703 1.7972342e-20)
(0.045113317 -0.0086475711 -4.0114498e-20)
(0.060643967 -0.0088453491 1.9652213e-20)
(0.076989876 -0.0089454642 0)
(0.094070514 -0.0089802629 0)
(0.11181388 -0.0089531567 -2.536404e-20)
(0.13012596 -0.0088725203 -1.7856332e-20)
(0.14892067 -0.0087490096 2.1014396e-20)
(0.16812446 -0.0085905763 1.9567003e-20)
(0.18766987 -0.0084032779 1.0178885e-21)
(0.20749347 -0.0081924525 -1.0596657e-20)
(0.22753614 -0.0079627954 9.0138215e-21)
(0.24774297 -0.0077183106 1.8295401e-20)
(0.26806259 -0.0074624291 -5.7286346e-21)
(0.28844684 -0.0071981281 -9.9049292e-21)
(0.30885051 -0.0069280004 -4.1377199e-21)
(0.3292312 -0.0066543074 -3.9904789e-21)
(0.34954918 -0.0063790276 6.1915625e-22)
(0.36976729 -0.0061038964 1.180008e-21)
(0.38985095 -0.0058304367 2.6006202e-21)
(0.40976803 -0.0055599825 6.1560203e-21)
(0.42948895 -0.0052936983 -5.6864455e-23)
(0.4489866 -0.0050325942 -3.1485869e-21)
(0.46823636 -0.0047775378 7.9405003e-23)
(0.48721611 -0.0045292653 -5.1226933e-22)
(0.50590613 -0.0042883898 1.0883514e-21)
(0.52428917 -0.0040554101 8.1245027e-22)
(0.54235028 -0.003830719 -1.2749822e-21)
(0.56007686 -0.003614611 -5.8348323e-23)
(0.57745847 -0.0034072905 -1.9138065e-22)
(0.59448682 -0.0032088799 -2.855575e-22)
(0.61115561 -0.0030194284 -4.1779956e-22)
(0.62746048 -0.0028389198 1.5691932e-22)
(0.64339884 -0.0026672816 -1.0638137e-22)
(0.65896981 -0.0025043933 -1.464303e-22)
(0.67417409 -0.0023500952 1.6356676e-22)
(0.68901392 -0.0022041969 1.7487194e-22)
(0.70349291 -0.002066488 -7.8769718e-23)
(0.71761643 -0.0019367431 -1.7788306e-22)
(0.73139029 -0.0018147522 -1.1798895e-23)
(0.74482523 -0.0017002765 4.5269302e-24)
(0.75792364 -0.0015932649 5.4530141e-23)
(0.77072179 -0.0014932799 -8.9094534e-23)
(0.7831656 -0.0014014915 -1.6963407e-22)
(0.7954844 -0.0013148023 3.0587012e-23)
(0.80710712 -0.0012447467 1.8315479e-23)
(0.81982172 -0.0011610216 -8.154233e-24)
(0.82874573 -0.0011649854 1.9128425e-23)
(0.8475489 -0.0010015705 3.8924388e-22)
(0.049631661 -0.022865118 -1.6287735e-20)
(0.061418571 -0.024362526 -7.363435e-20)
(0.075178485 -0.025490951 -3.6430157e-20)
(0.090030837 -0.026053092 4.4495874e-20)
(0.10554984 -0.026339596 1.6779314e-20)
(0.12173863 -0.026444377 -2.1275169e-20)
(0.13856076 -0.026369614 6.1509585e-21)
(0.15592558 -0.026138359 2.7686435e-20)
(0.17375456 -0.025782281 -6.8936163e-22)
(0.19198434 -0.025324269 -8.5472017e-21)
(0.21055515 -0.024781479 -1.2692142e-20)
(0.22940923 -0.024169245 -9.5075111e-21)
(0.24849228 -0.023501162 1.8202859e-20)
(0.26775338 -0.022788833 1.0807105e-20)
(0.2871444 -0.022042232 -1.5660431e-20)
(0.30661976 -0.021270049 -5.9466967e-21)
(0.3261363 -0.020479884 2.9044892e-21)
(0.34565325 -0.019678393 7.6793371e-21)
(0.36513214 -0.01887142 6.8287983e-21)
(0.3845368 -0.01806411 -7.239099e-21)
(0.40383332 -0.017260996 -3.7504161e-21)
(0.42299011 -0.016466058 1.9414347e-21)
(0.44197791 -0.015682785 1.1570558e-21)
(0.46076978 -0.01491421 1.3009589e-21)
(0.47934114 -0.014162948 3.3625228e-22)
(0.49766977 -0.013431223 -4.5631011e-22)
(0.5157358 -0.012720897 -7.8890347e-22)
(0.53352168 -0.012033491 1.2438336e-21)
(0.55101211 -0.011370209 9.4810271e-22)
(0.56819405 -0.010731963 -4.8859041e-22)
(0.58505656 -0.010119398 6.7109625e-22)
(0.6015908 -0.0095329101 -1.9438896e-22)
(0.61778986 -0.0089726788 -4.8596033e-22)
(0.63364873 -0.008438687 -6.3931018e-22)
(0.64916412 -0.0079307482 3.4146048e-22)
(0.66433446 -0.007448532 -2.858897e-22)
(0.6791597 -0.0069915899 3.2854562e-22)
(0.69364132 -0.0065593802 -5.0734947e-22)
(0.70778218 -0.0061513013 5.8304537e-22)
(0.72158687 -0.0057667045 4.723933e-23)
(0.73506041 -0.0054049869 2.4849395e-23)
(0.74821277 -0.0050654573 2.8245155e-22)
(0.76104562 -0.0047479869 3.8422268e-22)
(0.77359422 -0.004451283 3.0522247e-22)
(0.78580439 -0.0041788752 3.4950432e-22)
(0.79790253 -0.0039214917 -5.6266109e-25)
(0.80932303 -0.0037136665 1.7943162e-22)
(0.821833 -0.0034647854 1.5285383e-22)
(0.83060755 -0.0034773864 -2.1499213e-22)
(0.84913974 -0.0029912097 4.3836173e-23)
(0.11102997 -0.036608105 1.1856201e-20)
(0.12059089 -0.039123002 4.9314344e-21)
(0.13297167 -0.040949602 -1.6885062e-20)
(0.14646575 -0.041812294 -2.4363236e-21)
(0.16034737 -0.04226311 1.8164137e-20)
(0.17477934 -0.042450764 -1.6916882e-20)
(0.18980223 -0.042357116 -3.4440922e-20)
(0.20532849 -0.042013982 1.6987274e-20)
(0.22129086 -0.041473003 2.0791971e-20)
(0.23764471 -0.040769734 -1.3060591e-20)
(0.25434415 -0.039929879 1.0926498e-21)
(0.27134122 -0.038976967 7.906778e-21)
(0.28858987 -0.03793223 -1.6704043e-20)
(0.30604609 -0.03681388 5.4254397e-21)
(0.32366728 -0.035637646 8.3270767e-21)
(0.34141218 -0.034417347 -1.5605625e-21)
(0.35924109 -0.033165168 -7.1548624e-22)
(0.37711591 -0.031891864 -8.0489493e-21)
(0.39500024 -0.030606948 5.496631e-21)
(0.41285944 -0.02931885 9.006337e-21)
(0.43066076 -0.028035041 -4.0076318e-21)
(0.44837334 -0.026762129 -2.0908527e-21)
(0.4659684 -0.02550593 6.4258944e-22)
(0.48341919 -0.024271532 -1.8843032e-21)
(0.50070112 -0.023063345 1.2262543e-21)
(0.51779174 -0.021885143 6.4410299e-22)
(0.53467077 -0.020740105 2.3100854e-21)
(0.55132011 -0.01963085 -2.5824097e-21)
(0.56772376 -0.018559478 2.9134136e-21)
(0.58386783 -0.017527602 6.6315288e-22)
(0.59974047 -0.016536391 1.0090741e-21)
(0.61533178 -0.015586606 2.6290354e-22)
(0.63063373 -0.014678643 1.2838286e-21)
(0.64564009 -0.013812571 -1.9055949e-21)
(0.66034634 -0.012988179 5.5040866e-22)
(0.67474955 -0.01220501 4.2841132e-22)
(0.68884833 -0.011462412 -1.4325943e-22)
(0.70264279 -0.010759574 -1.1885955e-22)
(0.71613435 -0.010095582 -4.5322977e-22)
(0.72932618 -0.0094694412 2.9784439e-22)
(0.7422219 -0.0088802296 -1.9716522e-23)
(0.75482998 -0.0083268722 8.2346217e-22)
(0.76715077 -0.0078092284 -3.7257035e-22)
(0.77921773 -0.0073252084 1.8125959e-23)
(0.79097639 -0.0068807389 1.3171331e-22)
(0.80264774 -0.0064604717 -1.2838291e-22)
(0.81367646 -0.0061216194 -2.187438e-22)
(0.82578984 -0.0057144496 7.3229163e-22)
(0.83427405 -0.005737292 1.9153857e-22)
(0.85227996 -0.0049409063 -8.8509705e-22)
(0.1981922 -0.048127293 2.4291707e-21)
(0.20454088 -0.051650072 -1.2281309e-20)
(0.21472821 -0.054104241 6.4947116e-21)
(0.22616674 -0.055197536 -1.5524241e-20)
(0.23763247 -0.055802708 -2.2810468e-21)
(0.24948993 -0.056109062 1.1547052e-20)
(0.26190556 -0.056055728 -1.3123082e-20)
(0.274793 -0.055674181 2.6381132e-22)
(0.28809322 -0.055032938 1.4266679e-20)
(0.30178543 -0.054177261 4.6415764e-21)
(0.31584173 -0.053138152 -6.6983524e-21)
(0.33022578 -0.051944661 -3.9088494e-21)
(0.34490098 -0.050623775 -4.9571814e-21)
(0.35983142 -0.04919897 -7.4241165e-21)
(0.37498082 -0.047690709 1.9047696e-21)
(0.39031281 -0.046117179 -7.9734667e-22)
(0.40579146 -0.044494623 1.9635184e-21)
(0.42138157 -0.042837542 -3.3750893e-21)
(0.4370489 -0.041158904 -5.2331906e-21)
(0.45276036 -0.039470308 2.8265472e-21)
(0.46848425 -0.037782127 4.0711497e-21)
(0.4841904 -0.036103604 -2.3671619e-21)
(0.49985031 -0.034442942 1.8729636e-21)
(0.51543726 -0.032807366 -7.4261253e-22)
(0.53092641 -0.031203183 -5.0391892e-21)
(0.54629483 -0.029635833 -3.1100961e-21)
(0.56152158 -0.028109939 -4.9370745e-22)
(0.57658767 -0.026629352 8.5423207e-23)
(0.59147612 -0.025197199 -2.1926659e-21)
(0.60617185 -0.023815934 -1.4803962e-21)
(0.6206617 -0.022487389 1.9113418e-22)
(0.63493435 -0.021212828 -1.6751902e-21)
(0.64898025 -0.019993 -1.9802722e-22)
(0.66279156 -0.018828198 -6.7581675e-22)
(0.67636205 -0.017718317 -3.7417556e-22)
(0.68968706 -0.016662908 -1.0193612e-21)
(0.70276338 -0.01566124 -1.4706111e-21)
(0.71558928 -0.014712358 7.004118e-23)
(0.72816429 -0.013815157 -2.6608917e-24)
(0.74048971 -0.012968409 -8.0063207e-22)
(0.75256724 -0.012170984 1.2769007e-22)
(0.76440342 -0.011421528 -5.9425538e-22)
(0.77599683 -0.010719983 -9.7131112e-22)
(0.78737846 -0.01006356 7.1024505e-22)
(0.79849357 -0.0094606072 1.1127585e-23)
(0.80955548 -0.0088899301 3.5777385e-22)
(0.82002382 -0.0084306824 -2.6215375e-22)
(0.8315685 -0.0078765119 -4.9057102e-22)
(0.83963634 -0.0079114695 3.358873e-23)
(0.8568842 -0.0068258312 5.2540508e-22)
(0.30624667 -0.056550446 -2.6940741e-20)
(0.30846426 -0.061071836 5.4591766e-20)
(0.315549 -0.064075946 1.1485512e-20)
(0.32418813 -0.065359925 -1.8494873e-20)
(0.33250246 -0.066150946 -3.429307e-21)
(0.34103752 -0.066650394 1.8717884e-21)
(0.35012985 -0.066738369 -2.9613254e-21)
(0.3596975 -0.0664365 -5.2355291e-21)
(0.36967895 -0.065822678 -4.4644135e-21)
(0.38007559 -0.064948045 -1.3447643e-20)
(0.39087888 -0.063846361 2.0929824e-20)
(0.4020634 -0.062549501 7.9916855e-21)
(0.41360058 -0.061087995 -1.7866518e-20)
(0.42546142 -0.059489164 9.25071e-21)
(0.43761511 -0.057777273 7.1004479e-21)
(0.45002929 -0.055974206 6.3189568e-22)
(0.46267092 -0.054099822 -2.15929e-21)
(0.47550693 -0.052172129 -5.1975365e-21)
(0.48850452 -0.050207447 -2.0205275e-21)
(0.50163154 -0.048220544 -1.780432e-21)
(0.51485674 -0.046224763 -4.0658917e-21)
(0.52815008 -0.044232104 0)
(0.54148286 -0.042253305 -1.7987123e-21)
(0.55482794 -0.040297903 4.1047978e-21)
(0.56815979 -0.038374287 6.2747418e-21)
(0.58145465 -0.036489756 -8.4170941e-22)
(0.59469052 -0.034650572 -4.0373781e-21)
(0.60784723 -0.032862011 4.3530833e-21)
(0.62090643 -0.031128423 -3.9143344e-22)
(0.63385159 -0.02945329 4.4730184e-21)
(0.64666796 -0.027839295 -4.5118823e-22)
(0.65934251 -0.026288385 1.9710967e-21)
(0.67186391 -0.024801841 -1.1263513e-21)
(0.68422242 -0.023380351 6.6204902e-22)
(0.69640988 -0.022024082 -7.5126942e-22)
(0.70841961 -0.020732756 6.2825271e-22)
(0.72024634 -0.019505722 6.9889892e-22)
(0.73188625 -0.018342029 5.9026841e-22)
(0.74333676 -0.017240527 -1.4212253e-21)
(0.75459699 -0.016199897 1.0214159e-21)
(0.76566652 -0.015218931 -5.161146e-22)
(0.77654966 -0.014296123 -1.8789586e-21)
(0.787243 -0.013431609 2.3963105e-21)
(0.79777465 -0.012622021 -4.0116138e-23)
(0.80808976 -0.011878136 -2.7533624e-22)
(0.81839212 -0.011173247 -5.2405968e-24)
(0.82816059 -0.01060734 -3.276263e-22)
(0.83899219 -0.0099210715 -8.3081459e-22)
(0.84653837 -0.0099701293 6.0227121e-22)
(0.86282941 -0.0086232702 -6.0973296e-23)
(0.42954021 -0.060898934 -2.2677221e-20)
(0.4267982 -0.066477728 1.4056936e-20)
(0.42982771 -0.070006398 5.5192008e-21)
(0.43488749 -0.071534893 -9.0571727e-21)
(0.43939279 -0.072625783 1.4025238e-20)
(0.44397243 -0.073450212 9.0074997e-21)
(0.44915066 -0.073832534 -1.3359307e-20)
(0.4548674 -0.073782025 -6.8564709e-21)
(0.46104481 -0.073373361 1.419241e-20)
(0.46769413 -0.072656964 -1.8914154e-20)
(0.47482307 -0.07166785 -1.5343724e-20)
(0.48241499 -0.070439217 1.7485609e-20)
(0.49044584 -0.06900333 7.3907048e-21)
(0.49889026 -0.067390185 -7.102915e-21)
(0.50772044 -0.065627295 -3.7755492e-22)
(0.51690599 -0.063739976 -2.7274371e-21)
(0.52641506 -0.061751597 3.9005833e-21)
(0.53621513 -0.059683722 3.7241381e-21)
(0.54627357 -0.057556179 -2.9105739e-21)
(0.556558 -0.055387135 3.0957403e-21)
(0.56703668 -0.053193168 3.3261952e-21)
(0.57767882 -0.050989331 -3.7011647e-21)
(0.58845479 -0.048789198 3.6041033e-22)
(0.59933635 -0.04660492 -3.0552201e-21)
(0.61029674 -0.044447266 9.9148091e-21)
(0.62131084 -0.042325684 7.3335441e-21)
(0.63235517 -0.04024835 1.4994298e-21)
(0.64340799 -0.03822223 -1.9767314e-21)
(0.65444929 -0.036253149 5.3834926e-21)
(0.66546079 -0.034345859 9.7734996e-21)
(0.6764259 -0.032504121 2.5818317e-21)
(0.68732971 -0.030730781 4.4736402e-21)
(0.69815891 -0.02902786 2.4253008e-21)
(0.70890177 -0.027396637 1.0656101e-21)
(0.71954805 -0.025837742 -2.1090206e-22)
(0.73008897 -0.024351243 3.8034692e-21)
(0.74051713 -0.022936741 8.4149495e-22)
(0.75082654 -0.021593456 3.6492019e-22)
(0.76101245 -0.020320344 5.8249898e-23)
(0.77107177 -0.019116145 1.6307925e-21)
(0.78100191 -0.017979714 3.3175406e-23)
(0.79080487 -0.016909524 8.2618877e-22)
(0.80047526 -0.015906019 -1.2563345e-22)
(0.81003809 -0.014965383 -6.24006e-22)
(0.81943871 -0.014100802 -2.8577405e-22)
(0.82886997 -0.013280457 -7.7140809e-22)
(0.83783371 -0.012623775 3.7009562e-22)
(0.84784112 -0.011822877 -2.2131638e-22)
(0.85478533 -0.011888038 -3.4710851e-22)
(0.86996047 -0.01031323 3.4605244e-22)
(0.56162448 -0.060277069 3.0591006e-21)
(0.55334847 -0.066993689 -2.0077685e-20)
(0.55145187 -0.071088518 -3.1115465e-21)
(0.55220301 -0.073075359 6.1125705e-21)
(0.55241682 -0.074716076 4.6078047e-21)
(0.5526203 -0.076083468 1.8289438e-21)
(0.55348609 -0.076974042 9.0709043e-21)
(0.55501578 -0.07739917 9.1628455e-21)
(0.55711391 -0.077420656 1.0587167e-20)
(0.55977977 -0.077079725 -1.3024765e-20)
(0.56302663 -0.076410805 -2.551297e-20)
(0.56684352 -0.075448366 -5.6052459e-21)
(0.57120729 -0.074225993 1.8475288e-20)
(0.57609214 -0.072776008 1.4541882e-20)
(0.58147 -0.071129245 -5.4402068e-21)
(0.5873101 -0.069314785 -8.445473e-24)
(0.59357978 -0.067359934 -5.2008932e-21)
(0.60024545 -0.065290265 4.7205185e-21)
(0.60727321 -0.063129604 -2.975331e-22)
(0.61462926 -0.060900012 -2.1669201e-21)
(0.62228036 -0.058621793 9.7897235e-21)
(0.63019407 -0.05631352 -8.6870898e-22)
(0.63833909 -0.053992054 9.5298684e-22)
(0.64668538 -0.051672581 -8.832482e-23)
(0.65520437 -0.049368649 -4.9119547e-21)
(0.66386906 -0.047092222 4.776855e-21)
(0.67265409 -0.044853734 1.7301009e-21)
(0.68153577 -0.042662164 -3.7022661e-21)
(0.69049211 -0.040525105 -4.0166343e-21)