/*--------------------------------*- C++ -*----------------------------------*\
  =========                 |
  \\      /  F ield         | OpenFOAM: The Open Source CFD Toolbox
   \\    /   O peration     | Website:  https://openfoam.org
    \\  /    A nd           | Version:  6
     \\/     M anipulation  |
\*---------------------------------------------------------------------------*/
FoamFile
{
    version     2.0;
    format      ascii;
    class       volVectorField;
    location    "46";
    object      U_0;
}
// * * * * * * * * * * * * * * * * * * * * * * * * * * * * * * * * * * * * * //

dimensions      [0 1 -1 0 0 0 0];

internalField   nonuniform List<vector> 
9200
(
(0.00106974 0.0014039 -5.943719e-20)
(0.013808147 -0.0021282804 4.6254628e-20)
(0.038599735 -0.0059890448 -3.8668956e-20)
(0.0727577 -0.0099392327 -6.0509554e-20)
(0.11447949 -0.013720455 1.8917486e-20)
(0.16255649 -0.016891526 3.2889785e-20)
(0.21593169 -0.019158975 -1.2331605e-20)
(0.27362847 -0.020371874 9.3183124e-21)
(0.33473157 -0.020466325 1.6870031e-20)
(0.39835506 -0.019442653 1.4915436e-21)
(0.46361852 -0.017354026 -2.1562727e-20)
(0.52963773 -0.01429551 2.0776971e-20)
(0.59552723 -0.010393218 -4.0619051e-20)
(0.66041285 -0.0057932233 -2.1255757e-20)
(0.72345284 -0.00064973979 5.9367345e-21)
(0.78386483 0.004884631 -2.5296819e-20)
(0.84097222 0.010682303 2.5403231e-20)
(0.89432881 0.016789075 2.2492614e-20)
(0.9435361 0.023337913 -2.5098585e-22)
(0.98587966 0.026959546 -1.6074982e-21)
(0.005303861 -0.0013741637 -1.71269e-20)
(0.027158363 -0.0090881376 3.991885e-20)
(0.062063914 -0.014971031 2.3677639e-20)
(0.10692855 -0.019390989 -1.1614754e-19)
(0.15964216 -0.022487795 -1.278403e-20)
(0.21873857 -0.024047453 7.3574839e-20)
(0.2828944 -0.023973227 -3.5623275e-20)
(0.35085305 -0.022297772 -8.4246625e-21)
(0.42141172 -0.019125452 3.4438895e-20)
(0.49339746 -0.014613616 -4.3464679e-20)
(0.56565582 -0.0089646714 -3.0501012e-20)
(0.63705764 -0.0024157389 7.2348976e-20)
(0.70651936 0.0047730747 3.8517773e-20)
(0.77303243 0.012330334 -6.8428207e-20)
(0.8356977 0.019983292 1.473664e-20)
(0.8937591 0.027462653 -3.7012948e-20)
(0.94664547 0.034516752 -1.3859184e-20)
(0.99407147 0.040984794 7.1638533e-20)
(1.0359077 0.046452006 3.004554e-20)
(1.0703628 0.047781467 -8.3907281e-20)
(0.010935828 -0.004080501 3.6906117e-20)
(0.044223931 -0.01555386 2.5128576e-21)
(0.091030897 -0.022742587 2.2439451e-20)
(0.14791058 -0.026745044 9.8473533e-22)
(0.21245354 -0.028185351 -4.0955959e-20)
(0.28290903 -0.027141001 1.8638149e-20)
(0.35765036 -0.023772542 1.3479878e-20)
(0.4351057 -0.018354367 -5.0541092e-20)
(0.51376161 -0.011212699 5.7523345e-20)
(0.59215832 -0.0027084631 1.4343654e-20)
(0.66890014 0.0067704596 -5.4616729e-20)
(0.74268437 0.016822869 -1.8371211e-20)
(0.81234017 0.027050796 9.0394731e-21)
(0.8768698 0.037075926 2.3619177e-20)
(0.93548521 0.04655379 -1.1467433e-20)
(0.98763294 0.055183072 2.8094821e-20)
(1.0330088 0.062720095 -2.0331884e-20)
(1.0715894 0.069026183 -7.0744961e-20)
(1.1035103 0.073829953 -2.4039256e-20)
(1.1279209 0.07525156 4.8952839e-20)
(0.018064554 -0.0064679777 2.4589963e-20)
(0.065131677 -0.020833443 5.1222965e-20)
(0.12550077 -0.028267265 1.9950483e-20)
(0.19544421 -0.030723178 1.3023212e-20)
(0.27226959 -0.029397739 1.7330638e-20)
(0.35392256 -0.024729708 -4.7898832e-20)
(0.43845366 -0.017201581 -2.5751495e-20)
(0.52397271 -0.0073874428 0)
(0.60868105 0.004117679 1.4035853e-20)
(0.69089619 0.016717548 -5.9290505e-21)
(0.76908947 0.029826302 -9.8494412e-20)
(0.84193555 0.042888293 -1.5835762e-20)
(0.90836161 0.055400435 6.5588963e-20)
(0.96758632 0.066932074 4.2664327e-22)
(1.0191414 0.077139737 -1.5847842e-21)
(1.0628706 0.085774674 2.213294e-20)
(1.0989087 0.092690134 -5.3213887e-21)
(1.127657 0.097870054 -6.1524816e-20)
(1.1496675 0.10128914 -4.6263833e-20)
(1.1649176 0.10200212 6.9967817e-20)
(0.026720317 -0.0082558825 -3.9278631e-21)
(0.089789986 -0.024178063 -5.1403395e-21)
(0.16509575 -0.030471909 5.6784798e-20)
(0.24873371 -0.030060408 1.8596657e-20)
(0.33776603 -0.024796398 -3.2066953e-20)
(0.42984114 -0.015550391 1.2206734e-20)
(0.52270697 -0.0031877342 2.6517132e-21)
(0.61420732 0.011371746 3.3785128e-20)
(0.70235275 0.027238748 5.6906044e-21)
(0.78537869 0.043581133 -1.3311477e-20)
(0.86180574 0.059641543 6.0607553e-20)
(0.93049679 0.074762523 -5.834603e-20)
(0.99069726 0.088410255 -1.3308711e-19)
(1.0420491 0.10019036 -5.6183336e-21)
(1.0845758 0.10985344 8.3800484e-20)
(1.1186385 0.11728958 0)
(1.1448715 0.12251802 1.0188333e-20)
(1.1641125 0.12569013 -1.558288e-20)
(1.1772877 0.1269896 -8.6720973e-21)
(1.184966 0.12603947 2.1136907e-20)
(0.036843993 -0.0091399715 -5.4334316e-21)
(0.1178562 -0.024824126 4.3712069e-21)
(0.20904757 -0.028330157 -8.7897058e-21)
(0.30648187 -0.023635234 2.856214e-20)
(0.40704851 -0.013315989 -2.950243e-20)
(0.50814958 0.0012658309 -1.6995914e-20)
(0.60730956 0.018819782 3.7483693e-20)
(0.70222895 0.038063776 4.7661579e-21)
(0.79089594 0.057828312 -2.4625594e-20)
(0.87167073 0.077091369 7.0279137e-20)
(0.94335188 0.09499917 4.7249463e-22)
(1.0052175 0.11088928 -8.1031158e-20)
(1.0570305 0.12430485 0)
(1.099005 0.13499386 3.9858319e-20)
(1.1317387 0.14289324 5.5708313e-21)
(1.1561203 0.14810019 -7.814334e-20)
(1.1732262 0.15083856 -1.9730911e-20)
(1.1842226 0.15143607 -1.2559678e-20)
(1.1902582 0.15023853 -1.4822147e-20)
(1.192195 0.14720564 4.0713088e-20)
(0.048273442 -0.0088131442 -1.7315994e-20)
(0.1487192 -0.022052142 -2.2538182e-21)
(0.25620486 -0.02095271 3.0459042e-20)
(0.36694711 -0.01058191 3.7577954e-20)
(0.4777811 0.005725809 -2.0012285e-20)
(0.58597178 0.026086382 -6.9460347e-20)
(0.68896755 0.048779714 -2.8151111e-20)
(0.78451777 0.072192683 7.9332784e-20)
(0.87081506 0.094943084 8.6644313e-21)
(0.94658619 0.11591781 -2.4996171e-20)
(1.0111378 0.13428661 1.3681463e-20)
(1.0643539 0.14950912 -4.3662883e-21)
(1.1066431 0.16132433 0)
(1.1388436 0.16971973 2.7387464e-20)
(1.1621018 0.1748845 -7.986771e-20)
(1.177741 0.1771535 -3.1692797e-20)
(1.1871378 0.1769521 8.1616428e-20)
(1.191622 0.17475569 -4.3395166e-21)
(1.1923931 0.17101328 3.5768804e-21)
(1.1903715 0.16587039 2.7319756e-20)
(0.060737031 -0.0069932093 -3.2483033e-20)
(0.18150441 -0.015258788 -8.1860907e-20)
(0.30507694 -0.0076857201 2.5479934e-21)
(0.42804572 0.0096045366 7.0405691e-20)
(0.54735961 0.03253862 6.2658736e-20)
(0.66031778 0.058726322 -7.1827161e-20)
(0.76450336 0.086068081 -2.3921285e-22)
(0.85795764 0.11271028 8.6014319e-20)
(0.93933004 0.13718169 4.9095895e-20)
(1.0079466 0.15842192 -5.4558979e-20)
(1.0638059 0.17577123 -9.2907098e-20)
(1.1075095 0.18894359 -3.1788867e-21)
(1.1401407 0.19797646 4.2395751e-20)
(1.1631104 0.20316054 -6.6500063e-21)
(1.1779973 0.20495991 -1.2949063e-20)
(1.1864006 0.20393314 1.9806993e-20)
(1.1898235 0.20066603 4.4166267e-20)
(1.1895954 0.19572608 -4.4135881e-20)
(1.1868272 0.18960215 -1.0301276e-19)
(1.1823509 0.18252823 2.4760301e-20)
(0.073824083 -0.0034536523 -3.5086938e-20)
(0.21503514 -0.004033252 -1.7425973e-19)
(0.35380971 0.011805571 8.2410527e-20)
(0.48735689 0.037005702 9.3101378e-20)
(0.61295505 0.066839194 5.8180877e-20)
(0.72816544 0.098486686 8.651213e-21)
(0.83096034 0.12958334 -1.0672839e-19)
(0.91993242 0.15818561 0)
(0.9944211 0.18290346 -6.9180356e-20)
(1.0545286 0.20289878 -1.5307491e-20)
(1.1010437 0.21783103 5.5029228e-20)
(1.1352965 0.22777962 1.1042778e-20)
(1.1589742 0.23314483 -4.5888004e-20)
(1.1739278 0.23453776 -4.9370838e-20)
(1.1819997 0.23267457 2.4443899e-20)
(1.1848899 0.22828687 4.5111952e-20)
(1.1840703 0.22205658 -5.5954491e-20)
(1.1807461 0.21457867 -1.0818135e-19)
(1.1758572 0.20632606 -3.1499013e-21)
(1.1700773 0.19756349 2.7214496e-20)
(0.086968293 0.0019608368 -3.5801806e-21)
(0.24783661 0.01182757 8.8164418e-20)
(0.40022265 0.037539788 -1.6373948e-20)
(0.54220933 0.071303693 -8.4681527e-20)
(0.67165252 0.10789777 4.5356278e-20)
(0.78663339 0.14422472 4.9337931e-20)
(0.88577319 0.17783853 5.5643594e-21)
(0.96844667 0.2069107 -1.0001271e-19)
(1.0348534 0.23033227 -2.5188411e-21)
(1.085959 0.24765859 5.0797902e-20)
(1.123339 0.25899259 6.0208791e-21)
(1.1489672 0.26484751 -1.9834137e-20)
(1.1649893 0.26600015 -7.6138814e-20)
(1.1735211 0.26335131 -6.2826464e-21)
(1.1764932 0.25780952 4.3777696e-20)
(1.1755543 0.25020749 3.7228495e-20)
(1.1720319 0.24125315 1.988863e-20)
(1.166939 0.23151078 -5.3358124e-20)
(1.1610148 0.22139774 1.2969482e-20)
(1.1547606 0.21117999 8.3125405e-20)
(-0.0012995365 0.0014415818 -1.1247957e-21)
(-0.0047682551 0.0032018469 2.0727e-21)
(-0.010819849 0.0041536419 8.9455653e-22)
(-0.017831401 0.0045578906 -2.4361868e-21)
(-0.024844061 0.0045825936 -1.4305529e-21)
(-0.03142605 0.0043408047 1.5661376e-21)
(-0.037305394 0.0039150371 -6.9260298e-21)
(-0.042303209 0.0033653444 -6.0068033e-21)
(-0.046318829 0.0027346731 1.1260493e-20)
(-0.049305785 0.0020534273 -9.8204221e-21)
(-0.051251805 0.0013428829 -1.9911178e-22)
(-0.052165953 0.00061768485 3.6991551e-21)
(-0.052070191 -0.00011226019 -6.3738025e-22)
(-0.050993618 -0.00084027248 2.3017639e-20)
(-0.048968848 -0.0015615268 3.0437437e-22)
(-0.046031467 -0.002271589 -4.1262607e-20)
(-0.042222371 -0.0029658249 7.6152615e-21)
(-0.037579477 -0.0036421652 2.4096355e-20)
(-0.032110525 -0.0042991279 -4.4294603e-20)
(-0.025874557 -0.0048883219 -2.8026619e-20)
(-0.0016598831 0.0042007177 -5.4032614e-21)
(-0.0054214889 0.0093093787 1.0904105e-20)
(-0.01126595 0.012057957 -1.0245037e-20)
(-0.017729328 0.01320575 3.9640057e-21)
(-0.023948155 0.013243637 4.8602368e-21)
(-0.0295403 0.012503574 7.1945074e-22)
(-0.034268311 0.011227969 -2.269187e-20)
(-0.037978353 0.009593154 -2.051855e-21)
(-0.040586707 0.0077251905 2.0318253e-20)
(-0.042057829 0.0057132849 -5.0865265e-21)
(-0.0423861 0.0036198075 -2.1936166e-20)
(-0.041584168 0.0014876207 4.9369253e-21)
(-0.039675344 -0.00065438067 2.281553e-20)
(-0.036688276 -0.0027868368 1.0396348e-20)
(-0.032653145 -0.0048958788 2.205317e-20)
(-0.027602108 -0.0069690079 -1.994964e-20)
(-0.021579064 -0.0089932719 -2.1871406e-20)
(-0.014631008 -0.010962121 2.1399413e-20)
(-0.0066920319 -0.012860996 2.7071403e-20)
(0.0024282964 -0.014523263 1.5999173e-20)
(-0.0023134855 0.0065903824 -4.3820452e-21)
(-0.006565743 0.014542357 -5.6542189e-21)
(-0.011936492 0.018786149 3.0560268e-22)
(-0.017269974 0.020505109 1.0854565e-21)
(-0.021886355 0.020470335 6.7345686e-21)
(-0.025499086 0.019209023 1.0732579e-20)
(-0.027937703 0.017106946 -3.750235e-21)
(-0.029097067 0.014444811 -1.9028499e-20)
(-0.028926519 0.011423515 6.5889819e-21)
(-0.027412115 0.008185378 1.2957544e-20)
(-0.02456183 0.0048299435 5.884715e-21)
(-0.020396305 0.0014255501 1.8293009e-20)
(-0.014942836 -0.0019819935 1.7433635e-21)
(-0.0082309884 -0.0053625159 -3.4132512e-20)
(-0.00028876994 -0.0086948527 1.2222658e-21)
(0.0088558222 -0.01196031 -2.2307119e-20)
(0.019151813 -0.015141372 -2.469858e-20)
(0.03053092 -0.018229325 4.6255051e-20)
(0.043183236 -0.021170917 2.5606805e-20)
(0.057789555 -0.023603035 1.4360149e-22)
(-0.0031416712 0.0084055243 -5.3155505e-21)
(-0.0079247208 0.018410803 -8.5627122e-21)
(-0.012476733 0.023676958 4.3806621e-21)
(-0.016065272 0.025698412 4.172144e-21)
(-0.018264806 0.025460541 2.0211297e-21)
(-0.018922736 0.023648709 7.3721314e-21)
(-0.01796375 0.020765927 9.3752393e-21)
(-0.015352791 0.01717837 -1.3606969e-21)
(-0.011087773 0.013148601 -1.1559283e-20)
(-0.0051877074 0.0088629935 -2.927452e-20)
(0.0023172605 0.0044520313 6.58978e-23)
(0.011391177 5.2816241e-06 4.0989769e-20)
(0.021996803 -0.0044177859 -1.8507855e-20)
(0.03409721 -0.0087785155 -1.2388968e-20)
(0.047660008 -0.013051035 5.4470484e-22)
(0.062655569 -0.017214581 3.2568295e-20)
(0.0790206 -0.021254553 -1.4977858e-20)
(0.096647813 -0.025169598 -5.3785772e-20)
(0.11585985 -0.028841972 4.6151371e-20)
(0.13804304 -0.031589662 3.330039e-20)
(-0.0039849376 0.0095041805 -6.8585395e-22)
(-0.0091191633 0.020563859 -1.2600485e-20)
(-0.012390071 0.026248019 -3.4353119e-20)
(-0.013561851 0.02822817 -5.7672578e-21)
(-0.012511843 0.027623713 -3.6347155e-21)
(-0.0092500334 0.025232038 6.3446591e-21)
(-0.0038188482 0.021640408 -4.6765226e-21)
(0.0037281403 0.017276284 -8.860463e-21)
(0.013329507 0.012446697 2.2033375e-20)
(0.02492047 0.0073698986 5.0833089e-21)
(0.038437575 0.002199085 -2.5467865e-20)
(0.053818924 -0.0029605254 1.1145704e-20)
(0.071004745 -0.0080391754 0)
(0.089938038 -0.012992881 1.2173759e-20)
(0.11056776 -0.017794644 -9.7712093e-21)
(0.13284787 -0.022426857 -1.4450784e-20)
(0.15668966 -0.026888256 -1.5510628e-21)
(0.18192413 -0.031205632 -2.2491961e-21)
(0.20896728 -0.035193092 4.6471524e-20)
(0.24006738 -0.037704626 -1.0603224e-20)
(-0.0046598919 0.0098167401 -7.570524e-21)
(-0.0096992899 0.020815251 2.4653946e-20)
(-0.011070013 0.026235568 -1.0564551e-20)
(-0.0090654085 0.027789066 -2.7620577e-20)
(-0.0038920119 0.02664383 -2.7689202e-20)
(0.0042588827 0.023658975 -1.5004497e-20)
(0.015210294 0.019468754 -6.9486163e-22)
(0.028804184 0.014533602 5.5790334e-21)
(0.044901334 0.0091848346 1.9720569e-20)
(0.06337741 0.0036588111 7.395007e-21)
(0.084118497 -0.0018784758 -7.2255051e-21)
(0.10701892 -0.0073130212 -2.013043e-21)
(0.13197755 -0.012569824 -3.8431634e-20)
(0.15889527 -0.017603312 -1.2774952e-20)
(0.18767674 -0.022389081 1.8894144e-20)
(0.21823141 -0.026917932 -2.1179946e-20)
(0.25042133 -0.031212646 -9.0375043e-21)
(0.28398921 -0.035357342 3.0631023e-20)
(0.31936874 -0.039132708 5.0811092e-20)
(0.35972935 -0.040811986 3.3834644e-21)
(-0.0049744176 0.0093434213 1.6855483e-20)
(-0.0091762782 0.019147054 1.45312e-20)
(-0.0078348415 0.023610872 5.1402429e-20)
(-0.0017727246 0.024358606 2.351444e-20)
(0.0084668286 0.022523599 1.8352195e-22)
(0.022501084 0.018975533 -3.9595296e-20)
(0.040006547 0.014356839 -2.4442115e-20)
(0.060708263 0.0091319238 1.0516977e-20)
(0.084371475 0.0036343136 1.4475491e-20)
(0.11079127 -0.0018982256 -1.3173217e-20)
(0.13978198 -0.0072991249 -4.4283761e-20)
(0.17116848 -0.012455133 2.97888e-20)
(0.20477866 -0.017293494 2.0126038e-20)
(0.24043765 -0.021773195 -2.7715478e-20)
(0.27796763 -0.025878242 1.1728193e-20)
(0.31719137 -0.029614388 2.4350325e-20)
(0.35788432 -0.03303841 8.1318626e-21)
(0.39967167 -0.036323575 -1.1860638e-20)
(0.44291126 -0.039296501 -1.4258465e-20)
(0.49162593 -0.039626914 5.9897442e-21)
(-0.0047382494 0.008143663 1.1146588e-20)
(-0.0070483569 0.015695188 -2.3484723e-20)
(-0.001962238 0.018572436 8.6465928e-21)
(0.0091888529 0.018199453 3.3760565e-20)
(0.025530259 0.015596667 5.2380152e-20)
(0.046484173 0.011595647 2.0376017e-20)
(0.071571057 0.0068097008 -5.8957574e-21)
(0.1003805 0.0016758628 -1.2340408e-20)
(0.13256143 -0.0034938383 -6.242493e-21)
(0.16780244 -0.0084790499 3.4412926e-20)
(0.2058138 -0.013128371 -4.5470595e-21)
(0.2463134 -0.017342647 -1.6739351e-20)
(0.28901563 -0.021063231 -1.9792588e-20)
(0.33362325 -0.024264661 -4.7715802e-20)
(0.37982599 -0.02695003 2.337292e-20)
(0.42730823 -0.029151009 -1.4184491e-20)
(0.47571518 -0.030971489 2.6174019e-20)
(0.52453638 -0.032709868 2.1181852e-20)
(0.57397996 -0.034365002 -8.6014053e-20)
(0.62872691 -0.033166566 -8.1841957e-23)
(-0.0037698681 0.0063232506 2.2019179e-20)
(-0.0028257519 0.010729001 -2.6300087e-20)
(0.0072661632 0.011531073 -4.5222087e-20)
(0.024695322 0.0098548853 -2.7384635e-20)
(0.048268917 0.0065370047 -2.0535343e-21)
(0.07720877 0.0023241409 1.3102335e-20)
(0.11086526 -0.0022374685 -2.8396522e-21)
(0.14867293 -0.0067690277 1.819765e-20)
(0.19013534 -0.011006538 8.9028358e-21)
(0.23479794 -0.014769898 -1.1431783e-20)
(0.28222361 -0.01794327 8.9354919e-21)
(0.33197459 -0.02046038 -2.4023284e-20)
(0.38359924 -0.022294024 8.1061097e-21)
(0.43662303 -0.023449566 1.6852699e-20)
(0.49054698 -0.02396106 -2.6546777e-21)
(0.54485724 -0.023893373 1.6696356e-21)
(0.59900826 -0.023397799 -3.1329968e-22)
(0.65232691 -0.022881618 1.9715668e-20)
(0.7048315 -0.022542996 4.0674982e-21)
(0.76161949 -0.019691153 -7.0622018e-22)
(-0.0018973737 0.0040236676 2.3802974e-20)
(0.0039496139 0.0046383279 5.7441453e-20)
(0.02051184 0.0031093855 -4.9466062e-20)
(0.045531533 0.00016978442 -9.9905444e-21)
(0.077509335 -0.0035998989 2.0340624e-20)
(0.11546156 -0.0075839762 2.1524253e-21)
(0.15855167 -0.0113425 -2.9939308e-20)
(0.20603091 -0.014590825 7.0078889e-21)
(0.25721957 -0.017145534 7.1503355e-21)
(0.31147494 -0.018897281 -2.6378629e-20)
(0.3681637 -0.019795146 1.3013138e-21)
(0.42664427 -0.019834002 -3.7364887e-20)
(0.48625654 -0.019044235 -3.6540487e-20)
(0.54631794 -0.017483513 6.6072034e-20)
(0.60612551 -0.015229534 5.5988083e-21)
(0.66496232 -0.01237926 -1.5309099e-20)
(0.72208183 -0.0090905679 1.948374e-20)
(0.77663277 -0.0056699578 -9.2470616e-22)
(0.82813537 -0.0021381639 2.0425188e-20)
(0.88032375 0.0030586698 -1.9756234e-20)
(-0.018450203 -0.0051724131 5.8984042e-20)
(-0.0097115174 -0.0057157697 1.5945384e-20)
(0.00043936027 -0.006157685 -3.552388e-20)
(0.011650218 -0.0064297618 1.6997973e-20)
(0.023654192 -0.0066141827 0)
(0.036393347 -0.0067385926 0)
(0.049808993 -0.0068056289 -2.3268914e-20)
(0.063822195 -0.0068231013 -1.6714811e-20)
(0.078363295 -0.0068004286 1.9398086e-20)
(0.093373668 -0.0067444236 1.8436515e-20)
(0.1087993 -0.0066602916 1.0632118e-21)
(0.12458938 -0.0065526151 -1.0462676e-20)
(0.14069672 -0.0064253787 8.4787409e-21)
(0.15707728 -0.0062819582 1.8504725e-20)
(0.17368963 -0.006125248 -5.3435663e-21)
(0.19049459 -0.0059577679 -1.0330858e-20)
(0.20745506 -0.0057817261 -4.3866114e-21)
(0.22453583 -0.0055990717 -4.4800293e-21)
(0.24170357 -0.0054115394 7.4256213e-22)
(0.25892675 -0.0052206852 1.2545858e-21)
(0.27617566 -0.0050279125 2.6419182e-21)
(0.29342252 -0.0048344924 6.8023865e-21)
(0.31064154 -0.0046415786 2.184942e-22)
(0.32780902 -0.0044502185 -3.5450357e-21)
(0.34490349 -0.0042613611 1.5102307e-22)
(0.36190584 -0.0040758639 -5.9561685e-22)
(0.37879944 -0.0038944973 1.2874653e-21)
(0.3955703 -0.0037179501 1.0754541e-21)
(0.41220719 -0.003546834 -1.3920363e-21)
(0.42870179 -0.0033816888 -1.1846728e-22)
(0.44504885 -0.0032229884 -1.5978157e-23)
(0.46124635 -0.0030711471 -3.7568616e-22)
(0.47729569 -0.0029265275 -4.6463471e-22)
(0.49320196 -0.002789448 9.5476275e-23)
(0.50897413 -0.0026601914 -1.5362999e-22)
(0.52462545 -0.002539014 -2.4574889e-22)
(0.54017378 -0.0024261531 2.8798822e-22)
(0.55564216 -0.0023218343 3.3856813e-22)
(0.57105906 -0.0022262807 -4.2213954e-23)
(0.58645994 -0.0021397058 -2.3587564e-22)
(0.60188502 -0.002062359 2.6334946e-23)
(0.61738943 -0.0019943997 -4.3798145e-23)
(0.63301537 -0.0019363343 1.473248e-22)
(0.64888087 -0.0018877272 -1.6090815e-23)
(0.6649212 -0.0018514066 -2.8885756e-22)
(0.68165562 -0.0018209847 -3.1270142e-24)
(0.6979872 -0.0018198733 1.4993725e-23)
(0.7175147 -0.0017874761 -2.4233619e-23)
(0.73078635 -0.0019125606 3.2083234e-23)
(0.76392873 -0.0017794375 7.1354348e-22)
(0.011124245 -0.015239698 -1.2904512e-20)
(0.018988135 -0.016886593 -6.3968426e-20)
(0.028740989 -0.018184283 -3.0908188e-20)
(0.039519495 -0.018960838 3.8931112e-20)
(0.050944478 -0.019491171 1.4842621e-20)
(0.063037212 -0.01985559 -1.8458283e-20)
(0.075769881 -0.020054021 4.766308e-21)
(0.089066324 -0.020107943 2.5774747e-20)
(0.10286425 -0.020045432 6.048311e-23)
(0.11711437 -0.019886031 -7.7817798e-21)
(0.13176958 -0.019644381 -1.3155447e-20)
(0.14678431 -0.019333591 -8.6820937e-21)
(0.16211581 -0.018965149 1.803403e-20)
(0.17772379 -0.018548798 9.1746295e-21)
(0.19356986 -0.018092911 -1.6722334e-20)
(0.20961736 -0.01760481 -6.1348781e-21)
(0.2258312 -0.017090943 3.2496183e-21)
(0.2421779 -0.016557024 8.4826582e-21)
(0.25862549 -0.016008156 7.1255395e-21)
(0.2751436 -0.015448936 -7.1728018e-21)
(0.29170346 -0.01488352 -3.3197741e-21)
(0.30827806 -0.014315688 1.471487e-21)
(0.32484224 -0.013748875 4.9940448e-22)
(0.34137279 -0.013186209 1.2711006e-21)
(0.35784863 -0.01263053 2.1486956e-22)
(0.37425095 -0.012084409 -3.6423328e-22)
(0.39056332 -0.011550159 -7.7714804e-22)
(0.40677184 -0.011029852 1.0874018e-21)
(0.42286532 -0.010525332 9.1239262e-22)
(0.4388354 -0.010038228 -2.4054481e-22)
(0.45467669 -0.0095699733 6.3722436e-22)
(0.470387 -0.0091218245 -2.5491863e-22)
(0.48596747 -0.0086948819 -4.5380096e-22)
(0.50142284 -0.0082901144 -7.1601062e-22)
(0.5167617 -0.0079083843 4.9126132e-22)
(0.53199682 -0.0075504725 -1.1484243e-22)
(0.54714553 -0.0072171044 2.6716465e-22)
(0.56223025 -0.006908968 -6.0624612e-22)
(0.57727874 -0.0066267445 6.0230045e-22)
(0.59232568 -0.0063710851 8.8101864e-23)
(0.60741041 -0.0061427493 -9.6613935e-23)
(0.62258705 -0.0059422268 3.4578768e-22)
(0.63789683 -0.0057710505 5.0013923e-22)
(0.65345609 -0.0056279262 4.0957188e-22)
(0.66920019 -0.0055213507 4.7381405e-22)
(0.68564243 -0.0054322006 -6.0056758e-23)
(0.70169755 -0.0054305528 3.4016838e-22)
(0.72092203 -0.0053351903 3.4308064e-22)
(0.73397827 -0.0057097837 -5.0042247e-22)
(0.76665522 -0.0053145401 -8.4919766e-24)
(0.06882543 -0.024409842 9.5618399e-21)
(0.074936111 -0.027166175 3.3556692e-21)
(0.083774761 -0.02925942 -1.2367106e-20)
(0.093639613 -0.030453594 -1.2695457e-21)
(0.10387128 -0.031282491 1.5182112e-20)
(0.11464666 -0.031874928 -1.5073678e-20)
(0.12600668 -0.032208757 -3.0262762e-20)
(0.1378767 -0.032313293 1.4723076e-20)
(0.15020546 -0.032234654 1.846904e-20)
(0.16296104 -0.032003067 -1.1785948e-20)
(0.17610889 -0.031640131 1.0340254e-21)
(0.18961248 -0.031165744 8.7471276e-21)
(0.20343674 -0.030597719 -1.5534814e-20)
(0.21754787 -0.029951207 3.1099626e-21)
(0.23191273 -0.029239295 7.6887244e-21)
(0.24649885 -0.028473529 -8.6480876e-23)
(0.26127462 -0.027664168 1.9124031e-22)
(0.27620936 -0.026820375 -7.6176773e-21)
(0.2912734 -0.025950398 4.1009408e-21)
(0.30643821 -0.02506171 8.7353016e-21)
(0.32167656 -0.024161118 -3.9580762e-21)
(0.33696266 -0.023254837 -2.2653161e-21)
(0.35227232 -0.022348547 9.9874739e-22)
(0.3675831 -0.021447439 -1.8049591e-21)
(0.38287452 -0.020556241 1.3925108e-21)
(0.39812815 -0.019679246 7.4156557e-22)
(0.41332783 -0.01882033 1.7522143e-21)
(0.42845977 -0.017982977 -2.1995782e-21)
(0.44351275 -0.017170292 2.5315444e-21)
(0.45847825 -0.016385029 6.2394051e-22)
(0.47335061 -0.015629621 5.9027131e-22)
(0.48812721 -0.014906204 3.4282927e-22)
(0.50280866 -0.01421666 1.1060116e-21)
(0.51739907 -0.013562649 -1.7481266e-21)
(0.53190623 -0.012945656 4.9766642e-22)
(0.54634202 -0.01236703 2.4519842e-22)
(0.56072273 -0.011828024 -9.3684188e-23)
(0.57506961 -0.01132983 3.0794879e-23)
(0.5894091 -0.010873628 -5.4291099e-22)
(0.60377437 -0.010460546 3.1538781e-22)
(0.6182031 -0.01009189 -4.6354686e-23)
(0.63274746 -0.009768518 8.5600611e-22)
(0.64744681 -0.0094930263 -4.2677357e-22)
(0.66241433 -0.0092633021 7.8294979e-23)
(0.67758541 -0.0090935086 1.4135767e-22)
(0.69346214 -0.0089519714 -2.1624736e-22)
(0.70898122 -0.0089547112 -4.4934903e-22)
(0.72761816 -0.0088022677 1.3905042e-21)
(0.74025569 -0.0094234956 4.4680065e-22)
(0.77202837 -0.0087797141 -1.6398105e-21)
(0.15211217 -0.03201105 1.5345412e-21)
(0.15558666 -0.035853429 -1.1652143e-20)
(0.16282786 -0.038653925 6.680419e-21)
(0.1712105 -0.040162383 -1.3474878e-20)
(0.1795905 -0.041242195 -1.9992028e-21)
(0.18834875 -0.042062171 9.3109953e-21)
(0.1976432 -0.042554813 -9.9703971e-21)
(0.20739693 -0.042747764 1.5256708e-21)
(0.21756651 -0.04270286 1.3080238e-20)
(0.22814257 -0.042458526 3.4954889e-21)
(0.23910702 -0.042040137 -6.2996752e-21)
(0.25043392 -0.041471765 -2.9544508e-21)
(0.26209708 -0.040775748 -5.8588318e-21)
(0.27407032 -0.039971364 -6.6040232e-21)
(0.28632657 -0.039075399 3.1887751e-21)
(0.29883814 -0.038102853 7.3459681e-22)
(0.31157724 -0.037067239 1.4406563e-21)
(0.32451627 -0.035980785 -3.4489503e-21)
(0.33762802 -0.034854618 -4.4278081e-21)
(0.3508859 -0.033698921 2.4654491e-21)
(0.36426423 -0.032523045 3.4046353e-21)
(0.37773843 -0.03133559 -1.7069525e-21)
(0.39128525 -0.030144468 1.6766174e-21)
(0.40488295 -0.028956943 -4.5555639e-22)
(0.41851152 -0.027779668 -4.2562607e-21)
(0.43215281 -0.026618702 -3.191469e-21)
(0.44579078 -0.025479542 -2.5480777e-22)
(0.45941159 -0.024367141 3.8936885e-22)
(0.4730038 -0.023285935 -2.3660864e-21)
(0.48655852 -0.022239875 -1.0660964e-21)
(0.50006957 -0.02123246 2.4134719e-22)
(0.51353368 -0.020266784 -1.5000391e-21)
(0.52695064 -0.019345577 -5.0020341e-23)
(0.54032358 -0.018471267 -5.6445994e-22)
(0.55365919 -0.01764603 -5.2508143e-22)
(0.56696805 -0.01687185 -8.0209543e-22)
(0.58026499 -0.016150579 -1.2838666e-21)
(0.5935696 -0.015483976 -2.2010038e-23)
(0.60690647 -0.014873781 -4.793243e-24)
(0.62030666 -0.014321659 -8.6526407e-22)
(0.63380553 -0.013829523 -3.8850763e-23)
(0.64745248 -0.013398653 -6.6502996e-22)
(0.66128425 -0.01303276 -1.0309035e-21)
(0.67540951 -0.012728992 8.9752604e-22)
(0.68976368 -0.012507111 3.0923191e-23)
(0.70483277 -0.012323345 5.3506697e-22)
(0.719585 -0.012338048 -4.953099e-22)
(0.73737903 -0.012138572 -9.2144837e-22)
(0.74941595 -0.013000236 1.6222279e-22)
(0.77988514 -0.012131552 9.3847959e-22)
(0.2573202 -0.037280893 -2.1133883e-20)
(0.25725396 -0.042172001 4.8025427e-20)
(0.26203391 -0.045577386 1.043654e-20)
(0.26824447 -0.047320737 -1.5937355e-20)
(0.27407815 -0.048638101 -2.0824379e-21)
(0.28010791 -0.049717095 2.6135907e-21)
(0.28665781 -0.050428109 -1.7231747e-21)
(0.29364965 -0.050786454 -4.7452927e-21)
(0.3010361 -0.050862781 -4.0696014e-21)
(0.30882925 -0.050700628 -1.2377808e-20)
(0.31702904 -0.050326789 1.8231349e-20)
(0.32561936 -0.049766815 6.6742157e-21)
(0.33458144 -0.049045419 -1.703945e-20)
(0.34389568 -0.048184631 1.0376065e-20)
(0.35354023 -0.047203997 8.4080708e-21)
(0.36349134 -0.046121262 -7.7615704e-22)
(0.37372424 -0.044952706 -3.0938709e-21)
(0.38421367 -0.043713316 -4.012969e-21)
(0.39493417 -0.042416927 -1.4784531e-21)
(0.40586051 -0.041076352 -1.3155734e-21)
(0.41696796 -0.039703475 -3.2191565e-21)
(0.42823265 -0.038309322 0)
(0.43963176 -0.036904104 -1.447446e-21)
(0.45114379 -0.035497252 4.0967442e-21)
(0.46274879 -0.034097445 5.7580261e-21)
(0.47442853 -0.032712624 -9.6836133e-22)
(0.4861667 -0.031350021 -3.2790472e-21)
(0.49794906 -0.030016179 3.4626523e-21)
(0.50976364 -0.028716981 1.3934062e-22)
(0.52160086 -0.02745769 3.9407974e-21)
(0.53345373 -0.026242985 -5.6445206e-22)
(0.54531801 -0.025077025 1.9676696e-21)
(0.55719237 -0.0239635 -9.8990491e-22)
(0.56907868 -0.022905702 4.4278691e-22)
(0.5809822 -0.021906598 -6.0880367e-22)
(0.5929119 -0.0209689 6.993274e-22)
(0.60488081 -0.020095146 6.5389243e-22)
(0.61690649 -0.019287745 5.7115456e-22)
(0.62901126 -0.018549076 -1.4734827e-21)
(0.6412236 -0.017881417 1.1069822e-21)
(0.65357602 -0.017287355 -6.174096e-22)
(0.66611453 -0.016768665 -2.116001e-21)
(0.67887266 -0.016330219 2.8930986e-21)
(0.6919534 -0.015968539 -1.0838463e-22)
(0.70529226 -0.015708849 -3.8957367e-22)
(0.71935485 -0.015495956 -1.8590841e-23)
(0.73314939 -0.015532151 -5.0257719e-22)
(0.74988587 -0.015298989 -1.5029175e-21)
(0.76117011 -0.016391776 1.0169031e-21)
(0.78999194 -0.015330217 -9.7445414e-23)
(0.37967433 -0.03927105 -1.7694305e-20)
(0.37518523 -0.045226091 1.2930438e-20)
(0.37651778 -0.049173506 3.0571107e-21)
(0.37976117 -0.051162533 -7.7167626e-21)
(0.38236455 -0.052784559 1.2188781e-20)
(0.38499947 -0.054208443 7.8829183e-21)
(0.38818357 -0.055247316 -1.2760186e-20)
(0.39185441 -0.05590079 -6.1441616e-21)
(0.39594474 -0.056235352 1.2862665e-20)
(0.400476 -0.056293506 -1.5607252e-20)
(0.40546366 -0.056102347 -1.4257878e-20)
(0.41089939 -0.055687472 1.4458112e-20)
(0.41676821 -0.05507414 6.9275061e-21)
(0.42305384 -0.054285953 -4.443738e-21)
(0.4297372 -0.05334464 -1.7735704e-21)
(0.43679651 -0.052270357 -4.0136101e-21)
(0.44420822 -0.051081964 5.2714349e-21)
(0.45194782 -0.049797162 3.7366732e-21)
(0.45999031 -0.048432559 -3.2713207e-21)
(0.46831062 -0.047003729 3.2008559e-21)
(0.47688397 -0.045525264 2.8958113e-21)
(0.48568624 -0.044010813 -3.3569095e-21)
(0.49469427 -0.042473097 3.8050156e-22)
(0.50388607 -0.040923932 -3.340734e-21)
(0.51324111 -0.039374233 7.9314512e-21)
(0.52274046 -0.037834034 6.5786284e-21)
(0.53236703 -0.036312499 9.7156414e-22)
(0.54210572 -0.034817952 -1.9103173e-21)
(0.55194357 -0.033357904 4.2897169e-21)
(0.56186995 -0.031939095 8.3041271e-21)
(0.57187668 -0.030567549 2.575109e-21)
(0.58195822 -0.029248636 3.9490021e-21)
(0.59211187 -0.027987145 2.3514608e-21)
(0.60233792 -0.026787365 9.421914e-22)
(0.61263996 -0.025653172 -2.9153225e-22)
(0.6230251 -0.024588122 3.6024438e-21)
(0.63350429 -0.023595537 8.3937199e-22)
(0.64409281 -0.022678576 4.0145291e-22)
(0.65481041 -0.021840345 7.5540583e-23)
(0.66568269 -0.021083811 1.6322381e-21)
(0.67673894 -0.020412312 6.3902521e-23)
(0.68802133 -0.019828189 8.5564858e-22)
(0.6995597 -0.019337519 -2.1530439e-22)
(0.71145052 -0.018936309 -6.5729832e-22)
(0.72362941 -0.018655066 -3.6742778e-22)
(0.73653799 -0.018427986 -1.1169046e-21)
(0.7492315 -0.018496318 5.7679124e-22)
(0.76474448 -0.018244925 -3.8132038e-22)
(0.77515987 -0.019556901 -5.8217539e-22)
(0.80205658 -0.018340439 5.4397113e-22)
(0.51314765 -0.037036304 3.6312285e-21)
(0.50355642 -0.044078439 -1.908266e-20)
(0.50046986 -0.048558261 -2.3400233e-21)
(0.49994263 -0.050966937 5.5338036e-21)
(0.4987596 -0.053104487 3.1121724e-21)
(0.49749745 -0.055048977 5.5197301e-24)
(0.4968381 -0.056588096 6.3279638e-21)
(0.49677898 -0.057722227 7.736632e-21)
(0.49722974 -0.058503305 9.9626882e-21)
(0.49819816 -0.058963852 -1.1421014e-20)
(0.49970491 -0.059129673 -2.1960856e-20)
(0.50174643 -0.059026568 -4.0621251e-21)
(0.50430778 -0.058679892 1.6248933e-20)
(0.50737165 -0.058114407 1.3061309e-20)
(0.5109184 -0.057354035 -5.9460778e-21)
(0.51492564 -0.056421616 1.2959602e-21)
(0.51936896 -0.055338925 -3.8389402e-21)
(0.52422283 -0.054126745 2.4981503e-21)
(0.52946115 -0.052804848 -2.9711581e-22)
(0.5350577 -0.051391973 -1.934075e-21)
(0.54098654 -0.049905818 8.2210539e-21)
(0.54722233 -0.048363035 -3.6903968e-22)
(0.55374065 -0.046779223 4.9876689e-22)
(0.56051825 -0.045168918 -5.9952714e-22)
(0.5675333 -0.043545598 -4.5528881e-21)
(0.57476556 -0.041921678 4.4770025e-21)
(0.5821966 -0.040308535 1.9653567e-21)
(0.58980992 -0.038716523 -3.5638197e-21)
(0.59759115 -0.037155014 -4.3546748e-21)