/*--------------------------------*- C++ -*----------------------------------*\
  =========                 |
  \\      /  F ield         | OpenFOAM: The Open Source CFD Toolbox
   \\    /   O peration     | Website:  https://openfoam.org
    \\  /    A nd           | Version:  6
     \\/     M anipulation  |
\*---------------------------------------------------------------------------*/
FoamFile
{
    version     2.0;
    format      ascii;
    class       surfaceScalarField;
    location    "16";
    object      phi;
}
// * * * * * * * * * * * * * * * * * * * * * * * * * * * * * * * * * * * * * //

dimensions      [0 3 -1 0 0 0 0];

internalField   nonuniform List<scalar> 
18180
(
0.00034062538
-0.00020234812
-0.00013827721
0.0013963275
-0.0015302069
0.00047450484
0.0032306439
-0.0036678819
0.0018335656
0.0059057819
-0.0065265994
0.0038514615
0.0094818181
-0.01005055
0.0064745143
0.014014136
-0.014194931
0.009662613
0.019550155
-0.018920152
0.013384133
0.026125749
-0.024188837
0.017613243
0.033761522
-0.029962426
0.022326653
0.042459286
-0.036198398
0.027500635
0.052199095
-0.04284848
0.033108671
0.062937315
-0.04985786
0.039119639
0.074606158
-0.057165393
0.04549655
0.087115168
-0.064704823
0.052195813
0.10035524
-0.072407051
0.059166983
0.11420561
-0.08020352
0.066353148
0.12854329
-0.088030454
0.073692769
0.14325911
-0.095833511
0.081117699
0.15832771
-0.10358833
0.08851972
-0.11128952
0.095699207
0.17391803
0.00042187286
-0.00062422094
0.0017055251
-0.0028138591
0.0039048843
-0.0058672411
0.0070712995
-0.0096930145
0.011250968
-0.014230219
0.016480561
-0.019424524
0.022782547
-0.025222138
0.030160667
-0.031566957
0.038595932
-0.038397692
0.048043624
-0.04564609
0.058431807
-0.053236663
0.069661757
-0.06108781
0.081610522
-0.069114158
0.094135653
-0.077229953
0.10708176
-0.085353163
0.12028818
-0.09340994
0.13359655
-0.10133882
0.14685857
-0.10909553
0.15993591
-0.11666567
-0.12398622
0.17263261
0.00050727329
-0.0011314942
0.0020219534
-0.0043285392
0.004581456
-0.0084267436
0.0082187353
-0.013330294
0.012957135
-0.018968619
0.018804216
-0.025271604
0.025746102
-0.032164023
0.033742904
-0.03956376
0.04272575
-0.047380537
0.052595962
-0.055516301
0.063226786
-0.063867488
0.074467778
-0.072328801
0.086151597
-0.080797977
0.098102626
-0.089180982
0.11014647
-0.097397003
0.12211905
-0.10538253
0.13387408
-0.11309385
0.14528675
-0.1205082
0.15624662
-0.12762555
-0.13440765
0.16666805
0.00059471252
-0.0017262067
0.0023364412
-0.0060702679
0.0052373483
-0.011327651
0.0093028609
-0.017395806
0.014523355
-0.024189113
0.020866608
-0.031614857
0.028272176
-0.039569591
0.036648219
-0.047939803
0.045871275
-0.056603593
0.055789334
-0.065434361
0.066228159
-0.074306313
0.077000318
-0.08310096
0.087916015
-0.091713674
0.098794474
-0.10005944
0.10947453
-0.10807706
0.11982315
-0.11573115
0.12974105
-0.12301174
0.13916438
-0.12993152
0.14806069
-0.13652186
-0.14279482
0.15644786
0.00068070497
-0.0024069116
0.0026352679
-0.0080248307
0.0058411061
-0.014533489
0.010266383
-0.021821083
0.0158586
-0.029781331
0.022536678
-0.038292936
0.030186874
-0.047219787
0.038662708
-0.056415638
0.047789105
-0.065729989
0.057370444
-0.0750157
0.067201681
-0.084137549
0.077081175
-0.092980454
0.0868236
-0.1014561
0.096271291
-0.10950713
0.10530265
-0.11710842
0.11383681
-0.12426532
0.12183435
-0.13100928
0.12929437
-0.13739154
0.13624863
-0.14347612
-0.14931708
0.14277089
0.00076090166
-0.0031678133
0.0029020092
-0.010165938
0.0063567575
-0.017988237
0.01104702
-0.026511345
0.016869398
-0.035603709
0.023688437
-0.045111974
0.031335783
-0.054867132
0.039614722
-0.064694577
0.04830953
-0.074424798
0.057198375
-0.083904544
0.066067938
-0.093007112
0.074727655
-0.10164017
0.083021576
-0.10975002
0.09083635
-0.11732191
0.098104519
-0.12437659
0.10480316
-0.13096395
0.11094867
-0.13715479
0.11658901
-0.14303189
0.12179496
-0.14868207
-0.15418283
0.12666071
0.00083046984
-0.0039982831
0.0031190545
-0.012454523
0.0067474224
-0.021616605
0.011584302
-0.031348226
0.01747088
-0.041490286
0.024216893
-0.051857987
0.031604479
-0.062254719
0.039398062
-0.072488159
0.047358551
-0.082385287
0.05525954
-0.091805534
0.062902834
-0.10065041
0.07013087
-0.10886821
0.076834363
-0.11645351
0.082954364
-0.12344191
0.088479039
-0.12990126
0.093436252
-0.13592117
0.097883647
-0.14160218
0.10189806
-0.1470463
0.10556593
-0.15234995
-0.15759685
0.10897996
0.00088421929
-0.0048825023
0.0032685725
-0.014838876
0.0069780885
-0.025326121
0.011825079
-0.036195216
0.017595545
-0.047260753
0.024049744
-0.058312185
0.030931472
-0.069136447
0.037982874
-0.079539561
0.044961867
-0.08936428
0.051658968
-0.098502634
0.05791052
-0.10690196
0.063606316
-0.114564
0.068690796
-0.12153799
0.073158297
-0.12790941
0.077043809
-0.13378677
0.08041124
-0.1392886
0.083341321
-0.14453226
0.085920921
-0.1496259
0.088234982
-0.15466401
-0.15972465
0.090362783
0.00091574195
-0.0057982442
0.003332515
-0.017255649
0.0070178192
-0.029011425
0.011728524
-0.040905921
0.017200696
-0.052732925
0.02315565
-0.064267139
0.029314361
-0.075295158
0.035415628
-0.085640828
0.04123413
-0.095182781
0.046594779
-0.10386328
0.051380812
-0.11168799
0.055534622
-0.11871781
0.059051925
-0.1250553
0.061971007
-0.13082849
0.064359403
-0.13617517
0.066300456
-0.14122965
0.067881648
-0.14611345
0.069186005
-0.15093025
0.070286946
-0.15576495
-0.16068366
0.07124595
0.00092166983
-0.006719914
0.00330244
-0.019636419
0.0068535981
-0.032562583
0.011281465
-0.045333787
0.016282112
-0.057733572
0.021552635
-0.069537663
0.026809245
-0.080551768
0.031806243
-0.090637826
0.036351655
-0.099728193
0.040316287
-0.10782792
0.043634817
-0.11500652
0.046299403
-0.1213824
0.048347787
-0.12710368
0.049848613
-0.13232932
0.050886666
-0.13721322
0.051550193
-0.14189318
0.051921602
-0.14648486
0.052071978
-0.15108063
0.052058978
-0.15575195
0.051926287
-0.16055097
-0.00021849755
0.00021849787
-2.6555843e-10
-0.00073026547
0.00051176866
-6.6887234e-10
-0.0014446467
0.00071438226
-9.7723536e-10
-0.0022925997
0.00084795429
-1.2065269e-09
-0.003218764
0.00092616579
-1.3710291e-09
-0.0041779836
0.00095922121
-1.4727694e-09
-0.0051328064
0.00095482441
-1.5214608e-09
-0.0060513978
0.00091859298
-1.5149927e-09
-0.0069058989
0.00085450271
-1.4599414e-09
-0.0076711366
0.00076523918
-1.3524897e-09
-0.0083235832
0.00065244804
-1.1947102e-09
-0.008840508
0.00051692589
-9.8532952e-10
-0.0091992851
0.00035877806
-7.2118476e-10
-0.0093768467
0.00017756218
-4.0557399e-10
-0.0093493103
-2.7536142e-05
-3.016607e-11
-0.0090919104
-0.00025740003
3.9164113e-10
-0.008579195
-0.00051271608
8.8147199e-10
-0.0077844659
-0.00079473025
1.411111e-09
-0.0066790978
-0.0011053699
2.0156319e-09
-0.0014305394
-0.005248561
2.670489e-09
-0.0002021061
0.00042060401
-0.00067063144
0.00098029404
-0.0013165687
0.0013603195
-0.0020709774
0.0016023631
-0.0028776949
0.0017328834
-0.0036900465
0.0017715729
-0.0044684486
0.0017332266
-0.0051783896
0.0016285341
-0.0057888218
0.0014649351
-0.006270883
0.0012473005
-0.0065968548
0.00097841993
-0.006739298
0.00065936926
-0.0066703299
0.00028981009
-0.0063610195
-0.00013174804
-0.0057809373
-0.00060761822
-0.0048979608
-0.0011403763
-0.0036783836
-0.0017322932
-0.0020867803
-0.0023863333
-8.5695924e-05
-0.0031064541
-0.0038621862
0.0023459511
-0.00016930639
0.00058991044
-0.00055147357
0.0013624613
-0.0010613391
0.0018701851
-0.0016307212
0.0021717453
-0.0022023414
0.0023045036
-0.0027269583
0.0022961898
-0.0031612122
0.0021674805
-0.0034657688
0.0019330908
-0.0036038161
0.0016029824
-0.0035398469
0.0011833314
-0.0032386595
0.00067723256
-0.0026645103
8.5220235e-05
-0.0017803784
-0.00059432175
-0.00054735681
-0.0013647694
0.0010758856
-0.0022308605
0.0031335302
-0.0031980207
0.0056727096
-0.0042714725
0.0087431505
-0.0054567741
0.012397034
-0.0067603374
-0.0081316883
0.016666536
-0.00012303579
0.00071294627
-0.00038236815
0.0016217937
-0.00069795731
0.0021857743
-0.0010027294
0.0024765174
-0.0012380138
0.0025397881
-0.0013512362
0.0024094122
-0.0012941106
0.002110355
-0.0010210321
0.0016600124
-0.00048776049
0.0010697109
0.00034964451
0.00034592651
0.0015357011
-0.00050882394
0.0031162176
-0.0014952962
0.0051388855
-0.0026169896
0.0076537988
-0.0038796826
0.010713987
-0.0052910485
0.01437602
-0.006860054
0.018700459
-0.0085959107
0.023751544
-0.01050786
0.029596883
-0.012605676
-0.014815931
0.036281126
-6.7025871e-05
0.00077997217
-0.00017549793
0.0017302658
-0.00025069816
0.0022609746
-0.00022665513
0.0024524744
-4.3081146e-05
0.0023562142
0.00035633771
0.0020099934
0.0010253494
0.0014413434
0.002016384
0.00066897788
0.0033816014
-0.00029550642
0.005173716
-0.001446188
0.0074465769
-0.0027816848
0.01025556
-0.0043042791
0.013657851
-0.0060192803
0.017712668
-0.0079344999
0.022481477
-0.010059858
0.028028432
-0.012407009
0.034421136
-0.014988614
0.041731112
-0.017817836
0.050034609
-0.020909173
-0.024166424
0.059385103
-4.9470871e-06
0.0007849193
5.6934652e-05
0.0016683841
0.00025579883
0.0020621105
0.00065680727
0.0020514661
0.0013220005
0.001691021
0.0023114249
0.0010205691
0.0036841023
6.8666006e-05
0.005498913
-0.0011458327
0.0078152223
-0.0026118157
0.010693189
-0.0043241542
0.014193896
-0.0062823919
0.018379315
-0.0084896985
0.023312022
-0.010951987
0.029054749
-0.013677227
0.035669912
-0.01667502
0.043219423
-0.01995652
0.051765402
-0.023534593
0.061371956
-0.02742439
0.0721091
-0.031646317
-0.036087588
0.084030264
6.0334941e-05
0.00072458439
0.00030500851
0.0014237105
0.00080090913
0.0015662099
0.0016127805
0.0012395947
0.0028043284
0.00049947314
0.0044388762
-0.00061397864
0.0065798654
-0.0020723231
0.0092911061
-0.0038570733
0.012636769
-0.0059574783
0.016681191
-0.0083685765
0.021488365
-0.011089566
0.027121113
-0.014122446
0.033639984
-0.017470857
0.041101907
-0.021139151
0.049558721
-0.025131833
0.059055945
-0.029453744
0.069632808
-0.034111455
0.08132495
-0.039116532
0.094173075
-0.044494442
-0.050135235
0.10822072
0.00012716724
0.00059741719
0.00056237453
0.00098850328
0.0013705225
0.000758062
0.0026161142
-5.9969366e-06
0.0043640685
-0.0012484811
0.0066798501
-0.0029297602
0.0096292287
-0.0050217016
0.013277874
-0.0075057186
0.017690668
-0.010370272
0.022930619
-0.013608528
0.029057435
-0.017216382
0.036125753
-0.021190764
0.044183068
-0.025528172
0.053267422
-0.030223505
0.063404993
-0.035269404
0.074607925
-0.040656676
0.086873493
-0.046377023
0.10018649
-0.052429532
0.11452972
-0.058837664
-0.065524991
0.12991947
0.00019495687
0.00040246035
0.00082601566
0.00035744453
0.001956686
-0.0003726083
0.0036507899
-0.0017001008
0.0059731085
-0.0035707997
0.0089888224
-0.005945474
0.012762561
-0.0087954398
0.017357089
-0.012100247
0.022831596
-0.015844779
0.029239595
-0.020016526
0.036626488
-0.024603275
0.045026864
-0.029591141
0.05446162
-0.034962928
0.064934966
-0.040696851
0.076431402
-0.04676584
0.088912715
-0.05313799
0.10231589
-0.059780195
0.1165545
-0.066668143
0.13153111
-0.073814274
-0.081218019
0.14722414
0.00026418317
0.0010961326
0.0025570899
0.0047084506
0.0076121652
0.011329304
0.015917998
0.021430994
0.027912868
0.035396977
0.043902374
0.053430872
0.063964495
0.075463457
0.087864601
0.10107976
0.11499233
0.12944189
0.14414734
0.15862852
-0.0029696124
-0.0022789529
4.6895383e-09
-0.000332931
-0.0026366872
6.0978868e-09
0.0026487447
-0.002981683
7.6718209e-09
0.005922028
-0.0032732922
9.4035418e-09
0.0094692034
-0.0035471865
1.1202533e-08
0.01328519
-0.0038159999
1.300357e-08
0.017363915
-0.0040787404
1.4867182e-08
0.021701011
-0.0043371121
1.6602346e-08
0.026295617
-0.0045946232
1.8121122e-08
0.031149291
-0.0048536934
1.9297458e-08
0.036265019
-0.0051157476
2.0156825e-08
0.041646701
-0.0053817031
2.060448e-08
0.047298533
-0.0056518527
2.0681188e-08
0.053224159
-0.005925646
2.0306338e-08
0.059425733
-0.006201594
1.9528901e-08
0.065902931
-0.0064772164
1.8290767e-08
0.072651922
-0.0067490072
1.6657931e-08
0.079664358
-0.0070124514
1.4620759e-08
0.086926458
-0.0072621119
1.2265788e-08
0.094418238
-0.0074917904
9.6278681e-09
0.10211299
-0.0076947576
6.796829e-09
0.10997702
-0.0078640403
3.8412908e-09
0.11796976
-0.0079927395
8.3097084e-10
0.1260441
-0.008074338
-2.1401971e-09
0.13414705
-0.008102939
-5.0508377e-09
0.14222042
-0.0080733681
-7.7821567e-09
0.1502015
-0.0079810634
-1.0383799e-08
0.15802323
-0.0078217177
-1.2700987e-08
0.16561397
-0.0075907338
-1.484718e-08
0.17289674
-0.0072827493
-1.6614789e-08
0.17978849
-0.0068917342
-1.8148146e-08
0.18620082
-0.0064123082
-1.9198729e-08
0.19204355
-0.0058427079
-1.9911173e-08
0.19723261
-0.0051890381
-2.0068416e-08
0.20170186
-0.0044692368
-1.9806654e-08
0.20541619
-0.0037143065
-1.9012566e-08
0.208381
-0.0029647974
-1.7817017e-08
0.21064371
-0.0022626866
-1.6275062e-08
0.21228533
-0.0016416055
-1.4516595e-08
0.21340513
-0.0011197917
-1.2686389e-08
0.21410391
-0.00069876991
-1.0846518e-08
0.21447138
-0.00036745876
-9.091111e-09
0.21458009
-0.00010869818
-7.4228092e-09
0.21448493
9.5158564e-05
-5.8713935e-09
0.21422596
0.00025898105
-4.4248538e-09
0.21383168
0.00039427498
-3.0755283e-09
0.21332326
0.00050843079
-1.8374306e-09
0.21271452
0.00060873539
-7.1067101e-10
0.21202266
0.00069185761
2.4475077e-10
0.00079408749
1.4182598e-09
0.0045472095
-0.0044802111
0.0070955981
-0.0051850755
0.0099705696
-0.0058566542
0.013112505
-0.0064152275
0.016508823
-0.0069435049
0.020158975
-0.0074661518
0.024058315
-0.0079780801
0.028203148
-0.0084819447
0.032593351
-0.0089848258
0.037231008
-0.0094913503
0.042119346
-0.010004086
0.047262362
-0.010524719
0.052664301
-0.011053791
0.058328884
-0.011590229
0.064258437
-0.012131147
0.070452973
-0.012671752
0.076909223
-0.013205257
0.083619679
-0.013722908
0.090571711
-0.014214144
0.097746819
-0.014666898
0.10512011
-0.015068045
0.11266002
-0.015403955
0.1203284
-0.015661118
0.12808081
-0.015826752
0.13586715
-0.015889278
0.14363233
-0.015838544
0.15131689
-0.015665624
0.15885729
-0.015362126
0.16618566
-0.014919097
0.17322892
-0.014326015
0.17990804
-0.013570852
0.18613825
-0.012642521
0.19183218
-0.01153663
0.19690704
-0.010263907
0.20129607
-0.0088582636
0.20496137
-0.0073796063
0.20790385
-0.0059072788
0.21016539
-0.0045242265
0.21182141
-0.0032976267
0.21296629
-0.0022646644
0.21369708
-0.0014295584
0.214101
-0.00077138641
0.21424917
-0.00025686465
0.21419575
0.00014858197
0.21398046
0.00047426778
0.21363174
0.00074299727
0.21317073
0.00096944063
0.21261128
0.0011681865
0.21197074
0.0013323976
0.0015349256
0.018686969
-0.0065006438
0.021025802
-0.0075239081
0.023657227
-0.0084880789
0.026514507
-0.0092725078
0.029593558
-0.010022556
0.032901292
-0.010773886
0.036435765
-0.011512553
0.040194561
-0.01224074
0.044178738
-0.012969003
0.048391182
-0.013703793
0.052835446
-0.01444835
0.057515583
-0.015204856
0.06243581
-0.015974018
0.067599879
-0.016754297
0.073010339
-0.017541608
0.078667742
-0.018329155
0.084569791
-0.019107306
0.090710472
-0.019863589
0.097079229
-0.020582901
0.10366025
-0.021247923
0.11043195
-0.021839743
0.11736665
-0.022338656
0.12443059
-0.022725057
0.13158418
-0.022980343
0.13878254
-0.023087637
0.14597615
-0.023032153
0.15311149
-0.022800961
0.16013137
-0.02238201
0.16697476
-0.021762482
0.1735759
-0.020927155
0.17986323
-0.019858181
0.18575899
-0.018538285
0.19118129
-0.016958928
0.19605012
-0.015132737
0.20029774
-0.01310588
0.20388126
-0.010963135
0.20679319
-0.0088192047
0.20906496
-0.0067959978
0.21076134
-0.0049940098
0.21196738
-0.0034706989
0.21277302
-0.0022351979
0.21326075
-0.001259118
0.21349892
-0.00049503895
0.21354034
0.0001071631
0.21342418
0.00059043406
0.21317869
0.00098848017
0.21282509
0.0013230409
0.21237725
0.001616032
0.21185284
0.0018568021
0.0021552327
0.037982685
-0.0082022026
0.03996059
-0.009501813
0.042184267
-0.010711755
0.044586519
-0.01167476
0.047174834
-0.012610872
0.049963971
-0.013563022
0.052955532
-0.014504115
0.056149112
-0.015434319
0.059547084
-0.016366975
0.063153031
-0.01730974
0.066970685
-0.018266004
0.071003902
-0.019238073
0.07525655
-0.020226666
0.079732099
-0.021229847
0.084433074
-0.022242583
0.089360425
-0.023256506
0.094512828
-0.024259709
0.099885939
-0.025236701
0.10547166
-0.026168621
0.11125745
-0.027033716
0.11722582
-0.027808107
0.12335393
-0.028466773
0.12961358
-0.028984699
0.13597127
-0.029338039
0.14238874
-0.029505102
0.14882348
-0.029466902
0.1552295
-0.029206976
0.16155768
-0.02871019
0.16775579
-0.027960592
0.17376767
-0.026939035
0.17953183
-0.025622341
0.18498028
-0.023986736
0.19003918
-0.022017823
0.19463313
-0.019726686
0.19869405
-0.017166804
0.20217314
-0.014442225
0.20505202
-0.011698082
0.20734819
-0.0090921714
0.20911188
-0.0067577006
0.2104152
-0.0047740131
0.21133811
-0.0031581141
0.2119564
-0.001877409
0.21233449
-0.00087312376
0.21252319
-8.1544452e-05
0.2125609
0.00055273266
0.21247564
0.0010737376
0.21228871
0.0015099718
0.21201403
0.0018907083
0.2116698
0.0022010376
0.0025885455
0.060584787
-0.0094018862
0.062018457
-0.010935483
0.063646064
-0.012339362
0.065411
-0.013439696
0.067334832
-0.014534704
0.069437755
-0.015665945
0.071724839
-0.016791199
0.074198405
-0.017907884
0.076861907
-0.019030477
0.079719022
-0.020166855
0.082773151
-0.021320132
0.086027449
-0.022492371
0.089484857
-0.023684073
0.093147966
-0.024892956
0.097018716
-0.026113333
0.10109796
-0.027335747
0.10538492
-0.028546671
0.10987662
-0.029728398
0.1145672
-0.030859201
0.11944732
-0.031913845
0.12450363
-0.032864412
0.1297183
-0.033681446
0.13506889
-0.034335291
0.14052836
-0.034797503
0.14606536
-0.035042105
0.15164483
-0.035046368
0.15722863
-0.034790777
0.1627762
-0.03425776
0.16824474
-0.033429136
0.17358862
-0.032282909
0.17875779
-0.03079152
0.1836959
-0.028924842
0.18833932
-0.026661238
0.19261938
-0.024006749
0.19646922
-0.021016644
0.19983464
-0.017807643
0.2026857
-0.014549146
0.20502423
-0.011430702
0.20688351
-0.0086169806
0.20832022
-0.0062107195
0.20940219
-0.0042400902
0.2101969
-0.0026721146
0.21076381
-0.0014400308
0.21115122
-0.00046895967
0.21139648
0.00030747337
0.21152734
0.00094287489
0.21156521
0.0014721038
0.21152409
0.001931828
0.21142284
0.0023022874
0.0027696685
0.084511031
-0.0098826538
0.085197694
-0.011622145
0.086033677
-0.013175345
0.086985767
-0.014391786
0.088088555
-0.015637492
0.089362524
-0.016939915
0.09081505
-0.018243725
0.092451417
-0.019544251
0.094275536
-0.020854595
0.096290136
-0.022181455
0.098497417
-0.023527413
0.1008991
-0.02489405
0.10349644
-0.02628142
0.10629041
-0.027686925
0.10928161
-0.029104533
0.11247007
-0.030524205
0.11585487
-0.031931476
0.11943372
-0.033307244
0.12320238
-0.034627865
0.12715414
-0.035865599
0.1312792
-0.036989477
0.13556428
-0.037966522
0.13999223
-0.038763244
0.14454199
-0.03934726
0.1491887
-0.039688818
0.15390419
-0.039761857
0.15865764
-0.039544231
0.16341641
-0.03901653
0.16814654
-0.038159262
0.17281251
-0.036948886
0.17737583
-0.035354837
0.18179246
-0.033341474
0.18601047
-0.030879245
0.18996995
-0.027966223
0.19360741
-0.024654105
0.19686506
-0.021065296
0.19970243
-0.017386518
0.20210569
-0.013833962
0.2040904
-0.01060169
0.20569655
-0.007816872
0.20697851
-0.0055220494
0.20799429
-0.0036878908
0.2087976
-0.0022433424
0.20943376
-0.0011051191
0.20993884
-0.00019760962
0.21034025
0.00054147116
0.21065952
0.001152834
0.21091076
0.0016805856
0.21111367
0.0020993792
0.0026351173
0.1077877
-0.009449631
0.10754632
-0.011380766
0.10742268
-0.013051707
0.1074255
-0.014394607
0.10759574
-0.01580773
0.10794676
-0.017290929
0.10848651
-0.018783477
0.1092226
-0.02028034
0.11015841
-0.021790404
0.11129461
-0.023317656
0.11263114
-0.024863945
0.11416743
-0.026430342
0.11590238
-0.028016363
0.11783461
-0.029619155
0.1199627
-0.031232629
0.12228516
-0.032846659
0.12480018
-0.0344465
0.12750539
-0.036012457
0.13039739
-0.03751986
0.13347122
-0.038939432
0.13671986
-0.040238111
0.14013363
-0.0413803
0.14369986
-0.042329465
0.14740252
-0.043049927
0.15122232
-0.04350862
0.15513696
-0.043676496
0.15912179
-0.043529061
0.16315077
-0.043045508
0.16719735
-0.04220584
0.17123474
-0.040986278
0.17523486
-0.039354955
0.17916557
-0.037272186
0.18298713
-0.034700806
0.18664992
-0.031629009
0.19009615
-0.028100338
0.19326705
-0.024236195
0.19611391
-0.020233379
0.19860885
-0.016328897
0.20075042
-0.01274326
0.20256189
-0.0096283445
0.20408366
-0.0070438238
0.20536366
-0.0049678925
0.2064493
-0.0033289793
0.2073825
-0.0020383206
0.20819789
-0.0010129946
0.20892241
-0.00018305082
0.20957778
0.0004974662
0.2101782
0.0010801671
0.21074438
0.0015331942
0.0021235537
0.12849735
-0.0080275134
0.12724166
-0.010125076
0.12607023
-0.01188027
0.12506839
-0.013392767
0.12427331
-0.015012655
0.12368393
-0.016701549
0.12330729
-0.018406833
0.1231516
-0.02012465
0.12321861
-0.021857418
0.12350627
-0.023605311
0.12401148
-0.02536916
0.12473072
-0.02714958
0.12566007
-0.028945716
0.12679554
-0.030754621
0.12813333
-0.032570417
0.12966999
-0.034383326
0.13140239
-0.036178901
0.13332749
-0.037937552
0.13544201
-0.039634381
0.13774201
-0.041239433
0.14022233
-0.042718427
0.14287601
-0.04403398
0.14569379
-0.04514725
0.14866371
-0.046019852
0.15177093
-0.046615838
0.15499784
-0.046903404
0.15832466
-0.046855878
0.16173041
-0.04645126
0.16519416
-0.045669594
0.16869589
-0.044488009
0.17221601
-0.042875076
0.17573287
-0.04078904
0.17921841
-0.038186345
0.18263402
-0.035044627
0.18592962
-0.03139593
0.18904825
-0.027354826
0.19193607
-0.023121202
0.19455386
-0.018946685
0.1968851
-0.015074498
0.19893739
-0.011680634
0.20073747
-0.0088439085
0.20232306
-0.0065534812
0.20373495
-0.0047408721
0.20501142
-0.0033147886
0.20618545
-0.0021870179
0.20728345
-0.0012810596
0.20832733
-0.00054641007
0.20933138
7.6120875e-05
0.21031749
0.00054707805
0.0011762078
0.14493993
-0.0057433035
0.14275349
-0.0079386392
0.14057011
-0.0096968838
0.13862038
-0.011443044
0.13692741
-0.013319681
0.13547395
-0.01524809
0.13426399
-0.017196873
0.13330316
-0.019163817
0.13259088
-0.021145137
0.13212287
-0.023137306
0.13189338
-0.025139671
0.13189609
-0.027152285
0.13212452
-0.029174145
0.13257234
-0.031202439
0.13323363
-0.03323171
0.13410312
-0.035252819
0.13517627
-0.037252045
0.13644915
-0.039210438
0.13791828
-0.041103504
0.13958016
-0.042901315
0.14143083
-0.044569105
0.14346528
-0.046068428
0.14567682
-0.047358788
0.14805659
-0.048399626
0.15059323
-0.049152472
0.15327279
-0.049582961
0.15607915
-0.049662243
0.15899501
-0.049367117
0.1620033
-0.048677882
0.16508864
-0.047573347
0.16823766
-0.046024098
0.17143708
-0.04398846
0.17466918
-0.041418445
0.17790624
-0.038281686
0.18110712
-0.034596816
0.18421929
-0.030466991
0.18718699
-0.026088909
0.18996293
-0.021722625
0.19251823
-0.017629794
0.19484666
-0.01400906
0.19696229
-0.010959546
0.19889299
-0.0084841753
0.20067292
-0.0065208025
0.20233656
-0.0049784324
0.20391514
-0.0037655913
0.20543447
-0.0028003989
0.20691665
-0.0020285885
0.20837604
-0.0013832629
0.2098359
-0.00091278084
-0.00026270759
0.15626547
-0.0033802537
0.15322869
-0.0049018556
0.15022611
-0.0066943026
0.14749831
-0.0087152398
0.14504485
-0.01086622
0.14286072
-0.013063962
0.14094924
-0.015285395
0.13931088
-0.017525457
0.13794336
-0.019777618
0.13684214
-0.022036081
0.13600047
-0.024298003
0.13541036
-0.026562176
0.13506349
-0.028827271
0.1349517
-0.031090651
0.13506734
-0.033347354
0.13540356
-0.035589036
0.13595448
-0.037802965
0.13671527
-0.039971224
0.13768198
-0.042070215
0.13885125
-0.044070593
0.14021988
-0.045937726
0.14178416
-0.047632717
0.14353935
-0.049113973
0.14547895
-0.050339227
0.14759428
-0.051267804
0.14987421
-0.051862885
0.15230533
-0.052093373
0.15487286
-0.051934643
0.15756211
-0.051367133
0.16036045
-0.050371687
0.16325847
-0.048922115
0.16624893
-0.046978918
0.16932256
-0.044492083
0.17246166
-0.041420782
0.17563452
-0.037769674
0.1787948
-0.033627271
0.18188766
-0.029181774
0.18486092
-0.024695886
0.18767631
-0.02044518
0.1903161
-0.016648849
0.19278325
-0.013426703
0.19509657
-0.010797494
0.19728393
-0.0087081632
0.19937605
-0.0070705474
0.20140235
-0.0057918902
0.20338799
-0.0047860442
0.20535535
-0.0039959484
0.20731852
-0.003346434
0.20930321
-0.0028974678
-0.0022452137
0.19865052
0.0007105978
-0.20274137
0.19534005
-0.0015913883
0.19246102
-0.0038152724
0.18985311
-0.0061073309
0.18747761
-0.0084907237
0.18530962
-0.01089597
0.18333203
-0.013307802
0.18153598
-0.015729411
0.1799169
-0.01815853
0.17847141
-0.020590595
0.177196
-0.023022594
0.17608635
-0.025452527
0.17513707
-0.027877993
0.17434167
-0.030295244
0.17369267
-0.032698357
0.17318191
-0.035078274
0.17280081
-0.037421862
0.17254071
-0.039711125
0.1723932
-0.041922706
0.17235039
-0.044027785
0.17240511
-0.045992452
0.17255103
-0.047778629
0.17278257
-0.049345519
0.17309485
-0.050651506
0.17348338
-0.051656332
0.17394384
-0.052323343
0.17447191
-0.052621448
0.17506341
-0.052526144
0.17571478
-0.052018499
0.17642391
-0.051080814
0.17719086
-0.049689072
0.17801776
-0.047805812
0.17890712
-0.045381443
0.1798588
-0.04237247
0.18086641
-0.038777283
0.18191467
-0.034675525
0.18297921
-0.030246321
0.18402933
-0.025745998
0.18503284
-0.021448688
0.18596171
-0.017577727
0.18679652
-0.014261511
0.18752837
-0.011529343
0.18815819
-0.0093379857
0.18869391
-0.0076062684
0.18914732
-0.0062452997
0.18953039
-0.0051691129
0.18985621
-0.0043217677
0.19013043
-0.0036206586
0.19037613
-0.003143166
-0.0024301344
0.22596731
0.0036400891
-0.2288968
0.22298826
0.0013876684
0.22027578
-0.0011028001
0.21769098
-0.0035225291
0.21518695
-0.0059866954
0.21279197
-0.0085009916
0.21052219
-0.01103802
0.20838188
-0.013589096
0.20637579
-0.016152443
0.20450899
-0.018723791
0.20278445
-0.021298061
0.20120286
-0.023870932
0.19976293
-0.026438059
0.19846163
-0.028993951
0.19729443
-0.031531152
0.19625557
-0.034039419
0.19533856
-0.036504851
0.19453656
-0.038909124
0.19384284
-0.041228984
0.19325115
-0.043436097
0.19275604
-0.045497339
0.192353
-0.047375591
0.19203853
-0.04903105
0.19180999
-0.050422965
0.19166535
-0.051511695
0.1916029
-0.052260892
0.19162098
-0.05263953
0.19171803
-0.052623193
0.19189303
-0.052193499
0.19214644
-0.05133422
0.19248118
-0.050023812
0.19290296
-0.048227594
0.19341905
-0.045897536
0.19403524
-0.042988658
0.19475155
-0.039493593
0.19555828
-0.035482254
0.19643407
-0.031122108
0.19734723
-0.026659163
0.1982604
-0.022361862
0.19913709
-0.018454417
0.19994794
-0.015072359
0.2006746
-0.012256002
0.2013103
-0.0099736834
0.20185751
-0.0081534805
0.20232456
-0.0067123467
0.20272163
-0.0055661836
0.20306054
-0.0046606765
0.20334742
-0.0039075412
0.20360322
-0.0033989659
-0.0026249266
0.25192155
0.0059535322
-0.25423499
0.24950566
0.0038035587
0.24709516
0.0013077033
0.24470944
-0.001136813
0.24231505
-0.0035923004
0.23992972
-0.0061156685
0.23758226
-0.008690553
0.23529059
-0.011297429
0.2330686
-0.013930456
0.23092946
-0.016584645
0.22888389
-0.019252491
0.22693942
-0.021926462
0.22510076
-0.024599408
0.22337025
-0.027263435
0.22174807
-0.02990897
0.22023269
-0.032524044
0.21882136
-0.035093522
0.21751061
-0.037598373
0.21629679
-0.040015159
0.21517653
-0.042315837
0.21414715
-0.044467963
0.21320692
-0.046435359
0.21235512
-0.048179249
0.21159198
-0.049659827
0.21091843
-0.050838144
0.21033574
-0.051678205
0.20984524
-0.052149021
0.20944818
-0.05222614
0.20914622
-0.051891532
0.20894227
-0.051130274
0.20884181
-0.049923355
0.20885362
-0.048239403
0.2089891
-0.046033011
0.20925947
-0.043259033
0.20967116
-0.039905282
0.21022056
-0.036031657
0.21089038
-0.031791927
0.21164938
-0.027418158
0.21245635
-0.023168835
0.21326735
-0.019265418
0.21404359
-0.015848596
0.21475721
-0.012969629
0.21539335
-0.010609814
0.21594844
-0.0087085789
0.21642679
-0.007190698
0.21683641
-0.0059758027
0.21718738
-0.0050116425
0.21748655
-0.0042067142
0.21775127
-0.0036636832
-0.0028298792
0.27626069
0.0076658847
-0.27797305
0.2744329
0.0056313494
0.27244421
0.0032964014
0.27037321
0.00093417852
0.26823172
-0.0014508078
0.26602807
-0.0039120182
0.26378556
-0.0064480433
0.26152632
-0.0090381916
0.25926818
-0.011672312
0.25702783
-0.014344299
0.25482075
-0.017045412
0.25265994
-0.019765647
0.25055567
-0.022495139
0.24851574
-0.025223507
0.24654568
-0.027938909
0.24464904
-0.030627405
0.24282785
-0.033272329
0.24108311
-0.035853638
0.23941538
-0.038347423
0.23782523
-0.040725686
0.23631373
-0.042956468
0.23488276
-0.045004385
0.23353511
-0.0468316
0.23227448
-0.048399197
0.23110523
-0.049668891
0.23003201
-0.050604994
0.22905946
-0.05117647
0.22819197
-0.051358649
0.22743402
-0.05113358
0.22679107
-0.050487321
0.22627094
-0.049403227
0.22588499
-0.047853456
0.22564802
-0.04579604
0.22557594
-0.043186953
0.22568107
-0.040010404
0.22596601
-0.036316601
0.22641843
-0.032244348
0.22700909
-0.028008815
0.22769483
-0.023854572
0.22842597
-0.01999656
0.2291555
-0.016578123
0.22984659
-0.013660723
0.23047619
-0.011239415
0.23103432
-0.0092667109
0.2315207
-0.0076770798
0.23194068
-0.0063957775
0.23230225
-0.0053732106
0.23261265
-0.0045171201
0.23288559
-0.0039366164
-0.0030444963
0.29877263
0.0087861129
-0.29989286
0.29751554
0.0068884355
0.29603001
0.0047819339
0.29438048
0.0025837049
0.2926034
0.00032627824
0.29070878
-0.0020174011
0.28871259
-0.004451851
0.28663575
-0.0069613514
0.28449708
-0.0095336475
0.28231378
-0.012160999
0.28010258
-0.014834204
0.27787904
-0.017542107
0.27565689
-0.020272999
0.27344794
-0.023014551
0.27126208
-0.025753053
0.26910751
-0.028472834
0.26699096
-0.031155777
0.26491812
-0.033780803
0.26289413
-0.036323432
0.26092402
-0.038755571
0.25901314
-0.041045587
0.2571675
-0.043158743
0.2553939
-0.045058009
0.25369996
-0.046705252
0.25209384
-0.048062767
0.25058393
-0.04909509
0.24917849
-0.049771023
0.24788533
-0.050065492
0.24671205
-0.049960302
0.2456668
-0.049442071
0.24475969
-0.048496114
0.24400425
-0.047098017
0.24341793
-0.045209723
0.2430204
-0.042789421
0.24282906
-0.039819063
0.24285247
-0.036340012
0.24308379
-0.032475669
0.24349721
-0.028422233
0.24404966
-0.024407024
0.24468792
-0.020634822
0.24535855
-0.017248746
0.24601684
-0.014319021
0.24663195
-0.011854522
0.24718729
-0.0098220547
0.24767761
-0.008167393
0.24810508
-0.006823247
0.24847528
-0.0057434163
0.24879543
-0.0048372692
0.24907563
-0.0042168108
-0.0032679896
0.31978718
0.0093814017
-0.32038247