/*--------------------------------*- C++ -*----------------------------------*\
  =========                 |
  \\      /  F ield         | OpenFOAM: The Open Source CFD Toolbox
   \\    /   O peration     | Website:  https://openfoam.org
    \\  /    A nd           | Version:  6
     \\/     M anipulation  |
\*---------------------------------------------------------------------------*/
FoamFile
{
    version     2.0;
    format      ascii;
    class       volSymmTensorField;
    location    "99";
    object      UPrime2Mean;
}
// * * * * * * * * * * * * * * * * * * * * * * * * * * * * * * * * * * * * * //

dimensions      [0 2 -2 0 0 0 0];

internalField   nonuniform List<symmTensor> 
9200
(
(0.00019923068 -0.00015465883 7.2895536e-22 0.00012414796 -3.9036816e-22 1.1742429e-38)
(0.0012235127 -0.0009804252 1.8501397e-21 0.00078860766 -1.3808972e-21 1.2769472e-38)
(0.0024619362 -0.0019137011 2.3910431e-22 0.0014957754 -1.7962818e-22 7.003522e-39)
(0.0038626809 -0.0028077793 -2.7682618e-21 0.0020628755 1.9503014e-21 1.3951041e-38)
(0.0052288247 -0.0035949848 1.2009901e-22 0.0025127016 -1.0339552e-22 2.0469795e-39)
(0.0064640771 -0.0042402164 1.148661e-21 0.0028454553 -7.6716448e-22 3.1643445e-40)
(0.0075037412 -0.0047321513 -2.4185372e-22 0.0030735904 1.6992783e-22 9.2745358e-40)
(0.0082974554 -0.0050730586 2.2012545e-22 0.0032174224 -1.5039083e-22 6.2470383e-40)
(0.0088124634 -0.0052716951 1.1136746e-21 0.0032963479 -6.8051938e-22 1.7809013e-39)
(0.0090345533 -0.0053401438 8.6027768e-23 0.0033267876 -5.2987631e-23 5.0662312e-42)
(0.0089676949 -0.0052923193 -1.1871015e-21 0.0033222369 7.3767246e-22 9.5297341e-40)
(0.0086333418 -0.0051430398 9.8839762e-22 0.0032934515 -6.3890486e-22 1.2740479e-40)
(0.0080686735 -0.0049074367 -1.7559629e-21 0.0032487193 1.2025564e-21 2.0359577e-39)
(0.0073234206 -0.0046005942 -8.8592969e-22 0.0031942232 6.1969049e-22 1.2682236e-40)
(0.0064554263 -0.0042373157 2.2919359e-22 0.0031344317 -1.7324993e-22 1.6397473e-41)
(0.0055253717 -0.0038319207 -8.5728997e-22 0.0030724724 6.8557832e-22 1.6923095e-40)
(0.0045911304 -0.0033980584 7.4800114e-22 0.0030106321 -6.5015774e-22 2.062651e-40)
(0.0037023859 -0.0029487238 5.4808422e-22 0.0029519139 -4.9990064e-22 8.6317511e-40)
(0.0028997472 -0.0024957101 -2.1570093e-23 0.0029003741 4.4824997e-23 1.6025464e-40)
(0.0022261864 -0.0020478809 -1.3289105e-23 0.0028281289 4.0573624e-23 1.9863215e-40)
(0.00026256327 -0.00017551727 7.6783711e-23 0.0001205115 -2.9718104e-23 2.0607444e-40)
(0.0015577835 -0.0010808576 1.9608142e-21 0.00075221608 -1.2756739e-21 1.3626906e-38)
(0.003081169 -0.0020780482 -6.4628513e-22 0.0014090604 4.3280744e-22 7.4052262e-39)
(0.004699184 -0.0029926484 -4.9621584e-21 0.0019262136 3.1088938e-21 3.2272041e-38)
(0.0061851551 -0.0037624363 -1.6519926e-22 0.0023276684 1.0613635e-22 4.0735527e-40)
(0.0074293692 -0.0043572171 3.8147655e-21 0.0026176976 -2.2614414e-21 1.0668274e-38)
(0.0083671243 -0.0047734201 -1.5567231e-21 0.002812203 9.1608201e-22 3.5988516e-40)
(0.008960069 -0.0050219288 -4.7028027e-22 0.0029330276 2.7456237e-22 1.3098626e-40)
(0.0091966152 -0.005119451 1.7779839e-21 0.0029999437 -1.0470855e-21 9.9570104e-40)
(0.009090472 -0.0050848997 -2.1479423e-21 0.0030289963 1.2890292e-21 1.138238e-39)
(0.0086777029 -0.0049377414 -1.5185501e-21 0.0030326849 9.3640914e-22 1.415571e-39)
(0.0080127796 -0.0046970541 3.264818e-21 0.003020263 -2.1003896e-21 7.1922052e-39)
(0.0071631497 -0.0043810577 1.5157424e-21 0.0029981199 -1.0410628e-21 4.9372652e-40)
(0.0062025192 -0.0040069565 -2.3756664e-21 0.0029702212 1.7482974e-21 2.461138e-39)
(0.0052036366 -0.0035909283 4.2329134e-22 0.0029385336 -3.3719883e-22 2.0680394e-40)
(0.004231576 -0.0031481383 -9.3789531e-22 0.0029033972 8.4030758e-22 5.4346043e-40)
(0.0033383701 -0.0026927252 -3.8943737e-22 0.0028639243 4.1226966e-22 1.72722e-40)
(0.0025595666 -0.0022375267 1.1707357e-21 0.0028185002 -1.3587537e-21 2.7852852e-39)
(0.001914861 -0.0017927769 5.5119573e-22 0.0027623007 -7.6765613e-22 5.2197955e-40)
(0.0014156146 -0.0013688101 -2.2944141e-22 0.0026703659 2.9523621e-22 4.0522832e-39)
(0.00033392905 -0.00019021465 -6.3806757e-22 0.00011080295 2.7191561e-22 5.3119797e-39)
(0.0019131147 -0.0011383401 -1.0593598e-21 0.0006790853 5.8853e-22 5.5388218e-39)
(0.0037148819 -0.002154881 -1.2141689e-21 0.0012568215 7.0696779e-22 1.3844674e-38)
(0.0055136825 -0.0030491252 3.9688391e-23 0.0017049667 -2.1878266e-23 1.4993549e-42)
(0.0070589532 -0.003767798 7.3799807e-23 0.0020478613 -3.3588278e-23 9.9443188e-39)
(0.008236478 -0.004288991 1.3403689e-21 0.0022935746 -7.1810947e-22 2.7793454e-39)
(0.008993868 -0.0046186245 1.2025963e-22 0.0024600103 -6.1399233e-23 1.1512192e-39)
(0.0093184802 -0.0047762686 -2.2424192e-21 0.002568617 1.2170058e-21 7.1942774e-40)
(0.009232848 -0.0047855159 2.6470781e-21 0.0026376328 -1.4758675e-21 1.3646173e-39)
(0.0087887924 -0.0046702642 8.6918122e-22 0.0026809557 -5.0978396e-22 1.5208485e-39)
(0.0080599851 -0.0044532606 -2.3777258e-21 0.0027085176 1.4611714e-21 3.1202595e-39)
(0.007133378 -0.0041555362 -7.4049981e-22 0.0027267514 4.8957075e-22 1.024866e-39)
(0.0060997418 -0.0037964067 2.7550651e-22 0.0027391279 -1.9381328e-22 2.786008e-39)
(0.0050443341 -0.0033937494 6.3440094e-22 0.0027467382 -5.0481756e-22 3.9582146e-40)
(0.0040390407 -0.0029642939 -2.1848718e-22 0.0027488721 1.9573257e-22 3.0549532e-40)
(0.0031371127 -0.0025237562 5.1112744e-22 0.0027435817 -5.2866948e-22 2.3636608e-40)
(0.0023710687 -0.0020867563 -3.5250233e-22 0.0027282152 4.3021424e-22 8.933657e-41)
(0.0017536364 -0.001666444 -7.0142721e-22 0.0026997319 1.0181491e-21 2.2389079e-39)
(0.0012813411 -0.0012736287 -1.5129924e-23 0.0026542622 1.6764223e-23 2.043311e-39)
(0.00094074019 -0.0009181471 2.3978513e-22 0.002583853 -5.53025e-22 2.2378652e-40)
(0.00041088941 -0.00019657581 -5.0646688e-22 9.590227e-05 1.8676937e-22 2.6386186e-39)
(0.0022710056 -0.0011432084 7.6236895e-22 0.00057685232 -3.7434397e-22 4.8814525e-40)
(0.0043244744 -0.002130908 6.7786945e-22 0.0010561524 -3.3498073e-22 5.6907669e-40)
(0.0062501408 -0.0029665561 1.4847786e-21 0.0014252054 -7.1023765e-22 6.1472609e-39)
(0.0077835445 -0.0036086328 1.2974761e-21 0.0017074657 -6.18851e-22 2.7333004e-39)
(0.0088191673 -0.0040456017 -2.2595234e-21 0.0019135574 1.081938e-21 2.0779639e-39)
(0.0093319632 -0.0042925636 -1.2586829e-21 0.002061277 6.1495728e-22 5.9072909e-40)
(0.0093488789 -0.0043756148 0 0.0021695217 0 0)
(0.0089367505 -0.00432217 1.3653851e-21 0.0022531242 -7.5308048e-22 7.6573423e-39)
(0.008189951 -0.0041578085 -5.8758021e-22 0.0023222989 3.536829e-22 2.9013266e-39)
(0.0072172563 -0.00390556 -3.4301567e-21 0.0023832153 2.0905693e-21 2.4983722e-39)
(0.0061288002 -0.0035861136 -4.4018418e-22 0.0024386307 2.8298762e-22 5.1752343e-40)
(0.0050242715 -0.0032184354 1.6636661e-21 0.0024885888 -1.2767291e-21 3.4572266e-39)
(0.0039838883 -0.0028203485 1.0136277e-22 0.0025311719 -6.6297155e-23 1.4441352e-39)
(0.0030633268 -0.0024087729 -2.5347764e-23 0.002563271 2.5802133e-23 9.9739943e-43)
(0.0022929321 -0.0019995315 2.699341e-22 0.0025813546 -3.2655655e-22 1.7552789e-40)
(0.0016806454 -0.0016068126 4.5962512e-24 0.0025821252 4.0021325e-24 2.0904598e-40)
(0.0012173882 -0.0012424961 -4.7148819e-22 0.0025628099 8.3953126e-22 5.2288697e-40)
(0.00088316673 -0.00091548405 -2.5753581e-22 0.002522387 5.7959089e-22 3.6727309e-40)
(0.00065314791 -0.00063189462 1.216708e-22 0.0024652436 -4.1844672e-22 2.3709599e-39)
(0.00048989282 -0.00019276293 3.8165298e-22 7.7216614e-05 -1.2157772e-22 1.0381335e-39)
(0.0026087015 -0.0010893607 1.5880755e-21 0.00045598786 -6.3348229e-22 9.3532675e-39)
(0.0048667713 -0.0020009827 1.2303393e-21 0.00082813976 -5.0852348e-22 5.8720381e-40)
(0.0068519703 -0.0027466673 1.3769818e-21 0.0011165804 -5.6430636e-22 3.2883022e-39)
(0.0083001348 -0.0032980562 -2.1071477e-21 0.0013424432 8.7543425e-22 5.1781812e-39)
(0.0091306075 -0.0036537907 7.4878553e-23 0.0015170264 -2.4283954e-23 4.9309556e-40)
(0.0093607227 -0.0038351896 1.1899426e-22 0.0016557761 -5.2440094e-23 4.113064e-42)
(0.0090675156 -0.0038704864 1.6861992e-21 0.0017731941 -7.9676784e-22 1.8441953e-39)
(0.0083659041 -0.0037864409 2.2620893e-22 0.0018793486 -1.1385872e-22 1.6482063e-41)
(0.0073889213 -0.0036065721 -6.0292828e-22 0.0019798182 3.4986583e-22 1.0004149e-39)
(0.006269539 -0.0033516427 1.945987e-21 0.0020764022 -1.2410369e-21 6.958961e-39)
(0.0051255235 -0.0030407059 -1.4167471e-21 0.0021678937 9.5809095e-22 5.8239125e-40)
(0.0040488489 -0.0026920213 -2.6404009e-21 0.0022509532 2.1307502e-21 4.165218e-39)
(0.0031007116 -0.0023233886 -8.6584532e-23 0.0023210667 8.2780059e-23 8.8641746e-42)
(0.0023120762 -0.0019517882 9.1931809e-22 0.0023735154 -1.0789033e-21 3.4318812e-39)
(0.0016885329 -0.0015925229 0 0.002404274 0 0)
(0.0012175852 -0.0012582148 1.1700879e-22 0.0024106323 -1.7526637e-22 8.9420652e-41)
(0.00087640155 -0.00095805888 -5.4661861e-23 0.0023912794 1.3137146e-22 1.3350675e-40)
(0.00063819939 -0.00069757166 -5.8264864e-23 0.0023479305 1.3419453e-22 3.4672304e-41)
(0.00047677258 -0.00047857142 2.3739079e-23 0.0022910704 -1.2236896e-22 2.4065346e-40)
(0.00056664083 -0.00017770307 8.3407722e-22 5.6692499e-05 -2.1481673e-22 4.1980815e-39)
(0.0029023634 -0.00097625709 8.111063e-23 0.0003292485 -2.6651676e-23 7.7491152e-42)
(0.0053009767 -0.001770888 -2.317692e-22 0.00059633909 7.8529262e-23 3.4278536e-41)
(0.0072723342 -0.0024058744 2.2939354e-22 0.00080987502 -7.4726844e-23 6.7901729e-40)
(0.0085698505 -0.002865226 -1.444848e-21 0.00098733307 5.1063535e-22 1.2713666e-39)
(0.0091542012 -0.0031546323 -6.897565e-22 0.0011387471 2.5394026e-22 1.1399571e-40)
(0.0090965671 -0.0032961409 4.7741958e-22 0.0012755172 -1.4797256e-22 3.6312861e-39)
(0.0085277982 -0.0033143554 -1.8846213e-23 0.0014067504 2.1035158e-23 2.8420037e-40)
(0.0076062337 -0.003230779 -1.1426148e-21 0.0015372235 5.8117313e-22 2.9981428e-39)
(0.0064916773 -0.0030640295 1.9698806e-21 0.0016676381 -1.0492055e-21 8.5572101e-40)
(0.0053251044 -0.0028314845 -4.7563396e-23 0.0017954052 7.6429805e-23 1.5609421e-39)
(0.004215443 -0.0025506324 -1.5351109e-21 0.001915582 1.1565288e-21 4.2665786e-39)
(0.0032341001 -0.0022395093 0 0.0020219903 0 0)
(0.0024165825 -0.0019161044 3.6132303e-22 0.0021084154 -4.3549074e-22 2.3030887e-39)
(0.0017692338 -0.0015970677 1.6246991e-23 0.0021697113 -4.0545703e-23 1.2635934e-40)
(0.0012784265 -0.0012962824 -4.3255302e-22 0.0022026392 7.2742263e-22 2.6636623e-39)
(0.00091973954 -0.0010238044 -9.8084787e-23 0.0022062117 1.8712518e-22 5.4644665e-41)
(0.0006654218 -0.0007855081 -2.8194211e-23 0.0021813823 8.6463473e-23 8.9736512e-41)
(0.00048916318 -0.00058354393 -3.787607e-23 0.0021322794 1.1647494e-22 3.4370166e-41)
(0.00036837407 -0.00041679276 6.5872591e-23 0.0020713155 -2.841447e-22 3.3063674e-40)
(0.00063657486 -0.00015136088 3.2219258e-22 3.6620217e-05 -6.2001632e-23 6.6487187e-40)
(0.0031301658 -0.00080954872 -2.3006982e-21 0.00021007303 5.7919296e-22 1.4456081e-38)
(0.0055942421 -0.0014570685 -2.1023089e-22 0.0003835812 5.9250889e-23 1.3497855e-39)
(0.0074807381 -0.0019730461 -6.2032681e-22 0.00053274854 1.8241621e-22 6.789889e-39)
(0.0085788956 -0.0023503747 -4.4704556e-22 0.00067063271 1.2552753e-22 9.3171864e-41)
(0.0089041153 -0.0025958479 -2.5319167e-21 0.00080474489 7.9565637e-22 1.2240781e-39)
(0.0085861067 -0.0027252812 -1.2356686e-21 0.00094189145 4.430208e-22 9.9741906e-40)
(0.0078048079 -0.0027540322 2.3717994e-21 0.0010858977 -9.1184126e-22 7.8105383e-40)
(0.0067495991 -0.0026950792 4.0299631e-22 0.0012365576 -2.1372296e-22 1.0278542e-39)
(0.0055904569 -0.0025611265 -5.1643046e-22 0.0013900296 2.3932111e-22 3.4980075e-40)
(0.0044599305 -0.0023666493 2.4352356e-22 0.0015397445 -8.9750711e-23 1.3201294e-39)
(0.0034458772 -0.002128522 -4.2942144e-23 0.0016776426 6.2518483e-23 3.3460706e-40)
(0.0025934845 -0.0018651291 0 0.0017956297 0 0)
(0.0019136476 -0.0015944806 2.4849828e-22 0.0018869754 -2.6884104e-22 7.8196442e-41)
(0.0013941364 -0.0013321539 -5.2203125e-22 0.0019473578 7.1538132e-22 1.0832865e-39)
(0.0010104144 -0.0010897873 -1.6859568e-22 0.0019753614 2.711728e-22 9.2023955e-41)
(0.00073413147 -0.00087448178 2.8550188e-22 0.0019723088 -6.1075261e-22 1.3009923e-39)
(0.00053860325 -0.00068912894 -6.6776468e-23 0.0019414794 8.9426497e-23 2.8285656e-40)
(0.00040140132 -0.00053353063 -4.846891e-24 0.0018886551 -7.8022096e-24 3.176846e-41)
(0.00030477594 -0.000405304 6.4573415e-23 0.0018255728 -2.0406971e-22 2.628813e-41)
(0.00069539003 -0.00011482171 2.3499838e-22 1.9325572e-05 -3.0859404e-23 4.1630424e-40)
(0.0032750835 -0.00060055645 -2.1213701e-21 0.0001106932 3.827156e-22 6.624478e-39)
(0.0057256712 -0.0010844053 -1.6585585e-21 0.00020881844 3.2983743e-22 7.9340688e-39)
(0.0074662987 -0.0014850444 2.3393771e-21 0.00030616974 -4.9256175e-22 1.9335749e-39)
(0.0083385389 -0.0017981408 1.7515091e-21 0.00041171586 -3.9880774e-22 3.9569019e-40)
(0.0084195994 -0.0020238909 -1.2680536e-21 0.00053050636 2.8369133e-22 4.206067e-39)
(0.0078939316 -0.0021651661 4.1676333e-22 0.00066559634 -1.6183801e-22 1.7837905e-39)
(0.0069781441 -0.0022241833 2.4097679e-21 0.00081661499 -8.7286987e-22 1.9713173e-39)
(0.0058757205 -0.0022043511 1.0500897e-21 0.0009792189 -4.2176519e-22 2.4441739e-40)
(0.0047501278 -0.0021133043 -1.0242975e-21 0.0011456511 5.3703001e-22 6.4200966e-40)
(0.003713264 -0.0019640537 -1.3810649e-21 0.0013060113 8.454141e-22 7.5150953e-40)
(0.0028264937 -0.0017738405 -3.7395844e-23 0.0014499947 2.7823042e-23 7.823196e-43)
(0.0021100964 -0.0015614873 3.918056e-22 0.0015687042 -3.536706e-22 1.2135255e-40)
(0.0015563829 -0.0013444244 -1.1489855e-23 0.0016560611 4.6593856e-23 1.9282789e-40)
(0.0011424544 -0.0011364262 -1.0855675e-23 0.0017094925 7.5367533e-23 5.2187788e-40)
(0.00084014452 -0.00094657417 5.5652749e-24 0.0017298369 -9.7894553e-23 9.4273472e-40)
(0.00062235666 -0.00077939364 1.3209405e-22 0.0017205778 -2.7802423e-22 2.7269203e-40)
(0.00046621607 -0.00063580282 -7.136751e-23 0.0016866945 2.3312766e-22 7.1788379e-40)
(0.00035390815 -0.00051455804 -1.8711482e-22 0.0016345907 5.6136595e-22 1.3787586e-39)
(0.00027204155 -0.00041324272 6.4336291e-23 0.001573906 -1.6323304e-22 2.9525408e-41)
(0.00073974565 -7.020075e-05 -6.0533249e-22 6.8399129e-06 5.0408331e-23 1.2427632e-39)
(0.003327256 -0.00036482704 -4.5755381e-22 4.0466336e-05 4.9435525e-23 1.3365424e-39)
(0.005688432 -0.00068279298 3.6189054e-21 8.479642e-05 -4.6167431e-22 1.6378624e-38)
(0.0072381922 -0.00098147455 2.6675298e-21 0.00014237254 -3.8991312e-22 1.7738911e-39)
(0.0078820551 -0.0012513522 1.1819064e-21 0.00021991294 -1.8787967e-22 8.7434433e-40)
(0.007757465 -0.0014783415 2.378993e-22 0.00032162755 -4.947056e-23 8.2470475e-42)
(0.0070916801 -0.0016476217 -2.214365e-21 0.00044878953 4.9904957e-22 3.6502288e-39)
(0.0061206709 -0.0017469962 0 0.00059841125 0 0)
(0.005044739 -0.0017714341 -1.3397137e-21 0.00076298673 5.950952e-22 3.027577e-39)
(0.0040080664 -0.0017254621 -2.2750731e-22 0.00093153071 1.5551671e-22 6.8913225e-40)
(0.003096073 -0.0016221152 6.4871877e-22 0.0010915804 -3.8534473e-22 1.6016653e-40)
(0.0023446333 -0.0014794387 6.7128405e-23 0.0012315747 -9.2096929e-23 3.793811e-40)
(0.0017548164 -0.0013162644 -3.034315e-22 0.0013428783 3.0874775e-22 4.3748744e-40)
(0.0013078197 -0.0011487645 -2.2500179e-22 0.0014209006 3.106148e-22 9.4076782e-40)
(0.00097684357 -0.00098857871 1.4822875e-22 0.0014651608 -1.5288488e-22 1.145204e-40)
(0.000734796 -0.00084252868 2.0317306e-22 0.0014785088 -2.682603e-22 1.0261693e-40)
(0.00055824541 -0.00071341407 -1.7834702e-22 0.0014658804 3.0654276e-22 9.3706554e-41)
(0.00042874486 -0.00060129315 -2.3396308e-22 0.0014330135 5.3342996e-22 1.1507143e-39)
(0.00033263569 -0.00050487781 2.0047137e-23 0.0013859905 -3.383208e-24 1.3732547e-40)
(0.00025998359 -0.00042228637 3.0255439e-23 0.0013318273 -1.1278394e-22 1.6115511e-40)
(0.00076713779 -2.0301675e-05 -3.9988434e-22 6.1706811e-07 1.0199524e-23 6.0824188e-40)
(0.0032839661 -0.00012017413 1.6938332e-21 4.7868705e-06 -6.1052622e-23 3.3685618e-39)
(0.0054893722 -0.00028364837 2.5906706e-21 1.6966788e-05 -1.6081825e-22 2.4476145e-38)
(0.006823524 -0.00050034594 -2.995846e-21 4.460711e-05 2.6310233e-22 6.7189542e-39)
(0.0072588332 -0.00074697611 1.0709766e-21 9.5583091e-05 -1.2022225e-22 1.653485e-40)
(0.0069824672 -0.00098944441 4.2789464e-22 0.0001760931 4.3719586e-24 6.223635e-39)
(0.0062470924 -0.0011935675 1.1417851e-22 0.00028804444 -2.3733207e-23 2.1585625e-42)
(0.0052899148 -0.0013341649 -1.61335e-21 0.00042734228 3.8028105e-22 2.0763945e-39)
(0.0042942012 -0.0014003982 -3.642285e-23 0.00058414277 1.2927211e-23 3.2041697e-43)
(0.0033780166 -0.0013958754 5.9372883e-22 0.00074491522 -3.1959105e-22 7.9405705e-40)
(0.0026004981 -0.001334591 4.5623293e-23 0.00089550027 -4.9577003e-23 1.1440638e-40)
(0.0019771337 -0.0012351944 -2.1550997e-22 0.0010240649 5.5386417e-23 1.4800445e-39)
(0.0014968195 -0.0011158683 -4.6931897e-22 0.0011230372 3.9240279e-22 1.5494938e-40)
(0.0011360794 -0.00099108794 -1.1334045e-24 0.0011896451 3.8705516e-23 1.9289377e-40)
(0.0008686929 -0.00087048316 1.558604e-22 0.0012252502 -2.1343224e-22 1.8565592e-40)
(0.00067094627 -0.00075925346 1.0269123e-22 0.0012340032 -1.7135641e-22 1.8097278e-40)
(0.00052369396 -0.00065934224 2.1571843e-23 0.0012213756 -8.1798638e-23 2.9578696e-40)
(0.0004125626 -0.00057074677 -1.6633043e-22 0.001192989 2.3798105e-22 2.3230008e-40)
(0.00032728114 -0.00049262685 -3.7409867e-23 0.0011539871 -2.5384483e-23 1.0155047e-39)
(0.00026052092 -0.00042368697 8.5045171e-23 0.0011088417 -2.9084211e-22 1.6692284e-39)
(5.2037766e-06 -6.4898046e-07 5.2049904e-23 7.936456e-07 -1.0423497e-23 5.945572e-40)
(2.4539933e-05 -1.0271638e-05 -7.4248579e-23 5.2764426e-06 2.0573351e-23 5.724702e-40)
(5.4967938e-05 -2.3740437e-05 1.649571e-22 1.0516002e-05 -6.1720571e-23 3.2867009e-39)
(0.00017621705 -5.0078365e-05 4.6010607e-22 1.5067894e-05 -9.7949648e-23 1.1055701e-38)
(0.00038658089 -8.2546236e-05 -3.2835748e-22 1.9140071e-05 5.5755644e-23 2.8744651e-39)
(0.00069049893 -0.00011880359 4.1352145e-22 2.2733487e-05 -5.5899148e-23 3.1762916e-39)
(0.001097571 -0.0001575673 -5.6650114e-22 2.5853375e-05 7.1495403e-23 3.4861262e-39)
(0.0016100236 -0.00019756091 -5.8373246e-22 2.8567495e-05 6.0584775e-23 3.687477e-39)
(0.0022249496 -0.00023774913 7.3198799e-22 3.0949186e-05 -7.5249512e-23 3.895682e-39)
(0.002937724 -0.00027736779 -5.6659854e-22 3.3056203e-05 5.4813979e-23 1.9835969e-39)
(0.0037426687 -0.00031584149 -2.8638368e-23 3.4932838e-05 4.7338715e-25 2.3107884e-41)
(0.0046331481 -0.00035272525 1.6144249e-22 3.6613279e-05 -1.7056995e-23 7.2669651e-41)
(0.0056018663 -0.00038766961 -2.8037796e-23 3.8123909e-05 1.3157633e-24 1.1594976e-41)
(0.0066411429 -0.00042039874 8.7185729e-22 3.9485988e-05 -7.7449093e-23 3.4694992e-39)
(0.007743079 -0.00045070336 1.5722455e-24 4.0719013e-05 1.6583259e-24 7.5162655e-42)
(0.0088997254 -0.00047845285 -1.2639399e-21 4.1844148e-05 1.1780634e-22 7.1291683e-39)
(0.010103307 -0.00050360658 2.3183848e-22 4.2883925e-05 -2.4522748e-23 1.4997977e-40)
(0.011346255 -0.00052616498 5.5750305e-22 4.3855362e-05 -5.5626828e-23 1.8127633e-39)
(0.012621032 -0.00054624083 -8.9212249e-22 4.4775302e-05 9.6369986e-23 5.1359297e-39)
(0.013919231 -0.00056463236 -4.8485062e-22 4.5640725e-05 5.6604314e-23 1.9286754e-39)
(5.8940963e-06 -2.7172757e-06 1.7118101e-23 6.9856136e-06 -6.3018881e-24 5.8665025e-41)
(3.1284744e-05 -3.519757e-05 -4.7016073e-22 4.6496904e-05 3.5449702e-22 1.9144842e-38)
(7.0202219e-05 -7.9901856e-05 9.3328665e-23 9.2631456e-05 -7.7245535e-23 1.7279678e-39)
(0.00020725897 -0.00016205268 4.945169e-22 0.00013272337 -3.031951e-22 9.2367813e-39)
(0.00043580749 -0.00026182971 6.8636305e-22 0.00016851137 -3.2893365e-22 1.0444792e-38)
(0.0007587218 -0.00037234961 8.2886132e-23 0.0001999564 -3.310646e-23 9.810418e-41)
(0.0011843388 -0.00048978206 -2.2003087e-21 0.00022711436 7.5821304e-22 5.2227873e-38)
(0.0017133918 -0.00061035646 -7.7006216e-23 0.00025058726 3.1736624e-23 1.4950244e-41)
(0.0023416376 -0.00073103732 1.2381144e-21 0.00027102053 -3.7394334e-22 8.9042404e-39)
(0.0030632359 -0.00084958606 -2.9814316e-22 0.00028892335 8.15497e-23 4.9519049e-40)
(0.0038713158 -0.00096431432 -1.127132e-21 0.00030468636 3.0591836e-22 5.488705e-39)
(0.0047580489 -0.0010739135 2.3642184e-22 0.00031860942 -5.9808691e-23 2.49961e-40)
(0.0057149369 -0.0011773517 9.9577649e-22 0.00033092086 -2.1969546e-22 5.8932736e-39)
(0.0067330622 -0.0012738077 4.085581e-22 0.00034180048 -1.0066153e-22 6.7209458e-40)
(0.0078032155 -0.0013626453 8.1115483e-22 0.00035140818 -2.150669e-22 1.9400514e-39)
(0.0089160642 -0.0014434461 -6.3763752e-22 0.00035991311 1.5984659e-22 1.6434538e-39)
(0.010062569 -0.0015160548 -6.0482302e-22 0.00036749762 1.5048108e-22 1.7982569e-39)
(0.011233851 -0.0015804271 6.041661e-22 0.00037431061 -1.7314734e-22 1.0355257e-39)
(0.012418639 -0.0016368836 5.4404857e-22 0.00038052097 -1.5283644e-22 1.8162931e-39)
(0.013603329 -0.0016884092 2.0604137e-22 0.00038616115 -5.5932974e-23 7.7313829e-40)
(7.5775398e-06 -6.961804e-06 1.3171906e-23 1.8637322e-05 -6.5629898e-24 3.0853236e-41)
(4.7283485e-05 -7.2734485e-05 3.5700341e-22 0.00012411632 -3.8214632e-22 8.1589583e-39)
(0.00010562128 -0.00016064273 -7.8062535e-23 0.00024702677 1.0057604e-22 4.2721901e-40)
(0.00027566372 -0.00030735674 -5.3694135e-22 0.00035375675 4.5169229e-22 1.0115159e-38)
(0.00054165335 -0.0004810372 1.9676941e-22 0.00044868046 -1.649488e-22 2.8517667e-40)
(0.00090331756 -0.00067055334 2.5942648e-22 0.00053149978 -2.1059171e-22 1.4787866e-40)
(0.0013664639 -0.00086958784 -3.2451272e-22 0.00060235725 1.7138166e-22 9.0057604e-40)
(0.0019290163 -0.0010720524 -8.4259925e-22 0.00066286029 4.8999149e-22 1.789222e-39)
(0.0025841993 -0.0012730932 3.6858041e-22 0.00071472734 -1.7823968e-22 5.0206759e-40)
(0.003323843 -0.0014691248 7.8180548e-22 0.00075932423 -3.2285504e-22 2.8547028e-39)
(0.0041388002 -0.0016574279 2.1323579e-22 0.00079770494 -1.4890118e-22 1.0609303e-40)
(0.0050189816 -0.00183588 9.514132e-22 0.00083067654 -3.125448e-22 5.3007791e-39)
(0.0059536195 -0.0020027883 8.0068699e-23 0.00085884541 -2.9446183e-23 2.1945549e-41)
(0.0069314811 -0.0021567772 -1.3977287e-21 0.00088267325 4.6757117e-22 8.5156088e-39)
(0.0079409444 -0.0022967424 1.0002974e-22 0.00090255315 -6.7515213e-23 4.7091715e-41)
(0.0089701751 -0.0024219053 -6.4739776e-22 0.00091888983 1.7728576e-22 3.3210994e-39)
(0.010007912 -0.0025319147 -9.0030102e-22 0.00093211979 3.580182e-22 1.3562313e-39)
(0.011043132 -0.0026266088 1.4503371e-21 0.00094267565 -5.6899488e-22 4.5071562e-39)
(0.012058523 -0.002706475 7.5768018e-22 0.00095125699 -3.1822602e-22 9.1397374e-40)
(0.013032719 -0.0027777895 1.5217131e-22 0.00095839687 -7.0708801e-23 1.9550123e-41)
(1.1164827e-05 -1.4405774e-05 -1.9753954e-23 3.433152e-05 2.4902499e-23 4.5003075e-41)
(7.7489836e-05 -0.00012911864 -8.2659181e-22 0.00022894257 1.0455495e-21 2.706228e-38)
(0.00017125098 -0.00027810982 -6.0200964e-23 0.00045515909 7.735969e-23 3.7002386e-40)
(0.00039563391 -0.00050206865 1.3790429e-22 0.00065120884 -1.5267887e-22 2.3537206e-40)
(0.0007221896 -0.00075877001 -2.2619025e-23 0.00082466562 6.0127132e-24 6.0910422e-41)
(0.0011460029 -0.0010330957 7.0151841e-22 0.00097452125 -5.1348315e-22 4.4432114e-39)
(0.0016690269 -0.001316258 7.7395489e-22 0.0011009769 -5.0431717e-22 4.0356423e-39)
(0.0022850676 -0.0016001018 -2.3493954e-22 0.0012070056 1.1310721e-22 6.3647238e-40)
(0.0029836214 -0.0018782115 -8.5627474e-22 0.0012957998 4.4529514e-22 4.043776e-39)
(0.0037530601 -0.002145829 -1.7164951e-21 0.0013699331 9.2245232e-22 8.5612825e-39)
(0.0045808731 -0.0023993158 -3.9411242e-23 0.0014314195 -1.9841727e-23 1.9594129e-40)
(0.0054536755 -0.0026358057 2.1705861e-21 0.0014818142 -1.0061084e-21 1.3995365e-38)
(0.0063574398 -0.002852977 -8.7912285e-22 0.001522285 3.3206971e-22 4.1427891e-39)
(0.0072777174 -0.0030489163 -5.6315636e-22 0.0015537142 2.4557858e-22 8.160169e-40)
(0.0081996806 -0.0032220425 -6.506058e-23 0.0015768233 7.6415528e-23 1.7654002e-40)
(0.0091083331 -0.0033711706 1.3181926e-21 0.0015923115 -5.7793491e-22 3.3421607e-39)
(0.0099897401 -0.0034957109 -7.4027298e-22 0.0016009109 3.7443328e-22 2.1990115e-40)
(0.010830756 -0.0035954746 -1.6901755e-21 0.001603522 7.1428107e-22 7.1991349e-39)
(0.011607725 -0.0036712278 1.1203763e-21 0.0016022555 -4.9243739e-22 3.6186066e-39)
(0.012291225 -0.0037330424 9.6690939e-22 0.001599658 -3.9044127e-22 3.3703526e-39)
(1.7856363e-05 -2.5661223e-05 8.8614996e-23 5.2343788e-05 -8.6132081e-23 5.830249e-40)
(0.00012849291 -0.00020795807 2.905638e-23 0.00034932191 -7.7904938e-24 2.6237759e-40)
(0.00028029665 -0.00043919513 -1.1349948e-21 0.00069312897 1.6267651e-21 2.2177589e-38)
(0.00058544243 -0.000754831 -6.5195692e-22 0.00098999633 6.9269683e-22 6.8676497e-39)
(0.00099969433 -0.0011040295 4.3613939e-22 0.0012507383 -3.4715338e-22 4.1528657e-39)
(0.0015118738 -0.0014677222 5.3873958e-22 0.0014731085 -4.3399316e-22 1.954577e-39)
(0.0021185136 -0.001834596 -7.0153447e-22 0.0016573631 4.57418e-22 4.5763e-39)
(0.0028078586 -0.0021947381 -1.0680963e-21 0.0018081239 6.1127254e-22 1.0042391e-38)
(0.0035643662 -0.0025405102 1.5711262e-21 0.0019303871 -9.3644607e-22 1.0296003e-38)
(0.00437173 -0.0028662483 4.5263472e-22 0.0020282619 -1.8180098e-22 2.3990506e-39)
(0.0052129462 -0.0031676085 -1.399672e-21 0.0021050411 9.296763e-22 7.8005333e-40)
(0.0060703474 -0.0034411727 6.1726789e-22 0.0021633258 -2.7881167e-22 1.8459285e-39)
(0.0069258993 -0.0036841936 0 0.0022051194 0 0)
(0.0077614545 -0.003894422 5.942304e-22 0.0022319552 -2.891936e-22 7.2111339e-40)
(0.0085588653 -0.0040700166 -4.4376322e-22 0.0022450657 2.107881e-22 3.8498176e-40)
(0.0093003027 -0.0042096053 -6.7557227e-22 0.0022455652 3.386694e-22 4.6592964e-40)
(0.0099700386 -0.00431258 2.4536679e-22 0.0022345017 -2.0696735e-22 6.5886902e-40)
(0.010554609 -0.0043791151 -2.0019095e-22 0.0022132716 1.2201101e-22 2.3536865e-41)
(0.011026622 -0.0044107864 9.4972205e-22 0.0021863984 -4.1246893e-22 3.9040664e-39)
(0.011349151 -0.004421009 -7.7622283e-22 0.0021613852 3.8519557e-22 2.240167e-40)
(2.903757e-05 -4.0913534e-05 8.5028708e-23 7.0953909e-05 -7.1492894e-23 4.6806018e-40)
(0.00020769708 -0.00030985021 4.0791641e-22 0.00047298397 -5.4355032e-22 1.7401548e-39)
(0.00044726278 -0.00064445078 -5.4721865e-22 0.00093534756 7.2689599e-22 4.1649367e-39)
(0.00086421496 -0.0010649568 -8.9408313e-22 0.0013321999 1.0078401e-21 3.4775738e-39)
(0.0013956573 -0.0015135668 -2.5571758e-22 0.0016772959 3.815452e-22 2.7482047e-39)
(0.0020221175 -0.0019670729 -8.056386e-22 0.0019668413 7.0893177e-22 1.7104904e-39)
(0.0027327695 -0.0024115942 -3.7792291e-22 0.0022013359 2.3245107e-22 1.9817238e-39)
(0.0035086906 -0.0028358907 6.5138079e-22 0.0023873368 -3.9120852e-22 3.6548348e-39)
(0.004327921 -0.0032316069 1.5491183e-21 0.0025319573 -9.2214149e-22 1.2509701e-38)
(0.005168291 -0.0035926597 4.7404579e-22 0.0026411992 -2.9194191e-22 5.2403177e-40)
(0.0060074704 -0.003914509 -4.5014423e-22 0.0027200063 2.3852265e-22 8.3206552e-40)
(0.0068230732 -0.0041937159 -8.7093025e-23 0.0027724012 -1.8233673e-23 7.2527122e-40)
(0.0075931234 -0.0044276759 -2.120025e-21 0.0028015885 1.1619441e-21 6.8855658e-39)
(0.0082965115 -0.0046144432 -6.555795e-22 0.0028100989 3.4338827e-22 7.1231594e-40)
(0.0089133111 -0.0047526286 1.0896113e-21 0.0027999779 -6.3515405e-22 3.3269399e-40)
(0.0094252757 -0.0048414229 -1.0825151e-21 0.002772971 5.8903622e-22 7.0021042e-40)
(0.0098181058 -0.0048808825 -3.8043338e-22 0.0027304684 1.8806342e-22 2.2513029e-40)
(0.010082452 -0.0048722257 8.4776277e-22 0.0026740536 -3.5627102e-22 3.5075725e-39)
(0.010193622 -0.0048187122 1.2721634e-21 0.0026108915 -6.4187597e-22 2.650618e-39)
(0.010109298 -0.0047358765 1.556179e-22 0.0025569454 -7.3121701e-23 5.1701716e-41)
(4.6174492e-05 -5.9934629e-05 -2.3987305e-22 8.8592659e-05 1.9480352e-22 2.7696475e-39)
(0.00032241943 -0.00043232471 -2.6617014e-22 0.00058830461 2.7006585e-22 2.2075202e-39)
(0.0006857148 -0.00088771072 6.6226141e-22 0.0011574729 -8.397476e-22 9.9014594e-40)
(0.0012482098 -0.0014216512 1.0150304e-21 0.0016417541 -1.0531368e-21 4.6224989e-39)
(0.0019254304 -0.001970854 1.3261515e-23 0.0020574136 -1.1955849e-23 9.1871121e-43)
(0.0026870351 -0.0025077668 -2.7491111e-21 0.0023992737 2.271636e-21 2.701757e-38)
(0.0035126188 -0.0030161231 -1.0668288e-21 0.0026685867 9.1724116e-22 3.789263e-40)
(0.004374524 -0.003484059 8.3479165e-22 0.002874226 -5.6346443e-22 2.9661386e-39)
(0.0052433655 -0.0039033574 9.517369e-22 0.0030257524 -6.4042951e-22 1.8121533e-39)
(0.0060906541 -0.0042684197 -9.3478056e-22 0.0031314138 5.2012965e-22 4.9805002e-39)
(0.0068888897 -0.0045754542 -2.719065e-21 0.00319818 1.7220514e-21 7.2349697e-39)
(0.0076119595 -0.0048220171 1.7820772e-21 0.0032318652 -1.0841713e-21 2.9736416e-39)
(0.0082359092 -0.0050067398 1.0602521e-21 0.0032372372 -5.5328507e-22 3.5730512e-39)
(0.0087397206 -0.0051291529 -1.460154e-21 0.003218167 8.0880844e-22 2.9430752e-39)
(0.0091059212 -0.0051895672 6.3790122e-22 0.0031778118 -3.7084871e-22 1.9608862e-40)
(0.0093212194 -0.0051890093 1.0552831e-21 0.0031187588 -5.4559767e-22 2.1930579e-39)
(0.0093788583 -0.00512932 3.997987e-22 0.0030427498 -2.2745539e-22 7.4034149e-41)
(0.0092803603 -0.0050135387 -6.8234143e-22 0.0029509639 4.2781791e-22 9.2233462e-41)
(0.0090130545 -0.0048471813 -1.5512479e-22 0.0028520353 4.8669846e-23 5.4421065e-40)
(0.0085347782 -0.0046458717 8.8996576e-22 0.0027724516 -5.2074533e-22 2.1629901e-40)
(7.0700111e-05 -8.2091934e-05 -7.3567326e-24 0.00010387109 -7.3039829e-24 5.1031464e-41)
(0.00047890562 -0.00056994925 -9.6198972e-22 0.00068501073 1.0179948e-21 7.2493736e-39)
(0.0010058734 -0.0011563772 -7.6987603e-22 0.0013384412 8.2624712e-22 1.0978319e-38)
(0.0017469952 -0.0018045639 1.4326534e-21 0.0018880285 -1.375532e-21 6.406342e-39)
(0.0025931916 -0.0024471694 1.183005e-21 0.0023521219 -1.1665332e-21 2.7102273e-39)
(0.0035003053 -0.0030524356 1.0061825e-21 0.0027249126 -8.3427888e-22 1.06329e-39)