/*--------------------------------*- C++ -*----------------------------------*\
  =========                 |
  \\      /  F ield         | OpenFOAM: The Open Source CFD Toolbox
   \\    /   O peration     | Website:  https://openfoam.org
    \\  /    A nd           | Version:  6
     \\/     M anipulation  |
\*---------------------------------------------------------------------------*/
FoamFile
{
    version     2.0;
    format      ascii;
    class       volScalarField;
    location    "334";
    object      p;
}
// * * * * * * * * * * * * * * * * * * * * * * * * * * * * * * * * * * * * * //

dimensions      [0 2 -2 0 0 0 0];

internalField   nonuniform List<scalar> 
9200
(
-0.37794898
-0.36660249
-0.35650882
-0.34755954
-0.33881984
-0.33030361
-0.32208913
-0.31414388
-0.30640057
-0.29878724
-0.29123096
-0.28366267
-0.27602422
-0.26827562
-0.2604056
-0.25244946
-0.24448354
-0.23659564
-0.22981069
-0.22841071
-0.39580968
-0.38201202
-0.36997472
-0.35950564
-0.34939392
-0.33962101
-0.33025566
-0.32123461
-0.31245836
-0.30382856
-0.29525203
-0.28664657
-0.27794849
-0.26911859
-0.26014779
-0.25106106
-0.24188823
-0.23262901
-0.22396638
-0.21806625
-0.41408736
-0.39781569
-0.38388068
-0.37196225
-0.36053382
-0.34952622
-0.33898693
-0.32881423
-0.31887445
-0.30904672
-0.29922676
-0.28933248
-0.27931082
-0.26914083
-0.25883354
-0.24842761
-0.2379618
-0.22744507
-0.21727669
-0.20857173
-0.43234795
-0.41362139
-0.39785404
-0.38454786
-0.37182297
-0.35954324
-0.34772699
-0.33623355
-0.32490301
-0.31360734
-0.30225191
-0.2907785
-0.2791684
-0.26744027
-0.2556434
-0.2438476
-0.23211942
-0.22049775
-0.20925003
-0.1991174
-0.44996154
-0.42888311
-0.41140015
-0.39678332
-0.38277167
-0.36915131
-0.3559113
-0.34288268
-0.32989981
-0.3168546
-0.30369178
-0.29040517
-0.27703355
-0.26365076
-0.25035227
-0.23724101
-0.22440705
-0.2119089
-0.19993476
-0.18899205
-0.46610362
-0.44288185
-0.42385893
-0.40802087
-0.39271589
-0.37765243
-0.3628027
-0.34799507
-0.33309232
-0.31804267
-0.30286308
-0.2876241
-0.27243565
-0.25742888
-0.24273794
-0.22848484
-0.21476424
-0.20163202
-0.18921416
-0.17784743
-0.47976907
-0.4547313
-0.43440573
-0.41744653
-0.40082795
-0.38419654
-0.36753551
-0.35071128
-0.33365953
-0.31642418
-0.29912261
-0.28191594
-0.26498435
-0.24850348
-0.23262578
-0.21746912
-0.20310919
-0.18957712
-0.17693974
-0.16539825
-0.48979408
-0.4634013
-0.44208375
-0.424127
-0.40618098
-0.38786431
-0.36921386
-0.35018629
-0.33083864
-0.31134549
-0.29194192
-0.27287926
-0.2543933
-0.2366809
-0.21988682
-0.20410088
-0.18936025
-0.17565679
-0.16299941
-0.15147535
-0.49483643
-0.46761661
-0.44560704
-0.4267265
-0.40739905
-0.38727745
-0.36651218
-0.34520745
-0.32358118
-0.30195415
-0.28067261
-0.26005542
-0.24036325
-0.22178284
-0.20442499
-0.18833281
-0.17349421
-0.15985755
-0.14737774
-0.13604452
-0.4935457
-0.46596033
-0.44342799
-0.4235797
-0.40276038
-0.38074052
-0.35784964
-0.3343853
-0.31074012
-0.28736417
-0.26467762
-0.24302143
-0.22263835
-0.20367203
-0.18617889
-0.17014676
-0.15551464
-0.14219307
-0.13009021
-0.11911094
-0.26506699
-0.26974127
-0.27224968
-0.27300082
-0.27278671
-0.2717942
-0.27010475
-0.26780592
-0.26496989
-0.26165141
-0.25789452
-0.25373672
-0.24921113
-0.24434783
-0.23917506
-0.23372173
-0.22801872
-0.22208653
-0.21592422
-0.2096173
-0.26779963
-0.27205866
-0.27426032
-0.27479279
-0.2743956
-0.27324688
-0.27142616
-0.2690173
-0.26608895
-0.26269298
-0.25887104
-0.25465852
-0.25008665
-0.24518349
-0.2399747
-0.23448817
-0.22876222
-0.22281575
-0.21654146
-0.20991342
-0.2731291
-0.27657607
-0.27817975
-0.2782845
-0.27752838
-0.2760741
-0.27399769
-0.27137573
-0.26826992
-0.26472654
-0.26078238
-0.25646864
-0.25181274
-0.24683893
-0.24156802
-0.23602502
-0.23025969
-0.22428977
-0.21781617
-0.21058113
-0.28081553
-0.28309998
-0.28383813
-0.28331415
-0.28202512
-0.28011418
-0.27765337
-0.27470942
-0.27133437
-0.26756666
-0.26343622
-0.25896814
-0.25418434
-0.24910333
-0.24373913
-0.23811158
-0.23228239
-0.22627393
-0.21954069
-0.21145514
-0.29055661
-0.29138735
-0.29102393
-0.28968269
-0.28769179
-0.28517358
-0.28219693
-0.27881728
-0.27507526
-0.27100004
-0.26661334
-0.26193196
-0.25697029
-0.25173992
-0.24624676
-0.24050228
-0.23457616
-0.22850396
-0.22148102
-0.21236502
-0.30203857
-0.30118599
-0.29951976
-0.29718921
-0.29433678
-0.29106539
-0.28744297
-0.28351393
-0.27930691
-0.27483944
-0.2701224
-0.26516337
-0.2599679
-0.25453918
-0.24887396
-0.24297241
-0.23690424
-0.23072439
-0.22339708
-0.21314383
-0.31498248
-0.31227087
-0.3091349
-0.30566402
-0.30180626
-0.2976483
-0.29326098
-0.28867731
-0.28391124
-0.27896781
-0.27384641
-0.26854334
-0.26305357
-0.25737073
-0.25148248
-0.24537719
-0.23911737
-0.23278061
-0.22516315
-0.21378128
-0.32917231
-0.32446694
-0.31972748
-0.31499323
-0.31001359
-0.30486196
-0.29961239
-0.2942857
-0.28888109
-0.28338916
-0.27779498
-0.27208055
-0.26622724
-0.26021659
-0.25402661
-0.24763674
-0.24110673
-0.23456015
-0.22674446
-0.21446557
-0.34445502
-0.33764182
-0.33118711
-0.32509019
-0.31889442
-0.31265863
-0.306462
-0.30031261
-0.29419205
-0.28807332
-0.28192354
-0.27570628
-0.26938381
-0.26291737
-0.25626252
-0.24937139
-0.24226829
-0.2350594
-0.22648739
-0.21304989
-0.36073171
-0.35168777
-0.34340159
-0.33583741
-0.32831915
-0.32089082
-0.31363667
-0.30654975
-0.29959152
-0.29271572
-0.28587121
-0.27900482
-0.27206423
-0.264998
-0.2577503
-0.25025669
-0.24246006
-0.23415379
-0.22368701
-0.20801828
-0.20246659
-0.1935183
-0.18456506
-0.17567086
-0.16678201
-0.15794017
-0.14919888
-0.14059317
-0.13215233
-0.12390498
-0.1158769
-0.10809028
-0.10056427
-0.093315211
-0.086356703
-0.079699627
-0.073352274
-0.067320449
-0.061607563
-0.056214746
-0.051140971
-0.046383191
-0.041936491
-0.037794256
-0.033948342
-0.03038927
-0.027106412
-0.024088192
-0.021322275
-0.018795765
-0.016495385
-0.014407656
-0.012519061
-0.010816198
-0.0092859263
-0.0079154934
-0.0066926661
-0.0056058304
-0.0046441689
-0.0037975855
-0.0030575239
-0.0024149804
-0.0018676847
-0.0013989946
-0.0010444928
-0.00069461487
-0.00068792281
-8.0126842e-05
-0.0017060537
0.0024523269
-0.20347663
-0.19413108
-0.1850688
-0.17618893
-0.16728206
-0.15841004
-0.14964431
-0.14101634
-0.13255294
-0.12428325
-0.11623338
-0.10842538
-0.10087837
-0.093608799
-0.086630308
-0.079953846
-0.073587769
-0.067537941
-0.061807825
-0.056398593
-0.05130925
-0.046536771
-0.042076252
-0.03792108
-0.034063105
-0.030492834
-0.027199617
-0.024171852
-0.021397173
-0.018862648
-0.016554963
-0.014460598
-0.012565993
-0.010857704
-0.0093225476
-0.0079477282
-0.0067209704
-0.0056306184
-0.0046658149
-0.0038164236
-0.0030738488
-0.0024290502
-0.0018797004
-0.0014091655
-0.0010527486
-0.00070153588
-0.0006913253
-8.5942848e-05
-0.0016914955
0.0024237396
-0.20559531
-0.19539914
-0.18611942
-0.17730824
-0.16837777
-0.15944507
-0.15063172
-0.14195974
-0.1334493
-0.12513171
-0.1170343
-0.10917899
-0.10158504
-0.09426921
-0.087245435
-0.080524882
-0.074116117
-0.068025188
-0.062255713
-0.056808984
-0.051684097
-0.046878089
-0.04238609
-0.038201495
-0.034316142
-0.030720503
-0.02740388
-0.024354604
-0.021560236
-0.019007756
-0.016683758
-0.014574623
-0.012666691
-0.010946415
-0.009400509
-0.0080160751
-0.0067807381
-0.0056827447
-0.0047111431
-0.0038557053
-0.0031077451
-0.0024581372
-0.0019044363
-0.0014300021
-0.0010696103
-0.00071554785
-0.0006983154
-9.7432585e-05
-0.0016629188
0.0023671788
-0.20866392
-0.19709106
-0.18749037
-0.17887815
-0.16995828
-0.16094889
-0.15208141
-0.14336048
-0.13479101
-0.1264094
-0.11824667
-0.1103248
-0.10266335
-0.09527991
-0.088189133
-0.081402705
-0.074929651
-0.068776426
-0.062946983
-0.05744288
-0.052263419
-0.047405784
-0.042865201
-0.038635114
-0.034707368
-0.031072407
-0.027719474
-0.024636812
-0.021811875
-0.019231518
-0.016882195
-0.01475014
-0.012821538
-0.011082684
-0.0095201294
-0.0081208195
-0.0068722224
-0.005762432
-0.0047803487
-0.0039156006
-0.0031593603
-0.0025023689
-0.0019420015
-0.0014615984
-0.0010951583
-0.00073671383
-0.00070899207
-0.00011454813
-0.0016210713
0.002283869
-0.21245581
-0.19893631
-0.18891241
-0.18070098
-0.17187709
-0.16279369
-0.15388316
-0.14512961
-0.13650654
-0.12805756
-0.11982219
-0.11182357
-0.10408164
-0.096615485
-0.089441127
-0.082571286
-0.076015832
-0.069781961
-0.063874246
-0.058294746
-0.053043154
-0.048116954
-0.043511585
-0.039220627
-0.035235995
-0.031548141
-0.028146267
-0.025018534
-0.022152274
-0.019534196
-0.01715058
-0.014987472
-0.013030856
-0.011266818
-0.009681697
-0.0082622266
-0.006995664
-0.0058698972
-0.0048736257
-0.0039962823
-0.0032288477
-0.0025618812
-0.0019925158
-0.0015040595
-0.0011294882
-0.00076510565
-0.00072350126
-0.00013718853
-0.0015670968
0.0021756954
-0.21662368
-0.20065443
-0.19011644
-0.18254356
-0.17396189
-0.16483609
-0.15590486
-0.14715311
-0.13850316
-0.13000019
-0.12169754
-0.11362283
-0.105797
-0.098240992
-0.090973082
-0.084007775
-0.077356356
-0.071027226
-0.065025983
-0.059355533
-0.054016247
-0.04900614
-0.04432105
-0.03995484
-0.035899606
-0.032145892
-0.028682913
-0.025498778
-0.02258071
-0.019915265
-0.017488537
-0.015286353
-0.013294459
-0.011498691
-0.0098851308
-0.0084402482
-0.0071510397
-0.0060051355
-0.004990984
-0.0040977715
-0.0033162373
-0.0026367108
-0.002056021
-0.0015574311
-0.0011726543
-0.00080076604
-0.00074199778
-0.00016521243
-0.0015024431
0.0020451121
-0.22077
-0.20206383
-0.19089073
-0.1841282
-0.17601215
-0.16694912
-0.15803146
-0.1493188
-0.14068501
-0.13215945
-0.12380785
-0.11566769
-0.10776329
-0.10011791
-0.092752785
-0.085685176
-0.078928578
-0.072493209
-0.066386214
-0.060611791
-0.055171359
-0.050063766
-0.045285497
-0.040830894
-0.036692386
-0.032860723
-0.029325215
-0.026073974
-0.023094147
-0.020372149
-0.017893878
-0.015644928
-0.013610782
-0.011776989
-0.010129331
-0.0086539708
-0.0073375969
-0.0061675341
-0.0051319307
-0.0042196791
-0.0034212287
-0.0027266334
-0.0021323575
-0.00162161
-0.001224606
-0.00084367389
-0.00076461846
-0.00019846897
-0.0014287595
0.0018950083
-0.22463392
-0.20356016
-0.19145961
-0.18526748
-0.17781365
-0.1690454
-0.16021934
-0.15157047
-0.14299015
-0.1344797
-0.12610393
-0.11791297
-0.10993885
-0.10220841
-0.094746201
-0.087573007
-0.080705331
-0.074155833
-0.067933706
-0.062044874
-0.056492179
-0.051275616
-0.046392573
-0.041838084
-0.037605082
-0.033684653
-0.030066307
-0.026738228
-0.023687535
-0.020900527
-0.018362922
-0.016060074
-0.013977183
-0.012099488
-0.010412437
-0.008901851
-0.0075540686
-0.0063560658
-0.0052956473
-0.0043613668
-0.0035433388
-0.0028312996
-0.0022212884
-0.0016964562
-0.0012852889
-0.00089383159
-0.00079155252
-0.0002368664
-0.0013478461
0.0017286739
-0.22587325
-0.20538808
-0.19251862
-0.18589768
-0.17893126
-0.17074462
-0.16219503
-0.15367528
-0.14520196
-0.13676855
-0.1284227
-0.12022226
-0.11221038
-0.10441972
-0.09687879
-0.08961249
-0.08264118
-0.075980795
-0.069643308
-0.063637031
-0.057966835
-0.052634395
-0.047638471
-0.042975189
-0.038638321
-0.034619574
-0.03090888
-0.027494677
-0.024364195
-0.021503718
-0.018898849
-0.016534745
-0.014396345
-0.012468578
-0.010736549
-0.0091857081
-0.0078020145
-0.0065720567
-0.0054832536
-0.0045237747
-0.0036833527
-0.0029513598
-0.0023233489
-0.0017823983
-0.0013550593
-0.00095146201
-0.00082318723
-0.00028011354
-0.0012618609
0.0015503779
-0.21601261
-0.20463418
-0.19363635
-0.18554898
-0.17849321
-0.17108082
-0.16313746
-0.1549836
-0.14679816
-0.13860721
-0.13043847
-0.12234941
-0.11439553
-0.10661976
-0.09905794
-0.091741617
-0.084697459
-0.077946932
-0.071506735
-0.06538922
-0.059602689
-0.054151687
-0.049037335
-0.044257668
-0.039807968
-0.035681102
-0.031867854
-0.028357253
-0.025136892
-0.022193231
-0.01951189
-0.017077918
-0.014876046
-0.012890912
-0.011107276
-0.0095102025
-0.0080852383
-0.0068185443
-0.0056971072
-0.0047086616
-0.0038425063
-0.0030875942
-0.0024389349
-0.0018794881
-0.0014337476
-0.0010160406
-0.0008593326
-0.00032655258
-0.0011733639
0.0013656227
-0.19387465
-0.1985818
-0.19330866
-0.18440443
-0.17690191
-0.16989422
-0.16239411
-0.15453709
-0.14658902
-0.13861309
-0.13062888
-0.12268926
-0.11485354
-0.10716904
-0.099674769
-0.092405216
-0.085390017
-0.07865343
-0.072214673
-0.066088361
-0.06028482
-0.054810385
-0.049667743
-0.044856283
-0.040372446
-0.036210081
-0.032360786
-0.028814261
-0.025558636
-0.022580791
-0.019866662
-0.017401527
-0.015170264
-0.013157597
-0.011348316
-0.0097274687
-0.0082805476
-0.0069936298
-0.0058535898
-0.0048480346
-0.0039660849
-0.003196579
-0.0025340635
-0.0019619349
-0.001501927
-0.0010746795
-0.00089045863
-0.00037295292
-0.001082936
0.0011823117
-0.18332585
-0.18914686
-0.18567399
-0.17693538
-0.16973263
-0.16347668
-0.15677704
-0.1496339
-0.14234319
-0.13497994
-0.1275539
-0.12011364
-0.11272088
-0.10542666
-0.098273562
-0.09129988
-0.084539296
-0.078020074
-0.071765271
-0.06579314
-0.060117423
-0.05474763
-0.049689376
-0.044944727
-0.040512567
-0.036388948
-0.032567451
-0.029039546
-0.025794931
-0.022821867
-0.020107498
-0.017638144
-0.015399581
-0.013377293
-0.011556706
-0.0099233973
-0.0084632875
-0.0071627952
-0.0060090504
-0.0049898626
-0.0040944236
-0.0033117534
-0.0026359561
-0.0020514452
-0.0015762408
-0.0011399548
-0.00092403532
-0.00042746543
-0.00098207151
0.00098467641
-0.17458778
-0.17780932
-0.17553236
-0.16851179
-0.16215945
-0.15659741
-0.15066454
-0.14425145
-0.13762476
-0.13087961
-0.12402787
-0.11711193
-0.11019228
-0.10332181
-0.096545204
-0.089903139
-0.083432208
-0.07716389
-0.071124536
-0.065335682
-0.05981429
-0.054572973
-0.049620292
-0.044961082
-0.040596798
-0.036525863
-0.032744028
-0.029244723
-0.026019411
-0.023057926
-0.020348801
-0.01787957
-0.015637064
-0.013607673
-0.01177759
-0.010133034
-0.0086604547
-0.0073466976
-0.0061792207
-0.0051460968
-0.0042366303
-0.0034400721
-0.0027500573
-0.0021521466
-0.0016602757
-0.0012139388
-0.00096305396
-0.0004888592
-0.00087372086
0.00076820382
-0.16490978
-0.16552257
-0.16369119
-0.1587467
-0.15362429
-0.14880488
-0.14366313
-0.13806174
-0.1321781
-0.12611303
-0.11989421
-0.11356207
-0.10717373
-0.10078274
-0.094435606
-0.088175007
-0.082040026
-0.07606511
-0.070279802
-0.064708919
-0.059372727
-0.054287093
-0.049463726
-0.044910466
-0.0406316
-0.03662819
-0.032898423
-0.029437957
-0.026240275
-0.023297023
-0.020598344
-0.018133198
-0.015889655
-0.013855175
-0.012016869
-0.010361728
-0.0088768414
-0.0075495786
-0.0063678044
-0.0053199195
-0.0043953912
-0.0035837362
-0.0028781422
-0.0022653197
-0.001755099
-0.001296835
-0.0010087537
-0.0005546122
-0.00076544265
0.00054295354
-0.15434072
-0.15307358
-0.15126423
-0.14803461
-0.14420544
-0.14019087
-0.13584614
-0.13108871
-0.12600203
-0.12066915
-0.11513321
-0.10943723
-0.10363419
-0.097776489
-0.091911567
-0.08608337
-0.080332725
-0.074696475
-0.069206992
-0.063892166
-0.058775473
-0.053876055
-0.049208878
-0.044784956
-0.040611623
-0.036692829
-0.033029463
-0.029619685
-0.026459264
-0.023541924
-0.02085967
-0.018403117
-0.016161792
-0.014124423
-0.01227921
-0.010614072
-0.0091168725
-0.0077756209
-0.0065786859
-0.0055148746
-0.0045738827
-0.0037455302
-0.0030226108
-0.0023929285
-0.0018623851
-0.0013896784
-0.0010626343
-0.00062409511
-0.00066327479
0.00031703008
-0.14255419
-0.14049524
-0.13880046
-0.13684516
-0.13418684
-0.13100826
-0.12745066
-0.12351787
-0.11923199
-0.11464886
-0.10981939
-0.10478828
-0.099603936
-0.0943164
-0.088972945
-0.083617743
-0.078292258
-0.07303474
-0.067879629
-0.062857314
-0.057994063
-0.053312012
-0.048829228
-0.044559852
-0.040514304
-0.036699522
-0.033119248
-0.029774326
-0.026663022
-0.023781353
-0.02112341
-0.018681679
-0.016447353
-0.014410624
-0.012560965
-0.010887387
-0.0093786763
-0.0080236111
-0.006811177
-0.0057306798
-0.004772126
-0.0039256832
-0.0031838356
-0.0025353897
-0.0019826496
-0.0014927852
-0.0011256776
-0.00069686664
-0.00057320968
9.9085964e-05
-0.12986013
-0.12793039
-0.12658371
-0.12554053
-0.12384584
-0.12147692
-0.11867962
-0.11552548
-0.11201135
-0.10816678
-0.10404171
-0.099682529
-0.095132187
-0.090435603
-0.08563869
-0.080785091
-0.075915916
-0.071069681
-0.066281883
-0.061584595
-0.057006224
-0.052571382
-0.048300857
-0.04421166
-0.040317142
-0.03662717
-0.033148352
-0.029884286
-0.026835851
-0.024001502
-0.021377582
-0.018958627
-0.016737678
-0.014706572
-0.012856229
-0.011176914
-0.0096584901
-0.0082906375
-0.0070630817
-0.0059657296
-0.0049889935
-0.0041234407
-0.0033613557
-0.0026924357
-0.002115848
-0.0016060831
-0.001198559
-0.00077251138
-0.00050114759
-0.0001015689
-0.11697437
-0.11562484
-0.11476684
-0.11437946
-0.11344032
-0.11180663
-0.10972011
-0.10728313
-0.10448898
-0.10134947
-0.097906707
-0.094205015
-0.090284236
-0.086183676
-0.081944407
-0.077608344
-0.073215616
-0.068804071
-0.064409186
-0.060063746
-0.055797471
-0.05163676
-0.047604556
-0.043720294
-0.039999932
-0.03645604
-0.033097957
-0.029931981
-0.026961605
-0.02418778
-0.021609191
-0.019222549
-0.017022879
-0.015003814
-0.01315787
-0.011476721
-0.0099514456
-0.0085727667
-0.0073312726
-0.0062175803
-0.005222611
-0.0043373935
-0.0035541403
-0.0028633235
-0.0022615256
-0.0017292444
-0.0012816539
-0.00085081933
-0.00045210859
-0.00027608477
-0.1044401
-0.1037571
-0.10341495
-0.10352159
-0.10317051
-0.10217411
-0.10072918
-0.098939415
-0.096801359
-0.09431732
-0.091519623
-0.088447244
-0.085135525
-0.081619429
-0.077935452
-0.074121131
-0.070214191
-0.066251107
-0.062266505
-0.058292928
-0.054360514
-0.05049666
-0.04672578
-0.043069159
-0.039544889
-0.036167879
-0.032949927
-0.029899843
-0.027023629
-0.024324683
-0.021804043
-0.019460637
-0.01729156
-0.015292337
-0.013457204
-0.011779364
-0.010251244
-0.0088647316
-0.0076113994
-0.006482683
-0.0054701203
-0.00456527
-0.0037604127
-0.0030466929
-0.0024187034
-0.00186161
-0.0013749231
-0.00093179448
-0.00042945597
-0.0004173191
-0.092542875
-0.092445913
-0.092572174
-0.093066452
-0.093176713
-0.092715164
-0.091830871
-0.090613785
-0.089062727
-0.087175246
-0.084974585
-0.082492697
-0.079759657
-0.076805334
-0.073661764
-0.070362357
-0.06694088
-0.063431135
-0.059866134
-0.056277412
-0.052694685
-0.049145538
-0.045655125
-0.042245933
-0.038937632
-0.035746997
-0.032687909
-0.0297714
-0.027005762
-0.024396702
-0.021947524
-0.019659351
-0.017531354
-0.015561004
-0.013744323
-0.012076137
-0.010550321
-0.0091600345
-0.0078979413
-0.0067563985
-0.0057276658
-0.0048039058
-0.0039776102
-0.0032405202
-0.0025858326
-0.0020021383
-0.0014778349
-0.0010155483
-0.00043431586
-0.00052096492
-0.081422988
-0.08178201
-0.082290692
-0.083087562
-0.083558661
-0.083534217
-0.083125227
-0.0824038
-0.081368339
-0.080013477
-0.07835481
-0.076416929
-0.074224142
-0.071801049
-0.069174578
-0.066373762
-0.06342851
-0.060369018
-0.057225603
-0.054028042
-0.050804916
-0.047583252
-0.044388214
-0.04124282
-0.038167715
-0.035181016
-0.032298231
-0.029532242
-0.026893335
-0.024389299
-0.022025547
-0.019805288
-0.017729722
-0.015798251
-0.014008707
-0.012357587
-0.010840281
-0.0094512999
-0.0081844893
-0.0070332174
-0.0059905625
-0.0050493667
-0.0042024724
-0.0034421755
-0.0027608308
-0.0021493986
-0.0015893365
-0.0011021443
-0.0004652865
-0.00058638562
-0.071140897
-0.071827864
-0.072622916
-0.073644825
-0.074391092
-0.074713779
-0.07469576
-0.074392558
-0.073800485
-0.072911756
-0.071735641
-0.070289805
-0.068592688
-0.066663571
-0.064524194
-0.062198725
-0.059712875
-0.057093162
-0.054366562
-0.051560236
-0.04870094
-0.045814476
-0.042925342
-0.040056425
-0.037228728
-0.034461151
-0.031770337
-0.029170584
-0.026673817
-0.024289612
-0.022025263
-0.0198859
-0.017874636
-0.015992735
-0.014239815
-0.012614045
-0.011112363
-0.0097306817
-0.0084640935
-0.0073070506
-0.0062535349
-0.0052971413
-0.0044311932
-0.0036485338
-0.0029411646
-0.0023015954
-0.0017078671
-0.0011914316
-0.00051854083
-0.00061690653
-0.061708555
-0.062616279
-0.063609025
-0.064784963
-0.065730967
-0.066319587
-0.066612834
-0.066652494
-0.066432425
-0.065942698
-0.065187358
-0.064177938
-0.062927307
-0.061449577
-0.059761401
-0.057882031
-0.055832638
-0.053635747
-0.051314805
-0.048893841
-0.046397098
-0.043848532
-0.041271356
-0.038687706
-0.036118336
-0.033582357
-0.031097025
-0.028677593
-0.026337214
-0.024086906
-0.021935565
-0.019890014
-0.017955108
-0.016133859
-0.014427589
-0.012836106
-0.011357888
-0.0099902679
-0.0087296242
-0.0075715468
-0.0065109908
-0.0055423715
-0.0046596111
-0.0038561236
-0.0031239634
-0.0024566172
-0.0018314168
-0.0012829131
-0.00058836344
-0.00061937355
-0.053111182
-0.054155515
-0.055271446
-0.056539453
-0.057619508
-0.058402337
-0.058934142
-0.059245818
-0.05932918
-0.059172605
-0.058775925
-0.058145478
-0.057289151
-0.056216271
-0.054938692
-0.053470902
-0.051829532
-0.05003289
-0.048100636
-0.046053427
-0.043912552
-0.041699555
-0.039435807
-0.037142121
-0.03483843
-0.032543495
-0.030274653
-0.028047621
-0.02587634
-0.023772887
-0.021747421
-0.019808191
-0.017961573
-0.016212157
-0.014562849
-0.013015014
-0.011568628
-0.010222431
-0.0089740985
-0.0078203918
-0.0067572899
-0.0057800894
-0.0048834128
-0.0040612922
-0.0033061536
-0.0026121119
-0.0019576323
-0.0013756888
-0.00066805296
-0.00060296584
-0.045317987
-0.04643464
-0.047614518
-0.048923584
-0.050082441
-0.050997889
-0.051704069
-0.052223435
-0.052546452
-0.052660419
-0.052561941
-0.052253154
-0.051737732
-0.051020801
-0.050109876
-0.049015032
-0.047748549
-0.046324567
-0.04475884
-0.043068455
-0.041271504
-0.039386733
-0.037433195
-0.035429883
-0.033395385
-0.031347582
-0.029303375
-0.027278442
-0.025287056
-0.023341928
-0.021454117
-0.019632975
-0.017886137
-0.016219551
-0.014637546
-0.013142921
-0.011737066
-0.010420083
-0.0091909299
-0.0080475452
-0.0069869669
-0.0060054207
-0.0050983147
-0.0042603606
-0.0034845897
-0.0027655783
-0.0020839615
-0.0014684926
-0.00075100336
-0.00057748392
-0.03828758
-0.039428756
-0.040627473
-0.041937844
-0.043130948
-0.044127838
-0.044953553
-0.045624136
-0.046129411
-0.046456253
-0.046598995
-0.046556562
-0.046329258
-0.045918718
-0.045328731
-0.044565455
-0.043637188
-0.042554136
-0.04132824
-0.039972976
-0.038503098
-0.03693434
-0.035283105
-0.033566161
-0.031800307
-0.030002072
-0.028187428
-0.026371539
-0.024568536
-0.022791336
-0.021051495
-0.019359116
-0.017722783
-0.01614955
-0.014644955
-0.013213068
-0.011856572
-0.010576851
-0.0093740934
-0.0082474028
-0.0071948858
-0.0062137314
-0.0053001999
-0.0044497468
-0.0036561674
-0.002914462
-0.0022078183
-0.0015598057
-0.00083169652
-0.00055154364
-0.031972531
-0.033103935
-0.03428855
-0.035570779
-0.036763706
-0.037800981
-0.038700874
-0.039474674
-0.040112175
-0.040600418
-0.040932331
-0.041104554
-0.04111487
-0.040962186
-0.040647257
-0.040172928
-0.03954402
-0.038767188
-0.03785082
-0.036804921
-0.035640921
-0.034371456
-0.033010104
-0.031571129
-0.030069198
-0.028519092
-0.026935433
-0.025332422
-0.023723605
-0.022121667
-0.020538255
-0.018983842
-0.017467625
-0.015997465
-0.014579861
-0.01321995
-0.011921547
-0.010687196
-0.0095182416
-0.0084149015
-0.0073763394
-0.0064007219
-0.0054852057
-0.0046260486
-0.0038179063
-0.0030562442
-0.0023267351
-0.0016480102
-0.00090633924
-0.00053118568
-0.026322786
-0.027420956
-0.028568568
-0.029802052
-0.030969413
-0.032015343
-0.032953145
-0.033790657
-0.034518112
-0.035123192
-0.03559815
-0.035938162
-0.036139276
-0.036198415
-0.036114008
-0.035886253
-0.035517075
-0.035010067
-0.034370461
-0.033605068
-0.032722167
-0.031731353
-0.030643344
-0.029469765
-0.028222924
-0.026915567
-0.02556062
-0.024170941
-0.02275909
-0.021337109
-0.019916334
-0.018507223
-0.017119231
-0.015760705
-0.014438818
-0.013159535
-0.011927605
-0.010746575
-0.0096188274
-0.0085456205
-0.0075271312
-0.006562494
-0.0056497826
-0.0047860988
-0.0039670071
-0.0031885161
-0.0024384771
-0.0017315329
-0.00097298783
-0.00051928914
-0.021287969
-0.022337953
-0.023433744
-0.024605182
-0.025729301
-0.026760401
-0.027708156
-0.028577941
-0.029360753
-0.03004525
-0.030623582
-0.03109014
-0.031439919
-0.031668533
-0.031772761
-0.031750807
-0.031602316
-0.031328372
-0.030931523
-0.030415779
-0.029786563
-0.029050622
-0.028215903
-0.027291399
-0.02628697
-0.025213144
-0.024080911
-0.022901492
-0.021686125
-0.020445849
-0.019191315
-0.017932599
-0.016679053
-0.015439177
-0.014220515
-0.013029588
-0.01187185
-0.010751662
-0.0096722926
-0.0086359296
-0.0076436909
-0.0066956405
-0.0057907612
-0.0049270195
-0.0041009014
-0.0033090424
-0.0025411033
-0.0018089469
-0.001031192
-0.00051588068
-0.016819265
-0.017812647
-0.018848132
-0.019950066
-0.021019631
-0.022019438
-0.0229565
-0.023834447
-0.02464523
-0.025378688
-0.026027282
-0.02658514
-0.027046758
-0.027407014
-0.027661635
-0.027807437
-0.027842377
-0.027765597
-0.027577476
-0.027279676
-0.026875146
-0.026368087
-0.025763883
-0.025069014
-0.024290924
-0.023437876
-0.022518789
-0.021543049
-0.020520321
-0.019460353
-0.018372788
-0.017266985
-0.016151857
-0.015035728
-0.013926203
-0.012830075
-0.011753249
-0.01070068
-0.0096763471
-0.0086832228
-0.0077232626
-0.0067973923
-0.0059054671
-0.0050463116
-0.0042173213
-0.0034158298
-0.0026329867
-0.0018790225
-0.0010813715
-0.00051909059
-0.012870482
-0.013803758
-0.014775319
-0.015804856
-0.016813688
-0.017771564
-0.018683532
-0.01955198
-0.020369888
-0.021128368
-0.02182046
-0.022440406
-0.022982618
-0.023441695
-0.023812805
-0.024091901
-0.024275793
-0.024362207
-0.024349869
-0.024238572
-0.024029218
-0.023723829
-0.023325529
-0.0228385
-0.022267912
-0.021619824
-0.020901064
-0.020119093
-0.019281847
-0.018397573
-0.017474659
-0.016521467
-0.015546175
-0.014556624
-0.013560185
-0.012563639
-0.011573076
-0.010593816
-0.0096303401
-0.0086862414
-0.00776418
-0.0068658464
-0.0059919036
-0.0051420003
-0.0043144105
-0.0035072142
-0.0027128235
-0.0019407484
-0.0011242115
-0.0005262993
-0.0093996067
-0.010272811
-0.0111804
-0.012138066
-0.013083946
-0.013993906
-0.014871508
-0.015718241
-0.016528107
-0.017293492
-0.018008163
-0.018666721
-0.019263786
-0.019794012
-0.02025239
-0.020634437
-0.020936267
-0.021154668
-0.021287181
-0.021332194
-0.021289001
-0.021157844
-0.020939936
-0.020637454
-0.020253519
-0.019792137
-0.019258134
-0.018657052
-0.017995042
-0.017278734
-0.016515093
-0.015711275
-0.014874482
-0.014011816
-0.013130142
-0.012235962
-0.0113353
-0.010433596
-0.0095356256
-0.0086454137
-0.0077661719
-0.0069002344
-0.006048981
-0.005212826
-0.0043908741
-0.0035819737
-0.0027796603
-0.001993352
-0.0011602853
-0.00053504971
-0.0063686369
-0.0071844353
-0.008030705
-0.00891967
-0.0098035294
-0.010663364
-0.011501588
-0.012319014
-0.013110601
-0.013869943
-0.014591592
-0.015270642
-0.015902105
-0.016480909
-0.017002147
-0.017461218
-0.017853907
-0.018176447
-0.01842561
-0.018598794
-0.0186941
-0.01871039
-0.018647333
-0.018505435
-0.018286046
-0.017991348
-0.017624327
-0.017188711
-0.016688901
-0.016129885
-0.015517127
-0.014856448
-0.014153906
-0.013415663
-0.01264786
-0.011856488
-0.011047269
-0.010225543
-0.0093961635
-0.0085633989
-0.0077308454
-0.006901342
-0.0060768744
-0.0052585404
-0.0044462132
-0.0036395027
-0.002832985
-0.0020363633
-0.0011899679
-0.00054352873
-0.0037453633
-0.0045079618
-0.0052972363
-0.0061223416
-0.0069472334
-0.0077574247
-0.0085544203
-0.0093385023
-0.010105486
-0.010850067
-0.011567567
-0.012253631
-0.012903751
-0.013513267
-0.014077542
-0.014592087
-0.015052619
-0.015455121
-0.015795927
-0.0160718
-0.016280012
-0.016418411
-0.016485483
-0.016480397
-0.016403044
-0.016254049
-0.016034779
-0.015747319
-0.015394441
-0.014979548
-0.014506606
-0.013980058
-0.013404723
-0.012785696
-0.012128231
-0.011437627
-0.010719112
-0.0099777233
-0.0092182002
-0.0084448711
-0.0076615492
-0.0068714315
-0.0060769853
-0.0052798943
-0.0044807219
-0.0036798064
-0.0028727039
-0.0020695917
-0.0012134594
-0.00055060975
-0.0015041159
-0.0022193171
-0.0029575491
-0.0037253411
-0.0044964122
-0.0052599889
-0.0060168374
-0.0067668077
-0.0075064534
-0.0082314351
-0.0089377877
-0.0096217006
-0.010279172
-0.010906003
-0.011497928
-0.012050705
-0.012560161
-0.013022248
-0.013433109
-0.013789154
-0.01408713
-0.014324189
-0.014497958
-0.014606593
-0.014648833
-0.014624035
-0.014532207
-0.014374012
-0.014150769
-0.01386443
-0.013517546
-0.013113214
-0.01265501
-0.012146908
-0.011593191
-0.010998348
-0.010366973
-0.0097036508
-0.0090128445
-0.0082987821
-0.0075653401
-0.006815931
-0.0060533762
-0.0052798357
-0.0044964725
-0.0037042933
-0.0028997697
-0.002093616
-0.0012312668
-0.00055592006
0.00037921181
-0.00029441302
-0.00098781173
-0.001705137
-0.0024281621
-0.0031492213
-0.0038684798
-0.0045854216
-0.0052972123
-0.0060003329
-0.0066914444
-0.0073672368
-0.0080241899
-0.0086585663
-0.0092665008
-0.0098440629
-0.010387295
-0.010892253
-0.011355064
-0.011771985
-0.01213947
-0.012454233
-0.012713313
-0.012914135
-0.013054572
-0.013132992
-0.013148306
-0.013100001
-0.012988157
-0.012813457
-0.012577183
-0.012281191
-0.011927872
-0.011520099
-0.011061164
-0.010554697
-0.010004578
-0.0094148362
-0.0087895422
-0.0081326955
-0.0074481054
-0.0067392705
-0.0060092435
-0.0052605491
-0.0044948484
-0.0037137364
-0.0029145183
-0.002108427
-0.0012432061
-0.0005589633
0.0019018034
0.0012619571
0.00060537338
-7.0349996e-05
-0.00075340384
-0.0014385668
-0.0021255079
-0.0028134142
-0.0034999415
-0.0041822352
-0.0048574741
-0.005522775
-0.0061750394
-0.0068109469
-0.007427012
-0.0080196248
-0.0085850798
-0.0091196074
-0.0096194183
-0.010080753
-0.010499937
-0.010873438
-0.011197924
-0.01147033
-0.011687913
-0.011848313
-0.011949609
-0.011990364
-0.011969665
-0.011887153
-0.011743036
-0.011538095
-0.011273673
-0.010951651
-0.010574399
-0.010144725
-0.0096657992
-0.0091410695
-0.0085741657
-0.0079687901
-0.0073286004
-0.0066570867
-0.0059574326
-0.0052324241
-0.0044841179
-0.0037146
-0.0029219051
-0.0021177127
-0.0012518819
-0.00056105422
0.003104421
0.0024923514
0.0018659005
0.0012242925
0.00057431226
-8.0777039e-05
-0.00074025952
-0.0014030717
-0.0020672404
-0.0027304286
-0.0033902256
-0.004044092
-0.0046892752
-0.0053228046
-0.005941523
-0.0065421115
-0.0071211103
-0.0076749424
-0.0081999481
-0.0086924243
-0.0091486703
-0.0095650374