/*--------------------------------*- C++ -*----------------------------------*\
  =========                 |
  \\      /  F ield         | OpenFOAM: The Open Source CFD Toolbox
   \\    /   O peration     | Website:  https://openfoam.org
    \\  /    A nd           | Version:  6
     \\/     M anipulation  |
\*---------------------------------------------------------------------------*/
FoamFile
{
    version     2.0;
    format      ascii;
    class       volSymmTensorField;
    location    "334";
    object      UPrime2Mean;
}
// * * * * * * * * * * * * * * * * * * * * * * * * * * * * * * * * * * * * * //

dimensions      [0 2 -2 0 0 0 0];

internalField   nonuniform List<symmTensor> 
9200
(
(5.9458021e-05 -4.6151538e-05 2.1500006e-22 3.7035165e-05 -1.1489121e-22 3.483357e-39)
(0.00036712975 -0.00029384769 5.5307683e-22 0.00023610029 -4.1270299e-22 3.7898657e-39)
(0.00074362832 -0.00057629179 6.5922811e-23 0.00044926309 -5.0016428e-23 2.0776575e-39)
(0.0011744709 -0.00084966889 -8.3579553e-22 0.00062172576 5.8708412e-22 4.1430736e-39)
(0.0016010129 -0.0010934613 4.1026381e-23 0.00075998083 -3.3605985e-23 6.0731547e-40)
(0.0019938658 -0.0012966754 3.5401764e-22 0.0008638021 -2.3432473e-22 9.6150046e-41)
(0.0023324581 -0.0014553263 -7.7444672e-23 0.0009366629 5.3168689e-23 2.7521e-40)
(0.0025999909 -0.0015694761 7.0345053e-23 0.00098445478 -4.6962938e-23 1.8535162e-40)
(0.002784583 -0.0016411474 3.4383916e-22 0.0010128553 -2.0796872e-22 5.2896601e-40)
(0.0028797436 -0.0016734 2.6817942e-23 0.0010267008 -1.6297473e-23 1.510283e-42)
(0.0028844694 -0.0016699005 -3.728634e-22 0.0010299919 2.2804003e-22 2.8441584e-40)
(0.0028032532 -0.0016346555 3.1316682e-22 0.0010259381 -1.9849025e-22 3.9433932e-41)
(0.0026457614 -0.001571841 -5.5941655e-22 0.0010170286 3.7440819e-22 6.0943771e-40)
(0.0024260452 -0.0014857001 -2.8480494e-22 0.0010051325 1.9429688e-22 3.9522829e-41)
(0.0021613019 -0.0013804766 7.4064563e-23 0.00099160831 -5.4431641e-23 5.0119265e-42)
(0.0018702974 -0.0012603557 -2.8034742e-22 0.00097741005 2.1726473e-22 5.312236e-41)
(0.0015715709 -0.0011294115 2.473345e-22 0.00096323949 -2.0756964e-22 6.4253702e-41)
(0.0012816193 -0.00099162755 1.8542706e-22 0.00095005227 -1.6283978e-22 2.5871585e-40)
(0.0010145603 -0.00085071169 -5.9266877e-24 0.00093910445 1.2952354e-23 4.7502033e-41)
(0.00078608974 -0.00070920504 -3.116008e-24 0.00092101831 1.1360025e-23 5.8881362e-41)
(7.8501781e-05 -5.2474918e-05 2.2364734e-23 3.6020417e-05 -8.5458999e-24 6.131213e-41)
(0.00046855648 -0.00032470078 5.8570393e-22 0.00022570803 -3.8097746e-22 4.0420887e-39)
(0.00093331096 -0.00062744043 -1.8887943e-22 0.00042424892 1.2674727e-22 2.1953219e-39)
(0.0014334739 -0.00090825168 -1.500952e-21 0.00058202255 9.3723874e-22 9.5880276e-39)
(0.0019007978 -0.0011479723 -5.272047e-23 0.00070584263 3.3282298e-23 1.2095191e-40)
(0.0023010426 -0.001336869 1.1646887e-21 0.0007967021 -6.8588097e-22 3.1738146e-39)
(0.0026127524 -0.0014731411 -4.8040598e-22 0.00085914433 2.7986928e-22 1.0938831e-40)
(0.0028219044 -0.001559364 -1.4523177e-22 0.0008995774 8.3871771e-23 3.9030442e-41)
(0.0029223202 -0.0015999333 5.5358813e-22 0.00092385652 -3.2152939e-22 2.9873084e-40)
(0.0029155276 -0.001599992 -6.7368598e-22 0.00093676836 3.9761803e-22 3.4358203e-40)
(0.0028101665 -0.0015649398 -4.7974339e-22 0.00094206915 2.9017707e-22 4.2327478e-40)
(0.0026210557 -0.0015001482 1.0408566e-21 0.00094255925 -6.546525e-22 2.1535668e-39)
(0.002367734 -0.0014108162 4.8672609e-22 0.00094018316 -3.2576801e-22 1.5207945e-40)
(0.0020725057 -0.001301921 -7.7102399e-22 0.00093614976 5.5084142e-22 7.4859952e-40)
(0.0017582092 -0.0011782148 1.3927659e-22 0.00093104983 -1.0723267e-22 6.2181879e-41)
(0.0014460234 -0.001044232 -3.107679e-22 0.00092495922 2.6805939e-22 1.666855e-40)
(0.0011535893 -0.00090428822 -1.2864449e-22 0.00091755737 1.3074737e-22 5.2260019e-41)
(0.00089366101 -0.00076239409 3.9931318e-22 0.00090828775 -4.4116825e-22 8.4584089e-40)
(0.00067410799 -0.00062179431 1.9048474e-22 0.00089548249 -2.5054164e-22 1.616157e-40)
(0.00050042975 -0.00048569709 -8.313937e-23 0.00087063725 1.0248053e-22 1.2039584e-39)
(0.00010002541 -5.697936e-05 -1.8840768e-22 3.3184949e-05 8.0185955e-23 1.5750045e-39)
(0.00057686141 -0.00034277466 -3.1454429e-22 0.00020421993 1.7474132e-22 1.6417766e-39)
(0.001128535 -0.00065235091 -3.5805706e-22 0.00037930551 2.0864001e-22 4.103783e-39)
(0.0016875073 -0.00092801449 1.2026488e-23 0.00051639913 -6.6044421e-24 4.4571513e-43)
(0.002177383 -0.0011530316 1.1725582e-23 0.00062243194 -5.6329352e-24 2.9487786e-39)
(0.0025615342 -0.0013200038 4.0792763e-22 0.00069957897 -2.1716274e-22 8.2475864e-40)
(0.0028212382 -0.0014299235 4.0311512e-23 0.00075305582 -2.0028626e-23 3.4136973e-40)
(0.0029494543 -0.0014879955 -6.9737049e-22 0.00078923263 3.7334198e-22 2.1895024e-40)
(0.0029498753 -0.0015007541 8.2812431e-22 0.00081357845 -4.5425318e-22 4.1336277e-40)
(0.0028355481 -0.001474936 2.7344737e-22 0.00083029609 -1.57323e-22 4.5187568e-40)
(0.0026269456 -0.0014170282 -7.5586957e-22 0.00084241357 4.5394471e-22 9.3584072e-40)
(0.0023495718 -0.0013330836 -2.3831629e-22 0.00085190616 1.5322561e-22 3.0528474e-40)
(0.0020311404 -0.0012287138 8.558466e-23 0.00085984206 -5.9265915e-23 8.2586175e-40)
(0.0016986273 -0.0011091757 2.0817444e-22 0.00086654568 -1.5984858e-22 1.1931673e-40)
(0.0013756344 -0.00097946863 -7.3518828e-23 0.00087176357 6.2965383e-23 9.0980841e-41)
(0.0010804622 -0.0008443863 1.7121982e-22 0.00087483019 -1.693135e-22 7.2642278e-41)
(0.00082513257 -0.00070849961 -1.1828103e-22 0.00087483244 1.3766567e-22 2.8036044e-41)
(0.00061538381 -0.00057603527 -2.435369e-22 0.0008707128 3.3238239e-22 6.769077e-40)
(0.00045159976 -0.00045056817 -9.1419807e-24 0.00086107425 9.7077669e-24 6.0595416e-40)
(0.00033079644 -0.00033542619 8.5195939e-23 0.00084294922 -1.811212e-22 7.0170468e-41)
(0.00012331051 -5.9000293e-05 -1.4969703e-22 2.87804e-05 5.515537e-23 7.8222345e-40)
(0.00068651106 -0.00034505146 2.3069528e-22 0.00017385511 -1.1314762e-22 1.463588e-40)
(0.0013175979 -0.00064674745 2.0457432e-22 0.00031944765 -1.0083326e-22 1.6905042e-40)
(0.0019193123 -0.00090530805 4.4590885e-22 0.00043257176 -2.1278332e-22 1.8225982e-39)
(0.0024098381 -0.0011073528 3.93204e-22 0.00051995964 -1.8659834e-22 8.1089358e-40)
(0.0027540059 -0.0012485501 -6.9379312e-22 0.00058463392 3.2918623e-22 6.2005803e-40)
(0.0029404203 -0.0013327019 -3.8907128e-22 0.0006318695 1.8781228e-22 1.7656249e-40)
(0.0029734798 -0.0013670832 0 0.00066735344 0 0)
(0.0028702633 -0.0013595013 4.269236e-22 0.00069559636 -2.3108435e-22 2.2719206e-39)
(0.0026572079 -0.0013173085 -1.8624565e-22 0.00071973646 1.093013e-22 8.6060976e-40)
(0.0023663581 -0.001247158 -1.0962436e-21 0.00074168954 6.5100486e-22 7.6837871e-40)
(0.0020314242 -0.0011550547 -1.4058664e-22 0.00076232096 8.8215827e-23 1.5387377e-40)
(0.0016840064 -0.0010465484 5.4483117e-22 0.00078164119 -4.030098e-22 1.0384742e-39)
(0.0013505046 -0.00092692864 2.9952715e-23 0.00079902335 -1.9601662e-23 4.2805209e-40)
(0.0010501613 -0.00080132137 -8.4940597e-24 0.00081343288 8.2505066e-24 3.0240272e-43)
(0.00079442859 -0.00067464362 9.1764644e-23 0.00082366458 -1.0518728e-22 5.3231367e-41)
(0.0005875631 -0.00055143728 1.6859198e-25 0.00082855412 2.1898818e-24 6.1978669e-41)
(0.00042810428 -0.00043563876 -1.6417381e-22 0.00082708169 2.7329795e-22 1.6385434e-40)
(0.00031070594 -0.00033033402 -9.1840577e-23 0.0008187445 1.9048446e-22 1.137758e-40)
(0.00022810703 -0.00023781087 4.7271042e-23 0.00080465369 -1.4043471e-22 7.0640901e-40)
(0.00014729579 -5.7968514e-05 1.132356e-22 2.3219235e-05 -3.6080716e-23 3.0771612e-40)
(0.00079061361 -0.00032955792 4.7197996e-22 0.00013771356 -1.8825305e-22 2.7724675e-39)
(0.0014872282 -0.0006087834 3.7404246e-22 0.00025096746 -1.5401455e-22 1.760126e-40)
(0.002111168 -0.00084023626 4.155764e-22 0.00033945973 -1.6968273e-22 9.7536464e-40)
(0.0025792801 -0.0010144484 -6.4114319e-22 0.00040933424 2.6461766e-22 1.5371561e-39)
(0.0028627516 -0.0011302289 2.5189872e-23 0.00046391592 -8.1024162e-24 1.4621444e-40)
(0.0029623053 -0.0011934011 3.6934362e-23 0.00050786367 -1.6045428e-23 1.2338849e-42)
(0.0028973908 -0.001212042 5.2695549e-22 0.0005456114 -2.4455833e-22 5.5014864e-40)
(0.0027001444 -0.0011938822 7.1408794e-23 0.00058027955 -3.5163466e-23 4.9715948e-42)
(0.0024096927 -0.0011457191 -1.9249445e-22 0.0006136296 1.085176e-22 2.9739529e-40)
(0.002066639 -0.0010735437 6.2833892e-22 0.00064625631 -3.8766732e-22 2.0754357e-39)
(0.0017081978 -0.00098286939 -4.5844217e-22 0.00067780272 3.0061108e-22 1.8047271e-40)
(0.0013645307 -0.00087904565 -8.6772269e-22 0.00070721157 6.7354475e-22 1.2786341e-39)
(0.0010567231 -0.00076739898 -2.8841268e-23 0.00073301103 2.6353709e-23 2.7007307e-42)
(0.00079649877 -0.00065314907 3.1236124e-22 0.00075361479 -3.4655429e-22 1.0315307e-39)
(0.00058738858 -0.0005411465 0 0.00076761106 0 0)
(0.00042680939 -0.00043553798 3.9282648e-23 0.00077397517 -5.6319275e-23 2.6826031e-41)
(0.00030843751 -0.0003394889 -2.0050826e-23 0.00077211685 4.3329633e-23 3.9876724e-41)
(0.00022425897 -0.00025505946 -2.0157514e-23 0.00076240666 4.374989e-23 1.0514696e-41)
(0.00016610316 -0.00018318406 9.894325e-24 0.00074801792 -4.1037056e-23 7.1660959e-41)
(0.00017068354 -5.3540666e-05 2.4769858e-22 1.7080463e-05 -6.3823516e-23 1.2444232e-39)
(0.00088186414 -0.00029598966 2.4444574e-23 9.9622174e-05 -8.0232983e-24 2.3044109e-42)
(0.0016247 -0.00053993989 -7.0246835e-23 0.00018098875 2.3712303e-23 1.020528e-41)
(0.0022480976 -0.0007374524 7.3193075e-23 0.00024645253 -2.3516943e-23 2.0155776e-40)
(0.0026727357 -0.00088290223 -4.4220062e-22 0.00030118307 1.5489141e-22 3.7830744e-40)
(0.0028813383 -0.00097742326 -2.1332289e-22 0.00034821949 7.7508098e-23 3.4257987e-41)
(0.0028906303 -0.0010272673 1.5242808e-22 0.00039107433 -4.668398e-23 1.0769526e-39)
(0.0027367605 -0.0010395635 -5.4683758e-24 0.00043260191 6.2027672e-24 8.4239097e-41)
(0.0024659793 -0.0010205154 -3.6262247e-22 0.00047434973 1.7938551e-22 8.913824e-40)
(0.0021267712 -0.00097542811 6.3089418e-22 0.00051660871 -3.2659095e-22 2.6454902e-40)
(0.0017633704 -0.00090922696 -1.7253447e-23 0.00055862727 2.3847658e-23 4.6272827e-40)
(0.0014111961 -0.00082692464 -5.0433424e-22 0.00059887691 3.6442552e-22 1.2796846e-39)
(0.0010945785 -0.00073381857 0 0.00063538266 0 0)
(0.00082672791 -0.00063535389 1.2413878e-22 0.00066609275 -1.3948336e-22 6.8528129e-40)
(0.00061144621 -0.00053673543 6.4556596e-24 0.00068923424 -1.3211785e-23 3.7484718e-41)
(0.00044579182 -0.00044245969 -1.5153599e-22 0.00070359825 2.3592858e-22 7.9766567e-40)
(0.00032291263 -0.00035593334 -3.4326198e-23 0.00070867658 6.0945597e-23 1.6745746e-41)
(0.00023446055 -0.00027930045 -1.0679394e-23 0.00070458935 2.8527641e-23 2.6743442e-41)
(0.00017221258 -0.00021353999 -1.3891596e-23 0.00069249807 3.8496012e-23 1.0448445e-41)
(0.00012890743 -0.00015859629 2.5244507e-23 0.00067627525 -9.4390482e-23 9.9662012e-41)
(0.00019208458 -4.5684919e-05 9.5448754e-23 1.1052532e-05 -1.8365313e-23 1.9707358e-40)
(0.00095348572 -0.00024592868 -6.8631649e-22 6.3656149e-05 1.7269394e-22 4.2856308e-39)
(0.0017195666 -0.00044500152 -6.007169e-23 0.00011649831 1.7083355e-23 4.0016801e-40)
(0.0023199953 -0.00060555136 -1.8217479e-22 0.00016209536 5.372733e-23 2.0125999e-39)
(0.0026849277 -0.00072491511 -1.3879369e-22 0.00020439616 3.8457013e-23 2.7894932e-41)
(0.0028130468 -0.0008048433 -7.8626889e-22 0.00024574864 2.4313121e-22 3.7019577e-40)
(0.0027390011 -0.00084990877 -3.8622084e-22 0.00028832559 1.3564727e-22 2.9769557e-40)
(0.0025146774 -0.00086452232 7.4980215e-22 0.00033341397 -2.8148141e-22 2.4238418e-40)
(0.0021969649 -0.00085227457 1.2876025e-22 0.00038106687 -6.5882586e-23 3.0510478e-40)
(0.0018386594 -0.00081659429 -1.6562393e-22 0.00043019362 7.4907204e-23 1.0455075e-40)
(0.0014823474 -0.00076145386 7.7307316e-23 0.00047880793 -2.8518788e-23 3.9145961e-40)
(0.0011574695 -0.0006916611 -1.5207814e-23 0.00052438621 1.9637806e-23 9.9225112e-41)
(0.00088031454 -0.00061266241 0 0.00056431116 0 0)
(0.00065617293 -0.00052998951 8.3492576e-23 0.00059631843 -8.6030422e-23 2.4265571e-41)
(0.00048258787 -0.00044859963 -1.7847759e-22 0.00061885045 2.3044178e-22 3.292225e-40)
(0.0003526974 -0.00037234993 -5.809364e-23 0.00063124843 8.7906906e-23 2.8516057e-41)
(0.00025797955 -0.00030374071 1.012307e-22 0.00063373353 -1.9934835e-22 3.9245286e-40)
(0.00019011067 -0.00024395511 -2.1864598e-23 0.00062718331 2.9205694e-23 8.3981581e-41)
(0.00014191402 -0.00019317591 -1.230961e-24 0.00061332353 -2.6268186e-24 9.4182444e-42)
(0.00010758832 -0.00015086803 2.3182206e-23 0.0005958659 -6.7689157e-23 8.7391634e-42)
(0.00021017404 -3.47104e-05 6.9373399e-23 5.8410607e-06 -9.0999452e-24 1.2341515e-40)
(0.001000093 -0.00018271282 -6.3786286e-22 3.3564435e-05 1.1489451e-22 1.9663494e-39)
(0.0017649475 -0.00033142478 -4.9824587e-22 6.3369615e-05 9.8744798e-23 2.3523646e-39)
(0.0023227592 -0.00045574787 7.1615863e-22 9.2960919e-05 -1.4922804e-22 5.778439e-40)
(0.0026184568 -0.00055426718 5.4261027e-22 0.00012512068 -1.2160843e-22 1.2103009e-40)
(0.002669302 -0.0006270404 -3.9948936e-22 0.00016148854 8.7781337e-23 1.2499234e-39)
(0.0025272001 -0.00067485845 1.2978478e-22 0.00020313011 -4.9074117e-23 5.2893701e-40)
(0.0022563176 -0.00069812313 7.6500141e-22 0.000250085 -2.692135e-22 5.9800497e-40)
(0.001919067 -0.00069740276 3.3639337e-22 0.00030116551 -1.3124974e-22 7.6008306e-41)
(0.0015672337 -0.00067446414 -3.3172845e-22 0.00035408553 1.6766603e-22 1.9526103e-40)
(0.0012376077 -0.0006327729 -4.5107716e-22 0.00040581387 2.6600312e-22 2.3546021e-40)
(0.0009515468 -0.00057726575 -1.2333484e-23 0.00045309249 8.8123051e-24 2.456009e-43)
(0.00071736047 -0.00051359429 1.3049136e-22 0.00049300613 -1.1275927e-22 3.8212481e-41)
(0.00053410621 -0.00044719575 -4.8206457e-24 0.0005234524 1.4757501e-23 5.7183081e-41)
(0.00039551178 -0.00038253062 -5.3410547e-24 0.0005434004 2.4044945e-23 1.5476762e-40)
(0.00029317012 -0.00032268077 4.1991082e-24 0.00055290349 -3.1448592e-23 2.7958059e-40)
(0.00021867031 -0.00026932027 4.6626959e-23 0.00055288936 -9.0778332e-23 8.2460972e-41)
(0.00016473092 -0.00022296325 -2.680581e-23 0.00054481139 7.644897e-23 2.1398951e-40)
(0.00012557391 -0.00018339964 -6.8300607e-23 0.00053063384 1.8557073e-22 4.1664695e-40)
(9.6785529e-05 -0.00015001345 2.2565977e-23 0.00051342869 -5.434211e-23 9.5084061e-42)
(0.00022390563 -2.1243759e-05 -1.8092676e-22 2.0683245e-06 1.5082444e-23 3.6885008e-40)
(0.0010184292 -0.00011101807 -1.4400611e-22 1.2252177e-05 1.5402937e-23 3.9834322e-40)
(0.0017582352 -0.00020831611 1.0968566e-21 2.5621925e-05 -1.3883216e-22 4.8628508e-39)
(0.0022585287 -0.00030026596 8.198593e-22 4.2973347e-05 -1.1798619e-22 5.3332635e-40)
(0.002482964 -0.00038435941 3.6894267e-22 6.6417134e-05 -5.7396114e-23 2.6152511e-40)
(0.0024673952 -0.00045658226 7.4532802e-23 9.7345712e-05 -1.5103188e-23 2.5405536e-42)
(0.0022777151 -0.00051238752 -7.0177542e-22 0.00013630857 1.54132e-22 1.0936971e-39)
(0.0019851981 -0.00054767099 0 0.00018258401 0 0)
(0.0016523263 -0.00056026528 -4.3178333e-22 0.00023404502 1.8416489e-22 9.0505581e-40)
(0.0013255987 -0.00055087664 -7.4568815e-23 0.00028741716 4.8141247e-23 2.0463368e-40)
(0.0010338111 -0.00052295748 2.1258074e-22 0.00033885372 -1.2158667e-22 5.1022102e-41)
(0.00079022478 -0.00048174562 2.3119844e-23 0.00038466554 -2.8760597e-23 1.125603e-40)
(0.00059676484 -0.00043297967 -1.0209004e-22 0.00042197837 9.8306734e-23 1.3160123e-40)
(0.00044856402 -0.00038177745 -7.729399e-23 0.00044913211 9.9251945e-23 2.8069546e-40)
(0.00033774014 -0.00033196727 4.9529469e-23 0.00046575414 -4.9835939e-23 3.4593803e-41)
(0.00025595364 -0.00028591537 6.8830224e-23 0.00047255527 -8.7677865e-23 3.2358543e-41)
(0.00019579683 -0.0002447151 -6.1593607e-23 0.00047095882 1.0043376e-22 3.0288332e-41)
(0.00015132733 -0.00020855742 -8.3020479e-23 0.00046269838 1.7521645e-22 3.4879017e-40)
(0.00011808277 -0.00017716495 6.2384457e-24 0.00044966905 -1.4212207e-24 4.0708763e-41)
(9.2778835e-05 -0.00015003897 1.1430943e-23 0.00043411532 -3.7327188e-23 4.8153492e-41)
(0.00023247903 -6.1291623e-06 -1.1935805e-22 1.8534843e-07 3.0413845e-24 1.8042233e-40)
(0.001007407 -3.6269888e-05 5.1157461e-22 1.431261e-06 -1.8278001e-23 1.0011248e-39)
(0.0017010732 -8.5358414e-05 7.819425e-22 5.0513274e-06 -4.7911319e-23 7.257573e-39)
(0.00213515 -0.0001509736 -9.2076722e-22 1.3285055e-05 7.876184e-23 2.0010867e-39)
(0.0022934071 -0.00022690196 3.3410644e-22 2.8544236e-05 -3.6279975e-23 5.096765e-41)
(0.0022275073 -0.00030320863 1.3836751e-22 5.2819946e-05 5.7014882e-25 1.8455732e-39)
(0.0020122068 -0.00036937205 3.6263529e-23 8.6892549e-05 -7.2697427e-24 6.7630244e-43)
(0.001720249 -0.00041713774 -5.1739082e-22 0.00012975437 1.1829682e-22 6.2554e-40)
(0.0014096325 -0.00044239715 -1.1772024e-23 0.00017859574 4.02656e-24 1.0193757e-43)
(0.0011190921 -0.00044550522 1.9402033e-22 0.00022935808 -9.9590122e-23 2.3812474e-40)
(0.00086917505 -0.00043023656 1.5321393e-23 0.00027764101 -1.5328509e-23 3.3943748e-41)
(0.00066645297 -0.00040209453 -6.9827494e-23 0.00031963309 1.9078109e-23 4.3913589e-40)
(0.00050862803 -0.00036669617 -1.5653268e-22 0.0003527659 1.259519e-22 5.0601244e-41)
(0.00038899483 -0.00032867827 -1.055544e-24 0.00037594628 1.1953391e-23 5.7185008e-41)
(0.00029958604 -0.00029124663 5.3326195e-23 0.00038940097 -6.8889064e-23 5.623664e-41)
(0.00023297184 -0.00025623188 3.5613158e-23 0.00039428544 -5.552366e-23 5.4426943e-41)
(0.00018303258 -0.00022441482 8.2876278e-24 0.00039223034 -2.6219308e-23 8.7802334e-41)
(0.00014510688 -0.00019592272 -5.6699874e-23 0.00038496512 7.9211383e-23 7.1253948e-41)
(0.00011582861 -0.00017058077 -1.1326474e-23 0.00037410741 -7.213626e-24 3.0100589e-40)
(9.2775324e-05 -0.00014803985 3.1802717e-23 0.00036108715 -9.5728132e-23 4.9756718e-40)
(1.5434222e-06 -1.9294289e-07 1.542001e-23 2.3558412e-07 -3.0849134e-24 1.7629526e-40)
(7.2740604e-06 -3.0446555e-06 -2.2005108e-23 1.5639942e-06 6.0973458e-24 1.6971377e-40)
(1.6293443e-05 -7.0360268e-06 4.8874242e-23 3.1182078e-06 -1.8324145e-23 9.7494475e-40)
(5.2238496e-05 -1.4850461e-05 1.3647723e-22 4.4735034e-06 -2.9137165e-23 3.2784821e-39)
(0.00011465852 -2.4506085e-05 -9.7558381e-23 5.6938173e-06 1.6648763e-23 8.5274056e-40)
(0.00020496564 -3.5325935e-05 1.2303424e-22 6.7804061e-06 -1.6743351e-23 9.4219952e-40)
(0.00032614827 -4.6946401e-05 -1.6915119e-22 7.7347052e-06 2.1556904e-23 1.0351756e-39)
(0.00047904609 -5.9003372e-05 -1.7457549e-22 8.5761564e-06 1.8336659e-23 1.0943173e-39)
(0.00066300155 -7.1201266e-05 2.2005173e-22 9.3256596e-06 -2.2946689e-23 1.1574196e-39)
(0.00087686502 -8.3322316e-05 -1.7111259e-22 9.9994549e-06 1.6822848e-23 5.8959772e-40)
(0.0011191851 -9.5202568e-05 -8.5030875e-24 1.0609842e-05 1.4264796e-25 6.8493642e-42)
(0.0013882313 -0.00010671494 4.9575933e-23 1.116622e-05 -5.3056095e-24 2.1738662e-41)
(0.0016820781 -0.00011775924 -8.5019833e-24 1.1675779e-05 4.1521151e-25 3.4385265e-42)
(0.0019986836 -0.00012825604 2.7065928e-22 1.2144291e-05 -2.4433804e-23 1.0333407e-39)
(0.0023359374 -0.00013814479 2.84044e-25 1.2577096e-05 5.1183136e-25 2.2286861e-42)
(0.0026917086 -0.00014738759 -4.0121636e-22 1.2980092e-05 3.7672146e-23 2.1262725e-39)
(0.00306391 -0.00015597234 7.4812503e-23 1.3359589e-05 -7.8585652e-24 4.4991591e-41)
(0.0034505078 -0.00016389819 1.8251677e-22 1.3720237e-05 -1.8056903e-23 5.4072828e-40)
(0.0038494823 -0.00017119751 -2.9846627e-22 1.4066644e-05 3.1477718e-23 1.5330009e-39)
(0.004258522 -0.00017809125 -1.6637903e-22 1.4395478e-05 1.8609836e-23 5.7554287e-40)
(1.7480269e-06 -8.0696156e-07 5.0832003e-24 2.0730248e-06 -1.8825939e-24 1.7476969e-41)
(9.2730344e-06 -1.043281e-05 -1.3936255e-22 1.3782017e-05 1.0507479e-22 5.6757664e-39)
(2.0809611e-05 -2.3687511e-05 2.7653284e-23 2.7470504e-05 -2.2861666e-23 5.1226769e-40)
(6.1467715e-05 -4.8083842e-05 1.468805e-22 3.941304e-05 -9.0307293e-23 2.7404817e-39)
(0.00012936056 -7.7798209e-05 2.0420298e-22 5.0144083e-05 -9.8282743e-23 3.0990493e-39)
(0.0002254675 -0.0001108421 2.4711345e-23 5.9659612e-05 -9.9309804e-24 2.9114379e-41)
(0.00035243537 -0.00014612955 -6.5765306e-22 6.7974494e-05 2.284967e-22 1.5502227e-38)
(0.00051069084 -0.00018258361 -2.3264013e-23 7.5261107e-05 9.6659173e-24 4.4994212e-42)
(0.00069920608 -0.00021933587 3.7330662e-22 8.17031e-05 -1.141073e-22 2.6470716e-39)
(0.00091649309 -0.00025574622 -9.0233443e-23 8.7443428e-05 2.5028275e-23 1.4718443e-40)
(0.0011607648 -0.00029133102 -3.4339632e-22 9.2590356e-05 9.4531872e-23 1.6334137e-39)
(0.0014299508 -0.00032571358 7.2401672e-23 9.7226021e-05 -1.8603727e-23 7.4365491e-41)
(0.0017217772 -0.00035859465 3.0604442e-22 0.00010141221 -6.8883174e-23 1.7510694e-39)
(0.0020338377 -0.00038973358 1.2709275e-22 0.00010519712 -3.1750336e-23 2.0015617e-40)
(0.002363628 -0.00041894156 2.5540835e-22 0.00010862378 -6.8191226e-23 5.7946909e-40)
(0.0027085929 -0.00044609146 -2.0252524e-22 0.00011173848 5.1129157e-23 4.8991118e-40)
(0.0030662452 -0.00047113072 -1.9444604e-22 0.00011459153 4.8551703e-23 5.3576889e-40)
(0.0034341165 -0.00049403477 1.9767457e-22 0.00011722297 -5.5882592e-23 3.1025188e-40)
(0.0038090486 -0.00051488759 1.8180796e-22 0.00011967809 -5.006739e-23 5.41659e-40)
(0.0041873334 -0.00053453894 7.1186575e-23 0.00012194508 -1.8799965e-23 2.2982287e-40)
(2.2468111e-06 -2.0652853e-06 3.9111229e-24 5.528223e-06 -1.9609224e-24 9.2062003e-42)
(1.4017339e-05 -2.1560747e-05 1.0585332e-22 3.6790335e-05 -1.1329861e-22 2.4189357e-39)
(3.1330101e-05 -4.7652181e-05 -2.3174469e-23 7.327801e-05 2.9868411e-23 1.2668719e-40)
(8.1865203e-05 -9.1297349e-05 -1.5960631e-22 0.00010509803 1.3444819e-22 2.9995174e-39)
(0.0001610953 -0.00014315486 5.8922385e-23 0.00013359202 -4.9519748e-23 8.5185273e-41)
(0.00026912824 -0.000200014 7.8243145e-23 0.00015868693 -6.3649647e-23 4.5149114e-41)
(0.00040792143 -0.00026008021 -9.7283301e-23 0.00018041741 5.1680667e-23 2.6735216e-40)
(0.00057711975 -0.00032160887 -2.5517222e-22 0.00019924203 1.4913526e-22 5.3583333e-40)
(0.00077498558 -0.0003832041 1.1172307e-22 0.00021564861 -5.4437281e-23 1.4949529e-40)
(0.00099937141 -0.00044383195 2.374172e-22 0.00023001985 -9.9057658e-23 8.4843634e-40)
(0.0012478357 -0.00050270338 6.6843519e-23 0.00024264713 -4.610979e-23 3.2075327e-41)
(0.0015176454 -0.00055919587 2.9102703e-22 0.00025375056 -9.7162083e-23 1.5739033e-39)
(0.0018058482 -0.00061280531 2.4779861e-23 0.00026349271 -9.2156052e-24 6.5314521e-42)
(0.0021093284 -0.00066311356 -4.3486855e-22 0.00027199501 1.4753891e-22 2.5318119e-39)
(0.0024248245 -0.00070977555 3.2438409e-23 0.00027936014 -2.1150146e-23 1.4067759e-41)
(0.0027489756 -0.00075253626 -2.0422737e-22 0.00028569582 5.7291612e-23 9.8608521e-40)
(0.0030785495 -0.00079126117 -2.9001764e-22 0.00029112028 1.1454335e-22 4.0678099e-40)
(0.003410313 -0.00082586009 4.7273734e-22 0.00029575048 -1.8344651e-22 1.3493492e-39)
(0.0037391803 -0.00085643436 2.5092939e-22 0.00029977928 -1.0298451e-22 2.7511695e-40)
(0.0040593394 -0.00088480979 4.9906274e-23 0.00030330932 -2.2461405e-23 5.9122181e-42)
(3.3096013e-06 -4.2708286e-06 -5.8481132e-24 1.0178845e-05 7.3585234e-24 1.3528529e-41)
(2.2983471e-05 -3.8286709e-05 -2.4532637e-22 6.7875331e-05 3.1022895e-22 8.0282555e-39)
(5.0872804e-05 -8.2573682e-05 -1.7804561e-23 0.00013508604 2.2881037e-23 1.0969152e-40)
(0.00011776881 -0.00014935851 4.1235772e-23 0.00019360989 -4.5645064e-23 7.0025057e-41)
(0.00021547439 -0.00022627196 -6.5850004e-24 0.00024576021 1.6665869e-24 1.8064389e-41)
(0.00034280723 -0.00030895458 2.1021112e-22 0.00029125428 -1.5419476e-22 1.3186581e-39)
(0.00050065801 -0.0003948972 2.3273558e-22 0.00033012996 -1.5214243e-22 1.1980579e-39)
(0.00068750645 -0.00048174707 -7.0422739e-23 0.00036323121 3.4100538e-23 1.8871542e-40)
(0.00090054432 -0.00056764013 -2.5919757e-22 0.00039146192 1.3562965e-22 1.2004011e-39)
(0.001136613 -0.00065118224 -5.2420436e-22 0.00041554201 2.8308071e-22 2.5474633e-39)
(0.0013922649 -0.00073129241 -1.1116577e-23 0.00043602759 -6.2111852e-24 5.8087675e-41)
(0.0016637568 -0.00080710256 6.6926251e-22 0.00045334221 -3.1236932e-22 4.1625082e-39)
(0.0019471072 -0.00087789044 -2.7124633e-22 0.0004677973 1.0391313e-22 1.2297671e-39)
(0.0022381537 -0.00094304037 -1.7607665e-22 0.00047962224 7.7235178e-23 2.4290775e-40)
(0.0025325555 -0.0010020217 -2.1731819e-23 0.0004890014 2.377625e-23 5.238639e-41)
(0.0028258501 -0.0010544102 4.1952121e-22 0.00049611567 -1.8390685e-22 9.9721914e-40)
(0.0031138146 -0.0010999487 -2.3871284e-22 0.000501159 1.190395e-22 6.761593e-41)
(0.003392336 -0.0011384846 -5.4863564e-22 0.00050437996 2.3076746e-22 2.1463521e-39)
(0.0036541154 -0.0011701461 3.704571e-22 0.00050638911 -1.6069281e-22 1.0794766e-39)
(0.0038910174 -0.0011979014 3.1932396e-22 0.00050786188 -1.2779973e-22 1.0033183e-39)
(5.292835e-06 -7.6060436e-06 2.6268071e-23 1.5515276e-05 -2.5527091e-23 1.7285987e-40)
(3.8143578e-05 -6.1703071e-05 8.441051e-24 0.0001036103 -2.1213946e-24 7.8283224e-41)
(8.3430576e-05 -0.00013056655 -3.3880949e-22 0.00020587568 4.8482948e-22 6.5899657e-39)
(0.00017478066 -0.00022496386 -1.9461956e-22 0.00029464427 2.0666793e-22 2.0371313e-39)
(0.0002994345 -0.00033001804 1.2970739e-22 0.00037319897 -1.0328383e-22 1.2309992e-39)
(0.00045444918 -0.00044021728 1.6187751e-22 0.00044087625 -1.3043285e-22 5.8011052e-40)
(0.00063917734 -0.0005523002 -2.1052681e-22 0.00049770467 1.3754218e-22 1.3570439e-39)
(0.00085048119 -0.00066337339 -3.2135166e-22 0.00054498974 1.8454102e-22 2.977881e-39)
(0.0010840532 -0.00077117945 4.7735679e-22 0.00058414334 -2.8525526e-22 3.0567473e-39)
(0.0013353059 -0.00087401606 1.3649763e-22 0.00061631502 -5.5331094e-23 7.112337e-40)
(0.0015993793 -0.00097054597 -4.3447396e-22 0.00064241596 2.8700143e-22 2.3829882e-40)
(0.0018711374 -0.0010596827 1.8982933e-22 0.00066315706 -8.6435743e-23 5.4780279e-40)
(0.0021452458 -0.0011405162 0 0.00067907619 0 0)
(0.0024162347 -0.0012122631 1.8622806e-22 0.00069057511 -9.0773562e-23 2.1462393e-40)
(0.0026785219 -0.0012742402 -1.4010042e-22 0.00069796982 6.6583675e-23 1.1462949e-40)
(0.0029265046 -0.0013258873 -2.1542606e-22 0.00070154569 1.0736839e-22 1.3946203e-40)
(0.0031551019 -0.0013668624 8.0180102e-23 0.00070157433 -6.4648505e-23 1.9557127e-40)
(0.0033597503 -0.0013970481 -6.5091706e-23 0.00069844548 3.8628891e-23 7.1196278e-42)
(0.0035315209 -0.0014167533 3.1369695e-22 0.00069351567 -1.3563784e-22 1.1611316e-39)
(0.0036597556 -0.0014299722 -2.5391488e-22 0.0006889723 1.2380934e-22 6.832113e-41)
(8.6097896e-06 -1.2129682e-05 2.5189368e-23 2.1033655e-05 -2.117836e-23 1.3880287e-40)
(6.1728899e-05 -9.2025173e-05 1.2171497e-22 0.00014039836 -1.6200205e-22 5.1970428e-40)
(0.00013342092 -0.00019188977 -1.633979e-22 0.00027813509 2.1668507e-22 1.2362086e-39)
(0.00025880796 -0.00031806092 -2.6897429e-22 0.00039704863 3.0232117e-22 1.0367038e-39)
(0.00041972175 -0.00045361861 -8.0247097e-23 0.00050128015 1.1676774e-22 8.1786763e-40)
(0.00061084014 -0.00059181352 -2.4364749e-22 0.00058967462 2.1383646e-22 5.0905278e-40)
(0.00082936274 -0.00072858719 -1.1291341e-22 0.00066229556 6.9536757e-23 5.874385e-40)
(0.0010699958 -0.00086060047 1.9615331e-22 0.00072098891 -1.1801255e-22 1.0836354e-39)
(0.0013264432 -0.00098532011 4.7032967e-22 0.00076776429 -2.803525e-22 3.7108206e-39)
(0.0015922373 -0.0011008475 1.4538969e-22 0.00080430544 -8.9442234e-23 1.5572145e-40)
(0.0018607435 -0.0012057087 -1.3815784e-22 0.00083198905 7.3383457e-23 2.4690978e-40)
(0.0021251781 -0.0012987269 -2.5298311e-23 0.00085192594 -5.6845254e-24 2.149782e-40)
(0.002378738 -0.0013789456 -6.6211706e-22 0.0008649904 3.6193268e-22 2.049812e-39)
(0.0026147306 -0.0014455782 -2.0598206e-22 0.00087186136 1.0761691e-22 2.1200994e-40)
(0.0028266636 -0.0014979799 3.4630666e-22 0.00087307809 -1.99544e-22 1.0156189e-40)
(0.003008402 -0.0015356605 -3.458266e-22 0.00086909585 1.8629469e-22 2.1044968e-40)
(0.0031548896 -0.0015583816 -1.2222289e-22 0.0008602693 6.0059102e-23 6.7095885e-41)
(0.0032624255 -0.0015662599 2.7468317e-22 0.00084703344 -1.1603191e-22 1.0416688e-39)
(0.0033223543 -0.0015600678 4.1845243e-22 0.00083159052 -2.0837523e-22 7.9135136e-40)
(0.0033217165 -0.0015444997 5.0878853e-23 0.00081880775 -2.3730493e-23 1.5394206e-41)
(1.3701002e-05 -1.7780908e-05 -7.1037622e-23 2.6276773e-05 5.7673098e-23 8.2121164e-40)
(9.5967515e-05 -0.00012856985 -7.8584018e-23 0.00017483066 7.9718839e-23 6.5456619e-40)
(0.00020502577 -0.00026481721 2.0063181e-22 0.00034469883 -2.5304082e-22 3.0406282e-40)
(0.00037495277 -0.00042558446 3.0525176e-22 0.00049016851 -3.1586061e-22 1.3740152e-39)
(0.0005812789 -0.0005923047 3.9879449e-24 0.00061608601 -3.5877538e-24 2.7262153e-43)
(0.00081548553 -0.00075688762 -8.3015164e-22 0.00072083551 6.842347e-22 8.0204962e-39)
(0.0010718809 -0.00091449107 -3.2683336e-22 0.00080465765 2.7895999e-22 1.1598676e-40)
(0.0013424482 -0.0010615015 2.5320612e-22 0.00087004984 -1.7064141e-22 8.7991105e-40)
(0.0016184817 -0.0011953297 2.9126936e-22 0.00091971974 -1.9529436e-22 5.3844215e-40)
(0.0018913662 -0.0013141196 -2.8517397e-22 0.0009559947 1.5877484e-22 1.4770182e-39)
(0.0021525985 -0.0014165154 -8.428128e-22 0.00098083472 5.3051716e-22 2.1567739e-39)
(0.0023939026 -0.0015015318 5.5545158e-22 0.00099586848 -3.3564814e-22 8.8679531e-40)
(0.0026074649 -0.0015684773 3.3074629e-22 0.0010024236 -1.7236674e-22 1.0607113e-39)
(0.0027861783 -0.0016169065 -4.602104e-22 0.0010015689 2.5326772e-22 8.7618854e-40)
(0.0029238441 -0.0016465893 2.0285658e-22 0.00099416678 -1.1656439e-22 5.8966602e-41)
(0.003015397 -0.0016574982 3.373347e-22 0.00098091522 -1.7332671e-22 6.5242315e-40)
(0.0030576987 -0.0016498508 1.2888781e-22 0.00096225912 -7.2260793e-23 2.2332534e-41)
(0.0030501035 -0.0016242482 -2.2130056e-22 0.00093849118 1.356032e-22 2.8550967e-41)
(0.0029873017 -0.0015821344 -5.1854599e-23 0.0009123108 1.7131001e-23 1.6141724e-40)
(0.0028555574 -0.0015283419 2.9119347e-22 0.00089201434 -1.6707579e-22 6.6417232e-41)
(2.1001356e-05 -2.4380504e-05 -2.0658945e-24 3.0838673e-05 -2.2860477e-24 1.541626e-41)