/*--------------------------------*- C++ -*----------------------------------*\
  =========                 |
  \\      /  F ield         | OpenFOAM: The Open Source CFD Toolbox
   \\    /   O peration     | Website:  https://openfoam.org
    \\  /    A nd           | Version:  6
     \\/     M anipulation  |
\*---------------------------------------------------------------------------*/
FoamFile
{
    version     2.0;
    format      ascii;
    class       volVectorField;
    location    "29";
    object      U_0;
}
// * * * * * * * * * * * * * * * * * * * * * * * * * * * * * * * * * * * * * //

dimensions      [0 1 -1 0 0 0 0];

internalField   nonuniform List<vector> 
9200
(
(0.001150443 0.0013636629 -6.0110372e-20)
(0.014168027 -0.0023118762 4.685891e-20)
(0.039390518 -0.0063136024 -3.9150979e-20)
(0.074101007 -0.01040822 -6.1221581e-20)
(0.11647584 -0.014339646 1.9180111e-20)
(0.16529089 -0.017664757 3.3306467e-20)
(0.21947309 -0.020089099 -1.2517144e-20)
(0.27802807 -0.021462032 9.463262e-21)
(0.34002098 -0.021720685 1.7049451e-20)
(0.4045442 -0.020866977 1.5100801e-21)
(0.47069374 -0.018956144 -2.18562e-20)
(0.53756045 -0.016085656 2.1078863e-20)
(0.60423346 -0.012384181 -4.1185832e-20)
(0.66981396 -0.008000321 -2.1601182e-20)
(0.73343775 -0.0030905896 6.0287196e-21)
(0.79430354 0.0021905971 -2.5768956e-20)
(0.85172024 0.0077141622 2.5937461e-20)
(0.90523143 0.013523162 2.3207923e-20)
(0.95443921 0.019752685 -1.1438648e-22)
(0.99665928 0.023077885 -1.4316855e-21)
(0.0054447277 -0.0014486497 -1.7319494e-20)
(0.027698317 -0.0093565966 4.0403103e-20)
(0.063157059 -0.015408987 2.3971639e-20)
(0.10869551 -0.019986601 -1.1741584e-19)
(0.16217812 -0.023235965 -1.2948339e-20)
(0.22211786 -0.024943901 7.4349385e-20)
(0.2871689 -0.025015144 -3.6037787e-20)
(0.35604977 -0.02348498 -8.5189227e-21)
(0.42753081 -0.020460994 3.4860258e-20)
(0.50041068 -0.016104149 -4.4037214e-20)
(0.57350589 -0.010620713 -3.0951737e-20)
(0.64565898 -0.0042516479 7.3539889e-20)
(0.71576048 0.0027394344 3.914858e-20)
(0.78278002 0.010078264 -6.9703148e-20)
(0.84580231 0.017490264 1.5055964e-20)
(0.90406194 0.024705652 -3.7809829e-20)
(0.9569856 0.031473499 -1.4099024e-20)
(1.0042915 0.037634175 7.3544341e-20)
(1.0458627 0.04278254 3.1213903e-20)
(1.0799491 0.043829786 -8.5117203e-20)
(0.011149241 -0.004184488 3.7284826e-20)
(0.044974267 -0.015891126 2.5394966e-21)
(0.092466477 -0.023265826 2.272582e-20)
(0.15014284 -0.02742705 9.9475283e-22)
(0.21556348 -0.029010703 -4.1485214e-20)
(0.28695045 -0.028098525 1.8804512e-20)
(0.36264743 -0.024855707 1.3654439e-20)
(0.44105061 -0.0195623 -5.113993e-20)
(0.52061341 -0.012550486 5.8254611e-20)
(0.59984322 -0.0041871286 1.4580672e-20)
(0.67731364 0.005134285 -5.5497889e-20)
(0.75169546 0.015007717 -1.8743278e-20)
(0.82179754 0.025031589 8.9938086e-21)
(0.8866096 0.034825601 2.4111313e-20)
(0.94533987 0.044045205 -1.1762669e-20)
(0.9974401 0.052391061 2.8713377e-20)
(1.0426194 0.059623233 -2.0746979e-20)
(1.0808736 0.06560785 -7.2520952e-20)
(1.1123635 0.070084787 -2.4717396e-20)
(1.1362815 0.071211843 4.980241e-20)
(0.018362211 -0.0065943405 2.482393e-20)
(0.066118653 -0.021217055 5.1742414e-20)
(0.12730986 -0.028838763 2.0143473e-20)
(0.19816813 -0.03144148 1.3107866e-20)
(0.27596519 -0.030239239 1.7478371e-20)
(0.35861266 -0.025679206 -4.8395749e-20)
(0.44412468 -0.01825236 -2.6042176e-20)
(0.53057337 -0.0085419165 0)
(0.61612348 0.0028483051 1.4343478e-20)
(0.69905953 0.015314168 -6.1350912e-21)
(0.77782592 0.028263312 -1.0006725e-19)
(0.85107861 0.041135556 -1.6012035e-20)
(0.91773594 0.053425706 6.6954728e-20)
(0.97701816 0.064703644 2.7111339e-22)
(1.0284685 0.074629048 -1.6194037e-21)
(1.0719508 0.082958615 2.2630828e-20)
(1.107626 0.089552645 -5.4779834e-21)
(1.1359248 0.09440278 -6.2942976e-20)
(1.1574298 0.097494467 -4.7446092e-20)
(1.172156 0.097905933 7.1234336e-20)
(0.027112165 -0.0083950492 -3.9533524e-21)
(0.091032947 -0.024579658 -5.1891299e-21)
(0.16729609 -0.031047246 5.7306074e-20)
(0.251955 -0.030757753 1.8751017e-20)
(0.34203074 -0.025587728 -3.2371272e-20)
(0.43513159 -0.016420851 1.2330888e-20)
(0.52896401 -0.0041351512 2.6835231e-21)
(0.62133157 0.010337043 3.4272594e-20)
(0.71020937 0.026095459 5.7762414e-21)
(0.7938052 0.042299316 -1.360672e-20)
(0.87062226 0.058185545 6.187257e-20)
(0.93951782 0.07309439 -5.929963e-20)
(0.99974355 0.086493295 -1.3568506e-19)
(1.0509585 0.097992445 -5.7341678e-21)
(1.0932116 0.10734968 8.5632393e-20)
(1.126895 0.11446408 0)
(1.1526759 0.11936458 1.0390696e-20)
(1.1714235 0.12221176 -1.5929982e-20)
(1.1840923 0.12319848 -8.884053e-21)
(1.1912778 0.12195909 2.1544223e-20)
(0.037337138 -0.0092800792 -5.4443531e-21)
(0.11936511 -0.025210557 4.4084294e-21)
(0.21164052 -0.028859984 -8.8641727e-21)
(0.31018299 -0.024251185 2.8817118e-20)
(0.41183674 -0.013990936 -2.9805351e-20)
(0.51395959 0.00054088731 -1.7187772e-20)
(0.61403277 0.018037241 3.7827801e-20)
(0.70971867 0.037201086 4.7873073e-21)
(0.79897652 0.056851321 -2.5149936e-20)
(0.8801497 0.07595855 7.1435083e-20)
(0.95203347 0.093666255 3.3457746e-22)
(1.0139161 0.1093139 -8.2675603e-20)
(1.0655821 0.12245071 0)
(1.1072759 0.13283383 4.0740769e-20)
(1.1396298 0.14041122 5.7011218e-21)
(1.1635679 0.14529151 -7.9764202e-20)
(1.1801992 0.14770909 -2.0138266e-20)
(1.190717 0.14800045 -1.2817381e-20)
(1.1962908 0.1465178 -1.5141259e-20)
(1.1977971 0.14322336 4.154137e-20)
(0.048871206 -0.0089405185 -1.7423673e-20)
(0.15049285 -0.022387271 -2.3386109e-21)
(0.25917389 -0.021385931 3.0682327e-20)
(0.37108721 -0.011057293 3.7849378e-20)
(0.48302095 0.0052280546 -2.0202088e-20)
(0.5921949 0.025563465 -7.0289206e-20)
(0.69601697 0.048209477 -2.8582323e-20)
(0.79220568 0.071537399 8.0464232e-20)
(0.87893633 0.094155095 8.9029601e-21)
(0.95493366 0.11494573 -2.5344009e-20)
(1.0195172 0.13308135 1.3798733e-20)
(1.0725965 0.14802902 -4.4943359e-21)
(1.114614 0.15953895 0)
(1.1464462 0.1676118 2.7905332e-20)
(1.1692772 0.17245007 -8.1400076e-20)
(1.1844638 0.17440051 -3.2305187e-20)
(1.1934093 0.17389787 8.3194277e-20)
(1.1974624 0.17142397 -4.4693796e-21)
(1.1978342 0.16743081 3.6324589e-21)
(1.19545 0.16206085 2.7912812e-20)
(0.061438262 -0.0070931539 -3.2673815e-20)
(0.18352944 -0.01550587 -8.2512031e-20)
(0.30838764 -0.0079731557 2.4677505e-21)
(0.43256283 0.0093232053 7.1081078e-20)
(0.55295822 0.032268977 6.3312665e-20)
(0.66683112 0.058448327 -7.2540423e-20)
(0.77173186 0.085741598 -1.2248009e-22)
(0.86568295 0.11228152 8.7388142e-20)
(0.94733174 0.13659118 4.9848305e-20)
(1.0160187 0.15761226 -5.5511856e-20)
(1.0717706 0.17469367 -9.451418e-20)
(1.1152266 0.18756257 -3.2347467e-21)
(1.1475112 0.19627194 4.3147925e-20)
(1.1700756 0.20112795 -6.7707043e-21)
(1.1845332 0.20260821 -1.3167178e-20)
(1.1925104 0.20128159 2.012215e-20)
(1.195529 0.19774051 4.4965522e-20)
(1.1949283 0.19255559 -4.4902863e-20)
(1.1918231 0.18621533 -1.049441e-19)
(1.1870436 0.17894798 2.5310044e-20)
(0.074622476 -0.0035114601 -3.5381855e-20)
(0.21728543 -0.0041576441 -1.752921e-19)
(0.35741046 0.011707591 8.3253034e-20)
(0.49217092 0.036962541 9.4026779e-20)
(0.61880464 0.066835762 5.8769288e-20)
(0.73483884 0.09848147 8.764228e-21)
(0.83822509 0.12951671 -1.0810023e-19)
(0.92755268 0.15798902 0)
(1.0021756 0.18250923 -7.038192e-20)
(1.0622261 0.20224857 -1.559737e-20)
(1.1085329 0.21688164 5.5941794e-20)
(1.1424711 0.22650593 1.1232807e-20)
(1.1657706 0.23153974 -4.6651885e-20)
(1.1803197 0.23260984 -5.0173939e-20)
(1.1879891 0.23044408 2.4885889e-20)
(1.1904977 0.22578138 4.5926337e-20)
(1.1893274 0.21930675 -5.6946729e-20)
(1.1856865 0.21161496 -1.1004796e-19)
(1.1805132 0.203176 -3.1391976e-21)
(1.1744764 0.19424844 2.7679138e-20)
(0.08785202 0.0019589245 -3.6775097e-21)
(0.25027381 0.011856234 8.88538e-20)
(0.4040471 0.03766685 -1.6088788e-20)
(0.5472272 0.071531081 -8.5710543e-20)
(0.67763822 0.10818423 4.5890581e-20)
(0.79333913 0.14450478 4.9798544e-20)
(0.89294563 0.17803371 5.6444502e-21)
(0.97584579 0.20694096 -1.0144391e-19)
(1.0422694 0.23012667 -2.5578751e-21)
(1.0932244 0.24716306 5.1616404e-20)
(1.1303339 0.25817384 6.117684e-21)
(1.1556181 0.26369331 -2.0170274e-20)
(1.171263 0.2645167 -7.7352883e-20)
(1.1794152 0.2615586 -6.3545812e-21)
(1.1820257 0.25573612 4.4456627e-20)
(1.1807543 0.2478856 3.780081e-20)
(1.1769315 0.23871473 2.0147309e-20)
(1.1715689 0.22878495 -5.4378895e-20)
(1.1654012 0.21850923 1.2986481e-20)
(1.1589241 0.20814847 8.4403586e-20)
(-0.0013188313 0.0014629391 -1.1308725e-21)
(-0.0048372278 0.0032469026 2.0983986e-21)
(-0.010971195 0.0042097933 9.3391322e-22)
(-0.018074281 0.0046171031 -2.4332561e-21)
(-0.02517423 0.0046395155 -1.4797251e-21)
(-0.031833468 0.0043917599 1.6171936e-21)
(-0.037776419 0.0039574728 -7.0808742e-21)
(-0.042821741 0.0033974439 -6.1415787e-21)
(-0.046867191 0.0027550781 1.1508717e-20)
(-0.04986526 0.0020610453 -1.0039824e-20)
(-0.051802893 0.0013367533 -2.0029128e-22)
(-0.052688457 0.0005968825 3.7912699e-21)
(-0.052543201 -0.00014869207 -6.4954338e-22)
(-0.051395422 -0.00089336939 2.3592596e-20)
(-0.049276782 -0.001632426 3.0448286e-22)
(-0.046221796 -0.0023615222 -4.2373563e-20)
(-0.042270266 -0.0030760856 7.842345e-21)
(-0.037458835 -0.0037741338 2.4782917e-20)
(-0.031792991 -0.0044542684 -4.5610783e-20)
(-0.025330474 -0.005066938 -2.8886109e-20)
(-0.0016835401 0.0042619877 -5.4978028e-21)
(-0.0054960005 0.009438264 1.1029746e-20)
(-0.011414769 0.012218166 -1.0406128e-20)
(-0.01795561 0.013373984 4.0739709e-21)
(-0.02424331 0.013404281 4.9882164e-21)
(-0.029890548 0.012645853 7.3622282e-22)
(-0.034656535 0.011344359 -2.3189985e-20)
(-0.038385051 0.0096782602 -2.0946976e-21)
(-0.040990718 0.0077749441 2.0754201e-20)
(-0.042436751 0.0057243852 -5.1969817e-21)
(-0.04271648 0.0035893336 -2.2430574e-20)
(-0.041841539 0.0014127525 5.0499516e-21)
(-0.039834175 -0.00077655968 2.3327793e-20)
(-0.036721856 -0.0029594758 1.0650215e-20)
(-0.0325334 -0.0051224471 2.2632696e-20)
(-0.027299493 -0.0072532638 -2.0471801e-20)
(-0.021062655 -0.0093391875 -2.2452687e-20)
(-0.013868591 -0.011373893 2.203709e-20)
(-0.0056470805 -0.013342798 2.7846661e-20)
(0.0038019307 -0.015075427 1.642745e-20)
(-0.0023445208 0.0066835077 -4.4569512e-21)
(-0.0066485769 0.01473707 -5.7067709e-21)
(-0.012077346 0.019026924 3.0252012e-22)
(-0.017460744 0.020755764 1.0653212e-21)
(-0.022110261 0.020706288 6.8573778e-21)
(-0.025735299 0.019413139 1.0928109e-20)
(-0.028162598 0.017267115 -3.8257563e-21)
(-0.029284831 0.01455222 -1.9407923e-20)
(-0.029049593 0.011471411 6.7241337e-21)
(-0.027441428 0.0081682028 1.3224644e-20)
(-0.024466876 0.0047427346 6.0350333e-21)
(-0.020145116 0.0012635052 1.8668829e-20)
(-0.014501908 -0.0022238225 1.7827709e-21)
(-0.0075651733 -0.0056894551 -3.4899339e-20)
(0.00063888678 -0.0091127131 1.2848807e-21)
(0.010084068 -0.01247542 -2.2788642e-20)
(0.020721071 -0.015760565 -2.5384137e-20)
(0.032482451 -0.01895987 4.7544718e-20)
(0.04556495 -0.022019345 2.6377391e-20)
(0.060672183 -0.024568025 2.1153154e-22)
(-0.0031808279 0.0085186075 -5.4102171e-21)
(-0.0080141503 0.018644516 -8.7898655e-21)
(-0.012599791 0.023963038 4.4446539e-21)
(-0.016198601 0.025991372 4.2458732e-21)
(-0.018380374 0.025728857 2.0527421e-21)
(-0.018990021 0.023870089 7.5117941e-21)
(-0.017950265 0.020924356 9.5480806e-21)
(-0.015224259 0.017261964 -1.3843824e-21)
(-0.010808245 0.013148071 -1.1772708e-20)
(-0.0047195748 0.0087705638 -2.9846729e-20)
(0.0030132237 0.0042607062 8.0601735e-23)
(0.012355965 -0.0002917292 4.181743e-20)
(0.023273106 -0.0048274185 -1.8857626e-20)
(0.035729404 -0.0093081067 -1.2655055e-20)
(0.049694174 -0.013708528 5.1418072e-22)
(0.06513949 -0.018008664 3.3339573e-20)
(0.08200321 -0.022194772 -1.5418119e-20)
(0.10017747 -0.026266432 -5.5092836e-20)
(0.11999135 -0.03010461 4.7290494e-20)
(0.14286886 -0.03301451 3.4147289e-20)
(-0.0040302029 0.009623491 -6.8126549e-22)
(-0.0092077782 0.020805084 -1.2793642e-20)
(-0.012479692 0.026537493 -3.495123e-20)
(-0.013611441 0.02851536 -5.8848616e-21)
(-0.012480079 0.027872707 -3.6777308e-21)
(-0.009094947 0.025417003 6.4535652e-21)
(-0.0034976242 0.021742466 -4.7548384e-21)
(0.0042594023 0.017281104 -8.9996106e-21)
(0.014115959 0.012342836 2.2402934e-20)
(0.02600869 0.0071476223 5.1513018e-21)
(0.039875563 0.0018495536 -2.5979471e-20)
(0.055656016 -0.0034458212 1.1332214e-20)
(0.073291489 -0.008668805 0)
(0.092725906 -0.013775753 1.2413156e-20)
(0.11390878 -0.018740231 -9.9700383e-21)
(0.13679431 -0.023545406 -1.4779992e-20)
(0.16129322 -0.02819111 -1.4717516e-21)
(0.18723317 -0.032705875 -2.3443279e-21)
(0.21503203 -0.036903403 4.7411068e-20)
(0.24698588 -0.03962087 -1.1005433e-20)
(-0.0047065338 0.0099287662 -7.6732099e-21)
(-0.0097737036 0.021032277 2.5052785e-20)
(-0.01110395 0.026485577 -1.0750203e-20)
(-0.0089993306 0.028020884 -2.80538e-20)
(-0.0036703935 0.026820026 -2.810064e-20)
(0.004690198 0.023752166 -1.5238676e-20)
(0.015904918 0.019458543 -7.0155644e-22)
(0.029815672 0.014404162 5.6540259e-21)
(0.046283677 0.0089233036 2.0003991e-20)
(0.065185015 0.0032540948 7.5116709e-21)
(0.086406167 -0.0024364925 -7.3330493e-21)
(0.10984155 -0.0080340219 -2.0150228e-21)
(0.13538964 -0.013463411 -3.9107165e-20)
(0.16295019 -0.018679226 -1.3004227e-20)
(0.19242582 -0.023657369 1.9310036e-20)
(0.22372296 -0.028389134 -2.1636574e-20)
(0.25669966 -0.032898186 -9.2217619e-21)
(0.29109108 -0.037270959 3.1167579e-20)
(0.32732411 -0.041290519 5.1791143e-20)
(0.36861574 -0.043213493 3.4631582e-21)
(-0.0050153948 0.0094365028 1.7066581e-20)
(-0.009217551 0.019311818 1.471612e-20)
(-0.0077840646 0.023782912 5.2145753e-20)
(-0.0015524674 0.024490261 2.3874525e-20)
(0.008926081 0.022578858 1.8632866e-22)
(0.023265357 0.018927636 -4.0172491e-20)
(0.041139637 0.014185544 -2.4808442e-20)
(0.062272349 0.0088212904 1.0656066e-20)
(0.086427358 0.003171133 1.4680429e-20)
(0.11339842 -0.0025254571 -1.3330927e-20)
(0.14299814 -0.0081009533 -4.4969804e-20)
(0.17504895 -0.01344163 3.026615e-20)
(0.20937527 -0.018474534 2.0414189e-20)
(0.24579749 -0.023158584 -2.8175007e-20)
(0.28413143 -0.027477765 1.1950871e-20)
(0.32419187 -0.031437835 2.4778327e-20)
(0.36574496 -0.035095671 8.3032393e-21)
(0.4084032 -0.038626396 -1.214797e-20)
(0.452507 -0.041862597 -1.4445343e-20)
(0.50211343 -0.042464589 6.3437081e-21)
(-0.004764767 0.0082089714 1.1299053e-20)
(-0.0070328362 0.015785911 -2.3864067e-20)
(-0.0017913138 0.018636424 8.726929e-21)
(0.0096087466 0.018196177 3.4252294e-20)
(0.026281323 0.015494322 5.3117186e-20)
(0.047642974 0.011370413 2.0658164e-20)
(0.073209675 0.0064433577 -5.9892726e-21)
(0.10256701 0.0011538639 -1.2487413e-20)
(0.13535997 -0.0041836917 -6.3498448e-21)
(0.17127281 -0.0093475261 3.4892889e-20)
(0.21001053 -0.014185455 -4.6581572e-21)
(0.25128447 -0.018597961 -1.7011605e-20)
(0.29480086 -0.022526259 -2.0060575e-20)
(0.34025241 -0.025944807 -4.847202e-20)
(0.38731676 -0.028856557 2.3741766e-20)
(0.4356641 -0.031292814 -1.4430302e-20)
(0.48492427 -0.033356513 2.6685002e-20)
(0.53456931 -0.035345923 2.1586728e-20)
(0.58478111 -0.037267734 -8.7275827e-20)
(0.64025117 -0.036356018 -1.145905e-24)
(-0.0037719126 0.0063551267 2.2290211e-20)
(-0.0027261994 0.010731635 -2.6686334e-20)
(0.00759791 0.011468014 -4.5823613e-20)
(0.025366225 0.0096957457 -2.77586e-20)
(0.049371507 0.0062568082 -2.0804575e-21)
(0.07882727 0.0019041292 1.3241876e-20)
(0.11307662 -0.0028116128 -2.850804e-21)
(0.15154679 -0.0075088684 1.8416684e-20)
(0.19373358 -0.011921971 8.9937196e-21)
(0.23917365 -0.015869922 -1.1573573e-20)
(0.28741957 -0.019236561 9.1068913e-21)
(0.33802136 -0.021955687 -2.4353372e-20)
(0.39051317 -0.024000402 8.277212e-21)
(0.44440423 -0.025376446 1.7120037e-20)
(0.49917746 -0.026118146 -2.7048618e-21)
(0.55429936 -0.026290239 1.6958886e-21)
(0.60920448 -0.026042506 -3.0260857e-22)
(0.66320002 -0.025779487 2.0078026e-20)
(0.71627532 -0.025704736 4.1312483e-21)
(0.77350949 -0.023141875 -1.1061495e-21)
(-0.0018641107 0.0040195611 2.4120496e-20)
(0.0041627783 0.0045471706 5.8246663e-20)
(0.021048377 0.0029131685 -5.0103908e-20)
(0.046508002 -0.0001492202 -1.0118455e-20)
(0.079024719 -0.004057736 2.0574774e-20)
(0.11760345 -0.008192451 2.1777771e-21)
(0.16139663 -0.01211052 -3.0284841e-20)
(0.2096437 -0.015525836 7.0678109e-21)
(0.261652 -0.018254412 7.2693664e-21)
(0.31676414 -0.020186985 -2.6727168e-20)
(0.37433015 -0.021273264 1.3279319e-21)
(0.43368966 -0.021509152 -3.7890543e-20)
(0.49416204 -0.020926332 -3.7099627e-20)
(0.55504292 -0.019583882 6.7158632e-20)
(0.61560718 -0.017560846 5.6997727e-21)
(0.67511636 -0.014955126 -1.5645098e-20)
(0.73280477 -0.011924197 1.9824931e-20)
(0.78780601 -0.0087725588 -9.4122539e-22)
(0.83962341 -0.0055238095 2.0595858e-20)
(0.8919606 -0.00063011574 -2.035199e-20)
(-0.017625956 -0.0053676945 6.0889007e-20)
(-0.0085425438 -0.0059364859 1.6433534e-20)
(0.0020151887 -0.0064035366 -3.6699972e-20)
(0.013691182 -0.0066977147 1.7645143e-20)
(0.02621692 -0.0069034555 0)
(0.03953752 -0.0070491664 0)
(0.053598594 -0.0071372293 -2.4212682e-20)
(0.068324644 -0.0071753855 -1.7403278e-20)
(0.083649552 -0.0071731873 2.0308785e-20)
(0.099518822 -0.0071375592 1.9316479e-20)
(0.11588302 -0.0070737932 1.0994658e-21)
(0.13269638 -0.0069865839 -1.0964858e-20)
(0.14991731 -0.0068800565 9.0176467e-21)
(0.16750811 -0.0067577463 1.9483851e-20)
(0.18543454 -0.0066227258 -5.774163e-21)
(0.2036656 -0.0064777138 -1.0924013e-20)
(0.22217353 -0.0063251404 -4.6493774e-21)
(0.24093383 -0.0061671985 -4.7022155e-21)
(0.25992546 -0.0060058893 7.6859726e-22)
(0.27913101 -0.0058430571 1.3664193e-21)
(0.29853703 -0.0056804131 2.9721557e-21)
(0.31813438 -0.0055195503 7.4928917e-21)
(0.33791862 -0.0053619493 8.9752976e-23)
(0.3578904 -0.0052089736 -4.0111593e-21)
(0.37805585 -0.0050618556 1.3337892e-22)
(0.39842685 -0.0049216717 -6.9414708e-22)
(0.41902113 -0.004789305 1.5278985e-21)
(0.43986218 -0.0046653985 1.2190864e-21)
(0.46097878 -0.0045502992 -1.8885391e-21)
(0.48240406 -0.004443997 -1.044967e-22)
(0.50417403 -0.0043460658 -2.7118469e-22)
(0.52632551 -0.0042556148 -5.0233736e-22)
(0.5488933 -0.0041712603 -7.602752e-22)
(0.57190683 -0.0040911298 2.9350551e-22)
(0.59538625 -0.0040129063 -2.1765227e-22)
(0.61933822 -0.0039339193 -3.1294866e-22)
(0.64375176 -0.003851281 3.5929324e-22)
(0.66859453 -0.0037620587 3.8629134e-22)
(0.69380977 -0.003663466 -2.0010404e-22)
(0.71931464 -0.0035530431 -4.2470508e-22)
(0.74499872 -0.0034287944 -5.2978391e-23)
(0.7707269 -0.0032891922 5.0410233e-23)
(0.79633124 -0.0031330968 5.8834345e-23)
(0.8216369 -0.0029591323 -3.4866606e-22)
(0.84636907 -0.002766058 -3.4700385e-22)
(0.87041938 -0.0025496798 1.4236373e-22)
(0.89296743 -0.0023140449 6.9705615e-23)
(0.91517738 -0.0020371329 -2.1187674e-24)
(0.93189864 -0.0018171557 1.726322e-23)
(0.95681418 -0.0013031796 4.6202577e-22)
(0.012844443 -0.015840662 -1.3385394e-20)
(0.02106736 -0.017561209 -6.5989443e-20)
(0.03125019 -0.018932407 -3.2037716e-20)
(0.042517508 -0.019773248 4.0344362e-20)
(0.054482994 -0.020365567 1.5407387e-20)
(0.067172894 -0.020792225 -1.9265583e-20)
(0.080564554 -0.021052246 5.0735198e-21)
(0.094585058 -0.02116682 2.6837234e-20)
(0.10917558 -0.021164439 -4.7803134e-23)
(0.12429106 -0.021064985 -8.1937305e-21)
(0.13988906 -0.020883344 -1.3606367e-20)
(0.15592906 -0.020632943 -9.2302114e-21)
(0.17237395 -0.020325682 1.8956965e-20)
(0.18918978 -0.019971771 1.0063489e-20)
(0.20634535 -0.0195801 -1.7459775e-20)
(0.22381211 -0.019158577 -6.4983378e-21)
(0.24156427 -0.0187143 3.3880444e-21)
(0.25957891 -0.018253695 8.9343055e-21)
(0.27783619 -0.017782651 7.7153372e-21)
(0.29631962 -0.017306609 -8.0184278e-21)
(0.31501639 -0.016830634 -3.9665437e-21)
(0.33391771 -0.01635945 1.9517759e-21)
(0.35301928 -0.015897456 9.8830186e-22)
(0.37232163 -0.015448713 1.5520709e-21)
(0.39183056 -0.015016895 3.5817107e-22)
(0.41155733 -0.01460522 -5.438576e-22)
(0.4315189 -0.014216336 -1.0432591e-21)
(0.45173773 -0.013852183 1.6674618e-21)
(0.47224138 -0.013513823 1.3628326e-21)
(0.49306164 -0.013201263 -6.8005118e-22)
(0.51423312 -0.012913277 1.0700802e-21)
(0.53579119 -0.012647258 -3.4065116e-22)
(0.55776933 -0.012399136 -8.6828334e-22)
(0.58019587 -0.012163385 -1.2234122e-21)
(0.60309015 -0.011933151 6.9615319e-22)
(0.6264585 -0.011700525 -6.0101987e-22)
(0.65029018 -0.011456942 7.3196178e-22)
(0.6745537 -0.011193689 -1.1649659e-21)
(0.69919384 -0.010902481 1.4032884e-21)
(0.72412996 -0.01057599 1.0239679e-22)
(0.74925451 -0.010208265 1.346893e-22)
(0.77443578 -0.0097947404 7.113925e-22)
(0.79950984 -0.0093320214 9.5939172e-22)
(0.82430646 -0.0088160047 7.6250349e-22)
(0.84855656 -0.0082430455 8.8726667e-22)
(0.87215765 -0.0076005367 8.3701518e-23)
(0.89430013 -0.0069007383 3.2170823e-22)
(0.916145 -0.0060772009 1.7516414e-22)
(0.93258929 -0.0054237591 -7.1744464e-23)
(0.95717848 -0.0038924221 2.3954797e-22)
(0.072167891 -0.025453068 9.8920612e-21)
(0.078663408 -0.028323618 3.5455705e-21)
(0.087969433 -0.030532861 -1.3011101e-20)
(0.09836212 -0.031828201 -1.4109985e-21)
(0.1091652 -0.032754692 1.5849436e-20)
(0.12056296 -0.033445895 -1.566345e-20)
(0.13260355 -0.033877947 -3.1613737e-20)
(0.14521524 -0.034079429 1.5472412e-20)
(0.15834996 -0.034097156 1.9417056e-20)
(0.1719802 -0.033961935 -1.2413605e-20)
(0.18607621 -0.03369573 1.0847358e-21)
(0.20060654 -0.033318925 8.950984e-21)
(0.21554178 -0.032849978 -1.6526808e-20)
(0.23085445 -0.032304782 3.837096e-21)
(0.24651855 -0.031697248 8.3116456e-21)
(0.26250963 -0.03103985 -5.2892467e-22)
(0.27880518 -0.030343882 -9.1396254e-23)
(0.29538485 -0.029619653 -8.4190498e-21)
(0.31223073 -0.028876663 5.0575346e-21)
(0.32932774 -0.028123746 9.8246139e-21)
(0.34666395 -0.027369162 -4.4884177e-21)
(0.36423107 -0.02662065 -2.5047056e-21)
(0.38202479 -0.02588544 9.5327138e-22)
(0.40004527 -0.025170225 -2.2203202e-21)
(0.41829745 -0.024481088 1.5933098e-21)
(0.43679137 -0.023823371 8.6325975e-22)
(0.45554231 -0.023201502 2.831707e-21)
(0.4745707 -0.022618759 -3.4186249e-21)
(0.49390173 -0.022077001 4.0751908e-21)
(0.51356455 -0.021576368 9.9171879e-22)
(0.53359099 -0.021114992 1.5126802e-21)
(0.55401365 -0.020688747 4.5733525e-22)
(0.5748634 -0.020291113 2.257184e-21)
(0.59616639 -0.019913174 -3.5683052e-21)
(0.61794038 -0.019543828 1.0901059e-21)
(0.640191 -0.019170212 8.903429e-22)
(0.66290787 -0.018778358 -3.1610222e-22)
(0.68606106 -0.018354022 -2.8935614e-22)
(0.70959821 -0.017883614 -1.0639952e-21)
(0.73344283 -0.017355081 7.3311584e-22)
(0.75749274 -0.016758601 -3.5691406e-23)
(0.78162268 -0.016086625 2.1766183e-21)
(0.80567633 -0.015333565 -9.8224606e-22)
(0.82949221 -0.014492669 -2.0071551e-23)
(0.85281225 -0.013558098 3.8562085e-22)
(0.87554526 -0.012508826 -2.65196e-22)
(0.89690242 -0.011365508 -3.2411954e-22)
(0.9180391 -0.010016539 1.1462513e-21)
(0.93394471 -0.0089481152 6.2996434e-23)
(0.95789749 -0.006430907 -1.0181463e-21)
(0.15752298 -0.033542232 1.6411083e-21)
(0.16141487 -0.037527022 -1.1900762e-20)
(0.16916111 -0.040476037 6.7816689e-21)
(0.17811346 -0.042115372 -1.3938186e-20)
(0.1870981 -0.043321915 -2.0719975e-21)
(0.19650435 -0.044271133 9.7941781e-21)
(0.20650066 -0.044893213 -1.0635787e-20)
(0.21701292 -0.045214464 1.3840512e-21)
(0.22800028 -0.04529754 1.3656899e-20)
(0.2394579 -0.045181678 3.8078688e-21)
(0.25137268 -0.044892727 -6.6027502e-21)
(0.26372377 -0.044455354 -3.2701022e-21)
(0.27649058 -0.043892724 -5.9156967e-21)
(0.2896532 -0.043225075 -7.1367487e-21)
(0.30319157 -0.042470275 3.0160095e-21)
(0.31708581 -0.041644538 3.2017198e-22)
(0.33131696 -0.040762743 1.7166534e-21)
(0.34586734 -0.039838631 -3.7019607e-21)
(0.36072098 -0.03888499 -5.163941e-21)
(0.37586407 -0.037913807 2.8895202e-21)
(0.39128539 -0.036936365 4.152676e-21)
(0.40697678 -0.035963295 -2.3112244e-21)
(0.42293353 -0.035004574 2.0734415e-21)
(0.43915488 -0.034069477 -7.3627244e-22)
(0.45564431 -0.03316647 -5.8001653e-21)
(0.47240986 -0.032303031 -3.9687059e-21)
(0.48946429 -0.031485412 -5.5133753e-22)
(0.50682497 -0.030718319 2.25019e-22)
(0.52451363 -0.030004544 -3.1773574e-21)
(0.54255557 -0.029344554 -2.0967567e-21)
(0.56097855 -0.028736092 3.1276033e-22)
(0.57981113 -0.028173831 -2.744738e-21)
(0.59908038 -0.027649171 -3.213386e-22)
(0.61880913 -0.027150228 -1.2377025e-21)
(0.63901274 -0.026662096 -7.4979445e-22)
(0.6596956 -0.026167418 -2.0892926e-21)
(0.68084757 -0.025647257 -3.1846455e-21)
(0.70244064 -0.025082221 1.6627694e-22)
(0.72442624 -0.024453733 -5.8439845e-24)
(0.74673346 -0.02374524 -1.9390526e-21)
(0.76926744 -0.02294319 4.1651816e-22)
(0.79191186 -0.022037133 -1.5165438e-21)
(0.81452093 -0.021019383 -2.6147194e-21)
(0.83694541 -0.019880691 1.8088829e-21)
(0.85894265 -0.018613329 4.9898066e-24)
(0.88043753 -0.017187976 8.2753292e-22)
(0.90067117 -0.015633733 -4.6153096e-22)
(0.92079055 -0.013793422 -7.7420376e-22)
(0.93592061 -0.012338797 -7.0276077e-23)
(0.95895098 -0.0088871426 6.7820177e-22)
(0.26492251 -0.039334258 -2.1826668e-20)
(0.26530374 -0.044383407 4.9334812e-20)
(0.27061356 -0.047957391 1.0699397e-20)
(0.27742406 -0.049853818 -1.6466351e-20)
(0.28388701 -0.051321121 -2.2760412e-21)
(0.29058148 -0.052553742 2.5739298e-21)
(0.29784542 -0.053419724 -1.9296565e-21)
(0.30560411 -0.053932714 -4.9347664e-21)
(0.31381201 -0.054164011 -4.2440376e-21)
(0.32248556 -0.05415804 -1.2938812e-20)
(0.33162987 -0.053942184 1.935847e-20)
(0.34123391 -0.053542674 7.1986526e-21)
(0.35128435 -0.052985157 -1.7937624e-20)
(0.36176767 -0.052292783 1.0577753e-20)
(0.37266879 -0.051486377 8.4900857e-21)
(0.38397149 -0.05058513 -3.9741959e-22)
(0.39565938 -0.049606955 -2.9926725e-21)
(0.40771659 -0.048568653 -4.7535292e-21)
(0.42012825 -0.047486058 -1.8263646e-21)
(0.43288103 -0.046374158 -1.6546575e-21)
(0.44596363 -0.045247172 -4.0095202e-21)
(0.45936726 -0.044118577 0)
(0.47308612 -0.043001085 -1.8852251e-21)
(0.48711772 -0.04190657 4.8572185e-21)
(0.50146334 -0.040845917 7.3746397e-21)
(0.51612821 -0.039828809 -1.1112613e-21)
(0.53112167 -0.038863421 -4.9199254e-21)
(0.54645717 -0.037956032 5.5297824e-21)
(0.56215194 -0.037110564 -3.7213194e-22)
(0.5782264 -0.036328073 6.4262465e-21)
(0.59470317 -0.035606244 -7.2877393e-22)
(0.61160559 -0.034938959 3.21642e-21)
(0.62895581 -0.034316011 -1.9128827e-21)
(0.64677232 -0.033723085 1.1659398e-21)
(0.66506716 -0.033142047 -1.422858e-21)
(0.68384278 -0.03255163 1.2787786e-21)
(0.70308886 -0.031928493 1.4830266e-21)
(0.72277933 -0.031248605 1.3126188e-21)
(0.74286973 -0.030488813 -3.2832904e-21)
(0.7632956 -0.029628367 2.4323955e-21)
(0.78397066 -0.028650184 -1.2387513e-21)
(0.80478919 -0.027541025 -4.7154247e-21)
(0.82561802 -0.026291246 6.0161536e-21)
(0.84632268 -0.024889311 -3.2129809e-23)
(0.8666794 -0.023326016 -6.5373191e-22)
(0.88663265 -0.021564015 3.6603102e-24)
(0.90546157 -0.019640851 -7.7909822e-22)
(0.92430175 -0.017353748 -1.3724155e-21)
(0.93845388 -0.015550094 5.9079694e-22)
(0.96030981 -0.01123267 -1.0220257e-22)
(0.38928498 -0.041847094 -1.8294449e-20)
(0.38526203 -0.047968496 1.3216731e-20)
(0.38712823 -0.052093721 3.3215383e-21)
(0.39097908 -0.054251773 -7.9664127e-21)
(0.39421954 -0.056043065 1.2598418e-20)
(0.39752103 -0.057640611 8.1681157e-21)
(0.40141644 -0.058855384 -1.3104529e-20)
(0.40584845 -0.059685758 -6.3871988e-21)
(0.41075117 -0.060198629 1.339672e-20)
(0.41614982 -0.060437174 -1.6614102e-20)
(0.42206496 -0.060429112 -1.4904887e-20)
(0.42849328 -0.060200811 1.5583468e-20)
(0.43542501 -0.059778522 7.3001722e-21)
(0.44284961 -0.059187063 -5.2954579e-21)
(0.45075444 -0.058449581 -1.4816856e-21)
(0.45912477 -0.057587862 -3.8538658e-21)
(0.46794489 -0.056622606 5.1570222e-21)
(0.47719904 -0.055573573 4.0020738e-21)
(0.48687199 -0.054459645 -3.4002416e-21)
(0.49694958 -0.053298875 3.4608954e-21)
(0.5074193 -0.052108516 3.4209846e-21)
(0.51827069 -0.050905013 -3.9680744e-21)
(0.52949584 -0.049703947 4.2564043e-22)
(0.54108975 -0.048519925 -3.7405004e-21)
(0.55305061 -0.047366401 1.0942699e-20)
(0.56538007 -0.046255416 8.7343713e-21)
(0.57808332 -0.045197246 1.6931326e-21)
(0.5911691 -0.044199954 -2.5994044e-21)
(0.60464938 -0.043268849 7.0580753e-21)
(0.61853889 -0.042405892 1.3670883e-20)
(0.63285424 -0.041609098 3.9232927e-21)
(0.6476127 -0.040872014 7.0186014e-21)
(0.66283053 -0.040183373 4.0771074e-21)
(0.67852099 -0.03952703 1.8719577e-21)
(0.69469186 -0.038882279 -4.1173814e-22)
(0.71134289 -0.038224613 7.4991561e-21)
(0.72846295 -0.037526943 1.7485556e-21)
(0.74602746 -0.036761188 7.9324628e-22)
(0.76399599 -0.03590012 1.2980499e-22)
(0.78231065 -0.034919161 3.8525224e-21)
(0.80089429 -0.033797939 6.6112518e-23)
(0.81965261 -0.032520585 2.0933956e-21)
(0.83846623 -0.031075662 -2.4863504e-22)
(0.85721689 -0.029449619 -1.6976822e-21)
(0.87570197 -0.027632298 -7.1970599e-22)
(0.89388772 -0.02557876 -1.7842201e-21)
(0.91109787 -0.02333503 8.46247e-22)
(0.92845314 -0.020653094 -3.8691129e-22)
(0.94146643 -0.018543717 -3.5615008e-22)
(0.96193739 -0.013442943 5.9721703e-22)
(0.52432455 -0.040093349 3.5850491e-21)
(0.51520608 -0.047310337 -1.9436702e-20)
(0.51263699 -0.051971528 -2.4385787e-21)
(0.51269918 -0.054560731 5.6725293e-21)
(0.51214154 -0.056884641 3.3054129e-21)
(0.51153293 -0.059021004 1.9717734e-22)
(0.51156748 -0.060754644 6.7821969e-21)
(0.51224939 -0.062085481 8.0957754e-21)
(0.51349022 -0.063065928 1.0294049e-20)
(0.51530088 -0.063728866 -1.1982574e-20)
(0.51770665 -0.06410062 -2.3236499e-20)
(0.5207088 -0.064207799 -4.4977656e-21)
(0.52429728 -0.064076804 1.7318773e-20)
(0.52846014 -0.063733662 1.3943834e-20)
(0.53318366 -0.063203818 -6.0853729e-21)
(0.53845198 -0.062511875 9.8764088e-22)
(0.54424789 -0.061681621 -4.496074e-21)
(0.55055384 -0.060736097 3.4386694e-21)
(0.55735263 -0.059697575 -3.2030011e-22)
(0.5646279 -0.058587522 -2.2045825e-21)
(0.5723647 -0.057426566 9.7948188e-21)
(0.58054989 -0.056234438 -6.6678571e-22)
(0.58917254 -0.055029883 8.2190972e-22)
(0.59822428 -0.053830516 -3.8402379e-22)
(0.60769956 -0.052652613 -5.666351e-21)
(0.61759581 -0.051510822 5.7036268e-21)
(0.62791353 -0.050417771 2.2915796e-21)
(0.6386562 -0.049383566 -4.787174e-21)
(0.64983009 -0.048415199 -5.5997566e-21)
(0.66144374 -0.047515879 -9.7274423e-21)