/*--------------------------------*- C++ -*----------------------------------*\
  =========                 |
  \\      /  F ield         | OpenFOAM: The Open Source CFD Toolbox
   \\    /   O peration     | Website:  https://openfoam.org
    \\  /    A nd           | Version:  6
     \\/     M anipulation  |
\*---------------------------------------------------------------------------*/
FoamFile
{
    version     2.0;
    format      ascii;
    class       volScalarField;
    location    "168";
    object      pPrime2Mean;
}
// * * * * * * * * * * * * * * * * * * * * * * * * * * * * * * * * * * * * * //

dimensions      [0 4 -4 0 0 0 0];

internalField   nonuniform List<scalar> 
9200
(
0.066863154
0.055419771
0.045731834
0.03942553
0.034392482
0.030150898
0.026491267
0.023306777
0.02052634
0.018093017
0.015959639
0.014086663
0.012440694
0.010993363
0.009720447
0.0086012379
0.0076182078
0.006756744
0.0060060623
0.0053522259
0.054208186
0.044843564
0.037012654
0.031866249
0.027738071
0.024249035
0.021234524
0.01861059
0.01632069
0.014319233
0.012568137
0.011035177
0.0096928556
0.0085175352
0.0074887718
0.0065888432
0.0058024929
0.0051165833
0.0045189265
0.0039921671
0.042342445
0.034977082
0.028890063
0.024835865
0.021557948
0.018774286
0.016363265
0.014263036
0.012431352
0.010833628
0.0094404076
0.0082262092
0.0071687814
0.0062485497
0.0054482246
0.0047525405
0.0041481033
0.0036231034
0.0031657083
0.0027603812
0.031595239
0.026086424
0.021577653
0.018516774
0.016011159
0.013867051
0.012002738
0.010377098
0.0089613578
0.0077310534
0.0066643899
0.0057416654
0.0049449858
0.0042581103
0.0036663837
0.0031567108
0.0027175201
0.0023385688
0.0020097551
0.0017193145
0.022263286
0.018410785
0.015272102
0.013078784
0.011247378
0.009661073
0.0082737966
0.0070630956
0.0060122139
0.0051053477
0.0043269714
0.0036619335
0.0030957254
0.0026147684
0.0022066657
0.0018603685
0.0015662222
0.0013158478
0.0011014888
0.0009152585
0.014608081
0.012158598
0.010147858
0.0086737608
0.0074014607
0.0062778633
0.0052871414
0.0044226727
0.0036775802
0.003042767
0.002507299
0.0020592701
0.0016866546
0.0013779973
0.0011228926
0.00091224214
0.00073830545
0.00059459729
0.00047561439
0.00037649838
0.0088482633
0.0075025341
0.0063532582
0.0054323179
0.0045904979
0.0038238463
0.0031403098
0.002545499
0.0020397194
0.0016183369
0.0012732824
0.00099469831
0.00077230193
0.00059634481
0.0004581772
0.00035048144
0.00026726021
0.00020370772
0.00015613777
0.00012173243
0.0051540319
0.0045760598
0.0040077734
0.0034612458
0.0029111966
0.002387504
0.0019145117
0.0015058861
0.00116611
0.00089274341
0.00067900486
0.00051608934
0.00039486599
0.00030692416
0.00024508054
0.00020350616
0.00017762247
0.00016393402
0.0001600176
0.00016424501
0.0036424018
0.0034697015
0.0031970572
0.002838157
0.0024349673
0.0020352789
0.0016714456
0.0013604834
0.0011079462
0.00091153494
0.00076450962
0.00065840266
0.00058479023
0.00053624021
0.00050666425
0.0004913098
0.00048657547
0.00048981341
0.00049928104
0.00051384194
0.0043720979
0.0042279643
0.0039676078
0.0036063337
0.0032030365
0.0028065195
0.0024479359
0.0021427908
0.0018948591
0.0017003678
0.0015517534
0.0014403922
0.0013581793
0.0012982388
0.0012550939
0.0012245455
0.0012034441
0.0011894754
0.0011810042
0.0011767885
0.15886143
0.13360305
0.11041464
0.095752657
0.084111562
0.074341137
0.065929728
0.058601296
0.052184952
0.046546391
0.041575883
0.037182586
0.033290408
0.029835025
0.026761666
0.02402342
0.021579915
0.019395002
0.01743474
0.0156795
0.15683686
0.13177093
0.10884828
0.094354842
0.082859692
0.07321391
0.064910368
0.057677571
0.051346599
0.045784439
0.040882402
0.036550524
0.032713471
0.029307578
0.02627866
0.023580338
0.021172773
0.019020342
0.017088914
0.015359544
0.15270734
0.12814364
0.10579519
0.091662417
0.080466061
0.071072942
0.062986853
0.055944813
0.049782341
0.044369627
0.039600528
0.035387152
0.031655901
0.028344592
0.02540032
0.022777843
0.020438396
0.018347413
0.01647088
0.014790211
0.14654515
0.12280933
0.10134361
0.087758982
0.077006367
0.067986789
0.06022196
0.053460925
0.04754586
0.042351955
0.037777049
0.033736485
0.030159346
0.026985713
0.024164612
0.021652463
0.019412014
0.017410223
0.015613754
0.014003827
0.13851862
0.1159194
0.095622498
0.082759897
0.07258412
0.064048795
0.056700478
0.050303362
0.044708242
0.039796914
0.035472517
0.031654702
0.028276106
0.025279791
0.022617304
0.0202472
0.018134055
0.016246706
0.014553438
0.01303502
0.12885651
0.10767439
0.088799118
0.076812542
0.067330636
0.059376621
0.052528312
0.046567761
0.041356095
0.036783128
0.032758459
0.029206991
0.026065701
0.023281277
0.020808321
0.018607935
0.016646767
0.014895708
0.013325721
0.011917668
0.11783651
0.098314721
0.081071414
0.070089733
0.061399118
0.054106951
0.047827808
0.042363819
0.037587922
0.033399143
0.029714522
0.026465045
0.023592727
0.021048473
0.01879043
0.016782648
0.014994095
0.01339773
0.011967967
0.010686979
0.10577519
0.088112255
0.072661662
0.062784389
0.054959906
0.048391184
0.042733905
0.03781195
0.033511246
0.029740994
0.026426492
0.023505505
0.020925702
0.018642742
0.016618792
0.014821282
0.013221862
0.011795681
0.010521062
0.0093826868
0.093016536
0.077360115
0.063808457
0.055102521
0.048194221
0.042389924
0.037389286
0.033038974
0.029238789
0.025908862
0.02298339
0.02040749
0.018134984
0.016126746
0.014349393
0.01277417
0.011375922
0.010132477
0.0090266112
0.0080455856
0.079919494
0.066364533
0.054758239
0.047254299
0.041285496
0.036264809
0.031936866
0.028171459
0.024882803
0.022002446
0.019473899
0.017249973
0.015290946
0.013563172
0.012038
0.010690884
0.0095006892
0.0084495833
0.0075262937
0.0067185697
0.013827686
0.011981399
0.010415805
0.0090564924
0.0078951782
0.006900354
0.0060446863
0.0053047314
0.0046614318
0.0040993127
0.003605843
0.0031709819
0.0027866672
0.0024463392
0.0021445854
0.0018768811
0.0016393911
0.0014288204
0.0012423042
0.0010773262
0.00093165622
0.00080330271
0.00069047553
0.00059155734
0.00050508128
0.00042971362
0.00036424006
0.00030755473
0.00025865125
0.00021661527
0.00018061801
0.0001499105
0.0001238183
0.00010173643
8.3124628e-05
6.7502513e-05
5.4445183e-05
4.3578434e-05
3.4574875e-05
2.7148578e-05
2.1053817e-05
1.6073742e-05
1.2036441e-05
8.761569e-06
6.1803577e-06
4.0514037e-06
2.5839201e-06
1.1843733e-06
1.5681487e-06
2.5657748e-06
0.013559149
0.011774262
0.01025357
0.008928757
0.0077957703
0.0068238095
0.0059858182
0.0052592419
0.0046260012
0.0040713988
0.0035835523
0.0031529558
0.0027719417
0.002434221
0.002134565
0.0018685737
0.0016324975
0.0014231012
0.0012375637
0.0010734024
0.00092841377
0.00080062787
0.00068827277
0.00058974638
0.0005035948
0.00042849533
0.00036324299
0.00030673982
0.00025798612
0.00021607314
0.00018017678
0.00014955199
0.00012352755
0.00010150116
8.2934756e-05
6.7349783e-05
5.4322819e-05
4.3480877e-05
3.4497568e-05
2.7087789e-05
2.1006487e-05
1.6037378e-05
1.2009011e-05
8.7414623e-06
6.1662525e-06
4.0422847e-06
2.5791398e-06
1.1815805e-06
1.5585724e-06
2.515681e-06
0.013086444
0.011412078
0.0099726801
0.008711164
0.0076290725
0.0066974562
0.00589011
0.0051862535
0.0045697467
0.0040274313
0.0035486456
0.0031248438
0.0027490465
0.0024154248
0.0021190543
0.0018557385
0.0016218653
0.001414295
0.0012302762
0.0010673791
0.00092344242
0.00079653049
0.00068490011
0.00058697346
0.00050131716
0.00042662593
0.00036170959
0.00030548262
0.00025695579
0.00021522911
0.00017948575
0.00014898664
0.00012306553
0.00010112417
8.2627791e-05
6.7100537e-05
5.4121179e-05
4.3318522e-05
3.4367634e-05
2.6984611e-05
2.0925389e-05
1.5974506e-05
1.1961204e-05
8.7061651e-06
6.1413936e-06
4.0261769e-06
2.5708329e-06
1.1767013e-06
1.5394472e-06
2.4178477e-06
0.012438536
0.010917134
0.0095932045
0.0084231249
0.0074123967
0.0065355827
0.0057688881
0.0050944887
0.0044992535
0.0039723879
0.003504962
0.0030896888
0.0027204575
0.0023920086
0.0020997891
0.0018398508
0.0016087515
0.0014034721
0.0012213501
0.0010600245
0.00091738879
0.00079155236
0.00068080939
0.00058361361
0.0004985582
0.0004243603
0.00035984856
0.00030395329
0.00025569841
0.00021419484
0.00017863474
0.00014828643
0.00012248964
0.000100651
8.2239686e-05
6.6783015e-05
5.3862324e-05
4.3108493e-05
3.4198277e-05
2.6849152e-05
2.0818191e-05
1.5890878e-05
1.1897272e-05
8.6587628e-06
6.1079246e-06
4.0045294e-06
2.5596979e-06
1.1703505e-06
1.5107767e-06
2.277308e-06
0.011644035
0.010312201
0.0091358515
0.0080844484
0.0071631414
0.0063519911
0.0056325395
0.0049916176
0.0044201731
0.0039105245
0.0034558466
0.0030502372
0.0026885026
0.0023659843
0.002078525
0.0018224456
0.0015944953
0.001391795
0.0012117888
0.0010521991
0.00091098641
0.00078631495
0.00067652412
0.00058010534
0.00049568328
0.00042200125
0.00035790965
0.00030235677
0.00025438132
0.00021310632
0.00017773377
0.00014753988
0.00012187077
0.00010013814
8.1815208e-05
6.6432501e-05
5.3573899e-05
4.2872319e-05
3.4006147e-05
2.6694185e-05
2.0694601e-05
1.5793791e-05
1.1822612e-05
8.6031653e-06
6.0685568e-06
3.9791667e-06
2.546588e-06
1.1633126e-06
1.4728496e-06
2.1014473e-06
0.010727532
0.0096180496
0.0086193604
0.0077113131
0.0068940615
0.0061555503
0.0054867794
0.0048814192
0.0043352526
0.0038440626
0.00340326
0.0030083071
0.0026548884
0.0023389436
0.0020567284
0.0018048571
0.001580295
0.0013803281
0.0012025281
0.0010447183
0.00090493989
0.00078142258
0.00067255905
0.00057688432
0.00049305885
0.00041985522
0.00035614767
0.00030090379
0.00025317789
0.00021210543
0.00017689829
0.00014684051
0.00012128425
9.964595e-05
8.1402455e-05
6.6087102e-05
5.3285913e-05
4.2633475e-05
3.3809474e-05
2.6533752e-05
2.056533e-05
1.5691317e-05
1.1743205e-05
8.5437093e-06
6.0262824e-06
3.9520888e-06
2.5323956e-06
1.1564232e-06
1.4261348e-06
1.8992295e-06
0.0097130745
0.0088554922
0.0080604527
0.0073135399
0.0066093708
0.0059471048
0.0053309508
0.0047631609
0.0042443944
0.0037736085
0.0033483205
0.0029653205
0.0026211759
0.0023124652
0.0020359171
0.0017884964
0.0015674334
0.0013702174
0.0011945783
0.0010384629
0.00090001025
0.00077752743
0.00066946902
0.00057441948
0.00049107881
0.00041825114
0.00035483574
0.00029981996
0.00025227347
0.00021134367
0.00017625156
0.00014628803
0.00012081036
9.9238719e-05
8.105264e-05
6.5787379e-05
5.3030296e-05
4.2416929e-05
3.3627637e-05
2.6382763e-05
2.044173e-05
1.5591983e-05
1.1665339e-05
8.4849215e-06
5.9841907e-06
3.9253332e-06
2.5179834e-06
1.1504878e-06
1.3712719e-06
1.6803575e-06
0.0086305334
0.0080482954
0.0074719631
0.0068897806
0.0063003222
0.0057175013
0.0051582866
0.0046328327
0.0041459538
0.0036992112
0.0032920897
0.0029228497
0.0025891336
0.0022883269
0.0020177711
0.0017748922
0.0015572666
0.001362645
0.0011889563
0.0010342992
0.00089692899
0.00077524297
0.00066776537
0.00057313468
0.00049009273
0.00041747592
0.00035420828
0.00029929588
0.00025182237
0.0002109454
0.00017589332
0.0001459621
0.0001205124
9.896649e-05
8.0805121e-05
6.5564115e-05
5.2830978e-05
4.2241163e-05
3.3474802e-05
2.6251982e-05
2.0331894e-05
1.5501796e-05
1.1593384e-05
8.429904e-06
5.9443327e-06
3.9002237e-06
2.5037467e-06
1.1460258e-06
1.3089956e-06
1.454581e-06
0.0075093757
0.0072069267
0.006840657
0.0064094593
0.0059336542
0.0054396056
0.0049491014
0.0044764311
0.0040298136
0.0036134279
0.0032289671
0.0028765591
0.0025553169
0.0022637375
0.001999996
0.0017621399
0.0015482054
0.0013562831
0.0011845539
0.0010313046
0.00089493176
0.00077393889
0.00066693093
0.00057260764
0.00048975741
0.00041725187
0.00035404142
0.00029915166
0.00025168045
0.00021079543
0.0001757317
0.00014578959
0.00012033227
9.8783256e-05
8.0623566e-05
6.5388732e-05
5.2665601e-05
4.2088798e-05
3.3337584e-05
2.6131216e-05
2.022817e-05
1.5415113e-05
1.1523265e-05
8.3757951e-06
5.904716e-06
3.8754579e-06
2.4885966e-06
1.1427175e-06
1.2403464e-06
1.2319008e-06
0.0063932625
0.0063056991
0.0061071318
0.0058173583
0.0054670674
0.0050813338
0.0046785327
0.0042741397
0.0038797675
0.0035028854
0.0031479486
0.0028174258
0.0025123386
0.0022326562
0.0019776598
0.0017462198
0.0015369805
0.0013484799
0.0011792278
0.0010277539
0.00089263567
0.00077251204
0.00066609004
0.00057214682
0.00048952949
0.00041715415
0.00035400469
0.00029913156
0.00025165077
0.00021074285
0.00017565172
0.00014568341
0.00012020448
9.8640117e-05
8.0471816e-05
6.52348e-05
5.2515119e-05
4.1946365e-05
3.3206677e-05
2.601423e-05
2.0126554e-05
1.5329498e-05
1.1453619e-05
8.3218812e-06
5.865035e-06
3.8507717e-06
2.4723705e-06
1.140257e-06
1.1679303e-06
1.0227721e-06
0.0051782746
0.0052165054
0.0051549131
0.0050003759
0.0047826011
0.0045198549
0.004224656
0.00391078
0.0035909546
0.0032745521
0.0029680632
0.0026759892
0.0024012349
0.0021453953
0.0019091004
0.0016923164
0.0014945636
0.0013150712
0.0011528906
0.0010069737
0.0008762269
0.00075954513
0.00065583521
0.00056403037
0.00048310002
0.00041205627
0.00034995849
0.00029591663
0.00024909352
0.0002087066
0.00017402885
0.00014438916
0.00011917203
9.7816698e-05
7.9815706e-05
6.4712913e-05
5.2101132e-05
4.1619273e-05
3.294965e-05
2.5813775e-05
1.9971759e-05
1.5211753e-05
1.136557e-05
8.2587754e-06
5.8203995e-06
3.8252156e-06
2.4532653e-06
1.1390219e-06
1.0928399e-06
8.3881629e-07
0.0040130472
0.0041194373
0.0041429437
0.0040845761
0.0039683684
0.0038076438
0.003609714
0.0033851586
0.0031453463
0.0028992366
0.0026535264
0.0024133835
0.0021826259
0.0019638325
0.0017585926
0.0015677607
0.001391649
0.0012301751
0.0010829781
0.00094950735
0.00082908667
0.00072096106
0.0006243299
0.00053837122
0.00046225933
0.00039517807
0.00033633086
0.00028494846
0.00024029509
0.00020167315
0.00016842675
0.00013994418
0.00011565948
9.5053034e-05
7.7651492e-05
6.302688e-05
5.0795194e-05
4.0614379e-05
3.2182274e-05
2.5233134e-05
1.9537199e-05
1.4891398e-05
1.1133209e-05
8.0961153e-06
5.7078155e-06
3.7582215e-06
2.4050432e-06
1.1283099e-06
9.9761741e-07
6.6428003e-07
0.0030113058
0.0031619154
0.0032448917
0.0032605941
0.0032240343
0.0031449436
0.0030277497
0.0028799542
0.0027109019
0.0025285866
0.0023393647
0.0021485078
0.0019602655
0.0017778318
0.0016034804
0.0014387538
0.0012846179
0.0011415857
0.0010098246
0.00088924453
0.00077956629
0.00068037394
0.00059115533
0.00051133308
0.00044028861
0.00037738092
0.00032196142
0.0002733858
0.00023102367
0.0001942661
0.00016253172
0.00013527124
0.00011197089
9.2154502e-05
7.5384799e-05
6.1263643e-05
4.9431615e-05
3.9566854e-05
3.1383683e-05
2.4629888e-05
1.9086446e-05
1.4559629e-05
1.0892812e-05
7.9280967e-06
5.5911157e-06
3.6892921e-06
2.3530063e-06
1.1189992e-06
8.9447016e-07
5.0077934e-07
0.0021694823
0.002342608
0.0024620825
0.0025292649
0.0025511304
0.0025341598
0.0024812252
0.002397201
0.0022890119
0.0021632355
0.0020254745
0.0018806453
0.0017329838
0.0015859269
0.0014421393
0.0013036265
0.0011718397
0.0010477687
0.00093202764
0.00082493306
0.00072656867
0.0006368381
0.00055550767
0.00048224114
0.00041662764
0.00035820441
0.00030647536
0.00026092628
0.0002210374
0.00018629363
0.00015619288
0.00013025269
0.00010801529
8.9051404e-05
7.2962725e-05
5.9383446e-05
4.7980833e-05
3.8454964e-05
3.0538092e-05
2.3992711e-05
1.8611486e-05
1.4210803e-05
1.064051e-05
7.7518895e-06
5.4685477e-06
3.616587e-06
2.2967922e-06
1.109347e-06
7.9082389e-07
3.6124631e-07
0.001492499
0.0016659996
0.0018007701
0.0018978134
0.0019580971
0.0019849212
0.0019799781
0.0019460993
0.0018878424
0.0018101164
0.0017174817
0.0016141704
0.0015040429
0.0013904407
0.0012761321
0.0011633484
0.0010538394
0.00094892784
0.00084956875
0.00075640938
0.00066984349
0.00059005882
0.00051707768
0.00045079168
0.00039099089
0.00033738852
0.00028964159
0.00024736845
0.00021016353
0.00017760961
0.00014928813
0.00012478755
0.00010371003
8.5676661e-05
7.0331289e-05
5.7343198e-05
4.6408715e-05
3.7251885e-05
2.9624587e-05
2.330543e-05
1.8099934e-05
1.3835515e-05
1.0369277e-05
7.5622192e-06
5.3364048e-06
3.5371451e-06
2.2349887e-06
1.0974779e-06
6.909167e-07
2.5245282e-07
0.0009740005
0.001130215
0.0012624824
0.0013704508
0.0014512487
0.0015053573
0.0015332253
0.001536079
0.0015164457
0.0014775486
0.0014227451
0.0013553762
0.001278676
0.001195622
0.0011088343
0.001020549
0.00093262666
0.00084657078
0.00076355767
0.00068447375
0.00060995474
0.00054042299
0.00047612197
0.00041714743
0.00036347503
0.00031498466
0.0002714816
0.00023271497
0.00019839362
0.00016819985
0.00014180103
0.00011885933
9.9039787e-05
8.2016782e-05
6.7479059e-05
5.5133489e-05
4.4707698e-05
3.5951648e-05
2.8638526e-05
2.2564466e-05
1.7549042e-05
1.3431627e-05
1.0077459e-05
7.3576963e-06
5.1936774e-06
3.4498228e-06
2.1673622e-06
1.0820501e-06
5.9820395e-07
1.7672019e-07
0.0005971722
0.00072532818
0.00084227812
0.00094631377
0.0010326863
0.0010998403
0.0011470056
0.0011741159
0.0011820856
0.0011726208
0.0011478592
0.0011101624
0.001061992
0.001005775
0.00094378591
0.00087807756
0.00081045017
0.00074243954
0.00067531938
0.00061011546
0.00054762678
0.00048844983
0.00043300382
0.00038155535
0.00033424198
0.00029109399
0.00025205424
0.0002169961
0.00018573945
0.00015806481
0.00013372565
0.00011245907
9.3994712e-05
7.8062299e-05
6.4397614e-05
5.2747233e-05
4.2872064e-05
3.4549795e-05
2.7576527e-05
2.1767303e-05
1.6956959e-05
1.2997762e-05
9.7640309e-06
7.1374529e-06
5.0397772e-06
3.3538283e-06
2.0940565e-06
1.0618558e-06
5.1528644e-07
1.3212707e-07
0.0003403159
0.0004358913
0.00052992741
0.00061987723
0.00070056885
0.00076932204
0.00082442377
0.00086482785
0.0008902564
0.00090117957
0.00089862492
0.00088399634
0.00085894462
0.00082524789
0.0007847012
0.00073903134
0.00068983796
0.00063855751
0.00058644374
0.0005345613
0.00048378911
0.00043483037
0.00038822656
0.00034437381
0.00030354025
0.0002658834
0.00023146705
0.00020027732
0.00017223749
0.00014722166
0.00012506697
0.0001055845
8.8568723e-05
7.3805551e-05
6.1079109e-05
5.0177194e-05
4.0895574e-05
3.3041202e-05
2.6434542e-05
2.091084e-05
1.6321366e-05
1.2532204e-05
9.4277453e-06
6.9005292e-06
4.8741056e-06
3.2485002e-06
2.0153719e-06
1.0359542e-06
4.4358769e-07
1.1295642e-07
0.00018070524
0.00024371458
0.00031170506
0.0003818568
0.00044944141
0.00051142629
0.00056558533
0.00061025104
0.00064435249
0.00066745386
0.00067967639
0.00068157743
0.00067404392
0.00065819493
0.00063528648
0.00060662856
0.00057351861
0.00053718989
0.0004987757
0.0004592874
0.00041960273
0.00038046241
0.00034247271
0.00030611253
0.00027174337
0.00023962099
0.00020990804
0.00018268693
0.00015797246
0.00013572405
0.00011585705
9.8253209e-05
8.2770026e-05
6.9249017e-05
5.7522799e-05
4.7421047e-05
3.8775354e-05
3.1423049e-05
2.5210108e-05
1.9993087e-05
1.5640751e-05
1.2033858e-05
9.0678564e-06
6.6464248e-06
4.6964526e-06
3.1336533e-06
1.9319055e-06
1.0039831e-06
3.8346121e-07
1.1111457e-07
9.686276e-05
0.00013020752
0.0001723433
0.00022059378
0.00027107554
0.00032092813
0.0003678358
0.00040987082
0.00044553171
0.00047380684
0.0004941641
0.00050649016
0.00051102118
0.00050827374
0.00049897316
0.00048398247
0.00046423957
0.0004407038
0.00041431223
0.0003859469
0.00035641251
0.00032642213
0.0002965898
0.00026742854
0.00023935264
0.00021268308
0.00018765492
0.00016442618
0.00014308739
0.00012367148
0.00010616346
9.0509822e-05
7.6627194e-05
6.441031e-05
5.3739046e-05
4.4484544e-05
3.6514363e-05
2.9696707e-05
2.3903782e-05
1.9014248e-05
1.4915217e-05
1.1502855e-05
8.6845655e-06
6.3754276e-06
4.507229e-06
3.0097445e-06
1.8445753e-06
9.6626008e-07
3.344503e-07
1.1808262e-07
6.989141e-05
7.8002693e-05
9.6623635e-05
0.0001234557
0.00015556385
0.00019054315
0.00022629949
0.0002609454
0.00029285197
0.00032072691
0.00034364276
0.00036102201
0.00037260553
0.00037841399
0.00037870214
0.00037390768
0.00036459953
0.00035143015
0.00033509315
0.00031628713
0.00029568698
0.00027392257
0.00025156373
0.00022911084
0.00020699018
0.00018555301
0.00016507774
0.00014577421
0.00012778968
0.00011121565
9.6095421e-05
8.2431694e-05
7.0194097e-05
5.9326322e-05
4.9752718e-05
4.1384212e-05
3.4123479e-05
2.7869324e-05
2.2520305e-05
1.7977556e-05
1.4147074e-05
1.0940954e-05
8.2792952e-06
6.0887891e-06
4.3075748e-06
2.8779228e-06
1.7545898e-06
9.2375236e-07
2.9559361e-07
1.2676233e-07
8.4008158e-05
7.1838665e-05
7.0434801e-05
7.7958426e-05
9.2359714e-05
0.0001117898
0.00013454725
0.00015898736
0.00018357748
0.00020698047
0.0002281018
0.00024610349
0.00026040199
0.00027065665
0.00027674866
0.00027875127
0.00027689463
0.00027152888
0.00026308849
0.0002520592
0.00023894865
0.00022426192
0.00020848218
0.00019205618
0.00017538413
0.00015881354
0.00014263641
0.00012708907
0.0001123543
9.8564943e-05
8.5808739e-05
7.41338e-05
6.3554484e-05
5.4057302e-05
4.5606659e-05
3.815022e-05
3.1623787e-05
2.5955583e-05
2.1069926e-05
1.6890233e-05
1.3341497e-05
1.0351973e-05
7.8549517e-06
5.7888534e-06
4.0994006e-06
2.73997e-06
1.663347e-06
8.778825e-07
2.6561393e-07
1.3260799e-07
0.00012653149
9.8895657e-05
8.1362292e-05
7.2536492e-05
7.1111062e-05
7.5777553e-05
8.5279861e-05
9.8317504e-05
0.000113592
0.00012988576
0.00014611439
0.00016135428
0.0001748588
0.00018606637
0.00019459936
0.00020025341
0.00020297925
0.00020285958
0.00020008348
0.00019492026
0.0001876941
0.00017876073
0.00016848706
0.00015723431
0.00014534465
0.00013313128
0.00012087159
0.00010880327
9.7122733e-05
8.5985516e-05
7.5508282e-05
6.5771908e-05
5.6825387e-05
4.8690175e-05
4.1364734e-05
3.4829025e-05
2.9048794e-05
2.3979493e-05
1.9569781e-05
1.576451e-05
1.2507258e-05
9.7422789e-06
7.4162202e-06
5.4791987e-06
3.8854292e-06
2.5982262e-06
1.5723593e-06
8.3030388e-07
2.4303235e-07
1.3378615e-07
0.0001875804
0.00014878229
0.00011892452
9.698819e-05
8.224081e-05
7.3837367e-05
7.0940751e-05
7.2615302e-05
7.7857669e-05
8.5664065e-05
9.5078327e-05
0.00010522233
0.00011531978
0.00012471545
0.00013288724
0.00013945003
0.00014415179
0.00014686384
0.00014756657
0.00014633232
0.00014330663
0.00013868929
0.00013271622
0.0001256429
0.00011773016
0.00010923233
0.00010038799
9.1413145e-05
8.2496781e-05
7.3798398e-05
6.5447321e-05
5.7543398e-05
5.0158812e-05
4.334066e-05
3.7114061e-05
3.1485521e-05
2.644636e-05
2.1976035e-05
1.804524e-05
1.461868e-05
1.16575e-05
9.1213175e-06
6.9699015e-06
5.1648044e-06
3.6692475e-06
2.4555094e-06
1.4831959e-06
7.8267293e-07
2.2623272e-07
1.3050689e-07
0.00025964858
0.0002133193
0.00017456496
0.00014266083
0.00011728789
9.7964777e-05
8.4205497e-05
7.5407024e-05
7.0864237e-05
6.9822525e-05
7.1516695e-05
7.5197314e-05
8.0154495e-05
8.574059e-05
9.1388779e-05
9.6625593e-05
0.00010107728
0.00010447062
0.00010662894
0.00010746412
0.00010696567
0.00010518784
0.00010223588
9.8252233e-05
9.3403524e-05
8.7868832e-05
8.1829545e-05
7.5461085e-05
6.8926469e-05
6.2371732e-05
5.5922999e-05
4.9685044e-05
4.37411e-05
3.815365e-05
3.2965992e-05
2.8204306e-05
2.3880045e-05
1.999245e-05
1.6531054e-05
1.3478057e-05
1.0810496e-05
8.5021837e-06
6.5253048e-06
4.8522872e-06
3.4554296e-06
2.3151189e-06
1.3975197e-06
7.3653338e-07
2.1360726e-07
1.2401757e-07
0.00033715907
0.00028622999
0.00024149658
0.00020245226
0.00016905371
0.00014108454
0.00011832802
0.00010045478
8.7024756e-05
7.7525711e-05
7.1401616e-05
6.8071821e-05
6.6950338e-05
6.7466719e-05
6.908559e-05
7.1322672e-05
7.3756665e-05
7.6036998e-05
7.7887479e-05
7.9106077e-05
7.9561292e-05
7.9185758e-05
7.7967886e-05
7.5942253e-05
7.317949e-05
6.9776264e-05
6.5845906e-05
6.1509982e-05
5.6891135e-05
5.2107253e-05
4.7267049e-05
4.2466957e-05
3.7789258e-05
3.3301249e-05
2.9055306e-05
2.5089633e-05
2.1429507e-05
1.8088864e-05
1.5072054e-05
1.2375659e-05
9.9902581e-06
7.902118e-06
6.0946254e-06
4.5501597e-06
3.2497009e-06
2.1809027e-06
1.3171887e-06
6.9329911e-07
2.0377159e-07
1.1574683e-07
0.00041605825
0.00036280981
0.00031447293
0.00027069728
0.00023160738
0.00019716647
0.00016734855
0.00014203119
0.00012098886
0.00010391971
9.0464385e-05
8.0217664e-05
7.2741552e-05
6.7581473e-05
6.4283186e-05
6.2408299e-05
6.1547686e-05
6.1332445e-05
6.144208e-05
6.160963e-05
6.1623784e-05
6.1328192e-05
6.0618379e-05
5.9436779e-05
5.7766406e-05
5.5623717e-05
5.3051188e-05
5.0110033e-05
4.6873419e-05
4.3420452e-05
3.9831074e-05
3.6181984e-05
3.2543571e-05
2.8977813e-05
2.5537055e-05
2.2263533e-05
1.9189511e-05
1.6337885e-05
1.3723113e-05
1.1352371e-05
9.2267904e-06
7.3427814e-06
5.6931989e-06
4.2690409e-06
3.0591051e-06
2.0573802e-06
1.2444098e-06
6.5433821e-07
1.958035e-07
1.068565e-07
0.00049347044
0.00043961555
0.00038953665
0.00034299348
0.00030019961
0.00026123067
0.00022618458
0.0001950835
0.00016786217
0.00014438598
0.00012446237
0.00010784605
9.4246116e-05
8.3336755e-05
7.4769844e-05
6.8187581e-05
6.3234609e-05
5.9569205e-05
5.6873069e-05
5.4859227e-05
5.3277761e-05
5.191926e-05
5.0616064e-05
4.9241512e-05
4.7707477e-05
4.5960562e-05
4.3977368e-05
4.1759217e-05
3.9326713e-05
3.6714442e-05
3.3966076e-05
3.1130042e-05
2.8255893e-05
2.5391418e-05
2.2580493e-05
1.9861627e-05
1.7267128e-05
1.4822796e-05
1.2548039e-05
1.045631e-05
8.5557687e-06
6.8501288e-06
5.3394834e-06
4.0216969e-06
2.8920745e-06
1.9498322e-06
1.1818644e-06
6.210826e-07
1.8937335e-07
9.8146478e-08
0.00056741652
0.00051419345
0.00046377739
0.0004160056
0.00037112681
0.0003292796
0.00029063389
0.00025530413
0.00022333566
0.00019471684
0.00016938513
0.00014722783
0.00012808436
0.00011175199
9.7993896e-05
8.6547947e-05
7.713605e-05
6.947359e-05
6.3278663e-05
5.8280498e-05
5.4226709e-05
5.0889058e-05
4.806758e-05
4.5593023e-05
4.3327657e-05
4.1164619e-05
3.9026021e-05
3.6860097e-05
3.4637695e-05
3.2348396e-05
2.9996532e-05
2.7597327e-05
2.5173336e-05
2.2751324e-05
2.0359642e-05
1.8026155e-05
1.5776687e-05
1.3633982e-05
1.1617093e-05
9.7411511e-06
8.0174336e-06
6.4537028e-06
5.0546307e-06
3.8228024e-06
2.7583206e-06
1.8642914e-06
1.1327535e-06
5.9511377e-07
1.847171e-07
9.0125423e-08
0.00063659046
0.000584852
0.00053511529
0.00048727322
0.00044157527
0.00039818894
0.00035731844
0.00031913014
0.00028373901
0.00025121665
0.00022159428
0.00019486052
0.00017096044
0.00014979752
0.00013123769
0.00011511448
0.00010123504
8.9387036e-05
7.9345911e-05
7.0882334e-05
6.3769263e-05
5.7788341e-05
5.2735381e-05
4.8424698e-05
4.4692199e-05
4.1397198e-05
3.8423016e-05
3.5676497e-05
3.3086605e-05
3.0602323e-05
2.8190076e-05
2.5830882e-05
2.351743e-05
2.1251259e-05
1.9040151e-05
1.6895842e-05
1.4832105e-05
1.2863218e-05
1.1002818e-05
9.2631239e-06
7.6544741e-06
6.1851743e-06
4.8615074e-06
3.6883147e-06
2.6684573e-06
1.8073579e-06
1.1007052e-06
5.7817144e-07
1.8246847e-07
8.3097652e-08
0.00070018439
0.00065047666
0.00060211532
0.00055503467
0.00050946477
0.00046558003
0.00042359343
0.00038369426
0.00034603572
0.00031074042
0.00027790148
0.00024757901
0.00021979722
0.00019454385
0.00017177128
0.00015139863
0.00013331491
0.00011738303
0.00010344479
9.1326431e-05
8.0844413e-05
7.1811233e-05
6.4040943e-05
5.7354132e-05
5.1582172e-05
4.6570581e-05
4.2181424e-05
3.829475e-05
3.4809101e-05
3.1641205e-05
2.872498e-05
2.601001e-05
2.3459662e-05
2.1048991e-05
1.8762596e-05
1.6592531e-05
1.453638e-05
1.2595561e-05
1.0773889e-05
9.0764399e-06
7.5086891e-06
6.0759557e-06
4.7830315e-06
3.6343548e-06
2.6332837e-06
1.7857823e-06
1.0895232e-06
5.7206586e-07
1.8343913e-07
7.7224151e-08
0.00075775071
0.00071037994
0.00066383133
0.0006180717
0.00057330134
0.00052968849
0.00048743889
0.00044674535
0.00040777689
0.00037068276
0.00033559255
0.0003026123
0.00027182081
0.00024326762
0.00021697227
0.0001929242
0.00017108359
0.00015138307
0.00013373039
0.00011801183
0.00010409632
9.1839832e-05
8.1090087e-05
7.1691191e-05
6.3488031e-05
5.6330235e-05
5.0075562e-05
4.4592583e-05
3.9762639e-05
3.5481025e-05
3.1657487e-05
2.8216067e-05
2.5094434e-05
2.2242794e-05
1.962252e-05
1.7204622e-05
1.4968153e-05
1.2898669e-05
1.0986788e-05
9.2269233e-06
7.6162165e-06
6.1537086e-06
4.8396826e-06
3.6754929e-06
2.6626501e-06
1.8057678e-06
1.1027589e-06
5.7848599e-07
1.8841423e-07
7.2566898e-08
0.00080909494
0.00076418195
0.00071967815
0.00067557752
0.00063204658
0.00058924049
0.00054734886
0.00050655598
0.00046703193
0.00042893548
0.00039241377
0.00035759868
0.00032460307
0.00029351814
0.00026441164
0.0002373265
0.00021228007
0.0001892641
0.00016824551
0.00014916793
0.00013195402
0.00011650827
0.0001027204
9.0469e-05
7.9625375e-05
7.0057293e-05
6.1632602e-05
5.4222446e-05
4.7704046e-05
4.1962926e-05
3.6894555e-05
3.2405391e-05
2.8413383e-05
2.4847959e-05
2.1649605e-05
1.8769113e-05
1.6166596e-05
1.3810378e-05
1.1675818e-05
9.7441684e-06
8.0015094e-06
6.4378296e-06
5.0462129e-06
3.8224334e-06
2.7638949e-06
1.871978e-06
1.1431096e-06
5.9870937e-07
1.9798732e-07
6.9123249e-08
0.00085418443
0.00081170772
0.00076931946
0.00072703769
0.00068499507
0.00064333091
0.00060221466
0.00056181567
0.00052229618
0.00048381333
0.00044651882
0.00041055576
0.00037605524
0.00034313367
0.00031189054
0.0002824064
0.00025474123
0.00022893326
0.00020499839
0.00018293033
0.00016270127
0.00014426326
0.00012755014
0.00011247996
9.8957824e-05
8.6878928e-05
7.6131786e-05
6.6601369e-05
5.8172121e-05
5.0730668e-05
4.4168182e-05
3.8382282e-05
3.3278485e-05
2.8771176e-05
2.4784131e-05
2.1250634e-05
1.811326e-05
1.5323385e-05
1.28405e-05
1.0631415e-05
8.6694089e-06
6.933408e-06
5.4071795e-06
4.0788238e-06
2.9396647e-06
1.9861327e-06
1.2115806e-06
6.331836e-07
2.123994e-07
6.6843956e-08
0.00089308675
0.00085291612
0.00081258824
0.0007721437
0.00073168328
0.00069133026
0.00065123317
0.00061154388
0.00057241219
0.00053398727
0.00049641721
0.00045984656
0.00042441341
0.00039024701
0.00035746545
0.00032617352
0.00029646061
0.00026839895
0.00024204226
0.00021742474
0.00019456074
0.00017344478
0.00015405228
0.00013634073
0.00012025138
0.00010571137
9.2636132e-05
8.0932061e-05
7.0499269e-05
6.1234306e-05
5.3032779e-05
4.5791721e-05
3.9411669e-05
3.3798381e-05
2.8864172e-05
2.4528855e-05
2.0720306e-05
1.73747e-05
1.4436447e-05
1.1857913e-05
9.5989522e-06
7.6263648e-06
5.9132527e-06
4.4385695e-06
3.1860483e-06
2.1457985e-06
1.3067708e-06
6.8118136e-07
2.3144287e-07
6.564442e-08
0.00092587978
0.00088779947
0.00084937657
0.0008106735
0.00077176225
0.00073275148
0.00069377015
0.00065495269
0.00061643496
0.00057835517
0.00054085346
0.00050407
0.00046814265
0.00043320501
0.00039938418
0.00036679882
0.00033555691
0.0003057538
0.00027747035
0.00025077147
0.00022570485
0.00020230024
0.00018056907
0.00016050461
0.00014208263
0.00012526247
0.0001099886
9.6192556e-05