/*--------------------------------*- C++ -*----------------------------------*\
  =========                 |
  \\      /  F ield         | OpenFOAM: The Open Source CFD Toolbox
   \\    /   O peration     | Website:  https://openfoam.org
    \\  /    A nd           | Version:  6
     \\/     M anipulation  |
\*---------------------------------------------------------------------------*/
FoamFile
{
    version     2.0;
    format      ascii;
    class       volVectorField;
    location    "168";
    object      UMean;
}
// * * * * * * * * * * * * * * * * * * * * * * * * * * * * * * * * * * * * * //

dimensions      [0 1 -1 0 0 0 0];

internalField   nonuniform List<vector> 
9200
(
(0.0018602311 0.00079198907 -6.1368044e-20)
(0.016405125 -0.0040372197 4.890014e-20)
(0.04312353 -0.0090024077 -4.0215635e-20)
(0.079289513 -0.013900157 -6.3881776e-20)
(0.12299541 -0.018521127 1.9806549e-20)
(0.17296996 -0.022432962 3.4725141e-20)
(0.22810301 -0.025350682 -1.2982082e-20)
(0.28736879 -0.027134798 9.8238706e-21)
(0.34980896 -0.027732493 1.8153307e-20)
(0.41450131 -0.027154152 1.6045982e-21)
(0.48053679 -0.025462097 -2.3257454e-20)
(0.54701134 -0.022759534 2.2337933e-20)
(0.61302964 -0.01917954 -4.357425e-20)
(0.67771865 -0.014873885 -2.2927687e-20)
(0.74024897 -0.010001218 6.407151e-21)
(0.79986142 -0.0047173616 -2.7352554e-20)
(0.85591174 0.00084753598 2.7495108e-20)
(0.90799166 0.0067344465 2.4427771e-20)
(0.95574819 0.013071279 -2.5080396e-22)
(0.99655914 0.016552544 -1.5745212e-21)
(0.006313366 -0.0020530496 -1.7678616e-20)
(0.030332418 -0.011127493 4.1974165e-20)
(0.067446251 -0.018123548 2.4350434e-20)
(0.11451876 -0.023467879 -1.2180083e-19)
(0.16933741 -0.027360874 -1.3316986e-20)
(0.23037076 -0.029606238 7.7704313e-20)
(0.29624008 -0.030123291 -3.7603267e-20)
(0.36563982 -0.028962097 -8.9751362e-21)
(0.43732735 -0.026242652 3.6735537e-20)
(0.51010055 -0.02213566 -4.6473155e-20)
(0.58278766 -0.016854712 -3.2817418e-20)
(0.65425531 -0.010645782 7.7939834e-20)
(0.72342951 -0.0037753179 4.1384897e-20)
(0.78932488 0.0034814953 -7.3617191e-20)
(0.85107783 0.010850726 1.5837003e-20)
(0.90797801 0.018064367 -3.9787675e-20)
(0.95950685 0.024874044 -1.5108419e-20)
(1.0054335 0.031123276 7.67849e-20)
(1.0456832 0.036409986 3.3031843e-20)
(1.0785446 0.037658353 -8.5651099e-20)
(0.012178627 -0.0047973135 3.7682183e-20)
(0.04799373 -0.017641738 2.2811758e-21)
(0.097273373 -0.02591138 2.279326e-20)
(0.15652631 -0.030784457 1.0276232e-21)
(0.22324616 -0.032955999 -4.21944e-20)
(0.29561748 -0.032530134 1.9828086e-20)
(0.37196023 -0.02969091 1.3903419e-20)
(0.45065944 -0.024735563 -5.3410796e-20)
(0.53017187 -0.018009517 6.1107859e-20)
(0.60902325 -0.0098888487 1.5601178e-20)
(0.68581979 -0.00077264907 -5.8576035e-20)
(0.75927737 0.0089306743 -1.9821858e-20)
(0.82825958 0.018819908 9.3979663e-21)
(0.89181673 0.028517169 2.5266579e-20)
(0.94921911 0.037681579 -1.2208759e-20)
(0.99997776 0.046017869 2.9951598e-20)
(1.0438545 0.053289928 -2.1798239e-20)
(1.080889 0.059367422 -7.4827374e-20)
(1.1112741 0.06399104 -2.4506105e-20)
(1.1342196 0.065309115 5.1188692e-20)
(0.019548343 -0.0071903307 2.4951371e-20)
(0.069495939 -0.022881934 5.2706746e-20)
(0.13257387 -0.031324914 2.0668894e-20)
(0.20501269 -0.034571835 1.3907952e-20)
(0.284032 -0.033898626 1.8373574e-20)
(0.36751778 -0.029778904 -5.0344451e-20)
(0.45347531 -0.022724993 -2.7209573e-20)
(0.53998409 -0.013337551 0)
(0.62523348 -0.002232119 1.5847553e-20)
(0.70754891 0.0099808524 -6.8813753e-21)
(0.78542925 0.022707266 -1.0474527e-19)
(0.85759464 0.035388865 -1.6665346e-20)
(0.92303241 0.047524934 6.9885342e-20)
(0.98103131 0.058691148 4.7518044e-22)
(1.0311976 0.06855304 -1.678731e-21)
(1.0734486 0.076872111 2.3373612e-20)
(1.1079863 0.083511725 -5.427769e-21)
(1.1352702 0.088465012 -6.4873366e-20)
(1.1558978 0.091713938 -4.8712539e-20)
(1.1698825 0.092314748 7.1983327e-20)
(0.028444385 -0.008948963 -3.8203966e-21)
(0.094723998 -0.02609666 -4.7346979e-21)
(0.17293505 -0.033291967 5.8406948e-20)
(0.25913965 -0.033572126 1.960996e-20)
(0.3503254 -0.02887524 -3.3914843e-20)
(0.44409215 -0.020113164 1.2473034e-20)
(0.53815783 -0.0081850568 2.7969953e-21)
(0.63035659 0.0059619588 3.6029177e-20)
(0.71871226 0.021420198 6.0388657e-21)
(0.80149631 0.037347846 -1.4405212e-20)
(0.87728557 0.052985619 6.4762695e-20)
(0.94501486 0.067680694 -6.1625055e-20)
(1.004011 0.080908804 -1.4073111e-19)
(1.0540003 0.092288082 -5.926824e-21)
(1.0950864 0.10158256 8.8031391e-20)
(1.1277015 0.10869478 0)
(1.1525376 0.11365409 1.0850344e-20)
(1.1704752 0.11661916 -1.6171968e-20)
(1.182468 0.11777564 -9.2285937e-21)
(1.189097 0.11673254 2.1733339e-20)
(0.038798291 -0.009768107 -5.0620295e-21)
(0.12331123 -0.026524468 4.4697884e-21)
(0.21755515 -0.030794443 -9.0364039e-21)
(0.31757255 -0.026679885 2.9170084e-20)
(0.42019704 -0.016845009 -3.0954914e-20)
(0.52280029 -0.0026963537 -1.7810746e-20)
(0.62289969 0.014441572 3.8375081e-20)
(0.71821377 0.033262836 4.7700733e-21)
(0.8067744 0.052585885 -2.6561294e-20)
(0.8870082 0.071387266 7.4130201e-20)
(0.95779718 0.088820327 2.2444369e-22)
(1.0185124 0.10423587 -8.5450061e-20)
(1.0690111 0.11719363 0)
(1.1095951 0.12745875 4.1635246e-20)
(1.1409373 0.13498346 5.7505477e-21)
(1.1639854 0.13987667 -8.1248694e-20)
(1.1798566 0.14236941 -2.0543096e-20)
(1.189741 0.14279247 -1.2959043e-20)
(1.194797 0.14148812 -1.5368746e-20)
(1.1958811 0.13839466 4.2083231e-20)
(0.050438479 -0.0093417566 -1.7314055e-20)
(0.15462403 -0.023453083 -3.3333996e-21)
(0.26525398 -0.022958249 3.074997e-20)
(0.37854128 -0.013052948 3.770036e-20)
(0.49128998 0.002843236 -2.0625415e-20)
(0.60075989 0.022802427 -7.2666927e-20)
(0.70442189 0.045075102 -2.9845259e-20)
(0.80007579 0.068032565 8.3185393e-20)
(0.88598999 0.09029101 9.4353302e-21)
(0.96098605 0.11074702 -2.6075508e-20)
(1.0244755 0.12858778 1.4164513e-20)
(1.0764475 0.14329427 -4.5938262e-21)
(1.1174073 0.15462717 0)
(1.1482746 0.16259282 2.8549642e-20)
(1.1702573 0.16739433 -8.3002731e-20)
(1.1847202 0.16937458 -3.291268e-20)
(1.1930621 0.16896114 8.4428131e-20)
(1.1966196 0.16662706 -4.7813962e-21)
(1.1965876 0.16281307 3.6115794e-21)
(1.193872 0.15764149 2.8367916e-20)
(0.063084468 -0.0073908807 -3.2595358e-20)
(0.18776846 -0.016291213 -8.3786649e-20)
(0.31451873 -0.009150592 1.5396948e-21)
(0.43994445 0.0077848115 7.2965376e-20)
(0.56099378 0.030364815 6.4922004e-20)
(0.67499211 0.056161916 -7.3888825e-20)
(0.77957902 0.083057195 3.0681321e-22)
(0.87288008 0.10919435 9.02986e-20)
(0.95365039 0.13311415 5.1263847e-20)
(1.0213332 0.15377832 -5.7094448e-20)
(1.0760446 0.17055425 -9.6935515e-20)
(1.1184938 0.1831832 -3.3101541e-21)
(1.1498535 0.19172616 4.4060965e-20)
(1.1716022 0.19649102 -6.8197545e-21)
(1.1853625 0.19795156 -1.3232279e-20)
(1.1927567 0.19666877 2.018624e-20)
(1.195294 0.19322493 4.5530334e-20)
(1.194298 0.1881802 -4.527577e-20)
(1.1908669 0.18201183 -1.059673e-19)
(1.185815 0.17493262 2.568996e-20)
(0.076317413 -0.0036940693 -3.587973e-20)
(0.22155193 -0.0046441433 -1.7579334e-19)
(0.36347994 0.010938184 8.5778561e-20)
(0.49935389 0.035883717 9.6309802e-20)
(0.62648632 0.0654025 5.9954746e-20)
(0.74249984 0.096650391 9.0107654e-21)
(0.84545831 0.12725846 -1.1066321e-19)
(0.93407011 0.15529701 0)
(1.0078043 0.17940319 -7.2321064e-20)
(1.0668944 0.19877293 -1.59875e-20)
(1.1122497 0.21310021 5.7134714e-20)
(1.1453014 0.22249437 1.13996e-20)
(1.1678125 0.22737764 -4.7405704e-20)
(1.1816838 0.22837379 -5.083487e-20)
(1.1887841 0.22620265 2.5327713e-20)
(1.1908207 0.22159219 4.6621894e-20)
(1.1892599 0.21521575 -5.7646867e-20)
(1.1852941 0.2076572 -1.110959e-19)
(1.1798474 0.19937645 -3.0647381e-21)
(1.1735766 0.19062122 2.7848471e-20)
(0.089563585 0.0018975789 -4.0192165e-21)
(0.25448829 0.01167298 9.0017988e-20)
(0.40994991 0.03729995 -1.4371328e-20)
(0.55410232 0.070894228 -8.8295747e-20)
(0.68487223 0.10719405 4.6970078e-20)
(0.80043789 0.14309582 5.0360711e-20)
(0.89954471 0.17616908 5.7822396e-21)
(0.98170889 0.20461776 -1.0360095e-19)
(1.0472755 0.227375 -2.6125933e-21)
(1.097346 0.24403983 5.2648219e-20)
(1.1336114 0.25475369 6.2195315e-21)
(1.1581333 0.26005874 -2.05735e-20)
(1.1731166 0.26074926 -7.8495177e-20)
(1.1807095 0.25773241 -6.3839242e-21)
(1.1828537 0.25191405 4.4951552e-20)
(1.1811945 0.24411796 3.8166029e-20)
(1.1770471 0.23503985 2.0257051e-20)
(1.1714087 0.22523088 -5.499418e-20)
(1.1650033 0.21509565 1.2886711e-20)
(1.1583182 0.20488829 8.4817885e-20)
(-0.0013337842 0.0014585353 -7.9641571e-22)
(-0.0047663387 0.0031930336 1.8431137e-21)
(-0.010801756 0.0040914487 1.9918002e-21)
(-0.017650464 0.0044295458 -8.6449495e-22)
(-0.024391527 0.004380419 -2.5128746e-21)
(-0.030596904 0.004061505 2.6439283e-21)
(-0.035992928 0.0035583312 -8.6313917e-21)
(-0.040405304 0.0029326043 -7.4414289e-21)
(-0.043740441 0.0022281386 1.329704e-20)
(-0.045958883 0.001475789 -1.1398132e-20)
(-0.047055025 0.00069703296 -2.0428719e-22)
(-0.047044288 -9.3434603e-05 4.2428466e-21)
(-0.045954614 -0.00088574116 -6.8604786e-22)
(-0.043820658 -0.0016732866 2.5691966e-20)
(-0.040680169 -0.0024513499 2.6726352e-22)
(-0.036573487 -0.003215609 -4.5560585e-20)
(-0.031545983 -0.0039615089 8.4839165e-21)
(-0.025639791 -0.0046870031 2.62483e-20)
(-0.018865958 -0.0053906239 -4.8069371e-20)
(-0.011288078 -0.0060229626 -3.0278272e-20)
(-0.0016924985 0.0042446379 -5.7549798e-21)
(-0.0053931889 0.0092690646 9.5137082e-21)
(-0.011174512 0.011855567 -1.0569239e-20)
(-0.017417945 0.01280553 6.0170616e-21)
(-0.023303003 0.012624099 7.0980789e-21)
(-0.028453472 0.01165584 9.5670985e-22)
(-0.032631885 0.010151819 -2.8494667e-20)
(-0.035690189 0.0082931088 -2.3737047e-21)
(-0.037552504 0.0062082692 2.376565e-20)
(-0.038190876 0.0039878187 -5.8700786e-21)
(-0.037606894 0.0016947308 -2.5058455e-20)
(-0.035820132 -0.00062795131 5.5744103e-21)
(-0.032860517 -0.0029513802 2.5299438e-20)
(-0.028763003 -0.0052563579 1.1561346e-20)
(-0.023563804 -0.0075292405 2.4568858e-20)
(-0.017300876 -0.0097577754 -2.1922542e-20)
(-0.010023815 -0.011929192 -2.381431e-20)
(-0.0017856113 -0.014036936 2.353443e-20)
(0.0074754214 -0.016066306 2.9153928e-20)
(0.017951697 -0.017847868 1.6902736e-20)
(-0.0023393509 0.0066417834 -4.6758399e-21)
(-0.0064791244 0.014432661 -4.6715986e-21)
(-0.011695709 0.018401303 7.6110035e-25)
(-0.016700769 0.019793588 -3.8179103e-22)
(-0.020866372 0.019401037 7.7377634e-21)
(-0.023916202 0.017770076 1.2146089e-20)
(-0.025683068 0.015299732 -4.5540506e-21)
(-0.026069957 0.012277948 -2.1921361e-20)
(-0.025035678 0.0089094775 7.6046143e-21)
(-0.022575209 0.0053387039 1.4812061e-20)
(-0.018705019 0.0016661765 6.8572751e-21)
(-0.013454021 -0.0020393794 2.0285375e-20)
(-0.0068576248 -0.0057320798 1.9402146e-21)
(0.0010465616 -0.0093818201 -3.7451508e-20)
(0.0102225 -0.012967583 1.6289418e-21)
(0.020634172 -0.016470902 -2.3815872e-20)
(0.032222592 -0.019874486 -2.728934e-20)
(0.044910292 -0.023169686 5.0543599e-20)
(0.058879821 -0.026303088 2.7997175e-20)
(0.074822599 -0.028907784 5.646181e-22)
(-0.0031501184 0.0084365505 -5.8448067e-21)
(-0.0077388149 0.018178079 -1.1846964e-20)
(-0.012005726 0.023050351 4.5108899e-21)
(-0.015114112 0.0246213 4.803223e-21)
(-0.016701647 0.023898482 2.1402922e-21)
(-0.016632028 0.021590742 8.9828515e-21)
(-0.014838003 0.018217408 1.1074642e-20)
(-0.011296188 0.014153504 -1.6683787e-21)
(-0.006016646 0.00966634 -1.3211878e-20)
(0.00097034698 0.0049448932 -3.3119688e-20)
(0.0096238279 0.00012099497 1.8614022e-22)
(0.019897188 -0.0047151699 4.5557899e-20)
(0.031742447 -0.0095038203 -2.012173e-20)
(0.045111804 -0.014206117 -1.3608762e-20)
(0.059961703 -0.018796091 2.4094145e-22)
(0.076251147 -0.023253009 3.5613005e-20)
(0.093905557 -0.027562434 -1.6843756e-20)
(0.11280467 -0.031723451 -5.7898234e-20)
(0.13325679 -0.035619586 4.9154429e-20)
(0.15666277 -0.038566593 3.5696378e-20)
(-0.0039588542 0.009484121 -4.0783754e-22)
(-0.0087826892 0.020149572 -1.3458787e-20)
(-0.01160262 0.025315827 -3.9365755e-20)
(-0.012109104 0.026728672 -7.3102251e-21)
(-0.010254665 0.025526689 -3.3062121e-21)
(-0.0060728512 0.022532249 7.4300317e-21)
(0.00037981414 0.018350171 -5.6422019e-21)
(0.0090333856 0.013417243 -1.0246538e-20)
(0.01981047 0.0080454974 2.4767518e-20)
(0.032631544 0.0024559744 5.5359038e-21)
(0.047418893 -0.003196638 -2.8725539e-20)
(0.064096414 -0.0088063435 1.2123829e-20)
(0.082589991 -0.014302902 0)
(0.10282795 -0.019641911 1.3300779e-20)
(0.12474409 -0.024795983 -1.0630621e-20)
(0.14827689 -0.029747235 -1.5840651e-20)
(0.17332278 -0.034494288 -8.9377193e-22)
(0.19969656 -0.039064736 -2.7064195e-21)
(0.22779114 -0.043277547 4.8708636e-20)
(0.25986207 -0.045991572 -1.2258915e-20)
(-0.0045763026 0.0097176468 -7.8684225e-21)
(-0.0091515738 0.020167353 2.7068284e-20)
(-0.009875401 0.024942881 -1.2177733e-20)
(-0.0069967754 0.025821548 -3.0610884e-20)
(-0.00080848282 0.023983357 -2.9885483e-20)
(0.0084667882 0.020311152 -1.6769843e-20)
(0.020631054 0.015456048 -9.5295846e-22)
(0.035504264 0.0098870731 6.2755858e-21)
(0.052926429 0.0039400396 2.1796635e-20)
(0.072753895 -0.0021462463 8.1638426e-21)
(0.094854098 -0.0082045435 -7.8686147e-21)
(0.11910281 -0.014120247 -1.9444708e-21)
(0.14538025 -0.019817978 -4.2037748e-20)
(0.17356841 -0.025251766 -1.3900459e-20)
(0.20355272 -0.030396741 2.0966896e-20)
(0.23522328 -0.035243229 -2.3220375e-20)
(0.2684243 -0.03981341 -9.7534985e-21)
(0.30288107 -0.044191887 3.2265384e-20)
(0.33899712 -0.048168851 5.3550717e-20)
(0.37992932 -0.050037048 3.696084e-21)
(-0.0048061424 0.0091444815 1.7451768e-20)
(-0.0083500978 0.018229376 1.5101997e-20)
(-0.006140144 0.021923349 5.5342645e-20)
(0.001019681 0.021900889 2.5927857e-20)
(0.0124909 0.019296818 2.0520046e-22)
(0.027851591 0.015000876 -4.3913478e-20)
(0.046749969 0.0096698808 -2.6786298e-20)
(0.068882819 0.0037748765 1.1565623e-20)
(0.093989023 -0.0023475392 1.5876931e-20)
(0.12183918 -0.0084581659 -1.4240361e-20)
(0.152224 -0.014390009 -4.8560639e-20)
(0.18494516 -0.020029919 3.2613776e-20)
(0.2198076 -0.025305391 2.1669937e-20)
(0.2566139 -0.03017557 -3.0080158e-20)
(0.29516407 -0.034624448 1.2836167e-20)
(0.33525949 -0.038657547 2.6190808e-20)
(0.37665705 -0.042330612 8.8766072e-21)
(0.41896678 -0.045815979 -1.3185224e-20)
(0.46251514 -0.048952953 -1.4617052e-20)
(0.51128494 -0.049451453 7.8319921e-21)
(-0.004456045 0.0078336392 1.178907e-20)
(-0.0058740021 0.014493219 -2.577726e-20)
(0.00032405656 0.016484039 8.4555653e-21)
(0.012804405 0.01526137 3.6670892e-20)
(0.030590866 0.01183481 5.6222593e-20)
(0.053059197 0.0070504706 2.2113243e-20)
(0.07969419 0.001531958 -6.3704463e-21)
(0.11005077 -0.0042801823 -1.3410142e-20)
(0.14374573 -0.010073154 -6.8556343e-21)
(0.18043782 -0.015626979 3.7494172e-20)
(0.21980888 -0.020791355 -5.159349e-21)
(0.26154948 -0.025468604 -1.8352546e-20)
(0.30534802 -0.029601623 -2.1317213e-20)
(0.35088292 -0.033166338 -5.1728066e-20)
(0.39782174 -0.036166955 2.51117e-20)
(0.44582923 -0.038635755 -1.5235422e-20)
(0.49453586 -0.040675491 2.8271912e-20)
(0.54342328 -0.042581025 2.284036e-20)
(0.59267582 -0.044362369 -9.0116244e-20)
(0.64690883 -0.043308966 3.9304148e-22)
(-0.0033448156 0.0059012993 2.2970671e-20)
(-0.0012362104 0.0092524086 -2.827124e-20)
(0.010228435 0.0090680871 -4.7862925e-20)
(0.029219797 0.0064833001 -2.9285455e-20)
(0.054439971 0.0023107614 -2.2116452e-21)
(0.085057829 -0.0026952333 1.4242051e-20)
(0.12038123 -0.0079834702 -3.0897088e-21)
(0.15980398 -0.013175823 1.9627703e-20)
(0.20279211 -0.018010761 9.591041e-21)
(0.24885657 -0.022311208 -1.2362732e-20)
(0.29752821 -0.025964725 9.8443588e-21)
(0.34833991 -0.028908602 -2.6028247e-20)
(0.40081386 -0.031119131 9.1128754e-21)
(0.4544535 -0.032604912 1.8255436e-20)
(0.50874275 -0.033402811 -3.0903303e-21)
(0.56315635 -0.033579742 1.9566563e-21)
(0.61714483 -0.033286442 -6.3305427e-22)
(0.67004117 -0.03292421 2.1392099e-20)
(0.72185678 -0.032695798 3.977048e-21)
(0.77760476 -0.029973369 -2.4854626e-21)
(-0.001303088 0.0034991762 2.510248e-20)
(0.0060133973 0.0029212997 6.1253771e-20)
(0.024220442 0.0003318769 -5.2018249e-20)
(0.051029394 -0.0035491977 -1.0641226e-20)
(0.084834815 -0.0081781885 2.1773466e-20)
(0.1245947 -0.012939783 2.2972751e-21)
(0.16942405 -0.017395452 -3.2012626e-20)
(0.21852827 -0.021266305 7.5337332e-21)
(0.27118607 -0.024375452 7.650422e-21)
(0.32671746 -0.02661994 -2.839004e-20)
(0.38445638 -0.02795513 1.3941859e-21)
(0.44373357 -0.028381932 -4.0391889e-20)
(0.50386752 -0.027936367 -3.9516143e-20)
(0.56416171 -0.026681191 7.1451726e-20)
(0.62390777 -0.024698547 6.0449186e-21)
(0.68239276 -0.022088931 -1.6457534e-20)
(0.73888478 -0.019011443 2.091017e-20)
(0.79256034 -0.015769287 -9.7817513e-22)
(0.84296612 -0.01238783 2.1107698e-20)
(0.8937776 -0.0073559522 -2.1786133e-20)
(-0.0022752983 -0.0063089388 6.3611208e-20)
(0.0082927549 -0.0068250387 1.6775234e-20)
(0.020293402 -0.0072362387 -3.7393568e-20)
(0.03336882 -0.0074710149 1.8086793e-20)
(0.047237514 -0.007613804 0)
(0.061830947 -0.0076942446 0)
(0.077083801 -0.0077153769 -2.4058336e-20)
(0.092909891 -0.0076852837 -1.7117028e-20)
(0.10923172 -0.0076139254 1.9980839e-20)
(0.12598345 -0.0075086171 1.8806497e-20)
(0.14310445 -0.0073749424 1.0368966e-21)
(0.16053766 -0.0072178151 -1.0445129e-20)
(0.17822992 -0.0070415276 8.6389606e-21)
(0.19613161 -0.0068497244 1.8263974e-20)
(0.21419609 -0.0066455258 -5.4551605e-21)
(0.23237934 -0.0064316401 -1.005413e-20)
(0.25063968 -0.0062104294 -4.2378867e-21)
(0.26893768 -0.0059839624 -4.2292957e-21)
(0.28723597 -0.0057540613 6.8355922e-22)
(0.30549923 -0.0055223384 1.2068379e-21)
(0.32369411 -0.0052902253 2.5826359e-21)
(0.34178925 -0.0050589936 6.429918e-21)
(0.35975531 -0.0048297726 1.1034541e-22)
(0.37756497 -0.0046035616 -3.3152113e-21)
(0.39519299 -0.0043812396 1.2108479e-22)
(0.4126162 -0.0041635736 -5.4791856e-22)
(0.42981355 -0.0039512247 1.1736278e-21)
(0.4467661 -0.0037447547 9.4394188e-22)
(0.46345702 -0.0035446312 -1.2887641e-21)
(0.47987154 -0.0033512335 -9.3275318e-23)
(0.49599697 -0.0031648584 -6.7419317e-23)
(0.5118226 -0.0029857264 -3.2205946e-22)
(0.52733964 -0.0028139881 -4.1161259e-22)
(0.54254119 -0.0026497311 1.0164931e-22)
(0.55742215 -0.0024929864 -1.2386748e-22)
(0.57197914 -0.0023437367 -1.8877485e-22)
(0.58621042 -0.002201923 2.1429164e-22)
(0.60011592 -0.0020674527 2.4102793e-22)
(0.61369702 -0.0019402094 -4.041473e-23)
(0.62695701 -0.001820057 -1.6608355e-22)
(0.63989983 -0.0017068694 1.1306064e-23)
(0.65253432 -0.0016004857 -2.0005913e-23)
(0.66486191 -0.0015009262 7.568003e-23)
(0.67691564 -0.0014078086 -2.8396443e-23)
(0.68864563 -0.001322382 -1.4060939e-22)
(0.70026401 -0.0012414643 1.0021168e-23)
(0.71124443 -0.0011770616 8.3135951e-24)
(0.72324331 -0.0010972471 -5.8348718e-24)
(0.73174006 -0.0011090062 2.4728548e-23)
(0.74946105 -0.00094000563 3.7534054e-22)
(0.028179019 -0.018569703 -1.4350074e-20)
(0.037747569 -0.020136318 -6.7982318e-20)
(0.049230564 -0.021344889 -3.3208934e-20)
(0.06175906 -0.022013728 4.120335e-20)
(0.074934234 -0.022423619 1.5621773e-20)
(0.088768412 -0.022660574 -1.9596099e-20)
(0.1032291 -0.022725718 5.341995e-21)
(0.11823318 -0.02264131 2.6463085e-20)
(0.13371062 -0.022436994 -2.617518e-22)
(0.14960526 -0.022133786 -8.0619535e-21)
(0.16586373 -0.021747447 -1.2873426e-20)
(0.18243437 -0.021292063 -8.9705894e-21)
(0.1992686 -0.020780036 1.7969379e-20)
(0.21632066 -0.020221906 9.7810409e-21)
(0.23354703 -0.01962672 -1.6134214e-20)
(0.25090617 -0.019002367 -5.9981003e-21)
(0.26835846 -0.018355756 3.07456e-21)
(0.28586611 -0.017692965 8.0593942e-21)
(0.30339307 -0.017019364 6.9145695e-21)
(0.32090507 -0.016339726 -7.0949069e-21)
(0.33836957 -0.015658299 -3.4330432e-21)
(0.35575587 -0.014978872 1.6242524e-21)
(0.3730351 -0.014304817 7.3620811e-22)
(0.39018029 -0.013639126 1.252404e-21)
(0.40716642 -0.012984439 2.5296132e-22)
(0.42397043 -0.012343062 -3.8559651e-22)
(0.44057132 -0.011716991 -7.5398016e-22)
(0.45695005 -0.011107926 1.095675e-21)
(0.47308967 -0.010517287 8.8130046e-22)
(0.48897521 -0.0099462294 -3.047025e-22)
(0.50459367 -0.0093956658 6.0712962e-22)
(0.51993402 -0.008866279 -2.1883945e-22)
(0.53498709 -0.0083585433 -4.2349922e-22)
(0.54974555 -0.0078727444 -6.2408774e-22)
(0.5642038 -0.0074089996 3.9675136e-22)
(0.57835796 -0.0069672798 -1.3857857e-22)
(0.59220577 -0.0065474322 2.3774941e-22)
(0.60574656 -0.0061492023 -4.7271226e-22)
(0.61898114 -0.0057722641 4.6919115e-22)
(0.63191221 -0.0054162319 5.8331989e-23)
(0.6445431 -0.0050807495 -4.5109249e-23)
(0.65688201 -0.004765355 2.2554185e-22)
(0.6689298 -0.0044701291 3.0370074e-22)
(0.68071866 -0.0041939445 2.3263064e-22)
(0.69219874 -0.0039405545 2.5226988e-22)
(0.70357929 -0.0037004616 -1.4980905e-23)
(0.71433994 -0.0035095218 1.2949883e-22)
(0.72611501 -0.0032725091 1.1324348e-22)
(0.73444584 -0.0033080665 -2.0715768e-22)
(0.75186911 -0.0028060742 -5.9030933e-25)
(0.087265948 -0.029723099 1.0541048e-20)
(0.094864366 -0.032350586 4.0358855e-21)
(0.10521772 -0.034303421 -1.4300558e-20)
(0.11662606 -0.035330808 -1.7738001e-21)
(0.12840318 -0.035972753 1.6417173e-20)
(0.14071841 -0.036366227 -1.5807009e-20)
(0.15361135 -0.036491235 -3.1926346e-20)
(0.16700117 -0.036378378 1.5623679e-20)
(0.18082901 -0.036076178 1.9365217e-20)
(0.19505665 -0.0356172 -1.2261581e-20)
(0.20964381 -0.035024876 1.0524796e-21)
(0.22454821 -0.034320707 8.3340448e-21)
(0.23972915 -0.03352399 -1.5912173e-20)
(0.25514753 -0.032651192 4.049405e-21)
(0.27076515 -0.031716519 7.8862604e-21)
(0.28654473 -0.03073246 -6.8967941e-22)
(0.30245006 -0.029710053 -1.7888122e-22)
(0.31844606 -0.028659079 -7.7035605e-21)
(0.33449888 -0.027588248 4.603336e-21)
(0.35057591 -0.026505352 8.7175102e-21)
(0.36664596 -0.02541737 -3.9142217e-21)
(0.38267931 -0.024330562 -2.1581957e-21)
(0.39864783 -0.023250525 8.4500844e-22)
(0.41452504 -0.022182252 -1.7926196e-21)
(0.43028623 -0.021130164 1.2961032e-21)
(0.44590846 -0.020098146 6.8500697e-22)
(0.46137067 -0.019089569 1.8830142e-21)
(0.47665366 -0.018107324 -2.2395578e-21)
(0.49174014 -0.017153838 2.5381348e-21)
(0.50661471 -0.016231107 6.0279955e-22)
(0.52126381 -0.015340717 6.7881236e-22)
(0.53567577 -0.01448388 2.9507414e-22)
(0.54984067 -0.01366146 1.0608386e-21)
(0.56375035 -0.012874006 -1.6157464e-21)
(0.57739833 -0.012121791 4.5297179e-22)
(0.59077978 -0.011404839 2.5478087e-22)
(0.60389142 -0.010722971 -8.9919803e-23)
(0.61673154 -0.010075836 -6.6859943e-24)
(0.62929987 -0.0094629619 -4.1000465e-22)
(0.64159798 -0.0088837765 2.3593653e-22)
(0.65362809 -0.0083377539 -2.8180533e-23)
(0.66539721 -0.0078241892 5.8960003e-22)
(0.67690516 -0.0073432766 -2.7191237e-22)
(0.68818254 -0.0068932 3.444189e-23)
(0.69917957 -0.0064802236 8.4128515e-23)
(0.71010004 -0.0060886957 -9.956912e-23)
(0.72043498 -0.0057777798 -1.6822141e-22)
(0.7317764 -0.0053907691 5.5184629e-22)
(0.73978513 -0.005450655 1.8419628e-22)
(0.75663086 -0.0046308034 -8.5933475e-22)
(0.1719363 -0.039005208 1.9211912e-21)
(0.17663406 -0.042678542 -1.18907e-20)
(0.18511547 -0.045297062 6.5769023e-21)
(0.1947766 -0.046596006 -1.4321096e-20)
(0.20444282 -0.047440506 -2.1141135e-21)
(0.2144862 -0.048007445 1.0241165e-20)
(0.22506672 -0.048232789 -1.1286604e-20)
(0.23610287 -0.048146189 9.767142e-22)
(0.24754389 -0.047812392 1.3521902e-20)
(0.25937462 -0.047272814 3.9642273e-21)
(0.2715719 -0.046555347 -6.4315467e-21)
(0.28410444 -0.045686271 -3.3373563e-21)
(0.29694068 -0.044689952 -5.4412883e-21)
(0.31004929 -0.043587478 -6.8948733e-21)
(0.32339823 -0.042397201 2.6332063e-21)
(0.33695502 -0.041135452 1.0173716e-22)
(0.35068722 -0.039816858 1.6380018e-21)
(0.36456273 -0.03845454 -3.3810846e-21)
(0.37854996 -0.037060311 -4.6924538e-21)
(0.39261808 -0.035644839 2.5728397e-21)
(0.4067372 -0.034217764 3.6093699e-21)
(0.42087856 -0.032787796 -1.9283328e-21)
(0.43501465 -0.031362784 1.7169645e-21)
(0.44911938 -0.029949764 -5.5073196e-22)
(0.46316818 -0.028555009 -4.4288893e-21)
(0.47713806 -0.027184059 -3.0693202e-21)
(0.49100772 -0.025841756 -3.2806941e-22)
(0.50475757 -0.024532274 2.7301689e-22)
(0.51836976 -0.023259152 -2.2037334e-21)
(0.53182818 -0.022025326 -1.1396169e-21)
(0.54511849 -0.020833166 2.1163e-22)
(0.55822803 -0.019684516 -1.4442777e-21)
(0.57114586 -0.018580739 -8.6607156e-23)
(0.58386269 -0.017522755 -5.3914487e-22)
(0.5963708 -0.016511093 -4.2812885e-22)
(0.60866406 -0.015545941 -7.4809065e-22)
(0.62073782 -0.014627193 -1.1294561e-21)
(0.63258897 -0.013754503 2.082552e-24)
(0.64421578 -0.012927352 -3.3555245e-24)
(0.65561831 -0.012145077 -6.4947687e-22)
(0.66679729 -0.011407074 7.9029152e-24)
(0.67775813 -0.010712484 -4.5339823e-22)
(0.68849924 -0.010061693 -6.8343466e-22)
(0.69904908 -0.0094522877 5.3251844e-22)
(0.70935804 -0.0088930293 1.3311598e-23)
(0.71962218 -0.0083624199 2.6451749e-22)
(0.72934902 -0.0079419079 -1.9447513e-22)
(0.74006966 -0.0074166195 -3.7337476e-22)
(0.74761738 -0.0075012514 -6.3610531e-24)
(0.76363329 -0.0063883277 4.9341648e-22)
(0.2780347 -0.045605933 -2.3634991e-20)
(0.27892124 -0.05030266 5.0759206e-20)
(0.28464858 -0.053497835 1.0863438e-20)
(0.29185017 -0.055008071 -1.7001657e-20)
(0.29869375 -0.05606303 -2.6596013e-21)
(0.30573881 -0.056855312 2.2832106e-21)
(0.31331262 -0.057260186 -2.2496927e-21)
(0.3213348 -0.057296169 -4.9351998e-21)
(0.32975146 -0.057037112 -4.2192838e-21)
(0.33856924 -0.056529886 -1.2770097e-20)
(0.34778353 -0.055804398 1.9272336e-20)
(0.35737334 -0.054889013 7.1881839e-21)
(0.36731477 -0.053811 -1.7274073e-20)
(0.3775832 -0.05259468 9.8354621e-21)
(0.38815191 -0.05126162 7.8040946e-21)
(0.39899235 -0.049831309 -1.9474226e-22)
(0.41007504 -0.0483215 -2.6863673e-21)
(0.42137009 -0.046748384 -4.4446783e-21)
(0.43284752 -0.04512674 -1.675593e-21)
(0.44447764 -0.043470072 -1.4799581e-21)
(0.4562313 -0.041790713 -3.4979317e-21)
(0.46808014 -0.040099901 0)
(0.47999684 -0.038407843 -1.5512127e-21)
(0.49195523 -0.036723753 4.010967e-21)
(0.50393048 -0.035055898 5.8015181e-21)
(0.51589918 -0.033411627 -8.9637004e-22)
(0.52783944 -0.031797407 -3.4324521e-21)
(0.53973094 -0.030218851 3.6298419e-21)
(0.55155497 -0.028680765 -3.8677991e-23)
(0.56329445 -0.027187177 3.9088094e-21)
(0.57493392 -0.025741392 -4.9709808e-22)
(0.58645954 -0.024346036 1.8341387e-21)
(0.59785907 -0.023003111 -9.4896147e-22)
(0.60912183 -0.021714049 4.6003637e-22)
(0.62023863 -0.020479778 -5.7893337e-22)
(0.63120182 -0.019300777 5.9322641e-22)
(0.64200515 -0.018177147 5.6802785e-22)
(0.65264387 -0.017108671 4.7799344e-22)
(0.66311457 -0.016094909 -1.1723085e-21)
(0.67341559 -0.015135222 8.3969336e-22)
(0.68354593 -0.014229041 -4.3781365e-22)
(0.69350915 -0.013375463 -1.4620103e-21)
(0.70330211 -0.012575154 1.8665119e-21)
(0.71295068 -0.011825226 -5.2553705e-23)
(0.72240567 -0.011136895 -2.1302639e-22)
(0.73185353 -0.010483244 -6.771796e-24)
(0.74082279 -0.0099665656 -2.2049632e-22)
(0.75076748 -0.0093184082 -6.392471e-22)
(0.7577396 -0.0094280267 7.5188741e-22)
(0.77271232 -0.0080548556 -5.2164424e-23)
(0.40044299 -0.048568825 -1.9841182e-20)
(0.39666213 -0.054325118 1.3387053e-20)
(0.39866786 -0.058052915 4.1269226e-21)
(0.4026253 -0.059805702 -8.2792978e-21)
(0.40597672 -0.061160023 1.2948025e-20)
(0.40937436 -0.062284983 8.3423642e-21)
(0.41333611 -0.06299925 -1.2970622e-20)
(0.4177998 -0.063307087 -6.425354e-21)
(0.42269332 -0.063278661 1.3375148e-20)
(0.42803295 -0.062959997 -1.6940361e-20)
(0.4338299 -0.062381735 -1.4644198e-20)
(0.44007139 -0.06157286 1.565069e-20)
(0.44673764 -0.060561721 7.0787859e-21)
(0.45380749 -0.059374712 -5.5173688e-21)
(0.46125708 -0.058036052 -1.1856933e-21)
(0.46905982 -0.056568086 -3.4557907e-21)
(0.47718743 -0.054991549 4.6692511e-21)
(0.48561068 -0.053325703 3.6940966e-21)
(0.49429993 -0.051588403 -3.0916861e-21)
(0.50322546 -0.049796169 3.1193864e-21)
(0.51235787 -0.047964242 3.0208871e-21)
(0.52166835 -0.046106634 -3.4340302e-21)
(0.53112898 -0.044236165 3.6605393e-22)
(0.54071284 -0.042364485 -3.1664938e-21)
(0.55039424 -0.040502108 8.4587173e-21)
(0.56014882 -0.03865844 6.6663348e-21)
(0.56995363 -0.036841806 1.123082e-21)
(0.57978722 -0.035059491 -1.863761e-21)
(0.58962964 -0.033317777 4.467587e-21)
(0.59946252 -0.031621995 8.3669968e-21)
(0.60926903 -0.029976576 2.4323685e-21)
(0.6190339 -0.028385114 3.8450587e-21)
(0.62874338 -0.026850427 2.1928468e-21)
(0.63838523 -0.025374629 8.9192621e-22)
(0.64794865 -0.023959203 -2.4005931e-22)
(0.65742432 -0.022605077 3.2172946e-21)
(0.66680431 -0.021312703 7.2188859e-22)
(0.67608212 -0.020082138 3.2740516e-22)
(0.68525256 -0.018913148 5.7299642e-23)
(0.6943122 -0.017805252 1.2846845e-21)
(0.70325823 -0.016758037 4.0903235e-23)
(0.71209231 -0.01577067 6.1921138e-22)
(0.72080969 -0.014844198 -1.267226e-22)
(0.72943347 -0.013975378 -4.3695298e-22)
(0.73791518 -0.013177823 -2.1429471e-22)
(0.74643018 -0.0124197 -5.856969e-22)
(0.75453196 -0.011822383 2.594232e-22)
(0.7635841 -0.011069378 -1.7180228e-22)
(0.76989565 -0.011204035 -4.302829e-22)
(0.78365886 -0.0096092976 2.9295721e-22)
(0.53299157 -0.046977988 3.3809823e-21)
(0.52391307 -0.05384283 -1.9465818e-20)
(0.52127417 -0.058117767 -2.6720025e-21)
(0.5212216 -0.060305779 5.7703921e-21)
(0.52056092 -0.062188242 3.756786e-21)
(0.51984777 -0.063840882 8.0054465e-22)
(0.51975764 -0.065055959 7.4943061e-21)
(0.52028869 -0.065838964 8.3217378e-21)
(0.52134807 -0.066246264 1.0188817e-20)
(0.52293926 -0.066314319 -1.2054405e-20)
(0.52507889 -0.066072819 -2.3362243e-20)
(0.52775935 -0.065551435 -4.6918861e-21)
(0.53096127 -0.064779166 1.708862e-20)
(0.53466276 -0.063784088 1.3595103e-20)
(0.53883953 -0.06259312 -5.6960113e-21)
(0.54346451 -0.061231766 7.5208791e-22)
(0.54850858 -0.05972412 -4.3586585e-21)
(0.55394149 -0.058092921 3.3667167e-21)
(0.55973241 -0.05635954 -2.9413175e-22)
(0.56585039 -0.054543957 -2.0023919e-21)
(0.5722647 -0.052664765 8.7180221e-21)
(0.57894518 -0.050739174 -5.5413388e-22)
(0.58586244 -0.048783016 6.6079978e-22)
(0.59298813 -0.046810761 -3.9896335e-22)
(0.60029507 -0.044835526 -4.5805226e-21)
(0.60775736 -0.042869102 4.4678408e-21)
(0.61535052 -0.040921984 1.8253498e-21)
(0.62305154 -0.03900341 -3.4885539e-21)
(0.63083888 -0.037121407 -4.0706184e-21)