/*--------------------------------*- C++ -*----------------------------------*\
  =========                 |
  \\      /  F ield         | OpenFOAM: The Open Source CFD Toolbox
   \\    /   O peration     | Website:  https://openfoam.org
    \\  /    A nd           | Version:  6
     \\/     M anipulation  |
\*---------------------------------------------------------------------------*/
FoamFile
{
    version     2.0;
    format      ascii;
    class       surfaceScalarField;
    location    "83";
    object      phi;
}
// * * * * * * * * * * * * * * * * * * * * * * * * * * * * * * * * * * * * * //

dimensions      [0 3 -1 0 0 0 0];

internalField   nonuniform List<scalar> 
18180
(
0.00031883526
-0.0001633708
-0.00015546447
0.0013096356
-0.0013677788
0.00037697851
0.0030338558
-0.0033353677
0.0016111475
0.0055515234
-0.005978814
0.0034611464
0.0089209774
-0.009243257
0.005873803
0.013196878
-0.013085237
0.0088093357
0.018427547
-0.017467274
0.012236605
0.024651992
-0.022355139
0.016130694
0.031896757
-0.02771472
0.020469954
0.040172848
-0.033509406
0.025233315
0.049473038
-0.039698329
0.030398139
0.059769948
-0.046235445
0.035938534
0.071015281
-0.05306944
0.041824108
0.083140674
-0.060144491
0.048019097
0.096060796
-0.067401973
0.054481851
0.10967918
-0.074783229
0.061164846
0.12389625
-0.082233244
0.068016173
0.13862456
-0.089704945
0.074976638
0.15386257
-0.097181172
0.08194316
-0.10465954
0.088713342
0.16980877
0.00039761781
-0.00056098862
0.0016100724
-0.0025802334
0.0036903957
-0.0054156911
0.0066893698
-0.0089777881
0.010653676
-0.013207563
0.015622233
-0.018053793
0.021622184
-0.023467225
0.028664934
-0.029397889
0.036742515
-0.0357923
0.045824684
-0.042591575
0.055857192
-0.049730838
0.066761574
-0.057139827
0.078436697
-0.064744563
0.090762176
-0.072469969
0.10360342
-0.080243217
0.11681773
-0.087997543
0.13026051
-0.09567602
0.14379201
-0.10323645
0.15727629
-0.11066545
-0.11789355
0.17051029
0.00048075821
-0.0010417468
0.0019192229
-0.0040186981
0.0043536471
-0.0078501152
0.0078186237
-0.012442765
0.012340852
-0.017729792
0.017933733
-0.023646674
0.024592283
-0.030125776
0.032288868
-0.037094474
0.040970166
-0.044473598
0.050555871
-0.052177279
0.060939501
-0.060114468
0.071991483
-0.068191808
0.083564381
-0.076317462
0.095499877
-0.084405465
0.10763674
-0.092380084
0.11981877
-0.10017957
0.13190142
-0.10775867
0.14375527
-0.11509029
0.15525837
-0.12216855
-0.1289434
0.16630823
0.00056631687
-0.0016080637
0.0022285048
-0.005680886
0.0050018439
-0.010623454
0.00889615
-0.016337071
0.013908511
-0.022742152
0.02001641
-0.029754573
0.027172393
-0.037281759
0.035300725
-0.045222806
0.044296503
-0.053469376
0.0540276
-0.061908376
0.064339461
-0.070426329
0.075062442
-0.078914789
0.086020982
-0.087276002
0.097043628
-0.095428111
0.10797277
-0.10330923
0.11867295
-0.11087974
0.12903686
-0.11812258
0.138988
-0.12504143
0.14847743
-0.13165798
-0.13797156
0.15750558
0.00065104298
-0.0022591067
0.0025249282
-0.0075547712
0.0056048973
-0.013703423
0.0098666159
-0.02059879
0.015267814
-0.028143351
0.021740765
-0.036227524
0.02918801
-0.044729004
0.037481527
-0.053516322
0.046465573
-0.062453423
0.055963086
-0.071405889
0.065785015
-0.080248258
0.075741523
-0.088871297
0.08565371
-0.097188188
0.095364414
-0.10513882
0.10474682
-0.11269163
0.11371
-0.11984293
0.12220104
-0.12661363
0.13020386
-0.13304424
0.13773473
-0.13918885
-0.14509125
0.14485442
0.00073079806
-0.0029899048
0.0027926798
-0.009616653
0.0061278263
-0.01703857
0.010668798
-0.025139762
0.01632568
-0.033800233
0.022979248
-0.042881092
0.030479347
-0.052229103
0.038648072
-0.061685048
0.047287369
-0.07109272
0.056190095
-0.080308616
0.065153046
-0.089211209
0.073990144
-0.097708395
0.082544001
-0.10574205
0.090694407
-0.11328922
0.098362815
-0.12036004
0.10551265
-0.12699276
0.11214593
-0.13324691
0.1182972
-0.13919551
0.124026
-0.14491766
-0.15048453
0.12941928
0.00080089398
-0.0037907987
0.0030144969
-0.011830256
0.0065340909
-0.020558164
0.011241994
-0.029847665
0.016995435
-0.039553674
0.023622037
-0.049507694
0.030922326
-0.059529391
0.038677821
-0.069440542
0.046663365
-0.079078265
0.054661725
-0.088306975
0.062478142
-0.097027626
0.069952621
-0.10518287
0.07696827
-0.11275769
0.08345476
-0.11977571
0.089386901
-0.12629218
0.09477908
-0.13238494
0.099676953
-0.13814478
0.10414798
-0.14366654
0.10827242
-0.1490421
-0.15435263
0.11214052
0.0008562165
-0.0046470152
0.0031726079
-0.014146647
0.0067883224
-0.024173878
0.011531527
-0.03459087
0.017205775
-0.045227922
0.0235894
-0.055891319
0.030443041
-0.066383032
0.037522537
-0.076520039
0.044594727
-0.086150454
0.051453304
-0.095165552
0.057931964
-0.10350629
0.063912833
-0.11116374
0.069329172
-0.11817403
0.074162502
-0.12460904
0.078435219
-0.1305649
0.082200387
-0.13615011
0.085530612
-0.14147501
0.088507734
-0.14664366
0.091214609
-0.15174897
-0.15686921
0.093731183
0.00089040908
-0.0055374243
0.0032487762
-0.016505014
0.0068585776
-0.02778368
0.011493908
-0.0392262
0.016908674
-0.050642688
0.02284102
-0.061823666
0.029025819
-0.072567831
0.035211134
-0.082705353
0.041175229
-0.092114549
0.046740802
-0.10073113
0.051783886
-0.10854937
0.056236233
-0.11561609
0.060081392
-0.12201919
0.06334582
-0.12787347
0.066087053
-0.13330613
0.068381145
-0.1384442
0.070311274
-0.14340513
0.071958867
-0.14829126
0.073397853
-0.15318796
-0.15816316
0.074691809
0.00089994835
-0.0064373727
0.0032338016
-0.018838868
0.0067299455
-0.031279824
0.011112294
-0.043608548
0.016093821
-0.055624215
0.02138598
-0.067115825
0.026715007
-0.077896859
0.031839717
-0.087830063
0.036566879
-0.096841711
0.040760997
-0.10492524
0.044346918
-0.11213529
0.047305358
-0.11857453
0.049662883
-0.12437672
0.051478712
-0.1296893
0.052830836
-0.13465825
0.053803556
-0.13941692
0.054477895
-0.14407947
0.054925471
-0.14873883
0.055205676
-0.15346816
0.055364584
-0.15832207
-0.00020244181
0.00020244227
-4.5491122e-10
-0.00067794977
0.00047550837
-4.1657038e-10
-0.0013428138
0.00066486432
-3.1948299e-10
-0.0021328888
0.00079007531
-2.9110536e-10
-0.002996578
0.0008636895
-2.8475964e-10
-0.0038917439
0.00089516611
-2.8253546e-10
-0.004783473
0.00089172941
-2.7682677e-10
-0.0056422066
0.00085873383
-2.6751484e-10
-0.0064422689
0.00080006249
-2.539804e-10
-0.0071607158
0.00071844707
-2.3666842e-10
-0.0077764159
0.00061570037
-2.1692678e-10
-0.0082693153
0.00049289947
-1.9344181e-10
-0.0086198566
0.00035054142
-1.6913797e-10
-0.008808546
0.00018868957
-1.4103587e-10
-0.0088156977
7.1516967e-06
-1.1361807e-10
-0.0086214569
-0.00019424072
-8.2490728e-11
-0.0082060645
-0.00041539244
-5.3601721e-11
-0.0075494508
-0.00065661369
-2.1497096e-11
-0.0066308299
-0.00091862094
5.7663632e-12
-0.0011878063
-0.0054430237
3.0353554e-11
-0.00018803038
0.00039047265
-0.00062518361
0.00091266159
-0.0012290851
0.0012687658
-0.0019356933
0.0014966835
-0.0026927977
0.0016207938
-0.0034570783
0.0016594467
-0.0041919585
0.0016266096
-0.0048657942
0.0015325695
-0.005450436
0.0013847043
-0.0059200932
0.0011881042
-0.0062504179
0.00094602505
-0.0064177629
0.0006602444
-0.0063985763
0.00033135478
-0.0061689222
-4.0964538e-05
-0.0057041553
-0.00045761522
-0.0049788403
-0.00091955573
-0.0039669678
-0.001427265
-0.0026418747
-0.0019817067
-0.00097609475
-0.002584401
-0.003205524
0.001041623
-0.00015896918
0.00054944182
-0.00051901686
0.0012727093
-0.0010009944
0.0017507434
-0.001541575
0.0020372641
-0.0020877288
0.0021669476
-0.0025941313
0.0021658491
-0.0030212174
0.0020536957
-0.0033335142
0.0018448663
-0.003498294
0.0015494841
-0.0034844981
0.0011743083
-0.0032618525
0.0007233794
-0.0028001475
0.00019853933
-0.0020686037
-0.00040018904
-0.001035358
-0.0010742103
0.00033296623
-0.0018259395
0.0020715361
-0.0026581256
0.0042172693
-0.0035729983
0.006808528
-0.0045729654
0.0098850489
-0.0056609218
-0.0067866312
0.013466156
-0.00011758885
0.00066703067
-0.00036705525
0.0015221757
-0.00067359314
0.0020572813
-0.00097489349
0.0023385644
-0.0012168546
0.0024089087
-0.0013514512
0.0023004457
-0.0013350761
0.0020373206
-0.001127085
0.0016368752
-0.0006885997
0.0011109987
1.8444825e-05
0.00046726378
0.0010320847
-0.00029026053
0.0023909744
-0.0011603504
0.0041349319
-0.0021441466
0.0063054205
-0.0032446988
0.0089460548
-0.0044665739
0.012103158
-0.0058152289
0.015826137
-0.007295977
0.02016718
-0.0089140085
0.025181047
-0.010674789
-0.012503743
0.030898159
-6.690782e-05
0.00073393847
-0.0001791453
0.0016344131
-0.00026644759
0.0021445835
-0.00026747465
0.0023395914
-0.00012675907
0.0022681931
0.00020693114
0.0019667554
0.00078192145
0.0014623302
0.0016448006
0.00077399607
0.0028413906
-8.5591305e-05
0.0044175328
-0.0011088785
0.0064196514
-0.0022923791
0.0088951696
-0.0036358686
0.011892835
-0.005141812
0.015463049
-0.0068149129
0.01965824
-0.0086617651
0.024533484
-0.010690473
0.030147379
-0.012909872
0.036562561
-0.01532919
0.043846464
-0.017958691
-0.020698741
0.052041462
-9.9630956e-06
0.00074390156
3.463566e-05
0.0015898143
0.00020014727
0.0019790719
0.00054727795
0.0019924607
0.0011331361
0.001682335
0.0020123927
0.0010874988
0.003238246
0.00023647694
0.004863304
-0.00085106195
0.0069402422
-0.0021625296
0.0095221779
-0.0036908141
0.012662878
-0.005433079
0.016416862
-0.007389853
0.020839331
-0.0095642812
0.025986002
-0.011961584
0.03191301
-0.014588773
0.038677206
-0.017454668
0.046337338
-0.020570004
0.054956114
-0.023947966
0.064604035
-0.027606612
-0.03142721
0.075332503
5.0792974e-05
0.00069310857
0.00026583387
0.0013747734
0.00070867562
0.0015362301
0.0014398282
0.0012613081
0.0025181493
0.00060401391
0.0040016056
-0.00039595758
0.0059478694
-0.0017097868
0.0084147064
-0.003317899
0.011460106
-0.0052079294
0.01514225
-0.007372958
0.019519242
-0.0098100712
0.024648581
-0.012519192
0.030586423
-0.015502123
0.037386681
-0.018761842
0.04510009
-0.022302183
0.05377366
-0.026128238
0.063451485
-0.030247829
0.074178134
-0.034674615
0.086007592
-0.03943607
-0.044415197
0.098995579
0.00011385589
0.00057925266
0.00050874822
0.00097988108
0.0012465547
0.00079842362
0.0023878398
0.000120023
0.0039929773
-0.0010011236
0.0061224947
-0.0025254749
0.0088370528
-0.004424345
0.012197269
-0.006678115
0.01626331
-0.0092739701
0.021094145
-0.012203793
0.026746507
-0.015462434
0.033273566
-0.019046251
0.040723335
-0.022951892
0.049136865
-0.027175371
0.058546343
-0.03171166
0.068973468
-0.036555363
0.080429266
-0.041703627
0.092917202
-0.047162551
0.10644468
-0.05296355
-0.059026437
0.12105592
0.00017857121
0.00040068144
0.00076033624
0.00039811602
0.0018060474
-0.00024728759
0.003376014
-0.0014499436
0.005531097
-0.0031562067
0.0083324519
-0.0053268299
0.011840903
-0.0079327957
0.016116017
-0.010953229
0.021214824
-0.014372778
0.027190192
-0.018179161
0.034088894
-0.022361136
0.041949408
-0.026906766
0.050799487
-0.031801971
0.060653517
-0.037029401
0.071509665
-0.042567808
0.083346873
-0.048392572
0.096122653
-0.054479407
0.10977442
-0.060814316
0.12423296
-0.067422097
-0.07430797
0.1395145
0.00024521696
0.0010203115
0.0023841713
0.0043953741
0.0071129705
0.010595476
0.014899286
0.02007675
0.026173927
0.033228082
0.041265084
0.050296853
0.06031899
0.071308687
0.08322273
0.095995003
0.10953177
0.12369409
0.13821515
0.15262053
-0.0035005024
-0.0019425213
6.9807785e-11
-0.0012765487
-0.0022239538
9.6036412e-11
0.0012065203
-0.0024830692
1.1019722e-10
0.0038917923
-0.002685272
1.0918017e-10
0.0067524687
-0.0028606765
9.3486318e-11
0.009771257
-0.0030187884
6.1311242e-11
0.012929233
-0.0031579763
9.8857792e-12
0.016208385
-0.0032791511
-6.0364226e-11
0.01959302
-0.0033846349
-1.4938109e-10
0.023068931
-0.0034759112
-2.5611182e-10
0.026622844
-0.0035539129
-3.8130991e-10
0.030242347
-0.0036195023
-5.2111564e-10
0.03391581
-0.0036734623
-6.7270678e-10
0.037632252
-0.0037164409
-8.2886849e-10
0.041381237
-0.0037489845
-9.840953e-10
0.045152813
-0.0037715746
-1.1290135e-09
0.048937459
-0.0037846445
-1.2570236e-09
0.052726053
-0.0037885934
-1.3578821e-09
0.056509856
-0.0037838007
-1.4249953e-09
0.060280495
-0.0037706376
-1.4482277e-09
0.064029972
-0.0037494759
-1.4224922e-09
0.067750667
-0.0037206941
-1.338959e-09
0.07143535
-0.0036846818
-1.1954646e-09
0.075077193
-0.0036418417
-9.8507557e-10
0.078669783
-0.0035925895
-7.0985258e-10
0.082207137
-0.0035373536
-3.6561824e-10
0.085683709
-0.0034765723
3.8718627e-11
0.0890944
-0.0034106914
5.0217562e-10
0.09243456
-0.0033401605
1.0035599e-09
0.095699988
-0.0032654298
1.5316228e-09
0.098886933
-0.0031869467
2.0448745e-09
0.10199208
-0.0031051527
2.5171582e-09
0.10501256
-0.0030204809
2.8817616e-09
0.10794591
-0.0029333541
3.1023678e-09
0.11079009
-0.0028441843
3.0971229e-09
0.11354346
-0.0027533727
2.8480762e-09
0.11620477
-0.0026613117
2.2934967e-09
0.11877316
-0.0025683875
1.4890057e-09
0.12124815
-0.002474989
4.4482252e-10
0.12362966
-0.0023815085
-6.6169535e-10
0.12591805
-0.0022883891
-1.7221977e-09
0.12811409
-0.0021960413
-2.4948876e-09
0.13021935
-0.002105254
-2.8206187e-09
0.13223541
-0.0020160586
-2.5392955e-09
0.13416728
-0.0019318696
-1.6733676e-09
0.13601411
-0.0018468278
-4.4702524e-10
0.13780246
-0.0017883473
6.9793749e-10
0.13948771
-0.0016852591
1.2099732e-09
0.14127712
-0.0017894088
-5.2711214e-12
-0.0014515622
-4.5108717e-09
0.0028642089
-0.0037651072
0.0049635789
-0.0043233238
0.0073089378
-0.0048284281
0.0098378292
-0.0052141634
0.012529197
-0.0055520444
0.015370731
-0.0058603224
0.018345702
-0.0061329472
0.021437713
-0.0063711622
0.024632756
-0.0065796783
0.027918082
-0.0067612364
0.031281569
-0.0069174004
0.034711751
-0.0070496843
0.038197785
-0.007159496
0.04172934
-0.0072479956
0.045296515
-0.0073161595
0.048889795
-0.0073648553
0.052500024
-0.0073948728
0.056118378
-0.007406948
0.059736366
-0.0074017884
0.063345823
-0.0073800947
0.066938923
-0.0073425762
0.070508191
-0.0072899614
0.074046514
-0.0072230054
0.077547165
-0.0071424926
0.081003812
-0.0070492367
0.084410537
-0.0069440779
0.087761843
-0.0068278783
0.091052667
-0.006701516
0.094278385
-0.0065658781
0.097434808
-0.0064218535
0.10051819
-0.0062703266
0.10352521
-0.0061121707
0.10645297
-0.0059482432
0.109299
-0.0057793822
0.11206122
-0.0056064046
0.11473795
-0.0054301067
0.11732791
-0.0052512681
0.11983018
-0.0050706571
0.12224424
-0.0048890486
0.12456995
-0.0047072238
0.12680763
-0.0045260681
0.12895799
-0.0043464007
0.13102253
-0.0041697976
0.1330028
-0.0039963253
0.13490371
-0.0038327825
0.13672443
-0.0036675459
0.13849107
-0.0035549826
0.14016002
-0.0033542131
0.14193344
-0.0035628236
-0.0029006037
0.015039585
-0.0053385366
0.016872993
-0.0061567316
0.018929083
-0.0068845181
0.021137916
-0.0074229963
0.023487865
-0.0079019933
0.025975294
-0.0083477516
0.028587598
-0.0087452514
0.031311308
-0.009094872
0.034135335
-0.0094037052
0.037049462
-0.0096753634
0.040043582
-0.0099115204
0.043107849
-0.010113951
0.046232753
-0.0102844
0.049409056
-0.010424298
0.052627745
-0.010534849
0.055880031
-0.010617141
0.059157344
-0.010672186
0.062451346
-0.010700951
0.065753943
-0.010704385
0.069057299
-0.010683451
0.072353862
-0.010639139
0.075636382
-0.010572482
0.078897938
-0.010484562
0.082131958
-0.010376513
0.08533224
-0.010249519
0.08849297
-0.010104807
0.091608732
-0.0099436409
0.094674527
-0.0097673112
0.097685772
-0.0095771227
0.10063831
-0.0093743871
0.10352839
-0.0091604085
0.10635269
-0.008936478
0.10910832
-0.0087038639
0.11179274
-0.008463807
0.11440385
-0.0082175188
0.11693993
-0.0079661813
0.11939961
-0.0077109537
0.12178194
-0.0074529802
0.12408631
-0.0071934165
0.12631251
-0.0069334305
0.12846079
-0.006674347
0.13053179
-0.0064173948
0.13252692
-0.0061649314
0.13444767
-0.0059170754
0.13629882
-0.0056839281
0.13807962
-0.0054483472
0.13981524
-0.0052906013
0.14146439
-0.0050033684
0.1432187
-0.0053171299
-0.0043579047
0.032083658
-0.0065240359
0.03350123
-0.0075743034
0.035109308
-0.0084925969
0.03683492
-0.0091486079
0.038678761
-0.0097458346
0.040647147
-0.010316137
0.042732919
-0.010831024
0.044926568
-0.011288521
0.04722053
-0.011697667
0.049607592
-0.012062425
0.052080059
-0.012383988
0.054629992
-0.012663884
0.057249396
-0.012903804
0.059930246
-0.013105148
0.062664499
-0.013269102
0.065444131
-0.013396773
0.068261184
-0.013489239
0.071107806
-0.013547572
0.073976292
-0.013572871
0.076859121
-0.013566281
0.079748997
-0.013529015
0.082638879
-0.013462363
0.085522016
-0.013367699
0.088391977
-0.013246474
0.091242674
-0.013100216
0.094068383
-0.012930516
0.096863763
-0.012739021
0.099623866
-0.012527414
0.10234415
-0.012297403
0.10502046
-0.012050704
0.10764908
-0.011789029
0.11022668
-0.011514072
0.11275031
-0.0112275
0.11521745
-0.010930945
0.11762594
-0.010626004
0.11997399
-0.010314236
0.12226021
-0.0099971728
0.12448356
-0.0096763289
0.12664338
-0.0093532372
0.1287394
-0.0090294507
0.13077179
-0.0087067325
0.13274111
-0.0083867235
0.13464874
-0.0080725556
0.13649609
-0.0077644264
0.13828778
-0.0074756174
0.14002327
-0.0071838381
0.14172636
-0.0069936958
0.14335926
-0.0066362601
0.14509837
-0.007056243
-0.005839459
0.052684001
-0.0071665753
0.053526961
-0.0084172633
0.0545236
-0.0094892359
0.055608252
-0.01023326
0.056795752
-0.010933335
0.058100409
-0.011620794
0.059520749
-0.012251364
0.061051917
-0.01281969
0.062689719
-0.013335469
0.06442957
-0.013802276
0.066265966
-0.014220384
0.068192654
-0.014590572
0.070202886
-0.014914036
0.072289579
-0.015191841
0.074445405
-0.015424928
0.076662873
-0.015614241
0.078934415
-0.01576078
0.081252462
-0.015865619
0.083609514
-0.015929923
0.085998201
-0.015954968
0.088411332
-0.015942145
0.090841945
-0.015892976
0.093283345
-0.015809099
0.095729143
-0.015692271
0.098173281
-0.015544353
0.10061006
-0.015367291
0.10303414
-0.015163107
0.1054406
-0.014933869
0.10782488
-0.014681685
0.11018285
-0.01440867
0.11251075
-0.014116936
0.11480526
-0.013808576
0.11706341
-0.013485653
0.11928265
-0.013150184
0.12146079
-0.012804147
0.12359603
-0.012449476
0.12568693
-0.012088072
0.12773242
-0.011721821
0.12973182
-0.011352632
0.13168481
-0.010982446
0.13359155
-0.010613466
0.13545257
-0.010247751
0.13726922
-0.0098891998
0.13904292
-0.0095381249
0.14077813
-0.009210834
0.14247465
-0.0088803572
0.14415462
-0.0086736643
0.14578467
-0.0082663076
0.1475224
-0.0087939749
-0.007368607
0.075263633
-0.0070977054
0.075370855
-0.0085244848
0.075597599
-0.0097159802
0.075900418
-0.010536078
0.07630737
-0.011340287
0.076835322
-0.012148745
0.077487321
-0.012903363
0.078263315
-0.013595683
0.079161627
-0.01423378
0.080179123
-0.014819773
0.081311577
-0.015352838
0.082553709
-0.015832704
0.083899352
-0.016259679
0.085341746
-0.016634235
0.086873733
-0.016956915
0.088487883
-0.017228391
0.090176601
-0.017449499
0.091932235
-0.017621253
0.093747171
-0.017744859
0.095613901
-0.017821698
0.097525098
-0.017853342
0.099473658
-0.017841536
0.10145276
-0.0177882
0.10345589
-0.017695401
0.10547688
-0.017565347
0.10750994
-0.017400354
0.10954967
-0.017202832
0.11159105
-0.016975251
0.11362949
-0.016720126
0.11566081
-0.016439984
0.11768122
-0.01613735
0.11968737
-0.015814724
0.12167628
-0.015474568
0.1236454
-0.015119297
0.12559253
-0.014751276
0.12751587
-0.01437282
0.129414
-0.013986207
0.13128588
-0.013593699
0.13313084
-0.01319759
0.13494861
-0.012800217
0.13673937
-0.012404229
0.13850374
-0.012012115
0.14024307
-0.011628535
0.14195891
-0.011253961
0.14365563
-0.010907549
0.14533345
-0.010558184
0.14701272
-0.010352928
0.14866521
-0.0099188056
0.1504273
-0.010556062
-0.0089775415
0.098070486
-0.0061726124
0.097305246
-0.0077592439
0.096631095
-0.0090418299
0.096048943
-0.0099539261
0.095594941
-0.010886285
0.095280333
-0.011834137
0.095110497
-0.012733528
0.095089453
-0.013574639
0.095216749
-0.014361077
0.095489136
-0.01509216
0.09590227
-0.015765971
0.096450757
-0.01638119
0.097128129
-0.016937052
0.097927174
-0.017433279
0.098840226
-0.017869968
0.099859337
-0.018247502
0.10097639
-0.018566555
0.10218324
-0.018828098
0.10347177
-0.019033392
0.10483403
-0.019183962
0.10626228
-0.019281588
0.10774903
-0.019328286
0.10928712
-0.019326289
0.11086974
-0.01927802
0.11249046
-0.019186071
0.11414328
-0.01905317
0.11582259
-0.018882147
0.11752325
-0.018675911
0.11924055
-0.018437418
0.1209702
-0.018169637
0.12270838
-0.017875533
0.1244517
-0.017558039
0.12619717
-0.017220044
0.12794226
-0.01686438
0.1296848
-0.016493818
0.13142305
-0.016111074
0.13315567
-0.015718821
0.13488168
-0.015319714
0.13660054
-0.01491645
0.1383121
-0.01451177
0.14001666
-0.014108792
0.14171499
-0.013710448
0.14340862
-0.013322161
0.14509926
-0.012944602
0.14679131
-0.012599603
0.14848559
-0.012252459
0.15020054
-0.012067884
0.15191362
-0.011631881
0.15373874
-0.012381182
-0.01070805
0.11923384
-0.0043505297
0.11754295
-0.0060683571
0.11590528
-0.0074041618
0.11440475
-0.0084533972
0.11307762
-0.0095591465
0.11192139
-0.010677908
0.11094155
-0.011753688
0.11014439
-0.012777484
0.10952935
-0.013746033
0.10909184
-0.014654647
0.10882606
-0.015500196
0.10872538
-0.016280505
0.1087822
-0.01699388
0.10898825
-0.017639328
0.10933482
-0.018216531
0.10981297
-0.018725661
0.11041372
-0.019167304
0.11112808
-0.019542457
0.1119472
-0.019852506
0.11286242
-0.020099183
0.11386537
-0.020284544
0.11494802
-0.020410936
0.11610271
-0.020480973
0.11732218
-0.020497491
0.11859963
-0.020463528
0.11992874
-0.020382273
0.12130363
-0.020257043
0.12271895
-0.020091232
0.12416982
-0.019888286
0.12565185
-0.019651667
0.12716114
-0.01938482
0.12869426
-0.019091157
0.13024824
-0.01877403
0.13182059
-0.018436724
0.13340922
-0.018082451
0.1350125
-0.017714359
0.13662923
-0.017335543
0.13825859
-0.016949081
0.13990023
-0.016558093
0.14155422
-0.016165759
0.14322111
-0.015775678
0.14490191
-0.015391252
0.14659843
-0.015018672
0.14831268
-0.014658858
0.15004922
-0.01433614
0.15180954
-0.014012777
0.1536103
-0.013868644
0.15543481
-0.013456399
0.15737447
-0.014320842
-0.012611413
0.13693672
-0.0017727483
0.13442011
-0.0035517521
0.13186309
-0.0048471451
0.12950774
-0.0060980448
0.12738125
-0.007432658
0.12546502
-0.0087616701
0.12376187
-0.010050543
0.12227692
-0.011292532
0.12100862
-0.012477737
0.11995123
-0.013597252
0.11909724
-0.01464621
0.11843833
-0.015621599
0.11796553
-0.016521074
0.11766931
-0.017343113
0.11753984
-0.018087062
0.11756713
-0.018752944
0.11774117
-0.019341346
0.11805208
-0.019853365
0.11849015
-0.020290576
0.11904596
-0.02065499
0.11971041
-0.020949003
0.12047484
-0.021175363
0.121331
-0.021337127
0.12227112
-0.021437616
0.12328797
-0.021480377
0.12437483
-0.021469134
0.12552553
-0.021407743
0.12673445
-0.021300155
0.12799654
-0.021150368
0.12930726
-0.020962391
0.13066265
-0.020740212
0.13205927
-0.02048777
0.13349417
-0.020208934
0.13496494
-0.019907489
0.13646962
-0.019587135
0.13800675
-0.019251489
0.13957532
-0.018904115
0.14117478
-0.018548542
0.14280505
-0.018188355
0.14446649
-0.017827202
0.14616
-0.017469193
0.14788698
-0.017118227
0.14964959
-0.016781282
0.1514503
-0.016459567
0.15329391
-0.016179752
0.15518272
-0.01590159
0.15713171
-0.015817629
0.15913018
-0.015454872
0.16124739
-0.016438049
-0.014747469
0.15008578
0.000762002
0.14679794
-0.00026391604
0.14350192
-0.0015511212
0.14045559
-0.0030517218
0.13766229
-0.004639357
0.13511577
-0.006215148
0.13281788
-0.007752652
0.13076872
-0.0092433679
0.12896585
-0.010674874
0.1274041
-0.012035502
0.12607566
-0.013317764
0.12497113
-0.014517068
0.12408035
-0.015630299
0.12339269
-0.016655453
0.12289718
-0.017591553
0.12258274
-0.018438497
0.1224383
-0.01919691
0.12245299
-0.019868052
0.12261616
-0.020453755
0.12291755
-0.020956371
0.12334725
-0.021378709
0.12389588
-0.021723989
0.12455454
-0.021995787
0.12531491
-0.022197985
0.12616924
-0.022334715
0.12711042
-0.02241031
0.12813192
-0.022429248
0.12922787
-0.022396105
0.13039301
-0.022315505
0.1316227
-0.022192077
0.1329129
-0.022030417
0.13426019
-0.021835058
0.1356617
-0.021610445
0.13711513
-0.021360921
0.13861872
-0.021090726
0.14017124
-0.020804001
0.14177194
-0.020504818
0.1434206
-0.020197208
0.14511751
-0.019885258
0.14686342
-0.019573116
0.14865967
-0.019265446
0.15050811
-0.018966665
0.1524114
-0.018684572
0.1543725
-0.018420669
0.15639666
-0.018203908
0.15848685
-0.017991781
0.16065704
-0.01798782
0.16290076
-0.017698592
0.16527071
-0.018808001
-0.017180558
0.18895939
0.0053619599
-0.19355935
0.18515142
0.0035440496
0.18176152
0.0018387864
0.17861862
9.1172582e-05
0.17568539
-0.0017061295
0.17293681
-0.0034665618
0.17035465
-0.0051704967
0.16792995
-0.0068186635
0.16565883
-0.0084037512
0.16353914
-0.0099158192
0.16156906
-0.011347676
0.15974647
-0.01269448
0.15806875
-0.013952585
0.15653264
-0.01511934
0.15513423
-0.01619314
0.15386906
-0.017173336
0.15273225
-0.018060097
0.15171852
-0.018854316
0.15082231
-0.019557548
0.15003788
-0.020171945
0.14935937
-0.0207002
0.14878087
-0.021145481
0.14829646
-0.021511377
0.14790031
-0.021801837
0.1475867
-0.02202111
0.14735008
-0.022173686
0.14718507
-0.022264235
0.14708652
-0.022297556
0.14704953
-0.02227852
0.14706947
-0.022212018
0.14714198
-0.022102928
0.147263
-0.021956072
0.14742875
-0.021776191
0.14763576
-0.021567933
0.14788087
-0.02133584
0.14816123
-0.021084363
0.1484743
-0.020817885
0.14881785
-0.020540756
0.14918998
-0.020257387
0.14958913
-0.019972266
0.15001412
-0.019690436
0.15046413
-0.019416678
0.15093891
-0.019159352
0.15143847
-0.018920227
0.15196423
-0.018729673
0.15251646
-0.018544012
0.15310173
-0.01857309
0.15371376
-0.018310615
0.15438503
-0.019479272
-0.01786387
0.21690659
0.0087581679
-0.2203028
0.21343493
0.0070157128
0.21022437
0.0050493477
0.2071214
0.0031941411
0.20407724
0.0013380254
0.20112287
-0.00051218397
0.19827516
-0.0023227919
0.19553866
-0.0040821575
0.19291926
-0.0057843569
0.19042382
-0.0074203827
0.18805756
-0.0089814134
0.18582389
-0.010460805
0.18372481
-0.011853511
0.18176106
-0.013155586
0.17993211
-0.01436419
0.17823636
-0.015477589
0.1766713
-0.016495031
0.17523362
-0.017416643
0.17391942
-0.018243345
0.17272426
-0.01897679
0.17164334
-0.01961928
0.17067157
-0.020173705
0.16980365
-0.020643464
0.16903422
-0.021032401
0.16835784
-0.021344735
0.16776915
-0.021584988
0.16726283
-0.021757923
0.16683375
-0.021868472
0.16647692
-0.021921687
0.16618757
-0.021922671
0.16596118
-0.021876539
0.16579348
-0.021788374
0.16568048
-0.021663195
0.16561849
-0.02150594
0.16560411
-0.021321454
0.16563424
-0.021114497
0.16570612
-0.020889767
0.16581731
-0.020651942
0.16596569
-0.020405772
0.16614953
-0.020156098
0.16636743
-0.019908344
0.16661846
-0.019667707
0.16690213
-0.019443017
0.16721851
-0.019236604
0.16756821
-0.019079377
0.16795305
-0.018928857
0.16837395
-0.01899399
0.16883818
-0.018774836
0.16933502
-0.019976114
-0.018431006
0.24381221
0.011480118
-0.24653416
0.24096389
0.0098640323
0.23811285
0.0079003942
0.23526815
0.0060388356
0.23239274
0.0042134339
0.22950744
0.0023731229
0.22664345
0.00054119181
0.2238201
-0.0012588058
0.22105331
-0.0030175679
0.21835903
-0.0047261045
0.21575114
-0.0063735187
0.21324064
-0.0079503089
0.21083617
-0.0094490428
0.20854431
-0.010863723
0.20636971
-0.012189588
0.20431527
-0.013423152
0.20238238
-0.014562141
0.20057111
-0.015605367
0.19888039
-0.016552631
0.19730824
-0.017404638
0.19585187
-0.018162913
0.19450788
-0.018829714
0.19327236
-0.019407944
0.19214104
-0.019901074
0.19110936
-0.020313057
0.19017262
-0.020648246
0.18932602
-0.020911321
0.18856475
-0.021107208
0.18788408
-0.021241011
0.18727935
-0.021317949
0.18674611
-0.021343294
0.18628006
-0.021322328
0.18587717
-0.0212603
0.18553363
-0.021162404
0.18524594
-0.021033762
0.18501087
-0.020879431
0.18482553
-0.020704421
0.18468732
-0.020513735
0.18459402
-0.020312467
0.18454374
-0.020105822
0.184535
-0.019899605
0.18456677
-0.019699471
0.18463837
-0.01951462
0.18475001
-0.019348245
0.18490149
-0.019230857
0.18509631
-0.019123675
0.18532923
-0.019226916
0.18562237
-0.019067968
0.18591599
-0.020269739
-0.018859028
0.26931553
0.01351135
-0.27134676
0.26714932
0.012030241
0.26480948
0.010240238
0.26237227
0.0084760393
0.25984568
0.0067400267
0.25723988
0.0049789236
0.25458099
0.0032000762
0.2518932
0.0014289841
0.24919651
-0.00032087899
0.24651075
-0.0020403373
0.2438552
-0.0037179752
0.24124703
-0.0053421378
0.23870098
-0.0069029877
0.23622955
-0.0083922927
0.23384306
-0.0098030982
0.23154969
-0.011129788
0.22935566
-0.01236811
0.22726539
-0.013515094
0.22528171
-0.014568948
0.22340604
-0.015528973
0.22163861
-0.016395478
0.21997857
-0.017169682
0.21842425
-0.017853619
0.21697322
-0.018450042
0.21562249
-0.018962332
0.21436865
-0.019394401
0.21320793
-0.019750603
0.21213637
-0.020035646
0.21114987
-0.020254511
0.21024429
-0.020412372
0.20941553
-0.020514535
0.20865958
-0.020566373
0.20797256
-0.02057328
0.20735079
-0.020540642
0.20679084
-0.020473807
0.2062895
-0.020378092
0.20584387
-0.020258792
0.20545136
-0.020121224
0.2051097
-0.019970814
0.20481702
-0.019813136
0.20457178
-0.019654364
0.20437295
-0.019500645
0.20421979
-0.01936146
0.20411264
-0.019241091
0.20405066
-0.019168876
0.20403871
-0.019111733
0.20406629
-0.019254494
0.20416796
-0.019169633
0.20423962
-0.020341402
-0.019124643
0.29302154
0.014841178
-0.29435136
0.2915437
0.013508076
0.28982272
0.011961214
0.28792572
0.010373048
0.28588756
0.0087781831
0.28371908
0.0071474005
0.2814387
0.0054804569
0.27906967
0.0037980139
0.2766333
0.0021154879
0.27414976
0.00044320504
0.27163926
-0.0012074721
0.26912154
-0.0028244211
0.26661495
-0.0043963971
0.2641361
-0.0059134373
0.26169974
-0.0073667374
0.25931866
-0.0087487084
0.25700364
-0.010053098
0.25476354
-0.011274995
0.25260537
-0.012410772
0.25053443
-0.01345803
0.24855447
-0.014415526
0.24666788
-0.015283091
0.2448758
-0.016061536
0.24317831
-0.016752558
0.24157462
-0.017358637
0.24006316
-0.017882938
0.23864176
-0.018329211
0.23730781
-0.018701689
0.2360583
-0.019005004
0.23489002
-0.019244088
0.23379958
-0.019424103
0.23278358
-0.019550368
0.2318386
-0.0196283
0.23096133
-0.01966337
0.2301486
-0.019661075
0.22939743
-0.019626924
0.22870509
-0.019566455
0.22806913
-0.019485259
0.22748738
-0.019389072
0.22695807
-0.019283823
0.22647975
-0.019176043
0.22605148
-0.019072373
0.22567253
-0.018982513
0.22534341
-0.018911969
0.22506286
-0.018888329
0.22483672
-0.01888559
0.22465036
-0.019068135
0.22454764