/*--------------------------------*- C++ -*----------------------------------*\
  =========                 |
  \\      /  F ield         | OpenFOAM: The Open Source CFD Toolbox
   \\    /   O peration     | Website:  https://openfoam.org
    \\  /    A nd           | Version:  6
     \\/     M anipulation  |
\*---------------------------------------------------------------------------*/
FoamFile
{
    version     2.0;
    format      ascii;
    class       volVectorField;
    location    "83";
    object      UMean;
}
// * * * * * * * * * * * * * * * * * * * * * * * * * * * * * * * * * * * * * //

dimensions      [0 1 -1 0 0 0 0];

internalField   nonuniform List<vector> 
9200
(
(0.0027005592 0.00014904215 -6.358383e-20)
(0.019198478 -0.0060629788 5.1824254e-20)
(0.048046624 -0.012212448 -4.1968977e-20)
(0.086468262 -0.018134534 -6.7590332e-20)
(0.13244056 -0.023670895 2.0808736e-20)
(0.18462263 -0.028397507 3.6752524e-20)
(0.24184419 -0.032037715 -1.3712659e-20)
(0.30302291 -0.034463841 1.0391706e-20)
(0.36714939 -0.035634771 1.953497e-20)
(0.43325671 -0.035571758 1.7272006e-21)
(0.50039824 -0.034347234 -2.5100787e-20)
(0.56764086 -0.032073606 2.4044865e-20)
(0.63407035 -0.028892006 -4.6800121e-20)
(0.69880619 -0.024960962 -2.4763344e-20)
(0.76102382 -0.020444517 6.921402e-21)
(0.81998125 -0.015502486 -2.9625121e-20)
(0.87506229 -0.010268218 2.9825939e-20)
(0.92589396 -0.0047066987 2.6662244e-20)
(0.97217018 0.0013055604 -2.0167163e-22)
(1.0113735 0.0045434416 -1.4782483e-21)
(0.0073995491 -0.0027765475 -1.8312051e-20)
(0.033781364 -0.013316389 4.425237e-20)
(0.073357197 -0.021515391 2.5142101e-20)
(0.12293377 -0.02786457 -1.2804614e-19)
(0.18018457 -0.032628733 -1.3920467e-20)
(0.24350395 -0.035629987 8.2214653e-20)
(0.31144855 -0.036804601 -3.977975e-20)
(0.38265393 -0.036221398 -9.5734217e-21)
(0.45582724 -0.034017533 3.9240838e-20)
(0.52972648 -0.030378681 -4.9761886e-20)
(0.603152 -0.025531278 -3.5354282e-20)
(0.67495618 -0.019731763 8.409851e-20)
(0.74406576 -0.013254367 4.4547743e-20)
(0.80951145 -0.0063791796 -7.9388741e-20)
(0.87046039 0.00061793556 1.7078302e-20)
(0.92624581 0.0074700301 -4.2912458e-20)
(0.9764022 0.013932266 -1.6470815e-20)
(1.0207556 0.019852888 8.2727711e-20)
(1.0592921 0.02484613 3.6498943e-20)
(1.090396 0.025915283 -8.7871498e-20)
(0.01352978 -0.0055699792 3.8611328e-20)
(0.052128401 -0.019904305 2.0521367e-21)
(0.10418843 -0.029349307 2.3254602e-20)
(0.16615922 -0.035172112 1.0751578e-21)
(0.23542428 -0.038144546 -4.364707e-20)
(0.31009223 -0.038399513 2.110924e-20)
(0.388418 -0.036146779 1.4397519e-20)
(0.46873107 -0.031708993 -5.6565806e-20)
(0.54944604 -0.025453383 6.5043625e-20)
(0.62906223 -0.017773684 1.6977101e-20)
(0.70617697 -0.0090825067 -6.2950874e-20)
(0.77951583 0.0002025819 -2.1443012e-20)
(0.84797048 0.0096756901 9.7451453e-21)
(0.910636 0.018958584 2.713039e-20)
(0.96684114 0.027713937 -1.3074246e-20)
(1.0161647 0.035653273 3.2073043e-20)
(1.058441 0.042549453 -2.3445446e-20)
(1.0937808 0.048282285 -7.9637648e-20)
(1.1224444 0.052608737 -2.5230361e-20)
(1.1437188 0.05371922 5.3775264e-20)
(0.021176622 -0.0079765 2.5404497e-20)
(0.074324653 -0.025120233 5.4412405e-20)
(0.14047432 -0.034665343 2.1474296e-20)
(0.21579895 -0.038775712 1.4847556e-20)
(0.29741526 -0.038814807 1.9497288e-20)
(0.3831361 -0.035294933 -5.3029978e-20)
(0.47090746 -0.028762002 -2.8808781e-20)
(0.55876446 -0.019847163 0)
(0.6448713 -0.0091901413 1.7819646e-20)
(0.72754979 0.0025811888 -7.9343607e-21)
(0.80531748 0.01486191 -1.1171349e-19)
(0.87693447 0.027089394 -1.7576653e-20)
(0.94144651 0.038764503 7.4777344e-20)
(0.99821465 0.049469481 4.6634432e-22)
(1.0469255 0.058880097 -1.7873287e-21)
(1.0875787 0.066770187 2.4821915e-20)
(1.1204547 0.073015894 -5.5941224e-21)
(1.1460824 0.07762242 -6.8804152e-20)
(1.1651173 0.080582954 -5.163824e-20)
(1.1776228 0.08096374 7.4500552e-20)
(0.030352725 -0.0097095912 -3.7188913e-21)
(0.10022866 -0.028207924 -4.3341769e-21)
(0.18176169 -0.03638959 6.0255977e-20)
(0.27096382 -0.037422109 2.0705757e-20)
(0.36473162 -0.033339427 -3.5920599e-20)
(0.46060097 -0.025100461 1.27892e-20)
(0.55624435 -0.013643555 2.9573534e-21)
(0.64947175 5.1696532e-05 3.8505545e-20)
(0.73830802 0.015054804 6.4265712e-21)
(0.82105169 0.030510869 -1.5633431e-20)
(0.89633099 0.045656507 6.9477386e-20)
(0.96315232 0.059842706 -6.5324144e-20)
(1.0209282 0.072555314 -1.4949227e-19)
(1.069477 0.083426797 -6.2843128e-21)
(1.1089938 0.092237426 9.3022435e-20)
(1.1399944 0.09890565 0)
(1.1632416 0.10347454 1.1598586e-20)
(1.1796712 0.10611348 -1.6899967e-20)
(1.190275 0.10701342 -9.8720862e-21)
(1.195656 0.10577322 2.2490713e-20)
(0.040979065 -0.010462425 -4.6842253e-21)
(0.12944582 -0.028406354 4.5842504e-21)
(0.22720867 -0.033510559 -9.3161147e-21)
(0.33027251 -0.030021048 2.9883584e-20)
(0.43539774 -0.020702595 -3.2553589e-20)
(0.53990911 -0.007014147 -1.8714998e-20)
(0.64130135 0.0096789066 3.9408951e-20)
(0.73729789 0.028040789 4.780779e-21)
(0.825965 0.046873359 -2.8735646e-20)
(0.90579132 0.065148948 7.8490993e-20)
(0.97574307 0.082027104 -8.170486e-23)
(1.0352901 0.096872742 -9.0569933e-20)
(1.0843938 0.10926464 0)
(1.1234566 0.1189887 4.3775318e-20)
(1.1532411 0.12601671 5.9824422e-21)
(1.1747675 0.13047359 -8.5013341e-20)
(1.1892066 0.13260149 -2.1520719e-20)
(1.1977833 0.13273746 -1.3461277e-20)
(1.2016727 0.13122251 -1.6042748e-20)
(1.2017316 0.12797405 4.3782781e-20)
(0.052873046 -0.0099294401 -1.7350595e-20)
(0.1613155 -0.025009492 -4.4734353e-21)
(0.27559913 -0.025169005 3.1127459e-20)
(0.39191734 -0.015754849 3.7920566e-20)
(0.50702562 -0.00028687035 -2.1321746e-20)
(0.61816238 0.019254023 -7.625195e-20)
(0.72280709 0.041081139 -3.1737565e-20)
(0.81880017 0.063544143 8.7539653e-20)
(0.90448146 0.085253906 1.0312554e-20)
(0.97876877 0.10511548 -2.7305134e-20)
(1.0411856 0.12233456 1.4698957e-20)
(1.0918378 0.1364166 -4.8742986e-21)
(1.131342 0.14714836 0)
(1.1607145 0.15456015 2.9926202e-20)
(1.1812403 0.15887413 -8.6765699e-20)
(1.1943381 0.16044561 -3.438206e-20)
(1.2014396 0.1597078 8.7876763e-20)
(1.2038951 0.15713374 -5.2770114e-21)
(1.2028992 0.15315674 3.6681584e-21)
(1.1993445 0.14787445 2.9652239e-20)
(0.065743518 -0.0078344457 -3.2779691e-20)
(0.19491956 -0.017438073 -8.5998451e-20)
(0.32539109 -0.010754286 4.7489606e-22)
(0.45377107 0.0058211262 7.5833785e-20)
(0.57699064 0.028044475 6.7477208e-20)
(0.6923871 0.05344076 -7.6256078e-20)
(0.79764612 0.079863897 9.1010742e-22)
(0.8909728 0.10544978 9.5184285e-20)
(0.97122967 0.12874931 5.3755346e-20)
(1.0379851 0.14874747 -6.0036017e-20)
(1.0914857 0.16484237 -1.0164134e-19)
(1.1325641 0.17680789 -3.4647476e-21)
(1.1624997 0.18473464 4.6037677e-20)
(1.1828544 0.18895364 -7.0385504e-21)
(1.1953085 0.18995347 -1.3603643e-20)
(1.2015177 0.18830133 2.0692325e-20)
(1.2030041 0.18457835 4.7216641e-20)
(1.2010891 0.17933833 -4.6723176e-20)
(1.1968596 0.17304656 -1.0969277e-19)
(1.1911108 0.16589217 2.6837966e-20)
(0.079161413 -0.0039612272 -3.6800205e-20)
(0.2290445 -0.0053145571 -1.7774235e-19)
(0.37469309 0.010015648 8.9539035e-20)
(0.51339131 0.034721888 9.9933734e-20)
(0.64247214 0.063934861 6.1984396e-20)
(0.75960891 0.094775406 9.4200116e-21)
(0.8629518 0.12486374 -1.1518747e-19)
(0.95132644 0.15228096 0)
(1.0243399 0.17569223 -7.597484e-20)
(1.0823706 0.19433157 -1.6790346e-20)
(1.1264661 0.20793365 5.9620935e-20)
(1.1581768 0.2166449 1.1835322e-20)
(1.1793589 0.22091655 -4.9237694e-20)
(1.1919779 0.22139094 -5.2627426e-20)
(1.1979395 0.21879595 2.6391077e-20)
(1.1989658 0.21385853 4.8461045e-20)
(1.196521 0.20724437 -5.9738717e-20)
(1.1917853 0.19952597 -1.1475953e-19)
(1.1856662 0.19114891 -2.9760412e-21)
(1.1788017 0.18234128 2.8668007e-20)
(0.092543383 0.0018322398 -4.5045738e-21)
(0.26218804 0.011525741 9.2170658e-20)
(0.42130464 0.037102421 -1.2213765e-20)
(0.56810996 0.070561304 -9.237428e-20)
(0.7005919 0.10658361 4.8817165e-20)
(0.81702017 0.1420504 5.1572713e-20)
(0.91626534 0.17454228 6.0344239e-21)
(0.99799322 0.20229566 -1.077925e-19)
(1.0627087 0.22428996 -2.7227492e-21)
(1.1116676 0.24017486 5.4841312e-20)
(1.1466962 0.25013867 6.4588353e-21)
(1.1699629 0.25476079 -2.1449128e-20)
(1.1837477 0.25486004 -8.1348154e-20)
(1.1902434 0.25135517 -6.5152415e-21)
(1.1914106 0.24515241 4.6401215e-20)
(1.1888948 0.23706781 3.9335323e-20)
(1.1839999 0.22778454 2.0730776e-20)
(1.1777068 0.21783933 -5.7037669e-20)
(1.1707223 0.20762214 1.281413e-20)
(1.1635168 0.1973732 8.7023519e-20)
(-0.0013752145 0.0014829103 -4.6149187e-22)
(-0.0047869636 0.0031986296 1.6161038e-21)
(-0.010832355 0.0040457282 3.1307359e-21)
(-0.017543295 0.0043167051 7.5004435e-22)
(-0.024033198 0.0041907773 -3.6405936e-21)
(-0.029875903 0.003790438 3.7680861e-21)
(-0.034794807 0.0032046837 -1.0434524e-20)
(-0.038619497 0.0024971643 -8.9607655e-21)
(-0.041263118 0.0017127393 1.5472309e-20)
(-0.042693058 0.00088281676 -1.3092544e-20)
(-0.042910297 2.9126331e-05 -2.1037829e-22)
(-0.041936554 -0.0008335719 4.8318659e-21)
(-0.039805672 -0.0016954493 -7.4036994e-22)
(-0.036557746 -0.0025500112 2.8632228e-20)
(-0.032235491 -0.0033926748 2.2962582e-22)
(-0.026883786 -0.0042192571 -5.0346833e-20)
(-0.020552249 -0.0050253009 9.4512083e-21)
(-0.013286948 -0.005808802 2.8687387e-20)
(-0.0051016297 -0.0065683245 -5.2383126e-20)
(0.003935827 -0.0072530206 -3.287537e-20)
(-0.0017336837 0.0043097284 -6.1472469e-21)
(-0.0053885299 0.0092695617 8.1289833e-21)
(-0.011128934 0.011699479 -1.0955449e-20)
(-0.0171713 0.012448339 8.1611533e-21)
(-0.022735236 0.012038496 9.4385617e-21)
(-0.027448851 0.010829073 1.2059756e-21)
(-0.031073554 0.0090811108 -3.4622041e-20)
(-0.033466431 0.006981261 -2.7183346e-21)
(-0.034559099 0.0046610971 2.7452845e-20)
(-0.034330985 0.0022127449 -6.7121881e-21)
(-0.032790735 -0.00030007047 -2.8431819e-20)
(-0.029964705 -0.0028340807 6.2673814e-21)
(-0.025889275 -0.0053605123 2.8025656e-20)
(-0.020605496 -0.007860403 1.2843523e-20)
(-0.014155346 -0.010320437 2.7346651e-20)
(-0.006582268 -0.012728696 -2.4124237e-20)
(0.002058716 -0.015072644 -2.600509e-20)
(0.011708849 -0.017345773 2.5938506e-20)
(0.022426841 -0.019533197 3.1551096e-20)
(0.034410277 -0.021461288 1.7974371e-20)
(-0.0023760277 0.0067249684 -5.0022198e-21)
(-0.0064172859 0.0143833 -3.680969e-21)
(-0.011494067 0.018083784 -3.1308364e-22)
(-0.0161775 0.019142867 -1.8950592e-21)
(-0.019889913 0.018376914 8.8084173e-21)
(-0.022364125 0.01635458 1.366195e-20)
(-0.023435386 0.01349018 -5.4050636e-21)
(-0.0230143 0.010080199 -2.5017992e-20)
(-0.021068823 0.0063340399 8.6930057e-21)
(-0.017602605 0.0023986177 1.6807476e-20)
(-0.012640377 -0.0016242767 7.9045641e-21)
(-0.0062190796 -0.0056654562 2.2461397e-20)
(0.0016180306 -0.0096789956 2.1557608e-21)
(0.010825604 -0.013634971 -4.112196e-20)
(0.021359924 -0.017512658 2.0659332e-21)
(0.033177279 -0.021293971 -2.5531078e-20)
(0.04621098 -0.024961984 -3.0177849e-20)
(0.060374348 -0.028508224 5.5376533e-20)
(0.075844317 -0.031878813 3.0705983e-20)
(0.093330732 -0.034700233 1.0172705e-21)
(-0.0031715785 0.0085053581 -6.4194812e-21)
(-0.0075771231 0.018015013 -1.5292598e-20)
(-0.011561613 0.022498969 4.6658925e-21)
(-0.014179283 0.02360816 5.4756439e-21)
(-0.015131002 0.022377613 2.2730232e-21)
(-0.014296351 0.019543372 1.0684184e-20)
(-0.011615713 0.015643626 1.2878571e-20)
(-0.0070771029 0.011063877 -1.9931588e-21)
(-0.00070251559 0.0060771937 -1.4982636e-20)
(0.0074667353 0.0008757498 -3.7262792e-20)
(0.01737909 -0.0044069626 3.1333974e-22)
(0.028977562 -0.0096800382 5.0531854e-20)
(0.042203669 -0.014883404 -2.1900797e-20)
(0.056998964 -0.019978143 -1.495204e-20)
(0.073308946 -0.024938361 -7.9044633e-23)
(0.091081469 -0.029743574 3.9000205e-20)
(0.11023069 -0.034379759 -1.8904875e-20)
(0.13062277 -0.038846711 -6.2562223e-20)
(0.15255341 -0.043028767 5.2621274e-20)
(0.177451 -0.046234921 3.8441083e-20)
(-0.0039468607 0.0095025306 -1.2105946e-22)
(-0.0084659738 0.01980237 -1.4404374e-20)
(-0.010822132 0.024451277 -4.4710483e-20)
(-0.01063079 0.025278996 -8.934028e-21)
(-0.0079214296 0.023448758 -2.9823995e-21)
(-0.0027515602 0.019811977 8.5816271e-21)
(0.0048080866 0.014993847 -6.6618684e-21)
(0.0146711 0.0094422762 -1.1720138e-20)
(0.026744088 0.0034754178 2.7702945e-20)
(0.040932845 -0.0026822251 6.0263482e-21)
(0.057145456 -0.008874109 -3.2241601e-20)
(0.075291646 -0.014993301 1.3193824e-20)
(0.095282933 -0.020969056 0)
(0.11703285 -0.026756626 1.4540235e-20)
(0.14045976 -0.032328377 -1.1581241e-20)
(0.1654863 -0.037666367 -1.7379159e-20)
(0.19199338 -0.042769427 -1.9750215e-22)
(0.21977801 -0.047666522 -3.2061107e-21)
(0.24921008 -0.052181386 5.1328351e-20)
(0.28256896 -0.055171879 -1.408935e-20)
(-0.004505687 0.0096525138 -8.2088105e-21)
(-0.0086129888 0.019572099 2.968014e-20)
(-0.0086577133 0.023694621 -1.3895841e-20)
(-0.0048464677 0.0238721 -3.3826514e-20)
(0.0024381932 0.021301484 -3.2277583e-20)
(0.012940901 0.016893389 -1.8661735e-20)
(0.026441909 0.011318616 -1.2215928e-21)
(0.042738527 0.0050565835 7.0183518e-21)
(0.061649571 -0.0015512572 2.4028772e-20)
(0.083011657 -0.0082629609 8.9936703e-21)
(0.10667318 -0.014909643 -8.5670138e-21)
(0.13249085 -0.021375904 -1.8770907e-21)
(0.16032558 -0.027585915 -4.59738e-20)
(0.19003955 -0.033493304 -1.5135451e-20)
(0.22149772 -0.039072788 2.3235007e-20)
(0.25456929 -0.044314339 -2.547031e-20)
(0.28907877 -0.049239781 -1.0552032e-20)
(0.32473097 -0.053934987 3.4132161e-20)
(0.36189626 -0.058200631 5.6699803e-20)
(0.40373547 -0.060343353 4.0440936e-21)
(-0.0046466272 0.0089705562 1.8135542e-20)
(-0.0075141515 0.01733958 1.5750635e-20)
(-0.0043797716 0.020243299 5.9638098e-20)
(0.0039663013 0.019414016 2.8527534e-20)
(0.016785266 0.015992118 2.2841861e-22)
(0.033613801 0.010891112 -4.854524e-20)
(0.054070311 0.0047848198 -2.9316893e-20)
(0.077822006 -0.0018474122 1.269136e-20)
(0.10458021 -0.0086648758 1.7387005e-20)
(0.13408992 -0.015426287 -1.5393492e-20)
(0.166117 -0.021963853 -5.3188805e-20)
(0.2004384 -0.028164335 3.5679338e-20)
(0.23683436 -0.033955376 2.3357889e-20)
(0.27508264 -0.039296223 -3.2668274e-20)
(0.31495833 -0.04417081 1.4049915e-20)
(0.35623813 -0.048584387 2.8230335e-20)
(0.39865674 -0.052591663 9.6995418e-21)
(0.44180428 -0.056364671 -1.4639419e-20)
(0.48596917 -0.059757754 -1.5053329e-20)
(0.53510604 -0.060518217 9.8371541e-21)
(-0.0041746117 0.0075363966 1.2500463e-20)
(-0.004660975 0.013286617 -2.8258764e-20)
(0.0027334411 0.014355867 8.2868183e-21)
(0.016665443 0.012235514 3.9826194e-20)
(0.036050874 0.0079271306 6.0416769e-20)
(0.060215927 0.0022945354 2.3993132e-20)
(0.088607228 -0.0040261566 -6.8888111e-21)
(0.12074275 -0.010589506 -1.4560476e-20)
(0.15620493 -0.017081094 -7.5207765e-21)
(0.19462042 -0.023280804 4.082399e-20)
(0.23564002 -0.029039161 -5.8234951e-21)
(0.27892403 -0.034259844 -2.0101914e-20)
(0.32413136 -0.038887252 -2.2978871e-20)
(0.37091205 -0.042898679 -5.6112607e-20)
(0.4189067 -0.04629939 2.7028335e-20)
(0.46775514 -0.04912215 -1.6401333e-20)
(0.51706743 -0.051468213 3.0603329e-20)
(0.56631113 -0.053628834 2.4681699e-20)
(0.61563732 -0.055628231 -9.4766723e-20)
(0.66959902 -0.054817997 9.0594384e-22)
(-0.002908322 0.0054779048 2.404044e-20)
(0.00043216687 0.0077340655 -3.0426201e-20)
(0.013387758 0.0065122655 -5.0778909e-20)
(0.034101571 0.0029594657 -3.1364635e-20)
(0.061162969 -0.0021341073 -2.3832376e-21)
(0.093683634 -0.0080041834 1.5462145e-20)
(0.13092529 -0.014092876 -3.3517467e-21)
(0.17223741 -0.020021765 2.1172353e-20)
(0.21704483 -0.025531245 1.0330545e-20)
(0.26482007 -0.030447003 -1.3368393e-20)
(0.31505758 -0.034659953 1.0833459e-20)
(0.36725585 -0.038111043 -2.8203094e-20)
(0.42090538 -0.040780233 1.0200264e-20)
(0.4754814 -0.042679552 1.9789532e-20)
(0.53044405 -0.043848842 -3.5518458e-21)
(0.5852496 -0.044357059 2.2584333e-21)
(0.63933778 -0.044353861 -9.5415766e-22)
(0.69204099 -0.044233548 2.3235808e-20)
(0.74335365 -0.044205565 3.9088296e-21)
(0.7981975 -0.041711052 -4.4422018e-21)
(-0.00068066415 0.0029583185 2.6545604e-20)
(0.0082081364 0.0011242103 6.5443111e-20)
(0.028217492 -0.0025921562 -5.4856658e-20)
(0.057017575 -0.0074840502 -1.1353303e-20)
(0.092888071 -0.013044823 2.3326206e-20)
(0.13472321 -0.018658024 2.4547863e-21)
(0.18158444 -0.023885534 -3.426166e-20)
(0.23262607 -0.028453827 8.0956237e-21)
(0.2870796 -0.032192488 8.2036358e-21)
(0.34422182 -0.03500513 -3.0576087e-20)
(0.40334722 -0.036853755 1.4979897e-21)
(0.46375168 -0.03774582 -4.3685078e-20)
(0.52472464 -0.037723568 -4.2765565e-20)
(0.58554773 -0.036855468 7.7354653e-20)
(0.64549934 -0.035228707 6.5383077e-21)
(0.70386319 -0.032947748 -1.7755514e-20)
(0.75991573 -0.030172839 2.2492306e-20)
(0.81285665 -0.027203176 -1.0388333e-21)
(0.86225392 -0.024069932 2.1868052e-20)
(0.91171313 -0.019307581 -2.4069687e-20)
(0.014680462 -0.0075465016 6.8990185e-20)
(0.027250534 -0.0080429292 1.7788926e-20)
(0.041294858 -0.0084307421 -3.9697701e-20)
(0.05644837 -0.0086342577 1.9412337e-20)
(0.072413862 -0.0087409823 0)
(0.089112655 -0.0087828467 0)
(0.10647379 -0.0087632048 -2.5164657e-20)
(0.12440445 -0.008690386 -1.7743701e-20)
(0.14281988 -0.0085749394 2.085681e-20)
(0.16164772 -0.0084247187 1.945139e-20)
(0.18082159 -0.0082457085 1.0208781e-21)
(0.20027902 -0.0080431817 -1.0574151e-20)
(0.21996183 -0.0078217717 8.9569549e-21)
(0.23981591 -0.0075854272 1.8292101e-20)
(0.25979066 -0.0073375316 -5.6871734e-21)
(0.27983853 -0.0070810209 -9.9287847e-21)
(0.29991487 -0.0068184525 -4.1535214e-21)
(0.31997776 -0.0065520583 -4.02756e-21)
(0.33998784 -0.0062837931 6.2910706e-22)
(0.35990825 -0.0060153735 1.1842827e-21)
(0.37970459 -0.0057483086 2.5982622e-21)
(0.39934489 -0.005483923 6.1990046e-21)
(0.41879961 -0.0052233762 -3.1280848e-23)
(0.43804163 -0.0049676768 -3.1747462e-21)
(0.45704627 -0.0047176947 8.5798327e-23)
(0.47579124 -0.0044741709 -5.1785651e-22)
(0.49425669 -0.0042377263 1.1017133e-21)
(0.5124251 -0.00400887 8.3281655e-22)
(0.53028129 -0.0037880065 -1.277591e-21)
(0.54781236 -0.0035754438 -6.3706093e-23)
(0.56500758 -0.003371401 -1.7256444e-22)
(0.58185833 -0.0031760162 -2.9130006e-22)
(0.598358 -0.0029893546 -4.1715055e-22)
(0.61450189 -0.0028114167 1.4861479e-22)
(0.63028712 -0.0026421466 -1.0915391e-22)
(0.64571251 -0.0024814404 -1.530673e-22)
(0.66077848 -0.0023291547 1.7154858e-22)
(0.67548704 -0.0021851151 1.8529533e-22)
(0.68984159 -0.0020491267 -7.3027878e-23)
(0.70384733 -0.0019209792 -1.7648198e-22)
(0.71750995 -0.0018004768 -8.2464775e-24)
(0.73084014 -0.0016873943 7.0455506e-25)
(0.74384031 -0.0015816945 5.8124264e-23)
(0.75654672 -0.0014829484 -7.9835453e-23)
(0.76890565 -0.0013923494 -1.6612548e-22)
(0.78114594 -0.0013067714 2.7350192e-23)
(0.79269914 -0.001237882 1.6820773e-23)
(0.80534634 -0.001155017 -7.9247819e-24)
(0.81422823 -0.0011606708 1.9956554e-23)
(0.83295341 -0.00099698309 3.8833203e-22)
(0.046331861 -0.022204914 -1.5990243e-20)
(0.057777898 -0.023713117 -7.2767793e-20)
(0.071188057 -0.02485402 -3.5936202e-20)
(0.085683538 -0.025432709 4.3991454e-20)
(0.10084269 -0.025738323 1.6602092e-20)
(0.11667007 -0.025863567 -2.1018051e-20)
(0.13312986 -0.025810453 6.0269155e-21)
(0.15013255 -0.025601912 2.7499927e-20)
(0.16760094 -0.025269302 -6.2368629e-22)
(0.18547279 -0.024835222 -8.4731753e-21)
(0.20368931 -0.024316614 -1.2720836e-20)
(0.22219369 -0.023728621 -9.4257214e-21)
(0.2409325 -0.023084653 1.8168395e-20)
(0.25985565 -0.022396152 1.0650472e-20)
(0.2789157 -0.021672948 -1.5734529e-20)
(0.29806772 -0.020923609 -5.9551527e-21)
(0.31726909 -0.020155629 2.930878e-21)
(0.33647952 -0.019375575 7.7384861e-21)
(0.35566091 -0.018589219 6.842795e-21)
(0.37477741 -0.017801651 -7.2179944e-21)
(0.39379532 -0.017017358 -3.7023692e-21)
(0.41268322 -0.016240294 1.8931946e-21)
(0.43141191 -0.01547393 1.0928592e-21)
(0.44995448 -0.014721292 1.293803e-21)
(0.46828629 -0.013985002 3.2359401e-22)
(0.48638503 -0.013267297 -4.4562203e-22)
(0.50423068 -0.012570059 -7.8380529e-22)
(0.52180548 -0.01189484 1.2216316e-21)
(0.53909394 -0.011242877 9.3827587e-22)
(0.55608273 -0.010615123 -4.6074398e-22)
(0.57276068 -0.010012262 6.6168475e-22)
(0.58911863 -0.0094347389 -1.9823643e-22)
(0.60514941 -0.0088827785 -4.7677178e-22)
(0.6208477 -0.0083564126 -6.3751123e-22)
(0.63620996 -0.0078555034 3.5022948e-22)
(0.65123433 -0.0073797691 -2.6370874e-22)
(0.66592052 -0.0069288092 3.1509926e-22)
(0.68026983 -0.006502129 -5.0285732e-22)
(0.6942849 -0.0060991725 5.6667379e-22)
(0.7079702 -0.0057193351 4.9061869e-23)
(0.72133067 -0.0053620565 1.4061326e-23)
(0.73437623 -0.0050266848 2.7454488e-22)
(0.74710858 -0.0047131327 3.7317921e-22)
(0.75956302 -0.0044201327 2.9526216e-22)
(0.77168575 -0.0041512824 3.3606482e-22)
(0.78370266 -0.0038972293 -3.0626003e-24)
(0.79505088 -0.0036928922 1.732467e-22)
(0.80749039 -0.0034466112 1.4827038e-22)
(0.81622029 -0.0034642195 -2.1593667e-22)
(0.83467006 -0.0029773573 3.7260999e-23)
(0.10737731 -0.035550024 1.1654296e-20)
(0.11663679 -0.038082472 4.7938656e-21)
(0.12870629 -0.039928726 -1.6488221e-20)
(0.14188023 -0.040816964 -2.334543e-21)
(0.1554389 -0.041297385 1.7896322e-20)
(0.16954612 -0.041516905 -1.6747038e-20)
(0.18424233 -0.041457096 -3.4056096e-20)
(0.19944102 -0.041149584 1.6778597e-20)
(0.21507623 -0.040645529 2.0573897e-20)
(0.23110432 -0.039980029 -1.2938616e-20)
(0.24748026 -0.039178437 1.0865493e-21)
(0.26415699 -0.03826397 7.9729344e-21)
(0.28108927 -0.037257563 -1.6583692e-20)
(0.29823387 -0.03617716 5.2146532e-21)
(0.31554887 -0.035038256 8.2601447e-21)
(0.33299362 -0.033854465 -1.4271029e-21)
(0.35052898 -0.032637799 -6.3326123e-22)
(0.36811732 -0.031398862 -7.9968865e-21)
(0.38572265 -0.030147044 5.3603868e-21)
(0.40331065 -0.028890679 8.9632922e-21)
(0.42084881 -0.027637163 -3.99392e-21)
(0.43830649 -0.026393052 -2.1015074e-21)
(0.45565501 -0.02516413 6.73685e-22)
(0.47286768 -0.02395547 -1.8706665e-21)
(0.48991992 -0.022771488 1.2372193e-21)
(0.50678923 -0.021615974 6.5052376e-22)
(0.52345525 -0.020492141 2.2455235e-21)
(0.53989972 -0.01940265 -2.5309235e-21)
(0.55610649 -0.018349654 2.8572501e-21)
(0.57206149 -0.017334826 6.5423696e-22)
(0.58775263 -0.016359403 9.5920132e-22)
(0.60316981 -0.015424217 2.6796743e-22)
(0.61830477 -0.014529738 1.250698e-21)
(0.63315104 -0.013676115 -1.8629085e-21)
(0.64770389 -0.01286321 5.3605694e-22)
(0.66196018 -0.012090649 4.0236506e-22)
(0.67591834 -0.011357853 -1.3529039e-22)
(0.6895783 -0.010664088 -1.0185556e-22)
(0.70294137 -0.010008513 -4.4744941e-22)
(0.71601063 -0.0093902046 2.8897731e-22)
(0.72878963 -0.008808309 -2.1085958e-23)
(0.74128687 -0.0082618153 7.8973331e-22)
(0.75350279 -0.0077506496 -3.5825933e-22)
(0.76547088 -0.0072727639 2.0849862e-23)
(0.77713714 -0.0068341932 1.2482414e-22)
(0.78872199 -0.0064194647 -1.2472154e-22)
(0.79967311 -0.0060863956 -2.1298539e-22)
(0.81171009 -0.0056836147 7.0979076e-22)
(0.82014477 -0.0057146222 1.9234595e-22)
(0.83805976 -0.0049175025 -8.8394038e-22)
(0.19415978 -0.046725686 2.3511326e-21)
(0.20025505 -0.050271916 -1.2221657e-20)
(0.21018067 -0.052751669 6.5075847e-21)
(0.22134659 -0.053876867 -1.5339825e-20)
(0.23253638 -0.054519118 -2.2554741e-21)
(0.24411573 -0.054865825 1.1346811e-20)
(0.25625011 -0.054855624 -1.284143e-20)
(0.2688539 -0.054519709 3.7337314e-22)
(0.28186936 -0.053926015 1.4152998e-20)
(0.29527656 -0.053119214 4.5377887e-21)
(0.30904835 -0.05212983 -6.6577799e-21)
(0.32314917 -0.050986486 -3.8213519e-21)
(0.3375432 -0.049715766 -5.0318439e-21)
(0.35219524 -0.048340778 -7.3434535e-21)
(0.36706967 -0.046881664 2.0166918e-21)
(0.38213075 -0.045356323 -6.5950798e-22)
(0.39734307 -0.043780752 1.9137941e-21)
(0.41267192 -0.042169241 -3.3763693e-21)
(0.42808349 -0.04053458 -5.1509418e-21)
(0.44354505 -0.038888229 2.788049e-21)
(0.45902519 -0.037240446 4.0010221e-21)
(0.47449398 -0.035600398 -2.3003677e-21)
(0.48992308 -0.033976232 1.849429e-21)
(0.50528589 -0.032375146 -7.1341321e-22)
(0.52055763 -0.030803446 -4.9470214e-21)
(0.5357154 -0.029266589 -3.1046602e-21)
(0.55073823 -0.027769233 -4.685473e-22)
(0.56560708 -0.026315282 1.1409785e-22)
(0.58030484 -0.02490793 -2.1951852e-21)
(0.59481634 -0.023549707 -1.4290361e-21)
(0.60912828 -0.022242531 1.9435693e-22)
(0.62322919 -0.02098776 -1.6409383e-21)
(0.63710937 -0.01978624 -1.8116443e-22)
(0.65076081 -0.018638366 -6.5549722e-22)
(0.66417715 -0.017544133 -3.8275778e-22)
(0.67735358 -0.016503198 -9.7903281e-22)
(0.69028678 -0.01551493 -1.4203307e-21)
(0.70297491 -0.014578475 5.973331e-23)
(0.71541746 -0.013692824 -2.7726155e-24)
(0.72761567 -0.012856847 -7.7910494e-22)
(0.73957128 -0.012069505 1.0944547e-22)
(0.75129087 -0.011329529 -5.7422894e-22)
(0.76277318 -0.010636951 -9.298613e-22)
(0.77404928 -0.00998904 6.8548865e-22)
(0.78506497 -0.0093942858 1.1568688e-23)
(0.79603297 -0.0088313384 3.4524437e-22)
(0.80641622 -0.0083801311 -2.5391154e-22)
(0.81787614 -0.007832203 -4.7599527e-22)
(0.8258876 -0.0078782641 2.9330243e-23)
(0.8430326 -0.0067923854 5.2220143e-22)
(0.30191734 -0.054869212 -2.6433003e-20)
(0.30393081 -0.059417899 5.4004103e-20)
(0.31080753 -0.062451743 1.1390228e-20)
(0.31922643 -0.063770839 -1.8265912e-20)
(0.32731547 -0.064602767 -3.3111112e-21)
(0.33562234 -0.065147575 1.9350981e-21)
(0.34448218 -0.065284612 -2.8520875e-21)
(0.35381328 -0.065035025 -5.1896195e-21)
(0.36355529 -0.064476082 -4.4269725e-21)
(0.37371042 -0.06365827 -1.3344279e-20)
(0.38427076 -0.062614755 2.0676474e-20)
(0.39521155 -0.061376872 7.8688105e-21)
(0.40650497 -0.05997465 -1.7776759e-20)
(0.4181227 -0.058434949 9.3411048e-21)
(0.43003455 -0.056781618 7.2089501e-21)
(0.44220876 -0.055036176 5.0516689e-22)
(0.45461287 -0.053218156 -2.2403052e-21)
(0.46721429 -0.051345291 -5.0826722e-21)
(0.47998068 -0.049433663 -1.9679024e-21)
(0.49288026 -0.04749785 -1.7346299e-21)
(0.50588214 -0.045551038 -3.9794913e-21)
(0.51895655 -0.043605114 0)
(0.53207501 -0.041670737 -1.7611563e-21)
(0.54521056 -0.039757395 4.0912445e-21)
(0.5583378 -0.037873462 6.2037709e-21)
(0.57143305 -0.036026249 -8.5027063e-22)
(0.58447435 -0.034222051 -3.9461095e-21)
(0.59744155 -0.032466198 4.2440435e-21)
(0.61031628 -0.030763115 -3.3773193e-22)
(0.62308196 -0.029116373 4.3888065e-21)
(0.63572378 -0.027528754 -4.5841147e-22)
(0.64822865 -0.026002312 1.9513134e-21)
(0.66058514 -0.024538446 -1.1000279e-21)
(0.67278346 -0.023137964 6.3173184e-22)
(0.68481535 -0.021801156 -7.2563541e-22)
(0.69667408 -0.020527866 6.2356616e-22)
(0.70835434 -0.019317567 6.7975435e-22)
(0.71985225 -0.01816943 5.7394135e-22)
(0.73116527 -0.017082421 -1.3855145e-21)
(0.74229254 -0.01605534 9.9558767e-22)
(0.75323372 -0.015087089 -5.0533001e-22)
(0.76399324 -0.014176269 -1.8198602e-21)
(0.77456789 -0.013323124 2.3222638e-21)
(0.78498591 -0.01252436 -4.2323546e-23)
(0.79519309 -0.011790921 -2.6695662e-22)
(0.80539256 -0.011095929 -5.5515757e-24)
(0.81506685 -0.010540273 -3.1320076e-22)
(0.82580359 -0.0098621771 -8.0677587e-22)
(0.83328509 -0.0099250123 6.2416777e-22)
(0.84945881 -0.0085790832 -5.9826182e-23)
(0.4250786 -0.059005331 -2.2241618e-20)
(0.42217749 -0.064611768 1.395435e-20)
(0.42505035 -0.068171431 5.3052521e-21)
(0.42994153 -0.069734768 -8.9378501e-21)
(0.43427034 -0.07086652 1.3860115e-20)
(0.4386692 -0.071737528 8.9055975e-21)
(0.44366142 -0.072171265 -1.3300105e-20)
(0.44918662 -0.072176231 -6.7905182e-21)
(0.45516782 -0.071826406 1.4067503e-20)
(0.46161705 -0.071171539 -1.8611915e-20)
(0.46854258 -0.070245971 -1.5237114e-20)
(0.47592835 -0.06908225 1.7204897e-20)
(0.48375097 -0.067712041 7.3432862e-21)
(0.49198577 -0.066164784 -6.86009e-21)
(0.50060552 -0.064467489 -5.0155826e-22)
(0.50958044 -0.062645012 -2.8393598e-21)
(0.51887924 -0.060720322 4.0187776e-21)
(0.52846992 -0.058714627 3.7198951e-21)
(0.53832032 -0.056647455 -2.9386355e-21)
(0.54839848 -0.054536721 3.0997301e-21)
(0.55867304 -0.0523988 3.2798902e-21)
(0.56911352 -0.050248586 -3.6608265e-21)
(0.57969059 -0.048099542 3.6133339e-22)
(0.59037622 -0.045963743 -3.0728056e-21)
(0.60114385 -0.043851923 9.6943009e-21)
(0.61196848 -0.041773526 7.2333332e-21)
(0.62282677 -0.039736756 1.4423485e-21)
(0.63369704 -0.037748631 -1.9600908e-21)
(0.64455933 -0.03581505 5.2455864e-21)
(0.65539539 -0.033940861 9.5628301e-21)
(0.66618864 -0.032129931 2.5602353e-21)
(0.67692417 -0.030385228 4.3801701e-21)
(0.68758866 -0.0287089 2.3913642e-21)
(0.69817036 -0.027102363 1.0398897e-21)
(0.70865905 -0.025566384 -2.155357e-22)
(0.71904593 -0.024101172 3.7177642e-21)
(0.72932364 -0.022706468 8.2420772e-22)
(0.7394862 -0.021381632 3.596931e-22)
(0.74952895 -0.020125755 5.82045e-23)
(0.7594489 -0.018937712 1.5807544e-21)
(0.76924357 -0.017816485 3.4460629e-23)
(0.77891517 -0.016760672 7.9637928e-22)
(0.78845854 -0.015770842 -1.2630214e-22)
(0.79789889 -0.014843266 -5.9702875e-22)
(0.80718228 -0.013991321 -2.7586439e-22)
(0.81650084 -0.013183013 -7.464696e-22)
(0.8253605 -0.012538739 3.554163e-22)
(0.83526199 -0.011748025 -2.150114e-22)
(0.84213249 -0.011829341 -3.5913998e-22)
(0.85717448 -0.010257393 3.3905764e-22)
(0.55723763 -0.058235165 3.1085799e-21)
(0.54883892 -0.064974937 -1.9984188e-20)
(0.54682899 -0.069097835 -3.0440379e-21)
(0.54745747 -0.071115977 6.0601481e-21)
(0.54753778 -0.072794248 4.477085e-21)
(0.54760133 -0.074205898 1.6708791e-21)
(0.5483212 -0.075146774 8.8288946e-21)
(0.54969848 -0.075627337 9.0339552e-21)
(0.5516381 -0.075708558 1.0526428e-20)
(0.55414002 -0.075430927 -1.287631e-20)
(0.55721802 -0.074828142 -2.5183937e-20)
(0.56086165 -0.073933934 -5.465306e-21)
(0.56504837 -0.072781182 1.8263509e-20)
(0.56975296 -0.071401557 1.4397511e-20)
(0.57494797 -0.06982529 -5.4798294e-21)
(0.58060319 -0.068080912 1.0819949e-22)
(0.58668653 -0.066195238 -5.0721905e-21)
(0.59316492 -0.064193406 4.5134483e-21)
(0.60000492 -0.062098865 -2.9704213e-22)
(0.60717323 -0.05993336 -2.1419638e-21)
(0.61463697 -0.057716933 9.6268629e-21)
(0.62236409 -0.05546795 -8.2068422e-22)
(0.63032359 -0.053203118 9.0843405e-22)
(0.63848572 -0.050937515 -1.3584759e-22)
(0.64682215 -0.048684628 -4.8622704e-21)
(0.65530606 -0.046456396 4.7307164e-21)
(0.66391227 -0.044263269 1.745097e-21)
(0.67261721 -0.042114269 -3.6707207e-21)
(0.68139903 -0.040017062 -4.0262282e-21)