/*--------------------------------*- C++ -*----------------------------------*\
  =========                 |
  \\      /  F ield         | OpenFOAM: The Open Source CFD Toolbox
   \\    /   O peration     | Website:  https://openfoam.org
    \\  /    A nd           | Version:  6
     \\/     M anipulation  |
\*---------------------------------------------------------------------------*/
FoamFile
{
    version     2.0;
    format      ascii;
    class       volScalarField;
    location    "329";
    object      p;
}
// * * * * * * * * * * * * * * * * * * * * * * * * * * * * * * * * * * * * * //

dimensions      [0 2 -2 0 0 0 0];

internalField   nonuniform List<scalar> 
9200
(
-0.377949
-0.36660252
-0.35650885
-0.34755956
-0.33881987
-0.33030363
-0.32208915
-0.31414391
-0.30640059
-0.29878726
-0.29123098
-0.28366269
-0.27602424
-0.26827563
-0.26040561
-0.25244947
-0.24448354
-0.23659565
-0.22981071
-0.22841077
-0.39580971
-0.38201205
-0.36997475
-0.35950567
-0.34939395
-0.33962104
-0.33025569
-0.32123464
-0.31245839
-0.30382858
-0.29525206
-0.28664659
-0.27794851
-0.26911861
-0.26014781
-0.25106107
-0.24188824
-0.23262903
-0.2239664
-0.21806628
-0.41408739
-0.39781572
-0.38388071
-0.37196228
-0.36053385
-0.34952625
-0.33898696
-0.32881427
-0.31887448
-0.30904675
-0.29922679
-0.28933251
-0.27931085
-0.26914086
-0.25883356
-0.24842762
-0.23796181
-0.22744509
-0.21727669
-0.20857167
-0.43234798
-0.41362142
-0.39785407
-0.3845479
-0.37182301
-0.35954327
-0.34772702
-0.33623358
-0.32490304
-0.31360737
-0.30225195
-0.29077853
-0.27916843
-0.26744029
-0.25564342
-0.24384761
-0.23211943
-0.22049776
-0.20925001
-0.19911731
-0.44996157
-0.42888314
-0.41140019
-0.39678335
-0.3827717
-0.36915134
-0.35591134
-0.34288272
-0.32989984
-0.31685463
-0.30369181
-0.29040521
-0.27703359
-0.26365078
-0.25035229
-0.23724103
-0.22440706
-0.2119089
-0.19993475
-0.18899202
-0.46610365
-0.44288188
-0.42385896
-0.4080209
-0.39271593
-0.37765246
-0.36280274
-0.34799511
-0.33309235
-0.31804271
-0.30286311
-0.28762414
-0.27243569
-0.25742892
-0.24273797
-0.22848486
-0.21476426
-0.20163203
-0.18921418
-0.17784746
-0.4797691
-0.45473133
-0.43440576
-0.41744657
-0.40082798
-0.38419657
-0.36753555
-0.35071131
-0.33365956
-0.31642422
-0.29912265
-0.28191598
-0.26498439
-0.24850352
-0.23262581
-0.21746915
-0.20310923
-0.18957715
-0.17693978
-0.16539832
-0.48979411
-0.46340133
-0.44208379
-0.42412703
-0.40618102
-0.38786435
-0.36921389
-0.35018632
-0.33083868
-0.31134552
-0.29194196
-0.2728793
-0.25439334
-0.23668094
-0.21988686
-0.20410092
-0.18936028
-0.17565683
-0.16299945
-0.1514754
-0.49483646
-0.46761664
-0.44560707
-0.42672653
-0.40739908
-0.38727748
-0.36651222
-0.34520748
-0.32358122
-0.30195418
-0.28067264
-0.26005546
-0.24036329
-0.22178288
-0.20442502
-0.18833285
-0.17349425
-0.15985759
-0.14737778
-0.13604456
-0.49354573
-0.46596036
-0.44342802
-0.42357973
-0.40276041
-0.38074055
-0.35784968
-0.33438534
-0.31074015
-0.28736421
-0.26467765
-0.24302147
-0.22263839
-0.20367207
-0.18617893
-0.17014679
-0.15551467
-0.14219311
-0.13009025
-0.11911097
-0.265067
-0.26974128
-0.27224969
-0.27300083
-0.27278671
-0.2717942
-0.27010476
-0.26780593
-0.2649699
-0.26165142
-0.25789452
-0.25373672
-0.24921114
-0.24434783
-0.23917507
-0.23372174
-0.22801872
-0.22208654
-0.21592422
-0.2096173
-0.26779964
-0.27205867
-0.27426033
-0.2747928
-0.27439561
-0.27324688
-0.27142617
-0.26901731
-0.26608896
-0.26269299
-0.25887105
-0.25465853
-0.25008665
-0.24518349
-0.23997471
-0.23448817
-0.22876222
-0.22281575
-0.21654146
-0.20991342
-0.27312911
-0.27657608
-0.27817976
-0.2782845
-0.27752839
-0.27607411
-0.2739977
-0.27137574
-0.26826993
-0.26472654
-0.26078239
-0.25646864
-0.25181275
-0.24683893
-0.24156802
-0.23602502
-0.23025969
-0.22428977
-0.21781617
-0.21058113
-0.28081554
-0.28309999
-0.28383814
-0.28331416
-0.28202513
-0.28011418
-0.27765338
-0.27470943
-0.27133438
-0.26756666
-0.26343622
-0.25896815
-0.25418434
-0.24910333
-0.24373913
-0.23811158
-0.23228239
-0.22627392
-0.21954069
-0.21145513
-0.29055662
-0.29138736
-0.29102394
-0.2896827
-0.2876918
-0.28517359
-0.28219694
-0.27881729
-0.27507526
-0.27100005
-0.26661335
-0.26193197
-0.2569703
-0.25173993
-0.24624676
-0.24050228
-0.23457616
-0.22850396
-0.22148102
-0.21236502
-0.30203859
-0.301186
-0.29951977
-0.29718922
-0.29433679
-0.2910654
-0.28744298
-0.28351394
-0.27930692
-0.27483944
-0.27012241
-0.26516337
-0.2599679
-0.25453919
-0.24887396
-0.24297241
-0.23690424
-0.23072439
-0.22339708
-0.21314383
-0.31498249
-0.31227088
-0.30913491
-0.30566403
-0.30180627
-0.29764832
-0.293261
-0.28867733
-0.28391125
-0.27896782
-0.27384642
-0.26854335
-0.26305357
-0.25737073
-0.25148248
-0.24537719
-0.23911737
-0.23278061
-0.22516314
-0.21378128
-0.32917233
-0.32446696
-0.3197275
-0.31499325
-0.3100136
-0.30486197
-0.2996124
-0.29428572
-0.2888811
-0.28338917
-0.27779499
-0.27208056
-0.26622725
-0.2602166
-0.25402661
-0.24763674
-0.24110673
-0.23456014
-0.22674445
-0.21446557
-0.34445504
-0.33764184
-0.33118713
-0.32509021
-0.31889444
-0.31265865
-0.30646201
-0.30031263
-0.29419207
-0.28807333
-0.28192355
-0.27570629
-0.26938382
-0.26291738
-0.25626253
-0.24937139
-0.24226828
-0.23505939
-0.22648738
-0.21304988
-0.36073173
-0.35168779
-0.34340162
-0.33583743
-0.32831918
-0.32089084
-0.31363669
-0.30654977
-0.29959154
-0.29271573
-0.28587123
-0.27900484
-0.27206424
-0.26499801
-0.2577503
-0.25025669
-0.24246006
-0.23415378
-0.223687
-0.20801827
-0.20246659
-0.1935183
-0.18456506
-0.17567086
-0.166782
-0.15794017
-0.14919887
-0.14059316
-0.13215233
-0.12390497
-0.11587689
-0.10809028
-0.10056426
-0.093315209
-0.086356701
-0.079699625
-0.073352273
-0.067320449
-0.061607563
-0.056214746
-0.051140971
-0.046383191
-0.041936491
-0.037794256
-0.033948343
-0.030389271
-0.027106413
-0.024088192
-0.021322275
-0.018795765
-0.016495385
-0.014407657
-0.012519061
-0.010816199
-0.0092859265
-0.0079154936
-0.0066926663
-0.0056058305
-0.004644169
-0.0037975855
-0.0030575239
-0.0024149804
-0.0018676847
-0.0013989947
-0.0010444928
-0.00069461489
-0.00068792282
-8.0126845e-05
-0.0017060537
0.0024523269
-0.20347662
-0.19413108
-0.18506879
-0.17618893
-0.16728205
-0.15841003
-0.14964431
-0.14101633
-0.13255293
-0.12428325
-0.11623337
-0.10842537
-0.10087837
-0.093608797
-0.086630306
-0.079953844
-0.073587767
-0.067537939
-0.061807824
-0.056398592
-0.051309249
-0.04653677
-0.042076252
-0.03792108
-0.034063106
-0.030492834
-0.027199617
-0.024171852
-0.021397173
-0.018862648
-0.016554963
-0.014460598
-0.012565993
-0.010857704
-0.0093225477
-0.0079477283
-0.0067209705
-0.0056306185
-0.0046658149
-0.0038164237
-0.0030738488
-0.0024290502
-0.0018797005
-0.0014091655
-0.0010527486
-0.00070153589
-0.0006913253
-8.5942842e-05
-0.0016914955
0.0024237396
-0.20559531
-0.19539914
-0.18611942
-0.17730824
-0.16837776
-0.15944506
-0.15063172
-0.14195973
-0.1334493
-0.12513171
-0.11703429
-0.10917899
-0.10158504
-0.094269206
-0.087245432
-0.08052488
-0.074116115
-0.068025187
-0.062255712
-0.056808983
-0.051684096
-0.046878088
-0.042386089
-0.038201495
-0.034316142
-0.030720503
-0.02740388
-0.024354605
-0.021560236
-0.019007756
-0.016683758
-0.014574623
-0.012666691
-0.010946416
-0.0094005091
-0.0080160752
-0.0067807382
-0.0056827448
-0.0047111431
-0.0038557054
-0.0031077451
-0.0024581372
-0.0019044363
-0.0014300021
-0.0010696103
-0.00071554785
-0.0006983154
-9.7432578e-05
-0.0016629188
0.0023671788
-0.20866392
-0.19709105
-0.18749037
-0.17887815
-0.16995828
-0.16094888
-0.15208141
-0.14336048
-0.13479101
-0.12640939
-0.11824666
-0.1103248
-0.10266334
-0.095279905
-0.088189129
-0.081402702
-0.074929648
-0.068776424
-0.062946981
-0.057442879
-0.052263418
-0.047405783
-0.0428652
-0.038635113
-0.034707368
-0.031072407
-0.027719474
-0.024636812
-0.021811875
-0.019231518
-0.016882195
-0.01475014
-0.012821539
-0.011082684
-0.0095201295
-0.0081208196
-0.0068722224
-0.0057624321
-0.0047803487
-0.0039156006
-0.0031593603
-0.0025023689
-0.0019420015
-0.0014615984
-0.0010951583
-0.00073671382
-0.00070899206
-0.00011454811
-0.0016210713
0.002283869
-0.2124558
-0.19893631
-0.18891242
-0.18070098
-0.17187709
-0.16279367
-0.15388315
-0.1451296
-0.13650653
-0.12805755
-0.11982218
-0.11182356
-0.10408164
-0.096615479
-0.089441122
-0.082571282
-0.076015829
-0.069781959
-0.063874244
-0.058294744
-0.053043153
-0.048116953
-0.043511584
-0.039220627
-0.035235994
-0.031548141
-0.028146267
-0.025018534
-0.022152274
-0.019534196
-0.01715058
-0.014987472
-0.013030856
-0.011266818
-0.0096816971
-0.0082622267
-0.0069956641
-0.0058698972
-0.0048736257
-0.0039962823
-0.0032288477
-0.0025618812
-0.0019925157
-0.0015040594
-0.0011294882
-0.00076510564
-0.00072350125
-0.00013718851
-0.0015670968
0.0021756954
-0.21662368
-0.20065443
-0.19011644
-0.18254356
-0.17396187
-0.16483607
-0.15590485
-0.1471531
-0.13850315
-0.13000018
-0.12169753
-0.11362282
-0.10579699
-0.098240985
-0.090973077
-0.084007771
-0.077356353
-0.071027223
-0.06502598
-0.059355531
-0.054016246
-0.049006139
-0.044321049
-0.039954839
-0.035899606
-0.032145892
-0.028682913
-0.025498778
-0.02258071
-0.019915265
-0.017488537
-0.015286353
-0.013294459
-0.011498691
-0.0098851308
-0.0084402482
-0.0071510397
-0.0060051355
-0.0049909839
-0.0040977715
-0.0033162373
-0.0026367107
-0.0020560209
-0.0015574311
-0.0011726543
-0.00080076602
-0.00074199775
-0.00016521241
-0.001502443
0.0020451121
-0.22077
-0.20206384
-0.19089072
-0.18412819
-0.17601213
-0.1669491
-0.15803145
-0.14931879
-0.140685
-0.13215943
-0.12380783
-0.11566768
-0.10776328
-0.1001179
-0.09275278
-0.085685171
-0.078928574
-0.072493205
-0.066386212
-0.060611789
-0.055171358
-0.050063765
-0.045285496
-0.040830893
-0.036692386
-0.032860723
-0.029325215
-0.026073974
-0.023094147
-0.020372148
-0.017893878
-0.015644928
-0.013610782
-0.011776989
-0.010129331
-0.0086539708
-0.0073375969
-0.0061675341
-0.0051319306
-0.004219679
-0.0034212286
-0.0027266334
-0.0021323574
-0.00162161
-0.001224606
-0.00084367387
-0.00076461844
-0.00019846895
-0.0014287595
0.0018950083
-0.22463392
-0.20356016
-0.19145959
-0.18526746
-0.17781363
-0.16904538
-0.16021933
-0.15157046
-0.14299013
-0.13447969
-0.12610392
-0.11791296
-0.10993884
-0.1022084
-0.094746195
-0.087573002
-0.080705327
-0.07415583
-0.067933704
-0.062044872
-0.056492178
-0.051275614
-0.046392572
-0.041838083
-0.037605081
-0.033684653
-0.030066306
-0.026738227
-0.023687534
-0.020900527
-0.018362922
-0.016060074
-0.013977183
-0.012099488
-0.010412437
-0.008901851
-0.0075540685
-0.0063560657
-0.0052956472
-0.0043613667
-0.0035433387
-0.0028312995
-0.0022212883
-0.0016964561
-0.0012852889
-0.00089383156
-0.00079155249
-0.00023686637
-0.0013478461
0.0017286739
-0.22587325
-0.20538806
-0.19251859
-0.18589765
-0.17893124
-0.1707446
-0.16219501
-0.15367526
-0.14520194
-0.13676854
-0.12842269
-0.12022225
-0.11221037
-0.10441971
-0.096878784
-0.089612485
-0.082641176
-0.075980792
-0.069643305
-0.063637029
-0.057966833
-0.052634394
-0.04763847
-0.042975188
-0.03863832
-0.034619573
-0.030908879
-0.027494677
-0.024364194
-0.021503718
-0.018898849
-0.016534745
-0.014396345
-0.012468578
-0.010736549
-0.0091857081
-0.0078020144
-0.0065720566
-0.0054832535
-0.0045237746
-0.0036833526
-0.0029513597
-0.0023233488
-0.0017823982
-0.0013550593
-0.00095146198
-0.0008231872
-0.00028011351
-0.0012618608
0.0015503779
-0.21601262
-0.20463416
-0.19363633
-0.18554895
-0.17849318
-0.1710808
-0.16313744
-0.15498358
-0.14679815
-0.1386072
-0.13043846
-0.1223494
-0.11439552
-0.10661976
-0.099057933
-0.091741612
-0.084697455
-0.077946929
-0.071506732
-0.065389218
-0.059602687
-0.054151686
-0.049037334
-0.044257667
-0.039807967
-0.035681102
-0.031867854
-0.028357253
-0.025136891
-0.02219323
-0.01951189
-0.017077918
-0.014876045
-0.012890912
-0.011107276
-0.0095102023
-0.0080852381
-0.0068185442
-0.0056971071
-0.0047086615
-0.0038425061
-0.0030875941
-0.0024389348
-0.001879488
-0.0014337475
-0.0010160406
-0.00085933256
-0.00032655254
-0.0011733639
0.0013656227
-0.19387465
-0.19858176
-0.19330862
-0.1844044
-0.17690188
-0.16989419
-0.16239408
-0.15453707
-0.146589
-0.13861307
-0.13062886
-0.12268925
-0.11485353
-0.10716903
-0.099674763
-0.092405211
-0.085390013
-0.078653427
-0.07221467
-0.066088359
-0.060284818
-0.054810384
-0.049667742
-0.044856282
-0.040372446
-0.03621008
-0.032360785
-0.028814261
-0.025558635
-0.02258079
-0.019866662
-0.017401527
-0.015170264
-0.013157597
-0.011348316
-0.0097274685
-0.0082805474
-0.0069936296
-0.0058535896
-0.0048480345
-0.0039660848
-0.0031965789
-0.0025340634
-0.0019619348
-0.001501927
-0.0010746794
-0.00089045858
-0.00037295288
-0.0010829359
0.0011823117
-0.18332583
-0.1891468
-0.18567393
-0.17693533
-0.1697326
-0.16347665
-0.15677701
-0.14963388
-0.14234317
-0.13497992
-0.12755388
-0.12011362
-0.11272087
-0.10542666
-0.098273555
-0.091299874
-0.084539291
-0.078020071
-0.071765268
-0.065793138
-0.060117421
-0.054747629
-0.049689374
-0.044944726
-0.040512566
-0.036388947
-0.03256745
-0.029039545
-0.02579493
-0.022821867
-0.020107498
-0.017638144
-0.015399581
-0.013377292
-0.011556706
-0.0099233971
-0.0084632873
-0.007162795
-0.0060090502
-0.0049898624
-0.0040944235
-0.0033117532
-0.002635956
-0.0020514451
-0.0015762407
-0.0011399548
-0.00092403526
-0.00042746539
-0.00098207147
0.00098467643
-0.1745877
-0.17780924
-0.17553229
-0.16851173
-0.16215941
-0.15659737
-0.15066451
-0.14425142
-0.13762474
-0.13087959
-0.12402785
-0.11711191
-0.11019227
-0.1033218
-0.096545196
-0.089903133
-0.083432203
-0.077163886
-0.071124532
-0.065335679
-0.059814287
-0.054572971
-0.04962029
-0.044961081
-0.040596797
-0.036525862
-0.032744027
-0.029244722
-0.02601941
-0.023057926
-0.0203488
-0.01787957
-0.015637064
-0.013607673
-0.01177759
-0.010133034
-0.0086604545
-0.0073466974
-0.0061792205
-0.0051460966
-0.0042366301
-0.0034400719
-0.0027500572
-0.0021521466
-0.0016602756
-0.0012139388
-0.00096305391
-0.00048885916
-0.00087372082
0.00076820384
-0.16490963
-0.16552248
-0.16369113
-0.15874665
-0.15362425
-0.14880484
-0.14366309
-0.13806171
-0.13217807
-0.12611301
-0.11989419
-0.11356205
-0.10717372
-0.10078273
-0.094435598
-0.088175
-0.08204002
-0.076065106
-0.070279798
-0.064708916
-0.059372724
-0.05428709
-0.049463724
-0.044910465
-0.040631598
-0.036628189
-0.032898422
-0.029437956
-0.026240274
-0.023297022
-0.020598344
-0.018133198
-0.015889654
-0.013855175
-0.012016869
-0.010361728
-0.0088768411
-0.0075495784
-0.0063678042
-0.0053199193
-0.0043953909
-0.0035837361
-0.002878142
-0.0022653196
-0.0017550989
-0.001296835
-0.0010087537
-0.00055461215
-0.0007654426
0.00054295356
-0.15434057
-0.15307351
-0.15126419
-0.14803457
-0.1442054
-0.14019083
-0.13584611
-0.13108868
-0.126002
-0.12066912
-0.11513319
-0.10943721
-0.10363418
-0.097776477
-0.091911558
-0.086083363
-0.080332719
-0.07469647
-0.069206987
-0.063892162
-0.05877547
-0.053876053
-0.049208876
-0.044784954
-0.040611621
-0.036692828
-0.033029462
-0.029619684
-0.026459263
-0.023541923
-0.02085967
-0.018403117
-0.016161791
-0.014124422
-0.01227921
-0.010614071
-0.0091168722
-0.0077756206
-0.0065786857
-0.0055148744
-0.0045738825
-0.00374553
-0.0030226106
-0.0023929284
-0.001862385
-0.0013896784
-0.0010626342
-0.00062409505
-0.00066327474
0.00031703011
-0.14255416
-0.14049523
-0.13880045
-0.13684514
-0.13418681
-0.13100823
-0.12745063
-0.12351784
-0.11923196
-0.11464883
-0.10981937
-0.10478826
-0.099603921
-0.094316387
-0.088972935
-0.083617735
-0.078292251
-0.073034735
-0.067879625
-0.06285731
-0.057994059
-0.053312009
-0.048829225
-0.04455985
-0.040514302
-0.036699521
-0.033119247
-0.029774324
-0.026663021
-0.023781353
-0.02112341
-0.018681679
-0.016447352
-0.014410623
-0.012560964
-0.010887386
-0.0093786759
-0.0080236107
-0.0068111766
-0.0057306795
-0.0047721258
-0.003925683
-0.0031838354
-0.0025353895
-0.0019826495
-0.0014927851
-0.0011256775
-0.00069686657
-0.00057320963
9.9085994e-05
-0.12986023
-0.12793045
-0.12658373
-0.12554053
-0.12384582
-0.1214769
-0.1186796
-0.11552546
-0.11201133
-0.10816676
-0.10404169
-0.099682511
-0.095132171
-0.09043559
-0.08563868
-0.080785083
-0.075915909
-0.071069675
-0.066281878
-0.061584591
-0.05700622
-0.052571379
-0.048300855
-0.044211658
-0.04031714
-0.036627169
-0.03314835
-0.029884285
-0.02683585
-0.024001501
-0.021377581
-0.018958626
-0.016737677
-0.014706571
-0.012856228
-0.011176914
-0.0096584897
-0.0082906372
-0.0070630813
-0.0059657293
-0.0049889932
-0.0041234405
-0.0033613556
-0.0026924355
-0.0021158479
-0.001606083
-0.0011985589
-0.00077251131
-0.00050114754
-0.00010156887
-0.11697448
-0.1156249
-0.11476686
-0.11437946
-0.11344032
-0.11180662
-0.10972009
-0.10728311
-0.10448895
-0.10134945
-0.097906686
-0.094204996
-0.09028422
-0.086183662
-0.081944396
-0.077608334
-0.073215609
-0.068804064
-0.064409181
-0.060063742
-0.055797467
-0.051636756
-0.047604553
-0.043720291
-0.039999929
-0.036456039
-0.033097956
-0.029931979
-0.026961603
-0.024187779
-0.02160919
-0.019222548
-0.017022878
-0.015003813
-0.01315787
-0.01147672
-0.0099514451
-0.0085727662
-0.0073312722
-0.00621758
-0.0052226107
-0.0043373932
-0.0035541401
-0.0028633233
-0.0022615255
-0.0017292442
-0.0012816538
-0.00085081925
-0.00045210853
-0.00027608474
-0.10444014
-0.10375711
-0.10341496
-0.10352159
-0.10317051
-0.1021741
-0.10072916
-0.098939395
-0.096801339
-0.094317299
-0.091519604
-0.088447226
-0.085135509
-0.081619415
-0.07793544
-0.074121121
-0.070214182
-0.0662511
-0.062266499
-0.058292923
-0.054360509
-0.050496656
-0.046725777
-0.043069156
-0.039544886
-0.036167877
-0.032949925
-0.029899841
-0.027023627
-0.024324682
-0.021804042
-0.019460636
-0.017291559
-0.015292336
-0.013457203
-0.011779363
-0.010251243
-0.0088647311
-0.0076113989
-0.0064826826
-0.00547012
-0.0045652697
-0.0037604125
-0.0030466927
-0.0024187033
-0.0018616099
-0.001374923
-0.00093179439
-0.00042945591
-0.00041731907
-0.092542847
-0.092445894
-0.092572162
-0.093066441
-0.093176701
-0.09271515
-0.091830855
-0.090613767
-0.089062709
-0.087175227
-0.084974567
-0.08249268
-0.079759641
-0.07680532
-0.073661752
-0.070362346
-0.066940871
-0.063431127
-0.059866128
-0.056277407
-0.05269468
-0.049145534
-0.045655122
-0.04224593
-0.038937629
-0.035746995
-0.032687907
-0.029771398
-0.02700576
-0.0243967
-0.021947523
-0.01965935
-0.017531353
-0.015561003
-0.013744322
-0.012076136
-0.010550321
-0.0091600339
-0.0078979407
-0.0067563981
-0.0057276654
-0.0048039054
-0.0039776099
-0.00324052
-0.0025858324
-0.0020021381
-0.0014778348
-0.0010155482
-0.0004343158
-0.00052096489
-0.081422958
-0.081781993
-0.082290679
-0.083087549
-0.083558647
-0.083534202
-0.083125211
-0.082403783
-0.081368322
-0.08001346
-0.078354794
-0.076416913
-0.074224127
-0.071801035
-0.069174566
-0.066373751
-0.0634285
-0.06036901
-0.057225596
-0.054028035
-0.050804911
-0.047583247
-0.04438821
-0.041242817
-0.038167712
-0.035181013
-0.032298229
-0.029532239
-0.026893334
-0.024389297
-0.022025545
-0.019805287
-0.017729721
-0.01579825
-0.014008706
-0.012357586
-0.01084028
-0.0094512993
-0.0081844888
-0.0070332169
-0.0059905621
-0.0050493663
-0.0042024721
-0.0034421752
-0.0027608306
-0.0021493985
-0.0015893363
-0.0011021442
-0.00046528643
-0.00058638559
-0.071140895
-0.071827861
-0.072622909
-0.073644815
-0.074391079
-0.074713765
-0.074695745
-0.074392542
-0.073800469
-0.07291174
-0.071735626
-0.07028979
-0.068592673
-0.066663558
-0.064524183
-0.062198714
-0.059712865
-0.057093153
-0.054366555
-0.05156023
-0.048700935
-0.045814471
-0.042925338
-0.040056421
-0.037228725
-0.034461148
-0.031770334
-0.029170581
-0.026673815
-0.02428961
-0.022025261
-0.019885899
-0.017874634
-0.015992734
-0.014239814
-0.012614044
-0.011112362
-0.009730681
-0.0084640929
-0.00730705
-0.0062535344
-0.0052971408
-0.0044311929
-0.0036485335
-0.0029411643
-0.0023015952
-0.0017078669
-0.0011914315
-0.00051854075
-0.0006169065
-0.061708563
-0.06261628
-0.06360902
-0.064784954
-0.065730957
-0.066319575
-0.06661282
-0.06665248
-0.06643241
-0.065942683
-0.065187343
-0.064177924
-0.062927293
-0.061449564
-0.05976139
-0.05788202
-0.055832629
-0.053635739
-0.051314797
-0.048893834
-0.046397092
-0.043848526
-0.041271351
-0.038687702
-0.036118332
-0.033582354
-0.031097022
-0.02867759
-0.026337211
-0.024086904
-0.021935563
-0.019890012
-0.017955107
-0.016133858
-0.014427588
-0.012836105
-0.011357887
-0.0099902671
-0.0087296234
-0.0075715462
-0.0065109902
-0.005542371
-0.0046596107
-0.0038561232
-0.0031239631
-0.0024566169
-0.0018314166
-0.001282913
-0.00058836336
-0.00061937352
-0.05311118
-0.054155508
-0.055271438
-0.056539443
-0.057619497
-0.058402325
-0.058934129
-0.059245804
-0.059329166
-0.059172591
-0.058775911
-0.058145464
-0.057289138
-0.056216259
-0.05493868
-0.053470892
-0.051829522
-0.050032881
-0.048100628
-0.04605342
-0.043912546
-0.041699549
-0.039435802
-0.037142117
-0.034838426
-0.032543491
-0.03027465
-0.028047618
-0.025876338
-0.023772884
-0.021747419
-0.019808189
-0.017961572
-0.016212155
-0.014562847
-0.013015013
-0.011568627
-0.01022243
-0.0089740977
-0.0078203911
-0.0067572893
-0.0057800889
-0.0048834123
-0.0040612918
-0.0033061533
-0.0026121116
-0.0019576321
-0.0013756887
-0.00066805287
-0.00060296581
-0.045317976
-0.046434629
-0.047614506
-0.048923573
-0.050082429
-0.050997876
-0.051704056
-0.052223422
-0.052546439
-0.052660405
-0.052561927
-0.052253141
-0.05173772
-0.051020789
-0.050109865
-0.049015022
-0.047748539
-0.046324559
-0.044758832
-0.043068448
-0.041271498
-0.039386727
-0.03743319
-0.035429878
-0.033395381
-0.031347579
-0.029303371
-0.027278439
-0.025287053
-0.023341925
-0.021454115
-0.019632973
-0.017886135
-0.016219549
-0.014637544
-0.01314292
-0.011737065
-0.010420082
-0.009190929
-0.0080475445
-0.0069869662
-0.0060054201
-0.0050983142
-0.0042603602
-0.0034845894
-0.002765578
-0.0020839613
-0.0014684924
-0.00075100326
-0.00057748389
-0.038287568
-0.039428743
-0.040627461
-0.041937832
-0.043130936
-0.044127826
-0.04495354
-0.045624123
-0.046129398
-0.04645624
-0.046598983
-0.04655655
-0.046329246
-0.045918706
-0.045328721
-0.044565445
-0.043637178
-0.042554127
-0.041328232
-0.039972968
-0.038503091
-0.036934334
-0.0352831
-0.033566156
-0.031800303
-0.030002068
-0.028187424
-0.026371535
-0.024568533
-0.022791333
-0.021051493
-0.019359114
-0.017722781
-0.016149549
-0.014644953
-0.013213067
-0.011856571
-0.01057685
-0.0093740925
-0.0082474019
-0.007194885
-0.0062137308
-0.0053001994
-0.0044497463
-0.003656167
-0.0029144617
-0.0022078181
-0.0015598055
-0.0008316964
-0.0005515436
-0.031972519
-0.033103923
-0.034288538
-0.035570767
-0.036763694
-0.037800969
-0.038700862
-0.039474661
-0.040112163
-0.040600406
-0.040932319
-0.041104542
-0.041114859
-0.040962175
-0.040647246
-0.040172918
-0.039544011
-0.038767179
-0.037850812
-0.036804913
-0.035640914
-0.034371449
-0.033010098
-0.031571124
-0.030069193
-0.028519088
-0.026935429
-0.025332419
-0.023723602
-0.022121665
-0.020538253
-0.018983839
-0.017467622
-0.015997463
-0.014579859
-0.013219948
-0.011921546
-0.010687195
-0.0095182405
-0.0084149006
-0.0073763386
-0.0064007211
-0.0054852051
-0.0046260481
-0.0038179059
-0.0030562439
-0.0023267348
-0.00164801
-0.00090633912
-0.00053118564
-0.026322775
-0.027420945
-0.028568557
-0.029802041
-0.030969401
-0.032015331
-0.032953133
-0.033790645
-0.0345181
-0.03512318
-0.035598138
-0.03593815
-0.036139265
-0.036198404
-0.036113998
-0.035886243
-0.035517066
-0.035010059
-0.034370453
-0.03360506
-0.03272216
-0.031731347
-0.030643338
-0.029469759
-0.028222919
-0.026915563
-0.025560616
-0.024170937
-0.022759086
-0.021337106
-0.019916331
-0.018507221
-0.017119229
-0.015760703
-0.014438816
-0.013159533
-0.011927603
-0.010746574
-0.0096188262
-0.0085456194
-0.0075271303
-0.0065624932
-0.0056497819
-0.0047860982
-0.0039670067
-0.0031885157
-0.0024384768
-0.0017315327
-0.00097298769
-0.00051928909
-0.021287958
-0.022337942
-0.023433732
-0.024605171
-0.025729289
-0.026760389
-0.027708145
-0.02857793
-0.029360742
-0.030045239
-0.030623571
-0.031090129
-0.031439909
-0.031668523
-0.031772751
-0.031750798
-0.031602307
-0.031328363
-0.030931515
-0.030415771
-0.029786556
-0.029050615
-0.028215897
-0.027291394
-0.026286965
-0.025213139
-0.024080907
-0.022901488
-0.021686121
-0.020445846
-0.019191312
-0.017932596
-0.016679051
-0.015439174
-0.014220513
-0.013029587
-0.011871848
-0.01075166
-0.0096722914
-0.0086359285
-0.0076436899
-0.0066956396
-0.0057907605
-0.0049270188
-0.0041009009
-0.003309042
-0.002541103
-0.0018089466
-0.0010311918
-0.00051588063
-0.016819255
-0.017812636
-0.018848121
-0.019950055
-0.02101962
-0.022019427
-0.022956489
-0.023834436
-0.024645219
-0.025378677
-0.026027271
-0.02658513
-0.027046748
-0.027407004
-0.027661626
-0.027807427
-0.027842369
-0.027765589
-0.027577468
-0.027279669
-0.026875139
-0.02636808
-0.025763877
-0.025069008
-0.024290919
-0.023437871
-0.022518784
-0.021543045
-0.020520317
-0.01946035
-0.018372784
-0.017266982
-0.016151855
-0.015035725
-0.0139262
-0.012830073
-0.011753247
-0.010700679
-0.0096763457
-0.0086832216
-0.0077232616
-0.0067973913
-0.0059054663
-0.0050463109
-0.0042173207
-0.0034158293
-0.0026329864
-0.0018790223
-0.0010813714
-0.00051909053
-0.012870472
-0.013803747
-0.014775308
-0.015804845
-0.016813677
-0.017771553
-0.018683521
-0.01955197
-0.020369878
-0.021128358
-0.02182045
-0.022440396
-0.022982608
-0.023441685
-0.023812796
-0.024091892
-0.024275784
-0.024362199
-0.024349861
-0.024238565
-0.024029211
-0.023723823
-0.023325523
-0.022838494
-0.022267906
-0.021619819
-0.020901059
-0.020119088
-0.019281843
-0.01839757
-0.017474656
-0.016521464
-0.015546172
-0.014556622
-0.013560183
-0.012563637
-0.011573074
-0.010593814
-0.0096303386
-0.0086862401
-0.0077641788
-0.0068658454
-0.0059919027
-0.0051419995
-0.0043144099
-0.0035072137
-0.0027128231
-0.0019407481
-0.0011242114
-0.00052629923
-0.0093995967
-0.010272801
-0.01118039
-0.012138056
-0.013083936
-0.013993896
-0.014871498
-0.015718231
-0.016528097
-0.017293482
-0.018008154
-0.018666711
-0.019263777
-0.019794003
-0.020252381
-0.020634428
-0.020936259
-0.02115466
-0.021287173
-0.021332187
-0.021288994
-0.021157838
-0.02093993
-0.020637448
-0.020253513
-0.019792132
-0.019258129
-0.018657047
-0.017995038
-0.01727873
-0.016515089
-0.015711272
-0.014874479
-0.014011813
-0.013130139
-0.01223596
-0.011335298
-0.010433595
-0.009535624
-0.0086454122
-0.0077661706
-0.0069002333
-0.0060489801
-0.0052128252
-0.0043908734
-0.0035819731
-0.0027796598
-0.0019933517
-0.0011602851
-0.00053504964
-0.0063686272
-0.0071844256
-0.0080306953
-0.0089196602
-0.0098035196
-0.010663354
-0.011501578
-0.012319004
-0.013110591
-0.013869934
-0.014591583
-0.015270633
-0.015902095
-0.016480901
-0.017002138
-0.01746121
-0.017853899
-0.01817644
-0.018425603
-0.018598787
-0.018694093
-0.018710383
-0.018647327
-0.018505429
-0.01828604
-0.017991343
-0.017624322
-0.017188706
-0.016688897
-0.016129881
-0.015517123
-0.014856445
-0.014153903
-0.01341566
-0.012647857
-0.011856486
-0.011047267
-0.010225541
-0.0093961617
-0.0085633973
-0.007730844
-0.0069013408
-0.0060768733
-0.0052585395
-0.0044462124
-0.0036395021
-0.0028329845
-0.0020363629
-0.0011899676
-0.00054352866
-0.0037453542
-0.0045079526
-0.0052972271
-0.0061223323
-0.006947224
-0.0077574154
-0.008554411
-0.0093384931
-0.010105477
-0.010850058
-0.011567558
-0.012253622
-0.012903743
-0.013513258
-0.014077533
-0.014592079
-0.015052611
-0.015455114
-0.01579592
-0.016071793
-0.016280005
-0.016418405
-0.016485477
-0.016480391
-0.016403038
-0.016254044
-0.016034774
-0.015747314
-0.015394437
-0.014979544
-0.014506602
-0.013980054
-0.01340472
-0.012785693
-0.012128228
-0.011437624
-0.010719109
-0.0099777212
-0.0092181983
-0.0084448693
-0.0076615476
-0.0068714301
-0.0060769841
-0.0052798933
-0.0044807211
-0.0036798057
-0.0028727034
-0.0020695913
-0.0012134592
-0.00055060967
-0.0015041072
-0.0022193084
-0.0029575403
-0.0037253322
-0.0044964032
-0.0052599799
-0.0060168284
-0.0067667988
-0.0075064445
-0.0082314264
-0.008937779
-0.0096216921
-0.010279164
-0.010905995
-0.01149792
-0.012050697
-0.012560153
-0.01302224
-0.013433102
-0.013789147
-0.014087123
-0.014324182
-0.014497952
-0.014606587
-0.014648827
-0.01462403
-0.014532202
-0.014374007
-0.014150765
-0.013864426
-0.013517542
-0.01311321
-0.012655006
-0.012146905
-0.011593188
-0.010998345
-0.010366971
-0.0097036485
-0.0090128424
-0.0082987802
-0.0075653385
-0.0068159296
-0.0060533749
-0.0052798346
-0.0044964715
-0.0037042926
-0.0028997691
-0.0020936156
-0.0012312665
-0.00055591997
0.00037922011
-0.00029440466
-0.00098780328
-0.0017051285
-0.0024281536
-0.0031492128
-0.0038684712
-0.004585413
-0.0052972037
-0.0060003244
-0.006691436
-0.0073672286
-0.0080241817
-0.0086585583
-0.0092664929
-0.0098440553
-0.010387287
-0.010892246
-0.011355057
-0.011771978
-0.012139463
-0.012454226
-0.012713306
-0.012914129
-0.013054566
-0.013132986
-0.013148301
-0.013099996
-0.012988152
-0.012813453
-0.012577179
-0.012281187
-0.011927868
-0.011520095
-0.01106116
-0.010554694
-0.010004575
-0.0094148338
-0.0087895399
-0.0081326935
-0.0074481036
-0.0067392689
-0.0060092421
-0.0052605478
-0.0044948474
-0.0037137356
-0.0029145177
-0.0021084265
-0.0012432058
-0.00055896319
0.0019018115
0.0012619652
0.00060538165
-7.034169e-05
-0.00075339545
-0.0014385584
-0.0021254994
-0.0028134058
-0.0034999331
-0.0041822269
-0.0048574658
-0.0055227669
-0.0061750313
-0.0068109391
-0.0074270043
-0.0080196173
-0.0085850724
-0.0091196003
-0.0096194113
-0.010080746
-0.010499931
-0.010873431
-0.011197918
-0.011470324
-0.011687907
-0.011848308
-0.011949604
-0.011990359
-0.01196966
-0.011887148
-0.011743032
-0.011538091
-0.011273669
-0.010951647
-0.010574396
-0.010144722
-0.0096657964
-0.0091410669
-0.0085741634
-0.007968788
-0.0073285985
-0.006657085
-0.0059574311
-0.0052324228
-0.0044841168
-0.0037145991
-0.0029219044
-0.0021177122
-0.0012518815
-0.0005610541
0.0031044289
0.0024923593
0.0018659086
0.0012243007
0.00057432044
-8.0768859e-05
-0.00074025128
-0.0014030635
-0.0020672321
-0.0027304205
-0.0033902175
-0.004044084
-0.0046892673
-0.0053227969
-0.0059415153
-0.0065421041
-0.007121103
-0.0076749353
-0.0081999412
-0.0086924176
-0.0091486638
-0.0095650311
-0.0099379774