/*--------------------------------*- C++ -*----------------------------------*\
  =========                 |
  \\      /  F ield         | OpenFOAM: The Open Source CFD Toolbox
   \\    /   O peration     | Website:  https://openfoam.org
    \\  /    A nd           | Version:  6
     \\/     M anipulation  |
\*---------------------------------------------------------------------------*/
FoamFile
{
    version     2.0;
    format      ascii;
    class       volVectorField;
    location    "329";
    object      UMean;
}
// * * * * * * * * * * * * * * * * * * * * * * * * * * * * * * * * * * * * * //

dimensions      [0 1 -1 0 0 0 0];

internalField   nonuniform List<vector> 
9200
(
(0.0014585216 0.0010993048 -6.0307988e-20)
(0.015069629 -0.0030688451 4.7501737e-20)
(0.040769524 -0.0074678483 -3.9376919e-20)
(0.075856606 -0.011875839 -6.2108316e-20)
(0.11847828 -0.016059101 1.9327178e-20)
(0.16739659 -0.019581304 3.3755587e-20)
(0.22153014 -0.022153489 -1.2632642e-20)
(0.27988024 -0.023630526 9.5522704e-21)
(0.34151295 -0.023954001 1.7492727e-20)
(0.40552749 -0.023129105 1.5459771e-21)
(0.4710328 -0.021213322 -2.2376056e-20)
(0.53713874 -0.018305462 2.1521712e-20)
(0.6029591 -0.014534744 -4.2031731e-20)
(0.66762443 -0.010049705 -2.2049877e-20)
(0.73030307 -0.0050064111 6.1612474e-21)
(0.79022766 0.00044122362 -2.626574e-20)
(0.84674056 0.0061645866 2.6380344e-20)
(0.89941664 0.012207501 2.3358719e-20)
(0.9478805 0.018699983 -2.7453522e-22)
(0.98945985 0.022298061 -1.6208482e-21)
(0.0057940626 -0.0017071803 -1.7375572e-20)
(0.028683311 -0.01008101 4.0884623e-20)
(0.064619633 -0.016501909 2.39716e-20)
(0.11049432 -0.021365772 -1.1881413e-19)
(0.16414932 -0.024842189 -1.3028313e-20)
(0.22408871 -0.026726074 7.5547582e-20)
(0.28896468 -0.026928642 -3.656246e-20)
(0.35749988 -0.025490989 -8.6890654e-21)
(0.42847571 -0.022524908 3.5537581e-20)
(0.50070917 -0.018193939 -4.4900554e-20)
(0.57304187 -0.01270553 -3.1604321e-20)
(0.64434729 -0.0063006461 7.4994658e-20)
(0.71355116 0.00075798972 3.9872354e-20)
(0.77966046 0.0081975428 -7.085688e-20)
(0.84179692 0.015745009 1.5243254e-20)
(0.89922939 0.023131874 -3.8293029e-20)
(0.95141396 0.030108077 -1.4456968e-20)
(0.99809248 0.036514872 7.3941644e-20)
(1.0391614 0.041942378 3.1372972e-20)
(1.0728632 0.043276878 -8.4587829e-20)
(0.011532572 -0.0044278956 3.7237487e-20)
(0.046016555 -0.016559925 2.3905778e-21)
(0.093966299 -0.024267566 2.2572289e-20)
(0.15191902 -0.028686516 1.0048899e-21)
(0.21742099 -0.030475082 -4.149928e-20)
(0.28869311 -0.029723635 1.921556e-20)
(0.36408649 -0.026603928 1.3666999e-20)
(0.44201273 -0.02140104 -5.1902049e-20)
(0.52094883 -0.014449965 5.9225773e-20)
(0.59943318 -0.0061183325 1.4943236e-20)
(0.6760763 0.003201239 -5.6483855e-20)
(0.74958948 0.013104728 -1.9046486e-20)
(0.81882294 0.023193164 9.2321683e-21)
(0.88280559 0.033088835 2.4375039e-20)
(0.94077984 0.042449166 -1.1794635e-20)
(0.99222428 0.05097564 2.8936725e-20)
(1.0368662 0.058427853 -2.1010367e-20)
(1.0747111 0.064670615 -7.2525522e-20)
(1.1059196 0.069436816 -2.4158741e-20)
(1.1296644 0.070854615 4.9951163e-20)
(0.018769706 -0.0068144192 2.473441e-20)
(0.06718667 -0.021811635 5.1890725e-20)
(0.12879523 -0.029727605 2.0283669e-20)
(0.19985334 -0.03256165 1.3458788e-20)
(0.27762984 -0.031547838 1.7836318e-20)
(0.36004573 -0.027141281 -4.906023e-20)
(0.44513467 -0.019838239 -2.6444839e-20)
(0.53099745 -0.01022478 0)
(0.61583553 0.0010951244 1.4904584e-20)
(0.6979761 0.013519367 -6.3778044e-21)
(0.77590918 0.026459032 -1.0141256e-19)
(0.84833585 0.039357962 -1.6229555e-20)
(0.91421552 0.051714691 6.7545143e-20)
(0.97280241 0.063101756 4.797054e-22)
(1.0236643 0.073179793 -1.6267733e-21)
(1.0666792 0.081704398 2.2680618e-20)
(1.1020117 0.088532818 -5.347979e-21)
(1.1300877 0.093652398 -6.2992439e-20)
(1.1514773 0.097039725 -4.7312324e-20)
(1.1661698 0.09774622 7.0778123e-20)
(0.027531743 -0.0085852329 -3.868855e-21)
(0.092091245 -0.025087032 -4.926006e-21)
(0.16871308 -0.03181068 5.7522408e-20)
(0.25348339 -0.031731095 1.9086032e-20)
(0.34343334 -0.026740541 -3.2955804e-20)
(0.43619342 -0.017728356 1.2321726e-20)
(0.52950337 -0.0055749516 2.7203079e-21)
(0.62120895 0.0087880888 3.4844918e-20)
(0.70933359 0.024464 5.8534391e-21)
(0.79213584 0.040617233 -1.3817747e-20)
(0.86816804 0.056490478 6.2507395e-20)
(0.93633078 0.071429094 -5.9855671e-20)
(0.99591002 0.084903979 -1.3653974e-19)
(1.0465878 0.096526411 -5.755782e-21)
(1.0884243 0.10605264 8.5643002e-20)
(1.1218116 0.11337761 0)
(1.1474077 0.11852409 1.0492432e-20)
(1.1660669 0.12164558 -1.5823446e-20)
(1.1787244 0.12292522 -8.9207194e-21)
(1.1859506 0.12197683 2.1370668e-20)
(0.037755275 -0.0094360619 -5.2425468e-21)
(0.12037696 -0.025624478 4.4150221e-21)
(0.21293731 -0.029495548 -8.9026027e-21)
(0.31149687 -0.025082153 2.8828662e-20)
(0.41292432 -0.0150004 -3.0190409e-20)
(0.51461386 -0.00063175206 -1.7378286e-20)
(0.61409374 0.01671885 3.7880411e-20)
(0.70908025 0.035759764 4.7649214e-21)
(0.79758886 0.055317385 -2.5521285e-20)
(0.87801661 0.074370286 7.2044227e-20)
(0.94920525 0.092068863 3.7100525e-22)
(1.0104786 0.10775716 -8.3000441e-20)
(1.0616441 0.12098583 0)
(1.1029555 0.13151005 4.0610948e-20)
(1.1350429 0.1392727 5.6394883e-21)
(1.1588189 0.14437501 -7.944672e-20)
(1.1753752 0.14704268 -2.0075181e-20)
(1.1858855 0.14760348 -1.2718565e-20)
(1.1914998 0.1464003 -1.5046081e-20)
(1.1930746 0.14338138 4.1269564e-20)
(0.04927399 -0.0090606911 -1.7296391e-20)
(0.15142315 -0.02270872 -2.7884601e-21)
(0.26030493 -0.021901025 3.0569168e-20)
(0.37214169 -0.011760957 3.7594633e-20)
(0.48376078 0.0043398764 -2.0292316e-20)
(0.59243232 0.024498985 -7.0952255e-20)
(0.69562316 0.046984644 -2.8940203e-20)
(0.79111375 0.070178526 8.1102581e-20)
(0.87713842 0.092699388 9.0156944e-21)
(0.95247269 0.11343978 -2.5487283e-20)
(1.0164746 0.13157802 1.3908919e-20)
(1.0690775 0.14658341 -4.4595566e-21)
(1.1107334 0.15820412 0)
(1.1423156 0.16643502 2.7890883e-20)
(1.1649954 0.1714701 -8.1201725e-20)
(1.1801113 0.17364627 -3.2209393e-20)
(1.1890468 0.17338839 8.2777242e-20)
(1.1931317 0.17116951 -4.5443436e-21)
(1.1935611 0.16743387 3.5844334e-21)
(1.1912471 0.16231562 2.7753108e-20)
(0.061812512 -0.0071787344 -3.250691e-20)
(0.18434746 -0.015742721 -8.2728488e-20)
(0.3093171 -0.0083837305 2.0486704e-21)
(0.43332883 0.0087236739 7.1593419e-20)
(0.55333905 0.03147407 6.3699761e-20)
(0.66666754 0.057462702 -7.2756294e-20)
(0.77093192 0.084583667 1.8302921e-23)
(0.86421978 0.11098441 8.7961383e-20)
(0.94523488 0.1352009 5.0071871e-20)
(1.0133607 0.15618372 -5.5687024e-20)
(1.0686508 0.17328556 -9.4683816e-20)
(1.1117555 0.18623209 -3.2361766e-21)
(1.1437964 0.1950701 4.3114981e-20)
(1.166212 0.20009641 -6.7149692e-21)
(1.1805972 0.2017777 -1.30544e-20)
(1.1885584 0.20067195 1.9943795e-20)
(1.1915987 0.19736201 4.4723026e-20)
(1.1910424 0.19241106 -4.4582668e-20)
(1.1879936 0.18630206 -1.0418344e-19)
(1.1832752 0.17925915 2.5140367e-20)
(0.074956892 -0.0035662991 -3.5439315e-20)
(0.21796733 -0.0043235539 -1.7486002e-19)
(0.35811489 0.011379193 8.3980001e-20)
(0.49263696 0.036438957 9.4576343e-20)
(0.61883637 0.066103781 5.8983765e-20)
(0.73431157 0.097546308 8.8149934e-21)
(0.8370852 0.12840283 -1.084987e-19)
(0.92580963 0.15673851 0)
(0.999888 0.1811771 -7.0572832e-20)
(1.0594843 0.20089634 -1.5603307e-20)
(1.105442 0.2155707 5.5944955e-20)
(1.1391352 0.22529178 1.1191024e-20)
(1.162282 0.23046794 -4.6528842e-20)
(1.1767525 0.23171401 -4.9976771e-20)
(1.1843976 0.22974597 2.4818761e-20)
(1.1869177 0.22529227 4.5741531e-20)
(1.1857801 0.21902989 -5.6645409e-20)
(1.1821827 0.21154812 -1.0934169e-19)
(1.1770578 0.20331375 -3.1071287e-21)
(1.1710711 0.19458387 2.7455969e-20)
(0.088138008 0.0019288036 -3.7871039e-21)
(0.25080433 0.011743279 8.8988006e-20)
(0.40451677 0.037394084 -1.5402862e-20)
(0.54739922 0.071052857 -8.6344859e-20)
(0.67734918 0.10748516 4.6086435e-20)
(0.79250125 0.14359478 4.9780692e-20)
(0.89154106 0.17694599 5.6615819e-21)
(0.97391328 0.20572721 -1.0159532e-19)
(1.0398865 0.22884946 -2.5598816e-21)
(1.0904885 0.24588752 5.1598697e-20)
(1.1273454 0.25696038 6.1049936e-21)
(1.1524677 0.26259239 -2.0154463e-20)
(1.1680244 0.26356606 -7.712959e-20)
(1.1761423 0.260783 -6.3210305e-21)
(1.1787541 0.25514885 4.425754e-20)
(1.1775049 0.24749109 3.7606191e-20)
(1.1737151 0.23851143 2.0030178e-20)
(1.1683901 0.22876792 -5.4015782e-20)
(1.162262 0.21867216 1.2921328e-20)
(1.1558259 0.20848495 8.3761458e-20)
(-0.001313954 0.0014468516 -9.5645133e-22)
(-0.0047563664 0.003190284 1.951548e-21)
(-0.010786881 0.0041132035 1.4474828e-21)
(-0.017701271 0.0044833708 -1.6360262e-21)
(-0.024562212 0.0044709498 -1.9738954e-21)
(-0.030940773 0.0041909576 2.1066449e-21)
(-0.036564698 0.0037272623 -7.7694734e-21)
(-0.04125784 0.0031406405 -6.7151551e-21)
(-0.044923393 0.0024744063 1.2257126e-20)
(-0.047518629 0.0017591498 -1.0588051e-20)
(-0.049034801 0.0010162276 -2.0137214e-22)
(-0.049484322 0.00026030364 3.9612177e-21)
(-0.048892313 -0.00049872871 -6.6006668e-22)
(-0.047290831 -0.0012542188 2.4285921e-20)
(-0.044715254 -0.0020013794 2.8524635e-22)
(-0.041203756 -0.0027358218 -4.3271492e-20)
(-0.036799679 -0.0034529443 8.0212963e-21)
(-0.03154328 -0.0041506802 2.508157e-20)
(-0.025444318 -0.0048275462 -4.6005736e-20)
(-0.018564341 -0.0054348237 -2.903575e-20)
(-0.0016727779 0.0042134306 -5.5673698e-21)
(-0.0053952894 0.0092686114 1.0175194e-20)
(-0.011196042 0.01192989 -1.0384409e-20)
(-0.017535431 0.012975943 4.9922952e-21)
(-0.02357383 0.012903678 5.9794296e-21)
(-0.028932971 0.012050698 8.3756591e-22)
(-0.033375928 0.010663297 -2.556575e-20)
(-0.036752196 0.0089198774 -2.2089461e-21)
(-0.038982318 0.0069475567 2.2002915e-20)
(-0.040034813 0.0048360839 -5.4674716e-21)
(-0.0399079 0.0026480727 -2.3445584e-20)
(-0.038617913 0.00042645863 5.2430667e-21)
(-0.036191698 -0.0017998757 2.399577e-20)
(-0.032661297 -0.0040116191 1.0948198e-20)
(-0.028060172 -0.0061949709 2.324045e-20)
(-0.022423658 -0.0083375173 -2.0869527e-20)
(-0.015798763 -0.010426376 -2.2766407e-20)
(-0.0082357216 -0.012454971 2.2384522e-20)
(0.00032856752 -0.014408689 2.8007078e-20)
(0.010084031 -0.016120106 1.6389899e-20)
(-0.0023217722 0.0066018757 -4.5197477e-21)
(-0.0065085348 0.014455923 -5.1448877e-21)
(-0.01179183 0.018552633 1.5073986e-22)
(-0.016950505 0.020104133 3.4137744e-22)
(-0.021332621 0.01989005 7.2259286e-21)
(-0.024657506 0.018446173 1.1421383e-20)
(-0.026756808 0.016164216 -4.1472506e-21)
(-0.027529876 0.013328038 -2.0440946e-20)
(-0.026931151 0.010140161 7.0842773e-21)
(-0.024951472 0.0067437596 1.3858055e-20)
(-0.021603359 0.0032387888 6.3565651e-21)
(-0.016911894 -0.00030624746 1.924486e-20)
(-0.010908738 -0.0038454848 1.8371437e-21)
(-0.0036278023 -0.0073487319 -3.5696178e-20)
(0.0048985415 -0.010794831 1.4200213e-21)
(0.014637946 -0.014165132 -2.2995378e-20)
(0.025535108 -0.017442168 -2.5907854e-20)
(0.037516959 -0.020617209 4.8231909e-20)
(0.050768718 -0.02363706 2.670143e-20)
(0.065972966 -0.026137989 3.4821005e-22)
(-0.0031397974 0.0084034793 -5.5700303e-21)
(-0.0078159305 0.01825561 -1.0200048e-20)
(-0.012217747 0.023313362 4.4367099e-21)
(-0.015560617 0.025104965 4.4817721e-21)
(-0.017452023 0.024624824 2.0768115e-21)
(-0.017748077 0.022568771 8.1696028e-21)
(-0.016377884 0.019447108 1.0212306e-20)
(-0.013312614 0.015629846 -1.513132e-21)
(-0.0085566298 0.01138154 -1.2365316e-20)
(-0.0021349375 0.0068896351 -3.1138844e-20)
(0.0059165616 0.0022851685 1.2533808e-22)
(0.015556216 -0.00234202 4.3179562e-20)
(0.02674106 -0.0069322889 -1.9270946e-20)
(0.039428378 -0.011446836 -1.2966389e-20)
(0.05357984 -0.015859655 3.9389044e-22)
(0.069159777 -0.020149892 3.3993041e-20)
(0.086098988 -0.024302912 -1.5858077e-20)
(0.1042837 -0.028317457 -5.5667209e-20)
(0.12402823 -0.032076672 4.7495776e-20)
(0.14672021 -0.034899562 3.4383318e-20)
(-0.003964509 0.0094751223 -5.4488445e-22)
(-0.0089338867 0.020315084 -1.3006594e-20)
(-0.01197544 0.025728486 -3.681069e-20)
(-0.012815466 0.027420955 -6.5340665e-21)
(-0.011369712 0.02651927 -3.4608807e-21)
(-0.0076602785 0.023831903 6.8795349e-21)
(-0.0017368999 0.019953927 -5.1547947e-21)
(0.0063383446 0.015316806 -9.5420967e-21)
(0.016495705 0.010229643 2.3364122e-20)
(0.028662672 0.0049118203 5.3014034e-21)
(0.042768315 -0.00048286245 -2.7044461e-20)
(0.058743301 -0.0058488574 1.1612177e-20)
(0.076520377 -0.011116166 0)
(0.096034941 -0.01624055 1.2708062e-20)
(0.11722815 -0.02119474 -1.0176002e-20)
(0.14004608 -0.025960879 -1.510488e-20)
(0.16439256 -0.030537485 -1.2265981e-21)
(0.1900909 -0.034951498 -2.4674817e-21)
(0.21754502 -0.039019605 4.74551e-20)
(0.24899898 -0.041601165 -1.138355e-20)
(-0.0046099684 0.0097485821 -7.7055851e-21)
(-0.0094088201 0.020451441 2.581949e-20)
(-0.010457242 0.025538971 -1.1356395e-20)
(-0.0080244629 0.026752753 -2.9073504e-20)
(-0.0023603652 0.025264671 -2.874168e-20)
(0.0063279815 0.021944277 -1.5865368e-20)
(0.017852994 0.017433269 -8.245684e-22)
(0.032045442 0.012195702 5.9205013e-21)
(0.048755462 0.0065646854 2.0729456e-20)
(0.067848828 0.00077752404 7.767089e-21)
(0.089202078 -0.0049993283 -7.5346774e-21)
(0.11270008 -0.010651648 -1.9766513e-21)
(0.1382323 -0.016104271 -4.0155644e-20)
(0.16569019 -0.02131142 -1.330989e-20)
(0.19496896 -0.026248419 1.9882329e-20)
(0.22596871 -0.030905767 -2.2144415e-20)
(0.25854308 -0.035305809 -9.3715806e-21)
(0.29242714 -0.039532539 3.1372339e-20)
(0.32804028 -0.043371135 5.2044145e-20)
(0.36853739 -0.045107734 3.5296434e-21)
(-0.0048822998 0.0092274368 1.7124647e-20)
(-0.0087495009 0.018654306 1.4791713e-20)
(-0.0069814648 0.022725911 5.3288716e-20)
(-0.00038880974 0.023089086 2.4684939e-20)
(0.010437941 0.020875971 1.9410041e-22)
(0.025096656 0.016964933 -4.1699105e-20)
(0.043249797 0.012004652 -2.5576381e-20)
(0.064608287 0.0064621978 1.102742e-20)
(0.088924175 0.0006721977 1.5154954e-20)
(0.1159803 -0.0051271465 -1.3689022e-20)
(0.14557927 -0.010769222 -4.6347782e-20)
(0.17753453 -0.016140927 3.1148002e-20)
(0.21166289 -0.021169682 2.0862791e-20)
(0.24777875 -0.025814587 -2.8842561e-20)
(0.28569406 -0.030059661 1.2255768e-20)
(0.32522201 -0.033910554 2.5215414e-20)
(0.3661301 -0.037423509 8.4830561e-21)
(0.40803791 -0.040771002 -1.2489834e-20)
(0.4512901 -0.043785142 -1.4408215e-20)
(0.4998829 -0.044158003 6.8732194e-21)
(-0.004590488 0.0079755708 1.1448854e-20)
(-0.0064536992 0.015069666 -2.4590782e-20)
(-0.00082761818 0.017500929 8.5360601e-21)
(0.010958589 0.016707363 3.5162226e-20)
(0.027980364 0.01370238 5.4217064e-20)
(0.04963716 0.0093236205 2.1214416e-20)
(0.075432014 0.0041886997 -6.1225793e-21)
(0.10493752 -0.001264181 -1.2860169e-20)
(0.13778688 -0.0067230057 -6.5376042e-21)
(0.17365422 -0.011967865 3.5902113e-20)
(0.21223619 -0.016848062 -4.8417969e-21)
(0.25323785 -0.021265273 -1.7516106e-20)
(0.29636171 -0.025161675 -2.0522665e-20)
(0.34129978 -0.028512545 -4.9631479e-20)
(0.3877325 -0.031321578 2.4195127e-20)
(0.43533657 -0.033620828 -1.4677824e-20)
(0.48375223 -0.035513766 2.7156895e-20)
(0.53246789 -0.037296977 2.1959735e-20)
(0.58168385 -0.038973668 -8.7891675e-20)
(0.63604517 -0.037803583 1.4781572e-22)
(-0.0035533994 0.0061035722 2.2458987e-20)
(-0.0020336526 0.009977979 -2.7240786e-20)
(0.0087181036 0.010289558 -4.6468425e-20)
(0.026885755 0.0081675312 -2.8291232e-20)
(0.051225296 0.0044353471 -2.1295996e-21)
(0.080932938 -0.00015747673 1.3658753e-20)
(0.1153386 -0.0050629229 -2.964462e-21)
(0.1538573 -0.0099030117 1.8889175e-20)
(0.19597474 -0.014415295 9.2374872e-21)
(0.24122027 -0.018421376 -1.1881905e-20)
(0.28914216 -0.021807217 9.3714171e-21)
(0.33928972 -0.024508361 -2.4988363e-20)
(0.39120033 -0.026499344 8.5929784e-21)
(0.44439093 -0.027787126 1.7521861e-20)
(0.49835684 -0.028407156 -2.8697175e-21)
(0.55258164 -0.028425367 1.8124128e-21)
(0.6065211 -0.027993016 -4.7965003e-22)
(0.65950848 -0.027514752 2.0510426e-20)
(0.71156337 -0.027190116 4.0095182e-21)
(0.76774254 -0.024358288 -1.5497452e-21)
(-0.0016005839 0.0037576434 2.44123e-20)
(0.0049642219 0.0037802375 5.9250416e-20)
(0.02230942 0.0017295369 -5.0660747e-20)
(0.048166086 -0.0016682752 -1.0300723e-20)
(0.080983704 -0.0058517448 2.1031045e-20)
(0.11975077 -0.010206112 2.2219607e-21)
(0.16360788 -0.014292656 -3.0937271e-20)
(0.21178489 -0.017829925 7.2651114e-21)
(0.26358307 -0.02063794 7.3858562e-21)
(0.31834315 -0.022610607 -2.7344782e-20)
(0.37541792 -0.023700113 1.3445385e-21)
(0.43415481 -0.02390424 -3.8817232e-20)
(0.49388626 -0.02325603 -3.7962356e-20)
(0.5539262 -0.021815508 6.8628965e-20)
(0.61357263 -0.019662404 5.8089628e-21)
(0.67211426 -0.016895317 -1.5836661e-20)
(0.72881523 -0.013672799 2.0153516e-20)
(0.78284098 -0.010299972 -9.4915899e-22)
(0.83372807 -0.0067994233 2.0744043e-20)
(0.88518543 -0.0016382368 -2.0693883e-20)
(-0.010379677 -0.005717185 6.1037573e-20)
(-0.00076895869 -0.0062426431 1.6289998e-20)
(0.010254341 -0.0066649774 -3.629054e-20)
(0.022335866 -0.0069146562 1.7452305e-20)
(0.035201634 -0.0070746454 0)
(0.048787953 -0.0071734871 0)
(0.063032193 -0.0072140719 -2.3528164e-20)
(0.077851334 -0.0072043653 -1.6816481e-20)
(0.093171348 -0.0071540459 1.9560844e-20)
(0.10892949 -0.0070701714 1.8496991e-20)
(0.1250679 -0.0069581337 1.0444957e-21)
(0.14153209 -0.0068226751 -1.0382737e-20)
(0.15827128 -0.0066679246 8.4862388e-21)
(0.175238 -0.0064973814 1.8249165e-20)
(0.19238752 -0.00631404 -5.3437108e-21)
(0.20967745 -0.0061204996 -1.0113246e-20)
(0.22706755 -0.0059190288 -4.2778673e-21)
(0.24451957 -0.0057116183 -4.3254267e-21)
(0.26199709 -0.0055000264 7.0955042e-22)
(0.2794655 -0.0052858157 1.2174892e-21)
(0.29689194 -0.0050703802 2.5748034e-21)
(0.31424534 -0.0048549663 6.5395479e-21)
(0.33149644 -0.0046406884 1.7817031e-22)
(0.34861779 -0.0044285409 -3.3818907e-21)
(0.36558388 -0.0042194073 1.3796914e-22)
(0.38237108 -0.0040140663 -5.621977e-22)
(0.39895776 -0.0038131983 1.2077892e-21)
(0.41532427 -0.0036173896 9.9694046e-22)
(0.43145293 -0.0034271378 -1.2936718e-21)
(0.44732809 -0.0032428557 -1.0742375e-22)
(0.46293604 -0.0030648771 -1.6932326e-23)
(0.47826503 -0.0028934613 -3.3665041e-22)
(0.49330519 -0.0027287992 -4.0869674e-22)
(0.50804851 -0.0025710194 7.9023113e-23)
(0.52248874 -0.0024201942 -1.3082758e-22)
(0.53662137 -0.0022763467 -2.057345e-22)
(0.55044356 -0.0021394577 2.3456465e-22)
(0.56395411 -0.0020094728 2.6744937e-22)
(0.57715334 -0.0018863122 -2.4684983e-23)
(0.59004348 -0.0017698744 -1.6074487e-22)
(0.6026275 -0.0016600651 2.0653121e-23)
(0.61491313 -0.001556753 -2.9861085e-23)
(0.62690119 -0.0014599834 8.3766142e-23)
(0.63862276 -0.0013693964 -3.74555e-24)
(0.65003002 -0.0012862579 -1.2756138e-22)
(0.66132528 -0.0012073724 1.8084324e-24)
(0.67200602 -0.0011448559 4.2098289e-24)
(0.6836573 -0.0010662738 -4.7222776e-24)
(0.69194912 -0.0010805281 2.7040843e-23)
(0.70911225 -0.00090847176 3.6808225e-22)
(0.019501096 -0.016831445 -1.3565501e-20)
(0.028171804 -0.018425849 -6.5692112e-20)
(0.038733098 -0.019666636 -3.1903809e-20)
(0.050320764 -0.02037845 3.9868695e-20)
(0.062546903 -0.020838073 1.5152396e-20)
(0.075427543 -0.021128314 -1.8915313e-20)
(0.088931775 -0.021249876 5.0142236e-21)
(0.10297953 -0.021224698 2.5965944e-20)
(0.1175042 -0.021081604 -8.8642522e-23)
(0.13245253 -0.020840851 -7.8648244e-21)
(0.14777372 -0.020517639 -1.2945651e-20)
(0.16341858 -0.020125547 -8.752305e-21)
(0.17934084 -0.019676495 1.7872953e-20)
(0.1954968 -0.019180592 9.3643513e-21)
(0.2118448 -0.018646509 -1.6324195e-20)
(0.22834493 -0.018081812 -6.0181434e-21)
(0.24495899 -0.01749313 3.1430435e-21)
(0.26165036 -0.016886304 8.2121913e-21)
(0.27838398 -0.016266515 6.9481677e-21)
(0.29512631 -0.015638381 -7.0351114e-21)
(0.31184537 -0.015006037 -3.3036087e-21)
(0.32851078 -0.014373191 1.4951989e-21)
(0.3450938 -0.013743168 5.6523518e-22)
(0.36156744 -0.013118943 1.232336e-21)
(0.37790645 -0.012503162 2.1905952e-22)
(0.39408742 -0.011898166 -3.5673391e-22)
(0.41008882 -0.011306002 -7.3947969e-22)
(0.425891 -0.010728441 1.0349409e-21)
(0.44147627 -0.010166987 8.5366584e-22)
(0.45682882 -0.0096228958 -2.2971831e-22)
(0.47193477 -0.0090971841 5.8067051e-22)
(0.48678212 -0.0085906484 -2.2861187e-22)
(0.50136071 -0.0081038807 -3.9766092e-22)
(0.51566216 -0.0076372862 -6.1718945e-22)
(0.52967985 -0.0071911027 4.1875605e-22)
(0.54340884 -0.0067654198 -7.8337697e-23)
(0.55684582 -0.006360201 2.0031246e-22)
(0.5699891 -0.0059753041 -4.5755971e-22)
(0.5828385 -0.0056105104 4.2157875e-22)
(0.59539571 -0.0052655357 6.2659593e-23)
(0.60766317 -0.0049401174 -7.3367321e-23)
(0.61964803 -0.0046338808 2.0136543e-22)
(0.63135061 -0.0043469791 2.6929725e-22)
(0.64280119 -0.0040783524 2.0162249e-22)
(0.65395206 -0.003831799 2.1087175e-22)
(0.66500262 -0.0035977931 -2.042136e-23)
(0.67545657 -0.0034124811 1.0725583e-22)
(0.68687644 -0.0031792226 9.5161652e-23)
(0.69499568 -0.0032220876 -2.0104562e-22)
(0.71185068 -0.0027113251 -1.8910015e-23)
(0.077649375 -0.026936697 1.0008516e-20)
(0.084453346 -0.029609409 3.6733727e-21)
(0.093985788 -0.031612983 -1.3254128e-20)
(0.10454947 -0.032706702 -1.5056254e-21)
(0.11547426 -0.03342568 1.5709269e-20)
(0.12693208 -0.033902127 -1.5356851e-20)
(0.13896212 -0.034115304 -3.0906479e-20)
(0.15148628 -0.034095324 1.5070623e-20)
(0.16444907 -0.033889445 1.8786179e-20)
(0.17781486 -0.033529023 -1.1937102e-20)
(0.19154565 -0.033036572 1.036123e-21)
(0.2056014 -0.032432772 8.5062853e-21)
(0.21994362 -0.031736137 -1.5589863e-20)
(0.23453515 -0.030962428 3.4915865e-21)
(0.24933957 -0.030125233 7.7067501e-21)
(0.26432119 -0.029236503 -3.3671407e-22)
(0.27944522 -0.028306811 3.8613084e-23)
(0.29467778 -0.027345543 -7.5623918e-21)
(0.309986 -0.026361084 4.2403996e-21)
(0.32533811 -0.025360964 8.5987883e-21)
(0.34070353 -0.024351963 -3.8755398e-21)
(0.35605297 -0.023340198 -2.1850326e-21)
(0.37135854 -0.022331177 9.269448e-22)
(0.38659385 -0.021329851 -1.7548962e-21)
(0.40173409 -0.020340643 1.3240566e-21)
(0.41675611 -0.019367481 7.013772e-22)
(0.43163847 -0.018413814 1.708716e-21)
(0.44636151 -0.017482635 -2.0991623e-21)
(0.46090735 -0.016576506 2.3841984e-21)
(0.47525991 -0.01569757 5.778842e-22)
(0.48940491 -0.014847583 5.4395121e-22)
(0.50332986 -0.014027933 3.0792996e-22)
(0.517024 -0.013239671 9.690404e-22)
(0.5304783 -0.012483536 -1.4959093e-21)
(0.5436854 -0.011759991 4.1268968e-22)
(0.55663953 -0.011069251 1.8364366e-22)
(0.56933654 -0.010411321 -6.8022182e-23)
(0.58177382 -0.009786031 3.9029413e-23)
(0.59395024 -0.0091930805 -3.9133344e-22)
(0.6058665 -0.0086320598 2.0999991e-22)
(0.61752403 -0.0081025933 -3.1511452e-23)
(0.62892893 -0.0076041162 4.9194513e-22)
(0.64008057 -0.0071369378 -2.2959885e-22)
(0.65100775 -0.0066993534 4.0745763e-23)
(0.66166296 -0.0062976882 6.4297399e-23)
(0.67224017 -0.0059162729 -8.6861006e-23)
(0.68225483 -0.0056146512 -1.4502858e-22)
(0.69322637 -0.0052340541 4.7171422e-22)
(0.70101064 -0.0053056174 1.7857435e-22)
(0.71726817 -0.0044723684 -8.451757e-22)
(0.16130687 -0.035313083 1.7155717e-21)
(0.16533609 -0.039046917 -1.1732103e-20)
(0.17312648 -0.041731503 6.6098328e-21)
(0.18206754 -0.043113264 -1.3833518e-20)
(0.19100467 -0.044054213 -2.0464432e-21)
(0.20031295 -0.044726195 9.7120549e-21)
(0.21014974 -0.045063902 -1.0542585e-20)
(0.22043549 -0.045096253 1.265224e-21)
(0.23112277 -0.044886469 1.3219426e-20)
(0.2421987 -0.04447441 3.6896817e-21)
(0.25364201 -0.043886711 -6.3229812e-21)
(0.26542344 -0.043148529 -3.1056206e-21)
(0.27751347 -0.042283173 -5.6368456e-21)
(0.28988262 -0.041310761 -6.6797695e-21)
(0.30250054 -0.040248794 2.9280396e-21)
(0.31533631 -0.039112848 4.6605368e-22)
(0.32835889 -0.037916896 1.5058527e-21)
(0.34153742 -0.036673501 -3.383021e-21)
(0.35484138 -0.035394006 -4.4724526e-21)
(0.36824081 -0.034088698 2.469492e-21)
(0.38170655 -0.032766922 3.4213405e-21)
(0.39521037 -0.03143717 -1.7498563e-21)
(0.40872516 -0.030107142 1.6532312e-21)
(0.42222504 -0.028783798 -4.7268277e-22)
(0.43568552 -0.027473392 -4.179683e-21)
(0.44908356 -0.026181503 -3.0516844e-21)
(0.46239767 -0.024913058 -2.6063229e-22)
(0.47560796 -0.023672359 3.4914795e-22)
(0.48869619 -0.022463105 -2.2070955e-21)
(0.50164577 -0.021288425 -1.0003229e-21)
(0.51444182 -0.020150901 2.1982513e-22)
(0.52707107 -0.01905261 -1.3491417e-21)
(0.53952194 -0.017995153 -4.1160192e-23)
(0.55178444 -0.016979701 -4.8289986e-22)
(0.56385015 -0.016007033 -4.4956654e-22)
(0.57571222 -0.015077587 -6.3645138e-22)
(0.58736529 -0.014191502 -9.8845979e-22)
(0.59880552 -0.01334867 -2.5604888e-23)
(0.61003049 -0.012548799 -3.6298236e-24)
(0.62103956 -0.011791443 -5.8598133e-22)
(0.63183282 -0.011076196 -4.0793358e-23)
(0.64241492 -0.010402386 -3.9418413e-22)
(0.65278399 -0.00977055 -5.6313382e-22)
(0.66296677 -0.0091784285 4.5710872e-22)
(0.67291612 -0.0086348433 1.4050294e-23)
(0.68281831 -0.0081183219 2.243216e-22)
(0.69220575 -0.0077106671 -1.6413205e-22)
(0.70253589 -0.0071946287 -3.2127743e-22)
(0.70984107 -0.0072947111 -2.5117517e-23)
(0.72524093 -0.006165376 4.7818796e-22)
(0.26660857 -0.041175655 -2.2296743e-20)
(0.26695583 -0.045942861 4.9206335e-20)
(0.27213303 -0.049214853 1.0611248e-20)
(0.27875188 -0.050816183 -1.639664e-20)
(0.28499924 -0.051977487 -2.3479722e-21)
(0.29144021 -0.052887792 2.4496013e-21)
(0.29839827 -0.053420423 -1.9615207e-21)
(0.30579369 -0.053592643 -4.8133202e-21)
(0.31357565 -0.05347667 -4.1197635e-21)
(0.32175291 -0.053117646 -1.2494851e-20)
(0.33032243 -0.05254392 1.8599668e-20)
(0.339265 -0.05178244 6.862174e-21)
(0.34855861 -0.050859151 -1.7032549e-20)
(0.3581804 -0.049797163 1.0071389e-20)
(0.36810527 -0.048616951 8.0883628e-21)
(0.37830623 -0.047337033 -5.2970756e-22)
(0.3887552 -0.045974308 -2.8996582e-21)
(0.39942357 -0.044544231 -4.1388533e-21)
(0.41028249 -0.043060957 -1.5354716e-21)
(0.42130324 -0.041537474 -1.3578433e-21)
(0.43245749 -0.039985705 -3.2668693e-21)
(0.44371757 -0.038416578 0)
(0.45505665 -0.03684008 -1.4503937e-21)
(0.46644895 -0.035265293 3.9718102e-21)
(0.47786988 -0.033700429 5.6076079e-21)
(0.48929615 -0.032152855 -9.1827168e-22)
(0.50070586 -0.030629115 -3.1853207e-21)
(0.51207859 -0.029134956 3.3342662e-21)
(0.52339544 -0.027675361 1.0477942e-22)
(0.53463903 -0.026254577 3.6770658e-21)
(0.54579356 -0.024876151 -5.1544884e-22)
(0.5568448 -0.023542981 1.7769854e-21)
(0.56778006 -0.02225735 -8.7589132e-22)
(0.57858814 -0.021020988 3.7728799e-22)
(0.58925939 -0.019835119 -5.0802807e-22)
(0.5997856 -0.018700522 5.7810039e-22)
(0.61016002 -0.01761759 5.1374368e-22)
(0.62037734 -0.016586394 4.3129026e-22)
(0.63043363 -0.015606764 -1.0681015e-21)
(0.64032672 -0.014678325 7.6328563e-22)
(0.65005513 -0.013800747 -4.0442005e-22)
(0.65962184 -0.012973354 -1.2864824e-21)
(0.66902355 -0.012196991 1.6420473e-21)
(0.6782846 -0.011468961 -5.7179331e-23)
(0.68735843 -0.010800525 -1.8617736e-22)
(0.69642171 -0.010164873 -7.2869668e-24)
(0.7050285 -0.0096644888 -1.7436009e-22)
(0.71455782 -0.0090286241 -5.5438344e-22)
(0.72126557 -0.0091567531 8.1400677e-22)
(0.73558882 -0.0077661775 -4.8323654e-23)
(0.38865343 -0.043577012 -1.8693099e-20)
(0.3844514 -0.049404639 1.3115454e-20)
(0.38604185 -0.053212488 3.5634404e-21)
(0.38955207 -0.055055539 -7.9641858e-21)
(0.39243536 -0.056515953 1.2511494e-20)
(0.39535344 -0.057762001 8.0727489e-21)
(0.39882158 -0.058610059 -1.2812591e-20)
(0.40277677 -0.059062368 -6.250467e-21)
(0.40714919 -0.059187273 1.3043454e-20)
(0.41195715 -0.059029018 -1.6140065e-20)
(0.4172133 -0.058616475 -1.4359875e-20)
(0.42290638 -0.057976925 1.4906343e-20)
(0.42901833 -0.057137135 6.9518444e-21)
(0.43552967 -0.056122037 -4.8745425e-21)
(0.44241815 -0.054954521 -1.5130111e-21)
(0.44965868 -0.053655727 -3.7505725e-21)
(0.45722442 -0.052245323 4.9802444e-21)
(0.46508747 -0.050741637 3.6814282e-21)
(0.47321936 -0.049161726 -3.1646712e-21)
(0.48159142 -0.04752144 3.1284701e-21)
(0.4901752 -0.045835475 2.8964881e-21)
(0.49894266 -0.044117421 -3.3249433e-21)
(0.50786653 -0.042379787 3.6826179e-22)
(0.51692042 -0.040634017 -3.2108646e-21)
(0.52607903 -0.038890519 7.8649748e-21)
(0.53531827 -0.037158674 6.3931373e-21)
(0.54461537 -0.035446866 9.697408e-22)
(0.55394893 -0.0337625 -1.8170576e-21)
(0.563299 -0.03211204 4.0930261e-21)
(0.57264711 -0.030501043 7.7902977e-21)
(0.58197627 -0.028934206 2.370006e-21)
(0.59127099 -0.027415415 3.5863972e-21)
(0.60051724 -0.025947805 2.0963328e-21)
(0.60970249 -0.024533817 8.2031016e-22)
(0.61881563 -0.023175271 -2.5165049e-22)
(0.62784698 -0.021873429 2.9740928e-21)
(0.63678825 -0.020629078 6.7199054e-22)
(0.64563258 -0.019442597 3.1148775e-22)
(0.65437445 -0.018314066 5.6777464e-23)
(0.66301004 -0.017243299 1.1403152e-21)
(0.67153624 -0.016230157 4.3896636e-23)
(0.67995429 -0.015274068 5.327242e-22)
(0.68825943 -0.014376276 -1.2647593e-22)
(0.69647338 -0.013533773 -3.588496e-22)
(0.70455047 -0.012760178 -1.8390188e-22)
(0.71265633 -0.012023887 -5.0563066e-22)
(0.72037057 -0.011446155 2.1145241e-22)
(0.72898038 -0.010708713 -1.4999405e-22)
(0.73500386 -0.010864143 -4.6501758e-22)
(0.74808162 -0.0092532941 2.6991483e-22)
(0.52138524 -0.041593191 3.511232e-21)
(0.51198111 -0.048517509 -1.9217458e-20)
(0.5090408 -0.052864803 -2.4940619e-21)
(0.50866179 -0.055133702 5.6316869e-21)
(0.50764597 -0.057113451 3.4122872e-21)
(0.50656059 -0.058880957 3.8437634e-22)
(0.50608224 -0.060226772 6.8558659e-21)
(0.50620769 -0.061154013 7.9808307e-21)
(0.50684512 -0.061716848 1.0026948e-20)
(0.50799974 -0.06194981 -1.166078e-20)
(0.50968949 -0.061880676 -2.2489799e-20)
(0.51190813 -0.061537175 -4.321665e-21)
(0.5146378 -0.06094645 1.6525621e-20)
(0.51785818 -0.06013486 1.3210394e-20)
(0.5215465 -0.059127741 -5.7991117e-21)
(0.52567717 -0.057949147 1.060198e-21)
(0.53022249 -0.056621871 -4.0168031e-21)
(0.53515352 -0.055167504 2.8174863e-21)
(0.5404407 -0.053606421 -2.9271185e-22)
(0.54605419 -0.05195776 -1.935358e-21)
(0.55196426 -0.050239414 8.2817892e-21)
(0.55814164 -0.04846804 -4.2638818e-22)
(0.5645577 -0.046659052 5.4207179e-22)
(0.57118473 -0.044826621 -5.2497527e-22)
(0.57799608 -0.042983687 -4.4446837e-21)
(0.58496627 -0.041141966 4.3409374e-21)
(0.59207114 -0.039311971 1.8634084e-21)
(0.59928789 -0.037503038 -3.400292e-21)
(0.60659513 -0.035723364 -4.0906946e-21)