/*--------------------------------*- C++ -*----------------------------------*\
  =========                 |
  \\      /  F ield         | OpenFOAM: The Open Source CFD Toolbox
   \\    /   O peration     | Website:  https://openfoam.org
    \\  /    A nd           | Version:  6
     \\/     M anipulation  |
\*---------------------------------------------------------------------------*/
FoamFile
{
    version     2.0;
    format      ascii;
    class       volScalarField;
    location    "206";
    object      pMean;
}
// * * * * * * * * * * * * * * * * * * * * * * * * * * * * * * * * * * * * * //

dimensions      [0 2 -2 0 0 0 0];

internalField   nonuniform List<scalar> 
9200
(
-0.39347292
-0.3815426
-0.37089387
-0.36147965
-0.35227105
-0.34327225
-0.33456594
-0.32611702
-0.3178547
-0.30970514
-0.30159492
-0.29345581
-0.28523193
-0.2768868
-0.26841356
-0.25985212
-0.25128349
-0.24279906
-0.23540663
-0.23331979
-0.41181685
-0.39743714
-0.38485084
-0.37390937
-0.36331154
-0.35303067
-0.34313984
-0.33357382
-0.32423103
-0.31501308
-0.30582859
-0.29659879
-0.28726499
-0.27779419
-0.26818414
-0.25846669
-0.24867865
-0.23882592
-0.22958364
-0.22309377
-0.43050463
-0.41366436
-0.39919394
-0.38679838
-0.3748655
-0.36331987
-0.35221395
-0.34144592
-0.33088275
-0.32040687
-0.30991931
-0.29934502
-0.28863921
-0.27778977
-0.26681643
-0.25576581
-0.24468366
-0.23358426
-0.22286579
-0.21364191
-0.4490825
-0.42981071
-0.41352636
-0.39973829
-0.38648698
-0.37363267
-0.36120066
-0.34905364
-0.33703678
-0.32503004
-0.31294866
-0.30074537
-0.28841272
-0.27597994
-0.26350552
-0.25106657
-0.23873484
-0.22655198
-0.21478629
-0.20418382
-0.46690012
-0.44530949
-0.42733154
-0.41222686
-0.39766261
-0.38342518
-0.36951433
-0.35576979
-0.34203698
-0.32822146
-0.31428258
-0.30022853
-0.28611107
-0.27201477
-0.25804307
-0.24430396
-0.23088981
-0.21785878
-0.2053997
-0.19402645
-0.48311384
-0.45942212
-0.43992872
-0.42359497
-0.40770722
-0.39197991
-0.37640168
-0.3608167
-0.34510583
-0.32923677
-0.31324512
-0.29721781
-0.28127771
-0.26556509
-0.25021938
-0.23536451
-0.2210942
-0.20746119
-0.19459089
-0.18282547
-0.4967019
-0.47124483
-0.45047494
-0.43301039
-0.41577626
-0.39843293
-0.3809877
-0.36333117
-0.34542443
-0.32733591
-0.30920414
-0.2912067
-0.2735349
-0.25637049
-0.23986771
-0.22414302
-0.20926839
-0.19526978
-0.18221216
-0.17029978
-0.50648757
-0.47973353
-0.45799907
-0.43952645
-0.42093194
-0.40185781
-0.38237423
-0.36247105
-0.34223735
-0.32187576
-0.30164307
-0.28180519
-0.2626058
-0.24424405
-0.22686291
-0.21054789
-0.19533038
-0.18119597
-0.16815057
-0.15628174
-0.5111192
-0.48360057
-0.46120117
-0.44179424
-0.42178858
-0.40087211
-0.37923848
-0.35703321
-0.33451109
-0.31202211
-0.28993255
-0.26857247
-0.24820642
-0.22901966
-0.2111182
-0.19453878
-0.17926235
-0.16523072
-0.15239487
-0.14074217
-0.5092435
-0.48142149
-0.45852423
-0.4381408
-0.41662172
-0.39378483
-0.37001162
-0.34564663
-0.32112106
-0.29691261
-0.2734579
-0.25110492
-0.23009649
-0.21057187
-0.19258083
-0.17610381
-0.16107261
-0.14739149
-0.13496384
-0.12368951
-0.27557263
-0.27998836
-0.28209396
-0.28248908
-0.28189781
-0.28049209
-0.27836475
-0.2756097
-0.27230158
-0.26849754
-0.26424424
-0.25958172
-0.25454548
-0.24916799
-0.24347988
-0.23751249
-0.23129926
-0.22486321
-0.21820543
-0.21141608
-0.27847077
-0.28245167
-0.28424064
-0.28441325
-0.28363728
-0.28207597
-0.2798201
-0.27695933
-0.2735644
-0.26968937
-0.26537829
-0.26066892
-0.25559473
-0.25018602
-0.24447069
-0.23847888
-0.23225144
-0.22580971
-0.21904606
-0.21193386
-0.28411592
-0.2872494
-0.28842289
-0.28816045
-0.28702265
-0.28515712
-0.28265057
-0.27958448
-0.27602199
-0.27201106
-0.26759052
-0.26279352
-0.25764947
-0.25218454
-0.24642154
-0.24038744
-0.23413423
-0.22768232
-0.22072998
-0.21301002
-0.2922419
-0.29416664
-0.29445163
-0.29354983
-0.29187421
-0.28955255
-0.28666678
-0.28328731
-0.27946673
-0.27524451
-0.27065201
-0.26571578
-0.26045923
-0.25490252
-0.24906135
-0.24295711
-0.23665314
-0.23017489
-0.22297511
-0.21440826
-0.30251378
-0.30293377
-0.30209153
-0.30035904
-0.29797405
-0.29504345
-0.291645
-0.2878365
-0.28365819
-0.27913945
-0.27430265
-0.26916545
-0.26374322
-0.25804878
-0.25208945
-0.24587796
-0.23948488
-0.23294921
-0.22546977
-0.21588264
-0.31458453
-0.31327126
-0.31110078
-0.3083637
-0.30510704
-0.30141849
-0.29737388
-0.29301872
-0.2883802
-0.28347519
-0.2783145
-0.27290587
-0.26725532
-0.26136686
-0.25523846
-0.24887147
-0.24233586
-0.23569009
-0.2279105
-0.21720243
-0.32814591
-0.3249295
-0.32126685
-0.31737368
-0.31309948
-0.30851641
-0.30370233
-0.29869007
-0.2934912
-0.28810931
-0.28254302
-0.27678815
-0.27083966
-0.26469173
-0.25833322
-0.2517539
-0.24501649
-0.23820193
-0.23012853
-0.21831212
-0.3429584
-0.33771325
-0.33243003
-0.32725894
-0.32184984
-0.31626259
-0.31057742
-0.30481399
-0.29896833
-0.29302893
-0.2869794
-0.28080082
-0.27447424
-0.26798165
-0.2613024
-0.25441792
-0.24738869
-0.2403417
-0.23205538
-0.21935944
-0.35885027
-0.35147248
-0.3444631
-0.33791671
-0.33127792
-0.32459331
-0.31794754
-0.31134677
-0.30476887
-0.29818427
-0.29155833
-0.28485358
-0.27803212
-0.27105601
-0.26388283
-0.25646764
-0.24883677
-0.24110032
-0.23203654
-0.21819082
-0.37570798
-0.36608316
-0.35723603
-0.34921045
-0.34123391
-0.33333955
-0.32561656
-0.3180556
-0.31061435
-0.30324397
-0.29589184
-0.28850428
-0.28102961
-0.27341833
-0.26561789
-0.25756842
-0.24921782
-0.24036802
-0.22940724
-0.21335692
-0.20373049
-0.19417371
-0.18464653
-0.17522494
-0.16585131
-0.1565662
-0.14742571
-0.13846611
-0.12971614
-0.12120361
-0.11295344
-0.1049865
-0.097320138
-0.089968637
-0.082943282
-0.076252443
-0.069901732
-0.063894159
-0.058230281
-0.052908347
-0.047924472
-0.043272804
-0.038945715
-0.034933995
-0.031227052
-0.027813123
-0.024679478
-0.02181263
-0.019198533
-0.01682278
-0.014670782
-0.012727943
-0.010979816
-0.0094122495
-0.0080115184
-0.0067644452
-0.0056585167
-0.0046819741
-0.0038239887
-0.0030745619
-0.0024254144
-0.0018677878
-0.0014003672
-0.0010059798
-0.00072526266
-0.0004382144
-0.00052170503
7.0176594e-05
-0.0018099498
0.0027455788
-0.20497964
-0.19499511
-0.18534271
-0.1759269
-0.1665236
-0.15719531
-0.14801851
-0.13902558
-0.13024235
-0.1216973
-0.11341574
-0.10541842
-0.09772266
-0.0903428
-0.083290188
-0.076573238
-0.070197603
-0.06416633
-0.058480002
-0.053136884
-0.048133092
-0.04346277
-0.039118273
-0.035090366
-0.031368424
-0.027940644
-0.024794251
-0.021915708
-0.019290917
-0.016905414
-0.014744554
-0.012793681
-0.011038292
-0.0094641762
-0.0080575531
-0.0068051893
-0.0056945183
-0.0047137293
-0.003851944
-0.0030991154
-0.0024469167
-0.0018865449
-0.0014166224
-0.0010199704
-0.00073695585
-0.00044816259
-0.00052782423
6.2275897e-05
-0.0017975054
0.0027163845
-0.20753479
-0.19664635
-0.18674833
-0.17738746
-0.16794063
-0.15852848
-0.14928257
-0.14022551
-0.13137562
-0.12276373
-0.11441672
-0.10635521
-0.098596632
-0.091155676
-0.084043976
-0.077270145
-0.070840016
-0.064756786
-0.059021148
-0.053631444
-0.04858383
-0.043872459
-0.039489669
-0.03542618
-0.031671304
-0.028213155
-0.025038861
-0.022134772
-0.019486673
-0.017079974
-0.014899898
-0.012931659
-0.011160619
-0.0095724361
-0.0081531998
-0.0068895508
-0.0057688006
-0.0047790212
-0.0039092221
-0.0031492477
-0.0024906666
-0.0019245745
-0.0014494664
-0.001048129
-0.00076042035
-0.00046800025
-0.00054004272
4.6747725e-05
-0.0017729185
0.0026585757
-0.21115158
-0.19882663
-0.18857542
-0.17939975
-0.16994183
-0.1604256
-0.15109944
-0.14196869
-0.13303522
-0.12433522
-0.11589978
-0.1077497
-0.09990272
-0.092374458
-0.085177297
-0.078320386
-0.07181001
-0.065649746
-0.059840587
-0.054381094
-0.049267573
-0.044494265
-0.040053538
-0.035936098
-0.032131197
-0.028626854
-0.025410073
-0.022467059
-0.019783427
-0.017344407
-0.015135033
-0.013140321
-0.011345433
-0.0097358276
-0.0082973976
-0.0070165908
-0.0058805319
-0.0048771124
-0.0039951691
-0.0032243795
-0.0025561507
-0.0019814228
-0.0014984978
-0.001090103
-0.00079534501
-0.00049745645
-0.00055815473
2.3850204e-05
-0.0017366271
0.0025733596
-0.21551074
-0.20119563
-0.19049346
-0.1817065
-0.17232666
-0.16271132
-0.15331632
-0.14412787
-0.1351155
-0.1263227
-0.11778963
-0.10953859
-0.10158788
-0.093954688
-0.08665292
-0.079692828
-0.073081578
-0.066823502
-0.060920201
-0.05537071
-0.050171686
-0.045317613
-0.040801013
-0.036612659
-0.0327418
-0.029176395
-0.025903332
-0.022908663
-0.020177814
-0.017695799
-0.01544742
-0.013417445
-0.011590781
-0.0099526292
-0.0084886248
-0.0071849617
-0.0060285172
-0.0050069431
-0.0041088454
-0.0033236783
-0.0026426326
-0.0020564393
-0.0015631427
-0.001145388
-0.00084129004
-0.0005361423
-0.00058189136
-6.0112962e-06
-0.0016893843
0.0024626205
-0.2201869
-0.2034178
-0.19218602
-0.1840248
-0.17487544
-0.1652005
-0.15576367
-0.14655486
-0.13749278
-0.12862234
-0.11999797
-0.11164699
-0.10358902
-0.095843331
-0.088426259
-0.081350011
-0.074623275
-0.068251653
-0.062237812
-0.056581635
-0.051280445
-0.046329222
-0.041720838
-0.037446289
-0.033494941
-0.029854767
-0.026512599
-0.023454357
-0.020665288
-0.018130182
-0.015833582
-0.013759974
-0.011893969
-0.010220463
-0.0087247784
-0.0073928028
-0.0062111103
-0.0051670573
-0.0042489646
-0.003446009
-0.0027491125
-0.0021487458
-0.0016426315
-0.0012133134
-0.00089767645
-0.00058355287
-0.00061091228
-4.2329833e-05
-0.0016321714
0.0023288081
-0.22473417
-0.20527992
-0.19341672
-0.18604775
-0.17735541
-0.16773594
-0.15829923
-0.14911223
-0.14004755
-0.13113443
-0.12243984
-0.11400154
-0.10584302
-0.097986247
-0.090450776
-0.08325181
-0.076400432
-0.069904192
-0.063767386
-0.057991239
-0.052574136
-0.047511881
-0.042797961
-0.038423805
-0.03437905
-0.030651811
-0.027228937
-0.024096279
-0.02123893
-0.018641462
-0.016288153
-0.014163188
-0.012250847
-0.010535681
-0.0090026593
-0.0076373125
-0.0064258624
-0.0053553194
-0.004413669
-0.0035897605
-0.0028741977
-0.0022571433
-0.0017359362
-0.0012930055
-0.00096377012
-0.00063907445
-0.00064481471
-8.4559747e-05
-0.0015661211
0.0021747884
-0.22886366
-0.20715599
-0.19440304
-0.18758685
-0.17954541
-0.17021789
-0.16086594
-0.15173044
-0.14270425
-0.13378954
-0.12505247
-0.11654391
-0.10829566
-0.10033368
-0.092681197
-0.085357228
-0.078376097
-0.071747972
-0.065479318
-0.059573168
-0.054029372
-0.048844892
-0.044014104
-0.039529091
-0.035379944
-0.031555053
-0.028041394
-0.024824817
-0.021890309
-0.019222255
-0.016804672
-0.014621438
-0.012656484
-0.010893988
-0.0093185325
-0.0079152516
-0.0066699728
-0.0055693168
-0.0046008888
-0.0037531658
-0.0030163879
-0.0023803663
-0.0018419969
-0.0013835876
-0.0010388555
-0.00070213204
-0.0006832528
-0.00013222472
-0.0014925029
0.0020037937
-0.23023808
-0.20923585
-0.19579225
-0.18856552
-0.18101089
-0.17226462
-0.16318785
-0.15417601
-0.14524737
-0.13639742
-0.12767574
-0.11914137
-0.11083779
-0.10279729
-0.095047506
-0.08761194
-0.08050909
-0.073752652
-0.067352062
-0.061312881
-0.055637074
-0.050323336
-0.045367427
-0.04076251
-0.036499479
-0.032567291
-0.028953281
-0.02564348
-0.022622907
-0.019875853
-0.017386144
-0.015137383
-0.013113173
-0.011297312
-0.0096739764
-0.0082278792
-0.0069444162
-0.0058097768
-0.0048111409
-0.0039365656
-0.0031758784
-0.0025184912
-0.0019607936
-0.001484957
-0.0011227823
-0.00077247896
-0.00072616055
-0.00018467378
-0.0014130374
0.0018200479
-0.22061523
-0.20861263
-0.19706818
-0.18845512
-0.18085641
-0.17290295
-0.1644442
-0.15580575
-0.14716629
-0.13855432
-0.13000086
-0.12156556
-0.11330502
-0.10526257
-0.097473857
-0.089969624
-0.08277518
-0.075910161
-0.069389052
-0.063221696
-0.057413665
-0.051966633
-0.04687878
-0.042145196
-0.037758269
-0.033708068
-0.029982719
-0.026568765
-0.023451505
-0.020615314
-0.018043949
-0.015720814
-0.013629218
-0.011752594
-0.010074701
-0.0085797989
-0.007252814
-0.0060794558
-0.0050464262
-0.0041413059
-0.0033534535
-0.0026718221
-0.0020922352
-0.0015966775
-0.0012149054
-0.00084912918
-0.00077293551
-0.00023980385
-0.0013301073
0.0016292438
-0.1988851
-0.20258321
-0.19665471
-0.18729533
-0.17930215
-0.17177623
-0.16377833
-0.1554537
-0.14706526
-0.13867808
-0.13031573
-0.12203377
-0.11389284
-0.10594102
-0.098217475
-0.090756241
-0.083585902
-0.076729172
-0.070203306
-0.06402063
-0.058188924
-0.052711804
-0.047589139
-0.042817464
-0.038390397
-0.034299035
-0.030532354
-0.027077578
-0.023920545
-0.021046047
-0.01843814
-0.016080437
-0.013956374
-0.012049444
-0.010343407
-0.0088224828
-0.0074715163
-0.0062761083
-0.0052228242
-0.0042990937
-0.0034940735
-0.0027965791
-0.0022019374
-0.0016925572
-0.0012953199
-0.00091887452
-0.00081343527
-0.00029445053
-0.0012434466
0.0014397996
-0.18794352
-0.19274711
-0.18866544
-0.17957748
-0.17196194
-0.16524068
-0.15809115
-0.15052489
-0.14283185
-0.13508889
-0.1273108
-0.11954932
-0.11186783
-0.10431849
-0.096944526
-0.089784233
-0.082870704
-0.076231102
-0.069886948
-0.063854599
-0.058145613
-0.052767104
-0.047722149
-0.043010212
-0.038627554
-0.034567651
-0.030821597
-0.027378494
-0.024225833
-0.021349843
-0.018735823
-0.016368455
-0.014232075
-0.012310934
-0.01058942
-0.0090522592
-0.0076847023
-0.006472665
-0.005402939
-0.0044631268
-0.0036424196
-0.0029297927
-0.0023200546
-0.0017966915
-0.0013825193
-0.0009958617
-0.00085592248
-0.00035839089
-0.00114301
0.0012342833
-0.1787233
-0.18106525
-0.17823125
-0.17091223
-0.16420583
-0.15822778
-0.15188783
-0.14509154
-0.13809841
-0.13100437
-0.12382668
-0.1166113
-0.10942059
-0.10230878
-0.0953215
-0.088499814
-0.081880086
-0.075493074
-0.069363965
-0.063512761
-0.05795458
-0.05269995
-0.047755177
-0.043122738
-0.038801686
-0.034788048
-0.031075235
-0.027654436
-0.024514998
-0.021644793
-0.019030561
-0.016658228
-0.014513204
-0.012580647
-0.010845707
-0.0092937397
-0.0079105056
-0.0066823249
-0.0055962897
-0.0046402387
-0.0038034389
-0.0030750787
-0.0024494113
-0.001911158
-0.0014786107
-0.0010809147
-0.00090285779
-0.00042919123
-0.0010322994
0.0010080381
-0.16856183
-0.16847076
-0.1661464
-0.16092269
-0.15548853
-0.15030138
-0.14479374
-0.13884569
-0.13262918
-0.12624508
-0.11972592
-0.1131159
-0.10647421
-0.099855889
-0.093308681
-0.086875944
-0.080596869
-0.074505516
-0.068630614
-0.062995786
-0.057619778
-0.052516678
-0.047696221
-0.043164136
-0.038922525
-0.034970243
-0.031303295
-0.027915223
-0.024797495
-0.021939871
-0.019330758
-0.016957541
-0.01480689
-0.012865042
-0.011118059
-0.0095520586
-0.0081534219
-0.0069089699
-0.0058061744
-0.0048331745
-0.0039793618
-0.0032341726
-0.0025913194
-0.0020367732
-0.0015842315
-0.0011737705
-0.0009551735
-0.0005037027
-0.00091903991
0.00077140632
-0.15752986
-0.15573292
-0.15350889
-0.15001342
-0.14590396
-0.14156623
-0.13689489
-0.13182429
-0.12643526
-0.12081088
-0.11499867
-0.10904531
-0.10300589
-0.096934406
-0.090879703
-0.084886678
-0.078996562
-0.073246116
-0.067667214
-0.062286871
-0.057127356
-0.052206327
-0.047537049
-0.043128676
-0.038986576
-0.035112685
-0.031505868
-0.028162302
-0.025075849
-0.022238425
-0.01964036
-0.017270731
-0.015117687
-0.013168743
-0.011411047
-0.0098316299
-0.008417631
-0.0071564852
-0.0060361399
-0.0050451107
-0.0041729772
-0.0034094583
-0.0027477756
-0.0021750947
-0.0017006664
-0.0012750595
-0.0010140426
-0.00058086128
-0.00080911705
0.00053255195
-0.1453432
-0.14289395
-0.14085978
-0.13865479
-0.13574153
-0.13227867
-0.12843069
-0.12421543
-0.11965524
-0.11480614
-0.10972256
-0.10445293
-0.099048066
-0.093559545
-0.088036063
-0.082522939
-0.077062311
-0.071692627
-0.066448115
-0.061358585
-0.056449391
-0.051741473
-0.047251462
-0.042991886
-0.038971418
-0.035195176
-0.031665043
-0.028380018
-0.025336568
-0.02252899
-0.019949756
-0.017589862
-0.015439145
-0.013486593
-0.011720627
-0.010129356
-0.0087008222
-0.0074232039
-0.0062850348
-0.0052752971
-0.0043838384
-0.003600701
-0.0029186971
-0.0023260922
-0.0018280101
-0.0013846713
-0.0010801064
-0.00065978697
-0.00070834361
0.00030003782
-0.13232655
-0.13010102
-0.12847652
-0.12720462
-0.12527852
-0.12265874
-0.11960383
-0.11619564
-0.11243294
-0.10834617
-0.10398799
-0.099407943
-0.094651646
-0.08976599
-0.08479824
-0.079793221
-0.074792905
-0.069836265
-0.064958858
-0.060192454
-0.055564824
-0.051099659
-0.046816573
-0.042731206
-0.038855388
-0.035197359
-0.031762038
-0.028551321
-0.025564403
-0.022798108
-0.020247228
-0.017904855
-0.015762703
-0.013811414
-0.012040853
-0.010440377
-0.0089990778
-0.0077060131
-0.0065504226
-0.0055218553
-0.0046105191
-0.0038068281
-0.003103294
-0.0024891587
-0.0019658892
-0.001502183
-0.0011537768
-0.00073966036
-0.00062255964
8.3009963e-05
-0.11918283
-0.11759683
-0.11650811
-0.11591645
-0.11476957
-0.11291417
-0.11059936
-0.10793473
-0.10491601
-0.10155638
-0.097900316
-0.093994893
-0.089882232
-0.085603735
-0.081202307
-0.076721073
-0.072201063
-0.067680758
-0.063195946
-0.058779371
-0.054460386
-0.05026473
-0.046214434
-0.042327804
-0.038619502
-0.035100673
-0.031779145
-0.02865966
-0.025744154
-0.023032045
-0.020520543
-0.018204962
-0.016079035
-0.014135216
-0.012364968
-0.010759043
-0.0093077327
-0.0080011073
-0.006829236
-0.0057823413
-0.0048510929
-0.0040263327
-0.0033004019
-0.0026633864
-0.0021136737
-0.0016270539
-0.001235289
-0.00081997012
-0.0005568891
-0.00010985767
-0.10643756
-0.10555663
-0.10501944
-0.1049466
-0.10441112
-0.10321886
-0.10157181
-0.099578795
-0.097238635
-0.094555186
-0.091562902
-0.08830316
-0.084813474
-0.081130686
-0.077293066
-0.073339702
-0.069309388
-0.065239323
-0.061164607
-0.057117977
-0.053129455
-0.049226035
-0.045431467
-0.041766154
-0.038247118
-0.034888052
-0.031699427
-0.028688662
-0.025860333
-0.023216416
-0.020756556
-0.018478351
-0.016377639
-0.014448792
-0.012684998
-0.011078531
-0.009621016
-0.0083036591
-0.0071174809
-0.0060534847
-0.0051029087
-0.0042570868
-0.003508333
-0.002847454
-0.002270393
-0.0017585849
-0.0013246153
-0.0009005704
-0.0005150048
-0.00027151786
-0.094363988
-0.09409689
-0.094055668
-0.094393147
-0.094340871
-0.093706515
-0.092643399
-0.091245372
-0.089513111
-0.087445638
-0.085068102
-0.082414563
-0.079517089
-0.076407345
-0.073118989
-0.069686928
-0.066146228
-0.062531614
-0.05887669
-0.055213351
-0.051571418
-0.047978311
-0.044458761
-0.041034611
-0.037724687
-0.034544765
-0.031507591
-0.028622978
-0.025897941
-0.023336885
-0.020941822
-0.018712615
-0.016647236
-0.014742031
-0.012991991
-0.011391013
-0.009932157
-0.0086078785
-0.0074102588
-0.006331185
-0.00536257
-0.0044963102
-0.0037248404
-0.0030395919
-0.002434706
-0.0018958863
-0.0014214052
-0.00098160816
-0.00049858506
-0.00039755898
-0.083094897
-0.083306001
-0.083669304
-0.084328998
-0.084657122
-0.084480329
-0.083913215
-0.083030996
-0.081833538
-0.080316742
-0.078497867
-0.076403343
-0.074059255
-0.071491864
-0.068729646
-0.06580304
-0.062743218
-0.059581453
-0.056348842
-0.053075653
-0.049790743
-0.046521176
-0.043291921
-0.040125575
-0.037042162
-0.034059011
-0.031190698
-0.028449063
-0.025843276
-0.023379958
-0.021063343
-0.018895469
-0.016876402
-0.015004466
-0.013276488
-0.011688047
-0.010233712
-0.0089072762
-0.0077019746
-0.0066106716
-0.0056260547
-0.0047406571
-0.003947181
-0.0032376211
-0.0026049255
-0.002037868
-0.0015249565
-0.0010633807
-0.00050703162
-0.00048692368
-0.072686024
-0.073243935
-0.073912005
-0.074813398
-0.075433753
-0.0756221
-0.075464276
-0.075018319
-0.074281692
-0.073247646
-0.07192686
-0.070338577
-0.068502794
-0.066440286
-0.064174225
-0.061730118
-0.059134887
-0.056416114
-0.05360167
-0.050719366
-0.047796368
-0.044858684
-0.041930807
-0.03903541
-0.036193087
-0.033422152
-0.030738516
-0.02815562
-0.025684437
-0.023333524
-0.02110912
-0.019015289
-0.017054086
-0.015225761
-0.013528964
-0.011960971
-0.010517904
-0.0091949514
-0.0079865762
-0.0068866988
-0.0058888707
-0.0049863373
-0.0041722066
-0.0034390148
-0.0027790606
-0.0021832303
-0.0016342038
-0.0011461526
-0.00053753312
-0.00054213469
-0.063146045
-0.063941056
-0.06482251
-0.065892121
-0.066726968
-0.067197003
-0.067366596
-0.067279551
-0.066930631
-0.066310734
-0.065425068
-0.064286496
-0.062909224
-0.061308678
-0.059502805
-0.057512094
-0.055358876
-0.053066707
-0.050659938
-0.048163342
-0.045601705
-0.042999321
-0.040379556
-0.037764511
-0.035174721
-0.032628907
-0.030143779
-0.027733916
-0.025411689
-0.023187251
-0.021068576
-0.019061536
-0.017170025
-0.015396111
-0.013740204
-0.012201253
-0.010776938
-0.009463875
-0.0082578018
-0.0071537568
-0.0061462321
-0.0052292576
-0.0043964748
-0.0036409753
-0.0029548695
-0.0023304587
-0.0017477307
-0.0012299774
-0.00058550441
-0.00056888648
-0.054457564
-0.05540338
-0.056421568
-0.057595458
-0.058577127
-0.059255125
-0.05967748
-0.059876679
-0.059845245
-0.059572208
-0.059058338
-0.058311073
-0.057339432
-0.056153875
-0.054767394
-0.053195603
-0.051456201
-0.049568491
-0.04755302
-0.045431211
-0.043224978
-0.040956315
-0.038646874
-0.036317582
-0.033988316
-0.031677621
-0.029402468
-0.027178073
-0.025017762
-0.022932901
-0.02093287
-0.019025088
-0.017215077
-0.015506566
-0.013901618
-0.012400789
-0.011003285
-0.009707147
-0.0085094116
-0.0074062767
-0.0063932364
-0.0054651712
-0.0046163701
-0.0038405225
-0.0031299221
-0.0024778317
-0.0018638131
-0.0013145727
-0.00064534002
-0.00057501244
-0.046587538
-0.047618003
-0.048711897
-0.049937449
-0.051009021
-0.051831645
-0.05244085
-0.052860321
-0.053081072
-0.053090911
-0.052887191
-0.052472944
-0.051852781
-0.051032789
-0.050021471
-0.048829894
-0.047471309
-0.045960784
-0.044314925
-0.042551582
-0.0406895
-0.038747953
-0.036746374
-0.034703986
-0.032639462
-0.030570618
-0.028514147
-0.026485392
-0.024498165
-0.022564625
-0.02069519
-0.018898512
-0.017181483
-0.015549288
-0.01400549
-0.012552139
-0.011189901
-0.009918204
-0.0087353805
-0.0076388068
-0.0066250221
-0.0056898146
-0.0048282186
-0.0040345831
-0.0033016684
-0.0026234479
-0.0019804985
-0.0013992792
-0.00071132482
-0.00056902707
-0.039492625
-0.040558312
-0.041681277
-0.042917383
-0.044032889
-0.044947449
-0.045687136
-0.046268931
-0.046683076
-0.046916842
-0.046965149
-0.046827639
-0.046505383
-0.046000818
-0.045318574
-0.044465668
-0.043451261
-0.042286402
-0.040983831
-0.039557761
-0.038023604
-0.036397654
-0.034696764
-0.032938024
-0.031138425
-0.02931456
-0.027482335
-0.025656719
-0.023851539
-0.022079299
-0.020351057
-0.018676345
-0.017063123
-0.015517783
-0.014045185
-0.01264872
-0.011330404
-0.010090984
-0.0089300499
-0.0078461514
-0.0068368951
-0.0058990203
-0.0050283861
-0.0042200709
-0.003467505
-0.0027652714
-0.002095712
-0.0014831067
-0.00077848128
-0.00055860269
-0.033123682
-0.03418888
-0.035306644
-0.036522703
-0.037646507
-0.038610629
-0.039434099
-0.0401289
-0.040685143
-0.041090173
-0.041337375
-0.041423957
-0.041348319
-0.041110027
-0.040710538
-0.040153433
-0.039444283
-0.038590491
-0.037601177
-0.036487038
-0.035260146
-0.033933702
-0.032521773
-0.031039006
-0.029500345
-0.027920738
-0.026314855
-0.024696834
-0.023080047
-0.021476906
-0.01989869
-0.018355432
-0.016855822
-0.015407168
-0.014015384
-0.012685009
-0.011419255
-0.010220079
-0.0090882603
-0.0080234868
-0.0070244301
-0.0060888056
-0.0052133555
-0.0043939536
-0.0036248367
-0.002901191
-0.0022073716
-0.00156484
-0.00084313607
-0.00054939106
-0.027429148
-0.028469156
-0.029557662
-0.03073207
-0.031837731
-0.03281854
-0.033688338
-0.034455466
-0.035110393
-0.035641032
-0.036039992
-0.036302888
-0.036426261
-0.036407567
-0.036245814
-0.035941816
-0.035498141
-0.034919037
-0.034210387
-0.033379637
-0.032435673
-0.031388643
-0.030249762
-0.029031077
-0.027745234
-0.026405219
-0.025024101
-0.023614784
-0.022189771
-0.020760954
-0.019339425
-0.017935327
-0.016557722
-0.015214514
-0.013912391
-0.012656804
-0.011451974
-0.010300919
-0.009205504
-0.0081664871
-0.007183574
-0.0062554578
-0.005379797
-0.0045533131
-0.0037711318
-0.0030290861
-0.0023134872
-0.0016431654
-0.00090307765
-0.00054449542
-0.022357329
-0.023356105
-0.024399521
-0.025518104
-0.026587032
-0.027560037
-0.028447162
-0.029254131
-0.029972114
-0.030589947
-0.03110005
-0.031497154
-0.031776638
-0.031934543
-0.031968121
-0.031876083
-0.031658616
-0.031317365
-0.03085545
-0.03027745
-0.029589345
-0.02879841
-0.027913079
-0.026942779
-0.025897741
-0.024788792
-0.023627136
-0.022424125
-0.021191038
-0.019938874
-0.018678153
-0.017418746
-0.016169729
-0.014939265
-0.013734513
-0.012561572
-0.011425444
-0.010330032
-0.0092781398
-0.0082714984
-0.0073107849
-0.006395643
-0.0055246532
-0.0046954151
-0.0039039834
-0.0031468967
-0.0024122301
-0.00171678
-0.00095732514
-0.00054466182
-0.017858256
-0.018806416
-0.019795363
-0.020849896
-0.021869975
-0.022817827
-0.023700705
-0.024522469
-0.025275194
-0.025948856
-0.026536119
-0.027031369
-0.027429399
-0.027725427
-0.027915555
-0.027997015
-0.027968215
-0.027828768
-0.027579547
-0.027222715
-0.02676172
-0.026201252
-0.02554716
-0.024806352
-0.023986658
-0.023096673
-0.02214558
-0.021142964
-0.02009861
-0.019022315
-0.017923689
-0.016811993
-0.015695967
-0.014583699
-0.013482511
-0.012398864
-0.011338297
-0.010305379
-0.0093036852
-0.0083357857
-0.0074032348
-0.0065065695
-0.0056452679
-0.0048178114
-0.004021191
-0.0032527037
-0.002501976
-0.0017844685
-0.0010056714
-0.00054899477
-0.013884757
-0.01477794
-0.015708004
-0.016694915
-0.017659251
-0.018570528
-0.019433931
-0.02025199
-0.021017773
-0.021722495
-0.022359349
-0.022922767
-0.02340739
-0.023808082
-0.024120309
-0.024340359
-0.024465409
-0.02449358
-0.024424014
-0.024256939
-0.023993697
-0.023636752
-0.023189658
-0.022657009
-0.022044359
-0.02135811
-0.020605391
-0.019793904
-0.018931771
-0.018027356
-0.017089101
-0.016125357
-0.015144224
-0.014153407
-0.013160084
-0.012170797
-0.011191356
-0.01022677
-0.0092811876
-0.0083578564
-0.007459085
-0.0065862169
-0.0057395725
-0.0049184905
-0.0041208793
-0.0033448283
-0.0025813405
-0.0018451552
-0.0010482215
-0.00055584362
-0.01039391
-0.011231383
-0.012101808
-0.013021016
-0.013926757
-0.014794771
-0.015628689
-0.016430076
-0.017192993
-0.017909904
-0.018574687
-0.019182084
-0.019726889
-0.020203957
-0.020608514
-0.020936345
-0.02118386
-0.02134817
-0.021427167
-0.021419606
-0.021325165
-0.021144478
-0.020879147
-0.020531736
-0.020105732
-0.019605489
-0.019036142
-0.01840351
-0.017713969
-0.016974326
-0.016191665
-0.015373207
-0.014526159
-0.013657573
-0.01277421
-0.01188242
-0.01098803
-0.010096249
-0.0092115908
-0.0083377994
-0.0074777915
-0.0066336029
-0.005806314
-0.0049960682
-0.0042016504
-0.0034219529
-0.0026492281
-0.0018979506
-0.001085093
-0.00056352983
-0.0073470664
-0.0081308084
-0.0089436068
-0.0097977295
-0.01064523
-0.011467138
-0.01226589
-0.013042327
-0.013791447
-0.014506902
-0.015183322
-0.015815906
-0.016399792
-0.016930064
-0.017401996
-0.017811198
-0.018153691
-0.018425973
-0.018625103
-0.01874879
-0.018795463
-0.018764325
-0.018655395
-0.01846953
-0.018208425
-0.017874597
-0.017471345
-0.017002687
-0.016473279
-0.015888325
-0.01525346
-0.014574632
-0.013857973
-0.013109671
-0.012335842
-0.011542405
-0.010734966
-0.0099187107
-0.0090983031
-0.0082777983
-0.0074605579
-0.0066491764
-0.0058453886
-0.0050500652
-0.0042628062
-0.0034832908
-0.0027049288
-0.0019422249
-0.0011163329
-0.00057075659
-0.0047111641
-0.005444776
-0.006203705
-0.0069970886
-0.0077888851
-0.008564605
-0.0093257424
-0.01007258
-0.010800955
-0.011505604
-0.012181906
-0.012825577
-0.013432204
-0.013997243
-0.014516196
-0.014984739
-0.015398776
-0.015754504
-0.016048492
-0.016277761
-0.016439861
-0.016532936
-0.016555777
-0.01650787
-0.016389424
-0.016201381
-0.015945412
-0.015623897
-0.015239875
-0.014796993
-0.014299426
-0.01375179
-0.013159035
-0.012526346
-0.011859021
-0.011162359
-0.010441546
-0.0097015376
-0.008946956
-0.0081819817
-0.007410256
-0.0066347878
-0.0058578452
-0.0050809292
-0.0043043756
-0.0035286104
-0.0027481215
-0.0019776092
-0.0011419185
-0.00057668544
-0.0024603639
-0.0031490885
-0.0038595684
-0.004598281
-0.0053390229
-0.0060710414
-0.0067950756
-0.0075109591
-0.0082152559
-0.0089036544
-0.0095722272
-0.010217214
-0.010834682
-0.011420517
-0.01197056
-0.012480697
-0.012946902
-0.013365299
-0.013732224
-0.014044298
-0.014298502
-0.014492243
-0.014623414
-0.014690452
-0.014692384
-0.014628863
-0.014500187
-0.014307307
-0.014051816
-0.013735924
-0.013362417
-0.0129346
-0.012456223
-0.011931402
-0.011364521
-0.010760132
-0.010122852
-0.0094572515
-0.008767742
-0.0080584676
-0.0073331936
-0.0065952
-0.0058471602
-0.0050910954
-0.0043279829
-0.0035589299
-0.0027794188
-0.0020044163
-0.0011621376
-0.00058103649
-0.00056939822
-0.0012185941
-0.0018863866
-0.0025768659
-0.003271902
-0.003963854
-0.0046528541
-0.0053383621
-0.0060175456
-0.0066869023
-0.0073431174
-0.0079829147
-0.0086028217
-0.009199165
-0.0097681598
-0.010305974
-0.010808766
-0.01127273
-0.011694147
-0.012069453
-0.012395297
-0.01266861
-0.012886662
-0.013047128
-0.01314814
-0.013188336
-0.013166904
-0.013083604
-0.01293879
-0.01273341
-0.012468994
-0.01214763
-0.011771915
-0.011344902
-0.010870033
-0.010351053
-0.0097919202
-0.0091967082
-0.008569496
-0.0079142581
-0.0072347487
-0.0065343874
-0.0058161272
-0.0050823953
-0.004334705
-0.0035747604
-0.0027989411
-0.0020224857
-0.0011767241
-0.00058339004
0.00095819754
0.00034122311
-0.00029141596
-0.00094205943
-0.0015989771
-0.0022569665
-0.0029156646
-0.0035742327
-0.0042303226
-0.0048810875
-0.0055237204
-0.0061553601
-0.0067729416
-0.0073731916
-0.0079526854
-0.0085078899
-0.0090351921
-0.0095309327
-0.0099914511
-0.010413135
-0.010792477
-0.011126128
-0.011410961
-0.01164413
-0.011823127
-0.01194584
-0.012010605
-0.012016249
-0.011962125
-0.011848137
-0.011674752
-0.011442997
-0.011154446
-0.010811188
-0.010415778
-0.0099711803
-0.0094806886
-0.0089478439
-0.008376334
-0.0077698867
-0.0071321539
-0.0064665932
-0.005776331
-0.0050640921
-0.0043318165
-0.0035817054
-0.0028109175
-0.002034922
-0.0011878604
-0.00058487433
0.0021652343
0.0015748025
0.00097096639
0.00035299957
-0.00027235354
-0.0009018343
-0.0015346993
-0.0021698621
-0.0028053411
-0.0034388005
-0.0040678358
-0.0046899216
-0.0053023286
-0.005902121
-0.0064861884
-0.0070512727
-0.0075939884
-0.0081108495
-0.0085983034
-0.0090527721