/*--------------------------------*- C++ -*----------------------------------*\
  =========                 |
  \\      /  F ield         | OpenFOAM: The Open Source CFD Toolbox
   \\    /   O peration     | Website:  https://openfoam.org
    \\  /    A nd           | Version:  6
     \\/     M anipulation  |
\*---------------------------------------------------------------------------*/
FoamFile
{
    version     2.0;
    format      ascii;
    class       volVectorField;
    location    "206";
    object      U;
}
// * * * * * * * * * * * * * * * * * * * * * * * * * * * * * * * * * * * * * //

dimensions      [0 1 -1 0 0 0 0];

internalField   nonuniform List<vector> 
9200
(
(0.0010393464 0.0014199821 -5.9201842e-20)
(0.013676068 -0.0020583671 4.6042533e-20)
(0.038313169 -0.0058665687 -3.8501736e-20)
(0.072274441 -0.0097635061 -6.0257749e-20)
(0.11376475 -0.01349003 1.8826964e-20)
(0.16158089 -0.016605659 3.2743879e-20)
(0.21467149 -0.018817287 -1.2268008e-20)
(0.27206609 -0.019973892 9.2688615e-21)
(0.33285624 -0.020011225 1.6803426e-20)
(0.39616349 -0.018929054 1.4848072e-21)
(0.46111558 -0.016779817 -2.1456336e-20)
(0.52683689 -0.013657733 2.0670004e-20)
(0.5924507 -0.0096879989 -4.0422147e-20)
(0.65709133 -0.0050157763 -2.1133901e-20)
(0.71992474 0.00020556258 5.9046523e-21)
(0.78017504 0.0058240972 -2.5131672e-20)
(0.83717062 0.011712815 2.5217107e-20)
(0.89046879 0.017918516 2.2243179e-20)
(0.93967073 0.024573416 -2.9929678e-22)
(0.98205189 0.028293386 -1.6691854e-21)
(0.0052521807 -0.0013462731 -1.7059353e-20)
(0.026962502 -0.0089890267 3.974771e-20)
(0.061670118 -0.014809764 2.3576296e-20)
(0.10629489 -0.019172269 -1.1569758e-19)
(0.15873566 -0.022213996 -1.2727088e-20)
(0.21753352 -0.023720684 7.3297078e-20)
(0.28137297 -0.023595095 -3.5476399e-20)
(0.34900602 -0.021868963 -8.3905567e-21)
(0.41923922 -0.018645521 3.428754e-20)
(0.49090945 -0.014080838 -4.3259578e-20)
(0.56287233 -0.0083759471 -3.033848e-20)
(0.63400849 -0.0017665901 7.1921431e-20)
(0.70324332 0.0054883993 3.8294047e-20)
(0.76957583 0.013118637 -6.7976556e-20)
(0.83211248 0.020852088 1.462369e-20)
(0.89010039 0.02841971 -3.6733399e-20)
(0.94296919 0.035569678 -1.377719e-20)
(0.99043232 0.042140889 7.0974769e-20)
(1.0323561 0.047715311 2.9642e-20)
(1.0669348 0.04913969 -8.3478387e-20)
(0.010858427 -0.0040424159 3.6773458e-20)
(0.043953415 -0.015431077 2.5047366e-21)
(0.090515438 -0.022552283 2.2341712e-20)
(0.1471114 -0.026497359 9.8116823e-22)
(0.21134255 -0.027886297 -4.0773938e-20)
(0.28146768 -0.026795114 1.8576403e-20)
(0.35587041 -0.023382728 1.34203e-20)
(0.43299008 -0.017921536 -5.0327703e-20)
(0.51132478 -0.01073565 5.7261857e-20)
(0.58942615 -0.0021838796 1.4256687e-20)
(0.66590917 0.007347906 -5.4300708e-20)
(0.73948037 0.017460263 -1.8237401e-20)
(0.808976 0.027756562 9.0591629e-21)
(0.87340266 0.03785927 2.3444736e-20)
(0.93197364 0.04742404 -1.1362505e-20)
(0.98413369 0.056148968 2.7877729e-20)
(1.029574 0.063789167 -2.018824e-20)
(1.0682645 0.070204384 -7.0123604e-20)
(1.1003322 0.075119368 -2.3796282e-20)
(1.1249112 0.076641226 4.8659895e-20)
(0.017957215 -0.0064221635 2.4508015e-20)
(0.064776997 -0.0206948 5.1039224e-20)
(0.12485229 -0.028060847 1.9881694e-20)
(0.19446966 -0.030464066 1.2990095e-20)
(0.27094932 -0.029094842 1.7275703e-20)
(0.3522488 -0.024388979 -4.7720171e-20)
(0.4364314 -0.016825972 -2.5646856e-20)
(0.52162009 -0.0069766706 0)
(0.60602897 0.0045670315 1.3920615e-20)
(0.68798708 0.01721173 -5.8523383e-21)
(0.76597519 0.03037392 -9.7934944e-20)
(0.83867449 0.04349963 -1.5774818e-20)
(0.90501528 0.056086613 6.5103195e-20)
(0.96421572 0.067704131 4.8442785e-22)
(1.0158035 0.07800771 -1.5725566e-21)
(1.0596155 0.086746786 2.1957495e-20)
(1.0957773 0.093772221 -5.2647189e-21)
(1.12468 0.099065326 -6.1029741e-20)
(1.1468647 0.10259707 -4.5851233e-20)
(1.1622957 0.10341384 6.9520525e-20)
(0.026579421 -0.0082056883 -3.9194205e-21)
(0.089344023 -0.024033507 -5.1256323e-21)
(0.16430754 -0.030264989 5.6599409e-20)
(0.2475812 -0.02981002 1.8539324e-20)
(0.33624162 -0.024513028 -3.1955066e-20)
(0.42795127 -0.01523986 1.216384e-20)
(0.52047263 -0.0028513629 2.6402862e-21)
(0.61166359 0.011737095 3.3609169e-20)
(0.69954713 0.027640141 5.6599504e-21)
(0.78236839 0.044028768 -1.3204739e-20)
(0.85865408 0.060147723 6.0154035e-20)
(0.92726913 0.075340469 -5.8009356e-20)
(0.98745678 0.089072858 -1.3216613e-19)
(1.0388531 0.10094902 -5.5773033e-21)
(1.0814725 0.11071708 8.3150768e-20)
(1.1156655 0.11826404 0)
(1.1420548 0.12360582 1.0118961e-20)
(1.1614669 0.12689055 -1.5459769e-20)
(1.1748179 0.1282987 -8.5994548e-21)
(1.1826673 0.12744915 2.0992217e-20)
(0.03666691 -0.0090895799 -5.4309131e-21)
(0.11731511 -0.024685358 4.3578746e-21)
(0.20811869 -0.028140178 -8.762984e-21)
(0.30515703 -0.023414955 2.8472395e-20)
(0.4053354 -0.013075591 -2.9392664e-20)
(0.50607149 0.0015226155 -1.6927023e-20)
(0.60490492 0.01909514 3.7364233e-20)
(0.69954961 0.038365255 4.7595456e-21)
(0.78800394 0.058167645 -2.4436056e-20)
(0.86863407 0.077483004 6.9867558e-20)
(0.94023975 0.095458641 5.2393974e-22)
(1.0020956 0.11143156 -8.0444313e-20)
(1.0539569 0.1249429 0)
(1.0960273 0.13573749 3.9542114e-20)
(1.1288922 0.14374843 5.5235999e-21)
(1.1534278 0.14906893 -7.7566396e-20)
(1.1706991 0.15191913 -1.9586922e-20)
(1.1818623 0.15262368 -1.2467631e-20)
(1.1880592 0.15152605 -1.4709381e-20)
(1.190146 0.14858492 4.0420493e-20)
(0.04805887 -0.0087674053 -1.7277959e-20)
(0.14808311 -0.021931994 -2.2198267e-21)
(0.25514071 -0.020797835 3.0380504e-20)
(0.36546385 -0.010412793 3.748431e-20)
(0.47590422 0.0059015886 -1.9944734e-20)
(0.58374268 0.026269307 -6.9163031e-20)
(0.68644187 0.04897721 -2.7995796e-20)
(0.78176205 0.072417789 7.892921e-20)
(0.86790198 0.095212478 8.577813e-21)
(0.94358918 0.11624961 -2.4873482e-20)
(1.0081258 0.13469827 1.3642213e-20)
(1.061387 0.15001555 -4.3194487e-21)
(1.1037693 0.16193659 0)
(1.1360975 0.17044427 2.7203482e-20)
(1.1595046 0.17572309 -7.9322409e-20)
(1.1753021 0.17810369 -3.1475527e-20)
(1.184857 0.17800812 8.1054574e-20)
(1.1894921 0.17590945 -4.2969843e-21)
(1.1904029 0.17225558 3.5561074e-21)
(1.188508 0.16719298 2.7111558e-20)
(0.060485253 -0.0069573641 -3.2414615e-20)
(0.18077773 -0.015170381 -8.162432e-20)
(0.3038893 -0.0075835269 2.5797759e-21)
(0.42642557 0.0097033566 7.016181e-20)
(0.5453515 0.032631554 6.2424376e-20)
(0.65798102 0.058820044 -7.1574522e-20)
(0.76190885 0.086176508 -2.8275166e-22)
(0.85518293 0.11285231 8.5522547e-20)
(0.93645348 0.13737837 4.8828069e-20)
(1.0050415 0.1586937 -5.4218407e-20)
(1.0609356 0.17613563 -9.2334214e-20)
(1.1047243 0.18941354 -3.1589826e-21)
(1.1374759 0.19855944 4.2127866e-20)
(1.1605874 0.20385856 -6.6056278e-21)
(1.1756247 0.20577019 -1.2868787e-20)
(1.1841777 0.20484919 1.9690808e-20)
(1.1877427 0.20167897 4.3880617e-20)
(1.1876453 0.19682587 -4.3859433e-20)
(1.1849954 0.19077883 -1.0232202e-19)
(1.180625 0.18377379 2.456688e-20)
(0.073537218 -0.0034329736 -3.497975e-20)
(0.21422688 -0.0039890257 -1.7388612e-19)
(0.35251658 0.011839376 8.2103242e-20)
(0.48562799 0.037018337 9.2767516e-20)
(0.61085381 0.066835553 5.7970567e-20)
(0.72576728 0.098481178 8.6107095e-21)
(0.82834804 0.12959696 -1.0624009e-19)
(0.91719 0.15824269 0)
(0.99162746 0.18302814 -6.8748588e-20)
(1.0517521 0.20311206 -1.520241e-20)
(1.0983384 0.2181486 5.4703465e-20)
(1.1327008 0.22821082 1.097338e-20)
(1.156511 0.2336926 -4.5613854e-20)
(1.1716068 0.23519947 -4.9081362e-20)
(1.1798204 0.23344335 2.428768e-20)
(1.182845 0.22915323 4.4822891e-20)
(1.1821489 0.22300986 -5.5600409e-20)
(1.178936 0.21560822 -1.0751122e-19)
(1.1741469 0.20742224 -3.1513623e-21)
(1.1684567 0.1987188 2.7046403e-20)
(0.086650449 0.001961386 -3.5448993e-21)
(0.24696019 0.011816634 8.7913242e-20)
(0.3988474 0.03749231 -1.6479246e-20)
(0.54040466 0.071218382 -8.4309149e-20)
(0.66949904 0.10778893 4.5164371e-20)
(0.78421954 0.14411543 4.9175454e-20)
(0.88318942 0.17775669 5.5356782e-21)
(0.96577872 0.2068849 -9.950249e-20)
(1.0321763 0.23038802 -2.504878e-21)
(1.0833328 0.24781553 5.0503543e-20)
(1.120807 0.25926301 5.9854759e-21)
(1.1465558 0.2652362 -1.9717207e-20)
(1.1627107 0.26650533 -7.5704628e-20)
(1.1713765 0.26396622 -6.2554024e-21)
(1.1744762 0.25852429 4.3533354e-20)
(1.1736548 0.25101088 3.7022013e-20)
(1.1702383 0.24213395 1.9793442e-20)
(1.1652402 0.23245875 -5.2994845e-20)
(1.1594014 0.22240418 1.2957449e-20)
(1.1532252 0.21223799 8.2659102e-20)
(-0.0012932615 0.0014346598 -1.1234452e-21)
(-0.0047459604 0.0031874149 2.0646969e-21)
(-0.010771359 0.0041359042 8.7949892e-22)
(-0.017754287 0.004539536 -2.4411021e-21)
(-0.024740318 0.0045654166 -1.4114822e-21)
(-0.031299593 0.0043260386 1.5460015e-21)
(-0.037161327 0.0039035381 -6.8700802e-21)
(-0.042147442 0.0033577217 -5.9573043e-21)
(-0.046157776 0.0027313812 1.1171997e-20)
(-0.04914619 0.0020548305 -9.7427485e-21)
(-0.051100654 0.0013493004 -1.9833045e-22)
(-0.052030444 0.00062942185 3.6673439e-21)
(-0.051957737 -9.4889564e-05 -6.3295592e-22)
(-0.050911882 -0.00081693049 2.2818744e-20)
(-0.048925778 -0.0015318448 3.040111e-22)
(-0.046035342 -0.0022351741 -4.0882872e-20)
(-0.042281798 -0.0029222682 7.5385619e-21)
(-0.037703443 -0.0035910387 2.3864111e-20)
(-0.032308695 -0.0042399867 -4.3852376e-20)
(-0.026156965 -0.0048211133 -2.7739206e-20)
(-0.0016521999 0.0041808664 -5.3716026e-21)
(-0.0053974812 0.0092681383 1.0865439e-20)
(-0.011218509 0.012007444 -1.0191542e-20)
(-0.017658026 0.013153764 3.9229735e-21)
(-0.023856433 0.013195413 4.8121433e-21)
(-0.029433318 0.012462724 7.1324178e-22)
(-0.03415232 0.011197014 -2.2509488e-20)
(-0.037860378 0.0095738968 -2.0370239e-21)
(-0.040474298 0.0077189872 2.0163539e-20)
(-0.041958922 0.0057212304 -5.0473599e-21)
(-0.04230895 0.0036428644 -2.1762589e-20)
(-0.041537337 0.0015267126 4.8973168e-21)
(-0.039667713 -0.00059830555 2.2635421e-20)
(-0.036729082 -0.0027127611 1.030839e-20)
(-0.032752034 -0.0048026893 2.1854285e-20)
(-0.027769172 -0.0068555086 -1.9770728e-20)
(-0.021824797 -0.0088582198 -2.1672944e-20)
(-0.014966273 -0.010804225 2.1184617e-20)
(-0.0071290204 -0.012679001 2.6810365e-20)
(0.0018742915 -0.014317224 1.5854765e-20)
(-0.0023034292 0.0065602328 -4.3568688e-21)
(-0.0065392239 0.014480196 -5.6387547e-21)
(-0.011892131 0.018710543 3.0723945e-22)
(-0.017211099 0.02042818 1.0959881e-21)
(-0.021819142 0.020400324 6.6918401e-21)
(-0.025431041 0.019151666 1.0665168e-20)
(-0.027877231 0.017066287 -3.7227635e-21)
(-0.029053269 0.014423783 -1.8896164e-20)
(-0.028909036 0.011424352 6.5413169e-21)
(-0.02743105 0.0082099049 1.2862569e-20)
(-0.024627714 0.0048797758 5.834085e-21)
(-0.020520109 0.0015022383 1.8159105e-20)
(-0.015135987 -0.0018768636 1.7295914e-21)
(-0.0085054003 -0.0052272481 -3.3864527e-20)
(-0.00065689495 -0.0085276104 1.2020173e-21)
(0.0083810141 -0.01175911 -2.213921e-20)
(0.018556863 -0.014904097 -2.4466302e-20)
(0.029802176 -0.017953753 4.581971e-20)
(0.042304958 -0.020855117 2.5349347e-20)
(0.056738563 -0.023247766 1.2239318e-22)
(-0.0031290276 0.0083689701 -5.283307e-21)
(-0.0078963989 0.018336513 -8.4815266e-21)
(-0.012438986 0.023587809 4.3593047e-21)
(-0.016026535 0.025609658 4.146345e-21)
(-0.018235024 0.025382745 2.0105707e-21)
(-0.018912651 0.023589321 7.3209953e-21)
(-0.017984717 0.020730273 9.3124775e-21)
(-0.01541671 0.017170378 -1.3511354e-21)
(-0.011207048 0.013171314 -1.1481946e-20)
(-0.0053752349 0.0089189313 -2.9071876e-20)
(0.0020481091 0.0045434369 6.189239e-23)
(0.011026505 0.00013431064 4.0697819e-20)
(0.02152222 -0.0042489514 -1.8383171e-20)
(0.033497844 -0.0085675853 -1.2296087e-20)
(0.046920503 -0.012795546 5.5348928e-22)
(0.061760085 -0.016911855 3.2302642e-20)
(0.077953001 -0.02090167 -1.4829543e-20)
(0.09539225 -0.024763376 -5.3339181e-20)
(0.11439843 -0.028379718 4.5765006e-20)
(0.13634536 -0.031073095 3.3013166e-20)
(-0.0039704097 0.0094657324 -6.8788992e-22)
(-0.0090916581 0.020487792 -1.253474e-20)
(-0.012364471 0.026159087 -3.4144534e-20)
(-0.01355254 0.028143338 -5.7241618e-21)
(-0.01253324 0.027555007 -3.6222739e-21)
(-0.0093167247 0.025188064 6.3051033e-21)
(-0.0039456453 0.021627411 -4.6461958e-21)
(0.0035261274 0.01729896 -8.8070268e-21)
(0.01303682 0.012508752 2.1899709e-20)
(0.02452124 0.0074744425 5.0567071e-21)
(0.037915536 0.0023489037 -2.5290293e-20)
(0.053157443 -0.0027627845 1.1078278e-20)
(0.070186864 -0.007790875 0)
(0.088946578 -0.012691304 1.2089575e-20)
(0.10938543 -0.01743692 -9.7016172e-21)
(0.13145741 -0.022009897 -1.4337119e-20)
(0.15507406 -0.026408647 -1.5738947e-21)
(0.1800676 -0.030659421 -2.2181552e-21)
(0.20685341 -0.034576534 4.6147061e-20)
(0.23766358 -0.037019869 -1.0470126e-20)
(-0.0046450979 0.0097808625 -7.5356677e-21)
(-0.0096772509 0.02074788 2.4516399e-20)
(-0.01106438 0.026160977 -1.0499346e-20)
(-0.0090968327 0.027724445 -2.746928e-20)
(-0.003979721 0.026601695 -2.7548145e-20)
(0.0040961826 0.023648408 -1.4921568e-20)
(0.014954149 0.019496457 -6.9059613e-22)
(0.028436235 0.014604705 5.5499782e-21)
(0.044403147 0.0093034465 1.9615878e-20)
(0.062730496 0.0038284153 7.3530851e-21)
(0.083304315 -0.0016547554 -7.1862208e-21)
(0.10601897 -0.007032239 -2.0102308e-21)
(0.13077357 -0.012229098 -3.8191708e-20)
(0.15746944 -0.017199753 -1.2693644e-20)
(0.186012 -0.021919735 1.8750606e-20)
(0.21631177 -0.026379718 -2.1021673e-20)
(0.24823223 -0.030602224 -8.9730574e-21)
(0.28151867 -0.034670609 3.0440464e-20)
(0.31660704 -0.03836482 5.0472069e-20)
(0.35665016 -0.039964101 3.3559668e-21)
(-0.0049617685 0.0093139988 1.6783304e-20)
(-0.0091662693 0.01909771 1.4467938e-20)
(-0.0078593649 0.023563367 5.1145486e-20)
(-0.0018585395 0.024328944 2.3387981e-20)
(0.008295723 0.022523783 1.8251774e-22)
(0.02222194 0.019014385 -3.9388454e-20)
(0.039597442 0.014440936 -2.4313859e-20)
(0.060147904 0.0092663595 1.0465817e-20)
(0.083639116 0.003823228 1.4401586e-20)
(0.10986669 -0.0016512994 -1.3113711e-20)
(0.13864563 -0.0069910099 -4.4038713e-20)
(0.1698017 -0.012082848 2.9618497e-20)
(0.20316405 -0.016854159 2.0020551e-20)
(0.23855946 -0.021263995 -2.7551154e-20)
(0.2758123 -0.025296403 1.1650134e-20)
(0.31474811 -0.028957168 2.4197612e-20)
(0.35514546 -0.032303053 8.0723939e-21)
(0.39663388 -0.035506677 -1.1764211e-20)
(0.43957702 -0.038392642 -1.4190298e-20)
(0.48798511 -0.038634402 5.8727636e-21)
(-0.0047307763 0.0081236734 1.1093845e-20)
(-0.0070586005 0.015671176 -2.3352719e-20)
(-0.0020293659 0.018562033 8.6200546e-21)
(0.0090325203 0.018216225 3.3587966e-20)
(0.025256362 0.01565115 5.2124337e-20)
(0.046066338 0.011695603 2.0276509e-20)
(0.070984524 0.0069609524 -5.8639353e-21)
(0.099601949 0.0018829513 -1.2286283e-20)
(0.13156894 -0.0032271981 -6.2057465e-21)
(0.16657567 -0.0081496575 3.4240833e-20)
(0.20433425 -0.01273332 -4.510438e-21)
(0.24456485 -0.016879187 -1.6643299e-20)
(0.2869847 -0.020528685 -1.9693571e-20)
(0.33129998 -0.023656411 -4.7443735e-20)
(0.37720459 -0.026265531 2.3238702e-20)
(0.4243877 -0.028387859 -1.4095983e-20)
(0.47249974 -0.030127617 2.5993397e-20)
(0.52103618 -0.031783185 2.1040823e-20)
(0.57021395 -0.033350673 -8.557039e-20)
(0.62470917 -0.032058833 -1.0807156e-22)
(-0.003771052 0.0063146396 2.1925055e-20)
(-0.0028657664 0.010735096 -2.6165529e-20)
(0.0071421048 0.011564137 -4.5013294e-20)
(0.024450233 0.0099249901 -2.7253781e-20)
(0.047870851 0.0066523064 -2.0439868e-21)
(0.076628704 0.0024906176 1.3050095e-20)
(0.11007673 -0.0020153948 -2.8337697e-21)
(0.14765206 -0.0064879034 1.8118536e-20)
(0.18886096 -0.010663503 8.8685613e-21)
(0.23325195 -0.01436242 -1.1380172e-20)
(0.28039149 -0.017468948 8.8779123e-21)
(0.32984604 -0.019916803 -2.3903266e-20)
(0.38116881 -0.021678695 8.0504765e-21)
(0.43389085 -0.022759871 1.675639e-20)
(0.48751936 -0.023194296 -2.6395124e-21)
(0.54154716 -0.023046886 1.6618975e-21)
(0.59543546 -0.022469439 -3.1957553e-22)
(0.64851784 -0.021870097 1.9590419e-20)
(0.7008224 -0.021445054 4.0433994e-21)
(0.75745151 -0.018499071 -5.7334189e-22)
(-0.0019110144 0.0040273483 2.3692112e-20)
(0.00386943 0.0046765206 5.7159958e-20)
(0.020315311 0.003187965 -4.9244224e-20)
(0.045178285 0.00029442686 -9.9454145e-21)
(0.076965153 -0.003424151 2.0256345e-20)
(0.11469623 -0.0073535849 2.1433717e-21)
(0.15753883 -0.011054955 -2.9815161e-20)
(0.20474831 -0.014244138 6.9848102e-21)
(0.2556495 -0.016737926 7.1097874e-21)
(0.30960473 -0.018426954 -2.6254077e-20)
(0.36598648 -0.019260095 1.2927326e-21)
(0.42415959 -0.019231863 -3.7174111e-20)
(0.48347102 -0.018372198 -3.6341013e-20)
(0.54324566 -0.016738271 6.5683476e-20)
(0.60278813 -0.014407296 5.5627478e-21)
(0.66138886 -0.011475892 -1.5188793e-20)
(0.71830786 -0.0081020382 1.9363963e-20)
(0.77269903 -0.0045928582 -9.1888117e-22)
(0.82408836 -0.00096804008 2.0364576e-20)
(0.87621968 0.0043280777 -1.9554137e-20)
(-0.018836422 -0.0050997025 5.835204e-20)
(-0.010224661 -0.0056349257 1.5783663e-20)
(-0.00022120312 -0.0060688784 -3.513955e-20)
(0.010823215 -0.0063341077 1.679023e-20)
(0.022642453 -0.0065120448 0)
(0.035177868 -0.0066300876 0)
(0.048369641 -0.0066909707 -2.2974943e-20)
(0.062138053 -0.0067025369 -1.6502868e-20)
(0.076412691 -0.0066741712 1.9122588e-20)
(0.091134048 -0.0066126625 1.8174029e-20)
(0.10624715 -0.0065232024 1.0524251e-21)
(0.12170019 -0.0064103546 -1.0317633e-20)
(0.13744487 -0.0062780777 8.326877e-21)
(0.15343597 -0.0061297189 1.823371e-20)
(0.16963074 -0.0059681415 -5.2274157e-21)
(0.18598851 -0.005795831 -1.0174931e-20)
(0.20247054 -0.0056149584 -4.3195858e-21)
(0.2190398 -0.0054274328 -4.4257367e-21)
(0.23566086 -0.0052349463 7.3667151e-22)
(0.25229986 -0.0050390092 1.2286035e-21)
(0.26892445 -0.0048409766 2.5666305e-21)
(0.28550386 -0.004642068 6.6539439e-21)
(0.3020089 -0.0044433829 2.4894381e-22)
(0.31841202 -0.0042459105 -3.451469e-21)
(0.33468739 -0.0040505386 1.5558755e-22)
(0.35081093 -0.0038580586 -5.7709764e-22)
(0.3667604 -0.0036691705 1.2434359e-21)
(0.38251537 -0.0034844867 1.0522432e-21)
(0.39805734 -0.0033045356 -1.2987929e-21)
(0.41336967 -0.0031297655 -1.2218732e-22)
(0.42843764 -0.0029605483 3.5749755e-23)
(0.4432484 -0.002797184 -3.518757e-22)
(0.45779095 -0.0026399057 -4.0565405e-22)
(0.4720561 -0.0024888846 5.5413134e-23)
(0.48603643 -0.0023442361 -1.3809026e-22)
(0.49972626 -0.0022060256 -2.2343146e-22)
(0.51312156 -0.0020742753 2.5571899e-22)
(0.52621999 -0.0019489708 2.950194e-22)
(0.53902074 -0.0018300704 -8.2713665e-24)
(0.55152494 -0.0017175087 -1.55174e-22)
(0.56373454 -0.0016112246 3.040651e-23)
(0.57565614 -0.0015111178 -4.0144651e-23)
(0.58728991 -0.0014172593 9.2203629e-23)
(0.59866486 -0.0013293128 2.1976955e-23)
(0.60973536 -0.0012485618 -1.1394573e-22)
(0.62069342 -0.0011717969 -6.7612957e-24)
(0.63106143 -0.0011112484 -7.2362891e-26)
(0.64234999 -0.001033952 -3.5612556e-24)
(0.65042796 -0.0010508099 2.9453687e-23)
(0.66700892 -0.00087556448 3.6050789e-22)
(0.01044587 -0.01501761 -1.2746816e-20)
(0.0181797 -0.016641012 -6.3302327e-20)
(0.027779218 -0.017915414 -3.0541938e-20)
(0.038385148 -0.018672072 3.847601e-20)
(0.049620991 -0.019183589 1.466261e-20)
(0.061506633 -0.019529433 -1.8204926e-20)
(0.074012825 -0.019709866 4.6721996e-21)
(0.087062674 -0.019746493 2.5447188e-20)
(0.10059315 -0.019667282 9.1993948e-23)
(0.11455402 -0.019491701 -7.6591243e-21)
(0.12889718 -0.01923436 -1.3021016e-20)
(0.14357601 -0.018908312 -8.5245298e-21)
(0.15854664 -0.018524973 1.7772333e-20)
(0.17376755 -0.018094001 8.9295449e-21)
(0.18919899 -0.01762368 -1.6522435e-20)
(0.20480276 -0.017121232 -6.0390576e-21)
(0.22054214 -0.016592997 3.2145043e-21)
(0.23638175 -0.016044571 8.3716312e-21)
(0.25228753 -0.015480932 6.9832265e-21)
(0.26822673 -0.014906541 -6.9727159e-21)
(0.28416793 -0.014325414 -3.1685466e-21)
(0.3000811 -0.013741175 1.3605345e-21)
(0.31593765 -0.013157099 3.8682878e-22)
(0.33171053 -0.012576141 1.2113954e-21)
(0.34737429 -0.012000959 1.8368372e-22)
(0.36290512 -0.011433925 -3.266164e-22)
(0.37828096 -0.010877142 -7.2434872e-22)
(0.39348153 -0.010332454 9.7156609e-22)
(0.40848834 -0.0098014559 8.2482961e-22)
(0.42328473 -0.0092855027 -1.5147386e-22)
(0.43785589 -0.0087857232 5.5306091e-22)
(0.4521888 -0.0083030321 -2.3880914e-22)
(0.46627227 -0.0078381437 -3.706991e-22)
(0.48009684 -0.0073915886 -6.0999108e-22)
(0.49365481 -0.0069637296 4.4171736e-22)
(0.50694013 -0.0065547807 -1.5477588e-23)
(0.51994842 -0.0061648266 1.6124771e-22)
(0.53267691 -0.0057938422 -4.4174811e-22)
(0.54512437 -0.0054417209 3.7189597e-22)
(0.55729146 -0.0051082843 6.7175294e-23)
(0.56917967 -0.0047933675 -1.0285388e-22)
(0.58079508 -0.0044966868 1.7613759e-22)
(0.59213745 -0.0042184711 2.3339753e-22)
(0.60323502 -0.0039577305 1.6926575e-22)
(0.61404235 -0.0037183107 1.6767319e-22)
(0.62474857 -0.0034906562 -2.609819e-23)
(0.63488247 -0.0033112162 8.4045096e-23)
(0.64593168 -0.0030818746 7.6293112e-23)
(0.65383011 -0.0031323643 -1.9466665e-22)
(0.67009209 -0.0026124494 -3.8026294e-23)
(0.067614687 -0.024029146 9.4528294e-21)
(0.073589669 -0.026749049 3.2950988e-21)
(0.082265506 -0.028805568 -1.2162199e-20)
(0.091947818 -0.029968504 -1.2257897e-21)
(0.10198321 -0.030767864 1.4970586e-20)
(0.11254633 -0.031330891 -1.4887122e-20)
(0.12367596 -0.03163607 -2.9842268e-20)
(0.13529682 -0.031713005 1.449352e-20)
(0.14735695 -0.031607635 1.8181964e-20)
(0.15982342 -0.031350055 -1.1598515e-20)
(0.17266059 -0.030961819 1.0190551e-21)
(0.18583082 -0.030462752 8.686015e-21)
(0.19929784 -0.02987055 -1.5253539e-20)
(0.21302657 -0.029200238 2.9095158e-21)
(0.22698244 -0.028464759 7.5194351e-21)
(0.24113141 -0.027675503 3.1597045e-23)
(0.25544016 -0.026842557 2.6556348e-22)
(0.26987607 -0.025974895 -7.4150853e-21)
(0.28440733 -0.025080564 3.8616833e-21)
(0.29900301 -0.024166818 8.4749043e-21)
(0.31363316 -0.023240233 -3.8351759e-21)
(0.32826895 -0.022306773 -2.2130363e-21)
(0.34288274 -0.021371855 1.0124436e-21)
(0.35744824 -0.020440386 -1.7155325e-21)
(0.37194053 -0.019516794 1.3532253e-21)
(0.38633624 -0.018605047 7.1845913e-22)
(0.40061354 -0.017708675 1.5268395e-21)
(0.41475228 -0.016830784 -1.9526623e-21)
(0.42873397 -0.015974069 2.2235688e-21)
(0.44254183 -0.015140834 5.5188549e-22)
(0.4561608 -0.014333006 4.0322632e-22)
(0.46957756 -0.01355216 3.2134469e-22)
(0.48278048 -0.012799541 8.7325065e-22)
(0.49575961 -0.012076086 -1.3708615e-21)
(0.50850663 -0.011382457 3.70656e-22)
(0.52101487 -0.010719068 1.094134e-22)
(0.53327922 -0.010086117 -4.5172443e-23)
(0.54529614 -0.0094836214 8.6732447e-23)
(0.5570636 -0.0089114604 -3.7185014e-22)
(0.56858139 -0.0083693939 1.8293544e-22)
(0.57985014 -0.0078572029 -3.4987152e-23)
(0.59087497 -0.007374469 3.9004374e-22)
(0.60165482 -0.0069216216 -1.8544526e-22)
(0.61221656 -0.0064970721 4.7323582e-23)
(0.62251508 -0.0061072092 4.3603954e-23)
(0.63273409 -0.0057363456 -7.3600042e-23)
(0.64241452 -0.0054444215 -1.2082649e-22)
(0.65300007 -0.0050705162 3.880963e-22)
(0.66055012 -0.0051542635 1.7270694e-22)
(0.67619383 -0.0043070331 -8.3039998e-22)
(0.15021528 -0.031460429 1.5010123e-21)
(0.15354689 -0.035257394 -1.1566611e-20)
(0.16061623 -0.038010919 6.6441976e-21)
(0.1688059 -0.039479097 -1.3324741e-20)
(0.17698224 -0.040520688 -1.9758308e-21)
(0.18552346 -0.041302279 9.1599399e-21)
(0.1945842 -0.041757236 -9.7662198e-21)
(0.20408692 -0.041913709 1.5662743e-21)
(0.21398768 -0.04183333 1.2903798e-20)
(0.22427599 -0.041554334 3.4031987e-21)
(0.23493254 -0.041102044 -6.2096956e-21)
(0.24593022 -0.040500448 -2.8638089e-21)
(0.25724159 -0.039771748 -5.8409044e-21)
(0.26883912 -0.038935055 -6.4553135e-21)
(0.28069424 -0.038006975 3.235691e-21)
(0.29277764 -0.037002302 8.4620994e-22)
(0.30505976 -0.035934326 1.367958e-21)
(0.317511 -0.034815023 -3.3850416e-21)
(0.33010197 -0.03365525 -4.242886e-21)
(0.34280364 -0.032464897 2.3616509e-21)
(0.35558759 -0.031252998 3.2251358e-21)
(0.36842615 -0.030027817 -1.5636199e-21)
(0.38129262 -0.028796903 1.5867268e-21)
(0.39416136 -0.027567134 -3.912401e-22)
(0.40700794 -0.026344746 -3.9196413e-21)
(0.41980927 -0.025135355 -3.0332816e-21)
(0.43254367 -0.023943979 -1.9026307e-22)
(0.44519094 -0.022775052 4.2858908e-22)
(0.45773242 -0.021632444 -2.2106035e-21)
(0.47015105 -0.020519481 -8.5497232e-22)
(0.48243134 -0.019438969 2.2837655e-22)
(0.49455943 -0.018393225 -1.249869e-21)
(0.50652302 -0.017384102 6.26279e-24)
(0.51831143 -0.016413031 -4.2420923e-22)
(0.5299155 -0.015481053 -4.719362e-22)
(0.54132763 -0.014588865 -5.1995787e-22)
(0.55254172 -0.013736863 -8.4133261e-22)
(0.56355316 -0.012925186 -5.4496132e-23)
(0.57435882 -0.012153781 -3.9160461e-24)
(0.58495731 -0.011422426 -5.1972459e-22)
(0.59534808 -0.010730924 -9.1606781e-23)
(0.60553496 -0.010078797 -3.32395e-22)
(0.61551579 -0.0094667399 -4.3760171e-22)
(0.62531556 -0.0088926531 3.7841946e-22)
(0.63488965 -0.0083654218 1.4821051e-23)
(0.64441412 -0.0078636002 1.8237737e-22)
(0.6534474 -0.0074693605 -1.3246883e-22)
(0.66337003 -0.0069629733 -2.6691385e-22)
(0.67042212 -0.0070791762 -4.469036e-23)
(0.6851791 -0.0059327143 4.6229668e-22)
(0.25468565 -0.036552754 -2.0900313e-20)
(0.25447019 -0.041393505 4.7585954e-20)
(0.25907331 -0.044745652 1.0348096e-20)
(0.2650841 -0.046442037 -1.5765317e-20)
(0.2707093 -0.047714309 -2.0227967e-21)
(0.27651992 -0.048747769 2.6232206e-21)
(0.28283546 -0.049413711 -1.6608232e-21)
(0.28957687 -0.049728092 -4.6861417e-21)
(0.29669654 -0.049761423 -4.015917e-21)
(0.30420543 -0.049557045 -1.2207639e-20)
(0.31210214 -0.04914168 1.7897751e-20)
(0.32036933 -0.048540795 6.5219897e-21)
(0.32898695 -0.047778958 -1.6780521e-20)
(0.33793398 -0.046878012 1.0317571e-20)
(0.34718702 -0.045857294 8.3849907e-21)
(0.35672069 -0.044734307 -8.7923728e-22)
(0.36650839 -0.043525061 -3.122223e-21)
(0.37652283 -0.042244242 -3.8197315e-21)
(0.38673635 -0.040905354 -1.3892579e-21)
(0.39712124 -0.039520847 -1.2304193e-21)
(0.40765003 -0.038102216 -3.0257606e-21)
(0.41829573 -0.036660064 0)
(0.42903207 -0.03520415 -1.3451912e-21)
(0.43983367 -0.033743418 3.9309508e-21)
(0.45067618 -0.032286024 5.4052665e-21)
(0.46153644 -0.03083935 -9.4112551e-22)
(0.47239253 -0.029410024 -2.927444e-21)
(0.48322394 -0.028003932 3.0258388e-21)
(0.49401154 -0.026626241 2.5447424e-22)
(0.50473768 -0.025281424 3.4352456e-21)
(0.5153862 -0.023973287 -5.3459741e-22)
(0.52594243 -0.022705004 1.7173469e-21)
(0.53639321 -0.02147916 -7.9964394e-22)
(0.54672686 -0.020297788 2.9094166e-22)
(0.55693318 -0.019162426 -4.340397e-22)
(0.56700341 -0.018074162 5.6231648e-22)
(0.57693025 -0.017033697 4.5709906e-22)
(0.58670784 -0.0160414 3.8255624e-22)
(0.59633171 -0.015097388 -9.5936296e-22)
(0.60579913 -0.014201555 6.8355516e-22)
(0.61510813 -0.013353823 -3.6957412e-22)
(0.62426107 -0.012553752 -1.1033211e-21)
(0.63325452 -0.011802374 1.4078208e-21)
(0.64211119 -0.011097194 -6.2005907e-23)
(0.65078727 -0.010449519 -1.5816052e-22)
(0.65944924 -0.0098326455 -7.824497e-24)
(0.66767777 -0.0093492628 -1.2621723e-22)
(0.67677365 -0.0087262242 -4.6582827e-22)
(0.68320552 -0.0088736663 8.7882701e-22)
(0.69685103 -0.0074649271 -4.4315824e-23)
(0.37635128 -0.038368161 -1.7495099e-20)
(0.37170975 -0.044270223 1.2832047e-20)
(0.37286688 -0.048161606 2.9754618e-21)
(0.37591044 -0.050098844 -7.6353708e-21)
(0.37830525 -0.051669964 1.2055978e-20)
(0.38072291 -0.053042366 7.79141e-21)
(0.38367599 -0.054030032 -1.2647691e-20)
(0.38710055 -0.054633094 -6.0679783e-21)
(0.39092921 -0.054917995 1.2697343e-20)
(0.39518241 -0.054927124 -1.530497e-20)
(0.39987422 -0.054687505 -1.4063187e-20)
(0.40499504 -0.054224643 1.4129637e-20)
(0.41052859 -0.05356365 6.819383e-21)
(0.41645715 -0.052727939 -4.203767e-21)
(0.42276012 -0.051739007 -1.854562e-21)
(0.42941401 -0.05061674 -4.0581721e-21)
(0.43639345 -0.049379692 5.304759e-21)
(0.44367193 -0.048045217 3.6682087e-21)
(0.45122221 -0.046629539 -3.2408292e-21)
(0.45901676 -0.045147806 3.1379487e-21)
(0.46702804 -0.043614149 2.7666803e-21)
(0.47522888 -0.042041717 -3.2111134e-21)
(0.48359265 -0.040442692 3.7056563e-22)
(0.49209353 -0.038828308 -3.2571644e-21)
(0.50070661 -0.037208856 7.2454167e-21)
(0.50940811 -0.035593697 6.108061e-21)
(0.51817541 -0.033991271 8.0973237e-22)
(0.52698721 -0.032409114 -1.7683235e-21)
(0.53582352 -0.030853874 3.7021791e-21)
(0.54466578 -0.029331349 7.1885231e-21)
(0.55349683 -0.027846509 2.3049317e-21)
(0.56230094 -0.026403549 3.3164887e-21)
(0.57106383 -0.025005931 1.995622e-21)
(0.57977264 -0.023656441 7.4558008e-22)
(0.58841591 -0.022357247 -2.6374558e-22)
(0.5969836 -0.021109963 2.7203156e-21)
(0.60546708 -0.019915721 6.1992267e-22)
(0.61385909 -0.018775241 2.948781e-22)
(0.62215373 -0.017688927 5.6232543e-23)
(0.63034683 -0.016656902 9.8966808e-22)
(0.63843496 -0.015679314 4.7020135e-23)
(0.64641887 -0.014755862 4.4247613e-22)
(0.65429384 -0.013887997 -1.2621831e-22)
(0.66208012 -0.013072955 -2.7734996e-22)
(0.669735 -0.01232436 -1.5218726e-22)
(0.67741391 -0.011610847 -4.2208197e-22)
(0.68472374 -0.011053551 1.6139514e-22)
(0.69287198 -0.010332346 -1.2723723e-22)
(0.69859484 -0.01050945 -5.0126256e-22)
(0.71095731 -0.0088817866 2.4587023e-22)
(0.50927428 -0.03597427 3.6471441e-21)
(0.49953036 -0.04296065 -1.8958294e-20)
(0.49627552 -0.047383447 -2.3083856e-21)
(0.49555588 -0.049736751 5.4869451e-21)
(0.49416948 -0.051818015 3.052813e-21)
(0.49269568 -0.05370538 -4.9891356e-23)
(0.49181224 -0.055187617 6.1896565e-21)
(0.49151445 -0.056265365 7.6251013e-21)
(0.49171161 -0.056990498 9.8580425e-21)
(0.49241066 -0.057395537 -1.125004e-20)
(0.49363098 -0.057506263 -2.1579423e-20)
(0.49536771 -0.057348378 -3.9353502e-21)
(0.49760461 -0.05694709 1.5938143e-20)
(0.50032295 -0.056326967 1.2808958e-20)
(0.50350159 -0.05551169 -5.9066963e-21)
(0.50711645 -0.054523802 1.3817043e-21)
(0.51114133 -0.053384738 -3.6600848e-21)
(0.51554868 -0.052114891 2.2443771e-21)
(0.52031021 -0.050733598 -2.912302e-22)
(0.52539727 -0.049259115 -1.8654096e-21)
(0.53078118 -0.047708609 7.8265891e-21)
(0.53643357 -0.046098158 -2.9308822e-22)
(0.54232663 -0.044442736 4.1818162e-22)
(0.54843332 -0.042756209 -6.5646601e-22)
(0.55472753 -0.041051329 -4.3029384e-21)
(0.56118423 -0.039339732 4.2085161e-21)
(0.56777958 -0.037631952 1.9031216e-21)
(0.57449101 -0.035937428 -3.3081922e-21)
(0.58129728 -0.034264531 -4.1116434e-21)