/*--------------------------------*- C++ -*----------------------------------*\
  =========                 |
  \\      /  F ield         | OpenFOAM: The Open Source CFD Toolbox
   \\    /   O peration     | Website:  https://openfoam.org
    \\  /    A nd           | Version:  6
     \\/     M anipulation  |
\*---------------------------------------------------------------------------*/
FoamFile
{
    version     2.0;
    format      ascii;
    class       volScalarField;
    location    "132";
    object      pMean;
}
// * * * * * * * * * * * * * * * * * * * * * * * * * * * * * * * * * * * * * //

dimensions      [0 2 -2 0 0 0 0];

internalField   nonuniform List<scalar> 
9200
(
-0.40217348
-0.38991588
-0.37895598
-0.36928112
-0.35980966
-0.35054034
-0.34155832
-0.33282704
-0.32427376
-0.31582361
-0.30740285
-0.29894375
-0.29039168
-0.28171215
-0.27290074
-0.26399998
-0.25509349
-0.24627465
-0.23854167
-0.2360698
-0.4207883
-0.4060823
-0.39318823
-0.38198195
-0.37111161
-0.36054599
-0.35036057
-0.34048906
-0.33082866
-0.32128101
-0.3117557
-0.3021759
-0.29248572
-0.28265564
-0.27268724
-0.26261623
-0.25248332
-0.24229787
-0.23273066
-0.22591021
-0.43970597
-0.42254695
-0.40777639
-0.39511336
-0.38289769
-0.37105045
-0.35962688
-0.3485251
-0.33761248
-0.32677324
-0.31591143
-0.30495595
-0.29386661
-0.28263627
-0.27128957
-0.25987756
-0.24844991
-0.23702388
-0.22599705
-0.2164823
-0.45846169
-0.43888426
-0.4223101
-0.40825188
-0.39470547
-0.38152906
-0.36875186
-0.35623844
-0.34383684
-0.33143148
-0.31894314
-0.3063307
-0.293593
-0.28076521
-0.26791097
-0.25511148
-0.24244143
-0.22994398
-0.21788794
-0.20702211
-0.47639369
-0.45451593
-0.43626049
-0.42088233
-0.4060083
-0.39142496
-0.37713804
-0.36299215
-0.34883894
-0.33459159
-0.32021767
-0.30573341
-0.29119785
-0.27670157
-0.26235248
-0.24826142
-0.23452204
-0.22119229
-0.20846138
-0.19684678
-0.49264756
-0.46869239
-0.44893526
-0.43232362
-0.41610918
-0.40000972
-0.38402311
-0.36800235
-0.35183846
-0.33551005
-0.31906319
-0.30259395
-0.28623249
-0.2701242
-0.25441144
-0.23921924
-0.22464079
-0.21072704
-0.19760313
-0.1856142
-0.50619223
-0.48050012
-0.45948115
-0.44173329
-0.4241541
-0.40641168
-0.38852684
-0.37040374
-0.3520177
-0.33345091
-0.31485376
-0.29641302
-0.27832628
-0.2607787
-0.24392552
-0.22788241
-0.21271926
-0.19845911
-0.18516592
-0.17304562
-0.51584372
-0.48888716
-0.466919
-0.44815719
-0.42919915
-0.40970039
-0.38974979
-0.36935574
-0.34862535
-0.32777693
-0.30707945
-0.28680701
-0.26720769
-0.24848192
-0.23077171
-0.2141601
-0.19867526
-0.18429929
-0.17103637
-0.15897428
-0.52024509
-0.49255896
-0.46994103
-0.45023903
-0.42985318
-0.40849111
-0.38637069
-0.3636606
-0.34063629
-0.31766412
-0.2951216
-0.27334509
-0.25260128
-0.23307461
-0.21486843
-0.19801587
-0.18249402
-0.16824099
-0.15520554
-0.14337377
-0.51804146
-0.49008681
-0.46698498
-0.44630156
-0.42439021
-0.40109531
-0.37682748
-0.35195761
-0.32693853
-0.3022634
-0.27837808
-0.2556345
-0.23427551
-0.21443793
-0.19616779
-0.17944138
-0.16418648
-0.1503038
-0.13769408
-0.12625437
-0.28146003
-0.2857308
-0.28761058
-0.2878061
-0.28700342
-0.28536604
-0.28299322
-0.27998241
-0.27640964
-0.2723334
-0.26780182
-0.26285635
-0.25753385
-0.2518681
-0.2458911
-0.23963553
-0.23313629
-0.22641779
-0.21948225
-0.21242246
-0.28445093
-0.28827591
-0.28983352
-0.28980438
-0.28881608
-0.28702348
-0.28452365
-0.28140954
-0.27775305
-0.27360945
-0.26902418
-0.26403628
-0.25868049
-0.25298837
-0.24698907
-0.24071402
-0.23420545
-0.22748609
-0.22044811
-0.21306451
-0.29027305
-0.29323078
-0.29416311
-0.29369482
-0.29234305
-0.29024697
-0.28749929
-0.28418422
-0.28036571
-0.27609268
-0.27140508
-0.26633718
-0.26091946
-0.25517922
-0.24914036
-0.24283096
-0.23630425
-0.22958214
-0.22236143
-0.21436963
-0.29864544
-0.30036852
-0.30039947
-0.29928586
-0.29739351
-0.29484162
-0.29171761
-0.28809398
-0.28402365
-0.27954663
-0.2746951
-0.26949642
-0.26397486
-0.25815148
-0.25204292
-0.24567145
-0.23910133
-0.23235972
-0.22489841
-0.21606176
-0.30921487
-0.3094046
-0.30829392
-0.3063421
-0.30373619
-0.30057441
-0.29693949
-0.29289059
-0.28846769
-0.28370031
-0.27861119
-0.27321845
-0.26753804
-0.26158345
-0.25536279
-0.2488895
-0.24223465
-0.23543917
-0.22770383
-0.2178526
-0.32161569
-0.32004415
-0.31759099
-0.31462602
-0.31114274
-0.30722033
-0.30293905
-0.29834501
-0.2934646
-0.2883143
-0.2829049
-0.27724423
-0.27133856
-0.26519237
-0.25880432
-0.25217641
-0.24537877
-0.2384718
-0.23043867
-0.21947565
-0.33552321
-0.33202382
-0.32806591
-0.323936
-0.31942835
-0.31460697
-0.30955365
-0.30430112
-0.29885962
-0.29323195
-0.28741625
-0.2814081
-0.27520246
-0.26879381
-0.26217166
-0.25532662
-0.24832147
-0.24123906
-0.23291007
-0.22085007
-0.35068475
-0.34513701
-0.33954896
-0.33413298
-0.32848313
-0.32265168
-0.31672231
-0.31071404
-0.30462114
-0.29843089
-0.29212609
-0.28568731
-0.27909543
-0.27233266
-0.26537914
-0.25821738
-0.25090829
-0.24358078
-0.23503064
-0.22210091
-0.36691811
-0.35922383
-0.3519035
-0.34510514
-0.338218
-0.33128177
-0.32438423
-0.3175304
-0.31069614
-0.30385037
-0.2969575
-0.28997946
-0.28287827
-0.27561645
-0.2681527
-0.26044373
-0.252517
-0.24448481
-0.23514535
-0.22107078
-0.38410153
-0.37415107
-0.36498948
-0.35670525
-0.3484718
-0.34031619
-0.33233037
-0.32450367
-0.31679163
-0.309144
-0.3015073
-0.29382758
-0.28605351
-0.27813668
-0.27002638
-0.26166531
-0.25300416
-0.24384967
-0.23261197
-0.21634774
-0.20443703
-0.19453915
-0.18469023
-0.174973
-0.16532763
-0.15579403
-0.14642978
-0.1372718
-0.12834855
-0.11968739
-0.11131274
-0.10324474
-0.095499718
-0.088090809
-0.081028003
-0.074318259
-0.067965687
-0.061971733
-0.056335349
-0.051053175
-0.046119719
-0.041527558
-0.037267544
-0.033329011
-0.029699996
-0.026367454
-0.023317479
-0.020535511
-0.018006546
-0.015715329
-0.013646537
-0.011784947
-0.010115591
-0.0086238974
-0.007295815
-0.0061179275
-0.0050775655
-0.0041628891
-0.0033630641
-0.002668147
-0.0020700143
-0.0015600465
-0.0011374631
-0.00078479978
-0.00054551424
-0.00029379295
-0.00042787445
0.00015482715
-0.0018674821
0.0029094477
-0.20582022
-0.1954775
-0.18549429
-0.17577805
-0.16609647
-0.15651242
-0.14710518
-0.13790768
-0.12894518
-0.12024577
-0.11183436
-0.10373094
-0.095951802
-0.088510139
-0.081415998
-0.074676373
-0.068295402
-0.062274554
-0.056612795
-0.051306761
-0.046350951
-0.041737919
-0.037458485
-0.033501943
-0.029856282
-0.026508403
-0.023444341
-0.020649473
-0.01810873
-0.01580679
-0.013728262
-0.011857855
-0.010180535
-0.0086816634
-0.0073471243
-0.0061634395
-0.0051178797
-0.0041985476
-0.0033945539
-0.0026959019
-0.0020944165
-0.0015814286
-0.0011560925
-0.00080092917
-0.00055913186
-0.00030543563
-0.00043551431
0.00014576029
-0.0018562217
0.0028799161
-0.20862005
-0.19734354
-0.18709891
-0.17742992
-0.16769363
-0.15801272
-0.14852434
-0.13925142
-0.13021125
-0.1214344
-0.11294749
-0.10477041
-0.09691956
-0.089408483
-0.082247513
-0.075443837
-0.069001754
-0.062922862
-0.057206216
-0.051848501
-0.046844228
-0.042185932
-0.037864385
-0.033868809
-0.0301871
-0.026806048
-0.023711563
-0.020888888
-0.018322809
-0.015997855
-0.013898486
-0.012009256
-0.010314983
-0.0088008772
-0.0074526802
-0.0062567736
-0.0052002937
-0.0042712151
-0.003458526
-0.0027521121
-0.0021436852
-0.0016244663
-0.0011934768
-0.00083318736
-0.00058629285
-0.00032853414
-0.00045065925
0.00012797312
-0.0018338694
0.0028214136
-0.21254414
-0.19979759
-0.18918171
-0.17969019
-0.16993065
-0.16013032
-0.15054703
-0.14118656
-0.13204905
-0.1231706
-0.11458229
-0.10630429
-0.098353335
-0.090743907
-0.083487129
-0.076590729
-0.070059451
-0.063895263
-0.058097499
-0.052663035
-0.047586502
-0.042860488
-0.038475762
-0.034421493
-0.030685479
-0.027254381
-0.024113948
-0.021249241
-0.018644847
-0.016285082
-0.014154186
-0.012236492
-0.010516588
-0.0089794665
-0.0076106489
-0.0063963052
-0.0053233681
-0.0043796162
-0.0035538508
-0.0028357781
-0.0022169369
-0.0016883801
-0.0012489288
-0.00088097162
-0.00062646677
-0.00036263054
-0.00047293288
0.00010184142
-0.0018006898
0.0027351376
-0.21722131
-0.2024602
-0.1913778
-0.18226822
-0.17257673
-0.16266321
-0.15299663
-0.1435644
-0.13433382
-0.12534828
-0.11664834
-0.10825582
-0.10018808
-0.092461281
-0.085088108
-0.078077444
-0.071434938
-0.065163313
-0.05926251
-0.053729864
-0.04856033
-0.043746714
-0.039279899
-0.035149085
-0.031342029
-0.027845289
-0.024644459
-0.021724406
-0.019069489
-0.016663774
-0.014491231
-0.012535913
-0.010782125
-0.0092145727
-0.007818494
-0.0065797829
-0.0054851035
-0.0045219758
-0.0036789538
-0.0029455043
-0.0023129365
-0.0017720789
-0.0013214859
-0.00094343647
-0.00067891398
-0.00040707796
-0.00050183407
6.7940933e-05
-0.0017572177
0.0026229719
-0.22218242
-0.20496494
-0.19334423
-0.18485319
-0.17538561
-0.16540285
-0.15568259
-0.14621757
-0.13692448
-0.12784805
-0.11904335
-0.11053752
-0.10234942
-0.094497426
-0.086996757
-0.079858337
-0.0730894
-0.066693981
-0.060673098
-0.055024946
-0.049745133
-0.044826942
-0.04026158
-0.036038438
-0.032145348
-0.028568846
-0.025294425
-0.022306781
-0.01959005
-0.017128034
-0.014904406
-0.012902902
-0.011107496
-0.0095025546
-0.0080729798
-0.0068043303
-0.0056829442
-0.0046960248
-0.0038318221
-0.003079508
-0.0024301077
-0.0018741722
-0.0014099242
-0.0010195097
-0.00074270089
-0.00046106487
-0.00053674529
2.6983198e-05
-0.001704173
0.0024873637
-0.22695445
-0.20708085
-0.19483079
-0.18712186
-0.17810647
-0.16817508
-0.15844741
-0.14899451
-0.1396883
-0.13055794
-0.12167108
-0.11306566
-0.1047647
-0.096789449
-0.089158504
-0.081885921
-0.074981432
-0.068451091
-0.062297594
-0.056520502
-0.051116499
-0.046079682
-0.041401858
-0.037072821
-0.033080645
-0.029411966
-0.026052257
-0.022986098
-0.02019743
-0.017669797
-0.015386564
-0.013331128
-0.011487097
-0.0098384588
-0.0083697306
-0.0070660877
-0.0059134906
-0.0048987744
-0.0040098333
-0.0032354934
-0.0025664457
-0.0019929146
-0.0015127293
-0.0011078865
-0.00081671062
-0.00052364576
-0.00057696171
-2.0265177e-05
-0.0016423994
0.0023311656
-0.23123282
-0.20916979
-0.19605113
-0.1888851
-0.18051427
-0.17087324
-0.16122648
-0.1518182
-0.14254207
-0.13340076
-0.12446117
-0.11577457
-0.10737266
-0.099280902
-0.091521779
-0.084113307
-0.077068596
-0.070396414
-0.064101699
-0.058185862
-0.052647077
-0.047480605
-0.042679131
-0.038233088
-0.034130972
-0.030359658
-0.026904709
-0.023750661
-0.020881308
-0.018279961
-0.015929686
-0.01381353
-0.011914718
-0.010216829
-0.0087039612
-0.007360866
-0.0061730834
-0.0051270359
-0.0042102169
-0.0034110614
-0.0027198803
-0.0021265282
-0.0016283804
-0.0012072775
-0.00089985757
-0.00059392244
-0.00062183802
-7.3112715e-05
-0.0015728695
0.002157578
-0.23268297
-0.21139089
-0.19762544
-0.19005913
-0.18217476
-0.17311477
-0.16374249
-0.1544548
-0.14527093
-0.13618747
-0.12725512
-0.11853358
-0.11006648
-0.10188594
-0.094019102
-0.086488666
-0.079312097
-0.072501833
-0.06606589
-0.060008283
-0.054329353
-0.049026121
-0.044092666
-0.039520489
-0.035298873
-0.031415229
-0.027855442
-0.02460419
-0.021645253
-0.018961806
-0.016536679
-0.014352604
-0.012392432
-0.010639332
-0.0090769585
-0.0076896107
-0.0064623697
-0.0053812014
-0.0044331523
-0.0036062171
-0.0028902772
-0.0022747678
-0.0017565469
-0.0013172828
-0.00099170806
-0.0006713856
-0.0006710547
-0.00013070729
-0.0014970591
0.001970799
-0.22319343
-0.21084094
-0.19899007
-0.19008233
-0.18217925
-0.17392248
-0.16517482
-0.15626472
-0.14737075
-0.13852278
-0.12975366
-0.12112428
-0.11269184
-0.10449992
-0.096584025
-0.088974471
-0.081695798
-0.074766615
-0.068200169
-0.062004894
-0.056184831
-0.050740046
-0.04566707
-0.040959342
-0.036607625
-0.032600423
-0.028924372
-0.02556462
-0.022505179
-0.019729259
-0.017219568
-0.014958592
-0.012928841
-0.011113074
-0.0094944887
-0.0080568944
-0.0067848692
-0.0056638705
-0.004680441
-0.0038220759
-0.0030781679
-0.0024376712
-0.0018968652
-0.0014371933
-0.0010913508
-0.00075479109
-0.00072377857
-0.00019069696
-0.0014172516
0.0017766279
-0.20169193
-0.20482441
-0.19852853
-0.18891399
-0.18064577
-0.17282933
-0.16455239
-0.15596562
-0.14733033
-0.13871262
-0.13013831
-0.12166444
-0.11335243
-0.10525077
-0.097398717
-0.089830046
-0.082572757
-0.075648694
-0.069074017
-0.062859765
-0.05701229
-0.051533686
-0.04642224
-0.04167289
-0.037277668
-0.033226133
-0.029505785
-0.026102464
-0.023000725
-0.020184185
-0.017635848
-0.015338396
-0.013274454
-0.011426825
-0.0097786952
-0.0083138176
-0.0070166756
-0.0058726033
-0.0048679934
-0.0039901767
-0.0032283308
-0.0025712594
-0.0020147266
-0.0015405925
-0.0011786136
-0.00083075163
-0.00076952498
-0.00024995439
-0.0013327076
0.0015837708
-0.19053017
-0.19476344
-0.19034049
-0.18105669
-0.17320975
-0.16622764
-0.15882592
-0.15102247
-0.1431039
-0.13514809
-0.12717266
-0.11923111
-0.11138777
-0.10369544
-0.096197673
-0.088932786
-0.081933536
-0.075226468
-0.068832244
-0.062766158
-0.057038541
-0.051655165
-0.046617687
-0.041924108
-0.037569221
-0.033545058
-0.029841317
-0.026445776
-0.023344686
-0.020523136
-0.017965395
-0.015655223
-0.013576152
-0.011711741
-0.010045794
-0.0085625632
-0.0072469237
-0.0060845096
-0.0050619232
-0.0041666516
-0.0033878865
-0.0027145791
-0.0021419325
-0.0016529179
-0.00127303
-0.0009142963
-0.00081700349
-0.00031916804
-0.0012325243
0.0013738659
-0.18103969
-0.1828886
-0.17974233
-0.172256
-0.16535112
-0.15913986
-0.1525717
-0.1455606
-0.13836205
-0.13107245
-0.12371204
-0.11632882
-0.10898616
-0.10173906
-0.094633703
-0.087711339
-0.081008215
-0.074554681
-0.068375275
-0.062489138
-0.056910352
-0.051648277
-0.046707957
-0.042090547
-0.037793749
-0.033812252
-0.030138154
-0.026761386
-0.02367011
-0.020851097
-0.018290084
-0.015972095
-0.013881744
-0.012003498
-0.010321922
-0.0088218902
-0.0074887754
-0.0063086039
-0.0052682633
-0.0043554619
-0.0035594462
-0.0028693708
-0.0022798351
-0.0017750945
-0.0013758743
-0.001005547
-0.00086837439
-0.00039522938
-0.0011205095
0.0011421771
-0.17060726
-0.17012162
-0.1675209
-0.16214067
-0.15653172
-0.15113844
-0.14542568
-0.1392833
-0.1328802
-0.12631725
-0.11962973
-0.11286396
-0.10608024
-0.0993345
-0.092675148
-0.086145928
-0.07978609
-0.07362948
-0.067704369
-0.062033713
-0.056635402
-0.05152253
-0.046703722
-0.042183527
-0.037962821
-0.034039221
-0.030407508
-0.027060041
-0.023987156
-0.021177556
-0.018618675
-0.016297017
-0.014198465
-0.012308572
-0.010612813
-0.0090968134
-0.0077465604
-0.0065485669
-0.0054900852
-0.0045591082
-0.0037449856
-0.0030371099
-0.0024294879
-0.0019076795
-0.0014875436
-0.0011039799
-0.00092439834
-0.0004746395
-0.001004481
0.00089920366
-0.15931584
-0.15722188
-0.15476537
-0.15112087
-0.14685428
-0.1423354
-0.13748095
-0.1322348
-0.1266763
-0.1208885
-0.11492143
-0.1088238
-0.10265187
-0.096460552
-0.090299472
-0.08421406
-0.078245772
-0.072431325
-0.066802311
-0.061385257
-0.056201753
-0.051268628
-0.04659819
-0.042198552
-0.038073981
-0.03422528
-0.030650183
-0.027343756
-0.02429879
-0.021506189
-0.01895534
-0.016634464
-0.014530935
-0.012631586
-0.010922979
-0.0093916471
-0.008024322
-0.0068081182
-0.0057307471
-0.0047805618
-0.0039470771
-0.0032199565
-0.0025926615
-0.0020520034
-0.001609105
-0.0012099995
-0.00098606581
-0.00055609172
-0.00089023852
0.00065314204
-0.14690487
-0.14423682
-0.14201238
-0.13966741
-0.13661125
-0.13298902
-0.12897825
-0.12460465
-0.11989069
-0.11489251
-0.10966647
-0.10426315
-0.098734666
-0.093133485
-0.087509092
-0.081907452
-0.076371078
-0.070938529
-0.065643915
-0.06051672
-0.055581788
-0.050859385
-0.04636534
-0.042111275
-0.038104886
-0.034350267
-0.030848263
-0.027596835
-0.024591444
-0.021825421
-0.019290333
-0.016976339
-0.014872518
-0.012967181
-0.011248159
-0.009703059
-0.0083195039
-0.0070853369
-0.0059888386
-0.0050188107
-0.0041650121
-0.0034174161
-0.002769019
-0.002207786
-0.0017404178
-0.0013232569
-0.0010538277
-0.00063846097
-0.00078349402
0.00041250376
-0.13370736
-0.13131601
-0.12953579
-0.12813567
-0.12607986
-0.12331945
-0.12012013
-0.11656952
-0.11266748
-0.10844493
-0.10395609
-0.099252236
-0.094380492
-0.089388854
-0.084325344
-0.079235453
-0.074161634
-0.069143115
-0.064215488
-0.059410353
-0.054755125
-0.050272976
-0.045982865
-0.041899663
-0.038034345
-0.034394241
-0.030983323
-0.027802533
-0.02485012
-0.022121996
-0.019612085
-0.017312666
-0.01521471
-0.013308191
-0.011582384
-0.010026132
-0.0086281017
-0.0073769976
-0.0062617886
-0.005271824
-0.0043971976
-0.0036282385
-0.0029575863
-0.0023742307
-0.0018809246
-0.0014431333
-0.0011279487
-0.00072070219
-0.00069005329
0.00018634187
-0.12041901
-0.11870047
-0.11748244
-0.11677627
-0.11551294
-0.11353325
-0.11109047
-0.10829823
-0.10515362
-0.10167059
-0.097894969
-0.093875344
-0.089655123
-0.085276886
-0.080784563
-0.076221959
-0.071630608
-0.067049346
-0.062514135
-0.058057696
-0.053709177
-0.049493947
-0.045433523
-0.041545584
-0.037844059
-0.034339298
-0.031038279
-0.027944877
-0.025060151
-0.02238266
-0.019908787
-0.017633065
-0.015548502
-0.013646891
-0.011919105
-0.010355378
-0.0089455649
-0.0076793669
-0.006546564
-0.0055371578
-0.0046416779
-0.0038508623
-0.003157125
-0.0025503377
-0.0020298978
-0.0015689692
-0.0012085856
-0.00080213588
-0.00061509788
-1.6769328e-05
-0.1075555
-0.10656363
-0.10591712
-0.10574366
-0.10510482
-0.10380277
-0.10204241
-0.099935463
-0.097482012
-0.094686782
-0.091585419
-0.08822065
-0.084631206
-0.080854981
-0.076931239
-0.072899939
-0.068800475
-0.064670448
-0.060545227
-0.056457658
-0.052437697
-0.048512111
-0.04470428
-0.041034111
-0.037518026
-0.034169035
-0.030996869
-0.028008165
-0.025206699
-0.022593651
-0.020167886
-0.017926253
-0.01586389
-0.013974521
-0.012250746
-0.010684321
-0.0092664182
-0.0079878642
-0.0068393705
-0.0058116982
-0.0048959185
-0.0040832403
-0.0033659967
-0.0027348076
-0.002186372
-0.0017000432
-0.0012957174
-0.00088253252
-0.00056247326
-0.00018983719
-0.095383116
-0.09502065
-0.094885542
-0.095135122
-0.094991732
-0.094260507
-0.093097148
-0.091597692
-0.089763856
-0.087595487
-0.085118802
-0.082369045
-0.079379398
-0.076182535
-0.072813022
-0.069306606
-0.065699081
-0.06202569
-0.058320368
-0.054615213
-0.050940103
-0.047322366
-0.043786498
-0.040353978
-0.037043161
-0.03386926
-0.03084439
-0.027977676
-0.025275419
-0.022741294
-0.020376589
-0.018180461
-0.016150208
-0.014281548
-0.012568894
-0.011005623
-0.0095843354
-0.0082970958
-0.0071356581
-0.0060916466
-0.0051567804
-0.0043228078
-0.0035821323
-0.0029260135
-0.0023491222
-0.0018355511
-0.0013890953
-0.00096205909
-0.00053416634
-0.0003283924
-0.084030419
-0.084158601
-0.084440407
-0.085023201
-0.085271177
-0.085008982
-0.084353229
-0.083380875
-0.082092609
-0.080485039
-0.078576359
-0.076394029
-0.073965131
-0.071316856
-0.068478548
-0.065481435
-0.062357396
-0.059138309
-0.055855707
-0.052540135
-0.049220601
-0.045924195
-0.042675773
-0.039497696
-0.036409642
-0.033428497
-0.030568314
-0.02784035
-0.025253149
-0.022812678
-0.020522508
-0.018384025
-0.016396655
-0.014558119
-0.012864683
-0.011311409
-0.0098924076
-0.0086010692
-0.0074302879
-0.006372646
-0.0054206124
-0.0045665484
-0.0038030779
-0.0031220291
-0.0025166827
-0.0019745932
-0.0014882131
-0.0010411435
-0.00053002815
-0.00043114262
-0.07355049
-0.074036054
-0.074632942
-0.075466776
-0.076016549
-0.076129588
-0.075893395
-0.075367415
-0.074549757
-0.073434253
-0.072032371
-0.070364241
-0.06845073
-0.066313452
-0.063976381
-0.061465777
-0.058809237
-0.056034943
-0.053171265
-0.050246381
-0.047287685
-0.044321302
-0.04137172
-0.038461493
-0.035610986
-0.032838186
-0.030158592
-0.027585164
-0.025128343
-0.022796114
-0.020594125
-0.01852584
-0.016592727
-0.014794462
-0.013129156
-0.011593582
-0.010183407
-0.0088934127
-0.0077177107
-0.0066499234
-0.0056833616
-0.0048110757
-0.0040260539
-0.0033206621
-0.0026873663
-0.0021161474
-0.0015922826
-0.0011202827
-0.00054781558
-0.00050016141
-0.063950184
-0.064682013
-0.065501082
-0.06651109
-0.067283626
-0.067687187
-0.067787465
-0.067629395
-0.067208246
-0.066515383
-0.065556663
-0.064345696
-0.062897436
-0.061228049
-0.059356203
-0.057303086
-0.055091673
-0.052746103
-0.050291232
-0.047752249
-0.045154245
-0.042521704
-0.039878079
-0.03724545
-0.034644228
-0.032092916
-0.029607921
-0.02720344
-0.024891409
-0.022681494
-0.020581153
-0.018595725
-0.016728567
-0.014981214
-0.013353569
-0.011844097
-0.010450035
-0.0091675921
-0.0079921508
-0.0069184399
-0.0059406933
-0.0050527249
-0.0042480205
-0.003519492
-0.0028592826
-0.002259033
-0.0017002191
-0.0011998378
-0.00058357589
-0.00054049838
-0.055210648
-0.056101241
-0.057064638
-0.058185771
-0.059112288
-0.059731522
-0.060092525
-0.060228674
-0.060132891
-0.059794572
-0.059215012
-0.058402267
-0.057365988
-0.056117273
-0.054669752
-0.053039666
-0.051245319
-0.049306567
-0.047244456
-0.045080839
-0.042837978
-0.040538123
-0.038203081
-0.035853843
-0.033510256
-0.031190743
-0.02891207
-0.026689172
-0.02453503
-0.022460613
-0.020474863
-0.018584734
-0.01679527
-0.015109717
-0.013529667
-0.012055219
-0.010685153
-0.0094171146
-0.008247784
-0.0071730442
-0.0061881178
-0.0052876528
-0.0044657524
-0.0037159151
-0.003030362
-0.0024018811
-0.0018106505
-0.0012798714
-0.00063231694
-0.00055923297
-0.047297572
-0.048279724
-0.04932542
-0.050504157
-0.051526801
-0.052297392
-0.052852238
-0.053215714
-0.05337914
-0.053330611
-0.0530679
-0.052594538
-0.051915664
-0.051037905
-0.049970316
-0.04872452
-0.047314314
-0.045755283
-0.044064513
-0.042260282
-0.040361702
-0.038388339
-0.036359842
-0.034295564
-0.032214224
-0.030133601
-0.028070273
-0.026039393
-0.024054519
-0.022127496
-0.020268385
-0.018485445
-0.016785152
-0.015172264
-0.013649915
-0.012219733
-0.010881982
-0.0096357098
-0.0084789
-0.0074086139
-0.006421112
-0.0055119378
-0.004675917
-0.003907197
-0.0031983871
-0.0025431256
-0.0019219592
-0.0013600635
-0.00068882228
-0.00056415906
-0.040166516
-0.041189888
-0.042270389
-0.043464867
-0.044536876
-0.045405285
-0.046096751
-0.046628776
-0.04699184
-0.047173432
-0.047168806
-0.046978003
-0.046602524
-0.046045258
-0.045311303
-0.04440816
-0.043345474
-0.042134765
-0.04078922
-0.039323469
-0.03775329
-0.036095293
-0.034366581
-0.032584424
-0.030765925
-0.028927709
-0.027085645
-0.025254596
-0.023448216
-0.021678777
-0.019957061
-0.018292277
-0.016692037
-0.015162362
-0.013707731
-0.012331156
-0.01103428
-0.0098174912
-0.008680045
-0.0076201821
-0.0066352287
-0.005721673
-0.0048751502
-0.0040905285
-0.003361035
-0.0026810205
-0.0020323566
-0.0014397192
-0.00074841705
-0.00056242001
-0.033767377
-0.034795465
-0.035875757
-0.037054724
-0.038139782
-0.039062899
-0.039843531
-0.040494051
-0.041004746
-0.041363132
-0.041562853
-0.041601432
-0.041477616
-0.04119134
-0.040744456
-0.040140956
-0.039386832
-0.038489907
-0.037459711
-0.036307329
-0.035045192
-0.033686821
-0.032246552
-0.03073925
-0.029180016
-0.027583887
-0.025965564
-0.024339147
-0.022717913
-0.021114118
-0.01953884
-0.01800186
-0.016511586
-0.015075018
-0.01369774
-0.012383955
-0.01113654
-0.0099571221
-0.0088461645
-0.0078030586
-0.0068262003
-0.0059130534
-0.0050601281
-0.0042630843
-0.0035159254
-0.0028136825
-0.0021399758
-0.0015178484
-0.00080749516
-0.00055944915
-0.028047751
-0.029055158
-0.030110534
-0.031251827
-0.032322904
-0.033267211
-0.034098892
-0.034826567
-0.03544084
-0.035929755
-0.036286117
-0.036505789
-0.036585588
-0.036523269
-0.036318164
-0.035971435
-0.035486007
-0.034866496
-0.034119151
-0.033251775
-0.032273591
-0.031195061
-0.030027676
-0.02878372
-0.027476028
-0.026117722
-0.024721952
-0.023301646
-0.021869275
-0.020436647
-0.019014721
-0.017613457
-0.016241702
-0.014907111
-0.0136161
-0.012373831
-0.01118423
-0.010050019
-0.0089727728
-0.0079529707
-0.006990054
-0.0060824694
-0.0052276437
-0.0044220856
-0.0036606765
-0.0029391519
-0.0022429636
-0.0015932822
-0.00086369533
-0.00055847464
-0.022955206
-0.023925279
-0.024939338
-0.026028295
-0.027066287
-0.028006729
-0.02885987
-0.029631629
-0.030313275
-0.030893743
-0.031365604
-0.031723779
-0.031963863
-0.032082138
-0.032076117
-0.0319448
-0.031688675
-0.031309703
-0.030811324
-0.030198436
-0.029477331
-0.02865558
-0.02774189
-0.026745932
-0.025678146
-0.024549524
-0.023371392
-0.022155175
-0.020912177
-0.019653371
-0.018389205
-0.017129437
-0.015882987
-0.014657829
-0.013460907
-0.012298083
-0.011174108
-0.010092626
-0.0090561816
-0.0080662507
-0.0071232634
-0.0062266284
-0.0053747018
-0.004564878
-0.0037929713
-0.0030554667
-0.002339554
-0.0016647871
-0.00091573989
-0.0005606448
-0.018439123
-0.019361937
-0.0203248
-0.021352764
-0.022345105
-0.023263837
-0.024116344
-0.024906617
-0.025626801
-0.026266948
-0.026819836
-0.027279995
-0.027642386
-0.027902415
-0.028056398
-0.028101798
-0.028037275
-0.027862709
-0.027579246
-0.027189333
-0.026696697
-0.026106302
-0.025424257
-0.024657712
-0.023814712
-0.022904038
-0.021935022
-0.020917358
-0.019860904
-0.018775477
-0.017670677
-0.016555703
-0.015439201
-0.014329129
-0.013232647
-0.012156032
-0.011104618
-0.010082757
-0.0090938007
-0.0081400912
-0.0072229595
-0.0063427255
-0.0054986562
-0.0046890417
-0.003910647
-0.0031607492
-0.0024281243
-0.0017311558
-0.00096307093
-0.00056560919
-0.014451785
-0.015322496
-0.016229301
-0.017192321
-0.018131717
-0.019016875
-0.019853058
-0.020642875
-0.021379443
-0.022054035
-0.022659928
-0.023191665
-0.023644013
-0.024011982
-0.024291209
-0.024478167
-0.02457024
-0.024565771
-0.024464136
-0.024265803
-0.023972365
-0.023586532
-0.023112099
-0.022553892
-0.021917679
-0.021210056
-0.020438318
-0.019610306
-0.018734242
-0.017818559
-0.016871729
-0.015902096
-0.014917718
-0.013926222
-0.01293468
-0.011949498
-0.010976331
-0.010020013
-0.0090845076
-0.0081728681
-0.0072872073
-0.0064286741
-0.005597398
-0.0047925443
-0.0040118174
-0.0032533122
-0.0025072447
-0.0017912765
-0.001005469
-0.00057225936
-0.010949755
-0.011767202
-0.012616797
-0.013514451
-0.014397694
-0.015242199
-0.016051634
-0.016827606
-0.017564209
-0.018253952
-0.018890775
-0.019469499
-0.019985015
-0.020432291
-0.020806686
-0.021104133
-0.02132121
-0.021455208
-0.021504215
-0.021467194
-0.021344037
-0.021135597
-0.020843697
-0.020471115
-0.020021545
-0.019499534
-0.018910394
-0.018260095
-0.017555143
-0.016802442
-0.016009144
-0.015182506
-0.014329739
-0.013457865
-0.01257359
-0.011683176
-0.010792341
-0.0099061656
-0.0090290161
-0.0081644799
-0.007315309
-0.0064833718
-0.005669582
-0.0048739315
-0.0040950266
-0.003331784
-0.00257574
-0.0018441942
-0.0010427966
-0.00057935246
-0.0078940274
-0.0086598033
-0.0094538424
-0.010288437
-0.011115559
-0.011916212
-0.012692841
-0.013446306
-0.014171625
-0.014862484
-0.015513556
-0.016120099
-0.016677321
-0.017180395
-0.017624695
-0.018005951
-0.018320315
-0.018564433
-0.018735527
-0.018831479
-0.018850902
-0.018793191
-0.01865856
-0.018448062
-0.018163589
-0.017807844
-0.017384301
-0.016897141
-0.016351163
-0.015751693
-0.015104461
-0.014415486
-0.013690943
-0.012937034
-0.012159861
-0.011365303
-0.010558902
-0.009745756
-0.0089304248
-0.0081168431
-0.0073082417
-0.0065070784
-0.0057149481
-0.0049325943
-0.0041594644
-0.0033952766
-0.0026327893
-0.0018891896
-0.001074917
-0.00058588063
-0.0052510586
-0.0059684252
-0.0067103473
-0.0074859524
-0.0082592007
-0.0090156015
-0.0097566425
-0.010482607
-0.011189344
-0.011871615
-0.012524828
-0.013144742
-0.013726995
-0.014267108
-0.014760664
-0.015203428
-0.015591411
-0.015920929
-0.016188683
-0.016391839
-0.016528102
-0.016595783
-0.016593844
-0.016521949
-0.016380484
-0.016170569
-0.015894048
-0.015553462
-0.015152004
-0.014693456
-0.014182111
-0.013622681
-0.013020192
-0.012379876
-0.011707057
-0.011007037
-0.010284976
-0.0095457849
-0.0087940202
-0.0080337802
-0.0072686099
-0.0065014132
-0.005734347
-0.00496881
-0.0042050114
-0.0034434256
-0.0026779443
-0.0019257941
-0.001101683
-0.00059116668
-0.002994915
-0.0036688015
-0.0043637284
-0.0050861439
-0.0058098884
-0.0065242209
-0.0072298654
-0.007926646
-0.0086111328
-0.0092790297
-0.0099264307
-0.010549604
-0.011144654
-0.011707515
-0.01223409
-0.012720332
-0.013162303
-0.013556219
-0.013898524
-0.014185961
-0.014415642
-0.014585113
-0.01469242
-0.014736155
-0.014715509
-0.014630299
-0.014480987
-0.014268684
-0.013995138
-0.013662703
-0.013274298
-0.012833344
-0.01234369
-0.011809529
-0.011235303
-0.0106256
-0.0099850508
-0.0093182166
-0.008629481
-0.0079229414
-0.0072023009
-0.0064707657
-0.0057309263
-0.0049847266
-0.0042330402
-0.0034770301
-0.0027116265
-0.0019541709
-0.0011232595
-0.0005949827
-0.0010996785
-0.0017351842
-0.0023886265
-0.0030640611
-0.0037434117
-0.0044190518
-0.0050910951
-0.0057589876
-0.0064198982
-0.0070703341
-0.0077069938
-0.0083266202
-0.0089257678
-0.0095007989
-0.010047974
-0.010563515
-0.011043648
-0.011484642
-0.011882866
-0.012234856
-0.012537371
-0.012787462
-0.01298253
-0.01312039
-0.013199318
-0.013218105
-0.013176093
-0.013073197
-0.012909925
-0.01268737
-0.012407206
-0.012071647
-0.011683407
-0.011245642
-0.010761876
-0.010235918
-0.009671774
-0.0090735395
-0.0084452991
-0.0077910137
-0.0071144071
-0.0064188545
-0.0057072537
-0.0049819772
-0.0042444558
-0.0034964545
-0.0027338357
-0.0019740753
-0.0011393346
-0.00059695192
0.00043071338
-0.0001734437
-0.00079266427
-0.001429253
-0.0020715241
-0.0027142857
-0.0033571568
-0.0039992843
-0.0046383177
-0.0052714149
-0.0058957766
-0.0065085539
-0.0071067008
-0.0076869703
-0.0082459722
-0.0087802159
-0.0092861407
-0.0097601492
-0.010198653
-0.010598122
-0.010955142
-0.011266469
-0.011529089
-0.011740279
-0.011897663
-0.011999269
-0.012043575
-0.012029558
-0.01195672
-0.011825113
-0.011635347
-0.011388589
-0.011086543
-0.010731414
-0.010325861
-0.0098729343
-0.009376
-0.0088386501
-0.0082646054
-0.007657608
-0.0070213069
-0.0063591416
-0.005674207
-0.0049691933
-0.0042459758
-0.0035068195
-0.0027483939
-0.0019882845
-0.0011518539
-0.00059809803
0.0016402195
0.0010619131
0.00047074999
-0.00013396869
-0.00074552123
-0.0013606516
-0.0019786009
-0.0025982699
-0.0032176724
-0.003834473
-0.0044462711
-0.0050505488
-0.0056445902
-0.0062254788
-0.0067901309
-0.0073353218
-0.0078577085
-0.0083538555
-0.0088202706
-0.0092534458