/*--------------------------------*- C++ -*----------------------------------*\
  =========                 |
  \\      /  F ield         | OpenFOAM: The Open Source CFD Toolbox
   \\    /   O peration     | Website:  https://openfoam.org
    \\  /    A nd           | Version:  6
     \\/     M anipulation  |
\*---------------------------------------------------------------------------*/
FoamFile
{
    version     2.0;
    format      ascii;
    class       volScalarField;
    location    "132";
    object      pPrime2Mean;
}
// * * * * * * * * * * * * * * * * * * * * * * * * * * * * * * * * * * * * * //

dimensions      [0 4 -4 0 0 0 0];

internalField   nonuniform List<scalar> 
9200
(
0.08497289
0.070417863
0.058096252
0.050076912
0.043677909
0.03828618
0.033634995
0.029588432
0.026056036
0.022965337
0.020256277
0.01787849
0.015789422
0.013952907
0.012338061
0.010918477
0.0096718109
0.0085794467
0.0076277706
0.0067993764
0.068858619
0.056949554
0.046991618
0.040448863
0.035202
0.03076865
0.026939207
0.023606824
0.020699532
0.018159265
0.015937497
0.013993142
0.012291122
0.010801273
0.0094975091
0.008357224
0.0073609684
0.0064920114
0.0057349273
0.0050677786
0.053749831
0.044385303
0.036646891
0.031494506
0.027330287
0.023795339
0.020734753
0.018069765
0.015746542
0.013720976
0.011955465
0.010417464
0.0090785483
0.0079137144
0.0069008954
0.0060206297
0.0052558643
0.0045915897
0.0040128139
0.0034998261
0.040066082
0.033064227
0.027334384
0.023446478
0.020265711
0.017545465
0.015181556
0.013121524
0.011328606
0.0097715009
0.0084223043
0.0072557935
0.0062490771
0.005381407
0.0046340956
0.0039904785
0.0034358621
0.0029572674
0.0025419069
0.0021748518
0.028185468
0.023291199
0.019304867
0.016521356
0.014199219
0.012189674
0.010433804
0.0089028042
0.0075751071
0.0064303574
0.0054485843
0.0046103433
0.0038970665
0.0032914292
0.002777662
0.00234175
0.0019714796
0.0016562754
0.0013863404
0.0011516765
0.01844121
0.015331912
0.012780792
0.01091285
0.0093028511
0.0078829707
0.0066326642
0.0055431442
0.004605313
0.0038072876
0.0031349209
0.0025729153
0.0021059041
0.0017193168
0.0013999704
0.001136376
0.00091878795
0.00073906126
0.00059027146
0.00046627587
0.011111904
0.0094064737
0.0079513108
0.0067875441
0.0057259341
0.0047610338
0.0039024043
0.0031566911
0.0025238461
0.001997632
0.0015675615
0.0012209892
0.00094482622
0.00072673274
0.00055580762
0.00042286176
0.00032038758
0.00024238525
0.00018424381
0.00014242218
0.0064143541
0.0056849769
0.0049687163
0.0042815625
0.0035916991
0.0029365386
0.0023463485
0.0018379009
0.0014164038
0.0010784151
0.00081513265
0.00061531621
0.00046740816
0.00036082393
0.00028656433
0.00023735431
0.00020749862
0.00019266264
0.00018984043
0.00019701022
0.0044975269
0.0042827557
0.0039421753
0.0034938123
0.0029910831
0.0024939917
0.0020428529
0.001658615
0.0013478365
0.0011072981
0.00092831965
0.00080016136
0.0007122219
0.00065519886
0.00062150499
0.00060523983
0.00060194747
0.00060836245
0.00062234055
0.00064249029
0.00543599
0.0052563932
0.004930847
0.0044793224
0.0039764095
0.0034832177
0.0030384391
0.0026610756
0.0023554636
0.0021165819
0.0019347788
0.0017991739
0.0016996072
0.001627499
0.0015760404
0.0015400271
0.0015155665
0.0014998043
0.0014907279
0.001486816
0.20212974
0.16998551
0.14047721
0.12182009
0.10700781
0.094576565
0.083875008
0.074551734
0.066389204
0.059216443
0.052893757
0.047305497
0.042354793
0.037959755
0.034050658
0.030567785
0.02745975
0.024680541
0.022186967
0.01995405
0.19955118
0.16765214
0.13848226
0.12003974
0.10541327
0.093140712
0.082576477
0.073374949
0.0653211
0.058245601
0.052010089
0.046500033
0.041619527
0.037287525
0.033435045
0.030003052
0.026940833
0.024203048
0.021746268
0.019546392
0.19429187
0.16303252
0.13459373
0.11661042
0.10236437
0.090413473
0.080126065
0.071167374
0.063328029
0.056442787
0.050376524
0.045017355
0.040271585
0.036060055
0.032315416
0.028980076
0.026004693
0.023345267
0.020958525
0.018820841
0.18644395
0.15623893
0.12892405
0.11163864
0.09795754
0.086482209
0.076603788
0.068002831
0.060478449
0.053871771
0.048052752
0.042913625
0.038364113
0.034327938
0.03074021
0.027545456
0.024696257
0.022150547
0.019865915
0.017818519
0.17622189
0.14746428
0.1216375
0.10527136
0.092324677
0.081465871
0.072117717
0.063980064
0.056863006
0.050616093
0.045116032
0.040260541
0.035963874
0.032153546
0.02876788
0.025754115
0.023067162
0.020667341
0.018514279
0.016583589
0.16391713
0.13696398
0.11294714
0.09769632
0.085633066
0.075514371
0.066802808
0.059220971
0.052592123
0.046776024
0.041657611
0.037141297
0.033146858
0.02960643
0.026462217
0.023664701
0.021171431
0.018945336
0.016949404
0.015159369
0.14988339
0.12504428
0.10310506
0.08913363
0.078077844
0.068801817
0.060814925
0.053865329
0.047791337
0.042464445
0.037779066
0.033647359
0.029995517
0.02676104
0.023890642
0.021338552
0.019065268
0.017036351
0.015219122
0.013590923
0.13452387
0.11205138
0.092394351
0.079828966
0.069875931
0.06152102
0.054325929
0.048066519
0.042597637
0.037803739
0.033589751
0.029876466
0.026597269
0.023695707
0.021123608
0.018839493
0.016807268
0.014995276
0.013375755
0.011929132
0.11827663
0.098358587
0.081118865
0.070044702
0.061258147
0.053876553
0.04751759
0.041986133
0.037154688
0.032921626
0.029203202
0.025929559
0.02304191
0.020490431
0.018232606
0.016231798
0.01445597
0.012876871
0.011472378
0.010226074
0.10159876
0.084355896
0.069592509
0.060048588
0.052458214
0.046074414
0.040572097
0.035785568
0.031605681
0.027945332
0.024732621
0.021907476
0.019419312
0.017225268
0.015288835
0.013578724
0.012067995
0.0107339
0.0095618773
0.0085360648
0.017598047
0.015248833
0.013256476
0.011526339
0.010047951
0.0087812757
0.0076915864
0.0067491034
0.0059296207
0.0052134842
0.0045847789
0.0040307514
0.0035411581
0.0031076607
0.0027233745
0.0023825391
0.0020802672
0.0018123555
0.0015751457
0.0013654215
0.00118033
0.0010173221
0.00087410543
0.00074860884
0.00063895398
0.00054343357
0.00046049398
0.00038872129
0.00032682983
0.00027365256
0.00022813268
0.00018931607
0.00015634446
0.00012844871
0.00010494262
8.5216643e-05
6.8732061e-05
5.5014844e-05
4.3650585e-05
3.4277597e-05
2.6585306e-05
2.0299639e-05
1.5203859e-05
1.1069485e-05
7.811983e-06
5.1215051e-06
3.2738872e-06
1.4954209e-06
1.9904073e-06
3.2211075e-06
0.017255928
0.01498504
0.013049961
0.011363835
0.009921585
0.0086840715
0.0076169255
0.0066915013
0.005884839
0.0051782764
0.0045567265
0.0040081183
0.0035227123
0.003092516
0.0027108799
0.0023722036
0.0020717094
0.0018052707
0.0015692857
0.001360581
0.001176338
0.0010140353
0.00087140385
0.00074639185
0.00063713742
0.00054194722
0.00045927945
0.00038773012
0.00032602197
0.00027299493
0.00022759808
0.00018888216
0.00015599291
0.00012816451
0.00010471347
8.5032467e-05
6.8584622e-05
5.4897391e-05
4.355759e-05
3.4204538e-05
2.6528481e-05
2.0256032e-05
1.5171015e-05
1.104546e-05
7.7951756e-06
5.1107086e-06
3.2682747e-06
1.4921926e-06
1.9779925e-06
3.1575339e-06
0.016653522
0.014523659
0.012692299
0.011086933
0.0097096263
0.0085235915
0.0074955462
0.0065991071
0.0058137857
0.0051228825
0.0045128682
0.0039728977
0.0034941102
0.0030691019
0.002691613
0.0023563043
0.0020585748
0.0017944209
0.0015603304
0.0013531982
0.0011702597
0.0010090377
0.00086729968
0.00074302495
0.00063437767
0.00053968655
0.00045742842
0.00038621498
0.00032478206
0.00027198052
0.00022676846
0.00018820408
0.0001554392
0.00012771299
0.00010434602
8.473425e-05
6.8343467e-05
5.4703298e-05
4.3402324e-05
3.4081308e-05
2.6431683e-05
2.0181052e-05
1.5114069e-05
1.1003496e-05
7.7657012e-06
5.0917388e-06
3.2585881e-06
1.4866015e-06
1.9532106e-06
3.0333921e-06
0.015827649
0.013892973
0.012208925
0.010720202
0.0094339591
0.0083178684
0.0073417125
0.006482876
0.0057247041
0.0050535099
0.0044579737
0.0039288569
0.0034584088
0.0030399541
0.0026677095
0.0023366546
0.0020424074
0.0017811199
0.0015493946
0.0013442151
0.0011628877
0.0010029928
0.00086234613
0.00073896704
0.0006310536
0.00053696296
0.00045519571
0.00038438345
0.00032327847
0.00027074527
0.0002257531
0.00018736926
0.00015475298
0.00012714937
0.00010388382
8.4356146e-05
6.8035236e-05
5.4453216e-05
4.3200684e-05
3.3920053e-05
2.6304111e-05
2.0081586e-05
1.5038099e-05
1.0947264e-05
7.7260999e-06
5.0663052e-06
3.2456271e-06
1.4793751e-06
1.9160795e-06
2.855091e-06
0.014814829
0.013121969
0.011626152
0.010288776
0.0091166225
0.0080843483
0.0071685158
0.0063524386
0.0056246574
0.004975451
0.0043961832
0.0038793831
0.003418472
0.0030075442
0.002641324
0.0023151377
0.0020248497
0.0017667931
0.0015377082
0.0013346864
0.0011551206
0.0009966618
0.00085718386
0.00073475447
0.00062761183
0.00053414634
0.00045288614
0.00038248545
0.00032171513
0.00026945476
0.00022468577
0.00018648526
0.00015402026
0.0001265421
0.00010338105
8.3940804e-05
6.7693302e-05
5.4173091e-05
4.2972703e-05
3.3736114e-05
2.61574e-05
1.9966357e-05
1.4949541e-05
1.0881413e-05
7.6795793e-06
5.0365556e-06
3.2303645e-06
1.4714387e-06
1.8669884e-06
2.6320263e-06
0.013646618
0.012237185
0.010967872
0.0098132621
0.0087738298
0.0078342695
0.0069831625
0.0062125252
0.0055170558
0.0048914449
0.0043299052
0.0038267065
0.0033763929
0.0029738246
0.0026142561
0.0022933909
0.0020073725
0.001752747
0.0015264197
0.0013256125
0.0011478226
0.00099078552
0.0008524437
0.00073092082
0.00062450086
0.00053161151
0.00045081112
0.00038077832
0.00032030353
0.00026828187
0.00022370706
0.00018566581
0.00015333257
0.00012596442
0.000102896
8.3534349e-05
6.7353932e-05
5.3891253e-05
4.2740344e-05
3.354638e-05
2.6004406e-05
1.9845033e-05
1.4855539e-05
1.0811106e-05
7.6296836e-06
5.0048462e-06
3.2138161e-06
1.4637763e-06
1.8065715e-06
2.3756032e-06
0.012353918
0.011265248
0.010255443
0.00930623
0.0084109926
0.0075687238
0.0067848105
0.0060621813
0.0054017408
0.0048022205
0.0042605146
0.0037725865
0.0033341074
0.0029407548
0.0025883897
0.0022731655
0.0019915668
0.0017404019
0.0015167802
0.0013180834
0.0011419348
0.00098616974
0.00084881055
0.00072804442
0.00062220602
0.00052976331
0.0004493065
0.00037953918
0.00031927112
0.00026741234
0.00022296788
0.00018503287
0.00015278798
0.00012549477
0.00010249107
8.3186128e-05
6.7055918e-05
5.3637987e-05
4.2527077e-05
3.3368872e-05
2.5858824e-05
1.9727877e-05
1.4763642e-05
1.074176e-05
7.5800919e-06
4.9735898e-06
3.1969693e-06
1.4573382e-06
1.7356994e-06
2.0981708e-06
0.010975004
0.010236559
0.0095052672
0.0087660178
0.0080170368
0.0072761092
0.0065648775
0.0058963201
0.0052766242
0.0047078345
0.0041893496
0.0037190049
0.003293843
0.0029105719
0.0025658361
0.0022563801
0.0019791324
0.0017312376
0.0015100612
0.0013131803
0.0011383686
0.00098357778
0.00084691966
0.00072665102
0.00062116022
0.00052895652
0.00044866165
0.00037900292
0.00031880771
0.00026699886
0.00022259047
0.00018468386
0.00015246375
0.00012519412
0.00010221411
8.2933478e-05
6.6828215e-05
5.3435598e-05
4.2349948e-05
3.3216507e-05
2.5730332e-05
1.9622047e-05
1.4679032e-05
1.0677036e-05
7.5332024e-06
4.9443206e-06
3.180239e-06
1.4527241e-06
1.6553811e-06
1.8121462e-06
0.0095474708
0.0091647484
0.0087007173
0.0081537948
0.0075496786
0.0069219374
0.0062983476
0.005697148
0.0051288528
0.0045988343
0.0041092992
0.0036604596
0.0032512308
0.002879738
0.0025436896
0.0022406245
0.0019680599
0.0017235762
0.0015048628
0.001309739
0.0011361601
0.00098221466
0.00084611874
0.0007262079
0.00062093031
0.00052884038
0.00044859351
0.00037894182
0.00031873057
0.00026689512
0.0002224579
0.00018452552
0.00015228561
0.00012500348
0.00010201838
8.2739535e-05
6.6641888e-05
5.3261522e-05
4.2191517e-05
3.3075951e-05
2.5608879e-05
1.9520095e-05
1.4596304e-05
1.0613114e-05
7.4863445e-06
4.9152814e-06
3.1621853e-06
1.4494829e-06
1.5670169e-06
1.5302599e-06
0.0081258516
0.0080171985
0.007766587
0.00739952
0.006955185
0.0064654299
0.0059536125
0.0054394661
0.0049378172
0.004458216
0.0040063777
0.0035854897
0.0031968953
0.0028405939
0.0025157036
0.0022208136
0.0019542187
0.0017140718
0.0014984843
0.0013055878
0.0011335703
0.00098069487
0.00084530903
0.00072584799
0.00062083544
0.0005288828
0.00044868826
0.00037903557
0.00031879296
0.00026691193
0.00022242588
0.00018444837
0.00015217107
0.00012486111
0.00010185813
8.2570722e-05
6.6472637e-05
5.3098474e-05
4.2039757e-05
3.2939071e-05
2.5489173e-05
1.9418741e-05
1.4513567e-05
1.0548957e-05
7.4390306e-06
4.8860626e-06
3.142571e-06
1.4471862e-06
1.4739673e-06
1.2657536e-06
0.0065774597
0.0066308562
0.006554975
0.0063597701
0.0060839541
0.0057507049
0.0053758429
0.0049769231
0.0045701901
0.0041676099
0.0037774821
0.0034055766
0.0030556302
0.0027297096
0.0024286481
0.0021524295
0.0019004638
0.0016717848
0.0014651938
0.0012793613
0.001112895
0.00096438521
0.00083243454
0.00071567783
0.00061279508
0.00052252047
0.00044364865
0.00037503932
0.00031562047
0.00026439062
0.00022042013
0.0001828516
0.00015089943
0.00012384858
0.00010105258
8.1930921e-05
6.5965848e-05
5.2698628e-05
4.1726002e-05
3.269472e-05
2.530075e-05
1.9275635e-05
1.44067e-05
1.047254e-05
7.3849631e-06
4.8554271e-06
3.1190727e-06
1.446334e-06
1.37778e-06
1.0332694e-06
0.005096414
0.0052361766
0.0052681846
0.0051949235
0.0050480698
0.0048444782
0.0045932876
0.0043079743
0.0040030462
0.0036899319
0.0033771832
0.0030714098
0.0027775032
0.0024987764
0.00223728
0.001994125
0.001769728
0.0015639981
0.0013764851
0.001206493
0.0010531624
0.00091553009
0.00079257257
0.00068323748
0.00058646683
0.00050121434
0.00042645878
0.00036121427
0.00030453823
0.00025553763
0.00021337348
0.00017726405
0.00014648673
0.00012037877
9.8336985e-05
7.9816552e-05
6.4329074e-05
5.1439883e-05
4.0765334e-05
3.1968255e-05
2.4757379e-05
1.8875322e-05
1.4116498e-05
1.0269553e-05
7.244396e-06
4.7720181e-06
3.0583924e-06
1.4334378e-06
1.2565106e-06
8.1318763e-07
0.0038236697
0.0040187421
0.0041260761
0.0041468536
0.0041011424
0.0040012774
0.0038527256
0.0036650326
0.0034501243
0.0032181936
0.0029773511
0.0027343309
0.0024945684
0.0022621541
0.0020400053
0.0018301062
0.001633703
0.0014514618
0.0012836048
0.0011300224
0.00099036118
0.00086409048
0.00075055509
0.00064901511
0.00055867718
0.00047871885
0.00040830806
0.00034661854
0.00029284227
0.00024619939
0.00020594594
0.00017137972
0.00014184452
0.00011673285
9.5487321e-05
7.760097e-05
6.2616552e-05
5.0124963e-05
3.9763403e-05
3.1211803e-05
2.419244e-05
1.8459732e-05
1.3815487e-05
1.0059307e-05
7.0982593e-06
4.6859131e-06
2.9927103e-06
1.4222314e-06
1.1256122e-06
6.0755748e-07
0.0027542195
0.0029769815
0.0031304274
0.0032166055
0.0032450899
0.0032241339
0.0031572622
0.0030506667
0.0029131841
0.0027532004
0.002577861
0.0023934423
0.0022053566
0.0020179991
0.0018347814
0.0016582735
0.001490338
0.0013322465
0.0011847893
0.0010483746
0.00092311149
0.00080887683
0.00070537087
0.00061216159
0.00052872095
0.00045445429
0.00038872435
0.00033087101
0.00028022753
0.00023613378
0.00019794689
0.0001650498
0.00013685762
0.00011282243
9.2436403e-05
7.5233595e-05
6.0790594e-05
4.8726097e-05
3.8699991e-05
3.0410811e-05
2.3595603e-05
1.802157e-05
1.3498651e-05
9.8381235e-06
6.9442762e-06
4.5947314e-06
2.9215722e-06
1.4104636e-06
9.9448972e-07
4.3271494e-07
0.0018942539
0.0021166871
0.0022892722
0.0024133663
0.0024906273
0.0025252837
0.0025194038
0.0024765753
0.0024026129
0.0023037747
0.0021858756
0.0020543164
0.0019140271
0.0017692773
0.001623607
0.0014798717
0.0013403116
0.0012066212
0.0010800243
0.00096135001
0.00085110241
0.00074952084
0.00065663217
0.00057229534
0.00049623898
0.00042809318
0.0003674163
0.00031371753
0.00026647588
0.00022515612
0.0001892219
0.00015814647
0.00013142127
0.00010856243
8.9115684e-05
7.2659642e-05
5.8807758e-05
4.7209099e-05
3.7548411e-05
2.9544624e-05
2.2951034e-05
1.75488e-05
1.3156993e-05
9.5992491e-06
6.7777053e-06
4.4946896e-06
2.8431904e-06
1.3957451e-06
8.6852002e-07
2.9720969e-07
0.0012355928
0.0014354658
0.0016045939
0.001742511
0.0018457909
0.0019150739
0.0019508817
0.0019547595
0.0019299306
0.0018805044
0.0018107611
0.0017249637
0.0016272416
0.0015213978
0.0014107807
0.0012982494
0.0011861836
0.0010765069
0.00097072407
0.00086996876
0.00077505327
0.00068651621
0.00060466672
0.00052962443
0.00046135503
0.00039970156
0.00034441176
0.0002951618
0.00025157681
0.0002132485
0.00017975007
0.00015064873
0.00012551592
0.00010393558
8.5510498e-05
6.986701e-05
5.6658282e-05
4.5566243e-05
3.6302634e-05
2.8608573e-05
2.2255138e-05
1.7038622e-05
1.2788351e-05
9.3408743e-06
6.59724e-06
4.3843234e-06
2.7572759e-06
1.3763766e-06
7.5205952e-07
2.0395364e-07
0.00075687621
0.00092069794
0.0010701309
0.0012029632
0.0013132645
0.0013990741
0.0014593845
0.0014940985
0.001504382
0.0014924106
0.0014609099
0.0014128932
0.0013515032
0.0012798398
0.0012008091
0.0011170348
0.0010308182
0.00094412293
0.00085857734
0.00077549232
0.00069588825
0.00062052596
0.00054993894
0.00048446509
0.00042427696
0.00036940976
0.000319787
0.00027524358
0.00023554635
0.00020041235
0.00016952459
0.00014254572
0.00011912946
9.8930144e-05
8.161034e-05
6.6846814e-05
5.433497e-05
4.3791893e-05
3.4958363e-05
2.7599448e-05
2.1505542e-05
1.6489263e-05
1.2391399e-05
9.0618798e-06
6.4021252e-06
4.2626255e-06
2.6640179e-06
1.3508355e-06
6.4832826e-07
1.5045968e-07
0.00043059609
0.00055275199
0.00067288007
0.00078771002
0.00089071805
0.00097850286
0.0010488678
0.0011004718
0.0011329607
0.0011469345
0.0011437044
0.0011250621
0.0010931158
0.001050137
0.00099841943
0.00094017001
0.00087743333
0.00081204545
0.00074560879
0.00067948358
0.00061479212
0.00055243148
0.00049309144
0.00043727548
0.00038532307
0.00033743213
0.00029368076
0.00025404789
0.00021843245
0.00018667089
0.00015855295
0.00013383557
0.00011225498
9.3537039e-05
7.7405758e-05
6.3590257e-05
5.1830187e-05
4.187975e-05
3.3510602e-05
2.6513405e-05
2.0699359e-05
1.5898577e-05
1.1964572e-05
8.761057e-06
6.1916069e-06
4.1287616e-06
2.5637969e-06
1.3179397e-06
5.5899891e-07
1.2939097e-07
0.00022791703
0.00030850178
0.00039538051
0.00048494734
0.00057121964
0.00065034203
0.00071946973
0.00077647311
0.00081998745
0.00084945841
0.0008650419
0.0008674506
0.00085781829
0.00083757549
0.00080832783
0.00077175012
0.00072950104
0.00068315699
0.0006341664
0.00058382145
0.00053324303
0.00048337628
0.00043499399
0.00038870564
0.00034497027
0.00030411152
0.00026633397
0.00023173967
0.00020034452
0.0001720939
0.00014687733
0.00012454185
0.00010490398
8.7760328e-05
7.2896556e-05
6.0094992e-05
4.9140762e-05
3.9826597e-05
3.1956496e-05
2.5348116e-05
1.9834808e-05
1.5265268e-05
1.1506983e-05
8.4378055e-06
5.9654362e-06
3.9825049e-06
2.4573622e-06
1.2772372e-06
4.8434434e-07
1.3034849e-07
0.00012155867
0.0001643048
0.00021820523
0.00027984405
0.00034430399
0.00040794622
0.0004678143
0.00052144882
0.00056693679
0.00060299009
0.00062893202
0.00064462024
0.00065035865
0.00064680919
0.00063490028
0.00061573626
0.0005905169
0.00056046909
0.00052679076
0.00049060916
0.00045295211
0.00041472984
0.00037672539
0.00033959225
0.00030385729
0.00026992782
0.00023810121
0.00020857633
0.00018146592
0.00015680933
0.00013458502
0.0001147226
9.7113957e-05
8.1623423e-05
6.809679e-05
5.6369074e-05
4.6271067e-05
3.7634671e-05
3.0297136e-05
2.4104129e-05
1.8912232e-05
1.458965e-05
1.1018985e-05
8.0925515e-06
5.7241661e-06
3.8244478e-06
2.3458646e-06
1.2291306e-06
4.2359208e-07
1.423448e-07
8.7502538e-05
9.8071919e-05
0.00012199076
0.00015632751
0.00019736628
0.00024204715
0.00028769749
0.00033191021
0.00037261009
0.00040815141
0.00043735354
0.00045948237
0.00047421019
0.00048156637
0.00048187903
0.00047570971
0.00046378734
0.00044694723
0.00042607681
0.00040206937
0.00037578734
0.00034803509
0.00031953972
0.00029093908
0.0002627758
0.00023549636
0.00020945388
0.00018491378
0.00016206144
0.00014101122
0.00012181605
0.00010447731
8.8954468e-05
7.517423e-05
6.3038977e-05
5.2434307e-05
4.3235608e-05
3.5313619e-05
2.8539007e-05
2.2785915e-05
1.7934841e-05
1.3874158e-05
1.0502525e-05
7.7269731e-06
5.4692923e-06
3.6560694e-06
2.2308252e-06
1.1748414e-06
3.7534956e-07
1.5616455e-07
0.00010568142
9.0391739e-05
8.878361e-05
9.8513081e-05
0.00011698664
0.00014185193
0.00017093759
0.00020214632
0.00023352561
0.00026337247
0.00029029324
0.00031322161
0.00033141604
0.00034444498
0.00035215993
0.00035465746
0.00035223421
0.00034533975
0.00033453094
0.00032042966
0.00030368522
0.00028494308
0.00026482021
0.00024388646
0.00022265178
0.00020155835
0.00018097711
0.00016120772
0.0001424813
0.00012496521
0.0001087693
9.395299e-05
8.0532851e-05
6.8490188e-05
5.7778388e-05
4.8329781e-05
4.006185e-05
3.2882683e-05
2.6695619e-05
2.1403046e-05
1.6909524e-05
1.3123882e-05
9.961466e-06
7.3441646e-06
5.2033106e-06
3.4796663e-06
2.1140172e-06
1.1161688e-06
3.3788549e-07
1.6584374e-07
0.00015996894
0.00012495796
0.00010278961
9.1685e-05
8.9992252e-05
9.6046756e-05
0.00010824524
0.00012492926
0.00014444455
0.00016524026
0.00018593543
0.00020535436
0.00022254729
0.00023680069
0.00024763576
0.00025479478
0.00025821783
0.00025801324
0.00025442482
0.00024779844
0.00023854956
0.00022713342
0.00021401899
0.00019966747
0.00018451523
0.0001689612
0.00015335822
0.00013800811
0.0001231598
0.00010900997
9.5705617e-05
8.3348158e-05
7.1998449e-05
6.1682406e-05
5.2396826e-05
4.4115157e-05
3.6792958e-05
3.0372902e-05
2.4789215e-05
1.9971464e-05
1.5847754e-05
1.2347171e-05
9.4019573e-06
6.9488125e-06
4.9297716e-06
3.2982638e-06
1.9973805e-06
1.0552145e-06
3.0930628e-07
1.6893038e-07
0.00023779939
0.00018855284
0.00015067386
0.00012286277
0.00010419627
9.3599494e-05
9.0003509e-05
9.2214856e-05
9.8955099e-05
0.00010894559
0.00012096851
0.0001339058
0.00014676954
0.0001587264
0.00016911308
0.00017744099
0.00018339141
0.00018680288
0.00018765295
0.00018603622
0.00018214039
0.00017622199
0.00016858319
0.00015955068
0.0001494575
0.00013862794
0.0001273658
0.00011594573
0.00010460762
9.3553558e-05
8.2947034e-05
7.2913898e-05
6.3544755e-05
5.4898321e-05
4.7005427e-05
3.987335e-05
3.3490199e-05
2.7829158e-05
2.2852434e-05
1.8514773e-05
1.4766541e-05
1.1556284e-05
8.8328448e-06
6.547399e-06
4.6533431e-06
3.1155151e-06
1.8829516e-06
9.9409966e-07
2.8764343e-07
1.6568286e-07
0.00032962695
0.0002707723
0.0002215505
0.00018103684
0.00014883196
0.00012432372
0.0001068909
9.5763965e-05
9.0044254e-05
8.8770373e-05
9.0967584e-05
9.5681495e-05
0.00010200844
0.00010912435
0.00011630848
0.00012295926
0.0001286024
0.00013289186
0.00013560467
0.00013663074
0.00013595872
0.00013365963
0.00012986917
0.00012477012
0.00011857572
0.00011151469
0.00010381829
9.5709845e-05
8.739656e-05
7.9063735e-05
7.0871113e-05
6.2951114e-05
5.5408651e-05
4.8322215e-05
4.1745907e-05
3.5712125e-05
3.0234635e-05
2.5311792e-05
2.0929739e-05
1.7065427e-05
1.3689369e-05
1.0768093e-05
8.2661529e-06
6.1484896e-06
4.3799582e-06
2.9357006e-06
1.7729095e-06
9.3482059e-07
2.7101153e-07
1.5779996e-07
0.00042835958
0.00036363234
0.00030678485
0.00025717051
0.00021473908
0.0001792155
0.00015032197
0.00012763764
0.00011060143
9.8560552e-05
9.0806537e-05
8.6599778e-05
8.5194145e-05
8.5863584e-05
8.7926999e-05
9.0768638e-05
9.3853212e-05
9.673572e-05
9.9066045e-05
0.00010058861
0.00010113769
0.00010062918
9.9049867e-05
9.6445144e-05
9.2906068e-05
8.8556568e-05
8.3541479e-05
7.8015823e-05
7.2135698e-05
6.6050885e-05
5.9899269e-05
5.3802934e-05
4.7865829e-05
4.2172774e-05
3.6789583e-05
3.1764064e-05
2.712764e-05
2.289739e-05
1.9078303e-05
1.5665596e-05
1.2646957e-05
1.0004695e-05
7.7175484e-06
5.7630478e-06
4.1170126e-06
2.7638064e-06
1.6696938e-06
8.7922167e-07
2.5783116e-07
1.4729094e-07
0.00052884267
0.00046114886
0.00039970222
0.00034405546
0.00029437052
0.00025060089
0.00021271196
0.00018054669
0.00015381719
0.00013213856
0.00011505275
0.00010204344
9.2552784e-05
8.6002045e-05
8.1813151e-05
7.9428443e-05
7.8327761e-05
7.8042374e-05
7.8165358e-05
7.83581e-05
7.835292e-05
7.795214e-05
7.7024099e-05
7.5496759e-05
7.3349597e-05
7.0604475e-05
6.731615e-05
6.3562996e-05
5.9438357e-05
5.5042899e-05
5.0478147e-05
4.5841323e-05
4.1221475e-05
3.6696859e-05
3.2333418e-05
2.818422e-05
2.4289668e-05
2.0678292e-05
1.7367961e-05
1.4367358e-05
1.167757e-05
9.2937604e-06
7.2066549e-06
5.404692e-06
3.873566e-06
2.605668e-06
1.5761885e-06
8.2909361e-07
2.4708057e-07
1.3583402e-07
0.00062741977
0.00055894229
0.00049526805
0.00043609017
0.00038168284
0.00033214249
0.00028759264
0.00024806054
0.00021346244
0.00018362642
0.0001583068
0.00013719086
0.00011990792
0.00010604307
9.5153137e-05
8.6782819e-05
8.0480126e-05
7.5810609e-05
7.2369814e-05
6.9793314e-05
6.776397e-05
6.6016279e-05
6.4337917e-05
6.2568726e-05
6.0597523e-05
5.8357228e-05
5.5818788e-05
5.2984441e-05
4.9880779e-05
4.6551995e-05
4.305366e-05
3.9447228e-05
3.5795448e-05
3.2158712e-05
2.8592354e-05
2.5144838e-05
2.1856728e-05
1.8760323e-05
1.5879826e-05
1.3231922e-05
1.0826625e-05
8.6683629e-06
6.7570264e-06
5.0897415e-06
3.6604234e-06
2.4680761e-06
1.4958697e-06
7.8630325e-07
2.3843056e-07
1.2459324e-07
0.00072157474
0.00065389183
0.0005897799
0.000529031
0.00047196326
0.00041875315
0.0003696161
0.00032469703
0.00028405314
0.00024766908
0.00021546476
0.00018729627
0.0001629588
0.00014219407
0.00012470045
0.00011014429
9.8171736e-05
8.8420809e-05
8.0533116e-05
7.4164583e-05
6.8994657e-05
6.4733613e-05
6.112778e-05
5.7962598e-05
5.5063619e-05
5.2295627e-05
4.9560197e-05
4.6792036e-05
4.3954494e-05
4.1034612e-05
3.8038051e-05
3.4984183e-05
3.1901581e-05
2.8824055e-05
2.5787349e-05
2.2826519e-05
1.9973994e-05
1.7258269e-05
1.4703154e-05
1.2327497e-05
1.0145288e-05
8.1660933e-06
6.3956029e-06
4.8369114e-06
3.4899917e-06
2.3587587e-06
1.4328547e-06
7.5289576e-07
2.3220865e-07
1.1428552e-07
0.00080964753
0.00074384632
0.00068059198
0.00061974752
0.00056163145
0.00050645694
0.00045448329
0.00040592173
0.00036091813
0.00031956321
0.00028189625
0.00024790238
0.00021751131
0.00019059988
0.00016699726
0.0001464914
0.00012883688
0.0001137635
0.0001009857
9.0211932e-05
8.1153674e-05
7.3533561e-05
6.7092336e-05
6.1594342e-05
5.6831424e-05
5.2625212e-05
4.8827851e-05
4.5321354e-05
4.2015796e-05
3.8846624e-05
3.5771363e-05
3.2765986e-05
2.9821201e-05
2.6938868e-05
2.4128698e-05
2.1405363e-05
1.8786069e-05
1.6288631e-05
1.393004e-05
1.1725486e-05
9.687787e-06
7.8272048e-06
6.1514672e-06
4.6665155e-06
3.3757988e-06
2.2861421e-06
1.3917822e-06
7.311031e-07
2.2920553e-07
1.0530704e-07
0.00089061158
0.00082738861
0.0007658789
0.00070599841
0.00064804044
0.00059222691
0.00053882845
0.00048808559
0.00044019295
0.00039530625
0.00035354364
0.00031498127
0.00027964963
0.00024753281
0.00021856997
0.00019265802
0.00016965557
0.00014938812
0.00013165444
0.00011623353
0.00010289207
9.1391786e-05
8.1496453e-05
7.2978233e-05
6.5623053e-05
5.9234862e-05
5.3638668e-05
4.8682333e-05
4.423721e-05
4.0197722e-05
3.6480084e-05
3.3020357e-05
2.977204e-05
2.6703415e-05
2.3794814e-05
2.1035982e-05
1.8423639e-05
1.5959329e-05
1.3647626e-05
1.1494685e-05
9.5071759e-06
7.6915801e-06
6.0537303e-06
4.5990436e-06
3.3315799e-06
2.2588204e-06
1.3774935e-06
7.2323305e-07
2.3042019e-07
9.7842415e-08
0.0009638986
0.00090364477
0.00084443737
0.00078623386
0.00072928936
0.00067381787
0.00062008097
0.00056832374
0.00051876103
0.0004715825
0.0004269528
0.00038500658
0.00034584385
0.00030952741
0.00027608187
0.00024549361
0.0002177118
0.00019265063
0.00017019266
0.00015019325
0.00013248569
0.0001168869
0.00010320338
9.1237069e-05
8.0790957e-05
7.167411e-05
6.3705956e-05
5.6719685e-05
5.0564716e-05
4.5108195e-05
4.0235598e-05
3.5850531e-05
3.1873865e-05
2.8242347e-05
2.4906858e-05
2.1830463e-05
1.8986402e-05
1.6356131e-05
1.3927505e-05
1.1693181e-05
9.6492687e-06
7.7942936e-06
6.1283666e-06
4.6529811e-06
3.3698361e-06
2.284668e-06
1.3944909e-06
7.3142762e-07
2.3681741e-07
9.1946482e-08
0.001029262
0.0009721321
0.0009155232
0.00085942752
0.00080405697
0.00074960887
0.00069632437
0.00064443778
0.00059416536
0.00054570895
0.00049925556
0.0004549728
0.00041300406
0.00037346518
0.00033644216
0.00030198946
0.00027012899
0.00024085012
0.00021411069
0.00018983896
0.00016793652
0.00014828194
0.00013073504
0.00011514154
0.00010133793
8.9156257e-05
7.8428693e-05
6.8991626e-05
6.0689182e-05
5.3376037e-05
4.6919495e-05
4.1200807e-05
3.6115791e-05
3.1574815e-05
2.7502252e-05
2.3835524e-05
2.0523855e-05
1.7526855e-05
1.4813039e-05
1.2358384e-05
1.0144979e-05
8.1598687e-06
6.394029e-06
4.8418634e-06
3.4998451e-06
2.3695783e-06
1.4461758e-06
7.5729609e-07
2.491246e-07
8.7599264e-08
0.0010866614
0.0010326287
0.0009787091
0.00092492527
0.00087144596
0.00081844834
0.00076614794
0.00071476013
0.00066449121
0.000615541
0.00056810237
0.00052235726
0.00047847228
0.0004365954
0.00039685302
0.00035934751
0.00032415502
0.00029132405
0.00026087478
0.00023279911
0.00020706164
0.00018360139
0.00016233423
0.00014315602
0.00012594616
0.00011057152
9.689049e-05
8.4756968e-05
7.4024212e-05
6.4548262e-05
5.6190928e-05
4.882221e-05
4.2322123e-05
3.6581928e-05
3.1504783e-05
2.7005896e-05
2.3012239e-05
1.9461927e-05
1.6303354e-05
1.3494181e-05
1.1000264e-05
8.7946134e-06
6.8563825e-06
5.1702296e-06
3.7248988e-06
2.5156852e-06
1.5337878e-06
8.0138658e-07
2.6762812e-07
8.4729687e-08
0.0011361829
0.0010850826
0.0010337826
0.00098233453
0.00093086646
0.00087953514
0.00082852954
0.00077804282
0.00072826549
0.00067938724
0.00063159638
0.00058507672
0.00054000383
0.00049654203
0.00045484143
0.00041503523
0.00037723703
0.00034153865
0.0003080083
0.00027668945
0.00024760027
0.00022073381
0.0001960588
0.0001735212
0.00015304638
0.00013454174
0.00011789987
0.00010300187
8.9720872e-05
7.7925498e-05
6.7483172e-05
5.8263124e-05
5.0139036e-05
4.2991204e-05
3.6708234e-05
3.118823e-05
2.6339512e-05
2.208091e-05
1.8341686e-05
1.5061176e-05
1.2188207e-05
9.6804028e-06
7.503381e-06
5.6301843e-06
4.0399121e-06
2.7198128e-06
1.6554886e-06
8.6274242e-07
2.9204435e-07
8.3228048e-08
0.001177927
0.0011294849
0.0010806073
0.0010313735
0.00098187504
0.00093225001
0.00088266252
0.00083328355
0.00078428589
0.00073584534
0.00068814009
0.00064134842
0.00059564563
0.00055120157
0.00050817788
0.00046672542
0.00042698144
0.00038906719
0.00035308543
0.00031911869
0.00028722757
0.00025744988
0.00022980016
0.00020426987
0.00018082821
0.00015942356
0.00013998537
0.00012242668
0.00010664683
9.2534526e-05
7.9971027e-05
6.8833237e-05
5.8996739e-05
5.033855e-05