/*--------------------------------*- C++ -*----------------------------------*\
  =========                 |
  \\      /  F ield         | OpenFOAM: The Open Source CFD Toolbox
   \\    /   O peration     | Website:  https://openfoam.org
    \\  /    A nd           | Version:  6
     \\/     M anipulation  |
\*---------------------------------------------------------------------------*/
FoamFile
{
    version     2.0;
    format      ascii;
    class       volVectorField;
    location    "132";
    object      U;
}
// * * * * * * * * * * * * * * * * * * * * * * * * * * * * * * * * * * * * * //

dimensions      [0 1 -1 0 0 0 0];

internalField   nonuniform List<vector> 
9200
(
(0.0010394049 0.0014199511 -5.9202294e-20)
(0.013676323 -0.002058502 4.6042941e-20)
(0.038313721 -0.0058668052 -3.8502056e-20)
(0.072275373 -0.0097638455 -6.0258235e-20)
(0.11376613 -0.013490475 1.8827137e-20)
(0.16158278 -0.016606211 3.274416e-20)
(0.21467392 -0.018817946 -1.226813e-20)
(0.2720691 -0.01997466 9.2689563e-21)
(0.33285985 -0.020012102 1.6803557e-20)
(0.39616772 -0.018930042 1.4848203e-21)
(0.4611204 -0.016780922 -2.1456543e-20)
(0.52684229 -0.013658958 2.0670211e-20)
(0.59245663 -0.0096893527 -4.0422529e-20)
(0.65709774 -0.0050172673 -2.1134137e-20)
(0.71993154 0.0002039238 5.9047146e-21)
(0.78018216 0.0058222987 -2.5131991e-20)
(0.83717795 0.011710844 2.5217469e-20)
(0.89047623 0.017916357 2.2243664e-20)
(0.93967819 0.024571056 -2.9920716e-22)
(0.98205927 0.028290839 -1.6690732e-21)
(0.0052522802 -0.0013463268 -1.7059483e-20)
(0.02696288 -0.0089892178 3.974804e-20)
(0.061670878 -0.014810075 2.357649e-20)
(0.10629612 -0.019172691 -1.1569844e-19)
(0.15873741 -0.022214524 -1.2727197e-20)
(0.21753585 -0.023721314 7.3297618e-20)
(0.2813759 -0.023595823 -3.5476684e-20)
(0.34900959 -0.021869789 -8.3906231e-21)
(0.41924341 -0.018646445 3.4287834e-20)
(0.49091425 -0.014081862 -4.3259977e-20)
(0.5628777 -0.0083770781 -3.0338796e-20)
(0.63401437 -0.001767836 7.1922258e-20)
(0.70324964 0.0054870276 3.829448e-20)
(0.7695825 0.013117127 -6.7977426e-20)
(0.8321194 0.020850424 1.4623907e-20)
(0.89010745 0.028417879 -3.6733935e-20)
(0.94297628 0.035567664 -1.3777351e-20)
(0.99043935 0.042138679 7.0976039e-20)
(1.0323629 0.047712897 2.9642749e-20)
(1.0669414 0.049137095 -8.3479147e-20)
(0.010858576 -0.0040424893 3.6773715e-20)
(0.043953937 -0.015431314 2.5047527e-21)
(0.090516433 -0.02255265 2.2341901e-20)
(0.14711294 -0.026497836 9.8117512e-22)
(0.21134469 -0.027886874 -4.0774289e-20)
(0.28147046 -0.026795781 1.8576523e-20)
(0.35587385 -0.023383478 1.3420415e-20)
(0.43299417 -0.017922369 -5.0328117e-20)
(0.51132949 -0.010736567 5.7262365e-20)
(0.58943142 -0.0021848872 1.4256855e-20)
(0.66591495 0.007346798 -5.430132e-20)
(0.73948656 0.017459041 -1.823766e-20)
(0.80898249 0.02775521 9.0591267e-21)
(0.87340935 0.03785777 2.3445072e-20)
(0.93198042 0.047422375 -1.1362706e-20)
(0.98414045 0.056147121 2.7878144e-20)
(1.0295806 0.063787123 -2.0188516e-20)
(1.068271 0.070202132 -7.0124778e-20)
(1.1003383 0.075116903 -2.3796738e-20)
(1.124917 0.07663857 4.8660389e-20)
(0.017957422 -0.0064222517 2.4508175e-20)
(0.064777681 -0.020695067 5.103958e-20)
(0.12485354 -0.028061245 1.9881827e-20)
(0.19447154 -0.030464565 1.2990158e-20)
(0.27095187 -0.029095425 1.7275808e-20)
(0.35225203 -0.024389635 -4.7720517e-20)
(0.4364353 -0.016826695 -2.5647059e-20)
(0.52162463 -0.0069774602 0)
(0.60603409 0.0045661687 1.3920836e-20)
(0.6879927 0.017210783 -5.852485e-21)
(0.76598121 0.030372871 -9.7936027e-20)
(0.83868079 0.043498459 -1.5774937e-20)
(0.90502174 0.0560853 6.5104131e-20)
(0.96422223 0.067702654 4.8431842e-22)
(1.01581 0.07800605 -1.5725801e-21)
(1.0596218 0.086744927 2.195783e-20)
(1.0957833 0.093770151 -5.2648279e-21)
(1.1246857 0.099063039 -6.1030681e-20)
(1.1468702 0.10259457 -4.585202e-20)
(1.1623008 0.10341114 6.9521371e-20)
(0.026579692 -0.008205785 -3.9194379e-21)
(0.089344883 -0.024033785 -5.1256641e-21)
(0.16430906 -0.030265387 5.6599769e-20)
(0.24758343 -0.029810502 1.8539434e-20)
(0.33624456 -0.024513573 -3.1955281e-20)
(0.42795492 -0.015240457 1.2163924e-20)
(0.52047695 -0.0028520093 2.6403083e-21)
(0.6116685 0.011736394 3.3609509e-20)
(0.69955255 0.027639372 5.6600096e-21)
(0.78237421 0.044027911 -1.3204944e-20)
(0.85866017 0.060146754 6.0154908e-20)
(0.92727537 0.075339363 -5.8010008e-20)
(0.98746304 0.089071591 -1.321679e-19)
(1.0388593 0.10094756 -5.5773823e-21)
(1.0814785 0.11071543 8.3152017e-20)
(1.1156713 0.11826218 0)
(1.1420603 0.12360374 1.0119092e-20)
(1.161472 0.12688825 -1.5460006e-20)
(1.1748227 0.12829619 -8.5995984e-21)
(1.1826718 0.12744645 2.0992505e-20)
(0.036667252 -0.009089677 -5.4309207e-21)
(0.11731616 -0.024685625 4.3579004e-21)
(0.20812048 -0.028140545 -8.7630357e-21)
(0.30515959 -0.023415379 2.8472571e-20)
(0.40533871 -0.013076054 -2.9392876e-20)
(0.5060755 0.0015221221 -1.6927157e-20)
(0.60490956 0.019094612 3.7364468e-20)
(0.69955479 0.038364677 4.7595592e-21)
(0.78800953 0.058166996 -2.443642e-20)
(0.86863995 0.077482255 6.9868354e-20)
(0.94024577 0.095457763 5.2384267e-22)
(1.0021016 0.11143053 -8.0445444e-20)
(1.0539629 0.12494168 0)
(1.0960331 0.13573607 3.9542722e-20)
(1.1288977 0.14374679 5.5236905e-21)
(1.153433 0.14906707 -7.7567506e-20)
(1.170704 0.15191706 -1.9587198e-20)
(1.1818669 0.1526214 -1.2467808e-20)
(1.1880634 0.15152358 -1.4709603e-20)
(1.19015 0.14858228 4.0421079e-20)
(0.048059284 -0.0087674935 -1.7278034e-20)
(0.14808434 -0.021932225 -2.219888e-21)
(0.25514276 -0.020798133 3.0380658e-20)
(0.36546672 -0.010413118 3.7484494e-20)
(0.47590785 0.0059012511 -1.9944865e-20)
(0.58374699 0.026268957 -6.9163607e-20)
(0.68644675 0.048976832 -2.7996096e-20)
(0.78176738 0.07241736 7.892999e-20)
(0.86790761 0.095211965 8.5779793e-21)
(0.94359498 0.11624898 -2.487372e-20)
(1.0081317 0.13469749 1.364229e-20)
(1.0613928 0.15001458 -4.3195383e-21)
(1.1037749 0.16193542 0)
(1.1361028 0.17044289 2.7203837e-20)
(1.1595096 0.17572148 -7.9323461e-20)
(1.1753068 0.17810187 -3.1475946e-20)
(1.1848614 0.1780061 8.1055654e-20)
(1.1894962 0.17590723 -4.2970663e-21)
(1.1904068 0.17225319 3.5561469e-21)
(1.1885116 0.16719044 2.7111967e-20)
(0.060485739 -0.0069574333 -3.2414749e-20)
(0.18077913 -0.015170552 -8.1624779e-20)
(0.30389159 -0.0075837236 2.5797151e-21)
(0.4264287 0.0097031671 7.0162285e-20)
(0.54535539 0.032631377 6.2424831e-20)
(0.65798554 0.058819866 -7.157501e-20)
(0.76191387 0.086176303 -2.8266717e-22)
(0.8551883 0.11285204 8.5523496e-20)
(0.93645905 0.137378 4.8828586e-20)
(1.0050471 0.15869318 -5.4219064e-20)
(1.0609412 0.17613494 -9.2335319e-20)
(1.1047297 0.18941264 -3.159021e-21)
(1.1374811 0.19855832 4.2128383e-20)
(1.1605922 0.20385723 -6.6057127e-21)
(1.1756293 0.20576864 -1.286894e-20)
(1.184182 0.20484743 1.9691031e-20)
(1.1877468 0.20167702 4.3881167e-20)
(1.1876491 0.19682376 -4.3859963e-20)
(1.1849989 0.19077657 -1.0232334e-19)
(1.1806283 0.1837714 2.4567251e-20)
(0.073537772 -0.0034330134 -3.4979958e-20)
(0.21422844 -0.0039891109 -1.7388685e-19)
(0.35251908 0.011839311 8.2103843e-20)
(0.48563133 0.037018314 9.2768168e-20)
(0.61085787 0.066835562 5.7970975e-20)
(0.72577192 0.098481193 8.6107879e-21)
(0.8283531 0.12959694 -1.0624103e-19)
(0.9171953 0.15824258 0)
(0.99163287 0.18302791 -6.8749422e-20)
(1.0517575 0.20311166 -1.5202612e-20)
(1.0983436 0.218148 5.4704093e-20)
(1.1327058 0.22821 1.0973513e-20)
(1.1565157 0.23369155 -4.5614382e-20)
(1.1716113 0.2351982 -4.9081919e-20)
(1.1798246 0.23344188 2.4287981e-20)
(1.182849 0.22915157 4.4823448e-20)
(1.1821526 0.22300802 -5.560109e-20)
(1.1789395 0.21560624 -1.0751251e-19)
(1.1741502 0.20742013 -3.1513596e-21)
(1.1684599 0.19871658 2.7046724e-20)
(0.086651063 0.001961385 -3.5449673e-21)
(0.24696189 0.011816656 8.7913735e-20)
(0.39885007 0.037492403 -1.6479041e-20)
(0.54040816 0.071218549 -8.4309879e-20)
(0.66950321 0.10778915 4.5164744e-20)
(0.78422421 0.14411565 4.9175764e-20)
(0.88319442 0.17775685 5.5357335e-21)
(0.96578388 0.20688496 -9.9503469e-20)
(1.0321815 0.23038792 -2.5049048e-21)
(1.0833379 0.24781524 5.0504109e-20)
(1.1208119 0.25926249 5.9855441e-21)
(1.1465605 0.26523545 -1.9717431e-20)
(1.1627152 0.26650436 -7.5705464e-20)
(1.1713806 0.26396504 -6.2554544e-21)
(1.1744801 0.25852292 4.3533824e-20)
(1.1736585 0.25100934 3.702241e-20)
(1.1702418 0.24213225 1.9793624e-20)
(1.1652435 0.23245692 -5.2995543e-20)
(1.1594045 0.22240224 1.2957473e-20)
(1.1532281 0.21223595 8.2659996e-20)
(-0.0012932736 0.0014346734 -1.1234407e-21)
(-0.0047460033 0.003187443 2.0647108e-21)
(-0.010771452 0.0041359385 8.7955133e-22)
(-0.017754434 0.0045395715 -2.4411017e-21)
(-0.024740515 0.0045654497 -1.4115159e-21)
(-0.031299833 0.0043260668 1.5460219e-21)
(-0.0371616 0.00390356 -6.8701854e-21)
(-0.042147737 0.0033577359 -5.9573797e-21)
(-0.046158079 0.0027313869 1.117216e-20)
(-0.049146489 0.002054827 -9.7428937e-21)
(-0.051100936 0.001349287 -1.9832931e-22)
(-0.052030694 0.00062939817 3.6674063e-21)
(-0.051957941 -9.4924204e-05 -6.3296374e-22)
(-0.050912025 -0.00081697671 2.2819124e-20)
(-0.048925845 -0.0015319033 3.040115e-22)
(-0.046035317 -0.0022352456 -4.0883598e-20)
(-0.042281665 -0.0029223534 7.5387084e-21)
(-0.037703184 -0.0035911384 2.3864555e-20)
(-0.032308291 -0.0042401018 -4.385322e-20)
(-0.026156398 -0.0048212438 -2.7739754e-20)
(-0.0016522147 0.0041809046 -5.3716693e-21)
(-0.0053975273 0.0092682174 1.0865507e-20)
(-0.0112186 0.01200754 -1.0191661e-20)
(-0.017658162 0.013153863 3.9230621e-21)
(-0.023856607 0.013195505 4.8122348e-21)
(-0.029433521 0.012462801 7.1325302e-22)
(-0.03415254 0.011197071 -2.2509815e-20)
(-0.0378606 0.0095739316 -2.037054e-21)
(-0.040474509 0.0077189965 2.0163832e-20)
(-0.041959105 0.0057212121 -5.0474339e-21)
(-0.04230909 0.0036428168 -2.1762921e-20)
(-0.041537418 0.0015266339 4.8973925e-21)
(-0.039667717 -0.0005984172 2.2635764e-20)
(-0.036728992 -0.0027129075 1.0308559e-20)
(-0.032751831 -0.0048028726 2.1854666e-20)
(-0.027768836 -0.006855731 -1.9771071e-20)
(-0.021824309 -0.0088584837 -2.1673324e-20)
(-0.014965612 -0.010804533 2.1185027e-20)
(-0.0071281635 -0.012679355 2.6810864e-20)
(0.0018753736 -0.014317623 1.5855042e-20)
(-0.0023034485 0.0065602906 -4.35692e-21)
(-0.0065392748 0.014480315 -5.6387814e-21)
(-0.011892216 0.018710687 3.0723536e-22)
(-0.017211211 0.020428327 1.0959686e-21)
(-0.02181927 0.020400456 6.6919284e-21)
(-0.02543117 0.019151773 1.0665307e-20)
(-0.027877345 0.017066362 -3.7228149e-21)
(-0.029053349 0.014423819 -1.8896424e-20)
(-0.028909066 0.011424346 6.5414087e-21)
(-0.027431008 0.0082098529 1.2862751e-20)
(-0.024627581 0.0048796748 5.8341841e-21)
(-0.020519864 0.0015020854 1.8159361e-20)
(-0.015135608 -0.0018770715 1.7296179e-21)
(-0.0085048647 -0.0052275142 -3.3865042e-20)
(-0.00065617882 -0.0085279381 1.2020559e-21)
(0.0083819356 -0.011759503 -2.2139533e-20)
(0.018558016 -0.014904559 -2.4466747e-20)
(0.029803585 -0.017954288 4.5820542e-20)
(0.042306653 -0.020855729 2.5349838e-20)
(0.05674059 -0.023248454 1.2243271e-22)
(-0.0031290519 0.0083690401 -5.2833714e-21)
(-0.0078964532 0.018336655 -8.4816947e-21)
(-0.012439058 0.023587979 4.3593481e-21)
(-0.016026608 0.025609827 4.1463976e-21)
(-0.01823508 0.025382892 2.0105926e-21)
(-0.018912669 0.023589432 7.3210933e-21)
(-0.017984675 0.020730337 9.3125973e-21)
(-0.015416585 0.017170388 -1.3511523e-21)
(-0.011206816 0.013171265 -1.1482094e-20)
(-0.0053748709 0.0089188178 -2.9072267e-20)
(0.0020486304 0.0045432548 6.1900464e-23)
(0.01102721 0.00013405582 4.0698383e-20)
(0.021523136 -0.0042492829 -1.8383412e-20)
(0.033499 -0.0085679979 -1.2296266e-20)
(0.046921929 -0.012796045 5.5347293e-22)
(0.061761809 -0.016912444 3.2303153e-20)
(0.077955055 -0.020902355 -1.4829827e-20)
(0.095394663 -0.024764163 -5.3340038e-20)
(0.11440124 -0.028380611 4.5765747e-20)
(0.13634862 -0.031074092 3.3013718e-20)
(-0.0039704375 0.009465806 -6.878859e-22)
(-0.0090917107 0.020487937 -1.253487e-20)
(-0.01236452 0.026159256 -3.414495e-20)
(-0.013552557 0.028143499 -5.7242475e-21)
(-0.012533198 0.027555136 -3.6223005e-21)
(-0.0093165953 0.025188145 6.3051804e-21)
(-0.0039454 0.021627432 -4.646253e-21)
(0.0035265176 0.01729891 -8.8071283e-21)
(0.013037384 0.012508626 2.1899968e-20)
(0.02452201 0.007474235 5.0567584e-21)
(0.037916542 0.0023486088 -2.5290637e-20)
(0.053158716 -0.0027631718 1.1078409e-20)
(0.070188438 -0.0077913596 0)
(0.088948484 -0.012691891 1.2089738e-20)
(0.10938771 -0.017437614 -9.7017515e-21)
(0.13146008 -0.022010705 -1.4337337e-20)
(0.15507717 -0.026409574 -1.5738527e-21)
(0.18007116 -0.030660476 -2.2182142e-21)
(0.20685746 -0.034577723 4.6147686e-20)
(0.23766819 -0.037021187 -1.047038e-20)
(-0.0046451263 0.0097809311 -7.5357355e-21)
(-0.009677293 0.020748009 2.4516667e-20)
(-0.011064391 0.026161119 -1.0499474e-20)
(-0.0090967717 0.027724567 -2.7469579e-20)
(-0.0039795516 0.026601772 -2.7548424e-20)
(0.0040964964 0.023648425 -1.4921731e-20)
(0.014954643 0.019496399 -6.9060418e-22)
(0.028436944 0.014604563 5.550035e-21)
(0.044404106 0.0093032124 1.9616083e-20)
(0.062731741 0.0038280828 7.3531669e-21)
(0.083305881 -0.0016551922 -7.1862976e-21)
(0.1060209 -0.0070327856 -2.0102371e-21)
(0.13077588 -0.01222976 -3.8192174e-20)
(0.15747218 -0.017200535 -1.2693802e-20)
(0.18601519 -0.021920643 1.8750882e-20)
(0.21631546 -0.026380758 -2.1021978e-20)
(0.24823643 -0.030603401 -8.9731818e-21)
(0.28152341 -0.034671931 3.0440833e-20)
(0.31661234 -0.038366297 5.0472721e-20)
(0.35665606 -0.039965728 3.3560192e-21)
(-0.0049617927 0.0093140551 1.6783443e-20)
(-0.0091662883 0.019097804 1.446806e-20)
(-0.0078593173 0.023563456 5.1145984e-20)
(-0.0018583739 0.024328998 2.3388227e-20)
(0.0082960528 0.02252378 1.8251971e-22)
(0.022222478 0.019014306 -3.9388861e-20)
(0.03959823 0.01444077 -2.431411e-20)
(0.060148983 0.0092660958 1.0465918e-20)
(0.083640525 0.0038228592 1.4401731e-20)
(0.10986847 -0.00165178 -1.3113829e-20)
(0.13864781 -0.0069916082 -4.4039191e-20)
(0.16980433 -0.012083569 2.9618829e-20)
(0.20316715 -0.016855009 2.0020757e-20)
(0.23856307 -0.021264979 -2.7551474e-20)
(0.27581644 -0.025297525 1.1650285e-20)
(0.3147528 -0.028958434 2.4197908e-20)
(0.35515072 -0.032304467 8.0725085e-21)
(0.39663971 -0.035508246 -1.1764395e-20)
(0.43958342 -0.038394376 -1.419043e-20)
(0.48799209 -0.038636303 5.8729836e-21)
(-0.0047307906 0.0081237116 1.1093946e-20)
(-0.0070585805 0.015671222 -2.3352971e-20)
(-0.0020292363 0.018562051 8.6201056e-21)
(0.0090328217 0.018216191 3.35883e-20)
(0.025256889 0.015651042 5.2124833e-20)
(0.046067143 0.011695408 2.0276704e-20)
(0.070985653 0.0069606574 -5.8639965e-21)
(0.099603448 0.0018825486 -1.2286391e-20)
(0.13157085 -0.0032277157 -6.2058173e-21)
(0.16657803 -0.0081502957 3.424117e-20)
(0.20433709 -0.012734084 -4.5105078e-21)
(0.24456821 -0.016880082 -1.6643486e-20)
(0.2869886 -0.020529717 -1.9693765e-20)
(0.33130445 -0.023657583 -4.7444265e-20)
(0.37720963 -0.026266848 2.3238963e-20)
(0.42439332 -0.028389325 -1.4096154e-20)
(0.47250592 -0.030129237 2.5993746e-20)
(0.52104291 -0.031784962 2.1041094e-20)
(0.57022119 -0.033352615 -8.5571242e-20)
(0.62471689 -0.032060952 -1.080222e-22)
(-0.0037710497 0.006314656 2.1925235e-20)
(-0.0028656891 0.010735084 -2.6165786e-20)
(0.0071423441 0.011564072 -4.5013694e-20)
(0.024450706 0.0099248534 -2.7254033e-20)
(0.047871618 0.0066520821 -2.0440054e-21)
(0.076629821 0.0024902944 1.30502e-20)
(0.11007825 -0.0020158253 -2.833783e-21)
(0.14765403 -0.0064884478 1.8118692e-20)
(0.18886341 -0.010664166 8.8686296e-21)
(0.23325493 -0.014363207 -1.1380273e-20)
(0.28039502 -0.017469863 8.8780232e-21)
(0.32985013 -0.019917851 -2.3903501e-20)
(0.38117349 -0.021679879 8.0505837e-21)
(0.43389611 -0.022761197 1.6756577e-20)
(0.48752519 -0.023195769 -2.639542e-21)
(0.54155353 -0.02304851 1.6619127e-21)
(0.59544234 -0.022471218 -3.195642e-22)
(0.64852517 -0.021872033 1.9590661e-20)
(0.70083012 -0.021447153 4.0434461e-21)
(0.75745953 -0.018501349 -5.7359742e-22)
(-0.0019109881 0.0040273411 2.3692324e-20)
(0.0038695846 0.0046764467 5.7160497e-20)
(0.02031569 0.0031878128 -4.9244648e-20)
(0.045178966 0.00029418555 -9.9455015e-21)
(0.076966202 -0.0034244911 2.025651e-20)
(0.1146977 -0.0073540305 2.1433894e-21)
(0.15754078 -0.011055511 -2.9815404e-20)
(0.20475078 -0.014244807 6.9848567e-21)
(0.25565252 -0.016738713 7.1098654e-21)
(0.30960834 -0.018427861 -2.625432e-20)
(0.36599068 -0.019261125 1.292749e-21)
(0.42416437 -0.019233022 -3.7174483e-20)
(0.48347639 -0.01837349 -3.63414e-20)
(0.54325158 -0.016739702 6.5684229e-20)
(0.60279456 -0.014408873 5.5628176e-21)
(0.66139574 -0.011477623 -1.5189024e-20)
(0.71831513 -0.0081039305 1.9364195e-20)
(0.7727066 -0.0045949181 -9.1889248e-22)
(0.82409616 -0.00097027609 2.0364694e-20)
(0.87622759 0.0043256538 -1.955453e-20)
(-0.018835654 -0.0050998435 5.8353243e-20)
(-0.010223647 -0.0056350819 1.5783973e-20)
(-0.00021990441 -0.0060690495 -3.5140283e-20)
(0.010824835 -0.0063342916 1.6790623e-20)
(0.022644427 -0.0065122408 0)
(0.035180234 -0.0066302953 0)
(0.048372436 -0.0066911897 -2.2975494e-20)
(0.062141315 -0.0067027667 -1.6503264e-20)
(0.076416462 -0.0066744114 1.9123102e-20)
(0.091138369 -0.0066129126 1.8174518e-20)
(0.10625206 -0.0065234621 1.0524451e-21)
(0.12170574 -0.0064106236 -1.0317901e-20)
(0.13745111 -0.0062783556 8.3271567e-21)
(0.15344295 -0.0061300055 1.8234208e-20)
(0.1696385 -0.0059684367 -5.2276277e-21)
(0.18599711 -0.0057961346 -1.0175215e-20)
(0.20248004 -0.0056152705 -4.3197068e-21)
(0.21905025 -0.0054277533 -4.4258339e-21)
(0.23567233 -0.0052352753 7.3668187e-22)
(0.25231241 -0.0050393468 1.2286495e-21)
(0.26893816 -0.004841323 2.5667632e-21)
(0.2855188 -0.0046424236 6.6542021e-21)
(0.30202515 -0.004443748 2.4888956e-22)
(0.31842968 -0.0042462857 -3.4516291e-21)
(0.33470654 -0.0040509243 1.5557927e-22)
(0.35083169 -0.0038584555 -5.7712879e-22)
(0.36678286 -0.0036695793 1.2435093e-21)
(0.38253967 -0.0034849082 1.0522804e-21)
(0.3980836 -0.0033049709 -1.2989488e-21)
(0.41339805 -0.0031302156 -1.2218059e-22)
(0.4284683 -0.0029610145 3.5662069e-23)
(0.44328152 -0.0027976678 -3.5191459e-22)
(0.45782673 -0.0026404087 -4.0575142e-22)
(0.47209476 -0.0024894087 5.5479465e-23)
(0.48607822 -0.0023447836 -1.381159e-22)
(0.49977145 -0.0022065989 -2.2346886e-22)
(0.51317046 -0.0020748772 2.5577397e-22)
(0.52627295 -0.0019496044 2.950956e-22)
(0.53907815 -0.0018307392 -8.3244278e-24)
(0.55158723 -0.0017182164 -1.5530852e-22)
(0.56380221 -0.0016119755 3.0404992e-23)
(0.57572975 -0.0015119164 -4.0159644e-23)
(0.58737008 -0.0014181109 9.2313858e-23)
(0.59875237 -0.0013302225 2.1952232e-23)
(0.60983089 -0.0012495378 -1.1425561e-22)
(0.62079833 -0.0011728426 -6.7870899e-24)
(0.63117572 -0.0011123857 -5.8929214e-26)
(0.64247793 -0.0010351689 -3.6022622e-24)
(0.65056343 -0.0010521759 2.9441927e-23)
(0.66717252 -0.00087711522 3.6087993e-22)
(0.010447192 -0.01501804 -1.2747115e-20)
(0.018181272 -0.016641487 -6.3303597e-20)
(0.027781086 -0.017915932 -3.0542633e-20)
(0.038387348 -0.018672627 3.8476872e-20)
(0.049623553 -0.01918418 1.466295e-20)
(0.061509592 -0.019530058 -1.8205404e-20)
(0.074016217 -0.019710524 4.6723772e-21)
(0.087066537 -0.019747183 2.5447802e-20)
(0.10059752 -0.019668002 9.1935095e-23)
(0.11455894 -0.01949245 -7.6593527e-21)
(0.12890269 -0.019235138 -1.3021266e-20)
(0.14358216 -0.018909117 -8.5248211e-21)
(0.15855348 -0.018525805 1.7772816e-20)
(0.17377511 -0.018094858 8.9299936e-21)
(0.18920733 -0.017624562 -1.6522801e-20)
(0.20481193 -0.017122139 -6.0392319e-21)
(0.2205522 -0.016593929 3.2145677e-21)
(0.23639276 -0.016045527 8.3718303e-21)
(0.25229955 -0.015481913 6.9834804e-21)
(0.26823982 -0.014907548 -6.9730712e-21)
(0.28418217 -0.014326447 -3.1688146e-21)
(0.30009656 -0.013742234 1.3607306e-21)
(0.31595441 -0.013158187 3.8702774e-22)
(0.33172868 -0.012577259 1.211499e-21)
(0.34739392 -0.012002108 1.8373818e-22)
(0.36292634 -0.011435107 -3.2668148e-22)
(0.37830388 -0.010878361 -7.2443879e-22)
(0.39350626 -0.010333712 9.7176382e-22)
(0.40851503 -0.009802755 8.2497768e-22)
(0.42331352 -0.0092868472 -1.5162582e-22)
(0.43788694 -0.0087871171 5.5320202e-22)
(0.4522223 -0.0083044797 -2.3883547e-22)
(0.46630841 -0.0078396503 -3.7083733e-22)
(0.48013585 -0.0073931597 -6.1016621e-22)
(0.49369693 -0.0069653716 4.4179914e-22)
(0.50698564 -0.0065565006 -1.5639586e-23)
(0.51999762 -0.0061666323 1.6141992e-22)
(0.53273015 -0.0057957427 -4.4201916e-22)
(0.54518204 -0.0054437258 3.7226949e-22)
(0.557354 -0.0051104046 6.7212367e-23)
(0.56924758 -0.0047956154 -1.0286019e-22)
(0.58086892 -0.0044990757 1.7641318e-22)
(0.59221783 -0.0042210168 2.3383336e-22)
(0.60332272 -0.0039604488 1.6965639e-22)
(0.61413805 -0.0037212275 1.6816325e-22)
(0.62485363 -0.0034937825 -2.6191533e-23)
(0.63499689 -0.0033146195 8.4529318e-23)
(0.64605972 -0.0030855188 7.6778054e-23)
(0.65396569 -0.0031364601 -1.9536166e-22)
(0.6702557 -0.0026170985 -3.7943426e-23)
(0.06761702 -0.024029882 9.4530369e-21)
(0.073592262 -0.026749853 3.2952127e-21)
(0.08226841 -0.028806442 -1.2162586e-20)
(0.091951072 -0.029969436 -1.2258728e-21)
(0.10198684 -0.03076885 1.4970986e-20)
(0.11255037 -0.031331932 -1.4887474e-20)
(0.12368044 -0.031637164 -2.9843059e-20)
(0.13530176 -0.031714149 1.449395e-20)
(0.14736241 -0.031608828 1.8182501e-20)
(0.15982943 -0.031351295 -1.1598864e-20)
(0.17266719 -0.030963104 1.019083e-21)
(0.18583804 -0.030464082 8.6861289e-21)
(0.19930574 -0.029871923 -1.5254058e-20)
(0.21303519 -0.029201652 2.9098816e-21)
(0.22699182 -0.028466214 7.5197441e-21)
(0.24114162 -0.027676999 3.1383227e-23)
(0.25545124 -0.026844093 2.6542911e-22)
(0.26988808 -0.025976472 -7.4154499e-21)
(0.28442033 -0.025082182 3.8621125e-21)
(0.29901706 -0.024168478 8.4753676e-21)
(0.31364834 -0.023241936 -3.8353931e-21)
(0.32828532 -0.022308521 -2.2131275e-21)
(0.3429004 -0.02137365 1.0124182e-21)
(0.35746726 -0.02044223 -1.7156881e-21)
(0.37196101 -0.01951869 1.3532921e-21)
(0.38635828 -0.018606999 7.184981e-22)
(0.40063726 -0.017710688 1.5272287e-21)
(0.41477779 -0.016832861 -1.9530851e-21)
(0.42876141 -0.015976217 2.2240932e-21)
(0.44257134 -0.015143057 5.5200717e-22)
(0.45619255 -0.014335312 4.0354402e-22)
(0.46961173 -0.013554556 3.2137985e-22)
(0.48281727 -0.012802035 8.736394e-22)
(0.49579923 -0.012078689 -1.371488e-21)
(0.50854934 -0.011385178 3.7086594e-22)
(0.52106094 -0.010721919 1.0963573e-22)
(0.53332895 -0.010089112 -4.5251118e-23)
(0.54534989 -0.0094867741 8.6646122e-23)
(0.55712175 -0.0089147871 -3.7213214e-22)
(0.56864438 -0.0083729125 1.8314952e-22)
(0.57991846 -0.0078609336 -3.5008684e-23)
(0.59094918 -0.0073784341 3.9077494e-22)
(0.60173554 -0.0069258477 -1.8582587e-22)
(0.61230457 -0.0065015855 4.7393345e-23)
(0.62261106 -0.0061120536 4.3742302e-23)
(0.63283938 -0.0057415396 -7.3849328e-23)
(0.64252916 -0.0054500782 -1.2147965e-22)
(0.65312825 -0.0050765745 3.8977378e-22)
(0.66068585 -0.0051610781 1.7333334e-22)
(0.67635742 -0.0043147593 -8.3125198e-22)
(0.15021892 -0.03146149 1.5010752e-21)
(0.15355081 -0.035258541 -1.1566774e-20)
(0.16062046 -0.038012154 6.644265e-21)
(0.16881051 -0.039480408 -1.3325024e-20)
(0.17698723 -0.04052207 -1.975875e-21)
(0.18552887 -0.041303732 9.1602235e-21)
(0.19459005 -0.041758757 -9.766598e-21)
(0.20409324 -0.041915298 1.5662032e-21)
(0.21399452 -0.041834983 1.2904129e-20)
(0.22428337 -0.04155605 3.4033704e-21)
(0.2349405 -0.041103821 -6.2098628e-21)
(0.2459388 -0.040502284 -2.8639765e-21)
(0.25725083 -0.039773642 -5.8409397e-21)
(0.26884907 -0.038937006 -6.4555862e-21)
(0.28070494 -0.038008982 3.2356069e-21)
(0.29278914 -0.037004365 8.460074e-22)
(0.30507211 -0.035936443 1.3680897e-21)
(0.31752426 -0.034817196 -3.3851566e-21)
(0.3301162 -0.03365748 -4.2432179e-21)
(0.3428189 -0.032467185 2.3618363e-21)
(0.35560394 -0.031255346 3.225455e-21)
(0.36844368 -0.030030228 -1.5638741e-21)
(0.3813114 -0.028799379 1.5868848e-21)
(0.39418147 -0.027569679 -3.9135342e-22)
(0.40702948 -0.026347364 -3.9202282e-21)
(0.41983234 -0.025138052 -3.0335531e-21)
(0.43256838 -0.02394676 -1.9037546e-22)
(0.44521741 -0.022777924 4.2851952e-22)
(0.45776079 -0.021635414 -2.2108654e-21)
(0.47018146 -0.020522558 -8.5533292e-22)
(0.48246395 -0.019442162 2.2839783e-22)
(0.49459442 -0.018396545 -1.2502898e-21)
(0.50656059 -0.01738756 6.1676205e-24)
(0.5183518 -0.016416641 -4.2444317e-22)
(0.52995892 -0.015484829 -4.7202416e-22)
(0.54137437 -0.014592824 -5.2042266e-22)
(0.55259209 -0.013741023 -8.4205753e-22)
(0.56360751 -0.012929567 -5.4445866e-23)
(0.57441752 -0.012158406 -3.9175863e-24)
(0.58502081 -0.011427319 -5.2028687e-22)
(0.59541687 -0.010736113 -9.1544431e-23)
(0.6056096 -0.010084315 -3.3292875e-22)
(0.6155969 -0.0094726233 -4.3852137e-22)
(0.6254039 -0.008898939 3.7925541e-22)
(0.63498591 -0.0083721713 1.485533e-23)
(0.64451965 -0.0078708399 1.8296261e-22)
(0.65356223 -0.0074772493 -1.3317206e-22)
(0.66349831 -0.006971424 -2.6801646e-22)
(0.67055796 -0.0070886902 -4.4071678e-23)
(0.68534254 -0.0059434833 4.6281986e-22)
(0.25469069 -0.036554153 -2.0900756e-20)
(0.25447552 -0.041394999 4.7586787e-20)
(0.25907897 -0.044747246 1.0348263e-20)
(0.26509015 -0.046443719 -1.5765644e-20)
(0.27071574 -0.047716074 -2.0229054e-21)
(0.27652677 -0.048749619 2.6232098e-21)
(0.28284276 -0.049415644 -1.6609354e-21)
(0.28958464 -0.049730105 -4.6862527e-21)
(0.29670481 -0.049763515 -4.0160169e-21)
(0.30421424 -0.049559213 -1.2207956e-20)
(0.31211152 -0.049143923 1.7898373e-20)
(0.32037931 -0.048543111 6.5222712e-21)
(0.32899758 -0.047781345 -1.6781002e-20)
(0.3379453 -0.04688047 1.0317682e-20)
(0.34719908 -0.045859822 8.3850341e-21)
(0.35673352 -0.044736904 -8.7904924e-22)
(0.36652205 -0.043527729 -3.1221713e-21)
(0.37653738 -0.04224698 -3.8200807e-21)
(0.38675184 -0.040908164 -1.3894184e-21)
(0.39713773 -0.039523731 -1.2305719e-21)
(0.40766758 -0.038105177 -3.0261056e-21)
(0.41831443 -0.036663104 0)
(0.42905199 -0.035207274 -1.345372e-21)
(0.43985489 -0.03374663 3.9312397e-21)
(0.4506988 -0.03228933 5.4058812e-21)
(0.46156054 -0.030842758 -9.4117151e-22)
(0.47241824 -0.02941354 -2.9280536e-21)
(0.48325137 -0.028007564 3.0265931e-21)
(0.49404083 -0.02663 2.5427306e-22)
(0.50476897 -0.02528532 3.4361072e-21)
(0.51541965 -0.023977333 -5.3464651e-22)
(0.52597822 -0.022709214 1.7177676e-21)
(0.53643154 -0.021483548 -7.9996381e-22)
(0.54676795 -0.020302372 2.9119656e-22)
(0.55697727 -0.019167223 -4.3433079e-22)
(0.56705078 -0.018079195 5.6254402e-22)
(0.5769812 -0.017038988 4.5742343e-22)
(0.58676272 -0.016046975 3.8286568e-22)
(0.5963909 -0.015103276 -9.6020544e-22)
(0.60586307 -0.014207789 6.8424809e-22)
(0.61517731 -0.013360439 -3.6998369e-22)
(0.62433604 -0.01256079 -1.1049601e-21)
(0.6333359 -0.011809882 1.4102385e-21)
(0.64219975 -0.011105221 -6.2101671e-23)
(0.6508837 -0.010458142 -1.5855061e-22)
(0.65955486 -0.0098419004 -7.8492828e-24)
(0.66779264 -0.0093593538 -1.268815e-22)
(0.67690183 -0.0087370371 -4.6756107e-22)
(0.68334128 -0.0088858518 8.7842234e-22)
(0.69701405 -0.0074786916 -4.4379507e-23)
(0.37635765 -0.038369892 -1.7495477e-20)
(0.37171641 -0.044272054 1.2832235e-20)
(0.37287387 -0.048163542 2.9756119e-21)
(0.3759178 -0.050100876 -7.6355279e-21)
(0.37831301 -0.051672091 1.2056234e-20)
(0.38073108 -0.053044587 7.7915843e-21)
(0.38368459 -0.054032348 -1.2647903e-20)
(0.38710962 -0.054635503 -6.0681195e-21)
(0.39093877 -0.054920494 1.2697649e-20)
(0.39519249 -0.054929712 -1.5305536e-20)
(0.39988486 -0.05469018 -1.4063554e-20)
(0.40500627 -0.054227404 1.4130242e-20)
(0.41054045 -0.053566495 6.8195838e-21)
(0.41646968 -0.052730868 -4.2042072e-21)
(0.42277335 -0.051742019 -1.8544128e-21)
(0.429428 -0.050619836 -4.0580903e-21)
(0.43640825 -0.049382872 5.3046987e-21)
(0.44368758 -0.048048482 3.6683326e-21)
(0.45123878 -0.04663289 -3.2408838e-21)
(0.4590343 -0.045151247 3.1380609e-21)
(0.46704662 -0.043617683 2.7669109e-21)
(0.47524857 -0.042045348 -3.2113722e-21)
(0.48361353 -0.040446425 3.70583e-22)
(0.49211567 -0.038832148 -3.2573088e-21)
(0.50073011 -0.037212811 7.2466219e-21)
(0.50943306 -0.035597775 6.1088803e-21)
(0.51820193 -0.033995482 8.1001543e-22)
(0.52701541 -0.032413467 -1.7685672e-21)
(0.53585355 -0.030858382 3.7031925e-21)
(0.54469777 -0.029336024 7.1904339e-21)
(0.55353094 -0.027851368 2.3053888e-21)
(0.56233735 -0.026408608 3.3175608e-21)
(0.57110273 -0.025011208 1.9962207e-21)
(0.57981424 -0.023661957 7.4591038e-22)
(0.58846047 -0.022363025 -2.6379173e-22)
(0.5970314 -0.021116028 2.7217836e-21)
(0.6055184 -0.019922103 6.2028665e-22)
(0.61391428 -0.01878197 2.950551e-22)
(0.62221319 -0.017696039 5.6265085e-23)
(0.63041098 -0.016664437 9.9071506e-22)
(0.63850428 -0.015687316 4.705109e-23)
(0.64649393 -0.014764379 4.4313697e-22)
(0.65437525 -0.01389709 -1.263808e-22)
(0.66216864 -0.013082682 -2.7793091e-22)
(0.6698313 -0.012334818 -1.5253835e-22)
(0.67751932 -0.011622078 -4.23253e-22)
(0.68483833 -0.011065805 1.6215527e-22)
(0.69299975 -0.010345482 -1.2765516e-22)
(0.69873019 -0.010524271 -5.0098786e-22)
(0.71111951 -0.0088984871 2.4622939e-22)
(0.50928171 -0.035976302 3.6471146e-21)
(0.49953808 -0.042962787 -1.8958539e-20)
(0.49628356 -0.047385691 -2.3084446e-21)
(0.49556428 -0.049739098 5.4870406e-21)
(0.49417827 -0.051820466 3.0529215e-21)
(0.49270486 -0.053707937 -4.9783664e-23)
(0.49182184 -0.055190279 6.1899263e-21)
(0.4915245 -0.05626813 7.625311e-21)
(0.49172213 -0.056993365 9.8582379e-21)
(0.49242169 -0.057398505 -1.1250361e-20)
(0.49364255 -0.057509331 -2.1580132e-20)
(0.49537985 -0.057351543 -3.9355817e-21)
(0.49761735 -0.056950353 1.5938718e-20)
(0.50033634 -0.056330327 1.2809423e-20)
(0.50351567 -0.055515146 -5.906768e-21)
(0.50713126 -0.054527354 1.381548e-21)
(0.51115692 -0.053388388 -3.6604098e-21)
(0.5155651 -0.052118641 2.2448367e-21)
(0.52032752 -0.050737449 -2.912408e-22)
(0.52541552 -0.04926307 -1.865533e-21)
(0.53080044 -0.047712674 7.8272959e-21)
(0.53645391 -0.046102336 -2.9322452e-22)
(0.54234812 -0.044447034 4.183256e-22)
(0.54845605 -0.042760634 -6.5636339e-22)
(0.55475158 -0.041055889 -4.3033762e-21)
(0.5612097 -0.039344437 4.2089837e-21)
(0.56780658 -0.037636813 1.9032268e-21)
(0.57451965 -0.035942457 -3.3086324e-21)
(0.5813277 -0.034269743 -4.112055e-21)