/*--------------------------------*- C++ -*----------------------------------*\
| =========                 |                                                 |
| \\      /  F ield         | OpenFOAM: The Open Source CFD Toolbox           |
|  \\    /   O peration     | Version:  4.1                                   |
|   \\  /    A nd           | Web:      www.OpenFOAM.org                      |
|    \\/     M anipulation  |                                                 |
\*---------------------------------------------------------------------------*/
FoamFile
{
    version     2.0;
    format      ascii;
    class       volScalarField;
    location    "11";
    object      p;
}
// * * * * * * * * * * * * * * * * * * * * * * * * * * * * * * * * * * * * * //

dimensions      [0 2 -2 0 0 0 0];

internalField   nonuniform List<scalar> 
1000
(
1.5224216
1.5055819
1.4891872
1.4731026
1.4572109
1.4414416
1.425758
1.4101406
1.3945771
1.3790575
1.3635735
1.3481188
1.3326888
1.3172806
1.3018915
1.2865196
1.2711632
1.2558206
1.2404907
1.2251721
1.2098639
1.1945651
1.1792749
1.1639925
1.1487173
1.1334485
1.1181857
1.1029283
1.0876758
1.0724278
1.0571838
1.0419436
1.0267068
1.0114731
0.99624221
0.98101383
0.96578776
0.95056378
0.9353417
0.92012132
0.90490248
0.88968503
0.87446884
0.85925377
0.84403971
0.82882655
0.8136142
0.79840256
0.78319157
0.76798113
0.75277119
0.73756168
0.72235254
0.70714374
0.69193521
0.67672692
0.66151883
0.64631091
0.63110313
0.61589547
0.60068789
0.58548039
0.57027295
0.55506556
0.53985819
0.52465086
0.50944354
0.49423624
0.47902895
0.46382167
0.44861439
0.43340712
0.41819985
0.40299258
0.38778531
0.37257804
0.35737078
0.34216351
0.32695624
0.31174897
0.29654171
0.28133444
0.26612717
0.25091991
0.23571264
0.22050537
0.20529811
0.19009084
0.17488357
0.1596763
0.14446904
0.12926177
0.1140545
0.098847236
0.083639969
0.068432702
0.053225435
0.038018168
0.0228109
0.0076036333
1.5220979
1.5052396
1.4890961
1.4731993
1.457355
1.4415623
1.4258489
1.4102145
1.394642
1.3791149
1.363623
1.3481609
1.3327249
1.3173119
1.3019191
1.2865441
1.271185
1.2558401
1.2405081
1.2251877
1.209878
1.1945778
1.1792864
1.1640029
1.1487266
1.1334569
1.1181933
1.1029351
1.0876819
1.0724333
1.0571888
1.0419481
1.0267109
1.0114767
0.99624542
0.9810167
0.96579032
0.95056605
0.9353437
0.92012309
0.90490404
0.88968641
0.87447004
0.85925481
0.84404061
0.82882733
0.81361487
0.79840313
0.78319204
0.76798153
0.75277152
0.73756195
0.72235277
0.70714391
0.69193535
0.67672703
0.66151892
0.64631098
0.63110318
0.6158955
0.60068792
0.58548041
0.57027296
0.55506556
0.5398582
0.52465086
0.50944355
0.49423625
0.47902896
0.46382167
0.4486144
0.43340712
0.41819985
0.40299258
0.38778531
0.37257804
0.35737078
0.34216351
0.32695624
0.31174897
0.29654171
0.28133444
0.26612717
0.25091991
0.23571264
0.22050537
0.20529811
0.19009084
0.17488357
0.1596763
0.14446904
0.12926177
0.1140545
0.098847236
0.083639969
0.068432702
0.053225435
0.038018167
0.0228109
0.0076036332
1.52152
1.5045451
1.4887488
1.4731832
1.4574703
1.4416718
1.4259209
1.4102658
1.3946888
1.3791606
1.3636648
1.3481966
1.3327548
1.3173373
1.3019413
1.2865637
1.2712023
1.2558554
1.2405217
1.2251999
1.2098889
1.1945876
1.1792951
1.1640107
1.1487337
1.1334633
1.1181991
1.1029403
1.0876866
1.0724375
1.0571926
1.0419516
1.0267139
1.0114795
0.99624791
0.98101893
0.96579231
0.95056783
0.93534529
0.9201245
0.9049053
0.88968751
0.87447102
0.85925567
0.84404137
0.82882799
0.81361544
0.79840362
0.78319247
0.76798189
0.75277183
0.73756221
0.72235298
0.70714409
0.6919355
0.67672715
0.66151902
0.64631106
0.63110324
0.61589555
0.60068796
0.58548044
0.57027299
0.55506558
0.53985821
0.52465087
0.50944355
0.49423625
0.47902896
0.46382167
0.4486144
0.43340712
0.41819985
0.40299258
0.38778531
0.37257804
0.35737078
0.34216351
0.32695624
0.31174897
0.29654171
0.28133444
0.26612717
0.25091991
0.23571264
0.22050537
0.20529811
0.19009084
0.17488357
0.1596763
0.14446904
0.12926177
0.1140545
0.098847236
0.083639969
0.068432702
0.053225434
0.038018167
0.0228109
0.0076036329
1.5209544
1.5038075
1.4883139
1.4730989
1.457557
1.441775
1.4259905
1.4103137
1.3947335
1.379207
1.3637093
1.3482356
1.3327876
1.3173652
1.3019655
1.286585
1.2712212
1.2558722
1.2405366
1.2252131
1.2099007
1.1945982
1.1793047
1.1640194
1.1487415
1.1334704
1.1182054
1.1029461
1.0876919
1.0724423
1.0571969
1.0419555
1.0267175
1.0114827
0.99625079
0.98102153
0.96579466
0.95056995
0.9353472
0.92012622
0.90490683
0.88968889
0.87447225
0.85925677
0.84404235
0.82882886
0.81361621
0.7984043
0.78319307
0.76798241
0.75277228
0.7375626
0.72235332
0.70714439
0.69193575
0.67672736
0.66151919
0.6463112
0.63110336
0.61589565
0.60068803
0.5854805
0.57027303
0.55506562
0.53985824
0.52465089
0.50944357
0.49423626
0.47902897
0.46382168
0.4486144
0.43340712
0.41819985
0.40299258
0.38778531
0.37257804
0.35737078
0.34216351
0.32695624
0.31174897
0.29654171
0.28133444
0.26612717
0.25091991
0.23571264
0.22050537
0.20529811
0.19009084
0.17488357
0.1596763
0.14446904
0.12926177
0.1140545
0.098847236
0.083639969
0.068432702
0.053225434
0.038018167
0.0228109
0.0076036327
1.5206189
1.5033516
1.4880259
1.4730284
1.4576041
1.44184
1.4260359
1.4103448
1.3947627
1.3792383
1.3637402
1.3482632
1.3328113
1.3173855
1.3019833
1.2866009
1.2712354
1.2558848
1.2405478
1.2252232
1.2099098
1.1946064
1.1793121
1.1640261
1.1487476
1.1334759
1.1182104
1.1029506
1.087696
1.072446
1.0572003
1.0419585
1.0267203
1.0114852
0.99625309
0.98102362
0.96579655
0.95057166
0.93534874
0.92012761
0.90490809
0.88969002
0.87447326
0.85925768
0.84404316
0.82882959
0.81361686
0.79840488
0.78319358
0.76798286
0.75277268
0.73756295
0.72235362
0.70714464
0.69193597
0.67672755
0.66151935
0.64631133
0.63110347
0.61589573
0.6006881
0.58548056
0.57027308
0.55506565
0.53985827
0.52465091
0.50944358
0.49423627
0.47902897
0.46382169
0.4486144
0.43340713
0.41819985
0.40299258
0.38778531
0.37257804
0.35737078
0.34216351
0.32695624
0.31174897
0.29654171
0.28133444
0.26612717
0.25091991
0.23571264
0.22050537
0.20529811
0.19009084
0.17488357
0.1596763
0.14446904
0.12926177
0.1140545
0.098847236
0.083639969
0.068432702
0.053225434
0.038018167
0.0228109
0.0076036328
1.5206188
1.5033516
1.4880259
1.4730284
1.4576041
1.44184
1.4260359
1.4103448
1.3947627
1.3792383
1.3637402
1.3482632
1.3328113
1.3173855
1.3019833
1.2866009
1.2712354
1.2558848
1.2405478
1.2252232
1.2099098
1.1946064
1.1793121
1.1640261
1.1487476
1.1334759
1.1182104
1.1029506
1.087696
1.072446
1.0572003
1.0419585
1.0267203
1.0114852
0.99625309
0.98102362
0.96579655
0.95057166
0.93534874
0.92012761
0.90490809
0.88969002
0.87447326
0.85925768
0.84404316
0.82882959
0.81361686
0.79840488
0.78319358
0.76798286
0.75277268
0.73756295
0.72235362
0.70714464
0.69193597
0.67672755
0.66151935
0.64631133
0.63110347
0.61589574
0.6006881
0.58548056
0.57027308
0.55506565
0.53985827
0.52465091
0.50944358
0.49423627
0.47902897
0.46382169
0.4486144
0.43340713
0.41819985
0.40299258
0.38778531
0.37257804
0.35737078
0.34216351
0.32695624
0.31174897
0.29654171
0.28133444
0.26612717
0.25091991
0.23571264
0.22050537
0.20529811
0.19009084
0.17488357
0.1596763
0.14446904
0.12926177
0.1140545
0.098847236
0.083639969
0.068432702
0.053225434
0.038018168
0.022810901
0.0076036331
1.5209545
1.5038075
1.4883139
1.4730989
1.457557
1.441775
1.4259905
1.4103137
1.3947335
1.379207
1.3637093
1.3482356
1.3327876
1.3173652
1.3019655
1.2865851
1.2712212
1.2558722
1.2405366
1.2252131
1.2099007
1.1945982
1.1793047
1.1640194
1.1487415
1.1334704
1.1182054
1.1029461
1.0876919
1.0724423
1.0571969
1.0419554
1.0267175
1.0114827
0.99625079
0.98102153
0.96579466
0.95056995
0.9353472
0.92012621
0.90490683
0.88968889
0.87447225
0.85925677
0.84404235
0.82882886
0.81361621
0.7984043
0.78319307
0.76798241
0.75277228
0.7375626
0.72235332
0.70714439
0.69193575
0.67672736
0.66151919
0.6463112
0.63110336
0.61589565
0.60068803
0.5854805
0.57027303
0.55506562
0.53985824
0.52465089
0.50944357
0.49423626
0.47902897
0.46382168
0.4486144
0.43340713
0.41819985
0.40299258
0.38778531
0.37257804
0.35737078
0.34216351
0.32695624
0.31174897
0.29654171
0.28133444
0.26612717
0.25091991
0.23571264
0.22050537
0.20529811
0.19009084
0.17488357
0.1596763
0.14446904
0.12926177
0.1140545
0.098847236
0.083639969
0.068432702
0.053225435
0.038018168
0.022810901
0.0076036335
1.52152
1.5045451
1.4887488
1.4731832
1.4574702
1.4416718
1.4259209
1.4102658
1.3946888
1.3791606
1.3636648
1.3481966
1.3327548
1.3173373
1.3019413
1.2865637
1.2712023
1.2558554
1.2405217
1.2251999
1.2098889
1.1945876
1.1792951
1.1640108
1.1487337
1.1334633
1.118199
1.1029403
1.0876866
1.0724375
1.0571926
1.0419516
1.0267139
1.0114795
0.99624791
0.98101893
0.96579231
0.95056783
0.93534529
0.9201245
0.90490529
0.88968751
0.87447102
0.85925567
0.84404137
0.82882799
0.81361544
0.79840362
0.78319247
0.76798189
0.75277183
0.73756221
0.72235298
0.7071441
0.6919355
0.67672715
0.66151902
0.64631106
0.63110324
0.61589555
0.60068796
0.58548044
0.57027299
0.55506558
0.53985821
0.52465087
0.50944355
0.49423625
0.47902896
0.46382168
0.4486144
0.43340712
0.41819985
0.40299258
0.38778531
0.37257804
0.35737078
0.34216351
0.32695624
0.31174897
0.29654171
0.28133444
0.26612717
0.25091991
0.23571264
0.22050537
0.20529811
0.19009084
0.17488357
0.1596763
0.14446904
0.12926177
0.1140545
0.098847236
0.083639969
0.068432702
0.053225435
0.038018168
0.022810901
0.0076036337
1.5220979
1.5052396
1.4890961
1.4731993
1.457355
1.4415623
1.4258489
1.4102145
1.394642
1.3791149
1.363623
1.3481609
1.3327249
1.3173119
1.3019191
1.2865441
1.271185
1.2558401
1.2405081
1.2251878
1.209878
1.1945778
1.1792864
1.1640029
1.1487266
1.1334569
1.1181933
1.1029351
1.0876819
1.0724333
1.0571888
1.0419481
1.0267109
1.0114767
0.99624542
0.9810167
0.96579031
0.95056605
0.9353437
0.92012309
0.90490404
0.8896864
0.87447004
0.85925481
0.84404061
0.82882733
0.81361487
0.79840313
0.78319204
0.76798153
0.75277152
0.73756195
0.72235277
0.70714392
0.69193535
0.67672703
0.66151892
0.64631098
0.63110318
0.6158955
0.60068792
0.58548041
0.57027297
0.55506557
0.5398582
0.52465086
0.50944355
0.49423625
0.47902896
0.46382167
0.4486144
0.43340712
0.41819985
0.40299258
0.38778531
0.37257804
0.35737078
0.34216351
0.32695624
0.31174897
0.29654171
0.28133444
0.26612717
0.25091991
0.23571264
0.22050537
0.20529811
0.19009084
0.17488357
0.1596763
0.14446904
0.12926177
0.1140545
0.098847236
0.083639969
0.068432702
0.053225435
0.038018168
0.022810901
0.0076036337
1.5224216
1.5055819
1.4891872
1.4731026
1.4572108
1.4414416
1.4257579
1.4101406
1.3945771
1.3790575
1.3635735
1.3481188
1.3326888
1.3172806
1.3018915
1.2865196
1.2711632
1.2558207
1.2404907
1.2251721
1.2098639
1.1945651
1.1792749
1.1639925
1.1487173
1.1334485
1.1181857
1.1029283
1.0876758
1.0724277
1.0571838
1.0419436
1.0267068
1.0114731
0.9962422
0.98101383
0.96578776
0.95056378
0.93534169
0.92012131
0.90490248
0.88968503
0.87446884
0.85925377
0.84403971
0.82882655
0.8136142
0.79840256
0.78319157
0.76798113
0.75277119
0.73756168
0.72235254
0.70714374
0.69193521
0.67672692
0.66151883
0.64631091
0.63110313
0.61589547
0.60068789
0.58548039
0.57027295
0.55506556
0.5398582
0.52465086
0.50944355
0.49423625
0.47902896
0.46382167
0.4486144
0.43340712
0.41819985
0.40299258
0.38778531
0.37257804
0.35737078
0.34216351
0.32695624
0.31174897
0.29654171
0.28133444
0.26612717
0.25091991
0.23571264
0.22050537
0.20529811
0.19009084
0.17488357
0.1596763
0.14446904
0.12926177
0.1140545
0.098847236
0.083639969
0.068432702
0.053225435
0.038018168
0.022810901
0.0076036336
)
;

boundaryField
{
    top
    {
        type            zeroGradient;
    }
    inlet
    {
        type            fixedValue;
        value           uniform 1.53103;
    }
    outlet
    {
        type            fixedValue;
        value           uniform 0;
    }
    bottom
    {
        type            zeroGradient;
    }
    back
    {
        type            empty;
    }
    front
    {
        type            empty;
    }
}


// ************************************************************************* //
