/*--------------------------------*- C++ -*----------------------------------*\
| =========                 |                                                 |
| \\      /  F ield         | OpenFOAM: The Open Source CFD Toolbox           |
|  \\    /   O peration     | Version:  4.1                                   |
|   \\  /    A nd           | Web:      www.OpenFOAM.org                      |
|    \\/     M anipulation  |                                                 |
\*---------------------------------------------------------------------------*/
FoamFile
{
    version     2.0;
    format      ascii;
    class       surfaceScalarField;
    location    "11";
    object      phi;
}
// * * * * * * * * * * * * * * * * * * * * * * * * * * * * * * * * * * * * * //

dimensions      [0 3 -1 0 0 0 0];

internalField   nonuniform List<scalar> 
1890
(
0.0026241895
2.8120101e-06
0.0026151479
9.0422685e-06
0.0026045138
1.0633829e-05
0.0025953607
9.1524474e-06
0.002588356
7.0039083e-06
0.0025829705
5.3849324e-06
0.0025785951
4.3748059e-06
0.0025748927
3.7018971e-06
0.0025717226
3.1697207e-06
0.0025690064
2.7158116e-06
0.0025666682
2.3379229e-06
0.002564633
2.0349459e-06
0.0025628396
1.7932324e-06
0.0025612445
1.5950261e-06
0.0025598176
1.4267582e-06
0.0025585369
1.2806601e-06
0.0025573842
1.1525745e-06
0.0025563445
1.0397016e-06
0.0025554048
9.3966042e-07
0.0025545544
8.5039553e-07
0.0025537841
7.7027711e-07
0.0025530861
6.980611e-07
0.0025524533
6.3278437e-07
0.0025518797
5.7365154e-07
0.0025513597
5.1998912e-07
0.0025508885
4.7121314e-07
0.0025504618
4.2682559e-07
0.0025500754
3.8639251e-07
0.0025497259
3.4953996e-07
0.00254941
3.1593493e-07
0.0025491248
2.8528588e-07
0.0025488675
2.5732912e-07
0.0025486357
2.3183194e-07
0.0025484272
2.0858153e-07
0.0025482398
1.8738876e-07
0.0025480718
1.6807889e-07
0.0025479214
1.5049576e-07
0.0025477869
1.3449396e-07
0.002547667
1.199431e-07
0.0025475604
1.0672117e-07
0.0025474657
9.4718698e-08
0.0025473819
8.3833066e-08
0.002547308
7.397244e-08
0.002547243
6.5050932e-08
0.002547186
5.6992129e-08
0.0025471363
4.9724871e-08
0.0025470932
4.3186242e-08
0.0025470559
3.7317836e-08
0.0025470239
3.2068087e-08
0.0025469965
2.738889e-08
0.0025469733
2.3237313e-08
0.0025469538
1.9572662e-08
0.0025469374
1.6357691e-08
0.0025469239
1.3556233e-08
0.0025469128
1.1134152e-08
0.0025469038
9.0576834e-09
0.0025468965
7.2942848e-09
0.0025468907
5.8117139e-09
0.0025468862
4.5788327e-09
0.0025468826
3.5652964e-09
0.0025468799
2.7422353e-09
0.0025468778
2.0823349e-09
0.0025468763
1.560289e-09
0.0025468751
1.1530189e-09
0.0025468743
8.3981121e-10
0.0025468737
6.0256328e-10
0.0025468733
4.2560103e-10
0.002546873
2.9576097e-10
0.0025468728
2.0203157e-10
0.0025468727
1.3558229e-10
0.0025468726
8.9276331e-11
0.0025468725
5.7664465e-11
0.0025468725
3.6469698e-11
0.0025468725
2.260373e-11
0.0025468724
1.3694463e-11
0.0025468724
8.1526377e-12
0.0025468724
4.7552833e-12
0.0025468724
2.7715228e-12
0.0025468724
1.6072852e-12
0.0025468724
9.8550515e-13
0.0025468724
6.2397157e-13
0.0025468724
4.5239706e-13
0.0025468724
3.3943178e-13
0.0025468724
2.8451929e-13
0.0025468724
2.4389755e-13
0.0025468724
2.0107124e-13
0.0025468724
1.9406195e-13
0.0025468724
1.3316023e-13
0.0025468724
1.7608637e-13
0.0025468724
8.8597071e-14
0.0025468724
2.1170028e-13
0.0025468724
1.2231846e-13
0.0025468724
3.8818156e-13
0.0025468724
4.353419e-13
0.0025468724
1.0868601e-12
0.0025468724
1.8199863e-12
0.0025468724
3.5858288e-12
0.0025468724
6.6648212e-12
0.0025468724
1.1439753e-11
2.0238621e-11
0.0064475392
3.1299723e-06
0.006443739
1.2843357e-05
0.0064370919
1.7280883e-05
0.0064295821
1.6661596e-05
0.0064224337
1.415169e-05
0.0064159127
1.1905349e-05
0.0064099494
1.0337607e-05
0.0064044872
9.1637296e-06
0.0063995284
8.1280827e-06
0.0063950754
7.1685063e-06
0.0063910977
6.3154238e-06
0.0063875426
5.5898662e-06
0.0063843555
4.9801519e-06
0.0063814901
4.4603028e-06
0.0063789087
4.0080516e-06
0.0063765796
3.6096694e-06
0.0063744751
3.2569471e-06
0.0063725711
2.94369e-06
0.0063708464
2.6643259e-06
0.0063692829
2.4139457e-06
0.0063678646
2.1885234e-06
0.0063665778
1.9848804e-06
0.0063654101
1.8004579e-06
0.0063643506
1.633124e-06
0.0063633896
1.481049e-06
0.0063625182
1.342658e-06
0.0063617284
1.2165865e-06
0.0063610132
1.1016522e-06
0.006360366
9.9681655e-07
0.0063597808
9.0116449e-07
0.0063592522
8.138785e-07
0.0063587753
7.3422966e-07
0.0063583456
6.6156007e-07
0.006357959
5.9527825e-07
0.0063576116
5.348458e-07
0.0063572999
4.7977512e-07
0.0063570208
4.2961934e-07
0.0063567714
3.8397174e-07
0.0063565489
3.4245796e-07
0.0063563509
3.0473623e-07
0.0063561752
2.7049135e-07
0.0063560196
2.3943562e-07
0.0063558823
2.1130405e-07
0.0063557616
1.8585542e-07
0.0063556557
1.6286849e-07
0.0063555633
1.421429e-07
0.0063554831
1.2349583e-07
0.0063554136
1.0676225e-07
0.0063553539
9.1791733e-08
0.0063553029
7.8448012e-08
0.0063552596
6.6605819e-08
0.006355223
5.6149822e-08
0.0063551924
4.6971837e-08
0.0063551671
3.8969654e-08
0.0063551462
3.2045032e-08
0.0063551291
2.6102892e-08
0.0063551154
2.1050459e-08
0.0063551044
1.6797129e-08
0.0063550958
1.3254695e-08
0.006355089
1.0337788e-08
0.0063550838
7.964826e-09
0.0063550799
6.0586825e-09
0.0063550769
4.5477885e-09
0.0063550747
3.3666043e-09
0.0063550731
2.4564415e-09
0.0063550719
1.7654669e-09
0.0063550711
1.2490285e-09
0.0063550705
8.6915577e-10
0.0063550701
5.9443189e-10
0.0063550699
3.9914671e-10
0.0063550697
2.6289124e-10
0.0063550696
1.6959917e-10
0.0063550695
1.0705975e-10
0.0063550695
6.6007089e-11
0.0063550695
3.9723688e-11
0.0063550695
2.3291149e-11
0.0063550695
1.3347536e-11
0.0063550694
7.4818494e-12
0.0063550694
4.1836114e-12
0.0063550694
2.3580589e-12
0.0063550694
1.4451408e-12
0.0063550694
9.4856154e-13
0.0063550694
7.5519119e-13
0.0063550694
5.902883e-13
0.0063550694
5.805649e-13
0.0063550694
4.4941261e-13
0.0063550694
5.0359671e-13
0.0063550694
3.2331687e-13
0.0063550694
4.7256879e-13
0.0063550694
2.4310886e-13
0.0063550694
5.4406223e-13
0.0063550694
3.4016502e-13
0.0063550694
8.7953944e-13
0.0063550694
1.047769e-12
0.0063550694
2.1486802e-12
0.0063550694
3.6297825e-12
0.0063550694
6.1687931e-12
0.0063550694
1.145799e-11
0.0063550694
1.6455689e-11
2.7067146e-11
0.0090635135
2.2567554e-06
0.0090656289
1.0728595e-05
0.0090672509
1.5658625e-05
0.009067818
1.6093709e-05
0.0090676329
1.4336175e-05
0.0090669685
1.2569207e-05
0.0090659701
1.1335625e-05
0.0090647323
1.0401227e-05
0.0090633513
9.5087038e-06
0.0090619118
8.6077442e-06
0.0090604721
7.7549647e-06
0.0090590664
6.995343e-06
0.0090577146
6.3318026e-06
0.0090564289
5.7458445e-06
0.0090552169
5.2199602e-06
0.0090540822
4.7443354e-06
0.0090530252
4.3138476e-06
0.0090520445
3.9243482e-06
0.0090511374
3.5714566e-06
0.0090503004
3.2509085e-06
0.0090495298
2.959039e-06
0.0090488219
2.6928481e-06
0.0090481725
2.449837e-06
0.0090475778
2.2278289e-06
0.009047034
2.0248908e-06
0.0090465373
1.8392949e-06
0.0090460844
1.6695078e-06
0.0090456719
1.5141595e-06
0.0090452968
1.372025e-06
0.009044956
1.2419953e-06
0.0090446468
1.1230684e-06
0.0090443667
1.0143301e-06
0.0090441134
9.1495009e-07
0.0090438845
8.2416675e-07
0.0090436781
7.4128535e-07
0.0090434922
6.6566576e-07
0.0090433251
5.9672208e-07
0.0090431752
5.3391277e-07
0.009043041
4.767412e-07
0.009042921
4.2474757e-07
0.009042814
3.7751015e-07
0.0090427188
3.3463876e-07
0.0090426344
2.9577615e-07
0.0090425597
2.6059274e-07
0.0090424938
2.2878819e-07
0.0090424359
2.0008673e-07
0.0090423852
1.7423833e-07
0.0090423409
1.5101442e-07
0.0090423025
1.3020833e-07
0.0090422694
1.1163091e-07
0.0090422409
9.5110102e-08
0.0090422166
8.0486691e-08
0.009042196
6.7613312e-08
0.0090421786
5.6350706e-08
0.0090421641
4.6566698e-08
0.0090421521
3.81336e-08
0.0090421422
3.0927812e-08
0.0090421342
2.4828651e-08
0.0090421278
1.9718739e-08
0.0090421227
1.5484191e-08
0.0090421186
1.2015627e-08
0.0090421155
9.2091385e-09
0.0090421131
6.967379e-09
0.0090421112
5.2006657e-09
0.0090421099
3.8276663e-09
0.0090421089
2.7761057e-09
0.0090421082
1.9827689e-09
0.0090421076
1.3936091e-09
0.0090421073
9.6311197e-10
0.009042107
6.5389326e-10
0.0090421068
4.3565664e-10
0.0090421067
2.8452322e-10
0.0090421067
1.8187316e-10
0.0090421066
1.1363892e-10
0.0090421066
6.927415e-11
0.0090421066
4.1161918e-11
0.0090421066
2.3805979e-11
0.0090421066
1.3437032e-11
0.0090421066
7.43673e-12
0.0090421065
4.1154405e-12
0.0090421065
2.3542968e-12
0.0090421065
1.4621797e-12
0.0090421065
1.0516019e-12
0.0090421065
8.2547554e-13
0.0090421065
7.7006899e-13
0.0090421065
6.3476681e-13
0.0090421065
6.8289071e-13
0.0090421065
4.8799683e-13
0.0090421065
6.4117155e-13
0.0090421065
3.8447854e-13
0.0090421065
6.7881152e-13
0.0090421065
5.1061573e-13
0.0090421065
9.6793296e-13
0.0090421065
1.3352975e-12
0.0090421065
2.1350349e-12
0.0090421065
3.7804e-12
0.0090421065
5.2461472e-12
0.0090421065
9.7966224e-12
0.0090421066
1.1445709e-11
1.904752e-11
0.010680656
1.135496e-06
0.010685539
5.8460599e-06
0.010692283
8.913911e-06
0.010698901
9.4755678e-06
0.010704608
8.628215e-06
0.010709481
7.6958756e-06
0.010713751
7.0646139e-06
0.010717548
6.604377e-06
0.01072091
6.1457788e-06
0.010723865
5.6525224e-06
0.010726455
5.1650768e-06
0.010728732
4.7187607e-06
0.010730743
4.3203099e-06
0.010732528
3.960784e-06
0.010734117
3.631038e-06
0.010735534
3.3267247e-06
0.010736802
3.04631e-06
0.010737937
2.7885639e-06
0.010738957
2.5517425e-06
0.010739874
2.3339301e-06
0.0107407
2.1333991e-06
0.010741444
1.9487305e-06
0.010742115
1.7786991e-06
0.010742721
1.6222082e-06
0.010743267
1.4782249e-06
0.010743761
1.3458032e-06
0.010744206
1.2240604e-06
0.010744608
1.1121972e-06
0.010744971
1.0094646e-06
0.010745298
9.1518037e-07
0.010745592
8.2870064e-07
0.010745857
7.4943836e-07
0.010746095
6.7683894e-07
0.010746309
6.1039706e-07
0.0107465
5.4963462e-07
0.010746672
4.9411641e-07
0.010746825
4.4343019e-07
0.010746962
3.9720107e-07
0.010747084
3.5507375e-07
0.010747192
3.1672574e-07
0.010747288
2.8185166e-07
0.010747372
2.5017511e-07
0.010747446
2.2143489e-07
0.010747512
1.9539572e-07
0.010747569
1.7183617e-07
0.010747618
1.505579e-07
0.010747661
1.3137519e-07
0.010747698
1.1412262e-07
0.01074773
9.8645804e-08
0.010747756
8.4807298e-08
0.010747779
7.2478389e-08
0.010747798
6.1543498e-08
0.010747814
5.1893039e-08
0.010747827
4.3426505e-08
0.010747837
3.604676e-08
0.010747846
2.9662405e-08
0.010747853
2.418374e-08
0.010747858
1.9524754e-08
0.010747862
1.5600836e-08
0.010747865
1.2330647e-08
0.010747868
9.6352626e-09
0.010747869
7.4397959e-09
0.010747871
5.6734468e-09
0.010747872
4.2706676e-09
0.010747872
3.1715546e-09
0.010747873
2.3223459e-09
0.010747873
1.6757449e-09
0.010747873
1.1907262e-09
0.010747873
8.3263362e-10
0.010747873
5.7244187e-10
0.010747873
3.866539e-10
0.010747874
2.5624317e-10
0.010747874
1.6649233e-10
0.010747874
1.0585383e-10
0.010747874
6.5842697e-11
0.010747874
3.9955086e-11
0.010747874
2.3718473e-11
0.010747874
1.3723787e-11
0.010747874
7.8653324e-12
0.010747874
4.4480444e-12
0.010747874
2.6447081e-12
0.010747874
1.6150017e-12
0.010747874
1.1878163e-12
0.010747874
8.7304926e-13
0.010747874
8.3123695e-13
0.010747874
6.4535106e-13
0.010747874
7.1362062e-13
0.010747874
4.9650044e-13
0.010747874
6.346205e-13
0.010747874
3.8360078e-13
0.010747874
5.7336702e-13
0.010747874
4.6183449e-13
0.010747874
6.4673197e-13
0.010747874
9.5520072e-13
0.010747874
1.2220511e-12
0.010747874
2.0510977e-12
0.010747874
2.1972418e-12
0.010747874
3.763971e-12
0.010747874
1.1558503e-12
3.7816162e-12
0.011450071
2.6926935e-11
0.011455918
8.0432475e-11
0.011464831
2.913447e-11
0.011474306
8.4473267e-12
0.011482933
5.8944347e-11
0.011490628
1.4916244e-10
0.011497692
2.0597863e-10
0.011504296
2.1621386e-10
0.011510441
2.0826204e-10
0.011516093
1.9809122e-10
0.011521258
1.8630665e-10
0.011525976
1.6454724e-10
0.011530297
1.3665849e-10
0.011534257
1.0241469e-10
0.011537888
6.8468397e-11
0.011541215
3.2520979e-11
0.011544261
-2.2579471e-12
0.011547049
-3.8384914e-11
0.011549601
-6.9848237e-11
0.011551935
-9.9875442e-11
0.011554069
-1.2348682e-10
0.011556018
-1.4448052e-10
0.011557796
-1.584725e-10
0.011559419
-1.6938469e-10
0.011560897
-1.7336917e-10
0.011562243
-1.7477798e-10
0.011563467
-1.7017592e-10
0.01156458
-1.63652e-10
0.011565589
-1.5226068e-10
0.011566505
-1.401095e-10
0.011567334
-1.2451575e-10
0.011568083
-1.0907066e-10
0.01156876
-9.1405512e-11
0.011569371
-7.4923814e-11
0.01156992
-5.742481e-11
0.011570415
-4.174643e-11
0.011570858
-2.5928576e-11
0.011571255
-1.2481549e-11
0.01157161
6.3347999e-13
0.011571927
1.129207e-11
0.011572209
2.1250174e-11
0.011572459
2.8804401e-11
0.011572681
3.5775639e-11
0.011572876
4.0809105e-11
0.011573048
4.5591057e-11
0.011573198
4.8921054e-11
0.01157333
5.2282346e-11
0.011573444
5.4733252e-11
0.011573542
5.7457877e-11
0.011573627
5.9561594e-11
0.0115737
6.1918289e-11
0.011573761
6.3777898e-11
0.011573813
6.5715731e-11
0.011573856
6.7046118e-11
0.011573892
6.8120991e-11
0.011573922
6.8429824e-11
0.011573946
6.8186825e-11
0.011573966
6.7046e-11
0.011573981
6.516361e-11
0.011573993
6.2399278e-11
0.011574003
5.8904257e-11
0.01157401
5.471168e-11
0.011574016
4.9980159e-11
0.01157402
4.4866075e-11
0.011574023
3.9521042e-11
0.011574026
3.4169509e-11
0.011574027
2.8923931e-11
0.011574028
2.3998962e-11
0.011574029
1.9438157e-11
0.01157403
1.5421601e-11
0.01157403
1.1911831e-11
0.01157403
9.0163485e-12
0.011574031
6.6235605e-12
0.011574031
4.7998028e-12
0.011574031
3.3862386e-12
0.011574031
2.4093165e-12
0.011574031
1.6908889e-12
0.011574031
1.2667748e-12
0.011574031
9.7060788e-13
0.011574031
8.3666627e-13
0.011574031
7.243214e-13
0.011574031
6.9791313e-13
0.011574031
6.4635309e-13
0.011574031
6.398853e-13
0.011574031
5.7446837e-13
0.011574031
5.5049358e-13
0.011574031
4.8166251e-13
0.011574031
4.4215045e-13
0.011574031
3.5815957e-13
0.011574031
3.2166003e-13
0.011574031
1.9765245e-13
0.011574031
2.4205669e-13
0.011574031
3.0265774e-16
0.011574031
8.2259681e-14
0.011574031
-2.6069255e-13
0.011574031
-6.5628765e-13
0.011574031
-1.4879099e-12
0.011574031
-3.0284694e-12
0.011574031
-8.3115829e-12
-1.0899059e-11
0.01145007
-1.1355934e-06
0.011455917
-5.8465038e-06
0.011464831
-8.9142099e-06
0.011474305
-9.4755635e-06
0.011482933
-8.6280408e-06
0.011490628
-7.6956535e-06
0.011497692
-7.0643446e-06
0.011504296
-6.6040619e-06
0.011510441
-6.1454332e-06
0.011516093
-5.6521739e-06
0.011521258
-5.1647492e-06
0.011525977
-4.7184718e-06
0.011530297
-4.3200688e-06
0.011534257
-3.9605987e-06
0.011537888
-3.6309121e-06
0.011541215
-3.3266633e-06
0.011544261
-3.0463136e-06
0.011547049
-2.7886326e-06
0.011549601
-2.55187e-06
0.011551935
-2.3341116e-06
0.011554069
-2.133625e-06
0.011556017
-1.9489938e-06
0.011557796
-1.7789889e-06
0.011559419
-1.6225166e-06
0.011560897
-1.4785413e-06
0.011562243
-1.3461207e-06
0.011563467
-1.2243698e-06
0.01156458
-1.1124931e-06
0.011565589
-1.0097401e-06
0.011566504
-9.1543229e-07
0.011567333
-8.289243e-07
0.011568083
-7.4963266e-07
0.01156876
-6.7700143e-07
0.01156937
-6.1052864e-07
0.01156992
-5.4973475e-07
0.011570414
-4.9418742e-07
0.011570858
-4.4347305e-07
0.011571255
-3.9721905e-07
0.01157161
-3.5506863e-07
0.011571927
-3.167012e-07
0.011572209
-2.8180989e-07
0.011572459
-2.5011962e-07
0.01157268
-2.2136751e-07
0.011572876
-1.9531921e-07
0.011573047
-1.717517e-07
0.011573198
-1.5046738e-07
0.011573329
-1.3127907e-07
0.011573443
-1.14022e-07
0.011573542
-9.8540655e-08
0.011573627
-8.4698278e-08
0.011573699
-7.2365399e-08
0.011573761
-6.1427134e-08
0.011573813
-5.1773489e-08
0.011573856
-4.3304654e-08
0.011573892
-3.5923309e-08
0.011573922
-2.9538624e-08
0.011573946
-2.40608e-08
0.011573965
-1.9404198e-08
0.011573981
-1.5484087e-08
0.011573993
-1.2219242e-08
0.011574003
-9.530529e-09
0.01157401
-7.3429374e-09
0.011574016
-5.5853861e-09
0.01157402
-4.1920422e-09
0.011574023
-3.1026863e-09
0.011574026
-2.2632044e-09
0.011574027
-1.6260366e-09
0.011574028
-1.1498485e-09
0.011574029
-7.998234e-10
0.01157403
-5.4672408e-10
0.01157403
-3.670345e-10
0.01157403
-2.4164875e-10
0.011574031
-1.5594674e-10
0.011574031
-9.8395985e-11
0.011574031
-6.0687491e-11
0.011574031
-3.6401782e-11
0.011574031
-2.1245588e-11
0.011574031
-1.191012e-11
0.011574031
-6.4228647e-12
0.011574031
-3.2053795e-12
0.011574031
-1.4758951e-12
0.011574031
-4.9527053e-13
0.011574031
-7.5433373e-14
0.011574031
2.0772948e-13
0.011574031
1.9143579e-13
0.011574031
3.0372168e-13
0.011574031
1.5288496e-13
0.011574031
2.5496845e-13
0.011574031
1.6677588e-14
0.011574031
1.4752388e-13
0.011574031
-2.2232476e-13
0.011574031
-1.1412736e-13
0.011574031
-6.9537636e-13
0.011574031
-9.4858467e-13
0.011574031
-1.8137109e-12
0.011574031
-3.3143612e-12
0.011574031
-4.6383079e-12
0.011574031
-8.6096905e-12
0.011574031
-1.352173e-11
-1.9904795e-11
0.010680656
-2.2567178e-06
0.010685539
-1.0728466e-05
0.010692283
-1.565861e-05
0.0106989
-1.6093788e-05
0.010704608
-1.4336209e-05
0.010709481
-1.2569148e-05
0.010713751
-1.133549e-05
0.010717548
-1.0401046e-05
0.01072091
-9.5084997e-06
0.010723866
-8.6075247e-06
0.010726455
-7.7547444e-06
0.010728732
-6.9951307e-06
0.010730743
-6.3316176e-06
0.010732528
-5.7456933e-06
0.010734117
-5.2198563e-06
0.010735534
-4.7442774e-06
0.010736802
-4.3138429e-06
0.010737938
-3.9243901e-06
0.010738957
-3.5715477e-06
0.010739874
-3.251038e-06
0.0107407
-2.9592068e-06
0.010741444
-2.693041e-06
0.010742115
-2.4500533e-06
0.01074272
-2.2280556e-06
0.010743267
-2.0251263e-06
0.01074376
-1.839527e-06
0.010744206
-1.6697358e-06
0.010744608
-1.5143732e-06
0.01074497
-1.3722252e-06
0.010745297
-1.242174e-06
0.010745591
-1.1232278e-06
0.010745856
-1.0144643e-06
0.010746094
-9.1506252e-07
0.010746308
-8.2425353e-07
0.0107465
-7.4135085e-07
0.010746671
-6.6570769e-07
0.010746824
-5.9674552e-07
0.010746961
-5.3391651e-07
0.010747083
-4.7673032e-07
0.010747191
-4.2472154e-07
0.010747287
-3.774739e-07
0.010747371
-3.3459185e-07
0.010747445
-2.9572266e-07
0.010747511
-2.6053206e-07
0.010747568
-2.2872352e-07
0.010747617
-2.000171e-07
0.01074766
-1.7416599e-07
0.010747697
-1.5093824e-07
0.010747729
-1.3012992e-07
0.010747756
-1.115492e-07
0.010747778
-9.5026362e-08
0.010747797
-8.0400241e-08
0.010747813
-6.7525402e-08
0.010747826
-5.6261191e-08
0.010747837
-4.6476919e-08
0.010747845
-3.8043967e-08
0.010747852
-3.0839749e-08
0.010747857
-2.4742923e-08
0.010747862
-1.9636679e-08
0.010747865
-1.540667e-08
0.010747867
-1.1943681e-08
0.010747869
-9.1434594e-09
0.01074787
-6.9085383e-09
0.010747871
-5.1489958e-09
0.010747872
-3.7831955e-09
0.010747873
-2.7387403e-09
0.010747873
-1.9520576e-09
0.010747873
-1.3691059e-09
0.010747873
-9.4402588e-10
0.010747873
-6.3958183e-10
0.010747873
-4.2520806e-10
0.010747873
-2.772832e-10
0.010747873
-1.7697886e-10
0.010747873
-1.1056801e-10
0.010747873
-6.7355064e-11
0.010747873
-4.0071654e-11
0.010747873
-2.3091991e-11
0.010747873
-1.2967075e-11
0.010747873
-6.9664134e-12
0.010747873
-3.6513636e-12
0.010747873
-1.7800933e-12
0.010747873
-8.4915009e-13
0.010747873
-3.6454754e-13
0.010747873
-1.4369944e-13
0.010747873
-8.225077e-14
0.010747873
-4.8003871e-15
0.010747873
-9.2861033e-14
0.010747873
3.6674298e-16
0.010747873
-2.1604597e-13
0.010747873
-6.9563164e-14
0.010747873
-4.8933803e-13
0.010747873
-4.272799e-13
0.010747873
-1.1625387e-12
0.010747873
-1.6764843e-12
0.010747873
-2.9002173e-12
0.010747873
-4.9789733e-12
0.010747873
-6.7450792e-12
0.010747873
-1.1842661e-11
0.010747873
-1.3716192e-11
-2.2157808e-11
0.0090635129
-3.1299256e-06
0.0090656283
-1.2843181e-05
0.0090672504
-1.728077e-05
0.0090678176
-1.6661693e-05
0.0090676326
-1.4151934e-05
0.0090669684
-1.1905586e-05
0.0090659701
-1.0337755e-05
0.0090647323
-9.1637846e-06
0.0090633514
-8.1280727e-06
0.0090619119
-7.1684514e-06
0.0090604722
-6.3153381e-06
0.0090590666
-5.5897597e-06
0.0090577148
-4.9800421e-06
0.0090564291
-4.4602033e-06
0.0090552171
-4.0079754e-06
0.0090540823
-3.6096204e-06
0.0090530253
-3.2569291e-06
0.0090520446
-2.9437007e-06
0.0090511374
-2.6643652e-06
0.0090503003
-2.4140091e-06
0.0090495297
-2.1886087e-06
0.0090488216
-1.9849812e-06
0.0090481721
-1.8005712e-06
0.0090475773
-1.6332435e-06
0.0090470334
-1.4811719e-06
0.0090465367
-1.3427788e-06
0.0090460837
-1.2167031e-06
0.0090456711
-1.1017606e-06
0.0090452958
-9.9691579e-07
0.0090449549
-9.0125149e-07
0.0090446457
-8.1395335e-07
0.0090443656
-7.3429064e-07
0.0090441122
-6.6160815e-07
0.0090438833
-5.953126e-07
0.0090436768
-5.34868e-07
0.009043491
-4.7978522e-07
0.0090433239
-4.2961933e-07
0.009043174
-3.8396203e-07
0.0090430397
-3.4244061e-07
0.0090429198
-3.0471188e-07
0.0090428128
-2.7046196e-07
0.0090427177
-2.3940166e-07
0.0090426332
-2.1126703e-07
0.0090425586
-1.858156e-07
0.0090424927
-1.6282693e-07
0.0090424348
-1.4209955e-07
0.0090423842
-1.2345131e-07
0.00904234
-1.0671636e-07
0.0090423016
-9.1744895e-08
0.0090422685
-7.8400028e-08
0.0090422401
-6.6557038e-08
0.0090422158
-5.6100238e-08
0.0090421953
-4.6921893e-08
0.009042178
-3.8919586e-08
0.0090421635
-3.199539e-08
0.0090421516
-2.6054125e-08
0.0090421418
-2.100319e-08
0.0090421338
-1.675191e-08
0.0090421274
-1.3212094e-08
0.0090421223
-1.02983e-08
0.0090421183
-7.9288593e-09
0.0090421152
-6.0265656e-09
0.0090421128
-4.5196791e-09
0.009042111
-3.3425751e-09
0.0090421097
-2.4363785e-09
0.0090421087
-1.7492102e-09
0.009042108
-1.2362376e-09
0.0090421075
-8.5948147e-10
0.0090421072
-5.8739864e-10
0.0090421069
-3.94341e-10
0.0090421068
-2.5982133e-10
0.0090421067
-1.6786775e-10
0.0090421066
-1.0624108e-10
0.0090421066
-6.5816194e-11
0.0090421065
-3.986225e-11
0.0090421065
-2.3592232e-11
0.0090421065
-1.3631889e-11
0.0090421065
-7.7080626e-12
0.0090421065
-4.2747499e-12
0.0090421065
-2.3390688e-12
0.0090421065
-1.2864636e-12
0.0090421065
-7.2039422e-13
0.0090421065
-4.5158174e-13
0.0090421065
-2.766298e-13
0.0090421065
-2.4129681e-13
0.0090421065
-1.5069936e-13
0.0090421065
-2.2447592e-13
0.0090421065
-1.1019696e-13
0.0090421065
-2.9949172e-13
0.0090421065
-1.4625223e-13
0.0090421065
-5.5876036e-13
0.0090421065
-4.5605207e-13
0.0090421065
-1.2544157e-12
0.0090421065
-1.6229292e-12
0.0090421065
-3.106026e-12
0.0090421065
-4.6585275e-12
0.0090421065
-7.2503368e-12
0.0090421065
-1.1529673e-11
0.0090421065
-9.9261645e-12
-1.8979098e-11
0.0064475389
-2.8118772e-06
0.0064437387
-9.0421754e-06
0.0064370918
-1.0633873e-05
0.0064295821
-9.1526827e-06
0.0064224336
-7.0043065e-06
0.0064159126
-5.3853721e-06
0.0064099493
-4.3751708e-06
0.006404487
-3.70215e-06
0.0063995283
-3.1698778e-06
0.0063950753
-2.7159076e-06
0.0063910976
-2.3379749e-06
0.0063875425
-2.0349691e-06
0.0063843554
-1.7932328e-06
0.00638149
-1.5950185e-06
0.0063789087
-1.4267471e-06
0.0063765796
-1.2806547e-06
0.0063744751
-1.1525724e-06
0.0063725711
-1.0397076e-06
0.0063708463
-9.3966992e-07
0.0063692827
-8.5041223e-07
0.0063678644
-7.7029572e-07
0.0063665775
-6.9808457e-07
0.0063654098
-6.3280727e-07
0.0063643502
-5.7367655e-07
0.0063633891
-5.2001109e-07
0.0063625176
-4.7123485e-07
0.0063617278
-4.2684257e-07
0.0063610125
-3.8640766e-07
0.0063603652
-3.4954936e-07
0.0063597799
-3.1594159e-07
0.0063592513
-2.8528655e-07
0.0063587744
-2.5732687e-07
0.0063583447
-2.31824e-07
0.006357958
-2.0857093e-07
0.0063576106
-1.8737325e-07
0.0063572989
-1.6806139e-07
0.0063570198
-1.5047434e-07
0.0063567704
-1.3447135e-07
0.006356548
-1.1991768e-07
0.00635635
-1.066954e-07
0.0063561743
-9.4691116e-08
0.0063560188
-8.3805798e-08
0.0063558815
-7.3944164e-08
0.0063557608
-6.5023423e-08
0.006355655
-5.6964127e-08
0.0063555626
-4.9697802e-08
0.0063554824
-4.3158986e-08
0.006355413
-3.7291539e-08
0.0063553533
-3.2041774e-08
0.0063553023
-2.7363479e-08
0.0063552591
-2.3212055e-08
0.0063552225
-1.9548316e-08
0.006355192
-1.6333736e-08
0.0063551667
-1.3533291e-08
0.0063551458
-1.1111922e-08
0.0063551288
-9.0366636e-09
0.0063551151
-7.2743522e-09
0.0063551042
-5.7932225e-09
0.0063550956
-4.5617647e-09
0.0063550889
-3.5498513e-09
0.0063550837
-2.7284485e-09
0.0063550797
-2.0702451e-09
0.0063550768
-1.5499195e-09
0.0063550746
-1.1442671e-09
0.006355073
-8.3267705e-10
0.0063550719
-5.9682984e-10
0.0063550711
-4.2121642e-10
0.0063550705
-2.9244699e-10
0.0063550701
-1.9972556e-10
0.0063550699
-1.3398861e-10
0.0063550697
-8.8338061e-11
0.0063550696
-5.7106626e-11
0.0063550695
-3.6275349e-11
0.0063550695
-2.2542195e-11
0.0063550695
-1.3791882e-11
0.0063550694
-8.2258923e-12
0.0063550694
-4.8808352e-12
0.0063550694
-2.8055734e-12
0.0063550694
-1.6585321e-12
0.0063550694
-9.2961758e-13
0.0063550694
-5.9495343e-13
0.0063550694
-3.3634643e-13
0.0063550694
-2.68187e-13
0.0063550694
-1.4978061e-13
0.0063550694
-1.7167038e-13
0.0063550694
-8.868369e-14
0.0063550694
-1.5487283e-13
0.0063550694
-6.37238e-14
0.0063550694
-1.9169349e-13
0.0063550694
-8.5804399e-14
0.0063550694
-3.3535011e-13
0.0063550694
-2.5978364e-13
0.0063550694
-7.6646661e-13
0.0063550694
-8.878139e-13
0.0063550694
-1.7956259e-12
0.0063550694
-2.5630701e-12
0.0063550694
-4.6650027e-12
0.0063550694
-6.3734088e-12
0.0063550694
-5.1889662e-12
-1.21405e-11
0.0026241899
0.0026151479
0.0026045138
0.0025953607
0.0025883559
0.0025829702
0.0025785947
0.0025748922
0.0025717221
0.002569006
0.0025666679
0.0025646328
0.0025628394
0.0025612443
0.0025598175
0.0025585368
0.0025573842
0.0025563445
0.0025554048
0.0025545544
0.0025537841
0.002553086
0.0025524532
0.0025518796
0.0025513596
0.0025508884
0.0025504615
0.0025500752
0.0025497256
0.0025494097
0.0025491245
0.0025488672
0.0025486354
0.0025484269
0.0025482395
0.0025480715
0.002547921
0.0025477866
0.0025476667
0.0025475601
0.0025474654
0.0025473816
0.0025473077
0.0025472427
0.0025471858
0.0025471361
0.002547093
0.0025470557
0.0025470237
0.0025469964
0.0025469732
0.0025469536
0.0025469373
0.0025469238
0.0025469127
0.0025469037
0.0025468964
0.0025468907
0.0025468861
0.0025468826
0.0025468799
0.0025468778
0.0025468763
0.0025468751
0.0025468743
0.0025468737
0.0025468733
0.002546873
0.0025468728
0.0025468727
0.0025468726
0.0025468725
0.0025468725
0.0025468725
0.0025468724
0.0025468724
0.0025468724
0.0025468724
0.0025468724
0.0025468724
0.0025468724
0.0025468724
0.0025468724
0.0025468724
0.0025468724
0.0025468724
0.0025468724
0.0025468724
0.0025468724
0.0025468724
0.0025468724
0.0025468724
0.0025468724
0.0025468724
0.0025468724
0.0025468724
0.0025468724
0.0025468724
0.0025468724
)
;

boundaryField
{
    top
    {
        type            calculated;
        value           uniform 0;
    }
    inlet
    {
        type            calculated;
        value           nonuniform List<scalar> 10(-0.0026270004 -0.0064478565 -0.0090626392 -0.010679534 -0.011448935 -0.011448934 -0.010679534 -0.0090626385 -0.0064478561 -0.0026270012);
    }
    outlet
    {
        type            calculated;
        value           nonuniform List<scalar> 10(0.0025468724 0.0063550694 0.0090421066 0.010747874 0.011574031 0.011574031 0.010747873 0.0090421065 0.0063550694 0.0025468724);
    }
    bottom
    {
        type            calculated;
        value           uniform 0;
    }
    back
    {
        type            empty;
        value           nonuniform 0();
    }
    front
    {
        type            empty;
        value           nonuniform 0();
    }
}


// ************************************************************************* //
