/*--------------------------------*- C++ -*----------------------------------*\
| =========                 |                                                 |
| \\      /  F ield         | OpenFOAM: The Open Source CFD Toolbox           |
|  \\    /   O peration     | Version:  4.1                                   |
|   \\  /    A nd           | Web:      www.OpenFOAM.org                      |
|    \\/     M anipulation  |                                                 |
\*---------------------------------------------------------------------------*/
FoamFile
{
    version     2.0;
    format      ascii;
    class       volVectorField;
    location    "11";
    object      U;
}
// * * * * * * * * * * * * * * * * * * * * * * * * * * * * * * * * * * * * * //

dimensions      [0 1 -1 0 0 0 0];

internalField   nonuniform List<vector> 
1000
(
(0.27194829 0.00023383478 0)
(0.27141966 0.00065188092 0)
(0.27029207 0.00068613025 0)
(0.26919928 0.00050413465 0)
(0.26835024 0.00032195299 0)
(0.26771596 0.00021461521 0)
(0.26721788 0.00016291075 0)
(0.26680323 0.00013372682 0)
(0.26644884 0.00011103914 0)
(0.26614503 9.2099141e-05 0)
(0.26588438 7.7576666e-05 0)
(0.265659 6.7130756e-05 0)
(0.26546167 5.9443015e-05 0)
(0.2652869 5.3284569e-05 0)
(0.26513093 4.7982166e-05 0)
(0.26499114 4.329029e-05 0)
(0.26486548 3.9128182e-05 0)
(0.26475225 3.5432007e-05 0)
(0.26465 3.2129137e-05 0)
(0.26455752 2.9154419e-05 0)
(0.26447378 2.6460991e-05 0)
(0.26439791 2.4016302e-05 0)
(0.26432914 2.1795367e-05 0)
(0.2642668 1.9775868e-05 0)
(0.26421029 1.7937721e-05 0)
(0.26415907 1.6262795e-05 0)
(0.26411266 1.473551e-05 0)
(0.26407064 1.3342033e-05 0)
(0.26403261 1.2070361e-05 0)
(0.26399823 1.0909556e-05 0)
(0.26396716 9.8500105e-06 0)
(0.26393913 8.8828823e-06 0)
(0.26391385 8.0003952e-06 0)
(0.2638911 7.1953273e-06 0)
(0.26387064 6.4612948e-06 0)
(0.26385228 5.7923095e-06 0)
(0.26383583 5.1830605e-06 0)
(0.26382111 4.628532e-06 0)
(0.26380797 4.1242679e-06 0)
(0.26379626 3.6660434e-06 0)
(0.26378586 3.250111e-06 0)
(0.26377665 2.8729162e-06 0)
(0.2637685 2.5313187e-06 0)
(0.26376132 2.2223498e-06 0)
(0.26375503 1.9434053e-06 0)
(0.26374952 1.6920327e-06 0)
(0.26374473 1.4660911e-06 0)
(0.26374058 1.2635671e-06 0)
(0.263737 1.0826993e-06 0)
(0.26373394 9.2181714e-07 0)
(0.26373133 7.7943464e-07 0)
(0.26372913 6.5411662e-07 0)
(0.26372728 5.4454872e-07 0)
(0.26372574 4.4943304e-07 0)
(0.26372447 3.6754407e-07 0)
(0.26372344 2.9765781e-07 0)
(0.2637226 2.3859893e-07 0)
(0.26372193 1.8920016e-07 0)
(0.2637214 1.4834352e-07 0)
(0.26372098 1.1494294e-07 0)
(0.26372066 8.7976473e-08 0)
(0.26372041 6.648285e-08 0)
(0.26372023 4.9582358e-08 0)
(0.26372009 3.6478487e-08 0)
(0.26371999 2.6464434e-08 0)
(0.26371992 1.8924455e-08 0)
(0.26371987 1.3330716e-08 0)
(0.26371983 9.2463501e-09 0)
(0.2637198 6.3097826e-09 0)
(0.26371979 4.2353586e-09 0)
(0.26371978 2.7929921e-09 0)
(0.26371977 1.8106406e-09 0)
(0.26371977 1.1518496e-09 0)
(0.26371976 7.2116504e-10 0)
(0.26371976 4.4293269e-10 0)
(0.26371976 2.6973578e-10 0)
(0.26371976 1.6197142e-10 0)
(0.26371976 9.877092e-11 0)
(0.26371976 6.023428e-11 0)
(0.26371976 3.9431726e-11 0)
(0.26371976 2.64285e-11 0)
(0.26371976 1.9911852e-11 0)
(0.26371976 1.491214e-11 0)
(0.26371976 1.237888e-11 0)
(0.26371976 1.0193444e-11 0)
(0.26371976 8.3451087e-12 0)
(0.26371976 7.6286368e-12 0)
(0.26371976 5.4415936e-12 0)
(0.26371976 7.3081588e-12 0)
(0.26371976 4.4429936e-12 0)
(0.26371976 1.068367e-11 0)
(0.26371976 8.4428574e-12 0)
(0.26371976 2.4973974e-11 0)
(0.26371976 3.2962028e-11 0)
(0.26371976 8.1706176e-11 0)
(0.26371976 1.4084546e-10 0)
(0.26371976 2.8670621e-10 0)
(0.26371976 5.0853126e-10 0)
(0.26371976 9.0113043e-10 0)
(0.26371975 1.4057827e-09 0)
(0.66747626 0.00028633728 0)
(0.66788839 0.0011852245 0)
(0.66714159 0.0015924871 0)
(0.66617349 0.0014975618 0)
(0.66534853 0.0012160546 0)
(0.66465872 0.00096693905 0)
(0.6640327 0.00079884756 0)
(0.66344442 0.00068237793 0)
(0.66290036 0.00058783137 0)
(0.6624096 0.00050532278 0)
(0.6619726 0.0004353576 0)
(0.66158362 0.00037855675 0)
(0.66123571 0.00033294555 0)
(0.66092319 0.00029550231 0)
(0.66064179 0.00026379739 0)
(0.66038808 0.00023638398 0)
(0.66015905 0.00021244913 0)
(0.65995199 0.00019143034 0)
(0.65976453 0.00017285266 0)
(0.65959465 0.00015631338 0)
(0.65944059 0.00014149519 0)
(0.65930082 0.00012815745 0)
(0.65917399 0.00011611402 0)
(0.65905891 0.00010521306 0)
(0.6589545 9.532653e-05 0)
(0.65885981 8.6344961e-05 0)
(0.65877397 7.8174856e-05 0)
(0.65869621 7.073565e-05 0)
(0.6586258 6.39575e-05 0)
(0.65856212 5.7778912e-05 0)
(0.65850457 5.2145566e-05 0)
(0.65845262 4.7008921e-05 0)
(0.65840578 4.2325656e-05 0)
(0.6583636 3.805667e-05 0)
(0.65832568 3.4166758e-05 0)
(0.65829163 3.0623853e-05 0)
(0.65826111 2.7398883e-05 0)
(0.65823381 2.4465201e-05 0)
(0.65820943 2.1798539e-05 0)
(0.65818772 1.9376571e-05 0)
(0.65816842 1.7178938e-05 0)
(0.65815131 1.5186904e-05 0)
(0.65813618 1.3383418e-05 0)
(0.65812286 1.1752835e-05 0)
(0.65811116 1.0280989e-05 0)
(0.65810093 8.9549486e-06 0)
(0.65809202 7.7630573e-06 0)
(0.65808429 6.6947026e-06 0)
(0.65807763 5.7403107e-06 0)
(0.65807192 4.8911093e-06 0)
(0.65806706 4.1390837e-06 0)
(0.65806294 3.4767498e-06 0)
(0.65805948 2.8970994e-06 0)
(0.6580566 2.3934142e-06 0)
(0.65805422 1.9592356e-06 0)
(0.65805227 1.5882481e-06 0)
(0.65805069 1.2742975e-06 0)
(0.65804942 1.0113507e-06 0)
(0.65804841 7.9355852e-07 0)
(0.65804762 6.1527362e-07 0)
(0.65804701 4.7113353e-07 0)
(0.65804654 3.5610259e-07 0)
(0.65804619 2.6554289e-07 0)
(0.65804592 1.9524807e-07 0)
(0.65804573 1.4147883e-07 0)
(0.65804559 1.0096911e-07 0)
(0.65804549 7.0923207e-08 0)
(0.65804542 4.899815e-08 0)
(0.65804537 3.3266011e-08 0)
(0.65804534 2.2176077e-08 0)
(0.65804532 1.4499898e-08 0)
(0.6580453 9.2907808e-09 0)
(0.65804529 5.8264933e-09 0)
(0.65804529 3.5746453e-09 0)
(0.65804528 2.1433708e-09 0)
(0.65804528 1.2585577e-09 0)
(0.65804528 7.2543275e-10 0)
(0.65804528 4.1537379e-10 0)
(0.65804528 2.397461e-10 0)
(0.65804528 1.4447595e-10 0)
(0.65804528 9.4221539e-11 0)
(0.65804528 6.7876111e-11 0)
(0.65804528 5.4551003e-11 0)
(0.65804528 4.4751264e-11 0)
(0.65804528 4.1198618e-11 0)
(0.65804528 3.2869561e-11 0)
(0.65804528 3.394789e-11 0)
(0.65804528 2.2554401e-11 0)
(0.65804528 3.1260857e-11 0)
(0.65804528 1.6199338e-11 0)
(0.65804528 3.8085874e-11 0)
(0.65804528 2.2784613e-11 0)
(0.65804528 6.8141541e-11 0)
(0.65804528 7.525162e-11 0)
(0.65804528 1.7602428e-10 0)
(0.65804528 2.8367488e-10 0)
(0.65804528 5.2948918e-10 0)
(0.65804528 9.6677068e-10 0)
(0.65804528 1.5058786e-09 0)
(0.65804528 2.7097982e-09 0)
(0.93806151 0.00022912363 0)
(0.93932912 0.0011258834 0)
(0.93926392 0.0016977433 0)
(0.93896121 0.0017876611 0)
(0.93884215 0.0016176075 0)
(0.93883837 0.0014110012 0)
(0.93881003 0.0012516298 0)
(0.93871168 0.0011301714 0)
(0.93856708 0.0010212093 0)
(0.93840934 0.00091569366 0)
(0.93825501 0.00081698345 0)
(0.93810715 0.0007294465 0)
(0.93796489 0.00065376114 0)
(0.9378283 0.00058806786 0)
(0.93769849 0.000530217 0)
(0.93757653 0.00047875386 0)
(0.93746282 0.00043280918 0)
(0.93735727 0.00039173761 0)
(0.93725954 0.00035493804 0)
(0.93716926 0.0003218499 0)
(0.93708606 0.00029199148 0)
(0.93700955 0.00026497 0)
(0.93693933 0.00024046445 0)
(0.93687497 0.00021820448 0)
(0.93681609 0.00019795665 0)
(0.93676228 0.00017951783 0)
(0.93671317 0.00016271103 0)
(0.93666842 0.00014738164 0)
(0.9366277 0.00013339365 0)
(0.93659068 0.00012062651 0)
(0.93655708 0.00010897261 0)
(0.93652661 9.8335467e-05 0)
(0.93649904 8.8628136e-05 0)
(0.93647411 7.9772054e-05 0)
(0.93645161 7.1695894e-05 0)
(0.93643134 6.4334743e-05 0)
(0.9364131 5.7629317e-05 0)
(0.93639672 5.1525389e-05 0)
(0.93638203 4.5973234e-05 0)
(0.93636889 4.0927231e-05 0)
(0.93635717 3.6345474e-05 0)
(0.93634672 3.2189511e-05 0)
(0.93633744 2.8424062e-05 0)
(0.93632922 2.5016836e-05 0)
(0.93632196 2.1938331e-05 0)
(0.93631556 1.9161677e-05 0)
(0.93630995 1.6662452e-05 0)
(0.93630505 1.4418504e-05 0)
(0.93630079 1.2409735e-05 0)
(0.93629709 1.0617877e-05 0)
(0.93629391 9.0262305e-06 0)
(0.93629119 7.6194012e-06 0)
(0.93628887 6.3830401e-06 0)
(0.93628691 5.3035901e-06 0)
(0.93628527 4.3680858e-06 0)
(0.9362839 3.5639804e-06 0)
(0.93628278 2.879056e-06 0)
(0.93628186 2.3013701e-06 0)
(0.93628111 1.8192822e-06 0)
(0.93628052 1.4215065e-06 0)
(0.93628004 1.0972211e-06 0)
(0.93627968 8.3617213e-07 0)
(0.93627939 6.2879892e-07 0)
(0.93627918 4.663276e-07 0)
(0.93627901 3.4085764e-07 0)
(0.93627889 2.454007e-07 0)
(0.9362788 1.7389943e-07 0)
(0.93627874 1.2119917e-07 0)
(0.93627869 8.3005365e-08 0)
(0.93627866 5.5805655e-08 0)
(0.93627864 3.6789752e-08 0)
(0.93627863 2.3749814e-08 0)
(0.93627862 1.4991799e-08 0)
(0.93627861 9.2371664e-09 0)
(0.93627861 5.5468973e-09 0)
(0.93627861 3.2405366e-09 0)
(0.9362786 1.8426474e-09 0)
(0.9362786 1.0212891e-09 0)
(0.9362786 5.5894928e-10 0)
(0.9362786 3.0722359e-10 0)
(0.9362786 1.8054822e-10 0)
(0.9362786 1.1600977e-10 0)
(0.9362786 9.0313065e-11 0)
(0.9362786 7.2452593e-11 0)
(0.9362786 7.1049181e-11 0)
(0.9362786 5.7262041e-11 0)
(0.9362786 6.3471279e-11 0)
(0.9362786 4.292248e-11 0)
(0.9362786 5.9315074e-11 0)
(0.9362786 3.2169743e-11 0)
(0.9362786 6.4203581e-11 0)
(0.9362786 4.1922404e-11 0)
(0.9362786 9.4038301e-11 0)
(0.9362786 1.1771599e-10 0)
(0.9362786 2.1034802e-10 0)
(0.9362786 3.6882909e-10 0)
(0.9362786 5.5231107e-10 0)
(0.9362786 1.0528684e-09 0)
(0.9362786 1.3719254e-09 0)
(0.93627861 2.4850403e-09 0)
(1.1053381 0.00014228556 0)
(1.1071278 0.00076476016 0)
(1.1074591 0.0012188607 0)
(1.1075748 0.001346154 0)
(1.1079813 0.0012684419 0)
(1.1085771 0.0011441817 0)
(1.1091495 0.0010448712 0)
(1.109609 0.00096969749 0)
(1.109973 0.00089997873 0)
(1.1102826 0.00082786821 0)
(1.1105605 0.00075610956 0)
(1.1108114 0.00068924297 0)
(1.1110345 0.00062902833 0)
(1.1112311 0.00057486277 0)
(1.1114047 0.00052558145 0)
(1.1115592 0.00048040956 0)
(1.1116973 0.00043897114 0)
(1.1118211 0.00040101768 0)
(1.1119323 0.00036627683 0)
(1.1120322 0.00033445242 0)
(1.1121221 0.00030526648 0)
(1.112203 0.00027848104 0)
(1.1122761 0.00025389258 0)
(1.1123419 0.00023132135 0)
(1.1124014 0.00021060328 0)
(1.1124551 0.00019158845 0)
(1.1125035 0.00017413969 0)
(1.1125473 0.00015813248 0)
(1.1125867 0.00014345278 0)
(1.1126223 0.00012999639 0)
(1.1126544 0.00011766721 0)
(1.1126832 0.00010637706 0)
(1.1127092 9.6044372e-05 0)
(1.1127325 8.6594225e-05 0)
(1.1127534 7.7957142e-05 0)
(1.1127722 7.006922e-05 0)
(1.1127889 6.2871095e-05 0)
(1.1128039 5.6308122e-05 0)
(1.1128172 5.0329498e-05 0)
(1.1128291 4.4888461e-05 0)
(1.1128396 3.9941542e-05 0)
(1.1128489 3.5448804e-05 0)
(1.1128571 3.1373208e-05 0)
(1.1128643 2.7680839e-05 0)
(1.1128706 2.4340385e-05 0)
(1.1128761 2.1323329e-05 0)
(1.1128808 1.8603486e-05 0)
(1.1128849 1.6157135e-05 0)
(1.1128885 1.3962572e-05 0)
(1.1128915 1.2000153e-05 0)
(1.112894 1.0251841e-05 0)
(1.1128961 8.7011611e-06 0)
(1.1128979 7.3327749e-06 0)
(1.1128994 6.1323841e-06 0)
(1.1129006 5.0863703e-06 0)
(1.1129016 4.1817269e-06 0)
(1.1129024 3.4058202e-06 0)
(1.112903 2.7463913e-06 0)
(1.1129035 2.1914617e-06 0)
(1.1129038 1.7294176e-06 0)
(1.1129041 1.3490369e-06 0)
(1.1129043 1.0396194e-06 0)
(1.1129045 7.9107364e-07 0)
(1.1129046 5.9403949e-07 0)
(1.1129047 4.399729e-07 0)
(1.1129047 3.2121202e-07 0)
(1.1129048 2.3101634e-07 0)
(1.1129048 1.6355909e-07 0)
(1.1129048 1.1391124e-07 0)
(1.1129048 7.7970314e-08 0)
(1.1129048 5.2403823e-08 0)
(1.1129048 3.4541295e-08 0)
(1.1129048 2.2303066e-08 0)
(1.1129048 1.4083346e-08 0)
(1.1129048 8.6869951e-09 0)
(1.1129048 5.2228352e-09 0)
(1.1129048 3.0614146e-09 0)
(1.1129048 1.7464063e-09 0)
(1.1129048 9.7787456e-10 0)
(1.1129048 5.3938256e-10 0)
(1.1129048 3.0648171e-10 0)
(1.1129048 1.811042e-10 0)
(1.1129048 1.2605069e-10 0)
(1.1129048 9.2047842e-11 0)
(1.1129048 8.5947375e-11 0)
(1.1129048 6.7854335e-11 0)
(1.1129048 7.5133478e-11 0)
(1.1129048 5.2279803e-11 0)
(1.1129048 6.8821069e-11 0)
(1.1129048 4.0772207e-11 0)
(1.1129048 6.5543798e-11 0)
(1.1129048 5.0054907e-11 0)
(1.1129048 7.8338647e-11 0)
(1.1129048 1.1598815e-10 0)
(1.1129048 1.5893232e-10 0)
(1.1129048 2.9543655e-10 0)
(1.1129048 3.6214088e-10 0)
(1.1129048 6.8389066e-10 0)
(1.1129048 6.2725882e-10 0)
(1.1129048 1.1914196e-09 0)
(1.1849244 4.7777272e-05 0)
(1.1869601 0.00026720018 0)
(1.1874584 0.000436087 0)
(1.1877461 0.00049103281 0)
(1.1883888 0.00046945695 0)
(1.1892791 0.00042808978 0)
(1.1901661 0.00039476508 0)
(1.190933 0.00037021403 0)
(1.1915896 0.00034744562 0)
(1.1921798 0.00032318239 0)
(1.1927285 0.00029832023 0)
(1.1932391 0.00027465696 0)
(1.193709 0.00025300049 0)
(1.1941384 0.00023322523 0)
(1.1945304 0.00021495216 0)
(1.1948892 0.00019793779 0)
(1.1952181 0.00018209169 0)
(1.1955195 0.00016737154 0)
(1.1957954 0.00015372057 0)
(1.1960479 0.00014106535 0)
(1.1962787 0.00012933255 0)
(1.1964895 0.00011845834 0)
(1.1966821 0.00010838744 0)
(1.1968578 9.9069394e-05 0)
(1.197018 9.045608e-05 0)
(1.1971639 8.2501483e-05 0)
(1.1972967 7.5161805e-05 0)
(1.1974174 6.8395786e-05 0)
(1.197527 6.2164394e-05 0)
(1.1976264 5.6430829e-05 0)
(1.1977165 5.1160239e-05 0)
(1.197798 4.6319825e-05 0)
(1.1978717 4.1878624e-05 0)
(1.1979382 3.7807606e-05 0)
(1.1979981 3.4079452e-05 0)
(1.198052 3.0668631e-05 0)
(1.1981004 2.7551178e-05 0)
(1.1981438 2.4704748e-05 0)
(1.1981827 2.2108411e-05 0)
(1.1982173 1.9742727e-05 0)
(1.1982482 1.758955e-05 1.8710261e-33)
(1.1982757 1.5632062e-05 0)
(1.1983 1.3854619e-05 0)
(1.1983215 1.2242807e-05 0)
(1.1983405 1.0783284e-05 0)
(1.1983571 9.4638266e-06 0)
(1.1983717 8.2731865e-06 0)
(1.1983843 7.2011235e-06 0)
(1.1983953 6.2382527e-06 0)
(1.1984047 5.3760454e-06 0)
(1.1984128 4.6066704e-06 0)
(1.1984197 3.9229706e-06 0)
(1.1984255 3.3182966e-06 0)
(1.1984304 2.7864653e-06 0)
(1.1984345 2.3216147e-06 0)
(1.1984379 1.9181725e-06 0)
(1.1984407 1.57075e-06 0)
(1.1984429 1.2741375e-06 0)
(1.1984447 1.0232536e-06 0)
(1.1984461 8.1317745e-07 0)
(1.1984472 6.3914546e-07 0)
(1.1984481 4.9660596e-07 0)
(1.1984488 3.8124516e-07 0)
(1.1984493 2.8904372e-07 0)
(1.1984496 2.1630504e-07 0)
(1.1984499 1.5969364e-07 0)
(1.1984501 1.1624695e-07 0)
(1.1984502 8.3385219e-08 0)
(1.1984503 5.89004e-08 0)
(1.1984504 4.0940263e-08 0)
(1.1984505 2.7978625e-08 0)
(1.1984505 1.8782246e-08 0)
(1.1984505 1.237299e-08 0)
(1.1984505 7.9901819e-09 0)
(1.1984505 5.0537979e-09 0)
(1.1984505 3.1290087e-09 0)
(1.1984505 1.8975856e-09 0)
(1.1984505 1.1298679e-09 0)
(1.1984505 6.6605804e-10 0)
(1.1984505 3.9393465e-10 0)
(1.1984505 2.4099613e-10 0)
(1.1984505 1.5633978e-10 0)
(1.1984505 1.135544e-10 0)
(1.1984505 8.8697595e-11 0)
(1.1984505 7.8296016e-11 0)
(1.1984505 6.5670211e-11 0)
(1.1984505 6.429592e-11 0)
(1.1984505 5.070862e-11 0)
(1.1984505 5.3214546e-11 0)
(1.1984505 3.8739614e-11 0)
(1.1984505 4.0069839e-11 0)
(1.1984505 3.7856783e-11 0)
(1.1984505 3.1226312e-11 2.9477987e-35)
(1.1984505 5.5219163e-11 0)
(1.1984505 4.7779127e-11 0)
(1.1984505 7.8862775e-11 8.8433962e-36)
(1.1984505 4.3583792e-11 0)
(1.1984505 7.2759393e-11 0)
(1.1984505 -3.2714611e-10 0)
(1.1984505 -4.1617855e-10 0)
(1.1849243 -4.7777845e-05 0)
(1.1869601 -0.00026720077 0)
(1.1874584 -0.00043608881 0)
(1.187746 -0.00049103032 0)
(1.1883888 -0.00046944202 0)
(1.1892791 -0.0004280608 0)
(1.1901661 -0.00039472694 0)
(1.190933 -0.00037017247 0)
(1.1915896 -0.00034740363 0)
(1.1921798 -0.00032314172 0)
(1.1927285 -0.00029828211 0)
(1.1932391 -0.00027462329 0)
(1.193709 -0.00025297243 0)
(1.1941384 -0.00023320389 0)
(1.1945304 -0.0002149377 0)
(1.1948892 -0.00019793068 0)
(1.1952181 -0.00018209166 0)
(1.1955195 -0.00016737861 0)
(1.1957954 -0.00015373403 0)
(1.1960479 -0.00014108481 0)
(1.1962787 -0.0001293569 0)
(1.1964895 -0.00011848691 0)
(1.1966821 -0.00010841898 0)
(1.1968578 -9.9103132e-05 0)
(1.197018 -9.0490789e-05 0)
(1.1971639 -8.2536474e-05 0)
(1.1972967 -7.5196011e-05 0)
(1.1974174 -6.8428676e-05 0)
(1.197527 -6.2195123e-05 0)
(1.1976264 -5.6459095e-05 0)
(1.1977165 -5.118546e-05 0)
(1.197798 -4.6341912e-05 0)
(1.1978717 -4.1897235e-05 0)
(1.1979382 -3.782286e-05 0)
(1.1979981 -3.4091229e-05 0)
(1.198052 -3.0677206e-05 0)
(1.1981004 -2.7556591e-05 0)
(1.1981438 -2.4707385e-05 0)
(1.1981826 -2.2108445e-05 0)
(1.1982173 -1.9740597e-05 0)
(1.1982482 -1.7585445e-05 -1.8710261e-33)
(1.1982757 -1.5626392e-05 0)
(1.1983 -1.3847565e-05 0)
(1.1983215 -1.2234701e-05 0)
(1.1983404 -1.0774238e-05 0)
(1.1983571 -9.454078e-06 0)
(1.1983716 -8.262779e-06 0)
(1.1983843 -7.1901989e-06 0)
(1.1983952 -6.226799e-06 0)
(1.1984047 -5.3641484e-06 0)
(1.1984128 -4.5943108e-06 0)
(1.1984197 -3.9102196e-06 0)
(1.1984255 -3.3051627e-06 0)
(1.1984304 -2.7730462e-06 0)
(1.1984345 -2.3079774e-06 0)
(1.1984379 -1.9044552e-06 0)
(1.1984406 -1.5570748e-06 0)
(1.1984429 -1.2606743e-06 0)
(1.1984447 -1.0101587e-06 0)
(1.1984461 -8.0062349e-07 0)
(1.1984472 -6.27284e-07 0)
(1.1984481 -4.85577e-07 0)
(1.1984487 -3.7116002e-07 0)
(1.1984492 -2.7998143e-07 0)
(1.1984496 -2.0831318e-07 0)
(1.1984499 -1.5277771e-07 0)
(1.1984501 -1.1038574e-07 0)
(1.1984502 -7.8517996e-08 0)
(1.1984503 -5.4952219e-08 0)
(1.1984504 -3.7805948e-08 0)
(1.1984505 -2.5553928e-08 0)
(1.1984505 -1.6946381e-08 0)
(1.1984505 -1.1021228e-08 0)
(1.1984505 -7.0112167e-09 0)
(1.1984505 -4.3617431e-09 0)
(1.1984505 -2.638031e-09 0)
(1.1984505 -1.5517179e-09 0)
(1.1984505 -8.7253044e-10 0)
(1.1984505 -4.6897908e-10 0)
(1.1984505 -2.2544832e-10 0)
(1.1984505 -9.460265e-11 0)
(1.1984505 -1.6123831e-11 0)
(1.1984505 1.6007243e-11 0)
(1.1984505 3.8470453e-11 0)
(1.1984505 3.7417226e-11 0)
(1.1984505 4.4125027e-11 0)
(1.1984505 3.2339569e-11 0)
(1.1984505 3.697953e-11 0)
(1.1984505 1.8541218e-11 0)
(1.1984505 2.5262544e-11 0)
(1.1984505 -1.4374116e-12 0)
(1.1984505 7.946432e-12 0)
(1.1984505 -3.2473839e-11 -2.9477987e-35)
(1.1984505 -4.0470357e-11 0)
(1.1984505 -9.38932e-11 0)
(1.1984505 -1.9138774e-10 -8.8433962e-36)
(1.1984505 -2.9220411e-10 0)
(1.1984505 -5.4257785e-10 0)
(1.1984505 -1.0558134e-09 0)
(1.1984505 -1.6507376e-09 0)
(1.1053381 -0.00014228642 0)
(1.1071278 -0.00076477402 0)
(1.1074591 -0.0012188815 0)
(1.1075747 -0.0013461691 0)
(1.1079813 -0.0012684437 0)
(1.1085771 -0.00114417 0)
(1.1091495 -0.00104485 0)
(1.109609 -0.00096967095 0)
(1.109973 -0.00089994964 0)
(1.1102826 -0.00082783822 0)
(1.1105605 -0.00075608049 0)
(1.1108114 -0.00068921629 0)
(1.1110345 -0.00062900563 0)
(1.1112311 -0.00057484485 0)
(1.1114048 -0.00052556914 0)
(1.1115592 -0.000480403 0)
(1.1116973 -0.00043897066 0)
(1.1118212 -0.00040102304 0)
(1.1119323 -0.00036628784 0)
(1.1120322 -0.00033446832 0)
(1.1121221 -0.00030528673 0)
(1.112203 -0.00027850464 0)
(1.112276 -0.00025391882 0)
(1.1123419 -0.00023134919 0)
(1.1124014 -0.00021063203 0)
(1.112455 -0.00019161716 0)
(1.1125035 -0.0001741678 0)
(1.1125472 -0.00015815922 0)
(1.1125866 -0.00014347776 0)
(1.1126222 -0.00013001907 0)
(1.1126543 -0.00011768741 0)
(1.1126831 -0.00010639445 0)
(1.1127091 -9.6058957e-05 0)
(1.1127324 -8.6605877e-05 0)
(1.1127533 -7.7966027e-05 0)
(1.1127721 -7.0075361e-05 0)
(1.1127888 -6.2874779e-05 0)
(1.1128038 -5.630949e-05 0)
(1.1128171 -5.0328882e-05 0)
(1.112829 -4.4886037e-05 0)
(1.1128395 -3.993766e-05 0)
(1.1128488 -3.5443648e-05 0)
(1.112857 -3.136707e-05 0)
(1.1128642 -2.7673851e-05 0)
(1.1128705 -2.4332758e-05 0)
(1.112876 -2.1315129e-05 0)
(1.1128807 -1.8594841e-05 0)
(1.1128848 -1.6148053e-05 0)
(1.1128884 -1.3953124e-05 0)
(1.1128914 -1.1990327e-05 0)
(1.1128939 -1.0241687e-05 0)
(1.1128961 -8.6906814e-06 0)
(1.1128979 -7.3220359e-06 0)
(1.1128993 -6.1214308e-06 0)
(1.1129005 -5.0753037e-06 0)
(1.1129015 -4.1706397e-06 0)
(1.1129023 -3.3948452e-06 0)
(1.1129029 -2.7356536e-06 0)
(1.1129034 -2.1811045e-06 0)
(1.1129038 -1.7195702e-06 0)
(1.1129041 -1.3398237e-06 0)
(1.1129043 -1.031142e-06 0)
(1.1129044 -7.8341107e-07 0)
(1.1129046 -5.87244e-07 0)
(1.1129046 -4.3406414e-07 0)
(1.1129047 -3.1618379e-07 0)
(1.1129047 -2.2683024e-07 0)
(1.1129048 -1.6015998e-07 0)
(1.1129048 -1.1121852e-07 0)
(1.1129048 -7.5898381e-08 0)
(1.1129048 -5.0852915e-08 0)
(1.1129048 -3.3420127e-08 0)
(1.1129048 -2.1515714e-08 0)
(1.1129048 -1.3551216e-08 0)
(1.1129048 -8.3336777e-09 0)
(1.1129048 -4.9944052e-09 0)
(1.1129048 -2.9071492e-09 0)
(1.1129048 -1.6371389e-09 0)
(1.1129048 -8.8583464e-10 0)
(1.1129048 -4.559092e-10 0)
(1.1129048 -2.1969984e-10 0)
(1.1129048 -9.3584586e-11 0)
(1.1129048 -3.3544703e-11 0)
(1.1129048 -2.809841e-12 0)
(1.1129048 3.0968684e-12 0)
(1.1129048 1.2500884e-11 0)
(1.1129048 1.0503674e-12 0)
(1.1129048 1.0920787e-11 0)
(1.1129048 -1.3352206e-11 0)
(1.1129048 1.9105529e-12 0)
(1.1129048 -3.7337082e-11 0)
(1.1129048 -2.8415239e-11 0)
(1.1129048 -8.8490138e-11 0)
(1.1129048 -1.3076984e-10 0)
(1.1129048 -2.2280993e-10 0)
(1.1129048 -4.1489939e-10 0)
(1.1129048 -5.5715312e-10 0)
(1.1129048 -1.0162976e-09 0)
(1.1129048 -1.3708676e-09 0)
(1.1129048 -2.2173353e-09 0)
(0.93806144 -0.00022912165 0)
(0.93932906 -0.0011258708 0)
(0.93926385 -0.0016977329 0)
(0.93896115 -0.0017876617 0)
(0.93884212 -0.0016176153 0)
(0.93883835 -0.0014110079 0)
(0.93881002 -0.0012516304 0)
(0.93871167 -0.0011301653 0)
(0.93856708 -0.0010211984 0)
(0.93840935 -0.00091567991 0)
(0.93825502 -0.00081696841 0)
(0.93810716 -0.00072943099 0)
(0.93796491 -0.00065374667 0)
(0.93782832 -0.00058805537 0)
(0.93769851 -0.00053020781 0)
(0.93757654 -0.00047874828 0)
(0.93746283 -0.00043280781 0)
(0.93735728 -0.00039174012 0)
(0.93725954 -0.00035494448 0)
(0.93716926 -0.00032185955 0)
(0.93708605 -0.00029200415 0)
(0.93700953 -0.00026498479 0)
(0.93693929 -0.00024048102 0)
(0.93687493 -0.00021822191 0)
(0.93681603 -0.00019797464 0)
(0.93676221 -0.00017953557 0)
(0.9367131 -0.00016272829 0)
(0.93666834 -0.00014739776 0)
(0.9366276 -0.00013340856 0)
(0.93659058 -0.00012063972 0)
(0.93655697 -0.00010898418 0)
(0.9365265 -9.8345063e-05 0)
(0.93649892 -8.8635945e-05 0)
(0.93647399 -7.9777897e-05 0)
(0.93645149 -7.1700032e-05 0)
(0.93643121 -6.4337114e-05 0)
(0.93641297 -5.7630245e-05 0)
(0.93639659 -5.1524879e-05 0)
(0.9363819 -4.5971613e-05 0)
(0.93636877 -4.0924541e-05 0)
(0.93635704 -3.6342034e-05 0)
(0.9363466 -3.2185354e-05 0)
(0.93633732 -2.841944e-05 0)
(0.9363291 -2.5011752e-05 0)
(0.93632184 -2.193297e-05 0)
(0.93631545 -1.9156005e-05 0)
(0.93630985 -1.6656588e-05 0)
(0.93630495 -1.4412392e-05 0)
(0.93630069 -1.240346e-05 0)
(0.936297 -1.0611387e-05 0)
(0.93629383 -9.0195955e-06 0)
(0.93629111 -7.6125982e-06 0)
(0.93628879 -6.3761479e-06 0)
(0.93628684 -5.296625e-06 0)
(0.9362852 -4.3611406e-06 0)
(0.93628384 -3.5571069e-06 0)
(0.93628272 -2.8723562e-06 0)
(0.93628181 -2.2949146e-06 0)
(0.93628107 -1.8131653e-06 0)
(0.93628048 -1.4157972e-06 0)
(0.93628001 -1.0919889e-06 0)
(0.93627965 -8.3146426e-07 0)
(0.93627937 -6.2464808e-07 0)
(0.93627915 -4.6274858e-07 0)
(0.93627899 -3.3784178e-07 0)
(0.93627887 -2.4292823e-07 0)
(0.93627879 -1.7192708e-07 0)
(0.93627873 -1.1968172e-07 0)
(0.93627868 -8.1877066e-08 0)
(0.93627865 -5.5009263e-08 0)
(0.93627863 -3.6254635e-08 0)
(0.93627862 -2.3422233e-08 0)
(0.93627861 -1.480826e-08 0)
(0.93627861 -9.1572753e-09 0)
(0.9362786 -5.5241503e-09 0)
(0.9362786 -3.252988e-09 0)
(0.9362786 -1.8602731e-09 0)
(0.9362786 -1.0382414e-09 0)
(0.9362786 -5.5987563e-10 0)
(0.9362786 -2.9805444e-10 0)
(0.9362786 -1.5298885e-10 0)
(0.9362786 -8.1283009e-11 0)
(0.9362786 -4.3641707e-11 0)
(0.9362786 -2.6861404e-11 0)
(0.9362786 -2.0477029e-11 0)
(0.9362786 -1.3567023e-11 0)
(0.9362786 -1.9873297e-11 0)
(0.9362786 -1.0493221e-11 0)
(0.9362786 -2.9864101e-11 0)
(0.9362786 -1.3947629e-11 0)
(0.9362786 -5.5500013e-11 0)
(0.9362786 -4.5414256e-11 0)
(0.9362786 -1.2088844e-10 0)
(0.9362786 -1.6543954e-10 0)
(0.9362786 -2.9728493e-10 0)
(0.9362786 -4.9550101e-10 0)
(0.9362786 -6.918696e-10 0)
(0.9362786 -1.2349114e-09 0)
(0.9362786 -1.2856073e-09 0)
(0.9362786 -2.1738637e-09 0)
(0.66747622 -0.00028632897 0)
(0.66788836 -0.0011852068 0)
(0.66714156 -0.0015924786 0)
(0.66617347 -0.0014975756 0)
(0.66534852 -0.001216089 0)
(0.66465872 -0.00096698132 0)
(0.6640327 -0.00079888473 0)
(0.66344442 -0.00068240451 0)
(0.66290034 -0.0005878479 0)
(0.66240959 -0.00050533204 0)
(0.66197259 -0.00043536152 0)
(0.66158361 -0.00037855694 0)
(0.66123571 -0.00033294327 0)
(0.66092319 -0.00029549924 0)
(0.66064179 -0.00026379459 0)
(0.66038808 -0.00023638239 0)
(0.66015905 -0.00021244887 0)
(0.65995199 -0.00019143162 0)
(0.65976453 -0.00017285522 0)
(0.65959464 -0.00015631723 0)
(0.65944057 -0.00014149992 0)
(0.6593008 -0.00012816298 0)
(0.65917396 -0.00011611988 0)
(0.65905887 -0.00010521914 0)
(0.65895446 -9.5332448e-05 0)
(0.65885976 -8.6350641e-05 0)
(0.65877391 -7.8179972e-05 0)
(0.65869614 -7.0740214e-05 0)
(0.65862572 -6.3961274e-05 0)
(0.65856204 -5.7781955e-05 0)
(0.65850448 -5.2147719e-05 0)
(0.65845253 -4.7010307e-05 0)
(0.65840568 -4.2326183e-05 0)
(0.6583635 -3.8056487e-05 0)
(0.65832557 -3.4165821e-05 0)
(0.65829153 -3.062234e-05 0)
(0.65826101 -2.7396783e-05 0)
(0.65823371 -2.4462684e-05 0)
(0.65820933 -2.179561e-05 0)
(0.65818762 -1.9373393e-05 0)
(0.65816832 -1.7175515e-05 0)
(0.65815121 -1.5183364e-05 0)
(0.6581361 -1.3379751e-05 0)
(0.65812277 -1.174914e-05 0)
(0.65811108 -1.0277242e-05 0)
(0.65810085 -8.9512131e-06 0)
(0.65809194 -7.7593017e-06 0)
(0.65808423 -6.6909729e-06 0)
(0.65807757 -5.7365781e-06 0)
(0.65807186 -4.8874091e-06 0)
(0.658067 -4.1353988e-06 0)
(0.65806289 -3.4731172e-06 0)
(0.65805944 -2.893519e-06 0)
(0.65805656 -2.3899259e-06 0)
(0.65805418 -1.9558537e-06 0)
(0.65805224 -1.5850139e-06 0)
(0.65805066 -1.2712336e-06 0)
(0.65804939 -1.0084935e-06 0)
(0.65804839 -7.9092982e-07 0)
(0.6580476 -6.1289766e-07 0)
(0.65804699 -4.6902335e-07 0)
(0.65804653 -3.5426645e-07 0)
(0.65804618 -2.6398095e-07 0)
(0.65804591 -1.9395011e-07 0)
(0.65804572 -1.4043129e-07 0)
(0.65804558 -1.0014865e-07 0)
(0.65804548 -7.0308139e-08 0)
(0.65804541 -4.8555848e-08 0)
(0.65804537 -3.297047e-08 0)
(0.65804534 -2.1993474e-08 0)
(0.65804531 -1.4407193e-08 0)
(0.6580453 -9.2572532e-09 0)
(0.65804529 -5.8350668e-09 0)
(0.65804529 -3.6027821e-09 0)
(0.65804528 -2.1832563e-09 0)
(0.65804528 -1.2949002e-09 0)
(0.65804528 -7.5729058e-10 0)
(0.65804528 -4.3464399e-10 0)
(0.65804528 -2.5153668e-10 0)
(0.65804528 -1.4358781e-10 0)
(0.65804528 -8.7623927e-11 0)
(0.65804528 -5.2586604e-11 0)
(0.65804528 -3.9035019e-11 0)
(0.65804528 -2.4795695e-11 0)
(0.65804528 -2.4192257e-11 0)
(0.65804528 -1.4654534e-11 0)
(0.65804528 -2.1979283e-11 0)
(0.65804528 -1.0897957e-11 0)
(0.65804528 -2.7131602e-11 0)
(0.65804528 -1.340488e-11 0)
(0.65804528 -4.8828266e-11 0)
(0.65804528 -3.8737371e-11 0)
(0.65804528 -1.1235903e-10 0)
(0.65804528 -1.3616063e-10 0)
(0.65804528 -2.7738204e-10 0)
(0.65804528 -3.9093507e-10 0)
(0.65804528 -6.5900207e-10 0)
(0.65804528 -1.0422487e-09 0)
(0.65804528 -8.8054746e-10 0)
(0.65804528 -1.6988276e-09 0)
(0.27194837 -0.00023382544 0)
(0.27141968 -0.00065187311 0)
(0.27029206 -0.00068613513 0)
(0.26919927 -0.00050415491 0)
(0.26835023 -0.00032198431 0)
(0.26771594 -0.00021464827 0)
(0.26721785 -0.00016293767 0)
(0.26680318 -0.0001337454 0)
(0.26644879 -0.00011105078 0)
(0.26614499 -9.2106425e-05 0)
(0.26588434 -7.7580966e-05 0)
(0.26565897 -6.7133157e-05 0)
(0.26546164 -5.9443973e-05 0)
(0.26528688 -5.3284984e-05 0)
(0.26513092 -4.7982272e-05 0)
(0.26499113 -4.3290563e-05 0)
(0.26486548 -3.912841e-05 0)
(0.26475224 -3.5432427e-05 0)
(0.26465 -3.2129479e-05 0)
(0.26455752 -2.9154911e-05 0)
(0.26447378 -2.6461349e-05 0)
(0.26439791 -2.4016726e-05 0)
(0.26432914 -2.1795583e-05 0)
(0.26426679 -1.9776076e-05 0)
(0.26421027 -1.7937662e-05 0)
(0.26415905 -1.6262668e-05 0)
(0.26411264 -1.4735098e-05 0)
(0.26407062 -1.3341537e-05 0)
(0.26403259 -1.2069583e-05 0)
(0.2639982 -1.090869e-05 0)
(0.26396713 -9.8488902e-06 0)
(0.26393909 -8.8816973e-06 0)
(0.26391382 -7.9989944e-06 0)
(0.26389107 -7.1938855e-06 0)
(0.26387061 -6.4596861e-06 0)
(0.26385225 -5.7906968e-06 0)
(0.26383579 -5.1813288e-06 0)
(0.26382107 -4.6268253e-06 0)
(0.26380794 -4.1224885e-06 0)
(0.26379623 -3.6643195e-06 0)
(0.26378583 -3.2483517e-06 0)
(0.26377662 -2.8712292e-06 0)
(0.26376847 -2.5296255e-06 0)
(0.2637613 -2.2207414e-06 0)
(0.263755 -1.9418094e-06 0)
(0.2637495 -1.690522e-06 0)
(0.26374471 -1.4646053e-06 0)
(0.26374056 -1.2621656e-06 0)
(0.26373698 -1.0813314e-06 0)
(0.26373392 -9.2052924e-07 0)
(0.26373132 -7.7818859e-07 0)
(0.26372912 -6.5294935e-07 0)
(0.26372727 -5.4343308e-07 0)
(0.26372573 -4.4839692e-07 0)
(0.26372446 -3.6656986e-07 0)
(0.26372343 -2.9676533e-07 0)
(0.26372259 -2.3777794e-07 0)
(0.26372192 -1.8846294e-07 0)
(0.26372139 -1.4768358e-07 0)
(0.26372098 -1.1436471e-07 0)
(0.26372066 -8.7475748e-08 0)
(0.26372041 -6.6057864e-08 0)
(0.26372023 -4.9228651e-08 0)
(0.26372009 -3.6188183e-08 0)
(0.26371999 -2.6233841e-08 0)
(0.26371992 -1.8743436e-08 0)
(0.26371987 -1.3196346e-08 0)
(0.26371983 -9.1461737e-09 0)
(0.26371981 -6.242595e-09 0)
(0.26371979 -4.1890604e-09 0)
(0.26371978 -2.7675652e-09 0)
(0.26371977 -1.7941932e-09 0)
(0.26371977 -1.1470274e-09 0)
(0.26371976 -7.1809067e-10 0)
(0.26371976 -4.4569268e-10 0)
(0.26371976 -2.6925551e-10 0)
(0.26371976 -1.645202e-10 0)
(0.26371976 -9.6972323e-11 0)
(0.26371976 -6.06772e-11 0)
(0.26371976 -3.4844918e-11 0)
(0.26371976 -2.4471293e-11 0)
(0.26371976 -1.4216252e-11 0)
(0.26371976 -1.265943e-11 0)
(0.26371976 -6.5139896e-12 0)
(0.26371976 -8.6910422e-12 0)
(0.26371976 -4.4186212e-12 0)
(0.26371976 -8.5217748e-12 0)
(0.26371976 -3.5251639e-12 0)
(0.26371976 -1.0962959e-11 0)
(0.26371976 -6.6488247e-12 0)
(0.26371976 -2.1685037e-11 0)
(0.26371976 -2.2038257e-11 0)
(0.26371976 -5.6381813e-11 0)
(0.26371976 -7.1561685e-11 0)
(0.26371976 -1.3563281e-10 0)
(0.26371976 -1.9263784e-10 0)
(0.26371976 -3.6165961e-10 0)
(0.26371976 -4.3804468e-10 0)
(0.26371976 -4.0006892e-10 0)
(0.26371976 -8.115815e-10 0)
)
;

boundaryField
{
    top
    {
        type            fixedValue;
        value           uniform (0 0 0);
    }
    inlet
    {
        type            pressureNormalInletOutletVelocity;
        phi             phi;
        rho             rho;