/*--------------------------------*- C++ -*----------------------------------*\
  =========                 |
  \\      /  F ield         | OpenFOAM: The Open Source CFD Toolbox
   \\    /   O peration     | Website:  https://openfoam.org
    \\  /    A nd           | Version:  6
     \\/     M anipulation  |
\*---------------------------------------------------------------------------*/
FoamFile
{
    version     2.0;
    format      ascii;
    class       volVectorField;
    location    "15";
    object      U_0;
}
// * * * * * * * * * * * * * * * * * * * * * * * * * * * * * * * * * * * * * //

dimensions      [0 1 -1 0 0 0 0];

internalField   nonuniform List<vector> 
9200
(
(0.0014616946 0.0012187582 -6.2731896e-20)
(0.015567313 -0.0029903884 4.9306747e-20)
(0.042490292 -0.0075146757 -4.1086703e-20)
(0.079395052 -0.012154413 -6.4006833e-20)
(0.12437362 -0.016669057 2.0265879e-20)
(0.17613923 -0.020611852 3.4966788e-20)
(0.23355259 -0.023687521 -1.3301669e-20)
(0.29554484 -0.025749002 1.0084298e-20)
(0.36109776 -0.026739395 1.7643442e-20)
(0.42921079 -0.026668332 1.5763635e-21)
(0.49887812 -0.025600132 -2.2919845e-20)
(0.56908251 -0.023642078 2.2244035e-20)
(0.63880298 -0.020932598 -4.3455858e-20)
(0.7070341 -0.017629197 -2.2958181e-20)
(0.77281471 -0.013895631 6.3966436e-21)
(0.83526265 -0.0098909096 -2.7690127e-20)
(0.89362567 -0.00574679 2.8165939e-20)
(0.94740489 -0.0014284804 2.6276617e-20)
(0.99620449 0.0032081916 4.8072277e-22)
(1.0374867 0.0050519053 -6.4413741e-22)
(0.0059981882 -0.0017370789 -1.8067858e-20)
(0.029813509 -0.010392059 4.2326155e-20)
(0.067444371 -0.017095665 2.5152575e-20)
(0.11563557 -0.022287982 -1.2227914e-19)
(0.17215074 -0.026148108 -1.3614124e-20)
(0.23541833 -0.028470074 7.721425e-20)
(0.30399989 -0.029167335 -3.7626256e-20)
(0.3765103 -0.028287645 -8.8597582e-21)
(0.45160692 -0.02595263 3.6423217e-20)
(0.52796851 -0.022338112 -4.6186861e-20)
(0.60428897 -0.017665391 -3.2632509e-20)
(0.67929162 -0.012189537 7.8071249e-20)
(0.75175842 -0.0061859968 4.1617215e-20)
(0.82056858 6.2744511e-05 -7.4764902e-20)
(0.88474125 0.0062788465 1.634465e-20)
(0.94347534 0.012195491 -4.1092078e-20)
(0.99619271 0.017570463 -1.5134417e-20)
(1.0426313 0.02225511 8.1652553e-20)
(1.0827296 0.025889927 3.6297622e-20)
(1.1149202 0.025604906 -9.0021972e-20)
(0.011989199 -0.0045933214 3.8718922e-20)
(0.04791143 -0.017209485 2.6430716e-21)
(0.098076422 -0.02531318 2.388494e-20)
(0.15885983 -0.030109495 1.0323761e-21)
(0.22770165 -0.032285574 -4.3646918e-20)
(0.30271391 -0.031943352 1.9358871e-20)
(0.38211917 -0.029268671 1.4382172e-20)
(0.4641818 -0.024565202 -5.3402245e-20)
(0.5472183 -0.018188958 6.1011576e-20)
(0.62960059 -0.010529562 1.5438859e-20)
(0.70977621 -0.0020009041 -5.8863081e-20)
(0.78630829 0.0069746672 -2.0177869e-20)
(0.85792481 0.015985156 8.8469349e-21)
(0.9235681 0.02464719 2.6080627e-20)
(0.9824362 0.032621437 -1.2950179e-20)
(1.0340082 0.039622377 3.1262747e-20)
(1.0780541 0.045431171 -2.2517422e-20)
(1.1146546 0.049939309 -7.9952609e-20)
(1.1440785 0.052936653 -2.7371465e-20)
(1.1656989 0.052736771 5.3519899e-20)
(0.019528676 -0.0070919417 2.5693972e-20)
(0.069963638 -0.022721342 5.3709818e-20)
(0.13433628 -0.0310903 2.0862312e-20)
(0.20872644 -0.034296596 1.3353429e-20)
(0.29026487 -0.03362602 1.7971367e-20)
(0.37672683 -0.029561261 -5.0212756e-20)
(0.4659792 -0.022627951 -2.7110753e-20)
(0.55594149 -0.013445253 0)
(0.64463076 -0.0026504006 1.5427882e-20)
(0.73019925 0.0091237668 -6.8858907e-21)
(0.81098499 0.021262886 -1.0618663e-19)
(0.88557254 0.033193578 -1.6722521e-20)
(0.95285003 0.044407831 7.2362903e-20)
(1.0120506 0.054483678 -3.0757751e-22)
(1.062771 0.063099373 -1.7593504e-21)
(1.1049625 0.070038969 2.4659703e-20)
(1.1388968 0.07519587 -6.0743066e-21)
(1.1651272 0.078596741 -6.8880305e-20)
(1.1843616 0.080271584 -5.2388811e-20)
(1.1967644 0.079385418 7.6401304e-20)
(0.028636793 -0.0089413576 -4.0390708e-21)
(0.095840959 -0.026153174 -5.3834532e-21)
(0.17577615 -0.033322736 5.9223987e-20)
(0.26433436 -0.033555839 1.9273026e-20)
(0.35837621 -0.028822673 -3.3429252e-20)
(0.45535076 -0.02005951 1.2815542e-20)
(0.55279955 -0.008193754 2.8015949e-21)
(0.6483669 0.0057950543 3.6094104e-20)
(0.73988873 0.02096681 6.1027606e-21)
(0.82546642 0.036451279 -1.4734982e-20)
(0.90353934 0.051468507 6.6777456e-20)
(0.97294906 0.065355935 -6.3080403e-20)
(1.0329798 0.07759244 -1.4599678e-19)
(1.0833658 0.087812383 -6.1963444e-21)
(1.124264 0.095807569 9.2936919e-20)
(1.156194 0.10151689 0)
(1.1799559 0.10501032 1.1273581e-20)
(1.196545 0.10648677 -1.7313904e-20)
(1.2070259 0.10617449 -9.8126278e-21)
(1.2120936 0.10374156 2.3168859e-20)
(0.039239237 -0.0098275385 -5.4584134e-21)
(0.12515235 -0.026722125 4.5424987e-21)
(0.22154554 -0.030966256 -9.1305405e-21)
(0.32427261 -0.026757841 2.9754809e-20)
(0.43000308 -0.016819115 -3.0895845e-20)
(0.53592165 -0.0025996469 -1.7894894e-20)
(0.63934125 0.014531228 3.9138463e-20)
(0.73777735 0.033222235 4.8719046e-21)
(0.82908014 0.052252465 -2.7148512e-20)
(0.91153326 0.070570191 7.5910947e-20)
(0.98392686 0.087315214 -1.7562155e-22)
(1.0455972 0.10184146 -8.9087032e-20)
(1.0964217 0.11372812 0)
(1.1367692 0.12277348 4.4153414e-20)
(1.1674124 0.12897222 6.1886162e-21)
(1.1894154 0.13247966 -8.6132799e-20)
(1.2040135 0.13357183 -2.1771895e-20)
(1.2125035 0.13261887 -1.38185e-20)
(1.216131 0.12999546 -1.6420572e-20)
(1.2158227 0.12566253 4.4887427e-20)
(0.051154569 -0.0094362364 -1.7781139e-20)
(0.1572313 -0.023698774 -2.6691942e-21)
(0.27040668 -0.023129682 3.1467134e-20)
(0.38669029 -0.013050622 3.8822234e-20)
(0.50269065 0.0030330303 -2.0892319e-20)
(0.61545426 0.023130605 -7.3357845e-20)
(0.72223542 0.045432522 -3.0203975e-20)
(0.8206384 0.068256308 8.4763882e-20)
(0.90877846 0.090178875 9.8112198e-21)
(0.98538102 0.1100769 -2.6698481e-20)
(1.0498244 0.1271389 1.4291122e-20)
(1.1021247 0.14086749 -4.9674957e-21)
(1.1428628 0.15106139 0)
(1.1730664 0.15777548 2.9937388e-20)
(1.1940661 0.1612651 -8.7393098e-20)
(1.2073463 0.16192252 -3.4723017e-20)
(1.2144101 0.16021701 8.9360518e-20)
(1.2166748 0.156653 -5.1063991e-21)
(1.2153903 0.15169048 3.8148316e-21)
(1.2114944 0.14545104 3.0346809e-20)
(0.064089201 -0.0074821707 -3.3292014e-20)
(0.19114531 -0.016481635 -8.4785727e-20)
(0.32078601 -0.0091747708 2.137127e-21)
(0.44940935 0.0080365613 7.3495617e-20)
(0.57374661 0.030889651 6.5689206e-20)
(0.69089829 0.056876339 -7.5154931e-20)
(0.79829458 0.083807226 3.2752071e-22)
(0.8938937 0.10977133 9.2600517e-20)
(0.97634411 0.13327897 5.2726194e-20)
(1.045051 0.15328837 -5.9159355e-20)
(1.1001574 0.16918871 -1.0070378e-19)
(1.1424524 0.18076319 -3.4505285e-21)
(1.1732221 0.18812724 4.6061851e-20)
(1.1940721 0.19164713 -7.1973663e-21)
(1.206747 0.19185114 -1.3931376e-20)
(1.2129726 0.18934511 2.1215435e-20)
(1.2143356 0.18474351 4.8042981e-20)
(1.2122094 0.17862593 -4.7774852e-20)
(1.2077179 0.17147597 -1.123663e-19)
(1.201681 0.16349356 2.7545822e-20)
(0.077608177 -0.0037407081 -3.6419904e-20)
(0.22565924 -0.004674592 -1.7863455e-19)
(0.37075333 0.011201214 8.6286992e-20)
(0.50993316 0.036535159 9.7339099e-20)
(0.6402866 0.0664022 6.0890521e-20)
(0.75921742 0.097864817 9.1833323e-21)
(0.86460634 0.12848091 -1.1322754e-19)
(0.95503913 0.15627442 0)
(1.0299348 0.17986936 -7.4914896e-20)
(1.0895474 0.1984804 -1.6674764e-20)
(1.134865 0.21184559 5.9426329e-20)
(1.1674348 0.22013415 1.1919008e-20)
(1.1891505 0.22383339 -4.9536163e-20)
(1.2020384 0.22362778 -5.3168139e-20)
(1.2080723 0.22028662 2.6636928e-20)
(1.2090371 0.21457258 4.9118993e-20)
(1.2064476 0.20717872 -6.0777033e-20)
(1.2015194 0.19869604 -1.1711774e-19)
(1.1951812 0.18958071 -3.0118253e-21)
(1.1880818 0.1800643 2.9398256e-20)
(0.09112013 0.0019370622 -4.0644736e-21)
(0.25924481 0.011900991 9.1229301e-20)
(0.41806688 0.037973879 -1.4819397e-20)
(0.56554181 0.072067774 -8.9473078e-20)
(0.69937921 0.10877046 4.7836207e-20)
(0.81756181 0.14488054 5.1452054e-20)
(0.91869349 0.17790156 5.9430112e-21)
(1.002222 0.20600878 -1.0681939e-19)
(1.0684998 0.22814613 -2.7047688e-21)
(1.1186999 0.24395589 5.467327e-20)
(1.1546282 0.25364364 6.4646304e-21)
(1.1784796 0.25782359 -2.1536064e-20)
(1.192589 0.25735826 -8.1961228e-20)
(1.1992139 0.25321067 -6.5780248e-21)
(1.200377 0.24632585 4.6990922e-20)
(1.1977739 0.23754964 3.9921997e-20)
(1.1927439 0.22758536 2.1039557e-20)
(1.186289 0.21698123 -5.8359184e-20)
(1.1791263 0.20613205 1.282978e-20)
(1.1717293 0.19527868 8.8984356e-20)
(-0.0014141282 0.0015693495 -1.1768504e-21)
(-0.0051817272 0.0034761963 2.23512e-21)
(-0.011739759 0.0045034629 1.0593999e-21)
(-0.019329854 0.0049386722 -2.5411021e-21)
(-0.026916895 0.0049651426 -1.6238652e-21)
(-0.034037141 0.0047053317 1.7542027e-21)
(-0.040398759 0.004247975 -7.659049e-21)
(-0.045809123 0.0036571274 -6.615757e-21)
(-0.050158572 0.0029781433 1.2471043e-20)
(-0.053394406 0.0022427164 -1.0908664e-20)
(-0.055499286 0.0014726109 -1.908629e-22)
(-0.056477358 0.00068235749 4.1872024e-21)
(-0.056345144 -0.00011872061 -6.9211385e-22)
(-0.055125254 -0.00092490413 2.6052575e-20)
(-0.052842342 -0.0017326031 2.8854442e-22)
(-0.049522533 -0.0025387294 -4.7347361e-20)
(-0.045196249 -0.0033400638 8.9110484e-21)
(-0.039888471 -0.0041363762 2.7985474e-20)
(-0.033585859 -0.0049282417 -5.1925745e-20)
(-0.026331223 -0.0056617766 -3.3091767e-20)
(-0.0017999829 0.0045666671 -5.9406078e-21)
(-0.0058677963 0.010093806 1.1705653e-20)
(-0.012171714 0.013056801 -1.1161839e-20)
(-0.019131705 0.014290201 4.4514992e-21)
(-0.025817602 0.014328524 5.4122334e-21)
(-0.031818393 0.013530757 7.9426247e-22)
(-0.036877797 0.012157217 -2.4968238e-20)
(-0.040828058 0.010395733 -2.2756494e-21)
(-0.0435753 0.0083792613 2.2465171e-20)
(-0.045075857 0.0062006651 -5.6310222e-21)
(-0.045316649 0.0039236515 -2.4435906e-20)
(-0.04430265 0.001590668 5.510879e-21)
(-0.042048706 -0.00077116408 2.5387554e-20)
(-0.038573747 -0.0031453415 1.1726331e-20)
(-0.033896514 -0.0055216913 2.5185751e-20)
(-0.028036287 -0.0078918308 -2.2776618e-20)
(-0.021023937 -0.010247057 -2.5050121e-20)
(-0.012892799 -0.012585832 2.5055763e-20)
(-0.0035424729 -0.014897601 3.1507531e-20)
(0.0072858746 -0.016997436 1.8410726e-20)
(-0.0024965203 0.0071448912 -4.8032666e-21)
(-0.0070617546 0.015726641 -6.0020032e-21)
(-0.012798284 0.020290169 3.050667e-22)
(-0.018469616 0.022129607 1.0840026e-21)
(-0.023346806 0.022081254 7.3690548e-21)
(-0.027120276 0.020713482 1.1759293e-20)
(-0.029602991 0.018439468 -4.1007798e-21)
(-0.030676046 0.015557487 -2.0969249e-20)
(-0.030277078 0.012278942 7.2625487e-21)
(-0.028381298 0.0087516613 1.4260731e-20)
(-0.024985799 0.005077112 6.7208256e-21)
(-0.020099666 0.0013228405 2.0108023e-20)
(-0.013737667 -0.0024682086 1.9439674e-21)
(-0.0059157031 -0.0062704551 -3.8027935e-20)
(0.0033534346 -0.010068552 1.6170542e-21)
(0.014057773 -0.013850463 -2.474021e-20)
(0.026161697 -0.017606058 -2.8513459e-20)
(0.03960818 -0.021334483 5.3510949e-20)
(0.054634889 -0.024983999 3.0101826e-20)
(0.072070965 -0.028153001 6.4320382e-22)
(-0.0033716066 0.0090760666 -5.835414e-21)
(-0.0084616143 0.019832156 -9.7190951e-21)
(-0.013242036 0.025471893 4.7368367e-21)
(-0.016944044 0.027617838 4.5497288e-21)
(-0.019115663 0.027332568 2.1964757e-21)
(-0.01958935 0.025351739 8.0139716e-21)
(-0.018276986 0.022212067 1.0180844e-20)
(-0.015131054 0.01830131 -1.4406724e-21)
(-0.010137144 0.013894917 -1.2551912e-20)
(-0.0033015821 0.0091859292 -3.2082404e-20)
(0.0053585004 0.0043071279 1.8021633e-22)
(0.015821274 -0.00065312856 4.5075193e-20)
(0.028063775 -0.0056389802 -2.0177435e-20)
(0.042063733 -0.010617306 -1.3734522e-20)
(0.057803761 -0.015569462 3.059734e-22)
(0.075269448 -0.020483361 3.6609655e-20)
(0.094409543 -0.025354557 -1.7448883e-20)
(0.11511879 -0.03019304 -6.0773199e-20)
(0.13776155 -0.034880457 5.2385757e-20)
(0.16395047 -0.038672295 3.7896449e-20)
(-0.0042498231 0.01020841 -6.6593327e-22)
(-0.0096564744 0.02203397 -1.3642251e-20)
(-0.012976791 0.028082422 -3.7459022e-20)
(-0.01398414 0.03015206 -6.3221382e-21)
(-0.012553836 0.029441269 -3.9209355e-21)
(-0.0086905524 0.026801246 6.8560349e-21)
(-0.0024294365 0.022855798 -4.9883311e-21)
(0.006185144 0.018055563 -9.4204598e-21)
(0.017102359 0.012721433 2.375514e-20)
(0.030269231 0.007078789 5.3343351e-21)
(0.045634485 0.0012831738 -2.8080357e-20)
(0.06314821 -0.0045613149 1.200223e-20)
(0.082761974 -0.010388588 0)
(0.10442853 -0.016160279 1.3351176e-20)
(0.12810433 -0.021856661 -1.0759123e-20)
(0.15374849 -0.027469039 -1.6150178e-20)
(0.18127258 -0.03300735 -9.3116304e-22)
(0.21049155 -0.038513616 -2.8245357e-21)
(0.24182958 -0.043806951 5.1277392e-20)
(0.27779694 -0.047663289 -1.2950139e-20)
(-0.0049327237 0.010475544 -8.1189526e-21)
(-0.010164441 0.022148439 2.6766616e-20)
(-0.011363085 0.027856911 -1.1521243e-20)
(-0.0088717094 0.029422436 -2.9838719e-20)
(-0.0029181335 0.028084972 -2.9841081e-20)
(0.0063010912 0.024755888 -1.6161452e-20)
(0.018608998 0.020105128 -6.7760116e-22)
(0.033850708 0.014615725 5.8755614e-21)
(0.051892987 0.0086326323 2.097302e-20)
(0.072617754 0.0023991892 7.9426953e-21)
(0.095917085 -0.0039162452 -7.7066063e-21)
(0.12168953 -0.010200567 -1.9485227e-21)
(0.14983517 -0.016381876 -4.1658346e-20)
(0.18025159 -0.022419152 -1.3870499e-20)
(0.21283421 -0.028293643 2.1030119e-20)
(0.24747685 -0.034002921 -2.3495444e-20)
(0.2840192 -0.03957851 -9.9475544e-21)
(0.32216167 -0.045120623 3.3154753e-20)
(0.36229026 -0.050429585 5.5774869e-20)
(0.40780305 -0.053711573 3.793595e-21)
(-0.0052162641 0.0098908793 1.7951741e-20)
(-0.0094683853 0.020183833 1.549073e-20)
(-0.0076862463 0.024797945 5.5258633e-20)
(-0.0007743215 0.025440693 2.5343824e-20)
(0.010682424 0.023303698 1.9730348e-22)
(0.026284897 0.019303149 -4.2390688e-20)
(0.045700534 0.014113661 -2.6278796e-20)
(0.068648825 0.0082200592 1.1142106e-20)
(0.094890881 0.0019678534 1.5431731e-20)
(0.12421762 -0.0043988893 -1.3818978e-20)
(0.15643667 -0.010711477 -4.7527536e-20)
(0.19136175 -0.016857318 3.2043675e-20)
(0.22880336 -0.022765957 2.1385145e-20)
(0.2685612 -0.028399421 -2.9857722e-20)
(0.31042201 -0.033744946 1.2821115e-20)
(0.35416247 -0.03881136 2.6356014e-20)
(0.3995034 -0.043658172 8.9944982e-21)
(0.44599696 -0.04846877 -1.3406652e-20)
(0.4938913 -0.05310538 -1.5086097e-20)
(0.54733279 -0.055219329 8.0312634e-21)
(-0.0049020975 0.0085324674 1.1933583e-20)
(-0.0070442655 0.016317172 -2.5472278e-20)
(-0.0011940033 0.019158599 9.0526176e-21)
(0.011212112 0.018533809 3.6253981e-20)
(0.029240424 0.015504024 5.6142647e-20)
(0.052285549 0.010939226 2.1777397e-20)
(0.079846799 0.0054792219 -6.3897952e-21)
(0.11149498 -0.00042240189 -1.2995073e-20)
(0.14686027 -0.0064439465 -6.805925e-21)
(0.18560977 -0.012360235 3.6667695e-20)
(0.22742661 -0.018018496 -5.1790469e-21)
(0.27199365 -0.023320448 -1.8063779e-20)
(0.31898049 -0.028209465 -2.0937315e-20)
(0.3680338 -0.032662264 -5.1199414e-20)
(0.41877458 -0.036683472 2.5029655e-20)
(0.47080564 -0.040304592 -1.5327241e-20)
(0.52368259 -0.043624914 2.8665343e-20)
(0.57679477 -0.046939038 2.3208293e-20)
(0.63019506 -0.050285282 -9.213036e-20)
(0.68853873 -0.050952527 4.0233476e-22)
(-0.0038040361 0.0065257776 2.3382951e-20)
(-0.0023871909 0.010865482 -2.8296314e-20)
(0.0088549583 0.011417518 -4.8284997e-20)
(0.027989698 0.0093290666 -2.9276172e-20)
(0.053750419 0.005458736 -2.1865696e-21)
(0.085317701 0.000581485 1.371424e-20)
(0.12200577 -0.0047366635 -2.836381e-21)
(0.16321227 -0.010105445 1.9215412e-20)
(0.2084008 -0.015254761 9.2743131e-21)
(0.25707053 -0.020002244 -1.2071545e-20)
(0.30872888 -0.024232625 9.8712547e-21)
(0.36287161 -0.0278821 -2.5512393e-20)
(0.41896858 -0.030926884 9.0839733e-21)
(0.47645488 -0.033375754 1.8093712e-20)
(0.5347301 -0.035265196 -2.9566265e-21)
(0.59316984 -0.036659761 1.8234745e-21)
(0.65111592 -0.037701953 -2.8547314e-22)
(0.70778521 -0.03877978 2.1547788e-20)
(0.76303189 -0.040113293 4.3815497e-21)
(0.82177188 -0.039116916 -3.0789411e-21)
(-0.0017478276 0.0040304329 2.5415446e-20)
(0.0049688057 0.0042670243 6.1562589e-20)
(0.0231341 0.0022715699 -5.2687233e-20)
(0.050354652 -0.0012317525 -1.0627892e-20)
(0.085042482 -0.0056600866 2.1458384e-20)
(0.12615675 -0.010380311 2.2741824e-21)
(0.17280495 -0.014940938 -3.1567495e-20)
(0.22417732 -0.019052543 7.2375228e-21)
(0.27952605 -0.022531034 7.783872e-21)
(0.3381304 -0.025269409 -2.8034482e-20)
(0.39926734 -0.027221511 1.4576961e-21)
(0.46219362 -0.028388676 -3.9772758e-20)
(0.52613722 -0.028808652 -3.9208727e-20)
(0.59029646 -0.0285465 7.1263816e-20)
(0.65384692 -0.02768641 6.0875709e-21)
(0.71595394 -0.026329069 -1.6968155e-20)
(0.77576629 -0.024628145 2.1189167e-20)
(0.83235196 -0.022875199 -1.0083625e-21)
(0.8851402 -0.02110202 2.1223697e-20)
(0.93765281 -0.017801919 -2.3136361e-20)
(-0.017613544 -0.0060705709 7.055152e-20)
(-0.0072092554 -0.0068160165 1.8893741e-20)
(0.0050591362 -0.0074720467 -4.2996434e-20)
(0.018848967 -0.0079562287 2.14333e-20)
(0.033919658 -0.0083649691 0)
(0.050277532 -0.0087309261 0)
(0.067938357 -0.0090552087 -3.0302819e-20)
(0.086896936 -0.0093444066 -2.1972123e-20)
(0.10716065 -0.009607047 2.6821837e-20)
(0.12875188 -0.0098479782 2.5754001e-20)
(0.15169829 -0.010069226 1.3225831e-21)
(0.17602793 -0.010271205 -1.4691316e-20)
(0.20176638 -0.010452752 1.3423214e-20)
(0.22893238 -0.01061111 2.6823431e-20)
(0.25753277 -0.010742184 -9.3796261e-21)
(0.28755735 -0.010840873 -1.5070067e-20)
(0.31897412 -0.010901433 -6.3492482e-21)
(0.35172487 -0.010917888 -5.7329774e-21)
(0.38572163 -0.010884487 7.8503026e-22)
(0.42084425 -0.010796149 1.9078522e-21)
(0.45693934 -0.010648873 4.5822665e-21)
(0.49382076 -0.010440053 9.1438393e-21)
(0.53127153 -0.010168637 -1.0397025e-21)
(0.56904678 -0.0098351092 -4.1555079e-21)
(0.60687712 -0.0094412237 -1.4078701e-22)
(0.64447143 -0.0089895407 -5.0854723e-22)
(0.68151803 -0.0084828304 8.5151599e-22)
(0.71768347 -0.0079235884 1.189815e-23)
(0.75260955 -0.0073140129 -1.1446337e-21)
(0.78591134 -0.0066568474 2.0747722e-22)
(0.81718162 -0.0059572718 -9.8565968e-22)
(0.84600878 -0.005225493 1.6977029e-22)
(0.87201333 -0.0044789488 -6.7534231e-23)
(0.89490089 -0.0037425848 3.2839527e-22)
(0.91451942 -0.0030460378 1.3878568e-22)
(0.93089954 -0.0024179653 3.0251736e-22)
(0.94425819 -0.0018795273 -3.5123305e-22)
(0.95495927 -0.0014399036 -4.2102973e-22)
(0.96344429 -0.001095826 -1.1721782e-22)
(0.97015912 -0.00083490808 7.0686528e-23)
(0.97550027 -0.00064066485 -8.002797e-23)
(0.97979029 -0.00049683157 8.5431357e-23)
(0.98327604 -0.00038976994 -1.1187488e-22)
(0.98614218 -0.00030909358 -1.4042242e-22)
(0.98851899 -0.00024738883 3.7183732e-23)
(0.99051794 -0.00019942852 5.1230831e-23)
(0.9921748 -0.00016194316 1.1711169e-23)
(0.99366361 -0.00013183415 5.330236e-24)
(0.99468491 -0.0001099392 -8.0203507e-25)
(0.99624395 -8.2868311e-05 1.6985333e-23)
(0.017763023 -0.018080654 -1.5959939e-20)
(0.027464775 -0.020310813 -7.6397441e-20)
(0.039557151 -0.022229394 -3.8342651e-20)
(0.053126988 -0.023619158 4.8406566e-20)
(0.067789634 -0.024798093 1.877004e-20)
(0.083636143 -0.025862824 -2.4464097e-20)
(0.10071311 -0.026807976 7.3482307e-21)
(0.11901168 -0.027651018 3.3865901e-20)
(0.13854048 -0.028417699 -1.1072245e-21)
(0.15932606 -0.029122041 -1.1306549e-20)
(0.18139784 -0.029769458 -1.643892e-20)
(0.20478405 -0.030360933 -1.3691216e-20)
(0.22951024 -0.030892973 2.5958443e-20)
(0.25559529 -0.031357419 1.7942019e-20)
(0.28304658 -0.031742174 -2.2355396e-20)
(0.31185526 -0.032032203 -9.1050309e-21)
(0.3419918 -0.032210571 4.1039299e-21)
(0.37340198 -0.032259647 1.1274921e-20)
(0.40600342 -0.032162431 1.1166006e-20)
(0.43968334 -0.031903884 -1.3025921e-20)
(0.47429756 -0.031472124 -7.9882193e-21)
(0.50967087 -0.030859368 4.9819947e-21)
(0.54559886 -0.030062426 4.3067819e-21)
(0.58185072 -0.029082646 2.4165256e-21)
(0.61817245 -0.027925164 1.0501555e-21)
(0.65428961 -0.026597518 -1.1334337e-21)
(0.68990845 -0.025107869 -1.2880109e-21)
(0.72471462 -0.023463497 2.5047074e-21)
(0.75836992 -0.021670651 1.4147864e-21)
(0.7905095 -0.01973694 -1.7050851e-21)
(0.82074483 -0.017676905 8.2399537e-22)
(0.84867943 -0.015519767 1.0961133e-22)
(0.8739428 -0.013316159 -4.5849314e-22)
(0.89624125 -0.011139234 -1.5359572e-23)
(0.91541406 -0.0090765684 -4.3560668e-22)
(0.93147463 -0.0072134529 -6.9805485e-22)
(0.94461673 -0.0056134583 2.9385988e-22)
(0.95517897 -0.0043048774 1.3792445e-22)
(0.96357927 -0.0032790414 1.3181889e-22)
(0.97024419 -0.0024999865 -7.6423681e-23)
(0.97555629 -0.001919274 2.5132638e-22)
(0.97982911 -0.0014888401 1.3143841e-23)
(0.98330421 -0.0011682242 9.9660729e-24)
(0.98616337 -0.00092651887 2.2493268e-23)
(0.98853536 -0.00074160771 5.1489447e-23)
(0.99053083 -0.00059786288 5.8108608e-23)
(0.99218511 -0.00048551027 -1.9570259e-23)
(0.9936719 -0.00039524392 -2.9311458e-23)
(0.99469187 -0.00032965193 3.5425769e-23)
(0.99624924 -0.0002484568 6.9578196e-23)
(0.085691887 -0.029556073 1.1579538e-20)
(0.093947146 -0.033203851 4.6866792e-21)
(0.10548313 -0.036261708 -1.6934104e-20)
(0.11848928 -0.038408427 -2.4058764e-21)
(0.13223886 -0.040244752 1.9958918e-20)
(0.14698288 -0.04192922 -1.9255858e-20)
(0.16283934 -0.043430418 -4.047703e-20)
(0.17978952 -0.044770135 2.0732396e-20)
(0.19784114 -0.045991334 2.6266658e-20)
(0.21702856 -0.047116256 -1.7102872e-20)
(0.23738434 -0.048152251 1.4615494e-21)
(0.25893633 -0.049100253 9.9555402e-21)
(0.28170938 -0.049954562 -2.4548671e-20)
(0.30572209 -0.050702066 1.0704699e-20)
(0.33098227 -0.051323329 1.3469155e-20)
(0.35748299 -0.051794179 -4.8656738e-21)
(0.3851988 -0.052087347 -2.8526934e-21)
(0.4140822 -0.052174356 -1.4378943e-20)
(0.44406062 -0.052027634 1.2714993e-20)
(0.47503432 -0.051622662 1.6531745e-20)
(0.50687545 -0.050939931 -7.2881736e-21)
(0.53942832 -0.049966492 -3.215254e-21)
(0.57251098 -0.048696827 -3.8281157e-23)
(0.60591774 -0.047132823 -3.6117193e-21)
(0.63942217 -0.045282626 1.4744523e-21)
(0.67277978 -0.043158407 6.7209571e-22)
(0.70572912 -0.040773397 6.0085997e-21)
(0.73799057 -0.038139241 -5.4749169e-21)
(0.76926269 -0.03526541 5.6213912e-21)
(0.79921807 -0.032162752 9.6665616e-22)
(0.82750366 -0.02885238 2.9446923e-21)
(0.85375238 -0.025378493 -1.3378709e-22)
(0.8776121 -0.021820025 1.6569442e-21)
(0.89879205 -0.01829343 -1.691774e-21)
(0.91711668 -0.014940393 4.4295616e-22)
(0.93256801 -0.01190097 8.0713423e-22)
(0.94529679 -0.0092815604 -2.0673947e-22)
(0.95559405 -0.0071318986 -4.7391114e-22)
(0.9638329 -0.0054412872 8.4005919e-23)
(0.9704031 -0.0041536556 6.717451e-23)
(0.97566046 -0.0031915015 4.5586627e-23)
(0.97990117 -0.0024770023 3.0804809e-22)
(0.98335658 -0.0019441209 -9.7526802e-23)
(0.98620295 -0.0015420938 -6.9216772e-23)
(0.98856615 -0.0012344175 5.8885823e-23)
(0.9905553 -0.00099518919 1.0355095e-23)
(0.9922049 -0.00080821039 4.9333721e-23)
(0.993688 -0.00065792733 1.9644568e-23)
(0.99470552 -0.00054888476 -3.1926856e-23)
(0.99625978 -0.00041361098 -2.7785991e-23)
(0.18144852 -0.039914224 2.2897494e-21)
(0.18744094 -0.044849896 -1.292516e-20)
(0.19775114 -0.048861423 7.0778625e-21)
(0.20964978 -0.051578495 -1.6457755e-20)
(0.22184782 -0.053938236 -2.4854084e-21)
(0.23479243 -0.056149712 1.2908505e-20)
(0.24872514 -0.058134726 -1.5289009e-20)
(0.26361253 -0.059910088 7.2573671e-23)
(0.27945352 -0.061533639 1.7583315e-20)
(0.29629194 -0.063034582 6.2925886e-21)
(0.31416446 -0.06442073 -8.8267144e-21)
(0.3330969 -0.065692088 -5.932765e-21)
(0.35311137 -0.066840847 -5.9430212e-21)
(0.37422448 -0.067849754 -1.1543373e-20)
(0.3964431 -0.068693188 1.0860101e-21)
(0.4197612 -0.069339177 -3.6219941e-21)
(0.44415712 -0.069751514 4.0642e-21)
(0.46959073 -0.06989219 -5.4141636e-21)
(0.49600085 -0.069724161 -1.0682417e-20)
(0.52330348 -0.069214207 5.8020688e-21)
(0.55139086 -0.068335603 9.0035817e-21)
(0.58013159 -0.067070273 -6.1887587e-21)
(0.60937187 -0.065410097 3.9638478e-21)
(0.63893762 -0.063357019 -2.3162591e-21)
(0.66863723 -0.060921676 -1.1606336e-20)
(0.69826406 -0.058120443 -4.8239183e-21)
(0.72759786 -0.054971336 -1.7904243e-21)
(0.75640374 -0.05149003 -1.2138497e-21)
(0.78442837 -0.047688387 -2.1863457e-21)
(0.81139452 -0.043578491 -3.7027381e-21)
(0.83699809 -0.039184213 -2.8210486e-23)
(0.86091429 -0.034558861 -2.2924934e-21)
(0.88281965 -0.029802238 -7.9430288e-22)
(0.90243178 -0.025066386 -8.6685589e-22)
(0.91955923 -0.020540839 4.1207563e-22)
(0.93414462 -0.016417112 -1.1958444e-21)
(0.94628184 -0.012844709 -1.1410407e-21)
(0.95619737 -0.0098981517 2.9707644e-22)
(0.9642023 -0.0075698245 4.6827071e-24)
(0.97063467 -0.0057889185 -1.5439654e-22)
(0.97581219 -0.0044533995 3.9183648e-22)
(0.9800061 -0.0034589159 -1.4419305e-22)
(0.98343291 -0.0027158436 -3.8186686e-22)
(0.98626076 -0.0021546329 1.244013e-22)
(0.98861126 -0.0017249033 -1.5463027e-23)
(0.99059128 -0.0013906801 3.5810624e-23)
(0.99223411 -0.001129468 3.1455872e-23)
(0.99371186 -0.00091940374 -1.6209739e-23)
(0.99472582 -0.00076730852 -2.3972058e-23)
(0.99627555 -0.00057804338 4.328873e-23)
(0.29908997 -0.048297211 -2.4988743e-20)
(0.30188104 -0.054383498 5.546925e-20)
(0.31000086 -0.059136611 1.1911272e-20)
(0.32000344 -0.062257872 -1.9269926e-20)
(0.32987786 -0.065043007 -3.5328605e-21)
(0.34023461 -0.067718407 2.1306852e-21)
(0.35148604 -0.07014594 -3.3927819e-21)
(0.36358914 -0.072329653 -6.1339497e-21)
(0.37652085 -0.07433492 -5.4057255e-21)
(0.3903306 -0.076195226 -1.6845916e-20)
(0.40505909 -0.077918383 2.7821789e-20)
(0.42072771 -0.079502971 1.1327767e-20)
(0.43735222 -0.080939149 -2.4830459e-20)
(0.45494398 -0.0822066 1.1780931e-20)
(0.473506 -0.083275203 8.7096657e-21)
(0.49303054 -0.084107077 2.9854123e-21)
(0.51349747 -0.084659006 -1.8287091e-21)
(0.53487224 -0.08488526 -1.0644102e-20)
(0.55710398 -0.084740846 -4.5185499e-21)
(0.58012396 -0.084184957 -4.1427152e-21)
(0.60384469 -0.083184272 -9.29178e-21)
(0.62815984 -0.081715718 0)
(0.65294503 -0.079768279 -4.2741458e-21)
(0.67805947 -0.077343401 7.1664492e-21)
(0.7033483 -0.074453604 1.2632273e-20)
(0.72864504 -0.071119057 -8.8825326e-22)
(0.75377329 -0.067362449 -9.5807973e-21)
(0.77854639 -0.063203543 1.0406528e-20)
(0.80276394 -0.058656284 -2.948245e-21)
(0.82620557 -0.053732424 8.0443618e-21)
(0.84862478 -0.048454801 2.7090817e-23)
(0.86974925 -0.042879288 1.8826381e-21)
(0.88929449 -0.037117649 -1.499846e-21)
(0.90699493 -0.031347755 1.3639649e-21)
(0.92264773 -0.025798592 -9.7290917e-22)
(0.93615526 -0.020708193 2.2465843e-23)
(0.94754834 -0.016268708 4.3370837e-22)
(0.95697861 -0.012583063 2.8417951e-22)
(0.96468325 -0.0096528205 -4.0878642e-22)
(0.97093712 -0.0073991096 2.1165928e-22)
(0.97601064 -0.0057011418 -1.4468584e-23)
(0.98014338 -0.0044322361 -4.4945444e-22)
(0.98353282 -0.0034818156 4.1917671e-22)
(0.98633654 -0.0027629799 6.9961787e-23)
(0.98867051 -0.0022121719 -2.0097716e-23)
(0.99063865 -0.0017836236 1.0368044e-23)
(0.99227266 -0.0014487176 -3.8806093e-23)
(0.99374341 -0.0011791978 -5.87336e-23)
(0.99475275 -0.00098459791 -1.0705519e-23)
(0.99629649 -0.00074146638 -1.3448133e-23)
(0.43197698 -0.05348698 -2.112507e-20)
(0.43056183 -0.060680688 1.4448114e-20)
(0.43533121 -0.066024102 4.8719181e-21)
(0.44245539 -0.069487369 -9.2653671e-21)
(0.44917215 -0.072698186 1.4799602e-20)
(0.45614393 -0.075846919 9.773127e-21)
(0.46396827 -0.078740459 -1.4987225e-20)
(0.47261565 -0.081371389 -7.8973141e-21)
(0.4820288 -0.083800531 1.6875821e-20)
(0.49224941 -0.086059253 -2.3728532e-20)
(0.50331877 -0.088155425 -1.9502341e-20)
(0.51525163 -0.090086908 2.412183e-20)
(0.52805316 -0.091842334 1.0139592e-20)
(0.54172495 -0.093399652 -1.2161747e-20)
(0.55626217 -0.094726376 9.8398759e-22)
(0.57165166 -0.09578117 -2.3706137e-21)
(0.58787117 -0.096516278 3.9059638e-21)
(0.60488835 -0.096880557 5.880713e-21)
(0.62265943 -0.096823046 -4.0326686e-21)
(0.64112801 -0.096296841 4.9447754e-21)
(0.66022425 -0.095262941 6.7625084e-21)
(0.67986449 -0.093693597 -7.3569277e-21)
(0.69995158 -0.09157469 5.6216606e-22)
(0.72037588 -0.088906605 -4.2973039e-21)
(0.74101706 -0.085703097 2.4106941e-20)
(0.76174641 -0.081987711 1.5092102e-20)
(0.78242889 -0.077787883 4.5911848e-21)
(0.80292376 -0.073128006 -3.2706859e-21)
(0.8230821 -0.068024631 1.2541675e-20)
(0.84274069 -0.062488683 1.9392507e-20)
(0.86171367 -0.056539194 2.999683e-21)
(0.87978725 -0.050228627 6.9167633e-21)
(0.89672468 -0.043671603 2.4061364e-21)
(0.91228718 -0.037061026 1.2975877e-21)
(0.9262695 -0.030655333 2.0224554e-22)
(0.93853961 -0.024732455 2.705419e-21)
(0.94906664 -0.019525495 3.9025801e-22)
(0.95792444 -0.015168858 4.2844547e-23)
(0.9652701 -0.011679552 -2.2911427e-23)
(0.97130809 -0.0089779332 7.030331e-22)
(0.97625463 -0.0069310032 -4.9612951e-23)
(0.9803123 -0.0053946445 3.4208084e-22)
(0.98365584 -0.0042404711 7.6684946e-23)
(0.98642993 -0.003365991 -2.8446726e-22)
(0.98874365 -0.0026953406 -5.9436215e-23)
(0.99069725 -0.0021733155 -9.998591e-23)
(0.99232045 -0.0017653996 3.2373072e-23)
(0.99378257 -0.0014368366 -2.674861e-23)
(0.99478624 -0.0012004319 9.7760962e-25)
(0.9963225 -0.00090359076 8.2481934e-23)
(0.57278569 -0.05421411 3.3024446e-21)
(0.56634258 -0.062530042 -2.0872701e-20)
(0.5666159 -0.068410361 -2.9460962e-21)
(0.56985152 -0.072338793 6.3477541e-21)
(0.5726814 -0.07613884 4.415038e-21)
(0.57562725 -0.079887003 1.421305e-21)
(0.57942073 -0.0833612 9.578985e-21)
(0.5840897 -0.086559757 1.0320026e-20)
(0.58954733 -0.089530818 1.2373281e-20)
(0.59580696 -0.092295371 -1.5769335e-20)
(0.60290006 -0.094860218 -3.2237326e-20)
(0.61083249 -0.09722403 -7.7099875e-21)
(0.61959596 -0.099375519 2.5382686e-20)
(0.62917803 -0.10129279 2.0741422e-20)
(0.63956212 -0.10294354 -7.1360069e-21)
(0.65072598 -0.1042859 -1.5085891e-21)
(0.66264157 -0.10527054 -9.6779878e-21)
(0.67527479 -0.1058437 1.0917306e-20)
(0.68858496 -0.10595089 -4.7678003e-22)
(0.70252397 -0.10554104 -4.0586927e-21)
(0.71703546 -0.10457076 2.0233223e-20)
(0.73205429 -0.10300831 -2.842217e-21)
(0.74750631 -0.10083649 3.0096841e-21)
(0.76330869 -0.098054191 1.5554107e-21)
(0.77937102 -0.094675763 -9.6007473e-21)
(0.79559726 -0.090727658 9.0664096e-21)
(0.81188801 -0.086242151 1.7818017e-21)
(0.8281422 -0.081249094 -6.2542183e-21)