/*--------------------------------*- C++ -*----------------------------------*\
  =========                 |
  \\      /  F ield         | OpenFOAM: The Open Source CFD Toolbox
   \\    /   O peration     | Website:  https://openfoam.org
    \\  /    A nd           | Version:  6
     \\/     M anipulation  |
\*---------------------------------------------------------------------------*/
FoamFile
{
    version     2.0;
    format      ascii;
    class       surfaceScalarField;
    location    "122";
    object      phi;
}
// * * * * * * * * * * * * * * * * * * * * * * * * * * * * * * * * * * * * * //

dimensions      [0 3 -1 0 0 0 0];

internalField   nonuniform List<scalar> 
18180
(
0.00031873548
-0.00016317247
-0.00015556302
0.001309236
-0.0013669669
0.00037646642
0.0030329446
-0.0033337234
0.0016100148
0.0055498765
-0.0059761283
0.0034591964
0.0089183605
-0.0092393274
0.0058708434
0.013193051
-0.013079868
0.0088051773
0.018422271
-0.017460282
0.012231063
0.024645038
-0.022346354
0.016123587
0.031887921
-0.027703994
0.020461111
0.040161959
-0.033496615
0.025222577
0.04945998
-0.039683383
0.030385362
0.059754672
-0.046218293
0.035923601
0.070997818
-0.053050073
0.041806927
0.083121152
-0.060122946
0.047999613
0.096039439
-0.067378331
0.054460044
0.10965632
-0.074757616
0.061140736
0.12387232
-0.082205822
0.067989822
0.13860008
-0.089675907
0.074948145
0.15383817
-0.097150741
0.081912649
-0.10462795
0.088680923
0.1697852
0.00039750416
-0.00056067664
0.0016096228
-0.0025790855
0.0036893814
-0.005413482
0.0066875568
-0.0089743037
0.01065083
-0.0132026
0.015618126
-0.018047164
0.021616606
-0.023458763
0.028657708
-0.029387455
0.036733506
-0.035779792
0.045813821
-0.04257693
0.05584448
-0.049714043
0.066747105
-0.057120918
0.07842066
-0.064723628
0.090744855
-0.072447142
0.1035852
-0.080218673
0.11679907
-0.08797149
0.13024193
-0.095648685
0.14377409
-0.10320807
0.15725961
-0.11063626
-0.11786376
0.17049543
0.00048063134
-0.001041308
0.0019187291
-0.0040171833
0.0043525474
-0.0078473003
0.0078166843
-0.012438441
0.012337852
-0.017723768
0.017929472
-0.023638785
0.024586603
-0.030115893
0.032281659
-0.037082512
0.040961387
-0.04445952
0.050545563
-0.052161106
0.060927796
-0.060096276
0.071978607
-0.068171728
0.083550652
-0.076295673
0.095485693
-0.084382183
0.10762257
-0.092355549
0.11980511
-0.10015403
0.13188879
-0.10773237
0.14374417
-0.11506345
0.15524927
-0.12214136
-0.12891601
0.16630151
0.00056617833
-0.0016074863
0.0022279755
-0.0056789804
0.0050006836
-0.010620008
0.0088941362
-0.016331893
0.013905449
-0.02273508
0.020012147
-0.029745484
0.027166834
-0.03727058
0.035293845
-0.045209523
0.044288364
-0.053454039
0.054018353
-0.061891095
0.06432935
-0.070407273
0.075051794
-0.078894173
0.086010197
-0.087254075
0.097033151
-0.095405138
0.10796307
-0.10328547
0.11866449
-0.11085545
0.12903007
-0.11809795
0.13898327
-0.12501664
0.14847506
-0.13163316
-0.13794675
0.15750581
0.00065089546
-0.0022583818
0.0025243761
-0.0075524611
0.0056037088
-0.013699341
0.0098645914
-0.020592776
0.0152648
-0.028135288
0.021736666
-0.03621735
0.029182807
-0.044716721
0.037475284
-0.053502
0.046458447
-0.062437202
0.055955323
-0.07138797
0.065776937
-0.080228887
0.075733513
-0.088850749
0.085646187
-0.097166749
0.095357808
-0.10511676
0.10474154
-0.1126692
0.11370642
-0.11982032
0.12219946
-0.126591
0.13020452
-0.1330217
0.13773781
-0.13916644
-0.14506897
0.14486002
0.00073064538
-0.0029890272
0.0027921212
-0.0096139369
0.006126648
-0.017033868
0.010666835
-0.025132963
0.016322829
-0.033791282
0.022975479
-0.042870001
0.030474718
-0.05221596
0.038642732
-0.061670014
0.047281551
-0.071076021
0.056184107
-0.080290525
0.065147247
-0.089192027
0.073984924
-0.097688426
0.082539747
-0.10572157
0.090691482
-0.11326849
0.098361532
-0.12033925
0.10551326
-0.12697205
0.11214862
-0.13322636
0.11830209
-0.13917517
0.12403317
-0.14489752
-0.15046455
0.12942875
0.00080074079
-0.003789768
0.0030139503
-0.011827146
0.0065329648
-0.020552882
0.011240166
-0.029840164
0.016992858
-0.039543974
0.02361875
-0.049495893
0.030918457
-0.059515666
0.038673582
-0.06942514
0.046659042
-0.079061481
0.054657651
-0.088289134
0.062474674
-0.097009051
0.069950111
-0.10516386
0.076967039
-0.1127385
0.083455079
-0.11975653
0.089388979
-0.12627315
0.094783064
-0.13236613
0.09968293
-0.13812623
0.10415599
-0.14364823
0.10828247
-0.149024
-0.15433469
0.11215261
0.00085606801
-0.004645836
0.0031720929
-0.014143171
0.0067872903
-0.02416808
0.011529904
-0.034582777
0.017203571
-0.045217642
0.023586716
-0.055879037
0.030440061
-0.066369011
0.037519517
-0.076504596
0.044591971
-0.086133935
0.051451139
-0.095148302
0.05793071
-0.10348862
0.063912779
-0.11114593
0.069330557
-0.11815628
0.074165504
-0.12459148
0.078439957
-0.1305476
0.082206925
-0.1361331
0.085538976
-0.14145828
0.08851792
-0.14662718
0.091226604
-0.15173268
-0.15685306
0.093744975
0.000890271
-0.005536107
0.0032483122
-0.016501212
0.0068576782
-0.027777446
0.011492549
-0.039217648
0.016906919
-0.050632012
0.02283902
-0.061811138
0.029023796
-0.072553787
0.035209361
-0.082690161
0.041174005
-0.092098579
0.04674042
-0.10071472
0.05178461
-0.10853281
0.056238279
-0.1155996
0.060084917
-0.12200292
0.063350926
-0.12785749
0.06609379
-0.13329047
0.068389528
-0.13842884
0.070321293
-0.14339005
0.071970504
-0.14827639
0.073411093
-0.15317327
-0.15814861
0.074706644
0.0008998259
-0.0064359329
0.0032334052
-0.018834792
0.0067292099
-0.031273251
0.011111242
-0.04359968
0.016092563
-0.055613333
0.021384702
-0.067103277
0.02671395
-0.077883035
0.031839151
-0.087815362
0.036567073
-0.096826501
0.040762196
-0.10490984
0.044349323
-0.11211994
0.047309113
-0.11855939
0.049668078
-0.12436188
0.051485393
-0.1296748
0.05283901
-0.13464408
0.053813211
-0.13940304
0.054489009
-0.14406584
0.054938027
-0.14872541
0.055219664
-0.15345491
0.055380008
-0.15830896
-0.00020238202
0.00020238207
-6.6416687e-11
-0.00067775848
0.0004753765
-8.2339426e-11
-0.0013424487
0.00066469026
-9.5118654e-11
-0.0021323292
0.00078988062
-1.0551523e-10
-0.0029958206
0.00086349141
-1.0652984e-10
-0.0038907995
0.00089497898
-1.0060453e-10
-0.0047823652
0.00089156579
-9.0245132e-11
-0.0056409704
0.00085860525
-7.8802737e-11
-0.0064409506
0.00079998019
-6.6953761e-11
-0.007159373
0.00071842249
-5.6253948e-11
-0.0077751186
0.0006157456
-4.6271663e-11
-0.0082681463
0.00049302768
-3.7052306e-11
-0.0086189134
0.00035076719
-2.8152898e-11
-0.0088079426
0.00018902921
-1.8920642e-11
-0.0088155662
7.6236023e-06
-9.3537121e-12
-0.0086219503
-0.00019361597
1.3702229e-12
-0.0082073582
-0.00041459211
1.2623672e-11
-0.0075517456
-0.00065561266
2.5339745e-11
-0.0066343544
-0.00091739122
3.862907e-11
-0.0011863239
-0.0054480305
5.2544993e-11
-0.00018797777
0.00039035983
-0.00062501751
0.00091241621
-0.001228773
0.0012684457
-0.0019352242
0.0014963318
-0.0026921785
0.0016204457
-0.0034563315
0.0016591319
-0.0041911205
0.0016263547
-0.0048649149
0.0015323996
-0.0054495788
0.0013846441
-0.0059193355
0.0011881792
-0.0062498523
0.00094626235
-0.0064174984
0.00066067373
-0.0063987402
0.00033200903
-0.0061696625
-4.0048552e-05
-0.0057056428
-0.00045639612
-0.0049812715
-0.00091798723
-0.0039705679
-0.0014252958
-0.0026469003
-0.0019792802
-0.0009828369
-0.0025814546
-0.0032020027
0.0010328419
-0.00015893029
0.00054929012
-0.00051889889
0.0012723848
-0.0010007834
0.0017503301
-0.0015412783
0.0020368266
-0.0020873726
0.0021665399
-0.0025937591
0.0021655184
-0.0030208895
0.0020534851
-0.0033333074
0.0018448175
-0.0034983026
0.0015496392
-0.0034848348
0.0011747114
-0.00326265
0.00072407754
-0.0028015605
0.00019958421
-0.0020708112
-0.0003987403
-0.0010385656
-0.0010722941
0.00032852328
-0.001823485
0.0020655899
-0.0026550539
0.0042095156
-0.0035692215
0.0067986225
-0.0045683872
0.0098726049
-0.005655437
-0.0067801434
0.013450746
-0.00011756823
0.00066685837
-0.0003670019
0.0015218184
-0.0006735184
0.0020568466
-0.00097482978
0.002338138
-0.0012168543
0.0024085644
-0.001351586
0.0023002501
-0.0013354376
0.0020373367
-0.0011277853
0.0016371652
-0.0006897726
0.0011116264
1.6642225e-05
0.00046829653
0.00102947
-0.00028875021
0.0023873376
-0.0011582834
0.0041300334
-0.0021414362
0.0062989888
-0.0032412495
0.0089377839
-0.0044622802
0.012092705
-0.0058099748
0.015813118
-0.0072896347
0.020151169
-0.0089064386
0.025161573
-0.01066584
-0.012493271
0.0308747
-6.6907633e-05
0.00073376601
-0.00017916526
0.001634076
-0.00026652877
0.0021442101
-0.00026767878
0.0023392879
-0.00012716875
0.0022680543
0.00020621175
0.0019668695
0.00078076567
0.0014627827
0.0016430579
0.00077487298
0.0028388851
-8.4200719e-05
0.0044140612
-0.0011068796
0.0064149815
-0.0022896705
0.0088890385
-0.0036323405
0.011884948
-0.0051373454
0.015453077
-0.0068093789
0.019645821
-0.0086550245
0.024518222
-0.010682375
0.030128844
-0.012900257
0.036540288
-0.015317882
0.043819953
-0.017945505
-0.020683489
0.052010171
-9.9833432e-06
0.00074374936
3.4540926e-05
0.0015895518
0.00019990533
0.0019788456
0.00054679593
0.0019923973
0.0011322995
0.0016825507
0.0020110643
0.0010881047
0.003236264
0.000237583
0.0048604808
-0.00084934386
0.006936363
-0.0021600829
0.0095169992
-0.0036875158
0.012656127
-0.0054287981
0.016408236
-0.0073844501
0.020828499
-0.0095576079
0.025972603
-0.011953483
0.031896659
-0.014579081
0.038657497
-0.017443213
0.046313849
-0.020556609
0.054928415
-0.023932449
0.064571691
-0.027588782
-0.031406863
0.075295065
5.0753765e-05
0.0006929956
0.00026566813
0.0013746374
0.00070827915
0.0015362346
0.0014390773
0.0012615992
0.0025168984
0.00060472947
0.0039996863
-0.00039468308
0.0059450881
-0.0017078188
0.0084108441
-0.0033150999
0.011454918
-0.0052041565
0.015135464
-0.0073680623
0.019510563
-0.0098038968
0.024637689
-0.012511576
0.03057298
-0.015492899
0.037370334
-0.018750838
0.04508048
-0.022289226
0.053750429
-0.026113162
0.063424291
-0.030230471
0.074146663
-0.034654821
0.085971576
-0.039413695
-0.04439007
0.098954784
0.0001137998
0.0005791958
0.0005085178
0.0009799194
0.001246016
0.00079873643
0.00238684
0.00012077515
0.0039913429
-0.00099977338
0.0061200298
-0.00252337
0.008833539
-0.004421328
0.012192465
-0.0066740258
0.016256953
-0.0092686449
0.021085955
-0.012197064
0.02673619
-0.015454131
0.033260817
-0.019036203
0.040707848
-0.02293993
0.049118344
-0.027161334
0.058524513
-0.031695395
0.068948085
-0.036536735
0.080400138
-0.041682524
0.092884207
-0.047138889
0.10640779
-0.052937275
-0.058997477
0.12101519
0.00017850024
0.00040069555
0.00076004791
0.00039837174
0.0018053806
-0.00024659624
0.0033747902
-0.0014486344
0.005529119
-0.0031541022
0.0083295035
-0.0053237544
0.011836749
-0.0079285738
0.016110409
-0.010947685
0.0212075
-0.014365736
0.027180884
-0.018170449
0.034077339
-0.022350586
0.041935355
-0.026894219
0.050782708
-0.031787284
0.060633823
-0.037012448
0.071486919
-0.042548491
0.083321005
-0.04837082
0.09609367
-0.054455188
0.10974242
-0.060787642
0.12419817
-0.067393025
-0.074276578
0.13947727
0.00024513253
0.0010199707
0.0023833893
0.0043939513
0.0071106925
0.010592115
0.014894604
0.020070506
0.026165881
0.033218009
0.041252785
0.050282167
0.060301811
0.071288975
0.083200528
0.095970443
0.10950508
0.12366558
0.1381852
0.15258955
-0.0035072928
-0.0019407378
9.1050977e-11
-0.0012853794
-0.0022219135
1.1617011e-10
0.0011953754
-0.002480755
1.428098e-10
0.0038780718
-0.0026826966
1.697744e-10
0.0067359064
-0.0028578348
1.9673158e-10
0.0097515739
-0.0030156677
2.228997e-10
0.01290614
-0.0031545667
2.438989e-10
0.016181584
-0.0032754437
2.5987952e-10
0.019562203
-0.0033806197
2.6881574e-10
0.02303378
-0.0034715775
2.688674e-10
0.02658303
-0.0035492495
2.563981e-10
0.030197527
-0.0036144974
2.2918465e-10
0.03386563
-0.0036681029
1.8406668e-10
0.037576342
-0.0037107129
1.198398e-10
0.041319215
-0.0037428723
3.4771464e-11
0.045084276
-0.0037650608
-7.0530807e-11
0.048861986
-0.0037777098
-1.9560097e-10
0.052643202
-0.003781216
-3.3698759e-10
0.056419159
-0.0037759561
-4.9067419e-10
0.060181457
-0.0037622982
-6.4890284e-10
0.063922068
-0.0037406103
-8.0301814e-10
0.067633336
-0.0037112669
-9.4026147e-10
0.07130799
-0.0036746528
-1.0474571e-09
0.074939156
-0.0036311653
-1.1077097e-09
0.078520372
-0.0035812141
-1.1056877e-09
0.082045593
-0.0035252207
-1.0240809e-09
0.08550921
-0.0034636156
-8.51318e-10
0.088906046
-0.0033968357
-5.7717937e-10
0.092231367
-0.0033253208
-2.0375907e-10
0.095480876
-0.0032495098
2.6139658e-10
0.098650713
-0.0031698375
7.9102044e-10
0.10173744
-0.0030867308
1.3508295e-09
0.10473805
-0.0030006065
1.8824467e-09
0.10764991
-0.0029118689
2.3269738e-09
0.11047082
-0.0028209087
2.6056403e-09
0.11319892
-0.0027281028
2.6593375e-09
0.11583273
-0.0026338155
2.4241071e-09
0.11837113
-0.0025384009
1.8880957e-09
0.12081334
-0.0024422101
1.053699e-09
0.12315893
-0.0023455922
3.9886369e-12
0.12540787
-0.0022489365
-1.1561844e-09
0.12756047
-0.0021525978
-2.2524485e-09
0.12961775
-0.0020572715
-3.1079044e-09
0.1315807
-0.0019629489
-3.5241532e-09
0.13345347
-0.0018727675
-3.3686627e-09
0.1352346
-0.0017811327
-2.6023109e-09
0.13694867
-0.0017140674
-1.2330723e-09
0.13855151
-0.0016028328
4.4469746e-10
0.14024428
-0.0016927756
2.4149499e-09
-0.0013380278
3.6758862e-09
0.0028535712
-0.0037614671
0.0049508462
-0.0043191886
0.0072938497
-0.0048237585
0.0098201388
-0.0052089856
0.012508652
-0.0055463484
0.015347066
-0.0058540816
0.01831864
-0.0061261404
0.021406967
-0.0063637711
0.02459803
-0.0065716826
0.027879067
-0.0067526141
0.031237946
-0.0069081286
0.034663187
-0.0070397385
0.038143934
-0.00714885
0.041669842
-0.0072366204
0.045230993
-0.0073040233
0.048817855
-0.007351923
0.05242125
-0.0073811052
0.056032335
-0.0073923011
0.059642592
-0.0073862127
0.063243828
-0.0073635346
0.066828186
-0.0073249685
0.070388154
-0.0072712349
0.073916581
-0.0072030794
0.077406691
-0.0071212755
0.080852102
-0.007026625
0.084246836
-0.006919954
0.087585329
-0.0068021092
0.090862444
-0.0066739509
0.09407347
-0.0065363465
0.097214123
-0.0063901622
0.10028054
-0.0062362572
0.10326929
-0.0060754757
0.10617732
-0.0059086424
0.10900201
-0.0057365583
0.1117411
-0.0055599975
0.11439271
-0.0053797077
0.1169553
-0.0051964123
0.11942772
-0.0050108151
0.12180912
-0.0048236152
0.12409904
-0.0046355073
0.12629737
-0.0044472688
0.12840438
-0.0042596073
0.13042102
-0.0040739112
0.13234824
-0.0038901665
0.13419009
-0.0037146161
0.13594512
-0.0035361696
0.13763745
-0.0034063971
0.13922395
-0.0031893262
0.14090058
-0.0033694117
-0.0026735949
0.015022203
-0.0053329244
0.016853436
-0.0061504218
0.01890712
-0.0068774426
0.021113326
-0.0074151917
0.02346042
-0.0078934426
0.025944751
-0.008338412
0.0285537
-0.0087350894
0.031273788
-0.0090838594
0.034093916
-0.0093918102
0.037003853
-0.0096625518
0.039993481
-0.0098977565
0.043052939
-0.010099197
0.046172704
-0.010268615
0.049343522
-0.010407438
0.052556363
-0.010516864
0.055802417
-0.010597977
0.059073096
-0.010651784
0.062360039
-0.010679244
0.065655124
-0.010681298
0.068950489
-0.010658899
0.072238548
-0.010613027
0.075512014
-0.010544701
0.078763926
-0.010454991
0.081987665
-0.010345014
0.085176976
-0.010215936
0.088325984
-0.010068962
0.091429208
-0.0099053337
0.094481572
-0.0097263146
0.097478405
-0.0095331797
0.10041545
-0.0093272069
0.10328885
-0.0091096622
0.10609517
-0.008881793
0.10883135
-0.0086448185
0.11149471
-0.0083999233
0.11408297
-0.0081482548
0.11659418
-0.0078909215
0.11902677
-0.0076289981
0.12137949
-0.0073635313
0.12365143
-0.0070955627
0.12584206
-0.0068261295
0.12795118
-0.006556394
0.12997899
-0.0062874161
0.13192635
-0.0060212706
0.13379414
-0.0057579545
0.13558625
-0.0055067326
0.13730135
-0.0052512642
0.13896256
-0.0050676088
0.14052909
-0.0047558572
0.14218631
-0.0050266305
-0.0040174036
0.032058118
-0.0065163426
0.033473452
-0.0075657554
0.035079103
-0.0084830942
0.036802097
-0.009138185
0.038643118
-0.0097344639
0.040608465
-0.010303759
0.042690968
-0.010817592
0.044881104
-0.011273995
0.047171297
-0.011682003
0.04955432
-0.012045575
0.052022467
-0.012365903
0.054567782
-0.012644512
0.057182255
-0.012883088
0.059857844
-0.013083027
0.062586489
-0.013245509
0.065360146
-0.013371634
0.068170836
-0.013462474
0.071010682
-0.01351909
0.073871952
-0.013542569
0.076747098
-0.013534045
0.079628789
-0.013494717
0.082509946
-0.013425859
0.085383777
-0.013328823
0.088243804
-0.013205041
0.091083885
-0.013056016
0.093898235
-0.012883312
0.096681445
-0.012688544
0.09942849
-0.01247336
0.10213474
-0.012239426
0.10479595
-0.011988416
0.10740827
-0.011721988
0.10996826
-0.01144178
0.11247283
-0.011149391
0.11491929
-0.01084638
0.11730529
-0.010534256
0.11962885
-0.01021448
0.12188832
-0.0098884695
0.1240824
-0.0095576093
0.12621011
-0.0092232784
0.12827084
-0.0088868541
0.13026433
-0.0085498811
0.13219068
-0.0082137725
0.13405069
-0.0078812814
0.13584518
-0.00755244
0.13757786
-0.0072394121
0.13924757
-0.0069209741
0.14087607
-0.0066961117
0.14242604
-0.00630583
0.14406759
-0.006668174
-0.0053853548
0.052650592
-0.0071567636
0.053491314
-0.0084064766
0.054485571
-0.0094773516
0.055567678
-0.010220292
0.056752453
-0.010919239
0.058054191
-0.011605497
0.059471402
-0.012234804
0.060999221
-0.012801814
0.062633436
-0.013316219
0.064369453
-0.013781591
0.066201749
-0.0141982
0.068124057
-0.01456682
0.070129614
-0.014888644
0.072211318
-0.015164731
0.074361823
-0.015396014
0.076573619
-0.01558343
0.078839113
-0.015727968
0.081150713
-0.01583069
0.083500893
-0.015892749
0.085882251
-0.015915403
0.088287563
-0.015900029
0.090709829
-0.015848125
0.093142313
-0.015761307
0.095578575
-0.015641303
0.098012504
-0.015489946
0.10043834
-0.015309145
0.10285068
-0.015100884
0.10524451
-0.014867188
0.10761519
-0.014610112
0.10995849
-0.014331715
0.11227055
-0.014034047
0.11454789
-0.013719124
0.11678743
-0.013388927
0.11898643
-0.01304538
0.12114252
-0.012690351
0.12325369
-0.01232565
0.12531826
-0.011953035
0.12733487
-0.011574225
0.12930253
-0.011190938
0.13122057
-0.01080489
0.1330887
-0.01041801
0.13490699
-0.010032068
0.1366762
-0.0096504867
0.13839712
-0.0092733652
0.14007332
-0.0089156116
0.14170393
-0.0085515831
0.14330904
-0.0083012187
0.14485575
-0.0078525393
0.14649526
-0.008307685
-0.0068006949
0.075224169
-0.0070858679
0.075329255
-0.008511563
0.075553755
-0.0097018512
0.075854186
-0.010520723
0.076258584
-0.011323637
0.076783803
-0.012130716
0.077432879
-0.01288388
0.078205743
-0.013574678
0.079100705
-0.014211181
0.080114616
-0.014795503
0.081243235
-0.015326818
0.082481265
-0.015804851
0.083822525
-0.016229904
0.085260235
-0.016602441
0.086787219
-0.016922999
0.088396027
-0.017192237
0.090079041
-0.017410981
0.091828584
-0.017580233
0.093637014
-0.017701179
0.095496795
-0.017775185
0.097400564
-0.017803797
0.099341179
-0.01778874
0.10131177
-0.017731902
0.10330579
-0.01763532
0.10531701
-0.017501165
0.10733957
-0.017331709
0.10936801
-0.017129317
0.11139722
-0.016896404
0.11342254
-0.016635425
0.11543966
-0.016348838
0.1174447
-0.01603909
0.11943417
-0.015708593
0.12140495
-0.015359708
0.12335431
-0.014994736
0.12527987
-0.014615909
0.12717961
-0.014225392
0.12905186
-0.013825289
0.1308953
-0.01341766
0.13270893
-0.013004566
0.13449211
-0.01258807
0.13624459
-0.01217049
0.13796648
-0.011753961
0.13965856
-0.011342566
0.14132171
-0.010936514
0.14295937
-0.010553279
0.14457112
-0.010163325
0.14617518
-0.00990528
0.14774382
-0.0094211805
0.14940689
-0.0099707569
-0.0082955431
0.098027896
-0.0061589799
0.097260736
-0.0077444034
0.096584565
-0.00902568
0.096000256
-0.0099364137
0.095543938
-0.01086732
0.095226846
-0.011813623
0.095054345
-0.01271138
0.095030441
-0.013550774
0.095154667
-0.014335407
0.095423759
-0.015064594
0.095833356
-0.015736416
0.096378051
-0.016349546
0.09705136
-0.016903213
0.09784605
-0.017397132
0.09875444
-0.017831389
0.099768559
-0.018206356
0.10088027
-0.018522694
0.1020814
-0.018781358
0.10336381
-0.018983589
0.10471951
-0.019130892
0.10614074
-0.01922502
0.10761996
-0.01926796
0.10914997
-0.019261913
0.11072391
-0.019209265
0.11233531
-0.019112562
0.11397809
-0.018974485
0.11564658
-0.018797807
0.11733555
-0.018585377
0.1190402
-0.018340077
0.12075616
-0.018064796
0.12247948
-0.017762408
0.12420663
-0.01743574
0.12593448
-0.017087564
0.12766032
-0.016720576
0.1293818
-0.016337392
0.13109696
-0.015940548
0.13280418
-0.015532513
0.13450223
-0.015115704
0.1361902
-0.014692539
0.13786757
-0.014265439
0.13953421
-0.013837125
0.14119036
-0.013410112
0.14283693
-0.012989142
0.14447499
-0.01257457
0.14610796
-0.012186256
0.14773597
-0.01179133
0.14937535
-0.011544663
0.15100401
-0.011049834
0.15272923
-0.011695985
-0.0099116619
0.11919164
-0.0043354256
0.11749913
-0.0060518978
0.11585972
-0.0073862679
0.11435731
-0.0084339995
0.11302813
-0.0095381426
0.1118697
-0.010655193
0.11088749
-0.011729165
0.11008777
-0.012751056
0.10946996
-0.013717597
0.10902946
-0.014624099
0.10876047
-0.015467426
0.10865633
-0.016245399
0.10870943
-0.016956315
0.10891147
-0.017599174
0.10925373
-0.018173646
0.10972726
-0.01867989
0.11032304
-0.019118476
0.11103207
-0.019490385
0.11184546
-0.019796978
0.11275453
-0.020039965
0.11375088
-0.020221372
0.11482644
-0.020343513
0.11597349
-0.020408963
0.11718474
-0.020420516
0.11845333
-0.02038116
0.11977288
-0.020294028
0.12113744
-0.020162373
0.12254158
-0.019989516
0.12398033
-0.019778822
0.12544919
-0.019533659
0.12694415
-0.019257367
0.12846164
-0.018953236
0.12999856
-0.018624483
0.13155222
-0.018274233
0.13312035
-0.017905523
0.13470109
-0.017521289
0.13629297
-0.01712439
0.13789489
-0.016717628
0.13950615
-0.016303799
0.14112642
-0.015885711
0.1427558
-0.015466502
0.14439478
-0.015049088
0.14604451
-0.014638872
0.14770634
-0.014236401
0.14938382
-0.013863743
0.15107774
-0.013485243
0.15280259
-0.013269517
0.15454216
-0.0127894
0.15638107
-0.013534896
-0.011700396
0.13689837
-0.0017565245
0.13438049
-0.0035340158
0.13182201
-0.0048277896
0.12946505
-0.0060770332
0.1273368
-0.007409895
0.12541864
-0.0087370392
0.12371342
-0.010023936
0.1222262
-0.011263841
0.12095545
-0.012446847
0.11989539
-0.013564042
0.11903852
-0.014610557
0.1183765
-0.015583372
0.11790032
-0.016480136
0.11760046
-0.017299316
0.11746706
-0.018040245
0.1174901
-0.018702933
0.11765958
-0.019287948
0.11796556
-0.019796368
0.11839832
-0.020229743
0.11894841
-0.020590056
0.11960671
-0.020879672
0.1203645
-0.021101299
0.12121349
-0.021257954
0.12214588
-0.021352907
0.12315437
-0.021389651
0.12423219
-0.021371844
0.12537309
-0.021303273
0.12657138
-0.021187804
0.1278219
-0.021029343
0.12912003
-0.020831793
0.13046169
-0.020599022
0.13184329
-0.020334832
0.13326174
-0.020042936
0.13471445
-0.019726939
0.13619926
-0.019390336
0.13771448
-0.01903651
0.13925884
-0.018668749
0.14083148
-0.018290268
0.14243196
-0.017904282
0.14406026
-0.01751401
0.1457168
-0.017123038
0.14740241
-0.016734705
0.14911863
-0.016355091
0.15086721
-0.015984974
0.15265193
-0.015648462
0.15447433
-0.015307652
0.15634722
-0.015142404
0.15826036
-0.014702541
0.16027614
-0.015550674
-0.013721775
0.15005409
0.00077893255
0.14676521
-0.00024513588
0.14346795
-0.0015305289
0.14042026
-0.0030293405
0.13762546
-0.0046150957
0.1350773
-0.0061888781
0.13277761
-0.0077242499
0.13072648
-0.0092127141
0.12892148
-0.010641842
0.1273574
-0.011999958
0.12602641
-0.01327957
0.12491911
-0.014476077
0.12402533
-0.015586357
0.12333441
-0.016608394
0.12283536
-0.017541199
0.12251708
-0.018384653
0.1223685
-0.019139362
0.12237869
-0.019806564
0.12253702
-0.020388065
0.12283314
-0.020886184
0.12325717
-0.021303696
0.12379965
-0.021643779
0.12445166
-0.021909962
0.12520482
-0.022106071
0.12605135
-0.022236178
0.12698405
-0.022304542
0.12799634
-0.022315563
0.12908226
-0.022273724
0.13023646
-0.022183546
0.1314542
-0.022049537
0.13273134
-0.02187616
0.1340643
-0.021667792
0.13545007
-0.021428704
0.13688616
-0.021163036
0.13837063
-0.020874798
0.13990198
-0.020567864
0.14147923
-0.020245997
0.14310183
-0.019912872
0.14476971
-0.019572157
0.14648321
-0.019227516
0.14824319
-0.018883016
0.15005093
-0.018542446
0.15190843
-0.018212584
0.1538179
-0.01789445
0.15578355
-0.017614111
0.15780761
-0.017331709
0.15990174
-0.017236541
0.16206016
-0.01686096
0.16432807
-0.017818581
-0.016040731
0.18891178
0.0053809076
-0.19351376
0.18510186
0.0035647794
0.18170996
0.0018613798
0.17856496
0.00011565334
0.17562954
-0.0016796742
0.17287866
-0.0034379968
0.17029409
-0.0051396851
0.16786685
-0.0067854734
0.16559306
-0.0083680449
0.16347055
-0.0098774506
0.16149747
-0.011306492
0.15967171
-0.012650319
0.15799063
-0.013905278
0.15645094
-0.015068703
0.15504872
-0.016138977
0.1537795
-0.017115432
0.15263836
-0.017998217
0.15161999
-0.018788201
0.15071884
-0.019486909
0.14992911
-0.02009646
0.14924493
-0.020619509
0.14866033
-0.021059178
0.14816937
-0.021419007
0.14776618
-0.021702884
0.147445
-0.021914991
0.1472002
-0.022059743
0.14702636
-0.022141722
0.14691826
-0.022165628
0.14687093
-0.022136219
0.14687966
-0.02205826
0.14693998
-0.02193648
0.14704772
-0.021775536
0.147199
-0.021579979
0.1473902
-0.021354238
0.14761801
-0.021102607
0.14787939
-0.020829248
0.1481716
-0.020538211
0.14849219
-0.020233459
0.14883899
-0.019918953
0.14921013
-0.019598657
0.14960408
-0.019276969
0.15001963
-0.018957994
0.15045604
-0.018648991
0.15091281
-0.018351222
0.15139061
-0.018091913
0.15188931
-0.017830413
0.15241352
-0.01776075
0.15295881
-0.01740625
0.15354871
-0.018408478
-0.016638674
0.21686057
0.0087791135
-0.22025877
0.21338681
0.0070385357
0.21017413
0.0050740597
0.20706896
0.0032208286
0.2040225
0.0013667782
0.20106573
-0.00048122554
0.19821553
-0.002289479
0.1954764
-0.0040463458
0.19285425
-0.0057458971
0.19035592
-0.0073791151
0.18798659
-0.0089371695
0.18574968
-0.010413408
0.18364718
-0.011802773
0.18167978
-0.013101307
0.17984696
-0.014306153
0.17814708
-0.015415557
0.17657761
-0.016428747
0.17513523
-0.017345821
0.17381599
-0.01816767
0.17261544
-0.018895909
0.17152873
-0.019532801
0.17055074
-0.020081185
0.16967614
-0.020544408
0.16889951
-0.020926249
0.16821537
-0.021230856
0.1676183
-0.021462668
0.16710293
-0.021626354
0.16666404
-0.021726742
0.16629658
-0.02176876
0.1659957
-0.021757374
0.16575676
-0.021697542
0.16557539
-0.021594167
0.16544748
-0.021452065
0.16536918
-0.021275939
0.16533693
-0.021070362
0.16534747
-0.020839786
0.16539781
-0.020588551
0.16548527
-0.020320916
0.16560746
-0.020041147
0.16576232
-0.019753522
0.16594813
-0.019462771
0.1661635
-0.019173364
0.16640746
-0.018892952
0.16667955
-0.018623311
0.16697966
-0.018392023
0.16730905
-0.018159809
0.16766705
-0.01811875
0.1680619
-0.017801096
0.16847598
-0.018822559
-0.017117978
0.24376929
0.011502949
-0.24649313
0.24091898
0.0098888486
0.2380659
0.0079271426
0.23521907
0.0060676572
0.23234141
0.0042444403
0.22945373
0.0024064469
0.22658727
0.00057698367
0.22376132
-0.0012203903
0.22099179
-0.0029763671
0.21829462
-0.0046819473
0.21568367
-0.0063262231
0.21316995
-0.0078996829
0.21076206
-0.0093948823
0.20846656
-0.010805809
0.20628809
-0.012127682
0.20422953
-0.013356996
0.20229223
-0.014491452
0.20047625
-0.015529834
0.19878049
-0.016471909
0.19720292
-0.017318345
0.19574074
-0.01807062
0.1943905
-0.018730942
0.19314824
-0.019302155
0.19200966
-0.019787662
0.19097014
-0.02019134
0.19002493
-0.020517454
0.18916915
-0.020770582
0.18839795
-0.020955537
0.18770648
-0.021077295
0.18709003
-0.021140923
0.18654402
-0.021151528
0.18606405
-0.021114197
0.18564595
-0.021033961
0.18528577
-0.020915762
0.18497984
-0.020764432
0.18472475
-0.020584694
0.18451737
-0.020381173
0.18435488
-0.020158427
0.18423476
-0.019921025
0.18415481
-0.019673571
0.18411317
-0.019421128
0.18410837
-0.019168566
0.18413926
-0.018923843
0.18420546
-0.018689514
0.18430611
-0.018492675
0.18444398
-0.018297671
0.18461272
-0.018287494
0.18483424
-0.018022621
0.1850449
-0.019033213
-0.017456163
0.2692768
0.013535799
-0.27130965
0.26710886
0.012056784
0.26476721
0.01026879
0.26232811
0.0085067636
0.25979948
0.0067730632
0.25719152
0.0050144067
0.25453035
0.003238158
0.25184013
0.0014698257
0.24914087
-0.00027710762
0.24645238
-0.0019934503
0.24379393
-0.0036677794
0.24118268
-0.0052884285
0.23863334
-0.0068455451
0.23615841
-0.0083308793
0.23376819
-0.0097374564
0.23147083
-0.011059637
0.22927252
-0.012293143
0.22717766
-0.013434973
0.22518905
-0.014483299
0.22330808
-0.015437381
0.22153494
-0.01629748
0.21986876
-0.01706476
0.2183078
-0.017741192
0.21684959
-0.018329458
0.21549111
-0.018832855
0.21422886
-0.019255203
0.21305902
-0.019600747
0.21197756
-0.019874075
0.2109803
-0.020080028
0.210063
-0.020223624
0.20922145
-0.020309986
0.20845154
-0.020344283
0.20774925
-0.020331673
0.20711076
-0.020277272
0.20653245
-0.02018612
0.20601093
-0.020063175
0.20554308
-0.019913321
0.20512605
-0.019741397
0.2047573
-0.019552271
0.2044346
-0.019350871
0.20415605
-0.019142584
0.20392019
-0.018932707
0.20372578
-0.018729431
0.20357255
-0.018536287
0.20345907
-0.018379194
0.20338931
-0.018227903
0.20335211
-0.018250297
0.20338078
-0.018051292
0.20337019
-0.019022622
-0.017630983
0.29298729
0.014866863
-0.29431835
0.29150813
0.013535943
0.28978572
0.011991193
0.28788719
0.010405301
0.28584738
0.0088128699
0.28367712
0.0071846665
0.28139482
0.0055204591
0.27902372
0.0038409245
0.27658513
0.0021614857
0.2740992
0.00049247567
0.27158614
-0.0011547223
0.26906568
-0.0027679662
0.26655614
-0.0043360018
0.26407411
-0.0058488478
0.26163433
-0.0072976772
0.25924957
-0.0086748757
0.25693058
-0.0099741626
0.2546862
-0.011190593
0.25252341
-0.012320501
0.25044747
-0.013361443
0.24846211
-0.014312126
0.24656967
-0.01517232
0.24477125
-0.015942771
0.2430669
-0.016625099
0.24145574
-0.017221697
0.23993616
-0.017735629
0.23850595
-0.018170531
0.23716238
-0.018530508
0.23590239
-0.018820043
0.23472267
-0.0190439
0.23361973
-0.01920705
0.23259004
-0.019314592
0.23163006
-0.01937169
0.23073632
-0.019383531
0.22990548
-0.019355279
0.22913437
-0.019292066
0.22842003
-0.019198987
0.22775976
-0.019081125
0.22715111
-0.018943623
0.22659196
-0.018791721
0.22608049
-0.018631115
0.22561532
-0.018467535
0.22519524
-0.018309345
0.22482012
-0.018161169
0.22448817
-0.018047248
0.22420421
-0.01794394
0.22395341
-0.017999498
0.22377745
-0.017875336
0.22353741