/*--------------------------------*- C++ -*----------------------------------*\
  =========                 |
  \\      /  F ield         | OpenFOAM: The Open Source CFD Toolbox
   \\    /   O peration     | Website:  https://openfoam.org
    \\  /    A nd           | Version:  6
     \\/     M anipulation  |
\*---------------------------------------------------------------------------*/
FoamFile
{
    version     2.0;
    format      ascii;
    class       volSymmTensorField;
    location    "122";
    object      UPrime2Mean;
}
// * * * * * * * * * * * * * * * * * * * * * * * * * * * * * * * * * * * * * //

dimensions      [0 2 -2 0 0 0 0];

internalField   nonuniform List<symmTensor> 
9200
(
(0.00016196749 -0.00012572884 5.9074685e-22 0.00010091669 -3.1617549e-22 9.5307562e-39)
(0.00099612912 -0.00079796853 1.5047752e-21 0.0006416599 -1.1230532e-21 1.0365706e-38)
(0.0020079854 -0.0015595618 1.9039962e-22 0.0012181145 -1.4339864e-22 5.684478e-39)
(0.0031561273 -0.002291217 -2.2575643e-21 0.0016815064 1.5892203e-21 1.1326706e-38)
(0.0042805544 -0.0029376813 1.0143567e-22 0.0020501388 -8.6071785e-23 1.6614957e-39)
(0.0053025073 -0.0034700388 9.420387e-22 0.0023239655 -6.2761656e-22 2.5850612e-40)
(0.006168463 -0.0038786401 -2.0047769e-22 0.0025129326 1.399453e-22 7.528301e-40)
(0.0068361819 -0.004164879 1.8236247e-22 0.0026334303 -1.2378739e-22 5.0706732e-40)
(0.0072774912 -0.0043354413 9.1378858e-22 0.0027011458 -5.568126e-22 1.4459598e-39)
(0.0074791888 -0.0043997496 7.0775849e-23 0.0027293815 -4.3431827e-23 4.1174383e-42)
(0.0074428992 -0.0043687601 -9.7869149e-22 0.0027290889 6.0548556e-22 7.7474232e-40)
(0.0071846652 -0.0042542145 8.1686124e-22 0.0027090116 -5.2513664e-22 1.0461023e-40)
(0.0067336666 -0.0040681654 -1.4534507e-21 0.0026758989 9.8901138e-22 1.6565025e-39)
(0.006129755 -0.0038226865 -7.351819e-22 0.0026347949 5.1064509e-22 1.0432926e-40)
(0.0054199091 -0.0035296849 1.9047594e-22 0.0025893504 -1.42845e-22 1.3417276e-41)
(0.0046539432 -0.0032007377 -7.1489187e-22 0.0025421233 5.6663072e-22 1.3949717e-40)
(0.0038798364 -0.002846942 6.2575102e-22 0.0024949866 -5.3847619e-22 1.6966228e-40)
(0.0031392041 -0.0024789397 4.6157749e-22 0.0024504252 -4.1640295e-22 7.0254415e-40)
(0.0024665242 -0.0021064567 -1.7163373e-23 0.0024117701 3.6130724e-23 1.3004372e-40)
(0.0018988343 -0.0017366234 -1.0182989e-23 0.0023555794 3.24377e-23 1.6118902e-40)
(0.00021355937 -0.00014275814 6.2018941e-23 9.8012051e-05 -2.3922914e-23 1.67393e-40)
(0.0012691015 -0.00088026155 1.5944544e-21 0.00061241804 -1.0372735e-21 1.106008e-38)
(0.0025149756 -0.0016947098 -5.2247762e-22 0.0011482519 3.5008402e-22 6.0094224e-39)
(0.0038430318 -0.0024440082 -4.0487557e-21 0.0015711977 2.5343296e-21 2.6204359e-38)
(0.0050685518 -0.0030771375 -1.368064e-22 0.0019005063 8.7463042e-23 3.3071185e-40)
(0.0061012445 -0.0035690212 3.1204827e-21 0.0021394446 -1.8465209e-21 8.6655906e-39)
(0.0068869356 -0.0039162174 -1.2771542e-21 0.0023007916 7.4948881e-22 2.9402866e-40)
(0.0073925577 -0.0041270809 -3.8589902e-22 0.0024022241 2.2462566e-22 1.0644254e-40)
(0.0076066971 -0.0042147617 1.4622699e-21 0.0024597824 -8.5786939e-22 8.1062443e-40)
(0.0075386211 -0.0041942679 -1.770131e-21 0.0024865096 1.0574075e-21 9.2819715e-40)
(0.0072160939 -0.0040811249 -1.2539807e-21 0.0024925859 7.6912287e-22 1.1514056e-39)
(0.0066823472 -0.0038906063 2.7029094e-21 0.0024855627 -1.7279304e-21 5.8522372e-39)
(0.0059917834 -0.0036373498 1.2574245e-21 0.0024706618 -8.5739634e-22 4.048509e-40)
(0.0052045499 -0.003335227 -1.9767736e-21 0.0024511255 1.4426183e-21 2.0111524e-39)
(0.0043806168 -0.0029973344 3.5360575e-22 0.0024285555 -2.7896708e-22 1.6846392e-40)
(0.0035741762 -0.0026360074 -7.8507908e-22 0.0024032095 6.9580284e-22 4.4510865e-40)
(0.0028290772 -0.0022628114 -3.2569631e-22 0.002374325 3.4081159e-22 1.4093963e-40)
(0.0021757906 -0.0018883144 9.8831464e-22 0.0023405345 -1.1307487e-21 2.2750361e-39)
(0.0016317865 -0.0015209766 4.6712515e-22 0.002297749 -6.3978743e-22 4.286267e-40)
(0.0012078446 -0.001169291 -1.9725673e-22 0.0022249042 2.505403e-22 3.2904016e-39)
(0.00027174235 -0.0001547932 -5.1724846e-22 9.0164728e-05 2.2035108e-22 4.3109039e-39)
(0.0015596296 -0.00092766609 -8.600423e-22 0.00055321213 4.7779532e-22 4.4946397e-39)
(0.0030346311 -0.0017586233 -9.8392691e-22 0.0010248463 5.7302017e-22 1.1234702e-38)
(0.0045132167 -0.0024920521 3.2398593e-23 0.0013916282 -1.7841321e-23 1.2176392e-42)
(0.0057905003 -0.0030840301 5.245048e-23 0.0016731016 -2.4088147e-23 8.0704573e-39)
(0.0067717649 -0.0035161159 1.0954698e-21 0.0018756556 -5.8588791e-22 2.2560601e-39)
(0.0074121568 -0.0037925548 1.0100602e-22 0.0020137518 -5.1164654e-23 9.3428869e-40)
(0.0076990035 -0.0039287908 -1.8436322e-21 0.0021048045 9.9681591e-22 5.8798101e-40)
(0.0076484031 -0.0039436324 2.1799233e-21 0.0021636595 -1.2099418e-21 1.1138629e-39)
(0.0073007134 -0.0038562181 7.1690839e-22 0.0022016559 -4.182362e-22 1.2349267e-39)
(0.00671472 -0.0036848193 -1.9669021e-21 0.0022269147 1.2009825e-21 2.5400571e-39)
(0.0059607871 -0.0034463701 -6.1468986e-22 0.0022447063 4.032212e-22 8.3275809e-40)
(0.0051131676 -0.0031564616 2.2644234e-22 0.0022578759 -1.5860834e-22 2.2608276e-39)
(0.0042422966 -0.0028295702 5.295475e-22 0.0022673095 -4.1713468e-22 3.2265944e-40)
(0.0034081899 -0.0024793016 -1.8371004e-22 0.0022723995 1.6245834e-22 2.4821683e-40)
(0.0026559034 -0.0021185087 4.2920658e-22 0.0022715002 -4.3824418e-22 1.9369697e-40)
(0.0020135708 -0.0017592297 -2.9614997e-22 0.0022623668 3.5654422e-22 7.3634796e-41)
(0.0014929594 -0.0014123766 -5.9527183e-22 0.0022424173 8.486181e-22 1.8265462e-39)
(0.0010922841 -0.0010869931 -1.5682555e-23 0.0022083286 1.7071489e-23 1.6583174e-39)
(0.00080136771 -0.00079136392 2.0491478e-22 0.0021532002 -4.6136796e-22 1.844096e-40)
(0.00033454082 -0.00016005436 -4.1067525e-22 7.8082052e-05 1.51409e-22 2.1412604e-39)
(0.0018526641 -0.00093222745 6.221053e-22 0.00047020678 -3.0537548e-22 3.9734077e-40)
(0.0035354371 -0.0017402702 5.5274866e-22 0.00086173073 -2.7295928e-22 4.6206437e-40)
(0.0051207345 -0.0024263437 1.2091202e-21 0.0011639455 -5.7800012e-22 4.988722e-39)
(0.0063914393 -0.0029559683 1.0591901e-21 0.0013957227 -5.0450374e-22 2.2185367e-39)
(0.0072590726 -0.0033191142 -1.8511761e-21 0.0015655907 8.841911e-22 1.6892474e-39)
(0.0077003997 -0.0035275409 -1.0331072e-21 0.0016879909 5.0307978e-22 4.8043686e-40)
(0.0077346584 -0.0036020878 0 0.0017783206 0 0)
(0.0074140847 -0.0035647678 1.1242543e-21 0.0018486999 -6.1687252e-22 6.2153792e-39)
(0.0068141368 -0.0034361696 -4.856597e-22 0.0019074985 2.9027941e-22 2.3548211e-39)
(0.0060229414 -0.0032348546 -2.8417455e-21 0.0019597864 1.7194202e-21 2.0477743e-39)
(0.0051306524 -0.0029775184 -3.6460749e-22 0.0020078364 2.3281596e-22 4.2030653e-40)
(0.0042196697 -0.0026794987 1.3878974e-21 0.0020516819 -1.0540464e-21 2.8155134e-39)
(0.0033570109 -0.0023552643 8.2188255e-23 0.0020897239 -5.3763567e-23 1.1718802e-39)
(0.0025898629 -0.0020186266 -2.1287291e-23 0.0021193566 2.1379331e-23 8.1432257e-43)
(0.0019446499 -0.0016825924 2.2765083e-22 0.0021375982 -2.7114254e-22 1.4331835e-40)
(0.0014292089 -0.0013589218 2.8568456e-24 0.0021416357 3.9820879e-24 1.6964732e-40)
(0.0010370731 -0.0010575597 -4.0047647e-22 0.0021290742 6.9917512e-22 4.3080542e-40)
(0.0007524416 -0.00078605755 -2.2033038e-22 0.0020989382 4.8401447e-22 3.0163186e-40)
(0.00055523475 -0.00054972782 1.0693078e-22 0.0020546494 -3.5157297e-22 1.9266403e-39)
(0.00039906644 -0.00015703237 3.0978338e-22 6.2902512e-05 -9.8689764e-23 8.4242414e-40)
(0.002129632 -0.00088887355 1.2896104e-21 0.00037189613 -5.1441054e-22 7.5900139e-39)
(0.0039820103 -0.001635239 1.0052498e-21 0.00067604733 -4.150615e-22 4.779385e-40)
(0.0056189704 -0.002247985 1.1228321e-21 0.00091230638 -4.5969354e-22 2.668881e-39)
(0.0068225923 -0.0027033208 -1.7220425e-21 0.0010977343 7.1415602e-22 4.2036572e-39)
(0.0075238296 -0.0029995659 6.2956349e-23 0.0012414819 -2.03686e-23 4.0017695e-40)
(0.0077335142 -0.0031536567 9.7779973e-23 0.0013561421 -4.2921685e-23 3.3484569e-42)
(0.0075116803 -0.0031882901 1.388206e-21 0.0014535822 -6.5270806e-22 1.4990962e-39)
(0.0069501716 -0.0031250337 1.8675657e-22 0.001542072 -9.3430674e-23 1.3437962e-41)
(0.0061567203 -0.0029828452 -4.9935825e-22 0.0016262172 2.8743657e-22 8.1244611e-40)
(0.0052401033 -0.0027784533 1.6168702e-21 0.001707523 -1.0215934e-21 5.6563686e-39)
(0.0042975776 -0.0025272216 -1.177862e-21 0.0017850103 7.896525e-22 4.7834725e-40)
(0.0034059034 -0.0022439212 -2.2049373e-21 0.0018559198 1.7598117e-21 3.4122362e-39)
(0.0026168983 -0.001943034 -7.2587653e-23 0.0019164902 6.8505487e-23 7.2467813e-42)
(0.0019575538 -0.0016384761 7.7519391e-22 0.001962755 -8.9510957e-22 2.7953597e-39)
(0.0014337778 -0.0013428963 0 0.0019912873 0 0)
(0.0010362495 -0.0010668345 9.8317884e-23 0.0019997259 -1.4542585e-22 7.2797974e-41)
(0.00074676568 -0.00081807457 -4.7172968e-23 0.0019868592 1.0982023e-22 1.085603e-40)
(0.00054353655 -0.00060140455 -4.9393629e-23 0.0019539784 1.1180678e-22 2.8309784e-41)
(0.00040500064 -0.00041858949 2.1353949e-23 0.0019096398 -1.0278952e-22 1.9552561e-40)
(0.00046181383 -0.00014483801 6.7717933e-22 4.6207163e-05 -1.744287e-22 3.4066998e-39)
(0.0023710135 -0.00079706052 6.6114429e-23 0.00026866539 -2.1717716e-23 6.2937239e-42)
(0.0043407816 -0.0014480518 -1.8920994e-22 0.00048701477 6.4043862e-23 2.7849073e-41)
(0.005969116 -0.0019701417 1.8995632e-22 0.00066188489 -6.164099e-23 5.5121985e-40)
(0.0070513516 -0.0023497055 -1.1826723e-21 0.00080744984 4.1695961e-22 1.0327568e-39)
(0.0075514597 -0.002590955 -5.6622309e-22 0.00093189947 2.0770704e-22 9.2848349e-41)
(0.0075239989 -0.0027115735 3.9541206e-22 0.0010445825 -1.2214559e-22 2.9471487e-39)
(0.0070732213 -0.0027314063 -1.520721e-23 0.0011530024 1.7045979e-23 2.3062166e-40)
(0.0063271181 -0.0026677779 -9.447448e-22 0.0012611319 4.7682768e-22 2.4349062e-39)
(0.0054161872 -0.0025356399 1.6329442e-21 0.001369601 -8.6283741e-22 7.0238937e-40)
(0.0044566219 -0.0023489286 -4.0906869e-23 0.0014763202 6.2895168e-23 1.2667055e-39)
(0.0035391104 -0.0021217105 -1.281822e-21 0.0015772319 9.5433957e-22 3.4732426e-39)
(0.0027239159 -0.0018685863 0 0.0016672173 0 0)
(0.0020418185 -0.001604237 3.0567999e-22 0.0017410796 -3.6100988e-22 1.8708255e-39)
(0.0014993723 -0.0013423718 1.4384183e-23 0.0017944614 -3.3776111e-23 1.0256012e-40)
(0.0010863217 -0.0010945361 -3.680783e-22 0.0018245523 6.0516736e-22 2.1674555e-39)
(0.00078313187 -0.00086920248 -8.3438145e-23 0.0018303932 1.5586203e-22 4.4744644e-41)
(0.00056719266 -0.00067143284 -2.4578133e-23 0.0018126389 7.2286282e-23 7.2925051e-41)
(0.00041684261 -0.00050322245 -3.2685152e-23 0.0017745941 9.742563e-23 2.8081569e-41)
(0.00031333616 -0.00036386518 5.7637596e-23 0.0017264733 -2.3802294e-22 2.6951822e-40)
(0.00051905597 -0.00012342694 2.6141385e-22 2.9861554e-05 -5.0303748e-23 5.3952774e-40)
(0.0025588724 -0.00066130603 -1.8701657e-21 0.00017148714 4.7074643e-22 1.17313e-38)
(0.0045845747 -0.0011919875 -1.6895517e-22 0.00031332063 4.7729776e-23 1.0953777e-39)
(0.0061456442 -0.001616268 -5.0214057e-22 0.00043538009 1.4777596e-22 5.5098484e-39)
(0.0070656522 -0.0019279724 -3.673723e-22 0.00054831896 1.027785e-22 7.5810479e-41)
(0.0073527871 -0.0021324206 -2.0808124e-21 0.00065832143 6.5100146e-22 9.9871088e-40)
(0.0071095242 -0.0022423617 -1.0173388e-21 0.00077102449 3.6267652e-22 8.1088598e-40)
(0.0064808206 -0.0022701544 1.9589306e-21 0.00088964444 -7.4814998e-22 6.4177478e-40)
(0.0056209096 -0.0022261422 3.3384096e-22 0.0010140976 -1.7528791e-22 8.3440188e-40)
(0.0046694934 -0.0021203878 -4.2826347e-22 0.0011413016 1.9711343e-22 2.8449022e-40)
(0.0037365496 -0.0019644045 2.0136777e-22 0.001265897 -7.4234943e-23 1.0713726e-39)
(0.0028958624 -0.0017717437 -3.666177e-23 0.0013812447 5.1543118e-23 2.7155848e-40)
(0.0021862205 -0.0015573225 0 0.0014806164 0 0)
(0.0016179739 -0.0013358978 2.0885153e-22 0.0015583533 -2.2280594e-22 6.4251139e-41)
(0.0011820528 -0.0011203595 -4.4099684e-22 0.0016107455 5.9399228e-22 8.8501376e-40)
(0.00085884632 -0.00092045052 -1.4275522e-22 0.0016364694 2.2556566e-22 7.5582962e-41)
(0.00062526117 -0.00074222305 2.4383032e-22 0.0016364731 -5.0902707e-22 1.0607242e-39)
(0.00045933972 -0.00058826224 -5.5703948e-23 0.0016133488 7.4545078e-23 2.2963438e-40)
(0.00034249425 -0.00045858412 -3.7828037e-24 0.0015717971 -6.5611588e-24 2.5780672e-41)
(0.00025992552 -0.00035138034 5.5356813e-23 0.0015215131 -1.7087172e-22 2.2025759e-41)
(0.00056726373 -9.3670714e-05 1.9048921e-22 1.5764915e-05 -2.5007253e-23 3.3783496e-40)
(0.0026791446 -0.00049078377 -1.728088e-21 9.0377574e-05 3.1163045e-22 5.3776574e-39)
(0.0046959302 -0.00088729634 -1.3507446e-21 0.00017053178 2.6837247e-22 6.4387781e-39)
(0.0061390823 -0.0012164881 1.9150173e-21 0.0002500695 -4.020688e-22 1.5725065e-39)
(0.0068740976 -0.001474747 1.4384884e-21 0.00033635945 -3.2611421e-22 3.2383705e-40)
(0.0069595098 -0.0016622315 -1.0463048e-21 0.00043360394 2.3291562e-22 3.4154755e-39)
(0.0065429717 -0.0017812273 3.4277486e-22 0.00054439937 -1.3213707e-22 1.4476551e-39)
(0.0058002307 -0.0018333459 1.9926285e-21 0.00066855432 -7.1600065e-22 1.6097086e-39)
(0.0048979485 -0.0018210293 8.7053581e-22 0.00080261716 -3.468224e-22 2.0094801e-40)
(0.0039712173 -0.0017501096 -8.517868e-22 0.00094030273 4.4200624e-22 5.2461241e-40)
(0.0031134939 -0.0016308587 -1.1512527e-21 0.0010735062 6.9733014e-22 6.1914078e-40)
(0.002376895 -0.0014771406 -3.1260456e-23 0.001193716 2.299198e-23 6.4488035e-43)
(0.0017795597 -0.0013042831 3.2845272e-22 0.0012935087 -2.928043e-22 1.0011735e-40)
(0.0013162266 -0.0011266291 -1.0359292e-23 0.0013677312 3.8503154e-23 1.5649523e-40)
(0.00096869003 -0.00095563307 -1.0362874e-23 0.0014140992 6.2407812e-23 4.2354908e-40)
(0.00071405017 -0.00079895031 6.3813994e-24 0.0014331503 -8.1219724e-23 7.6511378e-40)
(0.00053004053 -0.00066049665 1.126601e-22 0.0014276346 -2.3174014e-22 2.2247865e-40)
(0.00039773142 -0.00054119438 -6.2048251e-23 0.0014015764 1.9455853e-22 5.8342612e-40)
(0.00030230209 -0.00044015032 -1.6123166e-22 0.0013602206 4.6957858e-22 1.1246656e-39)
(0.00023256026 -0.00035547681 5.4765118e-23 0.001311547 -1.3682337e-22 2.4513333e-41)
(0.00060368515 -5.7285522e-05 -4.9231283e-22 5.5804168e-06 4.1008482e-23 1.0088279e-39)
(0.002723584 -0.00029815934 -3.7743364e-22 3.3026312e-05 4.0665027e-23 1.0861689e-39)
(0.0046688773 -0.00055841711 2.9543763e-21 6.9167792e-05 -3.7609515e-22 1.3296793e-38)
(0.0059564517 -0.00080329612 2.1860181e-21 0.00011609887 -3.181741e-22 1.4449888e-39)
(0.0065035278 -0.0010253007 9.727272e-22 0.00017935871 -1.5371139e-22 7.1124048e-40)
(0.006418061 -0.0012131187 1.9599283e-22 0.00026246956 -4.0466564e-23 6.7626727e-42)
(0.005883393 -0.0013546102 -1.8301755e-21 0.00036659064 4.0951914e-22 2.970675e-39)
(0.0050919855 -0.0014395191 0 0.00048941754 0 0)
(0.0042086595 -0.0014632676 -1.1125466e-21 0.00062493087 4.8860342e-22 2.4624163e-39)
(0.003353172 -0.0014290638 -1.8984097e-22 0.00076420269 1.2769664e-22 5.5948485e-40)
(0.0025973858 -0.0013471844 5.4128145e-22 0.00089700769 -3.1809679e-22 1.3256986e-40)
(0.0019723363 -0.0012321919 5.6832308e-23 0.001013772 -7.5805802e-23 3.0793826e-40)
(0.0014800682 -0.0010994831 -2.5512288e-22 0.0011072577 2.5551697e-22 3.5642143e-40)
(0.0011058397 -0.00096241928 -1.9034412e-22 0.0011735203 2.5731846e-22 7.6476108e-40)
(0.00082794785 -0.00083072292 1.2437847e-22 0.001212001 -1.2737332e-22 9.3405904e-41)
(0.00062418106 -0.00071018179 1.7117058e-22 0.0012249148 -2.2366636e-22 8.4693363e-41)
(0.00047518624 -0.00060326074 -1.5111327e-22 0.0012162377 2.5576274e-22 7.7880638e-41)
(0.00036564644 -0.00051013419 -1.9985941e-22 0.0011906503 4.4539101e-22 9.3942103e-40)
(0.00028417485 -0.00042983326 1.6484766e-23 0.0011531559 -3.0520718e-24 1.1143955e-40)
(0.00022246125 -0.00036087413 2.6353246e-23 0.0011095685 -9.437489e-23 1.310559e-40)
(0.00062624576 -1.6556124e-05 -3.2510417e-22 5.02529e-07 8.2899875e-24 4.9367233e-40)
(0.0026897793 -9.7994632e-05 1.3814716e-21 3.89353e-06 -4.967586e-23 2.735453e-39)
(0.0045086903 -0.00023111545 2.1125618e-21 1.3784496e-05 -1.3067896e-22 1.9863745e-38)
(0.0056196106 -0.00040797655 -2.4550703e-21 3.6244056e-05 2.1407114e-22 5.4592576e-39)
(0.0059942546 -0.00061018304 8.8127715e-22 7.7719679e-05 -9.8030914e-23 1.3561031e-40)
(0.0057817114 -0.00081019261 3.556757e-22 0.000143354 3.0154542e-24 5.0509443e-39)
(0.0051869168 -0.00097998046 9.4425815e-23 0.00023485229 -1.9431278e-23 1.778354e-42)
(0.0044041424 -0.0010985336 -1.3378916e-21 0.00034904258 3.1267864e-22 1.6923288e-39)
(0.0035847997 -0.0011564007 -3.027105e-23 0.00047801583 1.063293e-23 2.6511171e-43)
(0.002827435 -0.0011559863 4.9500307e-22 0.00061075681 -2.6290276e-22 6.4637982e-40)
(0.0021822471 -0.0011083738 3.8338905e-23 0.00073562629 -4.069473e-23 9.2862038e-41)
(0.0016632542 -0.0010286791 -1.7923679e-22 0.00084279921 4.6894647e-23 1.2013421e-39)
(0.0012621727 -0.00093182419 -3.935962e-22 0.00092589369 3.2548824e-22 1.2915996e-40)
(0.00096013687 -0.00082980917 -1.4463553e-24 0.00098246153 3.1760688e-23 1.565358e-40)
(0.00073572577 -0.0007307059 1.3169422e-22 0.0010134781 -1.7731603e-22 1.5153892e-40)
(0.00056940237 -0.00063894566 8.7118638e-23 0.001022257 -1.4251753e-22 1.4742993e-40)
(0.00044530465 -0.00055625539 1.8890603e-23 0.0010132448 -6.7822806e-23 2.4011824e-40)
(0.00035147523 -0.00048272661 -1.4038695e-22 0.00099104964 1.9946669e-22 1.9026188e-40)
(0.00027934378 -0.00041773182 -3.0531606e-23 0.00095991374 -2.0371061e-23 8.2405929e-40)
(0.0002227801 -0.00036024521 7.3836334e-23 0.0009235423 -2.4298167e-22 1.356584e-39)
(4.2234584e-06 -5.2705646e-07 4.2231386e-23 6.442739e-07 -8.4549792e-24 4.8251567e-40)
(1.9913732e-05 -8.3352307e-06 -6.0248923e-23 4.2817168e-06 1.669423e-23 4.6456713e-40)
(4.4605527e-05 -1.9264191e-05 1.3384392e-22 8.5343533e-06 -5.0106574e-23 2.6676219e-39)
(0.0001430006 -4.0642428e-05 3.7343729e-22 1.2232569e-05 -7.9560222e-23 8.9725247e-39)
(0.00031375472 -6.7012752e-05 -2.6662362e-22 1.5546795e-05 4.5334149e-23 2.333092e-39)
(0.00056054103 -9.6488227e-05 3.3590279e-22 1.847852e-05 -4.5488772e-23 2.5780134e-39)
(0.00089125441 -0.00012803989 -4.6060898e-22 2.1031904e-05 5.8284622e-23 2.8302717e-39)
(0.0013078335 -0.00016064236 -4.7482407e-22 2.3261458e-05 4.9440973e-23 2.9932668e-39)
(0.0018080688 -0.0001934638 5.9625373e-22 2.5226083e-05 -6.1534122e-23 3.1632383e-39)
(0.0023883696 -0.00022589049 -4.6210524e-22 2.6971999e-05 4.4902311e-23 1.6108465e-39)
(0.0030442982 -0.00025746036 -2.324994e-23 2.853454e-05 3.8585176e-25 1.8751495e-41)
(0.003770643 -0.00028781583 1.3227049e-22 2.994091e-05 -1.40245e-23 5.9115421e-41)
(0.0045616573 -0.0003166758 -2.289232e-23 3.1212056e-05 1.0861919e-24 9.4102785e-42)
(0.0054112808 -0.00034381814 7.1646268e-22 3.2364841e-05 -6.3931186e-23 2.8190463e-39)
(0.006313273 -0.00036907412 1.1423342e-24 3.3414764e-05 1.360574e-24 6.0998596e-42)
(0.0072613482 -0.00039233832 -1.0451423e-21 3.4378725e-05 9.7615524e-23 5.7947723e-39)
(0.0082493562 -0.00041357771 1.9259939e-22 3.5274736e-05 -2.033201e-23 1.2209812e-40)
(0.0092713097 -0.00043279192 4.6506045e-22 3.6116318e-05 -4.6289662e-23 1.4735133e-39)
(0.010321248 -0.00045007168 -7.4888604e-22 3.6916856e-05 8.0336928e-23 4.1755023e-39)
(0.011392482 -0.00046605327 -4.1005937e-22 3.7672114e-05 4.7275616e-23 1.5679078e-39)
(4.7836275e-06 -2.2061302e-06 1.389771e-23 5.6704367e-06 -5.1245654e-24 4.7669894e-41)
(2.5386809e-05 -2.8561961e-05 -3.8152654e-22 3.7731094e-05 2.8766525e-22 1.5536374e-38)
(5.6968241e-05 -6.4841367e-05 7.5726543e-23 7.5178362e-05 -6.2657545e-23 1.4022661e-39)
(0.00016821107 -0.00013153872 4.0151026e-22 0.00010775529 -2.4635695e-22 7.4973522e-39)
(0.00035378233 -0.00021260793 5.5752469e-22 0.00013688681 -2.6749719e-22 8.4779933e-39)
(0.00061610776 -0.00030250128 6.7365222e-23 0.00016254674 -2.695164e-23 7.9635233e-41)
(0.0009620814 -0.00039814675 -1.7895068e-21 0.0001847792 6.1802711e-22 4.2397408e-38)
(0.0013924518 -0.00049651442 -6.2810564e-23 0.00020406824 2.5943417e-23 1.2181659e-41)
(0.0019039444 -0.000595164 1.0093358e-21 0.00022093199 -3.0584244e-22 7.2312845e-39)
(0.002491998 -0.0006922961 -2.4330132e-22 0.0002357778 6.6803585e-23 4.0213288e-40)
(0.0031512201 -0.00078655295 -9.2146526e-22 0.00024891713 2.5107245e-22 4.4587308e-39)
(0.0038754412 -0.00087688083 1.9355523e-22 0.00026058838 -4.9175614e-23 2.03039e-40)
(0.0046579449 -0.00096244723 8.1603306e-22 0.0002709725 -1.8103712e-22 4.7853699e-39)
(0.0054916683 -0.0010425877 3.3592943e-22 0.00028021165 -8.3087297e-23 5.4607909e-40)
(0.0063693034 -0.0011167858 6.6921319e-22 0.00028843238 -1.7777945e-22 1.5775467e-39)
(0.0072834318 -0.0011846998 -5.2734321e-22 0.00029576914 1.3246024e-22 1.3356596e-39)
(0.0082268587 -0.0012461987 -5.0192193e-22 0.00030236714 1.250057e-22 1.4612585e-39)
(0.0091924989 -0.0013012381 5.0389826e-22 0.00030834423 -1.4384769e-22 8.4273277e-40)
(0.01017134 -0.0013500702 4.5654392e-22 0.00031383392 -1.2751577e-22 1.4762926e-39)
(0.011152579 -0.0013950914 1.7461025e-22 0.00031884689 -4.7015793e-23 6.2786552e-40)
(6.1495533e-06 -5.6506169e-06 1.0693712e-23 1.5126641e-05 -5.337125e-24 2.508141e-41)
(3.8370988e-05 -5.9023521e-05 2.8972518e-22 0.00010071836 -3.101228e-22 6.6212062e-39)
(8.5726123e-05 -0.00013038448 -6.3372393e-23 0.00020049844 8.1656809e-23 3.4671909e-40)
(0.00022380927 -0.00024955536 -4.3604722e-22 0.00028724264 3.6695068e-22 8.209165e-39)
(0.00043993872 -0.00039076975 1.6011265e-22 0.00036453354 -1.3431245e-22 2.3189549e-40)
(0.00073403162 -0.00054506016 2.115065e-22 0.00043214043 -1.7179133e-22 1.2096539e-40)
(0.0011109737 -0.0007073574 -2.641376e-22 0.00049017339 1.397189e-22 7.3109959e-40)
(0.0015692711 -0.00087276491 -6.8772364e-22 0.00053992365 4.0047511e-22 1.4559387e-39)
(0.002103624 -0.0010373753 3.0090777e-22 0.00058276988 -1.4581474e-22 4.0791324e-40)
(0.0027076038 -0.0011983001 6.385846e-22 0.00061980419 -2.6445373e-22 2.3181942e-39)
(0.0033739855 -0.0013533452 1.7570408e-22 0.00065186641 -1.2227749e-22 8.6552752e-41)
(0.0040947704 -0.0015007929 7.7866322e-22 0.00067959747 -2.5693773e-22 4.3034417e-39)
(0.0048613959 -0.0016392678 6.5741395e-23 0.0007034768 -2.4252318e-23 1.7827797e-41)
(0.0056649038 -0.001767646 -1.1493047e-21 0.00072386776 3.8598222e-22 6.9158689e-39)
(0.0064959972 -0.0018850183 8.3216597e-23 0.00074107919 -5.5621457e-23 3.8294007e-41)
(0.0073451802 -0.001990735 -5.3438838e-22 0.00075543052 1.4733953e-22 2.6962271e-39)
(0.0082033918 -0.0020844889 -7.4755142e-22 0.00076726775 2.9669832e-22 1.1040548e-39)
(0.009061712 -0.0021661175 1.2083203e-21 0.00077693371 -4.7256804e-22 3.6672634e-39)
(0.0099061246 -0.0022359847 6.3415092e-22 0.00078498544 -2.6458e-22 7.4475128e-40)
(0.010719674 -0.0022991581 1.2700357e-22 0.00079181497 -5.8480206e-23 1.5950536e-41)
(9.0601767e-06 -1.1690554e-05 -1.6024657e-23 2.7861179e-05 2.0191125e-23 3.6657662e-41)
(6.2892067e-05 -0.00010478765 -6.7099284e-22 0.0001857924 8.4867341e-22 2.1965362e-38)
(0.00013904877 -0.00022578207 -4.8822681e-23 0.00036947799 6.2739588e-23 3.0027536e-40)
(0.00032141419 -0.00040781405 1.1216999e-22 0.0005288709 -1.2418127e-22 1.9118862e-40)
(0.00058707524 -0.0006167264 -1.8267194e-23 0.00067016718 4.7943653e-24 4.9434714e-41)
(0.0009322447 -0.0008403403 5.7093429e-22 0.0007925605 -4.1814213e-22 3.6067729e-39)
(0.001358736 -0.0010715947 6.3048739e-22 0.0008961981 -4.1119142e-22 3.2761918e-39)
(0.0018617542 -0.0013039192 -1.9122334e-22 0.00098346511 9.2205265e-23 5.16526e-40)
(0.0024329996 -0.0015321351 -6.987995e-22 0.0010569211 3.6401617e-22 3.2827423e-39)
(0.003063247 -0.0017523932 -1.4042023e-21 0.001118623 7.5563051e-22 6.9544829e-39)
(0.0037425355 -0.001961739 -3.1566795e-23 0.0011701751 -1.6343047e-23 1.5900833e-40)
(0.0044601676 -0.002157833 1.7803553e-21 0.0012128119 -8.2680837e-22 1.1367291e-38)
(0.0052048893 -0.0023387661 -7.2120723e-22 0.0012474558 2.7348793e-22 3.3631016e-39)
(0.0059650639 -0.0025029501 -4.6369746e-22 0.0012747989 2.0253896e-22 6.6293593e-40)
(0.0067286984 -0.0026490562 -5.4589567e-23 0.0012954053 6.2835101e-23 1.433009e-40)
(0.0074836106 -0.0027760695 1.090791e-21 0.0013098229 -4.7821854e-22 2.7169029e-39)
(0.0082184245 -0.0028834507 -6.1485357e-22 0.0013186289 3.0974808e-22 1.8022968e-40)
(0.0089223136 -0.0029709758 -1.4064624e-21 0.0013225405 5.9358377e-22 5.8510639e-39)
(0.009575871 -0.003039194 9.3727558e-22 0.0013232596 -4.1039656e-22 2.9414625e-39)
(0.010155649 -0.0030962655 8.0860472e-22 0.0013227945 -3.2567937e-22 2.7381248e-39)
(1.4490059e-05 -2.0823359e-05 7.191033e-23 4.2475841e-05 -6.9891834e-23 4.7314492e-40)
(0.00010431095 -0.00016879901 2.3452744e-23 0.00028351671 -6.1839481e-24 2.1328872e-40)
(0.00022770967 -0.00035667937 -9.2277269e-22 0.00056277088 1.3220205e-21 1.8008571e-38)
(0.0004759901 -0.00061342683 -5.3005542e-22 0.00080424014 5.6309516e-22 5.5740366e-39)
(0.0008135143 -0.00089792922 3.5423373e-22 0.0010167567 -2.8198901e-22 3.3699925e-39)
(0.0012314827 -0.0011948157 4.3878083e-22 0.0011984994 -3.5349076e-22 1.5866483e-39)
(0.0017273604 -0.0014949732 -5.7117504e-22 0.0013496413 3.7262116e-22 3.7139917e-39)
(0.0022918623 -0.0017903907 -8.7022438e-22 0.0014738854 4.9849347e-22 8.1500654e-39)
(0.0029125953 -0.0020748744 1.2834822e-21 0.0015752356 -7.6553917e-22 8.3585735e-39)
(0.0035765071 -0.002343811 3.690127e-22 0.0016569762 -1.4858582e-22 1.9468716e-39)
(0.0042699313 -0.0025936389 -1.1501698e-21 0.0017217315 7.6279686e-22 6.381888e-40)
(0.0049786046 -0.0028215306 5.0593147e-22 0.0017715682 -2.2903045e-22 1.4984067e-39)
(0.0056879005 -0.0030251864 0 0.001808071 0 0)
(0.0063830258 -0.0032026955 4.8960227e-22 0.0018324455 -2.3837903e-22 5.8581138e-40)
(0.007049105 -0.0033524628 -3.663814e-22 0.0018456557 1.7405831e-22 3.12783e-40)
(0.0076714364 -0.0034732624 -5.5933751e-22 0.0018485727 2.7994178e-22 3.7908519e-40)
(0.0082369497 -0.003564482 2.0457181e-22 0.0018420185 -1.7036986e-22 5.3485969e-40)
(0.0087342993 -0.0036261393 -1.6666716e-22 0.0018271084 1.0081515e-22 1.9204513e-41)
(0.0091406626 -0.0036593968 7.9426269e-22 0.0018075247 -3.4451244e-22 3.1709389e-39)
(0.0094262843 -0.0036751536 -6.473546e-22 0.0017893293 3.1963864e-22 1.8319208e-40)
(2.3565366e-05 -3.3202254e-05 6.8988612e-23 5.7579128e-05 -5.8005425e-23 3.7986803e-40)
(0.00016866289 -0.00025157043 3.3160506e-22 0.0003839636 -4.4173067e-22 1.4149593e-39)
(0.00036356558 -0.00052359432 -4.4493339e-22 0.00075966582 5.9075904e-22 3.380984e-39)
(0.00070323165 -0.00086594701 -7.2843158e-22 0.0010826435 8.2047081e-22 2.8263104e-39)
(0.0011369701 -0.0012318799 -2.1077174e-22 0.0013641054 3.1230973e-22 2.2325051e-39)
(0.0016493092 -0.0016026553 -6.5731241e-22 0.00160095 5.7799717e-22 1.3895248e-39)
(0.0022317629 -0.0019670501 -3.0733098e-22 0.001793521 1.8909524e-22 1.6081504e-39)
(0.0028692068 -0.0023159376 5.3083727e-22 0.0019470675 -3.189635e-22 2.9660404e-39)
(0.0035439767 -0.002642496 1.2652531e-21 0.0020672895 -7.5344507e-22 1.0153408e-38)
(0.004238158 -0.0029417187 3.882534e-22 0.0021589872 -2.3903636e-22 4.2552825e-40)
(0.0049336183 -0.0032098274 -3.6874969e-22 0.0022261075 1.9552289e-22 6.7540567e-40)
(0.0056120827 -0.0034439161 -7.0294884e-23 0.0022718547 -1.5001534e-23 5.8854166e-40)
(0.006255506 -0.0036417358 -1.7450694e-21 0.002298774 9.5573663e-22 5.5939776e-39)
(0.0068464385 -0.0038015535 -5.4053547e-22 0.0023088666 2.8292814e-22 5.7866781e-40)
(0.0073682803 -0.0039220712 9.0129811e-22 0.0023037435 -5.2368097e-22 2.7213477e-40)
(0.0078056921 -0.0040024485 -8.9672814e-22 0.0022847753 4.8656506e-22 5.703309e-40)
(0.0081464708 -0.0040425441 -3.1564454e-22 0.0022530482 1.5577219e-22 1.8295569e-40)
(0.0083823477 -0.0040431675 7.0508397e-22 0.0022098218 -2.9674944e-22 2.8477736e-39)
(0.0084923068 -0.0040068218 1.0626421e-21 0.0021609679 -5.3414431e-22 2.1550798e-39)
(0.0084417009 -0.0039461787 1.2976246e-22 0.00211954 -6.0843848e-23 4.200557e-41)
(3.7480148e-05 -4.8647122e-05 -1.9460526e-22 7.1903458e-05 1.5802832e-22 2.2476974e-39)
(0.00026192896 -0.00035113326 -2.157627e-22 0.00047772719 2.1890932e-22 1.7915252e-39)
(0.00055774254 -0.0007215977 5.4058591e-22 0.00094044628 -6.8446623e-22 8.1123246e-40)
(0.0010165394 -0.0011567133 8.2689077e-22 0.0013348408 -8.5731064e-22 3.7538839e-39)
(0.0015701879 -0.0016052616 1.0803287e-23 0.0016741281 -9.7341127e-24 7.4573806e-43)
(0.0021944144 -0.0020449405 -2.2420504e-21 0.001954047 1.8513742e-21 2.1933108e-38)
(0.0028729216 -0.0024625347 -8.7348947e-22 0.0021755178 7.4951258e-22 3.1018025e-40)
(0.0035833985 -0.0028483456 6.8164147e-22 0.0023456439 -4.5989676e-22 2.407481e-39)
(0.0043020021 -0.0031955927 7.790318e-22 0.0024720909 -5.2370101e-22 1.471476e-39)
(0.0050054888 -0.0034995884 -7.6448787e-22 0.0025614657 4.2544859e-22 4.0421122e-39)
(0.0056712841 -0.0037570857 -2.2334752e-21 0.0026193465 1.4121311e-21 5.8800006e-39)
(0.0062778051 -0.0039659101 1.4660718e-21 0.002650382 -8.9025651e-22 2.416986e-39)
(0.0068050899 -0.0041247414 8.7244712e-22 0.0026583783 -4.5511261e-22 2.9006405e-39)
(0.0072354396 -0.0042329742 -1.204968e-21 0.0026464189 6.6624752e-22 2.391048e-39)
(0.0075539282 -0.0042906243 5.2773867e-22 0.0026170121 -3.058037e-22 1.5974017e-40)
(0.007748945 -0.0042982817 8.7431994e-22 0.0025722068 -4.5124742e-22 1.7813607e-39)
(0.0078141748 -0.0042571996 3.3203639e-22 0.0025133642 -1.8812311e-22 6.0361494e-41)
(0.0077500497 -0.0041696249 -5.6766225e-22 0.0024413994 3.5361026e-22 7.5733846e-41)
(0.0075451495 -0.0040398937 -1.3018223e-22 0.0023634215 4.1475995e-23 4.4169359e-40)
(0.0071643516 -0.0038808319 7.4226277e-22 0.0023012512 -4.3189773e-22 1.7721086e-40)
(5.7404667e-05 -6.6650715e-05 -5.885695e-24 8.4325931e-05 -6.0158288e-24 4.1623461e-41)
(0.00038923826 -0.0004631146 -7.8189568e-22 0.00055648085 8.2733561e-22 5.8852759e-39)
(0.00081868046 -0.00094052575 -6.2490618e-22 0.0010880146 6.7062999e-22 8.9086482e-39)
(0.0014239073 -0.0014692675 1.167682e-21 0.0015359348 -1.1202217e-21 5.2027725e-39)
(0.0021168379 -0.001994782 9.6960228e-22 0.001915104 -9.5349919e-22 2.206675e-39)