/*--------------------------------*- C++ -*----------------------------------*\
  =========                 |
  \\      /  F ield         | OpenFOAM: The Open Source CFD Toolbox
   \\    /   O peration     | Website:  https://openfoam.org
    \\  /    A nd           | Version:  6
     \\/     M anipulation  |
\*---------------------------------------------------------------------------*/
FoamFile
{
    version     2.0;
    format      ascii;
    class       volScalarField;
    location    "290";
    object      pPrime2Mean;
}
// * * * * * * * * * * * * * * * * * * * * * * * * * * * * * * * * * * * * * //

dimensions      [0 4 -4 0 0 0 0];

internalField   nonuniform List<scalar> 
9200
(
0.03882282
0.032187033
0.026568747
0.022910618
0.019990218
0.017528353
0.015403705
0.013554384
0.011939193
0.010525149
0.0092849407
0.0081956901
0.0072380876
0.0063957387
0.0056546521
0.0050028648
0.0044302488
0.0039283516
0.0034908475
0.0031094295
0.031497249
0.026065523
0.021522901
0.018536467
0.016139926
0.014113605
0.012362205
0.010837096
0.0095055278
0.0083411157
0.0073218396
0.0064290836
0.0056469747
0.0049618742
0.0043619865
0.0038370799
0.003378339
0.0029781599
0.0026294221
0.0023219647
0.024628175
0.020354622
0.016822235
0.014468325
0.012564003
0.010945854
0.0095435143
0.0083211891
0.007254447
0.0063233194
0.0055108177
0.004802261
0.0041848336
0.0036472582
0.0031795626
0.0027729265
0.0024195945
0.0021127108
0.0018453732
0.0016085364
0.018406062
0.015208171
0.012590157
0.010811509
0.0093542211
0.0081060639
0.0070198289
0.0060717817
0.0052453536
0.0045264879
0.0039026748
0.0033626047
0.0028959937
0.0024934879
0.0021466226
0.0018478098
0.0015903226
0.001368187
0.0011755021
0.0010054217
0.013002483
0.010764427
0.0089402866
0.0076640662
0.0065969712
0.0056714141
0.0048608981
0.0041525773
0.0035369142
0.0030049231
0.0025477577
0.0021567538
0.0018235782
0.0015403949
0.0013000165
0.0010960087
0.00092272715
0.0007752552
0.00064904651
0.00053950504
0.0085686339
0.0071438457
0.0059733819
0.0051136743
0.0043700908
0.0037120475
0.0031306574
0.0026223361
0.0021833425
0.0018086205
0.0014919984
0.0012266803
0.0010057428
0.00082254332
0.00067101162
0.00054581303
0.00044238906
0.00035690625
0.00028612053
0.00022718886
0.0052309497
0.0044462161
0.003775124
0.0032357561
0.0027411991
0.0022894567
0.0018855206
0.0015329894
0.0012323466
0.00098114622
0.0007748665
0.00060786666
0.00047419116
0.00036814542
0.00028464297
0.00021935737
0.0001687262
0.00012988354
0.00010063736
7.9323306e-05
0.0030878942
0.0027486971
0.0024145567
0.0020920283
0.0017662148
0.0014548561
0.0011725575
0.00092767262
0.00072314761
0.00055780545
0.00042783808
0.00032816835
0.0002534622
0.00019876302
0.00015980892
0.00013312224
0.00011595784
0.00010621062
0.00010242189
0.00010361298
0.0022072283
0.0021036483
0.001941192
0.0017273635
0.001486471
0.0012467767
0.0010276294
0.00083938426
0.00068561714
0.00056520223
0.00047430649
0.00040799865
0.00036131451
0.00032983855
0.00030993027
0.00029873233
0.00029406875
0.00029433215
0.00029846135
0.00030575945
0.0026230939
0.0025368941
0.0023819809
0.0021668756
0.0019259537
0.0016881924
0.0014723119
0.0012878081
0.0011371973
0.0010184471
0.00092719432
0.00085837604
0.00080718804
0.00076952672
0.00074210572
0.00072239404
0.00070848601
0.00069897668
0.00069287059
0.00068940653
0.092070511
0.077436102
0.063999854
0.055503491
0.048757115
0.04309431
0.038218773
0.033970651
0.030250978
0.026981979
0.024100112
0.021552774
0.019295904
0.017292252
0.0155101
0.01392228
0.012505411
0.01123855
0.010102032
0.0090844821
0.090898937
0.076375838
0.063093433
0.054694649
0.048032771
0.042442138
0.037629064
0.033436325
0.029766092
0.026541334
0.023699113
0.021187333
0.018962368
0.016987352
0.015230905
0.013666169
0.012270067
0.011021965
0.0099020828
0.0088994384
0.088509174
0.074276676
0.061326693
0.053136724
0.04664785
0.04120352
0.036516369
0.032434099
0.028861444
0.025723227
0.022957978
0.020514801
0.018351073
0.016430785
0.014723299
0.013202412
0.011845675
0.010633063
0.009544862
0.0085702837
0.084942963
0.071189587
0.058750674
0.050878075
0.044646128
0.039418091
0.034916972
0.030997427
0.027568041
0.024556525
0.021903713
0.019560577
0.017486048
0.015645425
0.014009188
0.012552098
0.01125258
0.010091497
0.0090495307
0.0081157569
0.080297659
0.067202159
0.055439984
0.047985429
0.04208747
0.037139823
0.032879881
0.029171064
0.025926939
0.023079038
0.02057126
0.018357068
0.016397449
0.014659427
0.013114946
0.011740001
0.010514074
0.009419125
0.0084367866
0.0075558552
0.074705582
0.062430401
0.051491391
0.044544054
0.039047837
0.034436765
0.030466331
0.027010287
0.023988178
0.021336172
0.019001904
0.016941876
0.015119589
0.013504165
0.012069317
0.010792519
0.0096544539
0.0086382725
0.0077271915
0.0069100635
0.0683274
0.05701345
0.047019439
0.040653948
0.035615875
0.031387995
0.027747091
0.024578533
0.021808699
0.019379089
0.017241642
0.015356381
0.013689723
0.012213237
0.010902687
0.0097372603
0.0086989848
0.0077722123
0.0069422007
0.0061985989
0.061346302
0.051108634
0.042152775
0.036426772
0.031890175
0.028081138
0.024800248
0.021945469
0.019450695
0.017263314
0.015340048
0.013644845
0.012147396
0.010822026
0.0096468347
0.0086029706
0.0076740207
0.0068456075
0.0061052945
0.0054442626
0.053961371
0.044885605
0.03702948
0.031981742
0.027975601
0.024609112
0.021708336
0.019184431
0.016979323
0.01504673
0.013348529
0.011852929
0.010533189
0.0093666604
0.0083340288
0.0074186595
0.0066059978
0.0058832194
0.0052404917
0.0046705744
0.046380373
0.038521592
0.031792143
0.027440433
0.02397823
0.021065362
0.018553944
0.016368525
0.014459385
0.012786859
0.011318223
0.010026152
0.0088876542
0.0078832647
0.006996418
0.0062129282
0.0055205801
0.0049090802
0.0043720487
0.0039025796
0.0080111068
0.0069411058
0.0060339858
0.0052465927
0.004574076
0.0039981384
0.0035029017
0.003074744
0.0027025908
0.0023774487
0.0020920343
0.0018405131
0.001618202
0.0014212939
0.0012466504
0.0010916514
0.00095407949
0.00083203258
0.00072385963
0.00062811253
0.00054350952
0.00046890698
0.00040327761
0.00034569343
0.0002953127
0.00025136967
0.0002131666
0.00018006734
0.00015149229
0.00012691408
0.000105854
8.7878747e-05
7.2597564e-05
5.9659377e-05
4.8750214e-05
3.9590509e-05
3.1932645e-05
2.5558278e-05
2.0276155e-05
1.5919073e-05
1.234316e-05
9.4214463e-06
7.0528938e-06
5.1322946e-06
3.6177083e-06
2.3711243e-06
1.5070245e-06
6.9440268e-07
9.12394e-07
1.5178789e-06
0.0078557826
0.0068212252
0.0059400268
0.0051725465
0.0045163813
0.0039536443
0.0034686152
0.0030481857
0.002681847
0.0023610542
0.0020788984
0.0018298535
0.001609464
0.0014140785
0.0012406641
0.0010866723
0.00094993461
0.00082858315
0.00072099189
0.0006257319
0.00054153664
0.00046727496
0.00040193003
0.0003445827
0.00029439876
0.00025061888
0.00021255079
0.00017956301
0.00015107987
0.00012657733
0.00010557948
8.7655362e-05
7.2416152e-05
5.9512396e-05
4.8631459e-05
3.9494879e-05
3.1855945e-05
2.5497063e-05
2.0227592e-05
1.5880841e-05
1.2313352e-05
9.3985084e-06
7.035558e-06
5.1195516e-06
3.608737e-06
2.365276e-06
1.5039269e-06
6.9255673e-07
9.0700882e-07
1.4887288e-06
0.0075824903
0.0066117047
0.0057774216
0.0050464697
0.0044196707
0.0038802137
0.0034128688
0.0030055526
0.0026488776
0.0023351877
0.0020582781
0.0018131765
0.0015958239
0.0014028332
0.0012313462
0.0010789307
0.0009434966
0.00082323051
0.00071654588
0.00062204394
0.00053848214
0.00046474899
0.00039984415
0.00034286251
0.00029298177
0.00024945278
0.00021159194
0.00017877514
0.00015043291
0.00012604645
0.00010514419
8.7298798e-05
7.2124456e-05
5.9274176e-05
4.8437349e-05
3.9337171e-05
3.1728291e-05
2.5394225e-05
2.0145244e-05
1.5815407e-05
1.2261879e-05
9.358559e-06
7.0051346e-06
5.0970344e-06
3.5928235e-06
2.354875e-06
1.4984979e-06
6.892974e-07
8.9624496e-07
1.4317861e-06
0.0072080396
0.0063255124
0.0055578739
0.004879703
0.0042940782
0.0037862311
0.0033423301
0.002952
0.002607594
0.0023028222
0.0020324793
0.0017923189
0.0015787822
0.001388809
0.0012197539
0.0010693263
0.00093553296
0.00081662858
0.00071107708
0.00061751866
0.00053474194
0.00046166104
0.00039729707
0.00034076306
0.0002912521
0.00024802812
0.00021041856
0.00017780863
0.00014963668
0.00012539042
0.00010460371
8.6853652e-05
7.1758089e-05
5.8973023e-05
4.8190269e-05
3.9135001e-05
3.1563467e-05
2.5260487e-05
2.0037397e-05
1.572913e-05
1.2193576e-05
9.3052371e-06
6.9643225e-06
5.0667084e-06
3.5713417e-06
2.3408552e-06
1.4912048e-06
6.850195e-07
8.8009467e-07
1.3499645e-06
0.0067489293
0.0059758347
0.005293409
0.0046837749
0.0041497559
0.0036797766
0.0032631063
0.0028920636
0.0025613613
0.0022665104
0.0020035218
0.0017689475
0.0015597565
0.0013732338
0.0012069601
0.0010587981
0.00092686291
0.0008094888
0.00070519977
0.00061268316
0.00053076555
0.00045839219
0.00039460999
0.00033855362
0.00028943432
0.00024653121
0.00020918445
0.00017678984
0.00014879449
0.00012469333
0.00010402613
8.63748e-05
7.1361067e-05
5.8644062e-05
4.7918107e-05
3.8910389e-05
3.137876e-05
2.510934e-05
1.9914507e-05
1.5630051e-05
1.2114571e-05
9.2431616e-06
6.9165508e-06
5.0310685e-06
3.5460323e-06
2.3243958e-06
1.4826209e-06
6.8022893e-07
8.5870937e-07
1.2475451e-06
0.0062192222
0.0055746333
0.0049948538
0.0044680472
0.0039941068
0.0035660225
0.0031785554
0.0028279879
0.0025118309
0.0022276011
0.0019726025
0.0017441742
0.001539791
0.0013570811
0.0011938612
0.0010481611
0.00091821876
0.00080246162
0.00069948594
0.00060803597
0.00052698398
0.00045531232
0.00039209821
0.00033650125
0.00028775324
0.00024515024
0.00020804627
0.00017584847
0.00014801317
0.00012404271
0.00010348281
8.5920117e-05
7.0980082e-05
5.8324767e-05
4.7650777e-05
3.8687077e-05
3.1192905e-05
2.4955468e-05
1.9788003e-05
1.5526995e-05
1.2031614e-05
9.1774345e-06
6.8656126e-06
4.9928763e-06
3.5188134e-06
2.3067877e-06
1.4733469e-06
6.7546547e-07
8.3233364e-07
1.1297235e-06
0.0056326422
0.0051338678
0.0046718412
0.0042381592
0.0038295378
0.003445446
0.0030883012
0.002759364
0.0024589706
0.0021864756
0.0019404026
0.0017188583
0.0015198258
0.0013413003
0.0011813699
0.0010382646
0.00091037277
0.00079623763
0.00069454497
0.00060410904
0.00052385737
0.00045281625
0.00039009806
0.00033489057
0.00028644828
0.00024408541
0.00020717051
0.00017512225
0.00014740604
0.00012353134
0.00010304932
8.5550856e-05
7.066453e-05
5.8054766e-05
4.7419897e-05
3.8490157e-05
3.1025692e-05
2.4814379e-05
1.9669949e-05
1.5429265e-05
1.1951806e-05
9.1134062e-06
6.8154682e-06
4.954995e-06
3.491652e-06
2.2893378e-06
1.4639601e-06
6.7124822e-07
8.0129757e-07
1.0021207e-06
0.0050063122
0.0046671981
0.0043317597
0.003993292
0.0036509405
0.0033127112
0.0029884019
0.0026838573
0.0024018239
0.002143166
0.0019075469
0.0016939241
0.0015009015
0.0013269396
0.0011704785
0.0010300128
0.00090412896
0.00079151918
0.00069098242
0.00060141918
0.00052182312
0.00045127161
0.00038891663
0.00033397674
0.00028573035
0.00024351022
0.00020669923
0.00017472698
0.00014706709
0.00012323514
0.00010278675
8.5315911e-05
7.0453371e-05
5.7864952e-05
4.7249842e-05
3.8338751e-05
3.0892036e-05
2.4697633e-05
1.9569239e-05
1.5343648e-05
1.1880274e-05
9.0549e-06
6.7689137e-06
4.9194232e-06
3.4658839e-06
2.2729177e-06
1.4547505e-06
6.6792091e-07
7.6597368e-07
8.7037907e-07
0.0043572394
0.0041804716
0.0039667897
0.0037156736
0.0034390117
0.0031520661
0.0028674267
0.0025933347
0.0023345134
0.0020933467
0.0018707786
0.0016668487
0.0014810121
0.0013123713
0.0011598475
0.0010222927
0.0008985574
0.0007875283
0.00068814832
0.00059942508
0.00052043244
0.00045030821
0.0003882502
0.00033351183
0.00028539809
0.00024326193
0.00020650146
0.00017455761
0.00014691234
0.00012308718
0.00010264186
8.5173076e-05
7.0313216e-05
5.7728986e-05
4.7119905e-05
3.8216649e-05
3.0779318e-05
2.4595476e-05
1.9478404e-05
1.5264491e-05
1.1812802e-05
8.9988327e-06
6.7237425e-06
4.8846264e-06
3.4404496e-06
2.2568427e-06
1.4451252e-06
6.6532951e-07
7.2691089e-07
7.4029089e-07
0.0037114447
0.0036587559
0.0035422397
0.0033731501
0.0031691747
0.0029448856
0.0027109479
0.0024763009
0.002247639
0.0020292588
0.0018237094
0.0016323892
0.0014558596
0.001294076
0.0011465985
0.001012754
0.00089174301
0.00078270876
0.00068478242
0.00059711031
0.00051886924
0.00044927401
0.00038758046
0.00033308605
0.00028512923
0.00024308843
0.00020638101
0.00017446232
0.00014682495
0.00012299805
0.00010254663
8.5070931e-05
7.020549e-05
5.7618178e-05
4.7008962e-05
3.8108496e-05
3.0676551e-05
2.4500203e-05
1.9392178e-05
1.5188319e-05
1.1747206e-05
8.9439175e-06
6.6792745e-06
4.8502818e-06
3.4152404e-06
2.2410112e-06
1.4350102e-06
6.6332364e-07
6.8558724e-07
6.179592e-07
0.0030090262
0.0030278419
0.0029903965
0.0028998314
0.002772721
0.0026196963
0.0024480888
0.0022658631
0.0020803602
0.0018969835
0.0017194657
0.0015503858
0.0013913985
0.0012434025
0.00110674
0.00098137299
0.00086700905
0.00076319145
0.00066936415
0.00058491727
0.00050921724
0.0004416264
0.00038151559
0.00032827206
0.00028130462
0.00024004694
0.00020395984
0.00017253296
0.00014528591
0.00012176918
0.00010156465
8.4285813e-05
6.9577674e-05
5.7116329e-05
4.6608213e-05
3.7789065e-05
3.0422651e-05
2.4299202e-05
1.9233927e-05
1.5064659e-05
1.165153e-05
8.8709904e-06
6.6246406e-06
4.8110052e-06
3.3874745e-06
2.2248923e-06
1.4233805e-06
6.6210853e-07
6.4252443e-07
5.1022128e-07
0.0023326122
0.0023911816
0.0024033288
0.0023687947
0.0023007376
0.0022069474
0.0020917772
0.0019613481
0.0018222191
0.0016795621
0.001537237
0.0013982148
0.0012646846
0.0011381187
0.0010194183
0.00090906195
0.00080721711
0.00071382616
0.00062867351
0.00055143672
0.00048172344
0.00041909778
0.00036309911
0.00031325558
0.00026909388
0.00023014647
0.00019595705
0.00016608481
0.0001401078
0.00011762552
9.8260959e-05
8.166199e-05
6.7502337e-05
5.5482003e-05
4.5327269e-05
3.6790296e-05
2.9648393e-05
2.3702925e-05
1.8778202e-05
1.4719534e-05
1.1393009e-05
8.6802355e-06
6.4861778e-06
4.7139648e-06
3.3203623e-06
2.1847942e-06
1.3949706e-06
6.5539286e-07
5.8741159e-07
4.0764705e-07
0.0017507467
0.0018356144
0.001882468
0.001891007
0.0018692506
0.0018228721
0.0017545549
0.0016686458
0.0015705356
0.001464842
0.0013552331
0.0012447447
0.0011358204
0.0010302926
0.00092946166
0.00083420681
0.00074507543
0.00066235555
0.00058613785
0.00051636647
0.00045287837
0.00039543343
0.00034373733
0.00029745914
0.00025624478
0.00021972752
0.00018753625
0.00015930213
0.00013466391
0.00011327228
9.4793229e-05
7.8910771e-05
6.5328848e-05
5.3772679e-05
4.398951e-05
3.5748874e-05
2.8842416e-05
2.3083297e-05
1.8305468e-05
1.4362166e-05
1.1125779e-05
8.4833927e-06
6.3434657e-06
4.6141285e-06
3.2510978e-06
2.143738e-06
1.3644524e-06
6.4955497e-07
5.273814e-07
3.1117771e-07
0.0012616903
0.0013602816
0.0014285184
0.001466964
0.0014791694
0.0014688854
0.0014378677
0.0013889484
0.0013261227
0.0012531911
0.0011733888
0.0010895503
0.0010041148
0.00091905876
0.00083591176
0.00075582285
0.00067962224
0.00060787475
0.0005409301
0.0004789679
0.00042203496
0.00037007566
0.00032295633
0.000280485
0.00024242724
0.00020851897
0.00017847691
0.00015200713
0.0001288122
0.00010859691
9.1073075e-05
7.5963338e-05
6.3004099e-05
5.1947749e-05
4.2564187e-05
3.4641753e-05
2.7987637e-05
2.2427802e-05
1.7806673e-05
1.3986089e-05
1.0845288e-05
8.2772731e-06
6.1943277e-06
4.5099082e-06
3.1786973e-06
2.100684e-06
1.3316107e-06
6.4360812e-07
4.6676882e-07
2.283928e-07
0.00086834665
0.00096772193
0.0010450507
0.0011008575
0.0011354028
0.0011505783
0.0011474246
0.0011275936
0.0010937153
0.0010486265
0.00099496157
0.00093516194
0.00087145236
0.00080575665
0.00073966682
0.00067446471
0.00061115447
0.00055049472
0.00049303296
0.00043914028
0.00038904282
0.000342849
0.00030057285
0.00026215371
0.00022747294
0.00019636779
0.00016864317
0.00014408157
0.00012245136
0.00010351385
8.7029086e-05
7.2760729e-05
6.0479883e-05
4.9968156e-05
4.1019923e-05
3.3443929e-05
2.7064286e-05
2.1720931e-05
1.7269746e-05
1.3581987e-05
1.0544412e-05
8.0564741e-06
6.0347313e-06
4.3982772e-06
3.1010299e-06
2.0539264e-06
1.2956203e-06
6.3646714e-07
4.0804141e-07
1.6326497e-07
0.00056709855
0.00065685327
0.0007329228
0.00079511606
0.00084160887
0.00087266027
0.00088856506
0.00089004468
0.00087855829
0.00085596825
0.0008242144
0.0007852247
0.00074086351
0.00069284621
0.00064268093
0.00059165395
0.00054083477
0.00049108744
0.00044308795
0.000397346
0.0003542276
0.00031397667
0.00027673476
0.0002425589
0.00021143733
0.00018330332
0.00015804718
0.00013552674
0.00011557636
9.8014781e-05
8.2651688e-05
6.9293376e-05
5.7747361e-05
4.7826147e-05
3.9350173e-05
3.215004e-05
2.6068075e-05
2.0959319e-05
1.6692086e-05
1.3147862e-05
1.0221624e-05
7.8198102e-06
5.8637588e-06
4.2784583e-06
3.0175253e-06
2.0028084e-06
1.2563391e-06
6.2734828e-07
3.5323037e-07
1.1716977e-07
0.00034817667
0.00042191621
0.00048925294
0.00054922381
0.00059899777
0.00063766046
0.00066478509
0.00068034196
0.00068485947
0.00067932312
0.00066496778
0.00064315624
0.00061530764
0.00058282026
0.00054700389
0.00050904005
0.00046996445
0.00043066053
0.00039186108
0.00035415655
0.00031800736
0.00028375791
0.00025165107
0.00022184227
0.00019441299
0.00016938306
0.00014672203
0.00012635932
0.00010819331
9.2099373e-05
7.7936977e-05
6.5555721e-05
5.4800543e-05
4.5516024e-05
3.7549912e-05
3.0755883e-05
2.4995635e-05
2.0140356e-05
1.6071725e-05
1.2682264e-05
9.8758665e-06
7.5664993e-06
5.6808292e-06
4.1499582e-06
2.9278465e-06
1.9468701e-06
1.2138462e-06
6.1554096e-07
3.0390652e-07
8.9024435e-08
0.00019893522
0.0002539409
0.00030810316
0.00035996667
0.00040649402
0.00044612553
0.00047788037
0.00050115921
0.0005158015
0.0005220783
0.00052058273
0.00051212443
0.00049765478
0.00047819796
0.00045478742
0.00042841709
0.00040000758
0.0003703855
0.00034027246
0.00031028153
0.00028091932
0.0002525917
0.00022561195
0.00020021001
0.00017654245
0.00015470231
0.00013472874
0.00011661606
0.00010032223
8.5776618e-05
7.2886996e-05
6.1545748e-05
5.1635319e-05
4.3032876e-05
3.5614221e-05
2.9256981e-05
2.3843135e-05
1.9260918e-05
1.540621e-05
1.2183323e-05
9.5057482e-06
7.295519e-06
5.4852041e-06
4.012212e-06
2.831641e-06
1.8857232e-06
1.1683163e-06
6.0048907e-07
2.6099333e-07
7.556046e-08
0.00010614602
0.00014237268
0.00018151703
0.00022195745
0.00026092985
0.00029667434
0.00032790948
0.00035367445
0.00037335007
0.00038668362
0.00039374424
0.00039485248
0.00039051866
0.00038138673
0.00036817933
0.00035165006
0.00033254537
0.00031157492
0.00028939098
0.00026657596
0.00024363569
0.00022099757
0.00019901201
0.00017795646
0.00015804105
0.00013941528
0.00012217506
0.00010637011
9.2011098e-05
7.9076552e-05
6.7519372e-05
5.727278e-05
4.8255699e-05
4.0377508e-05
3.3542142e-05
2.7651558e-05
2.2608572e-05
1.8319109e-05
1.4693919e-05
1.1649745e-05
9.1102944e-06
7.0061688e-06
5.276409e-06
3.8649044e-06
2.7287744e-06
1.8192539e-06
1.1201031e-06
5.8197646e-07
2.2482131e-07
7.2158719e-08
5.7328555e-05
7.6429097e-05
0.00010064645
0.00012843702
0.0001575333
0.00018627696
0.00021333289
0.00023758848
0.00025817539
0.00027450795
0.00028627757
0.00029341724
0.00029606145
0.00029450633
0.00028916834
0.00028054331
0.00026917028
0.00025560089
0.00024037423
0.00022399805
0.00020693594
0.0001895991
0.00017234216
0.00015546194
0.00013919872
0.00012373929
0.00010922108
9.5737203e-05
8.3341849e-05
7.2055871e-05
6.1872331e-05
5.2761821e-05
4.4677453e-05
3.7559422e-05
3.133907e-05
2.5942431e-05
2.1293236e-05
1.7315382e-05
1.3934907e-05
1.1081444e-05
8.6894166e-06
6.6984202e-06
5.054492e-06
3.7081605e-06
2.6194642e-06
1.7477198e-06
1.0697516e-06
5.6018804e-07
1.9526167e-07
7.3986704e-08
4.151286e-05
4.6038601e-05
5.6671298e-05
7.2083711e-05
9.056173e-05
0.00011071148
0.00013132505
0.00015131243
0.00016973141
0.00018583408
0.00019908329
0.00020914385
0.00021586422
0.00021925421
0.00021945867
0.00021672802
0.00021138846
0.00020381451
0.00019440472
0.0001835609
0.00017167155
0.00015909965
0.00014617401
0.00013318381
0.00012037591
0.00010795422
9.6080851e-05
8.4878566e-05
7.4434043e-05
6.4801804e-05
5.6008438e-05
4.8056958e-05
4.0931081e-05
3.4599326e-05
2.9018803e-05
2.4138638e-05
1.9902967e-05
1.6253492e-05
1.3131606e-05
1.0480049e-05
8.2442655e-06
6.373156e-06
4.820184e-06
3.5426465e-06
2.5043402e-06
1.6717755e-06
1.0179743e-06
5.3569154e-07
1.7187759e-07
7.7059891e-08
4.9541399e-05
4.2351464e-05
4.1412339e-05
4.5662338e-05
5.3903151e-05
6.5063179e-05
7.8160927e-05
9.224642e-05
0.00010643312
0.00011994722
0.00013215511
0.00014257116
0.00015085654
0.0001568125
0.00016036829
0.00016156402
0.00016053041
0.00015746755
0.00015262437
0.0001462797
0.00013872537
0.00013025212
0.00012113845
0.00011164225
0.00010199498
9.2398026e-05
8.3020996e-05
7.4001616e-05
6.5446814e-05
5.7434758e-05
5.0017547e-05
4.3224318e-05
3.706458e-05
3.1531591e-05
2.6605646e-05
2.225717e-05
1.8449538e-05
1.5141559e-05
1.2289627e-05
9.8494725e-06
7.7776278e-06
6.0324284e-06
4.5750535e-06
3.3696439e-06
2.3844652e-06
1.5924339e-06
9.655863e-07
5.093195e-07
1.540045e-07
7.8870177e-08
7.4057972e-05
5.7934181e-05
4.7673427e-05
4.2470152e-05
4.1558737e-05
4.4180696e-05
4.961159e-05
5.710034e-05
6.5895902e-05
7.529375e-05
8.4666249e-05
9.3478508e-05
0.00010129763
0.00010779747
0.00011275796
0.00011605907
0.00011767029
0.00011763738
0.00011606766
0.00011311495
0.00010896506
0.0001038223
9.7897834e-05
9.1399882e-05
8.4526049e-05
7.7457552e-05
7.0355244e-05
6.335729e-05
5.6578195e-05
5.0108984e-05
4.4018262e-05
3.8353949e-05
3.3145472e-05
2.840624e-05
2.4136229e-05
2.0324566e-05
1.6951997e-05
1.3993154e-05
1.1418595e-05
9.1965416e-06
7.2943692e-06
5.6797539e-06
4.3216855e-06
3.1911337e-06
2.2613578e-06
1.5110188e-06
9.1345443e-07
4.8203248e-07
1.4079423e-07
7.8438067e-08
0.00010933132
8.6761533e-05
6.9378749e-05
5.6594736e-05
4.7978846e-05
4.3041117e-05
4.1299079e-05
4.2212542e-05
4.5201271e-05
4.9684537e-05
5.5109045e-05
6.0966409e-05
6.6806861e-05
7.2250383e-05
7.699373e-05
8.0812654e-05
8.3559745e-05
8.5158826e-05
8.5596799e-05
8.4913771e-05
8.3192331e-05
8.0546653e-05
7.7112049e-05
7.3035456e-05
6.8467221e-05
6.3554251e-05
5.8434651e-05
5.3233746e-05
4.8061455e-05
4.3010816e-05
3.8157526e-05
3.3560286e-05
2.9261796e-05
2.5290198e-05
2.1660841e-05
1.8378195e-05
1.5437821e-05
1.2828288e-05
1.0532962e-05
8.531629e-06
6.8019062e-06
5.3204393e-06
4.0638871e-06
3.0098997e-06
2.1370247e-06
1.4291167e-06
8.6246047e-07
4.5478144e-07
1.3124854e-07
7.5890569e-08
0.00015100753
0.00012409104
0.0001015684
8.3021415e-05
6.8260558e-05
5.7006617e-05
4.8979929e-05
4.3832615e-05
4.1157045e-05
4.0516761e-05
4.1469081e-05
4.3580254e-05
4.6439163e-05
4.9670462e-05
5.294534e-05
5.598879e-05
5.8583315e-05
6.0569452e-05
6.1843514e-05
6.2353037e-05
6.2090513e-05
6.1086004e-05
5.9399243e-05
5.7111705e-05
5.4319104e-05
5.112462e-05
4.7633037e-05
4.3945938e-05
4.0157954e-05
3.6354075e-05
3.2607909e-05
2.8980806e-05
2.5521694e-05
2.2267494e-05
1.9243992e-05
1.6466998e-05
1.3943716e-05
1.1674178e-05
9.6526954e-06
7.8692318e-06
6.310666e-06
4.9619269e-06
3.8069282e-06
2.8296744e-06
2.0140381e-06
1.3485822e-06
8.1352477e-07
4.2843918e-07
1.2432265e-07
7.1870955e-08
0.00019585167
0.00016628337
0.00014030825
0.00011763414
9.8232532e-05
8.1977774e-05
6.8745741e-05
5.8346755e-05
5.0526594e-05
4.498912e-05
4.1412773e-05
3.94616e-05
3.8796367e-05
3.9086627e-05
4.0022036e-05
4.1321623e-05
4.274069e-05
4.407532e-05
4.5164531e-05
4.5890195e-05
4.6174987e-05
4.5978739e-05
4.5293652e-05
4.4138786e-05
4.2554243e-05
4.0595394e-05
3.832747e-05
3.5820685e-05
3.314608e-05
3.0372129e-05
2.7562143e-05
2.4772442e-05
2.2051231e-05
1.9438077e-05
1.6963914e-05
1.4651443e-05
1.2515832e-05
1.0565613e-05
8.8036872e-06
7.2283779e-06
5.8344496e-06
4.6140951e-06
3.5577718e-06
2.6552992e-06
1.8956389e-06
1.2715831e-06
7.6767102e-07
4.0379345e-07
1.190857e-07
6.7071514e-08
0.00024151227
0.00021061066
0.00018255709
0.00015714965
0.000134458
0.00011446067
9.7143647e-05
8.2436886e-05
7.021032e-05
6.0289591e-05
5.2467017e-05
4.6508264e-05
4.2159873e-05
3.9158636e-05
3.7241374e-05
3.6153915e-05
3.5658869e-05
3.5541983e-05
3.56169e-05
3.5728163e-05
3.5752471e-05
3.5598327e-05
3.5204295e-05
3.4536161e-05
3.3583318e-05
3.2354657e-05
3.0874292e-05
2.917736e-05
2.7306092e-05
2.530632e-05
2.3224508e-05
2.1105367e-05
1.8990047e-05
1.6914889e-05
1.4910693e-05
1.3002405e-05
1.1209179e-05
9.5447024e-06
8.017726e-06
6.6327173e-06
5.3905816e-06
4.2894229e-06
3.3252278e-06
2.4928531e-06
1.7858411e-06
1.2006787e-06
7.2612499e-07
3.8160213e-07
1.1489585e-07
6.2024303e-08
0.0002863209
0.0002550763
0.00022602096
0.00019901648
0.0001741849
0.00015156991
0.00013122903
0.00011317575
9.7372755e-05
8.3742486e-05
7.2173816e-05
6.252503e-05
5.4627892e-05
4.8293847e-05
4.3321293e-05
3.9502895e-05
3.6632597e-05
3.4512104e-05
3.2956566e-05
3.1799167e-05
3.089447e-05
3.0120443e-05
2.9379219e-05
2.8596688e-05
2.7721106e-05
2.6720927e-05
2.5582083e-05
2.4304949e-05
2.2901203e-05
2.1390757e-05
1.9798917e-05
1.8153862e-05
1.6484521e-05
1.4818881e-05
1.3182712e-05
1.1598704e-05
1.0085965e-05
8.6598146e-06
7.3318432e-06
6.1101504e-06
4.9997219e-06
4.0029163e-06
3.1199458e-06
2.3496812e-06
1.6894781e-06
1.1388793e-06
6.9039555e-07
3.6266349e-07
1.1149795e-07
5.7089767e-08
0.00032912914
0.0002982573
0.00026901269
0.00024130162
0.00021526707
0.00019098928
0.00016856724
0.00014806778
0.00012951754
0.00011291013
9.8209683e-05
8.5351258e-05
7.4242098e-05
6.4764981e-05
5.6782838e-05
5.0143856e-05
4.4686866e-05
4.0246815e-05
3.6660114e-05
3.3769524e-05
3.142837e-05
2.9503897e-05
2.7879685e-05
2.6457085e-05
2.5155719e-05
2.3913123e-05
2.2683681e-05
2.143699e-05
2.0155845e-05
1.8833996e-05
1.7473849e-05
1.6084224e-05
1.4678281e-05
1.3271702e-05
1.1881148e-05
1.0523044e-05
9.2126594e-06
7.9634843e-06
6.7868622e-06
5.6918439e-06
4.6852171e-06
3.7716958e-06
2.9541651e-06
2.234258e-06
1.6121427e-06
1.0896444e-06
6.6230621e-07
3.4787077e-07
1.0900896e-07
5.2513761e-08
0.00036917886
0.00033917256
0.00031032648
0.00028257899
0.00025607397
0.00023090844
0.00020720111
0.00018504876
0.00016451828
0.00014565146
0.00012846667
0.00011295762
9.9092755e-05
8.6816364e-05
7.6050947e-05
6.6700154e-05
5.8652296e-05
5.1784289e-05
4.5965908e-05
4.1064065e-05
3.6946922e-05
3.3487602e-05
3.0567388e-05
2.8078239e-05
2.5924611e-05
2.4024523e-05
2.230993e-05
2.0726461e-05
1.9232624e-05
1.7798598e-05
1.6404754e-05
1.504e-05
1.3700093e-05
1.238599e-05
1.1102334e-05
9.8561105e-06
8.6555222e-06
7.509088e-06
6.4249649e-06
5.4104828e-06
4.4718681e-06
3.6141469e-06
2.8411463e-06
2.1558238e-06
1.5599701e-06
1.0567787e-06
6.4394368e-07
3.3821915e-07
1.0780673e-07
4.8466641e-08
0.00040600089
0.00037717548
0.00034913027
0.0003218275
0.00029540009
0.00026994913
0.00024559829
0.00022245752
0.0002006158
0.00018014441
0.00016109755
0.00014351028
0.00012739687
0.00011275041
9.9543488e-05
8.7729384e-05
7.7243859e-05
6.8007509e-05
5.9928643e-05
5.2906468e-05
4.6834472e-05
4.1603779e-05
3.7106361e-05
3.3237932e-05
2.9900424e-05
2.7003947e-05
2.4468202e-05
2.2223329e-05
2.0210217e-05
1.8380339e-05
1.6695189e-05
1.5125402e-05
1.3649666e-05
1.2253512e-05
1.0928061e-05
9.6688089e-06
8.4745009e-06
7.3461355e-06
6.2861235e-06
5.2976146e-06
4.383991e-06
3.5485343e-06
2.7942056e-06
2.123737e-06
1.539222e-06
1.0441911e-06
6.3751107e-07
3.3475443e-07
1.083851e-07
4.5056234e-08
0.00043933496
0.00041186702
0.00038487533
0.00035834088
0.00033237957
0.00030708894
0.00028258838
0.00025898979
0.00023639128
0.00021487951
0.00019452977
0.0001754037
0.00015754714
0.00014098898
0.00012574071
0.00011179635
9.9132925e-05
8.7711474e-05
7.747856e-05
6.8368266e-05
6.0304552e-05
5.3203832e-05
4.6977687e-05
4.1535556e-05
3.6787293e-05
3.2645474e-05
2.9027373e-05
2.5856527e-05
2.3063886e-05
2.0588511e-05
1.8377873e-05
1.6387772e-05
1.4581957e-05
1.2931496e-05
1.1413983e-05
1.0012647e-05
8.715425e-06
7.5140604e-06
6.4032594e-06
5.3799484e-06
4.4426461e-06
3.5909742e-06
2.8252702e-06
2.1464786e-06
1.5556296e-06
1.0554892e-06
6.4507753e-07
3.3846013e-07
1.1122296e-07
4.2335634e-08
0.00046906773
0.00044302657
0.00041722226
0.00039165145
0.00036641062
0.00034158974
0.00031729881
0.00029364474
0.0002707262
0.00024863535
0.00022745759
0.00020726949
0.00018813661
0.00017011196
0.00015323493
0.00013753053
0.00012300894
0.00010966544
9.7480921e-05
8.6422751e-05
7.644608e-05
6.7495504e-05
5.9507011e-05
5.2410104e-05
4.613002e-05
4.0589922e-05
3.5712996e-05
3.1424323e-05
2.7652506e-05
2.4330963e-05
2.1398898e-05
1.8801907e-05
1.6492285e-05
1.4429017e-05
1.2577542e-05
1.0909316e-05
9.4012413e-06
8.0350173e-06
6.7964545e-06
5.6748065e-06
4.6621446e-06
3.752817e-06
2.9429716e-06
2.2303113e-06
1.6134869e-06
1.0934036e-06
6.6822784e-07
3.5008789e-07
1.1668376e-07
4.0315153e-08
0.00049517955
0.00047055214
0.0004459757
0.00042146073
0.00039708419
0.00037292689
0.00034908709
0.000325663
0.00030274872
0.00028043545
0.00025881119
0.000237959
0.00021795496
0.00019886666
0.00018075187
0.0001636574
0.0001476181
0.00013265621
0.00011878103
0.00010598895
9.4263874e-05
8.3577992e-05
7.3892918e-05
6.5161079e-05
5.732736e-05
5.0330884e-05
4.4106867e-05
3.8588457e-05
3.3708481e-05
2.9401031e-05
2.5602834e-05
2.2254368e-05
1.9300712e-05
1.669211e-05
1.4384283e-05
1.23385e-05
1.0521452e-05
8.9049676e-06
7.4656138e-06
6.1842308e-06
5.0454338e-06
4.0371292e-06
3.1500437e-06
2.3774203e-06
1.7143808e-06
1.1589692e-06
7.0757195e-07
3.69912e-07
1.2492137e-07
3.8972251e-08
0.00051770934
0.00049441978
0.0004710388
0.00044758995
0.00042413175
0.00040073571
0.00037748794
0.00035447652
0.00033178831
0.00030950985
0.00028772704
0.00026652375
0.00024598009
0.00022617107
0.00020716523
0.00018902339
0.00017179746
0.00015552937
0.00014025033
0.00012598023
0.00011272739
0.00010048868
8.924983e-05
7.8986161e-05
6.9663559e-05
6.1239699e-05
5.3665449e-05
4.6886418e-05
4.0844554e-05
3.5479731e-05
3.0731271e-05
2.6539325e-05
2.2846085e-05
1.9596789e-05
1.6740494e-05
1.4230633e-05
1.2025344e-05
1.0087609e-05
8.3852142e-06
6.8905894e-06
5.5805345e-06
4.435898e-06
3.4412017e-06
2.5843714e-06
1.85612e-06
1.2508311e-06
7.6233656e-07
3.9753273e-07
1.3582908e-07
3.825937e-08
0.00053670135
0.00051462427
0.00049234839
0.00046990989
0.00044735061
0.00042473358
0.00040213357
0.00037962851
0.00035729719
0.00033521978
0.00031347754
0.00029215179
0.0002713225