/*--------------------------------*- C++ -*----------------------------------*\
  =========                 |
  \\      /  F ield         | OpenFOAM: The Open Source CFD Toolbox
   \\    /   O peration     | Website:  https://openfoam.org
    \\  /    A nd           | Version:  6
     \\/     M anipulation  |
\*---------------------------------------------------------------------------*/
FoamFile
{
    version     2.0;
    format      ascii;
    class       volSymmTensorField;
    location    "290";
    object      UPrime2Mean;
}
// * * * * * * * * * * * * * * * * * * * * * * * * * * * * * * * * * * * * * //

dimensions      [0 2 -2 0 0 0 0];

internalField   nonuniform List<symmTensor> 
9200
(
(6.8449447e-05 -5.3131049e-05 2.4769938e-22 4.2636858e-05 -1.3238313e-22 4.0116588e-39)
(0.00042250293 -0.00033819272 6.3664715e-22 0.00027174928 -4.7506999e-22 4.3645188e-39)
(0.00085543166 -0.00066306227 7.6289389e-23 0.00051699239 -5.784274e-23 2.3927584e-39)
(0.0013504908 -0.00097730122 -9.6148192e-22 0.00071530004 6.7549617e-22 4.7710973e-39)
(0.0018401582 -0.0012573126 4.6851307e-23 0.0008741692 -3.8486935e-23 6.9941747e-40)
(0.0022906487 -0.0014904781 4.0673305e-22 0.00099336043 -2.6936701e-22 1.1056478e-40)
(0.0026783724 -0.0016722547 -8.8770865e-23 0.0010768901 6.1029403e-23 3.1694346e-40)
(0.0029841192 -0.0018027588 8.0642605e-23 0.0011315533 -5.3912639e-23 2.1346032e-40)
(0.0031943654 -0.001884362 3.9499612e-22 0.0011638941 -2.3906179e-22 6.0914237e-40)
(0.003301803 -0.0019206268 3.0789752e-23 0.0011794851 -1.8726632e-23 1.7387949e-42)
(0.0033054373 -0.0019158099 -4.2788928e-22 0.0011829339 2.6194785e-22 3.2742517e-40)
(0.00321058 -0.001874554 3.5919411e-22 0.0011779351 -2.2793484e-22 4.5294017e-41)
(0.0030284642 -0.0018016917 -6.414257e-22 0.0011673534 4.2989223e-22 7.0146486e-40)
(0.0027753235 -0.0017021266 -3.2638087e-22 0.0011533388 2.229946e-22 4.537714e-41)
(0.0024709611 -0.0015807568 8.4850422e-23 0.0011374534 -6.2463481e-23 5.7611932e-42)
(0.0021369325 -0.0014424072 -3.2094993e-22 0.0011207939 2.49194e-22 6.0964242e-41)
(0.0017944878 -0.0012917679 2.8297364e-22 0.0011041669 -2.3796869e-22 7.3773117e-41)
(0.0014624968 -0.001133417 2.1186841e-22 0.0010886681 -1.8646631e-22 2.977583e-40)
(0.0011570656 -0.00097160942 -6.8603799e-24 0.0010757402 1.4942199e-23 5.4709134e-41)
(0.00089605377 -0.00080927818 -3.649501e-24 0.0010546646 1.3132756e-23 6.781469e-41)
(9.036261e-05 -6.0403471e-05 2.5787057e-23 4.1463499e-05 -9.8618695e-24 7.0597705e-41)
(0.00053914574 -0.00037364712 6.7423764e-22 0.0002597512 -4.3857044e-22 4.655152e-39)
(0.0010734417 -0.00072179205 -2.1773469e-22 0.00048813224 1.4609131e-22 2.5283788e-39)
(0.0016479764 -0.0010444936 -1.7264635e-21 0.00066951363 1.0782814e-21 1.1041116e-38)
(0.0021842255 -0.001319735 -6.0442944e-23 0.00081176483 3.8197796e-23 1.3928785e-40)
(0.0026428805 -0.0015363639 1.3388988e-21 0.00091604958 -7.8879888e-22 3.6545001e-39)
(0.002999398 -0.0016923613 -5.518972e-22 0.00098761311 3.2171836e-22 1.2578517e-40)
(0.0032378229 -0.0017907409 -1.6683704e-22 0.0010338406 9.6413822e-23 4.4937194e-41)
(0.0033512417 -0.0018366064 6.3562316e-22 0.0010614762 -3.6949093e-22 3.4379058e-40)
(0.0033416006 -0.0018359153 -7.7317382e-22 0.0010760303 4.568019e-22 3.9525514e-40)
(0.0032190016 -0.0017949136 -5.5034939e-22 0.0010818255 3.332747e-22 4.872241e-40)
(0.0030006094 -0.0017198088 1.1933924e-21 0.0010820826 -7.5161651e-22 2.4787135e-39)
(0.0027089612 -0.0016166037 5.5781575e-22 0.0010790376 -3.7392899e-22 1.7473121e-40)
(0.0023697113 -0.0014910394 -8.8308195e-22 0.0010740802 6.3201407e-22 8.6077348e-40)
(0.0020090699 -0.0013485925 1.5939087e-22 0.0010678903 -1.2296596e-22 7.1551287e-41)
(0.0016512897 -0.0011944824 -3.5550482e-22 0.001060557 3.0733216e-22 1.9156329e-40)
(0.0013165251 -0.0010336705 -1.4718964e-22 0.0010517154 1.4995541e-22 6.0110776e-41)
(0.0010193019 -0.00087076059 4.5604524e-22 0.0010407302 -5.0527401e-22 9.7268291e-40)
(0.00076853389 -0.00070947429 2.1738853e-22 0.0010256982 -2.8686053e-22 1.8562866e-40)
(0.00057039789 -0.00055349588 -9.463837e-23 0.00099690598 1.169264e-22 1.3864192e-39)
(0.00011512462 -6.5580443e-05 -2.1704671e-22 3.8194713e-05 9.2382428e-23 1.8139342e-39)
(0.0006636635 -0.00039438696 -3.6222832e-22 0.00023498896 2.0123194e-22 1.8908715e-39)
(0.0012977419 -0.00075032468 -4.1251787e-22 0.00043635645 2.4036279e-22 4.726417e-39)
(0.001939624 -0.0010670322 1.383186e-23 0.00059393678 -7.5976905e-24 5.1324547e-43)
(0.0025014801 -0.0013253063 1.4252185e-23 0.00071573359 -6.8059656e-24 3.3960902e-39)
(0.002941329 -0.0015166925 4.6903707e-22 0.00080426787 -2.4979421e-22 9.4982516e-40)
(0.0032378427 -0.0016423901 4.6084075e-23 0.00086555327 -2.2932714e-23 3.9315344e-40)
(0.0033831547 -0.0017084373 -8.0076997e-22 0.00090692551 4.2905817e-22 2.5175003e-40)
(0.0033817382 -0.0017223937 9.5056608e-22 0.00093467878 -5.2193754e-22 4.7542592e-40)
(0.0032487901 -0.0016920438 3.1377106e-22 0.0009536474 -1.8073471e-22 5.2035621e-40)
(0.0030079899 -0.0016248773 -8.6678979e-22 0.00096731262 5.2128416e-22 1.0770222e-39)
(0.0026887313 -0.001527879 -2.7308783e-22 0.00097794437 1.7587614e-22 3.5149281e-40)
(0.0023228732 -0.0014075204 9.8281072e-23 0.00098676999 -6.8124124e-23 9.5115984e-40)
(0.001941359 -0.001269859 2.3827636e-22 0.00099416306 -1.83349e-22 1.3727322e-40)
(0.0015712026 -0.0011206496 -8.4028187e-23 0.00099983483 7.2154249e-23 1.0475317e-40)
(0.0012332958 -0.0009654034 1.9574528e-22 0.0010030253 -1.9407354e-22 8.3473716e-41)
(0.00094130894 -0.00080936732 -1.3521063e-22 0.0010026921 1.5780554e-22 3.2175189e-41)
(0.00070170607 -0.00065738513 -2.7786193e-22 0.00099762882 3.8055918e-22 7.7863274e-40)
(0.00051482508 -0.00051354683 -1.0185652e-23 0.00098624491 1.0831434e-23 6.9786976e-40)
(0.00037715548 -0.00038165486 9.70815e-23 0.00096516752 -2.0733469e-22 8.0534285e-41)
(0.00014190777 -6.7898025e-05 -1.7244087e-22 3.3120993e-05 6.3538828e-23 9.0089694e-40)
(0.00078968685 -0.0003969478 2.6534943e-22 0.00020002164 -1.3015361e-22 1.6844203e-40)
(0.0015148733 -0.00074376036 2.3534445e-22 0.00036744454 -1.160185e-22 1.9467205e-40)
(0.0022056041 -0.0010407504 5.1313616e-22 0.00049745733 -2.44901e-22 2.0990931e-39)
(0.0027679016 -0.0012725864 4.5222753e-22 0.00059782984 -2.1467664e-22 9.3387242e-40)
(0.0031615476 -0.0014343468 -7.9728675e-22 0.00067205261 3.7850638e-22 7.1383133e-40)
(0.00337371 -0.0015304598 -4.4692523e-22 0.00072620088 2.1590038e-22 2.0324332e-40)
(0.0034097188 -0.0015693383 0 0.00076681826 0 0)
(0.0032894459 -0.0015599977 4.9006214e-22 0.00079909132 -2.6556619e-22 2.6164616e-39)
(0.0030434524 -0.0015109224 -2.1361365e-22 0.00082662626 1.2555597e-22 9.9113822e-40)
(0.0027086595 -0.0014297879 -1.2567128e-21 0.00085162314 7.4746965e-22 8.8290977e-40)
(0.0023238139 -0.0013235199 -1.6117211e-22 0.00087507506 1.0128097e-22 1.7718508e-40)
(0.001925159 -0.0011985151 6.2368595e-22 0.00089699426 -4.6234597e-22 1.1950248e-39)
(0.0015429074 -0.0010608655 3.4504139e-23 0.00091666305 -2.2579392e-23 4.9299792e-40)
(0.0011990191 -0.00091646641 -9.7105522e-24 0.00093289822 9.4579266e-24 3.4778612e-43)
(0.00090650263 -0.00077096424 1.0482149e-22 0.00094432339 -1.2052849e-22 6.121919e-41)
(0.00067012045 -0.00062956526 2.8218189e-25 0.00094961133 2.4481758e-24 7.1381153e-41)
(0.00048809964 -0.00049677255 -1.8728333e-22 0.0009476021 3.1296252e-22 1.8806184e-40)
(0.00035424007 -0.00037610736 -1.0463231e-22 0.00093773133 2.1800881e-22 1.3067638e-40)
(0.00026017161 -0.00027016965 5.3617122e-23 0.00092129271 -1.6053354e-22 8.1332015e-40)
(0.00016949035 -6.6702453e-05 1.3040801e-22 2.6717729e-05 -4.1551777e-23 3.5440365e-40)
(0.00090928912 -0.00037906908 5.4349773e-22 0.00015841984 -2.1677993e-22 3.193111e-39)
(0.0017095859 -0.00069999596 4.3010428e-22 0.00028864019 -1.7714038e-22 2.0257351e-40)
(0.0024255767 -0.00096579791 4.7808227e-22 0.00039033823 -1.9524962e-22 1.1233003e-39)
(0.0029618497 -0.0011656486 -7.3719981e-22 0.00047059884 3.0438859e-22 1.7702099e-39)
(0.0032855819 -0.0012982343 2.879114e-23 0.00053325319 -9.2651312e-24 1.6839448e-40)
(0.0033979307 -0.0013702986 4.2415668e-23 0.00058366112 -1.8442953e-23 1.4200093e-42)
(0.0033215463 -0.0013911652 6.0490738e-22 0.00062691928 -2.8104584e-22 6.3336055e-40)
(0.0030935826 -0.0013697527 8.1922173e-23 0.00066661154 -4.0394414e-23 5.719558e-42)
(0.0027591254 -0.0013139026 -2.206853e-22 0.00070475867 1.2462775e-22 3.4245362e-40)
(0.0023648509 -0.0012305266 7.1987686e-22 0.00074204116 -4.450265e-22 2.3893904e-39)
(0.00195345 -0.0011259849 -5.2516219e-22 0.0007780478 3.4499659e-22 2.0727679e-40)
(0.0015594472 -0.001006443 -9.931086e-22 0.0008115659 7.7264629e-22 1.4693905e-39)
(0.0012069097 -0.00087803191 -3.2983119e-23 0.00084091015 3.0218368e-23 3.1050957e-42)
(0.00090915285 -0.00074674962 3.568164e-22 0.00086426739 -3.9716392e-22 1.1869857e-39)
(0.00067010494 -0.00061815944 0 0.00088002774 0 0)
(0.00048670834 -0.0004970074 4.4903809e-23 0.00088702735 -6.4542476e-23 3.0872538e-41)
(0.00035164715 -0.00038690677 -2.2809373e-23 0.00088460128 4.9580368e-23 4.5904561e-41)
(0.00025569702 -0.000290199 -2.3003109e-23 0.00087318644 5.0095108e-23 1.209253e-41)
(0.00018947728 -0.00020793115 1.1184861e-23 0.00085643284 -4.6912233e-23 8.2509373e-41)
(0.00019637951 -6.1600139e-05 2.8524567e-22 1.9651626e-05 -7.3496018e-23 1.4332263e-39)
(0.0010140747 -0.00034041089 2.8123738e-23 0.00011458773 -9.2315267e-24 2.6534919e-42)
(0.0018672694 -0.00062075446 -8.0790906e-23 0.00020813764 2.7277946e-23 1.1750362e-41)
(0.0025823734 -0.0008475496 8.3915267e-23 0.00028337405 -2.6984322e-23 2.3211741e-40)
(0.0030684894 -0.0010143831 -5.0826665e-22 0.00034625164 1.7813183e-22 4.3559791e-40)
(0.0033061342 -0.0011226016 -2.4503553e-22 0.00040026585 8.9103111e-23 3.9421224e-41)
(0.0033148926 -0.0011794263 1.747509e-22 0.00044945233 -5.3559096e-23 1.2403071e-39)
(0.0031365921 -0.0011930801 -6.3067478e-24 0.00049708704 7.1462517e-24 9.7020197e-41)
(0.002824551 -0.0011707202 -4.1587739e-22 0.0005449426 2.0607817e-22 1.0264269e-39)
(0.0024345277 -0.0011184723 7.2315333e-22 0.00059334792 -3.7499391e-22 3.0388417e-40)
(0.0020172875 -0.0010420258 -1.9638733e-23 0.00064143626 2.7378026e-23 5.3293135e-40)
(0.0016133932 -0.00094716638 -5.7722071e-22 0.00068745183 4.1812519e-22 1.4727358e-39)
(0.001250633 -0.00083999895 0 0.00072913062 0 0)
(0.00094402388 -0.00072678644 1.4171807e-22 0.00076412498 -1.5988024e-22 7.890613e-40)
(0.00069780291 -0.00061350354 7.3142821e-24 0.00079041121 -1.5128388e-23 4.3169778e-41)
(0.00050850127 -0.00050530088 -1.7280889e-22 0.00080661537 2.7022816e-22 9.1809133e-40)
(0.00036819869 -0.00040607067 -3.9147188e-23 0.000812168 6.9788815e-23 1.9246059e-41)
(0.00026728949 -0.00031825259 -1.2128544e-23 0.00080721945 3.2642382e-23 3.0790391e-41)
(0.00019633425 -0.00024294897 -1.5802871e-23 0.00079311202 4.404417e-23 1.2014505e-41)
(0.00014701163 -0.00018007537 2.8653117e-23 0.00077429158 -1.0796271e-22 1.1466092e-40)
(0.0002209781 -5.2555999e-05 1.0993443e-22 1.2714883e-05 -2.1152691e-23 2.2697434e-40)
(0.001096261 -0.00028280213 -7.9012525e-22 7.3212031e-05 1.988209e-22 4.9358096e-39)
(0.0019759445 -0.00051155304 -6.9351211e-23 0.00013396756 1.9710602e-23 4.6087712e-40)
(0.0026644337 -0.00069590167 -2.0994002e-22 0.00018638097 6.1904281e-23 2.3179578e-39)
(0.0030818303 -0.00083282187 -1.5938903e-22 0.00023499446 4.4199833e-23 3.2106782e-41)
(0.0032270509 -0.00092434915 -9.029287e-22 0.00028250326 2.7948302e-22 4.2582061e-40)
(0.003140281 -0.00097575861 -4.4334969e-22 0.00033139837 1.5590918e-22 3.4271195e-40)
(0.0028813866 -0.00099214064 8.6011913e-22 0.00038315073 -3.2336377e-22 2.7835882e-40)
(0.0025158326 -0.00097764954 1.4761054e-22 0.00043781308 -7.5691984e-23 3.5136403e-40)
(0.0021042478 -0.00093625912 -1.8982856e-22 0.00049412574 8.5980011e-23 1.2034975e-40)
(0.0016954372 -0.00087256791 8.8659164e-23 0.0005498039 -3.2704677e-23 4.5084142e-40)
(0.0013230577 -0.00079212749 -1.7332515e-23 0.000601951 2.2535803e-23 1.1427663e-40)
(0.0010056564 -0.00070121085 0 0.0006475687 0 0)
(0.00074917448 -0.00060617478 9.5435692e-23 0.00068406893 -9.8616033e-23 2.7867127e-41)
(0.00055069633 -0.00051270361 -2.0380735e-22 0.00070967816 2.6405018e-22 3.7857468e-40)
(0.00040228849 -0.0004252097 -6.6309433e-23 0.00072365529 1.0068987e-22 3.2751318e-41)
(0.00029414476 -0.00034654362 1.1536605e-22 0.00072626762 -2.2824496e-22 4.5149427e-40)
(0.00021670904 -0.00027804396 -2.5029339e-23 0.00071853282 3.3438108e-23 9.671324e-41)
(0.00016175468 -0.00021990345 -1.4328956e-24 0.00070243761 -3.0022126e-24 1.0847083e-41)
(0.00012263997 -0.00017149321 2.6401561e-23 0.00068223973 -7.7428703e-23 9.995322e-42)
(0.00024176382 -3.9926988e-05 7.9919788e-23 6.7189817e-06 -1.0484091e-23 1.4213877e-40)
(0.0011496707 -0.00021008835 -7.3397374e-22 3.8601429e-05 1.3221964e-22 2.2644854e-39)
(0.0020277375 -0.00038097349 -5.7335303e-22 7.2875746e-05 1.1365471e-22 2.7092272e-39)
(0.0026670978 -0.00052374914 8.2314154e-22 0.0001069026 -1.7163173e-22 6.6516927e-40)
(0.0030049222 -0.0006367953 6.2321008e-22 0.00014387735 -1.3980906e-22 1.3911749e-40)
(0.0030615059 -0.00072017845 -4.58361e-22 0.00018567787 1.0082791e-22 1.4393301e-39)
(0.0028968331 -0.00077481391 1.4901569e-22 0.00023351967 -5.643854e-23 6.0917415e-40)
(0.002584809 -0.00080118323 8.7733375e-22 0.00028743736 -3.0928729e-22 6.8772828e-40)
(0.0021971611 -0.00079997353 3.8558046e-22 0.00034605567 -1.5070429e-22 8.7278295e-41)
(0.0017932863 -0.00077325622 -3.7998813e-22 0.00040674067 1.9248001e-22 2.2452115e-40)
(0.0014152901 -0.00072505155 -5.1644285e-22 0.00046600838 3.0522681e-22 2.7024917e-40)
(0.001087537 -0.00066105807 -1.4112743e-23 0.00052012141 1.0107704e-23 2.8185413e-43)
(0.00081942794 -0.00058777957 1.492322e-22 0.00056574268 -1.2928357e-22 4.3845026e-41)
(0.00060977896 -0.00051145828 -5.4477782e-24 0.00060047296 1.6926823e-23 6.5857108e-41)
(0.00045132815 -0.00043720368 -5.9949307e-24 0.00062314469 2.7567494e-23 1.7824376e-40)
(0.00033439716 -0.00036853648 4.6483014e-24 0.00063383372 -3.6040922e-23 3.2198886e-40)
(0.00024932684 -0.00030736025 5.3150631e-23 0.00063361622 -1.0393499e-22 9.4851968e-41)
(0.0001877679 -0.00025424929 -3.0456324e-23 0.00062416774 8.7506749e-23 2.4636819e-40)
(0.00014310229 -0.00020894997 -7.7717178e-23 0.00060774572 2.1231337e-22 4.7927487e-40)
(0.00011027935 -0.00017074545 2.5732082e-23 0.00058787239 -6.2148132e-23 1.0895297e-41)
(0.00025753579 -2.4434858e-05 -2.082671e-22 2.3791253e-06 1.7360426e-23 4.2477773e-40)
(0.0011705773 -0.00012765003 -1.6523766e-22 1.4092153e-05 1.7684695e-23 4.5862068e-40)
(0.002019688 -0.00023948588 1.2614948e-21 2.9473484e-05 -1.5974992e-22 5.6000654e-39)
(0.0025928727 -0.00034513503 9.4210216e-22 4.9436526e-05 -1.3570985e-22 6.1369008e-40)
(0.0028488855 -0.00044168559 4.2354885e-22 7.6403424e-05 -6.5978779e-23 3.0103072e-40)
(0.0028293804 -0.00052450246 8.554528e-23 0.00011196722 -1.7362325e-23 2.9189411e-42)
(0.0026103561 -0.00058836009 -8.0490577e-22 0.00015674811 1.7706026e-22 1.2587724e-39)
(0.0022738031 -0.00062856758 0 0.00020990279 0 0)
(0.0018914543 -0.00064267849 -4.9474026e-22 0.00026897436 2.1153462e-22 1.0418104e-39)
(0.0015165869 -0.00063155305 -8.5357118e-23 0.00033019287 5.5294826e-23 2.3565429e-40)
(0.0011821093 -0.00059919782 2.4333907e-22 0.00038913923 -1.3949166e-22 5.8502056e-41)
(0.00090310128 -0.00055165349 2.639024e-23 0.00044158386 -3.3016556e-23 1.2963038e-40)
(0.00068166162 -0.00049551785 -1.1668425e-22 0.00048423959 1.1272197e-22 1.5142636e-40)
(0.00051213246 -0.00043666133 -8.8240131e-23 0.00051521651 1.137817e-22 3.231478e-40)
(0.00038543117 -0.00037946526 5.6632123e-23 0.00053410239 -5.7064319e-23 3.9794696e-41)
(0.00029197563 -0.0003266295 7.8639074e-23 0.00054172579 -1.0037934e-22 3.712503e-41)
(0.00022326827 -0.00027939389 -7.0295456e-23 0.0005397289 1.1496681e-22 3.4698647e-41)
(0.00017250007 -0.00023796559 -9.4609034e-23 0.00053010593 2.0054092e-22 4.0114194e-40)
(0.00013456208 -0.0002020174 7.1631369e-24 0.00051503271 -1.6060408e-24 4.6884934e-41)
(0.00010569673 -0.00017097059 1.2983741e-23 0.00049708213 -4.2703478e-23 5.5431097e-41)
(0.00026737652 -7.0508863e-06 -1.3740646e-22 2.1329026e-07 3.5014979e-24 2.077868e-40)
(0.0011577494 -4.1725094e-05 5.8849231e-22 1.6475055e-06 -2.1037847e-23 1.1528238e-39)
(0.0019537174 -9.8214926e-05 8.9954738e-22 5.8160998e-06 -5.5162696e-23 8.3585255e-39)
(0.0024508087 -0.00017368363 -1.0580556e-21 1.5296073e-05 9.065478e-23 2.3039972e-39)
(0.0026309237 -0.00026092415 3.8357118e-22 3.2859441e-05 -4.1737032e-23 5.8556519e-41)
(0.0025538448 -0.00034848161 1.5851134e-22 6.0788045e-05 7.1008318e-25 2.1255292e-39)
(0.0023056809 -0.00042426673 4.1587296e-23 9.9964813e-05 -8.3554321e-24 7.7622614e-43)
(0.0019700327 -0.00047883088 -5.9300498e-22 0.000149214 1.358345e-22 7.1970688e-40)
(0.0016134283 -0.00050750813 -1.3486219e-23 0.00020529166 4.6231377e-24 1.16891e-43)
(0.0012802037 -0.00051075994 2.2212918e-22 0.00026352697 -1.1434234e-22 2.7405066e-40)
(0.00099380131 -0.00049296112 1.751352e-23 0.00031886687 -1.7607552e-23 3.9091412e-41)
(0.00076164397 -0.00046045188 -7.9983713e-23 0.00036694403 2.1776712e-23 5.0573099e-40)
(0.00058101192 -0.00041968473 -1.7899866e-22 0.00040482419 1.443517e-22 5.7934395e-41)
(0.00044416374 -0.00037597449 -1.1626644e-24 0.00043126835 1.3731587e-23 6.5860624e-41)
(0.00034193762 -0.00033298748 6.0891795e-23 0.00044655068 -7.8926735e-23 6.4680174e-41)
(0.00026580597 -0.00029281074 4.0635185e-23 0.00045200748 -6.3599308e-23 6.2626962e-41)
(0.00020875342 -0.00025632846 9.4055026e-24 0.00044951617 -3.0052004e-23 1.0111457e-40)
(0.00016544087 -0.00022367778 -6.4757365e-23 0.00044106395 9.0590769e-23 8.1888165e-41)
(0.00013201517 -0.0001946519 -1.3027454e-23 0.00042850701 -8.3309643e-24 3.4667553e-40)
(0.00010570477 -0.00016884614 3.6141862e-23 0.00041348459 -1.0955093e-22 5.7285409e-40)
(1.777524e-06 -2.2217421e-07 1.7760183e-23 2.7130272e-07 -3.5533145e-24 2.0303878e-40)
(8.3776926e-06 -3.5065981e-06 -2.5344013e-23 1.8012885e-06 7.0225154e-24 1.9546128e-40)
(1.876551e-05 -8.1036217e-06 5.6291139e-23 3.5912279e-06 -2.1102174e-23 1.1228127e-39)
(6.016386e-05 -1.7103129e-05 1.5717688e-22 5.151707e-06 -3.3550309e-23 3.7757971e-39)
(0.00013204961 -2.8221397e-05 -1.1234336e-22 6.5561938e-06 1.9165774e-23 9.8206826e-40)
(0.00023604205 -4.0677514e-05 1.416674e-22 7.8060636e-06 -1.9270881e-23 1.0851006e-39)
(0.00037557248 -5.4051471e-05 -1.9472452e-22 8.9029782e-06 2.4800725e-23 1.1920996e-39)
(0.00055159476 -6.7922865e-05 -2.0094849e-22 9.8693763e-06 2.1090879e-23 1.2602543e-39)
(0.00076333654 -8.1950434e-05 2.5321178e-22 1.0729391e-05 -2.6380975e-23 1.3328285e-39)
(0.0010094575 -9.5882728e-05 -1.9684124e-22 1.150179e-05 1.9332902e-23 6.7893278e-40)
(0.0012882689 -0.00010953043 -9.7921457e-24 1.2200801e-05 1.6411932e-25 7.8885765e-42)
(0.0015977604 -0.00012274682 5.6970934e-23 1.2837304e-05 -6.0922065e-24 2.5022299e-41)
(0.0019356967 -0.00013541626 -9.7778486e-24 1.3419624e-05 4.7635279e-25 3.9601093e-42)
(0.002299709 -0.0001474471 3.1082405e-22 1.3954451e-05 -2.803222e-23 1.1897585e-39)
(0.0026873496 -0.00015876949 3.4053646e-25 1.4447965e-05 5.8799467e-25 2.5667719e-42)
(0.0030961477 -0.00016933971 -4.601338e-22 1.4906987e-05 4.318516e-23 2.4479119e-39)
(0.0035236835 -0.00017914385 8.5714662e-23 1.5338813e-05 -9.0074641e-24 5.1778391e-41)
(0.003967599 -0.00018818097 2.0893738e-22 1.5748825e-05 -2.0681049e-23 6.225185e-40)
(0.0044255524 -0.00019648846 -3.4124458e-22 1.614236e-05 3.6039126e-23 1.7648079e-39)
(0.0048948683 -0.00020432193 -1.8995364e-22 1.6515759e-05 2.1298484e-23 6.6258159e-40)
(2.013173e-06 -9.2928348e-07 5.8537615e-24 2.3873729e-06 -2.1671479e-24 2.0122149e-41)
(1.0679977e-05 -1.201572e-05 -1.6050696e-22 1.5873081e-05 1.2101723e-22 6.5368363e-39)
(2.3966845e-05 -2.7281183e-05 3.184969e-23 3.1637423e-05 -2.6332868e-23 5.8998475e-40)
(7.0791302e-05 -5.5375625e-05 1.6914359e-22 4.5387588e-05 -1.0397685e-22 3.156085e-39)
(0.00014897414 -8.9588096e-05 2.3512957e-22 5.773772e-05 -1.1313687e-22 3.5690189e-39)
(0.00025963391 -0.00012762457 2.8450105e-23 6.8682631e-05 -1.1429065e-23 3.3529112e-41)
(0.00040580611 -0.00016823067 -7.5703258e-22 7.8239568e-05 2.628886e-22 1.7852705e-38)
(0.00058796675 -0.00021016306 -2.6761423e-23 8.6607509e-05 1.1113406e-23 5.1770806e-42)
(0.0008049151 -0.00025241926 4.2948094e-22 9.3998532e-05 -1.3117955e-22 3.0481226e-39)
(0.0010549195 -0.00029426033 -1.0378698e-22 0.00010057787 2.8762619e-23 1.6948593e-40)
(0.0013359034 -0.00033512799 -3.9481267e-22 0.00010647076 1.0859077e-22 1.8807617e-39)
(0.0016454638 -0.00037458758 8.3215609e-23 0.0001117723 -2.1361862e-23 8.5628262e-41)
(0.0019809638 -0.00041229395 3.51677e-22 0.0001165541 -7.9057272e-23 2.0164352e-39)
(0.0023396144 -0.00044796975 1.4593451e-22 0.00012087203 -3.6426728e-23 2.3045528e-40)
(0.0027185149 -0.00048139752 2.9305725e-22 0.00012477596 -7.8210257e-23 6.6706275e-40)
(0.003114707 -0.0005124311 -2.3225732e-22 0.00012831951 5.861058e-23 5.6403782e-40)
(0.0035253117 -0.0005410104 -2.2283098e-22 0.00013156088 5.5627433e-23 6.1685524e-40)
(0.0039474741 -0.00056710798 2.2629726e-22 0.00013454651 -6.4025492e-23 3.5708046e-40)
(0.0043775434 -0.00059082137 2.0787944e-22 0.00013732887 -5.7312859e-23 6.2359893e-40)
(0.0048112251 -0.00061313183 8.1242401e-23 0.00013989598 -2.1488792e-23 2.6464399e-40)
(2.5876496e-06 -2.3785094e-06 4.504028e-24 6.3666938e-06 -2.2572916e-24 1.0598505e-41)
(1.6143948e-05 -2.4831906e-05 1.2191126e-22 4.2372217e-05 -1.3048672e-22 2.7859053e-39)
(3.6081928e-05 -5.4879482e-05 -2.6687934e-23 8.4391825e-05 3.439598e-23 1.4590454e-40)
(9.4274617e-05 -0.00010513504 -1.837891e-22 0.00012102614 1.5480577e-22 3.45452e-39)
(0.00018549721 -0.00016483282 6.7818276e-23 0.000153817 -5.698688e-23 9.8061571e-41)
(0.00030986004 -0.00023026842 9.0015338e-23 0.00018267917 -7.3216378e-23 5.1902365e-41)
(0.00046960011 -0.00029936929 -1.1196289e-22 0.00020765311 5.9456947e-23 3.0788538e-40)
(0.00066428927 -0.00037012167 -2.93489e-22 0.00022926828 1.7147569e-22 6.1672757e-40)
(0.00089190631 -0.00044091476 1.2849207e-22 0.00024808809 -6.2578508e-23 1.7212735e-40)
(0.0011499577 -0.00051055558 2.7302061e-22 0.00026455494 -1.1383963e-22 9.7699659e-40)
(0.0014356116 -0.00057813414 7.6717374e-23 0.00027900598 -5.2960387e-23 3.6895643e-41)
(0.0017457015 -0.00064293298 3.3451861e-22 0.00029169611 -1.1157099e-22 1.8125026e-39)
(0.0020768091 -0.00070437168 2.8462477e-23 0.00030281382 -1.0577936e-23 7.5204698e-42)
(0.0024253306 -0.00076196941 -4.9933382e-22 0.00031250012 1.6926528e-22 2.9153801e-39)
(0.002787496 -0.00081533006 3.7154752e-23 0.00032087427 -2.427533e-23 1.619412e-41)
(0.0031594238 -0.00086416169 -2.343053e-22 0.00032806125 6.5634862e-23 1.1355738e-39)
(0.0035373833 -0.00090831161 -3.3231471e-22 0.00033419803 1.3130199e-22 4.6814715e-40)
(0.0039176484 -0.00094767905 5.4130771e-22 0.00033942016 -2.1019044e-22 1.5530914e-39)
(0.0042943583 -0.00098238391 2.8706113e-22 0.00034395083 -1.1797199e-22 3.1654887e-40)
(0.0046607807 -0.0010145315 5.7124696e-23 0.00034791233 -2.5758682e-23 6.8005982e-42)
(3.811728e-06 -4.9187533e-06 -6.7359367e-24 1.1723019e-05 8.4766666e-24 1.5567194e-41)
(2.646952e-05 -4.4094624e-05 -2.8252486e-22 7.8172547e-05 3.5727459e-22 9.2458349e-39)
(5.8583137e-05 -9.5091808e-05 -2.0508846e-23 0.00015556908 2.6356244e-23 1.2633336e-40)
(0.00013560038 -0.00017197994 4.7465736e-23 0.000222942 -5.2541819e-23 8.0630472e-41)
(0.0002480631 -0.00026050225 -7.592898e-24 0.00028295057 1.9279608e-24 2.0804449e-41)
(0.00039458941 -0.00035562894 2.4193766e-22 0.00033526799 -1.7744299e-22 1.5186083e-39)
(0.00057618215 -0.00045446305 2.6780204e-22 0.00037993948 -1.7503034e-22 1.379695e-39)
(0.00079106713 -0.00055429014 -8.1049776e-23 0.00041793977 3.9232099e-23 2.1734366e-40)
(0.0010359876 -0.00065296055 -2.9812713e-22 0.00045031302 1.5593987e-22 1.3823987e-39)
(0.0013072844 -0.00074886741 -6.0260323e-22 0.00047789154 3.2531971e-22 2.9332506e-39)
(0.0016009678 -0.00084076591 -1.2844844e-23 0.00050131883 -7.129279e-24 6.6900295e-41)
(0.0019127099 -0.00092765763 7.6889976e-22 0.00052108544 -3.5872128e-22 4.7930169e-39)
(0.0022379124 -0.0010087132 -3.1161538e-22 0.00053755262 1.1927535e-22 1.4162188e-39)
(0.0025717723 -0.0010832272 -2.0211772e-22 0.00055098691 8.8626388e-23 2.7968654e-40)
(0.0029092862 -0.0011505929 -2.4848857e-23 0.00056160284 2.7300765e-23 6.0330351e-41)
(0.0032453159 -0.0012103271 4.8105187e-22 0.00056961066 -2.108819e-22 1.1480369e-39)
(0.0035750045 -0.0012621397 -2.7351076e-22 0.00057523546 1.3650752e-22 7.7695533e-41)
(0.0038936309 -0.0013058622 -6.2836725e-22 0.00057876488 2.6437758e-22 2.4710865e-39)
(0.0041928098 -0.0013416493 4.2383847e-22 0.00058090322 -1.8398889e-22 1.2427513e-39)
(0.0044631285 -0.0013729209 3.6536291e-22 0.00058243423 -1.463011e-22 1.1552276e-39)
(6.0958799e-06 -8.7600734e-06 3.0253428e-23 1.7869303e-05 -2.9400394e-23 1.9908342e-40)
(4.392666e-05 -7.1060297e-05 9.7343844e-24 0.00011932543 -2.4570786e-24 9.0122928e-41)
(9.6063348e-05 -0.00015034824 -3.9003921e-22 0.00023708055 5.5819516e-22 7.5886173e-39)
(0.00020120699 -0.00025900603 -2.2404683e-22 0.00033926044 2.3792525e-22 2.3461021e-39)
(0.0003446364 -0.00037988541 1.4935529e-22 0.00042964038 -1.1892614e-22 1.4177671e-39)
(0.00052293487 -0.00050662798 1.8627691e-22 0.00050745598 -1.5009057e-22 6.6807134e-40)
(0.00073532881 -0.00063547076 -2.4227834e-22 0.00057274364 1.5826634e-22 1.5628963e-39)
(0.00097817881 -0.00076307802 -3.6975797e-22 0.00062701168 2.1229331e-22 3.4296058e-39)
(0.0012465017 -0.00088684938 5.4892452e-22 0.00067189128 -3.2796947e-22 3.520166e-39)
(0.001534996 -0.0010048259 1.5703579e-22 0.00070871143 -6.3619837e-23 8.1913487e-40)
(0.0018380509 -0.0011154712 -4.9895082e-22 0.00073852635 3.2970424e-22 2.7393278e-40)
(0.0021497438 -0.0012175393 2.1812537e-22 0.00076215921 -9.9270769e-23 6.3086936e-40)
(0.00246393 -0.0013099892 0 0.00078023361 0 0)
(0.0027743167 -0.001391927 2.1374003e-22 0.00079321615 -1.0417391e-22 2.471227e-40)
(0.0030744895 -0.0014625762 -1.6072623e-22 0.00080147441 7.6383773e-23 1.3198339e-40)
(0.0033580189 -0.0015213029 -2.4699335e-22 0.00080534036 1.2314444e-22 1.6052184e-40)
(0.003619084 -0.0015677249 9.1796641e-23 0.00080512968 -7.4214117e-23 2.252237e-40)
(0.0038524712 -0.0016017198 -7.4543965e-23 0.00080129304 4.4308384e-23 8.1893072e-42)
(0.0040479562 -0.0016236546 3.5892116e-22 0.00079539163 -1.5523198e-22 1.3370132e-39)
(0.0041932428 -0.0016381286 -2.9068435e-22 0.00078994742 1.4188468e-22 7.854563e-41)
(9.9158933e-06 -1.3969856e-05 2.9012216e-23 2.4224792e-05 -2.4392559e-23 1.5985772e-40)
(7.1082446e-05 -0.00010597412 1.4012276e-22 0.00016168528 -1.8651618e-22 5.9826806e-40)
(0.00015360159 -0.00022094005 -1.8810108e-22 0.0003202693 2.4947104e-22 1.4236468e-39)
(0.00029788039 -0.00036614176 -3.094925e-22 0.0004571304 3.4792629e-22 1.1935605e-39)
(0.00048295905 -0.00052207641 -9.2094815e-23 0.00057703335 1.3421366e-22 9.4171636e-40)
(0.00070267481 -0.00068096106 -2.8025756e-22 0.0006786501 2.4600791e-22 5.8613735e-40)
(0.00095377229 -0.00083811739 -1.2997925e-22 0.00076206004 8.0040296e-23 6.7656405e-40)
(0.0012301314 -0.00098970015 2.2568776e-22 0.00082939637 -1.3576656e-22 1.2480258e-39)
(0.0015244848 -0.0011327959 5.4086827e-22 0.00088298089 -3.2237164e-22 4.2736314e-39)
(0.0018293763 -0.001265225 1.6708954e-22 0.00092475981 -1.0279862e-22 1.7931909e-40)
(0.0021371656 -0.0013852993 -1.5877127e-22 0.00095632524 8.4319897e-23 2.8435137e-40)
(0.0024400505 -0.0014916751 -2.9174715e-23 0.00097896252 -6.5263981e-24 2.4759539e-40)
(0.0027302174 -0.0015832643 -7.6009252e-22 0.00099368417 4.1555622e-22 2.360164e-39)
(0.0029999899 -0.0016591763 -2.3637556e-22 0.0010012774 1.2351539e-22 2.4411257e-40)
(0.003241934 -0.0017186858 3.9713102e-22 0.0010023681 -2.2898903e-22 1.1675412e-40)
(0.0034490373 -0.0017612466 -3.9645851e-22 0.00099748537 2.1369849e-22 2.4216625e-40)
(0.0036155368 -0.0017866028 -1.4007035e-22 0.0009870418 6.8853694e-23 7.7249022e-41)
(0.0037372384 -0.0017949069 3.1463568e-22 0.00097154092 -1.3286856e-22 1.1995678e-39)
(0.0038042719 -0.0017870628 4.7889424e-22 0.00095351336 -2.3865635e-22 9.1099943e-40)
(0.0038017422 -0.0017684706 5.8248355e-23 0.00093855481 -2.7179516e-23 1.7724764e-41)
(1.5778704e-05 -2.0477535e-05 -8.1820343e-23 3.0262324e-05 6.6428508e-23 9.4578952e-40)
(0.00011049865 -0.00014804566 -9.052999e-23 0.00020132336 9.1838453e-23 7.538619e-40)
(0.00023600245 -0.00030487172 2.3075348e-22 0.00039687905 -2.9112889e-22 3.4941766e-40)
(0.00043147591 -0.00048984693 3.5124263e-22 0.00056427827 -3.6351164e-22 1.5822012e-39)
(0.00066869485 -0.0006815731 4.5888054e-24 0.00070910074 -4.1288665e-24 3.1396205e-43)
(0.00093781319 -0.00087072682 -9.5497944e-22 0.0008294915 7.8724669e-22 9.2364938e-39)
(0.0012322493 -0.0010517327 -3.7564004e-22 0.00092573727 3.2076343e-22 1.3331449e-40)
(0.0015427568 -0.0012204362 2.9119888e-22 0.0010007242 -1.9626482e-22 1.0133613e-39)
(0.0018593085 -0.0013738665 3.3478686e-22 0.0010575799 -2.2452273e-22 6.2004059e-40)
(0.0021719949 -0.0015099003 -3.2784539e-22 0.0010989937 1.8252577e-22 1.7010614e-39)
(0.0024710483 -0.0016269933 -9.6797327e-22 0.0011272307 6.0953022e-22 2.4831046e-39)
(0.0027469768 -0.0017240298 6.3772163e-22 0.0011441736 -3.8552168e-22 1.0209469e-39)
(0.0029908334 -0.0018002345 3.7971482e-22 0.0011513578 -1.9790266e-22 1.2215266e-39)
(0.0031944976 -0.001855117 -5.2801676e-22 0.00115002 2.9069814e-22 1.0088447e-39)
(0.0033509052 -0.0018884359 2.326201e-22 0.001141159 -1.337609e-22 6.7851068e-41)
(0.0034543052 -0.0019001841 3.8670903e-22 0.0011255836 -1.9876975e-22 7.5123585e-40)
(0.0035011667 -0.0018906363 1.4767835e-22 0.0011038115 -8.2867969e-23 2.5692324e-41)
(0.0034908272 -0.0018605068 -2.5347414e-22 0.0010761841 1.5552981e-22 3.2793564e-41)
(0.0034172854 -0.0018114729 -5.9289412e-23 0.0010458 1.9530943e-23 1.8590007e-40)
(0.0032648129 -0.0017490855 3.3335632e-22 0.0010221814 -1.9148825e-22 7.6324621e-41)
(2.4184431e-05 -2.8076092e-05 -2.3877849e-24 3.5513925e-05 -2.6239817e-24 1.773391e-41)