/*--------------------------------*- C++ -*----------------------------------*\
  =========                 |
  \\      /  F ield         | OpenFOAM: The Open Source CFD Toolbox
   \\    /   O peration     | Website:  https://openfoam.org
    \\  /    A nd           | Version:  6
     \\/     M anipulation  |
\*---------------------------------------------------------------------------*/
FoamFile
{
    version     2.0;
    format      ascii;
    class       volSymmTensorField;
    location    "123";
    object      UPrime2Mean;
}
// * * * * * * * * * * * * * * * * * * * * * * * * * * * * * * * * * * * * * //

dimensions      [0 2 -2 0 0 0 0];

internalField   nonuniform List<symmTensor> 
9200
(
(0.00016066098 -0.00012471453 5.8591685e-22 0.00010010226 -3.1358416e-22 9.4533421e-39)
(0.00098814436 -0.00079156354 1.4926605e-21 0.00063650301 -1.1140091e-21 1.0281557e-38)
(0.001992014 -0.001547113 1.8872565e-22 0.0012083614 -1.4215064e-22 5.6383076e-39)
(0.0031312199 -0.0022730328 -2.2395987e-21 0.0016680972 1.5765289e-21 1.123482e-38)
(0.0042470554 -0.0029145076 1.0074919e-22 0.0020338579 -8.5447344e-23 1.6480023e-39)
(0.0052613799 -0.0034428415 9.3472472e-22 0.0023055905 -6.2269046e-22 2.5646444e-40)
(0.0061210699 -0.0038484477 -1.9899437e-22 0.0024931548 1.3887884e-22 7.4671733e-40)
(0.0067841818 -0.004132693 1.8100965e-22 0.0026128042 -1.2284174e-22 5.0294953e-40)
(0.0072227162 -0.0043021943 9.0670916e-22 0.0026800966 -5.52445e-22 1.4342318e-39)
(0.0074235207 -0.0043662844 7.0234008e-23 0.0027082255 -4.3093783e-23 4.0841826e-42)
(0.0073881509 -0.0043358186 -9.7126923e-22 0.0027080534 6.0080194e-22 7.6849319e-40)
(0.0071324717 -0.0042224334 8.1073432e-22 0.0026882533 -5.2109928e-22 1.0380227e-40)
(0.0066853911 -0.0040380756 -1.4426253e-21 0.0026555206 9.8142794e-22 1.6431869e-39)
(0.0060864194 -0.0037947149 -7.2977021e-22 0.0026148592 5.0676379e-22 1.0353024e-40)
(0.0053821545 -0.0035041579 1.8908341e-22 0.002569891 -1.4176205e-22 1.3312052e-41)
(0.0046220256 -0.0031778861 -7.0974776e-22 0.0025231539 5.6238178e-22 1.3843843e-40)
(0.0038536571 -0.002826907 6.2131587e-22 0.0024765063 -5.3447661e-22 1.6836223e-40)
(0.003118371 -0.0024617795 4.5840958e-22 0.0024324145 -4.1339092e-22 6.9690533e-40)
(0.0024504179 -0.0020921558 -1.7011957e-23 0.002394184 3.5828478e-23 1.2898649e-40)
(0.0018866096 -0.0017251061 -1.0079259e-23 0.0023385348 3.2157022e-23 1.5987867e-40)
(0.00021184033 -0.00014160897 6.1504678e-23 9.7222842e-05 -2.3721729e-23 1.6603794e-40)
(0.0012589572 -0.00087321512 1.5816061e-21 0.00060750894 -1.0289132e-21 1.0970237e-38)
(0.0024950386 -0.0016812243 -5.181615e-22 0.0011390844 3.471986e-22 5.9605745e-39)
(0.0038128213 -0.0024246781 -4.0166061e-21 0.0015587058 2.5141261e-21 2.5991885e-38)
(0.0050290619 -0.0030529541 -1.3578974e-22 0.00188546 8.6798366e-23 3.2802846e-40)
(0.0060541593 -0.0035411595 3.0959776e-21 0.0021225802 -1.831905e-21 8.5954355e-39)
(0.006834322 -0.0038858616 -1.2672541e-21 0.0022827375 7.4360764e-22 2.9170732e-40)
(0.0073366836 -0.0040953306 -3.8291024e-22 0.0023834629 2.2286281e-22 1.0558238e-40)
(0.0075498534 -0.0041825954 1.4510583e-21 0.0024406664 -8.5117912e-22 8.0412559e-40)
(0.0074829588 -0.0041625305 -1.7566822e-21 0.0024672858 1.0492063e-21 9.2080869e-40)
(0.0071634861 -0.0040505254 -1.2445402e-21 0.0024734198 7.631911e-22 1.1421385e-39)
(0.0066342818 -0.0038617225 2.6827966e-21 0.0024665599 -1.714699e-21 5.8052116e-39)
(0.0059492944 -0.0036106353 1.2481549e-21 0.0024518867 -8.5086327e-22 4.0170545e-40)
(0.0051681941 -0.0033110193 -1.9624043e-21 0.0024326171 1.4317206e-21 1.9952878e-39)
(0.0043504957 -0.0029758638 3.5108247e-22 0.0024103399 -2.7688451e-22 1.6711679e-40)
(0.0035499989 -0.0026174048 -7.7953052e-22 0.0023853101 6.9062927e-22 4.4163245e-40)
(0.0028102529 -0.0022471166 -3.2338472e-22 0.0023567698 3.3825838e-22 1.3982087e-40)
(0.0021615372 -0.0018754869 9.8161087e-22 0.0023233607 -1.1225338e-21 2.2570557e-39)
(0.0016212314 -0.0015109122 4.6401738e-22 0.0022810211 -6.3517151e-22 4.2531752e-40)
(0.001200082 -0.0011618203 -1.9603816e-22 0.0022088298 2.4888448e-22 3.2637225e-39)
(0.00026955971 -0.00015354995 -5.1302486e-22 8.9440393e-05 2.1854912e-22 4.2758685e-39)
(0.0015471992 -0.00092026062 -8.5306389e-22 0.00054878918 4.7391836e-22 4.4580987e-39)
(0.0030106573 -0.0017446726 -9.7588088e-22 0.0010166867 5.683383e-22 1.1143366e-38)
(0.0044778786 -0.0024724084 3.2141874e-23 0.0013805951 -1.7699314e-23 1.2077727e-42)
(0.0057455885 -0.003059879 5.1765673e-23 0.001659892 -2.3782254e-23 8.0048747e-39)
(0.0067197695 -0.0034887699 1.0868342e-21 0.0018609092 -5.8123433e-22 2.2377421e-39)
(0.0073558514 -0.0037632723 1.0030362e-22 0.0019979881 -5.0795256e-23 9.2669641e-40)
(0.0076411805 -0.0038986894 -1.8294759e-21 0.0020884019 9.8903283e-22 5.8334596e-40)
(0.0075916483 -0.0039136654 2.1633081e-21 0.0021468775 -1.2005325e-21 1.1050332e-39)
(0.0072472256 -0.0038271742 7.1148251e-22 0.0021846637 -4.1499425e-22 1.2249143e-39)
(0.0066661852 -0.0036573322 -1.9522118e-21 0.0022098176 1.191749e-21 2.5196856e-39)
(0.0059183125 -0.0034209311 -6.1017167e-22 0.0022275687 4.0014953e-22 8.2602607e-40)
(0.0050772772 -0.0031334324 2.2470121e-22 0.0022407398 -1.5736514e-22 2.2424486e-39)
(0.0042129854 -0.0028091939 5.2575478e-22 0.00225021 -4.1400346e-22 3.2008691e-40)
(0.0033850231 -0.0024617115 -1.824394e-22 0.0022553753 1.6126353e-22 2.4620975e-40)
(0.0026381441 -0.0021037372 4.2621905e-22 0.0022546013 -4.350023e-22 1.9218792e-40)
(0.0020003141 -0.0017472173 -2.9409346e-22 0.0022456581 3.5390381e-22 7.3075754e-41)
(0.0014832546 -0.0014029835 -5.9133916e-22 0.0022259809 8.4249766e-22 1.8120343e-39)
(0.0010852312 -0.0010800154 -1.567359e-23 0.002192267 1.7053317e-23 1.6448429e-39)
(0.00079617481 -0.00078654084 2.0360827e-22 0.0021376568 -4.5805489e-22 1.8300806e-40)
(0.00033185967 -0.00015877179 -4.0732565e-22 7.7456258e-05 1.5017282e-22 2.1238548e-39)
(0.0018379421 -0.00092480612 6.1716779e-22 0.00046645708 -3.0294849e-22 3.9415284e-40)
(0.0035076049 -0.0017265069 5.4834766e-22 0.00085488764 -2.7077937e-22 4.5831722e-40)
(0.0050808013 -0.0024072792 1.1994379e-21 0.0011547405 -5.7335857e-22 4.9481762e-39)
(0.006342092 -0.0029328966 1.0507984e-21 0.0013847281 -5.004827e-22 2.2005182e-39)
(0.0072036184 -0.0032933873 -1.8367383e-21 0.0015533064 8.7721876e-22 1.6756189e-39)
(0.0076422336 -0.0035003982 -1.025115e-21 0.0016747993 4.991306e-22 4.765682e-40)
(0.0076769278 -0.0035745877 0 0.0017644812 0 0)
(0.0073594425 -0.0035377814 1.1156795e-21 0.0018343764 -6.1205756e-22 6.1649044e-39)
(0.0067645834 -0.0034103948 -4.8201885e-22 0.0018927895 2.8803314e-22 2.3356924e-39)
(0.0059797558 -0.003210834 -2.8206663e-21 0.0019447516 1.7062392e-21 2.0318346e-39)
(0.0050944078 -0.0029556557 -3.6190065e-22 0.001992518 2.3103354e-22 4.1690153e-40)
(0.0041903216 -0.0026600711 1.37793e-21 0.0020361219 -1.0461026e-21 2.7929725e-39)
(0.0033340366 -0.0023384313 8.1517727e-23 0.0020739758 -5.3325215e-23 1.1623527e-39)
(0.0025724259 -0.0020044385 -2.1139191e-23 0.0021034922 2.1220856e-23 8.0787432e-43)
(0.0019317615 -0.0016709993 2.2609922e-22 0.0021217095 -2.6915182e-22 1.421838e-40)
(0.001419865 -0.0013497871 2.8032358e-24 0.0021258328 3.9752597e-24 1.6826848e-40)
(0.0010303536 -0.0010506761 -3.9784221e-22 0.0021134817 6.9411333e-22 4.2752867e-40)
(0.0007475695 -0.0007811681 -2.1893375e-22 0.0020836835 4.8055518e-22 2.9930465e-40)
(0.00055159891 -0.00054654423 1.0634668e-22 0.0020398272 -3.4913225e-22 1.9110692e-39)
(0.00039587516 -0.00015577688 3.0726764e-22 6.2399554e-05 -9.7888534e-23 8.3557532e-40)
(0.0021127603 -0.00088181659 1.279158e-21 0.00036893765 -5.1024068e-22 7.5283089e-39)
(0.0039507738 -0.0016223435 9.973154e-22 0.00067069106 -4.1177064e-22 4.7410275e-40)
(0.0055753294 -0.0022303733 1.1138925e-21 0.00090510559 -4.5601776e-22 2.6472003e-39)
(0.0067701552 -0.0026822815 -1.708464e-21 0.0010891005 7.0848055e-22 4.1695398e-39)
(0.0074666412 -0.0029763813 6.2520763e-23 0.0012317515 -2.0226029e-23 3.9692494e-40)
(0.007675419 -0.0031294588 9.7027367e-23 0.0013455514 -4.2585504e-23 3.321609e-42)
(0.0074559484 -0.0031640189 1.3776111e-21 0.0014422743 -6.4761511e-22 1.486998e-39)
(0.0068992776 -0.0031014486 1.853492e-22 0.0015301262 -9.2707099e-23 1.3330904e-41)
(0.006112255 -0.0029605472 -4.9564929e-22 0.0016136782 2.8522227e-22 8.0586289e-40)
(0.0052028034 -0.0027579032 1.6050369e-21 0.0016944247 -1.0137922e-21 5.6107064e-39)
(0.004267448 -0.0025087519 -1.1692662e-21 0.0017713948 7.8365584e-22 4.7465804e-40)
(0.0033823985 -0.0022277429 -2.189177e-21 0.0018418497 1.746573e-21 3.3856155e-39)
(0.0025991265 -0.0019292412 -7.2078384e-23 0.0019020554 6.7994793e-23 7.1897311e-42)
(0.0019444688 -0.0016270548 7.6990641e-22 0.0019480728 -8.885135e-22 2.7729972e-39)
(0.0014243329 -0.0013337377 0 0.0019764974 0 0)
(0.0010295023 -0.0010597544 9.7635659e-23 0.0019849814 -1.4435475e-22 7.2214295e-41)
(0.00074193305 -0.00081283664 -4.6887411e-23 0.001972318 1.0903915e-22 1.0768545e-40)
(0.00054001068 -0.00059774438 -4.9065552e-23 0.0019397844 1.1099894e-22 2.8085672e-41)
(0.0004023387 -0.00041623837 2.125308e-23 0.0018958691 -1.0207516e-22 1.9394436e-40)
(0.00045812868 -0.00014368257 6.7168582e-22 4.5838532e-05 -1.7301441e-22 3.3790052e-39)
(0.0023522865 -0.00079074889 6.5587168e-23 0.00026653282 -2.1544295e-23 6.2427468e-42)
(0.0043068515 -0.0014366618 -1.8771107e-22 0.00048316299 6.3534271e-23 2.7623801e-41)
(0.0059229421 -0.0019547438 1.8854432e-22 0.00065666664 -6.1174654e-23 5.4674582e-40)
(0.0069973985 -0.0023314584 -1.1734119e-21 0.00080110239 4.1365971e-22 1.0243977e-39)
(0.0074943418 -0.0025709689 -5.6184558e-22 0.00092459513 2.0607536e-22 9.2105421e-41)
(0.0074677756 -0.0026908079 3.9247527e-22 0.0010364209 -1.2122442e-22 2.9232037e-39)
(0.0070210375 -0.0027106551 -1.5080577e-23 0.0011440264 1.6906574e-23 2.2874669e-40)
(0.0062810606 -0.0026476897 -9.3767349e-22 0.001251355 4.7313234e-22 2.4151792e-39)
(0.0053773104 -0.0025167364 1.6208649e-21 0.001359034 -8.5621961e-22 6.9695657e-40)
(0.0044250978 -0.0023316125 -4.0654614e-23 0.0014649911 6.2414204e-23 1.2564085e-39)
(0.0035144535 -0.0021062657 -1.2726561e-21 0.0015652003 9.4713118e-22 3.4453877e-39)
(0.0027052313 -0.0018551768 0 0.0016545805 0 0)
(0.0020280294 -0.0015929104 3.0362855e-22 0.001727972 -3.5833962e-22 1.8556824e-39)
(0.0014893976 -0.001333071 1.4308982e-23 0.0017810464 -3.3531897e-23 1.0172708e-40)
(0.0010791916 -0.0010871198 -3.6567951e-22 0.0018110098 6.0076447e-22 2.1500411e-39)
(0.00077804508 -0.00086347144 -8.2893504e-23 0.0018169055 1.5473437e-22 4.4394834e-41)
(0.00056352878 -0.00066715692 -2.4437425e-23 0.0017993788 7.1772394e-23 7.2335853e-41)
(0.00041414644 -0.00050016397 -3.2487249e-23 0.0017617061 9.6734666e-23 2.7859905e-41)
(0.00031129055 -0.00036179922 5.7314572e-23 0.0017140235 -2.3634664e-22 2.6736925e-40)
(0.00051492254 -0.00012244436 2.5928723e-22 2.9623819e-05 -4.9894458e-23 5.3514135e-40)
(0.0025387224 -0.00065608162 -1.8550724e-21 0.0001701283 4.6694512e-22 1.1635942e-38)
(0.0045488647 -0.0011826305 -1.6752447e-22 0.00031084465 4.7329534e-23 1.0864742e-39)
(0.0060982929 -0.0016036553 -4.98015e-22 0.00043194696 1.4656582e-22 5.4650536e-39)
(0.0070118249 -0.001913017 -3.6454557e-22 0.00054400406 1.0197472e-22 7.5201214e-41)
(0.0072974329 -0.0021159854 -2.0648064e-21 0.00065315295 6.4589444e-22 9.9077892e-40)
(0.0070566623 -0.0022252033 -1.0095759e-21 0.00076498876 3.5983824e-22 8.0434569e-40)
(0.0064332548 -0.0022529251 1.9441953e-21 0.00088270552 -7.4235274e-22 6.3683394e-40)
(0.0055802091 -0.0022094038 3.313638e-22 0.0010062231 -1.7392731e-22 8.2762936e-40)
(0.004636153 -0.0021046116 -4.2510114e-22 0.0011324856 1.9561197e-22 2.8219938e-40)
(0.003710254 -0.0019499602 1.9986111e-22 0.0012561759 -7.3680188e-23 1.0626664e-39)
(0.0028757829 -0.0017588859 -3.6426823e-23 0.0013707055 5.1152247e-23 2.6935184e-40)
(0.0021712868 -0.0015461843 0 0.0014693954 0 0)
(0.0016070839 -0.0013264974 2.0740393e-22 0.0015466258 -2.2115602e-22 6.3756459e-41)
(0.001174208 -0.0011126189 -4.380159e-22 0.0015987101 5.8963144e-22 8.7802546e-40)
(0.00085321802 -0.00091422289 -1.4180132e-22 0.0016243292 2.2392347e-22 7.500002e-41)
(0.00062120545 -0.00073732244 2.4227065e-22 0.0016244192 -5.0535493e-22 1.0522742e-39)
(0.00045638063 -0.00058448997 -5.5303803e-23 0.0016015486 7.4007733e-23 2.2777102e-40)
(0.00034029348 -0.00045574755 -3.7468143e-24 0.0015603805 -6.5158132e-24 2.557112e-41)
(0.00025825133 -0.00034930585 5.5009644e-23 0.0015105369 -1.6966584e-22 2.1870799e-41)
(0.00056275508 -9.2926384e-05 1.8893334e-22 1.5639618e-05 -2.4802745e-23 3.3508884e-40)
(0.0026581098 -0.0004869134 -1.7142695e-21 8.9661998e-05 3.0913391e-22 5.334008e-39)
(0.0046594784 -0.00088033711 -1.3399319e-21 0.00016918288 2.6621549e-22 6.3864469e-39)
(0.0060919636 -0.0012069944 1.9000273e-21 0.00024809268 -3.9888216e-22 1.559842e-39)
(0.0068219492 -0.0014632991 1.4273904e-21 0.00033370337 -3.2354941e-22 3.2129956e-40)
(0.0069073497 -0.0016494085 -1.0383998e-21 0.00043018672 2.3111603e-22 3.3877893e-39)
(0.006494547 -0.0017675882 3.4014727e-22 0.00054012211 -1.310909e-22 1.4358909e-39)
(0.0057578588 -0.0018194299 1.9777197e-21 0.00066332348 -7.1044654e-22 1.5969702e-39)
(0.0048626453 -0.0018073448 8.6409825e-22 0.00079636979 -3.4416146e-22 1.9940495e-40)
(0.0039429851 -0.0017371047 -8.4557753e-22 0.00093302732 4.3862875e-22 5.2047366e-40)
(0.0030916676 -0.0016188881 -1.142955e-21 0.0010652546 6.9205327e-22 6.1443061e-40)
(0.0023604662 -0.0014664421 -3.1038103e-23 0.0011846043 2.2819447e-23 6.3998658e-43)
(0.0017674314 -0.0012949713 3.2614785e-22 0.001283706 -2.9062563e-22 9.9360484e-41)
(0.0013073782 -0.0011187092 -1.0311088e-23 0.0013574409 3.8214222e-23 1.5522361e-40)
(0.0009622623 -0.00094902667 -1.0332671e-23 0.0014035366 6.1943846e-23 4.2010761e-40)
(0.00070936852 -0.0007935267 6.3944124e-24 0.0014225212 -8.0621308e-23 7.588971e-40)
(0.00052660172 -0.00065610175 1.1193439e-22 0.0014171199 -2.3006915e-22 2.2071145e-40)
(0.00039517335 -0.00053767279 -6.1687657e-23 0.0013913236 1.9316381e-22 5.7871346e-40)
(0.0003003705 -0.00043735791 -1.6024762e-22 0.0013503362 4.6624907e-22 1.115725e-39)
(0.00023108056 -0.00035328739 5.4408864e-23 0.0013020783 -1.3586267e-22 2.4333304e-41)
(0.00059889526 -5.6830879e-05 -4.8834852e-22 5.5360895e-06 4.0678671e-23 1.0006384e-39)
(0.002702261 -0.00029580862 -3.745785e-22 3.2764366e-05 4.0353507e-23 1.0773938e-39)
(0.0046327555 -0.00055402814 2.9309728e-21 6.8617868e-05 -3.730881e-22 1.3188896e-38)
(0.0059109039 -0.0007970033 2.1689886e-21 0.00011517466 -3.1564875e-22 1.4334327e-39)
(0.0064543873 -0.0010173074 9.652928e-22 0.00017793192 -1.5250517e-22 7.055182e-40)
(0.0063701591 -0.0012037242 1.9450168e-22 0.00026038691 -4.0148764e-23 6.7101374e-42)
(0.005840033 -0.0013442086 -1.8164523e-21 0.00036369385 4.0634782e-22 2.9468221e-39)
(0.0050549399 -0.0014285756 0 0.00048557121 0 0)
(0.0041784401 -0.0014522673 -1.1043845e-21 0.00062005102 4.8482896e-22 2.4425917e-39)
(0.0033294126 -0.0014184494 -1.8847916e-22 0.00075827748 1.2671052e-22 5.5494561e-40)
(0.0025792245 -0.0013373047 5.3739744e-22 0.00089010451 -3.1569821e-22 1.3158237e-40)
(0.0019587259 -0.0012232745 5.6452288e-23 0.0010060294 -7.5226725e-23 3.0543748e-40)
(0.0014699856 -0.0010916345 -2.5335802e-22 0.0010988651 2.536125e-22 3.5357275e-40)
(0.0010983998 -0.00095564545 -1.8906648e-22 0.0011646915 2.5540932e-22 7.5859048e-40)
(0.00082244334 -0.00082496046 1.2350964e-22 0.0012029485 -1.2645283e-22 9.2663031e-41)
(0.00062007758 -0.00070532904 1.6999807e-22 0.0012158297 -2.2205575e-22 8.4054239e-41)
(0.00047209489 -0.00059920267 -1.5010693e-22 0.0012072778 2.5392705e-22 7.7311434e-41)
(0.00036329077 -0.0005067588 -1.9858254e-22 0.0011819362 4.4220535e-22 9.3197972e-40)
(0.00028236046 -0.00042703907 1.6358288e-23 0.0011447697 -3.0379108e-24 1.1053365e-40)
(0.00022105266 -0.00035857325 2.6201683e-23 0.0011015494 -9.3706822e-23 1.3000023e-40)
(0.00062128401 -1.6424363e-05 -3.2248217e-22 4.9850565e-07 8.2230519e-24 4.8966217e-40)
(0.0026687772 -9.7214463e-05 1.3704822e-21 3.862191e-06 -4.9276614e-23 2.7132813e-39)
(0.0044739177 -0.00022926914 2.0957442e-21 1.3672994e-05 -1.2962274e-22 1.9702319e-38)
(0.0055767894 -0.0004047276 -2.4359448e-21 3.5950998e-05 2.123505e-22 5.4151163e-39)
(0.0059491316 -0.00060536207 8.7453646e-22 7.7093229e-05 -9.7250344e-23 1.3455762e-40)
(0.0057387241 -0.00080385852 3.5307771e-22 0.00014220442 2.9724602e-24 5.0099012e-39)
(0.0051488331 -0.00097241006 9.3719737e-23 0.00023298148 -1.9279285e-23 1.7648248e-42)
(0.0043722129 -0.0010901544 -1.3280119e-21 0.00034628344 3.1027858e-22 1.6788267e-39)
(0.0035591374 -0.0011476943 -3.0049791e-23 0.00047426833 1.0551444e-23 2.6313361e-43)
(0.002807447 -0.0011473965 4.9143775e-22 0.00060600925 -2.608891e-22 6.4119498e-40)
(0.0021670092 -0.0011002448 3.8072984e-23 0.00072995641 -4.0380007e-23 9.2107899e-41)
(0.0016517788 -0.0010212317 -1.7793101e-22 0.0008363569 4.6581139e-23 1.1915863e-39)
(0.0012535647 -0.00092516342 -3.9083975e-22 0.00091887247 3.2308743e-22 1.2822884e-40)
(0.00095366092 -0.0008239515 -1.4529132e-24 0.00097506791 3.151471e-23 1.552634e-40)
(0.00073081584 -0.00072561108 1.3080498e-22 0.0010059062 -1.7601766e-22 1.5033762e-40)
(0.00056564101 -0.00063454478 8.6542077e-23 0.001014672 -1.4147932e-22 1.462513e-40)
(0.00044239203 -0.00055247071 1.878522e-23 0.0010057761 -6.7321641e-23 2.3816934e-40)
(0.00034919854 -0.0004794829 -1.3943391e-22 0.00098379054 1.9806577e-22 1.8877609e-40)
(0.00027755171 -0.00041496085 -3.0289439e-23 0.00095292565 -2.0197536e-23 8.173597e-40)
(0.00022136478 -0.00035788799 7.3403895e-23 0.00091685911 -2.4124856e-22 1.3456261e-39)
(4.1891464e-06 -5.2278622e-07 4.1887838e-23 6.390446e-07 -8.3861202e-24 4.7859441e-40)
(1.9751838e-05 -8.2674663e-06 -5.9759026e-23 4.2469066e-06 1.6558486e-23 4.6079091e-40)
(4.4242895e-05 -1.9107551e-05 1.3275524e-22 8.4649986e-06 -4.969996e-23 2.6459529e-39)
(0.00014183816 -4.0312177e-05 3.7040372e-22 1.2133302e-05 -7.8916044e-23 8.8996154e-39)
(0.00031120573 -6.6468921e-05 -2.6446183e-22 1.5420922e-05 4.4968695e-23 2.3141423e-39)
(0.00055599134 -9.5706614e-05 3.3318367e-22 1.8329359e-05 -4.5123386e-23 2.5570724e-39)
(0.00088402933 -0.00012700508 -4.5689567e-22 2.0862735e-05 5.782006e-23 2.8073088e-39)
(0.0012972471 -0.00015934765 -4.7100326e-22 2.3075105e-05 4.9048661e-23 2.968965e-39)
(0.0017934585 -0.00019190953 5.9148469e-22 2.5024865e-05 -6.1050196e-23 3.1375899e-39)
(0.0023691074 -0.00022408221 -4.5842897e-22 2.6757841e-05 4.4551907e-23 1.597792e-39)
(0.0030197981 -0.00025540754 -2.3061284e-23 2.8309057e-05 3.8277413e-25 1.8599045e-41)
(0.0037403676 -0.00028553098 1.31239e-22 2.9705477e-05 -1.3916839e-23 5.8639871e-41)
(0.0045251218 -0.00031417379 -2.2711076e-23 3.0967862e-05 1.0780029e-24 9.3338152e-42)
(0.0053680556 -0.00034111573 7.1094928e-22 3.2112924e-05 -6.3449033e-23 2.7962534e-39)
(0.0062629852 -0.00036618944 1.1284133e-24 3.3156026e-05 1.3500291e-24 6.0502879e-42)
(0.0072036818 -0.00038929041 -1.0373218e-21 3.4113919e-05 9.6892005e-23 5.7479948e-39)
(0.0081840507 -0.00041038587 1.911887e-22 3.500446e-05 -2.0181726e-23 1.2111911e-40)
(0.0091981584 -0.00042947542 4.6171914e-22 3.5841051e-05 -4.5953262e-23 1.4616204e-39)
(0.010240098 -0.00044664903 -7.4366405e-22 3.6636958e-05 7.9757944e-23 4.1418269e-39)
(0.01130324 -0.00046253741 -4.0730262e-22 3.7387916e-05 4.69379e-23 1.5552591e-39)
(4.7447611e-06 -2.1882334e-06 1.3784956e-23 5.6243977e-06 -5.0832757e-24 4.728458e-41)
(2.5180413e-05 -2.832975e-05 -3.7842479e-22 3.7424337e-05 2.853265e-22 1.541009e-38)
(5.6505115e-05 -6.4314304e-05 7.5110626e-23 7.456751e-05 -6.2147256e-23 1.3908677e-39)
(0.00016684438 -0.00013047058 3.9825364e-22 0.00010688109 -2.443652e-22 7.4364651e-39)
(0.00035091074 -0.00021088425 5.5301132e-22 0.0001357789 -2.6534239e-22 8.4091464e-39)
(0.00061111344 -0.00030005402 6.6821186e-23 0.00016123518 -2.6735525e-23 7.8988699e-41)
(0.00095429496 -0.0003949341 -1.7750971e-21 0.00018329364 6.1309816e-22 4.2053262e-38)
(0.0013812031 -0.00049252023 -6.2311082e-23 0.00020243423 2.5739088e-23 1.2084354e-41)
(0.0018885958 -0.00059039277 1.0012907e-21 0.0002191707 -3.0343912e-22 7.1726919e-39)
(0.002471955 -0.00068676756 -2.4137066e-22 0.00023390685 6.6282271e-23 3.9887385e-40)
(0.0031259385 -0.00078029829 -9.1421062e-22 0.00024695145 2.4912938e-22 4.422647e-39)
(0.0038444334 -0.00086994008 1.920408e-22 0.00025854076 -4.8798116e-23 2.0139528e-40)
(0.004620784 -0.00095486737 8.0967589e-22 0.00026885413 -1.796611e-22 4.7465729e-39)
(0.0054479909 -0.0010344212 3.3335089e-22 0.00027803242 -8.2460509e-23 5.4166342e-40)
(0.0063188113 -0.0011080893 6.6415373e-22 0.00028620106 -1.7644723e-22 1.5648337e-39)
(0.0072258924 -0.0011755326 -5.2340021e-22 0.00029349328 1.3147879e-22 1.3248713e-39)
(0.0081621029 -0.001236621 -4.9822754e-22 0.00030005305 1.2408991e-22 1.4494484e-39)
(0.0091204193 -0.0012913103 5.0027496e-22 0.00030599711 -1.427943e-22 8.3596567e-40)
(0.010091907 -0.0013398503 4.5335533e-22 0.00031145782 -1.2660039e-22 1.4643742e-39)
(0.01106586 -0.001384617 1.7344816e-22 0.00031644518 -4.6690095e-23 6.227777e-40)
(6.0995766e-06 -5.6047216e-06 1.0606946e-23 1.5003762e-05 -5.294131e-24 2.4879052e-41)
(3.8059084e-05 -5.8543699e-05 2.8737059e-22 9.9899545e-05 -3.0760218e-22 6.5673896e-39)
(8.5029754e-05 -0.00012932538 -6.2858092e-23 0.00019886984 8.0994383e-23 3.4390168e-40)
(0.00022199367 -0.00024753141 -4.3251366e-22 0.0002849135 3.6398169e-22 8.1424572e-39)
(0.00043637587 -0.00038760732 1.5882616e-22 0.00036158513 -1.3323646e-22 2.3002689e-40)
(0.00072809898 -0.00054066079 2.0982124e-22 0.00042865629 -1.7042594e-22 1.2001546e-40)
(0.001102015 -0.00070166581 -2.6201804e-22 0.00048623596 1.3860542e-22 7.2516626e-40)
(0.0015566489 -0.00086576716 -6.8227038e-22 0.00053560444 3.9731847e-22 1.4442417e-39)
(0.0020867508 -0.0010290903 2.9852434e-22 0.00057812863 -1.4467014e-22 4.0461416e-40)
(0.0026859514 -0.001188771 6.3353759e-22 0.00061489118 -2.6238927e-22 2.2994052e-39)
(0.003347091 -0.0013426334 1.7436824e-22 0.00064672459 -1.2133363e-22 8.5865075e-41)
(0.004062243 -0.001488974 7.7256231e-22 0.00067426406 -2.5496393e-22 4.2685235e-39)
(0.0048229202 -0.0016264284 6.5233567e-23 0.00069798471 -2.4067558e-23 1.7683534e-41)
(0.0056202426 -0.0017538816 -1.1404845e-21 0.00071824654 3.8307195e-22 6.8598389e-39)
(0.0064449937 -0.0018704315 8.2611045e-23 0.00073535553 -5.5198228e-23 3.798546e-41)
(0.0072877586 -0.0019754328 -5.3035778e-22 0.0007496282 1.462624e-22 2.6743495e-39)
(0.0081395525 -0.0020685802 -7.4206347e-22 0.00076140746 2.9450062e-22 1.0952006e-39)
(0.0089915288 -0.0021497114 1.1995874e-21 0.00077103305 -4.6910262e-22 3.6377893e-39)
(0.0098297866 -0.0022191863 6.2966601e-22 0.00077905713 -2.6264942e-22 7.3880354e-40)
(0.010637521 -0.0022820304 1.2609327e-22 0.00078586714 -5.8043018e-23 1.5823847e-41)
(8.9865235e-06 -1.159553e-05 -1.5894195e-23 2.7634735e-05 2.002639e-23 3.6364452e-41)
(6.2381129e-05 -0.0001039361 -6.6554573e-22 0.00018428228 8.4178179e-22 2.1786955e-38)
(0.00013792116 -0.00022395 -4.8424745e-23 0.00036647852 6.2228264e-23 2.9783445e-40)
(0.0003188138 -0.00040451228 1.112672e-22 0.00052458608 -1.231816e-22 1.8964083e-40)
(0.00058233823 -0.00061174718 -1.811564e-23 0.00066475237 4.7524427e-24 4.9033063e-41)
(0.00092474501 -0.00083357797 5.663505e-22 0.000786178 -4.1479339e-22 3.5774917e-39)
(0.0013478408 -0.0010630034 6.2544626e-22 0.0008890085 -4.0791611e-22 3.2496035e-39)
(0.0018468776 -0.0012935083 -1.8968866e-22 0.00097560863 9.1470263e-23 5.1232814e-40)
(0.002413631 -0.0015199568 -6.9325547e-22 0.0010485161 3.611494e-22 3.256099e-39)
(0.0030389582 -0.0017385316 -1.3931787e-21 0.00110977 7.4973311e-22 6.8981928e-39)
(0.0037129858 -0.0019463021 -3.1295764e-23 0.0011609605 -1.6218578e-23 1.5771582e-40)
(0.004425109 -0.0021409473 1.7665399e-21 0.0012033112 -8.2044665e-22 1.1275235e-38)
(0.0051641699 -0.0023205728 -7.1561536e-22 0.0012377361 2.7140411e-22 3.3358055e-39)
(0.0059186294 -0.002483602 -4.601606e-22 0.0012649208 2.0100545e-22 6.5757254e-40)
(0.0066765933 -0.0026287154 -5.4208062e-23 0.001285424 6.2352919e-23 1.4213735e-40)
(0.0074259781 -0.0027549044 1.082656e-21 0.0012997886 -4.7465145e-22 2.6949818e-39)
(0.0081554979 -0.0028616322 -6.1034589e-22 0.0013085865 3.0743487e-22 1.7882641e-40)
(0.0088544087 -0.002948674 -1.396241e-21 0.0013125286 5.8924287e-22 5.8038119e-39)
(0.009503454 -0.003016572 9.3063229e-22 0.0013133025 -4.0743503e-22 2.9177237e-39)
(0.010079392 -0.0030734196 8.0286384e-22 0.0013128983 -3.2333886e-22 2.7159737e-39)
(1.4372256e-05 -2.065406e-05 7.1325743e-23 4.2130514e-05 -6.9323529e-23 4.6929941e-40)
(0.00010346436 -0.00016742826 2.3257706e-23 0.00028121345 -6.1288908e-24 2.1156771e-40)
(0.00022586725 -0.00035378937 -9.153313e-22 0.00055820639 1.3113397e-21 1.7862576e-38)
(0.00047215213 -0.00060847085 -5.2578104e-22 0.00079773222 5.5855147e-22 5.5287577e-39)
(0.00080697975 -0.00089069966 3.5136479e-22 0.0010085533 -2.7970622e-22 3.3425957e-39)
(0.0012216315 -0.0011852335 4.352693e-22 0.0011888634 -3.5066253e-22 1.5737681e-39)
(0.0017136029 -0.0014830357 -5.6659721e-22 0.0013388328 3.6964163e-22 3.6838118e-39)
(0.002273693 -0.0017761615 -8.6327059e-22 0.001462133 4.9452611e-22 8.0838364e-39)
(0.002889617 -0.0020584678 1.2733443e-21 0.0015627334 -7.5951097e-22 8.2907433e-39)
(0.0035484353 -0.0023253779 3.66072e-22 0.0016438899 -1.4741457e-22 1.9310469e-39)
(0.0042365969 -0.0025733581 -1.1413179e-21 0.0017082038 7.5688649e-22 6.3318067e-40)
(0.0049399573 -0.002799602 5.0199303e-22 0.0017577236 -2.2726501e-22 1.4862412e-39)
(0.0056440088 -0.0030018261 0 0.0017940196 0 0)
(0.0063340766 -0.0031781322 4.8587875e-22 0.0018182861 -2.3656967e-22 5.8107111e-40)
(0.0069954005 -0.0033269347 -3.6362076e-22 0.0018314782 1.727477e-22 3.1025324e-40)
(0.0076133906 -0.0034470137 -5.5517656e-22 0.0018344588 2.7784365e-22 3.7603774e-40)
(0.0081750721 -0.0035377577 2.0309834e-22 0.0018280421 -1.6906881e-22 5.3051831e-40)
(0.008669177 -0.0035991801 -1.6545863e-22 0.0018133337 1.0005825e-22 1.9052023e-41)
(0.0090730477 -0.0036324299 7.8862483e-22 0.0017939865 -3.4205214e-22 3.1452592e-39)
(0.0093571781 -0.003648318 -6.4269842e-22 0.0017760121 3.1728524e-22 1.8175162e-40)
(2.337385e-05 -3.2932384e-05 6.8427379e-23 5.7111067e-05 -5.7533515e-23 3.7678136e-40)
(0.00016729588 -0.00024952981 3.289296e-22 0.0003808471 -4.3816202e-22 1.4035551e-39)
(0.00036063138 -0.00051935961 -4.4134655e-22 0.00075351237 5.8598738e-22 3.3535393e-39)
(0.00069758176 -0.0008589679 -7.2261024e-22 0.0010738969 8.1389173e-22 2.8034832e-39)
(0.0011278802 -0.0012219916 -2.0917147e-22 0.0013531199 3.098642e-22 2.2144381e-39)
(0.0016361922 -0.0015898486 -6.5209191e-22 0.0015881045 5.7339231e-22 1.3782801e-39)
(0.0022141112 -0.0019514085 -3.0485513e-22 0.0017791892 1.8757409e-22 1.5950771e-39)
(0.0028466436 -0.0022976187 5.2659992e-22 0.001931578 -3.1642263e-22 2.9419343e-39)
(0.0035162743 -0.0026217111 1.2552507e-21 0.002050922 -7.4749831e-22 1.0070933e-38)
(0.0042052371 -0.0029187178 3.8522109e-22 0.0021419802 -2.3716702e-22 4.2207872e-40)
(0.0048955465 -0.0031848877 -3.658722e-22 0.0022086649 1.940016e-22 6.6992169e-40)
(0.0055690725 -0.0034173343 -6.9710225e-23 0.0022541524 -1.4886698e-23 5.8375684e-40)
(0.0062079091 -0.0036138225 -1.7317405e-21 0.0022809652 9.4841258e-22 5.5487242e-39)
(0.0067947374 -0.0037726279 -5.3643782e-22 0.0022910865 2.8077645e-22 5.7398546e-40)
(0.0073130777 -0.0038924571 8.9456465e-22 0.0022861123 -5.1971058e-22 2.6999738e-40)
(0.0077476967 -0.0039724701 -8.9007315e-22 0.0022674008 4.8290713e-22 5.6576796e-40)
(0.0080864697 -0.0040125205 -3.1331916e-22 0.0022360276 1.5461563e-22 1.8147755e-40)
(0.0083211718 -0.0040134047 6.9994731e-22 0.0021932414 -2.9460239e-22 2.8246719e-39)
(0.0084309237 -0.0039776006 1.055056e-21 0.0021448682 -5.3026294e-22 2.1377036e-39)
(0.0083813492 -0.0039176793 1.2882848e-22 0.0021038587 -6.0401544e-23 4.1665829e-41)
(3.7175802e-05 -4.8252021e-05 -1.9302151e-22 7.1319317e-05 1.567418e-22 2.2294302e-39)
(0.00025980964 -0.00034828935 -2.1400062e-22 0.00047385476 2.1712116e-22 1.7769661e-39)
(0.00055325324 -0.00071577417 5.3630122e-22 0.00093284151 -6.7900671e-22 8.0490635e-40)
(0.0010084015 -0.001147416 8.2027984e-22 0.0013240786 -8.5043492e-22 3.7234632e-39)
(0.0015576912 -0.0015924177 1.0716911e-23 0.0016606765 -9.6560927e-24 7.3968302e-43)
(0.0021770581 -0.0020286604 -2.2242117e-21 0.0019384067 1.8366e-21 2.1755103e-38)
(0.0028503465 -0.0024430358 -8.6665825e-22 0.0021581787 7.4359933e-22 3.077519e-40)
(0.0035554314 -0.0028259216 6.7624652e-22 0.0023270347 -4.562501e-22 2.3879265e-39)
(0.0042686638 -0.0031705886 7.7293161e-22 0.0024525748 -5.1958246e-22 1.4595461e-39)
(0.0049669846 -0.0034723822 -7.584787e-22 0.0025413491 4.221069e-22 4.0092689e-39)
(0.005627994 -0.003728076 -2.2162554e-21 0.002598888 1.4011618e-21 5.8325083e-39)
(0.0062302707 -0.0039355064 1.4548458e-21 0.0026297997 -8.8338252e-22 2.3974729e-39)
(0.0067539973 -0.0040933568 8.6577362e-22 0.0026378573 -4.5162559e-22 2.8770996e-39)
(0.0071815961 -0.0042010188 -1.1958694e-21 0.0026261172 6.6117537e-22 2.3717063e-39)
(0.0074982367 -0.0042585 5.2379888e-22 0.0025970656 -3.034866e-22 1.5846297e-40)
(0.0076923741 -0.0042663771 8.6783643e-22 0.0025527329 -4.4787426e-22 1.7669388e-39)
(0.0077577154 -0.0042258847 3.2960128e-22 0.0024944673 -1.8671691e-22 5.9880635e-41)
(0.0076946615 -0.0041392438 -5.6353208e-22 0.0024231751 3.5095929e-22 7.5148989e-41)
(0.0074918453 -0.0040107505 -1.2927339e-22 0.0023459111 4.1207653e-23 4.3810537e-40)
(0.0071143983 -0.0038531315 7.369257e-22 0.0022843301 -4.2871029e-22 1.758288e-40)
(5.6939116e-05 -6.6110058e-05 -5.8349236e-24 8.3641641e-05 -5.9700029e-24 4.1292446e-41)
(0.00038609517 -0.00045937078 -7.7558272e-22 0.00055197784 8.2065297e-22 5.837518e-39)
(0.0008121092 -0.00093295397 -6.1983157e-22 0.001079235 6.6518295e-22 8.8362206e-39)
(0.0014125483 -0.0014574926 1.1583665e-21 0.0015235811 -1.1112535e-21 5.1606188e-39)
(0.0021000628 -0.0019788755 9.6205352e-22 0.0018997567 -9.4598627e-22 2.1889913e-39)