/*--------------------------------*- C++ -*----------------------------------*\
  =========                 |
  \\      /  F ield         | OpenFOAM: The Open Source CFD Toolbox
   \\    /   O peration     | Website:  https://openfoam.org
    \\  /    A nd           | Version:  6
     \\/     M anipulation  |
\*---------------------------------------------------------------------------*/
FoamFile
{
    version     2.0;
    format      ascii;
    class       surfaceScalarField;
    location    "146";
    object      phi_0;
}
// * * * * * * * * * * * * * * * * * * * * * * * * * * * * * * * * * * * * * //

dimensions      [0 3 -1 0 0 0 0];

internalField   nonuniform List<scalar> 
18180
(
0.00031873026
-0.00016316215
-0.00015556811
0.001309215
-0.0013669245
0.00037643978
0.0030328968
-0.0033336374
0.0016099557
0.0055497901
-0.0059759878
0.0034590945
0.0089182232
-0.0092391217
0.0058706886
0.013192851
-0.013079587
0.0088049596
0.018421994
-0.017459916
0.012230772
0.024644673
-0.022345894
0.016123215
0.031887457
-0.027703432
0.020460648
0.040161388
-0.033495945
0.025222014
0.049459295
-0.0396826
0.030384693
0.059753871
-0.046217394
0.035922819
0.070996902
-0.053049058
0.041806027
0.083120127
-0.060121817
0.047998592
0.096038319
-0.067377093
0.054458901
0.10965512
-0.074756275
0.061139473
0.12387106
-0.082204386
0.067988442
0.1385988
-0.089674387
0.074946654
0.15383689
-0.097149148
0.081911051
-0.1046263
0.088679226
0.16978396
0.0003974982
-0.00056066036
0.0016095992
-0.0025790255
0.0036893282
-0.0054133664
0.0066874616
-0.0089741213
0.01065068
-0.01320234
0.01561791
-0.018046817
0.021616314
-0.023458319
0.028657328
-0.029386909
0.036733033
-0.035779136
0.045813251
-0.042576163
0.055843813
-0.049713162
0.066746346
-0.057119927
0.078419818
-0.064722531
0.090743947
-0.072445946
0.10358424
-0.080217387
0.11679809
-0.087970126
0.13024096
-0.095647254
0.14377315
-0.10320658
0.15725874
-0.11063473
-0.11786221
0.17049465
0.00048062469
-0.0010412851
0.0019187032
-0.004017104
0.0043524897
-0.0078471529
0.0078165826
-0.012438214
0.012337694
-0.017723452
0.017929249
-0.023638372
0.024586305
-0.030115375
0.03228128
-0.037081884
0.040960926
-0.044458782
0.050545022
-0.052160258
0.060927182
-0.060095323
0.071977931
-0.068170676
0.083549931
-0.076294531
0.095484949
-0.084380963
0.10762183
-0.092354264
0.11980439
-0.10015269
0.13188813
-0.10773099
0.14374359
-0.11506204
0.15524879
-0.12213994
-0.12891458
0.16630116
0.00056617107
-0.0016074561
0.0022279477
-0.0056788806
0.0050006227
-0.010619828
0.0088940306
-0.016331622
0.013905288
-0.022734709
0.020011924
-0.029745007
0.027166542
-0.037269994
0.035293484
-0.045208826
0.044287937
-0.053453235
0.054017868
-0.061890189
0.064328819
-0.070406274
0.075051236
-0.078893093
0.086009631
-0.087252926
0.097032601
-0.095403934
0.10796256
-0.10328422
0.11866404
-0.11085417
0.12902972
-0.11809667
0.13898302
-0.12501534
0.14847494
-0.13163186
-0.13794546
0.15750582
0.00065088773
-0.0022583438
0.0025243472
-0.0075523401
0.0056036464
-0.013699127
0.0098644852
-0.020592461
0.015264641
-0.028134866
0.021736451
-0.036216817
0.029182534
-0.044716076
0.037474957
-0.053501249
0.046458073
-0.062436352
0.055954915
-0.071387031
0.065776513
-0.080227871
0.075733093
-0.088849673
0.085645793
-0.097165626
0.095357462
-0.1051156
0.10474126
-0.11266802
0.11370623
-0.11981914
0.12219938
-0.12658982
0.13020456
-0.13302052
0.13773797
-0.13916527
-0.14506781
0.14486032
0.00073063738
-0.0029889812
0.0027920919
-0.0096137946
0.0061265862
-0.017033621
0.010666732
-0.025132606
0.016322679
-0.033790813
0.022975281
-0.042869419
0.030474475
-0.052215271
0.038642452
-0.061669226
0.047281246
-0.071075146
0.056183792
-0.080289577
0.065146943
-0.089191022
0.07398465
-0.097687379
0.082539524
-0.1057205
0.090691328
-0.11326741
0.098361465
-0.12033816
0.10551329
-0.12697097
0.11214876
-0.13322529
0.11830235
-0.13917411
0.12403355
-0.14489647
-0.15046351
0.12942925
0.00080073275
-0.003789714
0.0030139216
-0.011826983
0.0065329057
-0.020552606
0.01124007
-0.029839771
0.016992723
-0.039543465
0.023618578
-0.049495274
0.030918254
-0.059514946
0.03867336
-0.069424332
0.046658815
-0.079060601
0.054657437
-0.088288199
0.062474493
-0.097008077
0.06994998
-0.10516287
0.076966975
-0.1127375
0.083455096
-0.11975553
0.089389088
-0.12627215
0.094783273
-0.13236515
0.099683243
-0.13812526
0.10415641
-0.14364728
0.108283
-0.14902305
-0.15433375
0.11215325
0.00085606022
-0.0046457742
0.0031720658
-0.014142989
0.0067872361
-0.024167776
0.011529818
-0.034582353
0.017203456
-0.045217103
0.023586575
-0.055878393
0.030439904
-0.066368276
0.037519358
-0.076503786
0.044591826
-0.086133069
0.051451025
-0.095147398
0.057930645
-0.1034877
0.063912777
-0.111145
0.06933063
-0.11815535
0.074165662
-0.12459056
0.078440206
-0.1305467
0.082207269
-0.13613221
0.085539415
-0.14145741
0.088518455
-0.14662632
0.091227233
-0.15173183
-0.15685222
0.093745699
0.00089026375
-0.0055360379
0.0032482879
-0.016501013
0.0068576311
-0.027777119
0.011492478
-0.0392172
0.016906827
-0.050631452
0.022838915
-0.061810481
0.02902369
-0.072553051
0.035209268
-0.082689364
0.041173941
-0.092097742
0.0467404
-0.10071386
0.051784648
-0.10853194
0.056238386
-0.11559874
0.060085103
-0.12200207
0.063351194
-0.12785665
0.066094144
-0.13328965
0.068389968
-0.13842804
0.070321819
-0.14338926
0.071971114
-0.14827561
0.073411787
-0.1531725
-0.15814785
0.074707422
0.00089981946
-0.0064358574
0.0032333845
-0.018834578
0.0067291713
-0.031272906
0.011111187
-0.043599215
0.016092497
-0.055612762
0.021384635
-0.067102619
0.026713895
-0.077882311
0.031839122
-0.087814591
0.036567083
-0.096825704
0.040762259
-0.10490903
0.044349449
-0.11211913
0.04730931
-0.1185586
0.049668351
-0.12436111
0.051485744
-0.12967404
0.052839438
-0.13464334
0.053813717
-0.13940232
0.054489592
-0.14406513
0.054938685
-0.14872471
0.055220398
-0.15345422
0.055380817
-0.15830827
-0.00020237888
0.00020237896
-1.2061763e-10
-0.00067774839
0.00047536961
-1.4549562e-10
-0.0013424294
0.00066468113
-1.5444352e-10
-0.0021322997
0.00078987038
-1.6501396e-10
-0.0029957806
0.00086348098
-1.6802053e-10
-0.0038907496
0.00089496912
-1.6017074e-10
-0.0047823066
0.00089155715
-1.4537708e-10
-0.005640905
0.00085859845
-1.2703845e-10
-0.0064408808
0.00079997582
-1.0849709e-10
-0.0071593019
0.00071842114
-9.1656236e-11
-0.0077750497
0.00061574792
-7.7305522e-11
-0.008268084
0.00049303435
-6.5425406e-11
-0.008618863
0.00035077898
-5.5946763e-11
-0.0088079099
0.00018904699
-4.8046539e-11
-0.0088155582
7.648318e-06
-4.1943767e-11
-0.008621975
-0.00019358323
-3.6545434e-11
-0.0082074248
-0.00041455016
-3.2366052e-11
-0.0075518646
-0.00065556019
-2.8601653e-11
-0.0066345378
-0.00091732676
-2.5821377e-11
-0.0011862462
-0.0054482915
-2.3781722e-11
-0.000187975
0.00039035394
-0.00062500874
0.00091240331
-0.0012287565
0.0012684288
-0.0019351994
0.0014963133
-0.0026921458
0.0016204273
-0.003456292
0.0016591153
-0.0041910761
0.0016263412
-0.0048648683
0.0015323906
-0.0054495332
0.0013846408
-0.0059192951
0.001188183
-0.0062498218
0.00094627465
-0.0064174836
0.0006606961
-0.0063987478
0.0003320432
-0.0061697002
-4.0000644e-05
-0.0057057196
-0.00045633231
-0.0049813977
-0.0009179051
-0.0039707552
-0.0014251927
-0.0026471623
-0.0019791531
-0.00098318872
-0.0025813003
-0.0032018183
0.0010323833
-0.00015892824
0.00054928216
-0.00051889266
0.0012723677
-0.0010007722
0.0017503083
-0.0015412625
0.0020368035
-0.0020873537
0.0021665183
-0.0025937392
0.0021655008
-0.0030208719
0.0020534738
-0.0033332961
0.0018448147
-0.0034983024
0.0015496471
-0.0034848517
0.0011747323
-0.003262691
0.0007241139
-0.0028016337
0.00019963876
-0.0020709259
-0.00039866457
-0.0010387327
-0.0010721939
0.00032829158
-0.0018233566
0.0020652795
-0.0026548931
0.0042091106
-0.0035690237
0.006798105
-0.0045681475
0.0098719545
-0.0056551498
-0.0067798038
0.01344994
-0.00011756714
0.0006668493
-0.00036699905
0.0015217996
-0.00067351438
0.0020568236
-0.00097482627
0.0023381154
-0.001216854
0.002408546
-0.0013515928
0.0023002395
-0.0013354562
0.0020373372
-0.0011278216
0.0016371801
-0.00068983353
0.001111659
1.6548369e-05
0.00046835035
0.0010293336
-0.00028867136
0.0023871478
-0.0011581754
0.0041297776
-0.0021412944
0.0062986527
-0.003241069
0.0089373516
-0.0044620555
0.012092158
-0.0058096998
0.015812437
-0.0072893026
0.020150332
-0.0089060423
0.025160554
-0.010665372
-0.012492723
0.030873473
-6.6907613e-05
0.00073375692
-0.00017916626
0.0016340582
-0.00026653294
0.0021441903
-0.00026768934
0.0023392717
-0.00012719002
0.0022680467
0.0002061743
0.0019668752
0.00078070542
0.0014628061
0.001642967
0.00077491856
0.0028387542
-8.412821e-05
0.0044138797
-0.0011067752
0.0064147373
-0.0022895289
0.0088887178
-0.0036321559
0.011884535
-0.0051371117
0.015452555
-0.0068090893
0.019645172
-0.0086546717
0.024517423
-0.010681951
0.030127874
-0.012899753
0.036539122
-0.015317291
0.043818565
-0.017944815
-0.020682691
0.052008534
-9.9843953e-06
0.00074374133
3.4535994e-05
0.0015895378
0.00019989272
0.0019788335
0.00054677078
0.0019923937
0.0011322558
0.0016825616
0.0020109949
0.0010881361
0.0032361604
0.00023764057
0.0048603331
-0.00084925421
0.00693616
-0.0021599551
0.0095167281
-0.0036873433
0.012655773
-0.0054285741
0.016407785
-0.0073841674
0.020827932
-0.0095572585
0.025971902
-0.011953059
0.031895803
-0.014578573
0.038656465
-0.017442613
0.046312619
-0.020555908
0.054926965
-0.023931636
0.064569998
-0.027587849
-0.031405798
0.075293105
5.075172e-05
0.00069298961
0.00026565947
0.0013746301
0.00070825842
0.0015362346
0.001439038
0.0012616141
0.002516833
0.0006047666
0.0039995858
-0.00039461668
0.0059449424
-0.0017077161
0.0084106417
-0.0033149536
0.011454646
-0.0052039591
0.015135109
-0.0073678061
0.019510108
-0.0098035736
0.024637118
-0.012511178
0.030572275
-0.015492416
0.037369478
-0.018750261
0.045079453
-0.022288548
0.053749212
-0.026112372
0.063422866
-0.030229562
0.074145015
-0.034653785
0.08596969
-0.039412524
-0.044388755
0.098952647
0.00011379688
0.00057919274
0.00050850575
0.00097992121
0.0012459878
0.00079875253
0.0023867877
0.00012081423
0.0039912572
-0.00099970299
0.0061199006
-0.00252326
0.0088333548
-0.0044211702
0.012192213
-0.0066738119
0.01625662
-0.0092683661
0.021085526
-0.012196712
0.026735649
-0.015453696
0.033260148
-0.019035677
0.040707037
-0.022939304
0.049117374
-0.027160599
0.058523368
-0.031694543
0.068946755
-0.036535759
0.080398612
-0.041681418
0.092882477
-0.04713765
0.10640585
-0.0529359
-0.058995961
0.12101306
0.00017849653
0.00040069621
0.0007600328
0.00039838494
0.0018053456
-0.00024656029
0.003374726
-0.0014485661
0.0055290153
-0.0031539923
0.0083293489
-0.0053235936
0.011836532
-0.0079283529
0.016110115
-0.010947395
0.021207116
-0.014365367
0.027180396
-0.018169992
0.034076733
-0.022350033
0.041934618
-0.026893562
0.050781828
-0.031786514
0.06063279
-0.03701156
0.071485726
-0.042547479
0.083319649
-0.048369681
0.09609215
-0.05445392
0.10974075
-0.060786245
0.12419635
-0.067391503
-0.074274935
0.13947532
0.00024512811
0.0010199528
0.0023833483
0.0043938767
0.007110573
0.010591939
0.014894359
0.020070178
0.026165459
0.03321748
0.04125214
0.050281397
0.06030091
0.071287941
0.083199363
0.095969155
0.10950368
0.12366408
0.13818363
0.15258792
-0.0035076473
-0.0019406442
-3.0511047e-11
-0.0012858407
-0.0022218065
-2.8771876e-11
0.001194793
-0.0024806337
-2.6305667e-11
0.0038773546
-0.0026825616
-2.3466322e-11
0.0067350404
-0.0028576858
-2.0657093e-11
0.0097505447
-0.0030155043
-1.5566814e-11
0.012904933
-0.0031543882
-1.1285683e-11
0.016180183
-0.0032752496
-5.2269725e-12
0.019560592
-0.0033804096
2.6676928e-12
0.023031943
-0.0034713509
1.2686167e-11
0.026580949
-0.0035490058
2.4588388e-11
0.030195185
-0.003614236
3.8387245e-11
0.033863008
-0.0036678231
5.3724959e-11
0.037573422
-0.003710414
7.0391426e-11
0.041315975
-0.0037425537
8.7667679e-11
0.045080697
-0.0037647215
1.0482283e-10
0.048858045
-0.0037773487
1.2049221e-10
0.052638877
-0.0037808322
1.3326343e-10
0.056414426
-0.0037755482
1.4109374e-10
0.06017629
-0.0037618648
1.4199229e-10
0.06391644
-0.0037401498
1.3344426e-10
0.067627217
-0.0037107774
1.1329562e-10
0.071301349
-0.0036741323
7.9175102e-11
0.074931961
-0.0036306113
2.9706395e-11
0.078512584
-0.0035806239
-3.6167213e-11
0.082037176
-0.0035245911
-1.1752932e-10
0.085500119
-0.0034629431
-2.1246032e-10
0.088896236
-0.0033961164
-3.1587398e-10
0.092220786
-0.0033245502
-4.2118621e-10
0.09546947
-0.0032486828
-5.1770611e-10
0.098638419
-0.0031689485
-5.9362981e-10
0.10172419
-0.0030857734
-6.3319037e-10
0.10472377
-0.0029995736
-6.2184044e-10
0.10763452
-0.0029107526
-5.4335608e-10
0.11045422
-0.0028196999
-3.8795204e-10
0.11318101
-0.0027267915
-1.4902394e-10
0.1158134
-0.00263239
1.6556263e-10
0.11835025
-0.002536848
5.3894549e-10
0.12079076
-0.0024405147
9.3249571e-10
0.1231345
-0.002343737
1.2967262e-09
0.1253814
-0.002246901
1.561881e-09
0.12753176
-0.0021503587
1.6567218e-09
0.12958655
-0.0020548004
1.5130841e-09
0.13154677
-0.0019602151
1.0928494e-09
0.13341649
-0.0018697263
3.9834993e-10
0.13519425
-0.0017777528
-5.0405889e-10
0.1369045
-0.0017102472
-1.4718177e-09
0.13850309
-0.0015985936
-2.2773535e-09
0.14019091
-0.0016878149
-2.8173128e-09
-0.0013321967
-1.9236829e-09
0.0028530154
-0.0037612763
0.0049501808
-0.0043189719
0.0072930611
-0.0048235139
0.009819214
-0.0052087145
0.012507578
-0.0055460503
0.015345829
-0.005853755
0.018317225
-0.0061257843
0.02140536
-0.0063633846
0.024596215
-0.0065712647
0.027877028
-0.0067521636
0.031235666
-0.0069076443
0.03466065
-0.0070392193
0.038141121
-0.0071482944
0.041666734
-0.0072360271
0.045227571
-0.0073033906
0.048814099
-0.0073512491
0.052417138
-0.0073803881
0.056027844
-0.0073915386
0.059637698
-0.0073854023
0.063238507
-0.0073626733
0.06682241
-0.0073240531
0.070381895
-0.0072702617
0.073909806
-0.0072020442
0.077399369
-0.0071201735
0.080844195
-0.0070254507
0.084238306
-0.0069187013
0.087576134
-0.0068007712
0.090852537
-0.0066725197
0.0940628
-0.0065348132
0.097202634
-0.0063885168
0.10026817
-0.0062344883
0.10325597
-0.0060735707
0.10616298
-0.0059065869
0.10898657
-0.0057343362
0.11172446
-0.0055575904
0.11437476
-0.005377095
0.11693594
-0.0051935706
0.11940681
-0.0050077174
0.12178653
-0.004820231
0.12407459
-0.0046318013
0.12627089
-0.0044432004
0.12837566
-0.0042551297
0.13038983
-0.0040689679
0.13231431
-0.0038846969
0.13415312
-0.0037085312
0.13590477
-0.0035294077
0.13759328
-0.0033987547
0.13917553
-0.0031808479
0.14084721
-0.003359487
-0.0026619407
0.015021294
-0.0053326305
0.016852414
-0.0061500914
0.018905972
-0.0068770722
0.021112041
-0.0074147832
0.023458986
-0.0078929953
0.025943154
-0.0083379235
0.028551928
-0.0087345581
0.031271827
-0.0090832837
0.034091751
-0.0093911887
0.03700147
-0.0096618826
0.039990864
-0.0098970378
0.043050071
-0.010098427
0.046169568
-0.010267791
0.049340099
-0.010406558
0.052552635
-0.010515927
0.055798365
-0.010596979
0.059068699
-0.010650722
0.062355274
-0.010678114
0.065649968
-0.010680097
0.068944917
-0.010657622
0.072232533
-0.010611669
0.075505529
-0.010543257
0.078756939
-0.010453455
0.081980143
-0.010343378
0.085168884
-0.010214191
0.088317283
-0.0100671
0.091419856
-0.0099033444
0.094471522
-0.0097241859
0.097467607
-0.0095308982
0.10040385
-0.0093247576
0.10327639
-0.0091070281
0.10608177
-0.0088789549
0.10881694
-0.0086417548
0.11147921
-0.0083966097
0.11406629
-0.0081446635
0.11657621
-0.0078870213
0.1190074
-0.0076247533
0.12135858
-0.0073589014
0.12362885
-0.0070905014
0.12581763
-0.0068205837
0.12792473
-0.0065503021
0.12995031
-0.0062807079
0.13189521
-0.0060138612
0.13376026
-0.0057497528
0.13554934
-0.0054976048
0.13726105
-0.0052411177
0.13891843
-0.0050561376
0.14048071
-0.0047431297
0.14213295
-0.0050117237
-0.0039999228
0.032056782
-0.0065159399
0.033471999
-0.007565308
0.035077524
-0.008482597
0.03680038
-0.0091376397
0.038641254
-0.0097338692
0.040606443
-0.010303112
0.042688775
-0.01081689
0.044878727
-0.011273236
0.047168724
-0.011681185
0.049551537
-0.012044695
0.052019458
-0.012364959
0.054564532
-0.012643501
0.057178748
-0.012882007
0.059854064
-0.013081874
0.062582416
-0.013244279
0.065355762
-0.013370325
0.06816612
-0.01346108
0.071005613
-0.013517607
0.073866508
-0.013540992
0.076741255
-0.013532368
0.079622519
-0.013492933
0.082503222
-0.013423961
0.08537657
-0.013326802
0.08823608
-0.013202888
0.091075609
-0.01305372
0.093889369
-0.01288086
0.096671947
-0.012685923
0.099418314
-0.012470553
0.10212383
-0.012236416
0.10478426
-0.011985183
0.10739574
-0.011718509
0.10995481
-0.011438029
0.1124584
-0.011145339
0.11490378
-0.010841995
0.11728862
-0.0105295
0.11961091
-0.010209311
0.12186899
-0.0098828397
0.12406156
-0.0095514643
0.12618761
-0.0092165559
0.12824651
-0.0088794828
0.13023799
-0.0085417782
0.13216212
-0.0082048439
0.13401967
-0.0078714132
0.13581143
-0.00754151
0.13754107
-0.0072272411
0.13920739
-0.0069074374
0.14083205
-0.0066807999
0.14237776
-0.0062888356
0.14401429
-0.0066482569
-0.005362038
0.052648844
-0.0071562504
0.053489449
-0.0084059124
0.054483582
-0.0094767302
0.055565556
-0.010219614
0.056750189
-0.010918502
0.058051774
-0.011604697
0.059468823
-0.012233938
0.060996467
-0.01280088
0.062630495
-0.013315214
0.064366311
-0.013780511
0.066198394
-0.014197042
0.068120474
-0.014565581
0.070125787
-0.01488732
0.072207231
-0.015163318
0.074357459
-0.015394508
0.076568959
-0.015581825
0.078834138
-0.015726259
0.081145403
-0.015828872
0.083495225
-0.015890814
0.085876202
-0.015913345
0.088281107
-0.015897839
0.09070294
-0.015845793
0.09313496
-0.015758822
0.095570726
-0.015638654
0.098004125
-0.015487119
0.10042939
-0.015306125
0.10284112
-0.015097653
0.10523429
-0.014863725
0.10760427
-0.014606396
0.10994681
-0.01432772
0.11225805
-0.014029745
0.1145345
-0.013714482
0.11677307
-0.01338391
0.11897102
-0.013039945
0.12112597
-0.012684452
0.12323589
-0.012319234
0.1252991
-0.011946041
0.12731422
-0.011566585
0.12928023
-0.011182573
0.13119646
-0.01079571
0.13306259
-0.010407911
0.13487868
-0.01002093
0.13664543
-0.0096381673
0.13836363
-0.0092597099
0.14003679
-0.0089003948
0.141664
-0.0085346472
0.14326525
-0.0082820496
0.14480766
-0.0078312532
0.14644213
-0.0082827194
-0.0067715267
0.075222103
-0.007085249
0.075327078
-0.0085108875
0.075551461
-0.0097011127
0.075851767
-0.01051992
0.076256032
-0.011322767
0.076781109
-0.012129774
0.077430032
-0.012882862
0.078202734
-0.013573581
0.07909752
-0.014210001
0.080111245
-0.014794236
0.081239664
-0.015325461
0.082477481
-0.015803398
0.083818512
-0.016228352
0.085255978
-0.016600784
0.086782702
-0.016921231
0.088391232
-0.017190354
0.090073948
-0.017408976
0.091823174
-0.017578098
0.093631266
-0.017698906
0.095490686
-0.017772765
0.097394068
-0.01780122
0.09933427
-0.017785995
0.10130442
-0.017728976
0.10329797
-0.017632198
0.10530868
-0.01749783
0.1073307
-0.017328143
0.10935854
-0.017125498
0.11138713
-0.016892309
0.11341176
-0.016631027
0.11542814
-0.016344107
0.11743239
-0.01603399
0.11942099
-0.015703086
0.12139083
-0.01535375
0.12333916
-0.014988277
0.1252636
-0.014608892
0.12716212
-0.014217752
0.12903304
-0.013816954
0.130875
-0.013408547
0.132687
-0.012994578
0.13446839
-0.0125771
0.13621889
-0.012158409
0.13793859
-0.011740626
0.13962822
-0.011327803
0.14128865
-0.010920136
0.14292327
-0.010535012
0.1445316
-0.010142979
0.14613178
-0.0098822324
0.1476961
-0.0093955719
0.14935408
-0.009940696
-0.0082605031
0.098025665
-0.0061582675
0.097258406
-0.0077436279
0.096582129
-0.0090248361
0.095997708
-0.0099354988
0.09554127
-0.010866329
0.095224048
-0.011812552
0.095051409
-0.012710223
0.095027356
-0.013549528
0.095151422
-0.014334067
0.095420341
-0.015063156
0.095829755
-0.015734874
0.096374252
-0.016347896
0.097047349
-0.016901449
0.097841813
-0.017395248
0.09874996
-0.017829379
0.099763819
-0.018204213
0.10087525
-0.01852041
0.10207608
-0.018778925
0.10335817
-0.018980998
0.10471354
-0.019128131
0.1061344
-0.019222078
0.10761322
-0.019264824
0.10914282
-0.019258567
0.11071631
-0.019205691
0.11232722
-0.019108742
0.11396948
-0.018970397
0.1156374
-0.018793427
0.11732577
-0.018580675
0.11902977
-0.018335023
0.12074501
-0.018059353
0.12246756
-0.017756536
0.12419387
-0.017429394
0.12592081
-0.017080691
0.12764565
-0.016713118
0.12936604
-0.016329282
0.13108
-0.015931711
0.13278591
-0.015522862
0.1344825
-0.015105141
0.13616887
-0.014680951
0.13784447
-0.014252698
0.13950914
-0.013823081
0.14116311
-0.013394594
0.14280725
-0.012971944
0.14444259
-0.012555472
0.14607251
-0.012164936
0.14769709
-0.011767559
0.14933257
-0.011517714
0.15095687
-0.011019868
0.15267695
-0.011660777
-0.0098707273
0.11918943
-0.0043346365
0.11749684
-0.0060510381
0.11585734
-0.0073853333
0.11435482
-0.0084329864
0.11302554
-0.0095370458
0.111867
-0.010654007
0.11088466
-0.011727885
0.11008481
-0.012749677
0.10946685
-0.013716113
0.1090262
-0.014622505
0.10875704
-0.015465717
0.10865272
-0.016243569
0.10870563
-0.016954357
0.10890746
-0.017597081
0.10924949
-0.018171412
0.10972279
-0.018677506
0.11031831
-0.019115934
0.11102706
-0.019487674
0.11184015
-0.019794088
0.1127489
-0.020036884
0.11374491
-0.020218086
0.11482009
-0.020340007
0.11596674
-0.020405219
0.11717757
-0.020416515
0.11844571
-0.020376879
0.11976475
-0.020289443
0.12112878
-0.020157455
0.12253234
-0.019984234
0.12397045
-0.019773138
0.12543863
-0.019527532
0.12693285
-0.019250751
0.12844953
-0.018946079
0.12998556
-0.018616724
0.13153825
-0.018265806
0.13310532
-0.017896349
0.13468489
-0.017511282
0.13627548
-0.017113451
0.13787598
-0.016705642
0.13948566
-0.016290636
0.14110419
-0.015871222
0.14273162
-0.015450514
0.14436843
-0.015031403
0.14601574
-0.014619252
0.14767485
-0.014214589
0.14934928
-0.013839366
0.15103976
-0.013458037
0.15276069
-0.013238644
0.15449587
-0.012755045
0.15632958
-0.013494488
-0.011653546
0.13689636
-0.0017556771
0.13437842
-0.0035330895
0.13181986
-0.0048267788
0.12946281
-0.006075936
0.12733447
-0.0074087066
0.12541622
-0.0087357534
0.12371088
-0.010022548
0.12222355
-0.011262343
0.12095267
-0.012445235
0.11989247
-0.01356231
0.11903545
-0.014608698
0.11837327
-0.015581379
0.11789691
-0.016478002
0.11759686
-0.017297034
0.11746326
-0.018037806
0.11748608
-0.018700328
0.11765531
-0.019285168
0.11796104
-0.019793401
0.11839353
-0.020226577
0.11894332
-0.020586678
0.1196013
-0.020876065
0.12035874
-0.021097448
0.12120736
-0.021253838
0.12213935
-0.021348504
0.12314741
-0.021384935
0.12422475
-0.021366789
0.12536514
-0.021297846
0.12656288
-0.021181969
0.1278128
-0.021023058
0.12911028
-0.020825012
0.13045122
-0.020591693
0.13183204
-0.020326895
0.13324964
-0.020034323
0.13470141
-0.019717574
0.13618519
-0.019380131
0.13769927
-0.019025366
0.13924237
-0.018656553
0.14081362
-0.01827689
0.14241256
-0.017889574
0.14403914
-0.017497802
0.14569376
-0.017105131
0.14737723
-0.016714876
0.14909104
-0.016333066
0.15083691
-0.01596046
0.15261858
-0.015621034
0.15443755
-0.015277008
0.1563065
-0.015107592
0.15821523
-0.014663772
0.16022576
-0.015505022
-0.013668999
0.15005243
0.00077981676
0.1467635
-0.0002441551
0.14346617
-0.0015294536
0.14041841
-0.0030281719
0.13762353
-0.0046138291
0.13507528
-0.0061875068
0.1327755
-0.0077227676
0.13072427
-0.0092111146
0.12891916
-0.010640118
0.12735495
-0.011998104
0.12602383
-0.013277578
0.12491639
-0.01447394
0.12402246
-0.015584066
0.12333136
-0.016605942
0.12283213
-0.017538575
0.12251365
-0.018381848
0.12236485
-0.019136366
0.12237481
-0.019803363
0.12253288
-0.020384646
0.12282874
-0.020882532
0.12325247
-0.021299794
0.12379463
-0.021639608
0.12444629
-0.0219055
0.12519908
-0.022101293
0.1260452
-0.022231056
0.12697745
-0.022299046
0.12798926
-0.022309657
0.12907466
-0.022267367
0.1302283
-0.022176692
0.13144542
-0.022042135
0.13272188
-0.021868151
0.13405409
-0.02165911
0.13543904
-0.021419272
0.13687424
-0.02115277
0.13835771
-0.020863599
0.13988796
-0.020555621
0.14146399
-0.020232582
0.14308524
-0.019898141
0.14475161
-0.019555941
0.14646343
-0.019209624
0.14822153
-0.018863227
0.15002716
-0.018520504
0.15188228
-0.018188183
0.15378907
-0.017867258
0.15575169
-0.01758365
0.15777232
-0.017297635
0.15986251
-0.017197787
0.16201651
-0.016817771
0.16427913
-0.017767644
-0.015982047
0.18890929
0.0053818972
-0.19351137
0.18509927
0.003565862
0.18170726
0.0018625596
0.17856215
0.00011693145
0.17562662
-0.0016782933
0.17287562
-0.0034365059
0.17029093
-0.0051380773
0.16786355
-0.0067837417
0.16558962
-0.0083661823
0.16346696
-0.0098754495
0.16149373
-0.011304345
0.15966781
-0.012648017
0.15798655
-0.013902812
0.15644668
-0.015066065
0.15504426
-0.016136155
0.15377482
-0.017112416
0.15263345
-0.017994995
0.15161485
-0.01878476
0.15071344
-0.019483233
0.14992344
-0.020092533
0.14923896
-0.020615311
0.14865404
-0.02105469
0.14816274
-0.021414204
0.14775919
-0.021697739
0.14743761
-0.021909476
0.14719238
-0.022053821
0.14701808
-0.022135357
0.14690949
-0.022158775
0.14686163
-0.022128828
0.14686977
-0.022050275
0.14692945
-0.021927838
0.14703651
-0.021766164
0.14718703
-0.021569796
0.14737741
-0.02134315
0.14760432
-0.021090509
0.14786472
-0.020816019
0.14815585
-0.020523713
0.14847524
-0.020217535
0.14882072
-0.019901422
0.14919041
-0.019579311
0.14958275
-0.019255568
0.14999651
-0.018934263
0.15043092
-0.018622597
0.15088548
-0.018321808
0.15136079
-0.018058961
0.15185671
-0.017793561
0.15237775
-0.017718826
0.15291958
-0.017359599
0.15350525
-0.018353318
-0.016575562
0.21685816
0.0087802076
-0.22025647
0.21338429
0.0070397277
0.2101715
0.0050753501
0.20706621
0.0032222219
0.20401964
0.001368279
0.20106275
-0.00047960987
0.19821241
-0.0022877408
0.19547314
-0.0040444776
0.19285085
-0.0057438911
0.19035237
-0.007376963
0.18798289
-0.0089348627
0.1857458
-0.010410937
0.18364312
-0.011800129
0.18167554
-0.013098478
0.17984251
-0.01430313
0.17814242
-0.015412326
0.17657272
-0.016425296
0.17513009
-0.017342134
0.17381059
-0.018163732
0.17260976
-0.018891701
0.17152275
-0.019528302
0.17054444
-0.020076374
0.16966949
-0.020539257
0.16889248
-0.020920731
0.16820794
-0.021224936
0.16761043
-0.021456311
0.16709459
-0.021619517
0.1666552
-0.021719379
0.16628718
-0.021760816
0.1659857
-0.021748789
0.16574611
-0.021688247
0.16556403
-0.021584085
0.16543534
-0.021441107
0.16535619
-0.021264003
0.16532302
-0.021057336
0.16533254
-0.020825539
0.16538176
-0.020572933
0.16546798
-0.020303759
0.16558881
-0.020022255
0.16574217
-0.019732671
0.16592631
-0.019439702
0.16613982
-0.019147779
0.16638172
-0.018864494
0.16665151
-0.018591595
0.16694904
-0.018356493
0.16727555
-0.018120075
0.16763028
-0.018073557
0.16802152
-0.01775084
0.1684313
-0.018763096
-0.017050302
0.24376705
0.011504142
-0.24649098
0.24091663
0.0098901448
0.23806344
0.0079285394
0.2352165
0.006069162
0.23233872
0.0042460587
0.22945093
0.0024081861
0.22658433
0.00057885123
0.22375824
-0.0012183862
0.22098857
-0.0029742181
0.21829125
-0.0046796446
0.21568015
-0.0063237573
0.21316625
-0.007897044
0.21075818
-0.0093920597
0.2084625
-0.010802791
0.20628383
-0.012124457
0.20422505
-0.013353551
0.20228753
-0.014487772
0.20047129
-0.015525902
0.19877527
-0.016467708
0.19719742
-0.017313854
0.19573494
-0.018065819
0.19438437
-0.018725804
0.19314177
-0.019296654
0.1920028
-0.019781766
0.19096288
-0.020185012
0.19001722
-0.020510655
0.18916097
-0.020763268
0.18838925
-0.020947656
0.18769723
-0.021068789
0.18708017
-0.021131728
0.18653349
-0.021141569
0.18605279
-0.021103391
0.1856339
-0.021022212
0.18527286
-0.020902961
0.18496598
-0.020750457
0.18470984
-0.020569405
0.18450132
-0.02036441
0.18433757
-0.020140007
0.18421605
-0.019900738
0.18413456
-0.019651176
0.1840912
-0.019396347
0.1840845
-0.019141078
0.18411327
-0.018893266
0.18417711
-0.018655433
0.18427512
-0.0184545
0.18441001
-0.018254972
0.18457542
-0.018238959
0.18479321
-0.017968637
0.18499954
-0.018969426
-0.017383808
0.26927477
0.013537077
-0.27130771
0.26710675
0.012058171
0.26476501
0.010270281
0.2623258
0.0085083677
0.25979707
0.0067747877
0.257189
0.0050162586
0.2545277
0.0032401451
0.25183736
0.0014719564
0.24913797
-0.00027482457
0.24644933
-0.0019910052
0.24379073
-0.0036651623
0.24117932
-0.0052856289
0.23862981
-0.0068425514
0.2361547
-0.0083276794
0.23376428
-0.0097340369
0.23146671
-0.011055983
0.22926818
-0.01228924
0.22717308
-0.013430802
0.22518421
-0.014478841
0.22330297
-0.015432615
0.22152953
-0.016292382
0.21986303
-0.017059302
0.21830172
-0.017735345
0.21684314
-0.018323187
0.21548426
-0.018826124
0.21422157
-0.019247967
0.21305126
-0.019592959
0.21196928
-0.019865679
0.21097145
-0.020070963
0.21005354
-0.020213819
0.20921134
-0.020299362
0.2084407
-0.020332749
0.20773761
-0.020319129
0.20709825
-0.020263601
0.20651899
-0.020171189
0.20599642
-0.020046835
0.20552741
-0.019895401
0.2051091
-0.0197217
0.20473894
-0.019530572
0.20441467
-0.019326913
0.20413439
-0.019116068
0.2038966
-0.01890329
0.20370004
-0.018696705
0.20354441
-0.018499804
0.20342825
-0.018338333
0.20335546
-0.018182188
0.20331489
-0.018198383
0.20333975
-0.0179935
0.20332486
-0.018954537
-0.017553889
0.2929855
0.014868205
-0.29431662
0.29150627
0.013537399
0.28978379
0.011992759
0.28788517
0.010406985
0.28584528
0.0088146807
0.28367493
0.0071866115
0.28139253
0.0055225465
0.27902132
0.0038431632
0.27658261
0.002163885
0.27409656
0.00049504514
0.27158337
-0.001151972
0.26906276
-0.0027650232
0.26655307
-0.0043328541
0.26407087
-0.0058454822
0.26163091
-0.0072940794
0.25924596
-0.0086710301
0.25692677
-0.0099700522
0.25468217
-0.011186199
0.25251913
-0.012315802
0.25044293
-0.013356417
0.24845729
-0.014306745
0.24656455
-0.015166558
0.2447658
-0.015936594
0.24306108
-0.016618471
0.24144953
-0.017214576
0.23992954
-0.01772797
0.23849886
-0.018162282
0.23715479
-0.018521611
0.23589426
-0.018810431
0.23471394
-0.019033499
0.23361035
-0.019195774
0.23257995
-0.019302345
0.23161919
-0.019358364
0.23072459
-0.019369001
0.2298928
-0.019339405
0.22912065
-0.019274687
0.22840517
-0.01917992
0.22774363
-0.019060161
0.22713358
-0.018920522
0.22657288
-0.018766206
0.22605968
-0.018602869
0.22559258
-0.018436192
0.22517035
-0.018274472
0.22479283
-0.018122285
0.2244582
-0.018003702
0.22417121
-0.017895204
0.22391704