/*--------------------------------*- C++ -*----------------------------------*\
  =========                 |
  \\      /  F ield         | OpenFOAM: The Open Source CFD Toolbox
   \\    /   O peration     | Website:  https://openfoam.org
    \\  /    A nd           | Version:  6
     \\/     M anipulation  |
\*---------------------------------------------------------------------------*/
FoamFile
{
    version     2.0;
    format      ascii;
    class       volScalarField;
    location    "146";
    object      pMean;
}
// * * * * * * * * * * * * * * * * * * * * * * * * * * * * * * * * * * * * * //

dimensions      [0 2 -2 0 0 0 0];

internalField   nonuniform List<scalar> 
9200
(
-0.39985188
-0.38768164
-0.3768048
-0.36719951
-0.35779821
-0.3486011
-0.33969268
-0.33103677
-0.32256115
-0.31419124
-0.30585337
-0.29747968
-0.28901522
-0.28042494
-0.2717038
-0.26289361
-0.2540773
-0.24534773
-0.23770565
-0.23533655
-0.4183944
-0.40377549
-0.39096357
-0.37982798
-0.36903037
-0.35854076
-0.34843398
-0.33864401
-0.32906839
-0.31960874
-0.31017441
-0.30068804
-0.29109298
-0.2813588
-0.27148605
-0.26150942
-0.25146856
-0.24137191
-0.23189143
-0.22515922
-0.4372507
-0.42017676
-0.40548632
-0.39289469
-0.3807545
-0.36898776
-0.35764899
-0.34663629
-0.33581695
-0.3250747
-0.31431279
-0.30345906
-0.29247209
-0.28134342
-0.27009637
-0.25878083
-0.24744539
-0.23610655
-0.22516202
-0.21572491
-0.45595896
-0.43646311
-0.4199663
-0.40598019
-0.39251255
-0.37942212
-0.36673706
-0.35432144
-0.34202254
-0.32972358
-0.31734386
-0.30484064
-0.29221105
-0.2794887
-0.26673584
-0.25403259
-0.24145283
-0.22903935
-0.21706081
-0.20626527
-0.47386043
-0.4520593
-0.43387794
-0.41857277
-0.40378143
-0.38929042
-0.37510389
-0.36106513
-0.34702413
-0.33289204
-0.31863425
-0.30426482
-0.28984086
-0.27545134
-0.26120298
-0.24720586
-0.23355329
-0.22030327
-0.20764491
-0.19609473
-0.49010358
-0.46621873
-0.44653199
-0.42999453
-0.41386729
-0.39786717
-0.38198957
-0.36608512
-0.35004216
-0.33383636
-0.317511
-0.30115971
-0.28491073
-0.26890805
-0.25329326
-0.23819109
-0.22369489
-0.20985607
-0.19679985
-0.18487058
-0.50365984
-0.47803046
-0.45707798
-0.43940574
-0.42191865
-0.40428276
-0.38651526
-0.3685167
-0.35025859
-0.33181946
-0.31334653
-0.29502412
-0.27704813
-0.25960282
-0.24284317
-0.22688505
-0.21179891
-0.19760856
-0.18437825
-0.17231344
-0.51334715
-0.48644464
-0.46453886
-0.44585424
-0.42699324
-0.40760781
-0.38778187
-0.36751885
-0.34692103
-0.32620255
-0.30562914
-0.28547268
-0.26598011
-0.2473515
-0.22972912
-0.21319668
-0.19778319
-0.1834717
-0.17026683
-0.15825633
-0.51780998
-0.49016856
-0.46760896
-0.44798572
-0.42770134
-0.40645821
-0.38446773
-0.36189239
-0.33900212
-0.31615892
-0.2937373
-0.27207194
-0.25142896
-0.23199301
-0.21386817
-0.19708851
-0.18163216
-0.16743823
-0.15445605
-0.14267207
-0.51569388
-0.48777464
-0.46472741
-0.44412406
-0.42231742
-0.39914477
-0.37500896
-0.35027385
-0.32538649
-0.30083593
-0.27706554
-0.25442622
-0.2331608
-0.21340675
-0.19521111
-0.17855126
-0.16335606
-0.14952718
-0.13696606
-0.12557049
-0.27988932
-0.28419879
-0.28613885
-0.28638766
-0.2856414
-0.28406586
-0.28175857
-0.27881603
-0.27531391
-0.27131032
-0.26685303
-0.26198308
-0.25673699
-0.25114819
-0.2452483
-0.23906965
-0.23264675
-0.22600364
-0.21914225
-0.21215464
-0.28285547
-0.28672207
-0.28834144
-0.28836615
-0.28743453
-0.28570367
-0.28326896
-0.28022247
-0.2766358
-0.2725639
-0.26805181
-0.26313826
-0.25785763
-0.25224116
-0.24631767
-0.24011822
-0.23368469
-0.22703944
-0.22007468
-0.21276352
-0.28863035
-0.29163499
-0.2926317
-0.29221836
-0.2909237
-0.28888917
-0.28620585
-0.28295724
-0.27920707
-0.275004
-0.27038768
-0.2653921
-0.26004743
-0.25438067
-0.24841545
-0.24217954
-0.23572583
-0.22907584
-0.22192676
-0.21400752
-0.29693697
-0.29871388
-0.29881264
-0.29775557
-0.29592107
-0.29343063
-0.29037022
-0.28681176
-0.2828081
-0.27839909
-0.27361671
-0.26848809
-0.26303726
-0.25728506
-0.25124787
-0.24494773
-0.23844866
-0.23177735
-0.22438584
-0.2156212
-0.30742697
-0.30767817
-0.30663915
-0.30474587
-0.30219893
-0.29909886
-0.29552706
-0.29154233
-0.28718472
-0.28248371
-0.27746194
-0.27213741
-0.26652592
-0.26064077
-0.25448986
-0.24808646
-0.24150148
-0.23477535
-0.22710831
-0.21732757
-0.31973969
-0.31823709
-0.31585938
-0.31295525
-0.30953246
-0.30567248
-0.30145437
-0.29692409
-0.29210825
-0.28702342
-0.28168041
-0.27608702
-0.27024945
-0.26417205
-0.25785331
-0.25129505
-0.24456735
-0.2377301
-0.22976464
-0.21886967
-0.33355482
-0.33013096
-0.32625187
-0.32218515
-0.31773981
-0.31298205
-0.30799259
-0.30280419
-0.29742746
-0.29186539
-0.28611626
-0.28017572
-0.27403873
-0.26769967
-0.26114789
-0.25437378
-0.24744009
-0.24042918
-0.23216841
-0.22017343
-0.34862319
-0.34315622
-0.33764954
-0.33229892
-0.32671334
-0.32094707
-0.31508289
-0.30913997
-0.30311307
-0.29698977
-0.29075311
-0.28438379
-0.27786272
-0.27117207
-0.26429176
-0.25720402
-0.24996963
-0.24271699
-0.23423727
-0.22136995
-0.36476539
-0.35715559
-0.34991826
-0.34318716
-0.33636631
-0.32949725
-0.32266692
-0.31588064
-0.3091148
-0.30233875
-0.29551713
-0.28861204
-0.28158551
-0.27439996
-0.26701377
-0.25938322
-0.25153546
-0.24358221
-0.23431633
-0.22030285
-0.38186188
-0.37199834
-0.36292068
-0.3547055
-0.34654063
-0.33845475
-0.33053909
-0.32278332
-0.31514356
-0.30756993
-0.3000092
-0.29240746
-0.28471331
-0.27687804
-0.26885045
-0.26057255
-0.25199429
-0.24292113
-0.23175735
-0.21555021
-0.20424925
-0.19444241
-0.18467936
-0.17504104
-0.1654682
-0.15600092
-0.1466964
-0.13759136
-0.12871436
-0.12009286
-0.11175144
-0.1037104
-0.095986364
-0.08859277
-0.081539952
-0.074835245
-0.068483161
-0.062485562
-0.056841831
-0.051549034
-0.046602111
-0.041994057
-0.03771613
-0.033758052
-0.030108227
-0.026753952
-0.023681635
-0.020877001
-0.018325303
-0.016011511
-0.013920499
-0.012037211
-0.010346819
-0.0088348616
-0.0074873754
-0.0062910076
-0.0052331303
-0.0043019251
-0.0034865591
-0.0027770737
-0.0021653038
-0.0016425923
-0.0012080162
-0.00084418697
-0.00059381443
-0.00033262073
-0.00045318397
0.000132073
-0.0018524138
0.0028659205
-0.20559666
-0.19534954
-0.18545462
-0.17581858
-0.16621127
-0.15669548
-0.14734975
-0.13820685
-0.1292922
-0.12063398
-0.11225722
-0.10418211
-0.09642522
-0.089000045
-0.08191698
-0.075183399
-0.068803843
-0.062780203
-0.057111877
-0.051795935
-0.046827308
-0.042198975
-0.037902165
-0.033926565
-0.030260534
-0.026891318
-0.023805271
-0.020988059
-0.018424872
-0.016100617
-0.014000103
-0.012108207
-0.010410038
-0.00889107
-0.0075372777
-0.0063352479
-0.0052722943
-0.0043365427
-0.0035171064
-0.0028039751
-0.002188933
-0.0016632747
-0.0012260129
-0.00085974649
-0.00060691939
-0.00034381214
-0.00046041886
0.0001233164
-0.0018408378
0.0028364778
-0.20833117
-0.19715824
-0.18700613
-0.17741938
-0.16776035
-0.15815117
-0.14872751
-0.1395122
-0.13052281
-0.12178999
-0.11334041
-0.10519418
-0.097367945
-0.089875577
-0.08272775
-0.075932031
-0.06949313
-0.063413071
-0.057691346
-0.052325084
-0.047309232
-0.04263676
-0.038298857
-0.034285144
-0.030583896
-0.027182256
-0.024066459
-0.021222043
-0.018634061
-0.016287278
-0.014166356
-0.012256027
-0.010541252
-0.0090073619
-0.0076401907
-0.0064261889
-0.0053525398
-0.0044072435
-0.0035792937
-0.002858565
-0.0022367306
-0.0017049776
-0.0012621874
-0.00089091245
-0.00063309571
-0.00036604227
-0.0004747845
0.00010613022
-0.0018178899
0.002778158
-0.21217324
-0.19953922
-0.18902067
-0.17961346
-0.16993443
-0.16020992
-0.15069526
-0.1413961
-0.13231305
-0.12348222
-0.11493471
-0.10669085
-0.098767639
-0.091179869
-0.083938995
-0.077053127
-0.070527419
-0.06436427
-0.058563455
-0.053122301
-0.048035886
-0.043297239
-0.038897556
-0.034826416
-0.031072005
-0.027621347
-0.024460526
-0.021574907
-0.018949353
-0.016568424
-0.01441657
-0.012478308
-0.010738378
-0.0091818974
-0.0077944864
-0.0065623891
-0.0054725893
-0.0045128955
-0.0036721183
-0.0029399559
-0.0023079119
-0.0017670085
-0.0013159285
-0.00093714875
-0.00067187141
-0.00039890301
-0.00049594996
8.0858899e-05
-0.0017838808
0.0026921614
-0.21676552
-0.20212346
-0.19114254
-0.18211908
-0.17251077
-0.16267684
-0.15308274
-0.14371558
-0.13454324
-0.12560914
-0.11695373
-0.10859897
-0.10056246
-0.092860638
-0.085506517
-0.078509343
-0.071875171
-0.065607154
-0.059705675
-0.054168523
-0.048991109
-0.044166685
-0.039686572
-0.03554039
-0.031716294
-0.028201217
-0.024981097
-0.022041117
-0.019365923
-0.016939832
-0.014747037
-0.012771781
-0.01099853
-0.0094121211
-0.0079978994
-0.006741838
-0.0056306581
-0.0046519145
-0.0037941749
-0.0030469024
-0.0024013747
-0.0018483935
-0.0013863773
-0.0009977009
-0.00072258674
-0.00044181625
-0.00052347596
4.8032822e-05
-0.0017394034
0.0025803718
-0.22165057
-0.20455277
-0.19303588
-0.18463287
-0.17525022
-0.16534962
-0.15570502
-0.14630838
-0.13707694
-0.12805549
-0.11929892
-0.11083441
-0.10268104
-0.094857414
-0.087379051
-0.080257218
-0.073499537
-0.067110461
-0.061091448
-0.055441145
-0.050155618
-0.045228601
-0.040651746
-0.036414873
-0.032506223
-0.028912717
-0.025620203
-0.022613705
-0.019877656
-0.017396121
-0.015153005
-0.013132245
-0.011317983
-0.009694729
-0.0082474959
-0.0069619303
-0.0058244329
-0.0048222481
-0.0039436443
-0.0031777946
-0.0025156964
-0.0019478787
-0.0014724311
-0.0010716036
-0.0007844026
-0.00049405211
-0.0005568188
8.3090563e-06
-0.0016852474
0.0024452371
-0.22636261
-0.20660094
-0.19445414
-0.18683595
-0.17790678
-0.16805865
-0.15840864
-0.14902671
-0.13978497
-0.13071259
-0.12187704
-0.11331622
-0.10505328
-0.097109641
-0.089504172
-0.082251231
-0.07536091
-0.068839662
-0.062690612
-0.056913763
-0.051506254
-0.046462639
-0.04177517
-0.037434081
-0.033427862
-0.029743542
-0.026366964
-0.023283045
-0.020476035
-0.017929752
-0.015627805
-0.013553799
-0.011691523
-0.010025116
-0.0085392144
-0.0072190884
-0.006050768
-0.0050211352
-0.0041181082
-0.0033305192
-0.0026490355
-0.0020638646
-0.0015727052
-0.0011576671
-0.00085630411
-0.0005547535
-0.00059535409
-3.7604612e-05
-0.0016223332
0.0022896135
-0.23060124
-0.20863306
-0.19561201
-0.18853936
-0.18025645
-0.1706991
-0.16113103
-0.15179555
-0.14258613
-0.1335053
-0.12461976
-0.11598068
-0.10761978
-0.099562653
-0.091831988
-0.084446064
-0.077418316
-0.070757885
-0.064470118
-0.058556858
-0.053016726
-0.047845438
-0.043036131
-0.038579677
-0.034464998
-0.030679374
-0.027208744
-0.024037997
-0.021151243
-0.018532081
-0.01616383
-0.014029759
-0.012113281
-0.010398136
-0.0088685496
-0.0075093765
-0.0063062329
-0.005245594
-0.0043149829
-0.0035028455
-0.0027994736
-0.0021947097
-0.0016858014
-0.0012547119
-0.00093730425
-0.00062310829
-0.00063851629
-8.9073972e-05
-0.0015517126
0.0021167101
-0.23203117
-0.21081646
-0.19713691
-0.18966124
-0.18186489
-0.17288863
-0.16359523
-0.15438116
-0.14526541
-0.13624428
-0.12736816
-0.11869657
-0.11027311
-0.10212994
-0.094294343
-0.086789222
-0.079632323
-0.072836417
-0.066409903
-0.060357206
-0.0546791
-0.049373055
-0.044433598
-0.039852673
-0.035619993
-0.031723383
-0.028149113
-0.024882223
-0.021906825
-0.01920639
-0.016764015
-0.014562663
-0.012585388
-0.010815523
-0.0092368659
-0.0078338237
-0.0065915619
-0.0054961059
-0.0045345376
-0.0036948681
-0.0029669642
-0.0023402543
-0.0018114719
-0.0013624171
-0.0010270447
-0.00069867702
-0.00068605327
-0.00014530036
-0.0014749264
0.0019307319
-0.22250604
-0.21024695
-0.19847786
-0.18964878
-0.18182694
-0.17365113
-0.16498058
-0.15614299
-0.14731695
-0.13853197
-0.12982041
-0.12124283
-0.11285627
-0.10470423
-0.096822279
-0.089240831
-0.081984633
-0.075072569
-0.068518216
-0.062330385
-0.056513525
-0.051068131
-0.045991175
-0.041276537
-0.036915413
-0.032896724
-0.029207506
-0.025833277
-0.022758393
-0.019966375
-0.017440212
-0.015162634
-0.013116365
-0.011284342
-0.0096499144
-0.0081970106
-0.0069103016
-0.0057753119
-0.0047786267
-0.0039077636
-0.003152106
-0.0025006073
-0.0019494255
-0.0014801462
-0.001124685
-0.00078028422
-0.00073719327
-0.00020399797
-0.0013942847
0.0017374498
-0.20094351
-0.20422697
-0.19802915
-0.18848272
-0.18028791
-0.17254901
-0.16434656
-0.15582976
-0.14726035
-0.13870417
-0.13018643
-0.12176378
-0.11349743
-0.10543576
-0.097618001
-0.090078001
-0.082843913
-0.075937815
-0.069376159
-0.063170327
-0.057327053
-0.051848837
-0.046734387
-0.041979069
-0.037575339
-0.033513164
-0.02978044
-0.026363375
-0.023246867
-0.020414847
-0.017850599
-0.015537055
-0.013457055
-0.011593585
-0.0099299874
-0.0084501369
-0.0071386142
-0.0059808242
-0.0049632058
-0.0040731157
-0.0032997259
-0.0026318426
-0.0020651133
-0.0015815428
-0.0012101241
-0.00085459024
-0.00078154255
-0.00026202959
-0.0013091738
0.0015454934
-0.18984052
-0.19422602
-0.18989416
-0.18066263
-0.17287746
-0.16596497
-0.15863057
-0.15089042
-0.14303205
-0.13513305
-0.12721029
-0.1193168
-0.11151666
-0.10386249
-0.096397762
-0.089160787
-0.08218441
-0.075495343
-0.069114477
-0.063057388
-0.057334736
-0.051952651
-0.046913169
-0.042214681
-0.037852373
-0.033818661
-0.030103617
-0.026695372
-0.023580507
-0.020744416
-0.018171643
-0.015846194
-0.013751816
-0.011872251
-0.01019146
-0.0086938213
-0.0073643102
-0.0061886357
-0.0051534504
-0.0042462721
-0.003456292
-0.0027724673
-0.002189896
-0.0016916846
-0.0013026168
-0.00093638783
-0.00082769033
-0.00032984049
-0.0012089174
0.0013367479
-0.18042217
-0.18240268
-0.17933976
-0.17189809
-0.16504619
-0.15889717
-0.15238993
-0.14543617
-0.13829244
-0.13105503
-0.1237434
-0.11640497
-0.10910286
-0.10189187
-0.094818025
-0.087922528
-0.081241658
-0.074805873
-0.068639885
-0.062763065
-0.057189771
-0.051929676
-0.046988159
-0.042366729
-0.038063449
-0.034073364
-0.030388924
-0.027000394
-0.023896253
-0.021063567
-0.018488339
-0.016155835
-0.014050879
-0.012158125
-0.010462294
-0.0089483864
-0.0076018801
-0.0064088791
-0.0053563254
-0.004431962
-0.0036250406
-0.0029247242
-0.0023255199
-0.0018118058
-0.001403661
-0.0010259873
-0.00087787825
-0.00040450252
-0.0010972431
0.001106498
-0.17006205
-0.16968173
-0.16715478
-0.16181632
-0.15625403
-0.15091577
-0.14525776
-0.13916725
-0.13281396
-0.12629874
-0.11965615
-0.11293195
-0.10618614
-0.099474405
-0.092844982
-0.086341509
-0.080003223
-0.073864025
-0.067952309
-0.062291209
-0.056898844
-0.051788573
-0.046969317
-0.042445941
-0.038219646
-0.034288382
-0.030647256
-0.027288942
-0.024204078
-0.02138165
-0.018809352
-0.016473921
-0.014361453
-0.012457681
-0.010748237
-0.0092188789
-0.0078556976
-0.0066452887
-0.0055749626
-0.0046327511
-0.0038080148
-0.0030901574
-0.0024731073
-0.0019425325
-0.0015137176
-0.001122934
-0.00093291263
-0.00048260966
-0.00098194417
0.00086520155
-0.15883988
-0.1568252
-0.15443074
-0.15082602
-0.14660137
-0.14213085
-0.13732527
-0.13212597
-0.12661271
-0.12086853
-0.11494279
-0.10888366
-0.1027471
-0.096587763
-0.090455073
-0.084394316
-0.078446888
-0.072649518
-0.067033874
-0.061626612
-0.056449504
-0.051519601
-0.046849466
-0.042447488
-0.03831823
-0.034462797
-0.030879226
-0.027562877
-0.024506828
-0.021702254
-0.019138793
-0.016804894
-0.014688138
-0.01277554
-0.011053818
-0.0095096391
-0.0081298423
-0.006901628
-0.0058127701
-0.0048516651
-0.0040078448
-0.003270987
-0.0026344889
-0.0020852554
-0.0016339115
-0.0012276925
-0.0009938324
-0.00056291958
-0.00086884346
0.00062104679
-0.14648877
-0.14387912
-0.14170547
-0.13939787
-0.13637984
-0.13280016
-0.12883284
-0.1245015
-0.11982858
-0.11487019
-0.10968217
-0.10431454
-0.098819046
-0.093247932
-0.08765047
-0.082072452
-0.076556291
-0.071140517
-0.06585927
-0.060742123
-0.055814055
-0.051095511
-0.046602536
-0.042346993
-0.038336838
-0.03457644
-0.031066919
-0.027806515
-0.024790957
-0.022013833
-0.019466953
-0.017140697
-0.015024348
-0.013106398
-0.011374834
-0.0098173974
-0.0084218232
-0.0071760436
-0.0060684065
-0.0050877617
-0.0042238914
-0.003466787
-0.0028093954
-0.0022397608
-0.0017641647
-0.0013399772
-0.0010611391
-0.00064437228
-0.00076367983
0.0003825593
-0.13333953
-0.13099243
-0.12925378
-0.12788788
-0.1258667
-0.12314382
-0.11998305
-0.11647045
-0.11260561
-0.1084193
-0.10396533
-0.099294521
-0.094453589
-0.089490236
-0.084452282
-0.07938504
-0.074330836
-0.069328829
-0.064414602
-0.059619799
-0.054971931
-0.050494309
-0.046206066
-0.042122279
-0.038254152
-0.034609255
-0.031191816
-0.028003029
-0.025041398
-0.022303077
-0.019782221
-0.017471327
-0.015361564
-0.013443085
-0.011705321
-0.010137252
-0.0087276588
-0.00746534
-0.0063393365
-0.0053390505
-0.0044546062
-0.0036763548
-0.0029969016
-0.0024053026
-0.0019039686
-0.0014592214
-0.0011351365
-0.00072598258
-0.00067226843
0.00015881742
-0.12008978
-0.11840661
-0.1172231
-0.11654749
-0.11531524
-0.11336873
-0.11096011
-0.10820193
-0.10509092
-0.10164083
-0.097897114
-0.093907969
-0.089716455
-0.085364838
-0.080896773
-0.076355884
-0.071783571
-0.067218574
-0.062696811
-0.058251007
-0.053910365
-0.049700354
-0.045642627
-0.04175503
-0.03805169
-0.034543166
-0.031236666
-0.028136294
-0.025243343
-0.022556603
-0.020072677
-0.017786307
-0.015690693
-0.013777805
-0.012038673
-0.010463671
-0.0090427679
-0.0077657645
-0.0066225176
-0.0056030875
-0.0046980409
-0.0038981431
-0.0031957886
-0.0025809052
-0.0020526214
-0.0015847971
-0.0012160022
-0.00080711558
-0.00059977571
-4.1577501e-05
-0.10725782
-0.10629556
-0.10567823
-0.10553162
-0.10492037
-0.10364763
-0.10191751
-0.099840975
-0.097417762
-0.094652367
-0.091580118
-0.08824338
-0.084680561
-0.080929273
-0.077028516
-0.073018014
-0.068937003
-0.064822977
-0.060711232
-0.056634585
-0.052623011
-0.048703335
-0.044899039
-0.041230159
-0.037713279
-0.034361592
-0.031185025
-0.028190425
-0.025381781
-0.022760485
-0.02032561
-0.018074206
-0.016001597
-0.01410168
-0.012367211
-0.010790086
-0.0093615963
-0.0080726706
-0.0069141022
-0.0058767168
-0.00495163
-0.0041300834
-0.0034044049
-0.0027652633
-0.0022091563
-0.0017159887
-0.0013037133
-0.00088756395
-0.0005500014
-0.00021161779
-0.0951118
-0.094774788
-0.094664739
-0.094937782
-0.094818712
-0.094113342
-0.09297674
-0.091504356
-0.089697631
-0.087556192
-0.08510597
-0.082381893
-0.079416846
-0.076243234
-0.07289538
-0.069408807
-0.065819115
-0.062161409
-0.058469535
-0.054775536
-0.051109276
-0.047498108
-0.04396659
-0.040536297
-0.037225712
-0.034050197
-0.031022036
-0.028150537
-0.025442191
-0.022900869
-0.020528052
-0.018323085
-0.016283446
-0.01440502
-0.012682376
-0.011109028
-0.0096776993
-0.0083805587
-0.0072094474
-0.0061560594
-0.0052121656
-0.0043695531
-0.0036206336
-0.0029567119
-0.0023723171
-0.0018519691
-0.0013979939
-0.00096748928
-0.00052485042
-0.00034684914
-0.08378141
-0.083931725
-0.084235284
-0.084838604
-0.085107972
-0.084868573
-0.084236478
-0.083288182
-0.082024153
-0.080440811
-0.0785561
-0.076397205
-0.073990942
-0.071364254
-0.068546252
-0.065567956
-0.062461054
-0.059257263
-0.055988
-0.052683736
-0.049373439
-0.046084191
-0.042840879
-0.039665927
-0.036579106
-0.033597418
-0.030735058
-0.028003438
-0.025411267
-0.022964689
-0.020667452
-0.018521114
-0.016525274
-0.014677812
-0.012975145
-0.011412472
-0.0099840253
-0.008683304
-0.0075032924
-0.006436648
-0.0054758976
-0.0046134482
-0.003841944
-0.0031532572
-0.0025405793
-0.0019917879
-0.0014982856
-0.0010472848
-0.00052405435
-0.00044604156
-0.07332044
-0.073825314
-0.074441201
-0.075293068
-0.07586168
-0.07599482
-0.075779543
-0.075274922
-0.074478892
-0.073385129
-0.072004891
-0.070358072
-0.068465306
-0.066347983
-0.064029863
-0.061537005
-0.058896826
-0.056137348
-0.053286807
-0.050373283
-0.047424111
-0.044465383
-0.041521588
-0.038615314
-0.035766985
-0.032994676
-0.030313996
-0.027738033
-0.02527737
-0.022940146
-0.020732165
-0.018657052
-0.016716431
-0.014910131
-0.013236408
-0.011692168
-0.0102732
-0.0089743936
-0.0077899542
-0.0067135835
-0.0057386562
-0.0048582746
-0.0040654583
-0.003352618
-0.0027121747
-0.0021343492
-0.0016037266
-0.0011273856
-0.00054521886
-0.00051138822
-0.063736229
-0.064484922
-0.065320641
-0.066346558
-0.067135725
-0.067557029
-0.067675807
-0.067536694
-0.067134824
-0.066461435
-0.065522213
-0.064330567
-0.062901253
-0.061250238
-0.059395999
-0.057359536
-0.055163653
-0.052832333
-0.050390297
-0.047862623
-0.045274321
-0.042649825
-0.040012563
-0.037384621
-0.034786445
-0.032236593
-0.029751555
-0.02734563
-0.025030869
-0.02281707
-0.020711826
-0.01872062
-0.016846951
-0.015092497
-0.013457297
-0.011939944
-0.010537793
-0.0092471615
-0.0080635274
-0.0069817015
-0.0059959865
-0.0051002534
-0.0042880292
-0.0035522733
-0.0028851196
-0.0022783834
-0.0017131439
-0.0012080713
-0.0005842229
-0.00054811059
-0.055010313
-0.055915645
-0.056893666
-0.05802888
-0.058970118
-0.059605036
-0.059982414
-0.060135391
-0.060056783
-0.059735887
-0.059173859
-0.05837859
-0.057359562
-0.056127702
-0.054696471
-0.053081942
-0.051302257
-0.049377126
-0.04732746
-0.045174998
-0.042941908
-0.040650374
-0.03832216
-0.03597824
-0.033638469
-0.031321303
-0.029043563
-0.026820257
-0.02466446
-0.022587247
-0.020597676
-0.018702826
-0.016907867
-0.015216174
-0.013629467
-0.012147964
-0.010770561
-0.0094950063
-0.0083180771
-0.0072357396
-0.0062432887
-0.0053354339
-0.0045063279
-0.0037495193
-0.0030572481
-0.0024224279
-0.0018250717
-0.0012893127
-0.00063591101
-0.00056348917
-0.047108721
-0.048103767
-0.049162327
-0.050353559
-0.051389263
-0.052173741
-0.052743096
-0.053121516
-0.053300242
-0.053267291
-0.053020323
-0.052562739
-0.051899533
-0.051037191
-0.049984619
-0.048753292
-0.047356861
-0.045810773
-0.044131986
-0.042338665
-0.040449822
-0.038484947
-0.036463629
-0.034405188
-0.03232833
-0.030250844
-0.02818934
-0.026159019
-0.024173509
-0.022244737
-0.020382862
-0.018596244
-0.016891474
-0.015273422
-0.013745335
-0.012308955
-0.010964654
-0.0097115797
-0.0085478092
-0.0074704877
-0.0064759496
-0.0055598036
-0.0047169307
-0.0039415313
-0.0032262547
-0.0025648275
-0.0019378035
-0.0013706997
-0.00069493396
-0.00056551008
-0.039987305
-0.041021971
-0.042113805
-0.043319393
-0.044403012
-0.045283738
-0.045988074
-0.046533382
-0.046910079
-0.047105596
-0.047115096
-0.046938516
-0.046577241
-0.046034039
-0.045313884
-0.044424147
-0.043374344
-0.04217587
-0.040841791
-0.039386627
-0.037826059
-0.03617661
-0.034455319
-0.032679406
-0.030865946
-0.029031554
-0.027192109
-0.025362503
-0.023556434
-0.021786239
-0.020062772
-0.018395328
-0.016791612
-0.015257744
-0.013798305
-0.012416407
-0.011113794
-0.0098909484
-0.0087472154
-0.0076809178
-0.0066894564
-0.0057693862
-0.0049164016
-0.0041254265
-0.0033897417
-0.0027037592
-0.0020494746
-0.001451459
-0.00075653623
-0.00056145787
-0.033596219
-0.034634212
-0.035724504
-0.03691337
-0.038008769
-0.03894283
-0.039734895
-0.040397233
-0.040920084
-0.041290919
-0.041503311
-0.041554701
-0.041443742
-0.041170271
-0.040736034
-0.040144915
-0.039402792
-0.038517376
-0.037498089
-0.03635591
-0.035103176
-0.033753321
-0.032320611
-0.030819852
-0.029266103
-0.027674378
-0.026059368
-0.024435184
-0.022815129
-0.0212115
-0.019635428
-0.018096761
-0.016603985
-0.015164179
-0.013783016
-0.012464789
-0.011212465
-0.010027757
-0.0089112132
-0.0078623044
-0.0068794996
-0.0059603293
-0.0051013656
-0.0042983247
-0.0035452718
-0.002837279
-0.002158161
-0.0015305407
-0.00081709378
-0.00055682435
-0.027883284
-0.028899392
-0.029963609
-0.03111374
-0.032194047
-0.033148095
-0.033989949
-0.034728154
-0.035353276
-0.035853326
-0.036221056
-0.036452264
-0.03654369
-0.036493013
-0.036299477
-0.03596415
-0.035489863
-0.034881134
-0.034144113
-0.033286508
-0.032317453
-0.031247327
-0.030087544
-0.028850328
-0.027548461
-0.026195031
-0.024803164
-0.023385783
-0.021955368
-0.020523748
-0.019101919
-0.017699888
-0.01632656
-0.014989657
-0.013695667
-0.012449829
-0.011256148
-0.010117425
-0.0090353112
-0.0080103606
-0.0070420849
-0.0061289962
-0.0052685828
-0.0044574099
-0.0036904234
-0.0029633846
-0.002261973
-0.0016067374
-0.00087428513
-0.00055480462
-0.022796265
-0.023773998
-0.024795891
-0.025892755
-0.026939002
-0.027888135
-0.028750345
-0.029531501
-0.030222843
-0.030813283
-0.03129535
-0.031663913
-0.031914511
-0.032043361
-0.032047907
-0.031927071
-0.031681261
-0.031312353
-0.030823703
-0.030220123
-0.029507822
-0.02869429
-0.027788164
-0.026799049
-0.025737328
-0.024613951
-0.023440209
-0.022227509
-0.020987149
-0.019730106
-0.01846685
-0.017207167
-0.015960021
-0.014733434
-0.01353441
-0.01236887
-0.011241637
-0.01015642
-0.0091158337
-0.0081214226
-0.0071736819
-0.0062720831
-0.0054150417
-0.0046000066
-0.0038228556
-0.0030800879
-0.002359128
-0.0016787972
-0.00092691155
-0.00055644003
-0.018284716
-0.019214293
-0.020184117
-0.021219172
-0.022218915
-0.023145418
-0.02400603
-0.024804706
-0.025533574
-0.026182665
-0.026744726
-0.02721425
-0.027586151
-0.027855785
-0.028019412
-0.028074435
-0.028019443
-0.027854247
-0.02757992
-0.027198832
-0.026714637
-0.026132224
-0.025457635
-0.024697954
-0.023861168
-0.022956009
-0.021991769
-0.020978115
-0.019924881
-0.018841883
-0.017738721
-0.016624611
-0.015508224
-0.014397554
-0.013299803
-0.012221296
-0.011167423
-0.010142594
-0.0091502195
-0.0081927023
-0.0072714329
-0.0063867889
-0.0055380935
-0.0047236874
-0.0039403956
-0.0031855002
-0.0024480029
-0.0017455108
-0.00097450852
-0.00056123512
-0.014301065
-0.015177773
-0.016090785
-0.01706018
-0.018006232
-0.01889836
-0.019741806
-0.02053916
-0.021283523
-0.021966156
-0.022580311
-0.023120501
-0.023581461
-0.023958162
-0.024246193
-0.024441981
-0.024542853
-0.024547092
-0.024454012
-0.024264018
-0.023978635
-0.023600507
-0.023133366
-0.022581975
-0.021952044
-0.021250119
-0.02048345
-0.019659841
-0.018787486
-0.017874802
-0.016930251
-0.015962179
-0.014978655
-0.013987328
-0.012995297
-0.012009005
-0.011034147
-0.010075605
-0.0091373915
-0.0082226109
-0.0073334285
-0.0064710449
-0.0056356403
-0.0048264258
-0.0040411602
-0.0032779367
-0.0025271801
-0.0018057758
-0.0010169429
-0.00056793709
-0.010802015
-0.011624805
-0.012479959
-0.013383364
-0.014272611
-0.015123389
-0.015939357
-0.01672211
-0.017465735
-0.018162727
-0.018807011
-0.019393386
-0.019916716
-0.020371942
-0.020754385
-0.021059938
-0.021285135
-0.02142722
-0.021484228
-0.021455066
-0.021339569
-0.021138531
-0.020853717
-0.020487847
-0.02004456
-0.019528352
-0.018944488
-0.018298896
-0.017598049
-0.016848824
-0.016058355
-0.015233889
-0.014382637
-0.013511628
-0.012627582
-0.011736786
-0.010844986
-0.0099572975
-0.0090781249
-0.008211098
-0.0073590122
-0.0065237807
-0.0057063614
-0.0049067863
-0.0041237091
-0.0033560401
-0.0025955056
-0.0018586548
-0.0010541452
-0.0005751871
-0.0077486525
-0.0085192223
-0.009318267
-0.010158072
-0.010990632
-0.011796957
-0.012579489
-0.013339083
-0.014070753
-0.014768174
-0.01542601
-0.016039501
-0.016603837
-0.017114168
-0.01756584
-0.017954552
-0.01827642
-0.018528051
-0.018706624
-0.018809974
-0.018836666
-0.018786042
-0.018658265
-0.018454336
-0.018176093
-0.017826191
-0.017408057
-0.016925826
-0.016384262
-0.015788657
-0.015144716
-0.014458438
-0.013735988
-0.012983562
-0.012207267
-0.011412994
-0.0106063
-0.0097923063
-0.0089756013
-0.0081601512
-0.0073492217
-0.0065453068
-0.0057500387
-0.0049641945
-0.0041872623
-0.0034189497
-0.0026521881
-0.0019034525
-0.0010860274
-0.00058190036
-0.0051075646
-0.0058292657
-0.0065757257
-0.0073560745
-0.0081342719
-0.0088958274
-0.0096422305
-0.010373764
-0.011086275
-0.011774516
-0.012433889
-0.013060141
-0.013648898
-0.014195661
-0.014695992
-0.015145634
-0.015540567
-0.015877077
-0.016151828
-0.016361949
-0.016505104
-0.016579556
-0.016584226
-0.016518727
-0.0163834
-0.016179315
-0.015908272
-0.015572768
-0.015175955
-0.014721578
-0.014213901
-0.013657607
-0.013057704
-0.012419411
-0.011748045
-0.011048906
-0.010327161
-0.0095877349
-0.0088351993
-0.0080736751
-0.0073067328
-0.0065373042
-0.0057675758
-0.0049989733
-0.0042317397
-0.0034663363
-0.0026968133
-0.0019397266
-0.0011124758
-0.00058735673
-0.0028528424
-0.0035306878
-0.0042297644
-0.0049565282
-0.0056848078
-0.0064038591
-0.00711441
-0.0078162873
-0.0085060594
-0.009179426
-0.0098324754
-0.010461469
-0.011062499
-0.011631489
-0.012164324
-0.012656941
-0.013105376
-0.013505822
-0.013854694
-0.014148702
-0.014384923
-0.014560867
-0.014674537
-0.014724486
-0.01470986
-0.014630431
-0.014486619
-0.014279492
-0.014010756
-0.013682727
-0.013298288
-0.012860829
-0.012374173
-0.011842491
-0.011270211
-0.010661912
-0.010022219
-0.0093556961
-0.0086667349
-0.0079594448
-0.0072375453
-0.0065042623
-0.0057622082
-0.0050133475
-0.0042585813
-0.0034990578
-0.0027298538
-0.0019676804
-0.0011336877
-0.00059131446
-0.0009587414
-0.0015978996
-0.0022551705
-0.0029346191
-0.0036181545
-0.0042981466
-0.0049747138
-0.0056473059
-0.0063130915
-0.0069685751
-0.0076104517
-0.0082354592
-0.0088401447
-0.009420861
-0.0099738564
-0.010495339
-0.010981516
-0.011428636
-0.011833047
-0.012191255
-0.012499992
-0.012756275
-0.012957472
-0.013101359
-0.013186174
-0.013210669
-0.013174142
-0.013076468
-0.012918112
-0.012700132
-0.012424161
-0.012092379
-0.01170747
-0.011272562
-0.010791156
-0.010267045
-0.0097042223
-0.0091067768
-0.0084787918
-0.0078242315
-0.007146828
-0.006449968
-0.0057365641
-0.0050090032
-0.0042687381
-0.0035175176
-0.0027513414
-0.0019870917
-0.0011493636
-0.00059338534
0.00057090786
-3.6668741e-05
-0.00065946921
-0.0012998076
-0.0019459862
-0.0025928104
-0.0032399037
-0.0038864172
-0.0045300008
-0.0051678112
-0.005797047
-0.006414856
-0.0070181871
-0.0076037864
-0.0081682543
-0.008708089
-0.0092197155
-0.0096995203
-0.010143895
-0.010549289
-0.010912261
-0.011229541
-0.011498084
-0.011715134
-0.01187828
-0.011985512
-0.012035271
-0.012026493
-0.01195864
-0.011831726
-0.011646322
-0.011403557
-0.0111051
-0.010753126
-0.010350266
-0.0098995475
-0.0094043162
-0.0088681511
-0.0082947638
-0.0076878927
-0.0070511873
-0.0063880921
-0.0057017101
-0.0049947407
-0.0042690764
-0.0035269653
-0.0027652068
-0.0020008249
-0.0011615123
-0.00059462095
0.0017797581
0.0011982169
0.00060367291
-4.5800862e-06
-0.00061981428
-0.0012387729
-0.0018607013
-0.0024845035
-0.0031081946
-0.003729439
-0.0043458352
-0.0049548632
-0.0055538034
-0.0061397343
-0.006709565
-0.0072600619
-0.0077878705