/*--------------------------------*- C++ -*----------------------------------*\
  =========                 |
  \\      /  F ield         | OpenFOAM: The Open Source CFD Toolbox
   \\    /   O peration     | Website:  https://openfoam.org
    \\  /    A nd           | Version:  6
     \\/     M anipulation  |
\*---------------------------------------------------------------------------*/
FoamFile
{
    version     2.0;
    format      ascii;
    class       surfaceScalarField;
    location    "170";
    object      phi;
}
// * * * * * * * * * * * * * * * * * * * * * * * * * * * * * * * * * * * * * //

dimensions      [0 3 -1 0 0 0 0];

internalField   nonuniform List<scalar> 
18180
(
0.00031872934
-0.00016316029
-0.00015556905
0.0013092114
-0.001366917
0.00037643498
0.0030328884
-0.0033336222
0.0016099452
0.0055497749
-0.0059759629
0.0034590764
0.008918199
-0.0092390853
0.0058706611
0.013192815
-0.013079537
0.0088049211
0.018421945
-0.017459851
0.012230721
0.024644609
-0.022345813
0.016123149
0.031887375
-0.027703332
0.020460566
0.040161287
-0.033495826
0.025221915
0.049459174
-0.039682462
0.030384575
0.05975373
-0.046217236
0.035922681
0.070996741
-0.053048879
0.041805868
0.083119947
-0.060121618
0.047998412
0.096038122
-0.067376874
0.054458699
0.10965491
-0.074756038
0.06113925
0.12387084
-0.082204132
0.067988198
0.13859857
-0.089674118
0.07494639
0.15383667
-0.097148866
0.081910769
-0.104626
0.088678926
0.16978375
0.00039749717
-0.00056065745
0.0016095951
-0.0025790149
0.0036893188
-0.0054133459
0.0066874449
-0.0089740891
0.010650654
-0.013202294
0.015617872
-0.018046756
0.021616262
-0.023458241
0.028657262
-0.029386812
0.03673295
-0.03577902
0.04581315
-0.042576027
0.055843696
-0.049713007
0.066746212
-0.057119752
0.07841967
-0.064722337
0.090743787
-0.072445734
0.10358407
-0.08021716
0.11679792
-0.087969884
0.13024079
-0.095647001
0.14377299
-0.10320632
0.15725858
-0.11063446
-0.11786193
0.17049451
0.00048062354
-0.001041281
0.0019186986
-0.00401709
0.0043524796
-0.0078471269
0.0078165647
-0.012438174
0.012337666
-0.017723396
0.01792921
-0.023638299
0.024586252
-0.030115284
0.032281214
-0.037081774
0.040960845
-0.044458652
0.050544927
-0.052160109
0.060927074
-0.060095154
0.071977812
-0.06817049
0.083549804
-0.076294329
0.095484818
-0.084380748
0.10762169
-0.092354037
0.11980426
-0.10015245
0.13188801
-0.10773075
0.14374349
-0.1150618
0.15524871
-0.12213968
-0.12891432
0.1663011
0.0005661698
-0.0016074508
0.0022279428
-0.005678863
0.005000612
-0.010619796
0.008894012
-0.016331574
0.01390526
-0.022734644
0.020011884
-0.029744923
0.027166491
-0.03726989
0.035293421
-0.045208704
0.044287862
-0.053453093
0.054017782
-0.061890029
0.064328726
-0.070406098
0.075051137
-0.078892902
0.086009531
-0.087252723
0.097032505
-0.095403722
0.10796247
-0.103284
0.11866397
-0.11085395
0.12902966
-0.11809644
0.13898297
-0.12501511
0.14847492
-0.13163163
-0.13794523
0.15750582
0.00065088637
-0.0022583372
0.0025243421
-0.0075523187
0.0056036354
-0.013699089
0.0098644665
-0.020592405
0.015264614
-0.028134791
0.021736413
-0.036216723
0.029182486
-0.044715963
0.037474899
-0.053501117
0.046458008
-0.062436202
0.055954843
-0.071386865
0.065776438
-0.080227692
0.075733019
-0.088849482
0.085645723
-0.097165428
0.095357401
-0.1051154
0.10474121
-0.11266782
0.11370619
-0.11981893
0.12219937
-0.12658961
0.13020456
-0.13302031
0.137738
-0.13916506
-0.1450676
0.14486037
0.00073063596
-0.0029889731
0.0027920867
-0.0096137695
0.0061265753
-0.017033578
0.010666714
-0.025132544
0.016322653
-0.03379073
0.022975247
-0.042869317
0.030474433
-0.052215149
0.038642402
-0.061669087
0.047281192
-0.071074991
0.056183737
-0.08028941
0.06514689
-0.089190845
0.073984602
-0.097687195
0.082539485
-0.10572031
0.090691301
-0.11326722
0.098361453
-0.12033797
0.1055133
-0.12697077
0.11214879
-0.1332251
0.1183024
-0.13917392
0.12403361
-0.14489628
-0.15046332
0.12942934
0.00080073133
-0.0037897045
0.0030139166
-0.011826955
0.0065328953
-0.020552557
0.011240053
-0.029839702
0.016992699
-0.039543376
0.023618547
-0.049495165
0.030918218
-0.05951482
0.038673321
-0.06942419
0.046658776
-0.079060446
0.0546574
-0.088288034
0.062474461
-0.097007905
0.069949956
-0.10516269
0.076966964
-0.11273732
0.083455099
-0.11975535
0.089389108
-0.12627198
0.09478331
-0.13236498
0.099683299
-0.13812509
0.10415649
-0.14364711
0.10828309
-0.14902289
-0.15433359
0.11215336
0.00085605884
-0.0046457633
0.0031720611
-0.014142957
0.0067872266
-0.024167722
0.011529803
-0.034582278
0.017203435
-0.045217008
0.02358655
-0.05587828
0.030439877
-0.066368146
0.03751933
-0.076503643
0.044591801
-0.086132917
0.051451005
-0.095147239
0.057930633
-0.10348753
0.063912776
-0.11114483
0.069330643
-0.11815518
0.07416569
-0.1245904
0.07844025
-0.13054654
0.082207329
-0.13613206
0.085539492
-0.14145725
0.088518549
-0.14662617
0.091227344
-0.15173168
-0.15685207
0.093745826
0.00089026248
-0.0055360258
0.0032482836
-0.016500978
0.0068576228
-0.027777061
0.011492465
-0.039217121
0.016906811
-0.050631353
0.022838896
-0.061810366
0.029023671
-0.072552921
0.035209252
-0.082689224
0.041173929
-0.092097594
0.046740397
-0.10071371
0.051784655
-0.10853179
0.056238405
-0.11559858
0.060085135
-0.12200191
0.063351242
-0.1278565
0.066094206
-0.1332895
0.068390046
-0.1384279
0.070321911
-0.14338912
0.071971222
-0.14827548
0.073411909
-0.15317237
-0.15814772
0.07470756
0.00089981839
-0.0064358441
0.0032333809
-0.01883454
0.0067291646
-0.031272845
0.011111177
-0.043599133
0.016092486
-0.055612662
0.021384624
-0.067102503
0.026713885
-0.077882183
0.031839116
-0.087814455
0.036567085
-0.096825563
0.04076227
-0.10490889
0.044349471
-0.11211899
0.047309345
-0.11855846
0.049668399
-0.12436097
0.051485805
-0.12967391
0.052839514
-0.13464321
0.053813807
-0.13940219
0.054489695
-0.14406501
0.054938802
-0.14872458
0.055220527
-0.15345409
0.055380959
-0.15830815
-0.00020237829
0.00020237836
-7.9006693e-11
-0.00067774659
0.00047536833
-7.9540721e-11
-0.001342426
0.00066467946
-8.8416312e-11
-0.0021322945
0.00078986852
-1.0861127e-10
-0.0029957736
0.0008634791
-1.2361489e-10
-0.0038907409
0.00089496735
-1.3317191e-10
-0.0047822965
0.00089155561
-1.3354653e-10
-0.0056408936
0.00085859724
-1.3180274e-10
-0.0064408686
0.00079997505
-1.2264159e-10
-0.0071592895
0.00071842091
-1.1439586e-10
-0.0077750378
0.00061574834
-1.0106379e-10
-0.0082680733
0.00049303554
-9.0482865e-11
-0.0086188543
0.00035078107
-7.7085668e-11
-0.0088079044
0.00018905013
-6.7163491e-11
-0.008815557
7.6526901e-06
-5.5974258e-11
-0.0086219796
-0.00019357745
-4.8094715e-11
-0.0082074368
-0.00041454274
-3.9969021e-11
-0.0075518858
-0.00065555091
-3.4216299e-11
-0.0066345704
-0.00091731537
-2.8395877e-11
-0.0011862325
-0.0054483379
-2.5289387e-11
-0.00018797449
0.00039035285
-0.00062500718
0.00091240098
-0.0012287536
0.0012684258
-0.0019351951
0.0014963099
-0.0026921401
0.001620424
-0.0034562851
0.0016591123
-0.0041910684
0.0016263388
-0.0048648602
0.0015323889
-0.0054495253
0.0013846401
-0.0059192881
0.0011881836
-0.0062498166
0.0009462768
-0.0064174812
0.00066070003
-0.0063987494
0.00033204923
-0.0061697071
-3.9992193e-05
-0.0057057334
-0.00045632105
-0.0049814203
-0.0009178906
-0.0039707886
-0.0014251744
-0.0026472089
-0.0019791307
-0.00098325119
-0.002581273
-0.0032017857
0.001032302
-0.00015892786
0.00054928072
-0.00051889155
0.0012723646
-0.0010007703
0.0017503045
-0.0015412598
0.0020367994
-0.0020873504
0.0021665145
-0.0025937358
0.0021654976
-0.0030208689
0.0020534718
-0.0033332942
0.0018448142
-0.0034983025
0.0015496484
-0.0034848549
0.0011747359
-0.0032626984
0.00072412028
-0.0028016468
0.00019964835
-0.0020709464
-0.00039865123
-0.0010387624
-0.0010721762
0.0003282504
-0.0018233339
0.0020652244
-0.0026548647
0.0042090388
-0.0035689888
0.0067980132
-0.0045681051
0.0098718392
-0.005655099
-0.0067797437
0.013449797
-0.00011756695
0.00066684768
-0.00036699857
0.0015217962
-0.0006735137
0.0020568195
-0.00097482568
0.0023381113
-0.001216854
0.0024085428
-0.001351594
0.0023002376
-0.0013354595
0.0020373372
-0.0011278281
0.0016371827
-0.00068984439
0.0011116647
1.6531675e-05
0.00046835981
0.0010293094
-0.00028865747
0.0023871141
-0.0011581563
0.0041297322
-0.0021412694
0.0062985931
-0.0032410371
0.008937275
-0.0044620158
0.012092062
-0.0058096512
0.015812317
-0.0072892439
0.020150184
-0.0089059723
0.025160374
-0.010665289
-0.012492626
0.030873256
-6.6907635e-05
0.0007337553
-0.00017916648
0.0016340551
-0.00026653372
0.0021441868
-0.00026769125
0.0023392689
-0.00012719383
0.0022680453
0.00020616765
0.0019668761
0.00078069472
0.0014628102
0.0016429508
0.0007749266
0.002838731
-8.411542e-05
0.0044138476
-0.0011067568
0.0064146941
-0.0022895039
0.0088886611
-0.0036321233
0.011884462
-0.0051370704
0.015452463
-0.0068090381
0.019645057
-0.0086546093
0.024517282
-0.010681876
0.030127702
-0.012899664
0.036538916
-0.015317186
0.04381832
-0.017944693
-0.02068255
0.052008244
-9.9846222e-06
0.0007437399
3.4535064e-05
0.0015895354
0.00019989044
0.0019788314
0.00054676628
0.001992393
0.0011322481
0.0016825636
0.0020109826
0.0010881417
0.003236142
0.00023765078
0.004860307
-0.00084923834
0.0069361241
-0.0021599325
0.0095166802
-0.0036873128
0.012655711
-0.0054285345
0.016407705
-0.0073841173
0.020827831
-0.0095571968
0.025971778
-0.011952984
0.031895652
-0.014578483
0.038656282
-0.017442507
0.046312401
-0.020555783
0.054926708
-0.023931493
0.064569698
-0.027587683
-0.031405609
0.075292758
5.0751309e-05
0.00069298856
0.00026565787
0.0013746288
0.0007082547
0.0015362346
0.001439031
0.0012616168
0.0025168214
0.00060477324
0.003999568
-0.00039460486
0.0059449167
-0.0017076978
0.008410606
-0.0033149276
0.011454598
-0.0052039242
0.015135046
-0.0073677607
0.019510028
-0.0098035164
0.024637018
-0.012511107
0.030572151
-0.01549233
0.037369326
-0.018750159
0.045079271
-0.022288428
0.053748997
-0.026112233
0.063422615
-0.030229401
0.074144723
-0.034653601
0.085969356
-0.039412316
-0.044388522
0.098952269
0.00011379631
0.00057919222
0.00050850356
0.00097992159
0.0012459828
0.00079875547
0.0023867784
0.00012082124
0.0039912421
-0.00099969043
0.0061198778
-0.0025232405
0.0088333223
-0.0044211422
0.012192169
-0.006673774
0.016256561
-0.0092683168
0.02108545
-0.01219665
0.026735553
-0.01545362
0.03326003
-0.019035584
0.040706893
-0.022939193
0.049117202
-0.027160469
0.058523166
-0.031694392
0.06894652
-0.036535587
0.080398342
-0.041681223
0.092882172
-0.047137431
0.10640551
-0.052935657
-0.058995693
0.12101268
0.00017849584
0.00040069636
0.0007600301
0.00039838735
0.0018053394
-0.00024655382
0.0033747147
-0.0014485539
0.005528997
-0.0031539727
0.0083293216
-0.0053235651
0.011836493
-0.0079283137
0.016110063
-0.010947344
0.021207048
-0.014365302
0.02718031
-0.018169912
0.034076626
-0.022349936
0.041934488
-0.026893446
0.050781673
-0.031786378
0.060632608
-0.037011403
0.071485516
-0.0425473
0.083319409
-0.04836948
0.096091882
-0.054453696
0.10974045
-0.060785998
0.12419603
-0.067391234
-0.074274644
0.13947498
0.00024512732
0.0010199497
0.0023833411
0.0043938635
0.0071105519
0.010591908
0.014894315
0.020070121
0.026165384
0.033217387
0.041252026
0.050281261
0.060300751
0.071287759
0.083199158
0.095968928
0.10950343
0.12366382
0.13818336
0.15258764
-0.0035077102
-0.0019406277
-3.2705934e-11
-0.0012859226
-0.0022217876
-3.0763725e-11
0.0011946897
-0.0024806122
-2.7350974e-11
0.0038772274
-0.0026825377
-2.4401001e-11
0.0067348869
-0.0028576595
-2.1005331e-11
0.0097503622
-0.0030154754
-1.8638258e-11
0.012904719
-0.0031543566
-1.5541181e-11
0.016179934
-0.0032752152
-1.2977015e-11
0.019560307
-0.0033803724
-1.1343091e-11
0.023031617
-0.0034713107
-1.0420309e-11
0.02658058
-0.0035489626
-9.8221444e-12
0.030194769
-0.0036141896
-9.3230478e-12
0.033862543
-0.0036677735
-8.771073e-12
0.037572904
-0.003710361
-8.0956465e-12
0.041315401
-0.003742497
-7.2126347e-12
0.045080062
-0.0037646611
-6.0091141e-12
0.048857347
-0.0037772845
-4.3300177e-12
0.05263811
-0.0037807639
-1.9894594e-12
0.056413586
-0.0037754756
1.2214428e-12
0.060175374
-0.0037617876
5.4881645e-12
0.063915442
-0.0037400678
1.0977135e-11
0.067626132
-0.0037106903
1.7744941e-11
0.071300172
-0.0036740397
2.5792617e-11
0.074930684
-0.0036305128
3.4897658e-11
0.078511203
-0.0035805191
4.476264e-11
0.082035683
-0.0035244795
5.4711501e-11
0.085498507
-0.003462824
6.4022586e-11
0.088894496
-0.0033959892
7.1426322e-11
0.09221891
-0.0033244141
7.5772902e-11
0.095467447
-0.0032485369
7.53119e-11
0.098636238
-0.0031687917
6.8811919e-11
0.10172184
-0.0030856047
5.4716349e-11
0.10472123
-0.0029993916
3.2566162e-11
0.10763179
-0.0029105557
2.4521267e-12
0.11045128
-0.0028194864
-3.4047579e-11
0.11317784
-0.0027265594
-7.3105959e-11
0.11580997
-0.0026321373
-1.1030989e-10
0.11834655
-0.0025365721
-1.3600139e-10
0.12078676
-0.0024402129
-1.4401387e-10
0.12313017
-0.0023434062
-1.2007526e-10
0.1253767
-0.0022465378
-6.2095084e-11
0.12752666
-0.0021499591
3.4613792e-11
0.12958102
-0.0020543597
1.6155576e-10
0.13154075
-0.0019597284
3.0846649e-10
0.13340994
-0.001869186
4.4774636e-10
0.13518709
-0.0017771536
5.443259e-10
0.13689666
-0.0017095714
5.4374432e-10
0.1384945
-0.0015978447
4.30992e-10
0.14018144
-0.0016869389
1.4780149e-10
-0.0013311655
-3.6418628e-10
0.0028529169
-0.0037612426
0.0049500628
-0.0043189336
0.0072929212
-0.0048234706
0.00981905
-0.0052086665
0.012507388
-0.0055459975
0.01534561
-0.0058536972
0.018316974
-0.0061257212
0.021405075
-0.0063633161
0.024595893
-0.0065711906
0.027876666
-0.0067520837
0.031235262
-0.0069075584
0.0346602
-0.0070391272
0.038140622
-0.0071481958
0.041666183
-0.0072359217
0.045226964
-0.0073032783
0.048813432
-0.0073511294
0.052416409
-0.0073802608
0.056027048
-0.0073914032
0.059636831
-0.0073852583
0.063237563
-0.0073625202
0.066821386
-0.0073238905
0.070380784
-0.0072700888
0.073908605
-0.0072018603
0.07739807
-0.0071199778
0.080842793
-0.0070252423
0.084236793
-0.0069184792
0.087574503
-0.006800534
0.09085078
-0.0066722662
0.094060907
-0.0065345417
0.097200596
-0.0063882256
0.10026598
-0.0062341754
0.10325361
-0.0060732338
0.10616044
-0.0059062234
0.10898383
-0.0057339431
0.11172151
-0.0055571643
0.11437158
-0.0053766321
0.11693251
-0.0051930666
0.1194031
-0.0050071675
0.12178252
-0.0048196296
0.12407026
-0.0046311423
0.1262662
-0.0044424765
0.12837057
-0.004254333
0.1303843
-0.0040680886
0.13230829
-0.0038837247
0.13414656
-0.0037074508
0.13589761
-0.0035282084
0.13758544
-0.0033974007
0.13916695
-0.0031793469
0.14083774
-0.0033577306
-0.0026598771
0.015021133
-0.0053325785
0.016852232
-0.0061500329
0.018905768
-0.0068770066
0.021111813
-0.0074147109
0.023458731
-0.007892916
0.025942871
-0.0083378369
0.028551614
-0.0087344639
0.031271479
-0.0090831817
0.034091367
-0.0093910785
0.037001048
-0.009661764
0.039990399
-0.0098969103
0.043049562
-0.01009829
0.046169012
-0.010267645
0.049339492
-0.010406402
0.052551974
-0.01051576
0.055797646
-0.010596802
0.059067919
-0.010650533
0.062354429
-0.010677913
0.065649054
-0.010679884
0.068943929
-0.010657395
0.072231466
-0.010611428
0.075504378
-0.010543001
0.0787557
-0.010453182
0.081978809
-0.010343087
0.085167449
-0.010213882
0.08831574
-0.01006677
0.091418197
-0.0099029917
0.09446974
-0.0097238086
0.097465692
-0.009530494
0.10040179
-0.0093243239
0.10327418
-0.0091065618
0.1060794
-0.0088784526
0.10881438
-0.0086412125
0.11147646
-0.008396023
0.11406333
-0.0081440274
0.11657303
-0.0078863301
0.11900396
-0.0076240005
0.12135487
-0.0073580798
0.12362484
-0.0070896026
0.1258133
-0.0068195983
0.12792004
-0.0065492193
0.12994523
-0.0062795155
0.13188968
-0.0060125444
0.13375425
-0.0057482959
0.13554279
-0.0054959845
0.1372539
-0.0052393179
0.1389106
-0.0050541042
0.14047213
-0.0047408748
0.14212348
-0.0050090836
-0.0039968262
0.032056546
-0.0065158686
0.033471742
-0.0075652288
0.035077244
-0.0084825089
0.036800076
-0.0091375431
0.038640924
-0.0097337638
0.040606085
-0.010302997
0.042688386
-0.010816766
0.044878306
-0.011273102
0.047168268
-0.01168104
0.049551043
-0.012044539
0.052018925
-0.012364792
0.054563956
-0.012643322
0.057178127
-0.012881816
0.059853393
-0.013081669
0.062581694
-0.013244061
0.065354985
-0.013370092
0.068165284
-0.013460832
0.071004715
-0.013517344
0.073865543
-0.013540712
0.076740218
-0.013532071
0.079621407
-0.013492617
0.08250203
-0.013423624
0.085375292
-0.013326444
0.088234711
-0.013202506
0.091074142
-0.013053313
0.093887797
-0.012880425
0.096670263
-0.012685458
0.09941651
-0.012470055
0.1021219
-0.012235883
0.10478218
-0.01198461
0.10739351
-0.011717893
0.10995243
-0.011437364
0.11245584
-0.011144622
0.11490103
-0.010841218
0.11728566
-0.010528657
0.11960772
-0.010208394
0.12186557
-0.0098818412
0.12405786
-0.0095503739
0.12618362
-0.0092153624
0.12824219
-0.0088781735
0.13023331
-0.0085403387
0.13215706
-0.0082032575
0.13401417
-0.0078696602
0.13580544
-0.007539569
0.13753454
-0.0072250807
0.13920026
-0.006905036
0.14082424
-0.0066780851
0.14236919
-0.0062858237
0.14400483
-0.006644728
-0.0053579067
0.052648535
-0.0071561595
0.053489118
-0.0084058124
0.05448323
-0.00947662
0.05556518
-0.010219494
0.056749788
-0.010918371
0.058051346
-0.011604556
0.059468366
-0.012233785
0.060995978
-0.012800714
0.062629974
-0.013315036
0.064365754
-0.01378032
0.066197799
-0.014196837
0.068119839
-0.014565361
0.070125108
-0.014887085
0.072206507
-0.015163067
0.074356686
-0.01539424
0.076568133
-0.01558154
0.078833257
-0.015725956
0.081144462
-0.015828549
0.083494221
-0.015890471
0.08587513
-0.01591298
0.088279963
-0.01589745
0.090701718
-0.015845379
0.093133656
-0.015758381
0.095569334
-0.015638185
0.098002639
-0.015486617
0.1004278
-0.015305589
0.10283942
-0.01509708
0.10523248
-0.014863111
0.10760234
-0.014605737
0.10994474
-0.014327013
0.11225583
-0.014028982
0.11453212
-0.01371366
0.11677052
-0.013383021
0.11896829
-0.013038982
0.12112304
-0.012683406
0.12323274
-0.012318096
0.1252957
-0.0119448
0.12731055
-0.011565229
0.12927628
-0.011181088
0.13119218
-0.01079408
0.13305796
-0.010406117
0.13487366
-0.010018952
0.13663998
-0.0096359795
0.13835769
-0.0092572854
0.14003031
-0.008897694
0.14165691
-0.0085316427
0.14325748
-0.0082786504
0.14479913
-0.0078274799
0.1464327
-0.008278295
-0.006766358
0.075221738
-0.0070851393
0.075326693
-0.0085107677
0.075551055
-0.0097009817
0.075851339
-0.010519778
0.07625558
-0.011322613
0.076780631
-0.012129607
0.077429528
-0.012882682
0.0782022
-0.013573387
0.079096956
-0.014209792
0.080110648
-0.014794011
0.081239031
-0.01532522
0.08247681
-0.01580314
0.083817801
-0.016228076
0.085255224
-0.01660049
0.086781901
-0.016920918
0.088390382
-0.01719002
0.090073046
-0.01740862
0.091822216
-0.017577719
0.093630247
-0.017698503
0.095489603
-0.017772335
0.097392916
-0.017800763
0.099333045
-0.017785508
0.10130312
-0.017728457
0.10329658
-0.017631644
0.1053072
-0.017497238
0.10732912
-0.017327511
0.10935686
-0.017124821
0.11138534
-0.016891583
0.11340985
-0.016630247
0.1154261
-0.016343268
0.1174302
-0.016033087
0.11941865
-0.01570211
0.12138833
-0.015352694
0.12333648
-0.014987132
0.12526072
-0.014607648
0.12715902
-0.014216397
0.1290297
-0.013815475
0.1308714
-0.013406929
0.13268311
-0.012992806
0.13446419
-0.012575152
0.13621433
-0.012156264
0.13793364
-0.011738258
0.13962284
-0.011325182
0.14128279
-0.010917229
0.14291686
-0.01053177
0.14452459
-0.010139369
0.14612408
-0.009878145
0.14768763
-0.0093910316
0.14934471
-0.0099353678
-0.0082542933
0.098025271
-0.0061581411
0.097257994
-0.0077434903
0.096581698
-0.0090246865
0.095997257
-0.0099353365
0.095540798
-0.010866154
0.095223552
-0.011812361
0.095050889
-0.012710018
0.095026809
-0.013549307
0.095150847
-0.014333829
0.095419736
-0.015062901
0.095829117
-0.015734601
0.096373579
-0.016347603
0.097046639
-0.016901136
0.097841062
-0.017394913
0.098749166
-0.017829022
0.099762979
-0.018203833
0.10087436
-0.018520005
0.10207514
-0.018778493
0.10335717
-0.018980538
0.10471248
-0.019127641
0.10613327
-0.019221556
0.10761203
-0.019264267
0.10914155
-0.019257973
0.11071496
-0.019205057
0.11232579
-0.019108065
0.11396795
-0.018969672
0.11563578
-0.01879265
0.11732404
-0.018579842
0.11902792
-0.018334127
0.12074304
-0.018058388
0.12246545
-0.017755495
0.1241916
-0.017428269
0.12591838
-0.017079473
0.12764305
-0.016711796
0.12936324
-0.016327844
0.13107699
-0.015930144
0.13278267
-0.015521151
0.134479
-0.015103267
0.13616509
-0.014678894
0.13784038
-0.014250436
0.1395047
-0.013820587
0.14115828
-0.013391839
0.14280199
-0.012968891
0.14443684
-0.012552082
0.14606622
-0.012161152
0.1476902
-0.011763342
0.14932498
-0.011512934
0.15094851
-0.011014555
0.15266768
-0.011654536
-0.0098634723
0.11918904
-0.0043344965
0.11749643
-0.0060508855
0.11585691
-0.0073851675
0.11435438
-0.0084328067
0.11302508
-0.0095368512
0.11186652
-0.010653797
0.11088416
-0.011727658
0.11008428
-0.012749432
0.1094663
-0.01371585
0.10902562
-0.014622223
0.10875644
-0.015465414
0.10865208
-0.016243244
0.10870495
-0.016954009
0.10890675
-0.01759671
0.10924874
-0.018171016
0.10972199
-0.018677083
0.11031747
-0.019115483
0.11102617
-0.019487193
0.11183921
-0.019793576
0.1127479
-0.020036337
0.11374385
-0.020217503
0.11481897
-0.020339385
0.11596555
-0.020404555
0.1171763
-0.020415805
0.11844435
-0.02037612
0.11976331
-0.02028863
0.12112724
-0.020156583
0.1225307
-0.019983297
0.1239687
-0.01977213
0.12543676
-0.019526446
0.12693084
-0.019249578
0.12844738
-0.01894481
0.12998326
-0.018615349
0.13153577
-0.018264312
0.13310265
-0.017894723
0.13468202
-0.017509507
0.13627238
-0.01711151
0.13787262
-0.016703515
0.13948203
-0.0162883
0.14110024
-0.01586865
0.14272733
-0.015447675
0.14436376
-0.015028263
0.14601063
-0.014615769
0.14766927
-0.014210717
0.14934316
-0.013835041
0.15103303
-0.013453211
0.15275326
-0.013233168
0.15448766
-0.012748954
0.15632045
-0.013487324
-0.011645243
0.13689601
-0.0017555267
0.13437805
-0.0035329251
0.13181948
-0.0048265994
0.12946241
-0.0060757413
0.12733406
-0.0074084957
0.12541579
-0.0087355253
0.12371043
-0.010022301
0.12222308
-0.011262078
0.12095218
-0.012444949
0.11989196
-0.013562002
0.11903491
-0.014608368
0.11837269
-0.015581026
0.11789631
-0.016477624
0.11759623
-0.017296629
0.11746258
-0.018037373
0.11748537
-0.018699866
0.11765456
-0.019284674
0.11796024
-0.019792875
0.11839268
-0.020226015
0.11894242
-0.020586078
0.11960034
-0.020875425
0.12035772
-0.021096764
0.12120628
-0.021253108
0.12213819
-0.021347723
0.12314617
-0.021384099
0.12422343
-0.021365892
0.12536374
-0.021296883
0.12656137
-0.021180934
0.12781119
-0.021021943
0.12910855
-0.02082381
0.13044937
-0.020590394
0.13183004
-0.020325488
0.13324749
-0.020032796
0.13469909
-0.019715913
0.13618269
-0.019378322
0.13769657
-0.019023389
0.13923945
-0.018654389
0.14081045
-0.018274516
0.14240912
-0.017886964
0.14403539
-0.017494925
0.14568967
-0.017101953
0.14737276
-0.016711356
0.14908615
-0.016329156
0.15083154
-0.015956109
0.15261267
-0.015616167
0.15443103
-0.015271571
0.15629928
-0.015101418
0.15820722
-0.014656897
0.16021683
-0.015496929
-0.013659644
0.15005214
0.00077997373
0.14676319
-0.000243981
0.14346586
-0.0015292627
0.14041808
-0.0030279645
0.13762319
-0.0046136043
0.13507493
-0.0061872635
0.13277513
-0.0077225045
0.13072388
-0.0092108307
0.12891875
-0.010639813
0.12735452
-0.011997775
0.12602338
-0.013277225
0.12491591
-0.014473561
0.12402195
-0.01558366
0.12333082
-0.016605507
0.12283156
-0.01753811
0.12251305
-0.018381351
0.12236421
-0.019135834
0.12237413
-0.019802795
0.12253215
-0.020384039
0.12282796
-0.020881884
0.12325163
-0.021299102
0.12379374
-0.021638868
0.12444534
-0.021904708
0.12519806
-0.022100445
0.12604411
-0.022230148
0.12697629
-0.022298071
0.12798801
-0.022308609
0.12907332
-0.02226624
0.13022685
-0.022175477
0.13144386
-0.022040823
0.1327202
-0.021866731
0.13405228
-0.021657571
0.13543709
-0.0214176
0.13687212
-0.02115095
0.13835542
-0.020861613
0.13988548
-0.02055345
0.14146129
-0.020230203
0.1430823
-0.019895527
0.1447484
-0.019553064
0.14645993
-0.019206449
0.14821769
-0.018859715
0.15002294
-0.01851661
0.15187764
-0.018183852
0.15378396
-0.017862432
0.15574604
-0.017578244
0.15776606
-0.01729159
0.15985555
-0.017190913
0.16200877
-0.016810112
0.16427045
-0.017758613
-0.015971645
0.18890885
0.0053820729
-0.19351095
0.18509881
0.0035660542
0.18170678
0.001862769
0.17856166
0.00011715834
0.1756261
-0.0016780481
0.17287508
-0.0034362413
0.17029037
-0.0051377919
0.16786297
-0.0067834344
0.16558901
-0.0083658518
0.16346633
-0.0098750944
0.16149307
-0.011303964
0.15966712
-0.012647609
0.15798583
-0.013902375
0.15644592
-0.015065597
0.15504346
-0.016135654
0.153774
-0.017111881
0.15263259
-0.017994424
0.15161394
-0.018784149
0.15071248
-0.01948258
0.14992243
-0.020091836
0.1492379
-0.020614566
0.14865292
-0.021053894
0.14816157
-0.021413352
0.14775795
-0.021696827
0.1474363
-0.021908497
0.147191
-0.022052771
0.14701662
-0.022134228
0.14690794
-0.022157559
0.14685998
-0.022127517
0.14686801
-0.022048859
0.14692759
-0.021926306
0.14703452
-0.021764502
0.14718491
-0.02156799
0.14737514
-0.021341184
0.14760189
-0.021088364
0.14786212
-0.020813673
0.14815305
-0.020521142
0.14847224
-0.02021471
0.14881748
-0.019898311
0.14918691
-0.019575878
0.14957897
-0.01925177
0.14999241
-0.018930051
0.15042647
-0.018617913
0.15088063
-0.018316589
0.1513555
-0.018053115
0.15185093
-0.017787023
0.15237141
-0.01771139
0.15291262
-0.017351325
0.15349755
-0.018343538
-0.016564374
0.21685773
0.0087804019
-0.22025606
0.21338385
0.0070399393
0.21017104
0.0050755792
0.20706573
0.0032224693
0.20401913
0.0013685455
0.20106222
-0.00047932307
0.19821186
-0.0022874323
0.19547257
-0.004044146
0.19285025
-0.005743535
0.19035174
-0.0073765811
0.18798223
-0.0089344534
0.18574512
-0.010410499
0.1836424
-0.01179966
0.18167478
-0.013097977
0.17984172
-0.014302593
0.17814159
-0.015411753
0.17657185
-0.016424683
0.17512918
-0.01734148
0.17380964
-0.018163033
0.17260875
-0.018890954
0.17152169
-0.019527504
0.17054332
-0.02007552
0.16966831
-0.020538343
0.16889124
-0.020919752
0.16820662
-0.021223886
0.16760904
-0.021455183
0.16709311
-0.021618305
0.16665363
-0.021718073
0.16628552
-0.021759407
0.16598392
-0.021747266
0.16574422
-0.021686599
0.16556201
-0.021582297
0.16543319
-0.021439164
0.16535389
-0.021261887
0.16532055
-0.021055026
0.16532989
-0.020823011
0.16537891
-0.020570163
0.16546491
-0.020300715
0.16558551
-0.020018902
0.1657386
-0.01972897
0.16592244
-0.019435607
0.16613562
-0.019143238
0.16637715
-0.018859444
0.16664653
-0.018585967
0.16694361
-0.018350189
0.16726961
-0.018113026
0.16762376
-0.018065541
0.16801436
-0.017741927
0.16842338
-0.018752553
-0.017038305
0.24376665
0.011504353
-0.2464906
0.24091622
0.0098903749
0.23806301
0.0079287874
0.23521605
0.0060694291
0.23233825
0.0042463461
0.22945043
0.0024084948
0.22658382
0.00057918273
0.2237577
-0.0012180305
0.220988
-0.0029738367
0.21829066
-0.0046792359
0.21567952
-0.0063233197
0.2131656
-0.0078965757
0.2107575
-0.0093915589
0.20846178
-0.010802256
0.20628307
-0.012123885
0.20422426
-0.01335294
0.20228669
-0.014487119
0.20047042
-0.015525205
0.19877435
-0.016466963
0.19719645
-0.017313058
0.19573391
-0.018064967
0.19438329
-0.018724893
0.19314062
-0.019295678
0.19200159
-0.01978072
0.19096159
-0.02018389
0.19001586
-0.02050945
0.18915952
-0.020761971
0.18838771
-0.020946259
0.18769558
-0.021067281
0.18707842
-0.021130097
0.18653162
-0.021139803
0.1860508
-0.021101474
0.18563176
-0.021020128
0.18527057
-0.020900691
0.18496352
-0.020747978
0.1847072
-0.020566693
0.18449847
-0.020361436
0.1843345
-0.020136738
0.18421273
-0.019897138
0.18413096
-0.019647202
0.1840873
-0.019391949
0.18408027
-0.0191362
0.18410866
-0.01888784
0.18417208
-0.018649386
0.18426962
-0.018447726
0.18440399
-0.018247397
0.1845688
-0.01823035
0.18478594
-0.017959063
0.1849915
-0.018958116
-0.017370982
0.26927442
0.013537304
-0.27130737
0.26710637
0.012058417
0.26476461
0.010270546
0.26232539
0.0085086525
0.25979664
0.0067750938
0.25718855
0.0050165873
0.25452724
0.0032404978
0.25183687
0.0014723346
0.24913745
-0.00027441936
0.24644879
-0.0019905713
0.24379017
-0.0036646979
0.24117872
-0.0052851321
0.23862918
-0.0068420202
0.23615404
-0.0083271116
0.23376358
-0.0097334302
0.23146598
-0.011055335
0.22926741
-0.012288547
0.22717227
-0.013430062
0.22518335
-0.01447805
0.22330206
-0.015431769
0.22152858
-0.016291477
0.21986202
-0.017058334
0.21830065
-0.017734308
0.216842
-0.018322075
0.21548304
-0.01882493
0.21422027
-0.019246683
0.21304988
-0.019591577
0.21196781
-0.01986419
0.21096989
-0.020069355
0.21005187
-0.02021208
0.20920954
-0.020297478
0.20843877
-0.020330704
0.20773555
-0.020316904
0.20709603
-0.020261176
0.2065166
-0.020168541
0.20599384
-0.020043936
0.20552463
-0.019892222
0.20510609
-0.019718206
0.20473568
-0.019526722
0.20441114
-0.019322661
0.20413055
-0.019111362
0.20389242
-0.01889807
0.20369548
-0.018690897
0.20353942
-0.018493331
0.20342278
-0.018331084
0.20334946
-0.018174079
0.20330829
-0.018189174
0.20333247
-0.017983251
0.20331682
-0.018942464
-0.017540222
0.29298518
0.014868443
-0.29431632
0.29150594
0.013537657
0.28978345
0.011993037
0.28788482
0.010407284
0.28584491
0.0088150021
0.28367454
0.0071869568
0.28139212
0.005522917
0.2790209
0.0038435606
0.27658217
0.0021643109
0.27409609
0.00049550116
0.27158288
-0.0011514839
0.26906225
-0.002764501
0.26655252
-0.0043322956
0.2640703
-0.005844885
0.26163031
-0.007293441
0.25924532
-0.0086703477
0.2569261
-0.0099693228
0.25468145
-0.011185419
0.25251837
-0.012314969
0.25044213
-0.013355525
0.24845644
-0.014305791
0.24656364
-0.015165535
0.24476483
-0.015935498
0.24306005
-0.016617295
0.24144844
-0.017213313
0.23992836
-0.017726612
0.23849761
-0.018160819
0.23715345
-0.018520033
0.23589282
-0.018808726
0.23471239
-0.019031654
0.23360869
-0.019193774
0.23257816
-0.019300173
0.23161726
-0.019356
0.2307225
-0.019366424
0.22989055
-0.019336589
0.22911822
-0.019271604
0.22840254
-0.019176537
0.22774077
-0.019056442
0.22713047
-0.018916423
0.22656949
-0.018761679
0.22605598
-0.018597857
0.22558854
-0.01843063
0.22516593
-0.018268283
0.22478799
-0.018115386
0.22445288
-0.017995976
0.22416536
-0.017886558
0.22391059
-0.017934407
0.22373013
-0.017802787
0.22348513