/*--------------------------------*- C++ -*----------------------------------*\
  =========                 |
  \\      /  F ield         | OpenFOAM: The Open Source CFD Toolbox
   \\    /   O peration     | Website:  https://openfoam.org
    \\  /    A nd           | Version:  6
     \\/     M anipulation  |
\*---------------------------------------------------------------------------*/
FoamFile
{
    version     2.0;
    format      ascii;
    class       surfaceScalarField;
    location    "41";
    object      phi;
}
// * * * * * * * * * * * * * * * * * * * * * * * * * * * * * * * * * * * * * //

dimensions      [0 3 -1 0 0 0 0];

internalField   nonuniform List<scalar> 
18180
(
0.00032104799
-0.00016771103
-0.00015333693
0.0013184944
-0.0013855984
0.00038815199
0.0030540536
-0.0033715169
0.0016359578
0.0055880187
-0.0060379295
0.0035039644
0.0089789519
-0.0093298377
0.0059389045
0.01328164
-0.013203615
0.008900927
0.018544375
-0.017621548
0.012358814
0.024805921
-0.022549078
0.016287532
0.032092313
-0.027951643
0.020665251
0.040413727
-0.033792042
0.025470627
0.049761775
-0.04002868
0.030680633
0.060107566
-0.046614656
0.036268865
0.071400975
-0.0534977
0.042204292
0.083571553
-0.060620979
0.048450401
0.096531705
-0.067924855
0.054964703
0.11018264
-0.075349718
0.061698783
0.12442254
-0.082839715
0.068599818
0.13916186
-0.090347084
0.075607764
0.15439681
-0.097854
0.082619045
-0.10535791
0.089431495
0.17032323
0.00040013379
-0.0005678448
0.0016200232
-0.0026054878
0.0037128413
-0.005464335
0.00672948
-0.0090545681
0.01071663
-0.013316987
0.015713046
-0.018200031
0.021745473
-0.023653975
0.028824621
-0.029628226
0.036941494
-0.036068516
0.046064481
-0.042915028
0.056137635
-0.050101834
0.067080528
-0.057557549
0.078789893
-0.065207066
0.091143163
-0.072974249
0.10400367
-0.080785359
0.11722688
-0.088572932
0.13066676
-0.096279592
0.14418261
-0.10386294
0.15763811
-0.1113095
-0.11855047
0.17083067
0.00048356228
-0.0010514071
0.0019301371
-0.0040520626
0.0043779424
-0.0079121403
0.0078614608
-0.012538086
0.012407113
-0.017862639
0.018027772
-0.023820691
0.024717625
-0.030343828
0.032447862
-0.037358463
0.041163649
-0.044784303
0.050782871
-0.05253425
0.061197028
-0.060515992
0.072274444
-0.068634964
0.083865648
-0.07679827
0.095810522
-0.084919123
0.10794643
-0.092921264
0.12011624
-0.10074275
0.13217514
-0.10833849
0.14399401
-0.11568181
0.15545193
-0.12276742
-0.12954647
0.16644793
0.00056937454
-0.0016207816
0.0022401844
-0.0057228724
0.0050274386
-0.010699395
0.0089405592
-0.016451207
0.013976006
-0.022898086
0.020110332
-0.029955017
0.027294809
-0.037528305
0.035452101
-0.045515755
0.044475437
-0.053807639
0.054230662
-0.062289475
0.064561186
-0.070846517
0.075295494
-0.079369271
0.086256485
-0.087759261
0.097271645
-0.095934282
0.10818287
-0.10383249
0.11885482
-0.1114147
0.1291809
-0.11866456
0.13908577
-0.12558668
0.14852212
-0.13220377
-0.13851648
0.15749213
0.00065429401
-0.0022750756
0.0025370907
-0.0076056691
0.0056310738
-0.013793378
0.0099111842
-0.020731317
0.015334147
-0.028321049
0.021830902
-0.036451771
0.02930234
-0.044999743
0.037618545
-0.05383196
0.046621764
-0.062810858
0.056132971
-0.071800683
0.065961388
-0.080674933
0.075915853
-0.089323737
0.08581668
-0.097660088
0.095506525
-0.10562413
0.10485898
-0.11318495
0.11378406
-0.12033978
0.12223016
-0.12711066
0.13018271
-0.13353923
0.13765959
-0.13968065
-0.14557985
0.14472297
0.00073415809
-0.0030092336
0.0028049676
-0.0096764786
0.0061537333
-0.017142143
0.010711941
-0.025289525
0.016388305
-0.033997413
0.02306193
-0.043125396
0.030580762
-0.052518575
0.038764906
-0.062016104
0.047414403
-0.071460355
0.056320488
-0.080706767
0.065278783
-0.089633228
0.074102614
-0.098147568
0.082634611
-0.10619209
0.090755162
-0.11374468
0.098386784
-0.12081657
0.10549427
-0.12744726
0.1120811
-0.1336975
0.11818325
-0.13964138
0.12386147
-0.14535887
-0.15092188
0.1292035
0.00080426019
-0.0038134938
0.0030265016
-0.01189872
0.0065588065
-0.020674448
0.011282086
-0.030012805
0.017051893
-0.03976722
0.023693955
-0.049767459
0.031006826
-0.059831446
0.038770153
-0.069779431
0.046757213
-0.079447415
0.054749683
-0.088699237
0.062552309
-0.097435854
0.070005223
-0.10560048
0.076992224
-0.11317909
0.083444099
-0.12019655
0.089337019
-0.12670949
0.094686782
-0.13279702
0.099540324
-0.13855104
0.10396613
-0.14406719
0.10804516
-0.1494379
-0.15474468
0.11186796
0.00085947377
-0.0046729675
0.0031838981
-0.014223144
0.0068109258
-0.024301476
0.011567041
-0.03476892
0.017253915
-0.045454094
0.023647916
-0.05616146
0.030507817
-0.066691347
0.037587898
-0.076859512
0.044653923
-0.08651344
0.051499112
-0.095544426
0.057957318
-0.10389406
0.063911373
-0.11155454
0.069295652
-0.11856337
0.074093002
-0.1249939
0.078327154
-0.13094364
0.082052346
-0.13652222
0.085342089
-0.14184078
0.088278797
-0.1470039
0.09094558
-0.15210468
-0.15722143
0.093422329
0.00089343164
-0.0055663992
0.003258923
-0.016588636
0.0068782203
-0.027920773
0.011523547
-0.039414246
0.016946846
-0.050877393
0.022884383
-0.062098996
0.029069432
-0.072876396
0.035248935
-0.083039015
0.041200639
-0.092465143
0.04674735
-0.10109114
0.051765771
-0.10891248
0.056188722
-0.11597749
0.060001022
-0.12237567
0.063230396
-0.12822328
0.065935475
-0.13364872
0.068193134
-0.13877988
0.070087048
-0.14373469
0.071698843
-0.14861569
0.073102404
-0.15350824
-0.1584801
0.074361072
0.00090262294
-0.0064690221
0.0032424442
-0.018928457
0.0067459575
-0.031424287
0.01113512
-0.043803408
0.016120998
-0.055863272
0.021413387
-0.067391385
0.026737311
-0.07820032
0.031850962
-0.088152666
0.036561116
-0.097175297
0.040732855
-0.10526288
0.044292015
-0.11247164
0.047220513
-0.11890599
0.049546121
-0.12470127
0.051329102
-0.13000626
0.052648213
-0.13496783
0.053588218
-0.13971988
0.054230312
-0.14437679
0.054646066
-0.14903144
0.054894673
-0.15375685
0.055021921
-0.15860734
-0.00020379906
0.0002037991
-4.7832254e-12
-0.00068230142
0.00047850241
-1.1893144e-11
-0.001351139
0.00066883766
-2.3509655e-11
-0.002145685
0.00079454604
-3.585534e-11
-0.0030139592
0.00086827433
-4.8502149e-11
-0.0039135058
0.00089954672
-6.4203615e-11
-0.0048091348
0.00089562908
-8.2422397e-11
-0.0056710328
0.00086189821
-1.0672108e-10
-0.0064732773
0.00080224464
-1.3492232e-10
-0.0071926725
0.00071939542
-1.717431e-10
-0.0078078208
0.00061514863
-2.125437e-10
-0.0082983782
0.00049055768
-2.6401179e-10
-0.0086444656
0.00034608774
-3.1882335e-10
-0.0088262277
0.00018176257
-3.8669799e-10
-0.0088235705
-2.6566633e-06
-4.5599111e-10
-0.0086161817
-0.00020738821
-5.408573e-10
-0.0081837945
-0.00043238649
-6.2404136e-10
-0.0075057771
-0.00067801665
-7.232011e-10
-0.0065607146
-0.00094506161
-8.1337827e-10
-0.001219824
-0.0053408898
-9.0792707e-10
-0.00018922428
0.0003930234
-0.00062896369
0.00091824185
-0.0012362102
0.0012760842
-0.0019464407
0.0015047766
-0.0027070474
0.0016288811
-0.0034743672
0.0016668666
-0.004211512
0.0016327739
-0.0048865399
0.0015369261
-0.0054710025
0.0013867073
-0.0059387972
0.0011871901
-0.006265241
0.00094159248
-0.0064263191
0.00065163581
-0.0063980713
0.00031783995
-0.0061561038
-6.0204832e-05
-0.0056752566
-0.00048350385
-0.0049295171
-0.00095312767
-0.0038922325
-0.001469671
-0.0025360317
-0.0020342174
-0.00083266646
-0.0026484269
-0.0032823149
0.0012298245
-0.00015985182
0.00055287525
-0.00052170664
0.0012800967
-0.0010058315
0.0017602091
-0.0015484227
0.0020473677
-0.0020960312
0.0021764896
-0.0026029469
0.0021737823
-0.003029234
0.002059061
-0.003339047
0.0018467392
-0.0034992713
0.0015469316
-0.0034784345
0.0011663535
-0.0032458145
0.00070897249
-0.0027707086
0.00017652993
-0.0020217928
-0.0004310758
-0.00096660217
-0.0011153954
0.00042890553
-0.0018790115
0.0022006378
-0.0027248599
0.0043863374
-0.0036553706
0.007025268
-0.004673148
0.010158136
-0.0057812953
-0.0069293864
0.013805208
-0.00011805797
0.00067093324
-0.00036828392
0.0015303227
-0.0006753497
0.002067275
-0.00097647705
0.0023484951
-0.0012171202
0.0024171329
-0.0013488184
0.0023054805
-0.0013275241
0.0020377666
-0.0011121339
0.0016313491
-0.00066328253
0.0010980803
5.7619549e-05
0.00044545141
0.0010891778
-0.0003225857
0.0024706646
-0.0012049569
0.0042425674
-0.0022029786
0.0064470725
-0.0033199004
0.0091285737
-0.0045605127
0.012334234
-0.0059305206
0.016114369
-0.007435505
0.020522143
-0.009080922
0.025613358
-0.010872511
-0.012735576
0.031419548
-6.6915615e-05
0.00073784888
-0.0001787201
0.0016421272
-0.00026468875
0.0021532436
-0.00026302194
0.0023468283
-0.00011778608
0.002271897
0.00022273201
0.0019649624
0.0008073618
0.0014531369
0.0016832262
0.00075548474
0.0028967189
-0.0001154124
0.0044942929
-0.0011521226
0.006523025
-0.0023513178
0.0090310293
-0.0037129612
0.01206778
-0.005239729
0.015684431
-0.0069365512
0.019934177
-0.0088102593
0.024872864
-0.010869208
0.03055986
-0.0131225
0.037058569
-0.015579632
0.044437217
-0.018251158
-0.021037513
0.052739153
-9.5112276e-06
0.00074736013
3.6741887e-05
0.0015958741
0.00020551861
0.0019844669
0.00055797346
0.0019943735
0.001151695
0.0016781755
0.0020418661
0.0010747914
0.00328223
0.00021277295
0.0049259751
-0.00088826025
0.007026389
-0.0022158263
0.0096372275
-0.0037629611
0.012812918
-0.0055270079
0.016608649
-0.0075086928
0.021080284
-0.0097113638
0.02628417
-0.012140437
0.032277012
-0.014803101
0.039116131
-0.017708327
0.046860616
-0.020866986
0.055573375
-0.02429239
0.065324991
-0.028002774
-0.031879749
0.076167227
5.1669338e-05
0.00069569081
0.00026952961
0.0013780138
0.00071750503
0.0015364915
0.0014565402
0.0012553384
0.0025459731
0.00058874262
0.0040442905
-0.000423526
0.0060097172
-0.0017526537
0.0085005925
-0.0033791355
0.01157549
-0.0052907235
0.015293172
-0.0074806434
0.019712302
-0.0099461381
0.02489089
-0.01268728
0.030885524
-0.015705998
0.037750435
-0.019005348
0.045536517
-0.022589182
0.054290718
-0.026462528
0.064056792
-0.03063306
0.074878637
-0.035114234
0.086809235
-0.039933372
-0.044974042
0.099903528
0.0001151079
0.00058058293
0.00051388371
0.00097923806
0.0012585514
0.0007918239
0.0024100901
0.0001037997
0.0040293366
-0.0010305039
0.0061773125
-0.0025715019
0.0089151856
-0.0044905267
0.012304074
-0.006768024
0.016404616
-0.0093912656
0.021276194
-0.012352221
0.02697586
-0.015645804
0.033556974
-0.019268394
0.041067565
-0.023216589
0.049548489
-0.027486272
0.059031477
-0.03207217
0.069537464
-0.036968515
0.081076344
-0.04217194
0.093650022
-0.047687912
0.10726382
-0.053547175
-0.059669942
0.12195972
0.0001801521
0.00040043085
0.00076675356
0.00039263664
0.0018208798
-0.00026230231
0.0034032222
-0.0014785427
0.0055750569
-0.0032023385
0.0083979614
-0.0053944063
0.011933161
-0.0080257262
0.016240569
-0.011075432
0.021377468
-0.014528165
0.027396841
-0.018371594
0.034345398
-0.02259436
0.042261323
-0.02718432
0.051171814
-0.032127079
0.061090399
-0.037404858
0.072014079
-0.04299585
0.083920309
-0.048874745
0.096764803
-0.055016434
0.11048287
-0.061405978
0.12500278
-0.068067082
-0.075004515
0.14033735
0.00024709394
0.0010278826
0.0024015381
0.0044269598
0.0071635259
0.010670047
0.015003134
0.020215234
0.02635232
0.033451353
0.041537625
0.050622171
0.060699383
0.071744926
0.08371378
0.096537817
0.1101212
0.12432299
0.13887495
0.15330193
-0.0033594591
-0.0019814294
-1.3465311e-09
-0.0010907993
-0.0022686584
-1.4595535e-09
0.0014431756
-0.0025339735
-1.5310374e-09
0.0041852944
-0.0027421174
-1.55011e-09
0.0071089009
-0.0029236051
-1.5014307e-09
0.010197016
-0.0030881135
-1.3719258e-09
0.01343098
-0.0032339635
-1.1495622e-09
0.016793023
-0.0033620427
-8.0584894e-10
0.020267723
-0.0034746989
-3.3414985e-10
0.023841162
-0.0035734398
2.7128061e-10
0.027500376
-0.0036592149
1.0110615e-09
0.031233283
-0.0037329089
1.8876669e-09
0.035028615
-0.0037953347
2.9049385e-09
0.038875787
-0.0038471762
4.0613331e-09
0.042764803
-0.0038890216
5.3488961e-09
0.046686197
-0.0039214012
6.7449684e-09
0.050630995
-0.0039448059
8.2151753e-09
0.054590687
-0.0039597012
9.7040575e-09
0.058557219
-0.0039665432
1.1141847e-08
0.062522998
-0.0039657916
1.2433493e-08
0.066480904
-0.00395792
1.3471401e-08
0.070424315
-0.0039434244
1.4123244e-08
0.07434713
-0.0039228297
1.4254293e-08
0.078243811
-0.0038966946
1.3713606e-08
0.082109414
-0.0038656152
1.2370681e-08
0.085939632
-0.0038302287
1.0098964e-08
0.089730841
-0.0037912152
6.8306239e-09
0.093480139
-0.0037493014
2.5335163e-09
0.097185405
-0.0037052628
-2.7149897e-09
0.10084534
-0.0036599277
-8.7660417e-09
0.10445954
-0.0036141813
-1.5312528e-08
0.10802853
-0.0035689699
-2.1958912e-08
0.11155386
-0.0035253052
-2.8133295e-08
0.11503817
-0.003484269
-3.3212947e-08
0.11848522
-0.0034470144
-3.6448487e-08
0.12190002
-0.0034147665
-3.7170882e-08
0.12528887
-0.0033888161
-3.4718868e-08
0.1286594
-0.0033705052
-2.8739956e-08
0.13202063
-0.003361205
-1.905744e-08
0.13538288
-0.0033622505
-6.0394132e-09
0.1387578
-0.0033749301
9.6762899e-09
0.14215794
-0.0034001669
2.6886564e-08
0.14559702
-0.0034391175
4.4050565e-08
0.14908765
-0.0034906941
5.9414892e-08
0.15264701
-0.003559427
7.1288891e-08
0.15627749
-0.003630559
7.8230854e-08
0.16003043
-0.0037530165
7.957476e-08
0.16381501
-0.0037846634
7.458173e-08
0.16800839
-0.0041934442
6.6566198e-08
-0.0038539937
4.0777848e-08
0.0030931586
-0.0038447636
0.0052386601
-0.00441416
0.0076360476
-0.0049313611
0.010222585
-0.0053286547
0.012977355
-0.0056783752
0.015888398
-0.0059991567
0.018939267
-0.0062848328
0.022113814
-0.0065365902
0.02539831
-0.0067591946
0.028780307
-0.0069554371
0.032248007
-0.0071269145
0.035790282
-0.0072751846
0.039396663
-0.0074017153
0.043057225
-0.0075077378
0.046762515
-0.0075943118
0.050503516
-0.0076624024
0.054271623
-0.0077129134
0.058058635
-0.0077467129
0.061856753
-0.0077646611
0.065658596
-0.007767635
0.069457223
-0.0077565469
0.073246158
-0.0077323593
0.077019425
-0.0076960969
0.080771585
-0.0076488548
0.084497776
-0.0075918061
0.088193753
-0.0075262061
0.091855936
-0.0074533984
0.095481454
-0.0073748193
0.099068195
-0.0072920038
0.10261486
-0.0072065921
0.10612102
-0.0071203382
0.10958716
-0.0070351179
0.1130148
-0.0069529382
0.11640647
-0.0068759448
0.11976589
-0.0068064271
0.12309794
-0.0067468178
0.1264088
-0.0066996827
0.12970599
-0.0066676912
0.13299836
-0.0066535751
0.13629611
-0.0066599987
0.13961072
-0.0066895449
0.14295463
-0.0067440724
0.14634144
-0.00682593
0.14978371
-0.0069329675
0.15329861
-0.0070743209
0.15688853
-0.007220483
0.1606047
-0.0074691821
0.16435697
-0.0075369411
0.16851771
-0.0083541841
-0.0076881892
0.015422317
-0.0054618732
0.01730398
-0.0062958225
0.019413564
-0.0070409451
0.021680926
-0.0075960172
0.024094622
-0.0080920715
0.026651406
-0.0085559409
0.029338982
-0.0089724082
0.032144142
-0.009341751
0.035056093
-0.0096711459
0.038064941
-0.0099642845
0.041160916
-0.01022289
0.044334531
-0.0104488
0.047576666
-0.01064385
0.050878505
-0.010809576
0.054231498
-0.010947305
0.057627366
-0.01105827
0.061058105
-0.011143653
0.064516009
-0.011204617
0.067993687
-0.011242339
0.071484096
-0.011258044
0.074980574
-0.011253025
0.078476878
-0.011228663
0.081967224
-0.011186443
0.085446332
-0.011127962
0.088909464
-0.011054939
0.092352476
-0.010969218
0.095771857
-0.010872779
0.09916478
-0.010767743
0.10252915
-0.010656377
0.10586367
-0.010541109
0.10916787
-0.010424534
0.11244218
-0.010309432
0.11568802
-0.010198776
0.11890782
-0.010095749
0.12210515
-0.010003749
0.12528471
-0.0099263871
0.12845251
-0.0098674782
0.13161581
-0.0098309956
0.13478325
-0.0098210145
0.13796478
-0.0098415229
0.14117164
-0.0098964085
0.14441607
-0.0099884983
0.14771153
-0.01012139
0.15107052
-0.010291962
0.15451019
-0.010513988
0.15803325
-0.010743544
0.16169008
-0.011126016
0.16539386
-0.01124072
0.16950276
-0.012463084
-0.011500846
0.032651563
-0.0066938887
0.034119197
-0.0077634565
0.035781625
-0.0087033725
0.037565951
-0.0093803438
0.039473136
-0.0099992564
0.041509884
-0.010592689
0.043669372
-0.011131896
0.045942381
-0.01161476
0.048321661
-0.012050426
0.050800337
-0.012442961
0.053371075
-0.012793628
0.056026312
-0.013104037
0.058758457
-0.013375996
0.061559925
-0.013611044
0.064423148
-0.013810529
0.067340626
-0.013975749
0.070304978
-0.014108005
0.07330899
-0.014208629
0.076345671
-0.01427902
0.079408298
-0.01432067
0.082490467
-0.014335194
0.085586147
-0.014324343
0.088689724
-0.014290021
0.091796053
-0.014234292
0.094900505
-0.01415939
0.09799901
-0.014067723
0.10108811
-0.013961882
0.10416501
-0.013844643
0.10722762
-0.013718981
0.11027459
-0.013588083
0.11330541
-0.013455358
0.11632044
-0.013324458
0.11932095
-0.013199293
0.12230926
-0.01308405
0.12528871
-0.0129832
0.12826382
-0.012901499
0.13124032
-0.012843976
0.1342252
-0.012815879
0.13722679
-0.012822604
0.14025472
-0.012869456
0.14331995
-0.012961643
0.14643446
-0.013103009
0.14961155
-0.013298479
0.15286369
-0.013544101
0.156208
-0.013858294
0.15964777
-0.014183319
0.16323195
-0.014710195
0.16687928
-0.014888049
0.17092561
-0.01650941
-0.015296299
0.053429373
-0.0073841085
0.054322741
-0.0086568246
0.055373034
-0.0097536651
0.056515074
-0.010522384
0.0577641
-0.011248283
0.059134765
-0.011963354
0.060625929
-0.01262306
0.062233071
-0.013221902
0.063952328
-0.013769683
0.065779467
-0.0142701
0.067709353
-0.014723513
0.069736123
-0.015130807
0.071853446
-0.015493319
0.074054685
-0.015812282
0.076332995
-0.016088839
0.078681415
-0.016324168
0.081092954
-0.016519544
0.083560687
-0.016676362
0.086077826
-0.016796159
0.088637797
-0.016880641
0.091234299
-0.016931696
0.093861374
-0.016951417
0.096513454
-0.016942101
0.099185424
-0.016906262
0.10187267
-0.016846634
0.10457112
-0.016766172
0.1072773
-0.016668064
0.10998838
-0.016555726
0.11270223
-0.016432827
0.11541744
-0.016303291
0.1181334
-0.01617132
0.12085035
-0.016041412
0.12356945
-0.015918391
0.12629281
-0.015807411
0.1290236
-0.015713984
0.13176607
-0.015643977
0.13452569
-0.015603595
0.13730914
-0.015599327
0.1401244
-0.015637865
0.14298077
-0.015725822
0.14588887
-0.015869746
0.14886042
-0.016074556
0.15190854
-0.016346598
0.15504571
-0.016681274
0.15828905
-0.01710163
0.16164265
-0.017536926
0.16515352
-0.018221064
0.16874783
-0.018482353
0.17273247
-0.020494055
-0.019087321
0.076144175
-0.0073610568
0.076299697
-0.0088123464
0.076577241
-0.010031209
0.07693414
-0.010879283
0.077398988
-0.01171313
0.077988928
-0.012553294
0.078707317
-0.013341449
0.079554463
-0.014069048
0.080529044
-0.014744264
0.081628277
-0.015369334
0.082848306
-0.015943542
0.084184244
-0.016466745
0.085630342
-0.016939416
0.087180283
-0.017362224
0.088827391
-0.017735947
0.090564758
-0.018061535
0.092385364
-0.01834015
0.094282189
-0.018573188
0.096248323
-0.018762294
0.098277044
-0.018909362
0.1003619
-0.019016553
0.10249678
-0.019086293
0.10467596
-0.019121283
0.10689419
-0.019124491
0.10914671
-0.019099161
0.11142934
-0.019048803
0.11373849
-0.018977206
0.1160712
-0.018888436
0.11842522
-0.018786849
0.12079903
-0.018677107
0.12319191
-0.018564197
0.12560395
-0.018453454
0.12803615
-0.018350589
0.13049045
-0.018261708
0.1329698
-0.018193337
0.13547824
-0.018152419
0.13802095
-0.018146302
0.14060431
-0.018182682
0.14323596
-0.018269519
0.14592486
-0.018414725
0.14868132
-0.018626203
0.15151678
-0.018910015
0.1544442
-0.019274026
0.15747613
-0.019713205
0.1606297
-0.020255196
0.16390998
-0.020817204
0.16736165
-0.021672731
0.17091967
-0.022040376
0.17485715
-0.02443154
-0.022896555
0.099019151
-0.0064766791
0.098297431
-0.0080906254
0.097669136
-0.0094029143
0.097135942
-0.010346088
0.096734521
-0.011311709
0.096476352
-0.012295125
0.096367087
-0.013232184
0.096411105
-0.014113066
0.096608319
-0.014941479
0.09695583
-0.015716845
0.097449654
-0.016437366
0.098084783
-0.017101874
0.098855157
-0.017709791
0.099753996
-0.018261063
0.10077411
-0.018756057
0.10190804
-0.019195474
0.10314826
-0.019580365
0.10448721
-0.019912138
0.10591748
-0.020192565
0.10743188
-0.020423761
0.10902352
-0.020608188
0.11068587
-0.020748646
0.11241286
-0.020848273
0.1141989
-0.02091053
0.11603894
-0.020939202
0.11792853
-0.020938394
0.11986384
-0.020912521
0.12184173
-0.020866324
0.12385975
-0.020804871
0.12591622
-0.020733574
0.12801024
-0.020658217
0.13014176
-0.020584973
0.13231161
-0.020520442
0.13452158
-0.020471671
0.13677442
-0.020446181
0.13907397
-0.020451968
0.14142516
-0.020497495
0.14383411
-0.02059163
0.14630817
-0.020743576
0.14885597
-0.020962525
0.15148752
-0.021257753
0.15421403
-0.021636523
0.15704833
-0.022108333
0.16000306
-0.022667926
0.16309539
-0.023347525
0.16633146
-0.024053281
0.16975343
-0.025094698
0.17330586
-0.025592803
0.17722503
-0.028350719
-0.026756969
0.12017106
-0.0046880157
0.11851691
-0.0064364726
0.11691883
-0.0078048302
0.11546109
-0.0088883511
0.11418021
-0.010030833
0.11307395
-0.011188859
0.11214803
-0.012306268
0.11140908
-0.013374114
0.11085687
-0.014389266
0.11048717
-0.015347142
0.11029453
-0.016244732
0.11027269
-0.017080033
0.11041446
-0.017851557
0.11071196
-0.018558566
0.11115694
-0.019201042
0.11174098
-0.019779514
0.11245561
-0.020294994
0.11329245
-0.020748974
0.1142433
-0.021143412
0.11530025
-0.021480712
0.11645576
-0.0217637
0.11770272
-0.02199561
0.11903452
-0.022180076
0.1204451
-0.022321109
0.121929
-0.022423094
0.12348137
-0.022490771
0.12509809
-0.022529242
0.12677573
-0.022543958
0.12851159
-0.022540739
0.13030381
-0.022525785
0.13215129
-0.022505696
0.13405382
-0.02248751
0.1360121
-0.022478724
0.13802776
-0.02248733
0.14010342
-0.022521839
0.14224274
-0.022591288
0.14445047
-0.022705228
0.14673252
-0.022873675
0.14909598
-0.023107038
0.15154923
-0.023415775
0.15410201
-0.023810536
0.15676533
-0.02429984
0.15955191
-0.024894918
0.16247448
-0.025590498
0.16555034
-0.026423378
0.16878668
-0.027289623
0.17222303
-0.028531052
0.17581389
-0.029183656
0.17975728
-0.032294114
-0.030711324
0.13778496
-0.0021356266
0.13529728
-0.0039487947
0.13277336
-0.0052809101
0.13045454
-0.0065695286
0.12836784
-0.0079441319
0.12649491
-0.0093159319
0.12483888
-0.010650231
0.12340508
-0.011940318
0.12219229
-0.013176475
0.12119509
-0.014349942
0.12040634
-0.015455987
0.11981809
-0.016491775
0.11942172
-0.017455193
0.11920815
-0.018344993
0.11916796
-0.019160855
0.11929165
-0.019903198
0.11956973
-0.020573076
0.11999289
-0.021172135
0.12055207
-0.021702589
0.12123855
-0.022167191
0.12204404
-0.022569195
0.12296076
-0.022912333
0.12398149
-0.0232008
0.1250996
-0.023439217
0.12630913
-0.023632631
0.12760485
-0.023786483
0.12898221
-0.023906609
0.13043749
-0.023999234
0.13196773
-0.024070979
0.13357082
-0.024128872
0.1352455
-0.024180378
0.13699141
-0.024233425
0.13880913
-0.024296437
0.14070016
-0.024378365
0.14266704
-0.024488719
0.14471332
-0.024637568
0.14684364
-0.024835543
0.14906373
-0.025093771
0.15138054
-0.025423842
0.15380221
-0.025837445
0.15633827
-0.026346603
0.15899955
-0.026961115
0.16179869
-0.027694055
0.1647485
-0.028540307
0.16786639
-0.029541273
0.1711606
-0.030583834
0.17466799
-0.032038442
0.17835302
-0.032868684
0.18237476
-0.036315855
-0.034810851
0.15078311
0.0003831937
0.1475188
-0.00068448717
0.14425062
-0.0020127276
0.14123513
-0.0035540376
0.1384755
-0.0051845059
0.1359658
-0.006806224
0.13370821
-0.0083926424
0.1317031
-0.0099352054
0.1299483
-0.011421674
0.12843894
-0.012840582
0.12716756
-0.014184611
0.12612515
-0.01544936
0.12530191
-0.01663196
0.12468763
-0.017730707
0.12427176
-0.018744984
0.12404368
-0.019675117
0.12399284
-0.02052224
0.12410892
-0.021288211
0.12438189
-0.021975561
0.12480215
-0.022587451
0.12536059
-0.023127631
0.12604865
-0.023600402
0.12685844
-0.024010584
0.12778271
-0.024363487
0.12881496
-0.024664883
0.12994947
-0.024920988
0.1311813
-0.025138444
0.13250638
-0.025324311
0.13392147
-0.025486075
0.13542426
-0.025631654
0.13701331
-0.025769426
0.13868813
-0.025908254
0.14044922
-0.026057526
0.14229804
-0.026227183
0.14423707
-0.026427746
0.14626983
-0.026670324
0.14840089
-0.026966609
0.15063595
-0.027328824
0.1529818
-0.027769697
0.15544646
-0.028302106
0.15803928
-0.028939421
0.16077089
-0.029692723
0.16365386
-0.030577031
0.16670102
-0.031587468
0.16993002
-0.032770268
0.17334956
-0.034003378
0.17699524
-0.035684118
0.18083675
-0.036710191
0.18500702
-0.040486129
-0.039107488
0.19000976
0.0049376829
-0.19456425
0.18624579
0.0030794794
0.18290112
0.0013319429
0.17980565
-0.00045856698
0.17692203
-0.002300884
0.17422537
-0.0041095589
0.17169777
-0.0058650469
0.16933054
-0.0075679768
0.16712007
-0.0092112057
0.16506451
-0.010785017
0.16316232
-0.012282419
0.16141175
-0.013698787
0.15981053
-0.015030746
0.1583558
-0.016275971
0.15704406
-0.017433247
0.15587133
-0.018502391
0.15483321
-0.019484116
0.15392496
-0.020379958
0.15314162
-0.021192218
0.15247808
-0.021923918
0.1519292
-0.022578752
0.15148985
-0.023161044
0.15115497
-0.023675708
0.1509197
-0.024128215
0.15077937
-0.024524558
0.15072961
-0.024871227
0.15076635
-0.025175186
0.15088591
-0.025443865
0.15108499
-0.025685154
0.15136075
-0.025907412
0.15171081
-0.026119487
0.15213329
-0.026330737
0.15262683
-0.026551063
0.15319058
-0.026790934
0.15382423
-0.027061399
0.154528
-0.027374096
0.15530263
-0.027741236
0.15614935
-0.028175548
0.15706993
-0.028690269
0.15806662
-0.029298799
0.15914235
-0.030015147
0.16030062
-0.030850994
0.16154608
-0.031822498
0.16288335
-0.032924731
0.16432042
-0.034207344
0.16585838
-0.035541333
0.16751903
-0.037344774
0.16926679
-0.038457951
0.17121627
-0.04243561
-0.041049527
0.21791929
0.0082891992
-0.2212708
0.21449451
0.0065042604
0.2113314
0.0044950488
0.20827792
0.0025949093
0.2052854
0.00069164038
0.20238486
-0.0012090161
0.19959343
-0.0030736216
0.19691595
-0.0048904895
0.19435858
-0.0066538425
0.19192849
-0.0083549215
0.18963121
-0.009985143
0.18747053
-0.011538109
0.18544885
-0.013009066
0.18356731
-0.014394426
0.18182583
-0.015691772
0.18022331
-0.016899867
0.17875774
-0.018018546
0.1774264
-0.01904862
0.17622599
-0.019991807
0.17515275
-0.020850681
0.17420261
-0.021628613
0.17337128
-0.022329714
0.17265437
-0.022958792
0.17204746
-0.023521303
0.17154621
-0.024023309
0.17114643
-0.024471447
0.17084414
-0.024872896
0.17063563
-0.025235361
0.17051754
-0.025567062
0.17048686
-0.025876734
0.17054101
-0.026173636
0.17067785
-0.026467574
0.1708957
-0.026768913
0.17119337
-0.027088601
0.17157013
-0.027438167
0.17202576
-0.027829717
0.17256043
-0.028275909
0.17317478
-0.028789896
0.17386984
-0.029385334
0.1746471
-0.030076062
0.17550859
-0.03087663
0.17645697
-0.031799373
0.17749586
-0.032861393
0.17862964
-0.03405851
0.17986425
-0.03544195
0.1812043
-0.036881386
0.18265929
-0.038799769
0.18422339
-0.040022049
0.1859226
-0.044134815
-0.042829127
0.24475362
0.010969245
-0.24743366
0.24194964
0.0093082419
0.23914391
0.0073007758
0.23634675
0.0053920677
0.23352155
0.0035168394
0.23068899
0.0016235433
0.22788033
-0.00026495538
0.22511512
-0.0021252852
0.22240957
-0.0039482881
0.21977985
-0.0057252051
0.21724015
-0.0074454354
0.2148018
-0.0090997671
0.21247383
-0.010681097
0.21026323
-0.012183819
0.20817509
-0.013603634
0.20621282
-0.014937595
0.20437833
-0.016184057
0.20267227
-0.017342561
0.20109422
-0.018413757
0.19964287
-0.019399327
0.19831618
-0.020301923
0.19711156
-0.021125096
0.196026
-0.021873235
0.19505621
-0.022551507
0.1941987
-0.023165808
0.19344997
-0.023722712
0.19280651
-0.024229434
0.19226495
-0.024693798
0.19182211
-0.025124222
0.19147507
-0.0255297
0.19122124
-0.025919808
0.19105838
-0.026304706
0.19098461
-0.026695149
0.1909985
-0.027102486
0.19109898
-0.027538649
0.19128539
-0.028016129
0.19155742
-0.028547938
0.19191508
-0.029147552
0.19235867
-0.029828929
0.19288886
-0.030606245
0.1935067
-0.031494473
0.19421397
-0.032506647
0.19501319
-0.03366061
0.19590847
-0.034953792
0.19690355
-0.036437027
0.19800705
-0.037984886
0.19921461
-0.040007327
0.20055447
-0.04136191
0.20194893
-0.045529278
-0.044406618
0.27016181
0.012964778
-0.27215734
0.2680337
0.011436348
0.26573368
0.0096007952
0.26333849
0.0077872612
0.26085673
0.005998595
0.25829864
0.0041816332
0.25569038
0.0023433105
0.2530562
0.00050889502
0.2504163
-0.0013083954
0.24779084
-0.0030997425
0.24519936
-0.0048539534
0.24265929
-0.0065597032
0.24018573
-0.0082075333
0.23779156
-0.0097896449
0.23548751
-0.011299591
0.23328226
-0.01273234
0.23118252
-0.014084318
0.22919329
-0.015353332
0.22731802
-0.016538489
0.22555882
-0.017640128
0.22391665
-0.018659744
0.22239147
-0.019599919
0.22098248
-0.020464244
0.21968823
-0.021257256
0.21850679
-0.021984367
0.21743588
-0.02265181
0.21647304
-0.023266586
0.21561566
-0.023836419
0.21486116
-0.024369728
0.21420706
-0.024875597
0.21365102
-0.025363767
0.21319094
-0.025844623
0.21282497
-0.026329185
0.21255158
-0.026829093
0.2123695
-0.027356572
0.21227776
-0.027924386
0.21227561
-0.028545786
0.21236249
-0.029234439
0.21253803
-0.030004463
0.21280202
-0.030870243
0.21315459
-0.031847042
0.21359655
-0.032948608
0.21412931
-0.034193364
0.21475662
-0.035581101
0.21548028
-0.037160685
0.21631228
-0.03881689
0.21723619
-0.040931237
0.21830967
-0.042435386
0.2193613
-0.046580917
-0.045735734
0.29376645
0.014267641
-0.29506931
0.29231749
0.012885302
0.29062765
0.011290636
0.288764
0.0096509121
0.28676186
0.0080007384
0.28463228
0.006311214
0.28239378
0.0045818061
0.28006985
0.0028328227
0.27768194
0.0010795205
0.27525026
-0.00066806869
0.27279541
-0.0023990975
0.27033748
-0.0041017749
0.26789513
-0.0057651785
0.2654853
-0.0073798208
0.26312316
-0.0089374495
0.26082193
-0.010431106
0.25859287
-0.011855261
0.25644537
-0.013205833
0.25438703
-0.014480148
0.2524238
-0.015676898
0.25056015
-0.016796092
0.24879921
-0.017838987
0.247143
-0.018808026
0.24559251
-0.019706765
0.24414794
-0.020539805
0.24280886
-0.021312723
0.24157428
-0.022032015
0.2404429
-0.022705039
0.23941315
-0.023339974
0.23848333
-0.023945774
0.23765171
-0.02453215
0.23691662
-0.025109531
0.23627648
-0.025689043
0.23572985
-0.026282466
0.23527546
-0.026902177
0.23491214
-0.027561071
0.23463884
-0.02827249
0.23445454
-0.029050137
0.23435821
-0.029908127
0.23434886
-0.030860893
0.23442565
-0.031923837
0.23458844
-0.033111396
0.23483755
-0.034442474
0.23517627
-0.035919817
0.23560483
-0.037589252
0.23613779
-0.039349848
0.23674915
-0.041542595
0.23751972
-0.043205957
0.23820028
-0.047261473
-0.046773674