/*--------------------------------*- C++ -*----------------------------------*\
  =========                 |
  \\      /  F ield         | OpenFOAM: The Open Source CFD Toolbox
   \\    /   O peration     | Website:  https://openfoam.org
    \\  /    A nd           | Version:  6
     \\/     M anipulation  |
\*---------------------------------------------------------------------------*/
FoamFile
{
    version     2.0;
    format      ascii;
    class       volSymmTensorField;
    location    "41";
    object      UPrime2Mean;
}
// * * * * * * * * * * * * * * * * * * * * * * * * * * * * * * * * * * * * * //

dimensions      [0 2 -2 0 0 0 0];

internalField   nonuniform List<symmTensor> 
9200
(
(0.00047453744 -0.00036843627 1.777152e-21 0.00029593184 -9.5562432e-22 2.8309465e-38)
(0.0028824686 -0.0023151219 4.3925436e-21 0.0018662166 -3.2799348e-21 3.0755611e-38)
(0.0057223799 -0.0044753847 6.5595418e-22 0.0035165104 -4.8518626e-22 1.6883147e-38)
(0.0088559517 -0.0065005557 -6.4410412e-21 0.0048155815 4.5650426e-21 3.3560985e-38)
(0.011812955 -0.008234804 2.0400029e-22 0.0058227574 -2.0249682e-22 4.9336077e-39)
(0.014375164 -0.0096029832 2.5585479e-21 0.0065431487 -1.7415868e-21 7.2657323e-40)
(0.01640917 -0.010587927 -4.9300957e-22 0.0070103442 3.6569266e-22 2.2346196e-39)
(0.017823492 -0.01120494 4.510921e-22 0.0072754949 -3.251513e-22 1.5055065e-39)
(0.018573581 -0.011484335 2.4710688e-21 0.0073865933 -1.542861e-21 4.282649e-39)
(0.018660957 -0.011463583 1.8686035e-22 0.0073837924 -1.1847943e-22 1.2095058e-41)
(0.018129054 -0.011183508 -2.5349739e-21 0.0072996882 1.6311614e-21 2.2699117e-39)
(0.017058157 -0.010685917 2.0687375e-21 0.0071599305 -1.3973142e-21 2.8095842e-40)
(0.015558099 -0.010012102 -3.6283388e-21 0.0069840341 2.6173156e-21 4.820751e-39)
(0.01375833 -0.0092019086 -1.7914822e-21 0.0067863797 1.3273748e-21 2.7542065e-40)
(0.011796155 -0.0082931265 4.5761131e-22 0.0065772491 -3.6934056e-22 3.7172231e-41)
(0.0098044292 -0.0073209892 -1.6618928e-21 0.0063637998 1.4324824e-21 3.6152449e-40)
(0.0079000044 -0.006317709 1.4094305e-21 0.0061512053 -1.3348072e-21 4.4863858e-40)
(0.0061743043 -0.0053122912 9.7122908e-22 0.0059457226 -9.7679492e-22 2.03939e-39)
(0.0046925765 -0.0043295584 -5.7986276e-23 0.0057562753 1.1256109e-22 3.8694097e-40)
(0.0035130142 -0.0033915655 -4.3289575e-23 0.0055327301 1.0729926e-22 4.7955633e-40)
(0.0006231291 -0.00041656027 1.9166896e-22 0.00028615381 -7.5938195e-23 4.9398232e-40)
(0.0036523171 -0.0025404432 4.6627969e-21 0.0017721633 -3.0345838e-21 3.2856697e-38)
(0.0071204759 -0.0048337625 -1.602818e-21 0.0032964142 1.0694189e-21 1.7875316e-38)
(0.010701594 -0.0068873781 -1.150264e-20 0.0044732248 7.2552575e-21 7.7569335e-38)
(0.013866215 -0.0085627523 -3.3956315e-22 0.0053653366 2.2729064e-22 9.8031978e-40)
(0.016377564 -0.0097996293 8.6718257e-21 0.0059874706 -5.2113358e-21 2.5573638e-38)
(0.018116055 -0.010601306 -3.458298e-21 0.0063807575 2.0788248e-21 8.2569799e-40)
(0.019031279 -0.01100446 -1.0430756e-21 0.0065990148 6.2313066e-22 3.1299938e-40)
(0.019138343 -0.011058281 3.8731087e-21 0.0066900863 -2.3498721e-21 2.3467355e-39)
(0.018509636 -0.010815743 -4.6027784e-21 0.0066922466 2.8643984e-21 2.6493867e-39)
(0.017263382 -0.010329637 -3.2005895e-21 0.006634888 2.0598017e-21 3.3591924e-39)
(0.015550519 -0.0096503854 6.7365258e-21 0.0065394777 -4.5608415e-21 1.7020162e-38)
(0.013539383 -0.0088249915 3.0743046e-21 0.0064206817 -2.2403737e-21 1.1008584e-39)
(0.011399157 -0.0078967039 -4.694996e-21 0.0062875913 3.7036862e-21 5.6395732e-39)
(0.0092841174 -0.0069049876 8.0814486e-22 0.0061448796 -6.9903508e-22 4.8540084e-40)
(0.0073208003 -0.005885532 -1.7584459e-21 0.0059938034 1.7290748e-21 1.2237717e-39)
(0.0055996477 -0.0048701795 -7.3578148e-22 0.0058331585 8.5980053e-22 4.0004878e-40)
(0.0041718285 -0.003886372 2.0286875e-21 0.0056603017 -2.6780307e-21 6.4081224e-39)
(0.0030536829 -0.0029551419 9.1961681e-22 0.0054672703 -1.4935224e-21 1.1525781e-39)
(0.00224063 -0.0020985961 -3.2923255e-22 0.0052107789 4.8247312e-22 9.7418628e-39)
(0.00078956636 -0.0004497054 -1.5520288e-21 0.00026205411 6.6306519e-22 1.2818824e-38)
(0.0044631106 -0.0026629272 -2.5491368e-21 0.001592719 1.4162424e-21 1.337373e-38)
(0.0085342537 -0.0049857703 -2.9600819e-21 0.0029262404 1.7211937e-21 3.3427982e-38)
(0.012470526 -0.0069765841 9.1666712e-23 0.0039401803 -5.0920638e-23 3.5998034e-42)
(0.015701751 -0.0085219362 3.373546e-22 0.0046978667 -1.493501e-22 2.3993031e-38)
(0.017996822 -0.0095834355 3.0674467e-21 0.0052222647 -1.6648807e-21 6.6959903e-39)
(0.019280034 -0.010187554 2.1739645e-22 0.0055580763 -1.1936231e-22 2.7775871e-39)
(0.019572608 -0.010391026 -4.8985347e-21 0.0057569133 2.7373466e-21 1.6461883e-39)
(0.018975227 -0.010258072 5.7061769e-21 0.0058618369 -3.2956965e-21 3.1534269e-39)
(0.017648143 -0.0098518359 1.8499099e-21 0.0059051199 -1.1316915e-21 3.6549624e-39)
(0.015789051 -0.0092311894 -4.9405939e-21 0.0059094562 3.1963747e-21 7.3596889e-39)
(0.013610361 -0.0084496292 -1.4942761e-21 0.0058893512 1.0533291e-21 2.4507964e-39)
(0.011316907 -0.0075553837 6.0249903e-22 0.0058526237 -4.3833524e-22 6.7260348e-39)
(0.0090865255 -0.0065920251 1.2200496e-21 0.0058019566 -1.0573956e-21 9.2433402e-40)
(0.0070560695 -0.0055990043 -3.9310391e-22 0.0057363714 3.9488958e-22 7.3095404e-40)
(0.0053145367 -0.0046118052 9.3135125e-22 0.005652596 -1.0779165e-21 5.3015466e-40)
(0.0039035292 -0.0036616733 -6.3947742e-22 0.0055462492 8.7871969e-22 1.9110482e-40)
(0.0028238172 -0.0027749067 -1.1540876e-21 0.0054124458 1.9804701e-21 5.1996444e-39)
(0.0020459638 -0.0019715292 3.0743343e-23 0.0052456812 -3.0364934e-23 4.9295294e-39)
(0.0015232156 -0.001268559 3.6706552e-22 0.0050359244 -1.0665031e-21 4.802859e-40)
(0.00096790263 -0.00046293539 -1.2295299e-21 0.0002259003 4.5416984e-22 6.3695026e-39)
(0.0052710456 -0.0026616619 1.76624e-21 0.0013470028 -8.6924631e-22 1.1525137e-39)
(0.009874788 -0.004904589 1.5790177e-21 0.0024480194 -7.8432629e-22 1.3682246e-39)
(0.014037864 -0.0067501044 3.4924122e-21 0.0032794734 -1.6786001e-21 1.4835217e-38)
(0.017177053 -0.0081151591 2.9958263e-21 0.0039015221 -1.4435729e-21 6.5882976e-39)
(0.019099619 -0.0089864621 -5.0754582e-21 0.004341854 2.4769284e-21 4.9515869e-39)
(0.019807623 -0.00941121 -2.7867646e-21 0.0046434695 1.396539e-21 1.4030033e-39)
(0.019421876 -0.0094597251 0 0.0048506687 0 0)
(0.018145358 -0.009203241 2.9469747e-21 0.0049975017 -1.6927184e-21 1.8454013e-38)
(0.016228309 -0.0087071156 -1.2294022e-21 0.005106938 7.8286846e-22 6.99553e-39)
(0.013934593 -0.0080295927 -7.0408024e-21 0.0051925628 4.5497827e-21 5.591075e-39)
(0.011511722 -0.0072224748 -9.0493024e-22 0.0052603532 6.1426078e-22 1.2420379e-39)
(0.0091670014 -0.0063324552 3.2168666e-21 0.0053105348 -2.6943633e-21 8.1318867e-39)
(0.0070524077 -0.0054021603 2.4444375e-22 0.0053394733 -1.5990155e-22 3.4870574e-39)
(0.0052594995 -0.0044703698 -4.6160867e-23 0.0053414993 5.2825983e-23 2.3024303e-42)
(0.0038236575 -0.0035713923 4.7247067e-22 0.0053106063 -6.569066e-22 4.0505799e-40)
(0.0027352235 -0.0027339269 2.8440617e-23 0.0052417609 -5.3538234e-24 5.0454216e-40)
(0.0019541225 -0.0019799494 -7.6971517e-22 0.005131333 1.6451648e-21 1.1245169e-39)
(0.0014240688 -0.0013238292 -3.8982482e-22 0.0049798763 1.1088756e-21 8.1078929e-40)
(0.0010845297 -0.00077289119 1.2850735e-22 0.0048006106 -7.5755508e-22 5.6695062e-39)
(0.0011497109 -0.00045219862 9.1973292e-22 0.00018115935 -2.9283943e-22 2.5066129e-39)
(0.006023574 -0.0025244917 3.8141222e-21 0.0010603223 -1.5217465e-21 2.2583193e-38)
(0.011045413 -0.0045827805 2.8232254e-21 0.0019119391 -1.1758769e-21 1.3870294e-39)
(0.015281952 -0.0062183664 3.2068354e-21 0.0025605414 -1.3239068e-21 7.9290089e-39)
(0.01817292 -0.0073797335 -4.8252769e-21 0.0030590929 2.0317736e-21 1.246648e-38)
(0.019601077 -0.0080761659 1.3415122e-22 0.0034352844 -4.4400916e-23 1.1897555e-39)
(0.019677145 -0.0083670518 2.6112649e-22 0.0037251703 -1.1862076e-22 9.696877e-42)
(0.01863897 -0.0083252405 3.6447028e-21 0.0039616677 -1.7900871e-21 4.3970893e-39)
(0.01679244 -0.0080185612 4.7794235e-22 0.0041669931 -2.5240342e-22 3.8430513e-41)
(0.014461568 -0.0075065258 -1.2408019e-21 0.0043529855 7.6830973e-22 2.4019522e-39)
(0.011947007 -0.0068417376 3.8981156e-21 0.0045231098 -2.6826846e-21 1.6602433e-38)
(0.0094957022 -0.0060721065 -2.8235012e-21 0.0046745361 2.0499727e-21 1.2823361e-39)
(0.0072837485 -0.005242418 -5.0628963e-21 0.0048003565 4.4824529e-21 9.3660764e-39)
(0.005412913 -0.004394514 -1.6030171e-22 0.0048918518 1.7129463e-22 2.0256874e-41)
(0.0039187935 -0.003566122 1.6117824e-21 0.0049406191 -2.1860259e-21 8.0645183e-39)
(0.0027865671 -0.002788964 0 0.004940368 0 0)
(0.0019696082 -0.0020869637 2.1243158e-22 0.0048879776 -3.5445115e-22 2.1085072e-40)
(0.0014068271 -0.0014753399 -7.4521875e-23 0.0047833583 2.4929189e-22 3.1771295e-40)
(0.0010354973 -0.00096076626 -9.7350617e-23 0.0046326731 2.6193845e-22 8.0002034e-41)
(0.00079917799 -0.0005415658 1.5388453e-23 0.0044599585 -2.2227979e-22 5.7609239e-40)
(0.0013249961 -0.00041530001 2.0063744e-21 0.00013249453 -5.1627463e-22 1.0135489e-38)
(0.0066669497 -0.0022523439 1.8952109e-22 0.00076272647 -6.2406377e-23 1.8593787e-41)
(0.011957633 -0.0040378575 -5.3522951e-22 0.0013725825 1.8271703e-22 8.2062803e-41)
(0.016106798 -0.0054241457 4.7259561e-22 0.0018534665 -1.5888923e-22 1.6350294e-39)
(0.018617906 -0.0063867121 -3.2686757e-21 0.0022477762 1.1765929e-21 3.0465386e-39)
(0.019484127 -0.0069481453 -1.5258256e-21 0.0025787433 5.7749484e-22 2.6781019e-40)
(0.018944844 -0.0071662921 9.826175e-22 0.002871825 -3.1263168e-22 8.7586381e-39)
(0.017355536 -0.0071032756 -4.7154567e-23 0.0031466181 5.1249919e-23 6.8623907e-40)
(0.015107141 -0.0068137821 -2.3851738e-21 0.0034126516 1.2900551e-21 7.1965365e-39)
(0.012566115 -0.0063461043 4.0253181e-21 0.0036704076 -2.2858833e-21 1.8942508e-39)
(0.01003318 -0.0057455971 -6.6604783e-23 0.0039134948 1.6591155e-22 3.7682801e-39)
(0.0077217178 -0.0050569033 -2.9465032e-21 0.0041310901 2.4515834e-21 1.0066978e-38)
(0.0057547633 -0.0043239863 0 0.0043106305 0 0)
(0.0041767225 -0.0035881465 6.1306147e-22 0.0044404633 -8.8907785e-22 5.5205387e-39)
(0.0029738569 -0.0028850476 1.4629846e-23 0.0045120576 -7.9495652e-23 3.046454e-40)
(0.002097143 -0.00224202 -6.923259e-22 0.0045214503 1.4404287e-21 6.3064673e-39)
(0.0014824824 -0.0016765766 -1.5777314e-22 0.0044695429 3.6661091e-22 1.2347721e-40)
(0.0010654544 -0.0011966 -3.3541766e-23 0.0043610614 1.640871e-22 2.1447661e-40)
(0.00078958612 -0.00080202474 -5.1918593e-23 0.0042068069 2.1990724e-22 7.8996771e-41)
(0.00060937384 -0.00048599714 7.4820985e-23 0.0040335505 -5.2946117e-22 7.7301512e-40)
(0.0014833568 -0.00035248327 7.7863532e-22 8.5280599e-05 -1.498704e-22 1.605414e-39)
(0.0071533272 -0.0018602657 -5.4854961e-21 0.00048519352 1.3822362e-21 3.4894095e-38)
(0.012543231 -0.0033107975 -5.4212068e-22 0.00088158527 1.5048595e-22 3.2580049e-39)
(0.016455266 -0.0044363432 -1.5227255e-21 0.0012195479 4.4553585e-22 1.6394712e-38)
(0.018496784 -0.005228676 -9.808729e-22 0.0015293978 2.8325355e-22 2.2059483e-40)
(0.018796509 -0.0057085553 -5.5518059e-21 0.00182738 1.8049482e-21 2.8389391e-39)
(0.017725507 -0.005916217 -2.6708927e-21 0.0021275159 1.0006152e-21 2.3758602e-39)
(0.015738823 -0.0058911775 4.9968827e-21 0.0024366869 -2.0234202e-21 1.7143603e-39)
(0.01327987 -0.0056689001 8.2828396e-22 0.0027526847 -4.7581408e-22 2.4749435e-39)
(0.010719789 -0.0052852907 -1.0522507e-21 0.0030655949 5.148749e-22 8.3099349e-40)
(0.0083263074 -0.004780068 5.0826546e-22 0.0033603026 -1.8619568e-22 3.1850249e-39)
(0.0062584557 -0.0041966717 -6.5921496e-23 0.0036195832 1.3368779e-22 8.0726188e-40)
(0.0045807232 -0.0035791545 0 0.0038274018 0 0)
(0.0032881592 -0.0029676306 4.5005943e-22 0.0039717638 -5.4981414e-22 1.7193468e-40)
(0.0023339817 -0.0023941443 -9.0046742e-22 0.0040465346 1.4404352e-21 2.4901443e-39)
(0.0016533857 -0.0018802977 -2.8446349e-22 0.0040519567 5.3760579e-22 2.0307534e-40)
(0.001180391 -0.001437039 4.4033301e-22 0.0039937801 -1.1909959e-21 3.0366653e-39)
(0.00085740932 -0.0010663166 -1.2982577e-22 0.0038812701 1.7352534e-22 6.8076576e-40)
(0.00063871133 -0.00076398818 -1.4636236e-23 0.0037280759 -1.4188522e-23 7.6683183e-41)
(0.0004898945 -0.00052177706 9.6146244e-23 0.0035587888 -3.8165204e-22 4.8942187e-41)
(0.001615169 -0.00026655718 5.7163087e-22 4.4875282e-05 -7.5215896e-23 1.0049466e-39)
(0.0074468897 -0.0013758017 -4.9798228e-21 0.00025530738 9.011547e-22 1.5951659e-38)
(0.012762364 -0.0024602602 -3.8991043e-21 0.00048068137 7.8070602e-22 1.9147361e-38)
(0.01631443 -0.0033392669 5.2909599e-21 0.00070381224 -1.1378832e-21 4.5941893e-39)
(0.01784771 -0.004004652 3.8615852e-21 0.00094441392 -9.0875714e-22 8.9633264e-40)
(0.017635448 -0.0044572251 -2.6931891e-21 0.0012124366 6.2621258e-22 1.0105668e-38)
(0.016164325 -0.0047052077 9.0826697e-22 0.0015127622 -3.7307489e-22 4.3038813e-39)
(0.013955799 -0.004758215 5.0292564e-21 0.0018422046 -1.9405828e-21 4.5446333e-39)
(0.011466654 -0.0046314834 2.1457159e-21 0.0021888156 -9.1935839e-22 5.3431563e-40)
(0.0090385428 -0.0043510852 -2.0389089e-21 0.0025338013 1.1623917e-21 1.4725995e-39)
(0.0068849052 -0.0039542455 -2.6925448e-21 0.0028549229 1.7980992e-21 1.6164306e-39)
(0.0051049245 -0.0034849185 -7.114365e-23 0.0031306122 5.8291628e-23 1.6757039e-42)
(0.0037125531 -0.0029870388 7.2678463e-22 0.0033438091 -7.2970904e-22 2.5823794e-40)
(0.0026693108 -0.0024981714 -6.4840621e-24 0.003484536 9.7898266e-23 4.6519369e-40)
(0.0019126888 -0.0020455097 5.5109947e-24 0.003550711 1.5578657e-22 1.2589545e-39)
(0.001376183 -0.0016448425 -2.4430303e-23 0.0035472992 -1.9918547e-22 2.2741615e-39)
(0.0010006408 -0.0013019397 2.0696793e-22 0.0034842261 -5.4191813e-22 6.3346771e-40)
(0.00073880942 -0.0010153278 -8.8298594e-23 0.0033737495 4.4997198e-22 1.7151748e-39)
(0.00055546594 -0.00077963196 -2.6146504e-22 0.0032302002 1.0607878e-21 3.2080139e-39)
(0.00042515664 -0.00058756784 1.0355452e-22 0.0030734391 -3.0238321e-22 5.9709377e-41)
(0.0017132418 -0.00016262307 -1.4381097e-21 1.5866084e-05 1.1949572e-22 2.9932203e-39)
(0.0075289914 -0.00083536087 -9.7556583e-22 9.3601314e-05 1.0770999e-22 3.1941782e-39)
(0.012607424 -0.0015544717 8.357565e-21 0.00019688109 -1.0829683e-21 3.9419855e-38)
(0.015715075 -0.0022208481 5.9833606e-21 0.00033116895 -9.0278338e-22 4.1644123e-39)
(0.016753861 -0.0028069415 2.5630297e-21 0.00051078588 -4.2626255e-22 2.0740949e-39)
(0.016130402 -0.0032766814 5.1172587e-22 0.0007435993 -1.1238853e-22 1.8401445e-41)
(0.014414233 -0.0035971241 -4.6404754e-21 0.0010299874 1.1056073e-21 8.6297954e-39)
(0.012152381 -0.003746737 0 0.0013602337 0 0)
(0.009778635 -0.0037239597 -2.6987897e-21 0.0017148127 1.3134271e-21 7.1908477e-39)
(0.0075819766 -0.0035494307 -4.3958533e-22 0.0020676567 3.4320517e-22 1.6582542e-39)
(0.0057147124 -0.0032606707 1.2548549e-21 0.0023912248 -8.1437042e-22 3.3162144e-40)
(0.0042232201 -0.0029025747 1.1301705e-22 0.0026618192 -1.9952569e-22 9.1439205e-40)
(0.0030858879 -0.0025178283 -5.4772325e-22 0.0028635455 6.3939583e-22 1.0266586e-39)
(0.0022471068 -0.0021402018 -3.8270753e-22 0.0029899596 6.3827763e-22 2.2432928e-39)
(0.0016417995 -0.001791809 2.7316269e-22 0.0030434027 -2.9877039e-22 2.6650301e-40)
(0.0012097332 -0.0014837592 3.6076824e-22 0.0030327313 -5.2108657e-22 2.1792254e-40)
(0.0009017074 -0.0012187666 -2.9967105e-22 0.0029703676 5.9225946e-22 1.8781952e-40)
(0.00068061651 -0.00099434797 -3.6099145e-22 0.0028695604 1.024825e-21 2.6612479e-39)
(0.00051989681 -0.00080584857 4.3851784e-23 0.0027434915 -1.5184634e-24 3.3151742e-40)
(0.00040078621 -0.00064788403 3.6717046e-23 0.0026064922 -2.1278502e-22 3.8331134e-40)
(0.0017724283 -4.7235131e-05 -9.5246976e-22 1.4500784e-06 2.4335279e-23 1.466533e-39)
(0.0073973705 -0.00027962834 3.941279e-21 1.1349329e-05 -1.4447241e-22 8.0922922e-39)
(0.012100697 -0.00066342204 6.0331483e-21 4.0567635e-05 -3.8417541e-22 5.9058083e-38)
(0.01472513 -0.0011634206 -6.7202805e-21 0.00010656403 6.2217299e-22 1.6073184e-38)
(0.015328989 -0.0017130737 2.3260377e-21 0.00022705719 -2.7957639e-22 3.6851127e-40)
(0.014421898 -0.0022279571 8.5459894e-22 0.00041453081 2.2365261e-23 1.5014717e-38)
(0.012613995 -0.0026320918 2.3814387e-22 0.00067021373 -5.3506823e-23 4.6412039e-42)
(0.010438474 -0.0028772513 -3.2897652e-21 0.00098107844 8.288846e-22 4.8564943e-39)
(0.0082797164 -0.0029511743 -7.2900186e-23 0.0013218298 2.8114908e-23 6.6530258e-43)
(0.0063645172 -0.0028734065 1.1565711e-21 0.0016607417 -6.9482875e-22 1.8745205e-39)
(0.0047891846 -0.0026831522 8.2670029e-23 0.0019669691 -1.0975644e-22 2.7574223e-40)
(0.0035610489 -0.0024254365 -4.2935498e-22 0.00221678 9.192471e-23 3.566935e-39)
(0.002638596 -0.0021403383 -8.6821696e-22 0.0023969552 7.9698212e-22 3.021549e-40)
(0.0019617966 -0.0018572694 8.0625416e-24 0.0025049748 8.6053838e-23 4.6561862e-40)
(0.0014707643 -0.0015939708 2.6875602e-22 0.0025467823 -4.281595e-22 4.2982181e-40)
(0.0011146763 -0.0013585247 1.7015789e-22 0.0025334569 -3.4065704e-22 4.2500448e-40)
(0.00085428908 -0.0011525016 2.3823973e-23 0.0024779804 -1.6722353e-22 7.1226985e-40)
(0.00066112342 -0.00097397156 -2.90944e-22 0.002392871 4.4108466e-22 5.2435006e-40)
(0.00051533718 -0.00081981241 -8.65329e-23 0.0022890594 -6.6409208e-23 2.4520196e-39)
(0.0004030678 -0.00068640245 1.0788257e-22 0.0021756912 -5.5703875e-22 3.9885302e-39)
(1.2550028e-05 -1.5583428e-06 1.2580795e-22 1.9113698e-06 -2.5241404e-23 1.4345844e-39)
(5.9252352e-05 -2.4801751e-05 -1.7931821e-22 1.2740564e-05 4.9683187e-23 1.3818162e-39)
(0.00013272274 -5.7334139e-05 3.9853865e-22 2.5369626e-05 -1.4850946e-22 7.9240755e-39)
(0.00042535927 -0.00012078768 1.1091435e-21 3.6256447e-05 -2.3475194e-22 2.6671054e-38)
(0.00093210852 -0.00019863451 -7.8887732e-22 4.5867173e-05 1.3259575e-22 6.9289309e-39)
(0.0016620923 -0.00028495293 9.9067453e-22 5.418952e-05 -1.3209838e-22 7.6578107e-39)
(0.0026361412 -0.00037637698 -1.3472914e-21 6.1238909e-05 1.6665347e-22 8.387586e-39)
(0.0038567014 -0.00046959831 -1.3837931e-21 6.7189945e-05 1.4010352e-22 8.8825264e-39)
(0.005313442 -0.00056193951 1.7167171e-21 7.2233679e-05 -1.7125453e-22 9.3629538e-39)
(0.006991625 -0.00065141934 -1.3162078e-21 7.652408e-05 1.2301946e-22 4.7632024e-39)
(0.0088738149 -0.00073654745 -6.8918739e-23 8.0181735e-05 1.1059223e-24 5.5796755e-41)
(0.010940203 -0.00081617749 3.6175914e-22 8.3301299e-05 -3.7152134e-23 1.7228327e-40)
(0.013169391 -0.00088941694 -6.4606547e-23 8.5956904e-05 2.7726534e-24 2.7970803e-41)
(0.015539103 -0.00095556914 1.9071059e-21 8.8208713e-05 -1.6326815e-22 8.2985645e-39)
(0.018026617 -0.0010141118 6.7859037e-24 9.0111188e-05 3.6733422e-24 1.8135694e-41)
(0.020609195 -0.0010647241 -2.6236252e-21 9.1721786e-05 2.4039504e-22 1.7005916e-38)
(0.02326466 -0.0011073168 4.6168274e-22 9.3101112e-05 -4.9782769e-23 3.5363347e-40)
(0.025971489 -0.0011419155 1.0692581e-21 9.429691e-05 -1.0934089e-22 4.3233644e-39)
(0.028708162 -0.0011688187 -1.6096737e-21 9.5356279e-05 1.8642803e-22 1.2233593e-38)
(0.03145165 -0.0011902066 -8.0903301e-22 9.63098e-05 1.0765358e-22 4.5964147e-39)
(1.4217279e-05 -6.5383611e-06 4.1190027e-23 1.683238e-05 -1.4994574e-23 1.4025534e-40)
(7.5540303e-05 -8.4988429e-05 -1.1351453e-21 0.00011227218 8.558841e-22 4.6209614e-38)
(0.00016948426 -0.00019284839 2.2554674e-22 0.00022341302 -1.871036e-22 4.1710836e-39)
(0.00049981844 -0.00039040122 1.1888638e-21 0.00031921395 -7.2475057e-22 2.2260646e-38)
(0.0010491016 -0.00062895733 1.64452e-21 0.00040357488 -7.8124991e-22 2.5169378e-38)
(0.0018221796 -0.00089106452 1.9775492e-22 0.00047628931 -7.7998319e-23 2.3630849e-40)
(0.0028363164 -0.0011666861 -5.2226379e-21 0.00053752754 1.7692914e-21 1.2576307e-37)
(0.004089891 -0.0014460741 -1.7874155e-22 0.00058884647 7.2415384e-23 3.5003633e-41)
(0.0055689527 -0.001721409 2.8861766e-21 0.00063193197 -8.4982284e-22 2.1375006e-38)
(0.007255497 -0.0019869245 -6.8954596e-22 0.00066814491 1.8303001e-22 1.1891703e-39)
(0.0091289445 -0.002238291 -2.5702802e-21 0.0006985524 6.7632857e-22 1.314857e-38)
(0.01116642 -0.0024721873 5.331759e-22 0.0007239894 -1.3028265e-22 5.9915812e-40)
(0.013343523 -0.0026860366 2.2284094e-21 0.00074510465 -4.6993396e-22 1.4162137e-38)
(0.015634995 -0.0028778327 8.8980189e-22 0.00076241704 -2.1232436e-22 1.607844e-39)
(0.018015079 -0.0030460687 1.7173686e-21 0.00077638582 -4.4804087e-22 4.614104e-39)
(0.020457972 -0.0031898097 -1.3224136e-21 0.00078748405 3.2601456e-22 3.9242704e-39)
(0.022938908 -0.0033088119 -1.2174076e-21 0.0007962146 3.0040378e-22 4.2986556e-39)
(0.02543399 -0.0034031798 1.1611777e-21 0.00080300513 -3.4541853e-22 2.4480345e-39)
(0.027913293 -0.0034738981 9.8634414e-22 0.00080834178 -2.9347854e-22 4.3339934e-39)
(0.030339113 -0.0035287465 3.3737676e-22 0.00081263281 -1.0005582e-22 1.8566188e-39)
(1.8285637e-05 -1.678491e-05 3.1700456e-23 4.4945909e-05 -1.561354e-23 7.3529289e-41)
(0.00011413021 -0.00017558845 8.6140914e-22 0.00029965963 -9.221729e-22 1.969164e-38)
(0.00025462235 -0.00038723871 -1.8787465e-22 0.00059544484 2.4187827e-22 1.0306556e-39)
(0.00066294698 -0.00073881769 -1.2889412e-21 0.00085003968 1.0812408e-21 2.4402989e-38)
(0.0012987152 -0.0011519023 4.6526864e-22 0.0010733037 -3.8795335e-22 6.7800922e-40)
(0.0021582087 -0.0015982033 6.0435968e-22 0.0012642945 -4.8839563e-22 3.3588532e-40)
(0.0032516413 -0.0020612311 -7.6565939e-22 0.0014234991 3.9940922e-22 2.1678527e-39)
(0.0045698216 -0.0025253455 -1.9463104e-21 0.0015551014 1.1197291e-21 4.2318402e-39)
(0.0060920689 -0.0029781669 8.4979982e-22 0.0016636079 -4.0431629e-22 1.2013841e-39)
(0.0077943033 -0.0034106063 1.7956288e-21 0.0017526815 -7.2514267e-22 6.856394e-39)
(0.0096501795 -0.0038158609 4.559898e-22 0.0018252124 -3.2761306e-22 2.4607739e-40)
(0.011631296 -0.0041887355 2.1518743e-21 0.0018834635 -6.8184482e-22 1.2756068e-38)
(0.01370794 -0.0045252204 1.7648517e-22 0.0019291822 -6.3260265e-23 5.2565269e-41)
(0.015849705 -0.0048222058 -3.0448336e-21 0.0019637382 9.8551811e-22 2.0439214e-38)
(0.018025765 -0.0050773568 1.9657667e-22 0.0019883107 -1.4469073e-22 1.1194965e-40)
(0.020205395 -0.0052892306 -1.3666489e-21 0.0020040807 3.5254796e-22 7.992666e-39)
(0.022359937 -0.0054575192 -1.8037704e-21 0.0020122888 7.2997703e-22 3.1989244e-39)
(0.024462468 -0.0055825578 2.8192973e-21 0.0020141663 -1.1384238e-21 1.0671504e-38)
(0.026470807 -0.0056662713 1.4104961e-21 0.0020116341 -6.3080832e-22 2.1405551e-39)
(0.028325722 -0.0057243944 2.9040588e-22 0.0020068182 -1.4664867e-22 4.5318716e-41)
(2.695554e-05 -3.4773541e-05 -4.7800211e-23 8.286195e-05 6.0460341e-23 1.0563438e-40)
(0.00018684759 -0.00031149611 -1.9905416e-21 0.00055251688 2.5189188e-21 6.5235153e-38)
(0.0004115979 -0.00066912701 -1.4600198e-22 0.0010960113 1.8759953e-22 8.9325852e-40)
(0.0009469847 -0.001203209 3.2709004e-22 0.0015624786 -3.6221557e-22 5.6415855e-40)
(0.0017205195 -0.0018094482 -5.6549103e-23 0.0019691465 1.6401029e-23 1.4691611e-40)
(0.0027159297 -0.002449415 1.6568252e-21 0.0023133637 -1.2072143e-21 1.0701893e-38)
(0.0039329521 -0.003100393 1.8147311e-21 0.0025960019 -1.174373e-21 9.7144833e-39)
(0.0053516216 -0.0037417026 -5.5455101e-22 0.002824865 2.637501e-22 1.5358698e-39)
(0.0069417671 -0.0043572985 -1.9804467e-21 0.003008363 1.0161881e-21 9.7353194e-39)
(0.008670809 -0.0049354878 -3.8960091e-21 0.0031534157 2.0711596e-21 2.0514362e-38)
(0.010504507 -0.0054675812 -1.0429967e-22 0.0032655547 -4.2561667e-23 4.7297657e-40)
(0.012407131 -0.0059470165 4.8255236e-21 0.0033491507 -2.2015074e-21 3.3566814e-38)
(0.014342194 -0.0063687994 -1.9520316e-21 0.0034075925 7.1379786e-22 9.9744228e-39)
(0.016273124 -0.0067291555 -1.2134512e-21 0.0034435389 5.2172428e-22 1.9539018e-39)
(0.018163515 -0.0070253307 -1.1767019e-22 0.0034592185 1.6632352e-22 4.2532919e-40)
(0.019977731 -0.0072557093 2.7241959e-21 0.0034567557 -1.1941984e-21 7.965678e-39)
(0.02168391 -0.0074202546 -1.4801047e-21 0.0034383 7.7542298e-22 4.9222034e-40)
(0.023254056 -0.0075201259 -3.3262006e-21 0.0034063326 1.4221416e-21 1.7186619e-38)
(0.024636083 -0.0075588231 2.1000088e-21 0.0033661828 -9.5605692e-22 8.6296068e-39)
(0.02575073 -0.0075609819 1.8183894e-21 0.0033251582 -7.5178521e-22 8.070295e-39)
(4.3114499e-05 -6.1963894e-05 2.1393314e-22 0.00012638967 -2.0800722e-22 1.4070226e-39)
(0.00030929102 -0.00050105001 7.297762e-23 0.00084225644 -2.1975523e-23 6.2538031e-40)
(0.00067102887 -0.0010540021 -2.7015232e-21 0.0016663635 3.8841879e-21 5.3286816e-38)
(0.0013930837 -0.0018022927 -1.5518111e-21 0.0023703256 1.6503995e-21 1.6558382e-38)
(0.0023630175 -0.0026201509 1.0459918e-21 0.0029790677 -8.3185143e-22 1.0026654e-38)
(0.003547958 -0.0034593443 1.265359e-21 0.0034871899 -1.0186579e-21 4.7073128e-39)
(0.0049335274 -0.0042911483 -1.6520714e-21 0.0038961229 1.0725596e-21 1.1040449e-38)
(0.0064859213 -0.0050909851 -2.5022141e-21 0.0042180989 1.4215049e-21 2.4228614e-38)
(0.0081629877 -0.0058403819 3.6059889e-21 0.0044663196 -2.1367769e-21 2.4781662e-38)
(0.0099216218 -0.0065261203 1.0555056e-21 0.0046518301 -4.1568491e-22 5.7906201e-39)
(0.011718131 -0.0071385921 -3.0652837e-21 0.0047836405 2.0603447e-21 1.7698159e-39)
(0.013508515 -0.0076708046 1.3807285e-21 0.0048690132 -6.1226219e-22 4.4467608e-39)
(0.015249355 -0.0081177404 0 0.0049137014 0 0)
(0.016898599 -0.0084759287 1.2740249e-21 0.0049222682 -6.1732258e-22 1.7271872e-39)
(0.018416002 -0.0087432044 -9.3534163e-22 0.0048984968 4.4335688e-22 9.213493e-40)
(0.019763923 -0.0089187903 -1.3901946e-21 0.0048458115 7.0623393e-22 1.1034697e-39)
(0.020911369 -0.009003882 4.7330178e-22 0.0047673865 -4.4664107e-22 1.586437e-39)
(0.021835184 -0.009001663 -3.9202214e-22 0.004666998 2.5525752e-22 5.4546043e-41)
(0.02248245 -0.0089185244 1.7889935e-21 0.0045553091 -7.8516706e-22 9.3655184e-39)
(0.022760876 -0.0087866061 -1.4975995e-21 0.0044508249 7.7689028e-22 5.1035689e-40)
(7.0064483e-05 -9.8741539e-05 2.0554299e-22 0.0001712789 -1.7285425e-22 1.1291493e-39)
(0.00049874918 -0.00074507893 9.7180691e-22 0.0011386142 -1.2977305e-21 4.1391333e-39)
(0.0010660451 -0.0015416821 -1.3018364e-21 0.0022435727 1.7349928e-21 1.0029512e-38)
(0.0020436392 -0.0025320289 -2.0947947e-21 0.0031806807 2.3749346e-21 8.3018195e-39)
(0.0032721584 -0.0035732278 -5.4581506e-22 0.0039821965 8.6162544e-22 6.5834401e-39)
(0.004697529 -0.0046072624 -1.8671448e-21 0.0046395225 1.6516409e-21 4.0971978e-39)
(0.0062872568 -0.0055998219 -8.9807293e-22 0.0051552882 5.5090557e-22 4.7844652e-39)
(0.0079908423 -0.0065239973 1.5233124e-21 0.0055469403 -9.1132129e-22 8.8199917e-39)
(0.0097521344 -0.0073606272 3.5615416e-21 0.0058332766 -2.1131768e-21 3.0160454e-38)
(0.011516251 -0.0080966617 1.0665323e-21 0.0060303453 -6.5803691e-22 1.2590105e-39)
(0.013229864 -0.0087232968 -1.0113525e-21 0.0061515295 5.3277432e-22 2.0046569e-39)
(0.01484164 -0.0092348512 -2.187055e-22 0.0062078686 -3.943922e-23 1.7512214e-39)
(0.016303483 -0.0096280825 -4.5821424e-21 0.0062083296 2.5246194e-21 1.6484177e-38)
(0.017571705 -0.009901734 -1.3977002e-21 0.0061601786 7.3577625e-22 1.7060344e-39)
(0.018607826 -0.010056248 2.2605396e-21 0.0060694422 -1.3532118e-21 7.5624213e-40)
(0.019379588 -0.010093727 -2.2187121e-21 0.00594134 1.2355913e-21 1.6445376e-39)
(0.01986562 -0.010018418 -7.6936532e-22 0.0057801592 3.8545023e-22 5.3780918e-40)
(0.020058097 -0.0098371821 1.6799751e-21 0.0055902974 -6.9524219e-22 8.4380782e-39)
(0.019918555 -0.0095609954 2.4245023e-21 0.0053878066 -1.263906e-21 6.3110332e-39)
(0.019352723 -0.0092259642 3.011081e-22 0.0052088182 -1.4394776e-22 1.2373876e-40)
(0.00011124855 -0.00014444746 -5.8022298e-22 0.00021361637 4.7150699e-22 6.6834746e-39)
(0.00077194103 -0.0010368399 -6.4770545e-22 0.0014129565 6.5747798e-22 5.3265527e-39)
(0.001626841 -0.0021156839 1.5291963e-21 0.0027681151 -1.9604156e-21 2.2217117e-39)
(0.002933441 -0.0033642696 2.3801449e-21 0.0039059692 -2.4827337e-21 1.1099428e-38)
(0.0044788698 -0.0046268089 3.1101334e-23 0.0048654805 -2.8155342e-23 2.2133785e-42)
(0.0061825289 -0.0058356931 -6.3922088e-21 0.0056355356 5.3084849e-21 6.5039753e-38)
(0.0079897543 -0.0069521188 -2.4057711e-21 0.0062213225 2.1003601e-21 8.5606157e-40)
(0.0098312198 -0.0079491316 1.9232721e-21 0.0066464481 -1.3019845e-21 7.1504591e-39)
(0.011636287 -0.0088094792 2.1514545e-21 0.0069360592 -1.458275e-21 4.3546979e-39)
(0.013339286 -0.0095229167 -2.127853e-21 0.0071119821 1.181811e-21 1.2013859e-38)
(0.014879821 -0.010084109 -5.9778843e-21 0.0071927666 3.8352169e-21 1.7272947e-38)
(0.016203745 -0.010491427 3.8697334e-21 0.0071939865 -2.3885007e-21 7.0939746e-39)
(0.01726489 -0.010746211 2.2985908e-21 0.0071285368 -1.2019874e-21 8.6015228e-39)
(0.018026682 -0.010852274 -3.0914331e-21 0.0070070342 1.7365951e-21 7.0451388e-39)
(0.018463246 -0.010815539 1.3223406e-21 0.0068382801 -7.8937128e-22 4.6000201e-40)
(0.018560314 -0.010643765 2.1613199e-21 0.0066296237 -1.1326052e-21 5.2575249e-39)
(0.018319371 -0.010346583 8.018701e-22 0.0063864114 -4.7218073e-22 1.725874e-40)
(0.01776101 -0.0099360308 -1.3478394e-21 0.0061124129 8.9306259e-22 2.0337392e-40)
(0.01687854 -0.0094284143 -2.8396242e-22 0.0058262784 7.5307135e-23 1.3123889e-39)
(0.015590381 -0.0088583065 1.7188074e-21 0.0055846444 -1.0551069e-21 4.8540539e-40)
(0.0001699645 -0.00019742329 -1.9624254e-23 0.00024996054 -1.5656433e-23 1.1860889e-40)
(0.0011426262 -0.001362462 -2.2949536e-21 0.001640292 2.4301836e-21 1.7447996e-38)
(0.0023749489 -0.0027443497 -1.8550623e-21 0.0031892898 1.9916118e-21 2.6508341e-38)
(0.0040806907 -0.0042487539 3.3471388e-21 0.0044732115 -3.2328928e-21 1.5377533e-38)
(0.0059873348 -0.0057113602 2.6462728e-21 0.0055370653 -2.6652322e-21 6.3830339e-39)
(0.0079822177 -0.007056117 2.3060442e-21 0.0063692328 -1.9318066e-21 2.5349771e-39)
(0.0099854412 -0.0082421121 -1.8333236e-22 0.0069794992 2.4795661e-22 1.209968e-39)
(0.011909131 -0.0092457551 -2.1165631e-21 0.0073985295 1.4427122e-21 6.971969e-39)
(0.013670739 -0.010055269 -5.7729444e-22 0.0076583788 5.1123509e-22 6.4003344e-40)