/*--------------------------------*- C++ -*----------------------------------*\
  =========                 |
  \\      /  F ield         | OpenFOAM: The Open Source CFD Toolbox
   \\    /   O peration     | Website:  https://openfoam.org
    \\  /    A nd           | Version:  6
     \\/     M anipulation  |
\*---------------------------------------------------------------------------*/
FoamFile
{
    version     2.0;
    format      ascii;
    class       surfaceScalarField;
    location    "195";
    object      phi;
}
// * * * * * * * * * * * * * * * * * * * * * * * * * * * * * * * * * * * * * //

dimensions      [0 3 -1 0 0 0 0];

internalField   nonuniform List<scalar> 
18180
(
0.00031872918
-0.00016315999
-0.00015556919
0.0013092107
-0.0013669157
0.00037643419
0.0030328868
-0.0033336195
0.0016099434
0.0055497721
-0.0059759586
0.0034590732
0.0089181947
-0.0092390789
0.0058706563
0.013192809
-0.013079528
0.0088049143
0.018421937
-0.01745984
0.012230712
0.024644598
-0.022345798
0.016123137
0.031887361
-0.027703315
0.020460551
0.040161269
-0.033495805
0.025221897
0.049459153
-0.039682437
0.030384554
0.059753704
-0.046217208
0.035922656
0.070996712
-0.053048848
0.04180584
0.083119915
-0.060121582
0.04799838
0.096038086
-0.067376836
0.054458664
0.10965487
-0.074755996
0.06113921
0.1238708
-0.082204087
0.067988155
0.13859853
-0.089674071
0.074946343
0.15383663
-0.097148817
0.081910719
-0.10462595
0.088678873
0.16978371
0.00039749698
-0.00056065697
0.0016095943
-0.002579013
0.0036893171
-0.0054133423
0.0066874419
-0.0089740833
0.010650649
-0.013202286
0.015617865
-0.018046745
0.021616253
-0.023458227
0.02865725
-0.029386795
0.036732935
-0.035779
0.045813132
-0.042576003
0.055843675
-0.04971298
0.066746188
-0.057119721
0.078419643
-0.064722303
0.090743758
-0.072445697
0.10358404
-0.08021712
0.11679789
-0.087969842
0.13024076
-0.095646956
0.14377296
-0.10320627
0.15725856
-0.11063442
-0.11786188
0.17049449
0.00048062332
-0.0010412803
0.0019186978
-0.0040170875
0.0043524778
-0.0078471223
0.0078165614
-0.012438167
0.012337661
-0.017723386
0.017929202
-0.023638286
0.024586243
-0.030115267
0.032281202
-0.037081754
0.04096083
-0.044458629
0.050544909
-0.052160082
0.060927054
-0.060095124
0.071977791
-0.068170457
0.083549782
-0.076294294
0.095484794
-0.08438071
0.10762167
-0.092353997
0.11980424
-0.10015241
0.13188799
-0.1077307
0.14374347
-0.11506175
0.1552487
-0.12213964
-0.12891428
0.16630109
0.00056616956
-0.0016074499
0.0022279419
-0.0056788599
0.0050006101
-0.01061979
0.0088940086
-0.016331566
0.013905255
-0.022734632
0.020011877
-0.029744908
0.027166482
-0.037269872
0.035293409
-0.045208682
0.044287848
-0.053453068
0.054017767
-0.061890001
0.064328709
-0.070406066
0.07505112
-0.078892868
0.086009513
-0.087252687
0.097032487
-0.095403684
0.10796245
-0.10328396
0.11866395
-0.11085391
0.12902964
-0.1180964
0.13898297
-0.12501507
0.14847491
-0.13163159
-0.13794519
0.15750582
0.00065088612
-0.002258336
0.0025243412
-0.0075523149
0.0056036334
-0.013699083
0.0098644631
-0.020592395
0.015264609
-0.028134778
0.021736406
-0.036216706
0.029182477
-0.044715943
0.037474889
-0.053501093
0.046457996
-0.062436175
0.05595483
-0.071386835
0.065776424
-0.080227661
0.075733005
-0.088849449
0.085645711
-0.097165393
0.09535739
-0.10511536
0.10474121
-0.11266778
0.11370619
-0.11981889
0.12219936
-0.12658957
0.13020456
-0.13302027
0.137738
-0.13916502
-0.14506756
0.14486038
0.0007306357
-0.0029889717
0.0027920858
-0.009613765
0.0061265733
-0.01703357
0.010666711
-0.025132532
0.016322648
-0.033790715
0.02297524
-0.042869298
0.030474425
-0.052215127
0.038642393
-0.061669062
0.047281182
-0.071074964
0.056183727
-0.08028938
0.06514688
-0.089190813
0.073984593
-0.097687162
0.082539478
-0.10572028
0.090691296
-0.11326718
0.098361451
-0.12033793
0.1055133
-0.12697074
0.11214879
-0.13322507
0.1183024
-0.13917389
0.12403363
-0.14489625
-0.15046329
0.12942935
0.00080073107
-0.0037897027
0.0030139156
-0.01182695
0.0065328934
-0.020552548
0.01124005
-0.029839689
0.016992695
-0.03954336
0.023618542
-0.049495145
0.030918211
-0.059514797
0.038673314
-0.069424164
0.046658768
-0.079060418
0.054657393
-0.088288005
0.062474455
-0.097007875
0.069949952
-0.10516266
0.076966961
-0.11273729
0.0834551
-0.11975532
0.089389111
-0.12627195
0.094783317
-0.13236495
0.099683309
-0.13812506
0.1041565
-0.14364708
0.10828311
-0.14902286
-0.15433356
0.11215338
0.00085605858
-0.0046457613
0.0031720602
-0.014142951
0.0067872249
-0.024167713
0.011529801
-0.034582265
0.017203432
-0.045216991
0.023586546
-0.05587826
0.030439872
-0.066368123
0.037519325
-0.076503618
0.044591796
-0.086132889
0.051451002
-0.09514721
0.057930631
-0.1034875
0.063912776
-0.1111448
0.069330645
-0.11815516
0.074165695
-0.12459037
0.078440258
-0.13054651
0.08220734
-0.13613203
0.085539506
-0.14145722
0.088518566
-0.14662614
0.091227364
-0.15173165
-0.15685204
0.093745849
0.00089026224
-0.0055360236
0.0032482828
-0.016500972
0.0068576213
-0.027777051
0.011492463
-0.039217107
0.016906808
-0.050631335
0.022838893
-0.061810345
0.029023668
-0.072552898
0.035209249
-0.082689199
0.041173927
-0.092097568
0.046740396
-0.10071368
0.051784656
-0.10853176
0.056238409
-0.11559856
0.060085141
-0.12200189
0.06335125
-0.12785648
0.066094217
-0.13328948
0.06839006
-0.13842787
0.070321928
-0.14338909
0.071971241
-0.14827545
0.073411931
-0.15317234
-0.1581477
0.074707584
0.00089981813
-0.0064358417
0.0032333801
-0.018834534
0.0067291633
-0.031272834
0.011111175
-0.043599119
0.016092484
-0.055612644
0.021384621
-0.067102483
0.026713883
-0.07788216
0.031839115
-0.087814431
0.036567086
-0.096825538
0.040762272
-0.10490887
0.044349475
-0.11211897
0.047309351
-0.11855843
0.049668408
-0.12436094
0.051485816
-0.12967389
0.052839528
-0.13464319
0.053813822
-0.13940216
0.054489713
-0.14406498
0.054938822
-0.14872456
0.05522055
-0.15345407
0.055380985
-0.15830813
-0.00020237822
0.00020237823
-1.0094075e-11
-0.0006777463
0.0004753681
-1.4899268e-11
-0.0013424254
0.00066467915
-1.4173624e-11
-0.0021322936
0.00078986817
-1.3209777e-11
-0.0029957723
0.00086347874
-1.2820927e-11
-0.0038907393
0.000894967
-1.2431672e-11
-0.0047822946
0.0008915553
-1.1632282e-11
-0.0056408916
0.00085859699
-1.0446934e-11
-0.0064408664
0.00079997487
-8.8653362e-12
-0.0071592873
0.00071842084
-7.0358728e-12
-0.0077750356
0.00061574838
-4.9318638e-12
-0.0082680714
0.00049303573
-2.6631684e-12
-0.0086188528
0.00035078142
-2.1845467e-13
-0.0088079035
0.00018905067
2.3357347e-12
-0.0088155569
7.6534468e-06
5.0378445e-12
-0.0086219805
-0.00019357644
7.829754e-12
-0.008207439
-0.00041454145
1.0682069e-11
-0.0075518898
-0.00065554929
1.343447e-11
-0.0066345764
-0.00091731337
1.6010488e-11
-0.0011862301
-0.0054483463
1.8307288e-11
-0.00018797444
0.00039035267
-0.00062500694
0.0009124006
-0.0012287531
0.0012684253
-0.0019351943
0.0014963094
-0.002692139
0.0016204234
-0.0034562838
0.0016591118
-0.0041910669
0.0016263384
-0.0048648587
0.0015323887
-0.0054495239
0.0013846401
-0.0059192868
0.0011881838
-0.0062498157
0.00094627723
-0.0064174807
0.00066070078
-0.0063987497
0.00033205034
-0.0061697083
-3.9990654e-05
-0.0057057359
-0.00045631902
-0.0049814243
-0.000917888
-0.0039707946
-0.0014251712
-0.0026472172
-0.0019791267
-0.00098326233
-0.0025812682
-0.00320178
0.0010322875
-0.00015892783
0.00054928051
-0.00051889139
0.0012723642
-0.0010007699
0.0017503038
-0.0015412593
0.0020367988
-0.0020873498
0.0021665139
-0.0025937351
0.0021654972
-0.0030208683
0.0020534715
-0.0033332938
0.0018448142
-0.0034983025
0.0015496488
-0.0034848554
0.0011747367
-0.0032626997
0.00072412153
-0.0028016491
0.00019965017
-0.00207095
-0.00039864876
-0.0010387676
-0.001072173
0.00032824315
-0.0018233298
0.0020652147
-0.0026548596
0.0042090261
-0.0035689826
0.006797997
-0.0045680976
0.0098718189
-0.0056550901
-0.0067797331
0.013449772
-0.00011756694
0.00066684744
-0.00036699849
0.0015217957
-0.00067351357
0.0020568189
-0.00097482556
0.0023381107
-0.0012168539
0.0024085423
-0.0013515942
0.0023002374
-0.0013354601
0.0020373374
-0.0011278292
0.0016371833
-0.00068984626
0.0011116659
1.6528776e-05
0.00046836164
0.0010293052
-0.00028865487
0.0023871082
-0.0011581528
0.0041297243
-0.0021412649
0.0062985826
-0.0032410314
0.0089372615
-0.0044620087
0.012092045
-0.0058096426
0.015812295
-0.0072892335
0.020150158
-0.0089059599
0.025160342
-0.010665274
-0.012492609
0.030873217
-6.6907631e-05
0.00073375507
-0.0001791665
0.0016340546
-0.00026653383
0.0021441862
-0.00026769154
0.0023392685
-0.00012719445
0.0022680452
0.00020616651
0.0019668765
0.00078069288
0.001462811
0.001642948
0.00077492816
0.0028387269
-8.411302e-05
0.004413842
-0.0011067534
0.0064146865
-0.0022894994
0.0088886511
-0.0036321174
0.011884449
-0.005137063
0.015452447
-0.006809029
0.019645036
-0.0086545982
0.024517257
-0.010681863
0.030127672
-0.012899649
0.036538879
-0.015317167
0.043818277
-0.017944672
-0.020682525
0.052008193
-9.9846299e-06
0.0007437397
3.4534949e-05
0.001589535
0.00019989009
0.0019788311
0.00054676554
0.001992393
0.0011322467
0.001682564
0.0020109804
0.0010881428
0.0032361388
0.00023765267
0.0048603024
-0.00084923545
0.0069361178
-0.0021599284
0.0095166717
-0.0036873074
0.0126557
-0.0054285275
0.016407691
-0.0073841085
0.020827814
-0.0095571858
0.025971756
-0.011952971
0.031895625
-0.014578468
0.03865625
-0.017442488
0.046312363
-0.020555762
0.054926663
-0.023931467
0.064569646
-0.027587654
-0.031405576
0.075292697
5.0751285e-05
0.00069298842
0.00026565765
0.0013746286
0.0007082541
0.0015362346
0.0014390298
0.0012616173
0.0025168194
0.00060477443
0.0039995649
-0.00039460275
0.0059449121
-0.0017076946
0.0084105997
-0.003314923
0.011454589
-0.005203918
0.015135035
-0.0073677527
0.019510013
-0.0098035063
0.024637
-0.012511095
0.030572129
-0.015492315
0.0373693
-0.018750142
0.045079239
-0.022288407
0.053748959
-0.026112208
0.06342257
-0.030229373
0.074144672
-0.034653569
0.085969298
-0.03941228
-0.044388481
0.098952203
0.00011379626
0.00057919215
0.00050850323
0.00097992165
0.0012459819
0.00079875597
0.0023867768
0.00012082246
0.0039912394
-0.00099968824
0.0061198738
-0.0025232371
0.0088333165
-0.0044211373
0.012192161
-0.0066737673
0.016256551
-0.0092683081
0.021085437
-0.012196639
0.026735537
-0.015453606
0.033260009
-0.019035568
0.040706868
-0.022939174
0.049117172
-0.027160446
0.058523131
-0.031694366
0.068946479
-0.036535556
0.080398295
-0.041681189
0.092882118
-0.047137393
0.10640545
-0.052935614
-0.058995646
0.12101262
0.00017849576
0.00040069639
0.00076002967
0.00039838775
0.0018053384
-0.00024655273
0.0033747127
-0.0014485519
0.0055289938
-0.0031539693
0.0083293168
-0.0053235601
0.011836486
-0.0079283069
0.016110054
-0.010947335
0.021207036
-0.014365291
0.027180295
-0.018169898
0.034076607
-0.022349918
0.041934465
-0.026893425
0.050781646
-0.031786354
0.060632576
-0.037011376
0.071485479
-0.042547269
0.083319367
-0.048369445
0.096091835
-0.054453657
0.1097404
-0.060785955
0.12419597
-0.067391187
-0.074274594
0.13947492
0.0002451272
0.0010199491
0.0023833398
0.0043938612
0.0071105481
0.010591902
0.014894308
0.02007011
0.026165371
0.033217371
0.041252006
0.050281237
0.060300722
0.071287726
0.083199121
0.095968887
0.10950339
0.12366377
0.13818331
0.15258759
-0.0035077215
-0.0019406248
2.7521536e-11
-0.0012859372
-0.0022217843
3.0432771e-11
0.0011946712
-0.0024806085
3.4389694e-11
0.0038772048
-0.0026825336
3.8524278e-11
0.0067348597
-0.002857655
4.3788109e-11
0.0097503301
-0.0030154704
4.6180677e-11
0.012904681
-0.0031543512
4.8251379e-11
0.01617989
-0.0032752093
4.8351904e-11
0.019560256
-0.003380366
4.7075277e-11
0.02303156
-0.0034713038
4.4425805e-11
0.026580515
-0.0035489551
3.9878323e-11
0.030194697
-0.0036141816
3.3102605e-11
0.033862462
-0.0036677649
2.3834496e-11
0.037572813
-0.0037103518
1.2090168e-11
0.041315301
-0.0037424872
-2.1321543e-12
0.045079951
-0.0037646506
-1.8549015e-11
0.048857225
-0.0037772733
-3.6861131e-11
0.052637977
-0.0037807519
-5.6373876e-11
0.05641344
-0.0037754629
-7.6334794e-11
0.060175214
-0.0037617741
-9.5618964e-11
0.063915267
-0.0037400534
-1.1312034e-10
0.067625942
-0.003710675
-1.2747411e-10
0.071299966
-0.0036740233
-1.3748975e-10
0.074930461
-0.0036304954
-1.4190808e-10
0.078510962
-0.0035805005
-1.3987196e-10
0.082035422
-0.0035244596
-1.3068869e-10
0.085498225
-0.0034628028
-1.1430033e-10
0.088894191
-0.0033959665
-9.1003306e-11
0.092218581
-0.0033243899
-6.1889014e-11
0.095467092
-0.0032485109
-2.8456595e-11
0.098635856
-0.0031687638
6.9899166e-12
0.10172143
-0.0030855747
4.1949994e-11
0.10472079
-0.0029993592
7.3364174e-11
0.10763131
-0.0029105207
9.8565842e-11
0.11045076
-0.0028194486
1.147716e-10
0.11317728
-0.0027265184
1.204666e-10
0.11580937
-0.0026320926
1.1436029e-10
0.11834589
-0.0025365233
9.7291286e-11
0.12078605
-0.0024401596
7.002699e-11
0.1231294
-0.0023433477
3.5930277e-11
0.12537587
-0.0022464734
-1.9282533e-12
0.12752576
-0.0021498881
-3.862611e-11
0.12958004
-0.0020542812
-7.0505104e-11
0.13153968
-0.0019596415
-9.3046971e-11
0.13340877
-0.0018690893
-1.0211136e-10
0.13518582
-0.0017770462
-9.5288808e-11
0.13689527
-0.0017094503
-7.1270776e-11
0.13849298
-0.0015977106
-3.4343747e-11
0.14017976
-0.0016867826
1.6611301e-11
-0.0013309826
7.2020531e-11
0.0028528994
-0.0037612367
0.0049500419
-0.0043189269
0.0072928965
-0.0048234631
0.0098190211
-0.0052086582
0.012507354
-0.0055459883
0.015345571
-0.0058536871
0.01831693
-0.0061257103
0.021405025
-0.0063633042
0.024595837
-0.0065711778
0.027876603
-0.0067520699
0.031235191
-0.0069075436
0.034660121
-0.0070391112
0.038140535
-0.0071481787
0.041666087
-0.0072359035
0.045226858
-0.0073032587
0.048813316
-0.0073511086
0.052416281
-0.0073802386
0.056026909
-0.0073913795
0.059636679
-0.0073852331
0.063237398
-0.0073624934
0.066821207
-0.0073238619
0.07038059
-0.0072700584
0.073908395
-0.0072018279
0.077397843
-0.0071199433
0.080842548
-0.0070252055
0.084236528
-0.0069184399
0.087574217
-0.006800492
0.090850472
-0.0066722213
0.094060576
-0.0065344936
0.097200239
-0.006388174
0.1002656
-0.0062341199
0.10325319
-0.006073174
0.10615999
-0.0059061589
0.10898335
-0.0057338733
0.11172099
-0.0055570887
0.11437102
-0.00537655
0.1169319
-0.0051929772
0.11940245
-0.0050070699
0.12178181
-0.0048195229
0.12406949
-0.0046310252
0.12626537
-0.0044423479
0.12836967
-0.0042541912
0.13038332
-0.004067932
0.13230723
-0.0038835514
0.1341454
-0.003707258
0.13589635
-0.0035279942
0.13758405
-0.003397159
0.13916542
-0.0031790791
0.14083606
-0.0033574179
-0.0026595108
0.015021105
-0.0053325694
0.016852201
-0.0061500227
0.018905733
-0.0068769951
0.021111773
-0.0074146983
0.023458687
-0.0078929022
0.025942821
-0.0083378219
0.028551559
-0.0087344476
0.031271419
-0.009083164
0.0340913
-0.0093910594
0.037000974
-0.0096617434
0.039990318
-0.0098968882
0.043049474
-0.010098266
0.046168915
-0.01026762
0.049339386
-0.010406375
0.052551859
-0.010515731
0.055797521
-0.010596771
0.059067783
-0.0106505
0.062354281
-0.010677878
0.065648894
-0.010679846
0.068943757
-0.010657356
0.07223128
-0.010611386
0.075504178
-0.010542956
0.078755483
-0.010453134
0.081978576
-0.010343036
0.085167198
-0.010213827
0.08831547
-0.010066712
0.091417907
-0.0099029294
0.094469428
-0.0097237419
0.097465357
-0.0095304225
0.10040143
-0.0093242471
0.10327379
-0.0091064791
0.10607898
-0.0088783635
0.10881394
-0.0086411163
0.11147598
-0.0083959188
0.11406281
-0.0081439144
0.11657246
-0.0078862073
0.11900335
-0.0076238668
0.12135422
-0.0073579338
0.12362414
-0.0070894428
0.12581254
-0.0068194231
0.12791921
-0.0065490267
0.12994433
-0.0062793032
0.1318887
-0.0060123098
0.13375319
-0.0057480362
0.13554163
-0.0054956955
0.13725263
-0.0052389968
0.13890921
-0.0050537416
0.14047061
-0.004740473
0.1421218
-0.0050086139
-0.0039962765
0.032056504
-0.0065158561
0.033471697
-0.007565215
0.035077195
-0.0084824935
0.036800023
-0.0091375263
0.038640866
-0.0097337455
0.040606022
-0.010302978
0.042688318
-0.010816744
0.044878233
-0.011273078
0.047168188
-0.011681015
0.049550957
-0.012044512
0.052018832
-0.012364763
0.054563856
-0.01264329
0.057178018
-0.012881782
0.059853276
-0.013081633
0.062581568
-0.013244023
0.065354849
-0.013370052
0.068165138
-0.013460789
0.071004558
-0.013517298
0.073865375
-0.013540663
0.076740037
-0.013532018
0.079621213
-0.013492561
0.082501822
-0.013423565
0.085375069
-0.013326381
0.088234471
-0.013202439
0.091073885
-0.013053241
0.093887522
-0.012880349
0.096669968
-0.012685376
0.099416194
-0.012469967
0.10212156
-0.012235788
0.10478182
-0.011984508
0.10739313
-0.011717783
0.10995201
-0.011437247
0.11245539
-0.011144494
0.11490055
-0.01084108
0.11728514
-0.010528507
0.11960716
-0.010208231
0.12186496
-0.0098816638
0.12405721
-0.0095501801
0.12618291
-0.0092151502
0.12824143
-0.0088779406
0.13023249
-0.0085400825
0.13215616
-0.0082029751
0.1340132
-0.0078693479
0.13580439
-0.0075392231
0.13753339
-0.0072246956
0.139199
-0.006904608
0.14082286
-0.0066776014
0.14236767
-0.0062852873
0.14400316
-0.0066441004
-0.0053571732
0.052648481
-0.0071561436
0.053489061
-0.008405795
0.054483168
-0.0094766008
0.055565115
-0.010219473
0.056749718
-0.010918349
0.058051271
-0.011604531
0.059468286
-0.012233758
0.060995893
-0.012800686
0.062629883
-0.013315005
0.064365657
-0.013780287
0.066197695
-0.014196801
0.068119728
-0.014565323
0.07012499
-0.014887044
0.07220638
-0.015163024
0.074356551
-0.015394194
0.076567989
-0.01558149
0.078833103
-0.015725903
0.081144298
-0.015828493
0.083494045
-0.015890411
0.085874942
-0.015912916
0.088279763
-0.015897382
0.090701505
-0.015845306
0.093133428
-0.015758304
0.095569091
-0.015638102
0.098002379
-0.015486529
0.10042753
-0.015305495
0.10283913
-0.015096978
0.10523216
-0.014863003
0.107602
-0.014605621
0.10994437
-0.014326887
0.11225544
-0.014028847
0.11453171
-0.013713514
0.11677008
-0.013382863
0.11896781
-0.013038811
0.12112252
-0.01268322
0.12323218
-0.012317894
0.1252951
-0.01194458
0.12730991
-0.011564988
0.12927558
-0.011180824
0.13119143
-0.01079379
0.13305714
-0.010405798
0.13487277
-0.0100186
0.13663901
-0.0096355897
0.13835664
-0.0092568534
0.14002916
-0.0088972127
0.14165566
-0.0085311073
0.1432561
-0.0082780449
0.14479762
-0.0078268081
0.14643103
-0.0082775083
-0.0067654402
0.075221674
-0.0070851202
0.075326626
-0.0085107469
0.075550984
-0.009700959
0.075851264
-0.010519753
0.076255501
-0.011322586
0.076780548
-0.012129578
0.07742944
-0.012882651
0.078202107
-0.013573353
0.079096858
-0.014209755
0.080110543
-0.014793972
0.081238921
-0.015325178
0.082476693
-0.015803096
0.083817677
-0.016228028
0.085255092
-0.016600439
0.086781762
-0.016920863
0.088390233
-0.017189962
0.090072888
-0.017408558
0.091822048
-0.017577652
0.093630069
-0.017698432
0.095489413
-0.01777226
0.097392715
-0.017800683
0.099332831
-0.017785422
0.10130289
-0.017728365
0.10329634
-0.017631546
0.10530694
-0.017497134
0.10732885
-0.017327399
0.10935657
-0.017124702
0.11138502
-0.016891455
0.11340951
-0.01663011
0.11542574
-0.01634312
0.11742982
-0.016032926
0.11941824
-0.015701937
0.12138789
-0.015352507
0.12333601
-0.014986929
0.12526021
-0.014607427
0.12715848
-0.014216157
0.12902911
-0.013815212
0.13087076
-0.013406642
0.13268243
-0.01299249
0.13446344
-0.012574805
0.13621353
-0.012155882
0.13793276
-0.011737837
0.13962189
-0.011324715
0.14128175
-0.010916711
0.14291573
-0.010531193
0.14452335
-0.010138726
0.14612272
-0.0098774171
0.14768613
-0.0093902236
0.14934305
-0.0099344205
-0.0082531907
0.098025202
-0.0061581192
0.097257921
-0.0077434665
0.096581623
-0.0090246605
0.095997178
-0.0099353084
0.095540715
-0.010866123
0.095223466
-0.011812328
0.095050798
-0.012709983
0.095026714
-0.013549269
0.095150746
-0.014333788
0.09541963
-0.015062856
0.095829005
-0.015734553
0.096373462
-0.016347552
0.097046515
-0.016901081
0.097840931
-0.017394855
0.098749028
-0.01782896
0.099762832
-0.018203766
0.10087421
-0.018519934
0.10207497
-0.018778418
0.103357
-0.018980457
0.10471229
-0.019127555
0.10613308
-0.019221464
0.10761182
-0.019264169
0.10914133
-0.019257869
0.11071473
-0.019204946
0.11232554
-0.019107946
0.11396768
-0.018969544
0.11563549
-0.018792513
0.11732373
-0.018579694
0.11902759
-0.018333969
0.12074269
-0.018058218
0.12246507
-0.017755311
0.12419121
-0.01742807
0.12591796
-0.017079257
0.12764259
-0.016711561
0.12936275
-0.016327589
0.13107646
-0.015929865
0.13278209
-0.015520846
0.13447839
-0.015102933
0.13616442
-0.014678528
0.13783965
-0.014250033
0.13950391
-0.013820143
0.14115742
-0.013391348
0.14280106
-0.012968347
0.14443582
-0.012551478
0.14606511
-0.012160478
0.14768897
-0.011762591
0.14932364
-0.011512083
0.15094703
-0.01101361
0.15266603
-0.011653426
-0.009862184
0.11918897
-0.0043344722
0.11749636
-0.0060508591
0.11585684
-0.0073851387
0.11435431
-0.0084327755
0.113025
-0.0095368174
0.11186643
-0.01065376
0.11088407
-0.011727618
0.11008419
-0.012749389
0.10946621
-0.013715804
0.10902552
-0.014622173
0.10875633
-0.015465361
0.10865197
-0.016243187
0.10870483
-0.016953949
0.10890662
-0.017596645
0.10924861
-0.018170946
0.10972185
-0.018677009
0.11031732
-0.019115404
0.11102601
-0.019487109
0.11183904
-0.019793486
0.11274773
-0.020036241
0.11374367
-0.020217401
0.11481877
-0.020339275
0.11596534
-0.020404438
0.11717608
-0.02041568
0.11844412
-0.020375986
0.11976306
-0.020288487
0.12112698
-0.020156429
0.12253041
-0.019983131
0.1239684
-0.019771952
0.12543643
-0.019526254
0.12693049
-0.019249371
0.12844701
-0.018944585
0.12998285
-0.018615105
0.13153534
-0.018264046
0.13310218
-0.017894434
0.13468151
-0.017509192
0.13627183
-0.017111165
0.13787203
-0.016703137
0.13948139
-0.016287884
0.14109955
-0.015868192
0.14272657
-0.01544717
0.14436293
-0.015027704
0.14600973
-0.014615148
0.14766828
-0.014210028
0.14934207
-0.01383427
0.15103183
-0.013452351
0.15275194
-0.013232193
0.1544862
-0.01274787
0.15631883
-0.013486051
-0.011643768
0.13689595
-0.0017555007
0.13437798
-0.0035328966
0.13181941
-0.0048265683
0.12946235
-0.0060757075
0.12733399
-0.0074084592
0.12541571
-0.0087354857
0.12371035
-0.010022258
0.122223
-0.011262032
0.12095209
-0.012444899
0.11989187
-0.013561949
0.11903482
-0.01460831
0.11837259
-0.015580964
0.1178962
-0.016477558
0.11759611
-0.017296558
0.11746247
-0.018037298
0.11748524
-0.018699785
0.11765443
-0.019284588
0.1179601
-0.019792782
0.11839253
-0.020225917
0.11894226
-0.020585973
0.11960018
-0.020875313
0.12035754
-0.021096644
0.12120609
-0.021252979
0.12213799
-0.021347586
0.12314596
-0.021383952
0.1242232
-0.021365734
0.12536349
-0.021296713
0.12656111
-0.021180751
0.1278109
-0.021021746
0.12910825
-0.020823597
0.13044904
-0.020590163
0.13182969
-0.020325239
0.13324711
-0.020032526
0.13469869
-0.019715619
0.13618225
-0.019378
0.1376961
-0.019023038
0.13923894
-0.018654004
0.1408099
-0.018274094
0.14240851
-0.017886499
0.14403473
-0.017494413
0.14568895
-0.017101387
0.14737197
-0.016710729
0.14908528
-0.01632846
0.15083059
-0.015955334
0.15261162
-0.0156153
0.15442987
-0.015270603
0.156298
-0.015100319
0.1582058
-0.014655673
0.16021524
-0.01549549
-0.013657983
0.15005209
0.00078000085
0.14676314
-0.00024395089
0.1434658
-0.0015292297
0.14041802
-0.0030279286
0.13762313
-0.0046135654
0.13507486
-0.0061872213
0.13277506
-0.0077224589
0.13072381
-0.0092107815
0.12891867
-0.01063976
0.12735444
-0.011997718
0.1260233
-0.013277163
0.12491583
-0.014473495
0.12402186
-0.015583589
0.12333073
-0.016605431
0.12283146
-0.017538029
0.12251294
-0.018381264
0.12236409
-0.019135741
0.12237401
-0.019802696
0.12253202
-0.020383933
0.12282782
-0.02088177
0.12325149
-0.02129898
0.12379358
-0.021638738
0.12444517
-0.021904569
0.12519788
-0.022100296
0.12604392
-0.022229988
0.12697608
-0.022297899
0.12798779
-0.022308424
0.12907308
-0.022266041
0.1302266
-0.022175262
0.13144359
-0.022040591
0.13271991
-0.02186648
0.13405197
-0.021657298
0.13543674
-0.021417304
0.13687175
-0.021150627
0.13835501
-0.020861261
0.13988504
-0.020553064
0.14146081
-0.02022978
0.14308178
-0.019895062
0.14474784
-0.019552552
0.14645931
-0.019205884
0.14821701
-0.018859089
0.1500222
-0.018515916
0.15187682
-0.01818308
0.15378305
-0.017861572
0.15574504
-0.017577282
0.15776495
-0.017290514
0.15985432
-0.01718969
0.16200739
-0.01680875
0.16426891
-0.017757007
-0.015969797
0.18890877
0.0053821032
-0.19351087
0.18509873
0.0035660873
0.1817067
0.0018628052
0.17856157
0.00011719757
0.17562601
-0.0016780057
0.17287499
-0.0034361955
0.17029027
-0.0051377425
0.16786287
-0.0067833811
0.1655889
-0.0083657944
0.16346622
-0.0098750327
0.16149295
-0.011303897
0.15966699
-0.012647538
0.1579857
-0.013902298
0.15644579
-0.015065515
0.15504333
-0.016135567
0.15377385
-0.017111788
0.15263243
-0.017994324
0.15161378
-0.018784042
0.15071231
-0.019482466
0.14992226
-0.020091714
0.14923771
-0.020614436
0.14865273
-0.021053754
0.14816136
-0.021413202
0.14775773
-0.021696666
0.14743607
-0.021908325
0.14719076
-0.022052586
0.14701636
-0.022134028
0.14690766
-0.022157345
0.14685969
-0.022127286
0.1468677
-0.022048608
0.14692726
-0.021926034
0.14703417
-0.021764208
0.14718453
-0.02156767
0.14737474
-0.021340835
0.14760147
-0.021087982
0.14786166
-0.020813256
0.14815256
-0.020520684
0.14847171
-0.020214207
0.14881691
-0.019897757
0.1491863
-0.019575267
0.1495783
-0.019251093
0.14999168
-0.0189293
0.15042568
-0.018617078
0.15087977
-0.018315659
0.15135456
-0.018052073
0.15184991
-0.017785859
0.15237028
-0.017710067
0.15291139
-0.017349854
0.15349618
-0.0183418
-0.016562387
0.21685766
0.0087804354
-0.22025599
0.21338377
0.0070399758
0.21017096
0.0050756187
0.20706564
0.003222512
0.20401905
0.0013685916
0.20106212
-0.00047927342
0.19821176
-0.0022873788
0.19547247
-0.0040440885
0.19285015
-0.0057434732
0.19035163
-0.0073765147
0.18798211
-0.0089343822
0.185745
-0.010410422
0.18364228
-0.011799578
0.18167465
-0.013097889
0.17984158
-0.014302499
0.17814145
-0.015411653
0.1765717
-0.016424576
0.17512903
-0.017341366
0.17380947
-0.01816291
0.17260858
-0.018890823
0.17152151
-0.019527364
0.17054312
-0.02007537
0.1696681
-0.020538183
0.16889102
-0.020919579
0.16820639
-0.021223701
0.16760879
-0.021454984
0.16709285
-0.021618091
0.16665335
-0.021717842
0.16628522
-0.021759158
0.16598361
-0.021746997
0.16574389
-0.021686307
0.16556166
-0.02158198
0.16543281
-0.021438819
0.16535348
-0.021261511
0.16532012
-0.021054615
0.16532942
-0.020822562
0.16537841
-0.02056967
0.16546437
-0.020300173
0.16558492
-0.020018306
0.16573797
-0.019728311
0.16592175
-0.019434878
0.16613488
-0.019142429
0.16637635
-0.018858544
0.16664565
-0.018584965
0.16694264
-0.018349066
0.16726856
-0.01811177
0.1676226
-0.018064114
0.16801309
-0.017740342
0.16842197
-0.018750679
-0.017036174
0.24376658
0.01150439
-0.24649054
0.24091614
0.0098904146
0.23806293
0.0079288302
0.23521597
0.0060694753
0.23233816
0.0042463957
0.22945034
0.0024085482
0.22658372
0.00057924015
0.2237576
-0.0012179689
0.2209879
-0.0029737705
0.21829055
-0.0046791649
0.21567941
-0.0063232436
0.21316549
-0.0078964942
0.21075738
-0.0093914716
0.20846165
-0.010802163
0.20628294
-0.012123785
0.20422412
-0.013352833
0.20228655
-0.014487005
0.20047026
-0.015525083
0.19877419
-0.016466832
0.19719628
-0.017312918
0.19573373
-0.018064817
0.1943831
-0.018724733
0.19314042
-0.019295506
0.19200138
-0.019780536
0.19096137
-0.020183692
0.19001562
-0.020509237
0.18915927
-0.020761742
0.18838744
-0.020946012
0.1876953
-0.021067014
0.18707811
-0.021129809
0.18653129
-0.02113949
0.18605045
-0.021101134
0.18563139
-0.021019758
0.18527016
-0.020900288
0.18496308
-0.020747538
0.18470673
-0.020566211
0.18449797
-0.020360907
0.18433395
-0.020136157
0.18421215
-0.019896497
0.18413033
-0.019646494
0.18408662
-0.019391165
0.18407952
-0.019135331
0.18410785
-0.018886873
0.18417119
-0.018648308
0.18426864
-0.01844652
0.18440292
-0.018246048
0.18456763
-0.018228818
0.18478464
-0.01795736
0.18499007
-0.018956105
-0.017368703
0.26927435
0.013537343
-0.27130731
0.26710631
0.012058459
0.26476455
0.010270592
0.26232532
0.0085087017
0.25979657
0.0067751467
0.25718847
0.0050166442
0.25452715
0.0032405589
0.25183678
0.0014724002
0.24913736
-0.00027434904
0.24644869
-0.0019904959
0.24379007
-0.0036646171
0.24117862
-0.0052850456
0.23862907
-0.0068419276
0.23615392
-0.0083270125
0.23376346
-0.0097333243
0.23146585
-0.011055222
0.22926727
-0.012288426
0.22717212
-0.013429933
0.2251832
-0.014477912
0.22330191
-0.015431621
0.22152841
-0.016291318
0.21986184
-0.017058164
0.21830046
-0.017734125
0.2168418
-0.018321879
0.21548283
-0.018824719
0.21422005
-0.019246457
0.21304964
-0.019591333
0.21196755
-0.019863927
0.21096961
-0.02006907
0.21005157
-0.020211772
0.20920923
-0.020297144
0.20843843
-0.020330341
0.20773519
-0.020316509
0.20709564
-0.020260745
0.20651618
-0.020168071
0.20599339
-0.020043421
0.20552414
-0.019891657
0.20510556
-0.019717584
0.2047351
-0.019526037
0.20441051
-0.019321904
0.20412987
-0.019110524
0.20389168
-0.01889714
0.20369467
-0.018689863
0.20353854
-0.018492177
0.20342181
-0.018329792
0.2033484
-0.018172635
0.20330711
-0.018187535
0.20333118
-0.017981427
0.20331539
-0.018940317
-0.017537794
0.29298513
0.014868484
-0.29431627
0.29150588
0.013537702
0.28978339
0.011993085
0.28788476
0.010407336
0.28584484
0.0088150577
0.28367447
0.0071870165
0.28139205
0.0055229812
0.27902082
0.0038436295
0.27658209
0.0021643848
0.27409601
0.00049558038
0.27158279
-0.001151399
0.26906216
-0.0027644101
0.26655243
-0.0043321982
0.2640702
-0.0058447809
0.2616302
-0.0072933296
0.25924521
-0.0086702285
0.25692598
-0.0099691953
0.25468133
-0.011185282
0.25251824
-0.012314823
0.25044199
-0.013355369
0.24845629
-0.014305623
0.24656348
-0.015165356
0.24476466
-0.015935306
0.24305987
-0.016617088
0.24144824
-0.01721309
0.23992816
-0.017726372
0.23849739
-0.018160561
0.23715321
-0.018519754
0.23589257
-0.018808425
0.23471212
-0.019031328
0.2336084
-0.01919342
0.23257785
-0.019299788
0.23161692
-0.019355581
0.23072214
-0.019365966
0.22989016
-0.019336089
0.22911779
-0.019271056
0.22840207
-0.019175936
0.22774027
-0.01905578
0.22712992
-0.018915693
0.22656889
-0.018760873
0.22605533
-0.018596964
0.22558783
-0.018429639
0.22516515
-0.018267181
0.22478713
-0.018114157
0.22445194
-0.0179946
0.22416432
-0.017885019
0.22390945
-0.017932662