/*--------------------------------*- C++ -*----------------------------------*\
  =========                 |
  \\      /  F ield         | OpenFOAM: The Open Source CFD Toolbox
   \\    /   O peration     | Website:  https://openfoam.org
    \\  /    A nd           | Version:  6
     \\/     M anipulation  |
\*---------------------------------------------------------------------------*/
FoamFile
{
    version     2.0;
    format      ascii;
    class       volVectorField;
    location    "195";
    object      U;
}
// * * * * * * * * * * * * * * * * * * * * * * * * * * * * * * * * * * * * * //

dimensions      [0 1 -1 0 0 0 0];

internalField   nonuniform List<vector> 
9200
(
(0.0010393467 0.001419982 -5.9201845e-20)
(0.01367607 -0.0020583678 4.6042536e-20)
(0.038313172 -0.0058665701 -3.8501739e-20)
(0.072274447 -0.0097635081 -6.0257752e-20)
(0.11376476 -0.013490033 1.8826965e-20)
(0.16158091 -0.016605663 3.2743881e-20)
(0.21467151 -0.018817291 -1.2268009e-20)
(0.27206611 -0.019973897 9.2688622e-21)
(0.33285626 -0.020011231 1.6803427e-20)
(0.39616352 -0.01892906 1.4848073e-21)
(0.46111561 -0.016779825 -2.1456337e-20)
(0.52683693 -0.013657741 2.0670005e-20)
(0.59245074 -0.0096880078 -4.042215e-20)
(0.65709138 -0.0050157861 -2.1133903e-20)
(0.71992479 0.00020555182 5.904653e-21)
(0.78017509 0.0058240854 -2.5131676e-20)
(0.83717067 0.011712803 2.5217114e-20)
(0.89046884 0.017918502 2.2243189e-20)
(0.93967078 0.024573401 -2.9929848e-22)
(0.98205194 0.028293369 -1.6691899e-21)
(0.0052521813 -0.0013462734 -1.7059353e-20)
(0.026962505 -0.0089890278 3.9747712e-20)
(0.061670123 -0.014809766 2.3576296e-20)
(0.1062949 -0.019172272 -1.1569758e-19)
(0.15873567 -0.022213999 -1.2727088e-20)
(0.21753354 -0.023720688 7.3297081e-20)
(0.28137299 -0.023595099 -3.5476401e-20)
(0.34900605 -0.021868968 -8.3905571e-21)
(0.41923924 -0.018645528 3.4287542e-20)
(0.49090949 -0.014080845 -4.3259581e-20)
(0.56287237 -0.0083759546 -3.0338482e-20)
(0.63400853 -0.0017665984 7.1921436e-20)
(0.70324336 0.0054883901 3.829405e-20)
(0.76957588 0.013118627 -6.797656e-20)
(0.83211253 0.020852077 1.4623691e-20)
(0.89010044 0.028419698 -3.6733402e-20)
(0.94296924 0.035569664 -1.3777195e-20)
(0.99043237 0.042140875 7.0974776e-20)
(1.0323561 0.047715295 2.9641979e-20)
(1.0669349 0.049139673 -8.3478329e-20)
(0.010858428 -0.0040424164 3.6773458e-20)
(0.043953418 -0.015431079 2.5047359e-21)
(0.090515445 -0.022552285 2.2341711e-20)
(0.14711141 -0.026497362 9.8116827e-22)
(0.21134257 -0.027886301 -4.0773937e-20)
(0.2814677 -0.026795119 1.8576404e-20)
(0.35587044 -0.023382733 1.3420299e-20)
(0.43299011 -0.017921542 -5.0327704e-20)
(0.51132482 -0.010735656 5.726186e-20)
(0.58942619 -0.0021838864 1.4256688e-20)
(0.66590921 0.0073478986 -5.4300712e-20)
(0.73948042 0.017460255 -1.8237403e-20)
(0.80897604 0.027756553 9.0591619e-21)
(0.87340271 0.03785926 2.3444738e-20)
(0.93197369 0.047424029 -1.1362506e-20)
(0.98413374 0.056148956 2.7877729e-20)
(1.0295741 0.063789154 -2.0188242e-20)
(1.0682646 0.070204369 -7.0123595e-20)
(1.1003322 0.075119352 -2.3796276e-20)
(1.1249113 0.076641209 4.8659829e-20)
(0.017957216 -0.0064221641 2.4508015e-20)
(0.064777002 -0.020694802 5.1039226e-20)
(0.1248523 -0.02806085 1.9881695e-20)
(0.19446968 -0.030464069 1.2990098e-20)
(0.27094934 -0.029094846 1.7275704e-20)
(0.35224882 -0.024388983 -4.7720173e-20)
(0.43643142 -0.016825977 -2.5646857e-20)
(0.52162012 -0.0069766759 0)
(0.606029 0.0045670257 1.3920618e-20)
(0.68798712 0.017211724 -5.8523401e-21)
(0.76597524 0.030373913 -9.7934949e-20)
(0.83867453 0.043499622 -1.5774818e-20)
(0.90501532 0.056086605 6.5103201e-20)
(0.96421576 0.067704121 4.8442668e-22)
(1.0158036 0.078007699 -1.5725567e-21)
(1.0596156 0.086746774 2.1957496e-20)
(1.0957773 0.093772207 -5.2647203e-21)
(1.12468 0.099065311 -6.1029739e-20)
(1.1468648 0.10259705 -4.5851236e-20)
(1.1622958 0.10341383 6.9520522e-20)
(0.026579423 -0.008205689 -3.91942e-21)
(0.089344029 -0.024033508 -5.1256303e-21)
(0.16430755 -0.030264991 5.6599412e-20)
(0.24758122 -0.029810023 1.8539326e-20)
(0.33624164 -0.024513031 -3.1955069e-20)
(0.42795129 -0.015239864 1.2163839e-20)
(0.52047266 -0.0028513673 2.6402863e-21)
(0.61166362 0.01173709 3.3609171e-20)
(0.69954717 0.027640136 5.6599506e-21)
(0.78236843 0.044028762 -1.3204741e-20)
(0.85865412 0.060147716 6.0154041e-20)
(0.92726917 0.075340461 -5.8009358e-20)
(0.98745682 0.08907285 -1.3216614e-19)
(1.0388531 0.10094901 -5.5773038e-21)
(1.0814726 0.11071707 8.3150776e-20)
(1.1156656 0.11826403 0)
(1.1420549 0.12360581 1.0118959e-20)
(1.1614669 0.12689054 -1.5459772e-20)
(1.174818 0.12829868 -8.5994607e-21)
(1.1826673 0.12744913 2.0992231e-20)
(0.036666912 -0.0090895805 -5.4309123e-21)
(0.11731512 -0.024685359 4.3578748e-21)
(0.2081187 -0.028140181 -8.7629844e-21)
(0.30515705 -0.023414957 2.8472396e-20)
(0.40533543 -0.013075594 -2.9392665e-20)
(0.50607151 0.0015226121 -1.6927024e-20)
(0.60490495 0.019095137 3.7364233e-20)
(0.69954965 0.038365251 4.7595451e-21)
(0.78800398 0.058167641 -2.4436059e-20)
(0.86863411 0.077482999 6.9867561e-20)
(0.94023979 0.095458635 5.2393776e-22)
(1.0020956 0.11143156 -8.044432e-20)
(1.053957 0.12494289 0)
(1.0960274 0.13573748 3.9542119e-20)
(1.1288922 0.14374842 5.5236007e-21)
(1.1534279 0.14906891 -7.7566405e-20)
(1.1706991 0.15191912 -1.9586923e-20)
(1.1818624 0.15262366 -1.2467633e-20)
(1.1880592 0.15152604 -1.4709389e-20)
(1.1901461 0.14858491 4.0420524e-20)
(0.048058873 -0.008767406 -1.7277959e-20)
(0.14808311 -0.021931995 -2.2198267e-21)
(0.25514072 -0.020797837 3.0380506e-20)
(0.36546387 -0.010412795 3.7484312e-20)
(0.47590425 0.0059015863 -1.9944735e-20)
(0.58374271 0.026269305 -6.9163034e-20)
(0.6864419 0.048977207 -2.7995798e-20)
(0.78176209 0.072417786 7.8929214e-20)
(0.86790202 0.095212475 8.5778144e-21)
(0.94358922 0.11624961 -2.4873483e-20)
(1.0081259 0.13469827 1.3642212e-20)
(1.0613871 0.15001554 -4.3194497e-21)
(1.1037693 0.16193658 0)
(1.1360975 0.17044427 2.7203484e-20)
(1.1595046 0.17572307 -7.9322417e-20)
(1.1753021 0.17810368 -3.147553e-20)
(1.184857 0.17800811 8.1054581e-20)
(1.1894921 0.17590943 -4.2969853e-21)
(1.190403 0.17225556 3.5561071e-21)
(1.188508 0.16719296 2.7111572e-20)
(0.060485256 -0.0069573646 -3.2414617e-20)
(0.18077774 -0.015170382 -8.1624321e-20)
(0.30388931 -0.0075835283 2.5797785e-21)
(0.42642559 0.0097033553 7.0161813e-20)
(0.54535153 0.032631553 6.242438e-20)
(0.65798106 0.058820043 -7.1574528e-20)
(0.76190888 0.086176507 -2.8275211e-22)
(0.85518297 0.11285231 8.5522553e-20)
(0.93645352 0.13737837 4.8828072e-20)
(1.0050415 0.1586937 -5.421841e-20)
(1.0609356 0.17613563 -9.233422e-20)
(1.1047243 0.18941353 -3.1589828e-21)
(1.1374759 0.19855943 4.2127868e-20)
(1.1605874 0.20385856 -6.6056284e-21)
(1.1756248 0.20577018 -1.2868788e-20)
(1.1841777 0.20484918 1.9690809e-20)
(1.1877427 0.20167895 4.388062e-20)
(1.1876454 0.19682586 -4.3859435e-20)
(1.1849954 0.19077882 -1.0232202e-19)
(1.180625 0.18377378 2.4566883e-20)
(0.073537221 -0.0034329739 -3.4979751e-20)
(0.21422689 -0.0039890263 -1.7388612e-19)
(0.3525166 0.011839375 8.2103241e-20)
(0.48562801 0.037018337 9.276752e-20)
(0.61085384 0.066835553 5.7970572e-20)
(0.72576732 0.098481179 8.6107102e-21)
(0.82834808 0.12959696 -1.0624011e-19)
(0.91719003 0.15824269 0)
(0.9916275 0.18302814 -6.8748593e-20)
(1.0517521 0.20311206 -1.520241e-20)
(1.0983384 0.2181486 5.4703469e-20)
(1.1327008 0.22821082 1.0973381e-20)
(1.156511 0.23369259 -4.5613856e-20)
(1.1716068 0.23519946 -4.9081365e-20)
(1.1798204 0.23344334 2.4287681e-20)
(1.1828451 0.22915322 4.4822893e-20)
(1.1821489 0.22300984 -5.5600411e-20)
(1.1789361 0.21560821 -1.0751123e-19)
(1.1741469 0.20742222 -3.1513622e-21)
(1.1684568 0.19871879 2.7046403e-20)
(0.086650453 0.001961386 -3.5448989e-21)
(0.24696021 0.011816635 8.7913243e-20)
(0.39884742 0.037492311 -1.647925e-20)
(0.54040469 0.071218384 -8.430915e-20)
(0.66949907 0.10778894 4.5164374e-20)
(0.78421957 0.14411544 4.9175461e-20)
(0.88318945 0.17775669 5.5356787e-21)
(0.96577875 0.2068849 -9.9502501e-20)
(1.0321763 0.23038802 -2.5048782e-21)
(1.0833329 0.24781553 5.0503546e-20)
(1.120807 0.259263 5.9854759e-21)
(1.1465558 0.26523619 -1.9717209e-20)
(1.1627108 0.26650532 -7.5704632e-20)
(1.1713765 0.26396621 -6.2554026e-21)
(1.1744762 0.25852428 4.3533356e-20)
(1.1736548 0.25101087 3.7022014e-20)
(1.1702383 0.24213394 1.9793442e-20)
(1.1652403 0.23245873 -5.2994847e-20)
(1.1594014 0.22240416 1.295745e-20)
(1.1532252 0.21223798 8.2659105e-20)
(-0.0012932616 0.0014346601 -1.1234444e-21)
(-0.0047459608 0.0031874153 2.064697e-21)
(-0.01077136 0.0041359046 8.7950132e-22)
(-0.017754289 0.0045395365 -2.441103e-21)
(-0.02474032 0.0045654171 -1.4114824e-21)
(-0.031299595 0.004326039 1.5460001e-21)
(-0.03716133 0.0039035385 -6.8700813e-21)
(-0.042147445 0.003357722 -5.9573027e-21)
(-0.046157779 0.0027313814 1.1171998e-20)
(-0.049146192 0.0020548306 -9.742749e-21)
(-0.051100657 0.0013493004 -1.9832971e-22)
(-0.052030446 0.00062942175 3.6673449e-21)
(-0.05195774 -9.488977e-05 -6.329556e-22)
(-0.050911883 -0.00081693081 2.2818745e-20)
(-0.048925779 -0.0015318453 3.0401064e-22)
(-0.046035342 -0.0022351747 -4.0882875e-20)
(-0.042281798 -0.0029222688 7.5385631e-21)
(-0.037703442 -0.0035910395 2.3864113e-20)
(-0.032308693 -0.0042399876 -4.385238e-20)
(-0.026156962 -0.0048211144 -2.7739208e-20)
(-0.0016522001 0.0041808668 -5.371604e-21)
(-0.0053974816 0.0092681392 1.086544e-20)
(-0.01121851 0.012007445 -1.0191545e-20)
(-0.017658027 0.013153765 3.9229753e-21)
(-0.023856434 0.013195414 4.8121443e-21)
(-0.029433319 0.012462725 7.1324185e-22)
(-0.034152322 0.011197014 -2.2509489e-20)
(-0.03786038 0.0095738974 -2.0370245e-21)
(-0.0404743 0.0077189875 2.0163541e-20)
(-0.041958923 0.0057212304 -5.0473602e-21)
(-0.042308951 0.0036428643 -2.1762591e-20)
(-0.041537338 0.0015267122 4.8973171e-21)
(-0.039667714 -0.00059830621 2.2635421e-20)
(-0.036729082 -0.002712762 1.0308391e-20)
(-0.032752034 -0.0048026905 2.1854287e-20)
(-0.02776917 -0.0068555101 -1.977073e-20)
(-0.021824794 -0.0088582216 -2.1672945e-20)
(-0.014966269 -0.010804227 2.118462e-20)
(-0.0071290155 -0.012679004 2.6810368e-20)
(0.0018742979 -0.014317226 1.5854767e-20)
(-0.0023034294 0.0065602334 -4.3568698e-21)
(-0.0065392244 0.014480197 -5.6387549e-21)
(-0.011892132 0.018710545 3.0723939e-22)
(-0.0172111 0.020428182 1.0959883e-21)
(-0.021819143 0.020400325 6.6918418e-21)
(-0.025431042 0.019151667 1.0665171e-20)
(-0.027877233 0.017066288 -3.7227638e-21)
(-0.02905327 0.014423783 -1.8896168e-20)
(-0.028909037 0.011424352 6.5413178e-21)
(-0.02743105 0.0082099048 1.286257e-20)
(-0.024627714 0.0048797754 5.8340869e-21)
(-0.020520108 0.0015022375 1.8159105e-20)
(-0.015135985 -0.0018768648 1.7295915e-21)
(-0.0085053972 -0.0052272498 -3.3864529e-20)
(-0.00065689072 -0.0085276126 1.202018e-21)
(0.0083810197 -0.011759112 -2.2139211e-20)
(0.01855687 -0.0149041 -2.4466305e-20)
(0.029802184 -0.017953756 4.5819715e-20)
(0.042304968 -0.020855121 2.534935e-20)
(0.056738576 -0.023247771 1.2239325e-22)
(-0.0031290279 0.0083689708 -5.283308e-21)
(-0.0078963994 0.018336514 -8.4815295e-21)
(-0.012438987 0.02358781 4.3593055e-21)
(-0.016026535 0.02560966 4.1463458e-21)
(-0.018235024 0.025382747 2.0105712e-21)
(-0.018912652 0.023589323 7.320996e-21)
(-0.017984717 0.020730274 9.3124784e-21)
(-0.01541671 0.017170378 -1.3511351e-21)
(-0.011207047 0.013171314 -1.1481947e-20)
(-0.0053752329 0.0089189309 -2.9071879e-20)
(0.0020481121 0.004543436 6.1893015e-23)
(0.011026509 0.00013430917 4.0697823e-20)
(0.021522226 -0.0042489534 -1.8383172e-20)
(0.033497851 -0.0085675879 -1.2296088e-20)
(0.046920513 -0.01279555 5.5348864e-22)
(0.061760096 -0.016911859 3.2302646e-20)
(0.077953014 -0.020901674 -1.4829546e-20)
(0.095392265 -0.024763381 -5.3339187e-20)
(0.11439845 -0.028379724 4.5765012e-20)
(0.13634538 -0.031073101 3.3013172e-20)
(-0.0039704099 0.0094657331 -6.8788991e-22)
(-0.0090916586 0.020487793 -1.2534742e-20)
(-0.012364472 0.026159088 -3.414454e-20)
(-0.01355254 0.02814334 -5.7241626e-21)
(-0.01253324 0.027555008 -3.6222751e-21)
(-0.0093167241 0.025188065 6.305104e-21)
(-0.003945644 0.021627412 -4.6461955e-21)
(0.0035261297 0.01729896 -8.8070261e-21)
(0.013036823 0.012508751 2.189971e-20)
(0.024521245 0.0074744414 5.0567064e-21)
(0.037915543 0.0023489021 -2.5290297e-20)
(0.053157451 -0.0027627868 1.1078278e-20)
(0.070186874 -0.007790878 0)
(0.08894659 -0.012691307 1.2089576e-20)
(0.10938545 -0.017436924 -9.7016181e-21)
(0.13145743 -0.022009902 -1.433712e-20)
(0.15507408 -0.026408653 -1.5738936e-21)
(0.18006762 -0.030659428 -2.2181558e-21)
(0.20685344 -0.034576542 4.6147066e-20)
(0.23766362 -0.037019878 -1.0470128e-20)
(-0.0046450982 0.0097808631 -7.5356687e-21)
(-0.0096772514 0.020747881 2.4516403e-20)
(-0.011064381 0.026160979 -1.0499348e-20)
(-0.0090968326 0.027724446 -2.7469284e-20)
(-0.0039797201 0.026601696 -2.754815e-20)
(0.0040961844 0.023648409 -1.492157e-20)
(0.014954152 0.019496457 -6.9059539e-22)
(0.028436239 0.014604705 5.5499777e-21)
(0.044403153 0.0093034454 1.9615878e-20)
(0.062730504 0.0038284135 7.3530857e-21)
(0.083304325 -0.001654758 -7.1862211e-21)
(0.10601899 -0.0070322423 -2.0102301e-21)
(0.13077359 -0.012229102 -3.8191712e-20)
(0.15746945 -0.017199758 -1.2693645e-20)
(0.18601202 -0.021919741 1.8750608e-20)
(0.2163118 -0.026379725 -2.1021675e-20)
(0.24823226 -0.030602232 -8.9730583e-21)
(0.28151871 -0.034670617 3.0440467e-20)
(0.31660708 -0.03836483 5.0472072e-20)
(0.3566502 -0.039964111 3.3559662e-21)
(-0.0049617687 0.0093139994 1.6783305e-20)
(-0.0091662697 0.019097711 1.446794e-20)
(-0.0078593649 0.023563368 5.1145492e-20)
(-0.0018585387 0.024328945 2.3387983e-20)
(0.0082957249 0.022523784 1.8251775e-22)
(0.022221943 0.019014385 -3.9388457e-20)
(0.039597447 0.014440935 -2.4313862e-20)
(0.060147911 0.0092663581 1.0465817e-20)
(0.083639125 0.003823226 1.4401587e-20)
(0.1098667 -0.0016513023 -1.3113711e-20)
(0.13864564 -0.0069910136 -4.4038717e-20)
(0.16980172 -0.012082852 2.96185e-20)
(0.20316407 -0.016854165 2.0020552e-20)
(0.23855948 -0.021264002 -2.7551157e-20)
(0.27581233 -0.02529641 1.1650136e-20)
(0.31474814 -0.028957176 2.4197614e-20)
(0.3551455 -0.032303062 8.072395e-21)
(0.39663392 -0.035506687 -1.1764212e-20)
(0.43957706 -0.038392654 -1.4190298e-20)
(0.48798515 -0.038634414 5.872761e-21)
(-0.0047307765 0.0081236738 1.1093846e-20)
(-0.0070586006 0.015671177 -2.3352721e-20)
(-0.0020293653 0.018562033 8.6200558e-21)
(0.009032522 0.018216225 3.3587968e-20)
(0.025256365 0.01565115 5.2124343e-20)
(0.046066344 0.011695602 2.0276511e-20)
(0.070984531 0.0069609509 -5.8639364e-21)
(0.099601959 0.001882949 -1.2286284e-20)
(0.13156896 -0.0032272012 -6.2057477e-21)
(0.16657569 -0.0081496614 3.4240836e-20)
(0.20433427 -0.012733325 -4.5104396e-21)
(0.24456487 -0.016879192 -1.6643302e-20)
(0.28698472 -0.020528692 -1.9693573e-20)
(0.33130001 -0.023656418 -4.744374e-20)
(0.37720462 -0.02626554 2.3238704e-20)
(0.42438774 -0.028387868 -1.4095984e-20)
(0.47249978 -0.030127627 2.59934e-20)
(0.52103623 -0.031783196 2.1040825e-20)
(0.570214 -0.033350685 -8.557039e-20)
(0.62470922 -0.032058847 -1.0807189e-22)
(-0.0037710521 0.0063146398 2.1925056e-20)
(-0.0028657661 0.010735096 -2.6165531e-20)
(0.0071421062 0.011564137 -4.5013298e-20)
(0.024450236 0.0099249896 -2.7253783e-20)
(0.047870856 0.0066523052 -2.0439869e-21)
(0.076628711 0.0024906158 1.3050094e-20)
(0.11007674 -0.0020153973 -2.8337692e-21)
(0.14765207 -0.0064879067 1.8118537e-20)
(0.18886098 -0.010663507 8.8685615e-21)
(0.23325197 -0.014362425 -1.1380172e-20)
(0.28039152 -0.017468953 8.8779143e-21)
(0.32984606 -0.01991681 -2.3903268e-20)
(0.38116884 -0.021678702 8.0504792e-21)
(0.43389088 -0.02275988 1.6756392e-20)
(0.4875194 -0.023194306 -2.6395138e-21)
(0.54154721 -0.023046896 1.6618983e-21)
(0.59543551 -0.02246945 -3.1957667e-22)
(0.64851789 -0.021870109 1.9590422e-20)
(0.70082246 -0.021445067 4.0434001e-21)
(0.75745157 -0.018499086 -5.733467e-22)
(-0.0019110144 0.0040273483 2.3692113e-20)
(0.0038694308 0.0046765203 5.7159962e-20)
(0.020315313 0.0031879642 -4.9244227e-20)
(0.045178289 0.00029442556 -9.945415e-21)
(0.076965159 -0.0034241529 2.0256345e-20)
(0.11469624 -0.0073535876 2.1433718e-21)
(0.15753884 -0.011054959 -2.9815162e-20)
(0.20474833 -0.014244142 6.9848103e-21)
(0.25564952 -0.016737931 7.1097884e-21)
(0.30960476 -0.01842696 -2.6254079e-20)
(0.36598651 -0.019260102 1.2927329e-21)
(0.42415962 -0.019231871 -3.7174114e-20)
(0.48347106 -0.018372207 -3.6341016e-20)
(0.5432457 -0.01673828 6.5683482e-20)
(0.60278818 -0.014407307 5.5627484e-21)
(0.6613889 -0.011475903 -1.5188794e-20)
(0.71830791 -0.0081020505 1.9363966e-20)
(0.77269908 -0.0045928715 -9.1888137e-22)
(0.82408842 -0.00096805451 2.0364578e-20)
(0.87621974 0.0043280619 -1.9554148e-20)
(-0.018836418 -0.0050997037 5.8352047e-20)
(-0.010224656 -0.0056349269 1.5783666e-20)
(-0.00022119551 -0.0060688798 -3.5139556e-20)
(0.010823225 -0.0063341092 1.6790233e-20)
(0.022642465 -0.0065120464 0)
(0.035177883 -0.0066300892 0)
(0.048369659 -0.0066909725 -2.2974944e-20)
(0.062138073 -0.0067025388 -1.6502868e-20)
(0.076412715 -0.0066741731 1.9122591e-20)
(0.091134076 -0.0066126644 1.8174031e-20)
(0.10624718 -0.0065232044 1.0524252e-21)
(0.12170023 -0.0064103566 -1.0317635e-20)
(0.13744491 -0.0062780796 8.3268785e-21)
(0.15343602 -0.0061297208 1.8233714e-20)
(0.16963079 -0.0059681434 -5.2274167e-21)
(0.18598856 -0.0057958329 -1.0174934e-20)
(0.2024706 -0.0056149603 -4.3195867e-21)
(0.21903986 -0.0054274346 -4.4257379e-21)
(0.23566093 -0.0052349481 7.3667172e-22)
(0.25229994 -0.0050390109 1.2286038e-21)
(0.26892454 -0.0048409782 2.5666311e-21)
(0.28550395 -0.0046420697 6.6539456e-21)
(0.302009 -0.0044433845 2.4894378e-22)
(0.31841213 -0.0042459122 -3.4514699e-21)
(0.33468751 -0.0040505403 1.5558754e-22)
(0.35081106 -0.0038580604 -5.7709782e-22)
(0.36676054 -0.0036691724 1.2434363e-21)
(0.38251552 -0.0034844888 1.0522434e-21)
(0.3980575 -0.0033045379 -1.2987938e-21)
(0.41336985 -0.003129768 -1.2218727e-22)
(0.42843783 -0.002960551 3.5749189e-23)
(0.4432486 -0.0027971869 -3.518759e-22)
(0.45779117 -0.0026399088 -4.0565461e-22)
(0.47205633 -0.002488888 5.5413542e-23)
(0.48603668 -0.0023442397 -1.3809039e-22)
(0.49972653 -0.0022060294 -2.2343164e-22)
(0.51312185 -0.0020742792 2.5571926e-22)
(0.5262203 -0.0019489749 2.9501978e-22)
(0.53902108 -0.0018300746 -8.2716231e-24)
(0.55152531 -0.001717513 -1.5517468e-22)
(0.56373494 -0.001611229 3.0406516e-23)
(0.57565657 -0.0015111224 -4.0144762e-23)
(0.58729038 -0.0014172641 9.220427e-23)
(0.59866537 -0.0013293179 2.1976913e-23)
(0.60973592 -0.0012485672 -1.1394754e-22)
(0.62069404 -0.0011718028 -6.7614503e-24)
(0.63106211 -0.0011112549 -7.2264606e-26)
(0.64235074 -0.001033959 -3.5615341e-24)
(0.65042876 -0.0010508179 2.9453586e-23)
(0.66700988 -0.00087557373 3.605102e-22)
(0.010445878 -0.015017613 -1.2746817e-20)
(0.018179709 -0.016641016 -6.3302337e-20)
(0.02777923 -0.017915418 -3.0541942e-20)
(0.038385162 -0.018672076 3.8476014e-20)
(0.049621007 -0.019183593 1.4662612e-20)
(0.061506652 -0.019529438 -1.820493e-20)
(0.074012846 -0.019709871 4.6722024e-21)
(0.087062699 -0.019746498 2.5447191e-20)
(0.10059317 -0.019667287 9.1992861e-23)
(0.11455405 -0.019491706 -7.6591257e-21)
(0.12889721 -0.019234366 -1.3021017e-20)
(0.14357605 -0.018908318 -8.5245315e-21)
(0.15854669 -0.018524979 1.7772336e-20)
(0.1737676 -0.018094007 8.9295472e-21)
(0.18919904 -0.017623685 -1.6522438e-20)
(0.20480282 -0.017121238 -6.0390588e-21)
(0.2205422 -0.016593003 3.2145048e-21)
(0.23638182 -0.016044577 8.3716328e-21)
(0.25228761 -0.015480938 6.9832281e-21)
(0.26822681 -0.014906547 -6.9727178e-21)
(0.28416802 -0.01432542 -3.1685479e-21)
(0.30008119 -0.013741181 1.3605354e-21)
(0.31593776 -0.013157105 3.8682968e-22)
(0.33171065 -0.012576148 1.2113959e-21)
(0.34737441 -0.012000965 1.83684e-22)
(0.36290525 -0.011433931 -3.2661675e-22)
(0.37828111 -0.010877149 -7.2434922e-22)
(0.39348168 -0.010332461 9.7156721e-22)
(0.4084885 -0.0098014633 8.2483045e-22)
(0.42328491 -0.0092855104 -1.5147475e-22)
(0.43785608 -0.0087857314 5.5306171e-22)
(0.45218901 -0.0083030406 -2.3880928e-22)
(0.46627249 -0.0078381527 -3.7069989e-22)
(0.48009708 -0.007391598 -6.0999204e-22)
(0.49365507 -0.0069637395 4.4171777e-22)
(0.50694041 -0.006554791 -1.547853e-23)
(0.51994871 -0.0061648373 1.6124867e-22)
(0.53267723 -0.0057938535 -4.4174955e-22)
(0.54512471 -0.0054417327 3.7189797e-22)
(0.55729183 -0.0051082966 6.7175489e-23)
(0.56918007 -0.0047933805 -1.0285388e-22)
(0.58079552 -0.0044967006 1.7613919e-22)
(0.59213792 -0.0042184857 2.3340007e-22)
(0.60323554 -0.0039577461 1.6926803e-22)
(0.61404292 -0.0037183275 1.676762e-22)
(0.62474919 -0.0034906743 -2.6098755e-23)
(0.63488314 -0.0033112361 8.4048287e-23)
(0.64593243 -0.003081896 7.6296235e-23)
(0.65383091 -0.0031323885 -1.946709e-22)
(0.67009305 -0.002612477 -3.802587e-23)
(0.067614702 -0.024029151 9.4528308e-21)
(0.073589686 -0.026749054 3.2950997e-21)
(0.082265524 -0.028805574 -1.2162204e-20)
(0.091947839 -0.02996851 -1.2257921e-21)
(0.10198323 -0.03076787 1.497059e-20)
(0.11254636 -0.031330898 -1.4887124e-20)
(0.12367599 -0.031636077 -2.9842274e-20)
(0.13529685 -0.031713012 1.4493523e-20)
(0.14735699 -0.031607643 1.8181968e-20)
(0.15982346 -0.031350063 -1.1598517e-20)
(0.17266064 -0.030961827 1.0190553e-21)
(0.18583086 -0.030462761 8.6860151e-21)
(0.19929789 -0.029870559 -1.5253542e-20)
(0.21302663 -0.029200247 2.9095172e-21)
(0.2269825 -0.028464768 7.5194368e-21)
(0.24113148 -0.027675513 3.1596421e-23)
(0.25544023 -0.026842567 2.6556294e-22)
(0.26987615 -0.025974905 -7.4150874e-21)
(0.28440741 -0.025080573 3.8616855e-21)
(0.2990031 -0.024166828 8.4749069e-21)
(0.31363325 -0.023240243 -3.8351771e-21)
(0.32826905 -0.022306783 -2.2130369e-21)
(0.34288285 -0.021371866 1.0124435e-21)
(0.35744836 -0.020440397 -1.7155334e-21)
(0.37194066 -0.019516805 1.3532257e-21)
(0.38633637 -0.018605058 7.1845935e-22)
(0.40061369 -0.017708687 1.5268417e-21)
(0.41475244 -0.016830796 -1.9526647e-21)
(0.42873414 -0.015974082 2.2235718e-21)
(0.44254201 -0.015140847 5.5188618e-22)
(0.456161 -0.014333019 4.0322817e-22)
(0.46957777 -0.013552174 3.2134488e-22)
(0.48278071 -0.012799555 8.7325287e-22)
(0.49575985 -0.012076101 -1.370865e-21)
(0.50850689 -0.011382473 3.7065718e-22)
(0.52101515 -0.010719084 1.0941469e-22)
(0.53327952 -0.010086135 -4.5172898e-23)
(0.54529646 -0.0094836398 8.6731911e-23)
(0.55706395 -0.0089114797 -3.7185167e-22)
(0.56858177 -0.0083694142 1.8293664e-22)
(0.57985054 -0.0078572244 -3.4987267e-23)
(0.59087541 -0.0073744918 3.9004809e-22)
(0.60165529 -0.0069216459 -1.8544754e-22)
(0.61221708 -0.0064970981 4.7324001e-23)
(0.62251564 -0.0061072373 4.3604838e-23)
(0.63273471 -0.0057363758 -7.3601668e-23)
(0.64241519 -0.0054444547 -1.2083071e-22)
(0.65300082 -0.005070552 3.8810707e-22)
(0.66055092 -0.0051543039 1.7271077e-22)
(0.67619479 -0.0043070788 -8.3040492e-22)
(0.15021531 -0.031460436 1.5010133e-21)
(0.15354692 -0.035257402 -1.1566609e-20)
(0.16061625 -0.038010928 6.6441941e-21)
(0.16880593 -0.039479106 -1.3324742e-20)
(0.17698227 -0.040520698 -1.9758311e-21)
(0.1855235 -0.041302289 9.1599411e-21)
(0.19458424 -0.041757246 -9.7662181e-21)
(0.20408696 -0.04191372 1.5662771e-21)
(0.21398773 -0.041833341 1.29038e-20)
(0.22427604 -0.041554346 3.4032002e-21)
(0.23493259 -0.041102056 -6.2096963e-21)
(0.24593027 -0.04050046 -2.8638104e-21)
(0.25724165 -0.03977176 -5.8409055e-21)
(0.26883919 -0.038935068 -6.4553149e-21)
(0.28069431 -0.038006988 3.2356913e-21)
(0.29277771 -0.037002315 8.4620894e-22)
(0.30505984 -0.035934339 1.3679588e-21)
(0.31751109 -0.034815036 -3.3850423e-21)
(0.33010206 -0.033655264 -4.2428878e-21)
(0.34280374 -0.03246491 2.3616519e-21)
(0.35558769 -0.031253012 3.2251376e-21)
(0.36842627 -0.030027832 -1.5636212e-21)
(0.38129274 -0.028796918 1.5867277e-21)
(0.39416149 -0.027567149 -3.9124073e-22)
(0.40700808 -0.026344761 -3.9196446e-21)
(0.41980942 -0.025135371 -3.0332832e-21)
(0.43254383 -0.023943995 -1.9026371e-22)
(0.4451911 -0.022775069 4.2858867e-22)
(0.4577326 -0.021632461 -2.210605e-21)
(0.47015124 -0.020519499 -8.5497442e-22)
(0.48243155 -0.019438988 2.2837666e-22)
(0.49455964 -0.018393244 -1.2498714e-21)
(0.50652325 -0.017384123 6.2622223e-24)
(0.51831167 -0.016413052 -4.2421057e-22)
(0.52991577 -0.015481075 -4.7193665e-22)
(0.54132792 -0.014588888 -5.1996056e-22)
(0.55254202 -0.013736887 -8.4133676e-22)
(0.56355349 -0.012925211 -5.4495808e-23)
(0.57435917 -0.012153808 -3.9160539e-24)
(0.58495769 -0.011422454 -5.1972779e-22)
(0.59534849 -0.010730953 -9.1606321e-23)
(0.6055354 -0.010078829 -3.3239817e-22)
(0.61551627 -0.0094667738 -4.3760726e-22)
(0.62531608 -0.0088926894 3.7842453e-22)
(0.63489022 -0.008365461 1.4821259e-23)
(0.64441474 -0.0078636425 1.8238122e-22)
(0.65344808 -0.0074694068 -1.3247336e-22)
(0.66337079 -0.0069630232 -2.6692079e-22)
(0.67042292 -0.0070792326 -4.4686578e-23)
(0.68518007 -0.0059327781 4.622997e-22)
(0.25468568 -0.036552763 -2.0900309e-20)
(0.25447022 -0.041393514 4.7585951e-20)
(0.25907335 -0.044745663 1.0348095e-20)
(0.26508414 -0.046442048 -1.576532e-20)
(0.27070934 -0.04771432 -2.0227937e-21)
(0.27651996 -0.048747781 2.6232267e-21)
(0.28283551 -0.049413724 -1.6608201e-21)
(0.28957692 -0.049728105 -4.686142e-21)
(0.29669659 -0.049761437 -4.0159168e-21)
(0.30420549 -0.04955706 -1.2207639e-20)
(0.3121022 -0.049141695 1.7897756e-20)
(0.32036939 -0.04854081 6.5219914e-21)
(0.32898702 -0.047778974 -1.6780525e-20)
(0.33793405 -0.046878028 1.0317573e-20)
(0.3471871 -0.04585731 8.3849908e-21)
(0.35672077 -0.044734323 -8.7923556e-22)
(0.36650848 -0.043525078 -3.1222225e-21)
(0.37652292 -0.042244259 -3.8197335e-21)
(0.38673645 -0.040905371 -1.3892588e-21)
(0.39712135 -0.039520865 -1.23042e-21)
(0.40765014 -0.038102234 -3.0257625e-21)
(0.41829585 -0.036660083 0)
(0.4290322 -0.035204169 -1.3451922e-21)
(0.43983381 -0.033743437 3.9309525e-21)
(0.45067633 -0.032286043 5.40527e-21)
(0.46153659 -0.030839371 -9.4112578e-22)
(0.47239269 -0.029410045 -2.9274475e-21)
(0.48322411 -0.028003953 3.0258432e-21)
(0.49401172 -0.026626263 2.5447303e-22)
(0.50473787 -0.025281447 3.4352506e-21)
(0.5153864 -0.02397331 -5.3459767e-22)
(0.52594265 -0.022705029 1.7173493e-21)
(0.53639344 -0.021479186 -7.9964579e-22)
(0.54672711 -0.020297815 2.9094316e-22)
(0.55693344 -0.019162454 -4.3404139e-22)
(0.5670037 -0.018074191 5.6231775e-22)
(0.57693056 -0.017033728 4.5710093e-22)
(0.58670817 -0.016041432 3.8255801e-22)
(0.59633207 -0.015097421 -9.5936775e-22)
(0.60579951 -0.01420159 6.8355915e-22)
(0.61510854 -0.013353861 -3.6957651e-22)
(0.62426151 -0.012553793 -1.1033309e-21)
(0.633255 -0.011802417 1.4078354e-21)
(0.64211171 -0.011097241 -6.2006479e-23)
(0.65078784 -0.010449569 -1.5816301e-22)
(0.65944987 -0.0098326996 -7.8246497e-24)
(0.66767845 -0.0093493222 -1.2622163e-22)
(0.6767744 -0.0087262881 -4.6583916e-22)
(0.68320632 -0.0088737386 8.7882438e-22)
(0.69685199 -0.0074650086 -4.4316175e-23)
(0.37635132 -0.038368172 -1.74951e-20)
(0.3717098 -0.044270235 1.2832047e-20)
(0.37286693 -0.048161619 2.975458e-21)
(0.37591048 -0.050098857 -7.635375e-21)
(0.3783053 -0.051669978 1.2055984e-20)
(0.38072297 -0.05304238 7.7914118e-21)
(0.38367605 -0.054030047 -1.264769e-20)
(0.38710061 -0.05463311 -6.0679769e-21)
(0.39092927 -0.054918011 1.2697341e-20)
(0.39518247 -0.054927141 -1.5304976e-20)
(0.39987429 -0.054687523 -1.4063192e-20)
(0.40499512 -0.054224661 1.4129638e-20)
(0.41052867 -0.053563668 6.8193847e-21)
(0.41645723 -0.052727957 -4.2037699e-21)
(0.4227602 -0.051739025 -1.8545594e-21)
(0.4294141 -0.050616759 -4.0581705e-21)
(0.43639355 -0.049379712 5.3047588e-21)
(0.44367203 -0.048045237 3.6682096e-21)
(0.45122232 -0.046629559 -3.2408297e-21)
(0.45901687 -0.045147827 3.1379494e-21)
(0.46702816 -0.043614171 2.7666817e-21)
(0.475229 -0.042041739 -3.2111149e-21)
(0.48359279 -0.040442715 3.7056574e-22)
(0.49209367 -0.038828331 -3.2571652e-21)
(0.50070676 -0.037208879 7.2454239e-21)
(0.50940826 -0.035593721 6.1080659e-21)
(0.51817558 -0.033991296 8.0973408e-22)
(0.52698738 -0.032409139 -1.7683249e-21)
(0.53582371 -0.030853901 3.7021852e-21)
(0.54466598 -0.029331376 7.1885345e-21)
(0.55349704 -0.027846537 2.3049344e-21)
(0.56230117 -0.026403579 3.3164951e-21)
(0.57106407 -0.025005962 1.9956255e-21)
(0.57977289 -0.023656474 7.4558204e-22)
(0.58841618 -0.022357281 -2.6374582e-22)
(0.59698389 -0.021109998 2.7203243e-21)
(0.60546739 -0.019915758 6.1992481e-22)
(0.61385942 -0.01877528 2.9487911e-22)
(0.62215409 -0.017688968 5.6232723e-23)
(0.63034721 -0.016656946 9.8967439e-22)
(0.63843537 -0.01567936 4.7020302e-23)
(0.64641931 -0.014755911 4.424802e-22)
(0.65429432 -0.013888049 -1.2621927e-22)
(0.66208064 -0.013073011 -2.7735369e-22)
(0.66973556 -0.012324421 -1.5218957e-22)
(0.67741453 -0.011610913 -4.2208978e-22)
(0.68472441 -0.011053623 1.6140017e-22)
(0.69287274 -0.010332423 -1.2723986e-22)
(0.69859564 -0.010509538 -5.0126066e-22)
(0.71095826 -0.0088818855 2.4587218e-22)
(0.50927433 -0.035974284 3.6471446e-21)
(0.49953042 -0.042960664 -1.8958304e-20)
(0.49627558 -0.047383462 -2.3083849e-21)
(0.49555594 -0.049736766 5.4869519e-21)
(0.49416954 -0.051818031 3.0528114e-21)
(0.49269575 -0.053705396 -4.9883635e-23)
(0.4918123 -0.055187634 6.1896698e-21)
(0.49151452 -0.056265383 7.6251028e-21)
(0.49171167 -0.056990516 9.8580416e-21)
(0.49241073 -0.057395556 -1.1250043e-20)
(0.49363105 -0.057506283 -2.1579426e-20)
(0.49536779 -0.057348398 -3.9353491e-21)
(0.49760469 -0.056947111 1.5938146e-20)
(0.50032304 -0.056326988 1.2808961e-20)
(0.50350168 -0.055511711 -5.9066953e-21)
(0.50711655 -0.054523824 1.3817033e-21)
(0.51114143 -0.053384761 -3.6600861e-21)
(0.51554878 -0.052114914 2.2443789e-21)
(0.52031032 -0.050733622 -2.9123027e-22)
(0.52539739 -0.049259139 -1.8654104e-21)
(0.5307813 -0.047708634 7.8265936e-21)
(0.5364337 -0.046098183 -2.9308909e-22)
(0.54232677 -0.044442762 4.1818252e-22)
(0.54843347 -0.042756236 -6.5646536e-22)
(0.55472769 -0.041051356 -4.3029411e-21)
(0.56118439 -0.03933976 4.2085189e-21)
(0.56777975 -0.037631981 1.9031222e-21)
(0.57449119 -0.035937457 -3.3081949e-21)