/*--------------------------------*- C++ -*----------------------------------*\
  =========                 |
  \\      /  F ield         | OpenFOAM: The Open Source CFD Toolbox
   \\    /   O peration     | Website:  https://openfoam.org
    \\  /    A nd           | Version:  6
     \\/     M anipulation  |
\*---------------------------------------------------------------------------*/
FoamFile
{
    version     2.0;
    format      ascii;
    class       volScalarField;
    location    "347";
    object      p;
}
// * * * * * * * * * * * * * * * * * * * * * * * * * * * * * * * * * * * * * //

dimensions      [0 2 -2 0 0 0 0];

internalField   nonuniform List<scalar> 
9200
(
-0.37794899
-0.36660251
-0.35650883
-0.34755955
-0.33881986
-0.33030362
-0.32208914
-0.3141439
-0.30640058
-0.29878725
-0.29123097
-0.28366268
-0.27602423
-0.26827563
-0.2604056
-0.25244946
-0.24448354
-0.23659564
-0.2298107
-0.22841074
-0.3958097
-0.38201204
-0.36997473
-0.35950565
-0.34939394
-0.33962103
-0.33025568
-0.32123463
-0.31245837
-0.30382857
-0.29525205
-0.28664658
-0.2779485
-0.2691186
-0.2601478
-0.25106106
-0.24188823
-0.23262902
-0.22396639
-0.21806626
-0.41408737
-0.3978157
-0.38388069
-0.37196226
-0.36053383
-0.34952624
-0.33898695
-0.32881425
-0.31887447
-0.30904674
-0.29922677
-0.2893325
-0.27931084
-0.26914085
-0.25883355
-0.24842761
-0.2379618
-0.22744508
-0.21727669
-0.20857169
-0.43234797
-0.41362141
-0.39785405
-0.38454788
-0.37182299
-0.35954325
-0.347727
-0.33623357
-0.32490303
-0.31360736
-0.30225193
-0.29077851
-0.27916842
-0.26744028
-0.25564341
-0.24384761
-0.23211943
-0.22049775
-0.20925002
-0.19911735
-0.44996155
-0.42888312
-0.41140017
-0.39678334
-0.38277168
-0.36915132
-0.35591132
-0.3428827
-0.32989982
-0.31685462
-0.3036918
-0.29040519
-0.27703357
-0.26365077
-0.25035229
-0.23724102
-0.22440706
-0.2119089
-0.19993475
-0.18899204
-0.46610364
-0.44288187
-0.42385895
-0.40802089
-0.39271591
-0.37765245
-0.36280272
-0.3479951
-0.33309234
-0.3180427
-0.3028631
-0.28762413
-0.27243567
-0.2574289
-0.24273796
-0.22848486
-0.21476425
-0.20163203
-0.18921417
-0.17784746
-0.47976909
-0.45473132
-0.43440574
-0.41744655
-0.40082797
-0.38419656
-0.36753553
-0.3507113
-0.33365955
-0.31642421
-0.29912263
-0.28191596
-0.26498437
-0.2485035
-0.2326258
-0.21746914
-0.20310921
-0.18957714
-0.17693977
-0.1653983
-0.48979409
-0.46340132
-0.44208377
-0.42412702
-0.406181
-0.38786433
-0.36921388
-0.35018631
-0.33083866
-0.31134551
-0.29194194
-0.27287928
-0.25439333
-0.23668093
-0.21988685
-0.20410091
-0.18936027
-0.17565682
-0.16299943
-0.15147538
-0.49483645
-0.46761662
-0.44560705
-0.42672651
-0.40739907
-0.38727747
-0.3665122
-0.34520747
-0.3235812
-0.30195417
-0.28067263
-0.26005544
-0.24036327
-0.22178286
-0.20442501
-0.18833284
-0.17349424
-0.15985758
-0.14737776
-0.13604454
-0.49354572
-0.46596035
-0.443428
-0.42357972
-0.4027604
-0.38074054
-0.35784966
-0.33438532
-0.31074014
-0.28736419
-0.26467764
-0.24302145
-0.22263837
-0.20367206
-0.18617892
-0.17014678
-0.15551466
-0.14219309
-0.13009023
-0.11911096
-0.26506699
-0.26974128
-0.27224969
-0.27300083
-0.27278671
-0.2717942
-0.27010476
-0.26780592
-0.2649699
-0.26165141
-0.25789452
-0.25373672
-0.24921113
-0.24434783
-0.23917507
-0.23372174
-0.22801872
-0.22208654
-0.21592422
-0.2096173
-0.26779964
-0.27205866
-0.27426033
-0.2747928
-0.27439561
-0.27324688
-0.27142616
-0.26901731
-0.26608895
-0.26269299
-0.25887104
-0.25465853
-0.25008665
-0.24518349
-0.23997471
-0.23448817
-0.22876222
-0.22281575
-0.21654146
-0.20991342
-0.27312911
-0.27657608
-0.27817976
-0.2782845
-0.27752838
-0.27607411
-0.2739977
-0.27137574
-0.26826993
-0.26472654
-0.26078238
-0.25646864
-0.25181275
-0.24683893
-0.24156802
-0.23602502
-0.23025969
-0.22428977
-0.21781617
-0.21058113
-0.28081553
-0.28309999
-0.28383813
-0.28331415
-0.28202513
-0.28011418
-0.27765337
-0.27470942
-0.27133437
-0.26756666
-0.26343622
-0.25896814
-0.25418434
-0.24910333
-0.24373913
-0.23811158
-0.23228239
-0.22627393
-0.21954069
-0.21145514
-0.29055662
-0.29138735
-0.29102394
-0.2896827
-0.2876918
-0.28517359
-0.28219694
-0.27881729
-0.27507526
-0.27100005
-0.26661335
-0.26193197
-0.25697029
-0.25173993
-0.24624676
-0.24050228
-0.23457616
-0.22850396
-0.22148102
-0.21236502
-0.30203858
-0.30118599
-0.29951976
-0.29718921
-0.29433678
-0.2910654
-0.28744298
-0.28351393
-0.27930691
-0.27483944
-0.27012241
-0.26516337
-0.2599679
-0.25453918
-0.24887396
-0.24297241
-0.23690424
-0.23072439
-0.22339708
-0.21314383
-0.31498249
-0.31227087
-0.3091349
-0.30566402
-0.30180626
-0.29764831
-0.29326099
-0.28867732
-0.28391125
-0.27896781
-0.27384642
-0.26854334
-0.26305357
-0.25737073
-0.25148248
-0.24537719
-0.23911737
-0.23278061
-0.22516315
-0.21378128
-0.32917232
-0.32446695
-0.31972749
-0.31499324
-0.3100136
-0.30486196
-0.2996124
-0.29428571
-0.28888109
-0.28338916
-0.27779498
-0.27208055
-0.26622724
-0.26021659
-0.25402661
-0.24763674
-0.24110673
-0.23456014
-0.22674445
-0.21446557
-0.34445503
-0.33764183
-0.33118712
-0.3250902
-0.31889443
-0.31265864
-0.30646201
-0.30031262
-0.29419206
-0.28807332
-0.28192354
-0.27570629
-0.26938382
-0.26291738
-0.25626252
-0.24937139
-0.24226828
-0.23505939
-0.22648738
-0.21304989
-0.36073172
-0.35168778
-0.3434016
-0.33583742
-0.32831916
-0.32089083
-0.31363668
-0.30654976
-0.29959153
-0.29271573
-0.28587122
-0.27900483
-0.27206424
-0.26499801
-0.2577503
-0.25025669
-0.24246006
-0.23415378
-0.223687
-0.20801828
-0.20246659
-0.1935183
-0.18456506
-0.17567086
-0.166782
-0.15794017
-0.14919887
-0.14059317
-0.13215233
-0.12390497
-0.11587689
-0.10809028
-0.10056426
-0.093315209
-0.086356701
-0.079699625
-0.073352273
-0.067320448
-0.061607563
-0.056214746
-0.051140971
-0.046383191
-0.041936491
-0.037794256
-0.033948342
-0.03038927
-0.027106413
-0.024088192
-0.021322275
-0.018795765
-0.016495385
-0.014407657
-0.012519061
-0.010816198
-0.0092859264
-0.0079154935
-0.0066926662
-0.0056058303
-0.0046441689
-0.0037975854
-0.0030575238
-0.0024149803
-0.0018676846
-0.0013989946
-0.0010444927
-0.00069461479
-0.00068792274
-8.0126785e-05
-0.0017060537
0.0024523269
-0.20347663
-0.19413108
-0.18506879
-0.17618893
-0.16728205
-0.15841003
-0.14964431
-0.14101634
-0.13255293
-0.12428325
-0.11623337
-0.10842537
-0.10087837
-0.093608797
-0.086630306
-0.079953844
-0.073587767
-0.067537939
-0.061807824
-0.056398592
-0.051309249
-0.04653677
-0.042076252
-0.03792108
-0.034063105
-0.030492834
-0.027199617
-0.024171852
-0.021397173
-0.018862648
-0.016554963
-0.014460598
-0.012565993
-0.010857704
-0.0093225477
-0.0079477282
-0.0067209704
-0.0056306184
-0.0046658148
-0.0038164235
-0.0030738487
-0.0024290501
-0.0018797003
-0.0014091654
-0.0010527485
-0.00070153579
-0.00069132522
-8.5942785e-05
-0.0016914954
0.0024237396
-0.20559531
-0.19539914
-0.18611942
-0.17730824
-0.16837776
-0.15944506
-0.15063172
-0.14195973
-0.1334493
-0.12513171
-0.11703429
-0.10917899
-0.10158504
-0.094269207
-0.087245432
-0.08052488
-0.074116115
-0.068025187
-0.062255712
-0.056808983
-0.051684096
-0.046878088
-0.042386089
-0.038201495
-0.034316142
-0.030720503
-0.02740388
-0.024354605
-0.021560236
-0.019007756
-0.016683758
-0.014574623
-0.012666691
-0.010946415
-0.0094005091
-0.0080160752
-0.0067807381
-0.0056827447
-0.004711143
-0.0038557053
-0.003107745
-0.0024581371
-0.0019044362
-0.001430002
-0.0010696102
-0.00071554776
-0.00069831532
-9.7432523e-05
-0.0016629187
0.0023671788
-0.20866392
-0.19709105
-0.18749037
-0.17887815
-0.16995828
-0.16094889
-0.15208141
-0.14336048
-0.13479101
-0.1264094
-0.11824666
-0.1103248
-0.10266334
-0.095279906
-0.08818913
-0.081402703
-0.074929649
-0.068776424
-0.062946981
-0.057442879
-0.052263419
-0.047405783
-0.0428652
-0.038635113
-0.034707368
-0.031072407
-0.027719474
-0.024636812
-0.021811875
-0.019231518
-0.016882195
-0.014750141
-0.012821539
-0.011082684
-0.0095201295
-0.0081208196
-0.0068722223
-0.005762432
-0.0047803486
-0.0039156005
-0.0031593602
-0.0025023688
-0.0019420014
-0.0014615983
-0.0010951582
-0.00073671374
-0.00070899199
-0.00011454806
-0.0016210713
0.002283869
-0.2124558
-0.19893631
-0.18891242
-0.18070098
-0.17187709
-0.16279368
-0.15388315
-0.1451296
-0.13650653
-0.12805755
-0.11982219
-0.11182356
-0.10408164
-0.096615481
-0.089441123
-0.082571283
-0.07601583
-0.06978196
-0.063874244
-0.058294744
-0.053043153
-0.048116953
-0.043511584
-0.039220627
-0.035235994
-0.031548141
-0.028146267
-0.025018534
-0.022152275
-0.019534196
-0.01715058
-0.014987473
-0.013030856
-0.011266818
-0.0096816971
-0.0082622266
-0.006995664
-0.0058698971
-0.0048736256
-0.0039962822
-0.0032288476
-0.0025618811
-0.0019925156
-0.0015040593
-0.0011294881
-0.00076510556
-0.00072350118
-0.00013718846
-0.0015670968
0.0021756954
-0.21662368
-0.20065443
-0.19011645
-0.18254356
-0.17396188
-0.16483608
-0.15590486
-0.14715311
-0.13850315
-0.13000018
-0.12169754
-0.11362283
-0.10579699
-0.098240987
-0.090973078
-0.084007772
-0.077356354
-0.071027224
-0.065025981
-0.059355531
-0.054016246
-0.049006139
-0.044321049
-0.03995484
-0.035899606
-0.032145892
-0.028682913
-0.025498778
-0.02258071
-0.019915266
-0.017488537
-0.015286353
-0.013294459
-0.011498691
-0.0098851309
-0.0084402482
-0.0071510397
-0.0060051355
-0.0049909839
-0.0040977714
-0.0033162372
-0.0026367106
-0.0020560208
-0.001557431
-0.0011726542
-0.00080076594
-0.00074199769
-0.00016521236
-0.001502443
0.0020451121
-0.22077
-0.20206384
-0.19089073
-0.1841282
-0.17601214
-0.16694911
-0.15803145
-0.1493188
-0.14068501
-0.13215944
-0.12380784
-0.11566769
-0.10776328
-0.10011791
-0.092752782
-0.085685173
-0.078928575
-0.072493206
-0.066386212
-0.060611789
-0.055171358
-0.050063765
-0.045285496
-0.040830893
-0.036692386
-0.032860723
-0.029325215
-0.026073974
-0.023094147
-0.020372149
-0.017893878
-0.015644928
-0.013610783
-0.01177699
-0.010129331
-0.0086539708
-0.0073375969
-0.006167534
-0.0051319306
-0.004219679
-0.0034212285
-0.0027266333
-0.0021323574
-0.0016216099
-0.0012246059
-0.0008436738
-0.00076461838
-0.00019846891
-0.0014287595
0.0018950083
-0.22463393
-0.20356017
-0.1914596
-0.18526747
-0.17781364
-0.16904539
-0.16021933
-0.15157047
-0.14299014
-0.13447969
-0.12610392
-0.11791296
-0.10993885
-0.10220841
-0.094746197
-0.087573004
-0.080705329
-0.074155831
-0.067933705
-0.062044873
-0.056492178
-0.051275615
-0.046392572
-0.041838084
-0.037605081
-0.033684653
-0.030066307
-0.026738227
-0.023687534
-0.020900527
-0.018362922
-0.016060074
-0.013977183
-0.012099488
-0.010412437
-0.008901851
-0.0075540686
-0.0063560657
-0.0052956472
-0.0043613667
-0.0035433387
-0.0028312995
-0.0022212883
-0.0016964561
-0.0012852888
-0.00089383149
-0.00079155243
-0.00023686633
-0.0013478461
0.0017286739
-0.22587325
-0.20538807
-0.19251861
-0.18589766
-0.17893125
-0.17074461
-0.16219502
-0.15367527
-0.14520195
-0.13676854
-0.12842269
-0.12022225
-0.11221037
-0.10441971
-0.096878787
-0.089612487
-0.082641178
-0.075980793
-0.069643306
-0.06363703
-0.057966834
-0.052634394
-0.04763847
-0.042975188
-0.03863832
-0.034619574
-0.030908879
-0.027494677
-0.024364195
-0.021503718
-0.018898849
-0.016534745
-0.014396345
-0.012468578
-0.010736549
-0.0091857081
-0.0078020144
-0.0065720567
-0.0054832535
-0.0045237746
-0.0036833526
-0.0029513596
-0.0023233487
-0.0017823982
-0.0013550592
-0.00095146191
-0.00082318715
-0.00028011347
-0.0012618608
0.0015503779
-0.21601262
-0.20463417
-0.19363634
-0.18554897
-0.17849319
-0.17108081
-0.16313745
-0.15498359
-0.14679815
-0.13860721
-0.13043846
-0.1223494
-0.11439552
-0.10661976
-0.099057936
-0.091741614
-0.084697456
-0.07794693
-0.071506733
-0.065389219
-0.059602688
-0.054151686
-0.049037334
-0.044257667
-0.039807967
-0.035681102
-0.031867854
-0.028357253
-0.025136892
-0.022193231
-0.01951189
-0.017077918
-0.014876046
-0.012890912
-0.011107276
-0.0095102024
-0.0080852382
-0.0068185443
-0.0056971071
-0.0047086615
-0.0038425061
-0.0030875941
-0.0024389347
-0.001879488
-0.0014337475
-0.0010160405
-0.00085933251
-0.00032655251
-0.0011733639
0.0013656227
-0.19387466
-0.19858178
-0.19330864
-0.18440441
-0.17690189
-0.1698942
-0.16239409
-0.15453708
-0.14658901
-0.13861308
-0.13062887
-0.12268926
-0.11485354
-0.10716904
-0.099674766
-0.092405213
-0.085390015
-0.078653429
-0.072214671
-0.06608836
-0.060284819
-0.054810384
-0.049667742
-0.044856282
-0.040372446
-0.03621008
-0.032360786
-0.028814261
-0.025558636
-0.022580791
-0.019866662
-0.017401527
-0.015170264
-0.013157597
-0.011348316
-0.0097274686
-0.0082805475
-0.0069936297
-0.0058535897
-0.0048480345
-0.0039660848
-0.0031965788
-0.0025340634
-0.0019619348
-0.0015019269
-0.0010746794
-0.00089045854
-0.00037295285
-0.0010829359
0.0011823117
-0.18332586
-0.18914683
-0.18567396
-0.17693535
-0.16973261
-0.16347666
-0.15677702
-0.14963389
-0.14234318
-0.13497993
-0.12755389
-0.12011363
-0.11272087
-0.10542666
-0.098273558
-0.091299877
-0.084539293
-0.078020072
-0.071765269
-0.065793138
-0.060117422
-0.054747629
-0.049689375
-0.044944727
-0.040512567
-0.036388947
-0.032567451
-0.029039546
-0.02579493
-0.022821867
-0.020107498
-0.017638144
-0.015399581
-0.013377293
-0.011556706
-0.0099233973
-0.0084632874
-0.0071627951
-0.0060090503
-0.0049898624
-0.0040944235
-0.0033117532
-0.002635956
-0.0020514451
-0.0015762407
-0.0011399547
-0.00092403523
-0.00042746536
-0.00098207145
0.00098467643
-0.17458775
-0.17780927
-0.17553232
-0.16851175
-0.16215943
-0.15659738
-0.15066453
-0.14425143
-0.13762475
-0.1308796
-0.12402786
-0.11711192
-0.11019227
-0.10332181
-0.096545199
-0.089903136
-0.083432205
-0.077163888
-0.071124534
-0.06533568
-0.059814288
-0.054572972
-0.049620291
-0.044961081
-0.040596797
-0.036525863
-0.032744027
-0.029244722
-0.02601941
-0.023057926
-0.0203488
-0.01787957
-0.015637064
-0.013607673
-0.01177759
-0.010133034
-0.0086604546
-0.0073466975
-0.0061792206
-0.0051460967
-0.0042366302
-0.0034400719
-0.0027500572
-0.0021521465
-0.0016602756
-0.0012139387
-0.00096305388
-0.00048885914
-0.00087372081
0.00076820384
-0.16490969
-0.16552251
-0.16369115
-0.15874666
-0.15362426
-0.14880485
-0.14366311
-0.13806172
-0.13217808
-0.12611302
-0.1198942
-0.11356206
-0.10717373
-0.10078274
-0.094435602
-0.088175003
-0.082040022
-0.076065108
-0.070279799
-0.064708918
-0.059372725
-0.054287091
-0.049463725
-0.044910465
-0.040631599
-0.036628189
-0.032898422
-0.029437957
-0.026240274
-0.023297022
-0.020598344
-0.018133198
-0.015889654
-0.013855175
-0.012016869
-0.010361728
-0.0088768413
-0.0075495785
-0.0063678043
-0.0053199194
-0.004395391
-0.0035837361
-0.002878142
-0.0022653196
-0.0017550989
-0.001296835
-0.0010087537
-0.00055461213
-0.00076544259
0.00054295356
-0.1543406
-0.15307352
-0.1512642
-0.14803458
-0.14420541
-0.14019084
-0.13584612
-0.13108869
-0.12600201
-0.12066913
-0.11513319
-0.10943722
-0.10363418
-0.097776482
-0.091911562
-0.086083366
-0.080332722
-0.074696472
-0.069206989
-0.063892164
-0.058775471
-0.053876054
-0.049208877
-0.044784955
-0.040611622
-0.036692829
-0.033029463
-0.029619684
-0.026459264
-0.023541923
-0.02085967
-0.018403117
-0.016161792
-0.014124422
-0.01227921
-0.010614072
-0.0091168724
-0.0077756208
-0.0065786858
-0.0055148745
-0.0045738826
-0.00374553
-0.0030226107
-0.0023929284
-0.001862385
-0.0013896783
-0.0010626342
-0.00062409504
-0.00066327473
0.0003170301
-0.14255414
-0.14049523
-0.13880044
-0.13684515
-0.13418682
-0.13100824
-0.12745064
-0.12351785
-0.11923197
-0.11464884
-0.10981938
-0.10478827
-0.099603927
-0.094316393
-0.08897294
-0.083617739
-0.078292254
-0.073034737
-0.067879627
-0.062857312
-0.057994061
-0.05331201
-0.048829226
-0.044559851
-0.040514303
-0.036699521
-0.033119247
-0.029774325
-0.026663022
-0.023781353
-0.02112341
-0.018681679
-0.016447352
-0.014410623
-0.012560965
-0.010887386
-0.0093786762
-0.0080236109
-0.0068111768
-0.0057306796
-0.0047721259
-0.003925683
-0.0031838355
-0.0025353896
-0.0019826495
-0.0014927851
-0.0011256775
-0.00069686656
-0.00057320963
9.9085989e-05
-0.12986018
-0.12793043
-0.12658373
-0.12554053
-0.12384583
-0.12147691
-0.11867961
-0.11552547
-0.11201134
-0.10816677
-0.1040417
-0.099682519
-0.095132177
-0.090435595
-0.085638684
-0.080785087
-0.075915912
-0.071069678
-0.06628188
-0.061584593
-0.057006222
-0.05257138
-0.048300856
-0.044211659
-0.04031714
-0.036627169
-0.033148351
-0.029884285
-0.02683585
-0.024001502
-0.021377581
-0.018958627
-0.016737677
-0.014706572
-0.012856229
-0.011176914
-0.00965849
-0.0082906374
-0.0070630815
-0.0059657295
-0.0049889933
-0.0041234406
-0.0033613556
-0.0026924355
-0.0021158479
-0.001606083
-0.0011985589
-0.00077251131
-0.00050114754
-0.00010156888
-0.11697445
-0.11562489
-0.11476686
-0.11437947
-0.11344032
-0.11180662
-0.10972009
-0.10728312
-0.10448896
-0.10134946
-0.097906695
-0.094205004
-0.090284227
-0.086183668
-0.081944401
-0.077608338
-0.073215612
-0.068804067
-0.064409183
-0.060063744
-0.055797468
-0.051636758
-0.047604554
-0.043720293
-0.03999993
-0.036456039
-0.033097956
-0.02993198
-0.026961604
-0.024187779
-0.021609191
-0.019222549
-0.017022879
-0.015003814
-0.01315787
-0.01147672
-0.0099514454
-0.0085727665
-0.0073312724
-0.0062175802
-0.0052226109
-0.0043373934
-0.0035541402
-0.0028633234
-0.0022615255
-0.0017292442
-0.0012816538
-0.00085081926
-0.00045210853
-0.00027608475
-0.10444014
-0.10375711
-0.10341496
-0.1035216
-0.10317051
-0.10217411
-0.10072917
-0.098939404
-0.096801348
-0.094317308
-0.091519612
-0.088447234
-0.085135515
-0.081619421
-0.077935445
-0.074121126
-0.070214186
-0.066251103
-0.062266502
-0.058292925
-0.054360511
-0.050496658
-0.046725778
-0.043069157
-0.039544887
-0.036167878
-0.032949926
-0.029899842
-0.027023628
-0.024324683
-0.021804042
-0.019460637
-0.017291559
-0.015292337
-0.013457204
-0.011779363
-0.010251244
-0.0088647314
-0.0076113992
-0.0064826828
-0.0054701201
-0.0045652699
-0.0037604126
-0.0030466928
-0.0024187033
-0.0018616099
-0.001374923
-0.00093179441
-0.00042945592
-0.00041731908
-0.092542866
-0.092445905
-0.092572169
-0.093066448
-0.093176708
-0.092715157
-0.091830863
-0.090613775
-0.089062717
-0.087175235
-0.084974575
-0.082492687
-0.079759648
-0.076805326
-0.073661757
-0.070362351
-0.066940875
-0.063431131
-0.059866131
-0.056277409
-0.052694682
-0.049145536
-0.045655123
-0.042245932
-0.03893763
-0.035746996
-0.032687908
-0.029771399
-0.027005761
-0.024396701
-0.021947524
-0.01965935
-0.017531353
-0.015561003
-0.013744322
-0.012076137
-0.010550321
-0.0091600342
-0.007897941
-0.0067563983
-0.0057276656
-0.0048039056
-0.00397761
-0.0032405201
-0.0025858324
-0.0020021381
-0.0014778349
-0.0010155482
-0.00043431581
-0.0005209649
-0.081422968
-0.081781999
-0.082290684
-0.083087555
-0.083558654
-0.083534209
-0.083125218
-0.08240379
-0.081368329
-0.080013467
-0.078354801
-0.07641692
-0.074224134
-0.071801041
-0.069174571
-0.066373756
-0.063428505
-0.060369014
-0.057225599
-0.054028038
-0.050804913
-0.047583249
-0.044388212
-0.041242819
-0.038167714
-0.035181015
-0.03229823
-0.029532241
-0.026893335
-0.024389298
-0.022025546
-0.019805288
-0.017729721
-0.01579825
-0.014008707
-0.012357587
-0.010840281
-0.0094512996
-0.0081844891
-0.0070332172
-0.0059905623
-0.0050493665
-0.0042024723
-0.0034421753
-0.0027608307
-0.0021493985
-0.0015893364
-0.0011021442
-0.00046528645
-0.0005863856
-0.071140893
-0.071827862
-0.072622912
-0.073644819
-0.074391085
-0.074713771
-0.074695751
-0.074392549
-0.073800476
-0.072911747
-0.071735633
-0.070289797
-0.06859268
-0.066663563
-0.064524188
-0.062198719
-0.059712869
-0.057093157
-0.054366558
-0.051560233
-0.048700937
-0.045814474
-0.04292534
-0.040056423
-0.037228727
-0.03446115
-0.031770335
-0.029170582
-0.026673816
-0.024289611
-0.022025262
-0.0198859
-0.017874635
-0.015992735
-0.014239814
-0.012614044
-0.011112362
-0.0097306814
-0.0084640932
-0.0073070503
-0.0062535347
-0.0052971411
-0.004431193
-0.0036485336
-0.0029411644
-0.0023015953
-0.001707867
-0.0011914315
-0.00051854078
-0.00061690651
-0.06170856
-0.06261628
-0.063609023
-0.064784958
-0.065730961
-0.06631958
-0.066612826
-0.066652486
-0.066432417
-0.065942689
-0.06518735
-0.06417793
-0.062927299
-0.06144957
-0.059761395
-0.057882025
-0.055832633
-0.053635743
-0.051314801
-0.048893837
-0.046397095
-0.043848529
-0.041271354
-0.038687704
-0.036118334
-0.033582355
-0.031097024
-0.028677591
-0.026337213
-0.024086906
-0.021935564
-0.019890013
-0.017955108
-0.016133858
-0.014427589
-0.012836106
-0.011357887
-0.0099902676
-0.0087296239
-0.0075715466
-0.0065109905
-0.0055423713
-0.0046596109
-0.0038561234
-0.0031239633
-0.0024566171
-0.0018314167
-0.001282913
-0.00058836339
-0.00061937353
-0.053111182
-0.054155511
-0.055271442
-0.056539447
-0.057619502
-0.058402331
-0.058934135
-0.059245811
-0.059329172
-0.059172597
-0.058775917
-0.05814547
-0.057289144
-0.056216265
-0.054938686
-0.053470897
-0.051829527
-0.050032885
-0.048100631
-0.046053423
-0.043912549
-0.041699552
-0.039435805
-0.037142119
-0.034838428
-0.032543493
-0.030274652
-0.028047619
-0.025876339
-0.023772886
-0.02174742
-0.01980819
-0.017961573
-0.016212156
-0.014562848
-0.013015014
-0.011568627
-0.01022243
-0.0089740982
-0.0078203914
-0.0067572897
-0.0057800892
-0.0048834126
-0.004061292
-0.0033061534
-0.0026121118
-0.0019576322
-0.0013756887
-0.00066805291
-0.00060296582
-0.045317981
-0.046434634
-0.047614511
-0.048923578
-0.050082434
-0.050997882
-0.051704062
-0.052223428
-0.052546445
-0.052660412
-0.052561933
-0.052253147
-0.051737726
-0.051020794
-0.05010987
-0.049015027
-0.047748544
-0.046324563
-0.044758836
-0.043068452
-0.041271501
-0.03938673
-0.037433192
-0.03542988
-0.033395383
-0.03134758
-0.029303373
-0.027278441
-0.025287054
-0.023341927
-0.021454116
-0.019632974
-0.017886136
-0.01621955
-0.014637545
-0.013142921
-0.011737065
-0.010420083
-0.0091909295
-0.0080475449
-0.0069869666
-0.0060054204
-0.0050983145
-0.0042603604
-0.0034845895
-0.0027655781
-0.0020839614
-0.0014684925
-0.00075100331
-0.0005774839
-0.038287573
-0.039428749
-0.040627467
-0.041937838
-0.043130941
-0.044127832
-0.044953546
-0.045624129
-0.046129404
-0.046456246
-0.046598989
-0.046556556
-0.046329252
-0.045918712
-0.045328726
-0.04456545
-0.043637183
-0.042554132
-0.041328236
-0.039972972
-0.038503095
-0.036934337
-0.035283103
-0.033566158
-0.031800305
-0.03000207
-0.028187426
-0.026371537
-0.024568535
-0.022791334
-0.021051494
-0.019359115
-0.017722783
-0.01614955
-0.014644954
-0.013213068
-0.011856572
-0.01057685
-0.009374093
-0.0082474024
-0.0071948854
-0.0062137312
-0.0053001997
-0.0044497466
-0.0036561672
-0.0029144618
-0.0022078182
-0.0015598056
-0.00083169646
-0.00055154362
-0.031972524
-0.033103928
-0.034288544
-0.035570772
-0.0367637
-0.037800975
-0.038700868
-0.039474667
-0.040112169
-0.040600412
-0.040932324
-0.041104548
-0.041114865
-0.040962181
-0.040647251
-0.040172923
-0.039544016
-0.038767183
-0.037850816
-0.036804917
-0.035640918
-0.034371452
-0.033010101
-0.031571126
-0.030069195
-0.02851909
-0.026935431
-0.02533242
-0.023723604
-0.022121666
-0.020538254
-0.018983841
-0.017467624
-0.015997464
-0.01457986
-0.013219949
-0.011921546
-0.010687196
-0.0095182411
-0.0084149011
-0.007376339
-0.0064007215
-0.0054852055
-0.0046260484
-0.0038179061
-0.0030562441
-0.002326735
-0.0016480101
-0.00090633918
-0.00053118566
-0.02632278
-0.02742095
-0.028568563
-0.029802047
-0.030969407
-0.032015337
-0.032953139
-0.033790651
-0.034518106
-0.035123186
-0.035598144
-0.035938156
-0.036139271
-0.036198409
-0.036114003
-0.035886248
-0.03551707
-0.035010063
-0.034370457
-0.033605064
-0.032722164
-0.03173135
-0.030643341
-0.029469762
-0.028222922
-0.026915565
-0.025560618
-0.024170939
-0.022759088
-0.021337108
-0.019916332
-0.018507222
-0.01711923
-0.015760704
-0.014438817
-0.013159534
-0.011927604
-0.010746574
-0.0096188269
-0.00854562
-0.0075271308
-0.0065624937
-0.0056497823
-0.0047860985
-0.0039670069
-0.0031885159
-0.002438477
-0.0017315328
-0.00097298777
-0.00051928912
-0.021287964
-0.022337948
-0.023433738
-0.024605177
-0.025729295
-0.026760395
-0.027708151
-0.028577936
-0.029360748
-0.030045245
-0.030623577
-0.031090135
-0.031439914
-0.031668528
-0.031772756
-0.031750803
-0.031602311
-0.031328368
-0.030931519
-0.030415775
-0.029786559
-0.029050619
-0.0282159
-0.027291397
-0.026286967
-0.025213142
-0.024080909
-0.02290149
-0.021686123
-0.020445848
-0.019191313
-0.017932597
-0.016679052
-0.015439176
-0.014220514
-0.013029588
-0.011871849
-0.010751661
-0.0096722921
-0.0086359291
-0.0076436904
-0.0066956401
-0.0057907609
-0.0049270192
-0.0041009012
-0.0033090422
-0.0025411032
-0.0018089468
-0.0010311919
-0.00051588066
-0.016819261
-0.017812642
-0.018848127
-0.019950061
-0.021019626
-0.022019433
-0.022956494
-0.023834442
-0.024645225
-0.025378683
-0.026027277
-0.026585135
-0.027046753
-0.027407009
-0.02766163
-0.027807432
-0.027842373
-0.027765593
-0.027577472
-0.027279673
-0.026875143
-0.026368084
-0.025763881
-0.025069011
-0.024290921
-0.023437874
-0.022518786
-0.021543047
-0.020520319
-0.019460352
-0.018372786
-0.017266983
-0.016151856
-0.015035727
-0.013926202
-0.012830074
-0.011753248
-0.01070068
-0.0096763465
-0.0086832223
-0.0077232622
-0.0067973919
-0.0059054668
-0.0050463113
-0.0042173211
-0.0034158296
-0.0026329866
-0.0018790224
-0.0010813715
-0.00051909056
-0.012870477
-0.013803753
-0.014775314
-0.015804851
-0.016813683
-0.017771559
-0.018683527
-0.019551975
-0.020369883
-0.021128363
-0.021820456
-0.022440401
-0.022982613
-0.023441691
-0.023812801
-0.024091897
-0.024275789
-0.024362203
-0.024349865
-0.024238569
-0.024029215
-0.023723826
-0.023325526
-0.022838497
-0.022267909
-0.021619821
-0.020901062
-0.020119091
-0.019281845
-0.018397572
-0.017474658
-0.016521466
-0.015546174
-0.014556623
-0.013560184
-0.012563638
-0.011573075
-0.010593815
-0.0096303394
-0.0086862409
-0.0077641795
-0.006865846
-0.0059919032
-0.005142
-0.0043144103
-0.003507214
-0.0027128234
-0.0019407482
-0.0011242115
-0.00052629927
-0.0093996023
-0.010272807
-0.011180396
-0.012138062
-0.013083941
-0.013993901
-0.014871503
-0.015718236
-0.016528103
-0.017293487
-0.018008159
-0.018666717
-0.019263782
-0.019794008
-0.020252386
-0.020634433
-0.020936264
-0.021154664
-0.021287178
-0.021332191
-0.021288998
-0.021157841
-0.020939933
-0.020637452
-0.020253516
-0.019792135
-0.019258132
-0.01865705
-0.01799504
-0.017278732
-0.016515091
-0.015711274
-0.014874481
-0.014011815
-0.013130141
-0.012235961
-0.011335299
-0.010433596
-0.0095356249
-0.0086454131
-0.0077661713
-0.0069002339
-0.0060489806
-0.0052128256
-0.0043908738
-0.0035819735
-0.0027796601
-0.0019933518
-0.0011602852
-0.00053504967
-0.0063686327
-0.0071844311
-0.0080307008
-0.0089196657
-0.0098035251
-0.01066336
-0.011501583
-0.012319009
-0.013110596
-0.013869939
-0.014591588
-0.015270638
-0.0159021
-0.016480905
-0.017002143
-0.017461215
-0.017853904
-0.018176444
-0.018425607
-0.018598791
-0.018694097
-0.018710387
-0.01864733
-0.018505432
-0.018286043
-0.017991346
-0.017624325
-0.017188709
-0.016688899
-0.016129883
-0.015517125
-0.014856447
-0.014153904
-0.013415662
-0.012647859
-0.011856487
-0.011047268
-0.010225543
-0.0093961628
-0.0085633982
-0.0077308448
-0.0069013415
-0.0060768739
-0.0052585401
-0.0044462129
-0.0036395025
-0.0028329848
-0.0020363631
-0.0011899678
-0.0005435287
-0.0037453594
-0.0045079579
-0.0052972324
-0.0061223376
-0.0069472294
-0.0077574207
-0.0085544163
-0.0093384983
-0.010105482
-0.010850063
-0.011567563
-0.012253627
-0.012903747
-0.013513263
-0.014077538
-0.014592083
-0.015052615
-0.015455118
-0.015795924
-0.016071797
-0.016280009
-0.016418408
-0.01648548
-0.016480395
-0.016403041
-0.016254047
-0.016034776
-0.015747317
-0.015394439
-0.014979546
-0.014506605
-0.013980056
-0.013404721
-0.012785694
-0.012128229
-0.011437626
-0.010719111
-0.0099777224
-0.0092181994
-0.0084448703
-0.0076615485
-0.0068714309
-0.0060769848
-0.0052798939
-0.0044807216
-0.0036798061
-0.0028727037
-0.0020695916
-0.0012134593
-0.00055060972
-0.0015041123
-0.0022193135
-0.0029575454
-0.0037253373
-0.0044964084
-0.005259985
-0.0060168335
-0.0067668039
-0.0075064496
-0.0082314313
-0.0089377839
-0.0096216969
-0.010279168
-0.010906
-0.011497925
-0.012050701
-0.012560157
-0.013022244
-0.013433106
-0.013789151
-0.014087127
-0.014324186
-0.014497955
-0.01460659
-0.01464883
-0.014624033
-0.014532205
-0.01437401
-0.014150767
-0.013864429
-0.013517544
-0.013113212
-0.012655008
-0.012146907
-0.011593189
-0.010998347
-0.010366972
-0.0097036498
-0.0090128436
-0.0082987813
-0.0075653394
-0.0068159304
-0.0060533756
-0.0052798352
-0.0044964721
-0.003704293
-0.0028997694
-0.0020936159
-0.0012312667
-0.00055592002
0.00037921521
-0.00029440957
-0.00098780822
-0.0017051335
-0.0024281585
-0.0031492177
-0.0038684761
-0.0045854179
-0.0052972086
-0.0060003292
-0.0066914407
-0.0073672333
-0.0080241864
-0.0086585628
-0.0092664974
-0.0098440596
-0.010387292
-0.01089225
-0.011355061
-0.011771982
-0.012139467
-0.01245423
-0.01271331
-0.012914132
-0.013054569
-0.013132989
-0.013148304
-0.013099999
-0.012988155
-0.012813455
-0.012577181
-0.01228119
-0.01192787
-0.011520097
-0.011061162
-0.010554696
-0.010004577
-0.0094148351
-0.0087895412
-0.0081326946
-0.0074481046
-0.0067392698
-0.0060092429
-0.0052605485
-0.004494848
-0.0037137361
-0.0029145181
-0.0021084268
-0.001243206
-0.00055896325
0.0019018067
0.0012619604
0.00060537683
-7.0346508e-05
-0.00075340028
-0.0014385632
-0.0021255042
-0.0028134106
-0.0034999379
-0.0041822316
-0.0048574705
-0.0055227715
-0.0061750359
-0.0068109435
-0.0074270086
-0.0080196216
-0.0085850765
-0.0091196043
-0.0096194152
-0.01008075
-0.010499934
-0.010873435
-0.011197922
-0.011470328
-0.01168791
-0.011848311
-0.011949607
-0.011990361
-0.011969663
-0.011887151
-0.011743034
-0.011538093
-0.011273671
-0.010951649
-0.010574398
-0.010144724
-0.0096657979
-0.0091410684
-0.0085741647
-0.0079687892
-0.0073285995
-0.0066570859
-0.005957432
-0.0052324235
-0.0044841174
-0.0037145996
-0.0029219048
-0.0021177125
-0.0012518817
-0.00056105416
0.0031044242
0.0024923547
0.0018659039
0.0012242959
0.00057431572
-8.0773556e-05
-0.00074025598
-0.0014030682
-0.0020672368
-0.002730425
-0.003390222
-0.0040440885
-0.0046892717
-0.0053228012
-0.0059415196
-0.0065421083
-0.0071211071
-0.0076749393
-0.0081999451
-0.0086924214
-0.0091486675