/*--------------------------------*- C++ -*----------------------------------*\
  =========                 |
  \\      /  F ield         | OpenFOAM: The Open Source CFD Toolbox
   \\    /   O peration     | Website:  https://openfoam.org
    \\  /    A nd           | Version:  6
     \\/     M anipulation  |
\*---------------------------------------------------------------------------*/
FoamFile
{
    version     2.0;
    format      ascii;
    class       volScalarField;
    location    "347";
    object      pMean;
}
// * * * * * * * * * * * * * * * * * * * * * * * * * * * * * * * * * * * * * //

dimensions      [0 2 -2 0 0 0 0];

internalField   nonuniform List<scalar> 
9200
(
-0.38716493
-0.37547184
-0.36504865
-0.35582336
-0.34680529
-0.33800258
-0.32949612
-0.32125186
-0.31320043
-0.30526877
-0.29738363
-0.28947647
-0.28149048
-0.27338774
-0.26515961
-0.25684412
-0.2485204
-0.24027837
-0.23313278
-0.23132505
-0.4053125
-0.3911693
-0.37880608
-0.36805656
-0.35765626
-0.3475818
-0.33790449
-0.32855992
-0.31944733
-0.31046837
-0.30153092
-0.29255481
-0.28347933
-0.27426895
-0.26491866
-0.25545749
-0.24591944
-0.23630788
-0.22730113
-0.22105088
-0.42383364
-0.40722441
-0.39297156
-0.38076987
-0.36904197
-0.35771497
-0.34683929
-0.33631317
-0.32600331
-0.31579079
-0.3055745
-0.29527654
-0.28484872
-0.27427537
-0.26357267
-0.25278401
-0.24195231
-0.23108967
-0.22059471
-0.21158167
-0.44228259
-0.42323235
-0.40715808
-0.39356582
-0.38052842
-0.36790758
-0.35572578
-0.34384433
-0.33210635
-0.32038855
-0.30860215
-0.29669544
-0.28465639
-0.27250994
-0.26031083
-0.24813322
-0.23604674
-0.22409191
-0.21253669
-0.20212512
-0.4600173
-0.4386348
-0.42085799
-0.40595154
-0.39161183
-0.37762514
-0.36398689
-0.35053325
-0.33710517
-0.32360266
-0.30997912
-0.29623692
-0.28242252
-0.26861615
-0.254918
-0.24143401
-0.22825561
-0.21544111
-0.20317908
-0.19198078
-0.47620192
-0.45270115
-0.43339893
-0.41726659
-0.40161565
-0.38615809
-0.37087588
-0.35560677
-0.34022427
-0.32468817
-0.30902649
-0.29331951
-0.27768484
-0.26225904
-0.24717938
-0.23256904
-0.2185221
-0.20509257
-0.19240612
-0.18080272
-0.48982142
-0.46453473
-0.44394539
-0.42668618
-0.40970217
-0.39264812
-0.37552155
-0.35820321
-0.34064389
-0.32290205
-0.30510762
-0.2874315
-0.27006048
-0.25317382
-0.23692503
-0.22143116
-0.20676568
-0.19295663
-0.18006978
-0.16830811
-0.49970434
-0.4730971
-0.45153205
-0.43326905
-0.41493805
-0.3961717
-0.37702666
-0.35747927
-0.33760561
-0.3175969
-0.29770112
-0.27817824
-0.25926875
-0.24117085
-0.22402826
-0.20792823
-0.19290449
-0.1789452
-0.16605746
-0.15432873
-0.50450287
-0.47710565
-0.45486466
-0.43567162
-0.41594155
-0.39534806
-0.37406729
-0.35222794
-0.33006984
-0.3079311
-0.28616987
-0.26511166
-0.24501944
-0.22607906
-0.20839849
-0.19201706
-0.17691854
-0.1630474
-0.15035622
-0.13883334
-0.50286486
-0.47513901
-0.45239003
-0.43222405
-0.41098931
-0.38848441
-0.36506973
-0.34107071
-0.31690288
-0.29303271
-0.26989013
-0.24782029
-0.22706596
-0.2077682
-0.18997948
-0.17368323
-0.1588142
-0.14527917
-0.1329835
-0.12182906
-0.27130377
-0.27582456
-0.27809384
-0.27863362
-0.27819561
-0.27695779
-0.27500839
-0.27243872
-0.26932243
-0.26571569
-0.2616641
-0.25720667
-0.25237793
-0.24720937
-0.24173067
-0.23597216
-0.22996625
-0.22373494
-0.21727849
-0.21068517
-0.27413466
-0.27822858
-0.28018524
-0.28050407
-0.27988202
-0.27848836
-0.27640931
-0.27373217
-0.27052683
-0.26684646
-0.26273414
-0.25822666
-0.25335658
-0.24815329
-0.24264379
-0.2368573
-0.23083363
-0.22459315
-0.21802835
-0.21111288
-0.27965154
-0.2829124
-0.2842607
-0.28414746
-0.28316475
-0.28146633
-0.27913456
-0.27624894
-0.27287202
-0.26905107
-0.2648241
-0.26022347
-0.25527778
-0.25001241
-0.24444936
-0.23861482
-0.23255985
-0.2263038
-0.21954598
-0.21202307
-0.28759891
-0.28966982
-0.29013894
-0.28939066
-0.28787213
-0.28571737
-0.28300427
-0.27980177
-0.27616223
-0.27212469
-0.26771995
-0.26297395
-0.2579095
-0.25254608
-0.24689872
-0.24098818
-0.23487713
-0.22858977
-0.22157957
-0.21320829
-0.29765511
-0.298242
-0.29759433
-0.29602082
-0.29379596
-0.29103293
-0.28780588
-0.28417164
-0.28017061
-0.27583209
-0.27117818
-0.2662262
-0.26099111
-0.25548524
-0.24971533
-0.24369361
-0.23749027
-0.23114293
-0.22384899
-0.2144533
-0.30948661
-0.30836053
-0.30639495
-0.30382306
-0.30073065
-0.29721161
-0.29333856
-0.28915655
-0.28469337
-0.27996614
-0.27498573
-0.26975978
-0.26429415
-0.2585925
-0.25265231
-0.24647445
-0.24012878
-0.23367233
-0.22607652
-0.21555326
-0.32279708
-0.3197858
-0.31633716
-0.31261558
-0.30851059
-0.30410027
-0.2994596
-0.29462149
-0.28959848
-0.28439476
-0.27900924
-0.27343795
-0.26767587
-0.26171692
-0.25554949
-0.24916279
-0.24261944
-0.23599904
-0.2281109
-0.21647106
-0.33735657
-0.33233075
-0.32726848
-0.3222749
-0.3170403
-0.31163006
-0.3061219
-0.30053593
-0.29486949
-0.28911191
-0.2832474
-0.27725743
-0.27112316
-0.2648264
-0.25834596
-0.25166246
-0.24483608
-0.23799242
-0.22989734
-0.21737087
-0.35300091
-0.34585254
-0.33906854
-0.33270478
-0.32624602
-0.31974377
-0.31328051
-0.30686315
-0.30047109
-0.29407579
-0.28764333
-0.28113667
-0.27451797
-0.26774896
-0.2607864
-0.25358416
-0.24616774
-0.23864565
-0.2297817
-0.21610186
-0.36962253
-0.36023374
-0.35161455
-0.34377646
-0.33598614
-0.32828114
-0.32074866
-0.31338032
-0.30613534
-0.29896592
-0.29182006
-0.28464427
-0.27738662
-0.26999682
-0.26242097
-0.25459737
-0.24647187
-0.23784293
-0.22708289
-0.21118762
-0.20321692
-0.1939074
-0.18461343
-0.17540614
-0.16622949
-0.1571245
-0.14814622
-0.13933042
-0.13070606
-0.12230128
-0.11414136
-0.10624769
-0.09863836
-0.091328487
-0.084330295
-0.077653175
-0.071303829
-0.065286401
-0.059602609
-0.054251873
-0.049231467
-0.044536682
-0.04016099
-0.036096236
-0.032332824
-0.028859918
-0.025665642
-0.022737285
-0.020061497
-0.017624486
-0.015412194
-0.013410481
-0.011605276
-0.0099827327
-0.0085293639
-0.0072321646
-0.0060787354
-0.0050573762
-0.004157263
-0.0033683574
-0.0026822678
-0.002090136
-0.0015902588
-0.0011656791
-0.00085498017
-0.0005424015
-0.00058924722
9.1015465e-06
-0.001767734
0.0026264199
-0.20436891
-0.19464403
-0.18523141
-0.17603338
-0.16683179
-0.1576889
-0.14867914
-0.13983451
-0.13118124
-0.12274808
-0.11456066
-0.10664027
-0.099004956
-0.091669909
-0.084647416
-0.077946917
-0.071575166
-0.065536354
-0.059832233
-0.05446225
-0.049423695
-0.044711862
-0.040320221
-0.036240601
-0.032463384
-0.028977704
-0.025771651
-0.022832473
-0.020146776
-0.017700719
-0.015480198
-0.013471019
-0.011659061
-0.010030425
-0.0085715735
-0.0072694511
-0.0061116093
-0.0050863004
-0.0041826546
-0.0033905886
-0.0027016663
-0.0021069884
-0.0016047914
-0.0011781176
-0.00086527662
-0.00055111963
-0.00059426252
2.0479398e-06
-0.0017544307
0.0025974722
-0.20674671
-0.19613956
-0.18649278
-0.17735528
-0.16811826
-0.15890093
-0.14983079
-0.1409302
-0.13221824
-0.12372594
-0.11548035
-0.10750263
-0.099810945
-0.092420833
-0.08534486
-0.078592678
-0.07217123
-0.066084872
-0.060335485
-0.054922609
-0.049843596
-0.04509377
-0.040666603
-0.036553904
-0.032746011
-0.029231994
-0.025999866
-0.023036782
-0.020329248
-0.017863312
-0.015624754
-0.013599264
-0.011772599
-0.010130741
-0.008660034
-0.0073473052
-0.0061799937
-0.0051462426
-0.0042350769
-0.0034363119
-0.0027414123
-0.0021413843
-0.0016343407
-0.001203301
-0.00088605814
-0.00056859009
-0.00060435651
-1.1839265e-05
-0.0017282226
0.0025401705
-0.21014075
-0.1981214
-0.18813452
-0.1791878
-0.16994852
-0.16063824
-0.15149846
-0.14253423
-0.13374867
-0.12517805
-0.11685342
-0.10879607
-0.10102448
-0.093555062
-0.086401129
-0.079572859
-0.073077648
-0.066920244
-0.061102843
-0.055625224
-0.050484908
-0.045677335
-0.041196032
-0.037032819
-0.033178002
-0.029620583
-0.026348478
-0.023348719
-0.020607669
-0.018111219
-0.015844978
-0.013794458
-0.011945236
-0.010283112
-0.0087942451
-0.0074652856
-0.0062834978
-0.0052368555
-0.0043142212
-0.0035052525
-0.002801261
-0.002193106
-0.0016787129
-0.0012410581
-0.00091717269
-0.00059467765
-0.00061944726
-3.2387351e-05
-0.0016896735
0.002455729
-0.2142694
-0.20027758
-0.18985102
-0.18129792
-0.17214399
-0.16274479
-0.15354665
-0.14453492
-0.13568074
-0.12702764
-0.11861554
-0.11046707
-0.1026012
-0.095035879
-0.087785883
-0.080862464
-0.074273886
-0.068025645
-0.062120551
-0.056558866
-0.051338481
-0.0464551
-0.04190243
-0.037672384
-0.033755294
-0.030140133
-0.026814729
-0.023765991
-0.020980119
-0.018442816
-0.016139485
-0.014055412
-0.012175944
-0.010486639
-0.0089734204
-0.0076227001
-0.0064215101
-0.0053575983
-0.0044196085
-0.0035969864
-0.0028808373
-0.0022618225
-0.001737616
-0.0012911323
-0.00095839805
-0.00062918065
-0.00063943443
-5.9314648e-05
-0.0016396954
0.0023460323
-0.21873903
-0.20229494
-0.19134508
-0.18342292
-0.17450423
-0.16505243
-0.15582105
-0.14679795
-0.13790334
-0.12918222
-0.12068858
-0.11244986
-0.10448621
-0.096817599
-0.089461138
-0.08242997
-0.075733838
-0.069379483
-0.06337076
-0.057708784
-0.052392114
-0.047416964
-0.042777411
-0.038465617
-0.034472056
-0.030785746
-0.027394487
-0.02428509
-0.021443604
-0.018855536
-0.016506059
-0.014380205
-0.012463047
-0.010739861
-0.0091962786
-0.0078184243
-0.0065930437
-0.0055076044
-0.0045504791
-0.0037108484
-0.0029795601
-0.0023470275
-0.00181061
-0.0013531439
-0.0010094126
-0.00067181667
-0.00066417888
-9.2262762e-05
-0.001579459
0.002213532
-0.22312337
-0.2039731
-0.19239032
-0.18526776
-0.17680959
-0.16741622
-0.15819043
-0.14919617
-0.14030658
-0.13155094
-0.12299572
-0.11467857
-0.1066233
-0.09885243
-0.091386178
-0.084240587
-0.077427722
-0.070956216
-0.064831524
-0.059056077
-0.053629495
-0.048548817
-0.043808749
-0.039401905
-0.035319054
-0.031549383
-0.028080742
-0.024899899
-0.021992782
-0.019344712
-0.016940626
-0.014765281
-0.012803446
-0.011040077
-0.0094604738
-0.008050424
-0.0067963391
-0.0056853572
-0.0047055298
-0.0038457238
-0.0030964804
-0.0024479179
-0.00189702
-0.0014265324
-0.0010697598
-0.00072221281
-0.0006934971
-0.00013084646
-0.001510307
0.0020611035
-0.22714496
-0.20569487
-0.19320701
-0.1866444
-0.17884173
-0.16974146
-0.1606032
-0.15166544
-0.14282042
-0.13406998
-0.12547972
-0.11710021
-0.10896336
-0.10109546
-0.093520293
-0.086257591
-0.079322561
-0.072726385
-0.066476637
-0.060577524
-0.055030112
-0.049832596
-0.044980574
-0.040467331
-0.03628411
-0.032420398
-0.0288642
-0.025602315
-0.022620597
-0.019904207
-0.017437855
-0.015206016
-0.01319314
-0.011383834
-0.0097630324
-0.008316149
-0.0070292188
-0.0058890068
-0.0048831993
-0.0040003044
-0.0032305113
-0.0025636006
-0.0019961202
-0.0015107204
-0.0011389929
-0.00078002868
-0.00072726067
-0.00017474569
-0.0014337245
0.0018920024
-0.22846448
-0.20767235
-0.19446204
-0.18748147
-0.18016585
-0.17164699
-0.16278443
-0.15397255
-0.14522892
-0.13654823
-0.12797926
-0.11958058
-0.11139553
-0.10345655
-0.095791633
-0.088424847
-0.081375447
-0.074658039
-0.06828309
-0.062257279
-0.056583752
-0.051262415
-0.046290246
-0.041661613
-0.037368579
-0.033401219
-0.029747922
-0.026395698
-0.023330465
-0.020537323
-0.018000819
-0.01570519
-0.01363458
-0.011773247
-0.010105745
-0.0086170861
-0.0072928952
-0.0061195241
-0.0050842495
-0.0041751744
-0.0033820877
-0.0026943851
-0.0021081163
-0.0016058211
-0.0012171674
-0.0008452084
-0.00076558775
-0.00022345566
-0.0013516097
0.001710471
-0.21874501
-0.20699603
-0.19567369
-0.18727424
-0.17989614
-0.17216255
-0.16391322
-0.15547168
-0.14701671
-0.13857582
-0.13017868
-0.12188407
-0.11374814
-0.10581406
-0.098117536
-0.090689659
-0.083556282
-0.076737786
-0.070249554
-0.064102451
-0.058303156
-0.052854511
-0.047755891
-0.043003581
-0.038591147
-0.034509794
-0.030748728
-0.027295503
-0.024136348
-0.021256488
-0.018640435
-0.016272263
-0.014135857
-0.012215141
-0.01049428
-0.0089578617
-0.0075910638
-0.0063797795
-0.0053108263
-0.0043718475
-0.0035521774
-0.002840769
-0.0022331151
-0.0017115966
-0.0013038314
-0.00091695347
-0.00080804351
-0.00027505424
-0.0012664176
0.0015221248
-0.19684916
-0.20095728
-0.19529507
-0.18612064
-0.17832684
-0.17101149
-0.16321587
-0.15508124
-0.14687174
-0.13865167
-0.13044298
-0.12230012
-0.11428321
-0.10644002
-0.098809635
-0.091426289
-0.084318989
-0.077511078
-0.071020608
-0.064860835
-0.059040574
-0.053564545
-0.048433762
-0.043645921
-0.039195786
-0.035075573
-0.031275322
-0.027783265
-0.02458617
-0.021669678
-0.019018609
-0.016617252
-0.014449629
-0.012499734
-0.010751745
-0.0091902175
-0.0078002607
-0.0065676685
-0.0054791319
-0.0045221527
-0.0036858729
-0.0029591172
-0.0023368955
-0.001802018
-0.0013792743
-0.00098218583
-0.00084473436
-0.00032635013
-0.0011782261
0.0013351727
-0.18606719
-0.19128418
-0.18744989
-0.17850388
-0.17105608
-0.16452389
-0.15755717
-0.15016284
-0.14263329
-0.13504462
-0.12740959
-0.11977862
-0.11221446
-0.10476879
-0.097484569
-0.090400104
-0.083548723
-0.076958036
-0.070650189
-0.064642309
-0.058946842
-0.053571874
-0.048521515
-0.043796286
-0.039393514
-0.03530772
-0.03153101
-0.028053449
-0.024863423
-0.021947988
-0.019293193
-0.016884383
-0.014706482
-0.012744241
-0.01098247
-0.0094062401
-0.0080010752
-0.006753095
-0.0056492288
-0.0046771629
-0.0038260892
-0.0030850007
-0.0024484201
-0.00190021
-0.0014612378
-0.001054414
-0.00088360088
-0.0003864596
-0.0010776156
0.0011328587
-0.17704288
-0.17974223
-0.17713457
-0.16993683
-0.1633743
-0.15756529
-0.15139076
-0.14475018
-0.13790595
-0.13095368
-0.12390843
-0.11681473
-0.10973416
-0.10272042
-0.095818742
-0.089070044
-0.082510778
-0.076171997
-0.070079358
-0.06425349
-0.058710258
-0.053461037
-0.048513051
-0.043869734
-0.039531115
-0.035494195
-0.031753335
-0.028300636
-0.025126304
-0.022219009
-0.019566217
-0.017154511
-0.014969876
-0.012997971
-0.011224371
-0.0096347814
-0.0082152425
-0.0069522887
-0.0058331604
-0.0048457914
-0.0039794642
-0.0032233922
-0.0025715778
-0.0020090832
-0.0015524302
-0.0011349693
-0.00092731934
-0.00045343771
-0.00096786392
0.00091058446
-0.16707783
-0.16727277
-0.16514874
-0.16003849
-0.15473101
-0.14969329
-0.14433432
-0.13852714
-0.13244589
-0.12619142
-0.1197943
-0.1132972
-0.10675845
-0.10023251
-0.093766599
-0.087403808
-0.081183284
-0.075139245
-0.069300748
-0.063691904
-0.058332074
-0.053236072
-0.048414432
-0.043873743
-0.039616994
-0.035643936
-0.031951462
-0.028533974
-0.025383757
-0.022491339
-0.019845832
-0.01743526
-0.015246863
-0.013267375
-0.011483285
-0.0098810625
-0.0084473788
-0.0071692774
-0.0060343896
-0.0050309609
-0.0041484134
-0.0033762164
-0.002707869
-0.0021296427
-0.0016536635
-0.0012237781
-0.00097694673
-0.00052439028
-0.00085662848
0.00067857735
-0.15623394
-0.1546523
-0.15259678
-0.14920934
-0.14521377
-0.14100736
-0.13646874
-0.13152539
-0.12625922
-0.12075329
-0.11505334
-0.10920456
-0.1032612
-0.09727658
-0.091298993
-0.085372945
-0.079539501
-0.073835458
-0.06829289
-0.062939169
-0.057797055
-0.052884808
-0.048216383
-0.043801692
-0.039646901
-0.035754764
-0.032124969
-0.028754498
-0.025637989
-0.022768092
-0.020135817
-0.017730868
-0.015541952
-0.013557077
-0.011763819
-0.01014957
-0.0087017634
-0.0074080674
-0.0062566005
-0.0052359969
-0.0043358834
-0.0035460199
-0.0028594542
-0.0022636112
-0.0017663809
-0.0013216353
-0.0010337888
-0.00059842995
-0.00074985674
0.00044497725
-0.14420989
-0.14191925
-0.14002299
-0.13791946
-0.13510979
-0.13176245
-0.12803246
-0.12393198
-0.11948325
-0.11474223
-0.1097619
-0.1045892
-0.09927394
-0.093867087
-0.088416758
-0.082967804
-0.07756209
-0.072237984
-0.0670298
-0.061967581
-0.057077056
-0.052379649
-0.047892574
-0.043629016
-0.039598358
-0.035806455
-0.032255948
-0.028946584
-0.025875563
-0.023037878
-0.020426662
-0.018033514
-0.015848823
-0.013862067
-0.012062092
-0.010437377
-0.0089762641
-0.0076671759
-0.0064988298
-0.0054603397
-0.0045416175
-0.0037327564
-0.0030264355
-0.00241114
-0.0018908481
-0.0014286039
-0.0010986252
-0.00067485497
-0.00065343446
0.00021838341
-0.13132436
-0.12921902
-0.12770741
-0.12652843
-0.12469636
-0.12217852
-0.11922829
-0.11592333
-0.11226163
-0.10827327
-0.10400982
-0.099519519
-0.09484691
-0.090038082
-0.085139751
-0.08019626
-0.075249232
-0.070337454
-0.065496459
-0.06075814
-0.056150526
-0.051697682
-0.0474197
-0.043332777
-0.03944936
-0.035778351
-0.032325356
-0.029092961
-0.026081046
-0.023287098
-0.020706539
-0.018333048
-0.016158877
-0.014175155
-0.012372176
-0.010739664
-0.009267026
-0.007943572
-0.0067587389
-0.0057022216
-0.0047643107
-0.0039354827
-0.0032081568
-0.0025717602
-0.0020268252
-0.0015444033
-0.001171975
-0.0007530101
-0.00057322617
8.008468e-06
-0.11828548
-0.11679556
-0.11580058
-0.11529192
-0.11422945
-0.11246413
-0.11024208
-0.10766996
-0.10474249
-0.1014723
-0.097902913
-0.094080275
-0.090045583
-0.08583939
-0.081503854
-0.077081609
-0.072613319
-0.068137208
-0.063688937
-0.059301267
-0.0550037
-0.050822244
-0.046779299
-0.042893632
-0.039180429
-0.035651416
-0.032315034
-0.029176658
-0.026238856
-0.023501669
-0.020962907
-0.018618451
-0.01646256
-0.014488165
-0.012687159
-0.011050667
-0.0095693016
-0.0082333979
-0.007033236
-0.0059591987
-0.0050020578
-0.0041527313
-0.003403508
-0.0027446308
-0.0021737536
-0.0016685795
-0.0012541303
-0.00083250644
-0.00051431361
-0.0001774022
-0.10562594
-0.10482542
-0.10436748
-0.10436757
-0.10390702
-0.10279434
-0.10122942
-0.09931899
-0.097060953
-0.094458532
-0.091545316
-0.088361708
-0.084944337
-0.081329284
-0.077554095
-0.07365723
-0.069677048
-0.065650454
-0.061612355
-0.057595409
-0.053629686
-0.049742343
-0.045957401
-0.04229562
-0.038774457
-0.0354081
-0.032207558
-0.029180816
-0.02633303
-0.023666752
-0.021182195
-0.018877496
-0.016749004
-0.014791561
-0.012998779
-0.01136331
-0.0098771054
-0.0085316478
-0.0073181822
-0.0062278875
-0.0052521237
-0.0043823161
-0.0036107651
-0.0029284146
-0.0023306592
-0.0018004497
-0.0013450587
-0.00091325903
-0.00048024384
-0.00033076263
-0.093624004
-0.093426036
-0.093452869
-0.093854061
-0.09386783
-0.093303692
-0.092313238
-0.090988734
-0.089330103
-0.087335768
-0.085030103
-0.082446313
-0.079615655
-0.076569066
-0.073339542
-0.069961384
-0.066469129
-0.062897127
-0.059278743
-0.055645725
-0.052027849
-0.048452605
-0.044944895
-0.041526823
-0.038217558
-0.035033283
-0.031987205
-0.029089631
-0.026348096
-0.023767534
-0.021350482
-0.019097315
-0.017006491
-0.015074815
-0.013297696
-0.011669409
-0.010183344
-0.008832244
-0.0076084261
-0.0065039686
-0.0055109253
-0.0046213007
-0.0038275528
-0.003121239
-0.0024961165
-0.0019390622
-0.0014443362
-0.0009954004
-0.00047247078
-0.00044770372
-0.082415529
-0.082686741
-0.08310912
-0.083824554
-0.084210775
-0.084095887
-0.083593025
-0.082776142
-0.08164451
-0.080193514
-0.078439738
-0.076408864
-0.074126256
-0.0716175
-0.068910441
-0.066034949
-0.063021682
-0.059901475
-0.056705108
-0.053462649
-0.050202845
-0.046952743
-0.043737392
-0.040579559
-0.037499522
-0.034514929
-0.031640736
-0.028889205
-0.02626996
-0.023790096
-0.021454327
-0.019265168
-0.017223143
-0.015327015
-0.013574021
-0.011960111
-0.010480188
-0.0091283373
-0.007898042
-0.0067823711
-0.005774171
-0.0048661002
-0.0040509181
-0.0033207416
-0.0026682777
-0.0020831888
-0.0015511179
-0.0010791329
-0.00049006969
-0.00052733909
-0.072058176
-0.072668529
-0.073388198
-0.074338561
-0.07501008
-0.075253014
-0.075151998
-0.074764048
-0.074086159
-0.073111161
-0.071849161
-0.07031876
-0.068539323
-0.066531017
-0.064316433
-0.061920534
-0.059369749
-0.056691228
-0.053912479
-0.051061048
-0.048163935
-0.045247064
-0.042334929
-0.039450292
-0.036613912
-0.033844342
-0.031157789
-0.028568043
-0.026086464
-0.023722023
-0.021481388
-0.019369056
-0.017387511
-0.015537416
-0.013817814
-0.012226344
-0.010759459
-0.0094126425
-0.0081806129
-0.0070575068
-0.0060370505
-0.0051126314
-0.0042774451
-0.0035241525
-0.0028449316
-0.0022313282
-0.0016641374
-0.0011645522
-0.0005298165
-0.00057251759
-0.062561938
-0.063402749
-0.064329425
-0.06544224
-0.066322255
-0.066840475
-0.067060314
-0.067024754
-0.066728191
-0.066161187
-0.065328478
-0.064242386
-0.062916573
-0.061365932
-0.059607885
-0.057662416
-0.055551387
-0.053297933
-0.050926039
-0.048460175
-0.045924908
-0.043344392
-0.040741933
-0.038139645
-0.035558152
-0.033016334
-0.030531124
-0.028117372
-0.025787769
-0.02355282
-0.021420871
-0.019398182
-0.017489039
-0.01569589
-0.014019519
-0.012459222
-0.011013004
-0.0096777719
-0.0084495244
-0.0073235238
-0.0062944503
-0.0053564903
-0.0045033995
-0.0037284004
-0.0030235807
-0.0023817233
-0.0017817369
-0.0012514882
-0.00058666679
-0.00058940156
-0.053910479
-0.054896325
-0.055954229
-0.057166363
-0.05818801
-0.058908605
-0.059375433
-0.059620336
-0.059635548
-0.059409834
-0.058943583
-0.058243787
-0.057319002
-0.056179231
-0.054837001
-0.05330747
-0.051607903
-0.049757197
-0.04777554
-0.045684045
-0.043504369
-0.041258326
-0.038967452
-0.036652628
-0.034333754
-0.032029463
-0.029756875
-0.027531408
-0.025366639
-0.023274223
-0.021263857
-0.019343297
-0.017518411
-0.015793278
-0.014170305
-0.012650376
-0.011233009
-0.0099165297
-0.0086982347
-0.0075745503
-0.006541168
-0.005593137
-0.004724882
-0.0039302317
-0.0032015335
-0.0025323964
-0.0019019367
-0.0013394075
-0.00065456976
-0.00058637124
-0.046071671
-0.047137157
-0.048265989
-0.049525477
-0.050632516
-0.051492858
-0.052141468
-0.05260153
-0.052863836
-0.052915986
-0.05275503
-0.052383636
-0.051806033
-0.051027919
-0.050057395
-0.048905125
-0.047583965
-0.046108606
-0.044495307
-0.04276161
-0.040925994
-0.039007517
-0.037025459
-0.03499895
-0.032946626
-0.030886332
-0.028834844
-0.026807642
-0.024818726
-0.022880477
-0.021003575
-0.019196956
-0.017467814
-0.015821645
-0.014262322
-0.0127922
-0.011412238
-0.01012214
-0.0089204906
-0.0078048957
-0.0067720968
-0.0058180599
-0.0049379712
-0.0041263272
-0.0033759981
-0.0026812024
-0.0020225407
-0.0014274041
-0.00072744831
-0.00057246367
-0.039002969
-0.040099329
-0.041253076
-0.042519359
-0.043666396
-0.04461441
-0.045389054
-0.046006926
-0.046458101
-0.046729687
-0.046816368
-0.046717491
-0.046433818
-0.045967459
-0.045322703
-0.044506217
-0.043526813
-0.042395195
-0.04112378
-0.039726481
-0.038218444
-0.036615734
-0.034935021
-0.033193263
-0.031407377
-0.029593926
-0.027768845
-0.025947182
-0.024142886
-0.02236863
-0.020635676
-0.018953785
-0.017331172
-0.015774498
-0.014288898
-0.01287804
-0.01154421
-0.010288413
-0.0091104847
-0.0080091979
-0.0069823629
-0.0060269018
-0.0051388366
-0.004313399
-0.0035441675
-0.0028258947
-0.0021412663
-0.0015142733
-0.00080010522
-0.00055573459
-0.032655925
-0.033748025
-0.034892953
-0.036135899
-0.037287791
-0.038281638
-0.039136162
-0.039863063
-0.040452325
-0.040891167
-0.041172791
-0.041294173
-0.041253461
-0.041049955
-0.040684826
-0.040161357
-0.039484812
-0.038662292
-0.037702619
-0.036616209
-0.035414872
-0.034111581
-0.032720204
-0.031255231
-0.029731495
-0.028163876
-0.026567024
-0.024955101
-0.023341553
-0.021738901
-0.020158574
-0.018610782
-0.017104424
-0.015647032
-0.014244756
-0.012902379
-0.011623359
-0.01040989
-0.0092629809
-0.0081825363
-0.0071674268
-0.0062155514
-0.0053238208
-0.0044882646
-0.0037032899
-0.0029641965
-0.0022558747
-0.0015986361
-0.00086881846
-0.00054199378
-0.02697959
-0.028043232
-0.029155755
-0.030354168
-0.0314849
-0.03249217
-0.033389602
-0.034185329
-0.034869727
-0.035430615
-0.035860455
-0.036154687
-0.036309649
-0.036322582
-0.036192258
-0.03591924
-0.035505837
-0.034956028
-0.034275434
-0.033471241
-0.032552089
-0.031527902
-0.030409692
-0.029209336
-0.027939341
-0.026612596
-0.025242113
-0.023840775
-0.02242111
-0.020995071
-0.019573849
-0.018167713
-0.016785888
-0.015436456
-0.014126302
-0.012861086
-0.011645244
-0.010482009
-0.0093734559
-0.0083205461
-0.0073231768
-0.0063802206
-0.0054895045
-0.0046479047
-0.0038507251
-0.00309387
-0.0023642765
-0.0016790734
-0.00093148533
-0.0005342534
-0.021922807
-0.022942391
-0.024007089
-0.025147149
-0.026238503
-0.027235115
-0.028146876
-0.02897937
-0.029723695
-0.030368616
-0.030906444
-0.03133177
-0.031639817
-0.031826454
-0.03188874
-0.03182518
-0.031635741
-0.03132184
-0.030886364
-0.030333661
-0.029669485
-0.028900896
-0.028036131
-0.02708444
-0.026055903
-0.024961226
-0.023811525
-0.022618101
-0.021392214
-0.020144881
-0.018886673
-0.017627547
-0.01637669
-0.015142401
-0.013931997
-0.012751748
-0.011606839
-0.010501359
-0.0094383018
-0.0084195833
-0.0074460597
-0.0065175456
-0.0056327851
-0.0047895266
-0.0039840003
-0.003212784
-0.0024645973
-0.0017542317
-0.00098734053
-0.00053296719
-0.017436074
-0.01840261
-0.019410467
-0.020484261
-0.021524448
-0.022493411
-0.023398306
-0.0242429
-0.025019216
-0.025717176
-0.02632936
-0.02685005
-0.027273919
-0.027596045
-0.027812379
-0.027919984
-0.027917084
-0.027803102
-0.027578708
-0.027245863
-0.026807812
-0.026269046
-0.025635226
-0.024913084
-0.024110296
-0.02323532
-0.022297232
-0.021305537
-0.020269971
-0.019200309
-0.018106178
-0.016996876
-0.015881215
-0.014767379
-0.013662803
-0.012574085
-0.01150691
-0.010466007
-0.0094551145
-0.0084769651
-0.0075332766
-0.006624744
-0.0057509987
-0.0049106615
-0.0041008877
-0.0033189893
-0.0025552117
-0.0018228902
-0.0010364317
-0.0005368438
-0.013472619
-0.014382093
-0.015329018
-0.01633325
-0.017315667
-0.018245879
-0.019129016
-0.01996755
-0.020754513
-0.02148108
-0.022140379
-0.022726766
-0.02323479
-0.023659206
-0.02399536
-0.024239403
-0.024388362
-0.0244402
-0.024393888
-0.024249478
-0.024008133
-0.023672137
-0.02324487
-0.022730759
-0.0221352
-0.021464457
-0.020725537
-0.019926044
-0.019074023
-0.018177792
-0.017245771
-0.016286314
-0.015307555
-0.014317252
-0.013322663
-0.012330426
-0.011346466
-0.010375917
-0.0094230641
-0.0084912941
-0.007583059
-0.0066998431
-0.0058421061
-0.0050093127
-0.0041995199
-0.0034108132
-0.0026347681
-0.0018839991
-0.0010790996
-0.00054383887
-0.0099898868
-0.010841879
-0.011727405
-0.01266224
-0.013584291
-0.014469349
-0.015321018
-0.016140831
-0.016922825
-0.017659433
-0.018344488
-0.018972673
-0.019538714
-0.020037382
-0.020463809
-0.02081367
-0.021083256
-0.021269545
-0.021370287
-0.021384089
-0.021310472
-0.021149911
-0.02090385
-0.020574696
-0.020165786
-0.019681334
-0.019126349
-0.018506536
-0.017828183
-0.017098021
-0.016323089
-0.01551058
-0.014667699
-0.013801518
-0.012918842
-0.012026081
-0.011129141
-0.010233329
-0.0093432609
-0.0084627971
-0.0075949736
-0.0067419474
-0.0059049207
-0.0050841468
-0.0042785407
-0.0034869766
-0.0027022286
-0.0019367165
-0.0011156469
-0.0005519575
-0.0069494936
-0.0077462614
-0.0085726605
-0.009440941
-0.010303215
-0.011140535
-0.011955325
-0.012748418
-0.013514794
-0.014248082
-0.014942881
-0.015594346
-0.016197564
-0.016747557
-0.017239523
-0.01766899
-0.018031879
-0.018324583
-0.018544043
-0.018687843
-0.018754278
-0.018742411
-0.018652122
-0.018484122
-0.018239967
-0.01792204
-0.01753351
-0.017078278
-0.016560897
-0.015986483
-0.015360601
-0.014689148
-0.013978225
-0.01323401
-0.012462629
-0.011670031
-0.010861869
-0.010043391
-0.0092193374
-0.0083938509
-0.0075703881
-0.0067516428
-0.0059394519
-0.0051347782
-0.0043373328
-0.0035467668
-0.0027569638
-0.0019804776
-0.001146254
-0.0005596931
-0.004318723
-0.0050641133
-0.0058353729
-0.0066416462
-0.0074468906
-0.0082366176
-0.0090123257
-0.009774297
-0.01051836
-0.011239235
-0.011932277
-0.012593175
-0.013217475
-0.013800586
-0.014337955
-0.014825191
-0.015258121
-0.015632855
-0.015945867
-0.016194073
-0.01637491
-0.016486402
-0.016527216
-0.016496709
-0.016394961
-0.016222784
-0.015981728
-0.01567405
-0.015302684
-0.014871174
-0.014383614
-0.013844546
-0.01325887
-0.012631732
-0.011968413
-0.011274213
-0.010554334
-0.0098137646
-0.009057175
-0.0082888058
-0.007512368
-0.006730947
-0.0059468919
-0.0051617778
-0.0043760332
-0.0035900482
-0.002798745
-0.0020149859
-0.0011709887
-0.00056609011
-0.0020718046
-0.0027712877
-0.0034930443
-0.004243573
-0.0049966388
-0.0057414807
-0.0064788486
-0.0072085829
-0.0079272434
-0.0086305071
-0.0093144313
-0.0099752356
-0.010608958
-0.011211452
-0.011778513
-0.012305976
-0.012789756
-0.013225906
-0.013610684
-0.013940625
-0.014212615
-0.014423958
-0.014572438
-0.014656379
-0.01467469
-0.014626904
-0.0145132
-0.014334414
-0.014092027
-0.013788143
-0.013425454
-0.01300718
-0.012537
-0.012018973
-0.01145744
-0.01085693
-0.01022205
-0.0095573751
-0.0088673386
-0.0081561185
-0.0074275255
-0.0066848932
-0.0059309552
-0.0051677892
-0.0043964479
-0.0036179976
-0.0028283228
-0.0020406622
-0.0011902278
-0.00057083094
-0.00018394262
-0.00084306495
-0.0015212622
-0.0022226501
-0.0029290592
-0.0036328386
-0.0043341339
-0.0050324146
-0.0057248477
-0.006407924
-0.0070783189
-0.0077327425
-0.0083677028
-0.0089795004
-0.009564318
-0.010118283
-0.010637508
-0.011118129
-0.011556366
-0.011948582
-0.012291346
-0.012581502
-0.012816226
-0.01299309
-0.013110122
-0.01316585
-0.013159349
-0.013090269
-0.012958852
-0.012765938
-0.012512958
-0.012201903
-0.011835288
-0.011416093
-0.010947699
-0.010433803
-0.0098783333
-0.009285344
-0.0086589111
-0.0080030194
-0.0073214455
-0.0066176408
-0.0058945992
-0.0051547873
-0.0043997786
-0.0036312327
-0.0028459053
-0.0020574076
-0.0012037386
-0.00057346473
0.0013416197
0.00071535156
7.2982865e-05
-0.00058785154
-0.0012553894
-0.0019244204
-0.0025945947
-0.0032650841
-0.0039335419
-0.0045971182
-0.0052530002
-0.0058983178
-0.0065299923
-0.0071447314
-0.0077390856
-0.0083094906
-0.0088522957
-0.0093637971
-0.0098402815
-0.010278077
-0.010673608
-0.011023452
-0.011324398
-0.011573511
-0.011768186
-0.011906213
-0.011985822
-0.012005733
-0.011965191
-0.011863993
-0.0117025
-0.011481641
-0.011202895
-0.010868265
-0.010480234
-0.0100417
-0.0095559081
-0.0090263608
-0.0084567225
-0.0078507106
-0.0072119793
-0.0065439995
-0.005849921
-0.0051324931
-0.0043937035
-0.0036357065
-0.0028560167
-0.0020685636
-0.0012138751
-0.00057519551
0.0025468608
0.0019476367
0.0013346113
0.00070703821
7.1678125e-05
-0.00056820838
-0.0012118891
-0.0018582869
-0.0025054237
-0.003150963
-0.003792498
-0.0044274976
-0.0050532228
-0.0056667239
-0.0062648714
-0.0068443824
-0.0074018414
-0.0079337253
-0.008436438
-0.0089063507
-0.0093398473
-0.009733375
-0.010083498