/*--------------------------------*- C++ -*----------------------------------*\
  =========                 |
  \\      /  F ield         | OpenFOAM: The Open Source CFD Toolbox
   \\    /   O peration     | Website:  https://openfoam.org
    \\  /    A nd           | Version:  6
     \\/     M anipulation  |
\*---------------------------------------------------------------------------*/
FoamFile
{
    version     2.0;
    format      ascii;
    class       volVectorField;
    location    "211";
    object      U;
}
// * * * * * * * * * * * * * * * * * * * * * * * * * * * * * * * * * * * * * //

dimensions      [0 1 -1 0 0 0 0];

internalField   nonuniform List<vector> 
9200
(
(0.0010393464 0.0014199821 -5.9201839e-20)
(0.013676068 -0.002058367 4.6042533e-20)
(0.038313168 -0.0058665685 -3.8501734e-20)
(0.072274439 -0.0097635057 -6.0257748e-20)
(0.11376474 -0.013490029 1.8826963e-20)
(0.16158089 -0.016605659 3.2743877e-20)
(0.21467149 -0.018817286 -1.2268007e-20)
(0.27206608 -0.019973891 9.2688605e-21)
(0.33285623 -0.020011223 1.6803425e-20)
(0.39616348 -0.018929052 1.4848071e-21)
(0.46111557 -0.016779816 -2.1456334e-20)
(0.52683688 -0.013657731 2.0670001e-20)
(0.59245069 -0.0096879966 -4.0422139e-20)
(0.65709132 -0.0050157738 -2.1133898e-20)
(0.71992473 0.00020556523 5.9046515e-21)
(0.78017503 0.0058241001 -2.5131669e-20)
(0.83717061 0.011712819 2.5217104e-20)
(0.89046877 0.017918519 2.2243184e-20)
(0.93967072 0.024573419 -2.9929383e-22)
(0.98205188 0.028293388 -1.6691815e-21)
(0.0052521806 -0.0013462731 -1.7059352e-20)
(0.026962502 -0.0089890265 3.974771e-20)
(0.061670117 -0.014809764 2.3576294e-20)
(0.10629489 -0.019172269 -1.1569758e-19)
(0.15873566 -0.022213995 -1.2727087e-20)
(0.21753352 -0.023720683 7.3297077e-20)
(0.28137296 -0.023595093 -3.5476398e-20)
(0.34900602 -0.021868962 -8.3905565e-21)
(0.41923921 -0.01864552 3.4287538e-20)
(0.49090945 -0.014080836 -4.3259576e-20)
(0.56287232 -0.0083759452 -3.0338479e-20)
(0.63400848 -0.001766588 7.1921426e-20)
(0.70324331 0.0054884016 3.8294043e-20)
(0.76957582 0.01311864 -6.7976548e-20)
(0.83211247 0.02085209 1.462369e-20)
(0.89010038 0.028419713 -3.6733397e-20)
(0.94296918 0.035569681 -1.3777191e-20)
(0.99043231 0.042140892 7.0974783e-20)
(1.0323561 0.047715313 2.9642003e-20)
(1.0669348 0.049139692 -8.3478385e-20)
(0.010858427 -0.0040424159 3.6773456e-20)
(0.043953414 -0.015431077 2.5047359e-21)
(0.090515437 -0.022552282 2.234171e-20)
(0.1471114 -0.026497358 9.8116822e-22)
(0.21134255 -0.027886296 -4.0773935e-20)
(0.28146768 -0.026795113 1.8576403e-20)
(0.35587041 -0.023382726 1.3420299e-20)
(0.43299007 -0.017921535 -5.0327701e-20)
(0.51132478 -0.010735648 5.7261855e-20)
(0.58942614 -0.0021838779 1.4256687e-20)
(0.66590916 0.0073479079 -5.4300705e-20)
(0.73948036 0.017460265 -1.8237401e-20)
(0.80897599 0.027756564 9.0591606e-21)
(0.87340265 0.037859272 2.3444734e-20)
(0.93197363 0.047424043 -1.1362504e-20)
(0.98413368 0.056148971 2.7877726e-20)
(1.029574 0.063789171 -2.0188243e-20)
(1.0682645 0.070204388 -7.0123595e-20)
(1.1003322 0.075119373 -2.3796259e-20)
(1.1249112 0.076641231 4.865985e-20)
(0.017957215 -0.0064221634 2.4508015e-20)
(0.064776996 -0.020694799 5.1039224e-20)
(0.12485229 -0.028060847 1.9881694e-20)
(0.19446966 -0.030464065 1.2990096e-20)
(0.27094932 -0.029094841 1.7275703e-20)
(0.3522488 -0.024388978 -4.7720171e-20)
(0.43643139 -0.016825971 -2.5646856e-20)
(0.52162008 -0.0069766693 0)
(0.60602896 0.004567033 1.3920616e-20)
(0.68798707 0.017211732 -5.8523388e-21)
(0.76597518 0.030373922 -9.7934939e-20)
(0.83867448 0.043499632 -1.5774816e-20)
(0.90501526 0.056086616 6.510319e-20)
(0.96421571 0.067704134 4.8442656e-22)
(1.0158035 0.078007713 -1.5725564e-21)
(1.0596155 0.08674679 2.1957491e-20)
(1.0957773 0.093772225 -5.2647186e-21)
(1.12468 0.09906533 -6.1029722e-20)
(1.1468647 0.10259708 -4.5851186e-20)
(1.1622957 0.10341385 6.9520447e-20)
(0.02657942 -0.0082056882 -3.9194202e-21)
(0.089344021 -0.024033506 -5.1256316e-21)
(0.16430754 -0.030264988 5.6599409e-20)
(0.2475812 -0.029810019 1.8539324e-20)
(0.33624161 -0.024513027 -3.1955066e-20)
(0.42795126 -0.015239859 1.2163839e-20)
(0.52047262 -0.0028513618 2.6402862e-21)
(0.61166358 0.011737096 3.3609168e-20)
(0.69954712 0.027640143 5.6599502e-21)
(0.78236838 0.04402877 -1.3204739e-20)
(0.85865407 0.060147724 6.0154034e-20)
(0.92726912 0.075340471 -5.8009353e-20)
(0.98745677 0.089072861 -1.3216612e-19)
(1.0388531 0.10094902 -5.5773028e-21)
(1.0814725 0.11071708 8.3150758e-20)
(1.1156655 0.11826405 0)
(1.1420548 0.12360583 1.0118957e-20)
(1.1614669 0.12689056 -1.5459767e-20)
(1.1748179 0.1282987 -8.599449e-21)
(1.1826673 0.12744916 2.0992212e-20)
(0.036666909 -0.0090895797 -5.4309128e-21)
(0.11731511 -0.024685357 4.3578745e-21)
(0.20811868 -0.028140178 -8.7629839e-21)
(0.30515703 -0.023414954 2.8472395e-20)
(0.4053354 -0.01307559 -2.9392664e-20)
(0.50607148 0.0015226163 -1.6927023e-20)
(0.60490491 0.019095141 3.7364232e-20)
(0.6995496 0.038365256 4.7595454e-21)
(0.78800393 0.058167646 -2.4436056e-20)
(0.86863406 0.077483005 6.9867556e-20)
(0.94023974 0.095458643 5.2393913e-22)
(1.0020956 0.11143156 -8.0444311e-20)
(1.0539569 0.12494291 0)
(1.0960273 0.1357375 3.9542114e-20)
(1.1288922 0.14374843 5.5236003e-21)
(1.1534278 0.14906893 -7.7566392e-20)
(1.1706991 0.15191914 -1.9586919e-20)
(1.1818623 0.15262368 -1.2467631e-20)
(1.1880592 0.15152606 -1.4709385e-20)
(1.190146 0.14858493 4.0420505e-20)
(0.048058869 -0.0087674052 -1.7277959e-20)
(0.1480831 -0.021931993 -2.2198268e-21)
(0.2551407 -0.020797834 3.0380504e-20)
(0.36546385 -0.010412792 3.7484309e-20)
(0.47590422 0.0059015892 -1.9944733e-20)
(0.58374267 0.026269308 -6.916303e-20)
(0.68644186 0.04897721 -2.7995796e-20)
(0.78176204 0.07241779 7.8929209e-20)
(0.86790197 0.095212479 8.5778129e-21)
(0.94358917 0.11624961 -2.4873482e-20)
(1.0081258 0.13469827 1.3642212e-20)
(1.061387 0.15001555 -4.3194489e-21)
(1.1037693 0.16193659 0)
(1.1360975 0.17044428 2.7203481e-20)
(1.1595046 0.17572309 -7.9322408e-20)
(1.1753021 0.17810369 -3.1475526e-20)
(1.184857 0.17800813 8.105457e-20)
(1.1894921 0.17590945 -4.2969816e-21)
(1.1904029 0.17225558 3.556108e-21)
(1.188508 0.16719298 2.7111571e-20)
(0.060485252 -0.006957364 -3.2414615e-20)
(0.18077773 -0.015170381 -8.1624319e-20)
(0.30388929 -0.0075835266 2.5797761e-21)
(0.42642556 0.0097033569 7.016181e-20)
(0.5453515 0.032631554 6.2424376e-20)
(0.65798102 0.058820044 -7.1574521e-20)
(0.76190884 0.086176508 -2.8275185e-22)
(0.85518292 0.11285231 8.5522545e-20)
(0.93645347 0.13737837 4.8828068e-20)
(1.0050415 0.1586937 -5.4218406e-20)
(1.0609356 0.17613563 -9.2334212e-20)
(1.1047243 0.18941354 -3.1589825e-21)
(1.1374759 0.19855944 4.2127865e-20)
(1.1605873 0.20385857 -6.6056278e-21)
(1.1756247 0.2057702 -1.2868787e-20)
(1.1841776 0.20484919 1.9690808e-20)
(1.1877427 0.20167897 4.3880616e-20)
(1.1876453 0.19682588 -4.3859434e-20)
(1.1849954 0.19077884 -1.0232203e-19)
(1.180625 0.1837738 2.4566887e-20)
(0.073537217 -0.0034329735 -3.497975e-20)
(0.21422688 -0.0039890256 -1.7388612e-19)
(0.35251658 0.011839376 8.210324e-20)
(0.48562798 0.037018337 9.2767515e-20)
(0.6108538 0.066835552 5.7970567e-20)
(0.72576727 0.098481178 8.6107094e-21)
(0.82834804 0.12959696 -1.0624009e-19)
(0.91718999 0.15824269 0)
(0.99162745 0.18302814 -6.8748587e-20)
(1.0517521 0.20311206 -1.5202409e-20)
(1.0983384 0.2181486 5.4703464e-20)
(1.1327008 0.22821082 1.097338e-20)
(1.156511 0.2336926 -4.5613853e-20)
(1.1716068 0.23519947 -4.9081361e-20)
(1.1798204 0.23344335 2.4287679e-20)
(1.182845 0.22915323 4.482289e-20)
(1.1821488 0.22300986 -5.5600407e-20)
(1.178936 0.21560822 -1.0751122e-19)
(1.1741468 0.20742224 -3.1513618e-21)
(1.1684567 0.19871881 2.7046402e-20)
(0.086650448 0.001961386 -3.5448991e-21)
(0.24696019 0.011816634 8.7913241e-20)
(0.3988474 0.03749231 -1.6479247e-20)
(0.54040466 0.071218382 -8.4309148e-20)
(0.66949903 0.10778893 4.5164371e-20)
(0.78421953 0.14411543 4.9175454e-20)
(0.88318941 0.17775668 5.5356781e-21)
(0.96577871 0.2068849 -9.9502489e-20)
(1.0321763 0.23038802 -2.504878e-21)
(1.0833328 0.24781553 5.0503542e-20)
(1.120807 0.25926301 5.9854757e-21)
(1.1465558 0.2652362 -1.9717207e-20)
(1.1627107 0.26650533 -7.5704626e-20)
(1.1713765 0.26396622 -6.2554021e-21)
(1.1744762 0.25852429 4.3533353e-20)
(1.1736548 0.25101089 3.7022012e-20)
(1.1702383 0.24213395 1.9793441e-20)
(1.1652402 0.23245875 -5.2994842e-20)
(1.1594014 0.22240418 1.2957449e-20)
(1.1532252 0.21223799 8.2659096e-20)
(-0.0012932615 0.0014346597 -1.1234453e-21)
(-0.0047459603 0.0031874148 2.0646969e-21)
(-0.010771359 0.004135904 8.7949851e-22)
(-0.017754287 0.0045395359 -2.4411023e-21)
(-0.024740318 0.0045654165 -1.4114819e-21)
(-0.031299592 0.0043260385 1.5460012e-21)
(-0.037161327 0.003903538 -6.8700795e-21)
(-0.042147442 0.0033577216 -5.9573036e-21)
(-0.046157775 0.0027313811 1.1171996e-20)
(-0.049146189 0.0020548305 -9.7427476e-21)
(-0.051100653 0.0013493003 -1.9833033e-22)
(-0.052030443 0.00062942184 3.6673437e-21)
(-0.051957737 -9.4889564e-05 -6.3295579e-22)
(-0.050911881 -0.00081693047 2.2818742e-20)
(-0.048925778 -0.0015318448 3.0401092e-22)
(-0.046035341 -0.0022351741 -4.0882869e-20)
(-0.042281798 -0.0029222681 7.5385615e-21)
(-0.037703443 -0.0035910386 2.3864109e-20)
(-0.032308695 -0.0042399866 -4.3852373e-20)
(-0.026156965 -0.0048211132 -2.7739203e-20)
(-0.0016521999 0.0041808662 -5.3716024e-21)
(-0.0053974811 0.0092681381 1.0865439e-20)
(-0.011218509 0.012007444 -1.0191542e-20)
(-0.017658025 0.013153764 3.9229729e-21)
(-0.023856432 0.013195413 4.8121426e-21)
(-0.029433317 0.012462724 7.1324169e-22)
(-0.03415232 0.011197014 -2.2509486e-20)
(-0.037860377 0.0095738967 -2.0370238e-21)
(-0.040474298 0.0077189871 2.0163537e-20)
(-0.041958921 0.0057212303 -5.0473594e-21)
(-0.042308949 0.0036428644 -2.1762587e-20)
(-0.041537336 0.0015267127 4.8973164e-21)
(-0.039667712 -0.00059830544 2.2635419e-20)
(-0.036729081 -0.0027127609 1.030839e-20)
(-0.032752034 -0.004802689 2.1854283e-20)
(-0.027769172 -0.0068555083 -1.9770726e-20)
(-0.021824797 -0.0088582194 -2.1672942e-20)
(-0.014966273 -0.010804225 2.1184616e-20)
(-0.0071290215 -0.012679001 2.6810363e-20)
(0.00187429 -0.014317223 1.5854764e-20)
(-0.0023034292 0.0065602326 -4.3568687e-21)
(-0.0065392238 0.014480195 -5.6387548e-21)
(-0.011892131 0.018710543 3.0723951e-22)
(-0.017211099 0.02042818 1.0959885e-21)
(-0.021819141 0.020400323 6.6918397e-21)
(-0.025431041 0.019151665 1.0665168e-20)
(-0.027877231 0.017066287 -3.7227631e-21)
(-0.029053268 0.014423783 -1.8896163e-20)
(-0.028909036 0.011424352 6.5413164e-21)
(-0.02743105 0.0082099048 1.2862568e-20)
(-0.024627714 0.0048797759 5.8340847e-21)
(-0.020520109 0.0015022385 1.8159103e-20)
(-0.015135987 -0.0018768633 1.7295913e-21)
(-0.0085054008 -0.0052272477 -3.3864524e-20)
(-0.00065689584 -0.0085276099 1.2020173e-21)
(0.0083810129 -0.011759109 -2.2139208e-20)
(0.018556862 -0.014904096 -2.4466301e-20)
(0.029802173 -0.017953752 4.5819706e-20)
(0.042304955 -0.020855116 2.5349345e-20)
(0.05673856 -0.023247765 1.2239316e-22)
(-0.0031290276 0.0083689699 -5.2833068e-21)
(-0.0078963987 0.018336513 -8.4815258e-21)
(-0.012438986 0.023587808 4.3593046e-21)
(-0.016026534 0.025609658 4.1463447e-21)
(-0.018235023 0.025382745 2.0105706e-21)
(-0.018912651 0.023589321 7.3209945e-21)
(-0.017984717 0.020730273 9.3124766e-21)
(-0.01541671 0.017170377 -1.3511352e-21)
(-0.011207048 0.013171314 -1.1481945e-20)
(-0.0053752353 0.0089189314 -2.9071874e-20)
(0.0020481084 0.0045434371 6.1892451e-23)
(0.011026504 0.00013431096 4.0697816e-20)
(0.021522219 -0.0042489509 -1.8383169e-20)
(0.033497842 -0.0085675847 -1.2296086e-20)
(0.046920501 -0.012795546 5.5348922e-22)
(0.061760082 -0.016911855 3.230264e-20)
(0.077952998 -0.020901669 -1.4829542e-20)
(0.095392246 -0.024763374 -5.3339177e-20)
(0.11439843 -0.028379716 4.5765003e-20)
(0.13634536 -0.031073093 3.3013164e-20)
(-0.0039704096 0.0094657322 -6.8788996e-22)
(-0.0090916579 0.020487792 -1.2534739e-20)
(-0.012364471 0.026159086 -3.4144532e-20)
(-0.01355254 0.028143338 -5.7241613e-21)
(-0.01253324 0.027555007 -3.622274e-21)
(-0.0093167247 0.025188064 6.3051028e-21)
(-0.0039456455 0.021627411 -4.6461953e-21)
(0.0035261269 0.017298959 -8.8070259e-21)
(0.013036819 0.012508752 2.1899707e-20)
(0.024521239 0.0074744427 5.0567067e-21)
(0.037915535 0.0023489041 -2.5290291e-20)
(0.053157441 -0.0027627839 1.1078277e-20)
(0.070186862 -0.0077908743 0)
(0.088946574 -0.012691303 1.2089574e-20)
(0.10938543 -0.017436919 -9.7016165e-21)
(0.1314574 -0.022009896 -1.4337118e-20)
(0.15507406 -0.026408645 -1.5738943e-21)
(0.18006759 -0.030659419 -2.2181552e-21)
(0.2068534 -0.034576532 4.6147058e-20)
(0.23766358 -0.037019867 -1.0470126e-20)
(-0.0046450978 0.0097808623 -7.5356675e-21)
(-0.0096772507 0.02074788 2.4516398e-20)
(-0.01106438 0.026160977 -1.0499346e-20)
(-0.0090968326 0.027724445 -2.7469279e-20)
(-0.0039797211 0.026601694 -2.7548144e-20)
(0.0040961823 0.023648408 -1.4921567e-20)
(0.014954148 0.019496457 -6.9059604e-22)
(0.028436234 0.014604705 5.5499778e-21)
(0.044403145 0.0093034467 1.9615877e-20)
(0.062730494 0.0038284157 7.3530845e-21)
(0.083304313 -0.0016547548 -7.1862203e-21)
(0.10601897 -0.0070322382 -2.0102307e-21)
(0.13077357 -0.012229097 -3.8191705e-20)
(0.15746943 -0.017199752 -1.2693643e-20)
(0.18601199 -0.021919734 1.8750604e-20)
(0.21631176 -0.026379717 -2.1021671e-20)
(0.24823222 -0.030602222 -8.9730565e-21)
(0.28151867 -0.034670606 3.0440461e-20)
(0.31660703 -0.038364818 5.0472067e-20)
(0.35665015 -0.039964098 3.3559667e-21)
(-0.0049617684 0.0093139986 1.6783303e-20)
(-0.0091662692 0.019097709 1.4467937e-20)
(-0.0078593649 0.023563366 5.1145483e-20)
(-0.0018585396 0.024328943 2.3387979e-20)
(0.0082957226 0.022523783 1.8251773e-22)
(0.022221939 0.019014385 -3.9388452e-20)
(0.039597441 0.014440936 -2.4313857e-20)
(0.060147903 0.0092663597 1.0465816e-20)
(0.083639113 0.0038232285 1.4401585e-20)
(0.10986669 -0.0016512988 -1.311371e-20)
(0.13864562 -0.0069910091 -4.4038709e-20)
(0.1698017 -0.012082847 2.9618494e-20)
(0.20316404 -0.016854158 2.0020549e-20)
(0.23855945 -0.021263994 -2.7551152e-20)
(0.2758123 -0.025296401 1.1650133e-20)
(0.3147481 -0.028957166 2.4197609e-20)
(0.35514545 -0.03230305 8.0723931e-21)
(0.39663387 -0.035506674 -1.176421e-20)
(0.43957701 -0.03839264 -1.4190297e-20)
(0.48798509 -0.038634399 5.8727626e-21)
(-0.0047307762 0.0081236732 1.1093845e-20)
(-0.0070586004 0.015671176 -2.3352718e-20)
(-0.002029366 0.018562033 8.620054e-21)
(0.00903252 0.018216225 3.3587964e-20)
(0.025256361 0.01565115 5.2124334e-20)
(0.046066337 0.011695603 2.0276508e-20)
(0.070984522 0.0069609527 -5.8639348e-21)
(0.099601947 0.0018829518 -1.2286283e-20)
(0.13156894 -0.0032271974 -6.2057458e-21)
(0.16657567 -0.0081496566 3.424083e-20)
(0.20433424 -0.012733319 -4.5104374e-21)
(0.24456484 -0.016879185 -1.6643298e-20)
(0.28698469 -0.020528684 -1.969357e-20)
(0.33129997 -0.023656409 -4.744373e-20)
(0.37720458 -0.026265529 2.3238699e-20)
(0.42438769 -0.028387856 -1.4095981e-20)
(0.47249973 -0.030127614 2.5993394e-20)
(0.52103617 -0.031783182 2.104082e-20)
(0.57021394 -0.03335067 -8.5570384e-20)
(0.62470916 -0.03205883 -1.0807172e-22)
(-0.0037710519 0.0063146394 2.1925054e-20)
(-0.0028657664 0.010735096 -2.6165528e-20)
(0.0071421046 0.011564137 -4.5013292e-20)
(0.024450232 0.0099249901 -2.7253779e-20)
(0.04787085 0.0066523065 -2.0439868e-21)
(0.076628702 0.0024906179 1.3050095e-20)
(0.11007673 -0.0020153943 -2.83377e-21)
(0.14765206 -0.0064879027 1.8118535e-20)
(0.18886096 -0.010663502 8.868561e-21)
(0.23325194 -0.014362419 -1.1380171e-20)
(0.28039149 -0.017468946 8.877911e-21)
(0.32984603 -0.019916802 -2.3903264e-20)
(0.3811688 -0.021678693 8.0504753e-21)
(0.43389084 -0.022759869 1.6756388e-20)
(0.48751935 -0.023194294 -2.6395121e-21)
(0.54154715 -0.023046883 1.6618972e-21)
(0.59543545 -0.022469436 -3.1957523e-22)
(0.64851783 -0.021870094 1.9590417e-20)
(0.70082239 -0.02144505 4.0433994e-21)
(0.7574515 -0.018499067 -5.7334258e-22)
(-0.0019110144 0.0040273482 2.3692111e-20)
(0.0038694299 0.0046765206 5.7159957e-20)
(0.02031531 0.0031879651 -4.9244221e-20)
(0.045178284 0.00029442708 -9.9454143e-21)
(0.076965151 -0.0034241506 2.0256345e-20)
(0.11469623 -0.0073535843 2.1433717e-21)
(0.15753883 -0.011054955 -2.981516e-20)
(0.20474831 -0.014244137 6.9848103e-21)
(0.25564949 -0.016737925 7.1097865e-21)
(0.30960473 -0.018426953 -2.6254075e-20)
(0.36598647 -0.019260093 1.2927323e-21)
(0.42415958 -0.019231861 -3.7174107e-20)
(0.48347101 -0.018372196 -3.6341008e-20)
(0.54324565 -0.016738269 6.5683467e-20)
(0.60278812 -0.014407294 5.5627473e-21)
(0.66138884 -0.011475889 -1.5188792e-20)
(0.71830785 -0.008102035 1.936396e-20)
(0.77269901 -0.0045928545 -9.1888109e-22)
(0.82408835 -0.00096803646 2.0364574e-20)
(0.87621967 0.004328081 -1.9554139e-20)
(-0.018836423 -0.0050997024 5.8352034e-20)
(-0.010224663 -0.0056349255 1.5783663e-20)
(-0.00022120495 -0.0060688782 -3.513955e-20)
(0.010823213 -0.0063341076 1.6790229e-20)
(0.02264245 -0.0065120446 0)
(0.035177864 -0.0066300873 0)
(0.048369637 -0.0066909704 -2.2974939e-20)
(0.062138048 -0.0067025366 -1.6502864e-20)
(0.076412685 -0.0066741709 1.9122587e-20)
(0.091134041 -0.0066126621 1.8174027e-20)
(0.10624714 -0.006523202 1.0524248e-21)
(0.12170018 -0.0064103541 -1.0317632e-20)
(0.13744486 -0.0062780771 8.3268769e-21)
(0.15343596 -0.0061297183 1.8233709e-20)
(0.16963072 -0.0059681409 -5.2274158e-21)
(0.1859885 -0.0057958303 -1.0174931e-20)
(0.20247052 -0.0056149577 -4.3195856e-21)
(0.21903978 -0.005427432 -4.4257367e-21)
(0.23566084 -0.0052349455 7.3667151e-22)
(0.25229984 -0.0050390083 1.2286035e-21)
(0.26892443 -0.0048409756 2.5666304e-21)
(0.28550384 -0.0046420671 6.6539438e-21)
(0.30200887 -0.0044433819 2.4894384e-22)
(0.31841199 -0.0042459096 -3.4514688e-21)
(0.33468736 -0.0040505377 1.5558754e-22)
(0.3508109 -0.0038580577 -5.7709761e-22)
(0.36676036 -0.0036691697 1.2434358e-21)
(0.38251533 -0.0034844859 1.0522431e-21)
(0.39805729 -0.003304535 -1.2987927e-21)
(0.41336963 -0.003129765 -1.2218731e-22)
(0.42843759 -0.0029605478 3.5749811e-23)
(0.44324835 -0.0027971836 -3.5187564e-22)
(0.45779089 -0.0026399053 -4.0565389e-22)
(0.47205603 -0.0024888842 5.5413008e-23)
(0.48603636 -0.0023442357 -1.3809022e-22)
(0.49972618 -0.0022060252 -2.2343142e-22)
(0.51312148 -0.0020742748 2.5571894e-22)
(0.5262199 -0.0019489702 2.9501935e-22)
(0.53902065 -0.0018300696 -8.2711831e-24)
(0.55152484 -0.0017175076 -1.5517371e-22)
(0.56373444 -0.0016112234 3.0406559e-23)
(0.57565602 -0.0015111164 -4.0144676e-23)
(0.58728979 -0.0014172578 9.2203485e-23)
(0.59866472 -0.0013293112 2.1977087e-23)
(0.60973522 -0.0012485601 -1.1394526e-22)
(0.62069327 -0.0011717951 -6.7612633e-24)
(0.63106126 -0.0011112466 -7.2373167e-26)
(0.6423498 -0.0010339502 -3.5612052e-24)
(0.65042776 -0.0010508079 2.9453692e-23)
(0.66700867 -0.00087556232 3.6050737e-22)
(0.010445868 -0.015017609 -1.2746815e-20)
(0.018179697 -0.016641011 -6.3302324e-20)
(0.027779215 -0.017915413 -3.0541937e-20)
(0.038385145 -0.018672071 3.8476009e-20)
(0.049620986 -0.019183588 1.4662609e-20)
(0.061506628 -0.019529432 -1.8204926e-20)
(0.07401282 -0.019709865 4.6722017e-21)
(0.087062668 -0.019746492 2.5447185e-20)
(0.10059314 -0.019667281 9.1992513e-23)
(0.11455401 -0.0194917 -7.6591241e-21)
(0.12889717 -0.019234359 -1.3021014e-20)
(0.143576 -0.018908311 -8.5245297e-21)
(0.15854663 -0.018524972 1.7772332e-20)
(0.17376754 -0.018094 8.9295451e-21)
(0.18919897 -0.017623678 -1.6522435e-20)
(0.20480274 -0.01712123 -6.0390575e-21)
(0.22054212 -0.016592995 3.2145042e-21)
(0.23638173 -0.016044569 8.3716311e-21)
(0.25228751 -0.01548093 6.9832264e-21)
(0.26822671 -0.014906539 -6.9727156e-21)
(0.28416791 -0.014325412 -3.1685464e-21)
(0.30008107 -0.013741173 1.3605342e-21)
(0.31593762 -0.013157097 3.8682857e-22)
(0.3317105 -0.012576139 1.2113953e-21)
(0.34737426 -0.012000957 1.8368367e-22)
(0.36290509 -0.011433923 -3.2661633e-22)
(0.37828093 -0.01087714 -7.2434863e-22)
(0.39348149 -0.010332452 9.7156588e-22)
(0.40848829 -0.0098014539 8.2482943e-22)
(0.42328468 -0.0092855007 -1.5147368e-22)
(0.43785584 -0.0087857213 5.5306071e-22)
(0.45218875 -0.0083030302 -2.388091e-22)
(0.46627221 -0.0078381418 -3.7069888e-22)
(0.48009678 -0.0073915866 -6.0999078e-22)
(0.49365474 -0.0069637276 4.4171723e-22)
(0.50694006 -0.0065547786 -1.5477235e-23)
(0.51994834 -0.0061648242 1.6124734e-22)
(0.53267682 -0.0057938397 -4.4174761e-22)
(0.54512428 -0.0054417181 3.7189523e-22)
(0.55729136 -0.0051082812 6.7175243e-23)
(0.56917956 -0.0047933641 -1.0285394e-22)
(0.58079497 -0.0044966831 1.7613711e-22)
(0.59213732 -0.0042184671 2.333968e-22)
(0.60323489 -0.0039577263 1.6926512e-22)
(0.61404221 -0.0037183062 1.6767243e-22)
(0.62474841 -0.0034906514 -2.6098061e-23)
(0.63488229 -0.0033112111 8.4044403e-23)
(0.64593149 -0.0030818693 7.6292391e-23)
(0.65382991 -0.0031323584 -1.9466565e-22)
(0.67009184 -0.0026124427 -3.8026421e-23)
(0.067614683 -0.024029145 9.4528287e-21)
(0.073589665 -0.026749048 3.2950978e-21)
(0.082265501 -0.028805567 -1.2162197e-20)
(0.091947813 -0.029968502 -1.2257899e-21)
(0.1019832 -0.030767862 1.4970586e-20)
(0.11254633 -0.031330889 -1.4887119e-20)
(0.12367596 -0.031636068 -2.9842267e-20)
(0.13529681 -0.031713003 1.4493521e-20)
(0.14735694 -0.031607633 1.8181964e-20)
(0.15982341 -0.031350053 -1.1598515e-20)
(0.17266058 -0.030961817 1.0190551e-21)
(0.1858308 -0.03046275 8.6860133e-21)
(0.19929783 -0.029870548 -1.5253539e-20)
(0.21302656 -0.029200235 2.9095158e-21)
(0.22698242 -0.028464756 7.5194348e-21)
(0.2411314 -0.027675501 3.1597607e-23)
(0.25544014 -0.026842554 2.6556368e-22)
(0.26987605 -0.025974893 -7.415085e-21)
(0.28440731 -0.025080561 3.8616829e-21)
(0.29900298 -0.024166815 8.4749039e-21)
(0.31363313 -0.02324023 -3.8351757e-21)
(0.32826892 -0.02230677 -2.2130362e-21)
(0.34288271 -0.021371852 1.0124436e-21)
(0.3574482 -0.020440383 -1.7155323e-21)
(0.3719405 -0.01951679 1.3532252e-21)
(0.3863362 -0.018605043 7.1845909e-22)
(0.4006135 -0.017708672 1.526839e-21)
(0.41475224 -0.016830781 -1.9526618e-21)
(0.42873393 -0.015974066 2.2235681e-21)
(0.44254178 -0.015140831 5.5188532e-22)
(0.45616075 -0.014333003 4.0322584e-22)
(0.46957751 -0.013552157 3.2134464e-22)
(0.48278042 -0.012799537 8.7325001e-22)
(0.49575954 -0.012076082 -1.3708604e-21)
(0.50850656 -0.011382453 3.7065562e-22)
(0.5210148 -0.010719064 1.0941295e-22)
(0.53327914 -0.010086113 -4.5172284e-23)
(0.54529606 -0.0094836169 8.6732657e-23)
(0.55706351 -0.0089114556 -3.7184965e-22)
(0.56858129 -0.0083693887 1.8293505e-22)
(0.57985003 -0.0078571973 -3.4987126e-23)
(0.59087486 -0.007374463 3.9004244e-22)
(0.60165469 -0.0069216152 -1.8544462e-22)
(0.61221643 -0.0064970652 4.7323493e-23)
(0.62251493 -0.006107202 4.3603728e-23)
(0.63273393 -0.0057363379 -7.3599674e-23)
(0.64241435 -0.0054444132 -1.2082552e-22)
(0.65299987 -0.0050705074 3.8809373e-22)
(0.66054992 -0.0051542536 1.7270604e-22)
(0.67619358 -0.0043070218 -8.3039866e-22)
(0.15021528 -0.031460427 1.5010116e-21)
(0.15354689 -0.035257393 -1.1566612e-20)
(0.16061622 -0.038010917 6.6441958e-21)
(0.1688059 -0.039479095 -1.3324737e-20)
(0.17698223 -0.040520686 -1.9758302e-21)
(0.18552345 -0.041302277 9.1599409e-21)
(0.19458419 -0.041757233 -9.766218e-21)
(0.20408691 -0.041913707 1.5662783e-21)
(0.21398767 -0.041833327 1.2903798e-20)
(0.22427598 -0.041554332 3.403199e-21)
(0.23493253 -0.041102041 -6.2096948e-21)
(0.2459302 -0.040500445 -2.8638098e-21)
(0.25724158 -0.039771745 -5.8409047e-21)
(0.26883911 -0.038935052 -6.4553132e-21)
(0.28069422 -0.038006972 3.235692e-21)
(0.29277762 -0.037002299 8.4621033e-22)
(0.30505974 -0.035934322 1.3679579e-21)
(0.31751098 -0.034815019 -3.3850415e-21)
(0.33010195 -0.033655246 -4.2428857e-21)
(0.34280362 -0.032464893 2.3616507e-21)
(0.35558756 -0.031252994 3.2251354e-21)
(0.36842613 -0.030027813 -1.5636195e-21)
(0.38129259 -0.028796899 1.5867266e-21)
(0.39416133 -0.02756713 -3.9123996e-22)
(0.40700791 -0.026344741 -3.9196406e-21)
(0.41980924 -0.025135351 -3.0332813e-21)
(0.43254363 -0.023943975 -1.9026291e-22)
(0.4451909 -0.022775048 4.2858918e-22)
(0.45773238 -0.021632439 -2.2106032e-21)
(0.470151 -0.020519476 -8.5497179e-22)
(0.48243129 -0.019438965 2.2837652e-22)
(0.49455937 -0.01839322 -1.2498683e-21)
(0.50652296 -0.017384097 6.2629531e-24)
(0.51831136 -0.016413026 -4.2420882e-22)
(0.52991543 -0.015481048 -4.7193606e-22)
(0.54132756 -0.01458886 -5.1995701e-22)
(0.55254164 -0.013736857 -8.4133127e-22)
(0.56355308 -0.01292518 -5.4496248e-23)
(0.57435872 -0.012153775 -3.916044e-24)
(0.58495721 -0.011422419 -5.1972362e-22)
(0.59534797 -0.010730916 -9.1606955e-23)
(0.60553484 -0.010078789 -3.323941e-22)
(0.61551567 -0.0094667311 -4.3760016e-22)
(0.62531542 -0.0088926437 3.7841813e-22)
(0.6348895 -0.0083654118 1.4821003e-23)
(0.64441396 -0.0078635895 1.8237649e-22)
(0.65344723 -0.007469349 -1.3246777e-22)
(0.66336984 -0.006962961 -2.6691213e-22)
(0.67042192 -0.0070791624 -4.4691282e-23)
(0.68517886 -0.0059326987 4.6229588e-22)
(0.25468564 -0.036552752 -2.0900313e-20)
(0.25447018 -0.041393502 4.7585949e-20)
(0.2590733 -0.044745649 1.0348091e-20)
(0.26508409 -0.046442034 -1.5765311e-20)
(0.27070929 -0.047714305 -2.0227971e-21)
(0.2765199 -0.048747766 2.6232256e-21)
(0.28283545 -0.049413708 -1.6608179e-21)
(0.28957685 -0.049728089 -4.6861418e-21)
(0.29669652 -0.04976142 -4.015916e-21)
(0.30420541 -0.049557042 -1.2207636e-20)
(0.31210212 -0.049141676 1.7897753e-20)
(0.32036931 -0.048540791 6.52199e-21)
(0.32898693 -0.047778954 -1.6780523e-20)
(0.33793396 -0.046878008 1.0317574e-20)
(0.347187 -0.04585729 8.384991e-21)
(0.35672067 -0.044734302 -8.7923674e-22)
(0.36650837 -0.043525057 -3.1222226e-21)
(0.37652281 -0.042244237 -3.8197313e-21)
(0.38673633 -0.040905349 -1.3892577e-21)
(0.39712121 -0.039520842 -1.230419e-21)
(0.40765 -0.038102211 -3.0257601e-21)
(0.4182957 -0.036660059 0)
(0.42903204 -0.035204145 -1.345191e-21)
(0.43983364 -0.033743413 3.9309505e-21)
(0.45067615 -0.032286018 5.4052658e-21)
(0.4615364 -0.030839345 -9.4112547e-22)
(0.47239249 -0.029410018 -2.9274431e-21)
(0.48322389 -0.028003926 3.0258378e-21)
(0.49401149 -0.026626235 2.5447454e-22)
(0.50473763 -0.025281418 3.4352444e-21)
(0.51538614 -0.023973281 -5.3459734e-22)
(0.52594237 -0.022704998 1.7173462e-21)
(0.53639315 -0.021479154 -7.9964341e-22)
(0.54672679 -0.020297782 2.9094121e-22)
(0.55693311 -0.019162419 -4.3403918e-22)
(0.56700333 -0.018074155 5.6231609e-22)
(0.57693017 -0.01703369 4.5709848e-22)
(0.58670776 -0.016041392 3.8255569e-22)
(0.59633162 -0.015097379 -9.593615e-22)
(0.60579903 -0.014201545 6.8355398e-22)
(0.61510802 -0.013353813 -3.6957345e-22)
(0.62426095 -0.012553742 -1.1033184e-21)
(0.63325439 -0.011802363 1.4078169e-21)
(0.64211105 -0.011097182 -6.2005776e-23)
(0.65078712 -0.010449506 -1.5815993e-22)
(0.65944908 -0.0098326319 -7.8244615e-24)
(0.6676776 -0.0093492482 -1.2621621e-22)
(0.67677345 -0.0087262085 -4.6582554e-22)
(0.68320531 -0.0088736486 8.7882773e-22)
(0.69685078 -0.0074649071 -4.4315726e-23)
(0.37635127 -0.038368158 -1.7495098e-20)
(0.37170974 -0.04427022 1.2832043e-20)
(0.37286687 -0.048161602 2.975464e-21)
(0.37591042 -0.05009884 -7.6353703e-21)
(0.37830523 -0.051669961 1.2055982e-20)
(0.3807229 -0.053042362 7.7914125e-21)
(0.38367597 -0.054030028 -1.2647695e-20)
(0.38710054 -0.05463309 -6.0679758e-21)
(0.3909292 -0.054917991 1.2697337e-20)
(0.39518239 -0.05492712 -1.5304975e-20)
(0.39987421 -0.054687501 -1.4063189e-20)
(0.40499502 -0.054224638 1.4129633e-20)
(0.41052857 -0.053563645 6.8193838e-21)
(0.41645713 -0.052727934 -4.2037653e-21)
(0.42276009 -0.051739001 -1.8545604e-21)
(0.42941398 -0.050616734 -4.0581704e-21)
(0.43639343 -0.049379686 5.3047587e-21)
(0.4436719 -0.048045212 3.6682088e-21)
(0.45122219 -0.046629533 -3.2408294e-21)
(0.45901673 -0.0451478 3.1379486e-21)
(0.46702801 -0.043614143 2.7666801e-21)
(0.47522885 -0.042041711 -3.2111131e-21)
(0.48359262 -0.040442686 3.7056562e-22)
(0.49209349 -0.038828301 -3.2571643e-21)
(0.50070657 -0.037208849 7.2454151e-21)
(0.50940807 -0.035593691 6.10806e-21)
(0.51817537 -0.033991265 8.0973198e-22)
(0.52698716 -0.032409107 -1.7683231e-21)
(0.53582347 -0.030853868 3.7021777e-21)
(0.54466573 -0.029331341 7.1885202e-21)
(0.55349678 -0.027846502 2.304931e-21)
(0.56230089 -0.026403542 3.316487e-21)
(0.57106377 -0.025005924 1.9956211e-21)
(0.57977257 -0.023656433 7.4557952e-22)
(0.58841584 -0.022357239 -2.6374551e-22)
(0.59698353 -0.021109954 2.7203131e-21)
(0.605467 -0.019915712 6.1992204e-22)
(0.613859 -0.018775232 2.948778e-22)
(0.62215364 -0.017688916 5.6232491e-23)
(0.63034673 -0.016656891 9.8966628e-22)
(0.63843485 -0.015679302 4.7020093e-23)
(0.64641875 -0.014755849 4.42475e-22)
(0.65429371 -0.013887983 -1.2621807e-22)
(0.66207999 -0.01307294 -2.7734899e-22)
(0.66973485 -0.012324345 -1.5218671e-22)
(0.67741375 -0.011610831 -4.2208017e-22)
(0.68472357 -0.011053533 1.6139396e-22)
(0.69287179 -0.010332327 -1.2723657e-22)
(0.69859464 -0.010509429 -5.0126303e-22)
(0.71095707 -0.0088817623 2.4586967e-22)
(0.50927426 -0.035974267 3.6471455e-21)
(0.49953035 -0.042960646 -1.8958292e-20)
(0.49627551 -0.047383443 -2.3083847e-21)
(0.49555587 -0.049736747 5.4869509e-21)
(0.49416947 -0.051818011 3.0528062e-21)
(0.49269567 -0.053705376 -4.9894121e-23)
(0.49181222 -0.055187612 6.1896663e-21)
(0.49151443 -0.05626536 7.6251009e-21)
(0.49171159 -0.056990493 9.8580363e-21)
(0.49241064 -0.057395532 -1.125004e-20)
(0.49363096 -0.057506258 -2.1579421e-20)
(0.49536769 -0.057348373 -3.9353453e-21)
(0.49760459 -0.056947085 1.5938142e-20)
(0.50032293 -0.056326962 1.2808957e-20)
(0.50350156 -0.055511684 -5.906694e-21)
(0.50711643 -0.054523795 1.3817037e-21)
(0.5111413 -0.053384732 -3.6600839e-21)
(0.51554865 -0.052114885 2.2443751e-21)
(0.52031018 -0.050733592 -2.912302e-22)
(0.52539724 -0.049259108 -1.8654095e-21)
(0.53078115 -0.047708603 7.8265884e-21)
(0.53643354 -0.046098151 -2.9308806e-22)
(0.5423266 -0.044442729 4.1818142e-22)
(0.54843329 -0.042756202 -6.5646619e-22)
(0.55472749 -0.041051321 -4.3029379e-21)
(0.56118419 -0.039339725 4.2085155e-21)
(0.56777954 -0.037631945 1.9031215e-21)
(0.57449096 -0.03593742 -3.3081916e-21)