/*--------------------------------*- C++ -*----------------------------------*\
  =========                 |
  \\      /  F ield         | OpenFOAM: The Open Source CFD Toolbox
   \\    /   O peration     | Website:  https://openfoam.org
    \\  /    A nd           | Version:  6
     \\/     M anipulation  |
\*---------------------------------------------------------------------------*/
FoamFile
{
    version     2.0;
    format      ascii;
    class       surfaceScalarField;
    location    "153";
    object      phi_0;
}
// * * * * * * * * * * * * * * * * * * * * * * * * * * * * * * * * * * * * * //

dimensions      [0 3 -1 0 0 0 0];

internalField   nonuniform List<scalar> 
18180
(
0.00031872982
-0.00016316127
-0.00015556856
0.0013092132
-0.0013669209
0.00037643748
0.0030328927
-0.0033336301
0.0016099506
0.0055497827
-0.0059759758
0.0034590858
0.0089182115
-0.0092391041
0.0058706753
0.013192833
-0.013079563
0.008804941
0.01842197
-0.017459885
0.012230748
0.024644642
-0.022345855
0.016123183
0.031887418
-0.027703384
0.020460608
0.040161339
-0.033495887
0.025221966
0.049459237
-0.039682533
0.030384636
0.059753802
-0.046217318
0.035922752
0.070996824
-0.053048972
0.04180595
0.08312004
-0.060121721
0.047998505
0.096038223
-0.067376987
0.054458804
0.10965502
-0.07475616
0.061139365
0.12387096
-0.082204263
0.067988324
0.13859869
-0.089674257
0.074946526
0.15383678
-0.097149012
0.081910915
-0.10462616
0.088679081
0.16978386
0.0003974977
-0.00056065898
0.0016095972
-0.0025790204
0.0036893236
-0.0054133565
0.0066874535
-0.0089741057
0.010650668
-0.013202318
0.015617892
-0.018046787
0.021616289
-0.023458282
0.028657296
-0.029386862
0.036732993
-0.03577908
0.045813202
-0.042576097
0.055843756
-0.049713087
0.066746281
-0.057119842
0.078419746
-0.064722437
0.090743869
-0.072445843
0.10358416
-0.080217277
0.11679801
-0.087970009
0.13024088
-0.095647132
0.14377307
-0.10320645
0.15725866
-0.1106346
-0.11786207
0.17049458
0.00048062413
-0.0010412831
0.001918701
-0.0040170973
0.0043524848
-0.0078471404
0.0078165739
-0.012438195
0.012337681
-0.017723425
0.01792923
-0.023638336
0.024586279
-0.030115331
0.032281248
-0.037081831
0.040960887
-0.044458719
0.050544976
-0.052160186
0.060927129
-0.060095241
0.071977873
-0.068170586
0.08354987
-0.076294433
0.095484885
-0.084380859
0.10762176
-0.092354154
0.11980433
-0.10015258
0.13188807
-0.10773087
0.14374354
-0.11506192
0.15524875
-0.12213981
-0.12891445
0.16630113
0.00056617045
-0.0016074536
0.0022279453
-0.0056788721
0.0050006175
-0.010619813
0.0088940215
-0.016331599
0.013905274
-0.022734678
0.020011904
-0.029744967
0.027166517
-0.037269944
0.035293453
-0.045208767
0.044287901
-0.053453166
0.054017826
-0.061890112
0.064328774
-0.070406189
0.075051188
-0.078893
0.086009582
-0.087252828
0.097032555
-0.095403831
0.10796252
-0.10328412
0.11866401
-0.11085406
0.12902969
-0.11809656
0.138983
-0.12501523
0.14847493
-0.13163175
-0.13794535
0.15750582
0.00065088707
-0.0022583406
0.0025243447
-0.0075523298
0.005603641
-0.013699109
0.0098644761
-0.020592434
0.015264628
-0.02813483
0.021736433
-0.036216771
0.02918251
-0.044716021
0.037474929
-0.053501185
0.046458041
-0.062436279
0.05595488
-0.07138695
0.065776476
-0.080227785
0.075733057
-0.088849581
0.085645759
-0.09716553
0.095357432
-0.1051155
0.10474124
-0.11266792
0.11370621
-0.11981904
0.12219937
-0.12658972
0.13020456
-0.13302042
0.13773798
-0.13916517
-0.14506771
0.14486034
0.00073063669
-0.0029889773
0.0027920894
-0.0096137825
0.0061265809
-0.0170336
0.010666723
-0.025132576
0.016322666
-0.033790772
0.022975264
-0.04286937
0.030474455
-0.052215212
0.038642428
-0.061669158
0.04728122
-0.071075071
0.056183766
-0.080289496
0.065146917
-0.089190936
0.073984626
-0.09768729
0.082539505
-0.10572041
0.090691315
-0.11326731
0.098361459
-0.12033807
0.1055133
-0.12697087
0.11214877
-0.1332252
0.11830237
-0.13917402
0.12403358
-0.14489638
-0.15046342
0.12942929
0.00080073205
-0.0037897094
0.0030139191
-0.01182697
0.0065329006
-0.020552582
0.011240062
-0.029839737
0.016992711
-0.039543422
0.023618563
-0.049495221
0.030918236
-0.059514885
0.038673341
-0.069424263
0.046658796
-0.079060526
0.054657419
-0.088288119
0.062474477
-0.097007994
0.069949968
-0.10516278
0.076966969
-0.11273741
0.083455098
-0.11975544
0.089389098
-0.12627207
0.094783291
-0.13236507
0.09968327
-0.13812518
0.10415645
-0.1436472
0.10828305
-0.14902297
-0.15433367
0.1121533
0.00085605954
-0.0046457689
0.0031720635
-0.014142974
0.0067872315
-0.02416775
0.011529811
-0.034582317
0.017203446
-0.045217057
0.023586563
-0.055878338
0.030439891
-0.066368213
0.037519345
-0.076503717
0.044591814
-0.086132995
0.051451015
-0.095147321
0.057930639
-0.10348762
0.063912776
-0.11114492
0.069330636
-0.11815527
0.074165676
-0.12459048
0.078440227
-0.13054662
0.082207298
-0.13613214
0.085539452
-0.14145733
0.0885185
-0.14662624
0.091227287
-0.15173176
-0.15685215
0.09374576
0.00089026313
-0.005536032
0.0032482858
-0.016500996
0.006857627
-0.027777091
0.011492472
-0.039217161
0.016906819
-0.050631404
0.022838906
-0.061810425
0.029023681
-0.072552988
0.03520926
-0.082689296
0.041173935
-0.09209767
0.046740398
-0.10071378
0.051784652
-0.10853187
0.056238395
-0.11559866
0.060085118
-0.12200199
0.063351217
-0.12785658
0.066094174
-0.13328958
0.068390006
-0.13842797
0.070321863
-0.14338919
0.071971166
-0.14827555
0.073411846
-0.15317244
-0.15814779
0.074707489
0.00089981892
-0.0064358509
0.0032333827
-0.01883456
0.006729168
-0.031272876
0.011111182
-0.043599175
0.016092492
-0.055612714
0.02138463
-0.067102563
0.02671389
-0.077882249
0.031839119
-0.087814525
0.036567084
-0.096825635
0.040762264
-0.10490896
0.04434946
-0.11211907
0.047309327
-0.11855853
0.049668374
-0.12436104
0.051485774
-0.12967398
0.052839475
-0.13464328
0.05381376
-0.13940225
0.054489642
-0.14406507
0.054938742
-0.14872465
0.05522046
-0.15345416
0.055380886
-0.15830821
-0.00020237858
0.00020237856
4.5322609e-11
-0.0006777475
0.00047536886
7.2871511e-11
-0.0013424278
0.00066468017
8.806214e-11
-0.0021322972
0.00078986933
9.4092417e-11
-0.0029957772
0.00086347991
9.4075956e-11
-0.0038907454
0.00089496811
8.6710779e-11
-0.0047823017
0.00089155626
7.7608139e-11
-0.0056408995
0.00085859774
6.5247049e-11
-0.0064408748
0.00079997534
5.4084034e-11
-0.0071592958
0.00071842094
4.2635107e-11
-0.0077750439
0.00061574804
3.3514207e-11
-0.0082680788
0.00049303486
2.5472405e-11
-0.0086188587
0.00035077993
1.9677622e-11
-0.0088079072
0.00018904846
1.5124927e-11
-0.0088155576
7.6503875e-06
1.2318747e-11
-0.0086219771
-0.00019358048
1.0445127e-11
-0.0082074305
-0.00041454661
9.5783329e-12
-0.0075518748
-0.00065555574
9.395056e-12
-0.0066345535
-0.00091732128
9.6953241e-12
-0.0011862396
-0.0054483139
1.0040062e-11
-0.00018797476
0.00039035334
-0.00062500799
0.0009124021
-0.0012287551
0.0012684273
-0.0019351973
0.0014963116
-0.002692143
0.0016204256
-0.0034562886
0.0016591137
-0.0041910723
0.00162634
-0.0048648643
0.0015323897
-0.0054495293
0.0013846404
-0.0059192916
0.0011881832
-0.0062498192
0.00094627565
-0.0064174823
0.00066069797
-0.0063987485
0.00033204609
-0.0061697034
-3.9996584e-05
-0.0057057262
-0.00045632689
-0.0049814085
-0.00091789811
-0.0039707713
-0.0014251839
-0.0026471847
-0.0019791423
-0.00098321884
-0.0025812872
-0.0032018026
0.0010323441
-0.00015892808
0.00054928143
-0.00051889214
0.0012723662
-0.0010007713
0.0017503064
-0.0015412612
0.0020368015
-0.002087352
0.0021665164
-0.0025937375
0.0021654992
-0.0030208704
0.0020534728
-0.0033332951
0.0018448145
-0.0034983024
0.0015496477
-0.0034848532
0.001174734
-0.0032626945
0.00072411699
-0.0028016399
0.0001996434
-0.0020709357
-0.00039865812
-0.001038747
-0.0010721853
0.00032827176
-0.0018233456
0.002065253
-0.0026548793
0.004209076
-0.0035690069
0.0067980607
-0.004568127
0.0098718988
-0.0056551253
-0.0067797748
0.013449871
-0.00011756707
0.00066684851
-0.00036699883
0.001521798
-0.00067351404
0.0020568216
-0.00097482595
0.0023381134
-0.0012168539
0.0024085444
-0.0013515933
0.0023002386
-0.0013354577
0.0020373372
-0.0011278246
0.0016371814
-0.0006898387
0.0011116618
1.6540374e-05
0.00046835494
0.001029322
-0.00028866462
0.0023871315
-0.0011581662
0.0041297557
-0.0021412823
0.006298624
-0.0032410536
0.0089373146
-0.0044620363
0.012092112
-0.0058096763
0.015812379
-0.0072892743
0.02015026
-0.0089060085
0.025160467
-0.010665332
-0.012492676
0.030873368
-6.6907634e-05
0.00073375615
-0.00017916637
0.0016340567
-0.0002665333
0.0021441886
-0.00026769022
0.0023392704
-0.00012719181
0.002268046
0.00020617114
0.0019668757
0.0007807003
0.0014628081
0.0016429592
0.00077492247
0.002838743
-8.4122004e-05
0.0044138643
-0.0011067663
0.0064147164
-0.0022895168
0.0088886904
-0.0036321401
0.0118845
-0.0051370917
0.015452511
-0.0068090645
0.019645116
-0.0086546415
0.024517355
-0.010681915
0.030127791
-0.01289971
0.036539022
-0.01531724
0.043818447
-0.017944756
-0.020682623
0.052008394
-9.9845044e-06
0.00074374066
3.4535555e-05
0.0015895367
0.00019989164
0.0019788325
0.00054676864
0.0019923934
0.0011322521
0.0016825626
0.002010989
0.0010881388
0.0032361515
0.00023764552
0.0048603205
-0.00084924653
0.0069361427
-0.0021599441
0.009516705
-0.0036873286
0.012655743
-0.005428555
0.016407746
-0.0073841432
0.020827883
-0.0095572287
0.025971842
-0.011953023
0.03189573
-0.01457853
0.038656376
-0.017442562
0.046312514
-0.020555848
0.054926841
-0.023931567
0.064569853
-0.027587769
-0.031405707
0.075292937
5.0751531e-05
0.00069298913
0.00026565871
0.0013746295
0.00070825664
0.0015362346
0.0014390346
0.0012616154
0.0025168274
0.0006047698
0.0039995772
-0.00039461097
0.00594493
-0.0017077073
0.0084106245
-0.003314941
0.011454623
-0.0052039423
0.015135078
-0.0073677842
0.019510069
-0.0098035459
0.02463707
-0.012511144
0.030572215
-0.015492374
0.037369404
-0.018750212
0.045079365
-0.02228849
0.053749108
-0.026112305
0.063422745
-0.030229484
0.074144874
-0.034653696
0.085969529
-0.039412424
-0.044388642
0.098952464
0.00011379662
0.00057919251
0.00050850471
0.0009799214
0.0012459854
0.00079875395
0.0023867832
0.00012081761
0.0039912499
-0.00099969693
0.0061198896
-0.0025232506
0.0088333391
-0.0044211567
0.012192192
-0.0066737936
0.016256592
-0.0092683423
0.021085489
-0.012196682
0.026735603
-0.015453659
0.033260091
-0.019035632
0.040706967
-0.02293925
0.049117291
-0.027160536
0.058523271
-0.03169447
0.068946641
-0.036535676
0.080398481
-0.041681324
0.09288233
-0.047137544
0.10640569
-0.052935782
-0.058995832
0.12101288
0.00017849621
0.00040069629
0.00076003151
0.0003983861
0.0018053426
-0.00024655718
0.0033747205
-0.0014485603
0.0055290064
-0.0031539828
0.0083293357
-0.0053235798
0.011836513
-0.007928334
0.016110089
-0.01094737
0.021207083
-0.014365336
0.027180355
-0.018169953
0.034076681
-0.022349986
0.041934555
-0.026893506
0.050781753
-0.031786448
0.060632702
-0.037011484
0.071485625
-0.042547393
0.083319533
-0.048369584
0.096092021
-0.054453812
0.1097406
-0.060786126
0.12419619
-0.067391373
-0.074274795
0.13947516
0.00024512773
0.0010199513
0.0023833448
0.0043938703
0.0071105628
0.010591924
0.014894338
0.02007015
0.026165423
0.033217435
0.041252085
0.050281331
0.060300833
0.071287853
0.083199264
0.095969045
0.10950356
0.12366396
0.1381835
0.15258778
-0.0035076776
-0.0019406363
1.3666042e-11
-0.0012858802
-0.0022217974
1.2976359e-11
0.0011947431
-0.0024806234
1.1955203e-11
0.0038772932
-0.0026825501
1.0918302e-11
0.0067349664
-0.0028576732
9.799373e-12
0.0097504567
-0.0030154904
8.7323929e-12
0.01290483
-0.003154373
6.3129343e-12
0.016180063
-0.0032752331
2.8756269e-12
0.019560454
-0.0033803917
-1.8102921e-12
0.023031786
-0.0034713315
-7.375132e-12
0.026580771
-0.0035489849
-1.3774309e-11
0.030194985
-0.0036142136
-2.0572048e-11
0.033862784
-0.0036677991
-2.7519554e-11
0.037573172
-0.0037103884
-3.395594e-11
0.041315698
-0.0037425263
-3.934643e-11
0.045080391
-0.0037646923
-4.2821236e-11
0.048857709
-0.0037773177
-4.3687648e-11
0.052638508
-0.0037807991
-4.1009832e-11
0.056414021
-0.0037755131
-3.4070756e-11
0.060175848
-0.0037618275
-2.2004897e-11
0.063915959
-0.0037401102
-4.3056423e-12
0.067626694
-0.0037107354
1.9487427e-11
0.071300782
-0.0036740876
4.9194313e-11
0.074931345
-0.0036305639
8.4309809e-11
0.078511919
-0.0035805735
1.2328629e-10
0.082036456
-0.0035245375
1.6396574e-10
0.085499342
-0.003462886
2.0273922e-10
0.088895397
-0.0033960555
2.3532037e-10
0.092219882
-0.0033244851
2.558205e-10
0.095468495
-0.003248613
2.5821648e-10
0.098637368
-0.0031688734
2.3540537e-10
0.10172306
-0.0030856926
1.8178856e-10
0.10472255
-0.0029994863
9.2230528e-11
0.1076332
-0.0029106579
-3.3908287e-11
0.1104528
-0.0028195971
-1.9432341e-10
0.11317948
-0.0027266794
-3.7840553e-10
0.11581175
-0.0026322676
-5.7046944e-10
0.11834846
-0.0025367141
-7.4417576e-10
0.12078883
-0.002440368
-8.691759e-10
0.12313241
-0.002343576
-9.0803177e-10
0.12537914
-0.0022467244
-8.2729983e-10
0.1275293
-0.0021501647
-6.0014487e-10
0.12958389
-0.0020545869
-2.2057472e-10
0.13154387
-0.0019599801
2.9141416e-10
0.13341333
-0.0018694664
8.7537165e-10
0.1351908
-0.0017774655
1.4329955e-09
0.13690072
-0.0017099239
1.8303711e-09
0.13849895
-0.0015982356
1.9298167e-09
0.14018635
-0.0016873958
1.6293289e-09
-0.0013317014
3.339087e-10
0.0028529679
-0.0037612601
0.0049501239
-0.0043189534
0.0072929936
-0.004823493
0.0098191349
-0.0052086914
0.012507487
-0.0055460248
0.015345723
-0.0058537271
0.018317104
-0.0061257539
0.021405223
-0.0063633516
0.02459606
-0.0065712289
0.027876854
-0.0067521251
0.031235472
-0.0069076029
0.034660433
-0.0070391749
0.038140881
-0.0071482469
0.041666468
-0.0072359762
0.045227278
-0.0073033364
0.048813777
-0.0073511913
0.052416786
-0.0073803267
0.056027461
-0.0073914732
0.05963728
-0.0073853328
0.063238052
-0.0073625994
0.066821917
-0.0073239746
0.070381359
-0.0072701783
0.073909227
-0.0072019556
0.077398743
-0.0071200793
0.08084352
-0.0070253504
0.084237577
-0.0069185945
0.087575348
-0.0068006571
0.09085169
-0.0066723979
0.094061888
-0.0065346828
0.097201652
-0.0063883769
0.10026712
-0.006234338
0.10325483
-0.0060734088
0.10616176
-0.0059064121
0.10898525
-0.005734147
0.11172304
-0.0055573851
0.11437323
-0.0053768717
0.11693429
-0.0051933271
0.11940502
-0.0050074515
0.1217846
-0.0048199399
0.1240725
-0.0046314822
0.12626863
-0.00444285
0.12837321
-0.0042547443
0.13038716
-0.0040685431
0.13231141
-0.003884228
0.13414996
-0.0037080111
0.13590132
-0.0035288312
0.1375895
-0.0033981046
0.13917139
-0.0031801275
0.14084264
-0.0033586437
-0.0026609481
0.015021216
-0.0053326054
0.016852326
-0.0061500632
0.018905874
-0.0068770405
0.021111931
-0.0074147484
0.023458863
-0.0078929571
0.025943018
-0.0083378818
0.028551776
-0.0087345127
0.031271659
-0.0090832346
0.034091566
-0.0093911356
0.037001266
-0.0096618254
0.03999064
-0.0098969764
0.043049826
-0.010098361
0.0461693
-0.010267721
0.049339807
-0.010406483
0.052552317
-0.010515846
0.055798019
-0.010596893
0.059068323
-0.010650631
0.062354866
-0.010678017
0.065649528
-0.010679994
0.068944441
-0.010657513
0.072232019
-0.010611553
0.075504974
-0.010543134
0.078756342
-0.010453323
0.0819795
-0.010343238
0.085168192
-0.010214042
0.088316539
-0.010066941
0.091419056
-0.0099031747
0.094470663
-0.0097240044
0.097466684
-0.0095307038
0.10040286
-0.009324549
0.10327532
-0.0091068038
0.10608063
-0.0088787133
0.10881571
-0.0086414938
0.11147789
-0.0083963272
0.11406486
-0.008144357
0.11657468
-0.0078866879
0.11900574
-0.00762439
0.12135679
-0.0073585045
0.12362692
-0.007090067
0.12581554
-0.0068201073
0.12792247
-0.0065497788
0.12994786
-0.0062801319
0.13189254
-0.0060132256
0.13375737
-0.0057490503
0.13554618
-0.0054968245
0.1372576
-0.0052402518
0.13891466
-0.0050551601
0.14047657
-0.004742046
0.14212838
-0.0050104546
-0.0039984325
0.032056668
-0.0065159055
0.033471875
-0.0075652698
0.035077389
-0.0084825545
0.036800233
-0.0091375932
0.038641095
-0.0097338184
0.04060627
-0.010303057
0.042688587
-0.01081683
0.044878524
-0.011273171
0.047168504
-0.011681115
0.049551299
-0.01204462
0.052019201
-0.012364879
0.054564255
-0.012643415
0.057178449
-0.012881915
0.05985374
-0.013081775
0.062582068
-0.013244174
0.065355387
-0.013370213
0.068165717
-0.01346096
0.07100518
-0.01351748
0.073866043
-0.013540857
0.076740755
-0.013532225
0.079621983
-0.013492781
0.082502648
-0.013423798
0.085375954
-0.013326629
0.08823542
-0.013202704
0.091074902
-0.013053524
0.093888611
-0.012880651
0.096671136
-0.012685699
0.099417444
-0.012470313
0.1021229
-0.012236159
0.10478326
-0.011984907
0.10739467
-0.011718212
0.10995366
-0.011437709
0.11245716
-0.011144994
0.11490246
-0.01084162
0.11728719
-0.010529094
0.11960937
-0.010208869
0.12186734
-0.0098823579
0.12405977
-0.0095509379
0.12618569
-0.0092159796
0.12824443
-0.0088788504
0.13023573
-0.008541083
0.13215968
-0.0082040781
0.13401702
-0.0078705674
0.13580855
-0.0075405743
0.13753792
-0.0072262005
0.13920395
-0.0069062817
0.14082829
-0.006679494
0.14237363
-0.0062873871
0.14400973
-0.0066465595
-0.0053600492
0.052648695
-0.0071562066
0.053489289
-0.0084058642
0.054483412
-0.0094766771
0.055565375
-0.010219556
0.056749996
-0.010918439
0.058051568
-0.011604629
0.059468602
-0.012233865
0.060996231
-0.0128008
0.062630244
-0.013315128
0.064366043
-0.013780419
0.066198107
-0.014196943
0.068120168
-0.014565475
0.07012546
-0.014887207
0.072206882
-0.015163197
0.074357086
-0.015394379
0.076568561
-0.015581687
0.078833713
-0.015726113
0.081144949
-0.015828716
0.083494741
-0.015890649
0.085875685
-0.015913169
0.088280556
-0.015897651
0.090702351
-0.015845593
0.093134331
-0.01575861
0.095570055
-0.015638428
0.098003409
-0.015486877
0.10042862
-0.015305867
0.1028403
-0.015097377
0.10523342
-0.01486343
0.10760334
-0.014606079
0.10994581
-0.01432738
0.11225698
-0.014029378
0.11453335
-0.013714086
0.11677184
-0.013383482
0.1189697
-0.013039481
0.12112456
-0.012683948
0.12323437
-0.012318685
0.12529746
-0.011945442
0.12731245
-0.011565931
0.12927833
-0.011181856
0.1311944
-0.010794923
0.13306036
-0.010407045
0.13487626
-0.010019976
0.1366428
-0.0096371121
0.13836077
-0.0092585412
0.14003366
-0.0088990938
0.14166058
-0.0085332008
0.1432615
-0.0082804138
0.14480355
-0.0078294378
0.14643758
-0.0082805905
-0.0067690381
0.075221927
-0.0070851961
0.075326892
-0.0085108298
0.075551265
-0.0097010496
0.07585156
-0.010519852
0.076255814
-0.011322693
0.076780878
-0.012129693
0.077429789
-0.012882775
0.078202476
-0.013573487
0.079097248
-0.0142099
0.080110957
-0.014794128
0.081239358
-0.015325345
0.082477157
-0.015803274
0.083818169
-0.016228219
0.085255614
-0.016600642
0.086782316
-0.01692108
0.088390822
-0.017190193
0.090073513
-0.017408804
0.091822712
-0.017577915
0.093630775
-0.017698712
0.095490163
-0.017772558
0.097393512
-0.017801
0.099333679
-0.01778576
0.10130379
-0.017728726
0.1032973
-0.017631931
0.10530797
-0.017497545
0.10732994
-0.017327839
0.10935773
-0.017125172
0.11138626
-0.01689196
0.11341083
-0.016630652
0.11542716
-0.016343703
0.11743134
-0.016033555
0.11941987
-0.015702616
0.12138963
-0.015353242
0.12333787
-0.014987725
0.12526221
-0.014608292
0.12716063
-0.014217099
0.12903143
-0.013816241
0.13087326
-0.013407766
0.13268513
-0.012993723
0.13446637
-0.01257616
0.13621669
-0.012157374
0.1379362
-0.011739484
0.13962563
-0.011326539
0.14128582
-0.010918735
0.14292018
-0.01053345
0.14452822
-0.01014124
0.14612807
-0.009880265
0.14769202
-0.0093933868
0.14934956
-0.0099381315
-0.0082575129
0.098025475
-0.0061582066
0.097258207
-0.0077435616
0.096581921
-0.009024764
0.09599749
-0.0099354206
0.095541042
-0.010866245
0.095223808
-0.01181246
0.095051158
-0.012710124
0.095027092
-0.013549422
0.095151144
-0.014333952
0.095420049
-0.015063033
0.095829447
-0.015734742
0.096373927
-0.016347755
0.097047006
-0.016901298
0.097841451
-0.017395086
0.098749577
-0.017829207
0.099763414
-0.01820403
0.10087482
-0.018520215
0.10207563
-0.018778717
0.10335769
-0.018980776
0.10471303
-0.019127895
0.10613385
-0.019221826
0.10761265
-0.019264555
0.1091422
-0.019258281
0.11071566
-0.019205386
0.11232653
-0.019108416
0.11396874
-0.018970048
0.11563662
-0.018793052
0.11732493
-0.018580274
0.11902887
-0.018334592
0.12074406
-0.018058889
0.12246654
-0.017756035
0.12419278
-0.017428852
0.12591964
-0.017080105
0.1276444
-0.016712481
0.12936469
-0.016328589
0.13107855
-0.015930955
0.13278434
-0.015522037
0.13448081
-0.015104237
0.13616705
-0.014679959
0.1378425
-0.014251606
0.139507
-0.013821878
0.14116078
-0.013393265
0.14280471
-0.012970472
0.14443982
-0.012553838
0.14606948
-0.012163113
0.14769377
-0.011765529
0.14932892
-0.011515413
0.15095284
-0.011017311
0.15267248
-0.011657772
-0.0098672335
0.11918924
-0.004334569
0.11749664
-0.0060509646
0.11585713
-0.0073852534
0.11435461
-0.0084328998
0.11302532
-0.0095369521
0.11186676
-0.010653906
0.11088442
-0.011727775
0.11008455
-0.012749559
0.10946659
-0.013715986
0.10902592
-0.014622369
0.10875675
-0.015465571
0.10865241
-0.016243412
0.1087053
-0.016954189
0.10890712
-0.017596902
0.10924913
-0.018171221
0.1097224
-0.018677302
0.1103179
-0.019115717
0.11102663
-0.019487443
0.1118397
-0.019793841
0.11274842
-0.02003662
0.1137444
-0.020217805
0.11481955
-0.020339707
0.11596617
-0.020404899
0.11717696
-0.020416173
0.11844505
-0.020376513
0.11976406
-0.020289052
0.12112804
-0.020157035
0.12253155
-0.019983782
0.12396961
-0.019772652
0.12543773
-0.019527009
0.12693188
-0.019250186
0.1284485
-0.018945468
0.12998445
-0.018616062
0.13153706
-0.018265086
0.13310403
-0.017895565
0.1346835
-0.017510426
0.13627398
-0.017112515
0.13787436
-0.016704616
0.13948391
-0.016289509
0.14110229
-0.015869982
0.14272955
-0.015449145
0.14436618
-0.015029888
0.14601328
-0.014617572
0.14767216
-0.014212723
0.14934633
-0.013837282
0.15103652
-0.013455713
0.15275711
-0.013236007
0.15449191
-0.012752113
0.15632518
-0.013491039
-0.011649547
0.13689619
-0.0017556047
0.13437824
-0.0035330103
0.13181968
-0.0048266924
0.12946262
-0.0060758422
0.12733427
-0.007408605
0.12541601
-0.0087356435
0.12371066
-0.010022429
0.12222332
-0.011262215
0.12095243
-0.012445097
0.11989222
-0.013562162
0.11903519
-0.014608539
0.11837299
-0.015581209
0.11789662
-0.01647782
0.11759656
-0.017296839
0.11746293
-0.018037597
0.11748574
-0.018700105
0.11765495
-0.01928493
0.11796065
-0.019793147
0.11839312
-0.020226306
0.11894289
-0.020586389
0.11960084
-0.020875757
0.12035825
-0.021097118
0.12120684
-0.021253486
0.12213879
-0.021348128
0.12314681
-0.021384532
0.12422412
-0.021366357
0.12536446
-0.021297382
0.12656215
-0.02118147
0.12781202
-0.021022521
0.12910945
-0.020824433
0.13045033
-0.020591067
0.13183108
-0.020326217
0.1332486
-0.020033588
0.13470029
-0.019716774
0.13618398
-0.019379259
0.13769797
-0.019024413
0.13924097
-0.01865551
0.14081209
-0.018275745
0.1424109
-0.017888315
0.14403733
-0.017496414
0.14569179
-0.017103598
0.14737508
-0.016713178
0.14908868
-0.016331181
0.15083433
-0.015958363
0.15261573
-0.01561869
0.15443441
-0.015274389
0.15630302
-0.015104619
0.15821137
-0.014660461
0.16022146
-0.015501125
-0.013664493
0.15005229
0.00077989235
0.14676335
-0.00024407126
0.14346602
-0.0015293617
0.14041825
-0.003028072
0.13762336
-0.0046137208
0.13507511
-0.0061873896
0.13277532
-0.0077226409
0.13072408
-0.0092109778
0.12891896
-0.010639971
0.12735474
-0.011997946
0.12602361
-0.013277408
0.12491616
-0.014473757
0.12402221
-0.01558387
0.1233311
-0.016605732
0.12283186
-0.017538351
0.12251336
-0.018381608
0.12236454
-0.019136109
0.12237448
-0.019803089
0.12253253
-0.020384354
0.12282836
-0.02088222
0.12325206
-0.02129946
0.1237942
-0.021639251
0.12444583
-0.021905118
0.12519859
-0.022100885
0.12604467
-0.022230618
0.12697689
-0.022298576
0.12798866
-0.022309152
0.12907401
-0.022266824
0.1302276
-0.022176107
0.13144467
-0.022041503
0.13272107
-0.021867467
0.13405322
-0.021658369
0.1354381
-0.021418467
0.13687322
-0.021151893
0.1383566
-0.020862642
0.13988676
-0.020554574
0.14146269
-0.020231435
0.14308383
-0.01989688
0.14475006
-0.019554554
0.14646174
-0.019208093
0.14821968
-0.018861533
0.15002513
-0.018518626
0.15188004
-0.018186095
0.15378661
-0.017864932
0.15574896
-0.017581046
0.1577693
-0.017294723
0.15985916
-0.017194477
0.16201278
-0.016814083
0.16427495
-0.017763295
-0.015977037
0.18890907
0.0053819818
-0.19351116
0.18509905
0.0035659545
0.18170703
0.0018626604
0.17856191
0.00011704071
0.17562637
-0.0016781752
0.17287536
-0.0034363785
0.17029066
-0.0051379398
0.16786327
-0.0067835937
0.16558932
-0.0083660231
0.16346666
-0.0098752784
0.16149341
-0.011304161
0.15966747
-0.01264782
0.1579862
-0.013902601
0.15644631
-0.015065839
0.15504387
-0.016135914
0.15377442
-0.017112158
0.15263303
-0.01799472
0.15161441
-0.018784465
0.15071298
-0.019482918
0.14992295
-0.020092197
0.14923844
-0.020614952
0.1486535
-0.021054306
0.14816218
-0.021413793
0.14775859
-0.0216973
0.14743698
-0.021909004
0.14719172
-0.022053315
0.14701738
-0.022134813
0.14690874
-0.022158189
0.14686083
-0.022128197
0.14686892
-0.022049593
0.14692855
-0.0219271
0.14703555
-0.021765364
0.14718601
-0.021568926
0.14737632
-0.021342203
0.14760315
-0.021089475
0.14786346
-0.020814888
0.1481545
-0.020522474
0.14847379
-0.020216173
0.14881916
-0.019899922
0.14918873
-0.019577656
0.14958093
-0.019253736
0.14999453
-0.018932232
0.15042878
-0.018620339
0.15088314
-0.018319293
0.15135824
-0.018056145
0.15185393
-0.017790412
0.15237469
-0.017715245
0.15291623
-0.017355615
0.15350154
-0.018348609
-0.016570173
0.21685795
0.0087803012
-0.22025627
0.21338408
0.0070398296
0.21017128
0.0050754604
0.20706598
0.003222341
0.2040194
0.0013684074
0.20106249
-0.00047947175
0.19821214
-0.0022875922
0.19547287
-0.0040443179
0.19285056
-0.0057437196
0.19035206
-0.007376779
0.18798257
-0.0089346655
0.18574547
-0.010410726
0.18364278
-0.011799903
0.18167517
-0.013098237
0.17984213
-0.014302871
0.17814202
-0.01541205
0.1765723
-0.016425001
0.17512966
-0.017341819
0.17381013
-0.018163395
0.17260928
-0.018891341
0.17152224
-0.019527918
0.1705439
-0.020075962
0.16966892
-0.020538817
0.16889188
-0.020920259
0.16820731
-0.02122443
0.16760976
-0.021455768
0.16709388
-0.021618933
0.16665444
-0.021718749
0.16628638
-0.021760137
0.16598484
-0.021748055
0.1657452
-0.021687453
0.16556306
-0.021583223
0.1654343
-0.02144017
0.16535508
-0.021262983
0.16532183
-0.021056223
0.16533126
-0.02082432
0.16538038
-0.020571598
0.1654665
-0.020302291
0.16558722
-0.020020638
0.16574045
-0.019730886
0.16592444
-0.019437728
0.1661378
-0.01914559
0.16637952
-0.01886206
0.16664911
-0.018588883
0.16694642
-0.018353456
0.16727269
-0.018116679
0.16762714
-0.018069696
0.16801807
-0.017746548
0.16842748
-0.018758019
-0.017044523
0.24376686
0.011504244
-0.2464908
0.24091643
0.0098902556
0.23806323
0.0079286588
0.23521628
0.0060692906
0.23233849
0.0042461971
0.22945069
0.0024083347
0.22658408
0.00057901088
0.22375798
-0.0012182149
0.2209883
-0.0029740344
0.21829096
-0.0046794477
0.21567985
-0.0063235465
0.21316594
-0.0078968184
0.21075785
-0.0093918184
0.20846215
-0.010802533
0.20628346
-0.012124182
0.20422467
-0.013353256
0.20228712
-0.014487457
0.20047087
-0.015525566
0.19877482
-0.016467349
0.19719695
-0.017313471
0.19573445
-0.018065408
0.19438385
-0.018725365
0.19314121
-0.019296183
0.19200222
-0.019781262
0.19096226
-0.020184472
0.19001657
-0.020510074
0.18916028
-0.020762643
0.18838851
-0.020946983
0.18769643
-0.021068063
0.18707932
-0.021130942
0.18653259
-0.021140718
0.18605183
-0.021102467
0.18563287
-0.021021208
0.18527175
-0.020901867
0.18496479
-0.020749262
0.18470857
-0.020568097
0.18449995
-0.020362977
0.18433609
-0.020138431
0.18421445
-0.019899002
0.18413282
-0.01964926
0.18408932
-0.019394226
0.18408246
-0.019138727
0.18411105
-0.018890651
0.18417469
-0.018652519
0.18427247
-0.018451236
0.18440711
-0.018251323
0.18457223
-0.018234813
0.18478971
-0.017964026
0.18499567
-0.018963979
-0.01737763
0.2692746
0.013537186
-0.27130754
0.26710657
0.012058289
0.26476482
0.010270409
0.2623256
0.0085085049
0.25979686
0.0067749351
0.25718878
0.0050164169
0.25452748
0.003240315
0.25183712
0.0014721386
0.24913772
-0.00027462938
0.24644907
-0.0019907962
0.24379046
-0.0036649385
0.24117903
-0.0052853895
0.23862951
-0.0068422955
0.23615438
-0.0083274058
0.23376394
-0.0097337446
0.23146636
-0.011055671
0.22926781
-0.012288906
0.22717269
-0.013430446
0.2251838
-0.01447846
0.22330253
-0.015432207
0.22152907
-0.016291946
0.21986254
-0.017058836
0.2183012
-0.017734845
0.21684259
-0.018322652
0.21548367
-0.018825548
0.21422094
-0.019247348
0.21305059
-0.019592293
0.21196857
-0.019864961
0.2109707
-0.020070188
0.21005274
-0.020212981
0.20921047
-0.020298454
0.20843977
-0.020331764
0.20773662
-0.020318057
0.20709718
-0.020262432
0.20651783
-0.020169913
0.20599517
-0.020045438
0.20552607
-0.019893869
0.20510765
-0.019720016
0.20473737
-0.019528716
0.20441297
-0.019324863
0.20413254
-0.019113799
0.20389459
-0.018900774
0.20369784
-0.018693906
0.20354201
-0.018496685
0.20342561
-0.018334841
0.20335257
-0.018178282
0.20331171
-0.018193947
0.20333624
-0.017988564
0.20332099
-0.018948722
-0.017547306
0.29298534
0.014868319
-0.29431648
0.29150611
0.013537523
0.28978363
0.011992893
0.287885
0.010407129
0.2858451
0.0088148355
0.28367474
0.0071867778
0.28139233
0.005522725
0.27902112
0.0038433546
0.2765824
0.0021640902
0.27409633
0.00049526482
0.27158313
-0.0011517368
0.26906251
-0.0027647716
0.2665528
-0.004332585
0.26407059
-0.0058451945
0.26163062
-0.0072937718
0.25924565
-0.0086707013
0.25692645
-0.0099697007
0.25468182
-0.011185823
0.25251876
-0.012315401
0.25044254
-0.013355987
0.24845688
-0.014306285
0.24656411
-0.015166065
0.24476533
-0.015936066
0.24306059
-0.016617904
0.241449
-0.017213968
0.23992897
-0.017727316
0.23849826
-0.018161577
0.23715415
-0.018520851
0.23589357
-0.01880961
0.2347132
-0.01903261
0.23360955
-0.019194811
0.23257909
-0.019301298
0.23161826
-0.019357225
0.23072358
-0.019367759
0.22989172
-0.019338048
0.22911948
-0.019273201
0.2284039
-0.01917829
0.22774225
-0.019058368
0.22713208
-0.018918546
0.22657124
-0.018764024
0.2260579
-0.018600453
0.22559064
-0.018433512
0.22516822
-0.01827149
0.2247905
-0.018118961
0.22445563
-0.01799998
0.22416839
-0.017891039
0.22391393
-0.01793949
0.22373382
-0.017808452
0.22348921