/*--------------------------------*- C++ -*----------------------------------*\
  =========                 |
  \\      /  F ield         | OpenFOAM: The Open Source CFD Toolbox
   \\    /   O peration     | Website:  https://openfoam.org
    \\  /    A nd           | Version:  6
     \\/     M anipulation  |
\*---------------------------------------------------------------------------*/
FoamFile
{
    version     2.0;
    format      ascii;
    class       volVectorField;
    location    "153";
    object      U_0;
}
// * * * * * * * * * * * * * * * * * * * * * * * * * * * * * * * * * * * * * //

dimensions      [0 1 -1 0 0 0 0];

internalField   nonuniform List<vector> 
9200
(
(0.001039359 0.0014199755 -5.9201943e-20)
(0.013676123 -0.0020583963 4.6042623e-20)
(0.038313288 -0.0058666198 -3.850181e-20)
(0.072274642 -0.0097635794 -6.0257855e-20)
(0.11376504 -0.013490126 1.8827004e-20)
(0.1615813 -0.016605778 3.2743941e-20)
(0.21467201 -0.018817429 -1.2268036e-20)
(0.27206674 -0.019974058 9.268883e-21)
(0.33285702 -0.020011414 1.6803452e-20)
(0.3961644 -0.018929267 1.4848099e-21)
(0.46111662 -0.016780056 -2.1456379e-20)
(0.52683805 -0.013657997 2.0670047e-20)
(0.59245198 -0.0096882909 -4.0422227e-20)
(0.65709271 -0.0050160979 -2.1133951e-20)
(0.7199262 0.00020520919 5.9046654e-21)
(0.78017657 0.0058237094 -2.513174e-20)
(0.8371722 0.01171239 2.5217187e-20)
(0.89047039 0.01791805 2.2243289e-20)
(0.93967234 0.024572907 -2.9927809e-22)
(0.98205348 0.028292837 -1.6691636e-21)
(0.0052522021 -0.0013462847 -1.7059381e-20)
(0.026962584 -0.008989068 3.9747781e-20)
(0.061670282 -0.014809832 2.357634e-20)
(0.10629516 -0.01917236 -1.1569777e-19)
(0.15873604 -0.02221411 -1.2727113e-20)
(0.21753403 -0.02372082 7.3297193e-20)
(0.2813736 -0.023595252 -3.5476461e-20)
(0.34900679 -0.021869141 -8.3905707e-21)
(0.41924012 -0.018645721 3.4287602e-20)
(0.49091049 -0.014081059 -4.3259663e-20)
(0.56287349 -0.0083761911 -3.0338547e-20)
(0.63400975 -0.0017668588 7.1921607e-20)
(0.70324468 0.0054881035 3.8294139e-20)
(0.76957727 0.013118312 -6.797674e-20)
(0.83211397 0.020851729 1.4623736e-20)
(0.89010191 0.028419315 -3.6733513e-20)
(0.94297072 0.035569244 -1.3777226e-20)
(0.99043384 0.042140413 7.0975041e-20)
(1.0323575 0.04771479 2.9642142e-20)
(1.0669363 0.04913913 -8.3478506e-20)
(0.010858459 -0.0040424318 3.6773513e-20)
(0.043953528 -0.015431128 2.50474e-21)
(0.090515653 -0.022552362 2.2341753e-20)
(0.14711173 -0.026497462 9.8116972e-22)
(0.21134301 -0.027886422 -4.0774015e-20)
(0.28146828 -0.026795258 1.8576428e-20)
(0.35587115 -0.02338289 1.3420325e-20)
(0.43299096 -0.017921716 -5.0327792e-20)
(0.5113258 -0.010735848 5.7261966e-20)
(0.58942728 -0.002184097 1.4256724e-20)
(0.66591042 0.007347667 -5.4300839e-20)
(0.73948171 0.01746 -1.8237457e-20)
(0.8089774 0.02775627 9.0591533e-21)
(0.8734041 0.037858947 2.3444808e-20)
(0.9319751 0.047423681 -1.1362548e-20)
(0.98413515 0.05614857 2.7877816e-20)
(1.0295754 0.063788727 -2.0188298e-20)
(1.0682659 0.070203899 -7.0123844e-20)
(1.1003335 0.075118837 -2.3796375e-20)
(1.1249125 0.076640654 4.865995e-20)
(0.01795726 -0.0064221826 2.4508048e-20)
(0.064777145 -0.020694858 5.10393e-20)
(0.12485256 -0.028060933 1.9881723e-20)
(0.19447007 -0.030464174 1.299011e-20)
(0.27094987 -0.029094968 1.7275726e-20)
(0.3522495 -0.02438912 -4.7720246e-20)
(0.43643224 -0.016826128 -2.56469e-20)
(0.52162107 -0.0069768409 0)
(0.60603007 0.0045668454 1.3920665e-20)
(0.68798829 0.017211526 -5.8523714e-21)
(0.76597649 0.030373694 -9.7935176e-20)
(0.83867584 0.043499377 -1.5774842e-20)
(0.90501667 0.05608633 6.5103397e-20)
(0.96421712 0.067703812 4.8440276e-22)
(1.0158049 0.078007352 -1.5725616e-21)
(1.0596169 0.086746386 2.1957566e-20)
(1.0957786 0.093771775 -5.2647433e-21)
(1.1246812 0.099064833 -6.1029936e-20)
(1.1468659 0.10259653 -4.5851401e-20)
(1.1622968 0.10341326 6.9520703e-20)
(0.02657948 -0.0082057092 -3.9194233e-21)
(0.089344209 -0.024033567 -5.1256362e-21)
(0.16430787 -0.030265075 5.6599485e-20)
(0.24758168 -0.029810124 1.8539349e-20)
(0.33624225 -0.024513145 -3.1955114e-20)
(0.42795205 -0.015239989 1.2163857e-20)
(0.52047356 -0.0028515024 2.640291e-21)
(0.61166465 0.011736944 3.3609243e-20)
(0.6995483 0.027639975 5.6599632e-21)
(0.78236965 0.044028583 -1.3204784e-20)
(0.85865539 0.060147514 6.0154225e-20)
(0.92727047 0.07534023 -5.8009495e-20)
(0.98745813 0.089072585 -1.3216651e-19)
(1.0388544 0.1009487 -5.5773203e-21)
(1.0814738 0.11071673 8.3151037e-20)
(1.1156668 0.11826364 0)
(1.142056 0.12360537 1.0118986e-20)
(1.161468 0.12689006 -1.5459821e-20)
(1.174819 0.12829816 -8.599489e-21)
(1.1826683 0.12744857 2.0992288e-20)
(0.036666984 -0.0090896009 -5.4309125e-21)
(0.11731534 -0.024685415 4.3578801e-21)
(0.20811907 -0.028140257 -8.7629949e-21)
(0.30515758 -0.023415046 2.8472431e-20)
(0.40533612 -0.013075691 -2.939271e-20)
(0.50607235 0.001522509 -1.6927052e-20)
(0.60490592 0.019095026 3.7364281e-20)
(0.69955073 0.03836513 4.7595478e-21)
(0.78800515 0.058167505 -2.4436136e-20)
(0.86863534 0.077482842 6.9867729e-20)
(0.94024105 0.095458452 5.2391704e-22)
(1.0020969 0.11143134 -8.0444558e-20)
(1.0539582 0.12494264 0)
(1.0960286 0.13573719 3.9542247e-20)
(1.1288934 0.14374807 5.5236199e-21)
(1.153429 0.14906853 -7.7566637e-20)
(1.1707001 0.15191869 -1.9586981e-20)
(1.1818633 0.15262319 -1.246767e-20)
(1.1880601 0.15152552 -1.4709433e-20)
(1.1901469 0.14858435 4.042064e-20)
(0.048058959 -0.0087674244 -1.7277974e-20)
(0.14808337 -0.021932044 -2.2198427e-21)
(0.25514115 -0.020797899 3.0380536e-20)
(0.36546447 -0.010412863 3.7484347e-20)
(0.475905 0.0059015158 -1.9944761e-20)
(0.58374361 0.026269232 -6.9163154e-20)
(0.68644292 0.048977128 -2.7995861e-20)
(0.7817632 0.072417697 7.8929378e-20)
(0.86790319 0.095212367 8.5778492e-21)
(0.94359043 0.11624948 -2.4873533e-20)
(1.0081271 0.1346981 1.3642228e-20)
(1.0613883 0.15001534 -4.3194685e-21)
(1.1037705 0.16193634 0)
(1.1360986 0.17044398 2.7203558e-20)
(1.1595057 0.17572274 -7.9322637e-20)
(1.1753031 0.1781033 -3.1475617e-20)
(1.1848579 0.17800769 8.1054807e-20)
(1.189493 0.17590897 -4.2970014e-21)
(1.1904038 0.17225507 3.5561157e-21)
(1.1885088 0.16719243 2.7111654e-20)
(0.060485357 -0.0069573791 -3.2414643e-20)
(0.18077803 -0.015170418 -8.1624416e-20)
(0.30388979 -0.0075835693 2.5797646e-21)
(0.42642625 0.0097033158 7.0161909e-20)
(0.54535234 0.032631516 6.2424473e-20)
(0.657982 0.058820005 -7.157463e-20)
(0.76190993 0.086176464 -2.8273539e-22)
(0.85518409 0.11285225 8.5522752e-20)
(0.93645468 0.13737829 4.8828182e-20)
(1.0050427 0.15869359 -5.4218549e-20)
(1.0609368 0.17613548 -9.2334453e-20)
(1.1047254 0.18941335 -3.1589909e-21)
(1.137477 0.1985592 4.2127977e-20)
(1.1605884 0.20385828 -6.6056463e-21)
(1.1756257 0.20576986 -1.286882e-20)
(1.1841786 0.20484881 1.9690856e-20)
(1.1877436 0.20167855 4.3880735e-20)
(1.1876462 0.19682542 -4.3859546e-20)
(1.1849961 0.19077835 -1.023223e-19)
(1.1806257 0.18377328 2.4566959e-20)
(0.073537337 -0.0034329822 -3.4979794e-20)
(0.21422722 -0.003989044 -1.7388627e-19)
(0.35251712 0.011839362 8.2103359e-20)
(0.48562871 0.037018332 9.2767648e-20)
(0.61085469 0.066835555 5.7970655e-20)
(0.72576828 0.098481182 8.6107263e-21)
(0.82834913 0.12959695 -1.062403e-19)
(0.91719114 0.15824266 0)
(0.99162862 0.18302809 -6.8748767e-20)
(1.0517532 0.20311198 -1.5202452e-20)
(1.0983395 0.21814847 5.4703602e-20)
(1.1327019 0.22821064 1.0973408e-20)
(1.156512 0.23369237 -4.5613968e-20)
(1.1716077 0.23519919 -4.9081482e-20)
(1.1798213 0.23344303 2.4287744e-20)
(1.1828459 0.22915287 4.482301e-20)
(1.1821497 0.22300946 -5.5600554e-20)
(1.1789368 0.21560779 -1.075115e-19)
(1.1741476 0.20742178 -3.1513621e-21)
(1.1684574 0.19871833 2.704647e-20)
(0.086650581 0.0019613858 -3.5449134e-21)
(0.24696056 0.011816639 8.7913338e-20)
(0.39884798 0.03749233 -1.6479209e-20)
(0.54040542 0.071218419 -8.4309291e-20)
(0.66949994 0.10778898 4.5164449e-20)
(0.78422055 0.14411548 4.9175529e-20)
(0.88319049 0.17775672 5.5356902e-21)
(0.96577983 0.20688491 -9.950271e-20)
(1.0321774 0.230388 -2.5048839e-21)
(1.0833339 0.24781547 5.0503666e-20)
(1.1208081 0.2592629 5.9854901e-21)
(1.1465568 0.26523604 -1.9717258e-20)
(1.1627117 0.26650512 -7.5704809e-20)
(1.1713774 0.26396596 -6.2554134e-21)
(1.1744771 0.258524 4.3533455e-20)
(1.1736556 0.25101055 3.7022098e-20)
(1.170239 0.24213358 1.9793481e-20)
(1.165241 0.23245835 -5.2994993e-20)
(1.1594021 0.22240376 1.2957456e-20)
(1.1532258 0.21223755 8.2659292e-20)
(-0.001293264 0.001434662 -1.1234544e-21)
(-0.0047459693 0.0031874199 2.0647016e-21)
(-0.010771379 0.0041359104 8.7947587e-22)
(-0.017754319 0.0045395424 -2.4410858e-21)
(-0.02474036 0.0045654226 -1.4114951e-21)
(-0.031299645 0.0043260436 1.5460346e-21)
(-0.037161386 0.0039035419 -6.8701075e-21)
(-0.042147506 0.003357724 -5.957351e-21)
(-0.046157841 0.0027313818 1.1172044e-20)
(-0.049146254 0.0020548293 -9.7427867e-21)
(-0.051100714 0.0013492971 -1.9833418e-22)
(-0.052030497 0.00062941645 3.6673555e-21)
(-0.051957781 -9.4897266e-05 -6.3295868e-22)
(-0.050911912 -0.00081694065 2.2818829e-20)
(-0.048925792 -0.0015318576 3.0401177e-22)
(-0.046035336 -0.0022351897 -4.0883031e-20)
(-0.042281768 -0.0029222867 7.5385936e-21)
(-0.037703386 -0.0035910603 2.3864207e-20)
(-0.032308607 -0.0042400117 -4.3852559e-20)
(-0.026156842 -0.0048211416 -2.7739324e-20)
(-0.001652203 0.0041808739 -5.3716075e-21)
(-0.0053974908 0.0092681544 1.086546e-20)
(-0.011218529 0.012007464 -1.0191541e-20)
(-0.017658055 0.013153784 3.9229797e-21)
(-0.02385647 0.013195432 4.8121665e-21)
(-0.029433361 0.01246274 7.1324542e-22)
(-0.034152367 0.011197025 -2.2509598e-20)
(-0.037860426 0.0095739037 -2.0370277e-21)
(-0.040474343 0.0077189887 2.016361e-20)
(-0.041958961 0.005721226 -5.0473781e-21)
(-0.04230898 0.0036428538 -2.1762664e-20)
(-0.041537354 0.0015266953 4.897334e-21)
(-0.039667713 -0.00059832987 2.2635501e-20)
(-0.036729062 -0.0027127929 1.0308428e-20)
(-0.03275199 -0.004802729 2.1854367e-20)
(-0.027769099 -0.0068555567 -1.9770803e-20)
(-0.021824691 -0.0088582768 -2.1673026e-20)
(-0.01496613 -0.010804292 2.1184706e-20)
(-0.007128835 -0.012679078 2.6810473e-20)
(0.0018745254 -0.01431731 1.5854825e-20)
(-0.0023034332 0.0065602447 -4.3568752e-21)
(-0.0065392346 0.014480221 -5.6387631e-21)
(-0.011892149 0.018710574 3.0723945e-22)
(-0.017211123 0.020428211 1.0959793e-21)
(-0.021819169 0.020400351 6.6918492e-21)
(-0.025431068 0.019151688 1.0665183e-20)
(-0.027877256 0.017066303 -3.7227772e-21)
(-0.029053286 0.01442379 -1.889621e-20)
(-0.028909042 0.01142435 6.5413364e-21)
(-0.027431041 0.0082098933 1.2862611e-20)
(-0.024627685 0.0048797537 5.8341017e-21)
(-0.020520056 0.0015022051 1.8159164e-20)
(-0.015135905 -0.0018769087 1.7295972e-21)
(-0.0085052843 -0.0052273057 -3.386464e-20)
(-0.00065674004 -0.0085276813 1.2020248e-21)
(0.0083812133 -0.011759195 -2.2139281e-20)
(0.018557112 -0.014904196 -2.4466398e-20)
(0.02980248 -0.017953868 4.5819889e-20)
(0.042305324 -0.020855249 2.5349452e-20)
(0.056739 -0.023247914 1.2240133e-22)
(-0.0031290327 0.0083689848 -5.2833169e-21)
(-0.0078964104 0.018336543 -8.481547e-21)
(-0.012439001 0.023587845 4.3593098e-21)
(-0.01602655 0.025609694 4.1463521e-21)
(-0.018235035 0.025382776 2.0105726e-21)
(-0.018912655 0.023589345 7.3210183e-21)
(-0.017984707 0.020730286 9.3125056e-21)
(-0.015416683 0.017170379 -1.3511421e-21)
(-0.011206998 0.013171303 -1.1481981e-20)
(-0.005375156 0.0089189065 -2.9071959e-20)
(0.0020482219 0.0045433973 6.189253e-23)
(0.011026657 0.0001342554 4.069794e-20)
(0.021522418 -0.0042490231 -1.8383224e-20)
(0.033498094 -0.0085676745 -1.2296126e-20)
(0.046920811 -0.012795654 5.5348666e-22)
(0.061760457 -0.016911983 3.2302752e-20)
(0.077953444 -0.020901818 -1.4829603e-20)
(0.09539277 -0.024763546 -5.3339366e-20)
(0.11439904 -0.028379911 4.5765166e-20)
(0.13634607 -0.03107331 3.3013287e-20)
(-0.0039704156 0.009465748 -6.8788893e-22)
(-0.0090916692 0.020487823 -1.2534762e-20)
(-0.012364481 0.026159123 -3.4144604e-20)
(-0.013552543 0.028143372 -5.7241788e-21)
(-0.01253323 0.027555034 -3.6222737e-21)
(-0.0093166964 0.025188081 6.3051196e-21)
(-0.003945592 0.021627415 -4.6462117e-21)
(0.0035262119 0.017298949 -8.8070536e-21)
(0.013036942 0.012508724 2.1899764e-20)
(0.024521407 0.0074743974 5.0567202e-21)
(0.037915754 0.0023488398 -2.5290361e-20)
(0.053157718 -0.0027628683 1.1078306e-20)
(0.070187204 -0.0077909798 0)
(0.088946989 -0.01269143 1.208961e-20)
(0.10938592 -0.01743707 -9.7016458e-21)
(0.13145798 -0.022010072 -1.4337165e-20)
(0.15507473 -0.026408847 -1.5738869e-21)
(0.18006836 -0.030659649 -2.2181675e-21)
(0.20685428 -0.034576791 4.6147196e-20)
(0.23766458 -0.037020153 -1.047018e-20)
(-0.004645104 0.0097808771 -7.5356807e-21)
(-0.0096772599 0.020747908 2.4516452e-20)
(-0.011064383 0.026161008 -1.0499371e-20)
(-0.0090968193 0.027724471 -2.7469336e-20)
(-0.0039796841 0.026601711 -2.7548194e-20)
(0.0040962506 0.023648412 -1.4921599e-20)
(0.014954256 0.019496444 -6.9059939e-22)
(0.028436388 0.014604674 5.5499911e-21)
(0.044403354 0.0093033957 1.9615921e-20)
(0.062730765 0.0038283433 7.3531018e-21)
(0.083304653 -0.0016548499 -7.1862369e-21)
(0.10601939 -0.0070323571 -2.0102328e-21)
(0.13077407 -0.012229241 -3.8191805e-20)
(0.15747003 -0.017199922 -1.2693677e-20)
(0.18601268 -0.021919931 1.8750663e-20)
(0.21631257 -0.026379943 -2.1021737e-20)
(0.24823314 -0.030602478 -8.9730839e-21)
(0.2815197 -0.034670894 3.0440544e-20)
(0.31660818 -0.038365139 5.0472208e-20)
(0.35665143 -0.039964452 3.3559777e-21)
(-0.0049617737 0.0093140109 1.6783332e-20)
(-0.0091662734 0.01909773 1.4467962e-20)
(-0.0078593545 0.023563386 5.1145587e-20)
(-0.0018585036 0.024328955 2.3388031e-20)
(0.0082957944 0.022523782 1.8251813e-22)
(0.022222056 0.019014367 -3.9388534e-20)
(0.039597612 0.0144409 -2.4313907e-20)
(0.060148137 0.0092663023 1.0465837e-20)
(0.08363942 0.0038231482 1.4401615e-20)
(0.10986707 -0.0016514033 -1.3113735e-20)
(0.1386461 -0.0069911392 -4.403881e-20)
(0.16980227 -0.012083003 2.9618565e-20)
(0.20316472 -0.016854343 2.0020594e-20)
(0.23856024 -0.021264208 -2.7551222e-20)
(0.2758132 -0.025296645 1.1650166e-20)
(0.31474912 -0.028957441 2.4197675e-20)
(0.35514659 -0.032303358 8.0724181e-21)
(0.39663513 -0.035507015 -1.1764249e-20)
(0.4395784 -0.038393016 -1.4190326e-20)
(0.48798661 -0.038634812 5.8728082e-21)
(-0.0047307794 0.0081236816 1.1093867e-20)
(-0.0070585962 0.015671186 -2.3352775e-20)
(-0.0020293379 0.018562037 8.6200643e-21)
(0.0090325854 0.018216218 3.3588037e-20)
(0.025256476 0.015651127 5.212444e-20)
(0.046066512 0.011695561 2.0276548e-20)
(0.070984767 0.0069608886 -5.8639481e-21)
(0.099602273 0.0018828643 -1.2286304e-20)
(0.13156936 -0.00322731 -6.2057611e-21)
(0.16657618 -0.0081497953 3.4240901e-20)
(0.20433486 -0.012733485 -4.5104526e-21)
(0.24456557 -0.01687938 -1.6643338e-20)
(0.28698554 -0.020528908 -1.9693612e-20)
(0.33130094 -0.023656664 -4.7443846e-20)
(0.37720567 -0.026265815 2.3238757e-20)
(0.42438891 -0.028388175 -1.4096019e-20)
(0.47250107 -0.030127966 2.5993471e-20)
(0.52103763 -0.031783568 2.104088e-20)
(0.57021551 -0.033351092 -8.5570568e-20)
(0.62471083 -0.03205929 -1.0806152e-22)
(-0.0037710516 0.0063146431 2.1925095e-20)
(-0.0028657498 0.010735093 -2.6165587e-20)
(0.0071421564 0.011564123 -4.5013383e-20)
(0.024450335 0.0099249605 -2.7253836e-20)
(0.047871017 0.0066522578 -2.0439907e-21)
(0.076628945 0.0024905477 1.3050113e-20)
(0.11007706 -0.0020154878 -2.8337707e-21)
(0.14765248 -0.006488021 1.8118567e-20)
(0.18886149 -0.010663646 8.8685741e-21)
(0.23325259 -0.01436259 -1.1380192e-20)
(0.28039225 -0.017469145 8.8779359e-21)
(0.32984692 -0.019917029 -2.3903314e-20)
(0.38116982 -0.02167895 8.0504991e-21)
(0.43389198 -0.022760157 1.675643e-20)
(0.48752061 -0.023194614 -2.6395186e-21)
(0.54154854 -0.023047236 1.6619006e-21)
(0.59543694 -0.022469822 -3.195728e-22)
(0.64851942 -0.021870514 1.959047e-20)
(0.70082406 -0.021445506 4.0434103e-21)
(0.75745324 -0.018499562 -5.733977e-22)
(-0.0019110088 0.0040273468 2.3692159e-20)
(0.0038694633 0.0046765046 5.7160079e-20)
(0.020315392 0.0031879321 -4.924432e-20)
(0.045178432 0.00029437471 -9.9454336e-21)
(0.076965379 -0.0034242244 2.0256378e-20)
(0.11469655 -0.0073536811 2.1433753e-21)
(0.15753925 -0.011055075 -2.981521e-20)
(0.20474884 -0.014244282 6.9848184e-21)
(0.25565015 -0.016738096 7.1098047e-21)
(0.30960551 -0.01842715 -2.6254127e-20)
(0.36598738 -0.019260317 1.2927362e-21)
(0.42416062 -0.019232113 -3.7174188e-20)
(0.48347218 -0.018372477 -3.6341094e-20)
(0.54324693 -0.01673858 6.5683634e-20)
(0.60278952 -0.014407636 5.5627627e-21)
(0.66139034 -0.011476265 -1.5188843e-20)
(0.71830942 -0.0081024462 1.9364013e-20)
(0.77270066 -0.0045933023 -9.1888366e-22)
(0.82409004 -0.00096852213 2.0364601e-20)
(0.87622139 0.004327555 -1.9554224e-20)
(-0.018836256 -0.0050997331 5.8352299e-20)
(-0.010224442 -0.0056349596 1.5783731e-20)
(-0.00022092243 -0.0060689155 -3.5139709e-20)
(0.010823565 -0.0063341476 1.6790315e-20)
(0.022642879 -0.0065120873 0)
(0.035178379 -0.0066301326 0)
(0.048370244 -0.0066910182 -2.297506e-20)
(0.062138757 -0.0067025867 -1.6502951e-20)
(0.076413505 -0.0066742233 1.9122698e-20)
(0.091134981 -0.0066127166 1.8174133e-20)
(0.10624821 -0.0065232586 1.0524295e-21)
(0.12170139 -0.0064104128 -1.0317691e-20)
(0.13744622 -0.0062781377 8.3269367e-21)
(0.15343748 -0.0061297807 1.8233818e-20)
(0.16963241 -0.0059682052 -5.2274606e-21)
(0.18599037 -0.0057958964 -1.0174993e-20)
(0.20247259 -0.0056150256 -4.3196122e-21)
(0.21904205 -0.0054275017 -4.4257586e-21)
(0.23566333 -0.005235017 7.3667397e-22)
(0.25230256 -0.0050390817 1.2286135e-21)
(0.26892741 -0.0048410509 2.5666588e-21)
(0.28550708 -0.0046421443 6.6539999e-21)
(0.3020124 -0.0044434612 2.4893269e-22)
(0.31841583 -0.0042459911 -3.4515036e-21)
(0.33469152 -0.0040506215 1.5558588e-22)
(0.35081541 -0.003858144 -5.7710437e-22)
(0.36676524 -0.0036692585 1.2434517e-21)
(0.38252061 -0.0034845776 1.0522514e-21)
(0.398063 -0.0033046297 -1.2988263e-21)
(0.41337579 -0.0031298629 -1.2218595e-22)
(0.42844426 -0.0029606493 3.5731223e-23)
(0.44325555 -0.0027972889 -3.518841e-22)
(0.45779867 -0.0026400148 -4.0567485e-22)
(0.47206444 -0.0024889983 5.5427136e-23)
(0.48604545 -0.0023443547 -1.380958e-22)
(0.49973601 -0.0022061497 -2.2343962e-22)
(0.51313211 -0.0020744054 2.5573097e-22)
(0.52623142 -0.0019491075 2.9503604e-22)
(0.53903313 -0.0018302144 -8.282501e-24)
(0.55153839 -0.0017176608 -1.5520279e-22)
(0.56374915 -0.001611386 3.0406298e-23)
(0.57567203 -0.0015112894 -4.0147963e-23)
(0.58730722 -0.0014174426 9.2227497e-23)
(0.59868375 -0.001329509 2.1971509e-23)
(0.60975599 -0.0012487728 -1.1401304e-22)
(0.62071608 -0.0011720235 -6.7668193e-24)
(0.63108612 -0.0011114954 -6.9407534e-26)
(0.64237763 -0.0010342166 -3.5701401e-24)
(0.65045723 -0.0010511067 2.9451177e-23)
(0.66704426 -0.00087590054 3.6058823e-22)
(0.010446156 -0.015017703 -1.274688e-20)
(0.018180039 -0.016641115 -6.3302603e-20)
(0.027779621 -0.017915526 -3.0542088e-20)
(0.038385623 -0.018672192 3.8476196e-20)
(0.049621544 -0.019183717 1.4662683e-20)
(0.061507272 -0.019529568 -1.820503e-20)
(0.074013557 -0.019710008 4.6722389e-21)
(0.087063508 -0.019746642 2.5447319e-20)
(0.10059409 -0.019667437 9.1980831e-23)
(0.11455508 -0.019491863 -7.6591733e-21)
(0.12889837 -0.019234528 -1.302107e-20)
(0.14357734 -0.018908486 -8.5245923e-21)
(0.15854812 -0.018525153 1.7772437e-20)
(0.17376918 -0.018094186 8.9296406e-21)
(0.18920078 -0.01762387 -1.6522515e-20)
(0.20480474 -0.017121428 -6.0390953e-21)
(0.22054431 -0.016593198 3.2145182e-21)
(0.23638412 -0.016044777 8.3716746e-21)
(0.25229012 -0.015481143 6.9832813e-21)
(0.26822955 -0.014906758 -6.9727922e-21)
(0.284171 -0.014325636 -3.1686039e-21)
(0.30008443 -0.013741403 1.3605763e-21)
(0.31594127 -0.013157333 3.8687116e-22)
(0.33171445 -0.012576382 1.2114176e-21)
(0.34737852 -0.012001207 1.8369537e-22)
(0.3629097 -0.01143418 -3.2663035e-22)
(0.37828591 -0.010877405 -7.2436808e-22)
(0.39348687 -0.010332726 9.7160856e-22)
(0.4084941 -0.0098017364 8.2486144e-22)
(0.42329094 -0.0092857931 -1.5150644e-22)
(0.43786259 -0.0087860245 5.5309123e-22)
(0.45219603 -0.0083033451 -2.3881483e-22)
(0.46628007 -0.0078384696 -3.7072878e-22)
(0.48010526 -0.0073919284 -6.1002873e-22)
(0.4936639 -0.0069640846 4.4173502e-22)
(0.50694995 -0.0065551525 -1.5512183e-23)
(0.51995904 -0.0061652167 1.6128457e-22)
(0.5326884 -0.0057942525 -4.4180634e-22)
(0.54513682 -0.0054421536 3.7197608e-22)
(0.55730496 -0.0051087417 6.7183313e-23)
(0.56919433 -0.0047938524 -1.0285542e-22)
(0.58081103 -0.0044972022 1.7619706e-22)
(0.5921548 -0.0042190205 2.3349174e-22)
(0.60325396 -0.0039583177 1.6935031e-22)
(0.61406302 -0.0037189413 1.6777937e-22)
(0.62477126 -0.0034913326 -2.6118394e-23)
(0.63490718 -0.0033119531 8.4149953e-23)
(0.64595934 -0.003082664 7.639797e-23)
(0.6538594 -0.0031332514 -1.9481701e-22)
(0.67012744 -0.0026134554 -3.8008412e-23)
(0.06761519 -0.024029305 9.4528741e-21)
(0.073590228 -0.026749223 3.2951228e-21)
(0.082266132 -0.028805757 -1.2162282e-20)
(0.09194852 -0.029968705 -1.2258082e-21)
(0.10198399 -0.030768077 1.4970673e-20)
(0.1125472 -0.031331116 -1.4887197e-20)
(0.12367693 -0.031636306 -2.9842439e-20)
(0.13529788 -0.031713252 1.4493613e-20)
(0.14735813 -0.031607892 1.8182079e-20)
(0.15982472 -0.031350322 -1.159859e-20)
(0.17266201 -0.030962096 1.0190611e-21)
(0.18583237 -0.030463039 8.6860392e-21)
(0.19929954 -0.029870846 -1.5253651e-20)
(0.21302843 -0.029200543 2.9095934e-21)
(0.22698446 -0.028465073 7.5195013e-21)
(0.24113361 -0.027675826 3.155184e-23)
(0.25544255 -0.026842888 2.6553494e-22)
(0.26987866 -0.025975235 -7.4151636e-21)
(0.28441013 -0.025080912 3.8617751e-21)
(0.29900604 -0.024167176 8.4750039e-21)
(0.31363643 -0.0232406 -3.8352226e-21)
(0.32827248 -0.02230715 -2.213056e-21)
(0.34288655 -0.021372242 1.0124382e-21)
(0.35745234 -0.020440784 -1.715566e-21)
(0.37194495 -0.019517202 1.3532397e-21)
(0.38634099 -0.018605468 7.1846755e-22)
(0.40061866 -0.017709109 1.5269232e-21)
(0.41475779 -0.016831232 -1.9527533e-21)
(0.42873989 -0.015974533 2.2236817e-21)
(0.44254819 -0.015141314 5.5191168e-22)
(0.45616765 -0.014333504 4.032946e-22)
(0.46958494 -0.013552678 3.2135229e-22)
(0.48278842 -0.01280008 8.7333425e-22)
(0.49576816 -0.012076648 -1.3709962e-21)
(0.50851585 -0.011383045 3.7070112e-22)
(0.52102481 -0.010719684 1.0946109e-22)
(0.53328995 -0.010086764 -4.5189321e-23)
(0.54530774 -0.0094843023 8.6714015e-23)
(0.55707615 -0.0089121786 -3.7191084e-22)
(0.56859499 -0.0083701535 1.829815e-22)
(0.57986489 -0.0078580082 -3.4991818e-23)
(0.59089099 -0.0073753251 3.9020147e-22)
(0.60167225 -0.0069225343 -1.8552749e-22)
(0.61223557 -0.0064980473 4.7338688e-23)
(0.62253581 -0.0061082565 4.3633894e-23)
(0.63275683 -0.0057374691 -7.3654007e-23)
(0.64243928 -0.0054456457 -1.209678e-22)
(0.65302776 -0.0050718276 3.8845884e-22)
(0.66057945 -0.0051557385 1.7284245e-22)
(0.67622918 -0.0043087045 -8.3058402e-22)
(0.15021607 -0.031460658 1.5010253e-21)
(0.15354774 -0.035257642 -1.1566645e-20)
(0.16061714 -0.038011186 6.6442104e-21)
(0.1688069 -0.03947938 -1.3324801e-20)
(0.17698332 -0.040520987 -1.9758402e-21)
(0.18552463 -0.041302593 9.1600004e-21)
(0.19458546 -0.041757564 -9.7662981e-21)
(0.20408828 -0.041914052 1.5662616e-21)
(0.21398916 -0.041833686 1.2903869e-20)
(0.22427758 -0.041554704 3.4032359e-21)
(0.23493426 -0.041102427 -6.2097313e-21)
(0.24593207 -0.040500844 -2.8638452e-21)
(0.25724358 -0.039772157 -5.8409129e-21)
(0.26884127 -0.038935476 -6.4553719e-21)
(0.28069655 -0.038007408 3.2356737e-21)
(0.29278012 -0.037002747 8.4616672e-22)
(0.30506242 -0.035934782 1.3679863e-21)
(0.31751386 -0.034815491 -3.3850664e-21)
(0.33010504 -0.033655731 -4.2429572e-21)
(0.34280693 -0.03246539 2.3616907e-21)
(0.35559112 -0.031253504 3.2252043e-21)
(0.36842993 -0.030028337 -1.5636744e-21)
(0.38129667 -0.028797437 1.5867608e-21)
(0.3941657 -0.027567683 -3.9126444e-22)
(0.40701259 -0.02634531 -3.9197675e-21)
(0.41981425 -0.025135937 -3.0333401e-21)
(0.432549 -0.023944579 -1.9028723e-22)
(0.44519665 -0.022775672 4.2857416e-22)
(0.45773854 -0.021633085 -2.21066e-21)
(0.47015761 -0.020520145 -8.5504991e-22)
(0.48243838 -0.019439659 2.2838115e-22)
(0.49456698 -0.018393942 -1.2499596e-21)
(0.50653113 -0.017384849 6.242342e-24)
(0.51832014 -0.016413811 -4.2425956e-22)
(0.52992487 -0.015481869 -4.7195519e-22)
(0.54133772 -0.01458972 -5.2005779e-22)
(0.55255259 -0.013737762 -8.4148848e-22)
(0.56356489 -0.012926132 -5.4485377e-23)
(0.57437149 -0.01215478 -3.9163792e-24)
(0.58497102 -0.011423482 -5.1984568e-22)
(0.59536293 -0.010732044 -9.1593509e-23)
(0.60555108 -0.010079989 -3.3251019e-22)
(0.61553331 -0.0094680108 -4.3780031e-22)
(0.62533464 -0.0088940114 3.7860018e-22)
(0.63491044 -0.0083668809 1.4828469e-23)
(0.64443691 -0.0078651659 1.8250398e-22)
(0.6534722 -0.0074710672 -1.326209e-22)
(0.66339774 -0.006964802 -2.6715206e-22)
(0.67045147 -0.007081235 -4.4556624e-23)
(0.68521442 -0.0059350438 4.6240969e-22)
(0.25468673 -0.036553056 -2.0900407e-20)
(0.25447134 -0.041393827 4.7586129e-20)
(0.25907453 -0.044745996 1.0348131e-20)
(0.2650854 -0.0464424 -1.5765387e-20)
(0.27071069 -0.04771469 -2.0228177e-21)
(0.27652139 -0.048748168 2.6232228e-21)
(0.28283703 -0.049414128 -1.6608443e-21)
(0.28957854 -0.049728526 -4.6861652e-21)
(0.29669832 -0.049761875 -4.0159378e-21)
(0.30420733 -0.049557513 -1.2207706e-20)
(0.31210416 -0.049142164 1.7897886e-20)
(0.32037148 -0.048541294 6.5220501e-21)
(0.32898924 -0.047779473 -1.6780626e-20)
(0.33793642 -0.046878542 1.0317596e-20)
(0.34718962 -0.045857839 8.385e-21)
(0.35672346 -0.044734867 -8.7919646e-22)
(0.36651134 -0.043525636 -3.1222118e-21)
(0.37652597 -0.042244833 -3.8198065e-21)
(0.38673969 -0.04090596 -1.3892923e-21)
(0.3971248 -0.039521469 -1.230452e-21)
(0.40765381 -0.038102855 -3.0258347e-21)
(0.41829976 -0.03666072 0)
(0.42903637 -0.035204823 -1.3452301e-21)
(0.43983825 -0.033744111 3.931013e-21)
(0.45068106 -0.032286737 5.4053988e-21)
(0.46154164 -0.030840086 -9.4113545e-22)
(0.47239808 -0.029410783 -2.9275752e-21)
(0.48322986 -0.028004716 3.0260012e-21)
(0.49401786 -0.026627052 2.54431e-22)
(0.50474443 -0.025282265 3.4354312e-21)
(0.51539341 -0.023974161 -5.3460802e-22)
(0.52595015 -0.022705914 1.7174376e-21)
(0.53640148 -0.021480108 -7.9971281e-22)
(0.54673573 -0.020298779 2.9099649e-22)
(0.55694269 -0.019163462 -4.3410233e-22)
(0.56701363 -0.018075249 5.623655e-22)
(0.57694125 -0.01703484 4.5716887e-22)
(0.58671969 -0.016042604 3.8262284e-22)
(0.59634449 -0.015098659 -9.5954437e-22)
(0.60581293 -0.014202901 6.8370446e-22)
(0.61512307 -0.013355252 -3.6966247e-22)
(0.62427726 -0.012555272 -1.1036749e-21)
(0.63327209 -0.011803996 1.408343e-21)
(0.64213032 -0.011098929 -6.2026633e-23)
(0.6508081 -0.010451383 -1.5824487e-22)
(0.65947206 -0.009834647 -7.82986e-24)
(0.66770258 -0.0093514457 -1.2636081e-22)
(0.67680134 -0.0087285636 -4.6620256e-22)
(0.68323485 -0.0088763027 8.7873991e-22)
(0.69688625 -0.0074679043 -4.4329573e-23)
(0.37635265 -0.038368534 -1.7495179e-20)
(0.37171119 -0.044270618 1.2832087e-20)
(0.37286839 -0.048162023 2.9754915e-21)
(0.37591202 -0.050099282 -7.6354063e-21)
(0.37830692 -0.051670423 1.2056036e-20)
(0.38072467 -0.053042844 7.7914482e-21)
(0.38367784 -0.054030531 -1.2647735e-20)
(0.38710251 -0.054633614 -6.0680068e-21)
(0.39093127 -0.054918534 1.2697406e-20)
(0.39518458 -0.054927683 -1.5305094e-20)
(0.39987652 -0.054688082 -1.4063268e-20)
(0.40499746 -0.054225238 1.4129764e-20)
(0.41053115 -0.053564263 6.8194265e-21)
(0.41645985 -0.052728571 -4.2038616e-21)
(0.42276297 -0.051739656 -1.8545286e-21)
(0.42941702 -0.050617407 -4.0581537e-21)
(0.43639664 -0.049380377 5.3047462e-21)
(0.4436753 -0.048045921 3.6682355e-21)
(0.45122578 -0.046630261 -3.2408412e-21)
(0.45902054 -0.045148548 3.1379729e-21)
(0.46703205 -0.043614911 2.7667299e-21)
(0.47523312 -0.0420425 -3.2111691e-21)
(0.48359715 -0.040443497 3.7056938e-22)
(0.4920983 -0.038829136 -3.2571955e-21)
(0.50071168 -0.037209709 7.245676e-21)
(0.50941349 -0.035594577 6.1082374e-21)
(0.51818113 -0.03399218 8.0979327e-22)
(0.52699329 -0.032410053 -1.768376e-21)
(0.53583 -0.030854848 3.7023973e-21)
(0.54467268 -0.029332358 7.1889346e-21)
(0.55350419 -0.027847558 2.3050302e-21)
(0.5623088 -0.026404642 3.3167196e-21)
(0.57107223 -0.025007071 1.995751e-21)
(0.57978161 -0.023657633 7.4565121e-22)
(0.58842552 -0.022358495 -2.6375555e-22)
(0.59699392 -0.021111273 2.7206317e-21)
(0.60547815 -0.0199171 6.2000106e-22)
(0.613871 -0.018776695 2.9491623e-22)
(0.62216657 -0.017690463 5.6239562e-23)
(0.63036068 -0.01665853 9.8989364e-22)
(0.63844993 -0.015681043 4.7026831e-23)
(0.64643508 -0.014757702 4.4261871e-22)
(0.65431142 -0.013889962 -1.2625344e-22)
(0.66209924 -0.013075057 -2.7747543e-22)
(0.6697558 -0.012326621 -1.5226314e-22)
(0.67743667 -0.011613276 -4.2233511e-22)
(0.68474849 -0.011056201 1.6155939e-22)
(0.69289959 -0.010335188 -1.2732749e-22)
(0.69862409 -0.010512656 -5.0120336e-22)
(0.71099235 -0.0088853987 2.4594776e-22)
(0.50927588 -0.035974709 3.6471379e-21)
(0.49953203 -0.042961111 -1.8958351e-20)
(0.49627726 -0.047383931 -2.3083975e-21)
(0.49555769 -0.049737257 5.48697e-21)
(0.49417138 -0.051818543 3.052834e-21)
(0.49269766 -0.053705931 -4.9864286e-23)
(0.49181431 -0.055188191 6.1897228e-21)
(0.49151662 -0.056265961 7.6251463e-21)
(0.49171387 -0.056991116 9.8580829e-21)
(0.49241304 -0.057396177 -1.125011e-20)
(0.49363347 -0.057506925 -2.1579574e-20)
(0.49537033 -0.05734906 -3.9353977e-21)
(0.49760735 -0.056947794 1.5938266e-20)
(0.50032584 -0.056327692 1.2809058e-20)
(0.50350462 -0.055512435 -5.9067105e-21)
(0.50711964 -0.054524568 1.3816707e-21)
(0.51114469 -0.053385525 -3.6601541e-21)
(0.51555222 -0.0521157 2.244475e-21)
(0.52031394 -0.050734429 -2.9123248e-22)
(0.5254012 -0.049259968 -1.8654362e-21)
(0.53078533 -0.047709486 7.8267412e-21)
(0.53643795 -0.046099059 -2.9311752e-22)
(0.54233127 -0.044443663 4.1821257e-22)
(0.54843822 -0.042757164 -6.5644399e-22)
(0.55473272 -0.041052312 -4.3030327e-21)
(0.56118973 -0.039340748 4.2086168e-21)
(0.56778541 -0.037633001 1.9031443e-21)
(0.57449719 -0.035938513 -3.3082871e-21)
(0.58130384 -0.034265656 -4.1117322e-21)