/*--------------------------------*- C++ -*----------------------------------*\
  =========                 |
  \\      /  F ield         | OpenFOAM: The Open Source CFD Toolbox
   \\    /   O peration     | Website:  https://openfoam.org
    \\  /    A nd           | Version:  6
     \\/     M anipulation  |
\*---------------------------------------------------------------------------*/
FoamFile
{
    version     2.0;
    format      ascii;
    class       volVectorField;
    location    "153";
    object      UMean;
}
// * * * * * * * * * * * * * * * * * * * * * * * * * * * * * * * * * * * * * //

dimensions      [0 1 -1 0 0 0 0];

internalField   nonuniform List<vector> 
9200
(
(0.0019407093 0.00073042152 -6.1580411e-20)
(0.016672677 -0.0042312231 4.9180293e-20)
(0.043595127 -0.0093098399 -4.038366e-20)
(0.079977254 -0.014305707 -6.4237067e-20)
(0.12390036 -0.019014366 1.9902585e-20)
(0.17408651 -0.02300426 3.4919379e-20)
(0.22941979 -0.025991202 -1.3052088e-20)
(0.28886902 -0.027836838 9.8782821e-21)
(0.35147095 -0.028489469 1.8285646e-20)
(0.41629909 -0.027960522 1.6163422e-21)
(0.48244077 -0.026313286 -2.3434031e-20)
(0.54898915 -0.023651852 2.2501453e-20)
(0.61504711 -0.020110066 -4.3883275e-20)
(0.67974086 -0.015840348 -2.3103545e-20)
(0.74224145 -0.011001862 6.4564148e-21)
(0.80179136 -0.0057508153 -2.7570283e-20)
(0.85774901 -0.00021766264 2.7718437e-20)
(0.9097095 0.0056379963 2.464194e-20)
(0.95732432 0.011943648 -2.4605078e-22)
(0.99798133 0.015401513 -1.5652415e-21)
(0.0064174025 -0.0021223407 -1.7739327e-20)
(0.030662797 -0.011337144 4.219244e-20)
(0.068012528 -0.018448424 2.4426327e-20)
(0.11532501 -0.023889012 -1.2239918e-19)
(0.17037678 -0.027865463 -1.3374818e-20)
(0.23162928 -0.030183245 7.8136388e-20)
(0.2976976 -0.030763301 -3.781178e-20)
(0.36727054 -0.029657492 -9.032447e-21)
(0.43910064 -0.026987457 3.6975533e-20)
(0.51198197 -0.022925335 -4.6788207e-20)
(0.58474008 -0.017685949 -3.3060447e-20)
(0.65624022 -0.011516275 7.8529863e-20)
(0.72540847 -0.0046835082 4.1687917e-20)
(0.79126098 0.0025366965 -7.4170184e-20)
(0.85293709 0.0098702217 1.5955952e-20)
(0.90973063 0.01704916 -4.0087108e-20)
(0.9611281 0.023825478 -1.523893e-20)
(1.0069041 0.030043145 7.7354505e-20)
(1.0469897 0.035301652 3.3364173e-20)
(1.0796827 0.036532765 -8.5864106e-20)
(0.012308056 -0.0048713221 3.777127e-20)
(0.048389833 -0.017858466 2.2592579e-21)
(0.097935903 -0.026240698 2.2837527e-20)
(0.15744932 -0.031204755 1.0321775e-21)
(0.22441316 -0.033453022 -4.2333657e-20)
(0.29700468 -0.033092383 1.9950798e-20)
(0.37353762 -0.03030935 1.3950782e-20)
(0.45239167 -0.025403595 -5.3713055e-20)
(0.53201956 -0.01872263 6.1484911e-20)
(0.61094446 -0.010644225 1.5732989e-20)
(0.68777174 -0.0015687679 -5.8995177e-20)
(0.76121818 0.0080944555 -1.9977194e-20)
(0.83015005 0.017943783 9.4311829e-21)
(0.89362194 0.027601296 2.5445186e-20)
(0.95090976 0.036726457 -1.2291723e-20)
(1.001531 0.045024647 3.0154914e-20)
(1.0452545 0.052260617 -2.1956079e-20)
(1.0821267 0.058305003 -7.5288515e-20)
(1.1123468 0.062900058 -2.4575691e-20)
(1.1351321 0.064198157 5.1436612e-20)
(0.019704334 -0.0072656401 2.4994836e-20)
(0.069958571 -0.023096356 5.2870224e-20)
(0.13333088 -0.031644915 2.0746068e-20)
(0.2060463 -0.034974551 1.3997937e-20)
(0.28531458 -0.034369578 1.8481207e-20)
(0.3690147 -0.03030732 -5.0601729e-20)
(0.45514623 -0.023303319 -2.7362778e-20)
(0.54178442 -0.013961156 0)
(0.62711621 -0.0028986915 1.6036465e-20)
(0.70946667 0.0092719547 -6.9822593e-21)
(0.78733643 0.021955646 -1.0541293e-19)
(0.85944948 0.034593707 -1.6752651e-20)
(0.92479872 0.04668557 7.0354168e-20)
(0.98267982 0.057807541 4.742753e-22)
(1.0327067 0.067626133 -1.68914e-21)
(1.0748047 0.075904029 2.3512443e-20)
(1.1091832 0.08250582 -5.4437529e-21)
(1.1363083 0.087425794 -6.5250181e-20)
(1.1567833 0.090646996 -4.8993049e-20)
(1.1706262 0.091226636 7.2224768e-20)
(0.028627221 -0.0090218318 -3.8106882e-21)
(0.095251436 -0.026298927 -4.6963707e-21)
(0.17378086 -0.033588725 5.8584153e-20)
(0.26027281 -0.033940954 1.9714923e-20)
(0.35170613 -0.029302901 -3.4106976e-20)
(0.44567454 -0.020590931 1.2503346e-20)
(0.53989162 -0.0087079598 2.8123586e-21)
(0.63218917 0.0053957779 3.6266429e-20)
(0.72059113 0.02081041 6.0760135e-21)
(0.80337153 0.036692864 -1.4522903e-20)
(0.87911211 0.052283464 6.5214513e-20)
(0.94675456 0.06692975 -6.1979527e-20)
(1.0056339 0.080108422 -1.4157079e-19)
(1.0554852 0.091438989 -5.9610897e-21)
(1.096421 0.10068704 8.8509867e-20)
(1.1288814 0.10775664 0)
(1.1535653 0.11267846 1.0922047e-20)
(1.1713583 0.11561219 -1.6241788e-20)
(1.183218 0.11674399 -9.2902718e-21)
(1.1897273 0.11568192 2.1805994e-20)
(0.039007246 -0.009834628 -5.0258644e-21)
(0.12389907 -0.026704769 4.48076e-21)
(0.21848027 -0.03105466 -9.0632092e-21)
(0.31878972 -0.026999971 2.9238483e-20)
(0.42165402 -0.017214554 -3.1108073e-20)
(0.52444032 -0.0031099719 -1.7897384e-20)
(0.62466383 0.013985346 3.8474181e-20)
(0.72004353 0.032762606 4.7711053e-21)
(0.80861457 0.052038662 -2.6769646e-20)
(0.88880952 0.070789654 7.4548097e-20)
(0.95951842 0.088169523 1.9508263e-22)
(1.0201218 0.10353042 -8.5940806e-20)
(1.0704869 0.11643391 0)
(1.1109252 0.12664713 4.1840447e-20)
(1.1421182 0.13412417 5.7727963e-21)
(1.1650204 0.1389755 -8.1609689e-20)
(1.1807543 0.14143319 -2.0636835e-20)
(1.1905134 0.14182866 -1.3007218e-20)
(1.1954575 0.14050404 -1.5433387e-20)
(1.1964433 0.13739564 4.2246235e-20)
(0.050671769 -0.0093980644 -1.7317593e-20)
(0.15526528 -0.023602207 -3.4425726e-21)
(0.26624545 -0.023170051 3.078619e-20)
(0.37982334 -0.013311782 3.7721539e-20)
(0.49279834 0.0025434018 -2.0692147e-20)
(0.60242819 0.022462541 -7.3010439e-20)
(0.70618458 0.044692548 -3.0026575e-20)
(0.80187119 0.067602646 8.3602656e-20)
(0.88776326 0.08980852 9.5193983e-21)
(0.96269155 0.11020756 -2.6193351e-20)
(1.0260783 0.12798872 1.4215718e-20)
(1.0779239 0.14263534 -4.6207248e-21)
(1.1187443 0.15391058 0)
(1.1494683 0.16182309 2.8681614e-20)
(1.1713115 0.16657781 -8.3363534e-20)
(1.1856435 0.16851881 -3.3053572e-20)
(1.1938665 0.1680742 8.4758858e-20)
(1.1973183 0.16571706 -4.8288866e-21)
(1.1971939 0.16188736 3.6170174e-21)
(1.1943979 0.15670511 2.8491082e-20)
(0.063339287 -0.0074333815 -3.2613077e-20)
(0.1884538 -0.016401097 -8.3998636e-20)
(0.3155608 -0.0093042233 1.4377269e-21)
(0.44126979 0.0075967212 7.3240229e-20)
(0.56252728 0.030142588 6.5166864e-20)
(0.6766598 0.055901318 -7.4115712e-20)
(0.78131133 0.082751383 3.646126e-22)
(0.87461503 0.10883573 9.0766828e-20)
(0.95533629 0.13269609 5.1502643e-20)
(1.0229303 0.15329643 -5.7376405e-20)
(1.0775258 0.17000706 -9.7386609e-20)
(1.1198437 0.18257239 -3.3249743e-21)
(1.151067 0.19105624 4.4250478e-20)
(1.1726821 0.19576873 -6.8407463e-21)
(1.1863171 0.19718505 -1.3267914e-20)
(1.1935977 0.19586679 2.0234809e-20)
(1.1960343 0.19239612 4.5692064e-20)
(1.1949501 0.18733261 -4.5414619e-20)
(1.1914425 0.18115235 -1.0632466e-19)
(1.1863238 0.17406587 2.5800061e-20)
(0.076589974 -0.0037196664 -3.5967961e-20)
(0.22227005 -0.0047083694 -1.7598032e-19)
(0.36455474 0.010849833 8.6138879e-20)
(0.50069953 0.03577248 9.6657077e-20)
(0.62801887 0.065262005 6.0149269e-20)
(0.74414023 0.096470902 9.0499856e-21)
(0.84713572 0.1270292 -1.1109683e-19)
(0.93572495 0.15500822 0)
(1.0093902 0.17904781 -7.2671296e-20)
(1.0683789 0.19834753 -1.6064467e-20)
(1.1136135 0.21260528 5.7373064e-20)
(1.1465367 0.22193394 1.1441384e-20)
(1.1689204 0.22675854 -4.7581369e-20)
(1.1826717 0.22770463 -5.1006776e-20)
(1.1896628 0.22549279 2.5429673e-20)
(1.1916026 0.22085094 4.6798259e-20)
(1.1899571 0.21445165 -5.7847492e-20)
(1.1859174 0.20687772 -1.1144732e-19)
(1.1804062 0.19858768 -3.0562455e-21)
(1.1740785 0.18982737 2.7927102e-20)
(0.089849179 0.0018913233 -4.0657174e-21)
(0.25522632 0.011658896 9.022433e-20)
(0.41103835 0.03728109 -1.4164672e-20)
(0.55544519 0.070862446 -8.8686581e-20)
(0.68637936 0.10713573 4.7147104e-20)
(0.80202786 0.14299586 5.0476908e-20)
(0.90114811 0.17601343 5.8064116e-21)
(0.98327061 0.20439549 -1.0400275e-19)
(1.0487557 0.22707961 -2.6231533e-21)
(1.0987198 0.24366967 5.2858474e-20)
(1.1348667 0.2543116 6.2424772e-21)
(1.1592683 0.25955115 -2.0657448e-20)
(1.1741367 0.26018495 -7.876875e-20)
(1.1816244 0.25712127 -6.3965238e-21)
(1.183675 0.251266 4.5090585e-20)
(1.1819337 0.2434422 3.8278182e-20)
(1.1777146 0.23434437 2.0302501e-20)
(1.1720134 0.22452229 -5.5190184e-20)
(1.1655525 0.21437915 1.2879775e-20)
(1.1588175 0.20416776 8.502952e-20)
(-0.0013377569 0.0014608759 -7.64354e-22)
(-0.0047683361 0.0031935841 1.8213897e-21)
(-0.010804735 0.0040870899 2.1008489e-21)
(-0.017640283 0.004418762 -7.0992573e-22)
(-0.024357329 0.0043622816 -2.6208538e-21)
(-0.030528009 0.00403557 2.7515677e-21)
(-0.035878375 0.0035244871 -8.804068e-21)
(-0.040234502 0.002890926 -7.5869302e-21)
(-0.043503444 0.0021788011 1.3505376e-20)
(-0.045646398 0.0014190203 -1.1560423e-20)
(-0.046658391 0.00063308535 -2.0487118e-22)
(-0.046555446 -0.00016430258 4.2992676e-21)
(-0.04536607 -0.00096327519 -6.9125285e-22)
(-0.043125439 -0.0017572425 2.597365e-20)
(-0.039871775 -0.0025414967 2.6366081e-22)
(-0.035645854 -0.0033117291 -4.6019175e-20)
(-0.030493454 -0.0040633942 8.5765965e-21)
(-0.024457083 -0.0047944494 2.6482038e-20)
(-0.017548048 -0.00550343 -4.8482791e-20)
(-0.0098303508 -0.0061407893 -3.0527193e-20)
(-0.0016964491 0.0042508896 -5.7925651e-21)
(-0.0053927675 0.0092691545 9.3811847e-21)
(-0.011170197 0.011840676 -1.0606267e-20)
(-0.017394406 0.012771388 6.2223634e-21)
(-0.023248743 0.012568087 7.322189e-21)
(-0.028357406 0.011576732 9.8057911e-22)
(-0.03248282 0.010049348 -2.9081445e-20)
(-0.035477422 0.0081675409 -2.4067123e-21)
(-0.037266051 0.0060601595 2.4118794e-20)
(-0.037821457 0.0038178766 -5.9507363e-21)
(-0.037145907 0.0015037379 -2.5381574e-20)
(-0.035259621 -0.00083919187 5.640791e-21)
(-0.032193144 -0.0031820723 2.5560612e-20)
(-0.027982016 -0.0055057283 1.1684183e-20)
(-0.022663 -0.0077965472 2.4834988e-20)
(-0.016274576 -0.010042309 -2.21335e-20)
(-0.0088668618 -0.012230264 -2.4024243e-20)
(-0.00049339797 -0.014353865 2.3764799e-20)
(0.0089072185 -0.01639839 2.9383683e-20)
(0.019527899 -0.018194005 1.7005474e-20)
(-0.0023428724 0.0066497778 -4.7071109e-21)
(-0.0064732317 0.014427999 -4.576779e-21)
(-0.011676451 0.018370983 -2.9285754e-23)
(-0.016650736 0.019731371 -5.2667107e-22)
(-0.020772962 0.019303067 7.8403038e-21)
(-0.023767687 0.017634625 1.2291276e-20)
(-0.025467953 0.015126539 -4.6355487e-21)
(-0.025777475 0.012067572 -2.2217946e-20)
(-0.024655937 0.0086629213 7.708858e-21)
(-0.022099147 0.0050572143 1.5003185e-20)
(-0.018124364 0.001351119 6.9575867e-21)
(-0.01276127 -0.0023865949 2.049383e-20)
(-0.0060460255 -0.0061100395 1.9608636e-21)
(0.0019830216 -0.0097891277 -3.7803167e-20)
(0.011289099 -0.013402871 1.6707967e-21)
(0.02183545 -0.016932838 -2.3980246e-20)
(0.033562354 -0.020361773 -2.7566103e-20)
(0.046391462 -0.023681046 5.1006715e-20)
(0.060504786 -0.026837195 2.825676e-20)
(0.076595518 -0.02946268 6.0797301e-22)
(-0.0031521858 0.0084431751 -5.8998549e-21)
(-0.0077233648 0.018162544 -1.2176907e-20)
(-0.011963248 0.022997657 4.5257507e-21)
(-0.015024658 0.0245244 4.8676221e-21)
(-0.016551315 0.023752964 2.1530097e-21)
(-0.016408437 0.021394802 9.1457774e-21)
(-0.014529502 0.017971048 1.1247402e-20)
(-0.010892217 0.013857732 -1.6994808e-21)
(-0.005507786 0.0093227157 -1.3381478e-20)
(0.0015924582 0.004555283 -3.3516527e-20)
(0.010366539 -0.00031257545 1.9832129e-22)
(0.020766854 -0.0051906059 4.603437e-20)
(0.032744419 -0.010018999 -2.0292174e-20)
(0.046250413 -0.014758909 -1.3737453e-20)
(0.061240234 -0.019384374 2.102997e-22)
(0.077671817 -0.023874683 3.5937544e-20)
(0.095469507 -0.028215442 -1.7041224e-20)
(0.11451174 -0.032405801 -5.834519e-20)
(0.13510561 -0.036329365 4.9486716e-20)
(0.15865463 -0.039301237 3.5959431e-20)
(-0.003957721 0.0094859229 -3.8038148e-22)
(-0.0087523974 0.020116412 -1.3549378e-20)
(-0.011527928 0.025233152 -3.9877635e-20)
(-0.01196759 0.026589977 -7.4657204e-21)
(-0.010031276 0.025327832 -3.2752254e-21)
(-0.005754826 0.022271873 7.5403179e-21)
(0.00080387568 0.018028872 -5.7398488e-21)
(0.0095733079 0.013036683 -1.0387666e-20)
(0.020474546 0.0076079251 2.5048673e-20)
(0.033426662 0.0019639703 5.5828833e-21)
(0.048350581 -0.0037403148 -2.9062324e-20)
(0.065168846 -0.0093988444 1.2226333e-20)
(0.083805964 -0.01494133 0)
(0.10418885 -0.020323336 1.3419522e-20)
(0.12624981 -0.025517451 -1.0721699e-20)
(0.14992583 -0.030505788 -1.5988054e-20)
(0.17511183 -0.035286986 -8.2709373e-22)
(0.20162092 -0.039888773 -2.7542878e-21)
(0.22984381 -0.044130572 4.8959763e-20)
(0.26203834 -0.046871134 -1.2434283e-20)
(-0.0045695577 0.0097114483 -7.9010447e-21)
(-0.0091000363 0.020110437 2.7318465e-20)
(-0.0097588342 0.024823458 -1.2342279e-20)
(-0.0067908882 0.025634987 -3.091888e-20)
(-0.00049757927 0.023726657 -3.0114631e-20)
(0.008895275 0.019983969 -1.6951044e-20)
(0.021187607 0.01505993 -9.7868014e-22)
(0.036197199 0.009424562 6.3467231e-21)
(0.053762033 0.0034142184 2.2010432e-20)
(0.073736565 -0.0027319932 8.2433276e-21)
(0.09598641 -0.008846674 -7.9355151e-21)
(0.12038551 -0.014815143 -1.9380236e-21)
(0.14681224 -0.020561977 -4.2414805e-20)
(0.1751467 -0.026041169 -1.4018772e-20)
(0.20527236 -0.031227808 2.1184176e-20)
(0.2370773 -0.036112188 -2.343593e-20)
(0.27040387 -0.040716452 -9.8300108e-21)
(0.30497537 -0.045125329 3.2444293e-20)
(0.34119216 -0.049130012 5.3852537e-20)
(0.38221152 -0.051024571 3.7294282e-21)
(-0.0047908846 0.0091278615 1.7517302e-20)
(-0.0082700808 0.018144245 1.5164158e-20)
(-0.0059715936 0.021762562 5.5754125e-20)
(0.0013018574 0.021662844 2.6176861e-20)
(0.012902188 0.018980449 2.0742423e-22)
(0.028403511 0.014607396 -4.4357102e-20)
(0.047451187 0.0092021325 -2.7028691e-20)
(0.06973917 0.0032364992 1.1673446e-20)
(0.095003702 -0.0029525117 1.6021571e-20)
(0.12301293 -0.0091254997 -1.4350815e-20)
(0.15355519 -0.015115393 -4.9003959e-20)
(0.18642978 -0.020809035 3.2907427e-20)
(0.22143929 -0.026133932 2.1831638e-20)
(0.2583839 -0.031049242 -3.0328095e-20)
(0.29706125 -0.035538948 1.2952443e-20)
(0.33727035 -0.039608548 2.6386215e-20)
(0.37876596 -0.043313688 8.9554502e-21)
(0.4211562 -0.046826675 -1.3324536e-20)
(0.46476389 -0.049988256 -1.4658889e-20)
(0.51356915 -0.050511924 8.0240708e-21)
(-0.0044291104 0.007805204 1.1857228e-20)
(-0.0057578653 0.014377732 -2.6014957e-20)
(0.00055478261 0.016280314 8.4394383e-21)
(0.013174194 0.014971679 3.6973136e-20)
(0.03111385 0.01146066 5.6624377e-20)
(0.053744762 0.0065950679 2.2293313e-20)
(0.080548065 0.00099970739 -6.4201034e-21)
(0.11107515 -0.004884406 -1.3520322e-20)
(0.1449395 -0.01074432 -6.9193479e-21)
(0.18179683 -0.016360042 3.7813122e-20)
(0.22132596 -0.021581348 -5.2229669e-21)
(0.26321459 -0.026310693 -1.8520117e-20)
(0.30714829 -0.030491113 -2.1476391e-20)
(0.35280276 -0.034098669 -5.2148092e-20)
(0.39984296 -0.037137666 2.5295324e-20)
(0.44793127 -0.039640432 -1.5347129e-20)
(0.49669618 -0.041709576 2.8495292e-20)
(0.545618 -0.043639615 2.3016781e-20)
(0.59487787 -0.045441922 -9.0561906e-20)
(0.64908517 -0.044411894 4.4216964e-22)
(-0.0033030277 0.0058607756 2.3073181e-20)
(-0.001076451 0.0091070473 -2.8477679e-20)
(0.010531014 0.0088233771 -4.8142296e-20)
(0.029687395 0.0061458812 -2.9484636e-20)
(0.055083993 0.0018851226 -2.2280821e-21)
(0.0858842 -0.003203646 1.4358908e-20)
(0.12139146 -0.0085685701 -3.1148007e-21)
(0.16099532 -0.013831495 1.9775659e-20)
(0.20415788 -0.018731073 9.6618715e-21)
(0.25038639 -0.023090491 -1.245906e-20)
(0.29920824 -0.026797632 9.9391071e-21)
(0.35015298 -0.029790138 -2.6236575e-20)
(0.40273979 -0.032044649 9.2170308e-21)
(0.45646938 -0.033570095 1.8402399e-20)
(0.51082341 -0.034403628 -3.1345277e-21)
(0.56527481 -0.034612355 1.985554e-21)
(0.61927311 -0.03434691 -6.6378759e-22)
(0.67215121 -0.034007923 2.1568731e-20)
(0.72391888 -0.033798786 3.9705423e-21)
(0.77958047 -0.031098271 -2.6729221e-21)
(-0.0012434877 0.0034473947 2.5240748e-20)
(0.0062235882 0.0027492201 6.1655118e-20)
(0.024603293 5.1870199e-05 -5.2290207e-20)
(0.051603024 -0.0039260206 -1.0709442e-20)
(0.085606337 -0.0086442663 2.1922201e-20)
(0.12556512 -0.013487444 2.3123635e-21)
(0.17058925 -0.018017063 -3.2228061e-20)
(0.21987922 -0.021954744 7.5875486e-21)
(0.27270922 -0.025124219 7.7034244e-21)
(0.32839514 -0.027423163 -2.8599445e-20)
(0.38626711 -0.028807571 1.4041321e-21)
(0.44565252 -0.029278983 -4.0707352e-20)
(0.50586711 -0.028874015 -3.9827425e-20)
(0.56621223 -0.027655969 7.2017231e-20)
(0.62597824 -0.025707473 6.0921894e-21)
(0.68445187 -0.023129403 -1.6581918e-20)
(0.74090204 -0.020080969 2.1061755e-20)
(0.79450743 -0.016864989 -9.8398811e-22)
(0.84481678 -0.013507389 2.1180551e-20)
(0.89549887 -0.0085014147 -2.2004951e-20)
(-0.00065166846 -0.0064274896 6.4126798e-20)
(0.010108175 -0.0069417144 1.6872443e-20)
(0.022304622 -0.0073506836 -3.7614541e-20)
(0.035579153 -0.0075824741 1.8213901e-20)
(0.04964877 -0.0077218171 0)
(0.064443965 -0.0077985711 0)
(0.079898879 -0.007815806 -2.4164544e-20)
(0.095926697 -0.0077816285 -1.7177235e-20)
(0.11244923 -0.0077060552 2.0064975e-20)
(0.1294 -0.0075964527 1.8868497e-20)
(0.14671784 -0.007458443 1.035374e-21)
(0.16434519 -0.0072969745 -1.0457625e-20)
(0.18222837 -0.0071163721 8.6695535e-21)
(0.20031736 -0.0069203095 1.8266935e-20)
(0.21856515 -0.0067119323 -5.4774858e-21)
(0.23692735 -0.0064939705 -1.0042283e-20)
(0.25536203 -0.0062688049 -4.2298754e-21)
(0.27382949 -0.0060385201 -4.2100355e-21)
(0.29229221 -0.0058049507 6.7835198e-22)
(0.3107147 -0.0055697194 1.2047034e-21)
(0.32906351 -0.0053342649 2.5842034e-21)
(0.34730724 -0.0050998642 6.4079514e-21)
(0.36541652 -0.0048676494 9.6757979e-23)
(0.38336406 -0.0046386208 -3.3018506e-21)
(0.40112467 -0.0044136565 1.1770226e-22)
(0.41867528 -0.0041935211 -5.4505747e-22)
(0.43599495 -0.003978872 1.166783e-21)
(0.45306489 -0.0037702659 9.3332363e-22)
(0.46986842 -0.0035681645 -1.2877789e-21)
(0.48639098 -0.0033729404 -9.0440892e-23)
(0.50262005 -0.0031848829 -7.7532824e-23)
(0.51854514 -0.0030042048 -3.1913581e-22)
(0.53415768 -0.0028310486 -4.1219553e-22)
(0.54945101 -0.0026654936 1.0618144e-22)
(0.56442022 -0.0025075628 -1.2247276e-22)
(0.57906218 -0.0023572305 -1.8537667e-22)
(0.59337538 -0.0022144298 2.1022943e-22)
(0.60735995 -0.0020790605 2.3573367e-22)
(0.6210175 -0.0019509988 -4.3565388e-23)
(0.63435152 -0.0018301018 -1.6715143e-22)
(0.64736616 -0.0017162368 9.4334789e-24)
(0.66007047 -0.0016092371 -1.8031326e-23)
(0.672466 -0.0015091181 7.405867e-23)
(0.68458618 -0.0014154928 -3.3334721e-23)
(0.69638072 -0.001329607 -1.4321956e-22)
(0.70806372 -0.0012482813 1.1666834e-23)
(0.71910406 -0.0011834996 9.135574e-24)
(0.73117241 -0.0011034371 -6.0572498e-24)
(0.73971012 -0.0011146944 2.426545e-23)
(0.75754252 -0.00094630367 3.7678999e-22)
(0.029917546 -0.018917942 -1.4507252e-20)
(0.039665968 -0.020478989 -6.8441125e-20)
(0.051333614 -0.021681105 -3.3470395e-20)
(0.064050592 -0.022341334 4.1470725e-20)
(0.077415892 -0.022741261 1.5715804e-20)
(0.091441098 -0.02296754 -1.9732483e-20)
(0.1060934 -0.023021381 5.4076588e-21)
(0.12128906 -0.022925107 2.6562676e-20)
(0.13695737 -0.022708526 -2.9643196e-22)
(0.15304159 -0.022392805 -8.1014437e-21)
(0.16948783 -0.021993818 -1.2858953e-20)
(0.18624394 -0.021525754 -9.0143171e-21)
(0.20326087 -0.021001111 1.7988692e-20)
(0.22049244 -0.020430513 9.8645153e-21)
(0.23789477 -0.019823085 -1.6096148e-20)
(0.255426 -0.01918678 -5.9940827e-21)
(0.27304621 -0.018528564 3.0608392e-21)
(0.29071738 -0.01785456 8.0287802e-21)
(0.30840327 -0.017170178 6.9078352e-21)
(0.32606944 -0.016480221 -7.106882e-21)
(0.34368328 -0.015788961 -3.4589709e-21)
(0.36121399 -0.015100201 1.6501047e-21)
(0.37863268 -0.014417325 7.7045851e-22)
(0.39591239 -0.013743327 1.2564232e-21)
(0.41302814 -0.013080844 2.5975256e-22)
(0.42995696 -0.012432178 -3.9137806e-22)
(0.44667792 -0.011799314 -7.5688407e-22)
(0.46317215 -0.011183937 1.1078401e-21)
(0.4794228 -0.01058745 8.8683495e-22)
(0.49541509 -0.01001099 -3.19723e-22)
(0.5111362 -0.0094554465 6.1242869e-22)
(0.52657529 -0.008921481 -2.1688131e-22)
(0.54172339 -0.0084095438 -4.2867395e-22)
(0.55657336 -0.0079198966 -6.2546755e-22)
(0.57111984 -0.0074526326 3.923419e-22)
(0.58535914 -0.007007699 -1.5064526e-22)
(0.5992892 -0.0065849196 2.4524742e-22)
(0.61290958 -0.0061840174 -4.7574454e-22)
(0.62622128 -0.0058046448 4.787252e-22)
(0.63922718 -0.005446396 5.7464529e-23)
(0.65193082 -0.0051088958 -3.9447915e-23)
(0.66434058 -0.0047916648 2.3038194e-22)
(0.67645744 -0.0044947693 3.1058772e-22)
(0.68831398 -0.0042170684 2.3883795e-22)
(0.69985992 -0.0039623062 2.6055748e-22)
(0.71130646 -0.0037209912 -1.3889791e-23)
(0.72212844 -0.0035289205 1.3394893e-22)
(0.7339745 -0.0032911526 1.1685991e-22)
(0.74234763 -0.0033252402 -2.0837346e-22)
(0.75988439 -0.002824998 3.0788408e-24)
(0.089192513 -0.030281321 1.0647733e-20)
(0.096950088 -0.032899746 4.1085102e-21)
(0.1074679 -0.034842415 -1.4510197e-20)
(0.11904545 -0.035856513 -1.8275255e-21)
(0.13099333 -0.036483024 1.655899e-20)
(0.14348033 -0.036859874 -1.5897189e-20)
(0.15654613 -0.036967217 -3.2130658e-20)
(0.17010938 -0.036835753 1.5734473e-20)
(0.18411052 -0.036514255 1.9481216e-20)
(0.19851081 -0.036035532 -1.2326583e-20)
(0.21326954 -0.035423198 1.0557562e-21)
(0.22834394 -0.034698921 8.2995365e-21)
(0.2436929 -0.033882153 -1.5976738e-20)
(0.25927693 -0.032989503 4.1611543e-21)
(0.27505745 -0.032035301 7.9222198e-21)
(0.29099688 -0.031032143 -7.6039016e-22)
(0.30705873 -0.02999116 -2.2245256e-22)
(0.32320768 -0.028922214 -7.7318378e-21)
(0.33940965 -0.027834079 4.6760417e-21)
(0.3556319 -0.026734599 8.7412893e-21)
(0.3718431 -0.025630794 -3.9219686e-21)
(0.38801345 -0.02452895 -2.152818e-21)
(0.40411477 -0.023434686 8.2859354e-22)
(0.42012057 -0.022353 -1.8001752e-21)
(0.43600614 -0.021288314 1.2905022e-21)
(0.4517486 -0.020244503 6.8172686e-22)
(0.46732695 -0.019224926 1.9179283e-21)
(0.4827221 -0.018232449 -2.2676794e-21)
(0.49791687 -0.017269475 2.568968e-21)
(0.51289599 -0.016337968 6.0778959e-22)
(0.52764606 -0.015439483 7.058266e-22)
(0.54215555 -0.014575195 2.9249816e-22)
(0.55641473 -0.01374593 1.0792247e-21)
(0.5704156 -0.012952201 -1.6397468e-21)
(0.58415188 -0.01219424 4.6103932e-22)
(0.5976189 -0.011472036 2.6902979e-22)
(0.61081356 -0.01078537 -9.430581e-23)
(0.62373433 -0.010133856 -1.5843587e-23)
(0.63638113 -0.0095169885 -4.1374174e-22)
(0.64875567 -0.0089341615 2.4113002e-22)
(0.66086036 -0.0083848195 -2.7512944e-23)
(0.67270238 -0.0078682292 6.0915517e-22)
(0.68428162 -0.0073845619 -2.8038474e-22)
(0.69562907 -0.0069319789 3.3178093e-23)
(0.70669448 -0.0065167324 8.8099766e-23)
(0.7176836 -0.0061231741 -1.0211195e-22)
(0.72808259 -0.0058103903 -1.7285969e-22)
(0.73949795 -0.0054220896 5.6787897e-22)
(0.74755155 -0.0054796265 1.8531473e-22)
(0.76451477 -0.0046624475 -8.6216069e-22)
(0.17406577 -0.039744879 1.9623845e-21)
(0.17889746 -0.043406091 -1.1922472e-20)
(0.1875173 -0.046011374 6.5703041e-21)
(0.19732268 -0.047293725 -1.4418775e-20)
(0.20713497 -0.048118901 -2.1276701e-21)
(0.21732561 -0.048664796 1.0347164e-20)
(0.22805513 -0.048867628 -1.1435657e-20)
(0.23924161 -0.048757197 9.189148e-22)
(0.25083362 -0.048398554 1.3582496e-20)
(0.26281557 -0.047833428 4.0192279e-21)
(0.2751639 -0.047089963 -6.4532947e-21)
(0.2878469 -0.046194662 -3.3837804e-21)
(0.30083263 -0.045172105 -5.4021098e-21)
(0.31408937 -0.044043573 -6.9379639e-21)
(0.32758476 -0.04282759 2.5741402e-21)
(0.34128599 -0.041540637 2.875216e-23)
(0.35516035 -0.040197471 1.664475e-21)
(0.36917547 -0.038811328 -3.3806952e-21)
(0.38329958 -0.037394113 -4.7365249e-21)
(0.39750165 -0.035956569 2.5935422e-21)
(0.41175166 -0.034508397 3.6470359e-21)
(0.42602073 -0.033058352 -1.9640858e-21)
(0.44028127 -0.03161431 1.7297309e-21)
(0.45450717 -0.030183323 -5.6636699e-22)
(0.46867381 -0.028771668 -4.4788082e-21)
(0.48275824 -0.027384878 -3.07285e-21)
(0.49673918 -0.026027777 -3.4157843e-22)
(0.51059711 -0.024704515 2.5776559e-22)
(0.52431424 -0.023418596 -2.2030566e-21)
(0.53787458 -0.022172919 -1.1675187e-21)
(0.55126387 -0.020969811 2.0998791e-22)
(0.56446961 -0.019811072 -1.463332e-21)
(0.57748096 -0.018698012 -9.5710853e-23)
(0.59028877 -0.017631505 -5.5041012e-22)
(0.60288548 -0.01661203 -4.238329e-22)
(0.61526508 -0.015639722 -7.7045075e-22)
(0.62742308 -0.014714428 -1.1576944e-21)
(0.6393565 -0.013835753 7.6288533e-24)
(0.65106376 -0.013003134 -3.3005519e-24)
(0.66254506 -0.012215863 -6.6219059e-22)
(0.67380125 -0.011473298 1.7657997e-23)
(0.68483788 -0.010774541 -4.6525456e-22)
(0.69565345 -0.010119947 -7.0752434e-22)
(0.70627673 -0.0095070743 5.4761563e-22)
(0.71665764 -0.0089446701 1.3163177e-23)
(0.72699419 -0.0084112321 2.7256304e-22)
(0.7367889 -0.0079881361 -2.0054528e-22)
(0.74758761 -0.0074609875 -3.8379815e-22)
(0.75518382 -0.0075425107 -2.6111212e-24)
(0.77132281 -0.0064328591 4.964608e-22)
(0.28032376 -0.046493482 -2.3903092e-20)
(0.28131833 -0.051176088 5.1070299e-20)
(0.28715589 -0.054355873 1.091396e-20)
(0.29447422 -0.055847857 -1.7122863e-20)
(0.30143724 -0.05688151 -2.722032e-21)
(0.30860332 -0.057650146 2.2498759e-21)
(0.31630048 -0.058029424 -2.307424e-21)
(0.32444822 -0.058038112 -4.9596159e-21)
(0.33299204 -0.057750388 -4.2392205e-21)
(0.34193814 -0.05721347 -1.2825236e-20)
(0.35128159 -0.056457577 1.9407091e-20)
(0.36100106 -0.055511358 7.2534935e-21)
(0.37107226 -0.054402347 -1.7322454e-20)
(0.38147024 -0.053155106 9.788195e-21)
(0.39216792 -0.051791424 7.7471435e-21)
(0.40313647 -0.050330983 -1.2763732e-22)
(0.41434611 -0.048791706 -2.643637e-21)
(0.42576669 -0.047189932 -4.5059432e-21)
(0.43736803 -0.045540566 -1.7036631e-21)
(0.44912022 -0.043857215 -1.5044208e-21)
(0.46099395 -0.042152293 -3.5442186e-21)
(0.47296073 -0.040437102 0)
(0.48499313 -0.038721891 -1.5714087e-21)
(0.49706492 -0.037015902 4.0188081e-21)
(0.5091512 -0.035327412 5.8403585e-21)
(0.52122856 -0.033663768 -8.9198166e-22)
(0.53327509 -0.032031419 -3.481955e-21)
(0.5452705 -0.030435954 3.6890484e-21)
(0.55719612 -0.028882141 -6.7415873e-23)
(0.56903492 -0.027373966 3.9552263e-21)
(0.58077151 -0.025914685 -4.9342105e-22)
(0.59239214 -0.024506868 1.8455835e-21)
(0.60388466 -0.023152462 -9.6359641e-22)
(0.61523846 -0.02185284 4.7661107e-22)
(0.62644449 -0.020608869 -5.9313497e-22)
(0.63749518 -0.019420969 5.9625393e-22)
(0.6483844 -0.018289182 5.7889913e-22)
(0.6591075 -0.017213235 4.8734612e-22)
(0.66966116 -0.016192631 -1.1931749e-21)
(0.68004385 -0.015226679 8.5499228e-22)
(0.69025464 -0.014314763 -4.4449863e-22)
(0.70029723 -0.013455933 -1.4971552e-21)
(0.71016849 -0.012650822 1.9114511e-21)
(0.71989461 -0.0118965 -5.1625804e-23)
(0.72942587 -0.011204175 -2.1840047e-22)
(0.73895065 -0.010546911 -6.6682759e-24)
(0.74799242 -0.010026958 -2.2973096e-22)
(0.75802016 -0.0093763284 -6.5622703e-22)
(0.76504514 -0.0094822212 7.3944744e-22)
(0.78014763 -0.0081125172 -5.2933087e-23)
(0.40280485 -0.049568868 -2.0071186e-20)
(0.39910836 -0.055310869 1.3441464e-20)
(0.40119728 -0.059022626 4.2398093e-21)
(0.40524431 -0.060757329 -8.3424258e-21)
(0.40868951 -0.062090394 1.3035477e-20)
(0.41218322 -0.063191094 8.396377e-21)
(0.41624385 -0.063878556 -1.3002279e-20)
(0.42080942 -0.064157448 -6.4603892e-21)
(0.42580732 -0.064098303 1.3441596e-20)
(0.43125346 -0.063747501 -1.7100686e-20)
(0.43715875 -0.063136038 -1.4701155e-20)
(0.44351011 -0.062293238 1.5799805e-20)
(0.4502874 -0.061247771 7.104215e-21)
(0.45746913 -0.060026319 -5.6461477e-21)
(0.46503112 -0.058653371 -1.12012e-21)
(0.47294649 -0.057151512 -3.3967348e-21)
(0.48118665 -0.055541691 4.6069472e-21)
(0.48972213 -0.053843356 3.6966331e-21)
(0.49852303 -0.052074524 -3.0770635e-21)
(0.50755943 -0.050251847 3.1175652e-21)
(0.51680173 -0.048390677 3.0458064e-21)
(0.526221 -0.04650511 -3.4558815e-21)
(0.53578914 -0.044608027 3.6561138e-22)
(0.54547916 -0.04271112 -3.1576027e-21)
(0.55526528 -0.040824926 8.5776532e-21)
(0.56512309 -0.038958854 6.7210572e-21)
(0.57502959 -0.037121217 1.153799e-21)
(0.58496333 -0.035319277 -1.8731145e-21)
(0.59490437 -0.033559279 4.5426142e-21)
(0.60483434 -0.031846509 8.4825094e-21)
(0.61473646 -0.030185345 2.4448565e-21)
(0.6245955 -0.028579321 3.8968658e-21)
(0.63439775 -0.027031193 2.212175e-21)
(0.64413103 -0.025543009 9.0626971e-22)
(0.65378463 -0.024116184 -2.3773654e-22)
(0.66334928 -0.02275158 3.2659996e-21)
(0.67281712 -0.021449581 7.3188066e-22)
(0.68218172 -0.02021018 3.3059185e-22)
(0.69143797 -0.01903308 5.7403849e-23)
(0.7005825 -0.01791774 1.3135945e-21)
(0.70961257 -0.016863693 4.0303146e-23)
(0.71852994 -0.015870053 6.3653004e-22)
(0.72732982 -0.014937828 -1.2676998e-22)
(0.73603562 -0.014063727 -4.5259301e-22)
(0.74459829 -0.013261363 -2.2037924e-22)
(0.75319515 -0.012498857 -6.0172277e-22)
(0.76137445 -0.011897603 2.6902418e-22)
(0.77051504 -0.01114147 -1.7616612e-22)
(0.77688421 -0.011271944 -4.2332757e-22)
(0.79078441 -0.0096804104 2.9756902e-22)
(0.5353167 -0.048056758 3.3548883e-21)
(0.52630343 -0.054909684 -1.9515571e-20)
(0.52372492 -0.059170123 -2.7076506e-21)
(0.52373774 -0.061341928 5.7981793e-21)
(0.5231482 -0.0632049 3.8258018e-21)
(0.52250963 -0.064834527 8.8391895e-22)
(0.52249727 -0.06602341 7.6222086e-21)
(0.52310957 -0.066777517 8.3900328e-21)
(0.52425347 -0.067153656 1.0221244e-20)
(0.52593212 -0.067188671 -1.213326e-20)
(0.52816187 -0.066912639 -2.3537021e-20)
(0.53093484 -0.066355616 -4.7660536e-21)
(0.53423137 -0.065546975 1.7201405e-20)
(0.53802924 -0.064515136 1.367217e-20)
(0.54230386 -0.063287335 -5.6753551e-21)
(0.54702786 -0.061889365 6.9036278e-22)
(0.55217184 -0.060345582 -4.4271421e-21)
(0.55770528 -0.058678955 3.4767443e-21)
(0.56359711 -0.056911054 -2.9441608e-22)
(0.56981615 -0.055062029 -2.0158199e-21)
(0.57633147 -0.053150611 8.8054085e-21)
(0.58311273 -0.051194122 -5.7972488e-22)
(0.59013039 -0.04920848 6.8458407e-22)
(0.59735597 -0.04720821 -3.7371928e-22)
(0.60476217 -0.045206468 -4.6077312e-21)
(0.61232303 -0.043215059 4.4932589e-21)
(0.620014 -0.041244475 1.8177237e-21)
(0.62781201 -0.039303933 -3.5062309e-21)
(0.63569551 -0.037401427 -4.0665912e-21)