/*--------------------------------*- C++ -*----------------------------------*\
  =========                 |
  \\      /  F ield         | OpenFOAM: The Open Source CFD Toolbox
   \\    /   O peration     | Website:  https://openfoam.org
    \\  /    A nd           | Version:  6
     \\/     M anipulation  |
\*---------------------------------------------------------------------------*/
FoamFile
{
    version     2.0;
    format      ascii;
    class       surfaceScalarField;
    location    "176";
    object      phi;
}
// * * * * * * * * * * * * * * * * * * * * * * * * * * * * * * * * * * * * * //

dimensions      [0 3 -1 0 0 0 0];

internalField   nonuniform List<scalar> 
18180
(
0.00031872928
-0.00016316018
-0.00015556911
0.0013092111
-0.0013669165
0.00037643466
0.0030328878
-0.0033336211
0.0016099445
0.0055497738
-0.0059759612
0.0034590752
0.0089181974
-0.0092390828
0.0058706592
0.013192813
-0.013079534
0.0088049184
0.018421942
-0.017459847
0.012230718
0.024644605
-0.022345807
0.016123144
0.03188737
-0.027703326
0.02046056
0.04016128
-0.033495818
0.025221908
0.049459166
-0.039682453
0.030384567
0.05975372
-0.046217225
0.035922671
0.07099673
-0.053048867
0.041805857
0.083119935
-0.060121604
0.047998399
0.096038108
-0.067376859
0.054458686
0.1096549
-0.074756022
0.061139235
0.12387083
-0.082204115
0.067988182
0.13859856
-0.0896741
0.074946372
0.15383665
-0.097148847
0.08191075
-0.10462598
0.088678906
0.16978373
0.00039749709
-0.00056065728
0.0016095948
-0.0025790142
0.0036893181
-0.0054133445
0.0066874438
-0.0089740868
0.010650652
-0.013202291
0.01561787
-0.018046751
0.021616259
-0.023458236
0.028657257
-0.029386806
0.036732944
-0.035779013
0.045813144
-0.042576018
0.055843688
-0.049712997
0.066746203
-0.05711974
0.07841966
-0.064722324
0.090743776
-0.07244572
0.10358406
-0.080217145
0.11679791
-0.087969868
0.13024078
-0.095646984
0.14377298
-0.1032063
0.15725857
-0.11063444
-0.11786191
0.1704945
0.00048062344
-0.0010412807
0.0019186983
-0.004017089
0.0043524789
-0.0078471251
0.0078165634
-0.012438171
0.012337665
-0.017723392
0.017929207
-0.023638294
0.024586249
-0.030115278
0.032281209
-0.037081766
0.04096084
-0.044458643
0.05054492
-0.052160098
0.060927067
-0.060095143
0.071977804
-0.068170478
0.083549796
-0.076294316
0.095484809
-0.084380733
0.10762169
-0.092354022
0.11980426
-0.10015244
0.131888
-0.10773073
0.14374348
-0.11506178
0.1552487
-0.12213967
-0.1289143
0.1663011
0.00056616969
-0.0016074504
0.0022279425
-0.0056788618
0.0050006113
-0.010619794
0.0088940107
-0.016331571
0.013905258
-0.022734639
0.020011882
-0.029744917
0.027166487
-0.037269883
0.035293416
-0.045208695
0.044287857
-0.053453083
0.054017777
-0.061890018
0.064328719
-0.070406086
0.075051131
-0.078892889
0.086009524
-0.087252709
0.097032498
-0.095403707
0.10796246
-0.10328399
0.11866396
-0.11085393
0.12902965
-0.11809642
0.13898297
-0.1250151
0.14847492
-0.13163161
-0.13794521
0.15750582
0.00065088626
-0.0022583367
0.0025243417
-0.0075523173
0.0056036346
-0.013699087
0.0098644652
-0.020592401
0.015264612
-0.028134786
0.021736411
-0.036216716
0.029182482
-0.044715955
0.037474895
-0.053501108
0.046458003
-0.062436191
0.055954839
-0.071386854
0.065776433
-0.08022768
0.075733014
-0.08884947
0.085645719
-0.097165414
0.095357397
-0.10511539
0.10474121
-0.1126678
0.11370619
-0.11981891
0.12219937
-0.1265896
0.13020456
-0.1330203
0.137738
-0.13916505
-0.14506759
0.14486037
0.00073063585
-0.0029889726
0.0027920864
-0.0096137678
0.0061265746
-0.017033575
0.010666713
-0.025132539
0.016322651
-0.033790724
0.022975244
-0.04286931
0.03047443
-0.052215141
0.038642399
-0.061669077
0.047281189
-0.071074981
0.056183733
-0.080289399
0.065146886
-0.089190833
0.073984599
-0.097687182
0.082539482
-0.1057203
0.0906913
-0.1132672
0.098361453
-0.12033796
0.1055133
-0.12697076
0.11214879
-0.13322509
0.1183024
-0.13917391
0.12403362
-0.14489627
-0.15046331
0.12942934
0.00080073122
-0.0037897039
0.0030139162
-0.011826953
0.0065328946
-0.020552553
0.011240052
-0.029839697
0.016992698
-0.03954337
0.023618545
-0.049495157
0.030918215
-0.059514811
0.038673318
-0.06942418
0.046658773
-0.079060436
0.054657397
-0.088288023
0.062474458
-0.097007894
0.069949955
-0.10516268
0.076966963
-0.11273731
0.0834551
-0.11975534
0.089389109
-0.12627197
0.094783313
-0.13236496
0.099683303
-0.13812508
0.10415649
-0.1436471
0.1082831
-0.14902287
-0.15433358
0.11215337
0.00085605876
-0.0046457626
0.0031720608
-0.014142955
0.006787226
-0.024167719
0.011529802
-0.034582273
0.017203434
-0.045217001
0.023586549
-0.055878272
0.030439875
-0.066368137
0.037519328
-0.076503633
0.044591799
-0.086132906
0.051451004
-0.095147228
0.057930632
-0.10348752
0.063912776
-0.11114482
0.069330644
-0.11815517
0.074165692
-0.12459039
0.078440253
-0.13054653
0.082207333
-0.13613204
0.085539498
-0.14145724
0.088518556
-0.14662615
0.091227352
-0.15173167
-0.15685206
0.093745835
0.00089026239
-0.005536025
0.0032482833
-0.016500976
0.0068576223
-0.027777058
0.011492464
-0.039217115
0.016906809
-0.050631346
0.022838895
-0.061810358
0.02902367
-0.072552912
0.035209251
-0.082689214
0.041173929
-0.092097584
0.046740396
-0.1007137
0.051784656
-0.10853178
0.056238407
-0.11559857
0.060085138
-0.1220019
0.063351245
-0.12785649
0.066094211
-0.13328949
0.068390051
-0.13842789
0.070321918
-0.14338911
0.071971229
-0.14827547
0.073411918
-0.15317236
-0.15814771
0.074707569
0.00089981835
-0.0064358433
0.0032333806
-0.018834538
0.0067291642
-0.031272841
0.011111177
-0.043599128
0.016092485
-0.055612655
0.021384623
-0.067102495
0.026713885
-0.077882174
0.031839116
-0.087814446
0.036567085
-0.096825553
0.040762271
-0.10490888
0.044349473
-0.11211898
0.047309347
-0.11855845
0.049668403
-0.12436096
0.05148581
-0.1296739
0.052839519
-0.1346432
0.053813813
-0.13940218
0.054489702
-0.144065
0.05493881
-0.14872457
0.055220536
-0.15345409
0.055380969
-0.15830814
-0.00020237828
0.00020237828
9.9334427e-13
-0.00067774651
0.00047536822
2.0755022e-13
-0.0013424258
0.00066467932
4.0353516e-13
-0.0021322942
0.00078986837
8.7588341e-13
-0.0029957732
0.00086347894
1.2554562e-12
-0.0038907403
0.00089496719
1.5625192e-12
-0.0047822958
0.00089155547
2.0759347e-12
-0.0056408929
0.00085859712
2.8060005e-12
-0.0064408679
0.00079997496
3.8946573e-12
-0.0071592888
0.00071842087
5.250434e-12
-0.0077750371
0.00061574834
6.883165e-12
-0.0082680727
0.0004930356
8.6816159e-12
-0.0086188539
0.00035078119
1.0618722e-11
-0.0088079043
0.00018905032
1.2633894e-11
-0.0088155572
7.6529596e-06
1.4571316e-11
-0.0086219802
-0.00019357708
1.6519383e-11
-0.0082074379
-0.00041454227
1.8347e-11
-0.0075518876
-0.00065555032
1.9957532e-11
-0.006634573
-0.00091731463
2.1442479e-11
-0.0011862316
-0.0054483414
2.28304e-11
-0.0001879745
0.00039035278
-0.00062500713
0.00091240085
-0.0012287534
0.0012684256
-0.0019351948
0.0014963098
-0.0026921397
0.0016204238
-0.0034562847
0.0016591122
-0.0041910679
0.0016263387
-0.0048648597
0.0015323889
-0.0054495249
0.0013846402
-0.0059192878
0.0011881837
-0.0062498164
0.00094627701
-0.0064174812
0.00066070036
-0.0063987497
0.00033204969
-0.0061697078
-3.9991578e-05
-0.0057057346
-0.00045632025
-0.0049814221
-0.00091788959
-0.0039707912
-0.0014251732
-0.0026472123
-0.0019791292
-0.00098325576
-0.0025812712
-0.0032017835
0.0010322961
-0.00015892788
0.00054928066
-0.00051889152
0.0012723645
-0.0010007702
0.0017503043
-0.0015412596
0.0020367992
-0.0020873502
0.0021665144
-0.0025937356
0.0021654976
-0.0030208687
0.0020534718
-0.0033332941
0.0018448143
-0.0034983026
0.0015496487
-0.0034848552
0.0011747363
-0.0032626991
0.00072412086
-0.0028016478
0.00019964914
-0.0020709479
-0.0003986502
-0.0010387646
-0.0010721749
0.00032824739
-0.0018233323
0.0020652205
-0.0026548627
0.0042090337
-0.0035689864
0.0067980067
-0.0045681022
0.0098718311
-0.0056550956
-0.0067797396
0.013449787
-0.00011756696
0.00066684762
-0.00036699856
0.0015217961
-0.00067351367
0.0020568194
-0.00097482566
0.0023381112
-0.001216854
0.0024085427
-0.0013515941
0.0023002377
-0.0013354598
0.0020373375
-0.0011278286
0.0016371831
-0.0006898452
0.0011116653
1.6530449e-05
0.00046836066
0.0010293076
-0.00028865634
0.0023871117
-0.0011581549
0.004129729
-0.0021412675
0.0062985889
-0.0032410348
0.0089372696
-0.004462013
0.012092055
-0.0058096478
0.015812308
-0.0072892399
0.020150174
-0.0089059675
0.025160361
-0.010665283
-0.012492619
0.030873241
-6.6907635e-05
0.00073375526
-0.00017916649
0.001634055
-0.00026653376
0.0021441867
-0.00026769137
0.0023392688
-0.00012719408
0.0022680454
0.00020616718
0.0019668764
0.00078069397
0.0014628107
0.0016429497
0.00077492736
0.0028387294
-8.4114342e-05
0.0044138454
-0.0011067553
0.0064146911
-0.002289502
0.0088886571
-0.0036321209
0.011884457
-0.0051370674
0.015452457
-0.0068090345
0.019645049
-0.008654605
0.024517272
-0.010681871
0.03012769
-0.012899658
0.036538901
-0.015317179
0.043818303
-0.017944685
-0.02068254
0.052008224
-9.9846118e-06
0.00074373987
3.4535037e-05
0.0015895353
0.00019989032
0.0019788314
0.000546766
0.0019923932
0.0011322475
0.0016825639
0.0020109817
0.0010881422
0.0032361408
0.00023765164
0.0048603052
-0.00084923709
0.0069361216
-0.0021599308
0.0095166769
-0.0036873106
0.012655707
-0.0054285317
0.016407699
-0.0073841139
0.020827825
-0.0095571925
0.025971769
-0.011952979
0.031895641
-0.014578477
0.03865627
-0.017442499
0.046312387
-0.020555775
0.054926691
-0.023931483
0.064569678
-0.027587672
-0.031405597
0.075292734
5.0751323e-05
0.00069298855
0.00026565782
0.0013746288
0.00070825449
0.0015362347
0.0014390305
0.0012616171
0.0025168206
0.0006047738
0.0039995668
-0.00039460394
0.0059449149
-0.0017076965
0.0084106036
-0.0033149258
0.011454595
-0.0052039217
0.015135042
-0.0073677576
0.019510022
-0.0098035124
0.024637011
-0.012511102
0.030572143
-0.015492324
0.037369316
-0.018750153
0.045079259
-0.02228842
0.053748983
-0.026112223
0.063422598
-0.03022939
0.074144704
-0.034653589
0.085969334
-0.039412302
-0.044388506
0.098952244
0.00011379632
0.00057919223
0.00050850346
0.00097992166
0.0012459825
0.00079875573
0.0023867778
0.00012082178
0.0039912411
-0.00099968952
0.0061198763
-0.0025232391
0.0088333201
-0.0044211403
0.012192166
-0.0066737713
0.016256557
-0.0092683134
0.021085445
-0.012196645
0.026735547
-0.015453614
0.033260022
-0.019035578
0.040706884
-0.022939186
0.049117191
-0.02716046
0.058523153
-0.031694382
0.068946504
-0.036535575
0.080398324
-0.04168121
0.092882152
-0.047137416
0.10640549
-0.05293564
-0.058995675
0.12101266
0.00017849583
0.00040069639
0.00076002996
0.00039838754
0.001805339
-0.00024655336
0.0033747139
-0.0014485531
0.0055289958
-0.0031539714
0.0083293198
-0.0053235631
0.011836491
-0.007928311
0.016110059
-0.01094734
0.021207043
-0.014365298
0.027180304
-0.018169906
0.034076619
-0.022349929
0.041934479
-0.026893438
0.050781663
-0.031786369
0.060632596
-0.037011393
0.071485502
-0.042547288
0.083319393
-0.048369466
0.096091864
-0.054453681
0.10974043
-0.060785982
0.12419601
-0.067391216
-0.074274625
0.13947496
0.00024512728
0.0010199495
0.0023833406
0.0043938626
0.0071105505
0.010591906
0.014894312
0.020070117
0.026165379
0.033217381
0.041252019
0.050281252
0.06030074
0.071287747
0.083199144
0.095968913
0.10950341
0.1236638
0.13818334
0.15258762
-0.0035077148
-0.0019406267
3.2843305e-11
-0.0012859285
-0.0022217864
3.5113918e-11
0.0011946823
-0.0024806108
3.6476042e-11
0.0038772184
-0.0026825361
3.77073e-11
0.0067348761
-0.0028576577
3.6686978e-11
0.0097503495
-0.0030154734
3.7503136e-11
0.012904704
-0.0031543545
3.5011496e-11
0.016179917
-0.0032752129
3.1942591e-11
0.019560287
-0.0033803698
2.7853729e-11
0.023031594
-0.0034713079
2.2896459e-11
0.026580554
-0.0035489595
1.7373543e-11
0.03019474
-0.0036141862
1.1442032e-11
0.03386251
-0.0036677699
5.3530586e-12
0.037572867
-0.0037103571
-7.2221603e-13
0.04131536
-0.0037424929
-6.499404e-12
0.045080017
-0.0037646567
-1.1772559e-11
0.048857296
-0.0037772797
-1.6321784e-11
0.052638055
-0.0037807588
-2.0040073e-11
0.056413525
-0.0037754702
-2.2856032e-11
0.060175307
-0.0037617819
-2.4762491e-11
0.063915369
-0.0037400617
-2.5796195e-11
0.067626053
-0.0037106838
-2.5963685e-11
0.071300086
-0.0036740327
-2.5317471e-11
0.074930591
-0.0036305054
-2.3743185e-11
0.078511102
-0.0035805112
-2.1209614e-11
0.082035573
-0.0035244711
-1.7366491e-11
0.085498389
-0.0034628151
-1.2099504e-11
0.088894368
-0.0033959796
-4.8415239e-12
0.092218772
-0.0033244039
4.4031975e-12
0.095467298
-0.003248526
1.6197839e-11
0.098636078
-0.00316878
2.9981368e-11
0.10172167
-0.0030855921
4.5862641e-11
0.10472105
-0.002999378
6.2113913e-11
0.10763159
-0.0029105411
7.7845004e-11
0.11045106
-0.0028194706
8.978477e-11
0.1131776
-0.0027265424
9.607762e-11
0.11580972
-0.0026321187
9.2553461e-11
0.11834627
-0.0025365519
7.7800396e-11
0.12078646
-0.0024401908
4.8517098e-11
0.12312984
-0.0023433819
6.6641177e-12
0.12537636
-0.002246511
-4.6914873e-11
0.12752629
-0.0021499294
-1.0423034e-10
0.12958061
-0.0020543268
-1.5594045e-10
0.1315403
-0.0019596918
-1.8481596e-10
0.13340945
-0.0018691453
-1.7482739e-10
0.13518656
-0.0017771084
-1.1176563e-10
0.13689608
-0.0017095205
1.4301011e-11
0.13849387
-0.0015977885
1.7928115e-10
0.14018074
-0.0016868737
3.9146143e-10
-0.0013310894
4.5894007e-10
0.0028529098
-0.0037612404
0.0049500545
-0.004318931
0.0072929114
-0.0048234677
0.0098190385
-0.0052086633
0.012507375
-0.0055459939
0.015345594
-0.0058536932
0.018316957
-0.0061257169
0.021405055
-0.0063633113
0.024595871
-0.0065711854
0.027876641
-0.006752078
0.031235234
-0.0069075523
0.034660168
-0.0070391205
0.038140587
-0.0071481887
0.041666144
-0.007235914
0.045226921
-0.00730327
0.048813385
-0.0073511206
0.052416356
-0.0073802513
0.056026991
-0.0073913931
0.059636768
-0.0073852475
0.063237495
-0.0073625088
0.066821312
-0.0073238783
0.070380704
-0.0072700759
0.073908517
-0.0072018466
0.077397975
-0.0071199632
0.080842691
-0.0070252267
0.084236682
-0.0069184625
0.087574383
-0.0068005163
0.090850651
-0.0066722472
0.094060769
-0.0065345214
0.097200446
-0.0063882039
0.10026582
-0.0062341521
0.10325344
-0.0060732087
0.10616025
-0.0059061964
0.10898363
-0.0057339139
0.11172129
-0.0055571328
0.11437134
-0.0053765979
0.11693225
-0.0051930294
0.11940283
-0.0050071269
0.12178222
-0.0048195852
0.12406994
-0.0046310935
0.12626585
-0.0044424229
0.12837019
-0.0042542738
0.13038389
-0.0040680231
0.13230785
-0.0038836521
0.13414607
-0.00370737
0.13589708
-0.0035281186
0.13758486
-0.0033972994
0.13916631
-0.0031792348
0.14083703
-0.0033575999
-0.002659724
0.015021122
-0.005332575
0.01685222
-0.006150029
0.018905754
-0.0068770022
0.021111797
-0.007414706
0.023458714
-0.0078929106
0.025942851
-0.008337831
0.028551592
-0.0087344574
0.031271455
-0.0090831745
0.03409134
-0.0093910707
0.037001018
-0.0096617555
0.039990367
-0.0098969012
0.043049527
-0.01009828
0.046168972
-0.010267635
0.049339449
-0.010406391
0.052551927
-0.010515748
0.055797595
-0.010596788
0.059067863
-0.010650519
0.062354368
-0.010677898
0.065648988
-0.010679868
0.068943858
-0.010657378
0.072231389
-0.01061141
0.075504295
-0.010542982
0.07875561
-0.010453161
0.081978712
-0.010343066
0.085167344
-0.010213858
0.088315627
-0.010066746
0.091418076
-0.0099029653
0.094469609
-0.0097237805
0.097465552
-0.0095304639
0.10040164
-0.0093242915
0.10327401
-0.009106527
0.10607922
-0.0088784152
0.1088142
-0.0086411722
0.11147626
-0.0083959794
0.11406311
-0.0081439802
0.11657279
-0.0078862789
0.11900371
-0.0076239448
0.1213546
-0.007358019
0.12362455
-0.0070895361
0.12581298
-0.0068195253
0.1279197
-0.006549139
0.12994485
-0.0062794269
0.13188927
-0.0060124464
0.13375381
-0.0057481872
0.1355423
-0.0054958635
0.13725337
-0.0052391834
0.13891002
-0.0050539524
0.14047149
-0.0047407067
0.14212278
-0.0050088872
-0.0039965961
0.032056529
-0.0065158638
0.033471724
-0.0075652234
0.035077225
-0.0084825029
0.036800055
-0.0091375366
0.038640901
-0.0097337566
0.04060606
-0.01030299
0.042688359
-0.010816757
0.044878277
-0.011273092
0.047168236
-0.01168103
0.049551009
-0.012044528
0.052018887
-0.01236478
0.054563916
-0.012643309
0.057178083
-0.012881802
0.059853346
-0.013081654
0.062581643
-0.013244045
0.065354929
-0.013370075
0.068165224
-0.013460814
0.07100465
-0.013517324
0.073865474
-0.013540691
0.076740144
-0.013532048
0.079621327
-0.013492593
0.082501944
-0.013423599
0.085375199
-0.013326417
0.088234611
-0.013202477
0.091074035
-0.013053282
0.093887682
-0.012880393
0.09667014
-0.012685423
0.099416378
-0.012470018
0.10212176
-0.012235843
0.10478203
-0.011984567
0.10739335
-0.011717847
0.10995225
-0.011437315
0.11245565
-0.011144568
0.11490083
-0.01084116
0.11728544
-0.010528594
0.11960749
-0.010208326
0.12186531
-0.0098817672
0.12405759
-0.0095502931
0.12618332
-0.009215274
0.12824188
-0.0088780765
0.13023297
-0.0085402319
0.13215668
-0.0082031397
0.13401376
-0.0078695297
0.135805
-0.0075394244
0.13753406
-0.0072249196
0.13919973
-0.0069048569
0.14082366
-0.0066778827
0.14236855
-0.0062855992
0.14400413
-0.0066444655
-0.0053575995
0.052648514
-0.0071561533
0.053489096
-0.0084058056
0.054483205
-0.0094766125
0.055565155
-0.010219486
0.056749761
-0.010918362
0.058051317
-0.011604546
0.059468334
-0.012233774
0.060995945
-0.012800703
0.062629938
-0.013315023
0.064365716
-0.013780306
0.066197758
-0.014196822
0.068119794
-0.014565345
0.070125061
-0.014887068
0.072206455
-0.015163049
0.074356631
-0.01539422
0.076568074
-0.015581519
0.078833194
-0.015725933
0.081144394
-0.015828525
0.083494148
-0.015890445
0.085875052
-0.015912952
0.08827988
-0.015897421
0.09070163
-0.015845348
0.093133561
-0.015758348
0.095569233
-0.015638149
0.098002531
-0.01548658
0.10042769
-0.015305549
0.1028393
-0.015097037
0.10523235
-0.014863066
0.10760219
-0.014605688
0.10994459
-0.01432696
0.11225567
-0.014028926
0.11453195
-0.013713599
0.11677034
-0.013382955
0.11896809
-0.013038911
0.12112282
-0.012683329
0.12323251
-0.012318012
0.12529545
-0.011944708
0.12731028
-0.011565129
0.12927599
-0.011180978
0.13119187
-0.010793959
0.13305762
-0.010405984
0.13487329
-0.010018805
0.13663957
-0.0096358167
0.13835725
-0.0092571049
0.14002983
-0.0088974928
0.14165639
-0.0085314187
0.1432569
-0.008278397
0.1447985
-0.0078271988
0.146432
-0.0082779658
-0.0067659734
0.075221713
-0.0070851318
0.075326667
-0.0085107595
0.075551027
-0.0097009727
0.07585131
-0.010519768
0.076255549
-0.011322602
0.076780599
-0.012129595
0.077429494
-0.012882669
0.078202164
-0.013573373
0.079096917
-0.014209777
0.080110606
-0.014793995
0.081238987
-0.015325202
0.082476763
-0.015803122
0.083817751
-0.016228056
0.08525517
-0.016600468
0.086781845
-0.016920895
0.088390321
-0.017189995
0.090072982
-0.017408593
0.091822147
-0.01757769
0.093630174
-0.017698472
0.095489525
-0.017772303
0.097392833
-0.017800729
0.099332956
-0.017785471
0.10130303
-0.017728418
0.10329648
-0.017631602
0.10530709
-0.017497194
0.10732901
-0.017327463
0.10935674
-0.017124771
0.1113852
-0.016891529
0.11340971
-0.016630189
0.11542595
-0.016343206
0.11743004
-0.016033019
0.11941848
-0.015702037
0.12138814
-0.015352616
0.12333628
-0.014987047
0.12526051
-0.014607555
0.12715879
-0.014216297
0.12902945
-0.013815366
0.13087113
-0.01340681
0.13268283
-0.012992674
0.13446388
-0.012575007
0.136214
-0.012156105
0.13793327
-0.011738082
0.13962244
-0.011324987
0.14128235
-0.010917012
0.14291639
-0.010531529
0.14452407
-0.0101391
0.14612351
-0.0098778405
0.14768701
-0.0093906935
0.14934401
-0.0099349713
-0.0082538311
0.098025244
-0.0061581325
0.097257966
-0.0077434809
0.096581669
-0.0090246761
0.095997226
-0.0099353253
0.095540765
-0.010866141
0.095223518
-0.011812348
0.095050853
-0.012710004
0.095026772
-0.013549291
0.095150807
-0.014333812
0.095419694
-0.015062882
0.095829072
-0.015734581
0.096373532
-0.016347581
0.097046589
-0.016901113
0.097841009
-0.017394889
0.09874911
-0.017828996
0.09976292
-0.018203804
0.1008743
-0.018519975
0.10207507
-0.018778461
0.1033571
-0.018980503
0.1047124
-0.019127604
0.10613319
-0.019221517
0.10761195
-0.019264225
0.10914146
-0.019257929
0.11071486
-0.01920501
0.11232568
-0.019108014
0.11396784
-0.018969618
0.11563566
-0.018792592
0.11732391
-0.01857978
0.11902778
-0.01833406
0.12074289
-0.018058317
0.12246529
-0.017755418
0.12419144
-0.017428186
0.12591821
-0.017079383
0.12764286
-0.016711698
0.12936304
-0.016327737
0.13107677
-0.015930028
0.13278243
-0.015521024
0.13447874
-0.015103127
0.13616481
-0.014678742
0.13784007
-0.014250268
0.13950437
-0.013820402
0.14115792
-0.013391634
0.1428016
-0.012968664
0.14443642
-0.01255183
0.14606576
-0.01216087
0.14768969
-0.011763028
0.14932442
-0.011512578
0.15094789
-0.01101416
0.15266699
-0.011654071
-0.0098629321
0.11918901
-0.0043344868
0.11749641
-0.006050875
0.11585689
-0.0073851559
0.11435435
-0.0084327942
0.11302505
-0.0095368376
0.11186648
-0.010653782
0.11088412
-0.011727642
0.11008425
-0.012749414
0.10946626
-0.013715831
0.10902558
-0.014622202
0.1087564
-0.015465391
0.10865203
-0.01624322
0.1087049
-0.016953984
0.1089067
-0.017596682
0.10924869
-0.018170986
0.10972194
-0.018677051
0.11031741
-0.019115449
0.11102611
-0.019487157
0.11183914
-0.019793537
0.11274783
-0.020036296
0.11374378
-0.020217459
0.11481889
-0.020339338
0.11596546
-0.020404505
0.11717621
-0.020415752
0.11844426
-0.020376063
0.11976321
-0.020288569
0.12112713
-0.020156517
0.12253058
-0.019983227
0.12396857
-0.019772055
0.12543662
-0.019526365
0.1269307
-0.019249491
0.12844723
-0.018944716
0.12998309
-0.018615246
0.13153559
-0.018264201
0.13310246
-0.017894602
0.1346818
-0.017509376
0.13627215
-0.017111366
0.13787238
-0.016703357
0.13948176
-0.016288127
0.14109995
-0.015868459
0.14272702
-0.015447465
0.14436341
-0.01502803
0.14601026
-0.01461551
0.14766886
-0.014210429
0.14934271
-0.013834719
0.15103253
-0.013452851
0.15275271
-0.01323276
0.15448705
-0.0127485
0.15631977
-0.013486791
-0.011644624
0.13689599
-0.0017555163
0.13437802
-0.0035329137
0.13181945
-0.0048265869
0.12946239
-0.0060757277
0.12733403
-0.0074084809
0.12541576
-0.0087355092
0.1237104
-0.010022284
0.12222305
-0.011262059
0.12095214
-0.012444929
0.11989192
-0.01356198
0.11903487
-0.014608344
0.11837265
-0.015581
0.11789627
-0.016477596
0.11759618
-0.017296599
0.11746254
-0.018037341
0.11748532
-0.018699831
0.11765451
-0.019284638
0.11796018
-0.019792835
0.11839262
-0.020225973
0.11894236
-0.020586033
0.11960027
-0.020875377
0.12035765
-0.021096713
0.1212062
-0.021253053
0.12213811
-0.021347665
0.12314608
-0.021384036
0.12422334
-0.021365826
0.12536363
-0.021296811
0.12656126
-0.021180857
0.12781107
-0.02102186
0.12910842
-0.02082372
0.13044923
-0.020590297
0.1318299
-0.020325383
0.13324733
-0.020032683
0.13469892
-0.01971579
0.13618251
-0.019378187
0.13769638
-0.019023242
0.13923924
-0.018654229
0.14081022
-0.01827434
0.14240886
-0.01788677
0.14403512
-0.017494711
0.14568937
-0.017101717
0.14737243
-0.016711094
0.14908579
-0.016328866
0.15083114
-0.015955786
0.15261223
-0.015615805
0.15443055
-0.015271166
0.15629874
-0.015100958
0.15820663
-0.014656385
0.16021616
-0.015496326
-0.013658947
0.15005212
0.00077998454
0.14676317
-0.00024396897
0.14346584
-0.0015292495
0.14041806
-0.00302795
0.13762317
-0.0046135886
0.1350749
-0.0061872463
0.1327751
-0.0077224859
0.13072386
-0.0092108104
0.12891872
-0.010639791
0.12735449
-0.011997751
0.12602334
-0.013277199
0.12491588
-0.014473533
0.12402191
-0.01558363
0.12333079
-0.016605474
0.12283152
-0.017538075
0.122513
-0.018381314
0.12236416
-0.019135794
0.12237408
-0.019802753
0.1225321
-0.020383994
0.1228279
-0.020881835
0.12325157
-0.02129905
0.12379367
-0.021638812
0.12444527
-0.021904648
0.12519799
-0.022100382
0.12604403
-0.02223008
0.1269762
-0.022297998
0.12798792
-0.022308531
0.12907322
-0.022266156
0.13022675
-0.022175386
0.13144375
-0.022040725
0.13272008
-0.021866626
0.13405215
-0.021657456
0.13543694
-0.021417476
0.13687197
-0.021150815
0.13835525
-0.020861466
0.13988529
-0.020553288
0.14146109
-0.020230026
0.14308208
-0.019895333
0.14474817
-0.01955285
0.14645967
-0.019206213
0.1482174
-0.018859454
0.15002263
-0.01851632
0.15187729
-0.01818353
0.15378358
-0.017862073
0.15574562
-0.017577842
0.15776559
-0.01729114
0.15985504
-0.017190401
0.16200819
-0.016809542
0.16426981
-0.017757941
-0.015970869
0.18890882
0.005382085
-0.19351092
0.18509878
0.0035660674
0.18170675
0.0018627835
0.17856162
0.00011717417
0.17562607
-0.0016780309
0.17287504
-0.0034362226
0.17029033
-0.0051377716
0.16786293
-0.0067834124
0.16558897
-0.008365828
0.16346628
-0.0098750687
0.16149302
-0.011303936
0.15966707
-0.012647579
0.15798578
-0.013902342
0.15644587
-0.015065562
0.15504341
-0.016135617
0.15377394
-0.017111841
0.15263252
-0.017994381
0.15161387
-0.018784103
0.15071241
-0.019482531
0.14992236
-0.020091784
0.14923782
-0.02061451
0.14865284
-0.021053834
0.14816148
-0.021413288
0.14775786
-0.021696759
0.1474362
-0.021908424
0.1471909
-0.022052692
0.14701651
-0.022134143
0.14690782
-0.022157469
0.14685986
-0.02212742
0.14686788
-0.022048753
0.14692745
-0.021926191
0.14703437
-0.021764379
0.14718475
-0.021567856
0.14737498
-0.021341038
0.14760171
-0.021088204
0.14786192
-0.020813499
0.14815285
-0.020520951
0.14847202
-0.0202145
0.14881725
-0.01989808
0.14918666
-0.019575623
0.14957869
-0.019251487
0.14999211
-0.018929738
0.15042614
-0.018617564
0.15088027
-0.0183162
0.15135511
-0.018052679
0.1518505
-0.017786537
0.15237094
-0.017710837
0.1529121
-0.017350709
0.15349697
-0.01834281
-0.016563541
0.21685771
0.0087804152
-0.22025604
0.21338382
0.0070399539
0.21017101
0.0050755951
0.2070657
0.0032224865
0.2040191
0.0013685642
0.20106218
-0.00047930279
0.19821182
-0.0022874103
0.19547253
-0.0040441222
0.19285021
-0.0057435094
0.19035169
-0.0073765534
0.18798218
-0.0089344235
0.18574507
-0.010410466
0.18364235
-0.011799625
0.18167473
-0.013097939
0.17984167
-0.014302553
0.17814154
-0.01541171
0.17657179
-0.016424637
0.17512912
-0.017341431
0.17380957
-0.01816298
0.17260868
-0.018890898
0.17152162
-0.019527444
0.17054324
-0.020075456
0.16966823
-0.020538275
0.16889114
-0.020919678
0.16820653
-0.021223808
0.16760894
-0.021455099
0.16709301
-0.021618214
0.16665351
-0.021717975
0.1662854
-0.021759302
0.16598379
-0.021747153
0.16574408
-0.021686476
0.16556186
-0.021582164
0.16543303
-0.021439019
0.16535372
-0.021261729
0.16532037
-0.021054854
0.16532969
-0.020822824
0.1653787
-0.020569957
0.16546469
-0.020300489
0.16558526
-0.020018653
0.16573833
-0.019728695
0.16592215
-0.019435303
0.16613531
-0.0191429
0.16637682
-0.018859068
0.16664616
-0.018585548
0.1669432
-0.01834972
0.16726917
-0.018112501
0.16762328
-0.018064944
0.16801383
-0.017741264
0.16842279
-0.018751768
-0.017037411
0.24376662
0.011504368
-0.24649058
0.24091619
0.0098903908
0.23806298
0.0079288046
0.23521602
0.0060694478
0.23233822
0.0042463662
0.2294504
0.0024085166
0.22658378
0.00057920633
0.22375766
-0.001218005
0.22098796
-0.0029738092
0.21829061
-0.0046792063
0.21567948
-0.0063232877
0.21316555
-0.0078965413
0.21075745
-0.0093915219
0.20846173
-0.010802216
0.20628302
-0.012123843
0.2042242
-0.013352894
0.20228663
-0.01448707
0.20047035
-0.015525152
0.19877428
-0.016466907
0.19719638
-0.017312998
0.19573384
-0.018064903
0.19438321
-0.018724824
0.19314054
-0.019295604
0.1920015
-0.019780641
0.1909615
-0.020183806
0.19001576
-0.020509359
0.18915942
-0.020761874
0.1883876
-0.020946154
0.18769546
-0.021067168
0.18707829
-0.021129976
0.18653148
-0.021139671
0.18605065
-0.021101332
0.1856316
-0.021019973
0.1852704
-0.020900522
0.18496334
-0.020747794
0.184707
-0.020566491
0.18449826
-0.020361215
0.18433427
-0.020136495
0.18421249
-0.01989687
0.1841307
-0.019646907
0.18408702
-0.019391622
0.18407995
-0.019135837
0.18410832
-0.018887436
0.18417171
-0.018648936
0.18426921
-0.018447222
0.18440354
-0.018246833
0.18456831
-0.018229709
0.1847854
-0.01795835
0.1849909
-0.018957274
-0.017370026
0.26927439
0.013537319
-0.27130734
0.26710635
0.012058434
0.26476459
0.010270565
0.26232536
0.0085086724
0.25979661
0.0067751153
0.25718852
0.0050166105
0.2545272
0.0032405229
0.25183684
0.0014723617
0.24913742
-0.00027439013
0.24644875
-0.0019905398
0.24379013
-0.0036646639
0.24117868
-0.0052850955
0.23862914
-0.0068419809
0.23615399
-0.0083270694
0.23376354
-0.009733385
0.23146593
-0.011055286
0.22926735
-0.012288495
0.22717221
-0.013430007
0.22518329
-0.014477991
0.223302
-0.015431706
0.22152851
-0.016291409
0.21986194
-0.017058261
0.21830057
-0.01773423
0.21684192
-0.018321992
0.21548295
-0.01882484
0.21422018
-0.019246587
0.21304978
-0.019591474
0.2119677
-0.019864079
0.21096977
-0.020069235
0.21005175
-0.02021195
0.20920941
-0.020297337
0.20843863
-0.020330552
0.2077354
-0.020316738
0.20709587
-0.020260995
0.20651642
-0.020168344
0.20599365
-0.020043721
0.20552442
-0.019891986
0.20510587
-0.019717946
0.20473544
-0.019526436
0.20441088
-0.019322345
0.20413027
-0.019111012
0.20389211
-0.018897682
0.20369514
-0.018690465
0.20353905
-0.018492849
0.20342237
-0.018330544
0.20334902
-0.018173475
0.2033078
-0.018188488
0.20333193
-0.017982487
0.20331622
-0.018941564
-0.017539203
0.29298516
0.014868459
-0.2943163
0.29150592
0.013537675
0.28978343
0.011993056
0.28788479
0.010407305
0.28584488
0.0088150247
0.28367451
0.0071869812
0.28139209
0.0055229434
0.27902087
0.003843589
0.27658213
0.0021643416
0.27409606
0.00049553423
0.27158284
-0.0011514482
0.26906221
-0.0027644627
0.26655248
-0.0043322544
0.26407026
-0.0058448407
0.26163026
-0.0072933935
0.25924527
-0.0086702968
0.25692605
-0.0099692682
0.2546814
-0.01118536
0.25251832
-0.012314906
0.25044207
-0.013355458
0.24845638
-0.014305719
0.24656358
-0.015165458
0.24476476
-0.015935416
0.24305998
-0.016617207
0.24144836
-0.017213218
0.23992828
-0.01772651
0.23849751
-0.01816071
0.23715335
-0.018519915
0.23589271
-0.018808599
0.23471228
-0.019031517
0.23360857
-0.019193625
0.23257803
-0.019300011
0.23161711
-0.019355824
0.23072235
-0.019366232
0.22989039
-0.01933638
0.22911804
-0.019271375
0.22840234
-0.019176286
0.22774056
-0.019056165
0.22713024
-0.018916118
0.22656924
-0.018761342
0.22605571
-0.018597484
0.22558825
-0.018430216
0.2251656
-0.018267823
0.22478763
-0.018114872
0.22445248
-0.017995401
0.22416492
-0.017885914
0.22391011
-0.017933677
0.2237296
-0.017801973
0.22348454
-0.018696507