/*--------------------------------*- C++ -*----------------------------------*\
  =========                 |
  \\      /  F ield         | OpenFOAM: The Open Source CFD Toolbox
   \\    /   O peration     | Website:  https://openfoam.org
    \\  /    A nd           | Version:  6
     \\/     M anipulation  |
\*---------------------------------------------------------------------------*/
FoamFile
{
    version     2.0;
    format      ascii;
    class       volScalarField;
    location    "176";
    object      pPrime2Mean;
}
// * * * * * * * * * * * * * * * * * * * * * * * * * * * * * * * * * * * * * //

dimensions      [0 4 -4 0 0 0 0];

internalField   nonuniform List<scalar> 
9200
(
0.063839639
0.05291525
0.043666612
0.0376461
0.032840989
0.028791373
0.025297272
0.022256728
0.019601882
0.017278382
0.015241206
0.013452615
0.011880738
0.010498501
0.0092827908
0.0082138464
0.0072749412
0.0064521288
0.0057351015
0.0051105144
0.051760891
0.04282074
0.035344695
0.030431315
0.026489883
0.023158535
0.020280146
0.017774585
0.015587881
0.013676518
0.012004154
0.010540038
0.0092579323
0.0081352833
0.0071525851
0.0062929271
0.0055417504
0.0048865156
0.0043155785
0.0038123532
0.040435369
0.033403598
0.027592173
0.023721319
0.020591438
0.01793332
0.015630892
0.013625124
0.011875696
0.010349608
0.0090187551
0.0078588292
0.0068486032
0.0059694035
0.0052047342
0.0045400279
0.0039624998
0.0034608748
0.0030238496
0.0026365857
0.030177358
0.024917773
0.020612871
0.017690153
0.015297404
0.013249679
0.011469
0.0099161314
0.0085636262
0.0073881522
0.0063689259
0.0054871597
0.0047257874
0.004069316
0.0035037613
0.0030166226
0.0025968505
0.0022346606
0.0019204014
0.0016428377
0.021270034
0.017591531
0.014594471
0.012499851
0.010750597
0.0092352228
0.0079097844
0.0067528782
0.0057485397
0.0048817137
0.0041376066
0.0035017758
0.0029603849
0.0025004778
0.0021102203
0.0017790596
0.001497771
0.0012583452
0.0010533687
0.00087530861
0.01396295
0.011623779
0.0097034362
0.0082953199
0.0070796897
0.0060058953
0.0050588791
0.0042323647
0.003519831
0.0029126324
0.002400361
0.0019716698
0.0016150876
0.0013196784
0.0010755024
0.00087386328
0.00070735919
0.00056978605
0.00045588078
0.00036100077
0.0084647716
0.0071792971
0.0060813166
0.0052011945
0.0043964139
0.0036632548
0.0030093717
0.0024401823
0.0019560327
0.001552542
0.0012220349
0.00095511454
0.00074196567
0.00057327462
0.00044077133
0.00033745526
0.00025758599
0.00019656159
0.00015085337
0.00011776578
0.0049379348
0.0043854559
0.0038421237
0.0033193845
0.0027930622
0.0022917535
0.0018387851
0.0014472801
0.0011215796
0.00085939651
0.00065427919
0.00049782702
0.00038131628
0.00029670362
0.00023711435
0.0001969665
0.00017187311
0.00015848336
0.00015447442
0.00015828576
0.0034941316
0.0033286524
0.0030675981
0.0027239587
0.0023377926
0.0019548209
0.0016060345
0.0013077647
0.0010653767
0.00087671271
0.00073535168
0.00063320635
0.00056222082
0.0005152812
0.00048655569
0.00047148923
0.00046662816
0.00046943191
0.0004782279
0.00049192452
0.0041894394
0.0040513764
0.0038021268
0.0034562391
0.0030699762
0.0026900487
0.0023463137
0.0020536627
0.0018157578
0.0016290248
0.0014862472
0.0013791814
0.0013000716
0.0012423328
0.001200717
0.0011711986
0.0011507566
0.0011371706
0.0011288711
0.0011246651
0.15164766
0.12753703
0.10540212
0.091406135
0.080293724
0.070966929
0.062937372
0.055941572
0.049816415
0.044433703
0.039688699
0.035494696
0.031779063
0.028480403
0.025546435
0.022932383
0.020599712
0.018513914
0.016642591
0.014967007
0.14971533
0.12578838
0.10390713
0.090072022
0.079098913
0.069891089
0.061964492
0.055059977
0.049016308
0.04370652
0.039026872
0.034891493
0.031228474
0.027977048
0.025085493
0.022509543
0.020211168
0.018156365
0.016312554
0.014661649
0.14577397
0.12232636
0.10099316
0.087502305
0.076814392
0.067847735
0.060128698
0.053406262
0.047523426
0.042356287
0.037803527
0.033781254
0.030219218
0.027058065
0.024247296
0.021743727
0.019510357
0.01751419
0.015722757
0.014118313
0.13989253
0.11723507
0.096744425
0.083776771
0.073512404
0.064902291
0.057489897
0.051035682
0.045388998
0.040430711
0.036063306
0.032205978
0.028791035
0.025761283
0.023068067
0.020669791
0.018530896
0.016619841
0.014904807
0.013367858
0.13223165
0.11065903
0.09128401
0.079005518
0.069291737
0.061143839
0.054129006
0.048022151
0.042680853
0.037992284
0.033863986
0.030219264
0.02699382
0.024133305
0.021591471
0.019328757
0.017311351
0.015509508
0.013892956
0.012443326
0.12300966
0.10278962
0.084771543
0.073329207
0.064277718
0.056684675
0.050147094
0.044456936
0.039481642
0.035116032
0.031273815
0.02788331
0.02488436
0.022226078
0.01986513
0.017764389
0.01589202
0.014220239
0.012721334
0.01137703
0.11249161
0.093856322
0.07739595
0.066912779
0.058616568
0.051655248
0.045660928
0.040444729
0.035885366
0.03188645
0.028368795
0.025266521
0.022524284
0.02009522
0.017939381
0.016022452
0.014314815
0.012790659
0.011425577
0.010202546
0.10097962
0.084118597
0.069369383
0.059940366
0.052470866
0.046200062
0.040799297
0.036100455
0.031994644
0.028395192
0.025230789
0.022442033
0.01997897
0.017799277
0.015866845
0.014150586
0.012623442
0.011261694
0.010044671
0.0089577628
0.088802028
0.073856223
0.060919569
0.052608591
0.046013577
0.0404724
0.035698377
0.031545144
0.02791705
0.024737854
0.021944745
0.019485334
0.017315545
0.015398032
0.013700935
0.01219681
0.010861649
0.0096742893
0.0086183188
0.0076816006
0.076301419
0.06336148
0.052281712
0.045118041
0.039419762
0.034626517
0.030494551
0.026899573
0.023759691
0.021009564
0.018595271
0.016471769
0.014601145
0.012951288
0.011494855
0.010208421
0.0090718179
0.0080680297
0.0071863233
0.0064150388
0.013199259
0.011436818
0.0099423594
0.0086448467
0.0075363631
0.0065868248
0.0057701332
0.0050639026
0.004449936
0.0039134567
0.0034424989
0.0030274752
0.0026606875
0.002335873
0.0020478647
0.0017923439
0.0015656504
0.0013646402
0.0011865803
0.0010290703
0.00088998346
0.00076742039
0.0006596741
0.00056520236
0.0004826064
0.00041061437
0.00034806817
0.00029391299
0.00024718881
0.00020702324
0.00017262545
0.00014328059
0.0001183449
9.7240755e-05
7.9452293e-05
6.4520743e-05
5.2040251e-05
4.1653346e-05
3.3047234e-05
2.5948706e-05
2.0122934e-05
1.5362686e-05
1.1503605e-05
8.3734143e-06
5.906097e-06
3.8715492e-06
2.4682786e-06
1.1320157e-06
1.4975686e-06
2.454749e-06
0.012942971
0.011239117
0.0097875039
0.008522909
0.0074414548
0.0065137327
0.0057139081
0.0050204442
0.0044160769
0.0038867718
0.0034211818
0.0030102298
0.0026465943
0.0023242709
0.0020382675
0.0017843845
0.0015590432
0.0013591567
0.0011820336
0.0010253058
0.00088687157
0.00076485246
0.00065755873
0.00056346274
0.00048117809
0.00040944344
0.00034710962
0.00029312938
0.00024654908
0.00020650171
0.00017220091
0.00014293558
0.00011806504
9.7014269e-05
7.9269491e-05
6.4373681e-05
5.1922414e-05
4.1559387e-05
3.2972769e-05
2.5890143e-05
2.007733e-05
1.5327641e-05
1.1477165e-05
8.3540265e-06
5.8924904e-06
3.8627439e-06
2.4636571e-06
1.1293093e-06
1.4884565e-06
2.4069091e-06
0.012491851
0.010893449
0.0095194022
0.0083152024
0.007282309
0.0063930813
0.0056224966
0.0049507111
0.0043623117
0.0038447323
0.0033877908
0.0029833259
0.0026246728
0.0023062655
0.0020234026
0.0017720782
0.0015488447
0.0013507061
0.0011750374
0.0010195209
0.00088209511
0.0007609142
0.00065431586
0.0005607956
0.00047898661
0.00040764421
0.00034563335
0.00029191871
0.00024555667
0.00020568858
0.00017153506
0.00014239076
0.00011761975
9.6650885e-05
7.8973579e-05
6.4133393e-05
5.1728009e-05
4.1402847e-05
3.284748e-05
2.5790647e-05
1.9999118e-05
1.5266998e-05
1.1431044e-05
8.3199652e-06
5.8684919e-06
3.8471777e-06
2.4556178e-06
1.1245748e-06
1.4702567e-06
2.3134753e-06
0.011873551
0.010421097
0.0091572264
0.0080402733
0.0070754696
0.0062385287
0.005506729
0.0048630476
0.0042949433
0.0037921057
0.0033460051
0.0029496813
0.0025972979
0.002283832
0.0020049363
0.0017568413
0.0015362617
0.001340316
0.001166464
0.0010124534
0.00087627511
0.00075612601
0.00065037952
0.00055756121
0.00047632967
0.00040546159
0.00034383996
0.00029044455
0.00024434437
0.0002046912
0.00017071428
0.00014171534
0.0001170642
9.6194412e-05
7.8599154e-05
6.3827058e-05
5.1478272e-05
4.1200216e-05
3.2684088e-05
2.5659955e-05
1.9895688e-05
1.5186304e-05
1.1369346e-05
8.274207e-06
5.8361714e-06
3.8262507e-06
2.4448388e-06
1.118406e-06
1.4429708e-06
2.1792519e-06
0.011115369
0.0098437972
0.0087207484
0.0077170393
0.0068375572
0.0060632647
0.0053765361
0.0047647915
0.0042193826
0.0037329699
0.0032990324
0.002911931
0.0025667039
0.0022589018
0.001984554
0.001740148
0.0015225802
0.0013291029
0.0011572771
0.0010049299
0.00087011613
0.00075108486
0.0006462526
0.00055418088
0.0004735583
0.00040318657
0.00034196943
0.00028890388
0.00024307304
0.00020364032
0.00016984435
0.00014099447
0.00011646661
9.5699191e-05
7.8189294e-05
6.3488637e-05
5.1199819e-05
4.0972225e-05
3.2498627e-05
2.5510374e-05
1.9776396e-05
1.5092591e-05
1.1297274e-05
8.2205254e-06
5.7981471e-06
3.8017261e-06
2.4321485e-06
1.1115609e-06
1.4068718e-06
2.0112886e-06
0.010240745
0.0091813633
0.0082278505
0.0073609419
0.0065807494
0.0058757611
0.0052373816
0.0046595599
0.0041382624
0.0036694565
0.003248755
0.0028718207
0.0025345299
0.0022330033
0.0019636642
0.0017232792
0.001508951
0.0013180888
0.0011483752
0.00099773334
0.00086429482
0.00074637113
0.00064242952
0.00055107308
0.00047102455
0.00040111356
0.00034026663
0.00028749921
0.00024190933
0.00020267232
0.00016903629
0.00014031807
0.00011589941
9.5223287e-05
7.7790278e-05
6.3154803e-05
5.0921536e-05
4.0741476e-05
3.2308655e-05
2.5355432e-05
1.9651564e-05
1.4993642e-05
1.1220597e-05
8.1631041e-06
5.7573079e-06
3.7755365e-06
2.4184135e-06
1.104847e-06
1.3624023e-06
1.8181427e-06
0.0092725958
0.0084536442
0.0076944844
0.0069813464
0.0063090624
0.0056768221
0.0050886395
0.0045466564
0.0040514939
0.0036021495
0.0031962463
0.0028307145
0.0025022723
0.0022076498
0.0019437214
0.0017075877
0.0014966037
0.0013083723
0.0011407269
0.00099170834
0.00085954103
0.00074261037
0.00063944254
0.00054868773
0.00046910639
0.00039955825
0.00033899372
0.00028644713
0.00024103121
0.00020193271
0.00016840848
0.00013978194
0.00011543975
9.4828495e-05
7.7451336e-05
6.2864557e-05
5.067413e-05
4.0531988e-05
3.2132819e-05
2.5209478e-05
1.953212e-05
1.4897668e-05
1.1145374e-05
8.1063069e-06
5.7166347e-06
3.7496496e-06
2.4044714e-06
1.0990427e-06
1.3101658e-06
1.6090759e-06
0.008239403
0.0076833069
0.0071328933
0.0065769593
0.0060141393
0.0054577045
0.0049238462
0.0044222511
0.0039575067
0.0035310964
0.0031425215
0.0027901153
0.002471622
0.0021845415
0.0019263327
0.0016945359
0.0014868359
0.0013010851
0.0011353061
0.00098768438
0.00085655543
0.00074039035
0.0006377817
0.00054743114
0.00046813901
0.00039879581
0.00033837559
0.00028593054
0.00024058678
0.00020154088
0.00016805672
0.00013946261
0.00011514847
9.4562922e-05
7.7210319e-05
6.2647511e-05
5.0480633e-05
4.0361553e-05
3.1984763e-05
2.5082887e-05
1.9425869e-05
1.4810465e-05
1.1075821e-05
8.0531311e-06
5.6781111e-06
3.7253475e-06
2.3907101e-06
1.0946511e-06
1.2508541e-06
1.3933937e-06
0.0071692828
0.0068803044
0.0065304168
0.0061185842
0.0056642245
0.0051925013
0.0047242064
0.0042729733
0.0038466403
0.0034491902
0.0030822324
0.0027458827
0.0024392892
0.0021610122
0.0019093061
0.001682304
0.0014781292
0.001294958
0.0011310533
0.00098477977
0.00085460738
0.00073910852
0.00063695259
0.00054689964
0.00046779436
0.00039856084
0.00033819831
0.0002857776
0.0002404384
0.00020138684
0.00016789332
0.0001392903
0.00011497016
9.4382707e-05
7.7032607e-05
6.2476449e-05
5.0319761e-05
4.021364e-05
3.1851762e-05
2.4965973e-05
1.9325545e-05
1.472668e-05
1.1008079e-05
8.0008668e-06
5.6398525e-06
3.7013994e-06
2.3760973e-06
1.0913729e-06
1.1854509e-06
1.1806422e-06
0.006104041
0.0060201085
0.0058303028
0.0055534836
0.0052189284
0.0048505805
0.0044659834
0.0040799046
0.0037034232
0.0033436635
0.0030048726
0.0026894012
0.0023982191
0.0021312922
0.00188793
0.0016670512
0.0014673591
0.0012874562
0.0011259193
0.00098134454
0.00085237416
0.00073770955
0.00063611741
0.00054643148
0.00046755243
0.00039844676
0.00033814559
0.00028574352
0.00024039757
0.0002013262
0.00016780826
0.00013918171
0.00011484217
9.4241109e-05
7.6883652e-05
6.2326133e-05
5.0173342e-05
4.0075407e-05
3.1724954e-05
2.4852808e-05
1.9227349e-05
1.4644009e-05
1.0940865e-05
7.948849e-06
5.6015793e-06
3.6775625e-06
2.360481e-06
1.0889207e-06
1.116438e-06
9.808095e-07
0.0049445356
0.0049804355
0.0049213288
0.0047736309
0.0045655856
0.0043146378
0.004032751
0.003733072
0.0034277441
0.0031257091
0.0028331577
0.0025543815
0.0022921482
0.0020479759
0.0018224618
0.0016155705
0.0014268414
0.001255537
0.0011007506
0.00096148136
0.0008366852
0.00072530788
0.0006263066
0.00053866401
0.00046139742
0.00039356488
0.00033426957
0.0002826628
0.0002379463
0.00019937374
0.00016625171
0.00013794
0.00011385136
9.3450695e-05
7.6253687e-05
6.1824924e-05
4.9775666e-05
3.9761132e-05
3.1477944e-05
2.4660122e-05
1.9078521e-05
1.4530775e-05
1.0856171e-05
7.8881271e-06
5.5586325e-06
3.6529337e-06
2.3421439e-06
1.0876527e-06
1.0448387e-06
8.0500734e-07
0.0038320263
0.0039330353
0.0039552115
0.0038993686
0.003788312
0.0036347718
0.0034457486
0.0032313394
0.0030023916
0.0027674539
0.0025329154
0.0023037051
0.0020834632
0.0018746477
0.001678772
0.0014966488
0.001328574
0.0011744671
0.0010339822
0.00090659329
0.00079165476
0.0006884462
0.00059620394
0.00051414414
0.00044147953
0.00037743201
0.00032124211
0.00027217641
0.00022953336
0.00019264769
0.00016089386
0.00013368837
0.00011049126
9.080672e-05
7.4183002e-05
6.0211604e-05
4.8525934e-05
3.8799398e-05
3.0743458e-05
2.4104314e-05
1.8662506e-05
1.4224061e-05
1.0633686e-05
7.7323598e-06
5.4508287e-06
3.5887551e-06
2.2960289e-06
1.0773366e-06
9.5395354e-07
6.3814449e-07
0.0028755434
0.0030188831
0.0030978714
0.0031127609
0.0030777602
0.0030021648
0.0028902222
0.0027490932
0.0025876936
0.0024136518
0.0022330327
0.0020508647
0.0018712015
0.0016970884
0.0015306927
0.0013734846
0.0012263835
0.0010898777
0.00096412585
0.00084904131
0.00074435728
0.00064967692
0.00056451176
0.00048831132
0.0004204859
0.00036042444
0.00030750865
0.00026112432
0.00022067039
0.00018556624
0.0001552574
0.00012921998
0.0001069638
8.8034564e-05
7.2014952e-05
5.8524959e-05
4.7221478e-05
3.779721e-05
2.9979367e-05
2.3527081e-05
1.8231154e-05
1.3906544e-05
1.0403601e-05
7.5715325e-06
5.3391377e-06
3.5227583e-06
2.2462907e-06
1.0683699e-06
8.5544592e-07
4.8176437e-07
0.0020717392
0.0022366925
0.0023505626
0.0024146069
0.0024353964
0.0024191167
0.0023685255
0.0022882773
0.0021849791
0.0020649077
0.0019334094
0.0017951745
0.0016542438
0.0015138954
0.0013766705
0.001244481
0.0011187103
0.0010003017
0.00088984036
0.00078762774
0.00069374348
0.00060809557
0.00053046131
0.00046052022
0.00039788075
0.00034210188
0.00029271081
0.00024921741
0.00021112619
0.00017794603
0.00014919815
0.00012442239
0.00010318209
8.5067658e-05
6.9699019e-05
5.6727036e-05
4.5834088e-05
3.6733836e-05
2.917062e-05
2.2917627e-05
1.7776831e-05
1.3572854e-05
1.0162237e-05
7.4029529e-06
5.221892e-06
3.4531911e-06
2.1925824e-06
1.0590929e-06
7.5640984e-07
3.4822682e-07
0.0014253212
0.0015907334
0.0017192454
0.0018118044
0.0018692807
0.0018948207
0.0018900507
0.0018576755
0.0018020436
0.0017278397
0.0016394156
0.0015408091
0.0014357031
0.0013272852
0.0012181957
0.0011105625
0.0010060543
0.00090593214
0.00081110683
0.00072219542
0.00063957344
0.00056342002
0.00049375666
0.00043048028
0.00037339102
0.00032221573
0.00027662765
0.00023626314
0.00020073563
0.00016964741
0.00014259942
0.00011919915
9.9067156e-05
8.1841936e-05
6.7183659e-05
5.4776696e-05
4.4331184e-05
3.5583676e-05
2.8297261e-05
2.2260525e-05
1.7287725e-05
1.321402e-05
9.9028923e-06
7.2215914e-06
5.0955566e-06
3.3772288e-06
2.1335547e-06
1.047716e-06
6.60893e-07
2.4400476e-07
0.00093023488
0.0010792166
0.0012053733
0.001308371
0.0013854404
0.0014370371
0.0014635957
0.0014662889
0.001447528
0.0014103889
0.0013580755
0.0012937755
0.0012205745
0.001141313
0.0010584901
0.00097423873
0.00089033336
0.00080820795
0.00072898434
0.000653508
0.00058238534
0.00051601939
0.00045464262
0.00039834673
0.00034710889
0.00030081496
0.00025927963
0.00022226398
0.00018949064
0.00016065684
0.0001354455
0.0001135345
9.4604383e-05
7.8344532e-05
6.4457972e-05
5.2664973e-05
4.2705563e-05
3.4341049e-05
2.7354876e-05
2.1552372e-05
1.6761223e-05
1.2828012e-05
9.6239968e-06
7.0261266e-06
4.9591703e-06
3.2937809e-06
2.0689833e-06
1.032957e-06
5.721989e-07
1.7131944e-07
0.00057042455
0.00069266581
0.00080422625
0.00090347996
0.00098587974
0.0010499385
0.0010949246
0.0011207762
0.001128366
0.0011193219
0.001095684
0.0010597054
0.0010137348
0.00096008729
0.00090093272
0.00083822924
0.00077369393
0.00070879167
0.00064473738
0.00058250952
0.00052287034
0.00046638902
0.0004134657
0.00036435506
0.00031918871
0.00027799596
0.00024072274
0.00020724868
0.00017740233
0.00015097463
0.00012773067
0.00010741983
8.9784327e-05
7.4566369e-05
6.1513894e-05
5.0385085e-05
4.0951757e-05
3.3001695e-05
2.6340235e-05
2.0790768e-05
1.6195561e-05
1.2413517e-05
9.3245732e-06
6.8157317e-06
4.8121722e-06
3.2020912e-06
1.9990051e-06
1.0136612e-06
4.9282152e-07
1.2834221e-07
0.00032516489
0.0004163315
0.00050603739
0.00059185492
0.00066883992
0.00073443275
0.0007870003
0.00082554512
0.00084980205
0.00086021963
0.00085777834
0.00084381759
0.00081991227
0.00078775863
0.00074906897
0.00070549046
0.00065854895
0.0006096146
0.00055988336
0.00051037081
0.00046191547
0.0004151883
0.00037070611
0.00032884709
0.00028986742
0.00025391777
0.00022105942
0.00019127954
0.00016450533
0.00014061701
0.00011945953
0.00010085285
8.4601074e-05
7.050005e-05
5.834387e-05
4.7930075e-05
3.906377e-05
3.1560695e-05
2.5249454e-05
1.9972739e-05
1.5588518e-05
1.1968893e-05
9.0034285e-06
6.5894891e-06
4.65399e-06
3.1015277e-06
1.9239065e-06
9.8892849e-07
4.2413727e-07
1.0962359e-07
0.0001727514
0.00023284768
0.0002977044
0.00036463198
0.00042911252
0.00048825073
0.00053992313
0.00058253895
0.00061507617
0.00063711871
0.00064878212
0.00065059801
0.00064341236
0.00062829262
0.00060643681
0.00057909445
0.00054750309
0.00051283906
0.0004761834
0.00043850088
0.00040062888
0.00036327412
0.00032701518
0.00029230922
0.0002595014
0.00022883611
0.00020046891
0.00017447879
0.00015088029
0.00012963501
0.0001106625
9.3850191e-05
7.9062324e-05
6.614783e-05
5.4947095e-05
4.5297647e-05
3.7038802e-05
3.0015311e-05
2.4080148e-05
1.9096361e-05
1.4938631e-05
1.1493082e-05
8.6598432e-06
6.3469166e-06
4.4844209e-06
2.9919122e-06
1.844259e-06
9.5841223e-07
3.6650589e-07
1.074502e-07
9.2676047e-05
0.00012446662
0.00016465291
0.00021068146
0.00025884221
0.00030640449
0.00035115897
0.00039126628
0.00042529345
0.0004522749
0.00047170266
0.00048346829
0.00048779681
0.00048518077
0.00047631184
0.0004620131
0.00044317905
0.00042072469
0.00039554382
0.00036847783
0.00034029437
0.00031167376
0.00028320194
0.00025536854
0.00022856908
0.00020311008
0.00017921616
0.00015703841
0.00013666359
0.00011812342
0.00010140393
8.6454298e-05
7.3195213e-05
6.1526396e-05
5.1333352e-05
4.2493199e-05
3.4879599e-05
2.836679e-05
2.28328e-05
1.8161791e-05
1.4245975e-05
1.0986192e-05
8.2939972e-06
6.0882815e-06
4.3038533e-06
2.8736798e-06
1.7609412e-06
9.2241547e-07
3.1951562e-07
1.1370861e-07
6.6896694e-05
7.4608459e-05
9.2355482e-05
0.00011794448
0.00014857136
0.00018194039
0.00021605357
0.00024910984
0.00027955459
0.00030615438
0.00032802396
0.00034461193
0.0003556707
0.00036121963
0.00036150137
0.00035693318
0.00034805754
0.0003354966
0.00031991188
0.00030196972
0.00028231387
0.00026154524
0.00024020753
0.00021877825
0.00019766429
0.00017720102
0.00015765433
0.00013922476
0.00012205309
0.00010622695
9.1787934e-05
7.8738882e-05
6.7051035e-05
5.6670845e-05
4.7526269e-05
3.9532412e-05
3.2596463e-05
2.6621887e-05
2.1511881e-05
1.7172074e-05
1.3512719e-05
1.0449876e-05
7.9072317e-06
5.8147678e-06
4.1133702e-06
2.7479251e-06
1.6751089e-06
8.8186292e-07
2.8227013e-07
1.2164592e-07
8.0345179e-05
6.8703928e-05
6.7341482e-05
7.4503815e-05
8.823235e-05
0.00010676217
0.00012846991
0.00015178614
0.0001752481
0.00019757959
0.0002177359
0.00023491712
0.00024856607
0.00025835735
0.00026417721
0.00026609513
0.00026433036
0.00025921664
0.00025116817
0.00024064817
0.00022814082
0.00021412789
0.00019907034
0.00018339446
0.00016748219
0.00015166527
0.00013622249
0.0001213796
0.00010731124
9.414444e-05
8.1963179e-05
7.0813607e-05
6.070964e-05
5.1638593e-05
4.3566653e-05
3.6443997e-05
3.0209444e-05
2.4794549e-05
2.0127114e-05
1.6134053e-05
1.2743766e-05
9.8877514e-06
7.5023004e-06
5.5285997e-06
3.9147871e-06
2.6163455e-06
1.5880973e-06
8.3811393e-07
2.5356366e-07
1.2694536e-07
0.0001209147
9.4514744e-05
7.7759934e-05
6.9319223e-05
6.7943346e-05
7.2383245e-05
8.1440486e-05
9.3874109e-05
0.00010844486
0.00012399066
0.00013947648
0.00015402075
0.0001669107
0.00017761012
0.00018575833
0.00019115995
0.00019376762
0.00019365987
0.00019101682
0.00018609513
0.0001792039
0.00017068238
0.00016088053
0.00015014299
0.00013879626
0.00012713925
0.0001154368
0.00010391585
9.276403e-05
8.2129967e-05
7.2125201e-05
6.2827126e-05
5.4282692e-05
4.6512554e-05
3.95154e-05
3.3272232e-05
2.7750458e-05
2.2907633e-05
1.8694803e-05
1.5059358e-05
1.1947451e-05
9.3058642e-06
7.0836523e-06
5.2331761e-06
3.7106928e-06
2.481169e-06
1.5013486e-06
7.9274719e-07
2.3198602e-07
1.2787152e-07
0.00017917213
0.0001421209
0.00011360503
9.2652268e-05
7.8562311e-05
7.0528473e-05
6.7752137e-05
6.9340501e-05
7.4336003e-05
8.1780618e-05
9.0761758e-05
0.00010044127
0.00011007813
0.00011904682
0.00012684885
0.00013311637
0.00013760857
0.00014020232
0.00014087862
0.00013970617
0.0001368236
0.00013242134
0.00012672435
0.00011997629
0.00011242602
0.00010431622
9.5874607e-05
8.7307409e-05
7.8795095e-05
7.0490031e-05
6.2515799e-05
5.4967864e-05
4.7915283e-05
4.1403168e-05
3.5455636e-05
3.0079022e-05
2.5265147e-05
2.0994485e-05
1.7239123e-05
1.3965411e-05
1.1136284e-05
8.7132018e-06
6.6577557e-06
4.9332322e-06
3.5044984e-06
2.3450775e-06
1.4163555e-06
7.473423e-07
2.159835e-07
1.2462593e-07
0.00024795138
0.0002037142
0.00016670863
0.0001362432
0.00011201253
9.3557092e-05
8.0413308e-05
7.2005826e-05
6.7661724e-05
6.6660818e-05
6.8272803e-05
7.1782383e-05
7.651196e-05
8.1843299e-05
8.7235262e-05
9.2235776e-05
9.6487902e-05
9.9730629e-05
0.00010179507
0.00010259687
0.00010212575
0.00010043326
9.7619637e-05
9.3820667e-05
8.9195258e-05
8.3914249e-05
7.8150728e-05
7.2072137e-05
6.5834118e-05
5.9576139e-05
5.3418685e-05
4.7461887e-05
4.178532e-05
3.6448756e-05
3.149365e-05
2.6945108e-05
2.2814161e-05
1.9100171e-05
1.5793213e-05
1.2876344e-05
1.0327679e-05
8.1222382e-06
6.2334747e-06
4.6350661e-06
3.3005562e-06
2.21121e-06
1.3346981e-06
7.0336897e-07
2.0400121e-07
1.1838514e-07
0.00032192826
0.00027330265
0.0002305918
0.00019331237
0.00016142243
0.00013471534
0.00011298451
9.5915711e-05
8.3089025e-05
7.4015606e-05
6.8164796e-05
6.4982413e-05
6.3909146e-05
6.4400481e-05
6.5945344e-05
6.8081392e-05
7.0406363e-05
7.2585474e-05
7.4354911e-05
7.5521635e-05
7.5959915e-05
7.5605248e-05
7.4446375e-05
7.2516132e-05
6.9881791e-05
6.6635515e-05
6.2885407e-05
5.8747472e-05
5.4338775e-05
4.9771878e-05
4.5150613e-05
4.0567111e-05
3.6100007e-05
3.1813645e-05
2.7758125e-05
2.3970016e-05
2.0473539e-05
1.7282078e-05
1.4399855e-05
1.1823659e-05
9.5445387e-06
7.5494108e-06
5.822432e-06
4.3467873e-06
3.1043178e-06
2.0832287e-06
1.2581401e-06
6.6217122e-07
1.9469479e-07
1.104888e-07
0.00039723284
0.00034639513
0.00030024622
0.00025845187
0.00022113052
0.00018824704
0.00015977679
0.00013560308
0.00011551073
9.9211686e-05
8.6363028e-05
7.6578029e-05
6.9438649e-05
6.4510998e-05
6.1361478e-05
5.9571585e-05
5.8750723e-05
5.8546661e-05
5.8653348e-05
5.8815815e-05
5.8832198e-05
5.855309e-05
5.7878601e-05
5.6753629e-05
5.5161823e-05
5.3118778e-05
5.066495e-05
4.7858714e-05
4.4769884e-05
4.1473971e-05
3.8047309e-05
3.4563163e-05
3.1088786e-05
2.7683418e-05
2.439711e-05
2.1270263e-05
1.8333757e-05
1.5609521e-05
1.3111426e-05
1.0846374e-05
8.8154914e-06
7.0153836e-06
5.4392529e-06
4.0785192e-06
2.9224951e-06
1.9654372e-06
1.1887789e-06
6.250488e-07
1.871648e-07
1.0202084e-07
0.0004711197
0.00041970459
0.00037189416
0.0003274592
0.00028660327
0.00024939855
0.00021593864
0.00018624483
0.00016025489
0.00013784042
0.00011881768
0.0001029526
8.9967546e-05
7.9551553e-05
7.1372335e-05
6.5088341e-05
6.0360334e-05
5.6862063e-05
5.4289616e-05
5.2368963e-05
5.0861427e-05
4.9566988e-05
4.8325476e-05
4.7015857e-05
4.5553885e-05
4.3888483e-05
4.1997223e-05
3.9881298e-05
3.7560329e-05
3.5067309e-05
3.2443924e-05
2.9736424e-05
2.6992148e-05
2.4256767e-05
2.1572226e-05
1.8975351e-05
1.649705e-05
1.416202e-05
1.1988846e-05
9.990424e-06
8.1745906e-06
6.5449265e-06
5.1015488e-06
3.8424386e-06
2.7631278e-06
1.8628674e-06
1.1291661e-06
5.9336297e-07
1.8108518e-07
9.3726478e-08
0.00054169934
0.00049088854
0.00044275735
0.00039715053
0.00035430531
0.00031435398
0.00027745881
0.00024372915
0.00021320836
0.00018588537
0.00016170057
0.00014054643
0.00012226971
0.00010667695
9.3542098e-05
8.2614961e-05
7.3630067e-05
6.6315709e-05
6.0402745e-05
5.5632646e-05
5.1764415e-05
4.8580092e-05
4.58887e-05
4.3528574e-05
4.1368137e-05
3.9305285e-05
3.7265584e-05
3.5199545e-05
3.3079286e-05
3.0894824e-05
2.8650275e-05
2.636017e-05
2.4046057e-05
2.1733515e-05
1.9449649e-05
1.7221107e-05
1.5072596e-05
1.3025882e-05
1.1099204e-05
9.307058e-06
7.6602541e-06
6.1662401e-06
4.8295077e-06
3.6525485e-06
2.6354799e-06
1.7812717e-06
1.0823518e-06
5.6861925e-07
1.7667766e-07
8.6082572e-08
0.00060772484
0.00055833214
0.00051085031
0.00046517717
0.00042155075
0.00038013095
0.00034111274
0.00030465503
0.0002708676
0.00023981887
0.00021153865
0.00018601617
0.00016319903
0.00014299512
0.00012527652
0.00010988433
9.6634473e-05
8.5324243e-05
7.5739278e-05
6.7660627e-05
6.087151e-05
5.5163429e-05
5.0341402e-05
4.62281e-05
4.2666802e-05
3.9523132e-05
3.6685634e-05
3.4065315e-05
3.1594305e-05
2.9223862e-05
2.6921903e-05
2.4670292e-05
2.246205e-05
2.0298657e-05
1.8187565e-05
1.614001e-05
1.416918e-05
1.2288746e-05
1.0511773e-05
8.8499685e-06
7.3132429e-06
5.9095628e-06
4.6449591e-06
3.5240802e-06
2.5496808e-06
1.7269466e-06
1.0517963e-06
5.5247604e-07
1.7454909e-07
7.9378538e-08
0.00066842483
0.00062097135
0.0005748031
0.00052985741
0.00048635384
0.00044445887
0.00040437584
0.00036628551
0.00033033414
0.00029663882
0.00026528849
0.00023634055
0.00020981817
0.00018570967
0.00016396963
0.00014452088
0.00012725747
0.00011204855
9.8743106e-05
8.717525e-05
7.7169753e-05
6.8547588e-05
6.1131208e-05
5.4749291e-05
4.9240808e-05
4.4458228e-05
4.0269815e-05
3.6561005e-05
3.3234893e-05
3.021194e-05
2.7429028e-05
2.4838004e-05
2.2403884e-05
2.0102855e-05
1.7920222e-05
1.584842e-05
1.3885167e-05
1.2031848e-05
1.0292141e-05
8.6709284e-06
7.1734741e-06
5.8048911e-06
4.5697864e-06
3.4724253e-06
2.5160395e-06
1.7063357e-06
1.0411306e-06
5.4666079e-07
1.7547845e-07
7.3770627e-08
0.00072337189
0.00067814979
0.00063371247
0.0005900283
0.00054728844
0.0005056535
0.00046531991
0.00042647173
0.00038927035
0.00035385827
0.00032035923
0.00028887447
0.00025947926
0.00023222093
0.00020711813
0.00018416083
0.00016331104
0.00014450444
0.000127653
0.00011264815
9.9364755e-05
8.7665307e-05
7.7404421e-05
6.8433239e-05
6.0603649e-05
5.3772059e-05
4.7802634e-05
4.2569862e-05
3.7960423e-05
3.3874321e-05
3.022536e-05
2.6941001e-05
2.3961719e-05
2.123997e-05
1.8738877e-05
1.6430771e-05
1.4295672e-05
1.2319811e-05
1.0494258e-05
8.8137082e-06
7.2754654e-06
5.8786455e-06
4.6235496e-06
3.5114989e-06
2.5439631e-06
1.7253627e-06
1.0537464e-06
5.5278662e-07
1.8021949e-07
6.9321056e-08
0.00077238025
0.00072950474
0.00068701978
0.00064491966
0.00060336333
0.0005624989
0.0005225074
0.00048356476
0.00044583338
0.00040946482
0.00037459957
0.00034136354
0.00030986449
0.00028018952
0.00025240332
0.00022654689
0.00020263681
0.00018066523
0.00016060056
0.00014238902
0.00012595677
0.00011121262
9.8051291e-05
8.635686e-05
7.6006439e-05
6.687377e-05
5.883266e-05
5.1760062e-05
4.5538731e-05
4.0059346e-05
3.5222085e-05
3.0937621e-05
2.71276e-05
2.3724636e-05
2.0671905e-05
1.7922428e-05
1.5438134e-05
1.3188795e-05
1.1150904e-05
9.3065885e-06
7.6425842e-06
6.1493612e-06
4.8203454e-06
3.6515298e-06
2.640464e-06
1.7884844e-06
1.0922228e-06
5.7207504e-07
1.8934227e-07
6.6029402e-08
0.00081541862
0.00077486907
0.00073440391
0.00069404036
0.00065390506
0.00061413102
0.00057488
0.00053631368
0.00049858693
0.00046184978
0.00042624707
0.00039191542
0.00035897999
0.00032755192
0.00029772621
0.00026957977
0.00024316987
0.00021853302
0.00019568442
0.00017461806
0.00015530741
0.00013770669
0.00012175272
0.00010736728
9.4459754e-05
8.2930071e-05
7.2671779e-05
6.3575038e-05
5.5529504e-05
4.8426917e-05
4.2163354e-05
3.6641049e-05
3.1769782e-05
2.7467802e-05
2.3662325e-05
2.0289657e-05
1.7294974e-05
1.4631861e-05
1.2261656e-05
1.0152691e-05
8.279477e-06
6.6219173e-06
5.1645406e-06
3.8960127e-06
2.8080781e-06
1.8973494e-06
1.157524e-06
6.0495597e-07
2.0307937e-07
6.3849723e-08
0.00085255146
0.00081420351
0.0007757054
0.00073709589
0.00069847119
0.00065994899
0.0006216711
0.00058378248
0.00054642616
0.00050974454
0.00047387899
0.00043896752
0.00040514197
0.00037252573
0.00034123155
0.00031135947
0.00028299485
0.00025620665
0.00023104615
0.00020754602
0.00018571996
0.00016556275
0.00014705092
0.00013014387
0.00011478553
0.00010090631
8.8425469e-05
7.7253627e-05
6.7295403e-05
5.8452015e-05
5.062378e-05
4.3712373e-05
3.7622821e-05
3.2265135e-05
2.7555591e-05
2.3417624e-05
1.9782377e-05
1.6588916e-05
1.3784178e-05
1.1322697e-05
9.1661633e-06
7.2829002e-06
5.6472511e-06
4.2391472e-06
3.0430852e-06
2.0496446e-06
1.2483195e-06
6.5073903e-07
2.2123505e-07
6.2701521e-08
0.00088385295
0.00084750058
0.00081082113
0.0007738742
0.00073672851
0.00069948781
0.00066227521
0.00062521903
0.00058844897
0.00055209699
0.00051629685
0.0004811824
0.00044688523
0.00041353288
0.00038124672
0.00035014002
0.00032031587
0.00029186531
0.00026486553
0.00023937851
0.00021544979
0.00019310776
0.00017236333
0.00015321009
0.00013562489
0.00011956891