/*--------------------------------*- C++ -*----------------------------------*\
  =========                 |
  \\      /  F ield         | OpenFOAM: The Open Source CFD Toolbox
   \\    /   O peration     | Website:  https://openfoam.org
    \\  /    A nd           | Version:  6
     \\/     M anipulation  |
\*---------------------------------------------------------------------------*/
FoamFile
{
    version     2.0;
    format      ascii;
    class       surfaceScalarField;
    location    "47";
    object      phi;
}
// * * * * * * * * * * * * * * * * * * * * * * * * * * * * * * * * * * * * * //

dimensions      [0 3 -1 0 0 0 0];

internalField   nonuniform List<scalar> 
18180
(
0.00032020235
-0.00016607208
-0.00015413021
0.0013151101
-0.0013788503
0.0003839426
0.0030463395
-0.0033578079
0.0016265787
0.005574083
-0.0060154878
0.0034877443
0.0089568183
-0.0092969428
0.0059142075
0.013249285
-0.013158609
0.0088661424
0.018499787
-0.017562862
0.01231236
0.024747184
-0.022475268
0.016227871
0.032017706
-0.027861437
0.020590914
0.04032185
-0.033684393
0.025380249
0.049651673
-0.03990282
0.030572997
0.059978866
-0.046470144
0.03614295
0.071254006
-0.053334461
0.042059322
0.083407445
-0.060439326
0.048285886
0.096352458
-0.067725488
0.054780475
0.10999115
-0.075133705
0.061495016
0.12422255
-0.082608442
0.068377037
0.13895794
-0.090102205
0.075366819
0.15419439
-0.097597423
0.082360976
-0.10509161
0.089157252
0.17012874
0.00039917363
-0.00056524567
0.0016162267
-0.0025959033
0.0037042794
-0.0054458606
0.0067141826
-0.0090253909
0.010692624
-0.013275384
0.015678424
-0.018144409
0.02169848
-0.023582918
0.028763769
-0.029540557
0.036865691
-0.035963358
0.045973159
-0.042791861
0.056030879
-0.049960539
0.066959174
-0.057398438
0.078655596
-0.065030883
0.090998413
-0.072782143
0.10385175
-0.080578827
0.11707179
-0.088353741
0.13051303
-0.096049679
0.14403514
-0.10362432
0.15750194
-0.11106423
-0.11830034
0.17071067
0.00048249353
-0.0010477392
0.0019259781
-0.0040393879
0.0043686861
-0.0078885685
0.0078451433
-0.012501848
0.012381878
-0.017812119
0.017991967
-0.023754497
0.024669916
-0.030260866
0.032387364
-0.037258006
0.041090059
-0.044666053
0.050696577
-0.052398379
0.061099192
-0.060363155
0.072167031
-0.068466277
0.083751403
-0.076615255
0.095692876
-0.084723616
0.10782935
-0.092715302
0.12000405
-0.10052844
0.13207226
-0.10811789
0.14390475
-0.1154568
0.15538019
-0.12253967
-0.12931719
0.16639704
0.00056821048
-0.0016159496
0.0022357389
-0.0057069163
0.0050176989
-0.010670528
0.0089236638
-0.016407813
0.013950335
-0.02283879
0.020074621
-0.029878784
0.027248283
-0.037434528
0.035394597
-0.04540432
0.044407506
-0.053678962
0.054153631
-0.062144504
0.06447716
-0.070686683
0.07520729
-0.079196407
0.086167508
-0.087575473
0.097185703
-0.095741811
0.10810396
-0.10363356
0.11878689
-0.11121137
0.12912762
-0.11845862
0.13905036
-0.12537955
0.1485072
-0.1319965
-0.13830962
0.15749962
0.0006530577
-0.0022690073
0.0025324668
-0.0075863253
0.0056211247
-0.013759186
0.0098942501
-0.020680938
0.015308953
-0.028253493
0.021796682
-0.036366513
0.029258961
-0.044896807
0.037566596
-0.053711954
0.046562601
-0.062674968
0.0560687
-0.071650603
0.065894772
-0.080512755
0.075850159
-0.089151794
0.085755474
-0.097480787
0.095453438
-0.10543977
0.10481749
-0.11299761
0.11375727
-0.12015116
0.12222069
-0.12692203
0.13019258
-0.13335145
0.13769023
-0.13949416
-0.14539465
0.14477526
0.00073288176
-0.003001889
0.0028003017
-0.0096537451
0.0061438993
-0.017102784
0.010695572
-0.025232611
0.016364556
-0.033922478
0.023030595
-0.043032552
0.030542361
-0.052408572
0.038720716
-0.061890309
0.047366427
-0.071320679
0.056271346
-0.080555522
0.06523154
-0.089472949
0.074060561
-0.097980815
0.082601028
-0.10602125
0.090733099
-0.11357185
0.098378883
-0.12064339
0.10550265
-0.12727492
0.11210732
-0.13352671
0.11822833
-0.13947245
0.12392596
-0.14519179
-0.15075634
0.12928766
0.00080298304
-0.003804872
0.0030219491
-0.011872711
0.0065494382
-0.020630273
0.011266899
-0.029950071
0.017030521
-0.0396861
0.023666759
-0.04966879
0.030974913
-0.059716726
0.038735346
-0.069650742
0.046721928
-0.079307261
0.05471675
-0.088550343
0.062524743
-0.097280943
0.069985988
-0.10544206
0.076984018
-0.11301928
0.083449193
-0.12003702
0.089357164
-0.12655136
0.094723191
-0.13264095
0.099593722
-0.13839724
0.10403686
-0.14391559
0.10813328
-0.14928821
-0.1545965
0.11197343
0.00085823958
-0.0046631115
0.0031796228
-0.014194094
0.0068023723
-0.024253022
0.011553613
-0.034701312
0.017235734
-0.045368221
0.02362585
-0.056058906
0.030483445
-0.066574321
0.03756339
-0.076730686
0.044631854
-0.086375726
0.051482238
-0.095400727
0.057948329
-0.10374703
0.063912689
-0.11140642
0.069309267
-0.11841586
0.074120403
-0.12484816
0.07836932
-0.13080028
0.082109809
-0.13638143
0.085415037
-0.14170247
0.088367201
-0.14686775
0.091049315
-0.15197032
-0.15708847
0.093541292
0.00089228813
-0.0055553996
0.0032550874
-0.016556894
0.0068708024
-0.027868737
0.011512368
-0.039342878
0.016932475
-0.050788328
0.022868103
-0.061994533
0.02905313
-0.072759349
0.035234925
-0.082912481
0.041191426
-0.092332228
0.046745398
-0.1009547
0.051773284
-0.10877492
0.056207496
-0.11584063
0.06003237
-0.12224074
0.063275147
-0.12809093
0.065994042
-0.13351917
0.068265618
-0.13865301
0.070173361
-0.14361021
0.071798824
-0.14849321
0.073215909
-0.15338741
-0.15836061
0.074488044
0.00090161296
-0.0064570125
0.0032391845
-0.018894465
0.0067399275
-0.03136948
0.011126542
-0.043729492
0.01611082
-0.055772606
0.021403184
-0.067286897
0.026729117
-0.078085282
0.031847045
-0.088030408
0.036563737
-0.097048921
0.040744055
-0.10513502
0.044313456
-0.11234432
0.047253399
-0.11878058
0.049591195
-0.12457853
0.051386714
-0.12988645
0.052718419
-0.13485088
0.0536709
-0.13960549
0.054325288
-0.1442646
0.054753172
-0.1489211
0.05501382
-0.15364806
0.055153128
-0.15849992
-0.00020327119
0.00020327125
-9.666349e-12
-0.00068060571
0.0004773346
-2.7168851e-11
-0.0013478884
0.00066728281
-3.7633956e-11
-0.0021406771
0.00079278879
-4.4771592e-11
-0.0030071382
0.00086646118
-4.3539991e-11
-0.003904937
0.00089779898
-4.2136419e-11
-0.0047989889
0.00089405194
-3.2193397e-11
-0.0056595769
0.00086058815
-2.4982624e-11
-0.0064608721
0.00080129522
-8.4403695e-12
-0.0071797739
0.00071890191
3.0168011e-12
-0.0077949858
0.00061521193
2.5333997e-11
-0.0082862735
0.00049128779
4.0615536e-11
-0.0086338804
0.00034760695
6.7617261e-11
-0.0088180889
0.00018420846
8.4832217e-11
-0.0088189605
8.7157047e-07
1.1456415e-10
-0.0086163579
-0.00020260265
1.3067372e-10
-0.0081902087
-0.00042614917
1.5785314e-10
-0.0075200973
-0.00067011155
1.6971294e-10
-0.006584851
-0.0009352464
1.9425031e-10
-0.0012078903
-0.0053769609
2.1189292e-10
-0.00018875991
0.00039203119
-0.00062749
0.00091606474
-0.0012334256
0.0012732185
-0.0019422281
0.0015015914
-0.0027014417
0.0016256749
-0.0034675344
0.0016638917
-0.0042037368
0.0016302544
-0.0048782205
0.001535072
-0.0054626512
0.001385726
-0.0059310452
0.0011872959
-0.0062588474
0.00094301417
-0.0064221835
0.00065462399
-0.0063972498
0.00032267333
-0.0061598283
-5.3213026e-05
-0.0056849566
-0.00047400008
-0.0049468444
-0.00094071471
-0.0039190873
-0.0014539062
-0.0025745879
-0.0020146109
-0.00088540067
-0.0026244335
-0.00325345
0.0011601591
-0.00015950837
0.0005515396
-0.00052065626
0.0012772127
-0.0010039349
0.0017564972
-0.0015457232
0.0020433797
-0.0020927329
0.0021726845
-0.0025994012
0.0021705601
-0.0030259346
0.0020567878
-0.0033366302
0.0018457676
-0.0034985217
0.0015476176
-0.0034802958
0.0011690701
-0.0032514026
0.00071412096
-0.0027813291
0.00018455062
-0.0020389616
-0.00041969414
-0.00099206745
-0.0011001071
0.00039313808
-0.0018592056
0.0021522757
-0.0026998523
0.0043227682
-0.0036243987
0.0069435289
-0.0046353716
0.010054887
-0.005735792
-0.0068753036
0.013676741
-0.000117875
0.00066941464
-0.0003678002
0.0015271379
-0.00067464733
0.0020633443
-0.00097581787
0.0023445503
-0.0012169363
0.002413803
-0.0013497089
0.0023033328
-0.0013302573
0.0020373362
-0.0011176546
0.001633165
-0.00067272312
0.0011026861
4.2924625e-05
0.00045342238
0.0010676743
-0.00031062867
0.0024405596
-0.0011883346
0.0042018087
-0.0021809433
0.0063933279
-0.0032916263
0.0090592089
-0.0045250865
0.012246289
-0.005886932
0.016004529
-0.0073826385
0.020386714
-0.0090175575
0.025448242
-0.01079732
-0.012647272
0.031220211
-6.6911368e-05
0.00073632605
-0.00017887671
0.0016391033
-0.00026534691
0.0021498146
-0.00026469831
0.0023439018
-0.00012117607
0.0022702808
0.00021674816
0.0019654086
0.00079771002
0.0014563744
0.0016686267
0.00076224837
0.0028756716
-0.00010435876
0.0044650617
-0.0011359677
0.0064836216
-0.0023291885
0.0089791982
-0.0036839112
0.012000984
-0.0052027293
0.015599842
-0.0068904841
0.01982867
-0.0087539141
0.024743013
-0.010801275
0.030401941
-0.013041566
0.036868559
-0.015484176
0.044210786
-0.018139546
-0.020908078
0.052471591
-9.6846124e-06
0.0007460107
3.5936014e-05
0.0015934827
0.00020346568
0.001982285
0.00055388746
0.00199348
0.0011446058
0.0016795626
0.002030607
0.0010794075
0.0032654246
0.00022155674
0.0049020237
-0.00087435064
0.006993456
-0.002195791
0.009593231
-0.0037357426
0.012755521
-0.0054914782
0.016535257
-0.0074636469
0.020988044
-0.0096555169
0.026169988
-0.012072427
0.03213757
-0.014721497
0.038947932
-0.017611637
0.046660029
-0.020753663
0.055336691
-0.024160838
0.065048469
-0.027851325
-0.031706599
0.07584699
5.1332483e-05
0.00069467825
0.00026811184
0.0013767034
0.00071412124
0.0015362756
0.0014501393
0.0012574621
0.0025353199
0.000594382
0.0040279504
-0.00041322295
0.0059860432
-0.001736536
0.0084677172
-0.0033560246
0.011531321
-0.0052593948
0.015235394
-0.0074398153
0.019638383
-0.0098944675
0.024798102
-0.012623365
0.030770971
-0.015628386
0.037611101
-0.018912557
0.045369322
-0.022479718
0.054092608
-0.026334923
0.063824844
-0.030485899
0.074610187
-0.03494618
0.086502009
-0.039743147
-0.044760147
0.099555557
0.00011462704
0.00058005125
0.00051191399
0.00097941653
0.0012539535
0.00079423615
0.0024015665
0.00010984912
0.0040154127
-0.0010194642
0.0061563244
-0.0025541346
0.0088852751
-0.0044654867
0.012263191
-0.0067339401
0.016350529
-0.0093467326
0.021206512
-0.012295799
0.026888073
-0.015576028
0.033448495
-0.019183788
0.040935805
-0.023115696
0.049390933
-0.027367685
0.058845787
-0.031934573
0.069321598
-0.036810734
0.080828697
-0.041992998
0.093369593
-0.047487076
0.10695041
-0.053323969
-0.059423737
0.121614
0.00017954582
0.00040050548
0.00076429474
0.00039466766
0.0018151998
-0.00025666885
0.0033928068
-0.0014677579
0.0055582335
-0.0031848908
0.0083728962
-0.0053687972
0.011897866
-0.0079904569
0.016192926
-0.011029
0.021315261
-0.014469067
0.02731781
-0.018298348
0.034247309
-0.022505526
0.042142056
-0.027078535
0.051029463
-0.032003103
0.060923391
-0.037261612
0.071821289
-0.04283247
0.083701187
-0.048690632
0.096519492
-0.054811303
0.11021232
-0.061179908
0.12470893
-0.067820573
-0.07473824
0.14002343
0.00024637529
0.0010249856
0.0023948954
0.004414882
0.0071441986
0.010641544
0.014963447
0.020162318
0.026284166
0.033366067
0.041433537
0.050497952
0.060554171
0.071578445
0.08352645
0.096330834
0.10989657
0.12408348
0.13862388
0.15304289
-0.0034101602
-0.001966801
3.2129351e-10
-0.0011583737
-0.0022517868
3.4194449e-10
0.0013563236
-0.0025146977
3.4749287e-10
0.0040768526
-0.0027205294
3.3609668e-10
0.0069764937
-0.0028996414
2.952422e-10
0.010038137
-0.0030616432
2.1097098e-10
0.013243009
-0.0032048728
9.5186359e-11
0.016573235
-0.0033302255
-6.710641e-11
0.020013273
-0.003440038
-2.828845e-10
0.023549081
-0.003535807
-5.5631171e-10
0.027167556
-0.0036184745
-8.7507307e-10
0.030856472
-0.0036889148
-1.2310485e-09
0.034604401
-0.0037479278
-1.5951639e-09
0.038400585
-0.0037961817
-1.9435675e-09
0.042234834
-0.003834247
-2.2317228e-09
0.04609747
-0.0038626332
-2.4219476e-09
0.049979279
-0.0038818069
-2.4565264e-09
0.053871487
-0.0038922057
-2.2881291e-09
0.057765742
-0.0038942534
-1.8534252e-09
0.061654116
-0.0038883723
-1.1069992e-09
0.065529109
-0.0038749927
5.4469844e-12
0.069383667
-0.00385456
1.5078742e-09
0.073211203
-0.0038275398
3.4226938e-09
0.077005619
-0.0037944214
5.7240064e-09
0.08076133
-0.0037557189
8.3722175e-09
0.08447329
-0.0037119721
1.1258856e-08
0.088137022
-0.0036637461
1.4252634e-08
0.091748636
-0.0036116307
1.7136566e-08
0.095304856
-0.0035562399
1.9674195e-08
0.098803046
-0.0034982115
2.1542354e-08
0.10224123
-0.0034382091
2.2428508e-08
0.10561813
-0.0033769228
2.1962385e-08
0.10893319
-0.0033150745
1.9857026e-08
0.1121866
-0.0032534235
1.5837653e-08
0.11537936
-0.003192775
9.8325858e-09
0.11851335
-0.0031339915
1.8803111e-09
0.12159136
-0.0030780059
-7.6367138e-09
0.12461722
-0.003025837
-1.8159771e-08
0.12759586
-0.0029786121
-2.8691928e-08
0.13053347
-0.0029375683
-3.8122428e-08
0.13343765
-0.0029041411
-4.4984772e-08
0.13631747
-0.0028797739
-4.7925499e-08
0.13918422
-0.0028667005
-4.5687064e-08
0.14204992
-0.0028656634
-3.7584615e-08
0.14493372
-0.0028837712
-2.3500577e-08
0.1478444
-0.0029106833
-4.2714401e-09
0.15084033
-0.0029959506
1.8628352e-08
0.15385754
-0.0030172463
4.168915e-08
0.15723991
-0.0033824311
6.5758807e-08
-0.0031839599
7.9756212e-08
0.0030080952
-0.0038147372
0.0051361147
-0.0043798064
0.0075137333
-0.0048923164
0.010078315
-0.0052851112
0.01280888
-0.0056302069
0.015693325
-0.0059460881
0.018715083
-0.0062266305
0.021857897
-0.0064730401
0.025107919
-0.0066900591
0.028452568
-0.0068804565
0.031879907
-0.0070458135
0.03537866
-0.0071876678
0.038938193
-0.0073074612
0.042548406
-0.0074063941
0.046199649
-0.0074854904
0.04988269
-0.0075456737
0.053588683
-0.0075877998
0.057309158
-0.007612681
0.061036018
-0.0076211132
0.064761544
-0.007613899
0.068478415
-0.007591864
0.072179726
-0.0075558702
0.07585901
-0.0075068246
0.079510273
-0.0074456841
0.083128013
-0.0073734589
0.086707253
-0.0072912118
0.090243565
-0.0072000581
0.093733098
-0.0071011636
0.097172601
-0.0069957437
0.10055945
-0.0068850625
0.10389168
-0.0067704356
0.10716799
-0.0066532332
0.1103878
-0.006534889
0.11355129
-0.0064169121
0.11665942
-0.0063009034
0.11971401
-0.0061885785
0.1227178
-0.0060817946
0.12567454
-0.0059825792
0.1285891
-0.0058931779
0.13146759
-0.0058160539
0.13431752
-0.0057540699
0.13714785
-0.005710101
0.13996975
-0.0056886081
0.14279515
-0.0056910617
0.14564305
-0.0057316678
0.14852214
-0.0057897742
0.15149033
-0.0059641425
0.15448432
-0.0060112403
0.15784307
-0.006741173
-0.0063550843
0.015277219
-0.0054152155
0.01714048
-0.0062430677
0.019229631
-0.0069814668
0.021474598
-0.0075300781
0.023863858
-0.0080194676
0.026394008
-0.0084762377
0.029052621
-0.0088852435
0.031826379
-0.0092467984
0.034704362
-0.0095680423
0.037676538
-0.0098526326
0.040732993
-0.010102269
0.043864086
-0.01031876
0.047060527
-0.010503902
0.050313318
-0.010659185
0.053613711
-0.010785883
0.056953204
-0.010885168
0.060323553
-0.010958149
0.063716779
-0.011005907
0.06712519
-0.011029524
0.070541404
-0.011030113
0.073958377
-0.011008838
0.077369439
-0.010966932
0.080768318
-0.010905704
0.084149179
-0.010826546
0.087506656
-0.010730935
0.090835877
-0.010620433
0.094132501
-0.010496682
0.097392739
-0.010361402
0.10061339
-0.01021639
0.10379184
-0.01006352
0.10692615
-0.0099047402
0.110015
-0.0097420851
0.11305779
-0.0095776844
0.11605466
-0.0094137814
0.11900652
-0.0092527586
0.12191511
-0.0090971696
0.1247831
-0.0089497817
0.12761414
-0.0088136172
0.13041298
-0.0086920257
0.13318561
-0.0085886831
0.13593941
-0.0085078652
0.13868317
-0.0084538666
0.14142792
-0.0084333576
0.1441854
-0.0084485427
0.14697436
-0.0085206238
0.14980351
-0.0086189214
0.15272948
-0.0088901197
0.1556917
-0.0089734576
0.15901618
-0.010065653
-0.0095169453
0.032434382
-0.0066293863
0.0338828
-0.0076914854
0.035524348
-0.0086230148
0.037286091
-0.0092918219
0.039168882
-0.0099022584
0.041179267
-0.010486623
0.043310287
-0.011016263
0.045552599
-0.011489111
0.047898823
-0.011914266
0.050341942
-0.012295751
0.052874469
-0.012634796
0.055488681
-0.012932973
0.058176817
-0.013192038
0.060931103
-0.013413471
0.063743769
-0.01359855
0.066607092
-0.013748491
0.069513445
-0.013864502
0.072455344
-0.013947805
0.075425492
-0.013999673
0.07841683
-0.01402145
0.081422575
-0.014014583
0.084436269
-0.013980625
0.087451816
-0.013921251
0.090463525
-0.013838255
0.093466145
-0.013733556
0.0964549
-0.013609188
0.099425519
-0.013467301
0.10237427
-0.013310153
0.10529798
-0.013140102
0.10819408
-0.012959615
0.11106059
-0.012771257
0.11389622
-0.012577712
0.11670032
-0.012381789
0.11947299
-0.012186452
0.12221508
-0.011994848
0.12492827
-0.011810354
0.12761512
-0.011636632
0.13027918
-0.011477683
0.1329251
-0.011337944
0.13555871
-0.011222287
0.13818722
-0.011136384
0.14081929
-0.011085932
0.14346572
-0.011079785
0.14613807
-0.011120898
0.14885474
-0.011237293
0.15162457
-0.011388753
0.15450223
-0.011767779
0.15743159
-0.011902817
0.16071885
-0.01335291
-0.012678761
0.053143409
-0.0073012035
0.054017318
-0.0085653948
0.055046892
-0.0096525886
0.056166755
-0.010411685
0.057391984
-0.011127488
0.058737095
-0.011831734
0.060200812
-0.012479979
0.061778476
-0.013066776
0.063466089
-0.013601879
0.065259272
-0.014088934
0.067152736
-0.014528259
0.069140455
-0.014920692
0.071215923
-0.015267506
0.073372316
-0.015569864
0.075602587
-0.01582882
0.077899549
-0.016045454
0.080255971
-0.016220923
0.082664655
-0.016356489
0.085118514
-0.016453532
0.087610639
-0.016513576
0.090134358
-0.016538301
0.092683289
-0.016529557
0.095251395
-0.016489357
0.097833024
-0.016419884
0.10042296
-0.016323488
0.10301643
-0.016202665
0.1056092
-0.016060066
0.10819752
-0.015898475
0.11077823
-0.015720812
0.11334874
-0.015530123
0.11590707
-0.01532959
0.11845189
-0.015122533
0.12098254
-0.014912437
0.12349906
-0.014702973
0.12600226
-0.014498047
0.12849376
-0.014301848
0.13097604
-0.014118918
0.13345258
-0.013954224
0.13592791
-0.013813275
0.13840775
-0.013702123
0.14089918
-0.013627815
0.14341069
-0.013597438
0.14595289
-0.013621988
0.14853718
-0.013705192
0.15118155
-0.013881659
0.15389507
-0.014102273
0.15672987
-0.014602577
0.1596357
-0.014808647
0.16289339
-0.016610601
-0.015857691
0.075806176
-0.0072603896
0.075942973
-0.0087021919
0.07620082
-0.0099104355
0.076536742
-0.010747606
0.076979121
-0.011569867
0.07754499
-0.012397603
0.078237581
-0.013172571
0.079057057
-0.013886251
0.080001952
-0.014546774
0.081069339
-0.015156321
0.082255209
-0.015714129
0.083554515
-0.016219997
0.084961333
-0.016674325
0.086469164
-0.017077695
0.08807113
-0.017430787
0.089760108
-0.017734431
0.091528836
-0.017989652
0.093370032
-0.018197686
0.095276493
-0.018359993
0.09724117
-0.018478253
0.099257249
-0.01855438
0.1013182
-0.018590511
0.10341786
-0.018589014
0.10555044
-0.018552468
0.10771062
-0.018483663
0.10989353
-0.018385575
0.11209483
-0.018261366
0.11431072
-0.018114362
0.11653796
-0.017948051
0.11877391
-0.017766075
0.12101655
-0.017572234
0.12326452
-0.017370498
0.12551711
-0.017165029
0.12777435
-0.016960211
0.13003701
-0.016760707
0.13230668
-0.016571516
0.13458582
-0.016398058
0.13687785
-0.016246257
0.13918725
-0.016122682
0.14151969
-0.016034554
0.14388214
-0.015990275
0.14628301
-0.015998299
0.14873274
-0.016071727
0.15124263
-0.016215076
0.15383022
-0.016469253
0.15650492
-0.016776971
0.1593159
-0.017413557
0.16221982
-0.017712561
0.16546813
-0.019858919
-0.019080245
0.098655346
-0.0063601786
0.097916705
-0.0079635506
0.097270581
-0.0092643105
0.096718348
-0.010195373
0.096296477
-0.011147996
0.096016352
-0.012117478
0.095883516
-0.013039735
0.095902205
-0.01390494
0.096072186
-0.014716755
0.096390416
-0.015474552
0.096852767
-0.01617648
0.097454072
-0.016821302
0.098188106
-0.017408359
0.09904791
-0.017937499
0.1000261
-0.018408974
0.10111502
-0.01882335
0.10230688
-0.019181519
0.1035939
-0.019484707
0.10496838
-0.019734472
0.10642281
-0.019932683
0.10794995
-0.020081516
0.10954288
-0.020183443
0.11119508
-0.020241218
0.11290048
-0.020257859
0.11465344
-0.020236632
0.1164489
-0.020181036
0.11828231
-0.020094774
0.1201497
-0.019981753
0.12204772
-0.019846062
0.1239736
-0.019691963
0.12592528
-0.019523909
0.12790132
-0.019346538
0.129901
-0.019164709
0.13192433
-0.018983541
0.13397209
-0.018808466
0.13604588
-0.018645305
0.13814818
-0.018500358
0.14028243
-0.01838051
0.14245314
-0.018293389
0.14466595
-0.01824737
0.14692788
-0.018252199
0.14924726
-0.01831768
0.15163449
-0.018458964
0.15410078
-0.018681364
0.15666331
-0.019031785
0.15933183
-0.019445491
0.16215233
-0.020234054
0.16508894
-0.020649168
0.16836136
-0.023131335
-0.022382778
0.11981232
-0.0045584938
0.11814386
-0.0062950947
0.11653037
-0.0076508148
0.11505598
-0.0087209792
0.1137571
-0.0098491168
0.11263139
-0.010991772
0.1116845
-0.012092839
0.1109229
-0.013143341
0.11034623
-0.014140088
0.10995013
-0.01507845
0.10972901
-0.015955359
0.10967644
-0.016768736
0.10978509
-0.017517004
0.1100469
-0.018199313
0.11045345
-0.01881552
0.1109961
-0.019366
0.11166617
-0.019851588
0.11245503
-0.020273569
0.11335422
-0.020633664
0.11435553
-0.020933996
0.11545109
-0.021177071
0.1166334
-0.021365755
0.11789543
-0.021503252
0.11923065
-0.021593076
0.12063305
-0.021639033
0.12209721
-0.021645192
0.1236183
-0.021615863
0.12519212
-0.021555577
0.12681513
-0.021469071
0.12848445
-0.021361285
0.13019789
-0.021237353
0.13195399
-0.02110263
0.13375199
-0.02096271
0.13559192
-0.020823473
0.1374746
-0.02069115
0.1394017
-0.020572404
0.14137578
-0.020474438
0.14340038
-0.020405105
0.14548009
-0.020373097
0.14762066
-0.020387944
0.14982918
-0.020460722
0.15211406
-0.020602559
0.15448572
-0.020830618
0.15695533
-0.021150981
0.15953979
-0.021616245
0.16224919
-0.022154886
0.16512622
-0.023111087
0.16814268
-0.023665633
0.17148542
-0.026474075
-0.025811036
0.13746115
-0.0019962068
0.13496221
-0.0037961542
0.13242541
-0.0051140169
0.13009238
-0.0063879528
0.12799022
-0.0077469548
0.12610047
-0.0091020219
0.12442614
-0.01041851
0.12297248
-0.011689685
0.12173815
-0.012905751
0.12071758
-0.014057881
0.1199035
-0.015141282
0.1192878
-0.016153039
0.11886174
-0.017090938
0.11861604
-0.017953614
0.11854112
-0.018740604
0.11862729
-0.019452162
0.11886484
-0.020089145
0.11924424
-0.020652971
0.11975617
-0.021145589
0.12039162
-0.021569447
0.12114199
-0.021927442
0.12199913
-0.0222229
0.12295542
-0.022459542
0.12400379
-0.022641443
0.12513777
-0.022773015
0.12635155
-0.022858964
0.12763995
-0.022904263
0.1289985
-0.022914135
0.13042346
-0.022894029
0.13191179
-0.022849609
0.13346119
-0.02278676
0.13507016
-0.022711596
0.13673794
-0.022630496
0.13846462
-0.022550145
0.14025108
-0.022477613
0.14209911
-0.022420439
0.14401143
-0.022386756
0.14599173
-0.022385405
0.14804479
-0.022426156
0.15017654
-0.022519697
0.15239425
-0.022678428
0.15470647
-0.022914779
0.15712373
-0.023247876
0.15965727
-0.023684521
0.16232373
-0.024282706
0.16513352
-0.024964673
0.16812601
-0.02610358
0.17128066
-0.026820285
0.17475085
-0.029944263
-0.029418892
0.15051788
0.00052881093
0.14724443
-0.00052270956
0.14396545
-0.0018350353
0.14093801
-0.0033605115
0.13816534
-0.0049742885
0.13564139
-0.0065780673
0.13336821
-0.008145333
0.13134607
-0.009667542
0.12957269
-0.011132374
0.12804309
-0.012528275
0.12674966
-0.013847851
0.12568324
-0.015086617
0.12483389
-0.016241596
0.12419123
-0.017310955
0.12374455
-0.018293924
0.12348304
-0.019190652
0.12339596
-0.020002059
0.12347274
-0.020729756
0.12370314
-0.021375986
0.12407727
-0.021943576
0.12458572
-0.022435891
0.12521961
-0.022856786
0.12597063
-0.023210568
0.12683114
-0.023501953
0.12779416
-0.023736028
0.1288534
-0.023918212
0.13000336
-0.02405422
0.13123926
-0.024150037
0.13255713
-0.024211892
0.13395376
-0.024246248
0.1354268
-0.0242598
0.1369747
-0.024259487
0.13859673
-0.024252529
0.14029306
-0.024246474
0.14206472
-0.024249273
0.14391367
-0.024269386
0.14584282
-0.024315907
0.14785611
-0.024398697
0.14995857
-0.024528619
0.1521564
-0.024717525
0.15445711
-0.024979139
0.15686949
-0.025327154
0.15940425
-0.025782637
0.16207269
-0.026352967
0.1648914
-0.027101414
0.16787062
-0.027943892
0.17104765
-0.029280612
0.17440536
-0.030177999
0.17807483
-0.033613732
-0.033261268
0.18960966
0.0051009226
-0.19418177
0.18582862
0.0032583281
0.18246638
0.0015272025
0.17935249
-0.00024661765
0.17644958
-0.002071382
0.17373272
-0.0038612055
0.17118389
-0.0055965041
0.16879429
-0.0072779352
0.16656019
-0.0088982792
0.16447964
-0.010447725
0.16255099
-0.011919194
0.16077234
-0.013307967
0.15914129
-0.014610551
0.15765482
-0.015824481
0.15630927
-0.01694838
0.15510049
-0.017981868
0.15402387
-0.018925436
0.15307447
-0.019780353
0.15224709
-0.020548614
0.1515364
-0.021232885
0.15093696
-0.02183645
0.15044334
-0.022363161
0.15005016
-0.022817389
0.14975218
-0.023203977
0.14954435
-0.023528193
0.14942183
-0.02379569
0.14938007
-0.024012463
0.14941485
-0.024184816
0.14952229
-0.024319337
0.14969892
-0.024422877
0.14994168
-0.024502553
0.15024794
-0.024565754
0.15061559
-0.024620176
0.15104299
-0.02467387
0.15152903
-0.02473532
0.15207319
-0.024813543
0.1526755
-0.024918221
0.15333664
-0.025059838
0.15405794
-0.025249915
0.1548414
-0.025500986
0.1556898
-0.02582754
0.15660659
-0.026243943
0.15759633
-0.026772373
0.15866363
-0.027420266
0.15981651
-0.028254302
0.16105764
-0.029185022
0.16241002
-0.030632993
0.16384746
-0.031615436
0.16548246
-0.035248728
-0.034930111
0.21753424
0.0084696762
-0.22090299
0.21409135
0.0067012115
0.21090991
0.0047086441
0.2078373
0.0028259969
0.20482479
0.00094112635
0.20190339
-0.00093981056
0.19909016
-0.0027832716
0.19638979
-0.0045775675
0.19380837
-0.0063168554
0.19135292
-0.0079922762
0.18902888
-0.009595146
0.18683987
-0.011118958
0.18478815
-0.012558833
0.1828747
-0.01391103
0.18109927
-0.015172957
0.17946058
-0.01634317
0.17795641
-0.017421265
0.17658382
-0.018407769
0.17533929
-0.019304078
0.17421879
-0.02011239
0.17321798
-0.02083564
0.17233226
-0.021477444
0.17155691
-0.022042036
0.17088715
-0.022534213
0.17031823
-0.022959279
0.16984554
-0.023322995
0.16946461
-0.023631533
0.16917122
-0.02389143
0.16896145
-0.024109563
0.16883169
-0.02429312
0.16877873
-0.024449595
0.16879978
-0.024586797
0.16889247
-0.024712875
0.16905497
-0.024836366
0.16928592
-0.024966273
0.16958454
-0.025112161
0.16995061
-0.025284291
0.17038453
-0.025493754
0.17088732
-0.025752708
0.17146068
-0.026074348
0.172107
-0.026473859
0.17282935
-0.02696629
0.17363159
-0.027574612
0.17451816
-0.028306835
0.17549487
-0.029231012
0.17656697
-0.030257123
0.17774537
-0.031811399
0.17902932
-0.03289938
0.18045237
-0.036671775
-0.03646086
0.24439647
0.011165816
-0.24709261
0.24157545
0.0095222349
0.23875229
0.0075318017
0.23593684
0.0056414491
0.23309231
0.0037856567
0.23023943
0.0019130622
0.22740945
4.6712514e-05
0.22462182
-0.0017899345
0.22189264
-0.0035876752
0.21923801
-0.0053376503
0.216672
-0.0070291325
0.21420582
-0.0086527827
0.21184834
-0.010201357
0.2096064
-0.011669087
0.20748493
-0.013051483
0.20548714
-0.014345378
0.20361474
-0.015548868
0.20186817
-0.016661199
0.20024677
-0.017682675
0.19874896
-0.018614585
0.19737245
-0.019459125
0.19611433
-0.020219325
0.19497127
-0.020898973
0.1939396
-0.02150255
0.19301549
-0.022035161
0.19219496
-0.022502473
0.19147409
-0.022910659
0.190849
-0.023266343
0.19031601
-0.023576566
0.18987164
-0.02384875
0.18951273
-0.024090686
0.18923646
-0.024310532
0.18904042
-0.024516837
0.18892264
-0.024718584
0.18888163
-0.024925258
0.18891641
-0.025146944
0.18902657
-0.025394454
0.18921228
-0.025679459
0.18947429
-0.026014716
0.18981399
-0.026414048
0.19023338
-0.026893249
0.19073514
-0.027468055
0.1913224
-0.028161874
0.19199938
-0.028983814
0.19276944
-0.030001071
0.19364066
-0.031128335
0.19461014
-0.032780883
0.19570628
-0.033995522
0.19686913
-0.037834625
-0.037817675
0.26984165
0.013174992
-0.27185082
0.26769897
0.011664909
0.26538372
0.0098470558
0.26297245
0.008052719
0.26047353
0.0062845771
0.25789716
0.0044894289
0.2552695
0.0026743738
0.25261479
0.00086477355
0.24995315
-0.0009260352
0.2473046
-0.0026890992
0.2446886
-0.0044131271
0.24212246
-0.00608665
0.23962116
-0.0077000537
0.23719743
-0.0092453617
0.23486187
-0.01071592
0.23262295
-0.01210646
0.23048722
-0.013413132
0.22845945
-0.014633428
0.22654286
-0.015766094
0.22473933
-0.016811053
0.22304953
-0.017769324
0.22147315
-0.018642946
0.22000906
-0.019434886
0.21865548
-0.020148966
0.2174101
-0.020789784
0.21627027
-0.021362637
0.21523306
-0.021873455
0.21429546
-0.022328737
0.2134544
-0.022735506
0.21270691
-0.023101258
0.21205017
-0.023433946
0.2114816
-0.023741967
0.21099894
-0.024034176
0.21060028
-0.024319922
0.21028413
-0.02460911
0.21004947
-0.024912287
0.20989578
-0.025240766
0.20982307
-0.025606746
0.20983189
-0.026023534
0.20992337
-0.026505525
0.21009915
-0.027069029
0.21036152
-0.027730429
0.21071289
-0.028513246
0.21115713
-0.029428048
0.21169529
-0.030539234
0.21233749
-0.031770535
0.21306834
-0.033511731
0.21394097
-0.034868155
0.21480968
-0.038703331
-0.038958537
0.29348561
0.014488089
-0.29479871
0.2920257
0.013124825
0.29032404
0.011548718
0.28844772
0.0099290364
0.2864319
0.0083003955
0.28428755
0.0066337789
0.28203315
0.0049287707
0.27969211
0.0032058186
0.27728583
0.0014802442
0.2748345
-0.00023776821
0.27235854
-0.0019371677
0.26987795
-0.0036060616
0.26741127
-0.0052333715
0.26497532
-0.0068094153
0.26258512
-0.0083257194
0.26025373
-0.0097750708
0.25799225
-0.011151649
0.25580986
-0.012451039
0.25371396
-0.013670189
0.25171026
-0.014807356
0.24980299
-0.015862052
0.24799501
-0.01683497
0.24628803
-0.017727909
0.24468276
-0.018543689
0.24317904
-0.01928607
0.24177608
-0.019959674
0.24047253
-0.020569906
0.23926668
-0.021122882
0.23815654
-0.021625371
0.23714002
-0.022084741
0.23621501
-0.022508927
0.23537945
-0.022906407
0.23463148
-0.023286207
0.23396948
-0.023657927
0.23339216
-0.024031788
0.23289859
-0.024418716
0.23248826
-0.024830442
0.23216114
-0.025279626
0.23191766
-0.025780047
0.23175873
-0.026346598
0.2316857
-0.026995997
0.23170047
-0.027745202
0.23180478
-0.028617559
0.232002
-0.02962527
0.23229116
-0.03082839
0.23268342
-0.032162796
0.23315285
-0.033981161
0.23377143
-0.035486736
0.23432082
-0.039252719
-0.039844229