/*--------------------------------*- C++ -*----------------------------------*\
  =========                 |
  \\      /  F ield         | OpenFOAM: The Open Source CFD Toolbox
   \\    /   O peration     | Website:  https://openfoam.org
    \\  /    A nd           | Version:  6
     \\/     M anipulation  |
\*---------------------------------------------------------------------------*/
FoamFile
{
    version     2.0;
    format      ascii;
    class       surfaceScalarField;
    location    "47";
    object      phi_0;
}
// * * * * * * * * * * * * * * * * * * * * * * * * * * * * * * * * * * * * * //

dimensions      [0 3 -1 0 0 0 0];

internalField   nonuniform List<scalar> 
18180
(
0.00032020786
-0.00016608287
-0.00015412493
0.0013151322
-0.0013788946
0.00038397036
0.0030463898
-0.0033578978
0.0016266403
0.0055741738
-0.0060156348
0.0034878508
0.0089569626
-0.0092971581
0.0059143694
0.013249496
-0.013158904
0.0088663702
0.018500078
-0.017563246
0.012312664
0.024747567
-0.02247575
0.016228261
0.032018193
-0.027862026
0.0205914
0.040322449
-0.033685096
0.02538084
0.049652391
-0.039903642
0.0305737
0.059979706
-0.046471087
0.036143772
0.071254965
-0.053335527
0.042060268
0.083408517
-0.060440511
0.048286959
0.096353629
-0.067726789
0.054781677
0.1099924
-0.075135114
0.061496345
0.12422386
-0.082609951
0.06837849
0.13895927
-0.090103803
0.07536839
0.15419571
-0.097599097
0.082362658
-0.10509335
0.08915904
0.17013002
0.00039917989
-0.00056526272
0.0016162515
-0.0025959661
0.0037043352
-0.0054459815
0.0067142824
-0.0090255819
0.010692781
-0.013275657
0.01567865
-0.018144772
0.021698786
-0.023583382
0.028764166
-0.02954113
0.036866186
-0.035964046
0.045973755
-0.042792666
0.056031576
-0.049961462
0.066959966
-0.057399477
0.078656473
-0.065032033
0.090999359
-0.072783397
0.10385275
-0.080580176
0.1170728
-0.088355172
0.13051403
-0.09605118
0.14403611
-0.10362588
0.15750284
-0.11106583
-0.11830198
0.17071146
0.00048250051
-0.0010477632
0.0019260053
-0.0040394709
0.0043687465
-0.0078887227
0.0078452498
-0.012502085
0.012382043
-0.01781245
0.017992201
-0.02375493
0.024670227
-0.030261409
0.032387759
-0.037258663
0.041090539
-0.044666825
0.050697141
-0.052399267
0.061099832
-0.060364153
0.072167734
-0.068467379
0.083752151
-0.076616451
0.095693647
-0.084724893
0.10783012
-0.092716647
0.12000479
-0.10052984
0.13207294
-0.10811933
0.14390534
-0.11545827
0.15538067
-0.12254116
-0.12931869
0.16639738
0.00056821808
-0.0016159812
0.002235768
-0.0057070207
0.0050177625
-0.010670717
0.0089237742
-0.016408097
0.013950502
-0.022839178
0.020074855
-0.029879282
0.027248587
-0.037435141
0.035394973
-0.045405048
0.044407951
-0.053679804
0.054154136
-0.062145452
0.06447771
-0.070687728
0.075207868
-0.079197537
0.086168092
-0.087576675
0.097186268
-0.095743069
0.10810448
-0.10363486
0.11878734
-0.1112127
0.12912797
-0.11845996
0.1390506
-0.12538091
0.1485073
-0.13199786
-0.13831097
0.15749958
0.00065306579
-0.002269047
0.002532497
-0.0075864519
0.0056211898
-0.01375941
0.0098943609
-0.020681268
0.015309118
-0.028253935
0.021796906
-0.036367071
0.029259245
-0.04489748
0.037566936
-0.053712739
0.046562989
-0.062675856
0.056069121
-0.071651585
0.065895209
-0.080513815
0.075850591
-0.089152919
0.085755877
-0.09748196
0.095453788
-0.10544098
0.10481776
-0.11299883
0.11375745
-0.12015239
0.12222075
-0.12692327
0.13019253
-0.13335268
0.13769004
-0.13949538
-0.14539586
0.14477493
0.00073289011
-0.003001937
0.0028003322
-0.0096538939
0.0061439637
-0.017103041
0.010695679
-0.025232983
0.016364712
-0.033922968
0.023030801
-0.04303316
0.030542612
-0.052409291
0.038721005
-0.061891132
0.047366742
-0.071321593
0.056271669
-0.080556511
0.065231851
-0.089473998
0.074060839
-0.097981906
0.082601252
-0.10602237
0.090733248
-0.11357298
0.09837894
-0.12064452
0.1055026
-0.12727605
0.11210716
-0.13352783
0.11822804
-0.13947356
0.12392555
-0.14519288
-0.15075743
0.12928712
0.0008029914
-0.0038049284
0.0030219789
-0.011872881
0.0065494996
-0.020630562
0.011266998
-0.029950481
0.017030662
-0.039686631
0.023666937
-0.049669435
0.030975122
-0.059717477
0.038735574
-0.069651584
0.046722161
-0.079308179
0.054716967
-0.088551318
0.062524926
-0.097281957
0.069986117
-0.1054431
0.076984075
-0.11302033
0.083449164
-0.12003807
0.089357038
-0.1265524
0.094722959
-0.13264197
0.099593379
-0.13839825
0.1040364
-0.14391658
0.10813271
-0.14928919
-0.15459747
0.11197275
0.00085824767
-0.004663176
0.0031796508
-0.014194284
0.0068024284
-0.02425334
0.011553701
-0.034701754
0.017235853
-0.045368783
0.023625996
-0.056059577
0.030483606
-0.066575087
0.037563551
-0.07673153
0.044632001
-0.086376628
0.051482351
-0.095401668
0.05794839
-0.103748
0.063912684
-0.11140739
0.069309182
-0.11841683
0.074120228
-0.12484911
0.078369049
-0.13080122
0.082109438
-0.13638236
0.085414566
-0.14170337
0.088366629
-0.14686865
0.091048644
-0.15197121
-0.15708935
0.093540522
0.00089229563
-0.0055554716
0.0032551126
-0.016557101
0.0068708512
-0.027869078
0.011512442
-0.039343345
0.01693257
-0.050788911
0.02286821
-0.061995217
0.029053238
-0.072760115
0.035235018
-0.082913309
0.041191488
-0.092333098
0.046745413
-0.10095559
0.051773237
-0.10877582
0.056207377
-0.11584153
0.060032169
-0.12224162
0.063274858
-0.1280918
0.065993663
-0.13352002
0.068265148
-0.13865384
0.070172802
-0.14361103
0.071798175
-0.14849402
0.073215172
-0.1533882
-0.15836139
0.07448722
0.00090161959
-0.0064570911
0.003239206
-0.018894688
0.0067399671
-0.031369839
0.011126598
-0.043729976
0.016110887
-0.0557732
0.021403251
-0.067287581
0.026729171
-0.078086035
0.031847072
-0.08803121
0.036563722
-0.097049749
0.040743984
-0.10513585
0.044313319
-0.11234516
0.047253186
-0.1187814
0.049590904
-0.12457934
0.05138634
-0.12988724
0.052717963
-0.13485165
0.053670363
-0.13960624
0.054324671
-0.14426534
0.054752476
-0.14892182
0.055013045
-0.15364877
0.055152274
-0.15850062
-0.00020327458
0.00020327464
-9.2655476e-12
-0.00068061659
0.00047734209
-2.6097844e-11
-0.0013479092
0.00066729275
-3.5941953e-11
-0.0021407091
0.00079279999
-4.2516393e-11
-0.0030071817
0.00086647268
-4.075936e-11
-0.0039049916
0.00089780999
-3.890054e-11
-0.0047990533
0.00089406178
-2.8541648e-11
-0.0056596493
0.00086059618
-2.0999846e-11
-0.0064609501
0.00080130083
-4.1672122e-12
-0.0071798545
0.00071890447
7.4799059e-12
-0.0077950652
0.00061521078
2.9942694e-11
-0.0082863474
0.00049128221
4.5246625e-11
-0.0086339435
0.00034759614
7.2208499e-11
-0.008818135
0.00018419153
8.9220853e-11
-0.0088189825
8.4749549e-07
1.1865627e-10
-0.0086163476
-0.00020263501
1.3425064e-10
-0.0081901565
-0.00042619107
1.6077208e-10
-0.0075199923
-0.0006701644
1.7170623e-10
-0.0065846806
-0.00093531176
1.9514876e-10
-0.0012079695
-0.0053767113
2.1145169e-10
-0.00018876289
0.00039203757
-0.00062749945
0.0009160787
-0.0012334434
0.0012732368
-0.001942255
0.0015016116
-0.0027014774
0.0016256952
-0.0034675778
0.0016639104
-0.0042037859
0.0016302699
-0.0048782727
0.0015350831
-0.0054627032
0.0013857313
-0.0059310926
0.001187294
-0.0062588853
0.00094300354
-0.0064222061
0.00065460301
-0.0063972501
0.00032264018
-0.0061597981
-5.3260381e-05
-0.0056848866
-0.00047406394
-0.0049467238
-0.00094079766
-0.0039189037
-0.0014540111
-0.0025743271
-0.002014741
-0.00088504658
-0.0026245922
-0.0032536404
0.0011606244
-0.00015951058
0.00055154819
-0.00052066299
0.0012772312
-0.001003947
0.0017565209
-0.0015457404
0.0020434051
-0.0020927537
0.0021727085
-0.0025994234
0.0021705801
-0.0030259549
0.0020568014
-0.0033366444
0.0018457726
-0.0034985247
0.0015476116
-0.0034802813
0.0011690507
-0.0032513634
0.0007140856
-0.0027812567
0.00018449638
-0.002038846
-0.00041977044
-0.00099189729
-0.001100209
0.00039337584
-0.001859337
0.002152596
-0.0027000177
0.0043231879
-0.0036246031
0.0069440673
-0.0046356204
0.010055566
-0.0057360911
-0.0068756584
0.013677584
-0.00011787618
0.0006694244
-0.00036780328
0.0015271583
-0.00067465174
0.0020633694
-0.00097582188
0.0023445753
-0.0012169371
0.0024138238
-0.0013497025
0.0023033456
-0.0013302387
0.0020373376
-0.0011176176
0.0016331517
-0.00067266034
0.0011026544
4.3021879e-05
0.00045336857
0.0010678161
-0.00031070862
0.0024407576
-0.0011884451
0.0042020764
-0.0021810892
0.0063936804
-0.0032918129
0.0090596632
-0.0045253198
0.012246864
-0.0058872185
0.016005246
-0.0073829854
0.020387599
-0.0090179727
0.025449319
-0.010797812
-0.01264785
0.031221511
-6.6911387e-05
0.00073633582
-0.00017887566
0.0016391226
-0.00026534254
0.0021498363
-0.00026468723
0.00234392
-0.00012115375
0.0022702903
0.00021678748
0.0019654045
0.00079777333
0.0014563518
0.0016687224
0.00076220269
0.0028758093
-0.00010443256
0.0044652528
-0.0011360748
0.006483879
-0.0023293348
0.0089795366
-0.0036841026
0.01200142
-0.0052029726
0.015600394
-0.0068907865
0.019829357
-0.0087542834
0.024743859
-0.01080172
0.030402969
-0.013042096
0.036869796
-0.0154848
0.044212259
-0.018140275
-0.020908922
0.052473331
-9.683484e-06
0.00074601934
3.5941267e-05
0.0015934979
0.00020347907
0.0019822985
0.00055391412
0.001993485
0.001144652
0.0016795525
0.0020306804
0.0010793762
0.0032655342
0.00022149806
0.0049021798
-0.00087444288
0.0069936706
-0.0021959233
0.0095935177
-0.0037359218
0.012755895
-0.0054917117
0.016535734
-0.0074639424
0.020988645
-0.0096558828
0.026170731
-0.012072873
0.032138478
-0.01472203
0.038949026
-0.017612268
0.046661333
-0.020754403
0.055338229
-0.024161696
0.065050267
-0.027852312
-0.031707726
0.075849071
5.133467e-05
0.00069468471
0.00026812105
0.0013767116
0.00071414325
0.0015362764
0.0014501809
0.0012574474
0.0025353892
0.00059434421
0.0040280567
-0.00041329132
0.0059861973
-0.0017366424
0.0084679312
-0.0033561767
0.011531608
-0.0052596006
0.01523577
-0.0074400831
0.019638864
-0.009894806
0.024798705
-0.012623784
0.030771716
-0.015628894
0.037612007
-0.018913163
0.04537041
-0.022480433
0.054093897
-0.026335755
0.063826353
-0.030486859
0.074611932
-0.034947276
0.086504007
-0.039744386
-0.044761539
0.09955782
0.00011463016
0.00058005459
0.00051192679
0.00097941501
0.0012539834
0.00079421984
0.0024016219
0.00010980889
0.0040155033
-0.0010195371
0.006156461
-0.002554249
0.0088854698
-0.0044656512
0.012263457
-0.0067341637
0.016350881
-0.0093470243
0.021206966
-0.012296168
0.026888644
-0.015576484
0.033449201
-0.019184341
0.040936662
-0.023116355
0.049391958
-0.027368459
0.058846995
-0.03193547
0.069323003
-0.036811763
0.080830309
-0.041994165
0.093371418
-0.047488384
0.10695245
-0.053325423
-0.05942534
0.12161626
0.00017954976
0.00040050487
0.00076431073
0.00039465408
0.0018152367
-0.00025670612
0.0033928746
-0.0014678289
0.005558343
-0.0031850055
0.0083730593
-0.0053689652
0.011898096
-0.0079906881
0.016193236
-0.011029304
0.021315666
-0.014469454
0.027318325
-0.018298827
0.034247947
-0.022506107
0.042142833
-0.027079226
0.05103039
-0.032003913
0.060924478
-0.037262547
0.071822544
-0.042833536
0.083702614
-0.048691833
0.09652109
-0.05481264
0.11021409
-0.061181381
0.12471084
-0.067822179
-0.074739975
0.14002548
0.00024637997
0.0010250045
0.0023949387
0.0044149606
0.0071443245
0.01064173
0.014963706
0.020162663
0.02628461
0.033366622
0.041434216
0.050498762
0.060555117
0.07157953
0.083527671
0.096332184
0.10989803
0.12408504
0.13862552
0.15304459
-0.0034098141
-0.0019668975
3.1834254e-10
-0.0011579168
-0.0022518977
3.3582554e-10
0.001356907
-0.0025148241
3.3792872e-10
0.0040775773
-0.0027206707
3.2294654e-10
0.0069773748
-0.0028997979
2.7843083e-10
0.01003919
-0.0030618157
1.9051906e-10
0.013244252
-0.003205062
7.1371608e-11
0.016574684
-0.0033304321
-9.3795269e-11
0.020014947
-0.0034402626
-3.116817e-10
0.023550998
-0.0035360505
-5.8614204e-10
0.027169737
-0.0036187375
-9.0447347e-10
0.030858936
-0.0036891984
-1.2581862e-09
0.034607171
-0.0037482328
-1.6177675e-09
0.038403682
-0.0037965092
-1.959002e-09
0.042238282
-0.0038345982
-2.2369975e-09
0.046101294
-0.0038630094
-2.4138954e-09
0.049983506
-0.0038822095
-2.4319159e-09
0.053876145
-0.0038926364
-2.2439562e-09
0.057770861
-0.003894714
-1.7871246e-09
0.061659727
-0.0038888649
-1.0168401e-09
0.065535246
-0.0038755196
1.2007174e-10
0.069390368
-0.0038551238
1.6459876e-09
0.073218508
-0.0038281435
3.5814476e-09
0.077013571
-0.0037950683
5.8982523e-09
0.080769975
-0.0037564129
8.5543641e-09
0.084482681
-0.0037127173
1.1438633e-08
0.088147214
-0.0036645475
1.4417308e-08
0.09175969
-0.0036124938
1.7271113e-08
0.095316842
-0.0035571711
1.9762133e-08
0.098816038
-0.0034992182
2.1566569e-08
0.10225532
-0.0034392996
2.2372947e-08
0.1056334
-0.0033781069
2.1813665e-08
0.10894974
-0.0033163637
1.9606996e-08
0.11220456
-0.0032548312
1.5485477e-08
0.11539887
-0.0031943168
9.3875899e-09
0.11853455
-0.0031356856
1.3634154e-09
0.12161443
-0.0030798737
-8.1913645e-09
0.12464236
-0.0030279029
-1.8706056e-08
0.12762329
-0.0029809042
-2.9173371e-08
0.13056345
-0.0029401177
-3.8478071e-08
0.13347047
-0.0029069819
-4.5155162e-08
0.13635346
-0.0028829421
-4.7862628e-08
0.13922374
-0.0028702334
-4.5363717e-08
0.14209337
-0.0028695959
-3.7003598e-08
0.14498153
-0.0028881394
-2.2701008e-08
0.14789704
-0.0029155019
-3.3281744e-09
0.1508983
-0.0030012789
1.9610599e-08
0.15392121
-0.0030229504
4.2587383e-08
0.15731011
-0.0033889685
6.6478633e-08
-0.0031901827
8.0001327e-08
0.0030086617
-0.0038149348
0.0051367958
-0.0043800319
0.0075145438
-0.0048925721
0.010079269
-0.0052853958
0.012809992
-0.0056305212
0.01569461
-0.0059464337
0.018716557
-0.0062270089
0.021859577
-0.0064734526
0.025109822
-0.006690507
0.028454713
-0.0068809414
0.031882312
-0.007046337
0.035381346
-0.0071882318
0.03894118
-0.0073080676
0.042551716
-0.007407045
0.046203306
-0.0074861881
0.049886718
-0.007546421
0.053593107
-0.0075885995
0.057314007
-0.0076135364
0.061041321
-0.0076220279
0.064767333
-0.0076148772
0.068484724
-0.0075929104
0.07218659
-0.0075569901
0.075866471
-0.0075080238
0.079518372
-0.0074469693
0.083136796
-0.0073748377
0.086716772
-0.0072926928
0.090253875
-0.007201651
0.093744261
-0.0071028796
0.097184685
-0.0069975955
0.10057253
-0.0068870647
0.10390584
-0.0067726051
0.10718332
-0.0066555895
0.11040441
-0.0065374548
0.11356929
-0.0064197139
0.11667895
-0.0063039725
0.11973521
-0.0061919511
0.12274085
-0.006085513
0.12569964
-0.005986692
0.12861648
-0.0058977406
0.13149749
-0.0058211283
0.13435023
-0.0057597237
0.1371837
-0.0057164057
0.1400091
-0.0056956376
0.14283839
-0.0056988854
0.14569061
-0.0057403578
0.14857446
-0.0057993594
0.15154793
-0.005974743
0.15454757
-0.006022588
0.15791278
-0.0067541834
-0.0063674698
0.015278171
-0.0054155218
0.017141553
-0.0062434134
0.019230836
-0.0069818558
0.021475949
-0.0075305086
0.023865368
-0.0080199408
0.026395691
-0.0084767563
0.029054492
-0.0088858098
0.031828454
-0.0092474142
0.034706656
-0.0095687099
0.037679069
-0.0098533543
0.040735779
-0.010103047
0.043867145
-0.010319598
0.04706388
-0.010504802
0.050316986
-0.010660151
0.053617716
-0.010786918
0.056957571
-0.010886276
0.060328306
-0.010959334
0.063721945
-0.011007175
0.067130797
-0.01103088
0.070547482
-0.011031563
0.073964961
-0.011010389
0.077376564
-0.010968593
0.080776023
-0.010907483
0.084157506
-0.010828453
0.08751565
-0.010732982
0.09084559
-0.010622632
0.094142986
-0.010499047
0.097404058
-0.010363951
0.1006256
-0.010219142
0.10380504
-0.010066496
0.1069404
-0.0099079662
0.1100304
-0.0097455898
0.11307444
-0.0095815016
0.11607268
-0.0094179508
0.11902603
-0.0092573263
0.12193627
-0.0091021896
0.12480608
-0.0089553166
0.12763912
-0.0088197392
0.1304402
-0.0086988169
0.13321531
-0.0085962353
0.13597186
-0.0085162786
0.1387187
-0.0084632472
0.14146688
-0.008443815
0.14422818
-0.0084601799
0.14702137
-0.0085335485
0.14985518
-0.008633177
0.15278633
-0.0089058873
0.15575408
-0.0089903388
0.15908491
-0.01008501
-0.0095353866
0.032435797
-0.0066298087
0.03388434
-0.0076919561
0.035526024
-0.0086235395
0.037287914
-0.009292399
0.039170863
-0.0099028899
0.041181419
-0.010487313
0.043312623
-0.011017013
0.045555134
-0.011489925
0.047901571
-0.011915147
0.050344919
-0.012296702
0.052877692
-0.01263582
0.055492169
-0.012934074
0.058180587
-0.013193221
0.060935176
-0.01341474
0.063748166
-0.013599909
0.066611836
-0.013749946
0.06951856
-0.013866058
0.072460855
-0.01394947
0.075431428
-0.014001453
0.078423219
-0.014023355
0.081429451
-0.014016621
0.084443665
-0.013982807
0.087459771
-0.013923588
0.090472079
-0.013840761
0.093475344
-0.013736246
0.096464791
-0.01361208
0.099436158
-0.013470414
0.10238572
-0.013313508
0.1053103
-0.013143726
0.10820734
-0.012963536
0.11107488
-0.012775508
0.11391162
-0.012582332
0.11671694
-0.012386823
0.11949095
-0.012191951
0.12223449
-0.012000874
0.12494928
-0.011816978
0.1276379
-0.011643936
0.13030392
-0.011485762
0.13295201
-0.011346905
0.13558803
-0.011232251
0.13821923
-0.011147482
0.14085428
-0.011098303
0.14350404
-0.011093574
0.1461801
-0.011136239
0.14890088
-0.011254329
0.15167525
-0.011407542
0.15455792
-0.011788563
0.15749266
-0.011925076
0.16078608
-0.013378431
-0.012703108
0.053145267
-0.0073017452
0.054019303
-0.0085659915
0.055049011
-0.0096532474
0.056169017
-0.010412406
0.057394401
-0.011128273
0.058739677
-0.011832589
0.060203571
-0.012480907
0.061781426
-0.01306778
0.063469243
-0.013602964
0.065262644
-0.014090104
0.067156342
-0.014529518
0.069144313
-0.014922044
0.07122005
-0.015268958
0.073376731
-0.015571421
0.075607309
-0.015830487
0.077904601
-0.016047238
0.080261375
-0.016222832
0.082670436
-0.016358531
0.0851247
-0.016455716
0.087617257
-0.016515913
0.090141439
-0.016540803
0.092690868
-0.016532235
0.095259507
-0.016492227
0.09784171
-0.016422964
0.10043226
-0.016326795
0.1030264
-0.016206222
0.10561988
-0.016063896
0.10820898
-0.015902606
0.11079053
-0.015725275
0.11336195
-0.015534954
0.11592127
-0.01533483
0.11846717
-0.01512823
0.12099899
-0.014918646
0.1235168
-0.014709759
0.12602141
-0.014505484
0.12851445
-0.014310023
0.13099845
-0.014127932
0.13347688
-0.013964194
0.13595431
-0.013824333
0.13843647
-0.013714417
0.1409305
-0.013641506
0.14344489
-0.013612694
0.1459903
-0.013638988
0.14857817
-0.013724101
0.15122649
-0.013902652
0.15394437
-0.014125424
0.156784
-0.014628188
0.15969501
-0.014836086
0.16295863
-0.016642049
-0.015887753
0.075808372
-0.007261046
0.07594529
-0.0087029095
0.076203264
-0.0099112215
0.076539321
-0.010748462
0.076981845
-0.011570797
0.077547869
-0.012398613
0.078240627
-0.013173665
0.079060281
-0.013887434
0.080005367
-0.01454805
0.08107296
-0.015157696
0.08225905
-0.015715608
0.083558591
-0.016221586
0.084965662
-0.016676029
0.086473763
-0.017079522
0.088076019
-0.017432743
0.089765306
-0.017736525
0.091534367
-0.017991893
0.093375919
-0.018200083
0.095282761
-0.018362558
0.097247847
-0.018480999
0.099264364
-0.018557319
0.10132579
-0.018593661
0.10342595
-0.018592391
0.10555908
-0.018556093
0.10771984
-0.018487558
0.10990339
-0.018389765
0.11210537
-0.01826588
0.114322
-0.018119233
0.11655004
-0.017953316
0.11878686
-0.017771777
0.12103045
-0.017578422
0.12327945
-0.017377229
0.12553317
-0.017172367
0.12779165
-0.016968233
0.13005566
-0.0167695
0.13232682
-0.016581184
0.13460761
-0.016408719
0.13690146
-0.016258047
0.13921289
-0.016135757
0.14154755
-0.016049086
0.1439125
-0.016006453
0.14631613
-0.016016323
0.14876894
-0.016091802
0.15128224
-0.016237397
0.15387361
-0.016494027
0.15655248
-0.016804286
0.15936806
-0.017443774
0.16227692
-0.017744949
0.16553089
-0.019896015
-0.019115796
0.098657711
-0.006360937
0.097919179
-0.0079643773
0.097273169
-0.0092652115
0.096721059
-0.010196352
0.09629932
-0.011149058
0.096019336
-0.012118629
0.095886652
-0.013040981
0.095905505
-0.013906287
0.096075661
-0.014718206
0.09639408
-0.015476115
0.096856633
-0.016178161
0.097458156
-0.016823108
0.098192423
-0.017410296
0.099052478
-0.017939576
0.10003093
-0.018411199
0.10112014
-0.018825733
0.10231232
-0.01918407
0.10359967
-0.019487438
0.10497451
-0.019737395
0.10642932
-0.019935812
0.10795687
-0.020084868
0.10955025
-0.020187036
0.11120293
-0.020245073
0.11290883
-0.020261998
0.11466236
-0.020241081
0.11645842
-0.020185825
0.11829247
-0.020099937
0.12016057
-0.019987327
0.12205934
-0.01985209
0.12398606
-0.019698495
0.12593864
-0.019531001
0.12791567
-0.019354255
0.12991642
-0.019173126
0.13194094
-0.018992745
0.13398999
-0.018818558
0.13606521
-0.018656401
0.13816909
-0.018512594
0.14030508
-0.018394041
0.14247772
-0.018308393
0.14469267
-0.018264041
0.14695697
-0.018270753
0.14927899
-0.018338341
0.15166915
-0.018481966
0.15413868
-0.018706927
0.1567048
-0.019060144
0.15937726
-0.019476749
0.16220212
-0.020268627
0.16514341
-0.020686243
0.16842116
-0.023173759
-0.022423559
0.11981465
-0.0045593359
0.11814629
-0.0062960134
0.11653289
-0.007651815
0.11505861
-0.0087220653
0.11375985
-0.0098502951
0.11263427
-0.010993049
0.1116875
-0.01209422
0.11092605
-0.013144833
0.11034954
-0.014141698
0.10995361
-0.015080183
0.10973267
-0.015957224
0.1096803
-0.01677074
0.10978916
-0.017519155
0.11005121
-0.018201621
0.110458
-0.018817993
0.11100092
-0.01936865
0.11167127
-0.019854426
0.11246044
-0.020276608
0.11335997
-0.020636918
0.11436164
-0.020937482
0.11545757
-0.021180808
0.1166403
-0.021369762
0.11790278
-0.021507553
0.11923848
-0.021597697
0.1206414
-0.021644004
0.12210612
-0.021650546
0.12362783
-0.021621638
0.12520231
-0.021561815
0.12682604
-0.021475822
0.12849615
-0.021368603
0.13021045
-0.021245302
0.13196748
-0.021111284
0.13376651
-0.020972152
0.13560757
-0.020833801
0.13749148
-0.020702477
0.13941995
-0.020584861
0.14139553
-0.020488175
0.14342178
-0.020420296
0.14550332
-0.020389936
0.14764593
-0.02040665
0.14985671
-0.020481531
0.15214409
-0.020625721
0.15451851
-0.02085639
0.15699119
-0.021179603
0.15957903
-0.021647981
0.16229213
-0.022189848
0.16517324
-0.023149746
0.16819411
-0.023707107
0.17154182
-0.026521475
-0.025856759
0.13746326
-0.0019971125
0.13496439
-0.0037971453
0.13242767
-0.0051151
0.13009474
-0.0063891304
0.12799268
-0.0077482326
0.12610303
-0.0091034072
0.12442882
-0.010420009
0.1229753
-0.011691306
0.1217411
-0.0129075
0.12072068
-0.014059765
0.11990677
-0.01514331
0.11929125
-0.01615522
0.11886537
-0.017093281
0.11861988
-0.017956129
0.11854519
-0.018743301
0.11863159
-0.019455053
0.11886941
-0.020092243
0.11924909
-0.020656291
0.11976132
-0.021149148
0.1203971
-0.021573261
0.12114783
-0.021931533
0.12200536
-0.022227291
0.12296206
-0.022464257
0.12401088
-0.022646513
0.12514534
-0.022778472
0.12635964
-0.022864844
0.12764861
-0.02291061
0.12900779
-0.022920996
0.13043343
-0.022901457
0.13192249
-0.022857666
0.13347271
-0.022795517
0.13508256
-0.022721133
0.13675131
-0.022640907
0.13847905
-0.022561537
0.14026668
-0.02249011
0.142116
-0.022434184
0.14402974
-0.022401914
0.14601161
-0.022402166
0.14806641
-0.022444733
0.15020009
-0.022540327
0.15241992
-0.022701368
0.1547345
-0.022940299
0.15715437
-0.023276254
0.15969078
-0.023716015
0.1623604
-0.0243176
0.16517364
-0.025003089
0.16816993
-0.026146036
0.17132867
-0.026865847
0.17480345
-0.029996253
-0.02946924
0.15051961
0.00052786542
0.14724622
-0.00052375952
0.14396731
-0.0018361879
0.14093995
-0.0033617662
0.13816737
-0.0049756505
0.1356435
-0.0065795445
0.13337043
-0.0081469332
0.1313484
-0.0096692724
0.12957514
-0.011134243
0.12804566
-0.01253029
0.12675238
-0.013850022
0.12568611
-0.015088953
0.12483694
-0.016244107
0.12419446
-0.017313653
0.12374798
-0.018296821
0.12348669
-0.01919376
0.12339984
-0.020005393
0.12347688
-0.020733331
0.12370755
-0.02137982
0.12408198
-0.021947689
0.12459075
-0.022440305
0.12522498
-0.022861527
0.12597639
-0.023215663
0.12683731
-0.023507435
0.12780077
-0.023741933
0.12886051
-0.023924579
0.13001099
-0.024061096
0.13124747
-0.024157474
0.13256597
-0.024219949
0.13396329
-0.024254993
0.13543709
-0.02426931
0.1369858
-0.024269851
0.13860874
-0.024263847
0.14030607
-0.024258863
0.14207883
-0.024262868
0.14392899
-0.024284342
0.14585947
-0.024332402
0.14787424
-0.024416936
0.14997834
-0.024548831
0.15217798
-0.024739964
0.15448069
-0.02500408
0.15689527
-0.025354884
0.15943247
-0.025813451
0.16210359
-0.026387137
0.16492523
-0.027139239
0.16790764
-0.027985499
0.17108817
-0.029326561
0.17444963
-0.030227313
0.17812329
-0.033669912
-0.033315892
0.18961227
0.0050998634
-0.19418427
0.18583134
0.0032571681
0.18246922
0.0015259366
0.17935544
-0.00024799098
0.17645266
-0.0020728682
0.17373593
-0.0038628128
0.17118724
-0.0055982409
0.16879778
-0.0072798097
0.16656383
-0.0089003
0.16448344
-0.010449901
0.16255496
-0.011921536
0.16077649
-0.013310484
0.15914564
-0.014613255
0.15765937
-0.015827384
0.15631404
-0.016951494
0.15510549
-0.017985208
0.15402911
-0.018929017
0.15307998
-0.019784193
0.15225289
-0.020552732
0.1515425
-0.021237302
0.15094339
-0.021841191
0.15045011
-0.022368252
0.15005731
-0.022822861
0.14975974
-0.023209864
0.14955234
-0.023534533
0.14943029
-0.023802528
0.14938904
-0.024019847
0.14942437
-0.024192802
0.14953241
-0.024327988
0.14970968
-0.024432266
0.14995313
-0.024512761
0.15026016
-0.024576876
0.15062863
-0.024632319
0.15105693
-0.024687157
0.15154395
-0.024749893
0.15208917
-0.024829564
0.15269265
-0.024935877
0.15335505
-0.025079342
0.15407773
-0.025271504
0.15486269
-0.025524923
0.15571271
-0.025854106
0.15663126
-0.026273429
0.15762288
-0.026805075
0.1586922
-0.027456454
0.15984724
-0.028294276
0.16109064
-0.029228899
0.16244544
-0.030681359
0.16388539
-0.031667268
0.16552317
-0.035307688
-0.034987467
0.21753675
0.0084685056
-0.2209054
0.21409399
0.0066999345
0.21091266
0.0047072598
0.20784017
0.0028244999
0.20482779
0.00093951112
0.20190653
-0.00094155242
0.19909344
-0.0027851492
0.19639322
-0.0045795896
0.19381195
-0.0063190314
0.19135667
-0.0079946161
0.18903279
-0.0095976603
0.18684397
-0.011121658
0.18479244
-0.012561731
0.1828792
-0.013914138
0.181104
-0.01517629
0.17946553
-0.016346744
0.17796161
-0.017425096
0.17658929
-0.018411876
0.17534504
-0.019308482
0.17422485
-0.020117113
0.17322437
-0.020840709
0.17233901
-0.021482888
0.17156403
-0.022047887
0.17089468
-0.022540508
0.1703262
-0.022966059
0.16985398
-0.023330307
0.16947356
-0.023639429
0.16918073
-0.02389997
0.16897156
-0.024118814
0.16884245
-0.024303158
0.1687902
-0.024460508
0.168812
-0.024598683
0.16890553
-0.024725847
0.16906893
-0.024850554
0.16930086
-0.024981825
0.16960054
-0.025129248
0.16996777
-0.025303106
0.17040295
-0.025514516
0.1709071
-0.025775662
0.17148194
-0.026099761
0.17212985
-0.026502017
0.17285391
-0.026997485
0.17365797
-0.027609137
0.17454647
-0.028344953
0.17552521
-0.029273014
0.17659943
-0.030303118
0.17778005
-0.031861981
0.1790663
-0.032953521
0.1804918
-0.03673319
-0.036520729
0.24439881
0.011164541
-0.24709484
0.24157789
0.0095208475
0.23875485
0.0075303044
0.23593951
0.0056398336
0.23309511
0.0037839163
0.23024237
0.0019111887
0.22741252
4.4696935e-05
0.22462503
-0.0017921017
0.22189601
-0.003590004
0.21924154
-0.0053401514
0.2166757
-0.0070318172
0.2142097
-0.0086556631
0.21185242
-0.010204446
0.20961068
-0.011672399
0.20748942
-0.013055033
0.20549186
-0.014349182
0.20361971
-0.015552945
0.2018734
-0.016665569
0.20025228
-0.017687361
0.19875478
-0.018619611
0.19737859
-0.019464519
0.19612082
-0.020225118
0.19497813
-0.020905199
0.19394687
-0.021509249
0.19302319
-0.022042377
0.19220314
-0.022510255
0.19148278
-0.022919063
0.19085824
-0.023275432
0.19032584
-0.023586411
0.18988211
-0.023859432
0.1895239
-0.024102296
0.18924839
-0.024323175
0.18905317
-0.02453063
0.18893628
-0.024733663
0.18889623
-0.024941778
0.18893207
-0.025165081
0.18904337
-0.025414407
0.1892303
-0.025701452
0.18949364
-0.026038999
0.18983477
-0.026440892
0.1902557
-0.02692294
0.19075909
-0.027500882
0.19134808
-0.028198122
0.19202686
-0.029023733
0.19279878
-0.030044936
0.19367191
-0.031176246
0.19464335
-0.032833424
0.19574154
-0.034051706
0.19690645
-0.037898098
-0.037879786
0.26984375
0.013173629
-0.27185283
0.26770117
0.011663427
0.26538601
0.0098454595
0.26297485
0.0080509991
0.26047604
0.0062827252
0.25789979
0.0044874367
0.25527225
0.0026722323
0.25261768
0.00086247287
0.24995618
-0.00092850552
0.24730778
-0.0026917505
0.24469193
-0.0044159713
0.24212597
-0.0060897001
0.23962485
-0.0077033235
0.23720131
-0.0092488661
0.23486596
-0.010719675
0.23262726
-0.012110484
0.23049176
-0.013417444
0.22846424
-0.01463805
0.22654793
-0.01577105
0.22474469
-0.016816369
0.2230552
-0.01777503
0.22147915
-0.018649074
0.22001543
-0.019441474
0.21866224
-0.020156056
0.21741728
-0.020797421
0.2162779
-0.021370874
0.21524119
-0.021882351
0.21430411
-0.022338359
0.21346363
-0.022745928
0.21271676
-0.023112565
0.2120607
-0.023446233
0.21149287
-0.023755344
0.21101101
-0.024048765
0.21061321
-0.024335865
0.21029799
-0.024626566
0.21006435
-0.024931436
0.20991176
-0.025261812
0.20984022
-0.025629919
0.20985031
-0.026049086
0.20994314
-0.026533727
0.21012037
-0.027100163
0.21038426
-0.027764777
0.21073722
-0.02855108
0.21118309
-0.0294696
0.2117229
-0.030584753
0.21236677
-0.031820111
0.21309926
-0.033565918
0.2139736
-0.03492605
0.21484391
-0.038768403
-0.039022554
0.29348746
0.014486658
-0.29480049
0.29202762
0.013123271
0.29032603
0.011547044
0.2884498
0.0099272338
0.28643407
0.0082984542
0.28428981
0.0066316904
0.28203552
0.0049265253
0.27969459
0.003203406
0.27728843
0.0014776539
0.27483723
-0.00024054809
0.2723614
-0.0019401501
0.26988096
-0.0036092602
0.26741444
-0.0052368008
0.26497867
-0.0068130911
0.26258865
-0.0083296589
0.26025746
-0.009779293
0.25799619
-0.011156175
0.25581403
-0.012455891
0.25371837
-0.013675393
0.25171494
-0.014812939
0.24980796
-0.015868046
0.2480003
-0.01684141
0.24629366
-0.017734834
0.24468874
-0.018551143
0.24318542
-0.019294102
0.24178289
-0.019968339
0.2404798
-0.020579264
0.23927445
-0.021133004
0.23816485
-0.021636335
0.23714892
-0.022096636
0.23622454
-0.022521853
0.23538968
-0.022920476
0.23464246
-0.023301546
0.23398127
-0.023674682
0.23340483
-0.024050123
0.23291221
-0.024438814
0.23250291
-0.024852512
0.23217689
-0.025303898
0.23193458
-0.025806774
0.2317769
-0.026376048
0.23170518
-0.027028447
0.23172133
-0.027780922
0.23182705
-0.028656802
0.23202569
-0.029668242
0.23231624
-0.030875307
0.23270986
-0.032213732
0.23318057
-0.034036627
0.23380047
-0.035545946
0.23435095
-0.039318883
-0.039909752