/*--------------------------------*- C++ -*----------------------------------*\
  =========                 |
  \\      /  F ield         | OpenFOAM: The Open Source CFD Toolbox
   \\    /   O peration     | Website:  https://openfoam.org
    \\  /    A nd           | Version:  6
     \\/     M anipulation  |
\*---------------------------------------------------------------------------*/
FoamFile
{
    version     2.0;
    format      ascii;
    class       volScalarField;
    location    "47";
    object      pPrime2Mean;
}
// * * * * * * * * * * * * * * * * * * * * * * * * * * * * * * * * * * * * * //

dimensions      [0 4 -4 0 0 0 0];

internalField   nonuniform List<scalar> 
9200
(
0.23603119
0.19535707
0.16093794
0.13856575
0.12074031
0.10574254
0.092821586
0.081596043
0.071812311
0.063266706
0.055789976
0.049239751
0.043495349
0.038453905
0.034027444
0.030140794
0.026730459
0.023743836
0.021144931
0.018891165
0.19059997
0.15736304
0.12958662
0.11136934
0.096790618
0.084497651
0.073899655
0.06469639
0.056685471
0.049702905
0.04361103
0.038292801
0.03364793
0.029590006
0.02604435
0.022946485
0.020241211
0.017881467
0.015825766
0.014015513
0.14801491
0.12192499
0.10038282
0.08607695
0.0745499
0.064794631
0.056373217
0.04906325
0.042712064
0.037193641
0.032399904
0.028236944
0.02462262
0.021484857
0.018760438
0.016394141
0.01433812
0.012550839
0.010991746
0.009606922
0.1094641
0.090005183
0.074101733
0.063352907
0.054599541
0.047148404
0.040702682
0.035112151
0.030270315
0.026085553
0.022475844
0.019367153
0.016692724
0.014392735
0.012414099
0.010710261
0.0092408677
0.0079708832
0.0068660246
0.0058854772
0.076019465
0.062469708
0.051457693
0.043815623
0.03748581
0.032047606
0.02732927
0.023244658
0.019727774
0.016716104
0.014148972
0.011968356
0.010120042
0.0085546379
0.007228258
0.0061027809
0.005145684
0.0043293346
0.003627976
0.0030145502
0.048625956
0.040073918
0.033084888
0.028018557
0.023700794
0.019935344
0.016655432
0.013828298
0.011420703
0.0093926003
0.0076993074
0.0062948851
0.0051350737
0.0041793947
0.0033923607
0.0027438774
0.0022090246
0.0017673926
0.0014013648
0.001094728
0.02807305
0.023443527
0.019522432
0.01643713
0.013670452
0.011197561
0.0090328784
0.0071840024
0.005641175
0.0043795315
0.0033650537
0.0025603161
0.0019287936
0.0014375508
0.0010585283
0.00076878175
0.00055006016
0.00038810777
0.00027179511
0.00019227759
0.014973622
0.013061078
0.011203149
0.0094581306
0.0077439929
0.0061519024
0.0047508633
0.003574211
0.0026257125
0.0018885186
0.0013344384
0.00093147562
0.00064884168
0.00045966019
0.00034194949
0.00027851837
0.00025630882
0.00026565622
0.00029985753
0.00035439883
0.0097466127
0.0092528461
0.0084367668
0.0073618773
0.0061776568
0.0050341794
0.0040254967
0.0031948618
0.0025496632
0.002074723
0.0017437745
0.0015277852
0.0013998645
0.0013374962
0.0013230159
0.0013431493
0.0013881888
0.001451242
0.0015279011
0.0016154721
0.012597237
0.012176075
0.011388638
0.01030129
0.0091148077
0.0079784114
0.0069796142
0.0061558227
0.0055092046
0.0050212205
0.0046645488
0.0044110167
0.0042356968
0.0041183701
0.0040435142
0.0039995972
0.0039782047
0.0039732978
0.0039807094
0.0039974307
0.56654733
0.47633056
0.39354694
0.3412249
0.29970218
0.26486996
0.23489579
0.20879088
0.18594328
0.16587191
0.14818363
0.13255293
0.1187072
0.10641602
0.095483236
0.085740939
0.077044719
0.069265394
0.062281839
0.056024119
0.55926632
0.46974377
0.38791417
0.33619684
0.29519752
0.26081216
0.23122456
0.20546233
0.18292067
0.1631232
0.14568057
0.13027047
0.11662303
0.1045102
0.093737949
0.084140283
0.075574672
0.067913806
0.061035966
0.054873707
0.54441909
0.45670363
0.37693414
0.32651038
0.28658242
0.25310273
0.22429435
0.19921559
0.17727775
0.15801606
0.14105038
0.12606591
0.11279903
0.10102704
0.090560516
0.081237512
0.072919339
0.065482387
0.058805466
0.052822703
0.52226767
0.43752815
0.36092468
0.3124667
0.27412982
0.24198918
0.21433214
0.19026037
0.16920925
0.15073211
0.13446319
0.12009937
0.1073867
0.096110625
0.08608861
0.077164678
0.069205532
0.062092886
0.055707904
0.049984646
0.4934193
0.41276271
0.34035022
0.29448136
0.25821293
0.2278085
0.20164451
0.17887722
0.15897315
0.14150947
0.12613958
0.11257587
0.1005772
0.089939671
0.080489786
0.072079166
0.064581067
0.057883766
0.051873719
0.046484038
0.45869839
0.38312911
0.31581268
0.2730849
0.23930478
0.21098493
0.18661385
0.16541205
0.14688333
0.13063378
0.11634007
0.10373351
0.092588529
0.082714235
0.073947992
0.066150471
0.059202351
0.052999116
0.047435785
0.042445861
0.4191047
0.34949219
0.2880239
0.24889883
0.21795651
0.19201052
0.16968102
0.15026072
0.13329594
0.11842593
0.10535412
0.093833683
0.083657095
0.074648517
0.066657905
0.059556344
0.053232751
0.047589914
0.042533856
0.038001646
0.37577669
0.31282893
0.25778252
0.22261618
0.19478001
0.17142925
0.15133123
0.1338567
0.11859866
0.10523293
0.093492567
0.083155019
0.074032955
0.06596744
0.058822663
0.052481586
0.046842557
0.041816102
0.037320896
0.033300605
0.32995063
0.27419274
0.22594626
0.19497772
0.17042721
0.14981936
0.13207874
0.11665783
0.10319933
0.0914182
0.081079313
0.071986311
0.063973716
0.056901028
0.050648108
0.045111293
0.040200118
0.035834617
0.031948672
0.028492497
0.28291596
0.23468448
0.19340226
0.16674106
0.14556034
0.12776541
0.11244162
0.099124126
0.087507138
0.077346283
0.068439536
0.060617792
0.053738327
0.047679908
0.042339
0.037626712
0.033466553
0.02979362
0.026562876
0.023724754
0.049415614
0.042818969
0.037216382
0.032343918
0.028173798
0.024595024
0.021511575
0.018841175
0.016516949
0.01448462
0.012700233
0.011128513
0.0097410342
0.0085145445
0.0074297239
0.0064702783
0.0056222581
0.004873554
0.0042135314
0.0036327642
0.0031228348
0.002676183
0.00228599
0.0019460882
0.0016508897
0.0013953304
0.0011748223
0.00098521463
0.00082275981
0.00068408259
0.00056615264
0.00046625839
0.00038198276
0.00031117947
0.00025195101
0.00020262662
0.00016174229
0.00012802024
0.00010035165
7.7775992e-05
5.9471797e-05
4.4721854e-05
3.2949063e-05
2.3577496e-05
1.6323976e-05
1.0514736e-05
6.5179837e-06
3.0256439e-06
4.1848059e-06
8.2168206e-06
0.048451888
0.042078737
0.036639672
0.031893016
0.027826062
0.024330356
0.021311012
0.018688987
0.016400936
0.01439542
0.012630868
0.011073963
0.0096977329
0.0084799322
0.0074019304
0.0064479064
0.0056042379
0.0048590464
0.0042018671
0.0036234026
0.0031153363
0.002670189
0.0022812081
0.0019422801
0.0016478619
0.001392926
0.0011729148
0.00098370252
0.00082156169
0.00068313355
0.00056540105
0.00046566327
0.00038151166
0.0003108067
0.00025165625
0.00020239378
0.00016155863
0.00012787565
0.00010023811
7.7687155e-05
5.9402637e-05
4.4668424e-05
3.2908364e-05
2.3547165e-05
1.6302743e-05
1.0500496e-05
6.5131673e-06
3.0190718e-06
4.1581727e-06
8.0508196e-06
0.046751177
0.040781343
0.035638871
0.031123339
0.027242207
0.02389358
0.020985811
0.018446313
0.016218732
0.01425724
0.012524749
0.010991468
0.0096329669
0.0084287217
0.0073612561
0.0064155309
0.0055784595
0.0048385398
0.0041855821
0.0036104975
0.0031051323
0.0026621374
0.0022748658
0.0019372907
0.0016439394
0.0013898423
0.0011704888
0.00098179122
0.00082005274
0.00068193914
0.0005644528
0.00046490807
0.00038090834
0.00031032337
0.00025126815
0.00020208162
0.00016130733
0.00012767334
0.00010007542
7.7556644e-05
5.929843e-05
4.4585856e-05
3.2843976e-05
2.3498109e-05
1.6267974e-05
1.0476857e-05
6.5060769e-06
3.0077308e-06
4.1043926e-06
7.7267589e-06
0.044414029
0.039002835
0.034281555
0.030099533
0.02647917
0.023330884
0.02057173
0.018139838
0.01598969
0.014084032
0.012392113
0.010888773
0.0095527978
0.0083658058
0.0073117432
0.0063765383
0.0055477781
0.0048144443
0.0041667065
0.0035957517
0.0030936438
0.0026532074
0.0022679365
0.0019319184
0.0016397736
0.0013866075
0.0011679701
0.0009798221
0.00081850512
0.00068071511
0.00056347791
0.00046412602
0.00038027661
0.00030980988
0.00025084859
0.0002017375
0.00016102441
0.00012744055
9.9884066e-05
7.7399795e-05
5.9170587e-05
4.4482603e-05
3.27621e-05
2.3434839e-05
1.6222755e-05
1.0446004e-05
6.4972915e-06
2.99296e-06
4.0230251e-06
7.2614408e-06
0.041543545
0.036823262
0.032639353
0.028889169
0.025595297
0.022687491
0.020101685
0.017792787
0.015729964
0.013887187
0.012241367
0.010772438
0.0094625943
0.008295727
0.0072573097
0.0063343335
0.0055151528
0.0047893204
0.0041474417
0.0035810444
0.0030824626
0.0026447377
0.0022615373
0.0019270891
0.0016361265
0.0013838446
0.0011658647
0.00097820355
0.00081724629
0.00067972235
0.00056268296
0.00046347962
0.00037974347
0.00030936483
0.00025047365
0.00020141973
0.00016075429
0.00012721092
9.9689351e-05
7.7235544e-05
5.9033205e-05
4.4369093e-05
3.2670372e-05
2.3362888e-05
1.6170851e-05
1.0410586e-05
6.4874213e-06
2.9764499e-06
3.9145356e-06
6.6794563e-06
0.038232709
0.034318362
0.030779313
0.02754942
0.024634674
0.021992963
0.019593595
0.01741593
0.015446533
0.013671822
0.012076788
0.010646373
0.0093660449
0.0082219583
0.0072011844
0.0062918729
0.0054832499
0.0047655391
0.0041298701
0.0035681839
0.0030731434
0.0026380518
0.0022567858
0.0019237389
0.0016337758
0.001382195
0.0011646979
0.00097736274
0.0008166212
0.00067923752
0.00056228832
0.00046314322
0.00037944592
0.00030909517
0.00025022624
0.00020119215
0.00016054579
0.00012702154
9.9519287e-05
7.7084908e-05
5.8901949e-05
4.4256927e-05
3.2577277e-05
2.3288392e-05
1.6116386e-05
1.0373464e-05
6.4769907e-06
2.9599845e-06
3.7800518e-06
6.0106464e-06
0.034574108
0.031565433
0.028762671
0.026116619
0.023612949
0.021250135
0.019044396
0.017005565
0.015137689
0.013438564
0.011900745
0.01051401
0.0092671
0.0081485725
0.007147306
0.0062528165
0.0054553792
0.0047460353
0.0041165546
0.0035593811
0.0030675733
0.0026347463
0.0022550213
0.0019229828
0.0016336435
0.0013824158
0.001165087
0.00097779978
0.0008170325
0.00067958275
0.00056255007
0.00046331912
0.00037954276
0.00030912471
0.00025020227
0.00020112855
0.0001604553
0.00012691518
9.9406094e-05
7.6971967e-05
5.8794668e-05
4.4159199e-05
3.2492274e-05
2.3218069e-05
1.6063776e-05
1.0337615e-05
6.4664628e-06
2.9452806e-06
3.6214496e-06
5.2873169e-06
0.030680605
0.028652985
0.026636904
0.024587313
0.022500228
0.020427259
0.018430409
0.016547519
0.014797408
0.013187178
0.011716423
0.01038022
0.0091712459
0.0080810427
0.0071007871
0.0062217506
0.0054355468
0.0047342429
0.0041103972
0.003557061
0.0030677605
0.0026364709
0.0022575895
0.0019259113
0.0016366078
0.0013852097
0.0011675912
0.00097995672
0.0008188274
0.00068102898
0.0005636782
0.00046416887
0.00038015733
0.00030954689
0.0002504719
0.00020128115
0.00016052133
0.00012691997
9.9370105e-05
7.6911283e-05
5.8721686e-05
4.4083166e-05
3.2420366e-05
2.3155332e-05
1.6015034e-05
1.0304374e-05
6.4552622e-06
2.9333671e-06
3.4412355e-06
4.5419302e-06
0.026659874
0.025625261
0.024359327
0.022854111
0.021178881
0.019428515
0.017682213
0.015992487
0.01439017
0.012891635
0.011504334
0.010230024
0.0090666819
0.0080099013
0.007053929
0.0061923559
0.0054185378
0.0047258491
0.0041078321
0.0035582807
0.0030712827
0.0026412378
0.002262864
0.0019311971
0.0016415878
0.0013896982
0.0011714972
0.00098325477
0.00082153644
0.00068319549
0.00056536398
0.00046544227
0.00038108705
0.00031019798
0.00025090322
0.0002015441
0.00016065943
0.00012696907
9.9358958e-05
7.6862355e-05
5.8652186e-05
4.4005853e-05
3.2344839e-05
2.3088428e-05
1.5962041e-05
1.0268624e-05
6.4393085e-06
2.92334e-06
3.2431712e-06
3.8076989e-06
0.022645887
0.022392414
0.021726099
0.020724499
0.019499847
0.018140475
0.016711834
0.015270338
0.013858726
0.012504896
0.011226019
0.010032151
0.0089280775
0.00791469
0.0069902589
0.0061514079
0.0053937671
0.0047124094
0.0041021468
0.0035577252
0.0030739481
0.0026457546
0.0022682691
0.0019368329
0.0016470246
0.0013946745
0.001175873
0.00098697608
0.00082460773
0.00068565865
0.00056728278
0.00046689097
0.00038214238
0.00031093373
0.00025138688
0.00020183499
0.00016080797
0.00012701688
9.9339374e-05
7.6801348e-05
5.8569521e-05
4.3915983e-05
3.2258385e-05
2.3012788e-05
1.5902136e-05
1.0228624e-05
6.4173771e-06
2.9146375e-06
3.0352608e-06
3.1189392e-06
0.018257962
0.018496881
0.018328382
0.017805008
0.017051564
0.016131702
0.015088252
0.013971267
0.012827388
0.011691143
0.010586835
0.0095316794
0.0085371187
0.0076098096
0.006752825
0.0059667083
0.0052502392
0.0046009908
0.0040157458
0.0034907966
0.003022159
0.0026057211
0.0022373506
0.001912971
0.0016286173
0.0013804772
0.0011649209
0.00097852322
0.00081807843
0.00068060982
0.00056337402
0.00046386117
0.00037979138
0.00030910807
0.00024996876
0.00020073381
0.00015995383
0.00012635567
9.8829037e-05
7.6409173e-05
5.8269906e-05
4.3689422e-05
3.208897e-05
2.2890846e-05
1.5815315e-05
1.017845e-05
6.3826862e-06
2.9078197e-06
2.8211561e-06
2.5131927e-06
0.014135484
0.014608048
0.014733945
0.0145448
0.014148166
0.013589266
0.012891306
0.012092646
0.011234819
0.010350577
0.0094647053
0.0085965883
0.0077607515
0.006967229
0.0062224264
0.005530001
0.0048915347
0.0043070579
0.0037754716
0.003294876
0.0028628187
0.0024764809
0.002132818
0.0018286679
0.0015608328
0.0013261432
0.0011215075
0.00094394988
0.00079063933
0.00065891047
0.000546278
0.0004504453
0.00036930803
0.00030095371
0.00024365766
0.00019587631
0.00015623824
0.00012353353
9.670282e-05
7.4822628e-05
5.7099362e-05
4.2838844e-05
3.1480796e-05
2.2470843e-05
1.5528878e-05
1.0009304e-05
6.2665649e-06
2.8755758e-06
2.556712e-06
1.9398837e-06
0.010601598
0.011209959
0.011540165
0.011610862
0.011494299
0.011223841
0.010812402
0.010287073
0.0096819648
0.0090261779
0.0083430809
0.0076522525
0.0069696084
0.0063072528
0.0056739414
0.0050757257
0.0045164847
0.0039983629
0.0035221548
0.0030876262
0.0026937719
0.0023390193
0.0020213911
0.0017386343
0.0014883234
0.0012679428
0.0010749526
0.00090684146
0.00076116794
0.0006355924
0.00052790089
0.00043602195
0.00035803744
0.00029218817
0.00023687523
0.00019065781
0.00015224819
0.00012050434
9.4421769e-05
7.3121446e-05
5.5844866e-05
4.1927744e-05
3.0829416e-05
2.2021313e-05
1.5221036e-05
9.8286588e-06
6.1360939e-06
2.8458953e-06
2.2741467e-06
1.4037435e-06
0.0076332299
0.008300656
0.0087538702
0.0090059371
0.0090948831
0.009043556
0.0088600101
0.0085617201
0.0081739518
0.0077206031
0.0072221899
0.0066968698
0.006160376
0.0056255676
0.005102509
0.0045988414
0.0041201408
0.0036702366
0.00325152
0.0028652243
0.0025116656
0.002190443
0.0019006071
0.0016407991
0.0014093659
0.0012044555
0.0010240956
0.00086625731
0.00072890779
0.00061005177
0.00050776415
0.00042021465
0.00034568557
0.00028258352
0.00022944614
0.00018494459
0.00014788258
0.00011719246
9.1929866e-05
7.126463e-05
5.4476854e-05
4.0935018e-05
3.0120202e-05
2.1531804e-05
1.4885285e-05
9.6307161e-06
5.9896749e-06
2.8147406e-06
1.994658e-06
9.4653193e-07
0.0052465093
0.0058979929
0.0063990142
0.0067558366
0.006979707
0.0070826127
0.0070691812
0.0069494546
0.0067400567
0.0064588143
0.0061223967
0.0057463899
0.0053450711
0.0049308587
0.0045141057
0.0041032034
0.003704755
0.0033237617
0.0029638303
0.0026273867
0.0023158756
0.0020299384
0.0017695705
0.0015342578
0.0013230942
0.0011348824
0.00096821904
0.00082156673
0.00069331393
0.00058182443
0.00048547731
0.00040269845
0.00033198461
0.00027192101
0.00022119325
0.00017859439
0.00014302812
0.00011350841
8.9157173e-05
6.9198084e-05
5.2954015e-05
3.9829534e-05
2.93302e-05
2.0985503e-05
1.4510117e-05
9.406817e-06
5.8231856e-06
2.7773611e-06
1.7302079e-06
5.9033574e-07
0.0034172258
0.0039952943
0.0044818968
0.0048760207
0.00517144
0.0053701405
0.0054729095
0.0054840075
0.0054126608
0.0052705861
0.0050700528
0.004823362
0.0045424602
0.0042383788
0.0039208665
0.0035982772
0.0032775744
0.0029643862
0.0026631053
0.0023770206
0.0021084587
0.0018589238
0.0016292289
0.0014196178
0.0012298753
0.0010594247
0.00090741394
0.00077279024
0.00065436447
0.00055086544
0.00046098523
0.00038341614
0.00031688018
0.00026015171
0.00021207415
0.00017157151
0.00013765545
0.00010942854
8.6084897e-05
6.6907087e-05
5.1264973e-05
3.8602545e-05
2.845283e-05
2.0377244e-05
1.4091976e-05
9.1534546e-06
5.635794e-06
2.7302021e-06
1.4896758e-06
3.434695e-07
0.0020866106
0.0025574979
0.0029854237
0.0033638846
0.0036778367
0.0039218928
0.0040928445
0.0041903334
0.0042177246
0.004181249
0.0040887374
0.0039488962
0.0037708343
0.00356355
0.0033354914
0.0030943033
0.002846699
0.0025984026
0.0023541489
0.0021177302
0.0018920713
0.00167932
0.0014809424
0.0012978197
0.0011303415
0.00097849273
0.00084193403
0.00072007425
0.00061213452
0.00051720441
0.00043429006
0.00036235474
0.00030035219
0.00024725345
0.00020206758
0.00016385709
0.00013174871
0.00010494
8.2702989e-05
6.4383954e-05
4.9403959e-05
3.7249725e-05
2.7484905e-05
1.9704441e-05
1.3629211e-05
8.8684909e-06
5.4279286e-06
2.6700229e-06
1.2786978e-06
2.0110457e-07
0.0011796075
0.0015300715
0.0018733767
0.002200059
0.0024925726
0.0027414002
0.0029401406
0.0030849489
0.0031748682
0.003211661
0.0031991325
0.0031424921
0.0030478743
0.0029218962
0.0027712451
0.0026023522
0.002421177
0.002233067
0.0020426779
0.0018539435
0.001670086
0.0014936528
0.0013265699
0.0011702062
0.0010254431
0.00089274364
0.00077222191
0.00066370728
0.00056680448
0.00048094783
0.00040544938
0.00033954067
0.0002824083
0.00023322345
0.00019116568
0.00015544154
0.00012529848
0.00010003455
7.9004683e-05
6.1623424e-05
4.7367039e-05
3.5768186e-05
2.6424381e-05
1.896548e-05
1.3120953e-05
8.5505785e-06
5.2006785e-06
2.5942296e-06
1.0989804e-06
1.463688e-07
0.00061690727
0.00084854782
0.0010968743
0.001351599
0.0015963463
0.0018202699
0.0020152157
0.0021751332
0.0022961968
0.0023768928
0.0024177417
0.0024208714
0.0023896265
0.0023282071
0.0022413223
0.0021338782
0.0020107207
0.0018764467
0.0017352693
0.0015909315
0.0014466594
0.0013051494
0.001168579
0.0010386357
0.00091655802
0.00080318329
0.00069899966
0.00060419873
0.00051872707
0.00044233512
0.00037462221
0.00031507713
0.0002631138
0.00021810195
0.00017939262
0.00014633907
0.00011831305
9.4717066e-05
7.499306e-05
5.8627634e-05
4.5155869e-05
3.4159289e-05
2.5272431e-05
1.8161268e-05
1.2568195e-05
8.200087e-06
4.9561491e-06
2.501717e-06
9.4898037e-07
1.5430963e-07
0.00032288669
0.00044688426
0.00060147372
0.00077698169
0.00095987423
0.0011398926
0.0013086055
0.0014590445
0.0015858276
0.0016853567
0.001755783
0.0017967944
0.0018093617
0.0017954836
0.0017579231
0.0016999473
0.0016250897
0.0015369457
0.0014390117
0.0013345633
0.0012265694
0.0011176389
0.0010099933
0.00090546206
0.000805494
0.00071118127
0.00062329137
0.00054230446
0.00046845316
0.00040176282
0.0003420907
0.00028916277
0.00024260736
0.00020198513
0.00016681498
0.00013659588
0.00011082478
8.9010569e-05
7.0684812e-05
5.5408969e-05
4.2779819e-05
3.2430232e-05
2.4034618e-05
1.7296094e-05
1.1974386e-05
7.8195185e-06
4.6974911e-06
2.3931542e-06
8.251009e-07
1.9747221e-07
0.00023067074
0.00026332575
0.00033291454
0.00043116116
0.00054782523
0.00067427276
0.00080289554
0.00092687992
0.0010403806
0.0011387796
0.001218791
0.0012784112
0.0013168033
0.0013341542
0.0013315057
0.0013105658
0.0012735173
0.0012228376
0.0011611377
0.0010910286
0.0010150149
0.00093541459
0.00085430364
0.00077348282
0.00069446265
0.00061846357
0.00054642755
0.00047903814
0.00041674642
0.00035980028
0.00030827528
0.00026210543
0.0002211128
0.00018503496
0.00015354964
0.00012629637
0.00010289479
8.2959649e-05
6.6112763e-05
5.1991844e-05
4.025722e-05
3.0594888e-05
2.2721459e-05
1.6377987e-05
1.1345654e-05
7.4136432e-06
4.4288514e-06
2.271007e-06
7.2307822e-07
2.5139962e-07
0.00028426307
0.00024357745
0.00024089438
0.00026960246
0.00032255847
0.00039312154
0.00047511307
0.00056259727
0.00065007051
0.00073274507
0.00080672148
0.00086904181
0.00091768103
0.00095150293
0.00097018167
0.00097409083
0.00096417231
0.00094179877
0.00090863899
0.00086653291
0.00081738307
0.00076306372
0.00070534931
0.00064586137
0.00058603306
0.00052708885
0.00047003721
0.00041567367
0.00036459208
0.00031720162
0.00027374769
0.00023433489
0.0001989508
0.00016748922
0.00013977215
0.0001155698
9.4618212e-05
7.6634388e-05
6.1328691e-05
4.8414661e-05
3.7616658e-05
2.8674613e-05
2.1348886e-05
1.5418919e-05
1.0690853e-05
6.989342e-06
4.1551484e-06
2.1391201e-06
6.3892812e-07
2.9844583e-07
0.00043861602
0.00034201194
0.0002811597
0.00025104065
0.00024711505
0.00026468057
0.00029917219
0.00034589422
0.00040018042
0.00045766582
0.00051447665
0.00056733273
0.00061360487
0.00065134266
0.0006792687
0.00069673766
0.00070366729
0.00070045133
0.00068786341
0.00066695813
0.00063897571
0.00060525536
0.00056715992
0.00052601392
0.00048305519
0.00043940004
0.00039602053
0.00035373288
0.00031319474
0.00027490997
0.00023923886
0.00020641235
0.00017654859
0.00014967074
0.00012572487
0.00010459713
8.6129642e-05
7.0134611e-05
5.6406504e-05
4.4732083e-05
3.4898517e-05
2.6699222e-05
1.9938815e-05
1.4435053e-05
1.0021633e-05
6.5554518e-06
3.8819621e-06
2.0022545e-06
5.6946588e-07
3.2915616e-07
0.00065861257
0.00052163279
0.00041634228
0.00033907165
0.00028729694
0.00025797807
0.00024806536
0.00025417577
0.00027270001
0.00030003558
0.00033276101
0.00036774759
0.00040224493
0.00043394926
0.00046104602
0.00048222174
0.00049664787
0.00050394244
0.00050411568
0.00049750476
0.00048470293
0.00046648817
0.00044375575
0.00041745719
0.00038854816
0.00035794589
0.00032649679
0.00029495351
0.00026396104
0.00023405035
0.00020563861
0.00017903426
0.00015444601
0.00013199422
0.00011172377
9.3617337e-05
7.7608582e-05
6.3594347e-05
5.1445732e-05
4.101765e-05
3.2156849e-05
2.4708235e-05
1.8519907e-05
1.3447113e-05
9.3525631e-06
6.1225838e-06
3.6154302e-06
1.8655548e-06
5.1231505e-07
3.4131004e-07
0.00091757045
0.00075331208
0.00061593128
0.00050281454
0.00041288734
0.00034441392
0.00029561343
0.00026429923
0.00024793074
0.00024379617
0.0002491534
0.00026132659
0.00027779205
0.0002962595
0.00031473842
0.0003315821
0.0003455088
0.00035560255
0.00036129626
0.00036234034
0.0003587605
0.00035080862
0.00033891096
0.00032361679
0.00030555033
0.00028536804
0.00026372221
0.00024123206
0.00021846195
0.00019590669
0.00017398313
0.00015302715
0.00013329512
0.00011496876
9.8162411e-05
8.2931857e-05
6.9283875e-05
5.7185848e-05
4.657495e-05
3.7366533e-05
2.9461479e-05
2.275241e-05
1.7128608e-05
1.2481011e-05
8.7014776e-06
5.7031678e-06
3.3623694e-06
1.7342644e-06
4.6579884e-07
3.3757118e-07
0.0011956644
0.0010146933
0.00085572138
0.00071691859
0.00059817535
0.00049870624
0.00041770359
0.00035396509
0.00030590045
0.00027166528
0.00024926366
0.00023661871
0.00023164242
0.0002323107
0.00023673346
0.00024321165
0.00025027899
0.00025672831
0.00026162289
0.00026429355
0.00026432336
0.00026152235
0.00025589525
0.00024760507
0.00023693536
0.00022425325
0.00020997534
0.00019453757
0.00017837022
0.00016187805
0.00014542595
0.00012932947
0.00011384987
9.9192898e-05
8.5510608e-05
7.2905415e-05
6.1435657e-05
5.1122014e-05
4.1954245e-05
3.3897792e-05
2.6899914e-05
2.0895236e-05
1.5810253e-05
1.1568579e-05
8.0899334e-06
5.3116245e-06
3.1304805e-06
1.6136088e-06
4.2881863e-07
3.2284023e-07
0.0014784855
0.0012890182
0.0011169992
0.00096115996
0.00082197587
0.00069930622
0.00059303305
0.000502699
0.00042748332
0.00036629504
0.000317841
0.00028066897
0.00025321526
0.00023386319
0.00022100396
0.00021309217
0.00020869355
0.00020652337
0.00020547461
0.00020463489
0.00020329235
0.00020093126
0.00019721916
0.00019198718
0.00018520584
0.00017695829
0.00016741287
0.00015679665
0.00014537119
0.00013341155
0.00012118885
0.0001089569
9.6942465e-05
8.5339281e-05
7.4304996e-05
6.3960777e-05
5.4392882e-05
4.5655663e-05
3.7775493e-05
3.0755148e-05
2.4578292e-05
1.9213872e-05
1.4619869e-05
1.0748197e-05
7.5436632e-06
4.9646495e-06
2.9286578e-06
1.5089052e-06
4.0089392e-07
3.021926e-07
0.0017558137
0.0015640218
0.0013856485
0.0012198214
0.0010673234
0.00092841737
0.0008034346
0.00069243864
0.0005951841
0.0005111794
0.00043972798
0.00037994812
0.00033079902
0.00029111974
0.00025967462
0.0002351987
0.00021644108
0.00020220457
0.00019138015
0.00018297427
0.00017612822
0.00017012907
0.00016441269
0.00015855948
0.00015228413
0.00014542078
0.00013790506
0.00012975457
0.00012104909
0.00011191166
0.00010249144
9.2948939e-05
8.3443959e-05
7.4126296e-05
6.5129199e-05
5.6565269e-05
4.8524495e-05
4.1073993e-05
3.4259067e-05
2.8105187e-05
2.2620516e-05
1.7798818e-05
1.3622136e-05
1.0064881e-05
7.09271e-06
4.6813578e-06
2.7671903e-06
1.4257194e-06
3.8223148e-07
2.7972416e-07
0.0020206182
0.0018309645
0.0016512876
0.0014809949
0.0013209871
0.0011717536
0.0010338876
0.00090778589
0.00079360073
0.00069128151
0.00060059724
0.00052113974
0.00045233244
0.00039345148
0.00034365476
0.00030201386
0.00026754745
0.00023925507
0.00021614984
0.00019728809
0.00018179452
0.0001688819
0.00015786473
0.00014816674
0.00013932264
0.00013097455
0.00012286431
0.0001148224
0.00010675492
9.8629377e-05
9.0460481e-05
8.2296653e-05
7.4207822e-05
6.6274969e-05
5.8581596e-05
5.1207176e-05
4.4222492e-05
3.768667e-05
3.1645651e-05
2.6131843e-05
2.1164629e-05
1.6751602e-05
1.2889956e-05
9.5694385e-06
6.770967e-06
4.4831047e-06
2.6577558e-06
1.3699848e-06
3.7376042e-07
2.5821677e-07
0.0022682628
0.0020838228
0.0019064978
0.0017358958
0.001572915
0.0014181491
0.0012723173
0.001136005
0.0010096148
0.00089339522
0.00078745127
0.00069173707
0.00060605294
0.00053005286
0.00046325931
0.00040508189
0.0003548393
0.00031178376
0.00027512727
0.00024406772
0.00021781386
0.00019560755
0.00017674261
0.00016057945
0.00014655516
0.00013418904
0.00012308383
0.00011292313
0.00010346579
9.4537875e-05
8.6023259e-05
7.7853385e-05
6.9997052e-05
6.2450708e-05
5.5229685e-05
4.8360651e-05
4.1875428e-05
3.5806177e-05
3.0181903e-05
2.502613e-05
2.0355586e-05
1.6179791e-05
1.2501079e-05
9.3162722e-06
6.6148087e-06
4.3927347e-06
2.6130366e-06
1.3479369e-06
3.7701877e-07
2.3929939e-07
0.0024958827
0.0023186294
0.0021461606
0.0019782343
0.0018156754
0.0016591031
0.0015092706
0.0013668473
0.001232374
0.0011062829
0.00098890115
0.00088043872
0.00078097861
0.00069047499
0.00060875762
0.00053553955
0.00047042857
0.0004129419
0.00036252401
0.00031856626
0.00028042758
0.00024745479
0.00021900192
0.00019444736
0.00017320842
0.00015475249
0.00013860495
0.00012435348
0.00011164926
0.0001002053
8.9792477e-05
8.0233893e-05
7.1398049e-05
6.3191517e-05
5.5551528e-05
4.8438916e-05
4.1831704e-05
3.5719534e-05
3.0099045e-05
2.4970209e-05
2.0333613e-05
1.6188651e-05
1.2532282e-05
9.3594368e-06
6.6605328e-06
4.4330622e-06
2.6458552e-06
1.3657874e-06
3.9390016e-07
2.2379432e-07
0.0027018959
0.0025329396
0.0023669029
0.0022036617
0.0020439316
0.0018883105
0.0017375279
0.0015922672
0.0014531271
0.0013206362
0.0011952526
0.0010773513
0.00096721015
0.00086500404
0.00077080159
0.00068456559
0.00060615603
0.00053533637
0.00047178331
0.000415099
0.00036482561
0.00032046103
0.00028147534
0.00024732698
0.00021747803
0.00019140778
0.00016862424
0.00014867307
0.00013114399
0.00011567444
0.00010195087
8.9707885e-05
7.8725542e-05
6.8825438e-05
5.9865837e-05
5.1736373e-05
4.435264e-05
3.7650997e-05
3.1583787e-05
2.6115157e-05
2.1217547e-05
1.6868934e-05
1.3050633e-05
9.7466007e-06
6.9403558e-06
4.6243974e-06
2.7677255e-06
1.4290731e-06
4.2627494e-07
2.1203865e-07
0.0028856186
0.0027254036
0.0025666384
0.0024092973
0.0022539737
0.002101219
0.0019517067
0.001806091
0.0016649756
0.0015289236
0.001398457
0.0012740433
0.0011560828
0.0010448988
0.00094073197
0.00084373511
0.00075397111
0.00067141274
0.0005959457
0.00052737429
0.00046542946
0.00040977908
0.00036003979
0.00031578983
0.00027658248
0.0002419591
0.00021146153
0.00018464315
0.00016107826
0.00014036949
0.00012215326
0.00010610302
9.1930763e-05
7.9386732e-05
6.8257787e-05
5.8364709e-05
4.9558782e-05
4.171796e-05
3.47429e-05
2.8553119e-05
2.3083424e-05
1.828082e-05
1.4101774e-05
1.0510781e-05
7.4768288e-06
4.9810101e-06
2.9867612e-06
1.5416497e-06
4.7551573e-07
2.0409324e-07
0.003046946
0.0028954048
0.0027441714
0.0025933071
0.0024432835
0.0022945958
0.0021478463
0.002003637
0.0018625442
0.0017251262
0.0015919217
0.001463439
0.0013401438
0.0012224496
0.0011107102
0.0010052124
0.00090617052
0.0008137221
0.00072792628
0.00064876414
0.00057614135
0.00050989307
0.00044979082
0.00039555102
0.00034684497
0.00030330949
0.0002645581
0.00023019187
0.00019980976
0.00017301789
0.00014943751
0.00012871136
0.00011050853
9.4527542e-05
8.0498008e-05
6.8180896e-05
5.7367671e-05
4.7878555e-05
3.9560165e-05
3.2282785e-05
2.5937489e-05
2.0433346e-05
1.5694714e-05
1.165949e-05
8.2754332e-06
5.5063788e-06
3.3048652e-06
1.7042981e-06
5.4192773e-07
1.998302e-07
0.0031861225
0.0030427976
0.0028989052
0.0027545881
0.0026102036
0.00246619
0.0023230756
0.0021814006
0.0020416976
0.0019044968
0.0017703247
0.0016396952
0.0015130993
0.0013909966
0.0012738073
0.0011619046
0.0010556073
0.00095517369
0.00086079687
0.0007726013
0.00069064148
0.00061490248
0.00054530221
0.00048169579
0.00042388143
0.00037160787
0.00032458282
0.00028248221
0.00024495969
0.00021165602
0.00018220799
0.00015625653
0.00013345371
0.00011346857
9.5991514e-05
8.0737447e-05
6.7447619e-05
5.5890324e-05
4.5860654e-05
3.7179478e-05
2.9691875e-05
2.3265262e-05
1.7787236e-05
1.3164054e-05
9.3171113e-06
6.1883105e-06
3.7148074e-06
1.9132688e-06
6.2419738e-07
1.9896359e-07
0.0033034392
0.003167565
0.0030304627
0.0028923538
0.0027534928
0.0026142659
0.0024751323
0.0023365702
0.0021990629
0.002063102
0.0019291859
0.0017978132
0.0016694746
0.0015446452
0.0014237775
0.0013072944
0.0011955806
0.0010889766
0.00098777172
0.00089219918
0.00080243152
0.00071857819
0.00064068419
0.00056873082
0.00050263776
0.00044226707
0.00038742849
0.00033788617
0.00029336618
0.00025356488
0.00021815737
0.00018680605
0.00015916868
0.00013490584
0.00011368736
9.519786e-05
7.9141001e-05
6.5242633e-05
5.3252826e-05
4.2946885e-05
3.4125501e-05
2.6614249e-05
2.026248e-05
1.4942418e-05
1.0546243e-05
6.9909959e-06
4.1954317e-06
2.1577622e-06
7.1841797e-07
2.0088739e-07
0.0033992196
0.0032697865
0.0031386342
0.0030060651
0.0028722427
0.0027375088
0.0026022622
0.0024669253
0.0023319342
0.0021977401
0.0020648075
0.0019336099
0.0018046232
0.0016783198
0.0015551622
0.0014355964
0.0013200447
0.0012088986
0.0011025121
0.001001195
0.00090520745
0.00081475499
0.00072998486
0.00065098397
0.00057777783
0.00051033162