/*--------------------------------*- C++ -*----------------------------------*\
  =========                 |
  \\      /  F ield         | OpenFOAM: The Open Source CFD Toolbox
   \\    /   O peration     | Website:  https://openfoam.org
    \\  /    A nd           | Version:  6
     \\/     M anipulation  |
\*---------------------------------------------------------------------------*/
FoamFile
{
    version     2.0;
    format      ascii;
    class       volVectorField;
    location    "47";
    object      UMean;
}
// * * * * * * * * * * * * * * * * * * * * * * * * * * * * * * * * * * * * * //

dimensions      [0 1 -1 0 0 0 0];

internalField   nonuniform List<vector> 
9200
(
(0.0039654092 -0.00082042705 -6.6881829e-20)
(0.023395556 -0.0091129149 5.6200182e-20)
(0.055430801 -0.017042604 -4.4583264e-20)
(0.097220039 -0.024502615 -7.3144259e-20)
(0.14656788 -0.031411634 2.2304254e-20)
(0.2020293 -0.037358418 3.9786774e-20)
(0.26234436 -0.042079006 -1.4803448e-20)
(0.32634654 -0.045463577 1.1239514e-20)
(0.39295082 -0.047488653 2.1610618e-20)
(0.46112439 -0.048191803 1.9111876e-21)
(0.52986564 -0.047660593 -2.7865818e-20)
(0.59819955 -0.046021154 2.6603301e-20)
(0.66518534 -0.043426593 -5.1636536e-20)
(0.72993323 -0.040045451 -2.7513091e-20)
(0.79162785 -0.036049734 7.692229e-21)
(0.84955474 -0.031605133 -3.3025943e-20)
(0.90314142 -0.026849708 3.3309959e-20)
(0.95206918 -0.021757223 2.9985246e-20)
(0.99610287 -0.01621106 -1.3886142e-22)
(1.0328812 -0.013318205 -1.3472641e-21)
(0.0090314893 -0.0038651339 -1.9254795e-20)
(0.038955631 -0.016606304 4.7660259e-20)
(0.082211134 -0.026611493 2.6316311e-20)
(0.13552099 -0.034468094 -1.3739285e-19)
(0.19638831 -0.040537887 -1.4820423e-20)
(0.26309685 -0.044670767 8.8976085e-20)
(0.33410725 -0.046828549 -4.3039454e-20)
(0.40796804 -0.047108233 -1.0470963e-20)
(0.48331252 -0.045672677 4.2997227e-20)
(0.55884072 -0.042729919 -5.4691403e-20)
(0.63331314 -0.038525507 -3.9155768e-20)
(0.70556299 -0.033331394 9.3319393e-20)
(0.77452022 -0.027433284 4.9282255e-20)
(0.83924169 -0.021118439 -8.8017871e-20)
(0.89894243 -0.014665478 1.8930401e-20)
(0.95302244 -0.0083396787 -4.757602e-20)
(1.0010967 -0.0023805651 -1.8513708e-20)
(1.0430773 0.0030671945 9.1565466e-20)
(1.0790407 0.007641743 4.165114e-20)
(1.1075135 0.0084622412 -9.1130015e-20)
(0.015556683 -0.0067305569 3.998611e-20)
(0.058322859 -0.023300079 1.7034605e-21)
(0.11453326 -0.034508225 2.3929612e-20)
(0.18055046 -0.041755033 1.1462634e-21)
(0.25359382 -0.045927606 -4.5802645e-20)
(0.33165931 -0.047202056 2.30339e-20)
(0.41290585 -0.045826691 1.5131266e-20)
(0.49558154 -0.042162156 -6.1290907e-20)
(0.57803988 -0.036608181 7.093915e-20)
(0.65874296 -0.029584727 1.9039185e-20)
(0.73627721 -0.021524386 -6.9498013e-20)
(0.80938511 -0.01285817 -2.386513e-20)
(0.8770025 -0.0039987292 1.0275497e-20)
(0.93829335 0.0046753599 2.9910148e-20)
(0.99267514 0.012832185 -1.4359326e-20)
(1.039829 0.020193407 3.5232634e-20)
(1.0796975 0.026545191 -2.5904735e-20)
(1.1124979 0.031782316 -8.6770965e-20)
(1.1385904 0.035685475 -2.6268474e-20)
(1.1573753 0.03650565 5.7620911e-20)
(0.023615872 -0.0091556676 2.6070805e-20)
(0.081549602 -0.028475466 5.6950465e-20)
(0.15227898 -0.039672804 2.2677063e-20)
(0.23189409 -0.045077696 1.6262014e-20)
(0.31735895 -0.046184646 2.1185239e-20)
(0.40637853 -0.043563825 -5.705264e-20)
(0.49681212 -0.037811271 -3.1204664e-20)
(0.58663081 -0.02960352 0)
(0.67396377 -0.019616152 2.0777445e-20)
(0.75713011 -0.00850274 -9.5100132e-21)
(0.83467787 0.0031159837 -1.2212833e-19)
(0.90542927 0.01467118 -1.8941666e-20)
(0.96851924 0.025666305 8.2066735e-20)
(1.0234181 0.035693527 4.6686589e-22)
(1.0699333 0.044443875 -1.948801e-21)
(1.1081874 0.051709429 2.6972415e-20)
(1.1385771 0.057385105 -5.832348e-21)
(1.1617345 0.061493757 -7.4636298e-20)
(1.1783998 0.064044663 -5.5968558e-20)
(1.1887094 0.064117206 7.8204096e-20)
(0.033207896 -0.010849042 -3.5631982e-21)
(0.10845499 -0.031369426 -3.7243275e-21)
(0.19493492 -0.04102936 6.3010664e-20)
(0.28858746 -0.043190451 2.2350868e-20)
(0.38617487 -0.040029716 -3.8930172e-20)
(0.48513951 -0.032576202 1.3257555e-20)
(0.58308858 -0.021826497 3.1973729e-21)
(0.67779888 -0.0088082793 4.2212223e-20)
(0.76729973 0.0055143796 7.0061543e-21)
(0.849933 0.020267532 -1.7467183e-20)
(0.92440618 0.03468209 7.6506027e-20)
(0.98983456 0.048115035 -7.0843395e-20)
(1.0457597 0.060067455 -1.6253475e-19)
(1.0921383 0.070193154 -6.8156681e-21)
(1.1293016 0.078296408 1.0042244e-19)
(1.1578892 0.084318998 0)
(1.1787684 0.088323956 1.2714743e-20)
(1.1929558 0.090496167 -1.7972538e-20)
(1.2014989 0.091033796 -1.0828884e-20)
(1.2050316 0.089519308 2.3602581e-20)
(0.044237976 -0.011501443 -4.1116703e-21)
(0.13860293 -0.031221995 4.754328e-21)
(0.24159989 -0.037576847 -9.7331417e-21)
(0.34918057 -0.035026339 3.0942192e-20)
(0.45799835 -0.026484906 -3.4947419e-20)
(0.56531065 -0.013489281 -2.0067384e-20)
(0.66858162 0.0025346769 4.094546e-20)
(0.76554524 0.020207297 4.7954073e-21)
(0.85432237 0.038306337 -3.1981847e-20)
(0.93349691 0.0557984 8.4993959e-20)
(1.0021629 0.071852683 -5.3280143e-22)
(1.0599389 0.085855344 -9.8179983e-20)
(1.1069422 0.097413494 0)
(1.1437251 0.10634371 4.6939218e-20)
(1.1711825 0.11264649 6.322152e-21)
(1.1904421 0.11647002 -9.0574121e-20)
(1.2027529 0.1180724 -2.2966192e-20)
(1.2093898 0.11779943 -1.4199505e-20)
(1.2115517 0.11598962 -1.7036063e-20)
(1.2100944 0.11252855 4.6285545e-20)
(0.056507157 -0.010808142 -1.7396761e-20)
(0.1712928 -0.02733687 -6.1911287e-21)
(0.29100484 -0.028478673 3.1680064e-20)
(0.4118108 -0.019804676 3.8231452e-20)
(0.5303966 -0.0049834065 -2.2359685e-20)
(0.6439721 0.013925879 -8.1607856e-20)
(0.75003318 0.035081888 -3.4564998e-20)
(0.84648438 0.056802878 9.4034623e-20)
(0.93177514 0.077692542 1.1619762e-20)
(1.0049692 0.096669087 -2.9137216e-20)
(1.0657584 0.11296612 1.5498663e-20)
(1.1144234 0.12612549 -5.2876379e-21)
(1.1517461 0.13597251 0)
(1.1788862 0.14257273 3.1966006e-20)
(1.1972419 0.14617598 -9.2331523e-20)
(1.2083112 0.14715541 -3.6554398e-20)
(1.2135727 0.14595193 9.2962738e-20)
(1.2143962 0.14303803 -6.0171896e-21)
(1.2119744 0.13883553 3.7488044e-21)
(1.2071798 0.13340493 3.154666e-20)
(0.069708524 -0.008497345 -3.3042275e-20)
(0.2055709 -0.019153065 -8.9289942e-20)
(0.34156522 -0.013157597 -1.1294406e-21)
(0.47431365 0.0028719692 8.0117606e-20)
(0.60072545 0.024553903 7.1289191e-20)
(0.71815948 0.049343508 -7.9779164e-20)
(0.82437394 0.075055319 1.8129577e-21)
(0.917696 0.099814634 1.0246257e-19)
(0.99715096 0.12218817 5.7462902e-20)
(1.0624955 0.14119601 -6.4407446e-20)
(1.1141712 0.15628208 -1.086279e-19)
(1.1531947 0.16726851 -3.6940066e-21)
(1.1810033 0.17428947 4.8965888e-20)
(1.1992815 0.17770969 -7.3590999e-21)
(1.2097942 0.17803899 -1.4146519e-20)
(1.2142453 0.17585311 2.1430502e-20)
(1.2141749 0.17173083 4.9700926e-20)
(1.2109001 0.16621602 -4.884795e-20)
(1.20549 0.15975593 -1.1516685e-19)
(1.1987117 0.15250428 2.8529545e-20)
(0.083397967 -0.0043607103 -3.8167909e-20)
(0.24019315 -0.0063188833 -1.8060295e-19)
(0.39135772 0.0086270907 9.515807e-20)
(0.53422678 0.032965921 1.053397e-19)
(0.66616772 0.061711947 6.5006524e-20)
(0.78493353 0.09193528 1.0029835e-20)
(0.88880681 0.1212413 -1.2191944e-19)
(0.97679104 0.14772823 0)
(1.0487009 0.17010365 -8.1402525e-20)
(1.105132 0.18765843 -1.7980504e-20)
(1.1473371 0.20018763 6.330657e-20)
(1.1770438 0.20789229 1.2478261e-20)
(1.1962458 0.21126597 -5.1945258e-20)
(1.2070029 0.21097782 -5.527158e-20)
(1.2112748 0.2077669 2.7963412e-20)
(1.2108038 0.20235793 5.117594e-20)
(1.2070502 0.19540478 -6.2820526e-20)
(1.2011757 0.18746273 -1.2014487e-19)
(1.1940627 0.17895589 -2.8420596e-21)
(1.1863209 0.17008319 2.9868282e-20)
(0.09697806 0.0017334491 -5.2308784e-21)
(0.2736339 0.011300179 9.5369105e-20)
(0.4381638 0.036791896 -8.9727144e-21)
(0.58888206 0.070036643 -9.8459211e-20)
(0.72387189 0.10563308 5.156733e-20)
(0.84154337 0.14044116 5.3368531e-20)
(0.94095704 0.17205939 6.4093131e-21)
(1.0220041 0.19877356 -1.1401552e-19)
(1.0854287 0.21963234 -2.8861591e-21)
(1.1327169 0.23436075 5.8090675e-20)
(1.1658955 0.2432163 6.812595e-21)
(1.187291 0.24683292 -2.2746714e-20)
(1.1992934 0.24606504 -8.5562956e-20)
(1.2041602 0.24184771 -6.7074632e-21)
(1.2038788 0.23508702 4.8537121e-20)
(1.2000943 0.22658695 4.1055871e-20)
(1.1940934 0.21701171 2.1425019e-20)
(1.1868318 0.2068764 -6.0044083e-20)
(1.1789909 0.19654922 1.2701218e-20)
(1.1710165 0.18624974 9.0250408e-20)
(-0.0014364407 0.0015181631 4.5857656e-23)
(-0.0048128795 0.0032036683 1.2705357e-21)
(-0.010867143 0.0039722982 4.8513326e-21)
(-0.017362724 0.0041415237 3.1930317e-21)
(-0.023466092 0.0038996173 -5.3432334e-21)
(-0.028754393 0.0033765938 5.4650697e-21)
(-0.03294686 0.0026666111 -1.3150828e-20)
(-0.035879154 0.0018362018 -1.1248967e-20)
(-0.037474732 0.00093177115 1.8744188e-20)
(-0.037711429 -1.4457262e-05 -1.5639067e-20)
(-0.036600246 -0.00098038284 -2.1940438e-22)
(-0.034172484 -0.0019511501 5.7159614e-21)
(-0.030470978 -0.0029169949 -8.2154346e-22)
(-0.025544113 -0.0038715768 3.3035837e-20)
(-0.019442193 -0.0048105144 1.7255209e-22)
(-0.012217041 -0.0057298303 -5.7501853e-20)
(-0.0039247869 -0.0066252112 1.0897256e-20)
(0.0053824603 -0.007494713 3.2324394e-20)
(0.015686703 -0.0083369442 -5.8808059e-20)
(0.026913489 -0.0090989717 -3.6738473e-20)
(-0.0017942036 0.0044035414 -6.7335391e-21)
(-0.0053757618 0.0092605043 6.0234894e-21)
(-0.011048653 0.011451179 -1.1527363e-20)
(-0.016780966 0.011895264 1.1397198e-20)
(-0.021853936 0.011140555 1.2970213e-20)
(-0.025902622 0.0095678237 1.5818425e-21)
(-0.028686994 0.007452952 -4.3854357e-20)
(-0.030072101 0.0049908653 -3.2365155e-21)
(-0.030001033 0.0023175917 3.2997735e-20)
(-0.028464485 -0.00047237143 -7.9776529e-21)
(-0.025481863 -0.0033141927 -3.3497112e-20)
(-0.021089861 -0.006164273 7.3069693e-21)
(-0.015334702 -0.0089939447 3.2109664e-20)
(-0.0082667566 -0.011784586 1.4763533e-20)
(6.3181536e-05 -0.014523355 3.1504338e-20)
(0.0096032537 -0.017198823 -2.7414554e-20)
(0.020290129 -0.019798796 -2.9274219e-20)
(0.032056235 -0.022316824 2.9526703e-20)
(0.044955463 -0.024737753 3.5117787e-20)
(0.059192487 -0.02688192 1.9562202e-20)
(-0.0024291571 0.0068437219 -5.4903111e-21)
(-0.0063173587 0.014293789 -2.1776078e-21)
(-0.011178263 0.017585141 -7.878087e-22)
(-0.015371361 0.018139515 -4.1833972e-21)
(-0.018395756 0.016809967 1.0419036e-20)
(-0.01999841 0.014198203 1.5940662e-20)
(-0.020018484 0.010741278 -6.6868014e-21)
(-0.018378279 0.0067483402 -2.9674245e-20)
(-0.015059726 0.0024356687 1.0329281e-20)
(-0.01007971 -0.0020460899 1.9805524e-20)
(-0.0034755745 -0.0065933146 9.4779494e-21)
(0.0047034845 -0.011136135 2.5723512e-20)
(0.014402225 -0.015628556 2.4787735e-21)
(0.025563461 -0.020040901 -4.6614392e-20)
(0.038131725 -0.024352856 2.7226722e-21)
(0.05205154 -0.028546879 -2.8087468e-20)
(0.067244437 -0.032606565 -3.4495211e-20)
(0.08360975 -0.036523684 6.2589037e-20)
(0.10131542 -0.040243723 3.4745365e-20)
(0.12109741 -0.043383805 1.6975105e-21)
(-0.0032010554 0.0086008207 -7.2817673e-21)
(-0.007325604 0.017750484 -2.048944e-20)
(-0.010880321 0.021643076 4.8954495e-21)
(-0.012754908 0.022053366 6.487434e-21)
(-0.012746265 0.020056847 2.471442e-21)
(-0.01075821 0.016429993 1.324752e-20)
(-0.0067428257 0.011739043 1.559444e-20)
(-0.00070551849 0.0063850262 -2.4825254e-21)
(0.0073135376 0.00064951487 -1.7644785e-20)
(0.017256203 -0.0052706018 -4.3486382e-20)
(0.029054763 -0.011239385 5.0496788e-22)
(0.042636396 -0.017164859 5.7991852e-20)
(0.057926606 -0.022986505 -2.4564176e-20)
(0.074850719 -0.028665261 -1.6963355e-20)
(0.093337548 -0.034175307 -5.614031e-22)
(0.11331796 -0.039496487 4.4064453e-20)
(0.13468899 -0.044615347 -2.1989748e-20)
(0.15729631 -0.049532699 -6.9516137e-20)
(0.18141605 -0.054134219 5.7777318e-20)
(0.20851532 -0.057719731 4.252757e-20)
(-0.0039252446 0.0095212456 3.1259816e-22)
(-0.0079799688 0.019258664 -1.5820168e-20)
(-0.0096345189 0.023121356 -5.2751853e-20)
(-0.0083906848 0.023064306 -1.138193e-20)
(-0.0043944635 0.020286876 -2.4892444e-21)
(0.0022603248 0.01568364 1.0315512e-20)
(0.011481385 0.0099100609 -8.1982121e-21)
(0.02315731 0.0034305194 -1.3938115e-20)
(0.037170405 -0.0034278046 3.2114741e-20)
(0.053404141 -0.01043531 6.7623984e-21)
(0.071745015 -0.017432721 -3.7521995e-20)
(0.092081206 -0.024311722 1.4797474e-20)
(0.11430241 -0.031000806 0)
(0.13829972 -0.037454683 1.6396446e-20)
(0.16396811 -0.043645312 -1.3003689e-20)
(0.19120622 -0.049554611 -1.9681069e-20)
(0.21987155 -0.055181652 8.5120952e-22)
(0.24973447 -0.060557347 -3.9551953e-21)
(0.28112984 -0.065512698 5.5216581e-20)
(0.31636926 -0.068905482 -1.6828679e-20)
(-0.0043952623 0.0095453686 -8.7157841e-21)
(-0.0077924131 0.018654954 3.3601282e-20)
(-0.0068130174 0.021787244 -1.6481243e-20)
(-0.0015987993 0.020905661 -3.8658373e-20)
(0.0073321262 0.01723168 -3.5865201e-20)
(0.019675044 0.011717147 -2.1505959e-20)
(0.03517732 0.0050620889 -1.6272209e-21)
(0.053602017 -0.0022387186 8.1358042e-21)
(0.074735848 -0.0098355341 2.7382788e-20)
(0.098385547 -0.01748181 1.0239869e-20)
(0.12437067 -0.025006262 -9.6148643e-21)
(0.1525191 -0.03229233 -1.7743686e-21)
(0.18266255 -0.039263517 -5.1874959e-20)
(0.21463333 -0.045872849 -1.6985577e-20)
(0.2482656 -0.0520944 2.6634303e-20)
(0.28339718 -0.057917577 -2.8838543e-20)
(0.31982307 -0.063363605 -1.1745469e-20)
(0.35721773 -0.068520098 3.6912484e-20)
(0.39590186 -0.073203425 6.1385927e-20)
(0.43903828 -0.075742706 4.5643528e-21)
(-0.0044021335 0.0087002526 1.9153422e-20)
(-0.0062462906 0.01598084 1.6717457e-20)
(-0.0017207422 0.01768872 6.6079413e-20)
(0.0084064609 0.015642341 3.2432847e-20)
(0.0232453 0.010989556 2.6332732e-22)
(0.042270077 0.0046790881 -5.5507564e-20)
(0.065054272 -0.0025900319 -3.3117192e-20)
(0.091220468 -0.010326249 1.4383295e-20)
(0.12043842 -0.01818286 1.9655334e-20)
(0.15241446 -0.025915571 -1.7124859e-20)
(0.18687699 -0.033355472 -6.0136496e-20)
(0.22356581 -0.040389228 4.0279369e-20)
(0.262224 -0.046944742 2.5887878e-20)
(0.30259219 -0.052981424 -3.6546925e-20)
(0.34440825 -0.058483134 1.5868675e-20)
(0.38741216 -0.063454722 3.1281272e-20)
(0.43130579 -0.067949318 1.0931123e-20)
(0.47565016 -0.072138349 -1.6817869e-20)
(0.52067748 -0.075898439 -1.5697385e-20)
(0.57029665 -0.077034402 1.284485e-20)
(-0.0037467881 0.0070816577 1.3564802e-20)
(-0.0028271124 0.011454324 -3.1983872e-20)
(0.0063647858 0.011131755 8.0250069e-21)
(0.02247302 0.007658985 4.4561599e-20)
(0.044250914 0.0020247131 6.6705004e-20)
(0.070950098 -0.0048811035 2.6815211e-20)
(0.10195981 -0.012403877 -7.6659458e-21)
(0.13674242 -0.020091067 -1.6288933e-20)
(0.17482874 -0.027625996 -8.5189352e-21)
(0.21579711 -0.034788464 4.5823633e-20)
(0.25925186 -0.04143032 -6.8202047e-21)
(0.30480798 -0.047457333 -2.2727221e-20)
(0.35208043 -0.052816196 -2.5470593e-20)
(0.40067709 -0.057486289 -6.2684932e-20)
(0.45019876 -0.061474501 2.9897621e-20)
(0.50024865 -0.064814362 -1.8145119e-20)
(0.55040721 -0.067604934 3.4089486e-20)
(0.60012208 -0.070132008 2.7435469e-20)
(0.64949606 -0.072440654 -1.0170051e-19)
(0.70298667 -0.071976343 1.6761777e-21)
(-0.002247829 0.0048349056 2.5637392e-20)
(0.0029482403 0.00543703 -3.3656336e-20)
(0.018140771 0.0026511328 -5.5143359e-20)
(0.041433139 -0.0023581939 -3.4480918e-20)
(0.071245247 -0.0088352283 -2.6407189e-21)
(0.10660291 -0.016001123 1.7296652e-20)
(0.1466986 -0.023288264 -3.7469975e-21)
(0.19081532 -0.030318017 2.3491773e-20)
(0.23831618 -0.036833838 1.144181e-20)
(0.28861625 -0.042665676 -1.4878442e-20)
(0.34115572 -0.047709551 1.2317091e-20)
(0.39538207 -0.051911948 -3.146671e-20)
(0.45073896 -0.055258359 1.1833193e-20)
(0.50666022 -0.057765981 2.2088838e-20)
(0.5625715 -0.059479135 -4.2469356e-21)
(0.61790272 -0.060469885 2.7134589e-21)
(0.67207882 -0.060886372 -1.4418166e-21)
(0.72443297 -0.061112506 2.5996965e-20)
(0.7749362 -0.061367391 3.799749e-21)
(0.82837305 -0.059195541 -7.372809e-21)
(0.00025832051 0.0021404328 2.870376e-20)
(0.01151143 -0.0015871376 7.1717843e-20)
(0.034221346 -0.0069998333 -5.9100529e-20)
(0.065998168 -0.013410904 -1.2420486e-20)
(0.10494915 -0.02037 2.5656641e-20)
(0.14987294 -0.02725931 2.6910672e-21)
(0.19975084 -0.033641584 -3.7636628e-20)
(0.2536608 -0.039251546 8.9406916e-21)
(0.31076396 -0.043928627 9.031441e-21)
(0.37027282 -0.047586383 -3.3855611e-20)
(0.43142356 -0.050196816 1.6530936e-21)
(0.49346086 -0.051777211 -4.8624737e-20)
(0.55563184 -0.052379125 -4.7636933e-20)
(0.61718682 -0.052079557 8.619772e-20)
(0.67738602 -0.050973211 7.2765858e-21)
(0.73550979 -0.049170476 -1.9691629e-20)
(0.79084882 -0.046833359 2.4858757e-20)
(0.84263916 -0.044255138 -1.1292657e-21)
(0.89048234 -0.041475523 2.3004568e-20)
(0.93788045 -0.03709759 -2.7478461e-20)
(0.040254942 -0.0094025011 7.6982594e-20)
(0.055825271 -0.0098672137 1.9284967e-20)
(0.072928033 -0.010217731 -4.3094353e-20)
(0.091187559 -0.0103723 2.1369674e-20)
(0.11028303 -0.010422895 0)
(0.13012025 -0.010404858 0)
(0.15061945 -0.010322042 -2.6769832e-20)
(0.17167762 -0.010183158 -1.8642246e-20)
(0.19319884 -0.0099996367 2.2117857e-20)
(0.21510069 -0.0097801431 2.0365783e-20)
(0.23730782 -0.0095312656 9.9408274e-22)
(0.25974938 -0.0092588161 -1.0735392e-20)
(0.28235937 -0.0089679386 9.402792e-21)
(0.30507661 -0.0086630357 1.8271318e-20)
(0.32784414 -0.008347882 -6.0113538e-21)
(0.35060885 -0.0080257505 -9.7028005e-21)
(0.37332118 -0.0076994857 -4.0102892e-21)
(0.39593503 -0.0073715574 -3.7096604e-21)
(0.41840756 -0.0070441115 5.4533244e-22)
(0.44069909 -0.006719012 1.1441953e-21)
(0.46277305 -0.0063978743 2.6047357e-21)
(0.48459586 -0.0060820916 5.8158457e-21)
(0.50613694 -0.0057728565 -2.3867421e-22)
(0.52736863 -0.0054711787 -2.9411347e-21)
(0.54826613 -0.0051779002 3.3448017e-23)
(0.5688074 -0.0048937081 -4.6824038e-22)
(0.58897312 -0.0046191465 9.8312945e-22)
(0.60874655 -0.0043546279 6.5962471e-22)
(0.62811342 -0.0041004434 -1.2399955e-21)
(0.64706178 -0.0038567738 -1.9831329e-23)
(0.66558181 -0.0036236994 -3.2006544e-22)
(0.68366571 -0.0034012108 -2.3955542e-22)
(0.70130746 -0.0031892186 -4.1253586e-22)
(0.71850262 -0.0029875639 2.1081083e-22)
(0.73524817 -0.0027960276 -8.3488577e-23)
(0.75154223 -0.00261434 -9.4135819e-23)
(0.76738391 -0.0024421898 9.9728514e-23)
(0.78277307 -0.0022792332 9.1204072e-23)
(0.79771008 -0.0021251038 -1.1509205e-22)
(0.8121959 -0.0019794185 -1.7444095e-22)
(0.82623097 -0.0018418008 -3.7248621e-23)
(0.83981829 -0.0017118562 3.3388182e-23)
(0.85295347 -0.0015893204 1.8200364e-23)
(0.86565601 -0.0014736814 -1.5159062e-22)
(0.87787523 -0.0013655598 -1.6439785e-22)
(0.88977737 -0.0012626081 5.4710931e-23)
(0.90089872 -0.0011731421 2.7111058e-23)
(0.91265731 -0.0010742371 -5.8775269e-24)
(0.92103937 -0.001046064 1.320572e-23)
(0.9373977 -0.00086960935 3.3974906e-22)
(0.073649121 -0.027654705 -1.8435707e-20)
(0.087906189 -0.029068898 -7.9853667e-20)
(0.10419704 -0.03010183 -3.9977816e-20)
(0.12162892 -0.030539331 4.810409e-20)
(0.13974625 -0.030682638 1.8043419e-20)
(0.15854153 -0.030634387 -2.3110642e-20)
(0.17797354 -0.030398014 7.041561e-21)
(0.19794297 -0.029997497 2.8992041e-20)
(0.21836157 -0.029466763 -1.1642193e-21)
(0.23915767 -0.028830794 -9.0668037e-21)
(0.26026409 -0.02810831 -1.2458104e-20)
(0.28161596 -0.027316043 -1.0077752e-20)
(0.30315229 -0.026468911 1.8408321e-20)
(0.3248161 -0.025579705 1.1909461e-20)
(0.3465538 -0.024659417 -1.508282e-20)
(0.3683149 -0.02371762 -5.8678665e-21)
(0.39005193 -0.02276267 2.7052373e-21)
(0.41172038 -0.021801848 7.2270957e-21)
(0.4332786 -0.020841507 6.7014345e-21)
(0.45468779 -0.019887183 -7.3584568e-21)
(0.47591194 -0.018943695 -4.0754491e-21)
(0.49691785 -0.01801521 2.2749372e-21)
(0.51767507 -0.017105311 1.606988e-21)
(0.53815591 -0.016217042 1.3429601e-21)
(0.55833539 -0.01535295 4.2342325e-22)
(0.57819118 -0.014515127 -5.2797607e-22)
(0.59770354 -0.013705236 -8.171122e-22)
(0.6168552 -0.012924551 1.3862784e-21)
(0.63563128 -0.012173984 1.0049626e-21)
(0.65401914 -0.011454117 -6.7688853e-22)
(0.67200823 -0.010765231 7.2554125e-22)
(0.68958995 -0.010107339 -1.6354092e-22)
(0.7067574 -0.0094802144 -5.3899396e-22)
(0.72350528 -0.0088834201 -6.3448542e-22)
(0.73982964 -0.0083163394 2.6898656e-22)
(0.75572768 -0.0077782023 -4.3121929e-22)
(0.77119756 -0.0072681139 4.0896414e-22)
(0.78623818 -0.0067850797 -5.1237093e-22)
(0.80084898 -0.0063280361 6.6392734e-22)
(0.81502995 -0.0058958686 3.0299904e-23)
(0.82878064 -0.005487481 1.0317496e-22)
(0.84210311 -0.00510172 3.1158869e-22)
(0.85499214 -0.0047378239 4.1966469e-22)
(0.86746621 -0.004394279 3.3713305e-22)
(0.87947425 -0.0040729796 3.9568134e-22)
(0.89118021 -0.003766883 2.4886758e-23)
(0.90212395 -0.0035009561 1.7752814e-22)
(0.91370822 -0.0032064916 1.3702085e-22)
(0.92196218 -0.0031231893 -1.4497316e-22)
(0.93810212 -0.0025973534 8.5936861e-23)
(0.13753286 -0.044279734 1.3313638e-20)
(0.14927446 -0.046659647 5.9269776e-21)
(0.16390302 -0.048335832 -1.9751442e-20)
(0.1797062 -0.049006017 -3.1730934e-21)
(0.19591499 -0.049234935 2.0085372e-20)
(0.21268436 -0.049184181 -1.8125849e-20)
(0.23005551 -0.048837849 -3.7180667e-20)
(0.24793316 -0.048229184 1.8472727e-20)
(0.26624048 -0.047413305 2.2335898e-20)
(0.28492537 -0.046429108 -1.3919371e-20)
(0.30393539 -0.045304847 1.1346007e-21)
(0.32321597 -0.04406632 7.4117999e-21)
(0.34271473 -0.042736916 -1.7534376e-20)
(0.36238191 -0.041336784 6.9319363e-21)
(0.38216961 -0.039883339 8.786694e-21)
(0.40203179 -0.038391865 -2.5160315e-21)
(0.42192442 -0.036875805 -1.3038902e-21)
(0.44180562 -0.035346968 -8.3941253e-21)
(0.46163567 -0.033815727 6.451237e-21)
(0.48137714 -0.032291189 9.2756025e-21)
(0.50099492 -0.030781327 -4.0864704e-21)
(0.52045628 -0.029293088 -2.003835e-21)
(0.53973095 -0.027832477 4.1757399e-22)
(0.55879107 -0.026404629 -1.9685448e-21)
(0.57761129 -0.025013878 1.1393111e-21)
(0.59616865 -0.023663807 5.9318979e-22)
(0.61444258 -0.0223573 2.7433204e-21)
(0.63241486 -0.021096598 -2.9164243e-21)
(0.65006946 -0.019883344 3.2712222e-21)
(0.66739249 -0.018718632 7.160134e-22)
(0.684372 -0.017603059 1.3416232e-21)
(0.70099792 -0.016536775 2.2225359e-22)
(0.71726181 -0.015519527 1.4863639e-21)
(0.73315673 -0.014550715 -2.1535007e-21)
(0.74867708 -0.013629434 6.3376323e-22)
(0.76381833 -0.01275452 5.9580586e-22)
(0.77857693 -0.011924601 -1.9332289e-22)
(0.79295005 -0.011138131 -2.3382731e-22)
(0.80693536 -0.010393449 -4.6653765e-22)
(0.82053118 -0.0096888012 3.4036126e-22)
(0.83373532 -0.0090224616 -7.6931277e-24)
(0.84654817 -0.0083926012 9.920728e-22)
(0.85896296 -0.0077980422 -4.3666166e-22)
(0.87099634 -0.0072363336 -7.7197077e-24)
(0.88259644 -0.0067107168 1.6613564e-22)
(0.89392303 -0.0062094915 -1.2992446e-22)
(0.90452267 -0.0057742008 -1.9908826e-22)
(0.91576892 -0.0052909089 7.1665728e-22)
(0.9237739 -0.0051555144 1.2893641e-22)
(0.93948905 -0.0042912272 -7.6471745e-22)
(0.22734933 -0.05828135 2.9940689e-21)
(0.23552612 -0.061624366 -1.2702202e-20)
(0.24759707 -0.063882892 6.3939277e-21)
(0.26099502 -0.064735529 -1.6846326e-20)
(0.27444272 -0.065062577 -2.4639203e-21)
(0.28829562 -0.065066835 1.2984837e-20)
(0.30272666 -0.064691194 -1.5146988e-20)
(0.31764392 -0.063969301 -5.3051725e-22)
(0.33297893 -0.062973873 1.5066674e-20)
(0.3487043 -0.061754466 5.3843791e-21)
(0.36478657 -0.060345575 -6.979062e-21)
(0.38118342 -0.058779356 -4.5328113e-21)
(0.39785235 -0.057085718 -4.4077002e-21)
(0.41475194 -0.05529079 -7.9877794e-21)
(0.43184085 -0.053417379 1.0942559e-21)
(0.449078 -0.051485718 -1.7859919e-21)
(0.46642312 -0.049513821 2.3144372e-21)
(0.48383712 -0.047517694 -3.3544627e-21)
(0.50128228 -0.045511542 -5.8023434e-21)
(0.5187225 -0.043507959 3.0899575e-21)
(0.53612343 -0.04151807 4.5527076e-21)
(0.55345268 -0.039551649 -2.8306904e-21)
(0.57067989 -0.037617219 2.0294577e-21)
(0.58777681 -0.035722134 -9.4498029e-22)
(0.60471738 -0.033872654 -5.6549257e-21)
(0.6214777 -0.032074011 -3.1226004e-21)
(0.63803604 -0.030330481 -6.6652597e-22)
(0.65437277 -0.028645441 -1.1742328e-22)
(0.67047034 -0.02702144 -2.1476696e-21)
(0.68631313 -0.025460265 -1.8196436e-21)
(0.70188739 -0.023963002 1.6537796e-22)
(0.71718105 -0.022530112 -1.8828649e-21)
(0.73218366 -0.021161493 -3.1165877e-22)
(0.74688614 -0.019856547 -8.0046663e-22)
(0.76128067 -0.018614246 -3.0244835e-22)
(0.77536052 -0.017433197 -1.2662955e-21)
(0.78911985 -0.016311702 -1.7632569e-21)
(0.80255356 -0.015247821 1.3996084e-22)
(0.81565706 -0.014239436 -1.6932808e-24)
(0.82842639 -0.013284296 -8.9966609e-22)
(0.84085714 -0.012380178 2.5285287e-22)
(0.8529475 -0.0115247 -6.8459128e-22)
(0.86468862 -0.010716387 -1.1751778e-21)
(0.87609472 -0.0099519562 8.0306893e-22)
(0.88711299 -0.0092360745 4.8441637e-24)
(0.89789732 -0.008552521 3.8807462e-22)
(0.9080041 -0.0079590601 -2.551037e-22)
(0.91876482 -0.0072980263 -4.793331e-22)
(0.92641196 -0.0071146585 1.6479949e-23)
(0.9415138 -0.0059303379 4.7245663e-22)
(0.33744253 -0.068718135 -3.061305e-20)
(0.34112651 -0.073030736 5.8811538e-20)
(0.34970114 -0.075807709 1.2166586e-20)
(0.35991532 -0.076826333 -2.0138879e-20)
(0.36984022 -0.077309981 -4.2833201e-21)
(0.38000518 -0.077469419 1.4102873e-21)
(0.39075618 -0.077190397 -3.7493393e-21)
(0.40200931 -0.076498195 -5.5607576e-21)
(0.41369438 -0.075475226 -4.7286823e-21)
(0.42580663 -0.0741774 -1.4173313e-20)
(0.43833284 -0.072642807 2.2723623e-20)
(0.45124227 -0.070907254 8.8634511e-21)
(0.46450086 -0.069004923 -1.847695e-20)
(0.47807436 -0.06696647 8.578894e-21)
(0.49192702 -0.064819156 6.302501e-21)
(0.50602181 -0.062587514 1.5407654e-21)
(0.52032134 -0.060293716 -1.5716183e-21)
(0.5347885 -0.057957757 -6.0037294e-21)
(0.54938684 -0.055597616 -2.3897916e-21)
(0.56408091 -0.053229413 -2.1005198e-21)
(0.57883654 -0.050867543 -4.664011e-21)
(0.5936211 -0.048524776 0)
(0.60840365 -0.046212352 -2.0555763e-21)
(0.62315508 -0.043940062 4.1751773e-21)
(0.63784819 -0.041716328 6.7326652e-21)
(0.65245774 -0.039548273 -7.7443442e-22)
(0.66696045 -0.037441799 -4.6440416e-21)
(0.68133498 -0.035401663 5.0750654e-21)
(0.69556189 -0.033431558 -7.6414727e-22)
(0.70962354 -0.03153419 5.0019652e-21)
(0.72350405 -0.029711367 -3.9332444e-22)
(0.73718911 -0.02796408 2.0729949e-21)
(0.75066592 -0.02629259 -1.286292e-21)
(0.76392301 -0.024696513 8.577354e-22)
(0.77695011 -0.023174899 -9.0889318e-22)
(0.78973796 -0.02172632 6.3924725e-22)
(0.8022782 -0.020348943 8.0547029e-22)
(0.81456321 -0.01904061 6.7768608e-22)
(0.82658584 -0.017798923 -1.5952757e-21)
(0.83833962 -0.016621298 1.1385814e-21)
(0.84981769 -0.015505171 -5.5286442e-22)
(0.86101573 -0.014447761 -2.1397597e-21)
(0.87192263 -0.013447428 2.6854321e-21)
(0.88254985 -0.012500189 -1.5398752e-23)
(0.89284364 -0.01161221 -2.9651878e-22)
(0.90295072 -0.010762961 -8.6163061e-25)
(0.91244037 -0.010025816 -3.6628092e-22)
(0.9225905 -0.0092017108 -8.2054949e-22)
(0.92978759 -0.0089752786 4.4016775e-22)
(0.94411254 -0.0074957623 -6.0725208e-23)
(0.46157891 -0.074588762 -2.5828072e-20)
(0.45997343 -0.079955745 1.4789609e-20)
(0.46411732 -0.083247577 7.0697885e-21)
(0.47037454 -0.084511862 -9.9154332e-21)
(0.47613344 -0.085294666 1.5209296e-20)
(0.48199644 -0.085769101 9.7365073e-21)
(0.48849382 -0.085766122 -1.3772079e-20)
(0.49556757 -0.08530077 -7.3252631e-21)
(0.50313332 -0.084452793 1.5076489e-20)
(0.51119645 -0.083277545 -2.1071173e-20)
(0.5197604 -0.081814959 -1.6088756e-20)
(0.52880391 -0.080102958 1.9480606e-20)
(0.53829783 -0.078178192 7.7182971e-21)
(0.54821179 -0.076074674 -8.8367301e-21)
(0.55851316 -0.073823582 5.1528455e-22)
(0.56916693 -0.071453518 -1.9165066e-21)
(0.58013684 -0.068990758 3.0417967e-21)
(0.59138622 -0.066459383 3.7430919e-21)
(0.60287859 -0.063881361 -2.6999391e-21)
(0.61457806 -0.061276626 3.0555211e-21)
(0.62644966 -0.058663165 3.6422752e-21)
(0.6384597 -0.056057091 -3.9707402e-21)
(0.65057593 -0.053472719 3.5193316e-22)
(0.66276776 -0.050922635 -2.9121546e-21)
(0.67500632 -0.048417765 1.1408291e-20)
(0.68726456 -0.045967461 7.9849344e-21)
(0.69951726 -0.043579576 1.8887982e-21)
(0.71174104 -0.041260555 -2.073973e-21)
(0.72391429 -0.039015526 6.2905688e-21)
(0.73601715 -0.036848399 1.1122007e-20)
(0.7480314 -0.034761966 2.693495e-21)
(0.75994035 -0.032758004 5.0486483e-21)
(0.77172875 -0.030837379 2.6126268e-21)
(0.78338265 -0.029000147 1.2200615e-21)
(0.79488923 -0.027245661 -1.7232446e-22)
(0.80623673 -0.025572663 4.2798806e-21)
(0.81741421 -0.023979386 9.3057856e-22)
(0.82841149 -0.022463646 3.8502841e-22)
(0.83921891 -0.021022947 5.5291227e-23)
(0.84982746 -0.019654542 1.8878898e-21)
(0.86022781 -0.018355694 2.0824611e-23)
(0.87041319 -0.017123371 9.7443649e-22)
(0.88037024 -0.015955914 -1.0504107e-22)
(0.89010754 -0.014848769 -7.5768054e-22)
(0.89957072 -0.013809666 -3.2140665e-22)
(0.90889838 -0.012814019 -8.3243017e-22)
(0.91767547 -0.01195 4.0275501e-22)
(0.92711673 -0.01098008 -2.2210803e-22)
(0.93379146 -0.010716032 -2.591078e-22)
(0.94720586 -0.0089710863 3.4874635e-22)
(0.59301607 -0.075023139 2.6999871e-21)
(0.58561026 -0.08156032 -2.0739093e-20)
(0.58451254 -0.085439524 -3.5997346e-21)
(0.58612634 -0.087187417 6.4875993e-21)
(0.58728015 -0.088543286 5.5534924e-21)
(0.58846929 -0.089576656 2.9754682e-21)
(0.59036226 -0.09008906 1.0816642e-20)
(0.59296404 -0.090098555 1.008575e-20)
(0.59617615 -0.089673061 1.1012672e-20)
(0.59999298 -0.088859175 -1.4080172e-20)
(0.60442375 -0.087696658 -2.7851842e-20)
(0.6094534 -0.086225369 -6.6064164e-21)
(0.61505423 -0.084484028 1.9969146e-20)
(0.62119576 -0.082509703 1.5553094e-20)
(0.6278453 -0.080337586 -5.1432824e-21)
(0.63496758 -0.078000726 -8.4660789e-22)
(0.64252556 -0.075529979 -6.11077e-21)
(0.65048145 -0.072954025 6.1904969e-21)
(0.65879738 -0.070299363 -3.0008788e-22)
(0.66743588 -0.067590294 -2.3374041e-21)
(0.67636023 -0.06484894 1.0911807e-20)
(0.68553484 -0.062095283 -1.2066661e-21)
(0.69492545 -0.059347212 1.2647528e-21)
(0.70449935 -0.056620574 2.4926295e-22)
(0.71422551 -0.05392925 -5.2319394e-21)
(0.7240746 -0.051285229 5.0677911e-21)
(0.73401912 -0.048698702 1.609785e-21)
(0.74403334 -0.046178159 -3.8888975e-21)
(0.75409326 -0.043730498 -3.9048809e-21)