/*--------------------------------*- C++ -*----------------------------------*\
  =========                 |
  \\      /  F ield         | OpenFOAM: The Open Source CFD Toolbox
   \\    /   O peration     | Website:  https://openfoam.org
    \\  /    A nd           | Version:  6
     \\/     M anipulation  |
\*---------------------------------------------------------------------------*/
FoamFile
{
    version     2.0;
    format      ascii;
    class       volSymmTensorField;
    location    "47";
    object      UPrime2Mean;
}
// * * * * * * * * * * * * * * * * * * * * * * * * * * * * * * * * * * * * * //

dimensions      [0 2 -2 0 0 0 0];

internalField   nonuniform List<symmTensor> 
9200
(
(0.00041518105 -0.00032234172 1.5471487e-21 0.00025887566 -8.3122191e-22 2.4703516e-38)
(0.0025278846 -0.0020293361 3.8456665e-21 0.0016350923 -2.871333e-21 2.6843736e-38)
(0.0050330877 -0.0039311596 5.5775696e-22 0.0030854099 -4.1374276e-22 1.4732923e-38)
(0.007812407 -0.0057225603 -5.6637151e-21 0.0042317423 4.0090569e-21 2.9299811e-38)
(0.010454496 -0.0072661463 1.9373254e-22 0.0051250336 -1.8535674e-22 4.3054491e-39)
(0.012766195 -0.008494546 2.2714635e-21 0.0057688748 -1.5397946e-21 6.4073168e-40)
(0.014626801 -0.0093908751 -4.4671413e-22 0.0061919087 3.2724366e-22 1.9502355e-39)
(0.01595089 -0.0099666502 4.081916e-22 0.0064383647 -2.9064855e-22 1.3138496e-39)
(0.016693239 -0.010246616 2.1956954e-21 0.0065498921 -1.3645518e-21 3.7392016e-39)
(0.016848654 -0.010261932 1.6682823e-22 0.0065614226 -1.0511009e-22 1.0576644e-41)
(0.016448954 -0.010046889 -2.2719167e-21 0.0065013863 1.4507183e-21 1.9859176e-39)
(0.015559171 -0.0096368724 1.8625304e-21 0.0063922138 -1.2458123e-21 2.5002903e-40)
(0.014271715 -0.0090670567 -3.2763058e-21 0.0062510155 2.3361044e-21 4.2229944e-39)
(0.012698103 -0.0083716127 -1.6257362e-21 0.0060904316 1.1890689e-21 2.4595362e-40)
(0.010958853 -0.0075831798 4.1650456e-22 0.0059195183 -3.3122102e-22 3.28751e-41)
(0.009172628 -0.0067324292 -1.5230869e-21 0.0057445857 1.290563e-21 3.2405296e-40)
(0.007445747 -0.0058476584 1.3004329e-21 0.0055702046 -1.2074661e-21 4.0044295e-40)
(0.005863293 -0.0049546632 9.0950884e-22 0.005402007 -8.9392355e-22 1.7871673e-39)
(0.0044881667 -0.0040758255 -4.9792269e-23 0.0052479412 9.759216e-23 3.3754584e-40)
(0.0033792265 -0.0032304061 -3.6066545e-23 0.0050612078 9.21362e-23 4.1834552e-40)
(0.0005456049 -0.00036473563 1.6604853e-22 0.00025052825 -6.5473761e-23 4.3157643e-40)
(0.0032063199 -0.0022290474 4.0808259e-21 0.0015541656 -2.6556579e-21 2.8670931e-38)
(0.0062704985 -0.0042508187 -1.3904977e-21 0.0028953347 9.2844128e-22 1.5594367e-38)
(0.0094541986 -0.0060708448 -1.0122479e-20 0.003935283 6.375655e-21 6.7732459e-38)
(0.012292057 -0.0075660633 -3.0707008e-22 0.0047278418 2.0361556e-22 8.5577381e-40)
(0.014572184 -0.0086815407 7.6640166e-21 0.0052850311 -4.5922819e-21 2.2343424e-38)
(0.016183429 -0.0094179339 -3.0719405e-21 0.0056422209 1.8380992e-21 7.2828588e-40)
(0.017074053 -0.0098053128 -9.2688262e-22 0.0058461569 5.5097034e-22 2.7365145e-40)
(0.017249408 -0.0098849599 3.4555224e-21 0.0059385532 -2.0829415e-21 2.0578088e-39)
(0.016765614 -0.0097017514 -4.1217119e-21 0.0059528803 2.5446405e-21 2.3295011e-39)
(0.015720356 -0.0093006956 -2.8768497e-21 0.0059149183 1.8340499e-21 2.9412535e-39)
(0.014242069 -0.0087250053 6.0845297e-21 0.0058435478 -4.0728339e-21 1.4911299e-38)
(0.012476934 -0.0080151695 2.7877441e-21 0.0057516942 -2.0047422e-21 9.7716427e-40)
(0.010574456 -0.0072086503 -4.2830892e-21 0.0056473676 3.3260254e-21 4.9753599e-39)
(0.0086733718 -0.0063398572 7.4325775e-22 0.0055346494 -6.3087805e-22 4.2598571e-40)
(0.0068898004 -0.0054401564 -1.6242431e-21 0.0054145481 1.563197e-21 1.0837312e-39)
(0.0053091017 -0.0045378111 -6.784205e-22 0.0052858353 7.7497799e-22 3.5213055e-40)
(0.0039821731 -0.003657473 1.910085e-21 0.0051459711 -2.4455546e-21 5.6475325e-39)
(0.002928799 -0.0028182303 8.7406419e-22 0.0049873505 -1.3680357e-21 1.0249235e-39)
(0.0021505031 -0.0020399972 -3.2549723e-22 0.0047692073 4.6179527e-22 8.5057062e-39)
(0.00069187817 -0.00039407907 -1.3518353e-21 0.00022962327 5.7723542e-22 1.1183747e-38)
(0.0039222579 -0.0023388695 -2.2253826e-21 0.0013981285 1.2363622e-21 1.1666541e-38)
(0.0075250244 -0.0043895018 -2.5771482e-21 0.0025728283 1.4989359e-21 2.9160898e-38)
(0.011033194 -0.0061571693 8.0730213e-23 0.0034699705 -4.4772689e-23 3.1440445e-42)
(0.013942756 -0.0075400763 2.6541997e-22 0.0041439503 -1.1781344e-22 2.0933486e-38)
(0.016043764 -0.0085020346 2.7069933e-21 0.004614153 -1.4651815e-21 5.8439978e-39)
(0.017260822 -0.0090638833 2.028462e-22 0.0049192985 -1.0940677e-22 2.4233958e-39)
(0.017603036 -0.0092733676 -4.367468e-21 0.0051044386 2.4251164e-21 1.452837e-39)
(0.017149957 -0.0091851828 5.1027331e-21 0.0052073115 -2.9245134e-21 2.777032e-39)
(0.016035243 -0.0088534242 1.6590572e-21 0.0052562991 -1.0055727e-21 3.1915785e-39)
(0.014428079 -0.0083287461 -4.4550259e-21 0.0052714254 2.8495223e-21 6.4523356e-39)
(0.01251367 -0.0076573494 -1.3565059e-21 0.0052655211 9.4254418e-22 2.1423104e-39)
(0.010473637 -0.0068810573 5.3720909e-22 0.0052454974 -3.8798667e-22 5.8676167e-39)
(0.0084684537 -0.006037859 1.1200642e-21 0.0052136731 -9.5198138e-22 8.1207263e-40)
(0.0066243107 -0.0051624038 -3.6673521e-22 0.0051690487 3.5860257e-22 6.3884999e-40)
(0.005026044 -0.0042861619 8.6610384e-22 0.0051085006 -9.7650678e-22 4.6985622e-40)
(0.0037165469 -0.0034371932 -5.9529636e-22 0.0050278345 7.9577301e-22 1.7121444e-40)
(0.0027017497 -0.0026394866 -1.1008095e-21 0.0049223428 1.8139696e-21 4.5729633e-39)
(0.0019595638 -0.0019116635 1.5746247e-23 0.004786544 -1.4337473e-23 4.3009292e-39)
(0.0014515177 -0.0012698433 3.5673638e-22 0.0046101046 -9.7893268e-22 4.2984477e-40)
(0.00084882173 -0.00040600764 -1.0713804e-21 0.00019811317 3.9561521e-22 5.5566897e-39)
(0.0046373119 -0.0023401162 1.554402e-21 0.0011835404 -7.6463105e-22 1.0101342e-39)
(0.0087182782 -0.0043228558 1.3880389e-21 0.00215443 -6.8871803e-22 1.1946365e-39)
(0.012438514 -0.0059643935 3.063744e-21 0.0028907921 -1.4710829e-21 1.294289e-38)
(0.015278892 -0.0071890859 2.6386331e-21 0.0034444494 -1.2687062e-21 5.7494025e-39)
(0.017059822 -0.0079826435 -4.4972023e-21 0.0038391759 2.1857985e-21 4.3316531e-39)
(0.017771709 -0.0083842577 -2.4771667e-21 0.004112472 1.2346032e-21 1.2282208e-39)
(0.01750994 -0.0084539288 0 0.0043032201 0 0)
(0.016444289 -0.0082528753 2.6345618e-21 0.0044414388 -1.4999033e-21 1.6104796e-38)
(0.014789344 -0.0078374624 -1.1067949e-21 0.0045474652 6.960552e-22 6.1043471e-39)
(0.012775441 -0.007258037 -6.3661678e-21 0.0046333765 4.060665e-21 4.9584241e-39)
(0.010622178 -0.0065594853 -8.1792902e-22 0.0047044958 5.4858179e-22 1.0848824e-39)
(0.0085167013 -0.0057824255 2.949238e-21 0.0047609818 -2.4214783e-21 7.1331218e-39)
(0.0065992683 -0.0049641782 2.136396e-22 0.0047994675 -1.397147e-22 3.0419015e-39)
(0.0049575066 -0.0041390184 -4.2929622e-23 0.0048146613 4.7806602e-23 2.0276795e-42)
(0.0036290208 -0.0033376498 4.4368051e-22 0.0048008593 -5.9691242e-22 3.5673483e-40)
(0.002610411 -0.0025861736 2.1935269e-23 0.0047531402 -2.0918539e-24 4.4016936e-40)
(0.0018697817 -0.0019050165 -7.3550017e-22 0.0046677898 1.504122e-21 1.0058048e-39)
(0.001359267 -0.0013080272 -3.7993115e-22 0.0045447668 1.0195298e-21 7.2087308e-40)
(0.0010259681 -0.00080294672 1.4000993e-22 0.0043951953 -7.0581651e-22 4.9554891e-39)
(0.0010090546 -0.00039691645 8.0266651e-22 0.00015901043 -2.5559415e-22 2.1866394e-39)
(0.0053051893 -0.0022217169 3.3310723e-21 0.00093248012 -1.3289688e-21 1.9700527e-38)
(0.0097645278 -0.004043497 2.4897491e-21 0.0016840677 -1.0353057e-21 1.2155787e-39)
(0.013561292 -0.0055005054 2.819189e-21 0.0022587342 -1.1620704e-21 6.9188473e-39)
(0.016192362 -0.0065446659 -4.2575233e-21 0.0027023211 1.7876105e-21 1.0881871e-38)
(0.017541286 -0.0071817567 1.254241e-22 0.0030389029 -4.1325326e-23 1.0380313e-39)
(0.017692236 -0.0074621215 2.3256691e-22 0.0033001523 -1.0495647e-22 8.5022504e-42)
(0.016843545 -0.0074484416 3.2570605e-21 0.0035151599 -1.586292e-21 3.8460801e-39)
(0.015257261 -0.0071992925 4.2929537e-22 0.0037036776 -2.2433519e-22 3.3775818e-41)
(0.013215931 -0.0067660971 -1.1211946e-21 0.0038763164 6.8430073e-22 2.097826e-39)
(0.010985886 -0.0061943153 3.544245e-21 0.0040362415 -2.3978162e-21 1.4519616e-38)
(0.0087895789 -0.0055254366 -2.5701261e-21 0.0041809494 1.836616e-21 1.1412866e-39)
(0.0067890638 -0.0047984623 -4.6503466e-21 0.0043041849 4.0312588e-21 8.2960008e-39)
(0.0050814173 -0.0040501695 -1.4847314e-22 0.0043979301 1.5463143e-22 1.7878317e-41)
(0.0037046443 -0.0033141332 1.5128851e-21 0.004454303 -1.9828754e-21 7.0749174e-39)
(0.0026507367 -0.0026190325 0 0.0044671945 0 0)
(0.001881779 -0.0019869647 1.9761773e-22 0.0044332713 -3.2171932e-22 1.8485912e-40)
(0.0013453618 -0.0014324884 -7.4859445e-23 0.0043519155 2.2960056e-22 2.7797537e-40)
(0.00098626268 -0.00096262631 -9.2395046e-23 0.0042281653 2.3971563e-22 7.0462114e-41)
(0.00075390377 -0.00057698793 2.0460432e-23 0.0040832712 -2.0686932e-22 5.0342121e-40)
(0.0011637853 -0.00036481918 1.7516665e-21 0.00011639068 -4.5082255e-22 8.8418524e-39)
(0.005878299 -0.0019840826 1.6647849e-22 0.00067130453 -5.4794984e-23 1.6241348e-41)
(0.010584744 -0.0035660796 -4.7135469e-22 0.0012097869 1.6065784e-22 7.1715745e-41)
(0.014314698 -0.0048022898 4.2696819e-22 0.0016357214 -1.4253573e-22 1.4271209e-39)
(0.016616843 -0.0056687366 -2.8916378e-21 0.0019860514 1.0368166e-21 2.6619289e-39)
(0.01746924 -0.0061834814 -1.3564842e-21 0.0022812186 5.1036071e-22 2.3499206e-40)
(0.017068685 -0.0063961168 8.8784062e-22 0.0025438013 -2.80901e-22 7.6422478e-39)
(0.015718472 -0.006360313 -4.0875991e-23 0.002791321 4.4634081e-23 5.986342e-40)
(0.013758494 -0.0061232558 -2.1481643e-21 0.0030324418 1.1462331e-21 6.285682e-39)
(0.011512324 -0.0057264706 3.6428989e-21 0.0032677863 -2.0395681e-21 1.6838265e-39)
(0.009249747 -0.0052089359 -6.6607314e-23 0.0034917823 1.4809687e-22 3.2873685e-39)
(0.007166011 -0.0046092125 -2.7056278e-21 0.0036947634 2.2008583e-21 8.8243841e-39)
(0.0053773517 -0.0039656472 0 0.0038653228 0 0)
(0.0039298426 -0.0033147292 5.8029596e-22 0.0039926744 -8.0492002e-22 4.8230189e-39)
(0.0028165526 -0.0026884548 1.7003646e-23 0.0040686681 -7.2622968e-23 2.6583541e-40)
(0.0019974205 -0.0021118301 -6.6510718e-22 0.0040891566 1.3133504e-21 5.5236547e-39)
(0.0014172761 -0.0016013771 -1.5131463e-22 0.00405435 3.3512372e-22 1.0922346e-40)
(0.0010193208 -0.0011651108 -3.5152017e-23 0.0039679562 1.5108988e-22 1.8748289e-40)
(0.00075293231 -0.00080390779 -5.2016414e-23 0.0038392758 2.0276765e-22 6.9617328e-41)
(0.0005767428 -0.00051250582 7.9470026e-23 0.0036922761 -4.8971713e-22 6.7879798e-40)
(0.0013038282 -0.00030986989 6.7914565e-22 7.4971762e-05 -1.3071633e-22 1.4004684e-39)
(0.0063140171 -0.0016400967 -4.7981483e-21 0.00042731041 1.2088098e-21 3.0441792e-38)
(0.011117413 -0.0029261472 -4.6679231e-22 0.00077727501 1.2994896e-22 2.8423029e-39)
(0.014645946 -0.0039300403 -1.3241689e-21 0.0010762331 3.8780045e-22 1.430183e-38)
(0.016535882 -0.0046429366 -8.7353844e-22 0.0013508475 2.5074494e-22 1.9323255e-40)
(0.016883048 -0.0050821093 -4.9451063e-21 0.0016156295 1.5960056e-21 2.4979422e-39)
(0.016000989 -0.0052822376 -2.3866282e-21 0.0018832435 8.8565188e-22 2.0785312e-39)
(0.014283359 -0.0052773092 4.4907297e-21 0.0021601104 -1.7979912e-21 1.526851e-39)
(0.012119889 -0.0050974912 7.4857707e-22 0.0024445976 -4.2247701e-22 2.1602591e-39)
(0.0098417512 -0.0047731696 -9.5283127e-22 0.0027281491 4.6072016e-22 7.273942e-40)
(0.0076921091 -0.004338174 4.5772225e-22 0.0029974173 -1.6805693e-22 2.7789058e-39)
(0.0058192848 -0.0038299797 -6.4135722e-23 0.0032369455 1.1973646e-22 7.0432934e-40)
(0.0042874716 -0.0032871547 0 0.0034320917 0 0)
(0.0030978072 -0.0027453722 4.1895779e-22 0.0035716146 -4.9761286e-22 1.5301277e-40)
(0.002212397 -0.0022336428 -8.4837747e-22 0.0036493901 1.308281e-21 2.1946602e-39)
(0.0015755413 -0.0017720109 -2.6945664e-22 0.0036649843 4.9004772e-22 1.8055877e-40)
(0.0011291124 -0.0013711503 4.2704279e-22 0.0036229748 -1.0897165e-21 2.6675392e-39)
(0.00082156368 -0.0010336567 -1.1873467e-22 0.0035312268 1.5907969e-22 5.9426785e-40)
(0.00061144901 -0.00075655614 -1.2292729e-23 0.0034017287 -1.31658e-23 6.6897999e-41)
(0.00046722731 -0.00053305354 9.3998909e-23 0.0032566319 -3.5271343e-22 4.5266366e-41)
(0.0014206474 -0.00023448654 4.9794049e-22 3.9475013e-05 -6.5493705e-23 8.7669954e-40)
(0.0065801432 -0.0012137635 -4.3699995e-21 0.00022491767 7.9030958e-22 1.392327e-38)
(0.011325884 -0.0021751565 -3.4208502e-21 0.00042367239 6.8397294e-22 1.670499e-38)
(0.014541415 -0.0029581895 4.6806285e-21 0.00062056472 -1.0021274e-21 4.0213866e-39)
(0.015980906 -0.0035552699 3.4353014e-21 0.000833144 -8.0276549e-22 7.9271027e-40)
(0.015867244 -0.0039669776 -2.4158916e-21 0.0010704972 5.5711371e-22 8.82474e-39)
(0.014617912 -0.0042001822 8.1010812e-22 0.0013373322 -3.2873859e-22 3.7550617e-39)
(0.012688518 -0.0042624475 4.529218e-21 0.001631274 -1.7236782e-21 4.0036703e-39)
(0.01048413 -0.0041657804 1.9416443e-21 0.0019421436 -8.202143e-22 4.7624215e-40)
(0.0083125666 -0.0039315701 -1.8561099e-21 0.002253529 1.0386202e-21 1.2986407e-39)
(0.0063703022 -0.0035913006 -2.4629146e-21 0.002545698 1.612981e-21 1.4458118e-39)
(0.0047526017 -0.0031829745 -6.5449283e-23 0.0027992104 5.2467736e-23 1.5001225e-42)
(0.0034777813 -0.002745268 6.7261185e-22 0.0029983701 -6.5908255e-22 2.3150381e-40)
(0.0025156762 -0.002311826 -9.32911e-24 0.0031336235 8.8002606e-23 4.0587935e-40)
(0.0018128944 -0.001907499 -6.3654605e-25 0.0032024213 1.4054131e-22 1.0984421e-39)
(0.001311031 -0.0015471778 -1.4858193e-23 0.0032085856 -1.8031511e-22 1.9842198e-39)
(0.00095728232 -0.0012368181 1.9983014e-22 0.0031605267 -4.9583803e-22 5.570064e-40)
(0.00070895629 -0.00097578308 -9.1359563e-23 0.0030689188 4.1255657e-22 1.4994033e-39)
(0.00053391594 -0.00075979099 -2.604463e-22 0.002946487 9.7761149e-22 2.8196953e-39)
(0.00040872667 -0.00058272552 9.9129559e-23 0.002811186 -2.8008796e-22 5.4130812e-41)
(0.0015078117 -0.0001431225 -1.2587921e-21 1.3960125e-05 1.0464606e-22 2.6124804e-39)
(0.0066594909 -0.00073706268 -8.7403235e-22 8.2411821e-05 9.6054323e-23 2.7921864e-39)
(0.011201956 -0.0013733636 7.3600157e-21 0.00017322048 -9.5061248e-22 3.4411126e-38)
(0.014026491 -0.0019648603 5.3025876e-21 0.00029127756 -7.9473297e-22 3.6545078e-39)
(0.015024091 -0.0024882773 2.2883749e-21 0.00044942656 -3.7694172e-22 1.8160659e-39)
(0.014536285 -0.0029124316 4.5771766e-22 0.00065495341 -9.9356458e-23 1.6327778e-41)
(0.013056577 -0.0032079846 -4.1750424e-21 0.00090867597 9.8290579e-22 7.5615335e-39)
(0.011066666 -0.0033546675 0 0.0012025583 0 0)
(0.0089542214 -0.0033492033 -2.4499701e-21 0.0015197946 1.1684774e-21 6.2944745e-39)
(0.006982097 -0.0032078877 -4.0295822e-22 0.0018375279 3.0530062e-22 1.4475943e-39)
(0.005292827 -0.0029624356 1.1498402e-21 0.0021312383 -7.3157638e-22 2.9918368e-40)
(0.0039339757 -0.0026518545 1.0720137e-22 0.0023794681 -1.781838e-22 7.9795795e-40)
(0.0028908733 -0.0023139518 -5.1023965e-22 0.002567449 5.7693932e-22 9.0088548e-40)
(0.0021166896 -0.0019791821 -3.6185779e-22 0.0026887288 5.7688085e-22 1.9619286e-39)
(0.0015546028 -0.0016679349 2.530767e-22 0.0027447366 -2.7329827e-22 2.3426758e-40)
(0.0011510636 -0.0013908659 3.3723484e-22 0.0027428653 -4.7726599e-22 1.9539955e-40)
(0.00086178917 -0.0011510594 -2.8399751e-22 0.0026938835 5.430451e-22 1.706247e-40)
(0.00065306335 -0.00094680468 -3.4983525e-22 0.0026094768 9.4073461e-22 2.3420753e-39)
(0.00050056437 -0.00077430288 3.9060323e-23 0.0025014291 -2.5479363e-24 2.8920989e-40)
(0.00038699779 -0.0006289925 3.8171676e-23 0.0023827197 -1.9610838e-22 3.353873e-40)
(0.0015606709 -4.1536309e-05 -8.332748e-22 1.2725217e-06 2.1283358e-23 1.279712e-39)
(0.0065493315 -0.0002459175 3.4650302e-21 9.9414513e-06 -1.2658381e-22 7.0667435e-39)
(0.010764089 -0.00058289974 5.3037127e-21 3.5472334e-05 -3.3594814e-22 5.1526732e-38)
(0.013160074 -0.0010235908 -5.9554635e-21 9.3200192e-05 5.4531748e-22 1.4048822e-38)
(0.013765766 -0.0015117042 2.076e-21 0.00019883336 -2.4594948e-22 3.2705553e-40)
(0.013015699 -0.0019738577 7.7744246e-22 0.00036372614 1.728318e-23 1.3100291e-38)
(0.011442529 -0.0023424914 2.1447589e-22 0.0005895634 -4.7388304e-23 4.1520259e-42)
(0.0095188431 -0.0025732207 -2.9779952e-21 0.0008655315 7.3965011e-22 4.2648673e-39)
(0.0075905919 -0.0026528561 -6.6271964e-23 0.0011698069 2.5096765e-23 5.9986878e-43)
(0.0058661196 -0.0025965572 1.0580387e-21 0.0014745036 -6.2019582e-22 1.6429002e-39)
(0.0044377011 -0.002437631 7.6963354e-23 0.0017520767 -9.7554138e-23 2.4063148e-40)
(0.0033169861 -0.0022154335 -3.9060283e-22 0.001980932 8.7788961e-23 3.1128065e-39)
(0.0024702522 -0.0019656716 -8.0382323e-22 0.002148623 7.2240805e-22 2.7638279e-40)
(0.0018456158 -0.0017150293 5.1697531e-24 0.002252212 7.6384865e-23 4.0620381e-40)
(0.0013901426 -0.0014799818 2.5313309e-22 0.0022964255 -3.8911095e-22 3.7821021e-40)
(0.0010583006 -0.0012683772 1.6188726e-22 0.0022907601 -3.1020717e-22 3.7285452e-40)
(0.00081458726 -0.001082134 2.562788e-23 0.0022466005 -1.5123845e-22 6.2168028e-40)
(0.00063304175 -0.00091990037 -2.7282413e-22 0.0021750708 4.0850989e-22 4.638368e-40)
(0.00049547289 -0.00077913688 -7.6185786e-23 0.0020859833 -5.6956567e-23 2.1390065e-39)
(0.00038911028 -0.00065676308 1.106222e-22 0.0019876179 -5.1146197e-22 3.4866271e-39)
(1.0950597e-05 -1.3609044e-06 1.0972409e-22 1.6681973e-06 -2.2006177e-23 1.2516466e-39)
(5.1688467e-05 -2.1635567e-05 -1.5642173e-22 1.1114109e-05 4.334073e-23 1.2055086e-39)
(0.00011577964 -5.0013838e-05 3.4763882e-22 2.2135927e-05 -1.2965751e-22 6.9147797e-39)
(0.0003710921 -0.00010539757 9.6794767e-22 3.1653725e-05 -2.0512919e-22 2.3270875e-38)
(0.00081340112 -0.00017341705 -6.8896821e-22 4.0080655e-05 1.1606111e-22 6.0466233e-39)
(0.0014509721 -0.00024895708 8.6574106e-22 4.7408507e-05 -1.1578595e-22 6.6824388e-39)
(0.0023024248 -0.00032913109 -1.1792841e-21 5.3650029e-05 1.4651604e-22 7.322484e-39)
(0.0033704474 -0.00041109467 -1.2120802e-21 5.8955354e-05 1.2339036e-22 7.752596e-39)
(0.0046466508 -0.00049254451 1.5072598e-21 6.3488444e-05 -1.5136373e-22 8.1758471e-39)
(0.006118847 -0.00057177675 -1.1580564e-21 6.7380832e-05 1.0907179e-22 4.1600668e-39)
(0.0077725206 -0.00064750913 -6.0163958e-23 7.0735107e-05 9.7160034e-25 4.8673825e-41)
(0.0095910945 -0.00071875393 3.2088122e-22 7.3631524e-05 -3.3164993e-23 1.5088178e-40)
(0.011556602 -0.00078474044 -5.6939307e-23 7.6132749e-05 2.4939198e-24 2.4404986e-41)
(0.013650297 -0.00084486534 1.7008579e-21 7.8289556e-05 -1.4684961e-22 7.2537638e-39)
(0.015853026 -0.00089867472 5.3496234e-24 8.014801e-05 3.2670121e-24 1.5823044e-41)
(0.018145598 -0.00094588826 -2.3687474e-21 8.1756987e-05 2.1787904e-22 1.4873239e-38)
(0.020509283 -0.00098642477 4.2106376e-22 8.3168143e-05 -4.5174894e-23 3.1005274e-40)
(0.022925889 -0.0010203003 9.8422373e-22 8.4421829e-05 -9.9989597e-23 3.7812594e-39)
(0.025377232 -0.0010477684 -1.5051219e-21 8.5557873e-05 1.711407e-22 1.0702368e-38)
(0.0278437 -0.0010706837 -7.7262537e-22 8.6596162e-05 9.9235189e-23 4.0206222e-39)
(1.2404896e-05 -5.7075592e-06 3.5957516e-23 1.4689388e-05 -1.3119044e-23 1.226073e-40)
(6.5897225e-05 -7.4139253e-05 -9.9026881e-22 9.7940027e-05 7.4666232e-22 4.031401e-38)
(0.00014785542 -0.00016824976 1.9671154e-22 0.00019494766 -1.6310336e-22 3.6388421e-39)
(0.0004361469 -0.00034074828 1.038138e-21 0.00027871804 -6.3366327e-22 1.9426932e-38)
(0.00091582536 -0.00054931696 1.4370832e-21 0.00035270718 -6.840195e-22 2.1965872e-38)
(0.0015915174 -0.00077888636 1.7297051e-22 0.00041675397 -6.8412074e-23 2.0625003e-40)
(0.0024788256 -0.0010208468 -4.5732418e-21 0.0004709988 1.5551165e-21 1.0977356e-37)
(0.0035769736 -0.0012668123 -1.5729491e-22 0.00051677939 6.3967736e-23 3.0739607e-41)
(0.0048744842 -0.0015100504 2.5373686e-21 0.00055554182 -7.5135168e-22 1.8669714e-38)
(0.0063563773 -0.0017455949 -6.0726489e-22 0.00058844806 1.6227545e-22 1.038579e-39)
(0.0080054392 -0.0019697126 -2.2707127e-21 0.00061640538 6.0168559e-22 1.1489491e-38)
(0.0098024468 -0.0021795326 4.7220287e-22 0.00064012094 -1.1629544e-22 5.2348732e-40)
(0.011726826 -0.0023728188 1.9769368e-21 0.00066014198 -4.2123723e-22 1.2366765e-38)
(0.013757219 -0.0025478211 7.9431104e-22 0.00067690478 -1.9094301e-22 1.4053597e-39)
(0.015871794 -0.0027032144 1.5432028e-21 0.00069079576 -4.0409301e-22 4.0380497e-39)
(0.018048624 -0.0028381641 -1.1940499e-21 0.00070221496 2.9550672e-22 3.4313895e-39)
(0.020266624 -0.0029524277 -1.107109e-21 0.00071158891 2.7368471e-22 3.7578391e-39)
(0.022505372 -0.0030460511 1.0681623e-21 0.0007192775 -3.1473744e-22 2.1451001e-39)
(0.024739222 -0.003119848 9.2083206e-22 0.00072568993 -2.6988773e-22 3.7900895e-39)
(0.026936116 -0.0031804959 3.2365841e-22 0.00073112367 -9.3665663e-23 1.6214363e-39)
(1.5953201e-05 -1.4646296e-05 2.7672001e-23 3.921715e-05 -1.3660423e-23 6.4320943e-41)
(9.9569761e-05 -0.0001531825 7.515708e-22 0.00026141506 -8.045807e-22 1.7179586e-38)
(0.00022220322 -0.00033794006 -1.6401317e-22 0.00051964632 2.1119441e-22 8.9925745e-40)
(0.00057884868 -0.0006451651 -1.1258669e-21 0.00074235222 9.4504379e-22 2.1291774e-38)
(0.0011347169 -0.0010067334 4.0775744e-22 0.00093826016 -3.4040385e-22 5.9343382e-40)
(0.0018871401 -0.0013982281 5.3139991e-22 0.0011065848 -4.2986589e-22 2.969586e-40)
(0.0028457414 -0.0018054916 -6.7131836e-22 0.0012477201 3.5115547e-22 1.8923636e-39)
(0.0040032802 -0.0022150503 -1.7145229e-21 0.0013652565 9.8875751e-22 3.708122e-39)
(0.0053425152 -0.0026162218 7.488912e-22 0.0014630564 -3.5761114e-22 1.0500546e-39)
(0.0068432408 -0.0030011515 1.5837278e-21 0.0015442454 -6.4279818e-22 5.9879409e-39)
(0.0084832531 -0.0033639423 4.0883526e-22 0.001611279 -2.9177896e-22 2.1654379e-40)
(0.010238508 -0.0037000676 1.9043589e-21 0.0016660711 -6.0840713e-22 1.1135666e-38)
(0.012083753 -0.0040060071 1.5710026e-22 0.0017100918 -5.6646838e-23 4.5933463e-41)
(0.013993042 -0.0042789998 -2.7175621e-21 0.0017444873 8.8638497e-22 1.785259e-38)
(0.015939964 -0.0045169377 1.7988557e-22 0.0017702416 -1.2964393e-22 9.7986143e-41)
(0.017898073 -0.0047184709 -1.228482e-21 0.0017883456 3.2147781e-22 6.9771682e-39)
(0.019842596 -0.0048832202 -1.6420385e-21 0.0017998454 6.6167361e-22 2.8044847e-39)
(0.021750058 -0.0050113329 2.5854138e-21 0.001805779 -1.0365214e-21 9.3478796e-39)
(0.023583657 -0.0051043382 1.307616e-21 0.0018077794 -5.7559743e-22 1.8793985e-39)
(0.025293006 -0.0051758483 2.6765611e-22 0.0018075548 -1.3240203e-22 3.9885046e-41)
(2.3514887e-05 -3.033595e-05 -4.1681634e-23 7.2289064e-05 5.2687748e-23 9.2711791e-41)
(0.00016304809 -0.00027179015 -1.7374829e-21 0.00048204913 2.1985281e-21 5.6928031e-38)
(0.00035942952 -0.00058418728 -1.2724352e-22 0.00095670955 1.6349736e-22 7.7926376e-40)
(0.00082770337 -0.0010513849 2.8645573e-22 0.0013649742 -3.1721327e-22 4.9291988e-40)
(0.0015053443 -0.0015828343 -4.8967477e-23 0.0017220612 1.3951683e-23 1.2819031e-40)
(0.002378976 -0.0021453642 1.4523276e-21 0.0020256895 -1.059309e-21 9.3407312e-39)
(0.0034492902 -0.0027194292 1.5932565e-21 0.0022765406 -1.0326615e-21 8.479978e-39)
(0.0046997911 -0.0032871642 -4.8615706e-22 0.0024813003 2.3184982e-22 1.3399849e-39)
(0.0061050358 -0.0038346652 -1.7439604e-21 0.0026471702 8.9756772e-22 8.4979096e-39)
(0.0076374172 -0.0043517591 -3.4451526e-21 0.0027800522 1.8360653e-21 1.7924926e-38)
(0.0092677855 -0.0048308362 -8.9272434e-23 0.0028846446 -3.8133962e-23 4.126247e-40)
(0.010965569 -0.0052660931 4.2868731e-21 0.0029646429 -1.9630142e-21 2.9323751e-38)
(0.012699382 -0.0056530464 -1.7345038e-21 0.0030228949 6.3905271e-22 8.7064235e-39)
(0.014437586 -0.0059882328 -1.0856665e-21 0.003061619 4.6836661e-22 1.7075091e-39)
(0.01614848 -0.0062690377 -1.1001221e-22 0.0030826664 1.4849868e-22 3.7121039e-40)
(0.017800811 -0.0064938058 2.4610835e-21 0.0030878065 -1.0790078e-21 6.967975e-39)
(0.019366393 -0.006662233 -1.3478952e-21 0.0030788407 7.0026053e-22 4.365278e-40)
(0.020820053 -0.0067750178 -3.0400546e-21 0.0030578741 1.2962583e-21 1.5028451e-38)
(0.022115334 -0.0068348937 1.9424266e-21 0.0030295143 -8.766711e-22 7.5475152e-39)
(0.023184385 -0.0068632843 1.6805406e-21 0.0029999435 -6.9079921e-22 7.0523748e-39)
(3.7611087e-05 -5.4053516e-05 1.8663161e-22 0.00011025484 -1.8145157e-22 1.2275485e-39)
(0.00026999857 -0.00043730688 6.3124182e-23 0.00073498869 -1.8551137e-23 5.4705119e-40)
(0.00058648046 -0.00092071781 -2.3640654e-21 0.0014550811 3.3967782e-21 4.6533596e-38)
(0.0012191595 -0.0015761334 -1.3579528e-21 0.0020716557 1.4439601e-21 1.4449147e-38)
(0.0020709912 -0.0022943905 9.1382374e-22 0.0026066654 -7.2689195e-22 8.7468479e-39)
(0.0031143805 -0.0030338092 1.1104955e-21 0.0030553826 -8.9416087e-22 4.1086792e-39)
(0.0043378824 -0.0037695798 -1.4490325e-21 0.003418894 9.4167595e-22 9.6328402e-39)
(0.0057129879 -0.0044803665 -2.1971709e-21 0.0037076629 1.2503053e-21 2.113936e-38)
(0.0072037499 -0.0051500441 3.1806759e-21 0.003932988 -1.8873528e-21 2.1632854e-38)
(0.0087732166 -0.0057669803 9.2772534e-22 0.004104291 -3.6697883e-22 5.0518024e-39)
(0.010383713 -0.0063226131 -2.7324309e-21 0.0042292303 1.8318271e-21 1.5650416e-39)
(0.011997049 -0.006810591 1.2247928e-21 0.0043139554 -5.4546001e-22 3.8810289e-39)
(0.013575264 -0.0072262196 0 0.0043633111 0 0)
(0.015081285 -0.0075660904 1.1410691e-21 0.0043811149 -5.5355199e-22 1.5092874e-39)
(0.016479274 -0.0078278744 -8.4101467e-22 0.0043705138 3.989158e-22 8.0524846e-40)
(0.017735332 -0.0080104075 -1.2570533e-21 0.0043343555 6.3671347e-22 9.6657565e-40)
(0.018821069 -0.0081142237 4.3496025e-22 0.0042752863 -3.9952543e-22 1.3847548e-39)
(0.019714515 -0.0081415764 -3.5877704e-22 0.0041965213 2.2995448e-22 4.8006008e-41)
(0.020367 -0.0080975509 1.6519449e-21 0.0041074124 -7.2336665e-22 8.1809742e-39)
(0.020698308 -0.0080102234 -1.3753163e-21 0.0040240695 7.0593318e-22 4.5083573e-40)
(6.1130527e-05 -8.6147088e-05 1.7925891e-22 0.00014942478 -1.5074148e-22 9.8519258e-40)
(0.00043561336 -0.00065056979 8.5024188e-22 0.00099394954 -1.1348993e-21 3.6223886e-39)
(0.00093260775 -0.0013476518 -1.1393248e-21 0.001960072 1.5173602e-21 8.754253e-39)
(0.0017908972 -0.0022163204 -1.8393995e-21 0.0027815936 2.0828635e-21 7.2597608e-39)
(0.002872826 -0.0031325248 -4.8951058e-22 0.0034868174 7.6286935e-22 5.7527271e-39)
(0.0041325043 -0.0040460026 -1.6433973e-21 0.0040681228 1.4521337e-21 3.5803109e-39)
(0.0055427271 -0.0049269493 -7.8614214e-22 0.0045275259 4.8254113e-22 4.1738094e-39)
(0.0070602864 -0.0057518263 1.3380858e-21 0.0048799367 -8.0124257e-22 7.6949884e-39)
(0.0086367233 -0.0065037083 3.1401636e-21 0.0051414444 -1.8646691e-21 2.6318737e-38)
(0.01022435 -0.0071708852 9.4487411e-22 0.0053257533 -5.8280109e-22 1.0994644e-39)
(0.011776469 -0.0077452554 -8.9623348e-22 0.0054442647 4.7281332e-22 1.7495742e-39)
(0.013247727 -0.0082213561 -1.8919982e-22 0.0055063581 -3.5276647e-23 1.5276695e-39)
(0.014595178 -0.0085957749 -4.0962162e-21 0.005519624 2.25458e-21 1.4406106e-38)
(0.0157793 -0.0088667606 -1.2533607e-21 0.0054901832 6.5917102e-22 1.4908208e-39)
(0.016764686 -0.0090339814 2.0400652e-21 0.0054230886 -1.2139186e-21 6.6841386e-40)
(0.017520976 -0.0090985091 -2.0079007e-21 0.0053227048 1.1123821e-21 1.4431213e-39)
(0.018027072 -0.0090632812 -6.983993e-22 0.0051925967 3.4889509e-22 4.7021738e-40)
(0.018273441 -0.0089335551 1.5321121e-21 0.0050364894 -6.3671669e-22 7.3665933e-39)
(0.018222654 -0.0087183285 2.2320899e-21 0.0048686157 -1.154806e-21 5.5215604e-39)
(0.017790761 -0.0084493519 2.7623298e-22 0.0047209908 -1.3156044e-22 1.0814482e-40)
(9.7094905e-05 -0.00012606186 -5.059598e-22 0.00018640769 4.1109778e-22 5.8310297e-39)
(0.0006746533 -0.00090583952 -5.6408617e-22 0.0012340541 5.7253378e-22 4.64726e-39)
(0.001424623 -0.0018508998 1.3470656e-21 0.002419886 -1.7228508e-21 1.9694293e-39)
(0.0025740812 -0.0029477633 2.0895325e-21 0.0034184677 -2.1771456e-21 9.6940648e-39)
(0.0039389398 -0.0040610521 2.7302862e-23 0.0042638272 -2.4695478e-23 1.9317477e-42)
(0.0054501971 -0.0051319597 -5.6220114e-21 0.0049459939 4.6640133e-21 5.6773701e-38)
(0.0070611052 -0.0061265198 -2.1302867e-21 0.005469077 1.8536746e-21 7.5773636e-40)
(0.0087115887 -0.0070208767 1.6949223e-21 0.0058532541 -1.1467475e-21 6.2398127e-39)
(0.010339892 -0.0077994736 1.9039846e-21 0.0061200708 -1.2885888e-21 3.8026871e-39)
(0.011888072 -0.0084527416 -1.8801352e-21 0.0062882066 1.0447737e-21 1.0482449e-38)
(0.013302256 -0.008975296 -5.3232923e-21 0.0063735188 3.4057942e-21 1.510448e-38)
(0.014533491 -0.0093649044 3.4556031e-21 0.0063893048 -2.1262632e-21 6.2043799e-39)
(0.015539288 -0.0096218594 2.0532211e-21 0.0063465539 -1.0734091e-21 7.5082854e-39)
(0.016285087 -0.0097485621 -2.776463e-21 0.0062542901 1.5550052e-21 6.1571034e-39)
(0.016745293 -0.0097492175 1.193447e-21 0.0061199718 -7.0823729e-22 4.0377153e-40)
(0.016904191 -0.0096296199 1.9559617e-21 0.0059498058 -1.0221073e-21 4.5933306e-39)
(0.016759853 -0.0093972232 7.292885e-22 0.005748245 -4.2610357e-22 1.516936e-40)
(0.016327234 -0.009061677 -1.2303475e-21 0.0055184041 8.0485385e-22 1.8098404e-40)
(0.015596259 -0.0086366663 -2.6384508e-22 0.005276951 7.3310048e-23 1.1451482e-39)
(0.014491938 -0.0081529205 1.5774722e-21 0.0050746887 -9.5766598e-22 4.3027612e-40)
(0.00014841114 -0.00017237511 -1.6768976e-23 0.00021821682 -1.4033417e-23 1.0431689e-40)
(0.00099936481 -0.0011911522 -2.0072156e-21 0.0014335304 2.1252138e-21 1.5231108e-38)
(0.0020818848 -0.0024030653 -1.6190077e-21 0.0027902535 1.7380454e-21 2.3124355e-38)
(0.003585477 -0.0037268075 2.940746e-21 0.0039184159 -2.8367964e-21 1.3431426e-38)
(0.0052740351 -0.0050193207 2.3474846e-21 0.0048571296 -2.3533395e-21 5.5980298e-39)
(0.0070503161 -0.0062141076 2.0345866e-21 0.0055957937 -1.700665e-21 2.2173998e-39)
(0.0088449869 -0.0072749945 -1.6775182e-22 0.0061423885 2.2125874e-22 1.0559598e-39)
(0.01058094 -0.0081806876 -1.8672533e-21 0.006523162 1.2710665e-21 6.0842018e-39)
(0.012184953 -0.0089200409 -5.1758559e-22 0.0067656339 4.5397443e-22 5.5908133e-40)