/*--------------------------------*- C++ -*----------------------------------*\
  =========                 |
  \\      /  F ield         | OpenFOAM: The Open Source CFD Toolbox
   \\    /   O peration     | Website:  https://openfoam.org
    \\  /    A nd           | Version:  6
     \\/     M anipulation  |
\*---------------------------------------------------------------------------*/
FoamFile
{
    version     2.0;
    format      ascii;
    class       volScalarField;
    location    "260";
    object      p;
}
// * * * * * * * * * * * * * * * * * * * * * * * * * * * * * * * * * * * * * //

dimensions      [0 2 -2 0 0 0 0];

internalField   nonuniform List<scalar> 
9200
(
-0.37794897
-0.36660249
-0.35650882
-0.34755953
-0.33881984
-0.3303036
-0.32208913
-0.31414388
-0.30640056
-0.29878724
-0.29123095
-0.28366267
-0.27602422
-0.26827562
-0.26040559
-0.25244946
-0.24448353
-0.23659565
-0.22981071
-0.22841072
-0.39580968
-0.38201202
-0.36997471
-0.35950564
-0.34939392
-0.33962101
-0.33025566
-0.32123461
-0.31245836
-0.30382856
-0.29525203
-0.28664657
-0.27794849
-0.26911859
-0.26014779
-0.25106105
-0.24188822
-0.23262902
-0.22396636
-0.21806619
-0.41408735
-0.39781568
-0.38388067
-0.37196224
-0.36053381
-0.34952622
-0.33898693
-0.32881423
-0.31887445
-0.30904673
-0.29922676
-0.28933248
-0.27931083
-0.26914084
-0.25883355
-0.2484276
-0.2379618
-0.22744507
-0.21727666
-0.20857165
-0.43234795
-0.41362139
-0.39785403
-0.38454786
-0.37182297
-0.35954323
-0.34772699
-0.33623355
-0.32490301
-0.31360735
-0.30225192
-0.2907785
-0.27916841
-0.26744028
-0.25564341
-0.24384761
-0.23211942
-0.22049774
-0.20925002
-0.19911738
-0.44996153
-0.4288831
-0.41140015
-0.39678332
-0.38277167
-0.36915131
-0.35591131
-0.34288269
-0.32989981
-0.3168546
-0.30369179
-0.29040518
-0.27703356
-0.26365077
-0.25035229
-0.23724103
-0.22440706
-0.2119089
-0.19993478
-0.1889921
-0.46610362
-0.44288185
-0.42385893
-0.40802087
-0.39271589
-0.37765243
-0.36280271
-0.34799508
-0.33309232
-0.31804268
-0.30286309
-0.28762412
-0.27243567
-0.2574289
-0.24273795
-0.22848486
-0.21476426
-0.20163204
-0.18921419
-0.1778475
-0.47976907
-0.4547313
-0.43440573
-0.41744653
-0.40082795
-0.38419654
-0.36753551
-0.35071128
-0.33365953
-0.31642419
-0.29912262
-0.28191595
-0.26498436
-0.2485035
-0.2326258
-0.21746914
-0.20310922
-0.18957715
-0.17693977
-0.1653983
-0.48979408
-0.4634013
-0.44208376
-0.424127
-0.40618098
-0.38786432
-0.36921386
-0.3501863
-0.33083865
-0.3113455
-0.29194193
-0.27287927
-0.25439332
-0.23668092
-0.21988684
-0.2041009
-0.18936027
-0.17565681
-0.16299943
-0.15147537
-0.49483643
-0.46761661
-0.44560704
-0.4267265
-0.40739906
-0.38727746
-0.36651219
-0.34520745
-0.32358119
-0.30195416
-0.28067262
-0.26005543
-0.24036327
-0.22178286
-0.204425
-0.18833283
-0.17349423
-0.15985757
-0.14737775
-0.13604453
-0.4935457
-0.46596033
-0.44342799
-0.42357971
-0.40276039
-0.38074052
-0.35784965
-0.33438531
-0.31074013
-0.28736418
-0.26467763
-0.24302145
-0.22263837
-0.20367205
-0.18617891
-0.17014677
-0.15551465
-0.14219309
-0.13009022
-0.11911095
-0.26506698
-0.26974126
-0.27224967
-0.27300082
-0.2727867
-0.27179419
-0.27010475
-0.26780592
-0.26496989
-0.26165141
-0.25789451
-0.25373672
-0.24921113
-0.24434782
-0.23917506
-0.23372173
-0.22801871
-0.22208653
-0.21592422
-0.2096173
-0.26779962
-0.27205865
-0.27426032
-0.27479279
-0.27439559
-0.27324687
-0.27142616
-0.2690173
-0.26608894
-0.26269298
-0.25887104
-0.25465852
-0.25008665
-0.24518349
-0.2399747
-0.23448817
-0.22876222
-0.22281575
-0.21654146
-0.20991342
-0.2731291
-0.27657607
-0.27817975
-0.27828449
-0.27752837
-0.2760741
-0.27399769
-0.27137573
-0.26826992
-0.26472653
-0.26078238
-0.25646863
-0.25181274
-0.24683893
-0.24156802
-0.23602502
-0.23025969
-0.22428977
-0.21781617
-0.21058114
-0.28081552
-0.28309997
-0.28383812
-0.28331414
-0.28202512
-0.28011417
-0.27765336
-0.27470941
-0.27133437
-0.26756665
-0.26343622
-0.25896814
-0.25418434
-0.24910333
-0.24373913
-0.23811158
-0.23228239
-0.22627393
-0.21954069
-0.21145514
-0.2905566
-0.29138734
-0.29102393
-0.28968268
-0.28769179
-0.28517357
-0.28219693
-0.27881728
-0.27507525
-0.27100004
-0.26661334
-0.26193196
-0.25697029
-0.25173992
-0.24624676
-0.24050228
-0.23457616
-0.22850396
-0.22148103
-0.21236502
-0.30203857
-0.30118598
-0.29951975
-0.2971892
-0.29433677
-0.29106538
-0.28744297
-0.28351392
-0.27930691
-0.27483943
-0.2701224
-0.26516336
-0.2599679
-0.25453918
-0.24887396
-0.24297241
-0.23690424
-0.23072439
-0.22339709
-0.21314384
-0.31498247
-0.31227086
-0.30913489
-0.30566401
-0.30180625
-0.2976483
-0.29326098
-0.28867731
-0.28391124
-0.2789678
-0.27384641
-0.26854334
-0.26305357
-0.25737073
-0.25148248
-0.24537719
-0.23911737
-0.23278062
-0.22516315
-0.21378129
-0.32917231
-0.32446693
-0.31972747
-0.31499322
-0.31001358
-0.30486195
-0.29961238
-0.2942857
-0.28888108
-0.28338915
-0.27779497
-0.27208055
-0.26622724
-0.26021659
-0.25402661
-0.24763674
-0.24110673
-0.23456015
-0.22674446
-0.21446557
-0.34445501
-0.33764181
-0.3311871
-0.32509018
-0.31889442
-0.31265862
-0.30646199
-0.30031261
-0.29419205
-0.28807331
-0.28192353
-0.27570628
-0.26938381
-0.26291737
-0.25626252
-0.24937139
-0.24226828
-0.23505939
-0.22648739
-0.2130499
-0.3607317
-0.35168776
-0.34340159
-0.3358374
-0.32831915
-0.32089082
-0.31363666
-0.30654974
-0.29959152
-0.29271571
-0.28587121
-0.27900482
-0.27206423
-0.264998
-0.25775029
-0.25025668
-0.24246005
-0.23415378
-0.22368701
-0.20801829
-0.20246659
-0.1935183
-0.18456506
-0.17567086
-0.16678201
-0.15794017
-0.14919888
-0.14059317
-0.13215234
-0.12390498
-0.1158769
-0.10809028
-0.10056427
-0.093315212
-0.086356704
-0.079699627
-0.073352275
-0.06732045
-0.061607564
-0.056214747
-0.051140972
-0.046383192
-0.041936492
-0.037794257
-0.033948343
-0.030389271
-0.027106413
-0.024088193
-0.021322276
-0.018795766
-0.016495386
-0.014407657
-0.012519062
-0.010816199
-0.0092859273
-0.0079154943
-0.0066926671
-0.0056058313
-0.0046441699
-0.0037975863
-0.0030575247
-0.0024149812
-0.0018676854
-0.0013989954
-0.0010444935
-0.00069461551
-0.00068792343
-8.0127175e-05
-0.0017060544
0.0024523276
-0.20347663
-0.19413108
-0.1850688
-0.17618893
-0.16728206
-0.15841004
-0.14964431
-0.14101634
-0.13255294
-0.12428326
-0.11623338
-0.10842538
-0.10087838
-0.093608801
-0.086630309
-0.079953847
-0.07358777
-0.067537942
-0.061807826
-0.056398594
-0.051309251
-0.046536771
-0.042076253
-0.037921081
-0.034063106
-0.030492835
-0.027199618
-0.024171853
-0.021397174
-0.018862649
-0.016554964
-0.014460599
-0.012565994
-0.010857705
-0.0093225486
-0.0079477292
-0.0067209713
-0.0056306194
-0.0046658158
-0.0038164245
-0.0030738497
-0.002429051
-0.0018797012
-0.0014091662
-0.0010527493
-0.00070153652
-0.00069132592
-8.5943181e-05
-0.0016914962
0.0024237402
-0.20559532
-0.19539914
-0.18611942
-0.17730824
-0.16837777
-0.15944507
-0.15063173
-0.14195974
-0.13344931
-0.12513172
-0.1170343
-0.109179
-0.10158504
-0.094269211
-0.087245436
-0.080524884
-0.074116118
-0.06802519
-0.062255714
-0.056808985
-0.051684098
-0.04687809
-0.042386091
-0.038201496
-0.034316143
-0.030720504
-0.027403881
-0.024354605
-0.021560237
-0.019007757
-0.016683759
-0.014574624
-0.012666692
-0.010946416
-0.00940051
-0.0080160761
-0.0067807391
-0.0056827457
-0.0047111441
-0.0038557062
-0.003107746
-0.002458138
-0.0019044371
-0.0014300029
-0.001069611
-0.0007155485
-0.00069831603
-9.7432927e-05
-0.0016629195
0.0023671795
-0.20866393
-0.19709106
-0.18749037
-0.17887815
-0.16995829
-0.1609489
-0.15208142
-0.14336049
-0.13479102
-0.1264094
-0.11824667
-0.11032481
-0.10266335
-0.095279912
-0.088189135
-0.081402707
-0.074929652
-0.068776427
-0.062946984
-0.057442882
-0.052263421
-0.047405785
-0.042865202
-0.038635115
-0.034707369
-0.031072408
-0.027719475
-0.024636813
-0.021811876
-0.019231519
-0.016882196
-0.014750141
-0.01282154
-0.011082685
-0.0095201305
-0.0081208206
-0.0068722234
-0.005762433
-0.0047803497
-0.0039156016
-0.0031593612
-0.0025023698
-0.0019420023
-0.0014615992
-0.001095159
-0.00073671449
-0.00070899271
-0.00011454848
-0.0016210721
0.0022838697
-0.21245581
-0.19893631
-0.18891242
-0.18070099
-0.17187711
-0.1627937
-0.15388316
-0.14512961
-0.13650654
-0.12805756
-0.11982219
-0.11182357
-0.10408165
-0.096615487
-0.089441129
-0.082571288
-0.076015834
-0.069781963
-0.063874247
-0.058294747
-0.053043155
-0.048116955
-0.043511586
-0.039220628
-0.035235996
-0.031548142
-0.028146268
-0.025018535
-0.022152276
-0.019534197
-0.017150581
-0.014987474
-0.013030857
-0.011266819
-0.0096816981
-0.0082622277
-0.0069956651
-0.0058698982
-0.0048736267
-0.0039962832
-0.0032288486
-0.002561882
-0.0019925166
-0.0015040602
-0.0011294889
-0.00076510633
-0.00072350191
-0.00013718889
-0.0015670976
0.002175696
-0.21662368
-0.20065443
-0.19011646
-0.18254358
-0.1739619
-0.16483609
-0.15590487
-0.14715311
-0.13850316
-0.13000019
-0.12169755
-0.11362283
-0.105797
-0.098240994
-0.090973084
-0.084007777
-0.077356358
-0.071027228
-0.065025984
-0.059355534
-0.054016249
-0.049006141
-0.044321051
-0.039954841
-0.035899608
-0.032145894
-0.028682914
-0.025498779
-0.022580711
-0.019915267
-0.017488538
-0.015286354
-0.01329446
-0.011498692
-0.009885132
-0.0084402493
-0.0071510408
-0.0060051366
-0.004990985
-0.0040977725
-0.0033162382
-0.0026367116
-0.0020560218
-0.0015574319
-0.0011726551
-0.00080076672
-0.00074199844
-0.00016521281
-0.0015024438
0.0020451127
-0.22077
-0.20206385
-0.19089075
-0.18412822
-0.17601216
-0.16694912
-0.15803146
-0.14931881
-0.14068502
-0.13215945
-0.12380785
-0.1156677
-0.10776329
-0.10011791
-0.092752788
-0.085685178
-0.07892858
-0.072493211
-0.066386216
-0.060611793
-0.055171361
-0.050063767
-0.045285498
-0.040830895
-0.036692388
-0.032860724
-0.029325217
-0.026073976
-0.023094149
-0.02037215
-0.017893879
-0.01564493
-0.013610784
-0.011776991
-0.010129332
-0.0086539719
-0.0073375981
-0.0061675352
-0.0051319318
-0.0042196801
-0.0034212296
-0.0027266343
-0.0021323584
-0.0016216109
-0.0012246068
-0.0008436746
-0.00076461914
-0.00019846937
-0.0014287603
0.0018950089
-0.22463393
-0.20356018
-0.19145963
-0.18526749
-0.17781365
-0.16904539
-0.16021934
-0.15157048
-0.14299015
-0.1344797
-0.12610393
-0.11791297
-0.10993886
-0.10220841
-0.094746203
-0.08757301
-0.080705334
-0.074155836
-0.067933709
-0.062044876
-0.056492181
-0.051275617
-0.046392574
-0.041838086
-0.037605083
-0.033684655
-0.030066308
-0.026738229
-0.023687536
-0.020900529
-0.018362924
-0.016060075
-0.013977185
-0.012099489
-0.010412439
-0.0089018522
-0.0075540698
-0.0063560669
-0.0052956484
-0.0043613678
-0.0035433398
-0.0028313005
-0.0022212893
-0.001696457
-0.0012852897
-0.00089383231
-0.00079155321
-0.00023686681
-0.0013478469
0.0017286744
-0.22587327
-0.2053881
-0.19251863
-0.18589768
-0.17893126
-0.17074462
-0.16219503
-0.15367528
-0.14520196
-0.13676856
-0.1284227
-0.12022226
-0.11221038
-0.10441972
-0.096878793
-0.089612493
-0.082641183
-0.075980798
-0.06964331
-0.063637034
-0.057966837
-0.052634397
-0.047638473
-0.042975191
-0.038638322
-0.034619576
-0.030908881
-0.027494679
-0.024364196
-0.02150372
-0.01889885
-0.016534746
-0.014396347
-0.01246858
-0.01073655
-0.0091857094
-0.0078020157
-0.0065720579
-0.0054832547
-0.0045237758
-0.0036833537
-0.0029513607
-0.0023233498
-0.0017823992
-0.0013550601
-0.00095146276
-0.00082318794
-0.00028011397
-0.0012618616
0.0015503784
-0.21601264
-0.2046342
-0.19363636
-0.18554898
-0.17849321
-0.17108082
-0.16313746
-0.1549836
-0.14679817
-0.13860722
-0.13043847
-0.12234941
-0.11439553
-0.10661977
-0.099057943
-0.09174162
-0.084697462
-0.077946935
-0.071506737
-0.065389223
-0.059602691
-0.054151689
-0.049037337
-0.044257669
-0.03980797
-0.035681104
-0.031867856
-0.028357255
-0.025136893
-0.022193232
-0.019511891
-0.01707792
-0.014876047
-0.012890913
-0.011107277
-0.0095102038
-0.0080852395
-0.0068185456
-0.0056971084
-0.0047086627
-0.0038425073
-0.0030875952
-0.0024389358
-0.001879489
-0.0014337484
-0.0010160414
-0.00085933332
-0.00032655303
-0.0011733647
0.0013656232
-0.19387468
-0.19858181
-0.19330866
-0.18440443
-0.17690191
-0.16989422
-0.16239411
-0.15453709
-0.14658902
-0.13861309
-0.13062888
-0.12268927
-0.11485354
-0.10716904
-0.099674773
-0.09240522
-0.08539002
-0.078653434
-0.072214676
-0.066088364
-0.060284822
-0.054810387
-0.049667745
-0.044856285
-0.040372448
-0.036210082
-0.032360788
-0.028814263
-0.025558637
-0.022580792
-0.019866664
-0.017401528
-0.015170265
-0.013157599
-0.011348317
-0.00972747
-0.0082805489
-0.006993631
-0.005853591
-0.0048480357
-0.003966086
-0.00319658
-0.0025340645
-0.0019619358
-0.0015019279
-0.0010746803
-0.00089045937
-0.00037295339
-0.0010829367
0.0011823122
-0.18332594
-0.18914688
-0.18567398
-0.17693537
-0.16973263
-0.16347668
-0.15677704
-0.1496339
-0.14234319
-0.13497994
-0.1275539
-0.12011364
-0.11272088
-0.10542667
-0.098273566
-0.091299883
-0.084539299
-0.078020077
-0.071765274
-0.065793143
-0.060117425
-0.054747633
-0.049689378
-0.044944729
-0.040512569
-0.03638895
-0.032567453
-0.029039548
-0.025794932
-0.022821869
-0.0201075
-0.017638146
-0.015399582
-0.013377294
-0.011556707
-0.0099233987
-0.0084632889
-0.0071627965
-0.0060090517
-0.0049898637
-0.0040944247
-0.0033117544
-0.0026359571
-0.0020514461
-0.0015762417
-0.0011399556
-0.00092403607
-0.00042746592
-0.00098207225
0.00098467687
-0.17458786
-0.17780932
-0.17553234
-0.16851177
-0.16215944
-0.1565974
-0.15066454
-0.14425145
-0.13762476
-0.13087961
-0.12402787
-0.11711193
-0.11019228
-0.10332181
-0.096545207
-0.089903143
-0.083432211
-0.077163893
-0.071124539
-0.065335684
-0.059814292
-0.054572975
-0.049620294
-0.044961084
-0.0405968
-0.036525865
-0.03274403
-0.029244724
-0.026019412
-0.023057928
-0.020348802
-0.017879572
-0.015637066
-0.013607675
-0.011777592
-0.010133036
-0.0086604561
-0.007346699
-0.006179222
-0.005146098
-0.0042366314
-0.0034400732
-0.0027500583
-0.0021521476
-0.0016602766
-0.0012139396
-0.00096305472
-0.00048885971
-0.00087372158
0.00076820423
-0.16490976
-0.16552252
-0.16369115
-0.15874666
-0.15362427
-0.14880486
-0.14366312
-0.13806173
-0.13217809
-0.12611303
-0.11989421
-0.11356207
-0.10717374
-0.10078275
-0.09443561
-0.08817501
-0.082040029
-0.076065113
-0.070279805
-0.064708922
-0.059372729
-0.054287095
-0.049463728
-0.044910468
-0.040631602
-0.036628192
-0.032898425
-0.029437959
-0.026240277
-0.023297024
-0.020598346
-0.0181332
-0.015889656
-0.013855177
-0.012016871
-0.01036173
-0.0088768429
-0.00754958
-0.0063678057
-0.0053199208
-0.0043953923
-0.0035837373
-0.0028781432
-0.0022653207
-0.0017550999
-0.0012968359
-0.0010087545
-0.00055461273
-0.00076544335
0.0005429539
-0.15434059
-0.15307348
-0.15126417
-0.14803457
-0.14420541
-0.14019085
-0.13584613
-0.1310887
-0.12600202
-0.12066914
-0.11513321
-0.10943723
-0.10363419
-0.097776492
-0.09191157
-0.086083374
-0.080332728
-0.074696478
-0.069206995
-0.063892168
-0.058775475
-0.053876058
-0.049208881
-0.044784958
-0.040611625
-0.036692831
-0.033029465
-0.029619687
-0.026459266
-0.023541925
-0.020859672
-0.018403119
-0.016161793
-0.014124424
-0.012279211
-0.010614073
-0.009116874
-0.0077756223
-0.0065786873
-0.0055148759
-0.0045738839
-0.0037455313
-0.0030226119
-0.0023929295
-0.001862386
-0.0013896793
-0.001062635
-0.00062409565
-0.00066327546
0.0003170304
-0.14255406
-0.14049517
-0.13880042
-0.13684513
-0.13418681
-0.13100824
-0.12745065
-0.12351786
-0.11923198
-0.11464886
-0.10981939
-0.10478828
-0.099603938
-0.094316402
-0.088972948
-0.083617746
-0.078292261
-0.073034743
-0.067879632
-0.062857317
-0.057994065
-0.053312014
-0.04882923
-0.044559855
-0.040514306
-0.036699524
-0.03311925
-0.029774328
-0.026663024
-0.023781355
-0.021123412
-0.018681681
-0.016447354
-0.014410625
-0.012560966
-0.010887388
-0.0093786778
-0.0080236125
-0.0068111783
-0.0057306811
-0.0047721273
-0.0039256843
-0.0031838367
-0.0025353907
-0.0019826506
-0.0014927861
-0.0011256784
-0.0006968672
-0.00057321033
9.9086224e-05
-0.12986012
-0.1279304
-0.12658372
-0.12554052
-0.12384582
-0.12147691
-0.11867961
-0.11552548
-0.11201135
-0.10816678
-0.10404171
-0.09968253
-0.095132188
-0.090435605
-0.085638693
-0.080785095
-0.07591592
-0.071069684
-0.066281886
-0.061584598
-0.057006226
-0.052571385
-0.04830086
-0.044211662
-0.040317144
-0.036627172
-0.033148354
-0.029884288
-0.026835853
-0.024001504
-0.021377584
-0.018958629
-0.016737679
-0.014706574
-0.012856231
-0.011176916
-0.0096584917
-0.008290639
-0.0070630831
-0.0059657309
-0.0049889947
-0.0041234419
-0.0033613569
-0.0026924367
-0.0021158489
-0.001606084
-0.0011985598
-0.00077251195
-0.0005011482
-0.00010156869
-0.11697447
-0.11562491
-0.11476687
-0.11437947
-0.11344033
-0.11180663
-0.1097201
-0.10728313
-0.10448897
-0.10134947
-0.097906706
-0.094205015
-0.090284237
-0.086183677
-0.08194441
-0.077608346
-0.073215619
-0.068804074
-0.064409189
-0.060063749
-0.055797473
-0.051636763
-0.047604558
-0.043720296
-0.039999934
-0.036456043
-0.03309796
-0.029931983
-0.026961607
-0.024187782
-0.021609193
-0.019222551
-0.017022881
-0.015003816
-0.013157872
-0.011476722
-0.0099514472
-0.0085727682
-0.007331274
-0.0062175817
-0.0052226123
-0.0043373947
-0.0035541414
-0.0028633245
-0.0022615266
-0.0017292452
-0.0012816546
-0.00085081991
-0.00045210916
-0.00027608463
-0.10444021
-0.10375716
-0.10341499
-0.10352161
-0.10317052
-0.10217412
-0.10072918
-0.098939415
-0.096801359
-0.094317319
-0.091519623
-0.088447245
-0.085135526
-0.081619431
-0.077935454
-0.074121134
-0.070214194
-0.06625111
-0.062266508
-0.058292931
-0.054360517
-0.050496663
-0.046725782
-0.043069161
-0.039544891
-0.036167882
-0.032949929
-0.029899845
-0.027023631
-0.024324685
-0.021804045
-0.019460639
-0.017291561
-0.015292339
-0.013457206
-0.011779365
-0.010251246
-0.0088647331
-0.0076114008
-0.0064826844
-0.0054701216
-0.0045652712
-0.0037604139
-0.003046694
-0.0024187044
-0.0018616109
-0.0013749239
-0.00093179506
-0.0004294565
-0.00041731901
-0.092542923
-0.092445933
-0.092572186
-0.093066461
-0.09317672
-0.092715168
-0.091830874
-0.090613787
-0.089062728
-0.087175246
-0.084974585
-0.082492698
-0.079759658
-0.076805336
-0.073661766
-0.070362359
-0.066940883
-0.063431138
-0.059866137
-0.056277415
-0.052694688
-0.049145541
-0.045655128
-0.042245936
-0.038937634
-0.035747
-0.032687912
-0.029771402
-0.027005764
-0.024396704
-0.021947526
-0.019659353
-0.017531355
-0.015561005
-0.013744325
-0.012076139
-0.010550323
-0.009160036
-0.0078979427
-0.0067563999
-0.0057276671
-0.004803907
-0.0039776113
-0.0032405213
-0.0025858335
-0.0020021391
-0.0014778357
-0.0010155489
-0.00043431635
-0.00052096488
-0.081422975
-0.081781999
-0.082290687
-0.083087561
-0.083558662
-0.083534218
-0.083125228
-0.0824038
-0.081368339
-0.080013477
-0.078354811
-0.07641693
-0.074224143
-0.071801051
-0.06917458
-0.066373764
-0.063428512
-0.060369021
-0.057225606
-0.054028044
-0.050804919
-0.047583255
-0.044388217
-0.041242823
-0.038167718
-0.035181019
-0.032298234
-0.029532244
-0.026893338
-0.024389301
-0.022025549
-0.01980529
-0.017729724
-0.015798252
-0.014008709
-0.012357589
-0.010840283
-0.0094513015
-0.0081844908
-0.0070332188
-0.0059905639
-0.0050493679
-0.0042024736
-0.0034421765
-0.0027608318
-0.0021493995
-0.0015893372
-0.0011021448
-0.00046528695
-0.00058638563
-0.071140874
-0.071827851
-0.072622909
-0.073644822
-0.07439109
-0.074713778
-0.074695759
-0.074392558
-0.073800485
-0.072911757
-0.071735642
-0.070289806
-0.068592689
-0.066663572
-0.064524196
-0.062198727
-0.059712877
-0.057093165
-0.054366565
-0.051560239
-0.048700943
-0.045814479
-0.042925345
-0.040056428
-0.037228731
-0.034461154
-0.031770339
-0.029170586
-0.026673819
-0.024289614
-0.022025265
-0.019885902
-0.017874638
-0.015992737
-0.014239816
-0.012614046
-0.011112364
-0.0097306833
-0.008464095
-0.007307052
-0.0062535363
-0.0052971425
-0.0044311944
-0.0036485348
-0.0029411655
-0.0023015963
-0.0017078678
-0.0011914322
-0.00051854124
-0.00061690659
-0.061708547
-0.062616276
-0.063609023
-0.064784961
-0.065730966
-0.066319586
-0.066612834
-0.066652494
-0.066432425
-0.065942698
-0.065187359
-0.064177939
-0.062927308
-0.061449578
-0.059761403
-0.057882033
-0.055832641
-0.05363575
-0.051314808
-0.048893843
-0.046397101
-0.043848535
-0.041271359
-0.038687708
-0.036118338
-0.033582359
-0.031097028
-0.028677595
-0.026337216
-0.024086909
-0.021935567
-0.019890016
-0.01795511
-0.016133861
-0.014427591
-0.012836108
-0.011357889
-0.0099902695
-0.0087296257
-0.0075715483
-0.0065109921
-0.0055423728
-0.0046596123
-0.0038561246
-0.0031239644
-0.002456618
-0.0018314175
-0.0012829136
-0.00058836382
-0.00061937364
-0.053111185
-0.054155516
-0.055271447
-0.056539453
-0.057619508
-0.058402338
-0.058934142
-0.059245818
-0.05932918
-0.059172606
-0.058775926
-0.058145479
-0.057289152
-0.056216273
-0.054938694
-0.053470905
-0.051829535
-0.050032892
-0.048100638
-0.04605343
-0.043912555
-0.041699558
-0.03943581
-0.037142124
-0.034838433
-0.032543497
-0.030274656
-0.028047623
-0.025876343
-0.023772889
-0.021747423
-0.019808193
-0.017961576
-0.016212158
-0.01456285
-0.013015016
-0.011568629
-0.010222432
-0.0089741001
-0.0078203932
-0.0067572913
-0.0057800907
-0.004883414
-0.0040612932
-0.0033061545
-0.0026121127
-0.001957633
-0.0013756894
-0.0006680533
-0.00060296597
-0.045317989
-0.046434641
-0.047614518
-0.048923585
-0.050082442
-0.050997889
-0.05170407
-0.052223436
-0.052546453
-0.05266042
-0.052561942
-0.052253156
-0.051737734
-0.051020803
-0.050109878
-0.049015035
-0.047748551
-0.04632457
-0.044758843
-0.043068458
-0.041271507
-0.039386736
-0.037433198
-0.035429886
-0.033395388
-0.031347585
-0.029303377
-0.027278445
-0.025287058
-0.02334193
-0.02145412
-0.019632977
-0.017886139
-0.016219553
-0.014637547
-0.013142923
-0.011737068
-0.010420085
-0.0091909315
-0.0080475467
-0.0069869683
-0.0060054219
-0.0050983159
-0.0042603617
-0.0034845906
-0.0027655791
-0.0020839622
-0.0014684931
-0.00075100368
-0.00057748408
-0.03828758
-0.039428755
-0.040627474
-0.041937845
-0.043130949
-0.044127839
-0.044953554
-0.045624137
-0.046129412
-0.046456254
-0.046598997
-0.046556564
-0.04632926
-0.04591872
-0.045328734
-0.044565457
-0.04363719
-0.042554139
-0.041328243
-0.039972979
-0.038503101
-0.036934343
-0.035283108
-0.033566164
-0.03180031
-0.030002074
-0.02818743
-0.026371541
-0.024568538
-0.022791338
-0.021051498
-0.019359118
-0.017722786
-0.016149552
-0.014644957
-0.01321307
-0.011856574
-0.010576852
-0.009374095
-0.0082474042
-0.0071948871
-0.0062137327
-0.0053002011
-0.0044497479
-0.0036561684
-0.0029144628
-0.002207819
-0.0015598062
-0.00083169681
-0.00055154381
-0.031972531
-0.033103935
-0.03428855
-0.035570779
-0.036763707
-0.037800982
-0.038700875
-0.039474675
-0.040112177
-0.04060042
-0.040932332
-0.041104556
-0.041114873
-0.040962189
-0.040647259
-0.040172931
-0.039544023
-0.038767191
-0.037850823
-0.036804924
-0.035640924
-0.034371458
-0.033010107
-0.031571132
-0.0300692
-0.028519095
-0.026935436
-0.025332425
-0.023723608
-0.02212167
-0.020538258
-0.018983844
-0.017467627
-0.015997467
-0.014579862
-0.013219952
-0.011921549
-0.010687198
-0.0095182431
-0.008414903
-0.0073763408
-0.0064007231
-0.0054852069
-0.0046260497
-0.0038179073
-0.003056245
-0.0023267358
-0.0016480107
-0.00090633951
-0.00053118587
-0.026322787
-0.027420957
-0.02856857
-0.029802054
-0.030969414
-0.032015345
-0.032953147
-0.033790658
-0.034518114
-0.035123194
-0.035598152
-0.035938164
-0.036139278
-0.036198417
-0.036114011
-0.035886256
-0.035517078
-0.03501007
-0.034370464
-0.033605071
-0.03272217
-0.031731356
-0.030643347
-0.029469768
-0.028222927
-0.02691557
-0.025560623
-0.024170944
-0.022759092
-0.021337112
-0.019916336
-0.018507226
-0.017119234
-0.015760707
-0.01443882
-0.013159537
-0.011927606
-0.010746577
-0.009618829
-0.0085456219
-0.0075271326
-0.0065624953
-0.0056497837
-0.0047860998
-0.003967008
-0.0031885169
-0.0024384777
-0.0017315334
-0.00097298809
-0.00051928933
-0.021287971
-0.022337955
-0.023433745
-0.024605184
-0.025729302
-0.026760403
-0.027708158
-0.028577944
-0.029360756
-0.030045252
-0.030623585
-0.031090143
-0.031439922
-0.031668536
-0.031772764
-0.03175081
-0.031602319
-0.031328375
-0.030931526
-0.030415782
-0.029786566
-0.029050625
-0.028215906
-0.027291402
-0.026286973
-0.025213147
-0.024080914
-0.022901495
-0.021686127
-0.020445852
-0.019191317
-0.017932601
-0.016679055
-0.015439179
-0.014220517
-0.01302959
-0.011871852
-0.010751663
-0.0096722942
-0.0086359311
-0.0076436923
-0.0066956417
-0.0057907624
-0.0049270205
-0.0041009023
-0.0033090432
-0.0025411039
-0.0018089473
-0.0010311922
-0.00051588088
-0.016819268
-0.017812649
-0.018848135
-0.019950068
-0.021019634
-0.02201944
-0.022956502
-0.02383445
-0.024645233
-0.025378691
-0.026027285
-0.026585143
-0.027046761
-0.027407017
-0.027661638
-0.02780744
-0.02784238
-0.0277656
-0.027577479
-0.027279679
-0.02687515
-0.02636809
-0.025763886
-0.025069017
-0.024290927
-0.023437879
-0.022518791
-0.021543052
-0.020520324
-0.019460356
-0.01837279
-0.017266987
-0.01615186
-0.01503573
-0.013926205
-0.012830077
-0.01175325
-0.010700682
-0.0096763487
-0.0086832244
-0.0077232641
-0.0067973936
-0.0059054683
-0.0050463126
-0.0042173222
-0.0034158305
-0.0026329873
-0.001879023
-0.0010813718
-0.00051909079
-0.012870485
-0.013803761
-0.014775322
-0.015804859
-0.016813691
-0.017771567
-0.018683535
-0.019551983
-0.020369891
-0.021128371
-0.021820463
-0.022440409
-0.022982621
-0.023441698
-0.023812808
-0.024091904
-0.024275796
-0.02436221
-0.024349872
-0.024238575
-0.024029221
-0.023723833
-0.023325532
-0.022838503
-0.022267915
-0.021619827
-0.020901067
-0.020119096
-0.01928185
-0.018397576
-0.017474662
-0.01652147
-0.015546177
-0.014556626
-0.013560187
-0.012563641
-0.011573078
-0.010593818
-0.0096303417
-0.008686243
-0.0077641814
-0.0068658477
-0.0059919047
-0.0051420013
-0.0043144114
-0.003507215
-0.0027128241
-0.0019407488
-0.0011242118
-0.00052629949
-0.0093996105
-0.010272815
-0.011180404
-0.01213807
-0.01308395
-0.013993909
-0.014871511
-0.015718245
-0.016528111
-0.017293495
-0.018008167
-0.018666724
-0.01926379
-0.019794015
-0.020252393
-0.02063444
-0.020936271
-0.021154671
-0.021287184
-0.021332197
-0.021289004
-0.021157847
-0.020939939
-0.020637458
-0.020253522
-0.01979214
-0.019258137
-0.018657054
-0.017995045
-0.017278736
-0.016515095
-0.015711278
-0.014874484
-0.014011818
-0.013130144
-0.012235964
-0.011335302
-0.010433598
-0.0095356273
-0.0086454152
-0.0077661733
-0.0069002357
-0.0060489822
-0.005212827
-0.004390875
-0.0035819745
-0.0027796609
-0.0019933524
-0.0011602855
-0.0005350499
-0.0063686411
-0.0071844394
-0.0080307092
-0.0089196741
-0.0098035335
-0.010663368
-0.011501592
-0.012319018
-0.013110605
-0.013869947
-0.014591596
-0.015270646
-0.015902108
-0.016480913
-0.017002151
-0.017461222
-0.017853911
-0.018176451
-0.018425614
-0.018598798
-0.018694104
-0.018710393
-0.018647336
-0.018505438
-0.018286049
-0.017991351
-0.01762433
-0.017188714
-0.016688904
-0.016129888
-0.015517129
-0.014856451
-0.014153908
-0.013415665
-0.012647862
-0.01185649
-0.011047271
-0.010225545
-0.0093961652
-0.0085634005
-0.0077308468
-0.0069013433
-0.0060768755
-0.0052585415
-0.0044462141
-0.0036395035
-0.0028329856
-0.0020363637
-0.0011899681
-0.00054352892
-0.003745368
-0.0045079665
-0.0052972409
-0.0061223461
-0.0069472378
-0.0077574291
-0.0085544247
-0.0093385066
-0.01010549
-0.010850071
-0.011567571
-0.012253635
-0.012903755
-0.013513271
-0.014077546
-0.014592091
-0.015052622
-0.015455125
-0.015795931
-0.016071804
-0.016280016
-0.016418415
-0.016485486
-0.016480401
-0.016403047
-0.016254052
-0.016034782
-0.015747322
-0.015394444
-0.014979551
-0.014506609
-0.01398006
-0.013404725
-0.012785698
-0.012128233
-0.011437629
-0.010719114
-0.0099777252
-0.0092182019
-0.0084448727
-0.0076615506
-0.0068714328
-0.0060769865
-0.0052798954
-0.0044807228
-0.0036798072
-0.0028727045
-0.0020695922
-0.0012134597
-0.00055060994
-0.0015041211
-0.0022193222
-0.0029575541
-0.0037253459
-0.004496417
-0.0052599936
-0.0060168419
-0.0067668122
-0.0075064579
-0.0082314395
-0.008937792
-0.0096217049
-0.010279176
-0.010906007
-0.011497933
-0.012050709
-0.012560165
-0.013022251
-0.013433113
-0.013789158
-0.014087133
-0.014324192
-0.014497961
-0.014606596
-0.014648836
-0.014624039
-0.01453221
-0.014374015
-0.014150772
-0.013864433
-0.013517549
-0.013113216
-0.012655012
-0.012146911
-0.011593193
-0.01099835
-0.010366975
-0.0097036527
-0.0090128463
-0.0082987837
-0.0075653416
-0.0068159324
-0.0060533773
-0.0052798368
-0.0044964733
-0.0037042941
-0.0028997703
-0.0020936165
-0.001231267
-0.00055592025
0.00037920633
-0.00029441839
-0.00098781702
-0.0017051422
-0.0024281672
-0.0031492263
-0.0038684847
-0.0045854264
-0.0052972169
-0.0060003375
-0.0066914489
-0.0073672413
-0.0080241942
-0.0086585706
-0.009266505
-0.0098440671
-0.010387299
-0.010892257
-0.011355068
-0.011771988
-0.012139473
-0.012454236
-0.012713316
-0.012914138
-0.013054575
-0.013132995
-0.01314831
-0.013100004
-0.01298816
-0.01281346
-0.012577186
-0.012281194
-0.011927874
-0.011520101
-0.011061166
-0.010554699
-0.01000458
-0.0094148381
-0.0087895439
-0.0081326971
-0.0074481069
-0.0067392718
-0.0060092447
-0.0052605501
-0.0044948493
-0.0037137372
-0.0029145189
-0.0021084275
-0.0012432064
-0.00055896348
0.0019017978
0.0012619516
0.00060536803
-7.0355241e-05
-0.00075340898
-0.0014385718
-0.0021255128
-0.0028134191
-0.0034999463
-0.0041822398
-0.0048574786
-0.0055227795
-0.0061750438
-0.0068109513
-0.0074270163
-0.008019629
-0.0085850839
-0.0091196114
-0.0096194222
-0.010080757
-0.010499941
-0.010873441
-0.011197928
-0.011470334
-0.011687916
-0.011848316
-0.011949612
-0.011990367
-0.011969668
-0.011887155
-0.011743039
-0.011538097
-0.011273675
-0.010951653
-0.010574401
-0.010144727
-0.0096658012
-0.0091410714
-0.0085741675
-0.0079687918
-0.0073286019
-0.006657088
-0.0059574338
-0.0052324252
-0.0044841188
-0.0037146007
-0.0029219057
-0.0021177131
-0.0012518821
-0.0005610544
0.0031044154
0.0024923459
0.0018658951
0.0012242872
0.00057430706
-8.0782144e-05
-0.00074026451
-0.0014030766
-0.0020672452
-0.0027304333
-0.0033902302
-0.0040440966
-0.0046892797
-0.005322809
-0.0059415273
-0.0065421158
-0.0071211144
-0.0076749465
-0.0081999521
-0.0086924282
-0.0091486741
-0.0095650412