/*--------------------------------*- C++ -*----------------------------------*\
  =========                 |
  \\      /  F ield         | OpenFOAM: The Open Source CFD Toolbox
   \\    /   O peration     | Website:  https://openfoam.org
    \\  /    A nd           | Version:  6
     \\/     M anipulation  |
\*---------------------------------------------------------------------------*/
FoamFile
{
    version     2.0;
    format      ascii;
    class       volVectorField;
    location    "260";
    object      UMean;
}
// * * * * * * * * * * * * * * * * * * * * * * * * * * * * * * * * * * * * * //

dimensions      [0 1 -1 0 0 0 0];

internalField   nonuniform List<vector> 
9200
(
(0.0015697643 0.0010142019 -6.0601543e-20)
(0.01543946 -0.0033370106 4.7888988e-20)
(0.041421403 -0.0078928036 -3.9609179e-20)
(0.076807259 -0.01243642 -6.2599429e-20)
(0.11972918 -0.016740894 1.9459927e-20)
(0.16893998 -0.020370995 3.402408e-20)
(0.22335032 -0.023038867 -1.272941e-20)
(0.281954 -0.024600941 9.627483e-21)
(0.34381031 -0.025000354 1.7675657e-20)
(0.40801255 -0.024243735 1.5622106e-21)
(0.47366468 -0.022389908 -2.2620136e-20)
(0.5398727 -0.019538899 2.1747743e-20)
(0.60574788 -0.015820998 -4.2458891e-20)
(0.67041977 -0.011385635 -2.2292963e-20)
(0.73305733 -0.0063895913 6.2293439e-21)
(0.79289549 -0.00098731096 -2.6566704e-20)
(0.84928028 0.004692169 2.6689049e-20)
(0.90179128 0.010691882 2.3654765e-20)
(0.95005926 0.017141261 -2.6796334e-22)
(0.99142582 0.02070699 -1.608019e-21)
(0.0059378699 -0.0018029596 -1.7459493e-20)
(0.029139987 -0.010370805 4.1186343e-20)
(0.06540239 -0.016950979 2.4076508e-20)
(0.11160878 -0.021947895 -1.1964122e-19)
(0.16558603 -0.025539672 -1.3108253e-20)
(0.22582836 -0.027523659 7.6144831e-20)
(0.29097941 -0.027813316 -3.6850684e-20)
(0.35975402 -0.026452221 -8.7682851e-21)
(0.43092694 -0.023554439 3.5869324e-20)
(0.50330987 -0.019285494 -4.5336044e-20)
(0.57574071 -0.013854536 -3.1940256e-20)
(0.64709106 -0.0075039167 7.5810247e-20)
(0.71628672 -0.00049739028 4.0291213e-20)
(0.78233677 0.0068915576 -7.1621276e-20)
(0.84436703 0.014389666 1.5407677e-20)
(0.9016521 0.021728561 -3.8706932e-20)
(0.95365508 0.028658649 -1.463737e-20)
(1.0001254 0.035021811 7.472901e-20)
(1.0409675 0.040410326 3.1832353e-20)
(1.0744365 0.041720974 -8.4882274e-20)
(0.011711479 -0.0045301961 3.7360634e-20)
(0.046564081 -0.016859505 2.3602819e-21)
(0.094882106 -0.024722777 2.2633481e-20)
(0.15319488 -0.029267485 1.0111853e-21)
(0.21903412 -0.031162106 -4.1691776e-20)
(0.29061063 -0.030500821 1.9385183e-20)
(0.36626692 -0.027458786 1.3732469e-20)
(0.44440721 -0.022324448 -5.2319856e-20)
(0.52350291 -0.015435689 5.9746967e-20)
(0.6020889 -0.0071624773 1.5125436e-20)
(0.67877451 0.0021007756 -5.7063229e-20)
(0.7522723 0.011948834 -1.9261205e-20)
(0.82143617 0.021982106 9.2780816e-21)
(0.885301 0.031822832 2.4621927e-20)
(0.94311688 0.041128908 -1.1909316e-20)
(0.99437141 0.049602715 2.9217768e-20)
(1.0388014 0.057005039 -2.1228548e-20)
(1.0764219 0.063202035 -7.316296e-20)
(1.1074024 0.06792875 -2.4254935e-20)
(1.1309259 0.069318933 5.0293865e-20)
(0.018985329 -0.0069185179 2.4794492e-20)
(0.067826161 -0.022108026 5.2116701e-20)
(0.12984162 -0.030169937 2.0390347e-20)
(0.20128208 -0.033118318 1.3583172e-20)
(0.27940275 -0.032198827 1.7985097e-20)
(0.36211492 -0.027871701 -4.9415861e-20)
(0.4474444 -0.020637649 -2.6656612e-20)
(0.53348607 -0.011086779 0)
(0.61843805 0.00017373232 1.5165714e-20)
(0.70062705 0.012539469 -6.517255e-21)
(0.77854552 0.02542008 -1.0233546e-19)
(0.85089983 0.038258825 -1.6350236e-20)
(0.91665713 0.050554448 6.81932e-20)
(0.9750812 0.061880354 4.7845218e-22)
(1.0257505 0.071898535 -1.6411617e-21)
(1.0685538 0.080366223 2.2872525e-20)
(1.1036662 0.087142358 -5.3700749e-21)
(1.1315229 0.092215887 -6.3513313e-20)
(1.1527015 0.095564887 -4.7700077e-20)
(1.1671979 0.096242115 7.1111873e-20)
(0.027784475 -0.0086859583 -3.8554358e-21)
(0.092820317 -0.025366622 -4.8730285e-21)
(0.16988224 -0.032220883 5.7767358e-20)
(0.25504975 -0.03224092 1.923112e-20)
(0.34534192 -0.027331689 -3.3221384e-20)
(0.43838077 -0.018388765 1.2363627e-20)
(0.5319 -0.0062977512 2.7415444e-21)
(0.62374215 0.0080054669 3.5172868e-20)
(0.71193077 0.0236211 5.9047881e-21)
(0.79472799 0.039711863 -1.398043e-20)
(0.8706929 0.0555199 6.3131941e-20)
(0.93873562 0.070391073 -6.0345656e-20)
(0.99815339 0.08379762 -1.3770043e-19)
(1.0486405 0.095352717 -5.8031476e-21)
(1.0902692 0.10481477 8.6304404e-20)
(1.1234427 0.11208082 0)
(1.1488283 0.11717547 1.0591546e-20)
(1.1672876 0.12025365 -1.591996e-20)
(1.1797611 0.12149918 -9.0059772e-21)
(1.1868219 0.12052456 2.1471101e-20)
(0.038044111 -0.009528013 -5.1925574e-21)
(0.12118953 -0.025873706 4.4301882e-21)
(0.2142161 -0.029855242 -8.9396555e-21)
(0.31317937 -0.025524603 2.892321e-20)
(0.41493831 -0.015511216 -3.0402119e-20)
(0.51688088 -0.0012034888 -1.7498045e-20)
(0.61653232 0.016088218 3.8017397e-20)
(0.71160954 0.035068306 4.7663481e-21)
(0.80013256 0.054560968 -2.5809288e-20)
(0.8805066 0.073544217 7.2621883e-20)
(0.95158457 0.091169267 3.3041883e-22)
(1.0127034 0.10678203 -8.36788e-20)
(1.0636842 0.11993568 0)
(1.1047942 0.13038815 4.0894601e-20)
(1.1366752 0.13808491 5.6702434e-21)
(1.1602497 0.14312931 -7.994573e-20)
(1.1766162 0.14574854 -2.0204758e-20)
(1.1869532 0.1462712 -1.2785159e-20)
(1.1924129 0.14504 -1.5135435e-20)
(1.1938518 0.14200044 4.1494888e-20)
(0.049596465 -0.0091385248 -1.7301283e-20)
(0.15230955 -0.022914852 -2.9393665e-21)
(0.26167544 -0.022193795 3.0619236e-20)
(0.37391389 -0.01211874 3.7623912e-20)
(0.4858458 0.0039254216 -2.0384559e-20)
(0.59473843 0.024029169 -7.1427088e-20)
(0.69805974 0.046455847 -2.9190834e-20)
(0.79359556 0.069584259 8.1679361e-20)
(0.87958963 0.092032451 9.1319015e-21)
(0.95483025 0.11269409 -2.5650176e-20)
(1.0186902 0.13074995 1.3979699e-20)
(1.0711184 0.14567257 -4.4967391e-21)
(1.1125816 0.15721358 0)
(1.1439658 0.16537102 2.8073309e-20)
(1.1664525 0.17034143 -8.1700467e-20)
(1.1813876 0.17246334 -3.240415e-20)
(1.1901588 0.17216238 8.3234413e-20)
(1.1940976 0.16991159 -4.6099891e-21)
(1.1943992 0.16615426 3.5919508e-21)
(1.191974 0.16102124 2.7923363e-20)
(0.062164747 -0.0072374827 -3.2531403e-20)
(0.18529482 -0.015894611 -8.3021518e-20)
(0.31075755 -0.0085960925 1.9077232e-21)
(0.43516085 0.0084636809 7.1973346e-20)
(0.55545883 0.031166891 6.4038229e-20)
(0.66897281 0.057102484 -7.3069919e-20)
(0.77332651 0.084160952 9.8198193e-23)
(0.86661803 0.1104887 8.8608614e-20)
(0.94756534 0.13462303 5.0401958e-20)
(1.0155684 0.15551761 -5.6076774e-20)
(1.0706983 0.1725292 -9.5307365e-20)
(1.1136215 0.18538778 -3.2566627e-21)
(1.1454738 0.19414408 4.3376947e-20)
(1.1677047 0.199098 -6.7439868e-21)
(1.1819168 0.20071815 -1.3103659e-20)
(1.189721 0.19956337 2.0010934e-20)
(1.192622 0.19621635 4.4946589e-20)
(1.191944 0.19123943 -4.4774605e-20)
(1.1887893 0.18511399 -1.0467743e-19)
(1.1839785 0.17806103 2.5292563e-20)
(0.075333653 -0.0036016817 -3.5561276e-20)
(0.21895999 -0.0044123326 -1.7511848e-19)
(0.3596006 0.011257067 8.4478065e-20)
(0.49449704 0.036285198 9.5056379e-20)
(0.62095483 0.06590958 5.9252653e-20)
(0.7365791 0.097298208 8.8692074e-21)
(0.83940392 0.12808593 -1.0909811e-19)
(0.92809716 0.15633933 0)
(1.0020802 0.18068587 -7.1056959e-20)
(1.0615364 0.20030832 -1.5709699e-20)
(1.1073272 0.21488656 5.6274428e-20)
(1.1408427 0.22451711 1.1248784e-20)
(1.1638135 0.22961216 -4.6771666e-20)
(1.1781181 0.23078903 -5.0214399e-20)
(1.1856123 0.22876474 2.4959702e-20)
(1.1879986 0.22426763 4.5985325e-20)
(1.1867437 0.21797366 -5.6922737e-20)
(1.1830444 0.21047064 -1.0982748e-19)
(1.1778303 0.20222342 -3.0953898e-21)
(1.1717649 0.19348651 2.7564662e-20)
(0.088532784 0.0019201568 -3.8513814e-21)
(0.25182451 0.011723812 8.9273233e-20)
(0.40602133 0.037368016 -1.5117206e-20)
(0.54925547 0.071008929 -8.6885106e-20)
(0.6794325 0.10740455 4.6331137e-20)
(0.7946991 0.14345661 4.9941313e-20)
(0.89375746 0.17673085 5.6949949e-21)
(0.97607208 0.20541998 -1.0215073e-19)
(1.0419327 0.22844115 -2.5744787e-21)
(1.0923875 0.24537585 5.1889335e-20)
(1.1290806 0.25634929 6.1367119e-21)
(1.1540366 0.26189076 -2.0270505e-20)
(1.1694345 0.26278602 -7.7507754e-20)
(1.177407 0.25993822 -6.3384473e-21)
(1.1798894 0.25425305 4.4449729e-20)
(1.1785266 0.24655699 3.7761224e-20)
(1.1746378 0.23755006 2.0093005e-20)
(1.169226 0.22778843 -5.4286724e-20)
(1.1630211 0.21768174 1.2911742e-20)
(1.1565161 0.20748895 8.4054009e-20)
(-0.0013194454 0.0014500871 -9.1213378e-22)
(-0.004759128 0.0031910455 1.9215201e-21)
(-0.010791001 0.0041071792 1.5982169e-21)
(-0.017687202 0.0044684655 -1.4223714e-21)
(-0.024514946 0.0044458798 -2.1231512e-21)
(-0.030845548 0.0041551093 2.2554311e-21)
(-0.036406362 0.0036804814 -8.0081587e-21)
(-0.041021754 0.0030830305 -6.9162772e-21)
(-0.044595807 0.0024062091 1.2545102e-20)
(-0.0470867 0.0016806806 -1.0812381e-20)
(-0.048486556 0.00092783524 -2.0217939e-22)
(-0.048808621 0.00016234532 4.0392073e-21)
(-0.048078797 -0.00060590145 -6.6726148e-22)
(-0.046329861 -0.0013702684 2.4675288e-20)
(-0.043597846 -0.0021259867 2.8026649e-22)
(-0.039921528 -0.0028686861 -4.3905396e-20)
(-0.03534481 -0.0035937778 8.1494068e-21)
(-0.029908467 -0.0042992006 2.5404665e-20)
(-0.023622618 -0.0049834756 -4.6577205e-20)
(-0.016549375 -0.0055976932 -2.9379834e-20)
(-0.001678239 0.0042220727 -5.6193235e-21)
(-0.0053947078 0.009268737 9.9920131e-21)
(-0.01119008 0.011909308 -1.0435593e-20)
(-0.017502897 0.012928752 5.2760768e-21)
(-0.023498832 0.012826257 6.2892096e-21)
(-0.028800187 0.011941353 8.7055964e-22)
(-0.033169886 0.010521657 -2.6376835e-20)
(-0.036458102 0.0087463108 -2.2545716e-21)
(-0.03858637 0.006742831 2.2491058e-20)
(-0.039524185 0.0046011797 -5.5789629e-21)
(-0.039270699 0.0023840703 -2.3892226e-20)
(-0.037843143 0.00013446806 5.3348235e-21)
(-0.035269217 -0.002118754 2.4356787e-20)
(-0.031581769 -0.0043563163 1.1117993e-20)
(-0.026815024 -0.0065644613 2.3608318e-20)
(-0.021005041 -0.00873082 -2.1161132e-20)
(-0.014199546 -0.010842541 -2.3056596e-20)
(-0.0064495361 -0.012893054 2.2702959e-20)
(0.0023076977 -0.014867722 2.8324668e-20)
(0.012262771 -0.016598564 1.6531916e-20)
(-0.0023266402 0.0066129272 -4.5629733e-21)
(-0.0065003905 0.014449481 -5.0138231e-21)
(-0.011765212 0.018510727 1.0920728e-22)
(-0.016881348 0.020018136 1.4111538e-22)
(-0.021203507 0.019754631 7.3676676e-21)
(-0.024452223 0.018258947 1.1622071e-20)
(-0.026459465 0.015924821 -4.259903e-21)
(-0.027125591 0.013037244 -2.0850907e-20)
(-0.026406251 0.0097993561 7.2283708e-21)
(-0.02429343 0.0063546672 1.4122241e-20)
(-0.020800741 0.002803296 6.4952235e-21)
(-0.015954328 -0.00078619196 1.9533003e-20)
(-0.0097868906 -0.0043679268 1.8656865e-21)
(-0.0023333622 -0.0079117414 -3.618227e-20)
(0.0063728698 -0.011396517 1.4778763e-21)
(0.016298441 -0.014803653 -2.3222592e-20)
(0.027387029 -0.018115734 -2.629042e-20)
(0.039564346 -0.02132405 4.8872071e-20)
(0.053014873 -0.024375346 2.7060252e-20)
(0.068423637 -0.02690501 4.081385e-22)
(-0.0031426556 0.0084126376 -5.6461224e-21)
(-0.0077945755 0.01823414 -1.0656117e-20)
(-0.012159033 0.023240529 4.4572522e-21)
(-0.01543697 0.024971027 4.5707893e-21)
(-0.017244227 0.024423683 2.0943908e-21)
(-0.017439018 0.022297932 8.3948103e-21)
(-0.015951455 0.019106576 1.0451107e-20)
(-0.012754219 0.015221013 -1.5561234e-21)
(-0.0078532493 0.010906561 -1.2599749e-20)
(-0.001275012 0.006351091 -3.1687386e-20)
(0.0069431901 0.0016858586 1.4217561e-22)
(0.016758332 -0.0029992004 4.383818e-20)
(0.028126061 -0.0076444059 -1.9506548e-20)
(0.041002252 -0.012210945 -1.3144277e-20)
(0.055347128 -0.016672823 3.5153531e-22)
(0.071123544 -0.021009218 3.4441647e-20)
(0.088260811 -0.02520555 -1.6131035e-20)
(0.10664336 -0.029260657 -5.6285033e-20)
(0.12658384 -0.033057788 4.7955097e-20)
(0.14947354 -0.035915049 3.4746936e-20)
(-0.0039629431 0.0094776144 -5.0693299e-22)
(-0.0088920168 0.020269251 -1.3131816e-20)
(-0.011872198 0.025614212 -3.7518247e-20)
(-0.012619858 0.027229246 -6.7490029e-21)
(-0.01106093 0.026244402 -3.4180494e-21)
(-0.0072206831 0.023471999 7.0319803e-21)
(-0.0011507325 0.01950981 -5.2897691e-21)
(0.0070846643 0.014790774 -9.7371731e-21)
(0.017413641 0.0096248026 2.3752755e-20)
(0.029761746 0.0042317395 5.3663421e-21)
(0.044056169 -0.00123437 -2.7509991e-20)
(0.060225704 -0.0066678543 1.1753865e-20)
(0.078201196 -0.011998647 0)
(0.097916086 -0.017182467 1.2872199e-20)
(0.11930949 -0.022192008 -1.0301897e-20)
(0.14232539 -0.02700941 -1.5308633e-20)
(0.16686555 -0.031633217 -1.1344308e-21)
(0.19275093 -0.03609055 -2.5336492e-21)
(0.22038242 -0.04019873 4.7802234e-20)
(0.25200723 -0.042816972 -1.1625959e-20)
(-0.0046006457 0.0097400156 -7.7506787e-21)
(-0.0093375828 0.02037277 2.616531e-20)
(-0.010296117 0.0253739 -1.1583842e-20)
(-0.0077398725 0.026494881 -2.949924e-20)
(-0.0019306129 0.024909846 -2.9058426e-20)
(0.0069202669 0.021492027 -1.6115838e-20)
(0.018622304 0.016885731 -8.6012259e-22)
(0.033003271 0.011556389 6.0188325e-21)
(0.0499105 0.00583786 2.1024983e-20)
(0.069207156 -3.2135992e-05 7.8769594e-21)
(0.090767256 -0.0058869271 -7.6271525e-21)
(0.11447315 -0.011612184 -1.9677398e-21)
(0.14021173 -0.017132683 -4.0676843e-20)
(0.16787185 -0.022402594 -1.3473432e-20)
(0.19734601 -0.027397187 2.0182671e-20)
(0.22853152 -0.032106912 -2.2442374e-20)
(0.26127943 -0.03655407 -9.4773427e-21)
(0.29532208 -0.040822822 3.1619644e-20)
(0.33107449 -0.044699736 5.246135e-20)
(0.37169209 -0.046472778 3.5757348e-21)
(-0.0048612101 0.0092044647 1.7215235e-20)
(-0.008638897 0.018536633 1.4877638e-20)
(-0.0067484836 0.022503663 5.3857498e-20)
(1.2341241e-06 0.022760047 2.5029132e-20)
(0.011006454 0.020438667 1.9717427e-22)
(0.025859562 0.01642104 -4.2312317e-20)
(0.044219077 0.0113581 -2.5911436e-20)
(0.065792006 0.0057180161 1.1176461e-20)
(0.090326751 -0.00016403774 1.5354886e-20)
(0.11760276 -0.0060495835 -1.38417e-20)
(0.14741935 -0.011771903 -4.6960574e-20)
(0.17958671 -0.01721788 3.1553909e-20)
(0.21391835 -0.022314957 2.1086308e-20)
(0.25022542 -0.027022246 -2.9185281e-20)
(0.28831653 -0.031323758 1.2416495e-20)
(0.32800163 -0.035225108 2.5485524e-20)
(0.36904527 -0.038782402 8.5920397e-21)
(0.41106438 -0.042168075 -1.2682404e-20)
(0.45439859 -0.045216232 -1.4466047e-20)
(0.5030404 -0.045623885 7.1387261e-21)
(-0.0045532577 0.0079362668 1.1543068e-20)
(-0.0062931677 0.014910035 -2.4919346e-20)
(-0.00050869266 0.017219329 8.5137694e-21)
(0.011469739 0.016306934 3.5580011e-20)
(0.028703273 0.013185207 5.4772442e-20)
(0.050584803 0.0086941325 2.1463322e-20)
(0.076612311 0.0034529862 -6.1912195e-21)
(0.1063535 -0.0020993821 -1.3012469e-20)
(0.13943702 -0.00765074 -6.6256742e-21)
(0.17553276 -0.012981159 3.6342991e-20)
(0.21433325 -0.017940052 -4.9297346e-21)
(0.25553954 -0.022429274 -1.7747736e-20)
(0.29885024 -0.026391201 -2.0742694e-20)
(0.34395359 -0.02980129 -5.0212074e-20)
(0.39052645 -0.032663377 2.4448948e-20)
(0.43824224 -0.035009579 -1.4832236e-20)
(0.48673848 -0.03694317 2.7465669e-20)
(0.5355017 -0.038760255 2.2203601e-20)
(0.58472779 -0.040465927 -8.8507712e-20)
(0.63905359 -0.039328155 2.1572449e-22)
(-0.0034956377 0.0060475582 2.2600684e-20)
(-0.0018128223 0.0097770518 -2.7526143e-20)
(0.0091363498 0.0099513046 -4.6854595e-20)
(0.027532106 0.0077011286 -2.8566555e-20)
(0.052115515 0.0038469999 -2.15232e-21)
(0.082075218 -0.00086024063 1.3820282e-20)
(0.11673503 -0.0058716906 -2.9991458e-21)
(0.15550408 -0.01080933 1.9093691e-20)
(0.19786263 -0.015410964 9.3353945e-21)
(0.24333494 -0.019498562 -1.2015057e-20)
(0.29146446 -0.022958529 9.5023858e-21)
(0.34179593 -0.025726891 -2.5276331e-20)
(0.39386254 -0.027778672 8.7369501e-21)
(0.4471775 -0.029121285 1.7725005e-20)
(0.50123295 -0.029790571 -2.9308104e-21)
(0.55551003 -0.029852735 1.8523572e-21)
(0.60946307 -0.029458891 -5.2213119e-22)
(0.66242524 -0.029012759 2.0754582e-20)
(0.71441387 -0.02871477 4.0005265e-21)
(0.77047363 -0.025913238 -1.8088674e-21)
(-0.0015182004 0.0036860678 2.4603427e-20)
(0.0052547631 0.0035423777 5.9805192e-20)
(0.022838627 0.0013424924 -5.1036672e-20)
(0.048959003 -0.0021891465 -1.0395016e-20)
(0.082050167 -0.0064959913 2.1236639e-20)
(0.12109217 -0.010963129 2.242817e-21)
(0.16521852 -0.015151893 -3.1235062e-20)
(0.21365229 -0.018781539 7.339499e-21)
(0.26568852 -0.021672944 7.4591207e-21)
(0.3206622 -0.023720886 -2.7634238e-20)
(0.37792089 -0.024878427 1.3582871e-21)
(0.4368074 -0.025144218 -3.9253291e-20)
(0.49665031 -0.024552126 -3.8392636e-20)
(0.55676066 -0.02316293 6.9410654e-20)
(0.61643468 -0.021057031 5.8743045e-21)
(0.67496062 -0.018333552 -1.6008595e-20)
(0.73160373 -0.015151196 2.0363051e-20)
(0.7855325 -0.011814555 -9.5719425e-22)
(0.83628632 -0.0083469862 2.0844747e-20)
(0.88756482 -0.0032216085 -2.0996353e-20)
(-0.0081353864 -0.0058810555 6.1750274e-20)
(0.0017404407 -0.0064039221 1.6424372e-20)
(0.013034391 -0.0068231732 -3.6595995e-20)
(0.025391148 -0.0070687251 1.762801e-20)
(0.038534651 -0.0072239512 0)
(0.052399863 -0.0073176972 0)
(0.066923412 -0.0073528952 -2.3674982e-20)
(0.082021402 -0.0073375431 -1.689971e-20)
(0.097618844 -0.0072813976 1.9677151e-20)
(0.11365213 -0.0071915876 1.8582701e-20)
(0.13006264 -0.0070735581 1.0423913e-21)
(0.14679518 -0.006932099 -1.0400016e-20)
(0.1637983 -0.0067713844 8.5285315e-21)
(0.18102394 -0.0065949538 1.8253267e-20)
(0.19842683 -0.0064058366 -5.3745741e-21)
(0.21596414 -0.0062066621 -1.0096876e-20)
(0.23359524 -0.0059997249 -4.2667959e-21)
(0.25128153 -0.0057870372 -4.298806e-21)
(0.26898634 -0.0055703751 7.0235288e-22)
(0.28667486 -0.0053513149 1.2145397e-21)
(0.3043141 -0.005131261 2.5769726e-21)
(0.32187291 -0.0049114668 6.5091893e-21)
(0.339322 -0.0046930508 1.5938793e-22)
(0.35663397 -0.0044770089 -3.3634259e-21)
(0.37378336 -0.0042642231 1.3329346e-22)
(0.39074669 -0.004055469 -5.5824353e-22)
(0.40750248 -0.0038514217 1.1983293e-21)
(0.42403128 -0.0036526607 9.8226399e-22)
(0.44031565 -0.0034596752 -1.292313e-21)
(0.45634017 -0.0032728688 -1.0350571e-22)
(0.47209143 -0.003092565 -3.0913491e-23)
(0.48755795 -0.0029190124 -3.3260991e-22)
(0.50273018 -0.0027523908 -4.0950438e-22)
(0.51760039 -0.0025928174 8.5288944e-23)
(0.53216268 -0.002440353 -1.2890021e-22)
(0.54641283 -0.0022950096 -2.0103805e-22)
(0.56034832 -0.0021567568 2.2895068e-22)
(0.57396824 -0.0020255299 2.6013279e-22)
(0.58727323 -0.0019012387 -2.9041002e-23)
(0.60026579 -0.0017837723 -1.622235e-22)
(0.61294918 -0.0016730276 1.8064705e-23)
(0.62533144 -0.001568865 -2.7131989e-23)
(0.63741353 -0.0014713229 8.1527105e-23)
(0.64922709 -0.0013800352 -1.0571983e-23)
(0.66072374 -0.0012962631 -1.3117521e-22)
(0.6721085 -0.0012168151 4.0826781e-24)
(0.68287224 -0.0011537764 5.3462775e-24)
(0.6946198 -0.0010748531 -5.030452e-24)
(0.70296839 -0.0010884167 2.6400497e-23)
(0.72028605 -0.00091720688 3.7009288e-22)
(0.021904215 -0.01731281 -1.3782767e-20)
(0.030823557 -0.018899518 -6.6326325e-20)
(0.041640092 -0.020131384 -3.2265229e-20)
(0.053488296 -0.020831297 4.0238293e-20)
(0.065977246 -0.021277148 1.5282378e-20)
(0.079121943 -0.021552633 -1.9103839e-20)
(0.09289104 -0.021658572 5.1049914e-21)
(0.10720362 -0.021616992 2.6103615e-20)
(0.12199214 -0.021456944 -1.3658058e-22)
(0.13720252 -0.021198896 -7.9194144e-21)
(0.15278327 -0.020858203 -1.2925651e-20)
(0.1686845 -0.020448584 -8.8127535e-21)
(0.18485931 -0.019982093 1.7899656e-20)
(0.20126343 -0.019468957 9.4797431e-21)
(0.21785466 -0.018917954 -1.6271585e-20)
(0.23459268 -0.018336736 -6.0125933e-21)
(0.25143886 -0.017732013 3.124079e-21)
(0.26835628 -0.017109689 8.1698786e-21)
(0.2853096 -0.016474998 6.938864e-21)
(0.30226507 -0.015832601 -7.0516708e-21)
(0.31919056 -0.015186665 -3.3394525e-21)
(0.3360556 -0.01454092 1.5309371e-21)
(0.35283142 -0.013898704 6.1258188e-22)
(0.36949103 -0.013262996 1.2378935e-21)
(0.38600924 -0.012636441 2.284478e-22)
(0.40236275 -0.01202137 -3.6472674e-22)
(0.41853016 -0.011419816 -7.4349536e-22)
(0.43449201 -0.010833531 1.0517599e-21)
(0.4502308 -0.010263995 8.6131876e-22)
(0.46573095 -0.0097124367 -2.5048343e-22)
(0.48097883 -0.009179843 5.8799789e-22)
(0.49596271 -0.0086669794 -2.259057e-22)
(0.5106727 -0.0081744053 -4.0481638e-22)
(0.52510071 -0.0077024928 -6.1910004e-22)
(0.5392404 -0.0072514462 4.1266258e-22)
(0.55308714 -0.0068213225 -9.5020061e-23)
(0.56663789 -0.0064120527 2.1067991e-22)
(0.57989126 -0.0060234638 -4.6175627e-22)
(0.59284733 -0.0056553072 4.3476436e-22)
(0.60550808 -0.0053072706 6.1461244e-23)
(0.61787619 -0.0049790656 -6.5542027e-23)
(0.62995911 -0.0046702932 2.0806091e-22)
(0.6417573 -0.0043810866 2.7882512e-22)
(0.65330156 -0.0041103672 2.1021002e-22)
(0.66454361 -0.0038619209 2.2233668e-22)
(0.67568558 -0.0036262298 -1.8914939e-23)
(0.68622447 -0.0034393598 1.1341626e-22)
(0.69774273 -0.003205062 1.0016976e-22)
(0.70592058 -0.0032459042 -2.0273939e-22)
(0.72293299 -0.0027375713 -1.3836744e-23)
(0.08031243 -0.027708318 1.0155986e-20)
(0.087336402 -0.030368506 3.7737611e-21)
(0.097096175 -0.032358029 -1.3543909e-20)
(0.10789376 -0.03343338 -1.5798893e-21)
(0.11905458 -0.034131025 1.5905305e-20)
(0.13074984 -0.034584495 -1.5481511e-20)
(0.14301884 -0.034773256 -3.1188905e-20)
(0.15578272 -0.034727556 1.5223778e-20)
(0.16898506 -0.034495004 1.8946529e-20)
(0.18258952 -0.03410729 -1.2026959e-20)
(0.19655746 -0.033587182 1.0406525e-21)
(0.21084822 -0.032955588 8.4585881e-21)
(0.2254227 -0.032231238 -1.5679119e-20)
(0.24024321 -0.031430088 3.64606e-21)
(0.25527282 -0.030565899 7.7564612e-21)
(0.27047542 -0.029650771 -4.3445869e-22)
(0.28581581 -0.028695404 -2.1616341e-23)
(0.30125979 -0.027709294 -7.6014853e-21)
(0.31677421 -0.026700917 4.3409058e-21)
(0.33232707 -0.025677874 8.631666e-21)
(0.34788762 -0.024647002 -3.8862521e-21)
(0.36342645 -0.023614456 -2.177601e-21)
(0.37891561 -0.022585769 9.0425469e-22)
(0.39432868 -0.021565904 -1.7653429e-21)
(0.40964087 -0.020559283 1.3163158e-21)
(0.42482911 -0.019569822 6.9684397e-22)
(0.43987205 -0.01860095 1.7569839e-21)
(0.45475015 -0.01765563 -2.1380417e-21)
(0.46944571 -0.016736386 2.4268279e-21)
(0.48394283 -0.015845323 5.8478405e-22)
(0.49822743 -0.014984147 5.8129793e-22)
(0.51228725 -0.0141542 3.0436995e-22)
(0.52611176 -0.013356478 9.9446211e-22)
(0.53969217 -0.012591671 -1.5290961e-21)
(0.55302136 -0.011860186 4.2384508e-22)
(0.56609384 -0.011162188 2.0334358e-22)
(0.57890567 -0.01049763 -7.4086273e-23)
(0.59145452 -0.0098662901 2.6369617e-23)
(0.60373947 -0.0092678227 -3.9650441e-22)
(0.61576148 -0.0087017721 2.1718273e-22)
(0.6275222 -0.0081677212 -3.0589081e-23)
(0.63902797 -0.0076650663 5.1898927e-22)
(0.65027829 -0.0071940851 -2.4131709e-22)
(0.66130246 -0.0067530418 3.90002e-23)
(0.67205234 -0.0063482448 6.9789324e-23)
(0.68272462 -0.0059640297 -9.0380604e-23)
(0.69282799 -0.005659835 -1.5145233e-22)
(0.70390198 -0.0052774625 4.9390749e-22)
(0.71174843 -0.0053457934 1.8013228e-22)
(0.72816889 -0.0045162559 -8.4909813e-22)
(0.16425041 -0.036335519 1.7725126e-21)
(0.16846477 -0.0400526 -1.1776022e-20)
(0.17644651 -0.042718891 6.6007137e-21)
(0.18558698 -0.044077718 -1.396854e-20)
(0.19472601 -0.044991958 -2.0651828e-21)
(0.20423786 -0.045634851 9.8585783e-21)
(0.21428061 -0.045941443 -1.0748621e-20)
(0.22477416 -0.045940854 1.1853288e-21)
(0.23567017 -0.045696727 1.3303189e-20)
(0.24695512 -0.045249356 3.76571e-21)
(0.25860722 -0.044625721 -6.3530458e-21)
(0.27059666 -0.043851292 -3.1697939e-21)
(0.28289333 -0.042949669 -5.5826914e-21)
(0.29546725 -0.04194124 -6.7393372e-21)
(0.30828761 -0.040843741 2.8463933e-21)
(0.32132305 -0.039672958 3.6516567e-22)
(0.33454214 -0.038443043 1.5424481e-21)
(0.34791368 -0.037166715 -3.382485e-21)
(0.36140686 -0.035855448 -4.5333766e-21)
(0.37499147 -0.034519633 2.4981117e-21)
(0.38863814 -0.033168698 3.4734107e-21)
(0.40231851 -0.031811194 -1.799281e-21)
(0.41600536 -0.030454862 1.6708807e-21)
(0.42967274 -0.029106685 -4.9429659e-22)
(0.44329614 -0.027772921 -4.248695e-21)
(0.45685254 -0.026459139 -3.0565686e-21)
(0.4703205 -0.025170241 -2.7930738e-22)
(0.48368021 -0.023910494 3.2806538e-22)
(0.49691353 -0.022683554 -2.2061649e-21)
(0.51000403 -0.021492495 -1.0388972e-21)
(0.52293695 -0.020339842 2.1755575e-22)
(0.53569922 -0.019227605 -1.3754878e-21)
(0.5482794 -0.018157321 -5.3745669e-23)
(0.56066772 -0.017130091 -4.984758e-22)
(0.57285594 -0.016146626 -4.436301e-22)
(0.58483743 -0.015207292 -6.6736766e-22)
(0.596607 -0.014312162 -1.0275062e-21)
(0.60816104 -0.013461062 -1.7937513e-23)
(0.61949729 -0.012653637 -3.5538665e-24)
(0.63061533 -0.011889381 -6.0356567e-22)
(0.64151541 -0.011167833 -2.730814e-23)
(0.6522024 -0.010488269 -4.1058279e-22)
(0.66267451 -0.0098511843 -5.9644945e-22)
(0.67295895 -0.0092542773 4.7799284e-22)
(0.6830079 -0.0087063526 1.3845792e-23)
(0.69301033 -0.0081859308 2.3545377e-22)
(0.70249178 -0.0077747166 -1.7253596e-22)
(0.71293008 -0.0072561176 -3.3570626e-22)
(0.72030244 -0.0073519233 -1.9922354e-23)
(0.73587294 -0.006227135 4.8240598e-22)
(0.26977274 -0.042402504 -2.2667336e-20)
(0.27026934 -0.047150193 4.9636363e-20)
(0.27559888 -0.050400913 1.0681086e-20)
(0.28237911 -0.051977016 -1.6564184e-20)
(0.28879157 -0.053108871 -2.4342697e-21)
(0.29539983 -0.053986493 2.4035238e-21)
(0.30252841 -0.054483746 -2.0413224e-21)
(0.31009739 -0.054618239 -4.8470717e-21)
(0.31805512 -0.054462642 -4.1473232e-21)
(0.32640976 -0.054062578 -1.2571073e-20)
(0.33515783 -0.053446826 1.8785946e-20)
(0.34427963 -0.052642726 6.9524542e-21)
(0.35375264 -0.051676591 -1.7099433e-20)
(0.3635535 -0.050571864 1.0006055e-20)
(0.37365667 -0.049349326 8.0096425e-21)
(0.38403471 -0.04802776 -4.3694761e-22)
(0.39465918 -0.046624304 -2.840593e-21)
(0.40550109 -0.045154616 -4.223544e-21)
(0.4165313 -0.043633025 -1.5742747e-21)
(0.4277208 -0.04207266 -1.39166e-21)
(0.43904104 -0.040485559 -3.3308564e-21)
(0.45046416 -0.038882735 0)
(0.4619632 -0.037274235 -1.4783132e-21)
(0.47351226 -0.03566918 3.9826542e-21)
(0.4850867 -0.034075796 5.6613072e-21)
(0.49666318 -0.032501444 -9.1220669e-22)
(0.50821982 -0.030952648 -3.2537581e-21)
(0.51973622 -0.029435118 3.4161192e-21)
(0.53119351 -0.027953787 6.5052405e-23)
(0.54257443 -0.026512842 3.7412424e-21)
(0.55386326 -0.025115764 -5.1036718e-22)
(0.56504587 -0.023765373 1.7928132e-21)
(0.5761097 -0.022463876 -8.9612668e-22)
(0.5870437 -0.021212921 4.0020336e-22)
(0.59783833 -0.020013649 -5.2766388e-22)
(0.60848556 -0.018866755 5.8228952e-22)
(0.61897876 -0.017772553 5.2877678e-22)
(0.62931278 -0.016731034 4.4422398e-22)
(0.63948384 -0.015741953 -1.0969603e-21)
(0.64948991 -0.014804861 7.8444587e-22)
(0.65932963 -0.013919363 -4.1366821e-22)
(0.66900615 -0.013084719 -1.3350929e-21)
(0.67851622 -0.012301726 1.7042108e-21)
(0.6878846 -0.011567633 -5.5898557e-23)
(0.69706399 -0.010893689 -1.9361314e-22)
(0.70623379 -0.010253053 -7.1443478e-24)
(0.71494096 -0.0097481582 -1.871374e-22)
(0.72458533 -0.0091088906 -5.7788709e-22)
(0.7313663 -0.0092318959 7.9680383e-22)
(0.74586945 -0.0078461428 -4.9387358e-23)
(0.39191825 -0.044959363 -1.901103e-20)
(0.38783284 -0.050767236 1.3190667e-20)
(0.3895383 -0.054552917 3.7194819e-21)
(0.39317236 -0.056370972 -8.0514479e-21)
(0.39618529 -0.057802007 1.263238e-20)
(0.39923617 -0.059014523 8.1474119e-21)
(0.40284101 -0.059825531 -1.2856354e-20)
(0.40693701 -0.060237833 -6.2988975e-21)
(0.41145373 -0.060320277 1.3135309e-20)
(0.41640893 -0.060117602 -1.6361686e-20)
(0.42181484 -0.059659167 -1.4438611e-20)
(0.42765979 -0.058972728 1.5112471e-20)
(0.43392523 -0.058085487 6.9869978e-21)
(0.44059124 -0.057022783 -5.0525567e-21)
(0.4476351 -0.055807873 -1.422369e-21)
(0.45503133 -0.054462232 -3.6689405e-21)
(0.46275267 -0.053005822 4.8941231e-21)
(0.47077085 -0.05145723 3.6849366e-21)
(0.47905708 -0.049833735 -3.14446e-21)
(0.48758242 -0.048151371 3.1259548e-21)
(0.49631812 -0.046424986 2.9309375e-21)
(0.50523597 -0.044668287 -3.3551524e-21)
(0.51430848 -0.042893867 3.6765041e-22)
(0.52350913 -0.04111323 -3.1985775e-21)
(0.53281252 -0.039336812 8.0293979e-21)
(0.54219447 -0.037574001 6.4687934e-21)
(0.55163217 -0.035833164 1.012205e-21)
(0.5611042 -0.034121674 -1.8299913e-21)
(0.57059062 -0.032445944 4.1967524e-21)
(0.58007297 -0.030811468 7.9500023e-21)
(0.58953433 -0.029222871 2.3872764e-21)
(0.59895924 -0.027683956 3.6580284e-21)
(0.60833378 -0.026197771 2.1230608e-21)
(0.61764548 -0.024766667 8.4014286e-22)
(0.62688332 -0.02339237 -2.484407e-22)
(0.63603771 -0.02207605 3.0414435e-21)
(0.64510048 -0.020818401 6.8580909e-22)
(0.65406486 -0.019619713 3.1589595e-22)
(0.66292541 -0.018479978 5.6922123e-23)
(0.67167844 -0.01739893 1.1802962e-21)
(0.68032091 -0.016376353 4.3067749e-23)
(0.68885418 -0.015411603 5.5667562e-22)
(0.69727349 -0.01450587 -1.2654452e-22)
(0.70560094 -0.013656081 -3.8047921e-22)
(0.71379009 -0.012875852 -1.9231895e-22)
(0.72200927 -0.012133516 -5.2780484e-22)
(0.72983084 -0.011550362 2.2473792e-22)
(0.73856317 -0.010808612 -1.5603396e-22)
(0.74466643 -0.010958293 -4.5539829e-22)
(0.75793406 -0.0093519083 2.762964e-22)
(0.52459932 -0.043084369 3.4751628e-21)
(0.51528536 -0.049992217 -1.9286235e-20)
(0.51242852 -0.054319474 -2.5433379e-21)
(0.5121399 -0.056565974 5.6700977e-21)
(0.51122243 -0.058518783 3.507687e-21)
(0.51024013 -0.060254479 4.9962313e-22)
(0.50986929 -0.06156409 7.0326652e-21)
(0.51010706 -0.062451389 8.0752361e-21)
(0.51086134 -0.062971153 1.0071773e-20)
(0.51213685 -0.063158449 -1.1769784e-20)
(0.51395119 -0.063041583 -2.27314e-20)
(0.51629772 -0.062648822 -4.4241882e-21)
(0.51915817 -0.062007823 1.6681529e-20)
(0.52251178 -0.061145422 1.3316929e-20)
(0.52633537 -0.060087391 -5.770561e-21)
(0.53060292 -0.058858186 9.7487493e-22)
(0.53528636 -0.057480962 -4.1114713e-21)
(0.54035637 -0.055977626 2.9695817e-21)
(0.54578305 -0.05436883 -2.9310507e-22)
(0.55153625 -0.052673944 -1.9539215e-21)
(0.55758596 -0.050911057 8.4025934e-21)
(0.56390265 -0.049096977 -4.6176415e-22)
(0.57045751 -0.047247234 5.7495056e-22)
(0.57722264 -0.045376083 -4.9007948e-22)
(0.58417122 -0.043496512 -4.4823014e-21)
(0.59127769 -0.041620258 4.3760807e-21)
(0.59851779 -0.039757829 1.8528692e-21)
(0.60586864 -0.037918535 -3.4247345e-21)
(0.61330884 -0.036110524 -4.0851358e-21)