/*--------------------------------*- C++ -*----------------------------------*\
  =========                 |
  \\      /  F ield         | OpenFOAM: The Open Source CFD Toolbox
   \\    /   O peration     | Website:  https://openfoam.org
    \\  /    A nd           | Version:  6
     \\/     M anipulation  |
\*---------------------------------------------------------------------------*/
FoamFile
{
    version     2.0;
    format      ascii;
    class       volScalarField;
    location    "234";
    object      pMean;
}
// * * * * * * * * * * * * * * * * * * * * * * * * * * * * * * * * * * * * * //

dimensions      [0 2 -2 0 0 0 0];

internalField   nonuniform List<scalar> 
9200
(
-0.39161536
-0.3797549
-0.36917259
-0.359814
-0.35066151
-0.34172045
-0.333073
-0.32468435
-0.31648412
-0.30839874
-0.30035479
-0.29228399
-0.28413016
-0.27585641
-0.26745534
-0.25896633
-0.25046983
-0.24205678
-0.23473704
-0.23273239
-0.40990147
-0.39559141
-0.38307079
-0.37218585
-0.36164619
-0.3514261
-0.34159815
-0.33209734
-0.32282234
-0.31367477
-0.30456303
-0.29540793
-0.2861502
-0.27675609
-0.26722253
-0.25758056
-0.24786613
-0.23808442
-0.2289115
-0.22249219
-0.42854017
-0.41176794
-0.39736159
-0.38502312
-0.3731506
-0.36166936
-0.35063124
-0.33993444
-0.32944587
-0.31904754
-0.30863986
-0.29814695
-0.287523
-0.27675486
-0.26586122
-0.25488774
-0.24387934
-0.23284967
-0.22219701
-0.21303522
-0.44708008
-0.42787353
-0.41165105
-0.39792064
-0.38473232
-0.37194676
-0.35958843
-0.34751962
-0.33558488
-0.32366323
-0.31166871
-0.29955276
-0.28730657
-0.27495811
-0.26256476
-0.25020277
-0.23794326
-0.22582755
-0.21412384
-0.20357758
-0.46487329
-0.44334394
-0.42542523
-0.41037892
-0.39588079
-0.38171721
-0.36788663
-0.35422775
-0.34058467
-0.32686133
-0.31301531
-0.29905309
-0.28502488
-0.27101395
-0.25712281
-0.24345883
-0.2301141
-0.21714683
-0.20474578
-0.19342405
-0.48107844
-0.45744295
-0.43800585
-0.42173141
-0.40591339
-0.39026551
-0.37477446
-0.35928249
-0.34366832
-0.32789731
-0.31200283
-0.29606985
-0.28021969
-0.26459154
-0.24932417
-0.23454131
-0.22033678
-0.20676369
-0.19394753
-0.18222982
-0.49467576
-0.46926886
-0.44855214
-0.43114805
-0.41398758
-0.39672944
-0.37937804
-0.36182111
-0.34401667
-0.32603024
-0.30799781
-0.29009499
-0.27251177
-0.25542915
-0.23900116
-0.22334445
-0.2085314
-0.19458861
-0.18158128
-0.16971328
-0.50449007
-0.47777925
-0.45609468
-0.43768379
-0.41916688
-0.40018338
-0.3807995
-0.36100108
-0.34087341
-0.32061573
-0.30048226
-0.28073714
-0.26162312
-0.24333906
-0.22602818
-0.20977646
-0.19461601
-0.18053317
-0.1675342
-0.15570663
-0.50917084
-0.48168796
-0.45933521
-0.43999127
-0.42006677
-0.3992454
-0.37771568
-0.35561817
-0.33320325
-0.3108174
-0.28882453
-0.26755335
-0.24726793
-0.22815372
-0.21031731
-0.19379619
-0.17857215
-0.16458779
-0.15179453
-0.14018006
-0.50736513
-0.47957145
-0.45671785
-0.43639845
-0.41496311
-0.39222398
-0.36855634
-0.34429913
-0.3198789
-0.29577007
-0.27240728
-0.25013768
-0.22920407
-0.20974625
-0.1918148
-0.17539101
-0.16040756
-0.14676946
-0.13438067
-0.12314166
-0.27431555
-0.27876222
-0.28091602
-0.28135374
-0.2808076
-0.27945132
-0.27737638
-0.27467592
-0.27142429
-0.26767835
-0.26348445
-0.25888232
-0.25390719
-0.24859122
-0.24296478
-0.2370589
-0.23090672
-0.22453097
-0.21793247
-0.21120085
-0.27719389
-0.28120807
-0.28304642
-0.28326209
-0.28253144
-0.28101951
-0.2788157
-0.27600901
-0.27266991
-0.2688522
-0.26459965
-0.25994974
-0.25493565
-0.24958743
-0.24393271
-0.23800136
-0.23183393
-0.22545147
-0.21874637
-0.21169211
-0.28280126
-0.28597225
-0.28719722
-0.28697872
-0.28588659
-0.28407027
-0.28161519
-0.27860225
-0.2750944
-0.27113941
-0.26677587
-0.26203671
-0.25695106
-0.2515449
-0.24584078
-0.23986545
-0.23367061
-0.22727638
-0.22038132
-0.21271939
-0.29087465
-0.29284243
-0.29318164
-0.29232505
-0.29069569
-0.28842318
-0.28558826
-0.2822609
-0.27849364
-0.2743258
-0.26978859
-0.26490837
-0.2597084
-0.25420861
-0.24842451
-0.24237731
-0.23613015
-0.22970811
-0.22256416
-0.2140549
-0.30108301
-0.30155216
-0.30076721
-0.29908153
-0.2967437
-0.29386245
-0.29051447
-0.28675729
-0.28263118
-0.27816551
-0.27338257
-0.26829991
-0.26293279
-0.25729388
-0.25139033
-0.24523472
-0.23889752
-0.23241731
-0.22499249
-0.21546174
-0.31308331
-0.31182516
-0.30971502
-0.30702659
-0.3038183
-0.30017966
-0.29618557
-0.2918814
-0.28729452
-0.28244185
-0.27733425
-0.27197942
-0.26638332
-0.26054987
-0.2544769
-0.2481656
-0.24168593
-0.23509591
-0.22737043
-0.21671679
-0.3265708
-0.3234148
-0.31981517
-0.31597253
-0.31174816
-0.30721596
-0.30245295
-0.29749197
-0.29234488
-0.28701546
-0.28150241
-0.27580159
-0.269908
-0.26381572
-0.25751347
-0.25099088
-0.24431061
-0.23755323
-0.22953439
-0.21776997
-0.34130879
-0.33612823
-0.33091007
-0.32579125
-0.32043354
-0.31489842
-0.30926537
-0.3035542
-0.29776132
-0.29187546
-0.28588041
-0.27975737
-0.27348743
-0.2670525
-0.2604318
-0.2536065
-0.24663701
-0.23964989
-0.23141989
-0.21877386
-0.35712776
-0.34981754
-0.34287453
-0.33638192
-0.32979614
-0.32316523
-0.31657321
-0.31002645
-0.30350328
-0.29697442
-0.29040546
-0.28375904
-0.27699728
-0.27008216
-0.26297101
-0.25561852
-0.2480508
-0.24037748
-0.23137254
-0.21757567
-0.37391595
-0.36436064
-0.35558063
-0.34761027
-0.33968856
-0.33184997
-0.32418308
-0.31667884
-0.30929538
-0.30198418
-0.2946928
-0.2873676
-0.27995684
-0.27241077
-0.26467647
-0.25669352
-0.2484092
-0.23962444
-0.22872278
-0.21271812
-0.20357926
-0.19409529
-0.18463679
-0.1752783
-0.16596268
-0.15673061
-0.14763789
-0.13872063
-0.13000765
-0.12152685
-0.11330326
-0.1053579
-0.097708329
-0.090369086
-0.08335173
-0.076664931
-0.070314622
-0.064304147
-0.058634404
-0.053303989
-0.048309356
-0.043644991
-0.039303589
-0.035276252
-0.03155268
-0.028121383
-0.024969884
-0.022084923
-0.01945266
-0.017058867
-0.014889114
-0.012928938
-0.011164003
-0.0095802467
-0.0081640149
-0.0069021806
-0.0057822641
-0.0047925239
-0.0039221328
-0.0031610802
-0.002501054
-0.0019332663
-0.0014562878
-0.0010530093
-0.0007634631
-0.00046889649
-0.00054159595
5.2190605e-05
-0.0017975196
0.0027104902
-0.2047998
-0.19489173
-0.18530993
-0.17595826
-0.16661436
-0.15734067
-0.14821305
-0.13926379
-0.13051884
-0.12200673
-0.1137529
-0.10577824
-0.098100272
-0.090733608
-0.083689865
-0.07697776
-0.070603268
-0.064569775
-0.058878207
-0.053527178
-0.048513149
-0.043830603
-0.039472223
-0.035429087
-0.031690868
-0.028246038
-0.025082076
-0.022185678
-0.019542951
-0.017139617
-0.014961187
-0.012993145
-0.011221097
-0.0096309265
-0.0082089232
-0.0069419065
-0.0058173447
-0.0048234455
-0.0039493331
-0.0031849499
-0.0025219368
-0.0019514625
-0.0014720358
-0.0010665429
-0.00077474498
-0.00047848246
-0.00054739007
4.4539353e-05
-0.0017848223
0.0026813685
-0.20730272
-0.19649711
-0.18667308
-0.17737799
-0.16799294
-0.15863816
-0.14944402
-0.14043303
-0.13162375
-0.12304708
-0.11472994
-0.10669311
-0.098954223
-0.09152824
-0.084427061
-0.077659605
-0.071232032
-0.065147881
-0.059408194
-0.054011666
-0.048954806
-0.044232111
-0.039836253
-0.035758273
-0.031987785
-0.028513184
-0.025321858
-0.022400397
-0.019734795
-0.017310652
-0.015113355
-0.013128256
-0.011340836
-0.0097368472
-0.0083024537
-0.0070243517
-0.0058898902
-0.004887162
-0.0040051813
-0.0032337839
-0.0025645076
-0.001988422
-0.0015039096
-0.0010938254
-0.00079741941
-0.00049762305
-0.00055898295
2.94944e-05
-0.0017597579
0.002623709
-0.21085392
-0.19861896
-0.18844559
-0.17933734
-0.1699438
-0.16048822
-0.15121694
-0.14213523
-0.13324532
-0.12458342
-0.11618061
-0.10805783
-0.10023306
-0.092722123
-0.085537692
-0.078689215
-0.072183304
-0.066023883
-0.060212297
-0.054747466
-0.049626054
-0.044842656
-0.040389981
-0.036259061
-0.032439461
-0.028919488
-0.025686415
-0.022726691
-0.020026151
-0.017570219
-0.015344099
-0.013332952
-0.011522064
-0.0098969932
-0.0084437106
-0.0071487239
-0.0059991988
-0.0049830511
-0.0040891251
-0.0033070925
-0.0026283323
-0.0020437607
-0.001551569
-0.0011345576
-0.00083122209
-0.00052608727
-0.00057620528
7.2887215e-06
-0.0017228017
0.002538721
-0.2151452
-0.20092529
-0.19030428
-0.18158619
-0.17227287
-0.16272118
-0.15338415
-0.14424774
-0.13528196
-0.12653029
-0.11803284
-0.10981201
-0.10188628
-0.094273078
-0.086986556
-0.080037263
-0.07343269
-0.067177509
-0.061273681
-0.055720599
-0.050515284
-0.045652581
-0.041125359
-0.036924727
-0.033040255
-0.029460197
-0.026171722
-0.02316113
-0.020414077
-0.017915782
-0.01565122
-0.013605315
-0.011763101
-0.010109886
-0.0086313888
-0.0073138684
-0.0061442473
-0.0051102056
-0.0042003605
-0.0034041636
-0.0027127806
-0.0021169221
-0.0016145231
-0.0011883082
-0.00087577731
-0.00056354138
-0.0005988378
-2.1708739e-05
-0.0016747534
0.0024282888
-0.21976054
-0.20308715
-0.19193839
-0.18384756
-0.17476613
-0.1651569
-0.15578057
-0.14662645
-0.13761368
-0.12878722
-0.12020134
-0.11188342
-0.10385322
-0.096130235
-0.088731011
-0.081668038
-0.074950314
-0.068583777
-0.062571443
-0.056913559
-0.05160781
-0.046649541
-0.042031978
-0.037746462
-0.033782682
-0.030128923
-0.026772298
-0.023698992
-0.020894488
-0.018343786
-0.016031614
-0.013942621
-0.012061553
-0.010373416
-0.0088636273
-0.0075181414
-0.0063235836
-0.0052673432
-0.0043377562
-0.0035240005
-0.0028169763
-0.0022071373
-0.0016920993
-0.0012544921
-0.00093058183
-0.00060954597
-0.00062659941
-5.7034783e-05
-0.0016166501
0.0022948628
-0.22425983
-0.2048951
-0.19311447
-0.18581806
-0.17719468
-0.16764179
-0.1582672
-0.14913695
-0.14012384
-0.13125709
-0.12260353
-0.11420091
-0.1060728
-0.098241323
-0.090726235
-0.083542986
-0.076702949
-0.070213993
-0.064080754
-0.058304813
-0.052884919
-0.047817239
-0.043095619
-0.038711837
-0.034655864
-0.030916129
-0.027479778
-0.02433293
-0.021460925
-0.018848556
-0.016480295
-0.014340494
-0.012413578
-0.010684217
-0.009137478
-0.0077589672
-0.006534962
-0.0054525106
-0.0044996178
-0.0036651382
-0.0029396571
-0.0023133242
-0.0017833737
-0.001332328
-0.00099498333
-0.00066355825
-0.00065915191
-9.8190991e-05
-0.0015496865
0.0021413116
-0.22835755
-0.20672573
-0.19405084
-0.18730932
-0.1793382
-0.1700776
-0.16078857
-0.1517113
-0.14273846
-0.13387213
-0.12517829
-0.11670773
-0.10849228
-0.10055801
-0.092928296
-0.085622368
-0.078654813
-0.072036096
-0.06577301
-0.059868932
-0.054324071
-0.049135752
-0.044298711
-0.039805385
-0.035646204
-0.03180988
-0.028283695
-0.025053776
-0.022105365
-0.019423077
-0.016991133
-0.014793586
-0.01281452
-0.01103824
-0.0094494304
-0.0080333095
-0.0067757652
-0.0056634608
-0.0046840253
-0.0038259448
-0.0030794446
-0.0024343268
-0.0018873847
-0.0014210272
-0.0010683454
-0.0007250723
-0.00069621348
-0.00014474706
-0.0014751954
0.0019708745
-0.2297158
-0.20877544
-0.19540054
-0.1882463
-0.18076205
-0.17208274
-0.16306906
-0.1541161
-0.14524194
-0.13644183
-0.12776512
-0.11927071
-0.11100203
-0.10299143
-0.095266639
-0.087851326
-0.080764217
-0.074019271
-0.067626233
-0.061590989
-0.055915853
-0.050599877
-0.04563918
-0.041027279
-0.036755413
-0.032812867
-0.029187288
-0.025864994
-0.02283127
-0.020070644
-0.017567155
-0.015304593
-0.013266718
-0.011437467
-0.0098011252
-0.0083424945
-0.007047038
-0.0059009929
-0.0048915676
-0.0040068328
-0.0032366046
-0.0025702901
-0.0020041788
-0.0015205506
-0.0011505783
-0.00079389761
-0.00073777235
-0.00019609507
-0.0013949497
0.0017877808
-0.2200645
-0.20813658
-0.19665754
-0.18810738
-0.18057364
-0.17268492
-0.16428784
-0.15570738
-0.14712225
-0.13856065
-0.13005323
-0.12165936
-0.11343551
-0.10542498
-0.097663409
-0.090181662
-0.083005201
-0.076153881
-0.069642454
-0.063481062
-0.057675604
-0.052228096
-0.047137073
-0.042397975
-0.038003536
-0.033944161
-0.030208295
-0.026782776
-0.023653179
-0.020804129
-0.018219603
-0.015883206
-0.013778414
-0.011888806
-0.01019826
-0.0086911326
-0.0073524235
-0.0061678969
-0.0051242885
-0.0042091975
-0.0034119755
-0.0027215753
-0.0021337231
-0.0016305204
-0.0012410938
-0.0008691034
-0.00078327542
-0.00025018522
-0.0013113535
0.0015977004
-0.19828556
-0.20210441
-0.19625433
-0.18694941
-0.17901495
-0.17155103
-0.1636127
-0.15534402
-0.14700827
-0.13867031
-0.13035321
-0.12211221
-0.1140078
-0.10608796
-0.098391857
-0.090953558
-0.083801783
-0.076959429
-0.070443987
-0.064268055
-0.058439719
-0.052962921
-0.047837865
-0.043061429
-0.038627569
-0.034527712
-0.030751145
-0.02728539
-0.02411656
-0.021229695
-0.018609078
-0.01623852
-0.01410163
-0.012182047
-0.010463656
-0.0089307751
-0.0075683268
-0.0063619687
-0.0052983035
-0.0043647819
-0.0035505564
-0.002844445
-0.0022416815
-0.0017247928
-0.0013200443
-0.00093751979
-0.00082265356
-0.00030384519
-0.001224242
0.00140899
-0.18739099
-0.19231631
-0.18830749
-0.17926133
-0.17169519
-0.1650296
-0.15793391
-0.15041828
-0.14277338
-0.13507586
-0.1273399
-0.11961685
-0.11196991
-0.1044511
-0.09710356
-0.089965597
-0.083070369
-0.076445172
-0.070111709
-0.064086566
-0.05838156
-0.053004094
-0.047957548
-0.043241696
-0.038853115
-0.034785588
-0.031030506
-0.027577257
-0.024413592
-0.021525986
-0.018899959
-0.016520387
-0.01437178
-0.012438536
-0.010705167
-0.0091565013
-0.0077778696
-0.0065552479
-0.0054754683
-0.004526158
-0.0036965084
-0.0029755001
-0.0023578574
-0.0018271773
-0.0014057019
-0.0010131056
-0.00086407457
-0.00036665746
-0.0011237542
0.0012044167
-0.17822846
-0.18067566
-0.17790831
-0.170625
-0.16396097
-0.1580327
-0.15174146
-0.14499102
-0.13804173
-0.13098945
-0.12385076
-0.11667121
-0.10951293
-0.10243
-0.09546793
-0.088667737
-0.082065814
-0.075693005
-0.069574636
-0.063730893
-0.058177114
-0.052924076
-0.047978357
-0.043342715
-0.03901649
-0.034995995
-0.031274924
-0.027844731
-0.024695017
-0.02181389
-0.019188303
-0.016804375
-0.014647686
-0.012703542
-0.010957218
-0.0093941715
-0.0080002464
-0.0067618257
-0.0056660452
-0.0047007717
-0.0038552767
-0.0031187559
-0.0024853886
-0.0019399967
-0.0015003506
-0.0010968341
-0.00091006259
-0.00043633226
-0.0010133259
0.00097934078
-0.16812483
-0.16811798
-0.16585262
-0.16066232
-0.15526546
-0.15012232
-0.14465846
-0.13875189
-0.13257521
-0.12622928
-0.11974606
-0.11316929
-0.10655792
-0.099966799
-0.093443531
-0.087031392
-0.080769559
-0.074692139
-0.068827957
-0.063200781
-0.057829537
-0.052728527
-0.047907721
-0.043373103
-0.039127034
-0.035168634
-0.031494169
-0.028097434
-0.024970139
-0.022102269
-0.019482439
-0.017098222
-0.014936455
-0.012983523
-0.011225613
-0.0096489456
-0.0082399882
-0.0069856271
-0.0058733811
-0.0048914205
-0.0040291459
-0.0032760034
-0.0026256427
-0.0020641231
-0.0016046794
-0.0011884981
-0.00096158665
-0.00050979574
-0.0009006624
0.00074407077
-0.15714824
-0.1554147
-0.15324029
-0.14977664
-0.14570072
-0.14140166
-0.1367694
-0.13173627
-0.12638343
-0.12079392
-0.11501477
-0.10909221
-0.10308108
-0.097035172
-0.091003178
-0.085029876
-0.079156449
-0.073419667
-0.067851465
-0.062478961
-0.05732457
-0.052406128
-0.047737101
-0.043326867
-0.03918103
-0.035301766
-0.031688182
-0.028336693
-0.02524139
-0.022394403
-0.019786264
-0.017406234
-0.015242627
-0.013283101
-0.011514933
-0.0099252588
-0.0085013042
-0.0072305731
-0.0061010631
-0.0051013248
-0.0042209517
-0.0034496748
-0.0027806645
-0.0022011627
-0.0017200196
-0.0012887766
-0.0010198588
-0.00058603589
-0.00079166743
0.00050676359
-0.14500946
-0.14260693
-0.14061337
-0.13843825
-0.1355555
-0.13212666
-0.12831342
-0.12413196
-0.11960459
-0.11478733
-0.10973415
-0.10449306
-0.099114585
-0.093650113
-0.088148172
-0.082653945
-0.077209488
-0.071853226
-0.066619412
-0.061537924
-0.056634228
-0.051929405
-0.047440258
-0.04317951
-0.039156041
-0.035375187
-0.031839054
-0.028546862
-0.025495293
-0.022678849
-0.020090197
-0.01772051
-0.015559789
-0.013597165
-0.011821183
-0.010220064
-0.0087819363
-0.0074950508
-0.0063479951
-0.0053297904
-0.0044303031
-0.0036395905
-0.0029504257
-0.0023511387
-0.0018465163
-0.00139761
-0.0010855612
-0.0006642252
-0.00069217525
0.00027599277
-0.13203143
-0.12984129
-0.12825004
-0.1270055
-0.12510709
-0.12251733
-0.11949325
-0.11611545
-0.1123825
-0.1083247
-0.10399443
-0.099440803
-0.094709151
-0.089846119
-0.084898811
-0.07991191
-0.074927287
-0.069983858
-0.065117173
-0.060359039
-0.055737304
-0.051275766
-0.046994183
-0.042908358
-0.039030302
-0.035368451
-0.031927925
-0.028710825
-0.025716546
-0.022942108
-0.020382488
-0.018030951
-0.01587937
-0.01391853
-0.012138423
-0.010528513
-0.0090779851
-0.0077759714
-0.0066117695
-0.0055749715
-0.0046558096
-0.0038447162
-0.0031341758
-0.0025134849
-0.0019838352
-0.0015146175
-0.0011591372
-0.0007435926
-0.00060803312
6.0923961e-05
-0.11891858
-0.11736087
-0.11629976
-0.11573254
-0.11461052
-0.11278165
-0.11049415
-0.10785677
-0.10486491
-0.10153162
-0.097901084
-0.09402004
-0.089930339
-0.085673133
-0.081291109
-0.076827246
-0.072322467
-0.067815176
-0.063341125
-0.058933061
-0.054620383
-0.050428909
-0.046380777
-0.042494431
-0.038784686
-0.035262858
-0.031936955
-0.028811908
-0.025889836
-0.023170342
-0.020650812
-0.018326728
-0.016191978
-0.014239154
-0.012459849
-0.010844922
-0.0093847615
-0.0080695142
-0.0068893119
-0.0058344242
-0.0048955509
-0.0040635564
-0.0033307664
-0.002687313
-0.0021313676
-0.0016392838
-0.0012408387
-0.00082366283
-0.00054435259
-0.00012974784
-0.10619856
-0.10534131
-0.10482746
-0.10477609
-0.10426268
-0.10309385
-0.10147098
-0.099502292
-0.097186315
-0.094526727
-0.091557727
-0.088320404
-0.084852014
-0.081189172
-0.077369937
-0.07343321
-0.069417659
-0.065360395
-0.061296462
-0.057258573
-0.053276765
-0.049378079
-0.045586346
-0.041922073
-0.038402411
-0.035041197
-0.031849063
-0.028833594
-0.025999535
-0.023349033
-0.0208819
-0.018595893
-0.016487
-0.014549733
-0.012777402
-0.011162395
-0.0096964312
-0.0083707992
-0.0071765854
-0.0061048447
-0.0051468514
-0.0042939662
-0.0035384989
-0.002871297
-0.0022881418
-0.0017709147
-0.0013306368
-0.00090430795
-0.00050476941
-0.00028896402
-0.094146083
-0.093899342
-0.093878161
-0.094234402
-0.094201574
-0.093587896
-0.092546177
-0.091169801
-0.089459223
-0.087413287
-0.085056915
-0.082423916
-0.079546118
-0.076454972
-0.07318394
-0.069767752
-0.066241318
-0.062639253
-0.058995089
-0.055340679
-0.05170583
-0.048117983
-0.04460192
-0.041179559
-0.03786983
-0.034688626
-0.03164883
-0.0287604
-0.026030505
-0.023463705
-0.021062166
-0.018825904
-0.016753031
-0.014840031
-0.013082017
-0.011472997
-0.010006129
-0.0086739516
-0.007468617
-0.0063820682
-0.0054062595
-0.0045331192
-0.0037550889
-0.003063637
-0.0024527917
-0.0019086022
-0.0014281592
-0.00098567067
-0.00049089585
-0.00041232547
-0.082894842
-0.083123646
-0.083504346
-0.084180454
-0.084525686
-0.084367123
-0.08381893
-0.08295595
-0.081777877
-0.080280457
-0.078480753
-0.076404972
-0.074078989
-0.071528864
-0.06878289
-0.065871336
-0.062825223
-0.059675696
-0.056453757
-0.053189618
-0.049912101
-0.046648266
-0.043423106
-0.040259266
-0.037176848
-0.034193272
-0.031323227
-0.028578678
-0.025968928
-0.023500737
-0.021178482
-0.01900434
-0.016978512
-0.015099452
-0.013364108
-0.011768167
-0.010306296
-0.0089723762
-0.0077597144
-0.0066612356
-0.0056696738
-0.0047775994
-0.0039777312
-0.0032621
-0.002623583
-0.0020512154
-0.0015326617
-0.0010680203
-0.00050203749
-0.00049882517
-0.07250114
-0.073074495
-0.073757759
-0.074673573
-0.075308994
-0.075513416
-0.07537232
-0.074943445
-0.074224115
-0.073207458
-0.071903983
-0.070332745
-0.068513554
-0.066467008
-0.064216105
-0.061786195
-0.059204052
-0.056497132
-0.0536932
-0.050819987
-0.047904612
-0.044973057
-0.042049815
-0.039157587
-0.036317013
-0.033546481
-0.030861985
-0.028277072
-0.025802828
-0.023447931
-0.021218748
-0.019119468
-0.017152275
-0.015317539
-0.013614027
-0.01203912
-0.010589039
-0.009259059
-0.008043718
-0.0069370002
-0.0059325085
-0.0050235301
-0.0042031989
-0.0034640877
-0.0027984598
-0.0021973955
-0.0016430198
-0.0011515718
-0.00053526145
-0.00055108189
-0.062974042
-0.06378254
-0.064677311
-0.065759644
-0.066607792
-0.067092017
-0.067276406
-0.067204523
-0.066871021
-0.0662667
-0.065396628
-0.06427351
-0.062911391
-0.061325542
-0.059533752
-0.057556364
-0.055415569
-0.053134802
-0.050738302
-0.048250756
-0.045696884
-0.04310094
-0.040486271
-0.037874983
-0.035287636
-0.032742998
-0.030257846
-0.027846838
-0.025522439
-0.023294906
-0.021172322
-0.019160674
-0.01726397
-0.015484392
-0.013822458
-0.012277221
-0.010846457
-0.0095268652
-0.0083142621
-0.0072037515
-0.0061898811
-0.0052667267
-0.0044279636
-0.0036667217
-0.002975105
-0.0023455563
-0.001757746
-0.0012363128
-0.00058584733
-0.00057492788
-0.054296463
-0.055254067
-0.05628395
-0.057469103
-0.058462544
-0.059153086
-0.059588538
-0.059801195
-0.059783497
-0.059524396
-0.059024548
-0.058291262
-0.057333419
-0.056161345
-0.054787895
-0.053228549
-0.051500877
-0.049624064
-0.04761855
-0.045505668
-0.043307255
-0.041045253
-0.03874128
-0.036416248
-0.034090043
-0.031781233
-0.029506836
-0.027282125
-0.025120501
-0.023033415
-0.021030341
-0.019118796
-0.017304405
-0.015590999
-0.013980743
-0.012474289
-0.011070936
-0.0097688078
-0.008565018
-0.0074558316
-0.006436801
-0.0055028562
-0.0046483262
-0.0038669415
-0.0031510116
-0.0024939011
-0.0018750408
-0.0013218868
-0.00064805854
-0.00057835756
-0.04643563
-0.047476408
-0.048580591
-0.049816136
-0.050898152
-0.051731883
-0.052352692
-0.052784116
-0.053017104
-0.053039403
-0.052848276
-0.052446648
-0.051839018
-0.051031358
-0.050032053
-0.048852051
-0.047504487
-0.046004318
-0.044368046
-0.042613434
-0.040759146
-0.038824392
-0.036828561
-0.034790849
-0.032729918
-0.030663592
-0.028608588
-0.02658029
-0.024592566
-0.022657639
-0.020786005
-0.0189864
-0.017265803
-0.015629494
-0.014081124
-0.012622834
-0.011255377
-0.0099782609
-0.0087898934
-0.0076877183
-0.0066683343
-0.0057275819
-0.00486054
-0.0040616013
-0.0033235582
-0.0026404566
-0.00199288
-0.0014075622
-0.00071607333
-0.00057003932
-0.039348436
-0.040423155
-0.041555184
-0.042800177
-0.043924969
-0.044849379
-0.045599361
-0.04619178
-0.04661683
-0.046861732
-0.046921339
-0.046795206
-0.046484312
-0.045990998
-0.045319793
-0.044477612
-0.043473513
-0.042318443
-0.041025046
-0.039607448
-0.038080983
-0.036461877
-0.034766929
-0.033013189
-0.031217629
-0.02939683
-0.027566708
-0.025742257
-0.023937337
-0.022164503
-0.020434874
-0.018758048
-0.01714206
-0.015593382
-0.014116955
-0.012716252
-0.011393368
-0.010149125
-0.0089831861
-0.007894167
-0.0068797341
-0.0059366804
-0.005060913
-0.0042475555
-0.0034900818
-0.0027831248
-0.0021091277
-0.0014922853
-0.0007848495
-0.00055775837
-0.032985941
-0.034059062
-0.035184825
-0.036408801
-0.037540877
-0.038513752
-0.039346366
-0.04005062
-0.040616587
-0.041031573
-0.041288912
-0.041385742
-0.041320389
-0.041092341
-0.04070297
-0.040155769
-0.039456221
-0.038611638
-0.037631053
-0.036525079
-0.035305712
-0.033986087
-0.032580209
-0.031102682
-0.029568417
-0.02799234
-0.026389116
-0.024772891
-0.023157058
-0.02155406
-0.019975223
-0.018430629
-0.016929032
-0.015477805
-0.014082932
-0.012749022
-0.011479361
-0.010275976
-0.0091397137
-0.0080703253
-0.0070665413
-0.0061261312
-0.0052458867
-0.0044217276
-0.0036479407
-0.0029197459
-0.0022216557
-0.0015747929
-0.00085069937
-0.00054721301
-0.027296766
-0.028343734
-0.029439313
-0.030620789
-0.031733834
-0.032722435
-0.03360037
-0.03437592
-0.035039525
-0.035579072
-0.035987125
-0.03625925
-0.036391925
-0.036382544
-0.036230046
-0.035935171
-0.03550041
-0.034929933
-0.034229544
-0.033406615
-0.032469958
-0.031429655
-0.030296861
-0.029083573
-0.027802397
-0.026466289
-0.025088303
-0.023681336
-0.022257898
-0.020829899
-0.01940846
-0.018003762
-0.016624914
-0.015279873
-0.013975385
-0.012716963
-0.01150889
-0.010354248
-0.0092549641
-0.008211856
-0.0072246858
-0.0062921993
-0.005412105
-0.0045811697
-0.0037945715
-0.0030481646
-0.0023284444
-0.0016537402
-0.00091144346
-0.00054147967
-0.022229376
-0.023234279
-0.024283962
-0.02540887
-0.026484401
-0.027464358
-0.028358738
-0.029173223
-0.029898963
-0.030524773
-0.031043041
-0.031448455
-0.03173635
-0.031902717
-0.031944748
-0.031861096
-0.031651882
-0.031318686
-0.030864556
-0.030294006
-0.029612948
-0.028828593
-0.027949318
-0.026984498
-0.025944319
-0.024839572
-0.023681437
-0.022481249
-0.021250283
-0.019999541
-0.01873956
-0.017480236
-0.016230677
-0.014999086
-0.01379267
-0.012617576
-0.011478863
-0.010380486
-0.0093253059
-0.008315108
-0.0073506221
-0.0064315422
-0.0055564972
-0.0047231302
-0.0039275478
-0.0031663001
-0.0024276519
-0.0017278093
-0.00096616435
-0.0005412183
-0.017733936
-0.018687507
-0.019682023
-0.020742228
-0.021768228
-0.022722297
-0.023611658
-0.024440145
-0.025199817
-0.025880634
-0.026475236
-0.026977978
-0.027383617
-0.02768733
-0.027885175
-0.027974334
-0.027953161
-0.027821213
-0.027579303
-0.027229534
-0.026775296
-0.026221218
-0.025573096
-0.024837785
-0.02402307
-0.023137504
-0.022190241
-0.02119084
-0.020149075
-0.019074733
-0.017977431
-0.016866439
-0.015750521
-0.014637791
-0.013535605
-0.012450465
-0.011387952
-0.010352682
-0.0093482797
-0.0083773617
-0.0074415309
-0.0065413708
-0.0056764047
-0.004845155
-0.0040446611
-0.0032722243
-0.0025176535
-0.0017957835
-0.00101473
-0.00054541687
-0.013763395
-0.014661375
-0.015596404
-0.016588416
-0.017558077
-0.018474929
-0.019344143
-0.020168232
-0.020940252
-0.021651407
-0.02229487
-0.022865052
-0.023356567
-0.023764245
-0.024083517
-0.024310633
-0.024442723
-0.024477864
-0.024415146
-0.024254745
-0.023997951
-0.023647175
-0.023205919
-0.02267873
-0.022071112
-0.02138943
-0.020640774
-0.019832819
-0.018973663
-0.018071658
-0.017135239
-0.016172757
-0.015192323
-0.014201658
-0.013207962
-0.012217806
-0.011237034
-0.010270692
-0.009322969
-0.0083971526
-0.0074955943
-0.0066196788
-0.0057697678
-0.0049452369
-0.0041440383
-0.0033642604
-0.0025970745
-0.0018565944
-0.0010573147
-0.00055230877
-0.010274937
-0.011116686
-0.011991557
-0.012915368
-0.013825911
-0.014698945
-0.01553809
-0.016344903
-0.017113438
-0.017836149
-0.018506901
-0.01912042
-0.019671478
-0.020154907
-0.020565905
-0.020900223
-0.021154237
-0.02132502
-0.02141042
-0.02140915
-0.021320841
-0.021146081
-0.020886425
-0.02054439
-0.02012342
-0.019627826
-0.019062709
-0.018433851
-0.017747605
-0.017010754
-0.016230369
-0.015413663
-0.014567842
-0.013699964
-0.012816803
-0.011924727
-0.011029586
-0.010136618
-0.0092503666
-0.0083746102
-0.0075123007
-0.0066655094
-0.0058353529
-0.0050220066
-0.004224294
-0.0034411018
-0.0026648363
-0.0019093668
-0.0010940908
-0.00056012232
-0.0072299932
-0.008017571
-0.0088343746
-0.0096926664
-0.010544517
-0.011370964
-0.012174439
-0.01295578
-0.013709982
-0.014430688
-0.015112521
-0.015750665
-0.016340243
-0.016876323
-0.017354154
-0.017769324
-0.018117823
-0.018396119
-0.018601236
-0.018730846
-0.018783338
-0.018757875
-0.018654434
-0.01847383
-0.018217716
-0.017888571
-0.017489654
-0.017024949
-0.016499083
-0.015917233
-0.015285013
-0.014608357
-0.013893387
-0.013146288
-0.01237318
-0.01157999
-0.010772338
-0.0099554281
-0.0091339468
-0.0083119749
-0.007492902
-0.0066793519
-0.0058730895
-0.0050750125
-0.0042847537
-0.0035019839
-0.0027202526
-0.0019534899
-0.0011251442
-0.00056749891
-0.0045956021
-0.0053326824
-0.0060952426
-0.0068924218
-0.0076881784
-0.0084680231
-0.0092334512
-0.0099847452
-0.01071774
-0.011427167
-0.012108399
-0.012757143
-0.013368974
-0.013939335
-0.014463711
-0.014937759
-0.015357359
-0.015718684
-0.016018274
-0.01625312
-0.016420737
-0.016519235
-0.016547369
-0.016504586
-0.016391057
-0.016207686
-0.015956109
-0.015638668
-0.015258373
-0.01481884
-0.01432422
-0.013779107
-0.013188437
-0.012557382
-0.011891236
-0.0111953
-0.010474761
-0.0097345878
-0.0089794148
-0.0082134407
-0.0074403273
-0.006663106
-0.0058840688
-0.0051047384
-0.0043254782
-0.0035467033
-0.0027630297
-0.0019886163
-0.0011504793
-0.00057356561
-0.0023459449
-0.0030378377
-0.0037516384
-0.0044938304
-0.0052382015
-0.0059739962
-0.0067019569
-0.0074219191
-0.0081304456
-0.0088232216
-0.009496315
-0.01014596
-0.010768214
-0.011358955
-0.01191401
-0.012429248
-0.012900629
-0.013324254
-0.013696436
-0.014013771
-0.014273213
-0.014472137
-0.014608405
-0.014680421
-0.014687176
-0.014628289
-0.014504022
-0.014315292
-0.014063659
-0.013751304
-0.013380982
-0.012955975
-0.012480013
-0.011957192
-0.011391886
-0.010788639
-0.010152066
-0.0094867375
-0.0087970727
-0.0080872253
-0.0073609738
-0.0066216141
-0.0058718372
-0.0051136811
-0.0043481453
-0.0035763248
-0.0027938206
-0.0020150904
-0.0011704098
-0.00057803144
-0.00045589322
-0.0011080122
-0.0017788686
-0.0024725603
-0.0031709454
-0.0038663804
-0.0045590011
-0.0052482704
-0.0059313556
-0.0066047524
-0.0072651431
-0.0079092475
-0.0085335874
-0.0091344816
-0.0097081358
-0.010250706
-0.010758337
-0.011227206
-0.011653576
-0.012033862
-0.012364689
-0.012642961
-0.012865923
-0.013031218
-0.013136947
-0.013181717
-0.013164682
-0.013085569
-0.0129447
-0.012742991
-0.012481943
-0.012163615
-0.011790579
-0.011365868
-0.010892906
-0.010375423
-0.0098173688
-0.0092228113
-0.0085958285
-0.0079403979
-0.0072602805
-0.006558905
-0.0058392367
-0.0051037142
-0.0043538687
-0.003591391
-0.0028127716
-0.0020327699
-0.0011846795
-0.00058046751
0.0010711038
0.00045139254
-0.00018411168
-0.00083775614
-0.0014978012
-0.0021590421
-0.0028211197
-0.0034831983
-0.0041429303
-0.0047974679
-0.0054440023
-0.0060796698
-0.0067014013
-0.007305918
-0.0078897879
-0.0084494686
-0.008981336
-0.0094817178
-0.0099469378
-0.010373366
-0.010757475
-0.011095895
-0.011385473
-0.011623337
-0.011806951
-0.011934173
-0.01200331
-0.012013155
-0.01196303
-0.011852808
-0.011682926
-0.011454379
-0.011168715
-0.010827998
-0.010434761
-0.0099919488
-0.0095028409
-0.0089709671
-0.0084000083
-0.0077936891
-0.0071556622
-0.006489389
-0.0057980029
-0.0050842357
-0.0043500418
-0.0035976083
-0.0028241988
-0.0020448292
-0.0011955214
-0.00058202438
0.0022776118
0.0016845908
0.0010780487
0.00045725304
-0.0001710469
-0.0008035919
-0.0014396419
-0.0020781132
-0.0027170251
-0.0033540417
-0.0039867579
-0.0046126465
-0.0052289754
-0.0058328046
-0.0064210184
-0.0069903509
-0.0075374082
-0.0080586931
-0.0085506404
-0.009009657
-0.0094321679
-0.0098146662