/*--------------------------------*- C++ -*----------------------------------*\
  =========                 |
  \\      /  F ield         | OpenFOAM: The Open Source CFD Toolbox
   \\    /   O peration     | Website:  https://openfoam.org
    \\  /    A nd           | Version:  6
     \\/     M anipulation  |
\*---------------------------------------------------------------------------*/
FoamFile
{
    version     2.0;
    format      ascii;
    class       surfaceScalarField;
    location    "58";
    object      phi;
}
// * * * * * * * * * * * * * * * * * * * * * * * * * * * * * * * * * * * * * //

dimensions      [0 3 -1 0 0 0 0];

internalField   nonuniform List<scalar> 
18180
(
0.00031938368
-0.000164458
-0.00015492558
0.001311832
-0.0013722318
0.0003797836
0.0030388649
-0.0033443901
0.0016173572
0.0055605763
-0.005993555
0.0034718436
0.0089353614
-0.009264831
0.0058900461
0.013217913
-0.013114716
0.0088321651
0.018456544
-0.017505673
0.012267041
0.024690207
-0.02240339
0.016169728
0.031945318
-0.027773643
0.020518532
0.040232681
-0.033579677
0.025292314
0.049544782
-0.039780442
0.03046834
0.059853871
-0.046329682
0.036020593
0.0711112
-0.053175849
0.04191852
0.083247893
-0.060262868
0.048126175
0.09617806
-0.067531865
0.054601699
0.10980466
-0.074923949
0.061297348
0.12402757
-0.082383895
0.068160989
0.13875882
-0.089864464
0.075133216
0.15399632
-0.097348328
0.082110828
-0.10483307
0.088891482
0.1699379
0.00039824235
-0.00056270027
0.0016125431
-0.0025865324
0.0036959698
-0.0054278168
0.0066993327
-0.0089969178
0.010669316
-0.013234815
0.0156448
-0.0180902
0.021652829
-0.023513702
0.028704638
-0.029455199
0.036792005
-0.035861011
0.045884351
-0.042672022
0.055927009
-0.049823099
0.066841026
-0.0572437
0.078524745
-0.064859568
0.09085724
-0.072595363
0.10370341
-0.080378032
0.1169201
-0.088140639
0.13036234
-0.095826144
0.14389018
-0.1033923
0.15736755
-0.1108257
-0.11805704
0.17059152
0.00048145522
-0.0010441554
0.0019219364
-0.0040270135
0.0043596885
-0.0078655688
0.0078292782
-0.012466507
0.012357337
-0.017762873
0.017957135
-0.023689998
0.024623486
-0.030180053
0.032328465
-0.037160178
0.041018375
-0.044550921
0.050612466
-0.052266113
0.061003755
-0.060214388
0.072062148
-0.068302093
0.083639707
-0.076437126
0.095577665
-0.084533321
0.10771445
-0.092514812
0.11989361
-0.1003198
0.13197055
-0.10790308
0.14381591
-0.11523766
0.155308
-0.12231779
-0.12909374
0.1663447
0.00056707786
-0.0016112331
0.0022314122
-0.0056913478
0.0050082167
-0.010642373
0.0089072104
-0.016365501
0.013925326
-0.022780989
0.020039818
-0.02980449
0.027202918
-0.037343153
0.035338492
-0.045295752
0.044341178
-0.053553607
0.054078345
-0.062003279
0.064394933
-0.070530977
0.075120833
-0.079027993
0.086080103
-0.087396396
0.097101024
-0.095554241
0.10802586
-0.10343965
0.11871918
-0.11101312
0.12907386
-0.11825776
0.13901367
-0.12517747
0.14849008
-0.13179421
-0.13810763
0.15750396
0.00065185306
-0.0022630861
0.0025279596
-0.0075674542
0.0056114235
-0.013725837
0.0098777314
-0.020631809
0.015284365
-0.028187622
0.021763267
-0.036283392
0.029216571
-0.044796456
0.037515784
-0.053594965
0.046504665
-0.062542488
0.056005665
-0.071504278
0.065829301
-0.080354613
0.075785407
-0.0889841
0.085694886
-0.097305875
0.095400529
-0.10525988
0.10477562
-0.11281474
0.11372946
-0.11996696
0.12220946
-0.12673776
0.13019991
-0.13316792
0.1377175
-0.13931179
-0.14521345
0.14482332
0.00073163632
-0.0029947223
0.0027957464
-0.0096315642
0.0061342943
-0.017064385
0.010679575
-0.025177089
0.016341332
-0.03384938
0.022999928
-0.042941988
0.030504736
-0.052301264
0.038677358
-0.061767587
0.047319266
-0.071184396
0.056222911
-0.080407923
0.065184795
-0.089316498
0.074018693
-0.097817997
0.082567216
-0.1058544
0.090710303
-0.11340297
0.098369667
-0.1204741
0.10550907
-0.12710637
0.1121309
-0.13335959
0.11827005
-0.13930707
0.12398637
-0.14502811
-0.15059408
0.129367
0.00080173486
-0.003796457
0.0030174971
-0.011847326
0.0065402709
-0.020587159
0.011252026
-0.029888844
0.017009573
-0.039606927
0.023640067
-0.049572481
0.03094354
-0.059604738
0.038701048
-0.069525095
0.046687042
-0.07917039
0.054684015
-0.088404897
0.062497085
-0.097129567
0.069966284
-0.1052872
0.07697489
-0.11286301
0.083452852
-0.11988093
0.089375314
-0.12639657
0.094757016
-0.13248807
0.099643932
-0.13824651
0.10410378
-0.14376692
0.10821698
-0.14914132
-0.15445097
0.11207388
0.00085703131
-0.0046534882
0.003175434
-0.014165729
0.0067939843
-0.024205709
0.011540431
-0.03463529
0.01721786
-0.045284356
0.023604114
-0.055958736
0.030459369
-0.066459992
0.037539073
-0.076604798
0.044609795
-0.086241113
0.05146511
-0.095260212
0.05793875
-0.10360321
0.063913014
-0.11126146
0.06932144
-0.11827143
0.074145876
-0.12470537
0.078409051
-0.13065974
0.082164321
-0.13624334
0.085484519
-0.1415667
0.088451627
-0.14673403
0.091148566
-0.15183826
-0.15695768
0.093655269
0.00089116644
-0.0055446545
0.0032513207
-0.016525883
0.0068635086
-0.027817897
0.011501359
-0.039273141
0.016918288
-0.050701285
0.022851974
-0.061892421
0.029036889
-0.072644906
0.035220813
-0.082788723
0.041181882
-0.092202181
0.046742817
-0.10082115
0.051779817
-0.10864021
0.056224897
-0.11570654
0.060061922
-0.12210846
0.063317664
-0.12796111
0.066049932
-0.13339201
0.068334987
-0.13852839
0.070256128
-0.14348785
0.071894834
-0.14837273
0.073325024
-0.15326845
-0.15824287
0.074610215
0.0009006198
-0.0064452742
0.0032359741
-0.018861237
0.0067339768
-0.031315899
0.011118054
-0.043657217
0.016100703
-0.055683935
0.021392965
-0.067184682
0.026720769
-0.077972711
0.031842774
-0.087910728
0.036565748
-0.096925155
0.040754338
-0.10500974
0.044333636
-0.1122195
0.047284655
-0.11865756
0.049634261
-0.12445806
0.051441935
-0.12976878
0.052785858
-0.13473593
0.053750447
-0.13949298
0.05441677
-0.14415417
0.054856432
-0.1488124
0.055128776
-0.15354079
0.055279804
-0.1583939
-0.00020277228
0.00020277249
-2.2265061e-10
-0.00067900727
0.00047623521
-2.178403e-10
-0.0013448328
0.00066582571
-1.839185e-10
-0.0021359847
0.00079115213
-1.7808151e-10
-0.0030007713
0.00086478678
-1.830133e-10
-0.0038969759
0.00089620474
-1.8782083e-10
-0.0047896161
0.00089264044
-1.9294027e-10
-0.0056490697
0.00085945376
-1.9785794e-10
-0.0064495991
0.0008005296
-2.0350725e-10
-0.0071681973
0.00071859846
-2.1116407e-10
-0.0077836666
0.00061546949
-2.2045273e-10
-0.0082758803
0.00049221395
-2.336323e-10
-0.0086252011
0.00034932107
-2.4889953e-10
-0.0088120453
0.0001868445
-2.6912742e-10
-0.0088166257
4.5806419e-06
-2.9225596e-10
-0.0086189742
-0.00019765112
-3.2053157e-10
-0.0081992064
-0.00041976753
-3.5126102e-10
-0.007537114
-0.00066209202
-3.8677937e-10
-0.0066117566
-0.00092535691
-4.2532175e-10
-0.0011959319
-0.0054158243
-4.6574858e-10
-0.00018832109
0.00039109358
-0.00062610188
0.000914016
-0.0012308116
0.0012705355
-0.0019382898
0.0014986303
-0.0026962275
0.0016227245
-0.0034612197
0.0016611969
-0.0041966123
0.0016280331
-0.0048706874
0.0015335289
-0.0054552214
0.0013850635
-0.0059243459
0.001187723
-0.0062536301
0.00094475371
-0.0064193358
0.00065791961
-0.0063978101
0.00032779544
-0.0061650044
-4.596123e-05
-0.0056961465
-0.00046427728
-0.0049656592
-0.00092813834
-0.0039473755
-0.0014380513
-0.0026144591
-0.0019950084
-0.0009392527
-0.0026005633
-0.0032248517
0.001089667
-0.00015918406
0.00055027764
-0.00051966936
0.0012745013
-0.001002163
0.0017530292
-0.0015432203
0.0020396876
-0.0020897078
0.002169212
-0.0025962056
0.0021676947
-0.003023057
0.0020548845
-0.003334697
0.0018451689
-0.0034983024
0.0015486689
-0.0034827126
0.0011721332
-0.0032575434
0.00071958445
-0.0027924638
0.00019284004
-0.002056561
-0.00040810737
-0.0010178244
-0.0010846978
0.0003572854
-0.001839387
0.0021041162
-0.0026749691
0.0042597868
-0.0035937219
0.0068628788
-0.0045981004
0.0099533647
-0.0056910492
-0.0068222829
0.013550796
-0.00011770288
0.00066798053
-0.00036735117
0.0015241496
-0.00067400962
0.0020596876
-0.00097525322
0.0023409312
-0.0012168706
0.0024108293
-0.001350729
0.0023015531
-0.0013331127
0.0020372682
-0.0011232644
0.0016353207
-0.00068218621
0.0011075907
2.8315714e-05
0.00046163133
0.0010464171
-0.00029851689
0.0024109235
-0.0011716664
0.0041618168
-0.0021590006
0.0063407366
-0.0032636176
0.0089914877
-0.0044901381
0.012160598
-0.0058440791
0.015897694
-0.0073308182
0.020255203
-0.0089556095
0.025288137
-0.010723984
-0.012561333
0.031027187
-6.690912e-05
0.00073488966
-0.00017903681
0.0016362773
-0.00026600415
0.002146655
-0.00026635741
0.0023412845
-0.00012451408
0.002268986
0.00021087642
0.0019661626
0.00078826364
0.001459881
0.0016543676
0.00076921673
0.0028551507
-9.3192355e-05
0.0044366042
-0.0011198222
0.0064453123
-0.0023072249
0.0089288671
-0.0036552212
0.011936194
-0.0051663273
0.015517877
-0.0068453013
0.019726534
-0.0086987943
0.024617425
-0.010734971
0.030249338
-0.012962732
0.036685096
-0.015391367
0.043992324
-0.018031212
-0.020782644
0.052213635
-9.8517608e-06
0.00074474143
3.5156287e-05
0.0015912692
0.00020147672
0.0019803345
0.00054992676
0.0019928344
0.0011377333
0.0016811794
0.0020196938
0.0010842022
0.0032491403
0.00023043445
0.0048788237
-0.0008604667
0.00696157
-0.0021759386
0.009550653
-0.0037089052
0.012700001
-0.0054565732
0.016464299
-0.0074195194
0.02089891
-0.0096009374
0.026059703
-0.012006095
0.032002955
-0.014642046
0.038785629
-0.017517645
0.046466559
-0.020643661
0.055108501
-0.024033309
0.064781977
-0.027704688
-0.031539146
0.075538479
5.1008723e-05
0.00069373273
0.0002667456
0.0013755324
0.00071085616
0.001536224
0.0014439582
0.0012597324
0.002525028
0.00060010963
0.0040121607
-0.00040293062
0.0059631648
-0.0017205696
0.0084359474
-0.0033332492
0.011488642
-0.0052286328
0.015179572
-0.0073998353
0.01956698
-0.0098439811
0.024708489
-0.012561029
0.030660363
-0.015552811
0.037476593
-0.018822325
0.045207953
-0.022373406
0.053901439
-0.026211131
0.063601061
-0.030343284
0.074351224
-0.034783472
0.086205672
-0.039559135
-0.04455341
0.099219936
0.00011416449
0.00057956828
0.00051001578
0.00097968112
0.0012495181
0.00079672166
0.0023933389
0.00011591168
0.0040019666
-0.0010085181
0.0061360509
-0.0025370149
0.008856378
-0.0044408967
0.012223689
-0.0067005598
0.016298266
-0.0093032102
0.021139182
-0.012240751
0.026803249
-0.015508048
0.033343682
-0.019101462
0.040808501
-0.02301763
0.049238709
-0.027252532
0.058666382
-0.031801079
0.069113033
-0.036657782
0.080589411
-0.041819662
0.0930986
-0.047292661
0.1066475
-0.053108032
-0.059185684
0.12127977
0.00017896154
0.0004006068
0.00076192218
0.00039672052
0.0018097151
-0.0002510712
0.0033827445
-0.0014571178
0.0055419747
-0.0031677482
0.0083486656
-0.0053437058
0.011863741
-0.0079559718
0.016146854
-0.010983673
0.021255097
-0.014411454
0.027241368
-0.018227021
0.034152424
-0.022419104
0.042026674
-0.026975712
0.050891732
-0.031882689
0.060761776
-0.037122577
0.071634689
-0.042673991
0.083489047
-0.04851214
0.096281921
-0.054612535
0.10995021
-0.060960949
0.12442409
-0.06758191
-0.074480527
0.13971893
0.00024568124
0.0010221854
0.0023884715
0.0044031973
0.0071254952
0.010613954
0.014925024
0.020111079
0.026218157
0.03328345
0.041332687
0.050377568
0.060413399
0.071416997
0.083344705
0.096129912
0.10967837
0.12385063
0.13837955
0.1527905
-0.0034635082
-0.0019523154
-6.8377243e-10
-0.001228342
-0.0022351655
-7.556318e-10
0.0012674526
-0.0024957937
-8.3275156e-10
0.0039668942
-0.0026994407
-9.0576087e-10
0.0068432136
-0.0028763184
-9.775468e-10
0.0098791881
-0.0030359735
-1.0253857e-09
0.013055951
-0.003176762
-1.0644011e-09
0.01635554
-0.0032995881
-1.0801318e-09
0.019762321
-0.0034067792
-1.0701789e-09
0.023262145
-0.0034998237
-1.0321156e-09
0.026841803
-0.0035796572
-9.5787056e-10
0.030488951
-0.0036471464
-8.4449451e-10
0.034192031
-0.0037030799
-6.8454501e-10
0.037940145
-0.003748113
-4.7786304e-10
0.041722946
-0.0037828008
-2.2321709e-10
0.04553058
-0.0038076345
7.1521907e-11
0.049353639
-0.0038230595
3.9620712e-10
0.053183127
-0.0038294888
7.3128157e-10
0.057010444
-0.0038273178
1.0526356e-09
0.060827378
-0.0038169362
1.3278027e-09
0.064626114
-0.0037987369
1.518729e-09
0.068399235
-0.0037731228
1.5832226e-09
0.072139745
-0.0037405112
1.4761169e-09
0.07584108
-0.0037013364
1.1580381e-09
0.079497129
-0.0036560502
5.9388746e-10
0.083102251
-0.0036051217
-2.2898622e-10
0.086651288
-0.0035490359
-1.308029e-09
0.090139582
-0.0034882914
-2.5955396e-09
0.093562984
-0.0034233979
-4.0185552e-09
0.096917863
-0.0033548739
-5.4358049e-09
0.10020111
-0.0032832447
-6.6818443e-09
0.10341016
-0.0032090405
-7.5109972e-09
0.10654297
-0.0031327955
-7.6837522e-09
0.10959802
-0.0030550486
-6.896035e-09
0.11257437
-0.0029763445
-4.9287396e-09
0.11547161
-0.002897237
-1.5499886e-09
0.1182899
-0.0028182943
3.2487367e-09
0.12103
-0.0027401062
9.4206292e-09
0.12369328
-0.0026633005
1.6519424e-08
0.1262818
-0.0025885455
2.4014085e-08
0.1287984
-0.0025166273
3.0864492e-08
0.13124669
-0.0024483245
3.5995372e-08
0.13363168
-0.0023850257
3.8114956e-08
0.13595871
-0.0023270744
3.608963e-08
0.13823834
-0.0022796516
2.9089474e-08
0.14047364
-0.0022353172
1.698246e-08
0.14270441
-0.0022307746
2.6505463e-10
0.144882
-0.0021775681
-1.8362008e-08
0.14725996
-0.0023779277
-3.985898e-08
-0.0021335582
-4.846897e-08
0.002922457
-0.0037851053
0.005033347
-0.0043460556
0.0073916648
-0.0048541114
0.0099348799
-0.0052426558
0.012641965
-0.005583403
0.015500688
-0.0058946968
0.018494382
-0.0061704565
0.021606704
-0.0064119098
0.024823704
-0.0066237791
0.028132696
-0.0068088154
0.031521627
-0.0069685883
0.0349791
-0.0071046198
0.03849435
-0.0072183298
0.04205713
-0.0073108926
0.04565763
-0.0073833016
0.04928644
-0.0074364445
0.052934516
-0.0074711348
0.056593163
-0.0074881358
0.060254032
-0.0074881872
0.063909122
-0.0074720264
0.067550791
-0.0074404051
0.071171768
-0.0073941004
0.07476518
-0.0073339228
0.078324563
-0.0072607198
0.08184389
-0.0071753772
0.085317585
-0.0070788169
0.088740543
-0.0069719939
0.092108144
-0.0068558919
0.095416264
-0.006731518
0.098661287
-0.0065998976
0.10184011
-0.0064620707
0.10495016
-0.0063190876
0.10798937
-0.0061720081
0.11095623
-0.0060219018
0.11384973
-0.0058698508
0.11666945
-0.0057169568
0.11941551
-0.0055643517
0.12208861
-0.0054132113
0.1246901
-0.005264789
0.12722198
-0.0051204198
0.12968703
-0.0049816769
0.13208882
-0.0048501177
0.13443231
-0.0047285203
0.13672281
-0.0046175733
0.13897078
-0.0045276174
0.1411793
-0.00444384
0.14338777
-0.0044392409
0.14554835
-0.0043381517
0.14790987
-0.0047394461
-0.0042627758
0.015135076
-0.0053693856
0.016980454
-0.0061914329
0.019049791
-0.0069234485
0.021273092
-0.0074659574
0.023638771
-0.0079490817
0.026143281
-0.0083992065
0.028774085
-0.008801261
0.031517772
-0.0091555966
0.034363316
-0.0094693232
0.03730057
-0.0097460694
0.040319499
-0.0099875175
0.043410333
-0.010195454
0.046563645
-0.010371642
0.049770285
-0.010517532
0.053021337
-0.010634354
0.056308119
-0.010723226
0.05962218
-0.010785195
0.062955314
-0.01082127
0.066299573
-0.010832447
0.069647289
-0.010819743
0.072991096
-0.010784212
0.076323955
-0.01072696
0.079639184
-0.010649152
0.082930481
-0.010552017
0.08619195
-0.010436846
0.089418122
-0.010304989
0.092603978
-0.010157849
0.095744961
-0.0099968754
0.098836995
-0.0098235519
0.10187649
-0.0096393956
0.10486037
-0.0094459436
0.10778603
-0.0092447528
0.11065142
-0.0090373953
0.11345498
-0.0088254594
0.11619568
-0.0086105551
0.11887305
-0.0083943232
0.12148715
-0.0081784526
0.12403864
-0.0079647005
0.12652879
-0.0077549424
0.12895955
-0.0075511793
0.13133364
-0.0073557713
0.13365458
-0.007171057
0.13592726
-0.0070012004
0.13815695
-0.0068472548
0.14035396
-0.0067246329
0.14252153
-0.006611404
0.14469804
-0.0066157585
0.14683802
-0.0064781269
0.14917956
-0.0070809921
-0.0063975186
0.032224151
-0.0065663486
0.033654053
-0.0076213351
0.035275506
-0.0085449019
0.037015549
-0.0092060007
0.038874939
-0.0098084714
0.040860081
-0.010384348
0.042963893
-0.010905073
0.04517693
-0.011368634
0.047491698
-0.011784091
0.049901058
-0.012155429
0.052397395
-0.012483854
0.054972851
-0.012770909
0.057619517
-0.013018308
0.060329463
-0.013227479
0.063094749
-0.01339964
0.065907461
-0.013535939
0.068759765
-0.013637499
0.071643945
-0.013705449
0.074552447
-0.013740949
0.077477921
-0.013745217
0.08041326
-0.01371955
0.083351638
-0.013665338
0.086286546
-0.013584061
0.089211828
-0.013477298
0.092121703
-0.013346721
0.095010798
-0.013194084
0.097874168
-0.01302122
0.10070731
-0.012830022
0.1035062
-0.012622438
0.10626726
-0.012400459
0.10898743
-0.012166106
0.1116641
-0.011921429
0.11429521
-0.0116685
0.11687916
-0.011409417
0.11941492
-0.011146308
0.12190194
-0.010881347
0.12434026
-0.010616773
0.12673048
-0.010354923
0.12907383
-0.010098292
0.1313722
-0.0098495502
0.13362828
-0.0096118456
0.13584553
-0.0093883045
0.1380288
-0.0091844722
0.14018334
-0.0090017992
0.14231934
-0.0088606335
0.14444027
-0.0087323307
0.14658308
-0.0087585687
0.14870591
-0.0086009561
0.15103108
-0.0094061614
-0.0085530069
0.052867851
-0.0072205641
0.053723152
-0.0084766362
0.054732921
-0.0095546713
0.055831606
-0.010304685
0.057034136
-0.011011001
0.0583549
-0.011705113
0.059792503
-0.012342676
0.061342165
-0.012918296
0.062999766
-0.013441692
0.064760802
-0.013916465
0.066619849
-0.014342902
0.068570742
-0.014721802
0.070606825
-0.01505439
0.072721111
-0.015341765
0.074906379
-0.015584908
0.077155252
-0.015784812
0.079460288
-0.015942535
0.081814056
-0.016059218
0.084209213
-0.016136105
0.086638559
-0.016174562
0.089095095
-0.016176087
0.091572079
-0.016142321
0.094063059
-0.016075041
0.09656192
-0.01597616
0.099062918
-0.015847718
0.1015607
-0.015691867
0.10405034
-0.01551086
0.10652735
-0.015307031
0.1089877
-0.015082785
0.11142782
-0.014840581
0.11384464
-0.014582921
0.11623555
-0.014312342
0.11859846
-0.014031415
0.12093179
-0.013742741
0.12323445
-0.013448965
0.12550589
-0.013152793
0.12774614
-0.012857016
0.12995576
-0.01256455
0.13213599
-0.012278517
0.1342887
-0.012002259
0.13641657
-0.01173972
0.13852309
-0.011494826
0.14061312
-0.011274497
0.14269194
-0.011080626
0.14476963
-0.010938321
0.14685005
-0.010812744
0.14896835
-0.010876875
0.15108739
-0.010719991
0.15340972
-0.011728492
-0.010751879
0.075480779
-0.0071628641
0.075599773
-0.0085956309
0.075838897
-0.0097937945
0.076154886
-0.010620675
0.07657593
-0.011432045
0.077118958
-0.012248141
0.077787091
-0.013010809
0.07858036
-0.013711564
0.079497169
-0.014358502
0.080534465
-0.014953761
0.081688105
-0.015496542
0.082952898
-0.015986595
0.08432277
-0.016424263
0.085791061
-0.016810055
0.087350719
-0.017144566
0.08899443
-0.017428523
0.090714725
-0.01766283
0.092504092
-0.017848585
0.094355071
-0.017987084
0.096260329
-0.01807982
0.098212729
-0.018128488
0.10020539
-0.018134979
0.10223172
-0.018101378
0.10428551
-0.018029941
0.10636088
-0.017923092
0.1084524
-0.01778339
0.11055507
-0.017613526
0.11266432
-0.017416287
0.11477609
-0.017194547
0.11688675
-0.016951248
0.11899321
-0.01668938
0.12109285
-0.016411981
0.12318356
-0.016122126
0.12526375
-0.015822932
0.12733236
-0.015517568
0.12938884
-0.015209281
0.13143325
-0.014901423
0.1334662
-0.014597503
0.13548896
-0.014301277
0.13750348
-0.014016775
0.13951251
-0.013748749
0.14151962
-0.013501939
0.14352977
-0.013284642
0.14554838
-0.013099243
0.14758547
-0.012975412
0.14964543
-0.012872701
0.15176144
-0.012992882
0.15390182
-0.012860371
0.15624671
-0.014073386
-0.013025615
0.098304739
-0.0062476677
0.097550077
-0.0078409691
0.096887071
-0.0091307878
0.096316812
-0.010050417
0.095875581
-0.010990814
0.095574676
-0.011947235
0.095419539
-0.012855672
0.095414274
-0.0137063
0.095558516
-0.014502743
0.095849094
-0.01524434
0.096281749
-0.015929196
0.096851173
-0.01655602
0.097550994
-0.017124084
0.098374095
-0.017633156
0.099312917
-0.018083388
0.10035963
-0.018475231
0.10150623
-0.018809438
0.10274472
-0.019087073
0.10406714
-0.019309506
0.10546571
-0.019478389
0.10693287
-0.019595648
0.10846136
-0.019663466
0.11004425
-0.019684272
0.11167502
-0.019660707
0.11334754
-0.019595615
0.11505616
-0.01949201
0.11679569
-0.019353049
0.11856141
-0.019182012
0.12034914
-0.018982276
0.12215518
-0.018757291
0.12397638
-0.018510574
0.12581008
-0.018245683
0.12765418
-0.017966226
0.12950711
-0.017675858
0.13136784
-0.017378299
0.13323591
-0.017077353
0.13511145
-0.016776959
0.13699518
-0.016481234
0.1388885
-0.016194596
0.1407935
-0.015921778
0.14271311
-0.015668363
0.1446511
-0.015439931
0.14661262
-0.015246155
0.14860334
-0.015089966
0.15063333
-0.015005397
0.15270762
-0.014946992
0.15485735
-0.015142615
0.15705682
-0.015059842
0.15946239
-0.016478959
-0.015415124
0.1194658
-0.004433696
0.11778383
-0.0061590028
0.11615578
-0.0075027309
0.11466564
-0.0085602784
0.11334973
-0.0096749099
0.11220564
-0.01080314
0.11123889
-0.011888926
0.11045587
-0.012923274
0.10985607
-0.013902946
0.109435
-0.014823274
0.10918695
-0.015681149
0.10910537
-0.016474431
0.10918275
-0.017201466
0.10941091
-0.017861314
0.10978124
-0.018453719
0.11028493
-0.018978928
0.11091311
-0.019437618
0.11165693
-0.019830893
0.11250769
-0.02016026
0.1134569
-0.020427598
0.11449638
-0.02063513
0.11561831
-0.020785393
0.11681526
-0.020881222
0.11808026
-0.020925707
0.11940681
-0.020922171
0.12078893
-0.020874132
0.12222116
-0.020785279
0.12369859
-0.020659433
0.12521683
-0.020500523
0.1267721
-0.020312563
0.12836116
-0.020099629
0.12998133
-0.019865852
0.13163051
-0.019615412
0.13330719
-0.019352539
0.13501043
-0.019081536
0.13673988
-0.018806804
0.13849582
-0.018532897
0.14027916
-0.018264578
0.14209152
-0.018006949
0.14393522
-0.017765484
0.14581348
-0.017546622
0.14773036
-0.017356811
0.14969132
-0.017207116
0.15170241
-0.017101057
0.15377386
-0.017076844
0.15591145
-0.017084586
0.15814435
-0.017375506
0.16045301
-0.017368504
0.16296976
-0.018995715
-0.017970459
0.13714731
-0.0018620802
0.13463774
-0.0036494289
0.13208877
-0.0049537617
0.12974231
-0.0062138126
0.1276255
-0.0075581055
0.12571981
-0.0088974466
0.12402813
-0.010197252
0.12255564
-0.011450779
0.12130086
-0.012648165
0.12025812
-0.013780532
0.11942001
-0.014843039
0.11877828
-0.015832708
0.11832406
-0.016747241
0.11804792
-0.017585173
0.11794012
-0.018345918
0.11799078
-0.019029586
0.11819002
-0.019636861
0.11852809
-0.020168961
0.11899542
-0.020627597
0.11958277
-0.021014945
0.12028123
-0.021333586
0.12108232
-0.021586483
0.12197804
-0.021776943
0.1229609
-0.021908568
0.12402396
-0.021985229
0.12516084
-0.02201102
0.12636578
-0.021990218
0.1276336
-0.021927251
0.12895974
-0.021826665
0.13034027
-0.021693093
0.13177188
-0.021531235
0.13325187
-0.021345845
0.13477819
-0.021141726
0.13634938
-0.020923735
0.13796465
-0.020696806
0.13962383
-0.020465981
0.14132741
-0.020236475
0.14307656
-0.020013729
0.14487319
-0.019803579
0.14671998
-0.019612274
0.1486205
-0.019447145
0.15057923
-0.019315539
0.15260205
-0.019229938
0.15469548
-0.019194488
0.15687005
-0.019251414
0.15913237
-0.019346901
0.1615097
-0.019752837
0.16398878
-0.019847586
0.16667803
-0.021684963
-0.020749688
0.15025964
0.0006687871
0.14697754
-0.00036733276
0.14368832
-0.0016645373
0.14064953
-0.0031750212
0.13786446
-0.0047730397
0.13532695
-0.0063599323
0.13303892
-0.0079092264
0.13100054
-0.0094124004
0.12920945
-0.01085707
0.12766052
-0.012231609
0.12634605
-0.013528564
0.12525672
-0.014743379
0.12438247
-0.015872989
0.12371275
-0.016915452
0.1232367
-0.017869868
0.12294333
-0.018736225
0.12282173
-0.019515259
0.12286113
-0.020208359
0.12305104
-0.020817511
0.12338134
-0.021345243
0.12384233
-0.021794573
0.12442481
-0.022168959
0.12512012
-0.022472252
0.12592019
-0.022708645
0.1268176
-0.022882633
0.12780553
-0.022998957
0.12887788
-0.023062565
0.13002919
-0.023078564
0.13125472
-0.02305219
0.13255039
-0.022988765
0.13391284
-0.022893682
0.13533937
-0.022772383
0.136828
-0.022630356
0.13837741
-0.022473145
0.13998698
-0.022306371
0.14165677
-0.022135771
0.14338756
-0.021967264
0.14518086
-0.021807028
0.14703895
-0.021661668
0.14896492
-0.021538249
0.15096282
-0.021445042
0.1530376
-0.021390317
0.15519568
-0.021388017
0.15744408
-0.021442891
0.15979383
-0.021601168
0.1622521
-0.021805171
0.16484529
-0.022346021
0.16756347
-0.022565771
0.17049947
-0.024620962
-0.02381339
0.18922075
0.0052576379
-0.1938096
0.18542352
0.0034298976
0.18204464
0.001714348
0.1789133
-4.3683248e-05
0.17599215
-0.0018518894
0.1732562
-0.0036239785
0.1706873
-0.0053403347
0.16827656
-0.0070016584
0.16602016
-0.0086006717
0.16391604
-0.010127482
0.16196241
-0.011574939
0.16015728
-0.012938244
0.15849809
-0.014213806
0.15698168
-0.015399042
0.15560424
-0.01649243
0.15436144
-0.017493423
0.15324849
-0.018402307
0.15226025
-0.019220118
0.15139131
-0.019948572
0.15063608
-0.020590016
0.14998887
-0.021147364
0.14944396
-0.021624043
0.14899564
-0.022023935
0.14863832
-0.022351327
0.14836654
-0.022610855
0.14817504
-0.02280745
0.14805876
-0.022946286
0.14801293
-0.023032734
0.14803306
-0.023072321
0.14811498
-0.023070687
0.14825486
-0.023033564
0.14844923
-0.022966751
0.14869499
-0.022876113
0.14898943
-0.022767585
0.14933025
-0.022647195
0.14971559
-0.022521108
0.15014401
-0.022395688
0.15061457
-0.022277588
0.15112683
-0.022173922
0.15168088
-0.022092298
0.15227745
-0.022041617
0.1529179
-0.022030767
0.15360457
-0.022074685
0.15434017
-0.022178489
0.15513015
-0.022391152
0.1559769
-0.022651914
0.15689698
-0.023266108
0.15787483
-0.023543616
0.15898796
-0.02573409
-0.024958434
0.21715911
0.0086428636
-0.22054433
0.21369895
0.0068900543
0.21050003
0.0049132673
0.20740919
0.003047157
0.20437767
0.0011796324
0.20143645
-0.00068276112
0.1986025
-0.0025063814
0.1958804
-0.004279564
0.19327615
-0.0059964144
0.19079665
-0.0076479814
0.1884472
-0.009225495
0.18623132
-0.010722359
0.1841511
-0.012133588
0.18220737
-0.01345531
0.18039972
-0.01468478
0.17872667
-0.015820371
0.17718582
-0.016861461
0.17577403
-0.017808325
0.17448752
-0.018662064
0.17332204
-0.019424535
0.17227295
-0.020098279
0.17133537
-0.020686461
0.17050423
-0.021192796
0.1697744
-0.02162149
0.16914072
-0.021977175
0.16859811
-0.022264846
0.16814163
-0.022489805
0.1677665
-0.0226576
0.16746816
-0.022773982
0.16724233
-0.022844857
0.16708502
-0.022876254
0.16699257
-0.022874306
0.16696169
-0.022845232
0.16698946
-0.022795351
0.16707336
-0.022731095
0.16721131
-0.022659056
0.16740167
-0.022586057
0.16764332
-0.022519231
0.16793561
-0.022466213
0.16827848
-0.022435174
0.16867251
-0.022435643
0.16911893
-0.02247719
0.16961983
-0.022575584
0.17017811
-0.022736764
0.17079804
-0.02301108
0.17148433
-0.023338209
0.17224547
-0.024027244
0.17308454
-0.024382689
0.17402235
-0.026671898
-0.025992115
0.24404754
0.011354464
-0.24675914
0.24121016
0.0097274324
0.23837029
0.0077531376
0.23553731
0.0058801379
0.23267427
0.0040426745
0.22980194
0.0021895627
0.22695157
0.00034399714
0.2241425
-0.0014705017
0.22139076
-0.0032446665
0.21871233
-0.0049695585
0.21612118
-0.0066343443
0.2136284
-0.0082295785
0.21124271
-0.009747898
0.20897079
-0.011183392
0.20681741
-0.012531401
0.2047856
-0.013788558
0.20287687
-0.014952729
0.20109143
-0.016022888
0.1994284
-0.016999027
0.19788593
-0.01788207
0.19646145
-0.018673798
0.19515175
-0.019376762
0.19395316
-0.019994203
0.19286164
-0.020529976
0.19187295
-0.020988477
0.19098266
-0.021374562
0.19018634
-0.021693487
0.18947958
-0.021950833
0.18885805
-0.022152454
0.18831761
-0.022304421
0.18785434
-0.022412985
0.18746458
-0.022484544
0.18714498
-0.022525631
0.18689254
-0.022542909
0.18670464
-0.022543196
0.18657908
-0.022533498
0.18651411
-0.022521085
0.18650846
-0.022513577
0.18656137
-0.02251913
0.18667269
-0.022546489
0.18684284
-0.022605795
0.18707301
-0.022707363
0.18736504
-0.022867614
0.18772205
-0.02309377
0.18814703
-0.023436063
0.18864727
-0.02383845
0.18922203
-0.024602
0.18989575
-0.025056409
0.19062199
-0.027398135
-0.026887528
0.26952774
0.013376827
-0.2715501
0.26737099
0.011884179
0.26504103
0.010083098
0.26261425
0.008306919
0.26009877
0.0065581476
0.2575048
0.0047835383
0.25485845
0.0029903404
0.25218395
0.0012040021
0.24950134
-0.00056205183
0.24683051
-0.0022987364
0.24419085
-0.003994677
0.24159955
-0.0056382832
0.23907146
-0.0072198055
0.23661918
-0.0087311086
0.23425313
-0.010165352
0.23198162
-0.011517049
0.22981099
-0.0127821
0.22774581
-0.013957709
0.22578907
-0.015042288
0.22394237
-0.016035375
0.22220613
-0.01693755
0.22057971
-0.017750345
0.21906166
-0.018476151
0.21764981
-0.019118134
0.21634148
-0.019680143
0.21513354
-0.020166624
0.2140226
-0.020582544
0.21300507
-0.020933306
0.21207731
-0.021224689
0.21123566
-0.021462773
0.21047658
-0.021653903
0.20979667
-0.021804639
0.20919278
-0.021921737
0.20866201
-0.022012144
0.20820182
-0.022083007
0.20781004
-0.022141711
0.2074849
-0.022195949
0.20722513
-0.022253806
0.20702995
-0.022323949
0.20689916
-0.022415696
0.20683314
-0.022539778
0.20683307
-0.022707288
0.20690059
-0.02293514
0.20703901
-0.02323219
0.20725023
-0.023647276
0.20754357
-0.024131794
0.20791009
-0.024968523
0.20839249
-0.025538806
0.2088825
-0.027888142
-0.02761435
0.29320903
0.0146999
-0.29453211
0.29173843
0.013354779
0.29002525
0.011796277
0.2881366
0.010195575
0.28610746
0.0085872868
0.28394872
0.006942276
0.28167883
0.0052602322
0.2793211
0.0035617337
0.27689689
0.0018621584
0.27442636
0.00017179436
0.27192979
-0.0014981124
0.26942706
-0.0031355486
0.26693658
-0.0047293242
0.26447505
-0.0062695785
0.26205733
-0.0077476339
0.25969632
-0.0091560442
0.25740294
-0.01048872
0.25518617
-0.011740939
0.25305318
-0.012909294
0.25100944
-0.013991637
0.24905891
-0.014987015
0.24720415
-0.015895591
0.24544656
-0.016718556
0.24378647
-0.017458042
0.24222335
-0.018117027
0.24075597
-0.018699242
0.23938251
-0.019209084
0.23810073
-0.019651524
0.23690807
-0.020032035
0.23580181
-0.020356511
0.23477912
-0.020631213
0.2338372
-0.020862714
0.23297333
-0.021057871
0.23218499
-0.021223808
0.23146991
-0.02136792
0.2308261
-0.021497904
0.23025197
-0.021621823
0.22974636
-0.02174819
0.22930856
-0.02188615
0.22893844
-0.022045574
0.22863641
-0.022237751
0.22840368
-0.022474555
0.2282418
-0.022773264
0.22815418
-0.023144574
0.22814185
-0.023634945
0.22821555
-0.024205487
0.22835958
-0.025112561
0.22863066
-0.025809884
0.22886823
-0.02812571