/*--------------------------------*- C++ -*----------------------------------*\
  =========                 |
  \\      /  F ield         | OpenFOAM: The Open Source CFD Toolbox
   \\    /   O peration     | Website:  https://openfoam.org
    \\  /    A nd           | Version:  6
     \\/     M anipulation  |
\*---------------------------------------------------------------------------*/
FoamFile
{
    version     2.0;
    format      ascii;
    class       volScalarField;
    location    "58";
    object      pMean;
}
// * * * * * * * * * * * * * * * * * * * * * * * * * * * * * * * * * * * * * //

dimensions      [0 2 -2 0 0 0 0];

internalField   nonuniform List<scalar> 
9200
(
-0.43202205
-0.41860717
-0.40654653
-0.3959497
-0.38554817
-0.37532145
-0.36536347
-0.35563259
-0.34604925
-0.33653493
-0.32701502
-0.31742357
-0.30771052
-0.29784849
-0.28784182
-0.27774227
-0.26764276
-0.25764367
-0.24870952
-0.24488013
-0.45159227
-0.43573317
-0.42175088
-0.40960813
-0.39777379
-0.38620056
-0.37497256
-0.3640197
-0.35323517
-0.34252068
-0.3317895
-0.32097173
-0.31002151
-0.2989217
-0.28768748
-0.27636824
-0.26501844
-0.25365962
-0.24294736
-0.23496302
-0.47131986
-0.45303504
-0.4372037
-0.42359504
-0.41037916
-0.39746479
-0.38491719
-0.37263439
-0.36048525
-0.34836063
-0.33617532
-0.32387225
-0.3114277
-0.29885216
-0.2861875
-0.27350053
-0.26085467
-0.24827765
-0.23616503
-0.22562722
-0.49070109
-0.47004482
-0.45244679
-0.43743367
-0.42284364
-0.40852784
-0.39452943
-0.38071986
-0.36695749
-0.3531427
-0.33921598
-0.32515807
-0.31099007
-0.29676816
-0.28257414
-0.26850363
-0.25464149
-0.24103626
-0.2279585
-0.21616691
-0.50903386
-0.48614328
-0.46690797
-0.45056328
-0.4345939
-0.41878718
-0.40317024
-0.38760518
-0.37196581
-0.35619249
-0.34028189
-0.32427873
-0.30826778
-0.29236083
-0.27668142
-0.26135038
-0.24646579
-0.23208478
-0.2183978
-0.20593516
-0.52542601
-0.50054226
-0.47985416
-0.46226062
-0.44489125
-0.42747607
-0.41004571
-0.39248476
-0.37472032
-0.35676966
-0.33871587
-0.3206874
-0.30284005
-0.28533713
-0.26833133
-0.25195133
-0.23628844
-0.22138721
-0.20737171
-0.19459771
-0.53881382
-0.51229391
-0.49039607
-0.47164734
-0.45284861
-0.43369569
-0.41425743
-0.3944862
-0.37440776
-0.35415293
-0.33391401
-0.31391022
-0.29436112
-0.27546377
-0.25737687
-0.24021318
-0.22403512
-0.20885547
-0.19473446
-0.18188405
-0.54798797
-0.52031889
-0.49752639
-0.47774312
-0.45750068
-0.43650181
-0.41490176
-0.39277478
-0.37029157
-0.34772599
-0.32538987
-0.30358605
-0.28257808
-0.26257077
-0.24370249
-0.22604765
-0.20962291
-0.19439794
-0.18037097
-0.16763042
-0.55157317
-0.52329844
-0.49990999
-0.47916601
-0.4574374
-0.43450192
-0.41066322
-0.38617191
-0.36137646
-0.33670096
-0.31256246
-0.28931929
-0.26724563
-0.2465229
-0.22724488
-0.209432
-0.19304758
-0.17801674
-0.16428046
-0.15182018
-0.54820917
-0.51978918
-0.49596637
-0.47422401
-0.45092791
-0.42601663
-0.40000383
-0.37335355
-0.34659493
-0.32027561
-0.29487386
-0.27075534
-0.24816288
-0.22722454
-0.20797313
-0.19037024
-0.17432942
-0.15973894
-0.14649013
-0.13447013
-0.30136841
-0.30512249
-0.30619942
-0.30568615
-0.30413311
-0.30167399
-0.2984307
-0.29451333
-0.29000276
-0.28496227
-0.27944523
-0.27349809
-0.2671625
-0.26047699
-0.2534783
-0.24620397
-0.23869398
-0.23097774
-0.22306156
-0.21504738
-0.30468725
-0.30795684
-0.30869212
-0.30794664
-0.30620482
-0.3035918
-0.30022698
-0.29621489
-0.29163158
-0.28653665
-0.28098036
-0.27500643
-0.26865408
-0.26195934
-0.25495581
-0.24767943
-0.24017739
-0.23247734
-0.22447083
-0.21612959
-0.31113489
-0.31346735
-0.31354287
-0.31234388
-0.31023296
-0.30731921
-0.30371659
-0.29951907
-0.29479344
-0.28959198
-0.28395869
-0.27793177
-0.27154558
-0.26483135
-0.25781691
-0.25053425
-0.24304103
-0.23536444
-0.22719629
-0.21824559
-0.32037829
-0.32138479
-0.32051367
-0.31864848
-0.31598743
-0.31261911
-0.30865059
-0.30416168
-0.29920646
-0.29382694
-0.28805818
-0.28193045
-0.27547101
-0.26870417
-0.26164996
-0.25433374
-0.24682301
-0.23915101
-0.2307664
-0.22097831
-0.3319995
-0.33137187
-0.3293086
-0.32657886
-0.32318962
-0.3192083
-0.31473531
-0.30983453
-0.30454518
-0.29889716
-0.29291458
-0.28661725
-0.28002311
-0.27314809
-0.26600313
-0.2586042
-0.25102411
-0.2433106
-0.23467174
-0.22388945
-0.34556697
-0.34307951
-0.33962378
-0.33585093
-0.33156448
-0.3268133
-0.32169338
-0.31625303
-0.31051578
-0.30449679
-0.29820674
-0.29165383
-0.28484525
-0.27778714
-0.27048061
-0.26293003
-0.25520608
-0.24737609
-0.23844761
-0.22658593
-0.36069789
-0.35619564
-0.35119116
-0.34622245
-0.34088771
-0.33522207
-0.32932125
-0.32321765
-0.31691682
-0.31041872
-0.30371991
-0.29681512
-0.28969932
-0.28236806
-0.27481328
-0.26702845
-0.25907674
-0.25104768
-0.24181594
-0.22889736
-0.37709292
-0.37047349
-0.36380552
-0.35752225
-0.35101981
-0.34432351
-0.33752929
-0.33065391
-0.32368542
-0.31660686
-0.30939823
-0.30203828
-0.29450731
-0.28678847
-0.27886461
-0.27072223
-0.26242375
-0.25410488
-0.24462284
-0.23086892
-0.39453273
-0.38571812
-0.37729676
-0.36960645
-0.36184011
-0.35401307
-0.34622401
-0.33847414
-0.33073202
-0.3229615
-0.31512352
-0.30717802
-0.29908674
-0.29081394
-0.28232235
-0.27357459
-0.26460219
-0.25552522
-0.24521234
-0.23033104
-0.41286642
-0.40176392
-0.39148937
-0.38228991
-0.37314727
-0.36406692
-0.35515069
-0.34638315
-0.33771238
-0.32908313
-0.32043904
-0.3117252
-0.30289168
-0.29389395
-0.28468794
-0.27522542
-0.26546711
-0.25523671
-0.24302178
-0.22600406
-0.20600422
-0.19490413
-0.18392222
-0.17316497
-0.16256482
-0.15215936
-0.1420113
-0.13215989
-0.12263247
-0.11345477
-0.10464943
-0.096233859
-0.088220836
-0.080619305
-0.073434638
-0.066668762
-0.060320426
-0.0543855
-0.048857243
-0.043726561
-0.038982277
-0.034611399
-0.0305994
-0.026930482
-0.023587848
-0.020553958
-0.017810777
-0.015340012
-0.013123329
-0.011142552
-0.0093798463
-0.0078178751
-0.0064399443
-0.0052301229
-0.0041733514
-0.0032555338
-0.0024636304
-0.001785724
-0.0012111805
-0.00073053136
-0.00033640372
-2.121877e-05
0.00021434558
0.00038624192
0.000447276
0.00052504304
0.00019837477
0.00062604064
-0.0017331737
0.0032192184
-0.20786161
-0.19625629
-0.18510791
-0.17433457
-0.16367496
-0.15319319
-0.14297847
-0.13306551
-0.12347756
-0.11424131
-0.1053801
-0.096911225
-0.088847341
-0.081197459
-0.073966991
-0.06715786
-0.060768799
-0.054795655
-0.049231648
-0.044067628
-0.03929235
-0.034892747
-0.030854201
-0.027160821
-0.023795709
-0.020741219
-0.017979209
-0.015491279
-0.013258983
-0.01126404
-0.0094885086
-0.007914949
-0.0065265678
-0.0053073381
-0.0042421087
-0.003316697
-0.0025179808
-0.001833965
-0.0012539419
-0.00076837312
-0.00036981893
-5.063512e-05
0.00018857428
0.00036380676
0.00042809835
0.00050866042
0.00018649125
0.00061410857
-0.0017256526
0.0031901479
-0.21152679
-0.19888222
-0.18741642
-0.17666275
-0.16590868
-0.15528387
-0.1449452
-0.13491674
-0.12521202
-0.11586064
-0.10688827
-0.098312147
-0.090144977
-0.082396162
-0.075071408
-0.068172794
-0.061699152
-0.055646387
-0.050007724
-0.044773968
-0.039933785
-0.035473986
-0.031379803
-0.027635166
-0.024222982
-0.021125396
-0.018324045
-0.015800302
-0.013535494
-0.011511109
-0.0097089795
-0.0081114457
-0.0067014986
-0.005462905
-0.004380316
-0.0034393611
-0.0026267407
-0.0019302919
-0.0013391497
-0.0008436257
-0.00043613883
-0.00010890497
0.00013762097
0.00031954361
0.00039033318
0.00047650436
0.00016323715
0.00059081011
-0.0017103654
0.0031324991
-0.21653744
-0.20230471
-0.19040362
-0.17979961
-0.1689789
-0.15818011
-0.14769446
-0.13752911
-0.12767816
-0.11817721
-0.10905741
-0.10033654
-0.092027683
-0.084141322
-0.076684042
-0.069658492
-0.063063929
-0.056896577
-0.051149866
-0.045814698
-0.040879749
-0.036331761
-0.032155835
-0.028335717
-0.024854083
-0.021692817
-0.01883327
-0.016256507
-0.013943539
-0.011875531
-0.010033993
-0.008400942
-0.0069590575
-0.0056918017
-0.0045835338
-0.0036196039
-0.0027864481
-0.0020716527
-0.001464117
-0.00095392802
-0.00053329296
-0.00019421766
6.3065542e-05
0.00025482261
0.00033517018
0.00042958184
0.00012947576
0.00055683842
-0.0016870955
0.0030474068
-0.22233875
-0.20600595
-0.1935832
-0.18333647
-0.17254783
-0.16158579
-0.15096537
-0.14067821
-0.13068373
-0.12102497
-0.11174374
-0.10286013
-0.094388182
-0.086340247
-0.078724736
-0.071545599
-0.064803071
-0.058494155
-0.052612867
-0.047150509
-0.042095999
-0.037436185
-0.033156159
-0.029239563
-0.02566889
-0.022425775
-0.019491269
-0.016846101
-0.014470918
-0.0123465
-0.010453965
-0.0087749369
-0.0072917001
-0.0059873333
-0.0048458224
-0.0038521596
-0.0029924387
-0.0022539214
-0.0016251998
-0.0010960679
-0.00065845615
-0.00030409527
-3.2924914e-05
0.00017152915
0.00026424408
0.00036929086
8.6366254e-05
0.00051322394
-0.0016557755
0.002936699
-0.22830702
-0.20951038
-0.19651858
-0.18686416
-0.17627554
-0.16520978
-0.15449344
-0.14412914
-0.1340265
-0.12422966
-0.11479575
-0.10575128
-0.097112415
-0.088894161
-0.081107843
-0.073759768
-0.066851971
-0.060382894
-0.0543477
-0.048738563
-0.043545022
-0.03875433
-0.034351804
-0.030321158
-0.026644825
-0.023304274
-0.020280303
-0.017553321
-0.015103604
-0.012911524
-0.010957766
-0.0092235062
-0.0076905789
-0.0063416139
-0.0051601581
-0.0041307773
-0.0032391564
-0.0024721663
-0.0018180286
-0.0012661822
-0.00080822097
-0.00043554141
-0.00014772391
7.1952397e-05
0.00017954116
0.00029733048
3.5306565e-05
0.00046122027
-0.0016164106
0.0028027483
-0.23387394
-0.21252447
-0.19891075
-0.19000187
-0.17984767
-0.16881833
-0.1580675
-0.14768062
-0.13752724
-0.12763625
-0.11807765
-0.10888988
-0.10009431
-0.091709493
-0.083750675
-0.076227764
-0.069145662
-0.062505084
-0.056303033
-0.050533145
-0.045186059
-0.040249825
-0.035710292
-0.031551482
-0.027755949
-0.024305122
-0.021179637
-0.018359632
-0.015825034
-0.013555808
-0.011532187
-0.0097348696
-0.0081451964
-0.0067453002
-0.0055182347
-0.0044480841
-0.0035200674
-0.002720608
-0.0020375018
-0.0014597779
-0.00097864131
-0.00058510194
-0.00027831883
-4.1297769e-05
8.3311549e-05
0.00021560397
-2.2152199e-05
0.00040217788
-0.0015690633
0.0026482959
-0.23868014
-0.21536727
-0.20095966
-0.19255848
-0.18302578
-0.17228052
-0.16159651
-0.15122941
-0.14107594
-0.13114044
-0.1214924
-0.11218451
-0.10324794
-0.094706391
-0.086579629
-0.078882105
-0.07162256
-0.064804771
-0.058428225
-0.052488563
-0.046977995
-0.041885753
-0.037198535
-0.032900923
-0.02897579
-0.025404682
-0.022168177
-0.019246224
-0.016618447
-0.014264426
-0.012163947
-0.010297217
-0.0086450616
-0.0071890827
-0.0059118023
-0.0047967797
-0.0038287227
-0.0029935611
-0.0022786183
-0.0016724677
-0.0011658795
-0.00074943212
-0.00042180508
-0.00016571773
-2.2295185e-05
0.00012591431
-8.4551231e-05
0.0003373388
-0.0015139275
0.0024763614
-0.24040234
-0.21809008
-0.20319013
-0.19442498
-0.18537716
-0.17521154
-0.16479887
-0.15454101
-0.14446054
-0.13455802
-0.12488795
-0.11551232
-0.10647533
-0.097808355
-0.089536717
-0.08168029
-0.074252791
-0.067262164
-0.060711353
-0.054598871
-0.048919271
-0.043663641
-0.038820095
-0.034374257
-0.030309711
-0.026608431
-0.023251186
-0.020217918
-0.017488084
-0.015040969
-0.012855965
-0.010912814
-0.009191826
-0.0076740567
-0.0063414665
-0.0051770505
-0.0041649594
-0.0032905792
-0.0025407093
-0.0019034136
-0.0013689746
-0.00092748685
-0.00057708601
-0.00030018309
-0.00013616235
2.9388433e-05
-0.00015096997
0.00026797963
-0.0014518558
0.0022909174
-0.23139147
-0.21780426
-0.20487232
-0.19492451
-0.18594748
-0.17662123
-0.16685583
-0.15698978
-0.14720112
-0.13752456
-0.12799949
-0.11869104
-0.10965853
-0.10094629
-0.092589393
-0.084616496
-0.077049386
-0.069902987
-0.06318611
-0.056902167
-0.051049752
-0.04562321
-0.040613225
-0.036007385
-0.031790718
-0.027946195
-0.024455211
-0.02129802
-0.018454137
-0.015902703
-0.013622808
-0.011593772
-0.0097953954
-0.008208168
-0.006813448
-0.0055936123
-0.0045321919
-0.0036139614
-0.0028251265
-0.0021531714
-0.0015878233
-0.0011186226
-0.00074309547
-0.00044328444
-0.00025669778
-7.2094203e-05
-0.0002199854
0.00019696493
-0.0013847743
0.0020978982
-0.21070166
-0.21183726
-0.20424407
-0.19372887
-0.18449013
-0.1756491
-0.16638887
-0.15687933
-0.14737596
-0.13794857
-0.12863092
-0.11948523
-0.11057563
-0.10195199
-0.093653856
-0.085714023
-0.07815836
-0.071005591
-0.064267939
-0.057951853
-0.052058604
-0.046584864
-0.041523311
-0.036863218
-0.032591015
-0.028690824
-0.02514496
-0.021934397
-0.019039195
-0.01643889
-0.014112833
-0.012040504
-0.010201769
-0.0085771112
-0.0071478251
-0.0058961769
-0.0048055517
-0.0038605506
-0.003047182
-0.0023527196
-0.0017666336
-0.0012782639
-0.00088459338
-0.00056797803
-0.00036306109
-0.00016464713
-0.00028036556
0.00012737715
-0.0013107754
0.0019066642
-0.19876928
-0.20099027
-0.19536203
-0.18538657
-0.1767232
-0.16882119
-0.16053071
-0.1518922
-0.14318048
-0.13447701
-0.12580938
-0.11723735
-0.10882851
-0.10063783
-0.092710093
-0.085083566
-0.077789783
-0.070853056
-0.064290957
-0.058114974
-0.052331072
-0.046940244
-0.041939098
-0.037320455
-0.033073915
-0.029186412
-0.025642728
-0.022425988
-0.019518108
-0.016900205
-0.014552971
-0.012457002
-0.010593083
-0.0089424436
-0.0074869699
-0.0062093876
-0.0050934248
-0.0041239276
-0.0032870551
-0.002570175
-0.0019627079
-0.001454075
-0.0010406251
-0.00070576106
-0.00047972351
-0.00026742346
-0.00034366285
4.5370194e-05
-0.001218707
0.0016969116
-0.18833175
-0.18844268
-0.18419395
-0.17611598
-0.16851044
-0.16147673
-0.1541043
-0.14633688
-0.13841581
-0.13043916
-0.12243777
-0.11446671
-0.10659301
-0.098874319
-0.091358655
-0.084087968
-0.077098017
-0.070417667
-0.064069114
-0.058068413
-0.052425952
-0.047146931
-0.042231905
-0.03767734
-0.033476172
-0.029618348
-0.02609135
-0.022880694
-0.01997039
-0.017343377
-0.014981908
-0.012867902
-0.010983257
-0.0093101187
-0.0078311187
-0.0065295755
-0.0053896762
-0.0043966105
-0.0035367688
-0.0027976821
-0.0021687638
-0.0016395762
-0.0012057836
-0.00085203222
-0.000603575
-0.00037692757
-0.00040960608
-4.3279841e-05
-0.0011119896
0.001464256
-0.17695101
-0.17507585
-0.17149996
-0.16556583
-0.15933958
-0.15321924
-0.14678354
-0.13995683
-0.13289735
-0.12570602
-0.11842776
-0.11111634
-0.10383611
-0.096645997
-0.08959678
-0.082733515
-0.076095625
-0.06971615
-0.063621709
-0.057832851
-0.052364424
-0.047225965
-0.042422163
-0.037953373
-0.033816135
-0.030003698
-0.026506532
-0.023312831
-0.020408979
-0.017779994
-0.015409931
-0.013282259
-0.011380182
-0.0096869411
-0.0081860685
-0.0068616103
-0.0056983267
-0.0046818475
-0.0037988728
-0.0030371597
-0.0023861601
-0.0018356117
-0.0013804961
-0.0010067383
-0.00073444276
-0.0004920809
-0.00047852063
-0.00013450007
-0.0009982784
0.0012190306
-0.1647536
-0.16161421
-0.15833773
-0.15416583
-0.14934405
-0.14418619
-0.13868637
-0.1328219
-0.12666709
-0.1203051
-0.11379457
-0.1071914
-0.10055607
-0.093946666
-0.087415567
-0.081010048
-0.074772329
-0.068738931
-0.062940425
-0.05740157
-0.052141533
-0.047174177
-0.042508419
-0.038148669
-0.034095298
-0.030345117
-0.026891868
-0.023726712
-0.020838694
-0.018215191
-0.015842327
-0.013705358
-0.011789024
-0.010077858
-0.0085564698
-0.0072097869
-0.0060232746
-0.0049831135
-0.0040764052
-0.003291204
-0.002617058
-0.0020439096
-0.001566095
-0.001170774
-0.00087297638
-0.00061288052
-0.00055103667
-0.00022661257
-0.00088295263
0.00096900618
-0.15156152
-0.14812336
-0.14522799
-0.14238786
-0.13882668
-0.13464229
-0.13005778
-0.12512646
-0.11987142
-0.11434922
-0.10862322
-0.10275139
-0.096790496
-0.090796098
-0.084820509
-0.078911941
-0.073114207
-0.06746623
-0.062001674
-0.056748844
-0.05173075
-0.046965259
-0.042465341
-0.038239408
-0.034291693
-0.03062268
-0.02722955
-0.024106631
-0.021245852
-0.018637181
-0.016269046
-0.014128721
-0.012202694
-0.010476995
-0.0089374956
-0.0075701685
-0.0063613294
-0.0052978343
-0.0043672926
-0.0035581402
-0.0028600947
-0.0022633381
-0.0017616316
-0.0013432771
-0.0010184971
-0.0007384652
-0.00062717186
-0.00031804173
-0.00077120127
0.00072197793
-0.13773625
-0.13476115
-0.13243181
-0.13057838
-0.12806427
-0.12480779
-0.12109953
-0.11704735
-0.11265503
-0.10795526
-0.10300772
-0.09786995
-0.092594337
-0.087232706
-0.081835784
-0.076451396
-0.071123692
-0.065892786
-0.060794363
-0.055859395
-0.051114021
-0.046579561
-0.042272638
-0.038205398
-0.034385796
-0.030817938
-0.027502471
-0.02443698
-0.021616414
-0.019033498
-0.016679144
-0.014542839
-0.012613014
-0.010877381
-0.0093232492
-0.0079378035
-0.0067083582
-0.0056225764
-0.0046686904
-0.003835612
-0.0031133137
-0.0024922576
-0.0019657301
-0.001523044
-0.0011700574
-0.0008678203
-0.00070686873
-0.00040733136
-0.00066842382
0.0004860799
-0.12394774
-0.12176248
-0.12008849
-0.11897765
-0.11730303
-0.11488499
-0.1119913
-0.10874971
-0.1051622
-0.10124552
-0.097050201
-0.092630273
-0.088033713
-0.08330728
-0.078498434
-0.073653346
-0.068815359
-0.064024576
-0.059317552
-0.054726907
-0.050281039
-0.046003996
-0.041915475
-0.038030913
-0.034361667
-0.030915267
-0.027695712
-0.024703821
-0.021937594
-0.019392598
-0.01706235
-0.01493869
-0.013012149
-0.011272285
-0.0097080087
-0.0083078701
-0.0070603294
-0.0059539905
-0.0049778288
-0.0041213333
-0.0033748272
-0.0027290995
-0.0021770858
-0.0017089605
-0.0013267921
-0.0010001033
-0.00079015135
-0.00049351345
-0.00057963027
0.00026892916
-0.11067675
-0.10929427
-0.10826235
-0.1077335
-0.10672974
-0.10504058
-0.1028811
-0.1003731
-0.097521177
-0.094333201
-0.090849049
-0.087116215
-0.083177749
-0.07907526
-0.074851565
-0.07054967
-0.066211028
-0.061874681
-0.057576953
-0.05335106
-0.049226714
-0.045229866
-0.041382578
-0.037703
-0.034205436
-0.030900491
-0.027795286
-0.02489372
-0.022196779
-0.019702864
-0.017408139
-0.015306884
-0.013391837
-0.011654529
-0.010085609
-0.0086751316
-0.0074128398
-0.0062884076
-0.0052916746
-0.0044128118
-0.0036425958
-0.0029721988
-0.0023943456
-0.0018999261
-0.001487874
-0.00113465
-0.00087707772
-0.000576232
-0.00050882982
7.6756546e-05
-0.098165186
-0.097467056
-0.097001108
-0.096940369
-0.096475468
-0.095402847
-0.093886523
-0.092030176
-0.089839233
-0.087316503
-0.084492002
-0.081405161
-0.078093118
-0.074592109
-0.070939918
-0.0671753
-0.063336603
-0.059460837
-0.055583125
-0.051736285
-0.047950401
-0.044252458
-0.040666115
-0.037211566
-0.033905505
-0.030761163
-0.027788432
-0.024994039
-0.022381786
-0.019952814
-0.017705903
-0.015637782
-0.013743455
-0.012016511
-0.010449435
-0.0090339048
-0.0077610642
-0.0066217771
-0.0056068631
-0.0047072807
-0.0039143657
-0.0032197389
-0.002616063
-0.002094821
-0.0016524924
-0.0012709613
-0.00096769888
-0.00065572045
-0.00045859563
-8.6265107e-05
-0.086526693
-0.08636322
-0.08635802
-0.086669494
-0.086634829
-0.086071835
-0.085104156
-0.083814837
-0.082207494
-0.08028129
-0.078057737
-0.07556795
-0.07284254
-0.069912003
-0.066808752
-0.063566811
-0.060220588
-0.056804083
-0.053350332
-0.049890867
-0.046455245
-0.043070634
-0.039761495
-0.036549357
-0.033452676
-0.030486783
-0.027663904
-0.024993255
-0.022481195
-0.020131428
-0.017945238
-0.015921757
-0.014058246
-0.012350386
-0.010792566
-0.0093781665
-0.0080998307
-0.0069497154
-0.0059197263
-0.0050017108
-0.004187669
-0.0034697439
-0.002840688
-0.002292491
-0.0018198389
-0.0014086704
-0.0010620167
-0.00073268072
-0.00042982411
-0.00021843035
-0.075805032
-0.076036368
-0.076382786
-0.076978448
-0.077279513
-0.077127515
-0.076615743
-0.075808567
-0.074706398
-0.073305165
-0.071619149
-0.06967162
-0.067486538
-0.065088491
-0.062504302
-0.059762894
-0.056894269
-0.053928736
-0.050896432
-0.047826801
-0.04474806
-0.041686747
-0.038667346
-0.03571199
-0.032840239
-0.030068936
-0.027412144
-0.024881152
-0.022484547
-0.020228338
-0.018116135
-0.016149353
-0.014327449
-0.012648179
-0.011107855
-0.0097016087
-0.0084236513
-0.0072675154
-0.0062262844
-0.0052927878
-0.0044597909
-0.0037200385
-0.0030665223
-0.0024916962
-0.001989059
-0.0015474638
-0.00115992
-0.00080807748
-0.00042173013
-0.00032055907
-0.066000649
-0.066510701
-0.067110487
-0.067910585
-0.068463777
-0.068633618
-0.068490391
-0.068082978
-0.067408467
-0.066459897
-0.065245451
-0.063781387
-0.062085324
-0.060176045
-0.058074792
-0.055805223
-0.053392611
-0.050863155
-0.048243511
-0.045560344
-0.042839811
-0.040107078
-0.037385912
-0.03469833
-0.032064321
-0.029501626
-0.027025597
-0.024649121
-0.022382615
-0.020234077
-0.018209192
-0.016311476
-0.014542462
-0.012901909
-0.011388025
-0.0099977035
-0.00872676
-0.0075701603
-0.0065222384
-0.005576887
-0.00472773
-0.0039681965
-0.0032916602
-0.0026910404
-0.0021591785
-0.0016869703
-0.0012611086
-0.00088288971
-0.00043208233
-0.00039567361
-0.057089549
-0.05778656
-0.058557617
-0.059493182
-0.060225798
-0.06063867
-0.060784398
-0.060699467
-0.060378223
-0.05981139
-0.059002146
-0.05796074
-0.056699075
-0.055230513
-0.053570957
-0.051738885
-0.049754737
-0.047640348
-0.045418531
-0.043112672
-0.040746272
-0.038342481
-0.035923675
-0.033511081
-0.031124452
-0.028781802
-0.026499192
-0.024290595
-0.022167807
-0.020140435
-0.018215928
-0.016399663
-0.014695065
-0.013103774
-0.011625818
-0.010259818
-0.009003195
-0.0078523767
-0.0068029975
-0.0058500786
-0.0049881838
-0.0042115087
-0.0035139422
-0.0028889077
-0.0023290336
-0.0018266495
-0.0013650292
-0.00095787926
-0.00045763203
-0.00044835229
-0.049032968
-0.049846022
-0.050722779
-0.051737099
-0.052587979
-0.053176113
-0.053540498
-0.053707907
-0.05367077
-0.053418222
-0.052949539
-0.052270038
-0.05138673
-0.050308168
-0.049045375
-0.047611958
-0.046023652
-0.04429789
-0.042453463
-0.040510175
-0.038488444
-0.036408893
-0.034291933
-0.032157393
-0.030024175
-0.027909954
-0.025830922
-0.023801592
-0.021834657
-0.019940904
-0.018129182
-0.016406428
-0.014777725
-0.01324641
-0.011814208
-0.010481388
-0.0092469367
-0.0081087395
-0.0070637541
-0.0061081753
-0.0052375734
-0.0044469867
-0.00373094
-0.0030834268
-0.0024972214
-0.0019657076
-0.0014708396
-0.0010334263
-0.0004946432
-0.00048389598
-0.041782592
-0.042658124
-0.043590049
-0.044638583
-0.04555816
-0.046265019
-0.04678782
-0.04714588
-0.047330528
-0.047330068
-0.047140937
-0.046764611
-0.046204125
-0.045463975
-0.044550939
-0.043474241
-0.04224525
-0.040877169
-0.039384787
-0.037784209
-0.036092534
-0.034327496
-0.032507104
-0.030649287
-0.02877155
-0.026890669
-0.025022406
-0.023181279
-0.021380371
-0.019631189
-0.017943579
-0.016325686
-0.014783963
-0.013323212
-0.011946677
-0.010656149
-0.0094520989
-0.0083338272
-0.0072996071
-0.0063468275
-0.0054721123
-0.0046714076
-0.0039399798
-0.0032724731
-0.0026620873
-0.0021030568
-0.0015774137
-0.0011094586
-0.00053940711
-0.00050749314
-0.035284933
-0.036183628
-0.037133072
-0.03818227
-0.039131822
-0.03991169
-0.040542791
-0.041038841
-0.041390772
-0.041586731
-0.041621286
-0.041493097
-0.04120215
-0.040749705
-0.04013902
-0.039375562
-0.038466826
-0.037422139
-0.036252493
-0.034970367
-0.033589476
-0.032124487
-0.030590717
-0.029003817
-0.02737946
-0.025733038
-0.02407938
-0.022432497
-0.020805363
-0.019209739
-0.017656036
-0.016153223
-0.014708786
-0.013328718
-0.012017552
-0.010778428
-0.009613176
-0.0085224287
-0.0075057321
-0.0065616606
-0.0056879148
-0.0048813976
-0.004138202
-0.0034537073
-0.0028217467
-0.0022373234
-0.0016833839
-0.0011854715
-0.00058863444
-0.00052356056
-0.029484604
-0.030378604
-0.031318562
-0.032344272
-0.03329468
-0.034111765
-0.034810702
-0.035401077
-0.035873978
-0.036217937
-0.036426475
-0.036496344
-0.036425348
-0.036212319
-0.035857754
-0.035364052
-0.034735431
-0.03397782
-0.033098781
-0.032107395
-0.031014104
-0.029830492
-0.028569055
-0.027242938
-0.025865668
-0.024450876
-0.023012031
-0.021562185
-0.020113744
-0.018678264
-0.017266285
-0.015887201
-0.014549166
-0.013259045
-0.012022398
-0.01084349
-0.0097253437
-0.0086698001
-0.0076775975
-0.0067484543
-0.0058811426
-0.0050735482
-0.0043226529
-0.0036246447
-0.0029741386
-0.002366895
-0.0017872077
-0.0012606117
-0.00063966278
-0.00053537531
-0.02432656
-0.025197043
-0.026109098
-0.02709492
-0.02802526
-0.028852512
-0.029587619
-0.030237173
-0.030792798
-0.03124381
-0.031583328
-0.031806959
-0.031911077
-0.031892828
-0.031750675
-0.031484645
-0.031096318
-0.030588785
-0.029966639
-0.029235931
-0.028404072
-0.027479706
-0.026472529
-0.0253931
-0.024252624
-0.023062713
-0.021835156
-0.020581675
-0.019313705
-0.018042183
-0.016777364
-0.015528663
-0.014304533
-0.013112371
-0.011958459
-0.01084794
-0.0097848171
-0.0087719765
-0.0078112308
-0.0069033662
-0.006048189
-0.0052445667
-0.0044904036
-0.0037827515
-0.0031171031
-0.0024899965
-0.001887245
-0.00133379
-0.00069047828
-0.00054501818
-0.019757874
-0.020592998
-0.02146549
-0.02240124
-0.023297345
-0.024115155
-0.024862498
-0.025543804
-0.026151481
-0.026675872
-0.027110172
-0.027449437
-0.027689233
-0.027825652
-0.027855775
-0.027777911
-0.027591624
-0.027297754
-0.026898446
-0.026397159
-0.025798637
-0.025108833
-0.024334805
-0.023484583
-0.022567007
-0.021591544
-0.020568093
-0.01950678
-0.018417748
-0.017310964
-0.016196027
-0.015082001
-0.01397727
-0.012889419
-0.01182514
-0.010790171
-0.0097892576
-0.0088261353
-0.0079035364
-0.0070232038
-0.0061859076
-0.0053914641
-0.0046387031
-0.0039255682
-0.0032484817
-0.0026047854
-0.0019818354
-0.0014037947
-0.00073960777
-0.00055355854
-0.015728871
-0.016522083
-0.017348568
-0.018228937
-0.019082093
-0.019877034
-0.020619278
-0.021311702
-0.02194761
-0.0225185
-0.023017964
-0.02344094
-0.023782663
-0.024038682
-0.024205244
-0.024279506
-0.024259597
-0.024144663
-0.023934928
-0.023631744
-0.023237601
-0.022756109
-0.022191946
-0.021550784
-0.020839181
-0.020064454
-0.019234527
-0.018357765
-0.017442804
-0.016498365
-0.015533088
-0.014555359
-0.013573162
-0.01259394
-0.011624481
-0.010670831
-0.0097382171
-0.008831004
-0.007952661
-0.0071057443
-0.0062918852
-0.0055117842
-0.004765166
-0.004050864
-0.0033662433
-0.0027094655
-0.0020693785
-0.0014693932
-0.00078596319
-0.00056135888
-0.012194281
-0.012942898
-0.013720812
-0.014544166
-0.015349898
-0.016113497
-0.016838751
-0.017527407
-0.018173693
-0.018770288
-0.019311369
-0.019792051
-0.02020758
-0.020553346
-0.02082519
-0.02101959
-0.021133734
-0.021165575
-0.021113918
-0.020978477
-0.02075993
-0.020459933
-0.020081113
-0.01962704
-0.019102175
-0.018511782
-0.017861834
-0.017158889
-0.016409949
-0.01562232
-0.014803455
-0.013960804
-0.013101666
-0.012233048
-0.011361545
-0.010493227
-0.0096335439
-0.0087872546
-0.0079583628
-0.0071500711
-0.0063647409
-0.0056038621
-0.0048679925
-0.0041568213
-0.003468636
-0.0028024165
-0.0021484201
-0.0015294226
-0.00082870997
-0.00056838236
-0.0091137561
-0.0098180054
-0.01054773
-0.011315274
-0.012072462
-0.012800255
-0.013501125
-0.014175989
-0.014819953
-0.015426833
-0.015991477
-0.016509358
-0.016975956
-0.017386766
-0.01773754
-0.018024442
-0.018244118
-0.018393755
-0.01847117
-0.018474885
-0.018404188
-0.018259178
-0.018040794
-0.017750815
-0.017391853
-0.016967311
-0.016481328
-0.015938699
-0.015344782
-0.014705383
-0.014026634
-0.013314869
-0.012576485
-0.01181782
-0.011045018
-0.01026392
-0.0094799525
-0.0086980361
-0.0079225
-0.0071570112
-0.0064045097
-0.0056671547
-0.0049462464
-0.0042422668
-0.0035543759
-0.0028823479
-0.0022177557
-0.0015828771
-0.00086719418
-0.00057443054
-0.0064520379
-0.0071139789
-0.0077978222
-0.0085126354
-0.0092224965
-0.0099129538
-0.010585468
-0.011240323
-0.011873424
-0.012479628
-0.013054472
-0.013593872
-0.014093668
-0.014549627
-0.014957628
-0.015313779
-0.015614485
-0.015856505
-0.016037031
-0.016153766
-0.016204994
-0.016189634
-0.016107292
-0.015958289
-0.015743677
-0.015465241
-0.015125473
-0.01472754
-0.014275218
-0.013772824
-0.013225128
-0.012637247
-0.012014542
-0.011362503
-0.01068663
-0.009992324
-0.0092847707
-0.0085688394
-0.007848984
-0.0071291528
-0.0064127031
-0.0057023267
-0.0049999548
-0.0043067742
-0.0036227433
-0.0029483855
-0.0022764888
-0.0016289577
-0.00090090184
-0.00057928133
-0.004182711
-0.0048061615
-0.0054481858
-0.0061151121
-0.0067810209
-0.0074352473
-0.0080784605
-0.0087104533
-0.0093278294
-0.0099263629
-0.010502237
-0.011051835
-0.01157141
-0.012057086
-0.012504993
-0.012911358
-0.013272555
-0.013585162
-0.013846027
-0.014052341
-0.014201708
-0.014292204
-0.014322434
-0.014291583
-0.01419945
-0.014046471
-0.013833732
-0.013562956
-0.013236488
-0.012857246
-0.012428675
-0.01195467
-0.011439499
-0.01088771
-0.010304035
-0.0096932784
-0.0090602194
-0.0084095001
-0.0077455221
-0.0070723446
-0.0063935838
-0.0057123219
-0.0050309953
-0.0043513891
-0.0036741655
-0.0030005299
-0.0023243758
-0.0016673296
-0.00092961156
-0.00058284751
-0.0022776004
-0.0028667399
-0.0034715618
-0.0040959896
-0.0047222009
-0.0053426466
-0.0059573767
-0.0065657938
-0.0071650833
-0.0077518
-0.0083227045
-0.0088746214
-0.0094042158
-0.0099079935
-0.010382393
-0.010823851
-0.011228845
-0.011593936
-0.011915831
-0.012191438
-0.012417936
-0.012592831
-0.012714018
-0.012779836
-0.012789116
-0.012741223
-0.012636086
-0.012474213
-0.012256703
-0.011985227
-0.011662009
-0.011289785
-0.010871751
-0.010411493
-0.0099129128
-0.0093801361
-0.0088174203
-0.0082290512
-0.0076192381
-0.0069920065
-0.0063510892
-0.0056998218
-0.0050410191
-0.004376949
-0.0037088701
-0.0030385862
-0.0023609773
-0.0016974542
-0.00095286274
-0.0005848847
-0.00074169644
-0.0013025851
-0.0018765059
-0.002465637
-0.0030584929
-0.0036499399
-0.0042395386
-0.0048263922
-0.0054081543
-0.0059820126
-0.0065452095
-0.0070949548
-0.0076282848
-0.0081420629
-0.0086330384
-0.0090978921
-0.009533268
-0.0099358102
-0.010302209
-0.010629253
-0.010913886
-0.011153259
-0.011344795
-0.01148624
-0.01157572
-0.011611795
-0.011593496
-0.011520366
-0.011392487
-0.011210486
-0.010975544
-0.010689379
-0.010354216
-0.0099727481
-0.0095480786
-0.0090836506
-0.0085831666
-0.0080504959
-0.0074895743
-0.0069042967
-0.0062984042
-0.0056753714
-0.0050382746
-0.0043897481
-0.0037315313
-0.0030659249
-0.0023886594
-0.0017209553
-0.00097177013
-0.00058604254
0.00047270669
-6.478251e-05
-0.00061329867
-0.001173446
-0.001738611
-0.0023055625
-0.0028734947
-0.0034412714
-0.0040069022
-0.0045680673
-0.0051223931
-0.0056674037
-0.0062004457