/*--------------------------------*- C++ -*----------------------------------*\
  =========                 |
  \\      /  F ield         | OpenFOAM: The Open Source CFD Toolbox
   \\    /   O peration     | Website:  https://openfoam.org
    \\  /    A nd           | Version:  6
     \\/     M anipulation  |
\*---------------------------------------------------------------------------*/
FoamFile
{
    version     2.0;
    format      ascii;
    class       volVectorField;
    location    "58";
    object      U;
}
// * * * * * * * * * * * * * * * * * * * * * * * * * * * * * * * * * * * * * //

dimensions      [0 1 -1 0 0 0 0];

internalField   nonuniform List<vector> 
9200
(
(0.0010518846 0.0014133254 -5.9298604e-20)
(0.013730488 -0.0020872404 4.6129692e-20)
(0.03843116 -0.0059171307 -3.8570421e-20)
(0.072473335 -0.0098360228 -6.0361341e-20)
(0.11405883 -0.013585075 1.8864111e-20)
(0.16198222 -0.016723513 3.2803849e-20)
(0.21518982 -0.018958078 -1.2294086e-20)
(0.27270863 -0.020137785 9.2891282e-21)
(0.33362742 -0.020198528 1.6830962e-20)
(0.39706467 -0.019140303 1.4875861e-21)
(0.46214476 -0.017015847 -2.1500209e-20)
(0.52798858 -0.013919727 2.0714018e-20)
(0.59371579 -0.009977517 -4.0503035e-20)
(0.65845725 -0.0053347537 -2.1184019e-20)
(0.72137575 -0.00014515711 5.9178366e-21)
(0.78169275 0.0054390701 -2.5199533e-20)
(0.83873458 0.011290677 2.5293541e-20)
(0.89205713 0.017456051 2.2345552e-20)
(0.94126169 0.024067717 -2.7947492e-22)
(0.98362785 0.027747607 -1.6439027e-21)
(0.00527347 -0.0013577746 -1.7087129e-20)
(0.027043151 -0.0090298771 3.9818093e-20)
(0.061832218 -0.014876228 2.3617899e-20)
(0.10655567 -0.019262395 -1.1588279e-19)
(0.15910866 -0.022326785 -1.2750469e-20)
(0.21802931 -0.023855244 7.341154e-20)
(0.28199887 -0.023750736 -3.5536846e-20)
(0.34976583 -0.022045374 -8.4046214e-21)
(0.42013289 -0.018842854 3.4349905e-20)
(0.49193291 -0.01429977 -4.3344058e-20)
(0.56401738 -0.0086177229 -3.0405455e-20)
(0.6352629 -0.0020330205 7.2097512e-20)
(0.70459119 0.0051949777 3.8386088e-20)
(0.77099817 0.012795453 -6.8162312e-20)
(0.83358799 0.020496072 1.4670128e-20)
(0.89160644 0.028027685 -3.6848247e-20)
(0.94448284 0.035138528 -1.381081e-20)
(0.99193113 0.041667617 7.1247202e-20)
(1.0338194 0.047198253 2.9807473e-20)
(1.0683477 0.048583863 -8.3654756e-20)
(0.010890296 -0.0040581029 3.6828023e-20)
(0.044064777 -0.015481643 2.5080419e-21)
(0.090727605 -0.022630651 2.23818e-20)
(0.14744031 -0.026599339 9.8263732e-22)
(0.21179975 -0.028009393 -4.0848627e-20)
(0.2820608 -0.026937435 1.8601935e-20)
(0.35660284 -0.023543049 1.3444727e-20)
(0.43386064 -0.018099454 -5.0415565e-20)
(0.51232754 -0.010931628 5.7369544e-20)
(0.5905505 -0.0023992535 1.4292571e-20)
(0.66714013 0.007110973 -5.443084e-20)
(0.74079915 0.017198882 -1.8292501e-20)
(0.81036091 0.02746729 9.0509707e-21)
(0.87483023 0.037538337 2.3516469e-20)
(0.93341982 0.047067621 -1.1405654e-20)
(0.98557518 0.055753473 2.7966912e-20)
(1.0309894 0.063351496 -2.0247173e-20)
(1.0696351 0.06972208 -7.037874e-20)
(1.1016428 0.074591558 -2.389627e-20)
(1.126153 0.076072395 4.8779992e-20)
(0.018001403 -0.0064410255 2.454173e-20)
(0.064923001 -0.020751876 5.111485e-20)
(0.12511922 -0.028145815 1.9910029e-20)
(0.1948708 -0.030570699 1.3003857e-20)
(0.27149274 -0.029219449 1.7298423e-20)
(0.35293772 -0.024529086 -4.7793814e-20)
(0.43726377 -0.016980335 -2.5689984e-20)
(0.52258849 -0.0071453771 0)
(0.6071207 0.0043826036 1.3968233e-20)
(0.68918474 0.017009036 -5.8840103e-21)
(0.76725749 0.030149442 -9.8165149e-20)
(0.84001744 0.043249155 -1.5799841e-20)
(0.90639362 0.055805579 6.5303017e-20)
(0.96560438 0.067388002 4.6058177e-22)
(1.0171791 0.077652356 -1.5775829e-21)
(1.0609574 0.086348816 2.2029595e-20)
(1.0970686 0.09332922 -5.2880654e-21)
(1.1259082 0.098575953 -6.1232994e-20)
(1.1480216 0.10206152 -4.6020636e-20)
(1.1633785 0.10283575 6.9704351e-20)
(0.026637424 -0.0082263504 -3.9228844e-21)
(0.089527617 -0.024093009 -5.131605e-21)
(0.16463203 -0.030350141 5.6675774e-20)
(0.24805567 -0.029913022 1.8563033e-20)
(0.3368692 -0.024629539 -3.2001283e-20)
(0.42872933 -0.015367457 1.2181459e-20)
(0.52139257 -0.0029894736 2.6449945e-21)
(0.612711 0.011587207 3.3681678e-20)
(0.70070251 0.027475592 5.672572e-21)
(0.78360823 0.043845384 -1.324871e-20)
(0.85995236 0.059940455 6.0340735e-20)
(0.92859899 0.075103886 -5.8147785e-20)
(0.98879224 0.088801657 -1.3254489e-19)
(1.0401706 0.1006385 -5.5941755e-21)
(1.0827522 0.11036357 8.3417966e-20)
(1.1168919 0.1178651 0)
(1.1432172 0.1231604 1.0147387e-20)
(1.1625591 0.12639892 -1.5510399e-20)
(1.1758381 0.12776245 -8.6292241e-21)
(1.1836173 0.12687161 2.1051727e-20)
(0.036739819 -0.0091103227 -5.4319234e-21)
(0.1175379 -0.024742473 4.3633706e-21)
(0.20850115 -0.028218341 -8.7740018e-21)
(0.30570256 -0.023505529 2.8509334e-20)
(0.40604084 -0.013174359 -2.943794e-20)
(0.50692728 0.0014172192 -1.6955411e-20)
(0.60589527 0.018982242 3.7413332e-20)
(0.70065323 0.038241774 4.7622424e-21)
(0.78919533 0.058028771 -2.4514144e-20)
(0.86988528 0.077322804 7.003693e-20)
(0.94152231 0.095270728 5.0269513e-22)
(1.0033825 0.11120977 -8.0685826e-20)
(1.0552242 0.12468188 0)
(1.0972555 0.1354332 3.9672301e-20)
(1.1300666 0.14339837 5.5430696e-21)
(1.1545392 0.14867226 -7.7803779e-20)
(1.1717426 0.15147654 -1.964612e-20)
(1.1828374 0.15213711 -1.2505518e-20)
(1.188968 0.15099841 -1.4755745e-20)
(1.1909933 0.14801955 4.0540772e-20)
(0.048147229 -0.0087862331 -1.7293638e-20)
(0.14834506 -0.021981441 -2.2339356e-21)
(0.25557896 -0.02086153 3.0412846e-20)
(0.36607475 -0.01048227 3.752281e-20)
(0.47667729 0.0058294793 -1.9972559e-20)
(0.58466091 0.026194395 -6.9285527e-20)
(0.6874824 0.048896464 -2.8059787e-20)
(0.78289752 0.07232586 7.9095353e-20)
(0.8691025 0.095102514 8.6135128e-21)
(0.94482453 0.11611416 -2.4923935e-20)
(1.0093677 0.13453014 1.3658274e-20)
(1.0626106 0.14980858 -4.338773e-21)
(1.1049548 0.16168621 0)
(1.1372307 0.17014781 2.7279173e-20)
(1.1605767 0.17537978 -7.9546786e-20)
(1.1763092 0.17771452 -3.1564897e-20)
(1.1857992 0.17757544 8.1285771e-20)
(1.1903724 0.17543656 -4.3143107e-21)
(1.1912258 0.17174625 3.5647011e-21)
(1.1892789 0.16665059 2.719708e-20)
(0.060588955 -0.0069721184 -3.2442856e-20)
(0.18107705 -0.015206755 -8.1721988e-20)
(0.30437853 -0.0076255117 2.5666042e-21)
(0.42709301 0.0096628629 7.0262394e-20)
(0.54617885 0.032593617 6.2520954e-20)
(0.65894389 0.058781942 -7.1678529e-20)
(0.76297807 0.086132532 -2.6477482e-22)
(0.8563266 0.11279469 8.5725056e-20)
(0.93763936 0.13729845 4.8938302e-20)
(1.0062394 0.15858304 -5.4358624e-20)
(1.0621194 0.17598701 -9.2570014e-20)
(1.1058734 0.18922161 -3.1671747e-21)
(1.1385756 0.19832109 4.2238114e-20)
(1.1616289 0.20357294 -6.6239561e-21)
(1.1766045 0.20543841 -1.2901946e-20)
(1.1850959 0.2044739 1.973881e-20)
(1.1886026 0.2012638 4.3998213e-20)
(1.1884515 0.19637494 -4.3973349e-20)
(1.185753 0.19029621 -1.0260639e-19)
(1.1813392 0.18326279 2.4646347e-20)
(0.0736554 -0.0034414806 -3.5023998e-20)
(0.21455989 -0.0040071971 -1.7404043e-19)
(0.35304939 0.01182558 8.2230075e-20)
(0.48634042 0.037013382 9.2905196e-20)
(0.61171976 0.066837453 5.8057219e-20)
(0.72675573 0.098484024 8.6273953e-21)
(0.82942491 0.12959212 -1.0644112e-19)
(0.91832071 0.15822015 0)
(0.99277953 0.18297795 -6.8926465e-20)
(1.0528974 0.20302555 -1.5245739e-20)
(1.0994546 0.21801929 5.4837581e-20)
(1.1337721 0.22803483 1.1002023e-20)
(1.1575279 0.23346868 -4.5726786e-20)
(1.1725652 0.23492868 -4.9200666e-20)
(1.1807206 0.2331285 2.4351911e-20)
(1.18369 0.2287982 4.4941798e-20)
(1.1829431 0.22261902 -5.574615e-20)
(1.1796845 0.21518594 -1.0778723e-19)
(1.1748544 0.20697248 -3.1508787e-21)
(1.1691274 0.19824465 2.7115692e-20)
(0.086781426 0.0019611735 -3.559442e-21)
(0.24732137 0.011821199 8.8016972e-20)
(0.39941419 0.037512027 -1.6435835e-20)
(0.5411485 0.071253825 -8.4462718e-20)
(0.67038676 0.10783424 4.5243461e-20)
(0.78521473 0.14416111 4.9242315e-20)
(0.88425484 0.17779125 5.5474923e-21)
(0.96687905 0.20689657 -9.9712555e-20)
(1.0332806 0.23036627 -2.5106285e-21)
(1.0844164 0.24775225 5.062484e-20)
(1.121852 0.2591531 6.0000922e-21)
(1.1475513 0.26507766 -1.9765198e-20)
(1.1636516 0.26629886 -7.5883418e-20)
(1.1722623 0.26371457 -6.2666973e-21)
(1.1753096 0.25823151 4.3634039e-20)
(1.1744399 0.25068159 3.7107119e-20)
(1.1709799 0.24177274 1.9832768e-20)
(1.1659428 0.23206983 -5.3144304e-20)
(1.1600689 0.22199113 1.2962707e-20)
(1.1538607 0.21180364 8.2851508e-20)
(-0.0012958193 0.001437483 -1.1239288e-21)
(-0.0047550419 0.0031932906 2.0679463e-21)
(-0.010791093 0.0041431135 8.8584296e-22)
(-0.017785639 0.0045469799 -2.4390019e-21)
(-0.024782447 0.0045723608 -1.4193742e-21)
(-0.031350873 0.0043319782 1.5542747e-21)
(-0.037219647 0.0039081226 -6.8931415e-21)
(-0.042210362 0.0033607016 -5.9776266e-21)
(-0.046222648 0.0027325703 1.1208392e-20)
(-0.049210234 0.0020540796 -9.7746754e-21)
(-0.051160991 0.0013464788 -1.9863768e-22)
(-0.052084109 0.00062440481 3.6804189e-21)
(-0.052001678 -0.00010223037 -6.3476771e-22)
(-0.050942946 -0.00082673283 2.2900336e-20)
(-0.048940697 -0.0015442588 3.0415888e-22)
(-0.046030713 -0.0022503596 -4.1038479e-20)
(-0.042254087 -0.002940391 7.5699669e-21)
(-0.037648964 -0.0036122719 2.3959166e-20)
(-0.032223488 -0.0042645098 -4.4033247e-20)
(-0.026036924 -0.0048489451 -2.7856701e-20)
(-0.0016553318 0.004188957 -5.3845814e-21)
(-0.005407259 0.0092849219 1.0881122e-20)
(-0.011237809 0.012027967 -1.0213487e-20)
(-0.017686997 0.013174837 3.9399494e-21)
(-0.023893644 0.013214894 4.8320176e-21)
(-0.029476635 0.012479135 7.1580314e-22)
(-0.034199165 0.011209322 -2.258464e-20)
(-0.037907855 0.0095813642 -2.0431226e-21)
(-0.040519299 0.0077210588 2.0227176e-20)
(-0.041998182 0.0057174581 -5.0634638e-21)
(-0.042339075 0.0036328547 -2.1833911e-20)
(-0.041554809 0.0015100883 4.9135863e-21)
(-0.039668886 -0.00062193135 2.2709403e-20)
(-0.036710166 -0.0027438027 1.0344482e-20)
(-0.032709074 -0.0048415996 2.1935822e-20)
(-0.027698035 -0.0069027733 -1.9844062e-20)
(-0.021721187 -0.0089143424 -2.175426e-20)
(-0.014825748 -0.010869727 2.1272503e-20)
(-0.0069466021 -0.012754388 2.6917155e-20)
(0.0021048399 -0.014402464 1.591386e-20)
(-0.0023075284 0.0065725194 -4.3671818e-21)
(-0.0065500206 0.014505489 -5.6450022e-21)
(-0.011910163 0.018741251 3.0654714e-22)
(-0.017234979 0.020459344 1.0915559e-21)
(-0.021846323 0.020428572 6.7094089e-21)
(-0.025458433 0.019174651 1.0692869e-20)
(-0.027901375 0.017082354 -3.7340833e-21)
(-0.029070424 0.014431731 -1.895056e-20)
(-0.028915244 0.011423269 6.5609173e-21)
(-0.027422164 0.0081990445 1.2901636e-20)
(-0.024599416 0.0048584791 5.8548345e-21)
(-0.020467904 0.0014698735 1.8214183e-20)
(-0.015055197 -0.0019209419 1.7352479e-21)
(-0.008391151 -0.0052837292 -3.3974588e-20)
(-0.00050409665 -0.0085972396 1.2102737e-21)
(0.0085776583 -0.01184269 -2.2208164e-20)
(0.018802846 -0.015002485 -2.4561419e-20)
(0.030103062 -0.018067845 4.5997899e-20)
(0.04266716 -0.020985688 2.5454593e-20)
(0.057171516 -0.023394489 1.3099369e-22)
(-0.003134181 0.0083838664 -5.2965247e-21)
(-0.0079079214 0.018366733 -8.514947e-21)
(-0.012454296 0.023623994 4.3680528e-21)
(-0.016042161 0.025645569 4.1569507e-21)
(-0.018246877 0.025414058 2.014898e-21)
(-0.018916318 0.023612989 7.3420785e-21)
(-0.017975536 0.020744117 9.3383393e-21)
(-0.0153898 0.017172793 -1.3550999e-21)
(-0.011157324 0.013161057 -1.1513806e-20)
(-0.005297413 0.0088949758 -2.9155227e-20)
(0.0021595018 0.0045048696 6.3503212e-23)
(0.011177153 8.0255642e-05 4.0817855e-20)
(0.021718004 -0.0043193793 -1.843448e-20)
(0.033744839 -0.0086553139 -1.2334241e-20)
(0.047224975 -0.012901572 5.4995467e-22)
(0.062128493 -0.01703726 3.2411629e-20)
(0.078391921 -0.021047632 -1.4890247e-20)
(0.095908133 -0.024931177 -5.3522253e-20)
(0.11499856 -0.028570436 4.5923243e-20)
(0.13704212 -0.031285999 3.3130862e-20)
(-0.0039763295 0.0094813992 -6.870439e-22)
(-0.0091028316 0.020518718 -1.2561697e-20)
(-0.012374788 0.026195141 -3.4230216e-20)
(-0.013556096 0.028177577 -5.7419242e-21)
(-0.012524116 0.027582511 -3.6273171e-21)
(-0.009288937 0.025205313 6.3214029e-21)
(-0.0038931193 0.021631854 -4.6587446e-21)
(0.0036095841 0.017288678 -8.8291306e-21)
(0.013157539 0.012482235 2.1954784e-20)
(0.024685716 0.0074304264 5.0677303e-21)
(0.038130423 0.0022862573 -2.5363225e-20)
(0.053429538 -0.0028451336 1.1106065e-20)
(0.070523095 -0.0078939927 0)
(0.089353958 -0.012816287 1.2124188e-20)
(0.10987101 -0.017584925 -9.7302194e-21)
(0.13202823 -0.022182168 -1.4383771e-20)
(0.15573705 -0.026606556 -1.5647303e-21)
(0.18082918 -0.030884559 -2.2308127e-21)
(0.20772027 -0.034830402 4.6280259e-20)
(0.23864901 -0.037301543 -1.0524504e-20)
(-0.0046511222 0.0097954781 -7.5499574e-21)
(-0.0096861694 0.020775238 2.4572835e-20)
(-0.011066494 0.026191138 -1.0526134e-20)
(-0.0090836697 0.027750371 -2.753144e-20)
(-0.0039433948 0.026618267 -2.7606039e-20)
(0.0041633428 0.023651912 -1.4955682e-20)
(0.015059707 0.019484158 -6.9240636e-22)
(0.028587713 0.014574511 5.5620096e-21)
(0.044608092 0.0092536862 1.9659094e-20)
(0.062996475 0.0037576759 7.3703552e-21)
(0.083638911 -0.0017477379 -7.2024284e-21)
(0.10642975 -0.0071486533 -2.0114682e-21)
(0.13126799 -0.012370104 -3.8290465e-20)
(0.15805477 -0.017366512 -1.2727109e-20)
(0.18669521 -0.022113431 1.8809522e-20)
(0.21709938 -0.026601585 -2.1086669e-20)
(0.24913017 -0.0308536 -8.9995516e-21)
(0.28253182 -0.034953141 3.0518953e-20)
(0.31773936 -0.038680454 5.0611311e-20)
(0.35791242 -0.040312301 3.3672632e-21)
(-0.00496691 0.0093259759 1.6812921e-20)
(-0.0091702409 0.019117688 1.4493899e-20)
(-0.0078490885 0.023582429 5.1250965e-20)
(-0.0018230402 0.024340539 2.3439948e-20)
(0.0083662876 0.022523001 1.8293099e-22)
(0.022336897 0.018997622 -3.9473608e-20)
(0.039765776 0.01440551 -2.4366577e-20)
(0.06037834 0.0092101989 1.0486931e-20)
(0.083940149 0.0037446532 1.4432044e-20)
(0.1102466 -0.001753717 -1.3138335e-20)
(0.13911241 -0.0071185508 -4.4139633e-20)
(0.17036299 -0.01223671 2.9688631e-20)
(0.20382695 -0.017035496 2.0064108e-20)
(0.23933042 -0.021473932 -2.7618854e-20)
(0.27669685 -0.025536045 1.1682229e-20)
(0.31575066 -0.029227605 2.4260526e-20)
(0.35626913 -0.032605379 8.0968221e-21)
(0.39788002 -0.035842254 -1.1803681e-20)
(0.44094463 -0.038763652 -1.4218469e-20)
(0.48947838 -0.039041464 5.9205471e-21)
(-0.0047337925 0.0081317926 1.1115496e-20)
(-0.0070542508 0.015680785 -2.3406896e-20)
(-0.0020015842 0.018565903 8.6309392e-21)
(0.0090969917 0.018208802 3.3658891e-20)
(0.025369155 0.015628128 5.22294e-20)
(0.046238268 0.011653814 2.031743e-20)
(0.071225741 0.0068980267 -5.8769813e-21)
(0.099922012 0.0017970476 -1.2308632e-20)
(0.13197683 -0.0033375807 -6.2208159e-21)
(0.16707972 -0.0082858067 3.4311735e-20)
(0.20494202 -0.012896401 -4.5253931e-21)
(0.24528299 -0.017070299 -1.6682811e-20)
(0.28781869 -0.020748895 -1.9734498e-20)
(0.33225389 -0.023906758 -4.7555894e-20)
(0.37828078 -0.026547024 2.3294099e-20)
(0.42558659 -0.028701446 -1.4132474e-20)
(0.4738196 -0.030474112 2.6067728e-20)
(0.52247287 -0.032163409 2.109879e-20)
(0.57175972 -0.033766578 -8.5753049e-20)
(0.62635835 -0.032512705 -9.7380571e-23)
(-0.0037705139 0.0063181017 2.1963722e-20)
(-0.0028491855 0.010732377 -2.6220775e-20)
(0.0071932825 0.011550207 -4.5099041e-20)
(0.024551184 0.0098957284 -2.7307547e-20)
(0.048034682 0.0066043831 -2.0479144e-21)
(0.07686732 0.0024215997 1.3071691e-20)
(0.11040098 -0.0021072994 -2.8362665e-21)
(0.14807174 -0.0066040871 1.8151153e-20)
(0.18938475 -0.010805112 8.8827526e-21)
(0.23388726 -0.014530466 -1.1401469e-20)
(0.28114428 -0.017664386 8.9014726e-21)
(0.33072052 -0.02014059 -2.3952788e-20)
(0.38216722 -0.021931821 8.073166e-21)
(0.43501315 -0.023043375 1.6796093e-20)
(0.48876296 -0.02350925 -2.6456563e-21)
(0.54290677 -0.023394342 1.6650288e-21)
(0.59690299 -0.022850244 -3.1691791e-22)
(0.65008248 -0.022284748 1.9641867e-20)
(0.70246933 -0.021894863 4.0533562e-21)
(0.75916398 -0.018987142 -6.2759251e-22)
(-0.0019053602 0.0040257756 2.3737652e-20)
(0.0039025174 0.0046606511 5.7275577e-20)
(0.020396278 0.003155391 -4.9335349e-20)
(0.045323706 0.00024283225 -9.9639722e-21)
(0.077189069 -0.0034968172 2.0291069e-20)
(0.11501104 -0.0074487526 2.1470999e-21)
(0.15795535 -0.01117363 -2.9866319e-20)
(0.20527567 -0.014387108 6.9943864e-21)
(0.25629496 -0.016905893 7.1264025e-21)
(0.3103735 -0.018620624 -2.6305375e-20)
(0.36688138 -0.01948026 1.2962282e-21)
(0.4251808 -0.019479461 -3.7252802e-20)
(0.48461585 -0.018648348 -3.6423155e-20)
(0.54450834 -0.017044297 6.5843505e-20)
(0.6041598 -0.014744721 5.5775957e-21)
(0.66285764 -0.011846379 -1.5238318e-20)
(0.71985919 -0.008507211 1.9413213e-20)
(0.77431623 -0.0050340882 -9.2127654e-22)
(0.8257524 -0.001447131 2.0389577e-20)
(0.87790758 0.003808603 -1.9636815e-20)
(-0.018673463 -0.0051297819 5.8610181e-20)
(-0.010009257 -0.0056683105 1.5849695e-20)
(5.5006345e-05 -0.0061054942 -3.5296233e-20)
(0.011167977 -0.0063734937 1.6874739e-20)
(0.023063209 -0.0065540464 0)
(0.035682332 -0.0066746506 0)
(0.048965971 -0.0067380011 -2.3094054e-20)
(0.062834706 -0.0067519264 -1.6588608e-20)
(0.077218409 -0.0067258253 1.923376e-20)
(0.092057907 -0.0066664958 1.8279748e-20)
(0.10729859 -0.0065791349 1.0567717e-21)
(0.12288902 -0.0064683132 -1.0375795e-20)
(0.13878132 -0.0063379996 8.3875294e-21)
(0.1549307 -0.0061915521 1.8341715e-20)
(0.17129491 -0.0060318462 -5.2734973e-21)
(0.18783383 -0.0058613803 -1.023659e-20)
(0.20450932 -0.00568234 -4.345966e-21)
(0.22128504 -0.0054966496 -4.4469616e-21)
(0.23812632 -0.0053060176 7.3894346e-22)
(0.25500016 -0.0051119717 1.2386758e-21)
(0.2718752 -0.0049158856 2.5957395e-21)
(0.28872177 -0.0047189987 6.7107213e-21)
(0.30551193 -0.0045224311 2.3704849e-22)
(0.32221956 -0.0043271946 -3.486818e-21)
(0.33882045 -0.0041342003 1.5376715e-22)
(0.35529235 -0.0039442648 -5.8400071e-22)
(0.3716151 -0.003758115 1.2597458e-21)
(0.38777066 -0.0035763919 1.0605049e-21)
(0.40374322 -0.0033996546 -1.3335589e-21)
(0.41951922 -0.0032283846 -1.2066336e-22)
(0.43508742 -0.0030629896 1.602333e-23)
(0.45043894 -0.0029038085 -3.6053806e-22)
(0.46556731 -0.0027511172 -4.2748641e-22)
(0.48046852 -0.0026051335 7.04141e-23)
(0.49514103 -0.0024660243 -1.4377117e-22)
(0.50958589 -0.0023339123 -2.3159789e-22)
(0.52380679 -0.0022088839 2.6766615e-22)
(0.53781024 -0.0020909966 3.1139771e-22)
(0.55160555 -0.0019802922 -2.0515241e-23)
(0.56520572 -0.0018767985 -1.8510241e-22)
(0.57862571 -0.0017805754 2.9508822e-23)
(0.59188961 -0.0016916362 -4.2575678e-23)
(0.60501086 -0.0016102919 1.1508803e-22)
(0.61805541 -0.001536227 1.2537774e-23)
(0.63096026 -0.0014715968 -1.8240271e-22)
(0.64407131 -0.0014120345 -9.3499128e-24)
(0.65661335 -0.0013746754 4.0005255e-24)
(0.67106287 -0.0013170151 -1.2537053e-23)
(0.68092763 -0.001374969 2.8112212e-23)
(0.70412569 -0.0012398929 4.6997548e-22)
(0.010727628 -0.015109401 -1.2811137e-20)
(0.01851508 -0.016742349 -6.3574192e-20)
(0.028177706 -0.018026201 -3.069112e-20)
(0.038854582 -0.018790907 3.8661233e-20)
(0.0501681 -0.019310013 1.4735775e-20)
(0.062138698 -0.019663328 -1.8307673e-20)
(0.074737696 -0.019850976 4.7102205e-21)
(0.087888478 -0.019894509 2.5579735e-20)
(0.10152829 -0.019821938 7.9374704e-23)
(0.11560727 -0.019652762 -7.7085026e-21)
(0.13007769 -0.019401601 -1.307521e-20)
(0.14489333 -0.019081529 -8.5876335e-21)
(0.16001073 -0.018703991 1.787699e-20)
(0.17538882 -0.018278677 9.0270587e-21)
(0.19098839 -0.017813905 -1.6601886e-20)
(0.20677179 -0.017316936 -6.0769606e-21)
(0.22270292 -0.016794152 3.228317e-21)
(0.23874709 -0.016251194 8.4150685e-21)
(0.25487104 -0.015693089 7.0387332e-21)
(0.27104288 -0.015124348 -7.0505354e-21)
(0.28723218 -0.014549043 -3.2272991e-21)
(0.30341003 -0.013970856 1.4036012e-21)
(0.31954912 -0.013393126 4.3057092e-22)
(0.33562382 -0.012818872 1.2342435e-21)
(0.3516103 -0.012250823 1.9570246e-22)
(0.36748661 -0.011691426 -3.4101417e-22)
(0.38323279 -0.011142864 -7.4432356e-22)
(0.39883091 -0.010607065 1.0154979e-21)
(0.4142652 -0.010085716 8.5779742e-22)
(0.42952208 -0.0095802712 -1.8540053e-22)
(0.44459021 -0.0090919651 5.8460117e-22)
(0.45946056 -0.0086218285 -2.4467246e-22)
(0.47412646 -0.0081707027 -4.0170887e-22)
(0.48858361 -0.0077392572 -6.4921653e-22)
(0.50283018 -0.0073280092 4.598368e-22)
(0.51686686 -0.0069373438 -5.2390704e-23)
(0.53069694 -0.0065675382 2.0031273e-22)
(0.54432651 -0.0062187842 -5.0248399e-22)
(0.5577644 -0.0058912262 4.5644028e-22)
(0.57102315 -0.0055849673 7.5173461e-23)
(0.58411719 -0.0053002071 -1.0240326e-22)
(0.59707005 -0.0050370053 2.3852765e-22)
(0.60989469 -0.0047963122 3.3205823e-22)
(0.62265614 -0.0045771993 2.5823278e-22)
(0.63529178 -0.0043861316 2.8055106e-22)
(0.64814352 -0.0042100625 -4.3606124e-23)
(0.66044492 -0.0041001867 1.9035679e-22)
(0.67464232 -0.0039296265 1.8613137e-22)
(0.6843251 -0.0041034918 -3.4308684e-22)
(0.70716987 -0.0037031129 -2.1386026e-23)
(0.068113138 -0.024186228 9.4973376e-21)
(0.074143859 -0.026920935 3.3197122e-21)
(0.082886483 -0.028992358 -1.2245442e-20)
(0.092643613 -0.030167925 -1.2434862e-21)
(0.10275939 -0.030979192 1.5056481e-20)
(0.11340937 -0.031554044 -1.4962873e-20)
(0.12463319 -0.031870704 -3.0012607e-20)
(0.1363558 -0.031958657 1.4586292e-20)
(0.14852554 -0.031863914 1.8297802e-20)
(0.16110984 -0.03161662 -1.1673999e-20)
(0.1740735 -0.031238347 1.0250761e-21)
(0.18737927 -0.030748948 8.7107199e-21)
(0.20099137 -0.030166161 -1.5365963e-20)
(0.21487519 -0.029505061 2.9891854e-21)
(0.22899668 -0.028778647 7.586661e-21)
(0.24332243 -0.02799837 -1.510768e-23)
(0.25781973 -0.02717438 2.3622082e-22)
(0.2724567 -0.026315726 -7.4946666e-21)
(0.28720232 -0.02543053 3.9555277e-21)
(0.30202656 -0.024526134 8.5763252e-21)
(0.3169005 -0.023609199 -3.8828125e-21)
(0.33179642 -0.022685787 -2.2330856e-21)
(0.34668799 -0.021761416 1.0068832e-21)
(0.36155035 -0.020841101 -1.7498214e-21)
(0.37636023 -0.019929386 1.3679872e-21)
(0.39109611 -0.019030361 7.270884e-22)
(0.40573829 -0.01814769 1.6130403e-21)
(0.42026897 -0.017284617 -2.0465082e-21)
(0.43467238 -0.016443989 2.3401863e-21)
(0.44893482 -0.015628271 5.7900129e-22)
(0.46304472 -0.014839569 4.7422992e-22)
(0.47699273 -0.014079649 3.2917023e-22)
(0.49077172 -0.013349965 9.6042577e-22)
(0.5043769 -0.012651687 -1.5115414e-21)
(0.51780581 -0.011985732 4.1790195e-22)
(0.53105847 -0.0113528 1.5990163e-22)
(0.54413743 -0.010753408 -6.3091502e-23)
(0.55704796 -0.010187935 6.6422334e-23)
(0.56979803 -0.0096566791 -4.3509172e-22)
(0.58239926 -0.0091598692 2.3150101e-22)
(0.59486512 -0.0086978937 -3.950434e-23)
(0.60721808 -0.0082709062 5.585915e-22)
(0.61947023 -0.0078805376 -2.7309296e-22)
(0.63168483 -0.0075252956 6.1182136e-23)
(0.6438 -0.0072159356 7.7242711e-23)
(0.65615014 -0.0069309205 -1.2934206e-22)
(0.66798536 -0.0067547963 -2.6175997e-22)
(0.68169441 -0.0064784794 7.8205243e-22)
(0.69102399 -0.0067677502 3.0622691e-22)
(0.71318367 -0.0061169068 -1.0812218e-21)
(0.1509935 -0.031687171 1.5146008e-21)
(0.15438355 -0.035502594 -1.1601713e-20)
(0.16152314 -0.038275178 6.6591498e-21)
(0.16979166 -0.039759636 -1.3385913e-20)
(0.17805115 -0.040816627 -1.9853411e-21)
(0.18668093 -0.041613644 9.2211494e-21)
(0.19583696 -0.042083698 -9.8487108e-21)
(0.20544193 -0.042254728 1.5500785e-21)
(0.21545212 -0.042188448 1.2975121e-20)
(0.22585744 -0.041923168 3.440271e-21)
(0.23663908 -0.041484228 -6.2459152e-21)
(0.24777037 -0.040895648 -2.900062e-21)
(0.25922434 -0.040179681 -5.8482651e-21)
(0.270974 -0.039355502 -6.5145838e-21)
(0.28299132 -0.038439787 3.2171571e-21)
(0.29524762 -0.037447407 8.020414e-22)
(0.30771402 -0.036391738 1.3966664e-21)
(0.32036166 -0.035284855 -3.4101436e-21)
(0.33316198 -0.034137716 -4.3154289e-21)
(0.34608687 -0.032960324 2.4022165e-21)
(0.35910893 -0.031761836 3.2950951e-21)
(0.37220168 -0.030550643 -1.6194194e-21)
(0.38533969 -0.029334435 1.6214622e-21)
(0.3984988 -0.028120237 -4.1617701e-22)
(0.41165623 -0.026914444 -4.049057e-21)
(0.42479077 -0.025722843 -3.093285e-21)
(0.43788284 -0.024550632 -2.1512621e-22)
(0.45091464 -0.023402438 4.1318408e-22)
(0.46387023 -0.022282342 -2.2687763e-21)
(0.4767356 -0.021193895 -9.3524617e-22)
(0.48949876 -0.020140149 2.3311234e-22)
(0.5021498 -0.019123686 -1.3438762e-21)
(0.51468092 -0.018146653 -1.5117997e-23)
(0.52708656 -0.017210803 -4.7672509e-22)
(0.5393634 -0.016317534 -4.9141786e-22)
(0.55151048 -0.015467941 -6.2494039e-22)
(0.56352931 -0.014662868 -1.0052366e-21)
(0.57542402 -0.01390296 -4.2661135e-23)
(0.58720142 -0.013188748 -4.2485134e-24)
(0.59887184 -0.012520668 -6.4693125e-22)
(0.61044747 -0.011899371 -7.4724768e-23)
(0.6219493 -0.01132518 -4.5419165e-22)
(0.63338822 -0.010800465 -6.5130244e-22)
(0.64482507 -0.010323257 5.6988618e-22)
(0.65619901 -0.0099085376 2.1887317e-23)
(0.66783381 -0.0095266569 3.1636448e-22)
(0.67900334 -0.0092941647 -2.8526632e-22)
(0.69201344 -0.0089238032 -5.2500503e-22)
(0.70083781 -0.0093270564 7.7205273e-23)
(0.72201304 -0.0084502637 6.1306415e-22)
(0.25576532 -0.036852013 -2.0995993e-20)
(0.25561066 -0.04171323 4.7765753e-20)
(0.26028586 -0.045086976 1.0384316e-20)
(0.26637806 -0.046802333 -1.583546e-20)
(0.27208815 -0.048092762 -2.0468993e-21)
(0.27798795 -0.049144514 2.6195098e-21)
(0.28439881 -0.049828506 -1.6859399e-21)
(0.29124199 -0.050160428 -4.7101224e-21)
(0.29847001 -0.050210845 -4.0376373e-21)
(0.30609425 -0.050023177 -1.2276348e-20)
(0.31411384 -0.049624169 1.8031877e-20)
(0.32251192 -0.049039319 6.5829901e-21)
(0.33126893 -0.048293249 -1.6884302e-20)
(0.3403644 -0.047407874 1.0341176e-20)
(0.34977553 -0.046402609 8.3943525e-21)
(0.35947756 -0.045295051 -8.3841559e-22)
(0.36944459 -0.044101313 -3.110995e-21)
(0.3796501 -0.042836195 -3.8959081e-21)
(0.39006727 -0.041513329 -1.4243301e-21)
(0.40066934 -0.040145304 -1.2638067e-21)
(0.41142987 -0.038743764 -3.1013108e-21)
(0.42232307 -0.037319474 0)
(0.43332397 -0.035882367 -1.3848775e-21)
(0.44440866 -0.034441575 3.9945403e-21)
(0.45555446 -0.033005452 5.5407096e-21)
(0.46674008 -0.031581596 -9.5129647e-22)
(0.47794574 -0.030176862 -3.0621826e-21)
(0.48915329 -0.028797384 3.1928368e-21)
(0.50034633 -0.027448594 2.0986479e-22)
(0.51151026 -0.026135253 3.6267315e-21)
(0.52263239 -0.02486148 -5.4551213e-22)
(0.533702 -0.023630789 1.8111353e-21)
(0.54471038 -0.022446137 -8.7115258e-22)
(0.55565094 -0.021309973 3.4816641e-22)
(0.56651925 -0.020224291 -4.9946775e-22)
(0.57731318 -0.01919069 6.1319671e-22)
(0.58803295 -0.018210446 5.3018057e-22)
(0.59868133 -0.017284576 4.5238879e-22)
(0.60926371 -0.016413949 -1.1494463e-21)
(0.61978892 -0.015599305 8.3998693e-22)
(0.63026762 -0.014841654 -4.6160903e-22)
(0.64071905 -0.014141581 -1.4760566e-21)
(0.65115272 -0.013502266 1.9571965e-21)
(0.66162648 -0.012921374 -8.1673707e-23)
(0.67208095 -0.012418006 -2.4610905e-22)
(0.6828265 -0.01195493 -1.2768131e-23)
(0.69316725 -0.011678802 -2.7483174e-22)
(0.70530385 -0.011229804 -8.7289278e-22)
(0.71349807 -0.011744747 8.4286769e-22)
(0.73343507 -0.010674466 -6.1904409e-23)
(0.37771314 -0.03873863 -1.7576525e-20)
(0.37313353 -0.044662219 1.2872425e-20)
(0.374362 -0.048576325 3.0084956e-21)
(0.37748682 -0.050534473 -7.6685743e-21)
(0.3799664 -0.052126086 1.2110105e-20)
(0.38247229 -0.053519163 7.8286491e-21)
(0.38551914 -0.054527333 -1.2693616e-20)
(0.38904361 -0.05515051 -6.0988831e-21)
(0.39297835 -0.055455151 1.2764294e-20)
(0.39734419 -0.055483689 -1.542673e-20)
(0.40215577 -0.055263171 -1.4141724e-20)
(0.40740397 -0.054819135 1.4261352e-20)
(0.41307302 -0.054176746 6.8627544e-21)
(0.41914575 -0.053359491 -4.2993488e-21)
(0.42560216 -0.052388952 -1.8224549e-21)
(0.43241942 -0.051285119 -4.0405641e-21)
(0.43957286 -0.050066663 5.2915578e-21)
(0.44703674 -0.048751071 3.6951817e-21)
(0.45478468 -0.047354712 -3.2527036e-21)
(0.46279008 -0.045892899 3.1624772e-21)
(0.47102649 -0.04437994 2.8171265e-21)
(0.47946789 -0.042829176 -3.2678126e-21)
(0.48808899 -0.041252996 3.7437846e-22)
(0.49686542 -0.039662857 -3.2889374e-21)
(0.50577396 -0.03806929 7.5105627e-21)
(0.51479269 -0.036481914 6.2886454e-21)
(0.52390111 -0.034909446 8.7218576e-22)
(0.53308028 -0.033359716 -1.8222458e-21)
(0.54231293 -0.031839697 3.926633e-21)
(0.55158352 -0.030355532 7.6125791e-21)
(0.56087833 -0.028912573 2.406536e-21)
(0.57018555 -0.027515426 3.5553047e-21)
(0.5794953 -0.026168009 2.129138e-21)
(0.58879976 -0.02487361 8.1944326e-22)
(0.5980932 -0.023634954 -2.7394601e-22)
(0.6073721 -0.022454279 3.0495816e-21)
(0.61663525 -0.021333418 7.0161474e-22)
(0.62588393 -0.020273884 3.3451093e-22)
(0.63512197 -0.019276998 6.3449401e-23)
(0.64435656 -0.018343915 1.2269096e-21)
(0.65359671 -0.01747611 5.361375e-23)
(0.66285977 -0.016674531 5.93825e-22)
(0.67215378 -0.015943241 -1.612736e-22)
(0.68153325 -0.015279664 -4.1396893e-22)
(0.69094065 -0.014706878 -2.3242369e-22)
(0.70067074 -0.014180698 -6.8838094e-22)
(0.71006327 -0.013875574 3.2894356e-22)
(0.72119524 -0.013365897 -2.2612945e-22)
(0.72866726 -0.013989516 -4.7553282e-22)
(0.74716709 -0.012763788 3.4481362e-22)
(0.51086257 -0.036409488 3.6406402e-21)
(0.50118057 -0.043418518 -1.9009474e-20)
(0.49799405 -0.047864426 -2.3212616e-21)
(0.49735256 -0.050240079 5.5061514e-21)
(0.49604871 -0.052344005 3.0768284e-21)
(0.49466075 -0.054254317 -2.76856e-23)
(0.49386816 -0.055759337 6.2455093e-21)
(0.49366708 -0.056859592 7.6702795e-21)
(0.49396694 -0.057606979 9.9005704e-21)
(0.49477502 -0.058034013 -1.13191e-20)
(0.49611119 -0.058166481 -2.1733024e-20)
(0.49797111 -0.058030118 -3.9861218e-21)
(0.50033906 -0.057650186 1.6062735e-20)
(0.50319684 -0.057051324 1.2909887e-20)
(0.50652392 -0.056257306 -5.9225319e-21)
(0.51029686 -0.055290786 1.3477142e-21)
(0.51449017 -0.054173331 -3.7309494e-21)
(0.51907707 -0.05292548 2.3447241e-21)
(0.52403014 -0.051566739 -2.9354235e-22)
(0.52932165 -0.050115548 -1.892351e-21)
(0.53492399 -0.04858928 7.9810319e-21)
(0.54080996 -0.047004232 -3.2289593e-22)
(0.54695306 -0.045375619 4.4971465e-22)
(0.55332773 -0.043717567 -6.3398754e-22)
(0.55990951 -0.042043105 -4.3991868e-21)
(0.56667522 -0.040364171 4.311489e-21)
(0.57360312 -0.038691618 1.9263614e-21)
(0.580673 -0.037035235 -3.4054443e-21)