/*--------------------------------*- C++ -*----------------------------------*\
| =========                 |                                                 |
| \\      /  F ield         | OpenFOAM: The Open Source CFD Toolbox           |
|  \\    /   O peration     | Version:  4.1                                   |
|   \\  /    A nd           | Web:      www.OpenFOAM.org                      |
|    \\/     M anipulation  |                                                 |
\*---------------------------------------------------------------------------*/
FoamFile
{
    version     2.0;
    format      ascii;
    class       volScalarField;
    location    "4";
    object      p;
}
// * * * * * * * * * * * * * * * * * * * * * * * * * * * * * * * * * * * * * //

dimensions      [0 2 -2 0 0 0 0];

internalField   nonuniform List<scalar> 
1000
(
1.5221262
1.5051196
1.4889178
1.4731283
1.4575294
1.4420433
1.4266393
1.4112943
1.3959883
1.3807062
1.3654386
1.350179
1.3349235
1.3196695
1.3044156
1.2891613
1.2739063
1.2586508
1.243395
1.2281389
1.2128827
1.1976263
1.18237
1.1671136
1.1518572
1.1366008
1.1213444
1.106088
1.0908316
1.0755753
1.0603189
1.0450625
1.0298061
1.0145497
0.99929332
0.98403693
0.96878055
0.95352416
0.93826777
0.92301139
0.907755
0.89249861
0.87724223
0.86198584
0.84672945
0.83147306
0.81621668
0.80096029
0.7857039
0.77044752
0.75519113
0.73993474
0.72467836
0.70942197
0.69416558
0.6789092
0.66365281
0.64839642
0.63314004
0.61788365
0.60262726
0.58737087
0.57211449
0.5568581
0.54160171
0.52634533
0.51108894
0.49583255
0.48057617
0.46531978
0.45006339
0.43480701
0.41955062
0.40429423
0.38903784
0.37378146
0.35852507
0.34326868
0.3280123
0.31275591
0.29749952
0.28224314
0.26698675
0.25173036
0.23647398
0.22121759
0.2059612
0.19070482
0.17544843
0.16019204
0.14493565
0.12967927
0.11442288
0.099166495
0.083910108
0.068653721
0.053397335
0.03814095
0.022884567
0.007628187
1.5217229
1.5047425
1.4888758
1.4732627
1.4576694
1.4421428
1.4267086
1.4113444
1.3960229
1.3807281
1.3654513
1.3501859
1.3349271
1.3196712
1.3044163
1.2891615
1.2739063
1.2586508
1.243395
1.2281389
1.2128826
1.1976263
1.18237
1.1671136
1.1518572
1.1366008
1.1213444
1.106088
1.0908316
1.0755753
1.0603189
1.0450625
1.0298061
1.0145497
0.99929332
0.98403693
0.96878055
0.95352416
0.93826777
0.92301139
0.907755
0.89249861
0.87724223
0.86198584
0.84672945
0.83147306
0.81621668
0.80096029
0.7857039
0.77044752
0.75519113
0.73993474
0.72467836
0.70942197
0.69416558
0.6789092
0.66365281
0.64839642
0.63314004
0.61788365
0.60262726
0.58737087
0.57211449
0.5568581
0.54160171
0.52634533
0.51108894
0.49583255
0.48057617
0.46531978
0.45006339
0.43480701
0.41955062
0.40429423
0.38903784
0.37378146
0.35852507
0.34326868
0.3280123
0.31275591
0.29749952
0.28224314
0.26698675
0.25173036
0.23647398
0.22121759
0.2059612
0.19070482
0.17544843
0.16019204
0.14493566
0.12967927
0.11442288
0.099166495
0.083910108
0.068653721
0.053397334
0.038140949
0.022884563
0.0076281841
1.5210914
1.504059
1.4886318
1.4733032
1.4577632
1.4422107
1.4267574
1.4113857
1.3960566
1.3807525
1.3654673
1.3501961
1.3349332
1.3196748
1.3044183
1.2891625
1.2739068
1.258651
1.243395
1.2281389
1.2128826
1.1976263
1.18237
1.1671136
1.1518572
1.1366008
1.1213444
1.106088
1.0908316
1.0755753
1.0603189
1.0450625
1.0298061
1.0145497
0.99929332
0.98403693
0.96878055
0.95352416
0.93826777
0.92301139
0.907755
0.89249861
0.87724223
0.86198584
0.84672945
0.83147306
0.81621668
0.80096029
0.7857039
0.77044752
0.75519113
0.73993474
0.72467836
0.70942197
0.69416558
0.6789092
0.66365281
0.64839642
0.63314004
0.61788365
0.60262726
0.58737087
0.57211449
0.5568581
0.54160171
0.52634533
0.51108894
0.49583255
0.48057617
0.46531978
0.45006339
0.43480701
0.41955062
0.40429423
0.38903784
0.37378146
0.35852507
0.34326868
0.3280123
0.31275591
0.29749952
0.28224314
0.26698675
0.25173036
0.23647398
0.22121759
0.2059612
0.19070482
0.17544843
0.16019204
0.14493565
0.12967927
0.11442288
0.099166494
0.083910107
0.06865372
0.053397332
0.038140946
0.022884559
0.0076281811
1.5205502
1.5034288
1.4883618
1.4733056
1.4578362
1.4422701
1.4268036
1.4114284
1.3960946
1.3807819
1.365488
1.3502098
1.3349421
1.3196803
1.3044215
1.2891642
1.2739077
1.2586514
1.2433952
1.2281389
1.2128826
1.1976263
1.1823699
1.1671136
1.1518572
1.1366008
1.1213444
1.106088
1.0908316
1.0755753
1.0603189
1.0450625
1.0298061
1.0145497
0.99929332
0.98403693
0.96878055
0.95352416
0.93826777
0.92301139
0.907755
0.89249861
0.87724223
0.86198584
0.84672945
0.83147306
0.81621668
0.80096029
0.7857039
0.77044752
0.75519113
0.73993474
0.72467836
0.70942197
0.69416558
0.6789092
0.66365281
0.64839642
0.63314004
0.61788365
0.60262726
0.58737087
0.57211449
0.5568581
0.54160171
0.52634533
0.51108894
0.49583255
0.48057617
0.46531978
0.45006339
0.43480701
0.41955062
0.40429423
0.38903785
0.37378146
0.35852507
0.34326868
0.3280123
0.31275591
0.29749952
0.28224314
0.26698675
0.25173036
0.23647398
0.22121759
0.2059612
0.19070482
0.17544843
0.16019204
0.14493565
0.12967927
0.11442288
0.099166494
0.083910106
0.068653719
0.053397331
0.038140944
0.022884556
0.007628179
1.5202594
1.5030747
1.4881991
1.4733008
1.4578782
1.4423069
1.4268335
1.4114569
1.3961205
1.3808026
1.3655029
1.35022
1.3349488
1.3196844
1.3044239
1.2891655
1.2739083
1.2586517
1.2433953
1.228139
1.2128826
1.1976263
1.1823699
1.1671136
1.1518572
1.1366008
1.1213444
1.106088
1.0908316
1.0755753
1.0603189
1.0450625
1.0298061
1.0145497
0.99929332
0.98403693
0.96878055
0.95352416
0.93826777
0.92301139
0.907755
0.89249861
0.87724223
0.86198584
0.84672945
0.83147306
0.81621668
0.80096029
0.7857039
0.77044752
0.75519113
0.73993474
0.72467836
0.70942197
0.69416558
0.6789092
0.66365281
0.64839642
0.63314004
0.61788365
0.60262726
0.58737087
0.57211449
0.5568581
0.54160171
0.52634533
0.51108894
0.49583255
0.48057617
0.46531978
0.45006339
0.43480701
0.41955062
0.40429423
0.38903784
0.37378146
0.35852507
0.34326868
0.3280123
0.31275591
0.29749952
0.28224314
0.26698675
0.25173036
0.23647398
0.22121759
0.2059612
0.19070482
0.17544843
0.16019204
0.14493565
0.12967927
0.11442288
0.099166493
0.083910106
0.068653718
0.05339733
0.038140943
0.022884554
0.0076281781
1.5202594
1.5030747
1.4881991
1.4733008
1.4578781
1.4423069
1.4268335
1.4114569
1.3961205
1.3808026
1.3655029
1.35022
1.3349488
1.3196844
1.3044239
1.2891655
1.2739083
1.2586517
1.2433953
1.228139
1.2128826
1.1976263
1.1823699
1.1671136
1.1518572
1.1366008
1.1213444
1.106088
1.0908316
1.0755753
1.0603189
1.0450625
1.0298061
1.0145497
0.99929332
0.98403693
0.96878055
0.95352416
0.93826777
0.92301139
0.907755
0.89249861
0.87724223
0.86198584
0.84672945
0.83147306
0.81621668
0.80096029
0.7857039
0.77044752
0.75519113
0.73993474
0.72467836
0.70942197
0.69416558
0.6789092
0.66365281
0.64839642
0.63314004
0.61788365
0.60262726
0.58737087
0.57211449
0.5568581
0.54160171
0.52634533
0.51108894
0.49583255
0.48057617
0.46531978
0.45006339
0.43480701
0.41955062
0.40429423
0.38903784
0.37378146
0.35852507
0.34326868
0.3280123
0.31275591
0.29749952
0.28224314
0.26698675
0.25173036
0.23647398
0.22121759
0.2059612
0.19070482
0.17544843
0.16019204
0.14493565
0.12967927
0.11442288
0.099166493
0.083910106
0.068653718
0.05339733
0.038140943
0.022884554
0.0076281782
1.5205502
1.5034288
1.4883618
1.4733056
1.4578362
1.4422701
1.4268036
1.4114284
1.3960946
1.3807819
1.365488
1.3502098
1.3349421
1.3196802
1.3044214
1.2891642
1.2739077
1.2586514
1.2433952
1.2281389
1.2128826
1.1976263
1.1823699
1.1671136
1.1518572
1.1366008
1.1213444
1.106088
1.0908316
1.0755753
1.0603189
1.0450625
1.0298061
1.0145497
0.99929332
0.98403693
0.96878055
0.95352416
0.93826777
0.92301139
0.907755
0.89249861
0.87724223
0.86198584
0.84672945
0.83147306
0.81621668
0.80096029
0.7857039
0.77044752
0.75519113
0.73993474
0.72467836
0.70942197
0.69416558
0.6789092
0.66365281
0.64839642
0.63314004
0.61788365
0.60262726
0.58737087
0.57211449
0.5568581
0.54160171
0.52634533
0.51108894
0.49583255
0.48057617
0.46531978
0.45006339
0.43480701
0.41955062
0.40429423
0.38903785
0.37378146
0.35852507
0.34326868
0.3280123
0.31275591
0.29749952
0.28224314
0.26698675
0.25173036
0.23647398
0.22121759
0.2059612
0.19070482
0.17544843
0.16019204
0.14493565
0.12967927
0.11442288
0.099166493
0.083910106
0.068653718
0.053397331
0.038140944
0.022884556
0.0076281792
1.5210914
1.504059
1.4886317
1.4733032
1.4577632
1.4422107
1.4267574
1.4113857
1.3960566
1.3807525
1.3654673
1.350196
1.3349332
1.3196748
1.3044183
1.2891625
1.2739068
1.258651
1.243395
1.2281389
1.2128826
1.1976263
1.18237
1.1671136
1.1518572
1.1366008
1.1213444
1.106088
1.0908316
1.0755753
1.0603189
1.0450625
1.0298061
1.0145497
0.99929332
0.98403693
0.96878055
0.95352416
0.93826777
0.92301139
0.907755
0.89249861
0.87724223
0.86198584
0.84672945
0.83147306
0.81621668
0.80096029
0.7857039
0.77044752
0.75519113
0.73993474
0.72467836
0.70942197
0.69416558
0.6789092
0.66365281
0.64839642
0.63314004
0.61788365
0.60262726
0.58737087
0.57211449
0.5568581
0.54160171
0.52634533
0.51108894
0.49583255
0.48057617
0.46531978
0.45006339
0.43480701
0.41955062
0.40429423
0.38903784
0.37378146
0.35852507
0.34326868
0.3280123
0.31275591
0.29749952
0.28224314
0.26698675
0.25173036
0.23647398
0.22121759
0.2059612
0.19070482
0.17544843
0.16019204
0.14493565
0.12967927
0.11442288
0.099166494
0.083910106
0.06865372
0.053397332
0.038140947
0.022884559
0.0076281813
1.521723
1.5047425
1.4888758
1.4732626
1.4576694
1.4421428
1.4267087
1.4113444
1.3960229
1.3807281
1.3654513
1.3501859
1.3349271
1.3196712
1.3044163
1.2891615
1.2739063
1.2586508
1.2433949
1.2281389
1.2128826
1.1976263
1.18237
1.1671136
1.1518572
1.1366008
1.1213444
1.106088
1.0908316
1.0755753
1.0603189
1.0450625
1.0298061
1.0145497
0.99929332
0.98403693
0.96878055
0.95352416
0.93826777
0.92301139
0.907755
0.89249861
0.87724223
0.86198584
0.84672945
0.83147306
0.81621668
0.80096029
0.7857039
0.77044752
0.75519113
0.73993474
0.72467836
0.70942197
0.69416558
0.6789092
0.66365281
0.64839642
0.63314004
0.61788365
0.60262726
0.58737087
0.57211449
0.5568581
0.54160171
0.52634533
0.51108894
0.49583255
0.48057617
0.46531978
0.45006339
0.43480701
0.41955062
0.40429423
0.38903784
0.37378146
0.35852507
0.34326868
0.3280123
0.31275591
0.29749952
0.28224314
0.26698675
0.25173036
0.23647398
0.22121759
0.2059612
0.19070482
0.17544843
0.16019204
0.14493565
0.12967927
0.11442288
0.099166494
0.083910107
0.06865372
0.053397334
0.038140949
0.022884564
0.0076281843
1.5221261
1.5051196
1.4889178
1.4731283
1.4575294
1.4420433
1.4266393
1.4112943
1.3959883
1.3807062
1.3654386
1.350179
1.3349235
1.3196695
1.3044156
1.2891613
1.2739063
1.2586508
1.243395
1.2281389
1.2128827
1.1976263
1.18237
1.1671136
1.1518572
1.1366008
1.1213444
1.106088
1.0908316
1.0755753
1.0603189
1.0450625
1.0298061
1.0145497
0.99929332
0.98403693
0.96878055
0.95352416
0.93826777
0.92301139
0.907755
0.89249861
0.87724223
0.86198584
0.84672945
0.83147306
0.81621668
0.80096029
0.7857039
0.77044752
0.75519113
0.73993474
0.72467836
0.70942197
0.69416558
0.6789092
0.66365281
0.64839642
0.63314004
0.61788365
0.60262726
0.58737087
0.57211449
0.5568581
0.54160171
0.52634533
0.51108894
0.49583255
0.48057617
0.46531978
0.45006339
0.43480701
0.41955062
0.40429423
0.38903785
0.37378146
0.35852507
0.34326868
0.3280123
0.31275591
0.29749952
0.28224314
0.26698675
0.25173036
0.23647398
0.22121759
0.2059612
0.19070482
0.17544843
0.16019204
0.14493565
0.12967927
0.11442288
0.099166494
0.083910107
0.068653721
0.053397335
0.038140951
0.022884568
0.0076281872
)
;

boundaryField
{
    top
    {
        type            zeroGradient;
    }
    inlet
    {
        type            fixedValue;
        value           uniform 1.53103;
    }
    outlet
    {
        type            fixedValue;
        value           uniform 0;
    }
    bottom
    {
        type            zeroGradient;
    }
    back
    {
        type            empty;
    }
    front
    {
        type            empty;
    }
}


// ************************************************************************* //
