/*--------------------------------*- C++ -*----------------------------------*\
| =========                 |                                                 |
| \\      /  F ield         | OpenFOAM: The Open Source CFD Toolbox           |
|  \\    /   O peration     | Version:  4.1                                   |
|   \\  /    A nd           | Web:      www.OpenFOAM.org                      |
|    \\/     M anipulation  |                                                 |
\*---------------------------------------------------------------------------*/
FoamFile
{
    version     2.0;
    format      ascii;
    class       surfaceScalarField;
    location    "4";
    object      phi;
}
// * * * * * * * * * * * * * * * * * * * * * * * * * * * * * * * * * * * * * //

dimensions      [0 3 -1 0 0 0 0];

internalField   nonuniform List<scalar> 
1890
(
0.0016447509
5.9384559e-06
0.0016289603
1.5790184e-05
0.0016137398
1.5220271e-05
0.0016028462
1.0894002e-05
0.0015955804
7.2665031e-06
0.001590557
5.0240167e-06
0.001587035
3.5224385e-06
0.0015846705
2.3649514e-06
0.0015831867
1.4842548e-06
0.0015823177
8.6937591e-07
0.0015818468
4.712566e-07
0.001581619
2.2815405e-07
0.0015815293
9.0094078e-08
0.0015815105
1.9150373e-08
0.0015815204
-9.7113067e-09
0.0015815383
-1.7620027e-08
0.0015815548
-1.628341e-08
0.001581567
-1.2022863e-08
0.0015815749
-7.7915902e-09
0.0015815796
-4.5895364e-09
0.0015815822
-2.494778e-09
0.0015815835
-1.2540971e-09
0.0015815841
-5.8008089e-10
0.0015815844
-2.3839311e-10
0.0015815845
-8.0265208e-11
0.0015815845
-1.2508334e-11
0.0015815845
1.1542646e-11
0.0015815845
1.8557998e-11
0.0015815845
1.6482155e-11
0.0015815845
1.4675428e-11
0.0015815845
1.0373089e-11
0.0015815845
8.807814e-12
0.0015815844
5.6209391e-12
0.0015815844
5.1344414e-12
0.0015815844
2.8673591e-12
0.0015815844
2.9918899e-12
0.0015815844
1.3621411e-12
0.0015815844
1.8637547e-12
0.0015815844
5.7230006e-13
0.0015815844
1.1655295e-12
0.0015815844
1.62494e-13
0.0015815844
8.3895499e-13
0.0015815844
-6.8203002e-14
0.0015815844
6.0653946e-13
0.0015815844
-2.309532e-13
0.0015815844
5.5239124e-13
0.0015815844
-3.0400072e-13
0.0015815844
4.5422669e-13
0.0015815844
-3.5313715e-13
0.0015815844
4.6834162e-13
0.0015815844
-3.7025778e-13
0.0015815844
4.0698514e-13
0.0015815844
-3.907339e-13
0.0015815844
4.4168581e-13
0.0015815844
-3.9153367e-13
0.0015815844
3.9149207e-13
0.0015815844
-4.0258155e-13
0.0015815844
4.3268414e-13
0.0015815844
-3.9852655e-13
0.0015815844
3.8615129e-13
0.0015815844
-4.0663058e-13
0.0015815844
4.2962545e-13
0.0015815844
-4.0086881e-13
0.0015815844
3.8435793e-13
0.0015815844
-4.0798387e-13
0.0015815844
4.2860865e-13
0.0015815844
-4.0162917e-13
0.0015815844
3.8383167e-13
0.0015815844
-4.0828941e-13
0.0015815844
4.2854848e-13
0.0015815844
-4.0141322e-13
0.0015815844
3.8439403e-13
0.0015815844
-4.0728024e-13
0.0015815844
4.3010764e-13
0.0015815844
-3.990932e-13
0.0015815844
3.8774924e-13
0.0015815844
-4.025807e-13
0.0015815844
4.3659416e-13
0.0015815844
-3.8992993e-13
0.0015815844
4.0076649e-13
0.0015815844
-3.8375475e-13
0.0015815844
4.6257351e-13
0.0015815844
-3.5276542e-13
0.0015815844
4.5238413e-13
0.0015815844
-3.0973718e-13
0.0015815844
5.6664952e-13
0.0015815844
-1.8478016e-13
0.0015815844
6.7467064e-13
0.0015815844
6.4279169e-14
0.0015815844
1.1049963e-12
0.0015815844
6.3751895e-13
0.0015815844
2.0490051e-12
0.0015815844
2.3311176e-12
0.0015815844
5.5247611e-12
0.0015815844
9.9206714e-12
0.0015815844
1.9806556e-11
0.0015815844
3.6506666e-11
0.0015815843
5.8889094e-11
0.0015815841
1.4227866e-10
1.543599e-10
0.0036183341
6.9495559e-06
0.0036112775
2.2845624e-05
0.0036006716
2.5824936e-05
0.0035902604
2.1305076e-05
0.0035814422
1.6085466e-05
0.0035743094
1.2157272e-05
0.0035687436
9.0883088e-06
0.0035646283
6.4802693e-06
0.003561773
4.3396395e-06
0.0035599159
2.7267032e-06
0.0035587871
1.6002439e-06
0.0035581537
8.6180382e-07
0.0035578335
4.1061156e-07
0.0035576937
1.5916895e-07
0.0035576483
3.6066294e-08
0.0035576449
-1.3991561e-08
0.0035576561
-2.7279946e-08
0.0035576692
-2.4902974e-08
0.0035576796
-1.8034582e-08
0.0035576865
-1.1460939e-08
0.0035576907
-6.6240373e-09
0.0035576931
-3.5375071e-09
0.0035576943
-1.7515281e-09
0.0035576949
-7.9943718e-10
0.0035576952
-3.2547835e-10
0.0035576953
-1.0850615e-10
0.0035576953
-1.6455229e-11
0.0035576953
1.6460954e-11
0.0035576953
2.5757302e-11
0.0035576953
2.3964672e-11
0.0035576953
2.077219e-11
0.0035576953
1.5701167e-11
0.0035576953
1.2783729e-11
0.0035576953
9.0426977e-12
0.0035576953
7.4164555e-12
0.0035576953
4.8996994e-12
0.0035576953
4.2737743e-12
0.0035576953
2.6510145e-12
0.0035576953
2.4806724e-12
0.0035576953
1.3407408e-12
0.0035576953
1.4692698e-12
0.0035576953
7.1485036e-13
0.0035576953
8.7719424e-13
0.0035576953
3.1308735e-13
0.0035576953
5.3291704e-13
0.0035576953
1.7516975e-13
0.0035576953
3.3718413e-13
0.0035576953
1.5835453e-14
0.0035576953
2.3158303e-13
0.0035576953
8.9720044e-15
0.0035576953
1.6928141e-13
0.0035576953
-7.2970465e-14
0.0035576953
1.3595494e-13
0.0035576953
-4.0402633e-14
0.0035576953
1.1929378e-13
0.0035576953
-1.0362305e-13
0.0035576953
1.1119793e-13
0.0035576953
-5.9793034e-14
0.0035576953
1.0421411e-13
0.0035576953
-1.1532671e-13
0.0035576953
1.0215318e-13
0.0035576953
-6.6746211e-14
0.0035576953
9.8884273e-14
0.0035576953
-1.1940932e-13
0.0035576953
9.9046132e-14
0.0035576953
-6.9071899e-14
0.0035576953
9.7187993e-14
0.0035576953
-1.2055042e-13
0.0035576953
9.8435429e-14
0.0035576953
-6.9132771e-14
0.0035576953
9.7768135e-14
0.0035576953
-1.1919089e-13
0.0035576953
1.0079604e-13
0.0035576953
-6.5459688e-14
0.0035576953
1.0319864e-13
0.0035576953
-1.1135472e-13
0.0035576953
1.1190139e-13
0.0035576953
-4.9906855e-14
0.0035576953
1.2467964e-13
0.0035576953
-8.2028514e-14
0.0035576953
1.5802531e-13
0.0035576953
3.8684402e-15
0.0035576953
2.2932777e-13
0.0035576953
2.7613261e-14
0.0035576953
3.8043265e-13
0.0035576953
2.288182e-13
0.0035576953
6.7826588e-13
0.0035576953
4.8490019e-13
0.0035576953
1.2985646e-12
0.0035576953
1.2899604e-12
0.0035576953
2.7084942e-12
0.0035576953
3.1864722e-12
0.0035576953
6.7285745e-12
0.0035576953
1.0822578e-11
0.0035576953
2.1392608e-11
0.0035576953
3.4675802e-11
0.0035576952
6.3405093e-11
0.0035576952
9.082242e-11
0.0035576951
1.7829082e-10
1.9274723e-10
0.0047051344
4.885045e-06
0.0047091452
1.8832536e-05
0.0047113995
2.356982e-05
0.0047114922
2.1213073e-05
0.0047103547
1.7223972e-05
0.0047087053
1.3807107e-05
0.0047069405
1.0852999e-05
0.004705304
8.1166216e-06
0.004703941
5.7027106e-06
0.0047029041
3.763645e-06
0.0047021767
2.327758e-06
0.0047017048
1.3338897e-06
0.0047014226
6.9296053e-07
0.0047012684
3.1363005e-07
0.0047011929
1.1178737e-07
0.0047011606
1.8588921e-08
0.0047011507
-1.712631e-08
0.0047011498
-2.3850723e-08
0.0047011519
-1.9975598e-08
0.0047011543
-1.3739857e-08
0.0047011562
-8.3814827e-09
0.0047011574
-4.6705491e-09
0.0047011581
-2.4070995e-09
0.0047011584
-1.145976e-09
0.0047011586
-4.9720672e-10
0.0047011587
-1.858667e-10
0.0047011588
-4.9364612e-11
0.0047011588
5.9854546e-12
0.0047011588
2.3285943e-11
0.0047011588
2.6271094e-11
0.0047011588
2.2703417e-11
0.0047011588
1.9182173e-11
0.0047011588
1.4478726e-11
0.0047011588
1.1697953e-11
0.0047011588
8.3482419e-12
0.0047011588
6.8242485e-12
0.0047011588
4.6633831e-12
0.0047011588
3.9225334e-12
0.0047011588
2.5553001e-12
0.0047011588
2.2573815e-12
0.0047011588
1.4130716e-12
0.0047011588
1.2902961e-12
0.0047011588
7.7853559e-13
0.0047011588
7.1455937e-13
0.0047011588
4.5374864e-13
0.0047011588
3.6351962e-13
0.0047011588
2.818472e-13
0.0047011588
1.6111296e-13
0.0047011588
1.9767216e-13
0.0047011588
6.8805582e-14
0.0047011588
1.3199169e-13
0.0047011588
2.056957e-14
0.0047011588
1.0078198e-13
0.0047011588
-7.71348e-15
0.0047011588
7.4464116e-14
0.0047011588
-2.2425812e-14
0.0047011588
6.809934e-14
0.0047011588
-3.2858705e-14
0.0047011588
5.5026884e-14
0.0047011588
-3.7497035e-14
0.0047011588
5.6437406e-14
0.0047011588
-4.1859168e-14
0.0047011588
4.8082356e-14
0.0047011588
-4.2845671e-14
0.0047011588
5.2364285e-14
0.0047011588
-4.4904169e-14
0.0047011588
4.5899949e-14
0.0047011588
-4.4267587e-14
0.0047011588
5.1686049e-14
0.0047011588
-4.4796751e-14
0.0047011588
4.6915543e-14
0.0047011588
-4.2129874e-14
0.0047011588
5.5254631e-14
0.0047011588
-3.9329917e-14
0.0047011588
5.4960351e-14
0.0047011588
-3.0520993e-14
0.0047011588
7.1766817e-14
0.0047011588
-1.5975976e-14
0.0047011588
8.8131403e-14
0.0047011588
1.6990795e-14
0.0047011588
1.4052567e-13
0.0047011588
8.3363575e-14
0.0047011588
2.1785644e-13
0.0047011588
2.2125932e-13
0.0047011588
3.6571469e-13
0.0047011588
5.6095504e-13
0.0047011588
6.6070363e-13
0.0047011588
1.1499073e-12
0.0047011588
1.3598803e-12
0.0047011588
2.3247648e-12
0.0047011588
2.9472379e-12
0.0047011588
5.0683026e-12
0.0047011588
8.4163454e-12
0.0047011588
1.5034575e-11
0.0047011588
2.4903004e-11
0.0047011588
3.8194297e-11
0.0047011588
6.2641452e-11
0.0047011588
8.3842584e-11
0.0047011588
1.4408473e-10
1.5239516e-10
0.0052500238
2.3358024e-06
0.0052588621
9.992216e-06
0.0052691549
1.3276175e-05
0.005277822
1.2546806e-05
0.0052844416
1.0605493e-05
0.0052894536
8.7956625e-06
0.0052931754
7.1312942e-06
0.0052957965
5.4954638e-06
0.005297522
3.9772847e-06
0.0052985816
2.704123e-06
0.0052991847
1.7248591e-06
0.0052994956
1.0231144e-06
0.0052996337
5.5514657e-07
0.0052996795
2.6811552e-07
0.0052996829
1.0867008e-07
0.0052996714
3.0397437e-08
0.0052996574
-2.8161578e-09
0.0052996462
-1.2397087e-08
0.0052996386
-1.2158538e-08
0.0052996339
-8.9593693e-09
0.0052996313
-5.6808916e-09
0.00529963
-3.2494081e-09
0.0052996293
-1.7005898e-09
0.005299629
-8.1898515e-10
0.0052996289
-3.5278461e-10
0.0052996289
-1.3013521e-10
0.0052996289
-2.9115716e-11
0.0052996289
9.0581155e-12
0.0052996289
2.3243859e-11
0.0052996289
2.1877587e-11
0.0052996289
2.1344998e-11
0.0052996289
1.5228214e-11
0.0052996289
1.3936489e-11
0.0052996289
8.7667424e-12
0.0052996289
8.6016466e-12
0.0052996289
4.6965009e-12
0.0052996289
5.2304519e-12
0.0052996289
2.2952644e-12
0.0052996289
3.3329634e-12
0.0052996289
1.0243179e-12
0.0052996289
2.1256709e-12
0.0052996289
3.1556308e-13
0.0052996289
1.508719e-12
0.0052996289
-8.3640285e-14
0.0052996289
1.0898818e-12
0.0052996289
-3.9681449e-13
0.0052996289
9.6418889e-13
0.0052996289
-5.1565094e-13
0.0052996289
8.0598589e-13
0.0052996289
-6.3478345e-13
0.0052996289
8.1567384e-13
0.0052996289
-6.3648634e-13
0.0052996289
7.2287723e-13
0.0052996289
-6.9879841e-13
0.0052996289
7.6946766e-13
0.0052996289
-6.7238426e-13
0.0052996289
6.9630238e-13
0.0052996289
-7.1934496e-13
0.0052996289
7.5369911e-13
0.0052996289
-6.8495771e-13
0.0052996289
6.8655205e-13
0.0052996289
-7.2692004e-13
0.0052996289
7.4782045e-13
0.0052996289
-6.8957728e-13
0.0052996289
6.8303271e-13
0.0052996289
-7.2949931e-13
0.0052996289
7.460338e-13
0.0052996289
-6.9064016e-13
0.0052996289
6.8273736e-13
0.0052996289
-7.2895372e-13
0.0052996289
7.4757458e-13
0.0052996289
-6.8782321e-13
0.0052996289
6.8720384e-13
0.0052996289
-7.2233919e-13
0.0052996289
7.5712144e-13
0.0052996289
-6.7391813e-13
0.0052996289
7.0688326e-13
0.0052996289
-6.9444325e-13
0.0052996289
7.9600846e-13
0.0052996289
-6.1709818e-13
0.0052996289
7.8519586e-13
0.0052996289
-5.8070109e-13
0.0052996289
9.4836468e-13
0.0052996289
-3.6642859e-13
0.0052996289
1.1053972e-12
0.0052996289
-7.8165504e-14
0.0052996289
1.6208918e-12
0.0052996289
4.7416178e-13
0.0052996289
2.4773777e-12
0.0052996289
1.4173065e-12
0.0052996289
4.2923167e-12
0.0052996289
4.2456354e-12
0.0052996289
1.0035121e-11
0.0052996289
1.3228578e-11
0.0052996289
2.324153e-11
0.0052996289
2.8388771e-11
0.005299629
4.4743395e-11
0.005299629
5.3016194e-11
0.005299629
8.190406e-11
8.329958e-11
0.0054715641
-8.1195339e-11
0.0054815539
-3.466037e-10
0.0054948293
-2.0612057e-10
0.0055073771
1.250138e-10
0.005517984
3.1039827e-10
0.0055267804
1.3782126e-10
0.005533912
-1.1830643e-10
0.0055394078
-2.7163362e-10
0.0055433856
-3.0956694e-10
0.0055460903
-3.3156192e-10
0.0055478158
-3.4140035e-10
0.0055488395
-3.0930907e-10
0.0055493951
-2.3138731e-10
0.0055496637
-1.3711006e-10
0.0055497728
-1.9136757e-11
0.0055498035
5.4765233e-11
0.0055498008
1.1586952e-10
0.0055497885
1.4700195e-10
0.0055497764
1.5518959e-10
0.0055497675
1.5190723e-10
0.0055497617
1.3702084e-10
0.0055497585
1.2083609e-10
0.0055497567
1.0025494e-10
0.0055497559
8.3260477e-11
0.0055497555
6.5096804e-11
0.0055497553
5.255428e-11
0.0055497553
3.9273017e-11
0.0055497553
3.1703813e-11
0.0055497553
2.2791522e-11
0.0055497553
1.8531727e-11
0.0055497553
1.2809194e-11
0.0055497553
1.0671102e-11
0.0055497553
6.8021943e-12
0.0055497553
6.2017128e-12
0.0055497553
3.591429e-12
0.0055497553
3.7376369e-12
0.0055497553
1.6003755e-12
0.0055497553
2.3897041e-12
0.0055497553
7.4424862e-13
0.0055497553
1.6327029e-12
0.0055497553
5.3829385e-14
0.0055497553
1.2167522e-12
0.0055497553
-1.537448e-13
0.0055497553
9.608139e-13
0.0055497553
-4.9579349e-13
0.0055497553
8.1437841e-13
0.0055497553
-4.5770455e-13
0.0055497553
7.3091917e-13
0.0055497553
-6.6017757e-13
0.0055497553
6.9378887e-13
0.0055497553
-5.4040829e-13
0.0055497553
6.7198725e-13
0.0055497553
-7.0185592e-13
0.0055497553
6.6394637e-13
0.0055497553
-5.6200404e-13
0.0055497553
6.5612162e-13
0.0055497553
-7.1352983e-13
0.0055497553
6.5507514e-13
0.0055497553
-5.6896689e-13
0.0055497553
6.5055668e-13
0.0055497553
-7.1794368e-13
0.0055497553
6.5156603e-13
0.0055497553
-5.7177849e-13
0.0055497553
6.4834049e-13
0.0055497553
-7.1960881e-13
0.0055497553
6.504132e-13
0.0055497553
-5.7243397e-13
0.0055497553
6.4822086e-13
0.0055497553
-7.1909896e-13
0.0055497553
6.5168895e-13
0.0055497553
-5.7019625e-13
0.0055497553
6.5171843e-13
0.0055497553
-7.1392649e-13
0.0055497553
6.5915381e-13
0.0055497553
-5.5953235e-13
0.0055497553
6.6687816e-13
0.0055497553
-6.9246916e-13
0.0055497553
6.8953486e-13
0.0055497553
-5.1650644e-13
0.0055497553
7.2773535e-13
0.0055497553
-6.0638257e-13
0.0055497553
8.1183197e-13
0.0055497553
-3.4164216e-13
0.0055497553
9.7944068e-13
0.0055497553
-2.5630888e-13
0.0055497553
1.304751e-12
0.0055497553
3.1778088e-13
0.0055497553
1.8782748e-12
0.0055497553
8.942513e-13
0.0055497553
2.7901572e-12
0.0055497553
2.4751126e-12
0.0055497553
5.5391903e-12
0.0055497553
6.6270983e-12
0.0055497554
1.1474697e-11
0.0055497554
1.2582249e-11
0.0055497554
1.4773479e-11
0.0055497554
1.4375725e-11
0.0055497554
1.3146701e-11
0.0055497555
9.796659e-12
6.9301573e-12
0.0054715634
-2.3358822e-06
0.0054815528
-9.9919532e-06
0.0054948282
-1.327565e-05
0.0055073763
-1.2546498e-05
0.0055179835
-1.0605407e-05
0.00552678
-8.7956996e-06
0.0055339117
-7.1314936e-06
0.0055394074
-5.4958795e-06
0.0055433853
-3.9778552e-06
0.00554609
-2.7047701e-06
0.0055478154
-1.7254995e-06
0.005548839
-1.0236738e-06
0.0055493946
-5.5555962e-07
0.0055496632
-2.6834397e-07
0.0055497723
-1.0874317e-07
0.005549803
-3.0302706e-08
0.0055498005
3.0154482e-09
0.0055497882
1.2648876e-08
0.0055497762
1.2428533e-08
0.0055497672
9.2247526e-09
0.0055497616
5.9231717e-09
0.0055497583
3.4625496e-09
0.0055497566
1.8789774e-09
0.0055497558
9.6620688e-10
0.0055497554
4.6933743e-10
0.0055497553
2.2331415e-10
0.0055497552
9.9194887e-11
0.0055497552
4.6871493e-11
0.0055497553
1.8256536e-11
0.0055497553
1.0306849e-11
0.0055497553
2.4026633e-12
0.0055497553
2.5509228e-12
0.0055497553
-5.9976199e-13
0.0055497553
1.1157259e-12
0.0055497553
-1.2221284e-12
0.0055497553
7.8318942e-13
0.0055497553
-1.3647309e-12
0.0055497553
1.0068995e-12
0.0055497553
-1.1726529e-12
0.0055497553
9.5238615e-13
0.0055497553
-1.2120028e-12
0.0055497553
1.1401203e-12
0.0055497553
-1.0885028e-12
0.0055497553
9.9911799e-13
0.0055497553
-1.1887546e-12
0.0055497553
1.1455203e-12
0.0055497553
-1.0814304e-12
0.0055497553
1.0017073e-12
0.0055497553
-1.1820739e-12
0.0055497553
1.1564047e-12
0.0055497553
-1.0664472e-12
0.0055497553
1.0168637e-12
0.0055497553
-1.1674519e-12
0.0055497553
1.1697324e-12
0.0055497553
-1.0553442e-12
0.0055497553
1.02606e-12
0.0055497553
-1.1598779e-12
0.0055497553
1.1756655e-12
0.0055497553
-1.0510034e-12
0.0055497553
1.0291946e-12
0.0055497553
-1.1575794e-12
0.0055497553
1.1773166e-12
0.0055497553
-1.0498777e-12
0.0055497553
1.0300126e-12
0.0055497553
-1.1568927e-12
0.0055497553
1.1779859e-12
0.0055497553
-1.0491208e-12
0.0055497553
1.031005e-12
0.0055497553
-1.1555082e-12
0.0055497553
1.1799398e-12
0.0055497553
-1.0463573e-12
0.0055497553
1.0348789e-12
0.0055497553
-1.1501482e-12
0.0055497553
1.187413e-12
0.0055497553
-1.0357767e-12
0.0055497553
1.049733e-12
0.0055497553
-1.1293256e-12
0.0055497553
1.2166479e-12
0.0055497553
-9.9371727e-13
0.0055497553
1.1084404e-12
0.0055497553
-1.0460076e-12
0.0055497553
1.3316197e-12
0.0055497553
-8.2369922e-13
0.0055497553
1.3358814e-12
0.0055497553
-7.0852988e-13
0.0055497553
1.7617458e-12
0.0055497553
-1.962538e-13
0.0055497553
2.1277468e-12
0.0055497553
2.6197294e-13
0.0055497553
3.1006488e-12
0.0055497553
1.3332575e-12
0.0055497554
5.0345108e-12
0.0055497554
3.1012164e-12
0.0055497554
6.3292624e-12
0.0055497554
6.1620391e-13
0.0055497554
-1.8236284e-12
0.0055497554
-1.7834962e-11
0.0055497554
-3.0137596e-11
0.0055497555
-6.3922461e-11
-7.0685263e-11
0.0052500204
-4.8849966e-06
0.0052588596
-1.8832662e-05
0.0052691529
-2.3570189e-05
0.0052778202
-2.121324e-05
0.0052844399
-1.7223988e-05
0.0052894521
-1.3807158e-05
0.005293174
-1.085323e-05
0.0052957952
-8.1169733e-06
0.0052975207
-5.7031367e-06
0.0052985803
-3.7640918e-06
0.0052991833
-2.3281896e-06
0.0052994942
-1.3342573e-06
0.0052996323
-6.9325394e-07
0.0052996781
-3.1379861e-07
0.0052996817
-1.1185389e-07
0.0052996703
-1.8558272e-08
0.0052996565
1.7224937e-08
0.0052996454
2.3993571e-08
0.0052996379
2.0145153e-08
0.0052996334
1.3908358e-08
0.0052996309
8.5440187e-09
0.0052996296
4.8106997e-09
0.0052996291
2.5303321e-09
0.0052996288
1.2436997e-09
0.0052996288
5.7978655e-10
0.0052996288
2.4724903e-10
0.0052996288
1.0024879e-10
0.0052996288
3.02601e-11
0.0052996289
7.5038244e-12
0.0052996289
-5.842645e-12
0.0052996289
-4.8782638e-12
0.0052996289
-8.6943602e-12
0.0052996289
-3.8805845e-12
0.0052996289
-6.4547343e-12
0.0052996289
-2.0145912e-12
0.0052996289
-4.5925713e-12
0.0052996289
-6.7754526e-13
0.0052996289
-3.097123e-12
0.0052996289
2.0731199e-13
0.0052996289
-2.5052237e-12
0.0052996289
8.6550784e-13
0.0052996289
-1.9649573e-12
0.0052996289
1.1275494e-12
0.0052996289
-1.9244729e-12
0.0052996289
1.3451127e-12
0.0052996289
-1.6491701e-12
0.0052996289
1.3854541e-12
0.0052996289
-1.7477468e-12
0.0052996289
1.4891075e-12
0.0052996289
-1.5370769e-12
0.0052996289
1.4773875e-12
0.0052996289
-1.6775035e-12
0.0052996289
1.5462464e-12
0.0052996289
-1.4924302e-12
0.0052996289
1.5120176e-12
0.0052996289
-1.6507089e-12
0.0052996289
1.5674246e-12
0.0052996289
-1.4762741e-12
0.0052996289
1.5240727e-12
0.0052996289
-1.6416494e-12
0.0052996289
1.5743591e-12
0.0052996289
-1.4710855e-12
0.0052996289
1.5278979e-12
0.0052996289
-1.6387452e-12
0.0052996289
1.5766819e-12
0.0052996289
-1.4691606e-12
0.0052996289
1.5295996e-12
0.0052996289
-1.6370451e-12
0.0052996289
1.5785843e-12
0.0052996289
-1.4668838e-12
0.0052996289
1.5324451e-12
0.0052996289
-1.6333297e-12
0.0052996289
1.583596e-12
0.0052996289
-1.4600544e-12
0.0052996289
1.5417828e-12
0.0052996289
-1.6203172e-12
0.0052996289
1.6019767e-12
0.0052996289
-1.4340174e-12
0.0052996289
1.5780328e-12
0.0052996289
-1.569009e-12
0.0052996289
1.6738557e-12
0.0052996289
-1.3311937e-12
0.0052996289
1.7173086e-12
0.0052996289
-1.3712896e-12
0.0052996289
1.9357329e-12
0.0052996289
-9.5463043e-13
0.0052996289
2.1812917e-12
0.0052996289
-7.039704e-13
0.0052996289
2.6343864e-12
0.0052996289
7.2590496e-14
0.0052996289
3.3715955e-12
0.0052996289
6.4850101e-13
0.005299629
3.0554379e-12
0.0052996289
-2.7656354e-12
0.005299629
-5.8318222e-12
0.005299629
-1.9353462e-11
0.005299629
-4.2268308e-11
0.005299629
-6.7535337e-11
0.0052996291
-1.3122114e-10
-1.4264277e-10
0.00470513
-6.949531e-06
0.0047091414
-2.2845896e-05
0.0047113962
-2.5825557e-05
0.0047114891
-2.1305667e-05
0.0047103518
-1.6085743e-05
0.0047087025
-1.2157285e-05
0.004706938
-9.0882867e-06
0.0047053017
-6.480339e-06
0.0047039388
-4.3397943e-06
0.004702902
-2.7268848e-06
0.0047021747
-1.600406e-06
0.0047017028
-8.6195793e-07
0.0047014208
-4.107008e-07
0.0047012667
-1.5924785e-07
0.0047011914
-3.6085428e-08
0.0047011593
1.398723e-08
0.0047011495
2.7309733e-08
0.0047011489
2.4957536e-08
0.0047011512
1.8107147e-08
0.0047011537
1.1538037e-08
0.0047011557
6.7000902e-09
0.004701157
3.6049897e-09
0.0047011578
1.8108526e-09
0.0047011582
8.4775203e-10
0.0047011585
3.6592412e-10
0.0047011586
1.3928725e-10
0.0047011587
4.1204004e-11
0.0047011587
2.5093531e-12
0.0047011588
-1.0739812e-11
0.0047011588
-1.3732932e-11
0.0047011588
-1.2290539e-11
0.0047011588
-1.0375718e-11
0.0047011588
-7.7793568e-12
0.0047011588
-6.4122165e-12
0.0047011588
-4.6336155e-12
0.0047011588
-3.74003e-12
0.0047011588
-2.4295635e-12
0.0047011588
-2.2375936e-12
0.0047011588
-1.3915575e-12
0.0047011588
-1.2850884e-12
0.0047011588
-5.4818908e-13
0.0047011588
-8.575764e-13
0.0047011588
-3.3625261e-13
0.0047011588
-5.7474356e-13
0.0047011588
4.3662199e-14
0.0047011588
-4.6720479e-13
0.0047011588
8.7194336e-15
0.0047011588
-3.5278147e-13
0.0047011588
1.9875723e-13
0.0047011588
-3.1987217e-13
0.0047011588
1.1303263e-13
0.0047011588
-2.6911437e-13
0.0047011588
2.6334933e-13
0.0047011588
-2.6684235e-13
0.0047011588
1.4767701e-13
0.0047011588
-2.3879227e-13
0.0047011588
2.8724392e-13
0.0047011588
-2.4876001e-13
0.0047011588
1.5989013e-13
0.0047011588
-2.2881153e-13
0.0047011588
2.9518356e-13
0.0047011588
-2.4293496e-13
0.0047011588
1.6388287e-13
0.0047011588
-2.255607e-13
0.0047011588
2.9789724e-13
0.0047011588
-2.407966e-13
0.0047011588
1.6556918e-13
0.0047011588
-2.2388293e-13
0.0047011588
2.9975232e-13
0.0047011588
-2.3877268e-13
0.0047011588
1.6777574e-13
0.0047011588
-2.2098499e-13
0.0047011588
3.0383821e-13
0.0047011588
-2.3345135e-13
0.0047011588
1.7441962e-13
0.0047011588
-2.1146464e-13
0.0047011588
3.1846835e-13
0.0047011588
-2.1378402e-13
0.0047011588
2.0042273e-13
0.0047011588
-1.7523319e-13
0.0047011588
3.7619832e-13
0.0047011588
-1.424866e-13
0.0047011588
3.0066324e-13
0.0047011588
-5.1460754e-14
0.0047011588
5.7188791e-13
0.0047011588
9.122782e-14
0.0047011588
6.0431898e-13
0.0047011588
4.1118849e-13
0.0047011588
1.0458772e-12
0.0047011588
8.4118978e-13
0.0047011588
1.1539745e-12
0.0047011588
6.5064893e-13
0.0047011588
-6.372699e-13
0.0047011588
-4.9067004e-12
0.0047011589
-1.1684569e-11
0.0047011589
-2.2890997e-11
0.0047011588
-5.2879681e-11
0.0047011588
-8.2907182e-11
0.0047011589
-1.7146779e-10
-1.8693648e-10
0.0036183296
-5.938251e-06
0.0036112734
-1.5789913e-05
0.003600668
-1.5220287e-05
0.0035902569
-1.0894226e-05
0.0035814388
-7.2665427e-06
0.0035743063
-5.0237711e-06
0.003568741
-3.5220658e-06
0.0035646262
-2.364676e-06
0.0035617712
-1.4841136e-06
0.0035599143
-8.6930277e-07
0.0035587857
-4.7119633e-07
0.0035581525
-2.2808005e-07
0.0035578323
-9.0014288e-08
0.0035576927
-1.9041713e-08
0.0035576473
9.7712603e-09
0.003557644
1.769614e-08
0.0035576553
1.6345907e-08
0.0035576685
1.2084113e-08
0.003557679
7.8444788e-09
0.0035576861
4.6394038e-09
0.0035576904
2.5339867e-09
0.0035576928
1.2894214e-09
0.0035576941
6.0550771e-10
0.0035576947
2.6160208e-10
0.003557695
9.5535194e-11
0.0035576952
2.6740506e-11
0.0035576953
-3.1019915e-12
0.0035576953
-8.9025035e-12
0.0035576953
-1.2614975e-11
0.0035576953
-8.5851464e-12
0.0035576953
-9.0205467e-12
0.0035576953
-4.6880844e-12
0.0035576953
-5.6625164e-12
0.0035576953
-2.2388326e-12
0.0035576953
-3.5951475e-12
0.0035576953
-7.4856571e-13
0.0035576953
-2.4143804e-12
0.0035576953
-8.9961587e-14
0.0035576953
-1.7823701e-12
0.0035576953
5.1958719e-13
0.0035576953
-1.4556676e-12
0.0035576953
6.7202137e-13
0.0035576953
-1.2922726e-12
0.0035576953
9.2240762e-13
0.0035576953
-1.1818048e-12
0.0035576953
8.9052745e-13
0.0035576953
-1.1372716e-12
0.0035576953
1.0418901e-12
0.0035576953
-1.0943385e-12
0.0035576953
9.6250485e-13
0.0035576953
-1.0845151e-12
0.0035576953
1.0836358e-12
0.0035576953
-1.0624353e-12
0.0035576953
9.8721751e-13
0.0035576953
-1.0665994e-12
0.0035576953
1.0979289e-12
0.0035576953
-1.0513867e-12
0.0035576953
9.9547863e-13
0.0035576953
-1.0606351e-12
0.0035576953
1.1025537e-12
0.0035576953
-1.0478221e-12
0.0035576953
9.9810453e-13
0.0035576953
-1.0587268e-12
0.0035576953
1.1040533e-12
0.0035576953
-1.0466139e-12
0.0035576953
9.9907565e-13
0.0035576953
-1.0579057e-12
0.0035576953
1.1048583e-12
0.0035576953
-1.0457621e-12
0.0035576953
1.0000121e-12
0.0035576953
-1.0568329e-12
0.0035576953
1.1062215e-12
0.0035576953
-1.0439591e-12
0.0035576953
1.0023637e-12
0.0035576953
-1.0537335e-12
0.0035576953
1.1106234e-12
0.0035576953
-1.0376252e-12
0.0035576953
1.0110526e-12
0.0035576953
-1.0418338e-12
0.0035576953
1.1274654e-12
0.0035576953
-1.0133098e-12
0.0035576953
1.0431638e-12
0.0035576953
-9.9833865e-13
0.0035576953
1.185162e-12
0.0035576953
-9.3152671e-13
0.0035576953
1.1510438e-12
0.0035576953
-8.5440648e-13
0.0035576953
1.3683162e-12
0.0035576953
-6.4047045e-13
0.0035576953
1.5122625e-12
0.0035576953
-5.9066013e-13
0.0035576953
1.1088034e-12
0.0035576953
-2.7676202e-12
0.0035576953
-2.7918016e-12
0.0035576953
-8.3660833e-12
0.0035576953
-1.5329858e-11
0.0035576953
-3.5525863e-11
0.0035576952
-5.8679935e-11
0.0035576952
-1.4103159e-10
-1.5270295e-10
0.0016447491
0.001628959
0.0016137388
0.0016028451
0.0015955792
0.001590556
0.0015870344
0.0015846702
0.0015831864
0.0015823175
0.0015818466
0.0015816188
0.001581529
0.0015815102
0.0015815202
0.0015815381
0.0015815546
0.0015815668
0.0015815748
0.0015815795
0.0015815821
0.0015815834
0.001581584
0.0015815843
0.0015815844
0.0015815845
0.0015815845
0.0015815845
0.0015815845
0.0015815845
0.0015815845
0.0015815845
0.0015815844
0.0015815844
0.0015815844
0.0015815844
0.0015815844
0.0015815844
0.0015815844
0.0015815844
0.0015815844
0.0015815844
0.0015815844
0.0015815844
0.0015815844
0.0015815844
0.0015815844
0.0015815844
0.0015815844
0.0015815844
0.0015815844
0.0015815844
0.0015815844
0.0015815844
0.0015815844
0.0015815844
0.0015815844
0.0015815844
0.0015815844
0.0015815844
0.0015815844
0.0015815844
0.0015815844
0.0015815844
0.0015815844
0.0015815844
0.0015815844
0.0015815844
0.0015815844
0.0015815844
0.0015815844
0.0015815844
0.0015815844
0.0015815844
0.0015815844
0.0015815844
0.0015815844
0.0015815844
0.0015815844
0.0015815844
0.0015815844
0.0015815844
0.0015815844
0.0015815844
0.0015815844
0.0015815844
0.0015815844
0.0015815844
0.0015815844
0.0015815844
0.0015815844
0.0015815844
0.0015815844
0.0015815844
0.0015815844
0.0015815844
0.0015815844
0.0015815843
0.0015815842
)
;

boundaryField
{
    top
    {
        type            calculated;
        value           uniform 0;
    }
    inlet
    {
        type            calculated;
        value           nonuniform List<scalar> 10(-0.001650689 -0.0036193455 -0.0047030713 -0.0052474764 -0.00546923 -0.0054692298 -0.0052474726 -0.0047030666 -0.0036193409 -0.0016506873);
    }
    outlet
    {
        type            calculated;
        value           nonuniform List<scalar> 10(0.001581584 0.0035576951 0.0047011589 0.0052996291 0.0055497556 0.0055497556 0.0052996291 0.0047011589 0.0035576951 0.001581584);
    }
    bottom
    {
        type            calculated;
        value           uniform 0;
    }
    back
    {
        type            empty;
        value           nonuniform 0();
    }
    front
    {
        type            empty;
        value           nonuniform 0();
    }
}


// ************************************************************************* //
