/*--------------------------------*- C++ -*----------------------------------*\
| =========                 |                                                 |
| \\      /  F ield         | OpenFOAM: The Open Source CFD Toolbox           |
|  \\    /   O peration     | Version:  4.1                                   |
|   \\  /    A nd           | Web:      www.OpenFOAM.org                      |
|    \\/     M anipulation  |                                                 |
\*---------------------------------------------------------------------------*/
FoamFile
{
    version     2.0;
    format      ascii;
    class       volVectorField;
    location    "4";
    object      U;
}
// * * * * * * * * * * * * * * * * * * * * * * * * * * * * * * * * * * * * * //

dimensions      [0 1 -1 0 0 0 0];

internalField   nonuniform List<vector> 
1000
(
(0.17077491 0.00042020585 0)
(0.16979857 0.00098105717 0)
(0.16793503 0.00086939871 0)
(0.1664722 0.00054169944 0)
(0.1655384 0.00030903495 0)
(0.16492422 0.0001896457 0)
(0.16449203 0.00012166202 0)
(0.16419168 7.3787322e-05 0)
(0.16399657 4.0490677e-05 0)
(0.16387901 1.9963855e-05 0)
(0.16381313 8.4793817e-06 0)
(0.1637794 2.4550949e-06 0)
(0.16376456 -3.8233963e-07 0)
(0.16375993 -1.3700445e-06 0)
(0.16376003 -1.4663161e-06 0)
(0.16376176 -1.1912974e-06 0)
(0.16376366 -8.3679757e-07 0)
(0.16376517 -5.289437e-07 0)
(0.16376621 -3.0732921e-07 0)
(0.16376685 -1.6548061e-07 0)
(0.16376721 -8.2533678e-08 0)
(0.1637674 -3.7549552e-08 0)
(0.16376749 -1.5059695e-08 0)
(0.16376754 -4.6004975e-09 0)
(0.16376755 -3.3956412e-10 0)
(0.16376756 1.1938285e-09 0)
(0.16376756 1.3765045e-09 0)
(0.16376756 1.2632197e-09 0)
(0.16376756 9.6121862e-10 0)
(0.16376756 7.6910509e-10 0)
(0.16376756 5.2090548e-10 0)
(0.16376755 4.2116512e-10 0)
(0.16376755 2.6221521e-10 0)
(0.16376755 2.352998e-10 0)
(0.16376755 1.2475284e-10 0)
(0.16376755 1.3446037e-10 0)
(0.16376755 5.1785465e-11 0)
(0.16376755 8.5087347e-11 0)
(0.16376755 1.2106284e-11 0)
(0.16376755 5.492982e-11 0)
(0.16376755 -1.0789189e-11 0)
(0.16376755 4.2826056e-11 0)
(0.16376755 -2.0912495e-11 0)
(0.16376755 3.5232789e-11 0)
(0.16376755 -2.3936911e-11 0)
(0.16376755 3.5312841e-11 0)
(0.16376755 -2.5850511e-11 0)
(0.16376755 3.1542446e-11 0)
(0.16376755 -2.7512945e-11 0)
(0.16376755 3.2322746e-11 0)
(0.16376755 -2.860443e-11 0)
(0.16376755 2.9495529e-11 0)
(0.16376755 -2.9268896e-11 0)
(0.16376755 3.1158805e-11 0)
(0.16376755 -2.9471055e-11 0)
(0.16376755 2.8953255e-11 0)
(0.16376755 -2.9625163e-11 0)
(0.16376755 3.0903132e-11 0)
(0.16376755 -2.9654175e-11 0)
(0.16376755 2.8821293e-11 0)
(0.16376755 -2.9723337e-11 0)
(0.16376755 3.08286e-11 0)
(0.16376755 -2.9708735e-11 0)
(0.16376755 2.8780536e-11 0)
(0.16376755 -2.9754619e-11 0)
(0.16376755 3.0804205e-11 0)
(0.16376755 -2.9726888e-11 0)
(0.16376755 2.8768232e-11 0)
(0.16376755 -2.9761928e-11 0)
(0.16376755 3.0803864e-11 0)
(0.16376755 -2.9719658e-11 0)
(0.16376755 2.8785012e-11 0)
(0.16376755 -2.9731512e-11 0)
(0.16376755 3.0850248e-11 0)
(0.16376755 -2.9654005e-11 0)
(0.16376755 2.8877229e-11 0)
(0.16376755 -2.9601996e-11 0)
(0.16376755 3.1031533e-11 0)
(0.16376755 -2.9404286e-11 0)
(0.16376755 2.9254505e-11 0)
(0.16376755 -2.8952511e-11 0)
(0.16376755 3.2014439e-11 0)
(0.16376755 -2.7717724e-11 0)
(0.16376755 3.1405343e-11 0)
(0.16376755 -2.582652e-11 0)
(0.16376755 3.5511072e-11 0)
(0.16376755 -2.302572e-11 0)
(0.16376755 3.7999723e-11 0)
(0.16376755 -1.3392131e-11 0)
(0.16376755 5.7777912e-11 0)
(0.16376755 2.3627491e-11 0)
(0.16376755 1.1046707e-10 0)
(0.16376755 1.2787909e-10 0)
(0.16376755 3.2892173e-10 0)
(0.16376755 6.081439e-10 0)
(0.16376755 1.2293852e-09 0)
(0.16376755 2.2549406e-09 0)
(0.16376754 3.8389494e-09 0)
(0.16376753 8.6044958e-09 0)
(0.16376751 9.2285492e-09 0)
(0.37446777 0.00066512162 0)
(0.37520835 0.0021178074 0)
(0.37370987 0.0023267257 0)
(0.37223841 0.0018222978 0)
(0.37121955 0.0012868083 0)
(0.37044394 0.00091386961 0)
(0.36980032 0.00064967856 0)
(0.36929467 0.00044213795 0)
(0.36893355 0.00028153755 0)
(0.3686947 0.00016717127 0)
(0.36854587 9.1873218e-05 0)
(0.36845903 4.5366239e-05 0)
(0.36841279 1.8680064e-05 0)
(0.36839117 4.9650277e-06 0)
(0.36838299 -9.8445667e-07 0)
(0.36838128 -2.7849751e-06 0)
(0.3683821 -2.7489626e-06 0)
(0.36838354 -2.0867417e-06 0)
(0.36838482 -1.37389e-06 0)
(0.36838572 -8.1902774e-07 0)
(0.36838629 -4.5019532e-07 0)
(0.36838662 -2.2954411e-07 0)
(0.36838679 -1.0821291e-07 0)
(0.36838688 -4.6182594e-08 0)
(0.36838692 -1.6790603e-08 0)
(0.36838694 -3.9332997e-09 0)
(0.36838694 9.369554e-10 0)
(0.36838695 2.4117167e-09 0)
(0.36838694 2.4842926e-09 0)
(0.36838694 2.1602416e-09 0)
(0.36838694 1.6846817e-09 0)
(0.36838694 1.3138134e-09 0)
(0.36838694 9.625256e-10 0)
(0.36838694 7.4726166e-10 0)
(0.36838694 5.2570409e-10 0)
(0.36838694 4.1312903e-10 0)
(0.36838694 2.7978537e-10 0)
(0.36838694 2.3624303e-10 0)
(0.36838694 1.4549751e-10 0)
(0.36838694 1.2993056e-10 0)
(0.36838694 6.952945e-11 0)
(0.36838694 7.8896579e-11 0)
(0.36838694 2.9913025e-11 0)
(0.36838694 4.2066e-11 0)
(0.36838694 8.3773824e-12 0)
(0.36838694 3.1382246e-11 0)
(0.36838694 -9.2056373e-13 0)
(0.36838694 1.7879785e-11 0)
(0.36838694 -6.5381308e-12 0)
(0.36838694 1.9908369e-11 0)
(0.36838694 -7.8843194e-12 0)
(0.36838694 1.2583409e-11 0)
(0.36838694 -1.01371e-11 0)
(0.36838694 1.6870433e-11 0)
(0.36838694 -1.0216991e-11 0)
(0.36838694 1.063286e-11 0)
(0.36838694 -1.1730837e-11 0)
(0.36838694 1.5611857e-11 0)
(0.36838694 -1.1193839e-11 0)
(0.36838694 9.8791499e-12 0)
(0.36838694 -1.2310005e-11 0)
(0.36838694 1.5168241e-11 0)
(0.36838694 -1.1531281e-11 0)
(0.36838694 9.6224874e-12 0)
(0.36838694 -1.2504911e-11 0)
(0.36838694 1.5022097e-11 0)
(0.36838694 -1.1638323e-11 0)
(0.36838694 9.5503429e-12 0)
(0.36838694 -1.2544363e-11 0)
(0.36838694 1.5017846e-11 0)
(0.36838694 -1.1601614e-11 0)
(0.36838694 9.6369185e-12 0)
(0.36838694 -1.2392088e-11 0)
(0.36838694 1.5254857e-11 0)
(0.36838694 -1.1252809e-11 0)
(0.36838694 1.0137097e-11 0)
(0.36838694 -1.168644e-11 0)
(0.36838694 1.6239439e-11 0)
(0.36838694 -9.9050202e-12 0)
(0.36838694 1.1961301e-11 0)
(0.36838694 -9.3522183e-12 0)
(0.36838694 1.9458267e-11 0)
(0.36838694 -6.1833506e-12 0)
(0.36838694 1.8139377e-11 0)
(0.36838694 -1.0521065e-12 0)
(0.36838694 3.5773354e-11 0)
(0.36838694 1.5499687e-11 0)
(0.36838694 5.6212303e-11 0)
(0.36838694 5.2989752e-11 0)
(0.36838694 1.2385465e-10 0)
(0.36838694 1.5804079e-10 0)
(0.36838694 2.7637476e-10 0)
(0.36838694 4.5297626e-10 0)
(0.36838694 8.5201865e-10 0)
(0.36838694 1.6146455e-09 0)
(0.36838694 2.8639707e-09 0)
(0.36838694 5.2986209e-09 0)
(0.36838694 7.886228e-09 0)
(0.36838692 1.7297062e-08 0)
(0.36838693 1.9430758e-08 0)
(0.48646986 0.00055664579 0)
(0.48876426 0.0021287597 0)
(0.48827246 0.0026628307 0)
(0.48777731 0.0023821835 0)
(0.48769822 0.0019058353 0)
(0.48765852 0.0014956595 0)
(0.48750784 0.001151859 0)
(0.48731244 0.00084581587 0)
(0.4871431 0.00058339713 0)
(0.48701698 0.00037727242 0)
(0.48692728 0.00022806062 0)
(0.48686623 0.00012723586 0)
(0.48682782 6.3805279e-05 0)
(0.48680597 2.7235876e-05 0)
(0.48679482 8.4130461e-06 0)
(0.48678979 1.4642071e-07 0)
(0.48678793 -2.5614656e-06 0)
(0.48678756 -2.7985634e-06 0)
(0.48678773 -2.1793871e-06 0)
(0.486788 -1.4442507e-06 0)
(0.48678824 -8.6014454e-07 0)
(0.4867884 -4.7109385e-07 0)
(0.48678849 -2.3936421e-07 0)
(0.48678855 -1.1263807e-07 0)
(0.48678858 -4.8211331e-08 0)
(0.48678859 -1.7734756e-08 0)
(0.4867886 -4.390772e-09 0)
(0.4867886 8.1415135e-10 0)
(0.4867886 2.4488922e-09 0)
(0.4867886 2.6208935e-09 0)
(0.4867886 2.3167991e-09 0)
(0.4867886 1.8701056e-09 0)
(0.4867886 1.4764363e-09 0)
(0.4867886 1.1229789e-09 0)
(0.4867886 8.6026435e-10 0)
(0.4867886 6.3697128e-10 0)
(0.4867886 4.8889751e-10 0)
(0.4867886 3.5897255e-10 0)
(0.4867886 2.7556644e-10 0)
(0.4867886 1.976116e-10 0)
(0.4867886 1.5789839e-10 0)
(0.4867886 1.1394937e-10 0)
(0.4867886 9.0262225e-11 0)
(0.4867886 6.0036057e-11 0)
(0.4867886 5.2195567e-11 0)
(0.4867886 3.4581772e-11 0)
(0.4867886 2.9684511e-11 0)
(0.4867886 1.5570127e-11 0)
(0.4867886 1.878108e-11 0)
(0.4867886 9.9929035e-12 0)
(0.4867886 1.1581683e-11 0)
(0.4867886 1.9777827e-12 0)
(0.4867886 9.007867e-12 0)
(0.4867886 2.6059319e-12 0)
(0.4867886 6.0609069e-12 0)
(0.4867886 -2.3644515e-12 0)
(0.4867886 5.5923194e-12 0)
(0.4867886 -5.53702e-14 0)
(0.4867886 3.9946937e-12 0)
(0.4867886 -3.9703835e-12 0)
(0.4867886 4.348452e-12 0)
(0.4867886 -1.013427e-12 0)
(0.4867886 3.2582766e-12 0)
(0.4867886 -4.5365869e-12 0)
(0.4867886 3.9167229e-12 0)
(0.4867886 -1.3370389e-12 0)
(0.4867886 3.0234443e-12 0)
(0.4867886 -4.694382e-12 0)
(0.4867886 3.8328187e-12 0)
(0.4867886 -1.3443866e-12 0)
(0.4867886 3.1040128e-12 0)
(0.4867886 -4.5058319e-12 0)
(0.4867886 4.1582864e-12 0)
(0.4867886 -8.3884762e-13 0)
(0.4867886 3.8525574e-12 0)
(0.4867886 -3.4204008e-12 0)
(0.4867886 5.7031111e-12 0)
(0.4867886 1.339416e-12 0)
(0.4867886 6.9077548e-12 0)
(0.4867886 8.9704036e-13 0)
(0.4867886 1.165546e-11 0)
(0.4867886 9.9683926e-12 0)
(0.4867886 1.8972774e-11 0)
(0.4867886 1.868218e-11 0)
(0.4867886 3.675276e-11 0)
(0.4867886 4.4378339e-11 0)
(0.4867886 6.8956295e-11 0)
(0.4867886 8.5900976e-11 0)
(0.4867886 1.399725e-10 0)
(0.4867886 1.8918796e-10 0)
(0.4867886 2.9803854e-10 0)
(0.4867886 4.2418161e-10 0)
(0.4867886 7.7789681e-10 0)
(0.4867886 1.3104662e-09 0)
(0.4867886 2.353716e-09 0)
(0.4867886 3.7033012e-09 0)
(0.4867886 6.484345e-09 0)
(0.48678861 8.9450812e-09 0)
(0.48678858 1.6791671e-08 0)
(0.48678862 1.8330273e-08 0)
(0.54266761 0.0003366262 0)
(0.54574784 0.0014341325 0)
(0.54575125 0.0019219134 0)
(0.54592664 0.0018332002 0)
(0.54669186 0.0015559325 0)
(0.54746067 0.0012863303 0)
(0.54796619 0.0010381687 0)
(0.54827103 0.00079763434 0)
(0.54847291 0.00057589817 0)
(0.54860974 0.00039032558 0)
(0.54869312 0.00024799107 0)
(0.54873676 0.00014646765 0)
(0.54875628 7.9105298e-05 0)
(0.54876332 3.7967153e-05 0)
(0.54876455 1.5194325e-05 0)
(0.54876348 4.0243599e-06 0)
(0.54876184 -5.2463473e-07 0)
(0.5487604 -1.8151445e-06 0)
(0.5487594 -1.7560037e-06 0)
(0.54875878 -1.2891169e-06 0)
(0.54875843 -8.1812443e-07 0)
(0.54875824 -4.6941301e-07 0)
(0.54875815 -2.4774767e-07 0)
(0.54875811 -1.2088798e-07 0)
(0.54875809 -5.3821173e-08 0)
(0.54875809 -2.1107465e-08 0)
(0.54875809 -6.1363579e-09 0)
(0.54875809 -1.3049439e-10 0)
(0.54875809 2.0421105e-09 0)
(0.54875809 2.3793264e-09 0)
(0.54875809 2.2776224e-09 0)
(0.54875809 1.8150641e-09 0)
(0.54875809 1.5242327e-09 0)
(0.54875809 1.1002565e-09 0)
(0.54875809 9.2325127e-10 0)
(0.54875809 6.1963729e-10 0)
(0.54875809 5.459961e-10 0)
(0.54875809 3.2795879e-10 0)
(0.54875809 3.262415e-10 0)
(0.5487581 1.6247593e-10 0)
(0.54875809 1.9900852e-10 0)
(0.5487581 6.4482724e-11 0)
(0.54875809 1.2733247e-10 0)
(0.5487581 1.534835e-11 0)
(0.54875809 8.8595698e-11 0)
(0.5487581 -1.2413259e-11 0)
(0.54875809 6.9442136e-11 0)
(0.5487581 -2.390881e-11 0)
(0.54875809 5.7823065e-11 0)
(0.5487581 -3.4044523e-11 0)
(0.54875809 5.2035535e-11 0)
(0.5487581 -3.6716505e-11 0)
(0.54875809 4.7966357e-11 0)
(0.5487581 -4.1143756e-11 0)
(0.54875809 4.6700121e-11 0)
(0.5487581 -4.0630474e-11 0)
(0.54875809 4.5047673e-11 0)
(0.5487581 -4.3366562e-11 0)
(0.54875809 4.4983559e-11 0)
(0.5487581 -4.1956238e-11 0)
(0.54875809 4.4021784e-11 0)
(0.5487581 -4.4162227e-11 0)
(0.54875809 4.4366092e-11 0)
(0.5487581 -4.2431444e-11 0)
(0.54875809 4.3660102e-11 0)
(0.5487581 -4.4432578e-11 0)
(0.54875809 4.4173153e-11 0)
(0.5487581 -4.2554379e-11 0)
(0.54875809 4.3606022e-11 0)
(0.5487581 -4.4413487e-11 0)
(0.54875809 4.4277483e-11 0)
(0.5487581 -4.2345974e-11 0)
(0.54875809 4.394858e-11 0)
(0.5487581 -4.3891234e-11 0)
(0.54875809 4.5044119e-11 0)
(0.5487581 -4.1247361e-11 0)
(0.54875809 4.5513795e-11 0)
(0.5487581 -4.1673588e-11 0)
(0.54875809 4.8211056e-11 0)
(0.5487581 -3.6771518e-11 0)
(0.54875809 5.2071371e-11 0)
(0.5487581 -3.2430545e-11 0)
(0.54875809 6.2413214e-11 0)
(0.5487581 -1.774337e-11 0)
(0.54875809 8.1405622e-11 0)
(0.5487581 5.4652457e-12 0)
(0.54875809 1.2086125e-10 0)
(0.5487581 6.2571913e-11 0)
(0.54875809 2.0311174e-10 0)
(0.5487581 1.7714539e-10 0)
(0.54875809 3.770382e-10 0)
(0.5487581 4.6496072e-10 0)
(0.54875809 9.4211925e-10 0)
(0.5487581 1.4377607e-09 0)
(0.54875809 2.4620524e-09 0)
(0.5487581 3.4236406e-09 0)
(0.54875809 5.5191731e-09 0)
(0.54875811 7.061933e-09 0)
(0.54875808 1.1701882e-08 0)
(0.54875813 1.2156909e-08 0)
(0.56553937 0.00010973549 0)
(0.56890951 0.00049286462 0)
(0.56903648 0.00068101433 0)
(0.56946005 0.00066738615 0)
(0.57062731 0.00058063179 0)
(0.5718352 0.00049123089 0)
(0.57273364 0.0004053198 0)
(0.57336535 0.00031826209 0)
(0.57382988 0.00023486037 0)
(0.57416686 0.00016274925 0)
(0.57439181 0.00010581382 0)
(0.57452781 6.4101326e-05 0)
(0.57460297 3.5700652e-05 0)
(0.57464077 1.7886097e-05 0)
(0.57465731 7.7182206e-06 0)
(0.57466279 2.5213886e-06 0)
(0.57466328 2.4245028e-07 0)
(0.57466203 -5.1987254e-07 0)
(0.57466058 -6.1874229e-07 0)
(0.57465945 -4.8667912e-07 0)
(0.5746587 -3.1895993e-07 0)
(0.57465825 -1.8545274e-07 0)
(0.57465801 -9.760812e-08 0)
(0.57465789 -4.6419689e-08 0)
(0.57465784 -1.925961e-08 0)
(0.57465781 -6.1368599e-09 0)
(0.57465781 -3.6794373e-10 0)
(0.5746578 1.7100717e-09 0)
(0.57465781 2.2221929e-09 0)
(0.57465781 2.0663292e-09 0)
(0.57465781 1.7619287e-09 0)
(0.57465781 1.3804095e-09 0)
(0.57465781 1.093021e-09 0)
(0.57465781 8.1063459e-10 0)
(0.57465781 6.4544304e-10 0)
(0.57465781 4.5787124e-10 0)
(0.57465781 3.6536985e-10 0)
(0.57465781 2.4598886e-10 0)
(0.57465781 2.187442e-10 0)
(0.57465781 1.2992679e-10 0)
(0.57465781 1.2019908e-10 1.8769125e-33)
(0.57465781 5.4793032e-11 0)
(0.57465781 7.8303895e-11 0)
(0.57465781 2.0722127e-11 0)
(0.57465781 4.2572246e-11 0)
(0.57465781 -2.9807431e-12 0)
(0.57465781 3.8181637e-11 0)
(0.57465781 -8.6506222e-12 0)
(0.57465781 2.2900656e-11 0)
(0.57465781 -1.6805539e-11 0)
(0.57465781 2.8871531e-11 0)
(0.57465781 -1.5134838e-11 0)
(0.57465781 1.8203981e-11 0)
(0.57465781 -2.0273281e-11 0)
(0.57465781 2.6256698e-11 0)
(0.57465781 -1.7087707e-11 0)
(0.57465781 1.6715346e-11 0)
(0.57465781 -2.142946e-11 0)
(0.57465781 2.5342963e-11 0)
(0.57465781 -1.7808429e-11 0)
(0.57465781 1.6147313e-11 0)
(0.57465781 -2.1879073e-11 0)
(0.57465781 2.4986653e-11 0)
(0.57465781 -1.8085621e-11 0)
(0.57465781 1.5936943e-11 0)
(0.57465781 -2.2031706e-11 0)
(0.57465781 2.4886665e-11 0)
(0.57465781 -1.8132027e-11 0)
(0.57465781 1.5948543e-11 0)
(0.57465781 -2.1952905e-11 0)
(0.57465781 2.5048476e-11 0)
(0.57465781 -1.786596e-11 0)
(0.57465781 1.6352492e-11 0)
(0.57465781 -2.1361069e-11 0)
(0.57465781 2.5902224e-11 0)
(0.57465781 -1.6654915e-11 0)
(0.57465781 1.8069247e-11 0)
(0.57465781 -1.893019e-11 0)
(0.57465781 2.9369165e-11 0)
(0.57465781 -1.1810361e-11 0)
(0.57465781 2.4943363e-11 0)
(0.57465781 -9.4008004e-12 0)
(0.57465781 4.2980801e-11 0)
(0.57465781 7.2931075e-12 0)
(0.57465781 5.3055784e-11 0)
(0.57465781 3.3084296e-11 0)
(0.57465781 1.0337755e-10 0)
(0.57465781 9.836804e-11 0)
(0.57465781 1.7606843e-10 0)
(0.57465781 2.0419244e-10 0)
(0.57465781 3.3954661e-10 0)
(0.57465781 4.9837817e-10 0)
(0.57465781 8.3972727e-10 2.9573196e-35)
(0.57465781 1.2721905e-09 0)
(0.57465781 1.8368349e-09 0)
(0.57465782 2.2616007e-09 8.8719576e-36)
(0.57465781 3.0460652e-09 0)
(0.57465783 3.4459512e-09 0)
(0.5746578 4.7655308e-09 0)
(0.57465785 4.6103935e-09 0)
(0.56553934 -0.00010974722 0)
(0.56890941 -0.00049290608 0)
(0.56903634 -0.00068103483 0)
(0.56945994 -0.00066736157 0)
(0.57062726 -0.00058058502 0)
(0.57183516 -0.00049120922 0)
(0.57273359 -0.00040533911 0)
(0.57336531 -0.00031831148 0)
(0.57382984 -0.00023492369 0)
(0.57416682 -0.00016281917 0)
(0.57439177 -0.0001058846 0)
(0.57452776 -6.416467e-05 0)
(0.57460291 -3.5748188e-05 0)
(0.57464072 -1.7913691e-05 0)
(0.57465725 -7.7248528e-06 0)
(0.57466274 -2.5110648e-06 0)
(0.57466324 -2.2053702e-07 0)
(0.574662 5.4824837e-07 0)
(0.57466055 6.4916188e-07 0)
(0.57465942 5.1660622e-07 0)
(0.57465868 3.4619072e-07 0)
(0.57465824 2.0943021e-07 0)
(0.574658 1.1763434e-07 0)
(0.57465789 6.2982066e-08 0)
(0.57465783 3.2338258e-08 0)
(0.57465781 1.6615536e-08 0)
(0.5746578 8.3401893e-09 0)
(0.5746578 4.5868645e-09 0)
(0.5746578 2.3782575e-09 0)
(0.5746578 1.5985835e-09 0)
(0.57465781 8.0825346e-10 0)
(0.57465781 7.1608822e-10 0)
(0.57465781 2.7162267e-10 0)
(0.57465781 4.0177969e-10 0)
(0.57465781 7.8660445e-11 0)
(0.57465781 2.6098546e-10 0)
(0.57465781 -3.2864665e-11 0)
(0.57465781 1.9939395e-10 0)
(0.57465781 -6.8192804e-11 0)
(0.57465781 1.6237809e-10 0)
(0.57465781 -1.0366489e-10 -1.8769125e-33)
(0.57465781 1.5181069e-10 0)
(0.57465781 -1.0348517e-10 0)
(0.57465781 1.3683056e-10 0)
(0.57465781 -1.2388877e-10 0)
(0.57465781 1.3529886e-10 0)
(0.57465781 -1.162353e-10 0)
(0.57465781 1.2660841e-10 0)
(0.57465781 -1.3108132e-10 0)
(0.57465781 1.3012578e-10 0)
(0.57465781 -1.1943782e-10 0)
(0.57465781 1.2446786e-10 0)
(0.57465781 -1.3241938e-10 0)
(0.57465781 1.293056e-10 0)
(0.57465781 -1.199248e-10 0)
(0.57465781 1.2416777e-10 0)
(0.57465781 -1.3259925e-10 0)
(0.57465781 1.291832e-10 0)
(0.57465781 -1.2002581e-10 0)
(0.57465781 1.2407379e-10 0)
(0.57465781 -1.3268391e-10 0)
(0.57465781 1.291076e-10 0)
(0.57465781 -1.2009402e-10 0)
(0.57465781 1.2401637e-10 0)
(0.57465781 -1.3272518e-10 0)
(0.57465781 1.2908732e-10 0)
(0.57465781 -1.2008853e-10 0)
(0.57465781 1.2405559e-10 0)
(0.57465781 -1.326403e-10 0)
(0.57465781 1.2923215e-10 0)
(0.57465781 -1.1986664e-10 0)
(0.57465781 1.2438291e-10 0)
(0.57465781 -1.3216823e-10 0)
(0.57465781 1.2990325e-10 0)
(0.57465781 -1.1892497e-10 0)
(0.57465781 1.2571685e-10 0)
(0.57465781 -1.3027538e-10 0)
(0.57465781 1.3258875e-10 0)
(0.57465781 -1.1516551e-10 0)
(0.57465781 1.3106152e-10 0)
(0.57465781 -1.2274083e-10 0)
(0.57465781 1.4336069e-10 0)
(0.57465781 -1.0019525e-10 0)
(0.57465781 1.529108e-10 0)
(0.57465781 -9.2873861e-11 0)
(0.57465781 1.8626311e-10 0)
(0.57465781 -4.2993502e-11 0)
(0.57465781 2.3150863e-10 0)
(0.57465781 1.0969319e-11 0)
(0.57465781 3.1789691e-10 0)
(0.57465781 1.6364881e-10 0)
(0.57465781 5.5009361e-10 0)
(0.57465781 4.8371706e-10 -2.9573196e-35)
(0.57465782 9.2487772e-10 0)
(0.57465782 6.2202805e-10 0)
(0.57465782 6.6114625e-10 -8.8719576e-36)
(0.57465782 -1.4133479e-10 0)
(0.57465783 -8.6168081e-10 0)
(0.5746578 -2.7528205e-09 0)
(0.57465785 -3.2093113e-09 0)
(0.54266722 -0.00033663028 0)
(0.54574749 -0.0014341326 0)
(0.54575103 -0.0019219019 0)
(0.54592647 -0.0018331779 0)
(0.54669169 -0.0015559161 0)
(0.54746049 -0.0012863333 0)
(0.54796604 -0.0010381954 0)
(0.54827089 -0.00079767833 0)
(0.54847279 -0.00057595241 0)
(0.54860961 -0.00039038433 0)
(0.54869298 -0.00024804871 0)
(0.54873661 -0.00014651775 0)
(0.54875613 -7.9143596e-05 0)
(0.54876317 -3.7989111e-05 0)
(0.54876441 -1.5202427e-05 0)
(0.54876336 -4.0188707e-06 0)
(0.54876173 5.3895332e-07 0)
(0.54876031 1.8349199e-06 0)
(0.54875932 1.7782768e-06 0)
(0.54875872 1.3112432e-06 0)
(0.54875838 8.3882058e-07 0)
(0.54875821 4.8755423e-07 0)
(0.54875812 2.6326415e-07 0)
(0.54875809 1.335278e-07 0)
(0.54875808 6.4115914e-08 0)
(0.54875808 2.9122251e-08 0)
(0.54875808 1.2515995e-08 0)
(0.54875808 4.9070618e-09 0)
(0.54875808 1.6969539e-09 0)
(0.54875809 3.1440019e-10 0)
(0.54875809 -1.3612235e-10 0)
(0.54875809 -3.4516506e-10 0)
(0.54875809 -3.0375298e-10 0)
(0.54875809 -3.0122917e-10 0)
(0.54875809 -1.9969136e-10 0)
(0.5487581 -2.0972648e-10 0)
(0.54875809 -1.0334346e-10 0)
(0.5487581 -1.1381833e-10 0)
(0.54875809 -3.6253388e-11 0)
(0.5487581 -8.2902705e-11 0)
(0.54875809 -9.0264395e-12 0)
(0.5487581 -4.5216709e-11 0)
(0.54875809 1.0665228e-11 0)
(0.5487581 -5.004221e-11 0)
(0.54875809 1.3822586e-11 0)
(0.5487581 -2.8830407e-11 0)
(0.54875809 2.326173e-11 0)
(0.5487581 -4.0845749e-11 0)
(0.54875809 2.0384306e-11 0)
(0.5487581 -2.3425883e-11 0)
(0.5487581 2.7692971e-11 0)
(0.5487581 -3.724598e-11 0)
(0.5487581 2.3284912e-11 0)
(0.5487581 -2.108322e-11 0)
(0.5487581 2.9451494e-11 0)
(0.5487581 -3.5854298e-11 0)
(0.5487581 2.4402712e-11 0)
(0.5487581 -2.0220724e-11 0)
(0.5487581 3.0076112e-11 0)
(0.5487581 -3.5386483e-11 0)
(0.5487581 2.476327e-11 0)
(0.5487581 -1.995172e-11 0)
(0.5487581 3.0268086e-11 0)
(0.5487581 -3.5240849e-11 0)
(0.5487581 2.4883021e-11 0)
(0.5487581 -1.9848907e-11 0)
(0.5487581 3.0362529e-11 0)
(0.5487581 -3.5138706e-11 0)
(0.5487581 2.5008296e-11 0)
(0.5487581 -1.9690529e-11 0)
(0.5487581 3.0566232e-11 0)
(0.5487581 -3.4863306e-11 0)
(0.5487581 2.5389842e-11 0)
(0.5487581 -1.9170825e-11 0)
(0.5487581 3.1272095e-11 0)
(0.5487581 -3.3870509e-11 0)
(0.5487581 2.6811155e-11 0)
(0.5487581 -1.7186674e-11 0)
(0.5487581 3.4017292e-11 0)
(0.5487581 -2.9981203e-11 0)
(0.5487581 3.2388895e-11 0)
(0.5487581 -9.4188657e-12 0)
(0.5487581 4.4753323e-11 0)
(0.5487581 -1.4908926e-11 0)
(0.5487581 5.3409939e-11 0)
(0.5487581 1.9474569e-11 0)
(0.5487581 8.4213518e-11 0)
(0.5487581 3.8728227e-11 0)
(0.5487581 1.2059688e-10 0)
(0.5487581 1.1600761e-10 0)
(0.5487581 2.2705386e-10 0)
(0.5487581 2.3777305e-10 0)
(0.5487581 3.1443837e-10 0)
(0.5487581 1.419614e-10 0)
(0.5487581 -3.6167944e-10 0)
(0.5487581 -1.1036012e-09 0)
(0.5487581 -3.1038779e-09 0)
(0.54875811 -5.0089597e-09 0)
(0.54875808 -1.0084851e-08 0)
(0.54875813 -1.0988965e-08 0)
(0.48646938 -0.00055664129 0)
(0.48876381 -0.0021287753 0)
(0.48827207 -0.0026628813 0)
(0.48777699 -0.0023822348 0)
(0.48769793 -0.0019058665 0)
(0.48765823 -0.0014956734 0)
(0.48750755 -0.001151874 0)
(0.48731218 -0.00084583933 0)
(0.48714287 -0.00058342768 0)
(0.48701676 -0.00037730445 0)
(0.48692708 -0.00022808997 0)
(0.48686603 -0.00012726115 0)
(0.48682763 -6.3823792e-05 0)
(0.48680579 -2.724827e-05 0)
(0.48679466 -8.4181337e-06 0)
(0.48678964 -1.4662736e-07 0)
(0.48678781 2.5670804e-06 0)
(0.48678745 2.8076449e-06 0)
(0.48678764 2.1906681e-06 0)
(0.48678793 1.4558173e-06 0)
(0.48678818 8.7142993e-07 0)
(0.48678835 4.8101691e-07 0)
(0.48678846 2.4810427e-07 0)
(0.48678852 1.1969157e-07 0)
(0.48678856 5.4148432e-08 0)
(0.48678858 2.2222061e-08 0)
(0.48678859 8.0859845e-09 0)
(0.48678859 1.7922052e-09 0)
(0.4867886 -2.4395659e-10 0)
(0.4867886 -1.1790124e-09 0)
(0.4867886 -1.0193881e-09 0)
(0.4867886 -1.1264758e-09 0)
(0.4867886 -6.7985672e-10 0)
(0.4867886 -7.5731053e-10 0)
(0.4867886 -3.6716576e-10 0)
(0.4867886 -5.0015533e-10 0)
(0.4867886 -1.3622123e-10 0)
(0.4867886 -3.2466877e-10 0)
(0.4867886 -2.4310314e-11 0)
(0.4867886 -2.436201e-10 0)
(0.4867886 5.1790279e-11 0)
(0.4867886 -1.8687855e-10 0)
(0.4867886 7.3279261e-11 0)
(0.4867886 -1.7097284e-10 0)
(0.4867886 1.0413143e-10 0)
(0.4867886 -1.4721216e-10 0)
(0.4867886 1.026447e-10 0)
(0.4867886 -1.4763974e-10 0)
(0.4867886 1.2327801e-10 0)
(0.4867886 -1.3217555e-10 0)
(0.4867886 1.1443559e-10 0)
(0.4867886 -1.3827052e-10 0)
(0.4867886 1.3066507e-10 0)
(0.4867886 -1.2643652e-10 0)
(0.4867886 1.1900158e-10 0)
(0.4867886 -1.3472298e-10 0)
(0.4867886 1.3335546e-10 0)
(0.4867886 -1.2440069e-10 0)
(0.4867886 1.2057525e-10 0)
(0.4867886 -1.3352585e-10 0)
(0.4867886 1.3424529e-10 0)
(0.4867886 -1.2373722e-10 0)
(0.4867886 1.210845e-10 0)
(0.4867886 -1.3313507e-10 0)
(0.4867886 1.3454619e-10 0)
(0.4867886 -1.2349481e-10 0)
(0.4867886 1.2129818e-10 0)
(0.4867886 -1.3293215e-10 0)
(0.4867886 1.3475357e-10 0)
(0.4867886 -1.2326136e-10 0)
(0.4867886 1.2158525e-10 0)
(0.4867886 -1.3256823e-10 0)
(0.4867886 1.3522331e-10 0)
(0.4867886 -1.2263094e-10 0)
(0.4867886 1.2246436e-10 0)
(0.4867886 -1.3134774e-10 0)
(0.4867886 1.36908e-10 0)
(0.4867886 -1.2026042e-10 0)
(0.4867886 1.258563e-10 0)
(0.4867886 -1.2656764e-10 0)
(0.4867886 1.4347741e-10 0)
(0.4867886 -1.1108875e-10 0)
(0.4867886 1.385912e-10 0)
(0.4867886 -1.0928482e-10 0)
(0.4867886 1.6626456e-10 0)
(0.4867886 -8.2106523e-11 0)
(0.4867886 1.7730303e-10 0)
(0.4867886 -6.4411835e-11 0)
(0.48678861 2.2025662e-10 0)
(0.4867886 -6.435413e-12 0)
(0.48678861 2.5546556e-10 0)
(0.4867886 6.9473792e-12 0)
(0.48678861 1.330766e-10 0)
(0.48678861 -4.5683403e-10 0)
(0.48678861 -9.4813919e-10 0)
(0.48678861 -2.191568e-09 0)
(0.4867886 -4.9499193e-09 0)
(0.48678861 -7.7329983e-09 0)
(0.48678859 -1.5814024e-08 0)
(0.48678863 -1.7548186e-08 0)
(0.3744673 -0.00066511041 0)
(0.37520789 -0.0021178098 0)
(0.37370945 -0.0023267595 0)
(0.37223805 -0.0018223435 0)
(0.37121921 -0.0012868287 0)
(0.37044361 -0.00091385516 0)
(0.36980001 -0.00064964866 0)
(0.36929442 -0.00044211518 0)
(0.36893335 -0.00028152742 0)
(0.36869453 -0.00016716795 0)
(0.36854572 -9.1870798e-05 0)
(0.3684589 -4.5363555e-05 0)
(0.36841266 -1.8674837e-05 0)
(0.36839105 -4.9605454e-06 0)
(0.36838289 9.898572e-07 0)
(0.36838118 2.7912575e-06 0)
(0.36838202 2.7554925e-06 0)
(0.36838347 2.0936921e-06 0)
(0.36838476 1.3806693e-06 0)
(0.36838567 8.2550102e-07 0)
(0.36838625 4.5582095e-07 0)
(0.36838659 2.3446433e-07 0)
(0.36838677 1.1216791e-07 0)
(0.36838686 4.9524589e-08 0)
(0.36838691 1.9337409e-08 0)
(0.36838693 6.0554594e-09 0)
(0.36838694 5.5014798e-10 0)
(0.36838694 -1.1816981e-09 0)
(0.36838694 -1.6611229e-09 0)
(0.36838694 -1.4231948e-09 0)
(0.36838694 -1.2641033e-09 0)
(0.36838694 -8.7579196e-10 0)
(0.36838694 -7.587699e-10 0)
(0.36838694 -4.7962439e-10 0)
(0.36838694 -4.6084599e-10 0)
(0.36838694 -2.2980331e-10 0)
(0.36838694 -2.7249055e-10 0)
(0.36838694 -1.0387164e-10 0)
(0.36838694 -1.8734652e-10 0)
(0.36838694 -2.6181349e-11 0)
(0.36838694 -1.2392412e-10 0)
(0.36838694 2.8135461e-12 0)
(0.36838694 -1.079618e-10 0)
(0.36838694 3.2341639e-11 0)
(0.36838694 -8.0429206e-11 0)
(0.36838694 3.5607254e-11 0)
(0.36838694 -8.3068478e-11 0)
(0.36838694 5.2414938e-11 0)
(0.36838694 -6.3603456e-11 0)
(0.36838694 4.8598884e-11 0)
(0.36838694 -7.2854129e-11 0)
(0.36838694 6.0420785e-11 0)
(0.36838694 -5.736399e-11 0)
(0.36838694 5.3406483e-11 0)
(0.36838694 -6.8993124e-11 0)
(0.36838694 6.3373819e-11 0)
(0.36838694 -5.5167281e-11 0)
(0.36838694 5.5065181e-11 0)
(0.36838694 -6.7694745e-11 0)
(0.36838694 6.4353732e-11 0)
(0.36838694 -5.4449235e-11 0)
(0.36838694 5.560296e-11 0)
(0.36838694 -6.727516e-11 0)
(0.36838694 6.4675077e-11 0)
(0.36838694 -5.4204885e-11 0)
(0.36838694 5.5800742e-11 0)
(0.36838694 -6.7098917e-11 0)
(0.36838694 6.4839651e-11 0)
(0.36838694 -5.4042087e-11 0)
(0.36838694 5.5981971e-11 0)
(0.36838694 -6.6878864e-11 0)
(0.36838694 6.5110825e-11 0)
(0.36838694 -5.3700275e-11 0)
(0.36838694 5.6443724e-11 0)
(0.36838694 -6.6233302e-11 0)
(0.36838694 6.5997355e-11 0)
(0.36838694 -5.2492107e-11 0)
(0.36838694 5.8169246e-11 0)
(0.36838694 -6.3759634e-11 0)
(0.36838694 6.9451977e-11 0)
(0.36838694 -4.784553e-11 0)
(0.36838694 6.4735455e-11 0)
(0.36838694 -5.4880371e-11 0)
(0.36838694 8.1384691e-11 0)
(0.36838694 -3.3175189e-11 0)
(0.36838694 8.4295915e-11 0)
(0.36838694 -3.0796776e-11 0)
(0.36838694 1.1008902e-10 0)
(0.36838694 4.0944482e-12 0)
(0.36838694 1.344112e-10 0)
(0.36838694 9.3604063e-12 0)
(0.36838694 9.845341e-11 0)
(0.36838694 -2.1518529e-10 0)
(0.36838694 -4.536212e-10 0)
(0.36838694 -1.1103447e-09 0)
(0.36838694 -2.1075454e-09 0)
(0.36838694 -4.773333e-09 0)
(0.36838694 -7.5956168e-09 0)
(0.36838692 -1.7012768e-08 0)
(0.36838694 -1.9124646e-08 0)
(0.17077473 -0.00042019327 0)
(0.1697984 -0.0009810431 0)
(0.16793491 -0.00086939615 0)
(0.16647209 -0.00054170538 0)
(0.16553828 -0.00030902868 0)
(0.1649241 -0.00018962199 0)
(0.16449194 -0.00012163157 0)
(0.16419163 -7.3764179e-05 0)
(0.16399654 -4.047696e-05 0)
(0.16387898 -1.9954962e-05 0)
(0.1638131 -8.4716726e-06 0)
(0.16377938 -2.4472381e-06 0)
(0.16376454 3.8995609e-07 0)
(0.16375991 1.3774899e-06 0)
(0.16376001 1.472707e-06 0)
(0.16376174 1.1975477e-06 0)
(0.16376363 8.4154078e-07 0)
(0.16376515 5.330531e-07 0)
(0.16376619 3.1055538e-07 0)
(0.16376683 1.6826949e-07 0)
(0.1637672 8.4582429e-08 0)
(0.16376739 3.9311176e-08 0)
(0.16376749 1.6259591e-08 0)
(0.16376753 5.6935118e-09 0)
(0.16376755 1.0140039e-09 0)
(0.16376756 -5.0003195e-10 0)
(0.16376756 -1.0385316e-09 0)
(0.16376756 -8.415709e-10 0)
(0.16376756 -8.0898558e-10 0)
(0.16376756 -4.976325e-10 0)
(0.16376756 -4.7930056e-10 0)
(0.16376756 -2.2313442e-10 0)
(0.16376755 -2.8269186e-10 0)
(0.16376755 -8.5172708e-11 0)
(0.16376755 -1.7652595e-10 0)
(0.16376755 4.9122572e-12 0)
(0.16376755 -1.2262357e-10 0)
(0.16376755 3.7340622e-11 0)
(0.16376755 -9.3986756e-11 0)
(0.16376755 6.2146367e-11 0)
(0.16376755 -8.4736316e-11 0)
(0.16376755 6.0620749e-11 0)
(0.16376755 -7.652668e-11 0)
(0.16376755 7.3149598e-11 0)
(0.16376755 -7.5893488e-11 0)
(0.16376755 6.6548353e-11 0)
(0.16376755 -7.1590294e-11 0)
(0.16376755 7.6083872e-11 0)
(0.16376755 -7.4356082e-11 0)
(0.16376755 6.7658236e-11 0)
(0.16376755 -7.0760387e-11 0)
(0.16376755 7.6622116e-11 0)
(0.16376755 -7.4000928e-11 0)
(0.16376755 6.7908318e-11 0)
(0.16376755 -7.0643921e-11 0)
(0.16376755 7.6708712e-11 0)
(0.16376755 -7.3924016e-11 0)
(0.16376755 6.7963267e-11 0)
(0.16376755 -7.0622333e-11 0)
(0.16376755 7.6723078e-11 0)
(0.16376755 -7.3908025e-11 0)
(0.16376755 6.7974543e-11 0)
(0.16376755 -7.0618662e-11 0)
(0.16376755 7.6726443e-11 0)
(0.16376755 -7.3901981e-11 0)
(0.16376755 6.7981492e-11 0)
(0.16376755 -7.0611975e-11 0)
(0.16376755 7.6736207e-11 0)
(0.16376755 -7.3887828e-11 0)
(0.16376755 6.7999296e-11 0)
(0.16376755 -7.0591191e-11 0)
(0.16376755 7.6764814e-11 0)
(0.16376755 -7.3847781e-11 0)
(0.16376755 6.804972e-11 0)
(0.16376755 -7.0529762e-11 0)
(0.16376755 7.6853972e-11 0)
(0.16376755 -7.3716905e-11 0)
(0.16376755 6.8217717e-11 0)
(0.16376755 -7.0318157e-11 0)
(0.16376755 7.7154838e-11 0)
(0.16376755 -7.3267876e-11 0)
(0.16376755 6.8745244e-11 0)
(0.16376755 -6.9658171e-11 0)
(0.16376755 7.8042213e-11 0)
(0.16376755 -7.1808601e-11 0)
(0.16376755 7.1322086e-11 0)
(0.16376755 -6.6162914e-11 0)
(0.16376755 8.4588156e-11 0)
(0.16376755 -6.0708532e-11 0)
(0.16376755 8.6981878e-11 0)
(0.16376755 -6.1825227e-11 0)
(0.16376755 5.1780609e-11 0)
(0.16376755 -2.0642443e-10 0)
(0.16376755 -2.1545843e-10 0)
(0.16376755 -5.5846038e-10 0)
(0.16376755 -1.0479286e-09 0)
(0.16376755 -2.2760844e-09 0)
(0.16376754 -3.9282875e-09 0)
(0.16376753 -8.6199063e-09 0)
(0.16376751 -9.190357e-09 0)
)
;

boundaryField
{