/*--------------------------------*- C++ -*----------------------------------*\
  =========                 |
  \\      /  F ield         | OpenFOAM: The Open Source CFD Toolbox
   \\    /   O peration     | Website:  https://openfoam.org
    \\  /    A nd           | Version:  6
     \\/     M anipulation  |
\*---------------------------------------------------------------------------*/
FoamFile
{
    version     2.0;
    format      ascii;
    class       volVectorField;
    location    "200";
    object      U_0;
}
// * * * * * * * * * * * * * * * * * * * * * * * * * * * * * * * * * * * * * //

dimensions      [0 1 -1 0 0 0 0];

internalField   nonuniform List<vector> 
9200
(
(0.0010393465 0.0014199821 -5.9201844e-20)
(0.013676069 -0.0020583674 4.6042535e-20)
(0.03831317 -0.0058665693 -3.8501738e-20)
(0.072274443 -0.009763507 -6.0257751e-20)
(0.11376475 -0.013490031 1.8826965e-20)
(0.1615809 -0.016605661 3.2743881e-20)
(0.2146715 -0.018817289 -1.2268009e-20)
(0.2720661 -0.019973895 9.268862e-21)
(0.33285625 -0.020011227 1.6803427e-20)
(0.3961635 -0.018929056 1.4848073e-21)
(0.46111559 -0.016779821 -2.1456337e-20)
(0.52683691 -0.013657736 2.0670004e-20)
(0.59245072 -0.0096880029 -4.0422147e-20)
(0.65709135 -0.0050157807 -2.1133901e-20)
(0.71992476 0.00020555774 5.9046526e-21)
(0.78017506 0.0058240919 -2.5131674e-20)
(0.83717064 0.01171281 2.5217116e-20)
(0.89046881 0.017918509 2.2243192e-20)
(0.93967076 0.02457341 -2.9930172e-22)
(0.98205191 0.028293379 -1.6691968e-21)
(0.0052521809 -0.0013462733 -1.7059353e-20)
(0.026962504 -0.0089890272 3.9747711e-20)
(0.061670121 -0.014809765 2.3576296e-20)
(0.1062949 -0.01917227 -1.1569758e-19)
(0.15873567 -0.022213997 -1.2727088e-20)
(0.21753353 -0.023720686 7.3297081e-20)
(0.28137298 -0.023595097 -3.5476401e-20)
(0.34900603 -0.021868965 -8.3905571e-21)
(0.41923923 -0.018645524 3.4287542e-20)
(0.49090947 -0.014080841 -4.3259581e-20)
(0.56287235 -0.0083759504 -3.0338482e-20)
(0.63400851 -0.0017665938 7.1921435e-20)
(0.70324334 0.0054883952 3.8294049e-20)
(0.76957586 0.013118633 -6.7976556e-20)
(0.8321125 0.020852083 1.462369e-20)
(0.89010041 0.028419704 -3.6733398e-20)
(0.94296921 0.035569672 -1.3777196e-20)
(0.99043235 0.042140883 7.0974761e-20)
(1.0323561 0.047715304 2.9641947e-20)
(1.0669348 0.049139683 -8.3478259e-20)
(0.010858427 -0.0040424161 3.6773458e-20)
(0.043953417 -0.015431078 2.5047364e-21)
(0.090515441 -0.022552284 2.2341712e-20)
(0.1471114 -0.02649736 9.8116827e-22)
(0.21134256 -0.027886299 -4.0773938e-20)
(0.28146769 -0.026795116 1.8576404e-20)
(0.35587042 -0.02338273 1.34203e-20)
(0.43299009 -0.017921539 -5.0327705e-20)
(0.5113248 -0.010735652 5.7261861e-20)
(0.58942617 -0.0021838826 1.4256689e-20)
(0.66590919 0.0073479027 -5.4300712e-20)
(0.73948039 0.01746026 -1.8237404e-20)
(0.80897602 0.027756558 9.0591609e-21)
(0.87340268 0.037859265 2.3444737e-20)
(0.93197366 0.047424035 -1.1362505e-20)
(0.98413371 0.056148963 2.7877725e-20)
(1.029574 0.063789161 -2.0188238e-20)
(1.0682646 0.070204378 -7.0123574e-20)
(1.1003322 0.075119361 -2.3796273e-20)
(1.1249112 0.076641219 4.8659756e-20)
(0.017957215 -0.0064221638 2.4508016e-20)
(0.064776999 -0.020694801 5.1039225e-20)
(0.12485229 -0.028060849 1.9881695e-20)
(0.19446967 -0.030464067 1.2990096e-20)
(0.27094933 -0.029094843 1.7275704e-20)
(0.35224881 -0.024388981 -4.7720173e-20)
(0.43643141 -0.016825975 -2.5646857e-20)
(0.52162011 -0.0069766729 0)
(0.60602898 0.004567029 1.3920618e-20)
(0.6879871 0.017211728 -5.8523401e-21)
(0.76597521 0.030373917 -9.793495e-20)
(0.83867451 0.043499626 -1.5774818e-20)
(0.9050153 0.056086609 6.5103201e-20)
(0.96421574 0.067704126 4.8442632e-22)
(1.0158035 0.078007705 -1.5725566e-21)
(1.0596156 0.086746781 2.1957493e-20)
(1.0957773 0.093772215 -5.2647212e-21)
(1.12468 0.099065319 -6.1029729e-20)
(1.1468647 0.10259706 -4.5851238e-20)
(1.1622957 0.10341384 6.9520522e-20)
(0.026579422 -0.0082056886 -3.9194203e-21)
(0.089344025 -0.024033507 -5.1256316e-21)
(0.16430755 -0.03026499 5.6599411e-20)
(0.24758121 -0.029810021 1.8539325e-20)
(0.33624162 -0.024513029 -3.1955068e-20)
(0.42795128 -0.015239861 1.216384e-20)
(0.52047264 -0.0028513648 2.6402863e-21)
(0.61166361 0.011737093 3.3609171e-20)
(0.69954715 0.027640139 5.6599507e-21)
(0.78236841 0.044028766 -1.3204741e-20)
(0.8586541 0.06014772 6.0154041e-20)
(0.92726915 0.075340465 -5.800936e-20)
(0.9874568 0.089072855 -1.3216614e-19)
(1.0388531 0.10094901 -5.5773038e-21)
(1.0814725 0.11071708 8.3150776e-20)
(1.1156656 0.11826404 0)
(1.1420548 0.12360582 1.0118956e-20)
(1.1614669 0.12689055 -1.5459773e-20)
(1.1748179 0.12829869 -8.5994655e-21)
(1.1826673 0.12744914 2.0992243e-20)
(0.036666911 -0.0090895802 -5.4309125e-21)
(0.11731512 -0.024685358 4.3578747e-21)
(0.20811869 -0.028140179 -8.7629842e-21)
(0.30515704 -0.023414956 2.8472395e-20)
(0.40533541 -0.013075592 -2.9392665e-20)
(0.5060715 0.001522614 -1.6927024e-20)
(0.60490493 0.019095139 3.7364233e-20)
(0.69954963 0.038365253 4.7595453e-21)
(0.78800396 0.058167643 -2.4436059e-20)
(0.86863409 0.077483002 6.9867563e-20)
(0.94023977 0.095458639 5.2393845e-22)
(1.0020956 0.11143156 -8.0444321e-20)
(1.0539569 0.1249429 0)
(1.0960273 0.13573749 3.9542119e-20)
(1.1288922 0.14374842 5.5236007e-21)
(1.1534278 0.14906892 -7.7566406e-20)
(1.1706991 0.15191913 -1.9586922e-20)
(1.1818624 0.15262367 -1.2467634e-20)
(1.1880592 0.15152605 -1.4709393e-20)
(1.1901461 0.14858491 4.0420547e-20)
(0.048058871 -0.0087674056 -1.7277959e-20)
(0.14808311 -0.021931994 -2.2198283e-21)
(0.25514071 -0.020797836 3.0380504e-20)
(0.36546386 -0.010412794 3.7484309e-20)
(0.47590423 0.0059015876 -1.9944734e-20)
(0.58374269 0.026269306 -6.9163034e-20)
(0.68644189 0.048977209 -2.7995798e-20)
(0.78176207 0.072417788 7.8929214e-20)
(0.867902 0.095212477 8.5778143e-21)
(0.9435892 0.11624961 -2.4873484e-20)
(1.0081259 0.13469827 1.3642213e-20)
(1.0613871 0.15001555 -4.3194494e-21)
(1.1037693 0.16193659 0)
(1.1360975 0.17044427 2.7203484e-20)
(1.1595046 0.17572308 -7.9322418e-20)
(1.1753021 0.17810368 -3.147553e-20)
(1.184857 0.17800812 8.105458e-20)
(1.1894921 0.17590944 -4.2969852e-21)
(1.1904029 0.17225557 3.5561066e-21)
(1.188508 0.16719297 2.7111579e-20)
(0.060485254 -0.0069573644 -3.2414616e-20)
(0.18077773 -0.015170382 -8.1624322e-20)
(0.30388931 -0.0075835275 2.5797746e-21)
(0.42642558 0.009703356 7.0161813e-20)
(0.54535152 0.032631554 6.2424378e-20)
(0.65798104 0.058820043 -7.1574524e-20)
(0.76190886 0.086176507 -2.8275086e-22)
(0.85518295 0.11285231 8.5522552e-20)
(0.9364535 0.13737837 4.8828072e-20)
(1.0050415 0.1586937 -5.421841e-20)
(1.0609356 0.17613563 -9.2334221e-20)
(1.1047243 0.18941354 -3.1589828e-21)
(1.1374759 0.19855943 4.2127869e-20)
(1.1605874 0.20385856 -6.605628e-21)
(1.1756247 0.20577019 -1.2868787e-20)
(1.1841777 0.20484918 1.9690808e-20)
(1.1877427 0.20167896 4.3880619e-20)
(1.1876454 0.19682587 -4.3859431e-20)
(1.1849954 0.19077883 -1.0232201e-19)
(1.180625 0.18377379 2.4566879e-20)
(0.073537219 -0.0034329737 -3.4979751e-20)
(0.21422688 -0.003989026 -1.7388612e-19)
(0.35251659 0.011839376 8.2103245e-20)
(0.485628 0.037018337 9.2767519e-20)
(0.61085382 0.066835553 5.7970569e-20)
(0.7257673 0.098481179 8.6107098e-21)
(0.82834806 0.12959696 -1.062401e-19)
(0.91719001 0.15824269 0)
(0.99162748 0.18302814 -6.8748592e-20)
(1.0517521 0.20311206 -1.520241e-20)
(1.0983384 0.2181486 5.4703469e-20)
(1.1327008 0.22821082 1.097338e-20)
(1.156511 0.2336926 -4.5613856e-20)
(1.1716068 0.23519946 -4.9081364e-20)
(1.1798204 0.23344335 2.4287681e-20)
(1.182845 0.22915322 4.4822893e-20)
(1.1821489 0.22300985 -5.560041e-20)
(1.178936 0.21560821 -1.0751122e-19)
(1.1741469 0.20742223 -3.1513626e-21)
(1.1684567 0.1987188 2.7046399e-20)
(0.086650451 0.001961386 -3.5448997e-21)
(0.2469602 0.011816635 8.7913244e-20)
(0.39884741 0.03749231 -1.6479244e-20)
(0.54040468 0.071218383 -8.4309152e-20)
(0.66949905 0.10778893 4.5164373e-20)
(0.78421956 0.14411544 4.9175455e-20)
(0.88318943 0.17775669 5.5356784e-21)
(0.96577874 0.2068849 -9.9502494e-20)
(1.0321763 0.23038802 -2.5048781e-21)
(1.0833328 0.24781553 5.0503545e-20)
(1.120807 0.25926301 5.985476e-21)
(1.1465558 0.26523619 -1.9717209e-20)
(1.1627108 0.26650533 -7.5704631e-20)
(1.1713765 0.26396621 -6.2554021e-21)
(1.1744762 0.25852429 4.3533355e-20)
(1.1736548 0.25101088 3.7022014e-20)
(1.1702383 0.24213394 1.9793441e-20)
(1.1652403 0.23245874 -5.2994844e-20)
(1.1594014 0.22240417 1.295745e-20)
(1.1532252 0.21223798 8.2659098e-20)
(-0.0012932616 0.0014346599 -1.1234442e-21)
(-0.0047459606 0.0031874151 2.0646969e-21)
(-0.010771359 0.0041359044 8.7950174e-22)
(-0.017754288 0.0045395363 -2.4411028e-21)
(-0.024740319 0.0045654169 -1.4114826e-21)
(-0.031299594 0.0043260389 1.5460001e-21)
(-0.037161329 0.0039035384 -6.8700817e-21)
(-0.042147444 0.003357722 -5.9573026e-21)
(-0.046157777 0.0027313814 1.1171998e-20)
(-0.049146191 0.0020548307 -9.7427492e-21)
(-0.051100655 0.0013493005 -1.9832954e-22)
(-0.052030445 0.00062942195 3.6673451e-21)
(-0.051957739 -9.4889518e-05 -6.329555e-22)
(-0.050911883 -0.0008169305 2.2818745e-20)
(-0.048925779 -0.0015318449 3.0401053e-22)
(-0.046035342 -0.0022351743 -4.0882873e-20)
(-0.042281798 -0.0029222683 7.5385624e-21)
(-0.037703443 -0.0035910389 2.3864111e-20)
(-0.032308694 -0.004239987 -4.3852376e-20)
(-0.026156963 -0.0048211137 -2.7739205e-20)
(-0.0016522 0.0041808666 -5.3716036e-21)
(-0.0053974814 0.0092681387 1.0865439e-20)
(-0.01121851 0.012007444 -1.0191544e-20)
(-0.017658026 0.013153765 3.9229751e-21)
(-0.023856433 0.013195414 4.8121445e-21)
(-0.029433318 0.012462725 7.1324188e-22)
(-0.034152321 0.011197014 -2.250949e-20)
(-0.037860379 0.0095738972 -2.0370244e-21)
(-0.040474299 0.0077189875 2.0163542e-20)
(-0.041958923 0.0057212305 -5.0473603e-21)
(-0.042308951 0.0036428645 -2.1762591e-20)
(-0.041537338 0.0015267126 4.8973171e-21)
(-0.039667713 -0.00059830572 2.2635421e-20)
(-0.036729082 -0.0027127614 1.0308391e-20)
(-0.032752034 -0.0048026897 2.1854286e-20)
(-0.027769171 -0.0068555091 -1.9770729e-20)
(-0.021824795 -0.0088582205 -2.1672945e-20)
(-0.014966271 -0.010804226 2.1184618e-20)
(-0.0071290182 -0.012679002 2.6810366e-20)
(0.0018742944 -0.014317225 1.5854767e-20)
(-0.0023034293 0.006560233 -4.3568694e-21)
(-0.0065392241 0.014480196 -5.6387547e-21)
(-0.011892132 0.018710544 3.0723937e-22)
(-0.017211099 0.020428181 1.0959879e-21)
(-0.021819142 0.020400324 6.6918412e-21)
(-0.025431042 0.019151666 1.066517e-20)
(-0.027877232 0.017066288 -3.7227639e-21)
(-0.029053269 0.014423783 -1.8896167e-20)
(-0.028909037 0.011424352 6.5413177e-21)
(-0.02743105 0.008209905 1.286257e-20)
(-0.024627714 0.0048797757 5.8340861e-21)
(-0.020520109 0.0015022381 1.8159106e-20)
(-0.015135986 -0.001876864 1.7295915e-21)
(-0.008505399 -0.0052272487 -3.3864529e-20)
(-0.00065689311 -0.0085276113 1.2020175e-21)
(0.0083810166 -0.011759111 -2.2139212e-20)
(0.018556866 -0.014904098 -2.4466304e-20)
(0.02980218 -0.017953754 4.5819712e-20)
(0.042304962 -0.020855119 2.5349348e-20)
(0.056738569 -0.023247768 1.2239223e-22)
(-0.0031290278 0.0083689704 -5.2833076e-21)
(-0.0078963991 0.018336514 -8.4815284e-21)
(-0.012438986 0.02358781 4.3593051e-21)
(-0.016026535 0.025609659 4.1463455e-21)
(-0.018235024 0.025382746 2.010571e-21)
(-0.018912651 0.023589322 7.3209961e-21)
(-0.017984717 0.020730273 9.3124785e-21)
(-0.01541671 0.017170378 -1.3511354e-21)
(-0.011207048 0.013171314 -1.1481947e-20)
(-0.0053752341 0.0089189312 -2.9071879e-20)
(0.0020481104 0.0045434366 6.1892569e-23)
(0.011026506 0.0001343101 4.0697823e-20)
(0.021522222 -0.0042489521 -1.8383172e-20)
(0.033497847 -0.0085675864 -1.2296088e-20)
(0.046920508 -0.012795548 5.5348931e-22)
(0.06176009 -0.016911857 3.2302645e-20)
(0.077953007 -0.020901672 -1.4829545e-20)
(0.095392257 -0.024763378 -5.3339186e-20)
(0.11439844 -0.02837972 4.5765013e-20)
(0.13634537 -0.031073098 3.3013177e-20)
(-0.0039704098 0.0094657327 -6.878899e-22)
(-0.0090916583 0.020487793 -1.2534741e-20)
(-0.012364471 0.026159088 -3.4144538e-20)
(-0.01355254 0.028143339 -5.7241625e-21)
(-0.01253324 0.027555008 -3.6222743e-21)
(-0.0093167245 0.025188065 6.305104e-21)
(-0.0039456448 0.021627412 -4.6461961e-21)
(0.0035261283 0.01729896 -8.8070274e-21)
(0.013036821 0.012508752 2.1899711e-20)
(0.024521242 0.0074744421 5.0567073e-21)
(0.037915539 0.0023489031 -2.5290296e-20)
(0.053157446 -0.0027627854 1.1078279e-20)
(0.070186869 -0.0077908763 0)
(0.088946583 -0.012691305 1.2089576e-20)
(0.10938544 -0.017436922 -9.7016181e-21)
(0.13145742 -0.022009899 -1.433712e-20)
(0.15507407 -0.026408649 -1.5738937e-21)
(0.18006761 -0.030659424 -2.2181559e-21)
(0.20685342 -0.034576538 4.6147068e-20)
(0.2376636 -0.037019873 -1.047013e-20)
(-0.0046450981 0.0097808628 -7.5356682e-21)
(-0.0096772511 0.020747881 2.4516401e-20)
(-0.011064381 0.026160978 -1.0499347e-20)
(-0.0090968327 0.027724446 -2.7469283e-20)
(-0.0039797206 0.026601695 -2.7548148e-20)
(0.0040961834 0.023648409 -1.492157e-20)
(0.01495415 0.019496458 -6.9059602e-22)
(0.028436237 0.014604705 5.5499785e-21)
(0.044403149 0.0093034461 1.9615879e-20)
(0.062730499 0.0038284146 7.3530858e-21)
(0.08330432 -0.0016547564 -7.1862214e-21)
(0.10601898 -0.0070322404 -2.0102307e-21)
(0.13077358 -0.0122291 -3.8191712e-20)
(0.15746944 -0.017199755 -1.2693645e-20)
(0.18601201 -0.021919738 1.8750607e-20)
(0.21631178 -0.026379721 -2.1021674e-20)
(0.24823224 -0.030602227 -8.9730577e-21)
(0.28151869 -0.034670612 3.0440466e-20)
(0.31660706 -0.038364825 5.0472071e-20)
(0.35665017 -0.039964106 3.3559654e-21)
(-0.0049617686 0.0093139991 1.6783305e-20)
(-0.0091662695 0.01909771 1.4467939e-20)
(-0.0078593649 0.023563367 5.1145489e-20)
(-0.0018585392 0.024328944 2.3387982e-20)
(0.0082957238 0.022523784 1.8251775e-22)
(0.022221942 0.019014385 -3.9388457e-20)
(0.039597444 0.014440936 -2.4313861e-20)
(0.060147907 0.009266359 1.0465818e-20)
(0.08363912 0.0038232272 1.4401587e-20)
(0.1098667 -0.0016513006 -1.3113712e-20)
(0.13864563 -0.0069910114 -4.4038717e-20)
(0.16980171 -0.01208285 2.96185e-20)
(0.20316406 -0.016854162 2.0020552e-20)
(0.23855947 -0.021263998 -2.7551157e-20)
(0.27581232 -0.025296406 1.1650135e-20)
(0.31474812 -0.028957172 2.4197613e-20)
(0.35514548 -0.032303057 8.0723945e-21)
(0.39663389 -0.035506681 -1.176421e-20)
(0.43957704 -0.038392648 -1.4190296e-20)
(0.48798513 -0.038634407 5.8727533e-21)
(-0.0047307764 0.0081236736 1.1093846e-20)
(-0.0070586006 0.015671176 -2.335272e-20)
(-0.0020293657 0.018562033 8.6200554e-21)
(0.009032521 0.018216225 3.3587968e-20)
(0.025256363 0.01565115 5.2124341e-20)
(0.046066341 0.011695603 2.027651e-20)
(0.070984527 0.0069609518 -5.863936e-21)
(0.099601954 0.0018829504 -1.2286284e-20)
(0.13156895 -0.0032271994 -6.2057473e-21)
(0.16657568 -0.0081496591 3.4240836e-20)
(0.20433426 -0.012733322 -4.5104391e-21)
(0.24456486 -0.016879189 -1.6643301e-20)
(0.28698471 -0.020528688 -1.9693573e-20)
(0.33129999 -0.023656414 -4.7443739e-20)
(0.3772046 -0.026265535 2.3238703e-20)
(0.42438772 -0.028387863 -1.4095984e-20)
(0.47249976 -0.030127622 2.5993401e-20)
(0.5210362 -0.03178319 2.1040823e-20)
(0.57021398 -0.033350679 -8.5570377e-20)
(0.62470919 -0.03205884 -1.0807379e-22)
(-0.0037710521 0.0063146397 2.1925056e-20)
(-0.0028657663 0.010735096 -2.616553e-20)
(0.0071421054 0.011564137 -4.5013296e-20)
(0.024450234 0.0099249899 -2.7253782e-20)
(0.047870853 0.006652306 -2.0439869e-21)
(0.076628707 0.0024906169 1.3050095e-20)
(0.11007674 -0.0020153958 -2.8337696e-21)
(0.14765207 -0.0064879048 1.8118537e-20)
(0.18886097 -0.010663504 8.8685616e-21)
(0.23325196 -0.014362422 -1.1380172e-20)
(0.2803915 -0.01746895 8.8779139e-21)
(0.32984605 -0.019916806 -2.3903268e-20)
(0.38116882 -0.021678698 8.050479e-21)
(0.43389087 -0.022759875 1.6756392e-20)
(0.48751938 -0.0231943 -2.639514e-21)
(0.54154718 -0.02304689 1.6618983e-21)
(0.59543548 -0.022469444 -3.1957689e-22)
(0.64851786 -0.021870103 1.9590422e-20)
(0.70082243 -0.02144506 4.0434014e-21)
(0.75745154 -0.018499078 -5.7334958e-22)
(-0.0019110144 0.0040273483 2.3692113e-20)
(0.0038694303 0.0046765205 5.715996e-20)
(0.020315312 0.0031879647 -4.9244226e-20)
(0.045178287 0.00029442633 -9.9454149e-21)
(0.076965156 -0.0034241518 2.0256345e-20)
(0.11469623 -0.007353586 2.1433718e-21)
(0.15753884 -0.011054957 -2.9815162e-20)
(0.20474832 -0.014244139 6.9848105e-21)
(0.25564951 -0.016737928 7.109788e-21)
(0.30960474 -0.018426957 -2.6254078e-20)
(0.36598649 -0.019260098 1.2927328e-21)
(0.4241596 -0.019231867 -3.7174113e-20)
(0.48347104 -0.018372202 -3.6341015e-20)
(0.54324568 -0.016738275 6.5683479e-20)
(0.60278815 -0.014407301 5.5627483e-21)
(0.66138888 -0.011475897 -1.5188794e-20)
(0.71830788 -0.0081020438 1.9363968e-20)
(0.77269905 -0.0045928643 -9.1888148e-22)
(0.82408839 -0.00096804673 2.036458e-20)
(0.87621971 0.0043280703 -1.955416e-20)
(-0.01883642 -0.005099703 5.835204e-20)
(-0.010224659 -0.0056349263 1.578367e-20)
(-0.00022119964 -0.006068879 -3.5139563e-20)
(0.01082322 -0.0063341084 1.6790234e-20)
(0.022642458 -0.0065120455 0)
(0.035177875 -0.0066300883 0)
(0.048369649 -0.0066909715 -2.2974936e-20)
(0.062138062 -0.0067025378 -1.6502859e-20)
(0.076412702 -0.0066741722 1.9122587e-20)
(0.091134061 -0.0066126635 1.8174025e-20)
(0.10624716 -0.0065232035 1.0524247e-21)
(0.12170021 -0.0064103557 -1.0317634e-20)
(0.13744489 -0.0062780788 8.3268777e-21)
(0.15343599 -0.00612972 1.8233714e-20)
(0.16963076 -0.0059681427 -5.2274153e-21)
(0.18598854 -0.0057958321 -1.0174933e-20)
(0.20247057 -0.0056149596 -4.3195867e-21)
(0.21903983 -0.0054274339 -4.4257387e-21)
(0.23566089 -0.0052349474 7.3667201e-22)
(0.25229989 -0.0050390102 1.2286037e-21)
(0.26892449 -0.0048409775 2.5666302e-21)
(0.2855039 -0.0046420689 6.6539451e-21)
(0.30200894 -0.0044433837 2.4894473e-22)
(0.31841207 -0.0042459113 -3.4514695e-21)
(0.33468744 -0.0040505393 1.5558773e-22)
(0.35081099 -0.0038580592 -5.7709773e-22)
(0.36676046 -0.0036691711 1.2434361e-21)
(0.38251544 -0.0034844873 1.0522436e-21)
(0.39805741 -0.0033045363 -1.2987929e-21)
(0.41336975 -0.0031297663 -1.221874e-22)
(0.42843773 -0.0029605492 3.5749947e-23)
(0.44324849 -0.002797185 -3.518758e-22)
(0.45779105 -0.0026399068 -4.0565414e-22)
(0.4720562 -0.002488886 5.5413141e-23)
(0.48603655 -0.0023442377 -1.3809032e-22)
(0.49972638 -0.0022060274 -2.2343158e-22)
(0.51312169 -0.0020742772 2.5571917e-22)
(0.52622013 -0.0019489729 2.9501966e-22)
(0.5390209 -0.0018300726 -8.2713231e-24)
(0.55152511 -0.0017175109 -1.5517414e-22)
(0.56373472 -0.0016112268 3.04066e-23)
(0.57565634 -0.00151112 -4.0144779e-23)
(0.58729012 -0.0014172616 9.2203917e-23)
(0.59866509 -0.0013293152 2.1977178e-23)
(0.60973562 -0.0012485642 -1.1394633e-22)
(0.6206937 -0.0011717995 -6.7613978e-24)
(0.63106174 -0.0011112512 -7.2339689e-26)
(0.64235033 -0.001033955 -3.5613452e-24)
(0.65042832 -0.0010508134 2.945366e-23)
(0.66700935 -0.0008755686 3.6050885e-22)
(0.010445874 -0.015017611 -1.2746814e-20)
(0.018179704 -0.016641014 -6.3302343e-20)
(0.027779223 -0.017915416 -3.054194e-20)
(0.038385155 -0.018672074 3.8476012e-20)
(0.049620998 -0.019183591 1.4662609e-20)
(0.061506642 -0.019529435 -1.8204932e-20)
(0.074012835 -0.019709868 4.6722089e-21)
(0.087062686 -0.019746495 2.5447185e-20)
(0.10059316 -0.019667284 9.1990722e-23)
(0.11455403 -0.019491704 -7.6591247e-21)
(0.12889719 -0.019234363 -1.3021014e-20)
(0.14357603 -0.018908315 -8.5245309e-21)
(0.15854666 -0.018524976 1.7772335e-20)
(0.17376757 -0.018094004 8.9295449e-21)
(0.18919901 -0.017623683 -1.6522438e-20)
(0.20480279 -0.017121235 -6.0390583e-21)
(0.22054217 -0.016593 3.2145049e-21)
(0.23638178 -0.016044574 8.3716327e-21)
(0.25228756 -0.015480935 6.9832273e-21)
(0.26822677 -0.014906544 -6.9727162e-21)
(0.28416797 -0.014325417 -3.1685463e-21)
(0.30008114 -0.013741178 1.3605341e-21)
(0.3159377 -0.013157102 3.868283e-22)
(0.33171059 -0.012576144 1.2113954e-21)
(0.34737434 -0.012000962 1.8368368e-22)
(0.36290518 -0.011433928 -3.2661639e-22)
(0.37828103 -0.010877145 -7.2434881e-22)
(0.3934816 -0.010332457 9.7156624e-22)
(0.40848841 -0.0098014589 8.2482978e-22)
(0.42328481 -0.0092855059 -1.5147396e-22)
(0.43785597 -0.0087857266 5.530611e-22)
(0.4521889 -0.0083030357 -2.388092e-22)
(0.46627237 -0.0078381476 -3.7069932e-22)
(0.48009695 -0.0073915928 -6.099914e-22)
(0.49365493 -0.0069637341 4.4171755e-22)
(0.50694026 -0.0065547855 -1.5477779e-23)
(0.51994855 -0.0061648316 1.6124795e-22)
(0.53267705 -0.0057938475 -4.417486e-22)
(0.54512452 -0.0054417265 3.7189655e-22)
(0.55729163 -0.0051082901 6.7175387e-23)
(0.56917985 -0.0047933736 -1.0285399e-22)
(0.58079528 -0.0044966932 1.7613817e-22)
(0.59213766 -0.0042184778 2.3339849e-22)
(0.60323526 -0.0039577375 1.6926667e-22)
(0.61404261 -0.0037183182 1.6767446e-22)
(0.62474885 -0.0034906642 -2.6098443e-23)
(0.63488277 -0.003311225 8.4046557e-23)
(0.64593202 -0.0030818841 7.6294434e-23)
(0.65383047 -0.0031323751 -1.9466863e-22)
(0.67009253 -0.0026124618 -3.8026272e-23)
(0.067614694 -0.024029148 9.4528303e-21)
(0.073589677 -0.026749052 3.295097e-21)
(0.082265514 -0.028805571 -1.2162203e-20)
(0.091947828 -0.029968506 -1.2257969e-21)
(0.10198322 -0.030767866 1.4970591e-20)
(0.11254635 -0.031330894 -1.4887121e-20)
(0.12367598 -0.031636073 -2.9842275e-20)
(0.13529683 -0.031713008 1.4493522e-20)
(0.14735697 -0.031607639 1.8181964e-20)
(0.15982344 -0.031350059 -1.1598515e-20)
(0.17266061 -0.030961823 1.0190551e-21)
(0.18583084 -0.030462756 8.6860122e-21)
(0.19929786 -0.029870555 -1.5253542e-20)
(0.2130266 -0.029200242 2.9095117e-21)
(0.22698246 -0.028464763 7.5194348e-21)
(0.24113144 -0.027675508 3.1598544e-23)
(0.25544019 -0.026842562 2.6556366e-22)
(0.26987611 -0.0259749 -7.4150859e-21)
(0.28440737 -0.025080568 3.8616831e-21)
(0.29900305 -0.024166823 8.4749049e-21)
(0.3136332 -0.023240238 -3.8351761e-21)
(0.32826899 -0.022306778 -2.2130366e-21)
(0.34288279 -0.02137186 1.0124437e-21)
(0.35744829 -0.020440391 -1.7155327e-21)
(0.37194059 -0.019516798 1.3532255e-21)
(0.3863363 -0.018605052 7.1845924e-22)
(0.40061361 -0.01770868 1.5268399e-21)
(0.41475236 -0.016830789 -1.9526629e-21)
(0.42873405 -0.015974075 2.2235696e-21)
(0.44254191 -0.015140839 5.5188568e-22)
(0.45616089 -0.014333012 4.0322675e-22)
(0.46957766 -0.013552166 3.2134478e-22)
(0.48278059 -0.012799547 8.7325131e-22)
(0.49575972 -0.012076093 -1.3708626e-21)
(0.50850675 -0.011382464 3.7065636e-22)
(0.521015 -0.010719075 1.0941373e-22)
(0.53327936 -0.010086125 -4.517256e-23)
(0.54529629 -0.0094836299 8.6732374e-23)
(0.55706376 -0.0089114694 -3.7185068e-22)
(0.56858156 -0.0083694033 1.8293583e-22)
(0.57985032 -0.0078572128 -3.4987209e-23)
(0.59087517 -0.0073744794 3.9004523e-22)
(0.60165504 -0.0069216326 -1.8544609e-22)
(0.6122168 -0.0064970838 4.7323775e-23)
(0.62251534 -0.0061072217 4.3604289e-23)
(0.63273437 -0.005736359 -7.3600742e-23)
(0.64241483 -0.0054444363 -1.2082826e-22)
(0.65300041 -0.0050705321 3.8810044e-22)
(0.66055048 -0.0051542816 1.7270872e-22)
(0.67619427 -0.0043070538 -8.3040205e-22)
(0.15021529 -0.031460432 1.5010112e-21)
(0.15354691 -0.035257398 -1.1566604e-20)
(0.16061624 -0.038010923 6.6441816e-21)
(0.16880592 -0.039479101 -1.3324733e-20)
(0.17698226 -0.040520693 -1.9758307e-21)
(0.18552348 -0.041302284 9.1599379e-21)
(0.19458422 -0.041757241 -9.7661983e-21)
(0.20408694 -0.041913715 1.5662901e-21)
(0.2139877 -0.041833335 1.2903795e-20)
(0.22427601 -0.04155434 3.4032033e-21)
(0.23493257 -0.041102049 -6.2096948e-21)
(0.24593024 -0.040500454 -2.8638105e-21)
(0.25724162 -0.039771754 -5.8409113e-21)
(0.26883915 -0.038935061 -6.4553125e-21)
(0.28069427 -0.038006981 3.2356932e-21)
(0.29277767 -0.037002309 8.4620881e-22)
(0.30505979 -0.035934332 1.3679585e-21)
(0.31751104 -0.034815029 -3.3850419e-21)
(0.33010201 -0.033655256 -4.2428859e-21)
(0.34280369 -0.032464903 2.3616509e-21)
(0.35558764 -0.031253005 3.225136e-21)
(0.36842621 -0.030027824 -1.56362e-21)
(0.38129268 -0.02879691 1.586727e-21)
(0.39416142 -0.027567141 -3.9124018e-22)
(0.407008 -0.026344753 -3.919642e-21)
(0.41980934 -0.025135362 -3.0332821e-21)
(0.43254374 -0.023943986 -1.9026318e-22)
(0.44519101 -0.02277506 4.2858905e-22)
(0.45773251 -0.021632452 -2.2106041e-21)
(0.47015114 -0.020519489 -8.5497287e-22)
(0.48243144 -0.019438978 2.283766e-22)
(0.49455953 -0.018393234 -1.2498698e-21)
(0.50652313 -0.017384111 6.2626504e-24)
(0.51831154 -0.01641304 -4.2420963e-22)
(0.52991562 -0.015481063 -4.7193641e-22)
(0.54132776 -0.014588876 -5.1995864e-22)
(0.55254186 -0.013736874 -8.4133383e-22)
(0.56355331 -0.012925198 -5.4496089e-23)
(0.57435898 -0.012153794 -3.9160501e-24)
(0.58495748 -0.011422439 -5.1972564e-22)
(0.59534826 -0.010730937 -9.1606767e-23)
(0.60553516 -0.010078812 -3.3239608e-22)
(0.61551601 -0.0094667552 -4.3760358e-22)
(0.62531579 -0.0088926694 3.7842133e-22)
(0.63488991 -0.0083654392 1.4821143e-23)
(0.6444144 -0.007863619 1.8237891e-22)
(0.65344771 -0.0074693811 -1.3247061e-22)
(0.66337037 -0.0069629956 -2.6691629e-22)
(0.67042248 -0.0070792016 -4.4688863e-23)
(0.68517954 -0.0059327433 4.6229789e-22)
(0.25468566 -0.036552758 -2.0900302e-20)
(0.2544702 -0.041393509 4.7585921e-20)
(0.25907333 -0.044745657 1.0348082e-20)
(0.26508412 -0.046442042 -1.5765319e-20)
(0.27070932 -0.047714315 -2.0227805e-21)
(0.27651994 -0.048747776 2.6232533e-21)
(0.28283548 -0.049413718 -1.6608049e-21)
(0.28957689 -0.049728099 -4.6861387e-21)
(0.29669656 -0.04976143 -4.0159124e-21)
(0.30420546 -0.049557052 -1.2207632e-20)
(0.31210217 -0.049141687 1.789776e-20)
(0.32036936 -0.048540802 6.5219879e-21)
(0.32898698 -0.047778966 -1.678053e-20)
(0.33793401 -0.04687802 1.0317576e-20)
(0.34718706 -0.045857301 8.3849863e-21)
(0.35672073 -0.044734314 -8.792331e-22)
(0.36650843 -0.043525069 -3.1222224e-21)
(0.37652287 -0.04224425 -3.8197312e-21)
(0.3867364 -0.040905362 -1.3892575e-21)
(0.39712129 -0.039520855 -1.2304192e-21)
(0.40765008 -0.038102225 -3.025761e-21)
(0.41829578 -0.036660073 0)
(0.42903213 -0.035204158 -1.3451914e-21)
(0.43983373 -0.033743427 3.9309513e-21)
(0.45067625 -0.032286033 5.4052675e-21)
(0.4615365 -0.030839359 -9.4112564e-22)
(0.47239261 -0.029410033 -2.9274449e-21)
(0.48322402 -0.028003941 3.02584e-21)
(0.49401162 -0.026626251 2.5447398e-22)
(0.50473777 -0.025281434 3.4352472e-21)
(0.51538629 -0.023973297 -5.3459753e-22)
(0.52594253 -0.022705016 1.7173477e-21)
(0.53639332 -0.021479172 -7.9964453e-22)
(0.54672697 -0.020297801 2.9094209e-22)
(0.5569333 -0.019162439 -4.3404021e-22)
(0.56700354 -0.018074175 5.6231694e-22)
(0.57693039 -0.017033711 4.5709965e-22)
(0.58670799 -0.016041415 3.825568e-22)
(0.59633187 -0.015097403 -9.5936452e-22)
(0.6057993 -0.014201571 6.8355648e-22)
(0.61510832 -0.01335384 -3.6957495e-22)
(0.62426127 -0.012553771 -1.1033245e-21)
(0.63325474 -0.011802393 1.4078259e-21)
(0.64211143 -0.011097215 -6.2006157e-23)
(0.65078753 -0.010449541 -1.5816145e-22)
(0.65944953 -0.0098326696 -7.8245618e-24)
(0.66767808 -0.0093492893 -1.2621881e-22)
(0.67677399 -0.0087262527 -4.6583192e-22)
(0.68320588 -0.0088736988 8.7882703e-22)
(0.69685146 -0.0074649641 -4.4315946e-23)
(0.3763513 -0.038368166 -1.7495095e-20)
(0.37170977 -0.044270228 1.2832038e-20)
(0.3728669 -0.048161612 2.9754504e-21)
(0.37591046 -0.050098851 -7.635385e-21)
(0.37830527 -0.051669972 1.2056003e-20)
(0.38072294 -0.053042373 7.7914156e-21)
(0.38367602 -0.054030039 -1.264767e-20)
(0.38710058 -0.054633101 -6.0679655e-21)
(0.39092924 -0.054918002 1.2697325e-20)
(0.39518244 -0.054927132 -1.5304982e-20)
(0.39987426 -0.054687514 -1.4063206e-20)
(0.40499508 -0.054224652 1.4129619e-20)
(0.41052863 -0.053563659 6.8193841e-21)
(0.41645719 -0.052727948 -4.2037752e-21)
(0.42276016 -0.051739015 -1.8545522e-21)
(0.42941405 -0.050616749 -4.0581686e-21)
(0.43639349 -0.049379701 5.304762e-21)
(0.44367197 -0.048045227 3.6682095e-21)
(0.45122226 -0.046629548 -3.2408299e-21)
(0.45901681 -0.045147815 3.1379489e-21)
(0.4670281 -0.043614159 2.7666808e-21)
(0.47522894 -0.042041727 -3.2111139e-21)
(0.48359271 -0.040442702 3.7056568e-22)
(0.49209359 -0.038828318 -3.2571648e-21)
(0.50070668 -0.037208866 7.2454185e-21)
(0.50940818 -0.035593708 6.1080625e-21)
(0.51817549 -0.033991283 8.0973282e-22)
(0.52698729 -0.032409125 -1.7683239e-21)
(0.53582361 -0.030853886 3.702181e-21)
(0.54466587 -0.029331361 7.1885266e-21)
(0.55349693 -0.027846522 2.3049326e-21)
(0.56230105 -0.026403562 3.3164908e-21)
(0.57106394 -0.025005946 1.9956232e-21)
(0.57977275 -0.023656456 7.4558071e-22)
(0.58841603 -0.022357262 -2.6374569e-22)
(0.59698374 -0.021109979 2.7203184e-21)
(0.60546722 -0.019915738 6.1992337e-22)
(0.61385924 -0.018775259 2.9487844e-22)
(0.6221539 -0.017688946 5.6232611e-23)
(0.63034701 -0.016656922 9.8966999e-22)
(0.63843515 -0.015679335 4.7020211e-23)
(0.64641907 -0.014755884 4.4247737e-22)
(0.65429406 -0.01388802 -1.2621868e-22)
(0.66208036 -0.01307298 -2.7735107e-22)
(0.66973525 -0.012324387 -1.5218802e-22)
(0.67741419 -0.011610876 -4.220847e-22)
(0.68472405 -0.011053583 1.6139677e-22)
(0.69287233 -0.01033238 -1.2723803e-22)
(0.69859521 -0.01050949 -5.0126256e-22)
(0.71095774 -0.0088818315 2.458709e-22)
(0.5092743 -0.035974276 3.6471487e-21)
(0.49953039 -0.042960657 -1.8958315e-20)
(0.49627555 -0.047383455 -2.3083815e-21)
(0.49555591 -0.049736759 5.4869769e-21)
(0.49416951 -0.051818023 3.0527996e-21)
(0.49269571 -0.053705387 -4.9855765e-23)
(0.49181227 -0.055187623 6.189719e-21)
(0.49151448 -0.056265372 7.625102e-21)
(0.49171164 -0.056990506 9.8580407e-21)
(0.49241069 -0.057395547 -1.1250047e-20)
(0.49363101 -0.057506273 -2.1579415e-20)
(0.49536775 -0.057348387 -3.9353399e-21)
(0.49760465 -0.0569471 1.5938143e-20)
(0.50032299 -0.056326977 1.2808959e-20)
(0.50350163 -0.0555117 -5.9066914e-21)
(0.5071165 -0.054523812 1.3817073e-21)
(0.51114137 -0.053384749 -3.660081e-21)
(0.51554873 -0.052114902 2.2443735e-21)
(0.52031026 -0.050733609 -2.9123021e-22)
(0.52539732 -0.049259126 -1.8654099e-21)
(0.53078123 -0.047708621 7.8265909e-21)
(0.53643363 -0.04609817 -2.930884e-22)
(0.5423267 -0.044442748 4.1818178e-22)
(0.54843339 -0.042756221 -6.5646593e-22)
(0.5547276 -0.041051341 -4.3029393e-21)
(0.56118431 -0.039339745 4.208517e-21)
(0.56777966 -0.037631965 1.9031219e-21)
(0.57449109 -0.035937441 -3.3081931e-21)
(0.58129736 -0.034264545 -4.1116443e-21)