/*--------------------------------*- C++ -*----------------------------------*\
  =========                 |
  \\      /  F ield         | OpenFOAM: The Open Source CFD Toolbox
   \\    /   O peration     | Website:  https://openfoam.org
    \\  /    A nd           | Version:  6
     \\/     M anipulation  |
\*---------------------------------------------------------------------------*/
FoamFile
{
    version     2.0;
    format      ascii;
    class       volSymmTensorField;
    location    "200";
    object      UPrime2Mean;
}
// * * * * * * * * * * * * * * * * * * * * * * * * * * * * * * * * * * * * * //

dimensions      [0 2 -2 0 0 0 0];

internalField   nonuniform List<symmTensor> 
9200
(
(9.9104138e-05 -7.6927135e-05 3.5955349e-22 6.1737084e-05 -1.9225343e-22 5.8158778e-39)
(0.00061099834 -0.00048919687 9.2143064e-22 0.00039317896 -6.876132e-22 6.3267641e-39)
(0.0012353088 -0.00095813708 1.1242499e-22 0.00074748564 -8.5048883e-23 3.4688565e-39)
(0.0019474354 -0.0014107322 -1.3885817e-21 0.0010334379 9.7618665e-22 6.9152151e-39)
(0.0026495711 -0.0018129337 6.595433e-23 0.0012620025 -5.4726838e-23 1.0139452e-39)
(0.0032930365 -0.0021466601 5.848217e-22 0.0014329366 -3.8805396e-22 1.5945935e-40)
(0.0038441347 -0.0024055532 -1.2661749e-22 0.0015521435 8.7471021e-23 4.5945636e-40)
(0.0042756936 -0.0025900042 1.1507195e-22 0.0016295233 -7.7303019e-23 3.0945e-40)
(0.004568896 -0.0027036612 5.6773321e-22 0.0016745913 -3.4435721e-22 8.8285741e-40)
(0.0047139766 -0.0027518799 4.4164106e-23 0.001695439 -2.6937857e-23 2.5181103e-42)
(0.0047102882 -0.0027409998 -6.1277955e-22 0.001698747 3.7640001e-22 4.7405612e-40)
(0.0045662142 -0.0026778933 5.1346287e-22 0.0016898649 -3.2718115e-22 6.5067124e-41)
(0.0042985364 -0.0025696804 -9.1586269e-22 0.0016729347 6.1679223e-22 1.0149483e-39)
(0.0039310458 -0.0024235546 -4.6514977e-22 0.0016510603 3.1946988e-22 6.5092247e-41)
(0.0034924382 -0.002246671 1.2079669e-22 0.0016264944 -8.9448922e-23 8.2984367e-42)
(0.0030136853 -0.002046047 -4.5580334e-22 0.0016008176 3.5620468e-22 8.7318072e-41)
(0.0025250947 -0.001828473 4.0096301e-22 0.0015751904 -3.3963461e-22 1.0583467e-40)
(0.0020533819 -0.0016005395 2.9882657e-22 0.0015511779 -2.6502591e-22 4.3070446e-40)
(0.0016211418 -0.0013683386 -1.0118286e-23 0.0015308524 2.1788336e-23 7.932773e-41)
(0.001253191 -0.0011361549 -5.5925231e-24 0.0014990779 1.9285892e-23 9.8329338e-41)
(0.00013077919 -8.7420794e-05 3.7535136e-23 6.0012687e-05 -1.4395554e-23 1.022827e-40)
(0.00077927451 -0.00054021025 9.7600157e-22 0.00037563784 -6.3488452e-22 6.7488848e-39)
(0.0015491845 -0.001042407 -3.1669448e-22 0.0007053871 2.1239415e-22 3.666018e-39)
(0.0023747558 -0.0015067799 -2.492381e-21 0.00096675409 1.557767e-21 1.6001461e-38)
(0.0031425142 -0.0019016669 -8.6272777e-23 0.0011712582 5.4721952e-23 2.0189119e-40)
(0.00379609 -0.0022111829 1.9290141e-21 0.0013206865 -1.1380783e-21 5.2947718e-39)
(0.0043007258 -0.0024326706 -7.9332671e-22 0.0014227067 4.6345117e-22 1.8139793e-40)
(0.0046342551 -0.0025707377 -2.3978439e-22 0.0014880515 1.3889204e-22 6.5084098e-41)
(0.0047876544 -0.0026329875 9.119572e-22 0.0015265017 -5.3168931e-22 4.9718406e-40)
(0.0047646707 -0.002628227 -1.1075971e-21 0.0015460365 6.566945e-22 5.7085854e-40)
(0.0045807001 -0.0025656483 -7.8719581e-22 0.0015529046 4.7864572e-22 7.0512929e-40)
(0.0042611161 -0.0024543555 1.7037355e-21 0.0015517554 -1.078142e-21 3.5862029e-39)
(0.0038387629 -0.0023031262 7.951701e-22 0.0015458125 -5.3592704e-22 2.5126826e-40)
(0.0033506735 -0.0021203298 -1.256075e-21 0.0015370786 9.0451673e-22 1.2411543e-39)
(0.0028343873 -0.0019139231 2.2607782e-22 0.0015265369 -1.7564337e-22 1.03427e-40)
(0.0023243817 -0.0016914599 -5.0352495e-22 0.0015143257 4.387057e-22 2.7572399e-40)
(0.0018490712 -0.0014600887 -2.0860404e-22 0.0014999367 2.1431744e-22 8.6772557e-41)
(0.0014287095 -0.0012264104 6.4217954e-22 0.0014824773 -7.1862956e-22 1.402998e-39)
(0.00107548 -0.0009957443 3.0532038e-22 0.0014592744 -4.0755566e-22 2.6664521e-40)
(0.00079756103 -0.00077337976 -1.3170174e-22 0.0014166475 1.6408051e-22 2.009274e-39)
(0.00016654903 -9.4873404e-05 -3.1498044e-22 5.5257544e-05 1.3410474e-22 2.6300238e-39)
(0.00095873742 -0.00056990522 -5.2503327e-22 0.00033966384 2.9167809e-22 2.7417528e-39)
(0.001871725 -0.0010829998 -5.9881913e-22 0.00063024599 3.488582e-22 6.85326e-39)
(0.0027930443 -0.0015383581 1.9960422e-23 0.00085718366 -1.097304e-23 7.4373336e-43)
(0.0035961175 -0.0019084791 2.4368329e-23 0.0010321855 -1.1445598e-23 4.923889e-39)
(0.0042210835 -0.002181434 6.7622539e-22 0.0011589861 -3.6062967e-22 1.3769034e-39)
(0.0046381818 -0.0023592397 6.5119706e-23 0.0012463383 -3.258507e-23 5.7002137e-40)
(0.0048372073 -0.002450869 -1.1491872e-21 0.0013048745 6.1753396e-22 3.6295604e-40)
(0.0048257358 -0.0024674507 1.3624478e-21 0.0013436982 -7.506834e-22 6.861285e-40)
(0.004626647 -0.0024203985 4.4919833e-22 0.0013697887 -2.5979686e-22 7.5412066e-40)
(0.0042747743 -0.0023206662 -1.2382046e-21 0.001388163 7.4825948e-22 1.5576796e-39)
(0.0038128372 -0.0021784475 -3.891085e-22 0.0014020877 2.5206093e-22 5.0911482e-40)
(0.0032867367 -0.0020031675 1.4107688e-22 0.0014133279 -9.8116958e-23 1.3791566e-39)
(0.002740719 -0.0018036252 3.3815446e-22 0.001422425 -2.6212904e-22 1.9831934e-40)
(0.0022131174 -0.0015881502 -1.1864505e-22 0.0014289759 1.0281826e-22 1.5173527e-40)
(0.0017333071 -0.0013646846 2.7663526e-22 0.0014319107 -2.7680573e-22 1.2009507e-40)
(0.0013202404 -0.0011407498 -1.9102069e-22 0.0014297644 2.2511644e-22 4.6086406e-41)
(0.00098257295 -0.0009232494 -3.8989606e-22 0.0014208448 5.4064834e-22 1.1241724e-39)
(0.00072027853 -0.00071797856 -1.3068378e-23 0.0014029367 1.3975796e-23 1.0118008e-39)
(0.00052790148 -0.00053030059 1.3561343e-22 0.0013713722 -2.943599e-22 1.153743e-40)
(0.00020521187 -9.8184488e-05 -2.5019373e-22 4.7896224e-05 9.2205879e-23 1.3062575e-39)
(0.0011401696 -0.00057331422 3.8303354e-22 0.00028898388 -1.8792409e-22 2.4363204e-40)
(0.0021835101 -0.0010729334 3.399184e-22 0.00053046155 -1.6766416e-22 2.8213878e-40)
(0.003173785 -0.0014996045 7.4192837e-22 0.00071761811 -3.5428082e-22 3.0435005e-39)
(0.0039759775 -0.0018314882 6.5258469e-22 0.00086180002 -3.1012625e-22 1.3538511e-39)
(0.0045331906 -0.0020617811 -1.1472912e-21 0.00096811464 5.4573685e-22 1.0335473e-39)
(0.0048282668 -0.00219715 -6.4220909e-22 0.0010453711 3.1103688e-22 2.9416804e-40)
(0.0048702442 -0.0022499612 0 0.0011030264 0 0)
(0.0046889336 -0.0022334034 7.0248655e-22 0.0011485593 -3.8220201e-22 3.7930562e-39)
(0.0043292097 -0.0021598629 -3.0533176e-22 0.0011871586 1.8042677e-22 1.4369185e-39)
(0.0038446808 -0.0020405322 -1.7932212e-21 0.0012219824 1.0723975e-21 1.2700628e-39)
(0.0032911412 -0.0018854998 -2.3000998e-22 0.0012544533 1.4527574e-22 2.567447e-40)
(0.0027203956 -0.0017040677 8.8547713e-22 0.0012845899 -6.6143592e-22 1.7277781e-39)
(0.0021752957 -0.0015050666 5.0065054e-23 0.0013113728 -3.275837e-23 7.1484697e-40)
(0.001686684 -0.0012970045 -1.3722386e-23 0.0013331276 1.3494171e-23 5.0182131e-43)
(0.0012725262 -0.0010879861 1.4770151e-22 0.0013479163 -1.7170416e-22 8.8328684e-41)
(0.00093903326 -0.00088543777 8.4508419e-25 0.0013538827 3.183507e-24 1.0349685e-40)
(0.00068318529 -0.00069573757 -2.6264726e-22 0.001349417 4.4487357e-22 2.6945456e-40)
(0.00049578013 -0.00052382815 -1.46057e-22 0.0013337738 3.0929373e-22 1.8768794e-40)
(0.00036464447 -0.00037330643 7.3653217e-23 0.0013088983 -2.267878e-22 1.177986e-39)
(0.00024499938 -9.6415011e-05 1.8905117e-22 3.861973e-05 -6.023396e-23 5.1388315e-40)
(0.001312131 -0.00054721956 7.8761114e-22 0.00022877666 -3.1415428e-22 4.6299775e-39)
(0.0024626 -0.0010092754 6.2023631e-22 0.00041652185 -2.5565542e-22 2.9301614e-40)
(0.0034878309 -0.0013908848 6.9050943e-22 0.00056289111 -2.8222993e-22 1.6285345e-39)
(0.0042512467 -0.0016767371 -1.0628956e-21 0.00067820137 4.394914e-22 2.5659634e-39)
(0.0047070432 -0.0018652149 4.0654294e-23 0.00076801655 -1.3104481e-23 2.4415106e-40)
(0.0048585099 -0.0019662771 6.089583e-23 0.00084007902 -2.655925e-23 2.0536359e-42)
(0.0047397242 -0.0019935497 8.6720964e-22 0.0009017295 -4.0445603e-22 9.1709036e-40)
(0.0044052627 -0.0019600376 1.1719692e-22 0.00095811491 -5.8055802e-23 8.2619187e-42)
(0.0039206118 -0.0018771747 -3.1496534e-22 0.001012126 1.7895396e-22 4.9624216e-40)
(0.0033530185 -0.0017550426 1.0250184e-21 0.0010647269 -6.380604e-22 3.459965e-39)
(0.002763543 -0.0016029124 -7.4743467e-22 0.0011153213 4.9418031e-22 2.9768856e-40)
(0.0022011881 -0.0014297471 -1.4089589e-21 0.0011621751 1.105025e-21 2.114552e-39)
(0.0016997765 -0.0012444184 -4.6666181e-23 0.0012028936 4.3153742e-23 4.4756371e-42)
(0.0012776862 -0.0010555553 5.0283379e-22 0.0012349161 -5.6612507e-22 1.715913e-39)
(0.00093992949 -0.00087110998 0 0.001255988 0 0)
(0.00068166347 -0.00069781624 6.3431605e-23 0.0012645025 -9.199273e-23 4.4648043e-41)
(0.00049211796 -0.00054075289 -3.166867e-23 0.0012595691 7.0289634e-23 6.6450541e-41)
(0.00035794488 -0.00040315996 -3.2300561e-23 0.0012418716 7.1188165e-23 1.7447493e-41)
(0.00026568915 -0.00028641138 1.5174577e-23 0.0012166786 -6.6283551e-23 1.1951832e-40)
(0.00028375551 -8.9003513e-05 4.1343405e-22 2.839404e-05 -1.0651442e-22 2.0781483e-39)
(0.0014625352 -0.00049118099 4.0632474e-23 0.00016541154 -1.3340643e-23 3.8448206e-42)
(0.0026880412 -0.00089460921 -1.1658182e-22 0.00030025684 3.9394102e-23 1.7021655e-41)
(0.0037106867 -0.0012200704 1.1978029e-22 0.0004085581 -3.862845e-23 3.3646365e-40)
(0.0044009439 -0.0014585883 -7.3190245e-22 0.0004989535 2.5700162e-22 6.3108252e-40)
(0.0047326123 -0.0016123171 -3.5206419e-22 0.0005764877 1.2838307e-22 5.6989758e-41)
(0.0047356858 -0.0016918307 2.4940555e-22 0.00064696371 -7.6630595e-23 1.7982216e-39)
(0.0044717765 -0.0017091121 -9.1878137e-24 0.00071507515 1.0373828e-23 1.4067926e-40)
(0.0040184454 -0.0016746012 -5.9428673e-22 0.00078334422 2.9621568e-22 1.48733e-39)
(0.0034561353 -0.0015972582 1.0314213e-21 0.00085221763 -5.380512e-22 4.3665315e-40)
(0.0028575631 -0.0014854148 -2.7324681e-23 0.00092043274 3.9262773e-23 7.7273081e-40)
(0.0022804021 -0.001347523 -8.1897453e-22 0.0009854668 5.983939e-22 2.1299798e-39)
(0.0017637907 -0.0011924525 0 0.0010440894 0 0)
(0.0013285236 -0.0010292435 1.9927234e-22 0.0010929728 -2.2803175e-22 1.1431795e-39)
(0.00098004308 -0.00086646113 1.0007098e-23 0.0011292732 -2.1500569e-23 6.2584899e-41)
(0.0007129185 -0.00071143459 -2.4205973e-22 0.001151089 3.8441865e-22 1.3282632e-39)
(0.0005155243 -0.00056965223 -5.4845986e-23 0.0011576732 9.9194229e-23 2.7706578e-41)
(0.00037397666 -0.00044450459 -1.6738562e-23 0.0011493032 4.6273524e-23 4.4593187e-41)
(0.00027474321 -0.00033746544 -2.1941303e-23 0.001127948 6.24147e-23 1.732583e-41)
(0.00020596427 -0.00024831157 3.9458856e-23 0.0010999835 -1.5283563e-22 1.6565293e-40)
(0.00031917826 -7.5906912e-05 1.5942374e-22 1.8364344e-05 -3.0675942e-23 3.2911251e-40)
(0.0015802097 -0.00040788439 -1.1440866e-21 0.00010565079 2.8791938e-22 7.1566524e-39)
(0.0028427226 -0.00073696744 -1.0137748e-22 0.0001932309 2.8755163e-23 6.6824193e-40)
(0.003825979 -0.0010014968 -3.0503173e-22 0.00026872603 8.9886117e-23 3.3610286e-39)
(0.0044168166 -0.0011972876 -2.2882075e-22 0.00033869374 6.3633893e-23 4.6453375e-41)
(0.0046158103 -0.0013273872 -1.2961896e-21 0.00040699775 4.0259031e-22 6.1475141e-40)
(0.0044826152 -0.0013994863 -6.3557522e-22 0.00047719335 2.2448797e-22 4.961833e-40)
(0.004104566 -0.0014210177 1.230104e-21 0.00055135754 -4.6479035e-22 3.9965345e-40)
(0.003576312 -0.0013980983 2.1063873e-22 0.00062952509 -1.0882923e-22 5.0931682e-40)
(0.0029848846 -0.0013366132 -2.706722e-22 0.00070985193 1.2322263e-22 1.7419074e-40)
(0.0023998481 -0.0012433464 1.2668582e-22 0.00078903936 -4.6722905e-23 6.5366032e-40)
(0.001868765 -0.0011264185 -2.4227265e-23 0.00086293641 3.2273079e-23 1.6568462e-40)
(0.0014174722 -0.00099492641 0 0.00092727504 0 0)
(0.0010538322 -0.00085801716 1.3479215e-22 0.00097840084 -1.4067878e-22 4.001051e-41)
(0.00077319075 -0.00072380899 -2.8685482e-22 0.0010138431 3.7616047e-22 5.4596724e-40)
(0.00056389433 -0.00059855121 -9.3184701e-23 0.0010326145 1.432532e-22 4.7037126e-41)
(0.00041176702 -0.00048623285 1.6121924e-22 0.001035165 -3.2427179e-22 6.521745e-40)
(0.00030310353 -0.0003886759 -3.5536477e-23 0.0010230047 4.7500612e-23 1.4018281e-40)
(0.00022616807 -0.00030607166 -2.1528273e-24 0.00099901002 -4.2385062e-24 1.5727597e-41)
(0.0001715272 -0.00023744576 3.6806526e-23 0.00096926984 -1.0964385e-22 1.4147575e-41)
(0.00034907813 -5.7647385e-05 1.1598657e-22 9.7013691e-06 -1.521909e-23 2.0609406e-40)
(0.0016563209 -0.0003029123 -1.0609518e-21 5.5696975e-05 1.9118775e-22 3.2824799e-39)
(0.0029154779 -0.00054876401 -8.2894096e-22 0.00010513209 1.6444242e-22 3.9281426e-39)
(0.0038272709 -0.00075375665 1.1852557e-21 0.00015420275 -2.4768817e-22 9.6277426e-40)
(0.004303557 -0.00091558881 8.9509937e-22 0.00020749702 -2.014834e-22 2.0035433e-40)
(0.0043758156 -0.001034357 -6.5600245e-22 0.00026768568 1.4485337e-22 2.0858558e-39)
(0.0041320346 -0.0011114102 2.1379147e-22 0.00033647283 -8.1433171e-23 8.8322641e-40)
(0.0036793907 -0.0011475399 1.2536252e-21 0.00041385407 -4.4464086e-22 9.9221092e-40)
(0.0031211236 -0.0011439035 5.4991904e-22 0.00049779888 -2.1624673e-22 1.2525432e-40)
(0.0025421435 -0.0011036856 -5.4072234e-22 0.00058448321 2.7600033e-22 3.2374435e-40)
(0.0020021814 -0.0010328584 -7.336184e-22 0.00066889053 4.3695511e-22 3.8722505e-40)
(0.0015354099 -0.00093974813 -2.0007656e-23 0.00074567586 1.4449925e-23 4.0368418e-43)
(0.0011546213 -0.00083375904 2.1114709e-22 0.0008101019 -1.8456858e-22 6.2756986e-41)
(0.00085761104 -0.00072384367 -7.3827941e-24 0.0008587994 2.4198433e-23 9.5482766e-41)
(0.00063366105 -0.000617273 -7.9175409e-24 0.00089017333 3.935052e-23 2.5842452e-40)
(0.00046875888 -0.00051900979 5.8092939e-24 0.00090440488 -5.1371841e-23 4.668301e-40)
(0.00034903706 -0.00043169281 7.434045e-23 0.00090309282 -1.4765167e-22 1.3693938e-40)
(0.00026257192 -0.00035606647 -4.2098352e-23 0.00088867493 1.2420332e-22 3.567946e-40)
(0.00019994885 -0.00029170516 -1.0800293e-22 0.00086440036 3.0085616e-22 6.9203872e-40)
(0.00015400654 -0.0002375328 3.6035122e-23 0.00083529808 -8.7940455e-23 1.5521977e-41)
(0.00037173429 -3.5271587e-05 -3.0143938e-22 3.4348036e-06 2.5121162e-23 6.1575035e-40)
(0.0016855874 -0.00018404171 -2.3653533e-22 2.0339641e-05 2.5369201e-23 6.6420344e-40)
(0.0029022272 -0.00034509099 1.820344e-21 4.2558708e-05 -2.3091208e-22 8.1171369e-39)
(0.0037184094 -0.00049703547 1.3554011e-21 7.1401056e-05 -1.9589917e-22 8.871029e-40)
(0.0040773705 -0.00063553847 6.0735357e-22 0.00011033526 -9.5046575e-23 4.3563243e-40)
(0.0040412918 -0.00075382039 1.2257481e-22 0.0001616185 -2.5014987e-23 4.197418e-42)
(0.0037209074 -0.00084436025 -1.1505408e-21 0.00022608725 2.5447237e-22 1.8209358e-39)
(0.0032346185 -0.00090053457 0 0.00030245896 0 0)
(0.0026853034 -0.00091904272 -7.0471816e-22 0.00038713537 3.0388939e-22 1.5078303e-39)
(0.002148841 -0.00090136395 -1.2116456e-22 0.0004746567 7.9431518e-23 3.4156375e-40)
(0.0016716803 -0.00085345792 3.4543532e-22 0.00055867091 -1.9957517e-22 8.3533595e-41)
(0.001274728 -0.0007841242 3.7089783e-23 0.00063314081 -4.7340468e-23 1.8792427e-40)
(0.00096044012 -0.00070287255 -1.6475767e-22 0.00069341478 1.60969e-22 2.1886514e-40)
(0.00072035508 -0.00061809682 -1.2407875e-22 0.0007368617 1.6236252e-22 4.6789099e-40)
(0.00054128045 -0.00053601198 8.0075114e-23 0.00076296782 -8.1094215e-23 5.7465445e-41)
(0.00040943489 -0.00046040724 1.1088465e-22 0.00077298346 -1.425714e-22 5.3122582e-41)
(0.00031266561 -0.00039298421 -9.8741675e-23 0.00076930428 1.6320906e-22 4.9395948e-41)
(0.00024127263 -0.00033397985 -1.3219212e-22 0.00075480995 2.8454298e-22 5.7884193e-40)
(0.00018799901 -0.00028288162 1.0278415e-23 0.00073262179 -2.1761385e-24 6.7981511e-41)
(0.0001475202 -0.0002388288 1.7927187e-23 0.00070641033 -6.0497799e-23 8.0234216e-41)
(0.0003858376 -1.0183081e-05 -1.9893679e-22 3.0837934e-07 5.0705446e-24 3.012416e-40)
(0.0016663266 -6.0264572e-05 8.4984417e-22 2.384364e-06 -3.0438669e-23 1.6706244e-39)
(0.0028058975 -0.00014194398 1.2992189e-21 8.425242e-06 -7.9897118e-23 1.2118889e-38)
(0.0035125862 -0.00025086897 -1.5222228e-21 2.2156297e-05 1.3116645e-22 3.3373157e-39)
(0.0037630866 -0.00037633741 5.5009943e-22 4.7568697e-05 -6.0283474e-23 8.4192951e-41)
(0.0036454755 -0.00050167719 2.2563199e-22 8.7915013e-05 1.2942581e-24 3.0817096e-39)
(0.0032846609 -0.00060950078 5.9418522e-23 0.00014439704 -1.2029659e-23 1.1122155e-42)
(0.0028009766 -0.00068639611 -8.4556015e-22 0.00021523476 1.9492532e-22 1.0398967e-39)
(0.0022895467 -0.00072592448 -1.9198865e-23 0.00029568495 6.6324801e-24 1.6695121e-43)
(0.0018132943 -0.00072901577 3.1550613e-22 0.00037899236 -1.6402317e-22 3.9636622e-40)
(0.0014051093 -0.00070214987 2.4738331e-23 0.00045790423 -2.5299831e-23 5.6670551e-41)
(0.0010750319 -0.00065452909 -1.1380547e-22 0.00052619884 3.06054e-23 7.3314937e-40)
(0.00081875573 -0.00059542664 -2.531893e-22 0.00057973974 2.0579257e-22 8.2299635e-41)
(0.00062496322 -0.00053242273 -1.4231974e-24 0.00061682946 1.9735358e-23 9.5494287e-41)
(0.00048044092 -0.0004707053 8.5691402e-23 0.00063793007 -1.123909e-22 9.334582e-41)
(0.00037297005 -0.00041319494 5.7032177e-23 0.00064500656 -9.0492198e-23 9.0522498e-41)
(0.00029254056 -0.00036109901 1.2946738e-23 0.00064077799 -4.2855202e-23 1.4656905e-40)
(0.0002315571 -0.00031456959 -9.1197532e-23 0.00062810274 1.2819214e-22 1.178625e-40)
(0.00018454997 -0.00027327973 -1.8803031e-23 0.00060963841 -1.2193111e-23 5.0267842e-40)
(0.00014759173 -0.00023662992 4.9998044e-23 0.00058772376 -1.553744e-22 8.296179e-40)
(2.5770502e-06 -3.2194074e-07 2.5755168e-23 3.9326412e-07 -5.1540158e-24 2.943828e-40)
(1.2147563e-05 -5.0845422e-06 -3.6749808e-23 2.6118614e-06 1.018292e-23 2.834081e-40)
(2.7209788e-05 -1.1750547e-05 8.1629556e-23 5.2068476e-06 -3.0587324e-23 1.6278075e-39)
(8.7235237e-05 -2.4797036e-05 2.2787063e-22 7.4673259e-06 -4.8609975e-23 5.4743614e-39)
(0.00019144529 -4.0906897e-05 -1.6281375e-22 9.4989866e-06 2.7745754e-23 1.4237333e-39)
(0.00034215284 -5.8941691e-05 2.0524879e-22 1.1303469e-05 -2.7879178e-23 1.573132e-39)
(0.00054428116 -7.828631e-05 -2.8189992e-22 1.2883223e-05 3.5827909e-23 1.7278651e-39)
(0.0007991478 -9.8325976e-05 -2.9080913e-22 1.4271021e-05 3.0443614e-23 1.8268863e-39)
(0.0011055584 -0.00011856174 3.660322e-22 1.5502159e-05 -3.8018235e-23 1.9316124e-39)
(0.0014614887 -0.00013862581 -2.8426441e-22 1.6604174e-05 2.7822808e-23 9.8385246e-40)
(0.0018644059 -0.00015824128 -1.4193334e-23 1.7597997e-05 2.3712218e-25 1.1438428e-41)
(0.0023113083 -0.00017719363 8.1979483e-23 1.8499669e-05 -8.7426027e-24 3.6209806e-41)
(0.0027988687 -0.00019531396 -1.4108088e-23 1.9321495e-05 6.8151705e-25 5.7415413e-42)
(0.0033235665 -0.00021246851 4.4623324e-22 2.0073366e-05 -4.010792e-23 1.723342e-39)
(0.0038817685 -0.00022855548 5.6012981e-25 2.0764404e-05 8.4519306e-25 3.7215236e-42)
(0.0044698097 -0.00024351117 -6.57502e-22 2.1404637e-05 6.1614198e-23 3.5446808e-39)
(0.005084102 -0.0002573154 1.220638e-22 2.2004776e-05 -1.2845686e-23 7.4882965e-41)
(0.0057211502 -0.00026996721 2.966609e-22 2.2572771e-05 -2.9415329e-23 9.0140707e-40)
(0.0063774799 -0.00028152115 -4.8239112e-22 2.31165e-05 5.1194191e-23 2.5550774e-39)
(0.0070491462 -0.0002923536 -2.6716561e-22 2.3631548e-05 3.0214567e-23 9.5933157e-40)
(2.9187452e-06 -1.3468983e-06 8.484571e-24 3.4608001e-06 -3.1370107e-24 2.9144931e-41)
(1.5485962e-05 -1.7422795e-05 -2.3273382e-22 2.3015968e-05 1.7547526e-22 9.4780126e-39)
(3.4751502e-05 -3.9556252e-05 4.6185689e-23 4.5869212e-05 -3.819522e-23 8.5544665e-40)
(0.00010263477 -8.0276349e-05 2.4514811e-22 6.5785448e-05 -1.5060675e-22 4.575363e-39)
(0.00021594543 -0.0001298335 3.4066084e-22 8.3648219e-05 -1.6376248e-22 5.1739331e-39)
(0.00037625893 -0.00018488249 4.1200412e-23 9.9447246e-05 -1.6529125e-23 4.8604232e-41)
(0.00058791265 -0.00024358648 -1.0957045e-21 0.00011320815 3.798186e-22 2.5878578e-38)
(0.00085152046 -0.00030412778 -3.8644063e-23 0.00012522167 1.6020011e-23 7.4819446e-42)
(0.0011652575 -0.00036504136 6.2044269e-22 0.0001357981 -1.8901871e-22 4.4169365e-39)
(0.0015265242 -0.0004252472 -1.4981227e-22 0.00014517993 4.1393508e-23 2.4560638e-40)
(0.0019322185 -0.00048392969 -5.6908478e-22 0.00015355152 1.5605059e-22 2.7247258e-39)
(0.0023787649 -0.00054045446 1.1981495e-22 0.00016105321 -3.0655228e-23 1.2406059e-40)
(0.0028622504 -0.00059431865 5.0596057e-22 0.00016779097 -1.1326034e-22 2.9222769e-39)
(0.0033785448 -0.00064511907 2.0941938e-22 0.00017384767 -5.2120863e-23 3.3381638e-40)
(0.0039233596 -0.0006925405 4.1947119e-22 0.00017929723 -1.1178411e-22 9.6562735e-40)
(0.0044923283 -0.0007363721 -3.3184041e-22 0.00018421879 8.3617781e-23 8.1684089e-40)
(0.0050812062 -0.00077652915 -3.1757125e-22 0.00018869811 7.921975e-23 8.9343597e-40)
(0.0056857942 -0.00081297601 3.2134877e-22 0.000192804 -9.1173534e-23 5.1655754e-40)
(0.0063007319 -0.00084585812 2.9393028e-22 0.00019661432 -8.1365302e-23 9.0301574e-40)
(0.006919674 -0.00087661108 1.1411197e-22 0.00020011949 -3.034852e-23 3.8349329e-40)
(3.7518093e-06 -3.4481971e-06 6.5283316e-24 9.2302497e-06 -3.2673767e-24 1.5345553e-41)
(2.3407933e-05 -3.6005639e-05 1.7675859e-22 6.143922e-05 -1.8919567e-22 4.0393578e-39)
(5.2310347e-05 -7.9561948e-05 -3.8684322e-23 0.00012234721 4.9853417e-23 2.1154102e-40)
(0.00013664116 -0.0001523749 -2.6632905e-22 0.00017539972 2.2426301e-22 5.0085758e-39)
(0.00026877218 -0.0002387991 9.8118282e-23 0.00022281599 -8.2402105e-23 1.4194972e-40)
(0.00044879457 -0.00033343091 1.3003099e-22 0.00026446682 -1.0571571e-22 7.4778179e-41)
(0.00067986591 -0.00043323668 -1.6194677e-22 0.00030041364 8.5890998e-23 4.4628248e-40)
(0.00096127049 -0.00053527459 -4.2358274e-22 0.00033143069 2.4721822e-22 8.9225091e-40)
(0.0012899788 -0.00063719332 1.8541163e-22 0.00035834278 -9.0153272e-23 2.4933708e-40)
(0.0016622753 -0.00073725256 3.9380693e-22 0.00038179945 -1.6384175e-22 1.4158128e-39)
(0.0020739554 -0.00083412663 1.0991317e-22 0.00040229722 -7.6072529e-23 5.3269428e-41)
(0.0025203336 -0.00092677278 4.8176195e-22 0.00042021269 -1.6012892e-22 2.6271387e-39)
(0.0029963662 -0.0010143502 4.0888775e-23 0.00043582542 -1.5160196e-23 1.0894967e-41)
(0.0034967497 -0.0010961656 -7.165312e-22 0.00044934548 2.4217134e-22 4.2244836e-39)
(0.0040159506 -0.001171651 5.28573e-23 0.00046095086 -3.4784145e-23 2.3441561e-41)
(0.0045482869 -0.0012403918 -3.3524387e-22 0.00047082724 9.3440591e-23 1.6459665e-39)
(0.0050883108 -0.0013021779 -4.7340833e-22 0.0004791773 1.8731525e-22 6.7706819e-40)
(0.0056306069 -0.0013568784 7.6926778e-22 0.00048620168 -2.9938059e-22 2.247096e-39)
(0.0061666601 -0.0014046829 4.0662818e-22 0.00049222929 -1.6790053e-22 4.5746059e-40)
(0.0066865185 -0.0014486568 8.1079581e-23 0.00049745768 -3.6801982e-23 9.8180431e-42)
(5.5269083e-06 -7.1318802e-06 -9.7697014e-24 1.6997378e-05 1.2299476e-23 2.2503391e-41)
(3.8375367e-05 -6.3931737e-05 -4.0954491e-22 0.0001133447 5.179314e-22 1.340398e-38)
(8.4904444e-05 -0.00013783213 -2.9752209e-23 0.00022551192 3.8234395e-23 1.8317833e-40)
(0.00019643825 -0.00024917343 6.8694072e-23 0.00032305199 -7.604347e-23 1.168197e-40)
(0.00035917662 -0.00037722989 -1.105326e-23 0.0004097959 2.8377056e-24 3.0162766e-41)
(0.00057101567 -0.00051466385 3.4997966e-22 0.00048526391 -2.5656503e-22 2.2013773e-39)
(0.00083329582 -0.0006572399 3.870987e-22 0.0005495295 -2.5282433e-22 1.9998777e-39)
(0.0011433293 -0.00080099856 -1.1723592e-22 0.00060401962 5.6676962e-23 3.1512626e-40)
(0.0014962826 -0.00094280908 -4.3031811e-22 0.00065026375 2.2478506e-22 2.0038227e-39)
(0.0018867448 -0.0010803356 -8.6815003e-22 0.0006894844 4.6819104e-22 4.2496255e-39)
(0.0023088357 -0.0012117741 -1.8831142e-23 0.0007226295 -1.021713e-23 9.7002048e-41)
(0.0027561981 -0.0013356835 1.1054639e-21 0.00075042404 -5.1498476e-22 6.9447021e-39)
(0.0032220999 -0.0014508737 -4.4795137e-22 0.00077340448 1.7094868e-22 2.0528554e-39)
(0.0036995329 -0.0015563394 -2.8973227e-22 0.00079196899 1.2688747e-22 4.0516816e-40)
(0.0041812224 -0.0016512236 -3.5138281e-23 0.00080643941 3.9175422e-23 8.7457617e-41)
(0.0046597243 -0.0017348522 6.870206e-22 0.00081713024 -3.0118204e-22 1.6622538e-39)
(0.0051280296 -0.0018068347 -3.8955438e-22 0.00082437621 1.9499803e-22 1.1177011e-40)
(0.0055793717 -0.0018669616 -8.9374898e-22 0.00082860111 3.7639896e-22 3.578524e-39)
(0.0060016967 -0.0019154937 6.005688e-22 0.00083083169 -2.6141035e-22 1.7994737e-39)
(0.006381142 -0.0019573959 5.1783833e-22 0.00083223337 -2.0773364e-22 1.6735035e-39)
(8.8389966e-06 -1.2702153e-05 4.3866763e-23 2.5910415e-05 -4.2631699e-23 2.8865378e-40)
(6.3672752e-05 -0.00010301455 1.4177376e-23 0.00017299682 -3.6312015e-24 1.3049127e-40)
(0.00013916475 -0.00021786427 -5.646858e-22 0.00034361108 8.0841885e-22 1.0997525e-38)
(0.00029129389 -0.0003751116 -3.2436658e-22 0.0004914894 3.4450028e-22 3.4012971e-39)
(0.00049858587 -0.0005498218 2.1640747e-22 0.00062207766 -1.7230252e-22 2.0557405e-39)
(0.00075595131 -0.00073272404 2.6930243e-22 0.00073426664 -2.1697711e-22 9.6842633e-40)
(0.0010621297 -0.00091832844 -3.5036019e-22 0.00082812638 2.287714e-22 2.2659825e-39)
(0.0014117176 -0.0011017819 -5.3441304e-22 0.00090586742 3.0660169e-22 4.9724747e-39)
(0.0017973801 -0.0012793113 7.9168676e-22 0.00096988015 -4.7275285e-22 5.1024397e-39)
(0.0022113404 -0.0014480849 2.2685084e-22 0.0010221166 -9.1722154e-23 1.1876953e-39)
(0.0026453969 -0.0016058928 -7.1632979e-22 0.0010641289 4.7389952e-22 3.9461837e-40)
(0.0030909252 -0.0017509552 3.1377726e-22 0.0010971327 -1.4255892e-22 9.1452119e-40)
(0.0035390112 -0.0018817974 0 0.0011220526 0 0)
(0.0039805634 -0.0019971661 3.0624129e-22 0.0011395843 -1.4920866e-22 3.5800667e-40)
(0.0044063549 -0.0020959852 -2.2992857e-22 0.0011502789 1.0925939e-22 1.9118692e-40)
(0.004807179 -0.0021773916 -3.5260265e-22 0.001154634 1.7601198e-22 2.3226165e-40)
(0.0051747481 -0.0022408901 1.3038729e-22 0.0011531217 -1.0640625e-22 3.2647307e-40)
(0.0055017111 -0.0022863647 -1.0599002e-22 0.0011464041 6.3348459e-23 1.182229e-41)
(0.0057735381 -0.0023144056 5.0869099e-22 0.0011367394 -2.2020568e-22 1.9372322e-39)
(0.0059722946 -0.0023316747 -4.1279696e-22 0.0011277977 2.0221849e-22 1.1319048e-40)
(1.4377009e-05 -2.0255338e-05 4.2072726e-23 3.5125073e-05 -3.5373816e-23 2.3176944e-40)
(0.00010300903 -0.00015359565 2.0288425e-22 0.00023436986 -2.7012405e-22 8.6606267e-40)
(0.00022241275 -0.00032004593 -2.7230958e-22 0.00046406557 3.6128532e-22 2.0636709e-39)
(0.00043096081 -0.00053003047 -4.473194e-22 0.00066204615 5.0318403e-22 1.7285014e-39)
(0.0006980884 -0.00075519253 -1.3191435e-22 0.0008351971 1.9326967e-22 1.3642924e-39)
(0.0010146955 -0.00098419955 -4.0460452e-22 0.00098160381 3.5536077e-22 8.4915109e-40)
(0.0013759127 -0.0012102475 -1.8814377e-22 0.0011014122 1.158263e-22 9.810028e-40)
(0.0017727509 -0.0014277635 3.2612419e-22 0.0011977511 -1.9611192e-22 1.8095221e-39)
(0.0021945949 -0.0016325437 7.8018877e-22 0.0012740231 -4.6487763e-22 6.1957241e-39)
(0.0026305951 -0.0018214624 2.4050028e-22 0.0013330849 -1.4799726e-22 2.5986874e-40)
(0.0030696787 -0.0019921185 -2.2849245e-22 0.0013772774 1.2128511e-22 4.1220751e-40)
(0.0035005868 -0.002142621 -4.2491745e-23 0.0014084942 -9.3612091e-24 3.5901237e-40)
(0.0039120947 -0.0022714596 -1.0898323e-21 0.0014282308 5.9616512e-22 3.4189986e-39)
(0.0042932308 -0.0023774195 -3.3849012e-22 0.0014376546 1.7696942e-22 3.5364431e-40)
(0.0046334291 -0.0024595337 5.6732705e-22 0.001437698 -3.2792e-22 1.6821786e-40)
(0.0049227869 -0.0025171016 -5.6575948e-22 0.0014291503 3.0559529e-22 3.5008245e-40)
(0.0051532458 -0.0025498453 -1.9965116e-22 0.0014126311 9.8263656e-23 1.118777e-40)
(0.0053190635 -0.002558075 4.4768487e-22 0.0013888828 -1.8885451e-22 1.738644e-39)
(0.005406416 -0.0025431721 6.7930207e-22 0.0013615462 -3.394422e-22 1.3188737e-39)
(0.0053938564 -0.0025129337 8.2726305e-23 0.0013386858 -3.8660075e-23 2.5675576e-41)
(2.2873818e-05 -2.9686648e-05 -1.1866228e-22 4.3874077e-05 9.6346151e-23 1.3712969e-39)
(0.00016007718 -0.00021451102 -1.3138181e-22 0.00029175376 1.3328632e-22 1.0930117e-39)
(0.00034155631 -0.00044144657 3.3301242e-22 0.00057488565 -4.2062957e-22 5.0279803e-40)
(0.00062382601 -0.00070874772 5.07701e-22 0.00081691251 -5.2574145e-22 2.2927791e-39)
(0.0009657536 -0.00098531652 6.6329301e-24 0.0010259158 -5.970828e-24 4.5513231e-43)
(0.001352889 -0.0012576061 -1.3791418e-21 0.0011992353 1.1375308e-21 1.3388432e-38)
(0.0017755588 -0.0015175398 -5.4080558e-22 0.0013373344 4.6252386e-22 1.919674e-40)
(0.0022202894 -0.0017591285 4.201347e-22 0.0014444464 -2.8326144e-22 1.469109e-39)
(0.0026725401 -0.0019781209 4.820972e-22 0.0015251525 -3.2356436e-22 8.9858222e-40)
(0.0031180039 -0.0021715097 -4.7242204e-22 0.0015833948 2.6298301e-22 2.466261e-39)
(0.0035426462 -0.0023371401 -1.3901158e-21 0.0016224964 8.7649226e-22 3.596024e-39)
(0.0039328989 -0.0024734898 9.1476368e-22 0.0016452218 -5.5379391e-22 1.4784084e-39)
(0.0042760492 -0.0025795386 5.4457513e-22 0.0016538286 -2.8390643e-22 1.7706178e-39)
(0.004560642 -0.0026546872 -7.5562573e-22 0.0016501385 4.1657707e-22 1.4614243e-39)
(0.0047768063 -0.0026987031 3.3227315e-22 0.0016356265 -1.9153066e-22 9.8076016e-41)
(0.0049166138 -0.0027116969 5.5177549e-22 0.0016114908 -2.8398221e-22 1.088422e-39)
(0.0049753589 -0.0026941866 2.1034527e-22 0.0015785079 -1.1839264e-22 3.7112243e-41)
(0.004952481 -0.0026473176 -3.6058809e-22 0.0015371934 2.2231024e-22 4.7108486e-41)
(0.0048398457 -0.0025735914 -8.3826058e-23 0.0014919892 2.7332998e-23 2.6951523e-40)
(0.004615098 -0.0024809831 4.7337026e-22 0.0014565404 -2.730171e-22 1.0983013e-40)
(3.5050898e-05 -4.0692885e-05 -3.5041132e-24 5.147677e-05 -3.7606187e-24 2.5608328e-41)
(0.00023806837 -0.00028312941 -4.7825197e-22 0.00034007931 5.0596309e-22 3.5926699e-39)
(0.00050189354 -0.00057592683 -3.8136743e-22 0.00066563688 4.0923851e-22 5.4342876e-39)
(0.00087500119 -0.00090128088 7.1753147e-22 0.00094085902 -6.8744456e-22 3.1779785e-39)