/*--------------------------------*- C++ -*----------------------------------*\
  =========                 |
  \\      /  F ield         | OpenFOAM: The Open Source CFD Toolbox
   \\    /   O peration     | Website:  https://openfoam.org
    \\  /    A nd           | Version:  6
     \\/     M anipulation  |
\*---------------------------------------------------------------------------*/
FoamFile
{
    version     2.0;
    format      ascii;
    class       volScalarField;
    location    "286";
    object      p;
}
// * * * * * * * * * * * * * * * * * * * * * * * * * * * * * * * * * * * * * //

dimensions      [0 2 -2 0 0 0 0];

internalField   nonuniform List<scalar> 
9200
(
-0.377949
-0.36660251
-0.35650884
-0.34755955
-0.33881986
-0.33030363
-0.32208915
-0.3141439
-0.30640058
-0.29878726
-0.29123097
-0.28366268
-0.27602424
-0.26827563
-0.26040561
-0.25244947
-0.24448354
-0.23659564
-0.2298107
-0.22841074
-0.3958097
-0.38201204
-0.36997474
-0.35950566
-0.34939394
-0.33962103
-0.33025568
-0.32123463
-0.31245838
-0.30382858
-0.29525205
-0.28664659
-0.2779485
-0.2691186
-0.2601478
-0.25106107
-0.24188824
-0.23262903
-0.2239664
-0.21806629
-0.41408738
-0.39781571
-0.3838807
-0.37196227
-0.36053384
-0.34952624
-0.33898695
-0.32881426
-0.31887447
-0.30904675
-0.29922678
-0.2893325
-0.27931084
-0.26914085
-0.25883355
-0.24842762
-0.23796181
-0.22744509
-0.2172767
-0.20857173
-0.43234797
-0.41362141
-0.39785406
-0.38454789
-0.371823
-0.35954326
-0.34772701
-0.33623357
-0.32490303
-0.31360736
-0.30225194
-0.29077852
-0.27916842
-0.26744028
-0.25564341
-0.24384761
-0.23211943
-0.22049776
-0.20925003
-0.19911735
-0.44996156
-0.42888313
-0.41140018
-0.39678334
-0.38277169
-0.36915133
-0.35591133
-0.34288271
-0.32989983
-0.31685462
-0.3036918
-0.29040519
-0.27703357
-0.26365078
-0.25035229
-0.23724102
-0.22440706
-0.21190891
-0.19993475
-0.18899201
-0.46610364
-0.44288187
-0.42385895
-0.40802089
-0.39271592
-0.37765245
-0.36280273
-0.3479951
-0.33309234
-0.3180427
-0.3028631
-0.28762413
-0.27243568
-0.2574289
-0.24273795
-0.22848485
-0.21476425
-0.20163203
-0.18921417
-0.17784744
-0.47976909
-0.45473132
-0.43440575
-0.41744655
-0.40082797
-0.38419656
-0.36753553
-0.3507113
-0.33365955
-0.31642421
-0.29912263
-0.28191596
-0.26498437
-0.2485035
-0.2326258
-0.21746914
-0.20310921
-0.18957713
-0.17693976
-0.16539829
-0.4897941
-0.46340132
-0.44208378
-0.42412702
-0.406181
-0.38786434
-0.36921388
-0.35018631
-0.33083867
-0.31134551
-0.29194194
-0.27287928
-0.25439333
-0.23668093
-0.21988685
-0.2041009
-0.18936027
-0.17565681
-0.16299943
-0.15147538
-0.49483645
-0.46761663
-0.44560706
-0.42672652
-0.40739907
-0.38727747
-0.3665122
-0.34520747
-0.32358121
-0.30195417
-0.28067263
-0.26005544
-0.24036327
-0.22178286
-0.20442501
-0.18833284
-0.17349423
-0.15985757
-0.14737776
-0.13604454
-0.49354572
-0.46596035
-0.443428
-0.42357972
-0.4027604
-0.38074054
-0.35784966
-0.33438533
-0.31074014
-0.28736419
-0.26467764
-0.24302145
-0.22263837
-0.20367206
-0.18617892
-0.17014678
-0.15551466
-0.14219309
-0.13009023
-0.11911096
-0.265067
-0.26974128
-0.27224969
-0.27300083
-0.27278671
-0.2717942
-0.27010476
-0.26780593
-0.2649699
-0.26165142
-0.25789452
-0.25373673
-0.24921114
-0.24434783
-0.23917507
-0.23372174
-0.22801872
-0.22208654
-0.21592422
-0.20961731
-0.26779964
-0.27205867
-0.27426033
-0.2747928
-0.27439561
-0.27324688
-0.27142617
-0.26901731
-0.26608896
-0.26269299
-0.25887105
-0.25465853
-0.25008666
-0.24518349
-0.23997471
-0.23448817
-0.22876222
-0.22281575
-0.21654147
-0.20991342
-0.27312911
-0.27657608
-0.27817976
-0.2782845
-0.27752839
-0.27607411
-0.2739977
-0.27137574
-0.26826993
-0.26472654
-0.26078239
-0.25646864
-0.25181275
-0.24683893
-0.24156802
-0.23602502
-0.23025969
-0.22428978
-0.21781617
-0.21058113
-0.28081553
-0.28309999
-0.28383814
-0.28331415
-0.28202513
-0.28011418
-0.27765338
-0.27470943
-0.27133438
-0.26756666
-0.26343622
-0.25896815
-0.25418434
-0.24910333
-0.24373913
-0.23811159
-0.23228239
-0.22627393
-0.21954069
-0.21145514
-0.29055662
-0.29138736
-0.29102394
-0.2896827
-0.2876918
-0.28517359
-0.28219694
-0.27881729
-0.27507526
-0.27100005
-0.26661335
-0.26193197
-0.2569703
-0.25173993
-0.24624676
-0.24050228
-0.23457616
-0.22850396
-0.22148102
-0.21236502
-0.30203859
-0.301186
-0.29951977
-0.29718922
-0.29433679
-0.2910654
-0.28744298
-0.28351394
-0.27930692
-0.27483944
-0.27012241
-0.26516337
-0.2599679
-0.25453919
-0.24887397
-0.24297241
-0.23690424
-0.23072439
-0.22339708
-0.21314383
-0.31498249
-0.31227088
-0.30913491
-0.30566403
-0.30180627
-0.29764831
-0.29326099
-0.28867732
-0.28391125
-0.27896781
-0.27384642
-0.26854334
-0.26305357
-0.25737073
-0.25148248
-0.24537719
-0.23911737
-0.23278061
-0.22516315
-0.21378128
-0.32917233
-0.32446695
-0.31972749
-0.31499324
-0.3100136
-0.30486197
-0.2996124
-0.29428571
-0.2888811
-0.28338917
-0.27779498
-0.27208056
-0.26622724
-0.2602166
-0.25402662
-0.24763674
-0.24110673
-0.23456014
-0.22674445
-0.21446557
-0.34445503
-0.33764184
-0.33118712
-0.3250902
-0.31889444
-0.31265864
-0.30646201
-0.30031263
-0.29419207
-0.28807333
-0.28192355
-0.27570629
-0.26938382
-0.26291738
-0.25626253
-0.24937139
-0.24226829
-0.23505939
-0.22648739
-0.21304989
-0.36073173
-0.35168778
-0.34340161
-0.33583743
-0.32831917
-0.32089084
-0.31363669
-0.30654976
-0.29959153
-0.29271573
-0.28587122
-0.27900483
-0.27206424
-0.26499801
-0.2577503
-0.25025669
-0.24246006
-0.23415378
-0.223687
-0.20801827
-0.20246659
-0.1935183
-0.18456506
-0.17567086
-0.16678201
-0.15794017
-0.14919888
-0.14059317
-0.13215233
-0.12390498
-0.11587689
-0.10809028
-0.10056427
-0.093315211
-0.086356703
-0.079699627
-0.073352275
-0.06732045
-0.061607564
-0.056214747
-0.051140972
-0.046383192
-0.041936492
-0.037794257
-0.033948344
-0.030389271
-0.027106414
-0.024088193
-0.021322276
-0.018795766
-0.016495386
-0.014407657
-0.012519062
-0.010816199
-0.009285927
-0.0079154941
-0.0066926668
-0.005605831
-0.0046441695
-0.003797586
-0.0030575244
-0.0024149808
-0.0018676851
-0.001398995
-0.0010444931
-0.00069461514
-0.00068792306
-8.0127021e-05
-0.0017060539
0.002452327
-0.20347663
-0.19413108
-0.1850688
-0.17618893
-0.16728206
-0.15841004
-0.14964431
-0.14101634
-0.13255293
-0.12428325
-0.11623338
-0.10842538
-0.10087837
-0.093608799
-0.086630308
-0.079953846
-0.073587769
-0.067537941
-0.061807826
-0.056398594
-0.051309251
-0.046536772
-0.042076253
-0.037921081
-0.034063107
-0.030492835
-0.027199618
-0.024171853
-0.021397174
-0.018862649
-0.016554964
-0.014460599
-0.012565994
-0.010857705
-0.0093225483
-0.0079477289
-0.006720971
-0.005630619
-0.0046658154
-0.0038164241
-0.0030738493
-0.0024290507
-0.0018797009
-0.0014091659
-0.001052749
-0.00070153615
-0.00069132554
-8.5943022e-05
-0.0016914957
0.0024237396
-0.20559531
-0.19539914
-0.18611942
-0.17730824
-0.16837777
-0.15944507
-0.15063172
-0.14195973
-0.1334493
-0.12513171
-0.11703429
-0.10917899
-0.10158504
-0.094269209
-0.087245434
-0.080524882
-0.074116117
-0.068025189
-0.062255713
-0.056808985
-0.051684098
-0.046878089
-0.042386091
-0.038201496
-0.034316143
-0.030720504
-0.027403881
-0.024354605
-0.021560237
-0.019007757
-0.016683758
-0.014574623
-0.012666691
-0.010946416
-0.0094005097
-0.0080160758
-0.0067807387
-0.0056827453
-0.0047111436
-0.0038557058
-0.0031077456
-0.0024581377
-0.0019044367
-0.0014300025
-0.0010696106
-0.00071554812
-0.00069831564
-9.7432759e-05
-0.001662919
0.0023671789
-0.20866392
-0.19709106
-0.18749037
-0.17887815
-0.16995828
-0.16094889
-0.15208141
-0.14336048
-0.13479101
-0.1264094
-0.11824666
-0.1103248
-0.10266334
-0.095279908
-0.088189132
-0.081402704
-0.07492965
-0.068776426
-0.062946983
-0.057442881
-0.05226342
-0.047405785
-0.042865202
-0.038635115
-0.034707369
-0.031072408
-0.027719475
-0.024636813
-0.021811875
-0.019231518
-0.016882196
-0.014750141
-0.012821539
-0.011082685
-0.0095201301
-0.0081208202
-0.0068722229
-0.0057624326
-0.0047803492
-0.0039156011
-0.0031593608
-0.0025023694
-0.0019420019
-0.0014615988
-0.0010951586
-0.00073671409
-0.00070899231
-0.0001145483
-0.0016210716
0.0022838691
-0.21245581
-0.19893631
-0.18891242
-0.18070098
-0.17187709
-0.16279368
-0.15388315
-0.1451296
-0.13650653
-0.12805755
-0.11982219
-0.11182356
-0.10408164
-0.096615482
-0.089441125
-0.082571285
-0.076015832
-0.069781961
-0.063874246
-0.058294746
-0.053043154
-0.048116954
-0.043511586
-0.039220628
-0.035235995
-0.031548142
-0.028146268
-0.025018535
-0.022152275
-0.019534197
-0.017150581
-0.014987473
-0.013030857
-0.011266818
-0.0096816977
-0.0082622272
-0.0069956646
-0.0058698977
-0.0048736262
-0.0039962828
-0.0032288482
-0.0025618816
-0.0019925162
-0.0015040598
-0.0011294885
-0.00076510591
-0.00072350149
-0.0001371887
-0.001567097
0.0021756954
-0.21662368
-0.20065443
-0.19011644
-0.18254356
-0.17396188
-0.16483608
-0.15590486
-0.14715311
-0.13850315
-0.13000018
-0.12169754
-0.11362283
-0.10579699
-0.098240989
-0.09097308
-0.084007774
-0.077356356
-0.071027225
-0.065025982
-0.059355533
-0.054016248
-0.04900614
-0.04432105
-0.039954841
-0.035899607
-0.032145893
-0.028682914
-0.025498779
-0.022580711
-0.019915266
-0.017488538
-0.015286353
-0.013294459
-0.011498692
-0.0098851315
-0.0084402488
-0.0071510402
-0.006005136
-0.0049909844
-0.004097772
-0.0033162377
-0.0026367112
-0.0020560213
-0.0015574315
-0.0011726546
-0.00080076629
-0.00074199801
-0.0001652126
-0.0015024433
0.0020451121
-0.22077
-0.20206384
-0.19089072
-0.18412819
-0.17601214
-0.16694911
-0.15803145
-0.1493188
-0.14068501
-0.13215944
-0.12380784
-0.11566769
-0.10776328
-0.10011791
-0.092752783
-0.085685174
-0.078928576
-0.072493208
-0.066386214
-0.060611791
-0.055171359
-0.050063766
-0.045285497
-0.040830895
-0.036692387
-0.032860724
-0.029325216
-0.026073975
-0.023094148
-0.020372149
-0.017893878
-0.015644929
-0.013610783
-0.01177699
-0.010129332
-0.0086539713
-0.0073375975
-0.0061675346
-0.0051319311
-0.0042196795
-0.0034212291
-0.0027266338
-0.0021323579
-0.0016216104
-0.0012246064
-0.00084367415
-0.00076461869
-0.00019846914
-0.0014287597
0.0018950083
-0.22463392
-0.20356016
-0.1914596
-0.18526747
-0.17781364
-0.16904539
-0.16021933
-0.15157047
-0.14299014
-0.13447969
-0.12610392
-0.11791296
-0.10993885
-0.10220841
-0.094746198
-0.087573005
-0.08070533
-0.074155833
-0.067933706
-0.062044874
-0.05649218
-0.051275616
-0.046392573
-0.041838085
-0.037605082
-0.033684654
-0.030066308
-0.026738228
-0.023687535
-0.020900528
-0.018362923
-0.016060075
-0.013977184
-0.012099488
-0.010412438
-0.0089018516
-0.0075540691
-0.0063560662
-0.0052956477
-0.0043613672
-0.0035433392
-0.0028313
-0.0022212887
-0.0016964565
-0.0012852892
-0.00089383184
-0.00079155275
-0.00023686657
-0.0013478463
0.0017286739
-0.22587325
-0.20538807
-0.1925186
-0.18589766
-0.17893125
-0.17074461
-0.16219502
-0.15367527
-0.14520195
-0.13676855
-0.12842269
-0.12022225
-0.11221038
-0.10441971
-0.096878788
-0.089612488
-0.082641179
-0.075980794
-0.069643307
-0.063637031
-0.057966835
-0.052634395
-0.047638472
-0.042975189
-0.038638321
-0.034619575
-0.03090888
-0.027494678
-0.024364195
-0.021503719
-0.01889885
-0.016534745
-0.014396346
-0.012468579
-0.010736549
-0.0091857087
-0.007802015
-0.0065720572
-0.005483254
-0.0045237751
-0.0036833531
-0.0029513601
-0.0023233492
-0.0017823986
-0.0013550596
-0.00095146226
-0.00082318746
-0.0002801137
-0.0012618611
0.0015503779
-0.21601261
-0.20463416
-0.19363634
-0.18554896
-0.17849319
-0.17108081
-0.16313745
-0.15498359
-0.14679816
-0.13860721
-0.13043846
-0.1223494
-0.11439552
-0.10661976
-0.099057937
-0.091741615
-0.084697458
-0.077946931
-0.071506734
-0.06538922
-0.059602689
-0.054151687
-0.049037335
-0.044257668
-0.039807968
-0.035681103
-0.031867855
-0.028357254
-0.025136892
-0.022193231
-0.019511891
-0.017077919
-0.014876046
-0.012890912
-0.011107276
-0.0095102029
-0.0080852387
-0.0068185448
-0.0056971076
-0.004708662
-0.0038425066
-0.0030875946
-0.0024389352
-0.0018794884
-0.0014337479
-0.0010160409
-0.00085933282
-0.00032655275
-0.0011733641
0.0013656227
-0.19387464
-0.19858178
-0.19330863
-0.18440441
-0.17690189
-0.1698942
-0.16239409
-0.15453708
-0.14658901
-0.13861308
-0.13062887
-0.12268926
-0.11485354
-0.10716904
-0.099674767
-0.092405214
-0.085390016
-0.07865343
-0.072214673
-0.066088361
-0.06028482
-0.054810386
-0.049667744
-0.044856283
-0.040372447
-0.036210081
-0.032360787
-0.028814262
-0.025558636
-0.022580791
-0.019866663
-0.017401527
-0.015170264
-0.013157598
-0.011348317
-0.0097274691
-0.008280548
-0.0069936302
-0.0058535901
-0.004848035
-0.0039660853
-0.0031965793
-0.0025340638
-0.0019619352
-0.0015019273
-0.0010746797
-0.00089045885
-0.00037295308
-0.0010829362
0.0011823117
-0.18332581
-0.18914682
-0.18567396
-0.17693535
-0.16973261
-0.16347666
-0.15677703
-0.14963389
-0.14234318
-0.13497993
-0.12755389
-0.12011363
-0.11272087
-0.10542666
-0.098273559
-0.091299878
-0.084539294
-0.078020074
-0.07176527
-0.06579314
-0.060117423
-0.05474763
-0.049689376
-0.044944728
-0.040512568
-0.036388948
-0.032567452
-0.029039546
-0.025794931
-0.022821868
-0.020107499
-0.017638145
-0.015399581
-0.013377293
-0.011556706
-0.0099233977
-0.0084632879
-0.0071627956
-0.0060090508
-0.0049898629
-0.004094424
-0.0033117537
-0.0026359564
-0.0020514455
-0.0015762411
-0.0011399551
-0.00092403554
-0.0004274656
-0.00098207171
0.00098467644
-0.17458772
-0.17780927
-0.17553232
-0.16851176
-0.16215943
-0.15659739
-0.15066453
-0.14425143
-0.13762475
-0.1308796
-0.12402786
-0.11711192
-0.11019227
-0.10332181
-0.0965452
-0.089903137
-0.083432206
-0.077163889
-0.071124535
-0.065335681
-0.059814289
-0.054572973
-0.049620292
-0.044961082
-0.040596798
-0.036525864
-0.032744028
-0.029244723
-0.026019411
-0.023057927
-0.020348801
-0.01787957
-0.015637065
-0.013607674
-0.011777591
-0.010133035
-0.0086604551
-0.007346698
-0.0061792211
-0.0051460972
-0.0042366307
-0.0034400724
-0.0027500576
-0.0021521469
-0.001660276
-0.0012139391
-0.00096305418
-0.00048885937
-0.00087372105
0.00076820385
-0.1649097
-0.16552252
-0.16369117
-0.15874667
-0.15362427
-0.14880486
-0.14366311
-0.13806172
-0.13217808
-0.12611302
-0.1198942
-0.11356206
-0.10717373
-0.10078274
-0.094435603
-0.088175004
-0.082040023
-0.076065109
-0.070279801
-0.064708919
-0.059372726
-0.054287092
-0.049463726
-0.044910466
-0.0406316
-0.03662819
-0.032898423
-0.029437957
-0.026240275
-0.023297023
-0.020598345
-0.018133199
-0.015889655
-0.013855176
-0.01201687
-0.010361729
-0.0088768418
-0.0075495789
-0.0063678047
-0.0053199199
-0.0043953915
-0.0035837365
-0.0028781425
-0.00226532
-0.0017550993
-0.0012968353
-0.001008754
-0.00055461236
-0.00076544283
0.00054295356
-0.15434065
-0.15307355
-0.15126422
-0.1480346
-0.14420542
-0.14019085
-0.13584613
-0.13108869
-0.12600201
-0.12066913
-0.1151332
-0.10943722
-0.10363418
-0.097776483
-0.091911563
-0.086083367
-0.080332723
-0.074696473
-0.06920699
-0.063892165
-0.058775472
-0.053876055
-0.049208878
-0.044784956
-0.040611623
-0.036692829
-0.033029464
-0.029619685
-0.026459264
-0.023541924
-0.020859671
-0.018403118
-0.016161792
-0.014124423
-0.01227921
-0.010614072
-0.0091168728
-0.0077756212
-0.0065786862
-0.0055148749
-0.004573883
-0.0037455305
-0.0030226111
-0.0023929288
-0.0018623853
-0.0013896787
-0.0010626345
-0.00062409526
-0.00066327496
0.0003170301
-0.14255419
-0.14049525
-0.13880046
-0.13684516
-0.13418683
-0.13100825
-0.12745065
-0.12351785
-0.11923197
-0.11464885
-0.10981938
-0.10478827
-0.099603928
-0.094316394
-0.08897294
-0.083617739
-0.078292255
-0.073034738
-0.067879628
-0.062857313
-0.057994062
-0.053312011
-0.048829227
-0.044559852
-0.040514304
-0.036699522
-0.033119248
-0.029774326
-0.026663022
-0.023781354
-0.021123411
-0.01868168
-0.016447353
-0.014410624
-0.012560965
-0.010887387
-0.0093786766
-0.0080236113
-0.0068111772
-0.00573068
-0.0047721263
-0.0039256834
-0.0031838358
-0.0025353899
-0.0019826499
-0.0014927854
-0.0011256778
-0.00069686679
-0.00057320984
9.9085974e-05
-0.12986018
-0.12793042
-0.12658373
-0.12554053
-0.12384583
-0.12147691
-0.11867961
-0.11552547
-0.11201134
-0.10816677
-0.1040417
-0.09968252
-0.095132178
-0.090435596
-0.085638685
-0.080785087
-0.075915913
-0.071069678
-0.066281881
-0.061584594
-0.057006222
-0.052571381
-0.048300857
-0.04421166
-0.040317141
-0.03662717
-0.033148351
-0.029884286
-0.026835851
-0.024001503
-0.021377582
-0.018958627
-0.016737678
-0.014706572
-0.012856229
-0.011176915
-0.0096584904
-0.0082906378
-0.0070630819
-0.0059657299
-0.0049889937
-0.004123441
-0.003361356
-0.0026924359
-0.0021158482
-0.0016060833
-0.0011985592
-0.00077251153
-0.00050114774
-0.0001015689
-0.11697441
-0.11562486
-0.11476685
-0.11437946
-0.11344032
-0.11180662
-0.1097201
-0.10728312
-0.10448896
-0.10134946
-0.097906696
-0.094205005
-0.090284227
-0.086183668
-0.081944402
-0.077608339
-0.073215613
-0.068804068
-0.064409184
-0.060063744
-0.055797469
-0.051636759
-0.047604555
-0.043720293
-0.039999931
-0.03645604
-0.033097957
-0.029931981
-0.026961605
-0.02418778
-0.021609191
-0.019222549
-0.017022879
-0.015003814
-0.01315787
-0.011476721
-0.0099514458
-0.0085727669
-0.0073312728
-0.0062175805
-0.0052226112
-0.0043373937
-0.0035541405
-0.0028633237
-0.0022615258
-0.0017292445
-0.001281654
-0.00085081947
-0.00045210872
-0.00027608478
-0.1044401
-0.10375709
-0.10341495
-0.10352159
-0.10317051
-0.10217411
-0.10072917
-0.098939405
-0.096801349
-0.094317309
-0.091519613
-0.088447235
-0.085135516
-0.081619422
-0.077935446
-0.074121126
-0.070214187
-0.066251104
-0.062266502
-0.058292926
-0.054360512
-0.050496658
-0.046725779
-0.043069158
-0.039544888
-0.036167879
-0.032949926
-0.029899843
-0.027023629
-0.024324683
-0.021804043
-0.019460637
-0.01729156
-0.015292337
-0.013457204
-0.011779364
-0.010251244
-0.0088647317
-0.0076113995
-0.0064826832
-0.0054701205
-0.0045652702
-0.0037604129
-0.0030466931
-0.0024187036
-0.0018616102
-0.0013749233
-0.00093179461
-0.00042945609
-0.00041731911
-0.092542855
-0.0924459
-0.092572166
-0.093066445
-0.093176706
-0.092715156
-0.091830863
-0.090613776
-0.089062717
-0.087175236
-0.084974575
-0.082492688
-0.079759648
-0.076805327
-0.073661757
-0.070362352
-0.066940876
-0.063431131
-0.059866131
-0.05627741
-0.052694683
-0.049145536
-0.045655124
-0.042245932
-0.038937631
-0.035746997
-0.032687909
-0.029771399
-0.027005762
-0.024396701
-0.021947524
-0.019659351
-0.017531354
-0.015561003
-0.013744323
-0.012076137
-0.010550321
-0.0091600346
-0.0078979414
-0.0067563986
-0.0057276659
-0.0048039059
-0.0039776103
-0.0032405204
-0.0025858327
-0.0020021384
-0.0014778351
-0.0010155484
-0.00043431597
-0.00052096493
-0.081422978
-0.081782004
-0.082290686
-0.083087555
-0.083558654
-0.083534209
-0.083125218
-0.082403791
-0.08136833
-0.080013468
-0.078354801
-0.07641692
-0.074224134
-0.071801042
-0.069174572
-0.066373756
-0.063428505
-0.060369014
-0.0572256
-0.054028039
-0.050804914
-0.04758325
-0.044388212
-0.041242819
-0.038167714
-0.035181015
-0.032298231
-0.029532241
-0.026893335
-0.024389299
-0.022025547
-0.019805288
-0.017729722
-0.015798251
-0.014008707
-0.012357587
-0.010840281
-0.0094512999
-0.0081844894
-0.0070332175
-0.0059905626
-0.0050493668
-0.0042024726
-0.0034421756
-0.0027608309
-0.0021493988
-0.0015893366
-0.0011021444
-0.00046528659
-0.00058638564
-0.071140903
-0.071827866
-0.072622914
-0.073644821
-0.074391086
-0.074713772
-0.074695752
-0.07439255
-0.073800477
-0.072911748
-0.071735633
-0.070289797
-0.06859268
-0.066663564
-0.064524188
-0.062198719
-0.05971287
-0.057093158
-0.054366559
-0.051560233
-0.048700938
-0.045814474
-0.04292534
-0.040056423
-0.037228727
-0.03446115
-0.031770336
-0.029170583
-0.026673816
-0.024289611
-0.022025262
-0.0198859
-0.017874635
-0.015992735
-0.014239814
-0.012614045
-0.011112363
-0.0097306817
-0.0084640935
-0.0073070506
-0.006253535
-0.0052971413
-0.0044311933
-0.0036485339
-0.0029411647
-0.0023015955
-0.0017078672
-0.0011914317
-0.0005185409
-0.00061690655
-0.061708561
-0.062616281
-0.063609023
-0.064784959
-0.065730962
-0.066319581
-0.066612827
-0.066652487
-0.066432417
-0.06594269
-0.06518735
-0.064177931
-0.0629273
-0.06144957
-0.059761395
-0.057882025
-0.055832633
-0.053635743
-0.051314801
-0.048893837
-0.046397095
-0.043848529
-0.041271354
-0.038687704
-0.036118334
-0.033582355
-0.031097024
-0.028677592
-0.026337213
-0.024086906
-0.021935564
-0.019890013
-0.017955108
-0.016133859
-0.014427589
-0.012836106
-0.011357888
-0.0099902678
-0.0087296241
-0.0075715468
-0.0065109908
-0.0055423715
-0.0046596112
-0.0038561237
-0.0031239635
-0.0024566173
-0.0018314169
-0.0012829132
-0.00058836351
-0.00061937357
-0.05311118
-0.054155511
-0.055271442
-0.056539447
-0.057619502
-0.058402331
-0.058934135
-0.059245811
-0.059329172
-0.059172598
-0.058775918
-0.058145471
-0.057289144
-0.056216265
-0.054938686
-0.053470897
-0.051829527
-0.050032885
-0.048100631
-0.046053423
-0.043912549
-0.041699552
-0.039435805
-0.037142119
-0.034838429
-0.032543493
-0.030274652
-0.02804762
-0.025876339
-0.023772886
-0.02174742
-0.01980819
-0.017961573
-0.016212156
-0.014562848
-0.013015014
-0.011568627
-0.01022243
-0.0089740984
-0.0078203917
-0.0067572899
-0.0057800894
-0.0048834128
-0.0040612922
-0.0033061536
-0.0026121119
-0.0019576323
-0.0013756889
-0.00066805301
-0.00060296586
-0.04531798
-0.046434633
-0.047614511
-0.048923578
-0.050082434
-0.050997882
-0.051704062
-0.052223428
-0.052546445
-0.052660412
-0.052561933
-0.052253147
-0.051737726
-0.051020794
-0.05010987
-0.049015027
-0.047748544
-0.046324563
-0.044758836
-0.043068452
-0.041271501
-0.03938673
-0.037433193
-0.035429881
-0.033395383
-0.031347581
-0.029303373
-0.027278441
-0.025287055
-0.023341927
-0.021454116
-0.019632975
-0.017886136
-0.01621955
-0.014637545
-0.013142921
-0.011737066
-0.010420083
-0.0091909297
-0.0080475451
-0.0069869668
-0.0060054206
-0.0050983147
-0.0042603606
-0.0034845897
-0.0027655783
-0.0020839616
-0.0014684926
-0.00075100339
-0.00057748394
-0.038287574
-0.039428749
-0.040627467
-0.041937838
-0.043130941
-0.044127831
-0.044953546
-0.045624128
-0.046129404
-0.046456246
-0.046598989
-0.046556556
-0.046329252
-0.045918712
-0.045328725
-0.04456545
-0.043637183
-0.042554131
-0.041328236
-0.039972972
-0.038503095
-0.036934337
-0.035283103
-0.033566158
-0.031800305
-0.03000207
-0.028187426
-0.026371537
-0.024568535
-0.022791334
-0.021051494
-0.019359115
-0.017722783
-0.01614955
-0.014644954
-0.013213068
-0.011856572
-0.01057685
-0.0093740932
-0.0082474026
-0.0071948856
-0.0062137313
-0.0053001999
-0.0044497468
-0.0036561674
-0.002914462
-0.0022078183
-0.0015598057
-0.00083169653
-0.00055154366
-0.031972525
-0.033103928
-0.034288543
-0.035570772
-0.0367637
-0.037800974
-0.038700867
-0.039474667
-0.040112168
-0.040600411
-0.040932324
-0.041104547
-0.041114864
-0.04096218
-0.040647251
-0.040172923
-0.039544015
-0.038767183
-0.037850816
-0.036804917
-0.035640918
-0.034371452
-0.033010101
-0.031571126
-0.030069195
-0.02851909
-0.026935431
-0.02533242
-0.023723604
-0.022121666
-0.020538254
-0.018983841
-0.017467624
-0.015997464
-0.01457986
-0.013219949
-0.011921547
-0.010687196
-0.0095182412
-0.0084149013
-0.0073763392
-0.0064007217
-0.0054852056
-0.0046260485
-0.0038179063
-0.0030562442
-0.0023267351
-0.0016480102
-0.00090633924
-0.0005311857
-0.02632278
-0.02742095
-0.028568562
-0.029802046
-0.030969406
-0.032015336
-0.032953138
-0.03379065
-0.034518106
-0.035123185
-0.035598143
-0.035938155
-0.03613927
-0.036198409
-0.036114002
-0.035886247
-0.03551707
-0.035010063
-0.034370457
-0.033605064
-0.032722164
-0.03173135
-0.03064334
-0.029469762
-0.028222922
-0.026915565
-0.025560618
-0.024170939
-0.022759088
-0.021337108
-0.019916332
-0.018507222
-0.01711923
-0.015760704
-0.014438817
-0.013159534
-0.011927604
-0.010746574
-0.009618827
-0.0085456201
-0.0075271309
-0.0065624938
-0.0056497824
-0.0047860986
-0.003967007
-0.003188516
-0.0024384771
-0.0017315329
-0.00097298782
-0.00051928915
-0.021287962
-0.022337947
-0.023433737
-0.024605176
-0.025729294
-0.026760394
-0.02770815
-0.028577935
-0.029360747
-0.030045244
-0.030623576
-0.031090134
-0.031439913
-0.031668527
-0.031772756
-0.031750802
-0.031602311
-0.031328367
-0.030931519
-0.030415775
-0.029786559
-0.029050618
-0.0282159
-0.027291396
-0.026286967
-0.025213142
-0.024080909
-0.02290149
-0.021686123
-0.020445848
-0.019191313
-0.017932597
-0.016679052
-0.015439176
-0.014220514
-0.013029588
-0.011871849
-0.010751661
-0.0096722922
-0.0086359292
-0.0076436905
-0.0066956402
-0.005790761
-0.0049270193
-0.0041009013
-0.0033090423
-0.0025411032
-0.0018089468
-0.0010311919
-0.00051588069
-0.016819259
-0.01781264
-0.018848126
-0.019950059
-0.021019625
-0.022019431
-0.022956493
-0.023834441
-0.024645224
-0.025378682
-0.026027276
-0.026585134
-0.027046752
-0.027407008
-0.02766163
-0.027807431
-0.027842372
-0.027765593
-0.027577472
-0.027279672
-0.026875143
-0.026368083
-0.02576388
-0.025069011
-0.024290921
-0.023437874
-0.022518786
-0.021543047
-0.020520319
-0.019460351
-0.018372786
-0.017266983
-0.016151856
-0.015035726
-0.013926202
-0.012830074
-0.011753248
-0.01070068
-0.0096763465
-0.0086832224
-0.0077232622
-0.0067973919
-0.0059054668
-0.0050463113
-0.0042173211
-0.0034158296
-0.0026329866
-0.0018790225
-0.0010813715
-0.00051909059
-0.012870476
-0.013803752
-0.014775312
-0.015804849
-0.016813681
-0.017771558
-0.018683526
-0.019551974
-0.020369882
-0.021128362
-0.021820454
-0.0224404
-0.022982612
-0.023441689
-0.0238128
-0.024091896
-0.024275788
-0.024362202
-0.024349865
-0.024238568
-0.024029214
-0.023723826
-0.023325526
-0.022838497
-0.022267909
-0.021619821
-0.020901061
-0.02011909
-0.019281845
-0.018397571
-0.017474657
-0.016521466
-0.015546174
-0.014556623
-0.013560184
-0.012563638
-0.011573075
-0.010593815
-0.0096303394
-0.0086862409
-0.0077641795
-0.006865846
-0.0059919032
-0.005142
-0.0043144103
-0.0035072141
-0.0027128234
-0.0019407483
-0.0011242115
-0.00052629929
-0.0093996006
-0.010272805
-0.011180394
-0.01213806
-0.01308394
-0.0139939
-0.014871502
-0.015718235
-0.016528101
-0.017293486
-0.018008158
-0.018666715
-0.019263781
-0.019794007
-0.020252385
-0.020634432
-0.020936263
-0.021154663
-0.021287177
-0.02133219
-0.021288997
-0.021157841
-0.020939932
-0.020637451
-0.020253515
-0.019792134
-0.019258131
-0.018657049
-0.01799504
-0.017278732
-0.016515091
-0.015711273
-0.01487448
-0.014011814
-0.013130141
-0.012235961
-0.011335299
-0.010433596
-0.0095356248
-0.008645413
-0.0077661713
-0.0069002339
-0.0060489806
-0.0052128257
-0.0043908738
-0.0035819735
-0.0027796601
-0.0019933519
-0.0011602852
-0.0005350497
-0.006368631
-0.0071844294
-0.0080306991
-0.0089196641
-0.0098035236
-0.010663358
-0.011501582
-0.012319008
-0.013110595
-0.013869937
-0.014591587
-0.015270637
-0.015902099
-0.016480904
-0.017002142
-0.017461214
-0.017853903
-0.018176443
-0.018425606
-0.01859879
-0.018694096
-0.018710386
-0.01864733
-0.018505432
-0.018286042
-0.017991345
-0.017624324
-0.017188708
-0.016688899
-0.016129883
-0.015517125
-0.014856446
-0.014153904
-0.013415661
-0.012647859
-0.011856487
-0.011047268
-0.010225543
-0.0093961627
-0.0085633981
-0.0077308447
-0.0069013415
-0.0060768739
-0.0052585401
-0.0044462129
-0.0036395025
-0.0028329848
-0.0020363631
-0.0011899678
-0.00054352872
-0.0037453577
-0.0045079562
-0.0052972307
-0.006122336
-0.0069472277
-0.0077574191
-0.0085544147
-0.0093384968
-0.010105481
-0.010850061
-0.011567561
-0.012253626
-0.012903746
-0.013513262
-0.014077537
-0.014592082
-0.015052614
-0.015455117
-0.015795923
-0.016071796
-0.016280008
-0.016418407
-0.016485479
-0.016480394
-0.016403041
-0.016254046
-0.016034776
-0.015747317
-0.015394439
-0.014979546
-0.014506604
-0.013980056
-0.013404721
-0.012785694
-0.012128229
-0.011437626
-0.01071911
-0.0099777222
-0.0092181993
-0.0084448703
-0.0076615484
-0.0068714308
-0.0060769848
-0.0052798939
-0.0044807215
-0.0036798061
-0.0028727037
-0.0020695916
-0.0012134593
-0.00055060974
-0.0015041105
-0.0022193117
-0.0029575436
-0.0037253356
-0.0044964067
-0.0052599834
-0.0060168319
-0.0067668023
-0.0075064481
-0.0082314299
-0.0089377825
-0.0096216955
-0.010279167
-0.010905998
-0.011497924
-0.0120507
-0.012560156
-0.013022243
-0.013433105
-0.01378915
-0.014087126
-0.014324185
-0.014497954
-0.01460659
-0.014648829
-0.014624032
-0.014532204
-0.014374009
-0.014150767
-0.013864428
-0.013517544
-0.013113212
-0.012655008
-0.012146906
-0.011593189
-0.010998347
-0.010366972
-0.0097036496
-0.0090128434
-0.0082987811
-0.0075653393
-0.0068159303
-0.0060533755
-0.0052798352
-0.004496472
-0.003704293
-0.0028997694
-0.0020936158
-0.0012312667
-0.00055592004
0.00037921705
-0.00029440778
-0.00098780645
-0.0017051318
-0.0024281568
-0.0031492161
-0.0038684745
-0.0045854164
-0.0052972071
-0.0060003277
-0.0066914393
-0.0073672319
-0.008024185
-0.0086585615
-0.0092664961
-0.0098440584
-0.01038729
-0.010892249
-0.01135506
-0.011771981
-0.012139466
-0.012454229
-0.012713309
-0.012914132
-0.013054568
-0.013132989
-0.013148303
-0.013099998
-0.012988154
-0.012813455
-0.012577181
-0.012281189
-0.01192787
-0.011520097
-0.011061162
-0.010554695
-0.010004577
-0.0094148349
-0.008789541
-0.0081326944
-0.0074481045
-0.0067392696
-0.0060092428
-0.0052605485
-0.0044948479
-0.0037137361
-0.002914518
-0.0021084268
-0.001243206
-0.00055896326
0.0019018085
0.0012619622
0.00060537857
-7.0344816e-05
-0.00075339863
-0.0014385616
-0.0021255027
-0.0028134091
-0.0034999364
-0.0041822301
-0.004857469
-0.0055227701
-0.0061750345
-0.0068109422
-0.0074270074
-0.0080196203
-0.0085850753
-0.0091196031
-0.0096194141
-0.010080749
-0.010499933
-0.010873434
-0.011197921
-0.011470327
-0.011687909
-0.01184831
-0.011949606
-0.011990361
-0.011969662
-0.01188715
-0.011743033
-0.011538092
-0.011273671
-0.010951649
-0.010574397
-0.010144724
-0.0096657976
-0.0091410681
-0.0085741644
-0.007968789
-0.0073285994
-0.0066570858
-0.0059574318
-0.0052324235
-0.0044841173
-0.0037145996
-0.0029219047
-0.0021177124
-0.0012518817
-0.00056105418
0.003104426
0.0024923564
0.0018659056
0.0012242976
0.00057431736
-8.0771956e-05
-0.00074025442
-0.0014030667
-0.0020672353
-0.0027304236
-0.0033902206
-0.0040440871
-0.0046892704
-0.0053227999
-0.0059415184
-0.0065421071
-0.0071211059
-0.0076749381
-0.0081999439
-0.0086924203
-0.0091486664
-0.0095650337
-0.0099379799