/*--------------------------------*- C++ -*----------------------------------*\
| =========                 |                                                 |
| \\      /  F ield         | OpenFOAM: The Open Source CFD Toolbox           |
|  \\    /   O peration     | Version:  4.1                                   |
|   \\  /    A nd           | Web:      www.OpenFOAM.org                      |
|    \\/     M anipulation  |                                                 |
\*---------------------------------------------------------------------------*/
FoamFile
{
    version     2.0;
    format      ascii;
    class       volScalarField;
    location    "8";
    object      p;
}
// * * * * * * * * * * * * * * * * * * * * * * * * * * * * * * * * * * * * * //

dimensions      [0 2 -2 0 0 0 0];

internalField   nonuniform List<scalar> 
1000
(
1.5222329
1.5051571
1.4886709
1.4725665
1.4566826
1.4409339
1.42528
1.4096998
1.3941781
1.3787022
1.3632625
1.347852
1.3324662
1.3171018
1.3017559
1.2864265
1.2711114
1.2558091
1.2405181
1.2252372
1.2099651
1.194701
1.1794438
1.1641929
1.1489474
1.1337067
1.1184702
1.1032374
1.0880077
1.0727808
1.0575562
1.0423335
1.0271123
1.0118925
0.99667356
0.98145543
0.96623788
0.95102075
0.93580391
0.92058728
0.90537078
0.89015437
0.874938
0.85972167
0.84450535
0.82928904
0.81407273
0.79885642
0.78364011
0.7684238
0.75320749
0.73799118
0.72277487
0.70755855
0.69234224
0.67712593
0.66190961
0.6466933
0.63147699
0.61626067
0.60104436
0.58582805
0.57061173
0.55539542
0.54017911
0.52496279
0.50974648
0.49453016
0.47931385
0.46409754
0.44888122
0.43366491
0.4184486
0.40323228
0.38801597
0.37279966
0.35758334
0.34236703
0.32715072
0.3119344
0.29671809
0.28150178
0.26628546
0.25106915
0.23585284
0.22063652
0.20542021
0.1902039
0.17498758
0.15977127
0.14455496
0.12933864
0.11412233
0.098906018
0.083689705
0.068473392
0.05325708
0.038040768
0.022824458
0.0076081506
1.5218491
1.504766
1.4885865
1.4726917
1.4568487
1.4410679
1.4253813
1.409783
1.3942499
1.3787635
1.3633135
1.3478943
1.3325016
1.3171317
1.3017815
1.2864484
1.2711303
1.2558253
1.2405321
1.2252491
1.2099754
1.1947097
1.1794512
1.1641991
1.1489526
1.133711
1.1184737
1.1032402
1.08801
1.0727826
1.0575575
1.0423345
1.027113
1.0118929
0.9966739
0.98145566
0.96623802
0.95102083
0.93580396
0.9205873
0.90537079
0.89015437
0.874938
0.85972167
0.84450535
0.82928904
0.81407273
0.79885642
0.78364011
0.7684238
0.75320749
0.73799118
0.72277487
0.70755855
0.69234224
0.67712593
0.66190961
0.6466933
0.63147699
0.61626067
0.60104436
0.58582805
0.57061173
0.55539542
0.54017911
0.52496279
0.50974648
0.49453016
0.47931385
0.46409754
0.44888122
0.43366491
0.4184486
0.40323228
0.38801597
0.37279966
0.35758334
0.34236703
0.32715072
0.3119344
0.29671809
0.28150178
0.26628546
0.25106915
0.23585284
0.22063652
0.20542021
0.1902039
0.17498758
0.15977127
0.14455496
0.12933864
0.11412233
0.098906018
0.083689705
0.068473392
0.053257079
0.038040767
0.022824456
0.0076081488
1.5211823
1.5039882
1.4882317
1.4727001
1.456978
1.4411786
1.4254544
1.40984
1.3943038
1.3788139
1.363357
1.3479301
1.3325311
1.3171566
1.3018028
1.2864666
1.2711459
1.2558387
1.2405436
1.225259
1.2099839
1.194717
1.1794575
1.1642044
1.1489571
1.1337148
1.1184769
1.1032428
1.0880121
1.0727843
1.0575589
1.0423356
1.0271139
1.0118936
0.99667437
0.981456
0.96623826
0.951021
0.93580407
0.92058738
0.90537084
0.8901544
0.87493802
0.85972168
0.84450536
0.82928904
0.81407273
0.79885642
0.78364011
0.7684238
0.75320749
0.73799118
0.72277487
0.70755855
0.69234224
0.67712593
0.66190961
0.6466933
0.63147699
0.61626067
0.60104436
0.58582805
0.57061173
0.55539542
0.54017911
0.52496279
0.50974648
0.49453016
0.47931385
0.46409754
0.44888122
0.43366491
0.4184486
0.40323228
0.38801597
0.37279966
0.35758334
0.34236703
0.32715072
0.3119344
0.29671809
0.28150178
0.26628546
0.25106915
0.23585284
0.22063652
0.20542021
0.1902039
0.17498758
0.15977127
0.14455496
0.12933864
0.11412233
0.098906018
0.083689704
0.068473391
0.053257077
0.038040765
0.022824452
0.0076081464
1.5205477
1.5031853
1.4877967
1.472644
1.4570798
1.441281
1.4255226
1.4098929
1.3943563
1.378866
1.3634037
1.3479692
1.3325635
1.317184
1.3018263
1.286487
1.2711634
1.2558538
1.2405566
1.2252704
1.2099938
1.1947257
1.179465
1.164211
1.1489628
1.1337197
1.1184811
1.1032465
1.0880152
1.0727869
1.0575611
1.0423373
1.0271153
1.0118947
0.99667526
0.98145667
0.96623877
0.95102137
0.93580433
0.92058756
0.90537096
0.89015448
0.87493807
0.85972171
0.84450537
0.82928905
0.81407274
0.79885643
0.78364011
0.7684238
0.75320749
0.73799118
0.72277487
0.70755855
0.69234224
0.67712593
0.66190961
0.6466933
0.63147699
0.61626067
0.60104436
0.58582805
0.57061173
0.55539542
0.54017911
0.52496279
0.50974648
0.49453016
0.47931385
0.46409754
0.44888122
0.43366491
0.4184486
0.40323228
0.38801597
0.37279966
0.35758334
0.34236703
0.32715072
0.3119344
0.29671809
0.28150178
0.26628546
0.25106915
0.23585284
0.22063652
0.20542021
0.1902039
0.17498758
0.15977127
0.14455496
0.12933864
0.11412233
0.098906017
0.083689703
0.068473389
0.053257075
0.038040762
0.022824449
0.0076081442
1.5201788
1.5026983
1.4875136
1.4725937
1.4571375
1.4413455
1.4255666
1.4099271
1.394391
1.3789014
1.3634364
1.3479971
1.332587
1.317204
1.3018438
1.2865022
1.2711766
1.2558653
1.2405667
1.2252792
1.2100015
1.1947324
1.179471
1.1642162
1.1489674
1.1337237
1.1184846
1.1032495
1.0880178
1.0727891
1.0575629
1.0423389
1.0271166
1.0118957
0.99667606
0.98145729
0.96623924
0.95102171
0.93580458
0.92058773
0.90537108
0.89015456
0.87493812
0.85972174
0.84450539
0.82928906
0.81407274
0.79885643
0.78364012
0.7684238
0.75320749
0.73799118
0.72277487
0.70755855
0.69234224
0.67712593
0.66190961
0.6466933
0.63147699
0.61626067
0.60104436
0.58582805
0.57061173
0.55539542
0.54017911
0.52496279
0.50974648
0.49453016
0.47931385
0.46409754
0.44888122
0.43366491
0.4184486
0.40323228
0.38801597
0.37279966
0.35758334
0.34236703
0.32715072
0.3119344
0.29671809
0.28150178
0.26628546
0.25106915
0.23585284
0.22063652
0.20542021
0.1902039
0.17498758
0.15977127
0.14455496
0.12933864
0.11412233
0.098906017
0.083689702
0.068473388
0.053257074
0.03804076
0.022824446
0.0076081428
1.5201788
1.5026983
1.4875136
1.4725937
1.4571375
1.4413455
1.4255666
1.4099271
1.394391
1.3789014
1.3634364
1.3479971
1.332587
1.317204
1.3018438
1.2865022
1.2711766
1.2558653
1.2405667
1.2252792
1.2100015
1.1947324
1.179471
1.1642162
1.1489674
1.1337237
1.1184846
1.1032495
1.0880178
1.0727891
1.0575629
1.0423389
1.0271166
1.0118957
0.99667605
0.98145729
0.96623924
0.95102171
0.93580458
0.92058773
0.90537108
0.89015456
0.87493812
0.85972174
0.84450539
0.82928906
0.81407274
0.79885643
0.78364012
0.7684238
0.75320749
0.73799118
0.72277487
0.70755855
0.69234224
0.67712593
0.66190961
0.6466933
0.63147699
0.61626067
0.60104436
0.58582805
0.57061173
0.55539542
0.54017911
0.52496279
0.50974648
0.49453016
0.47931385
0.46409754
0.44888122
0.43366491
0.4184486
0.40323228
0.38801597
0.37279966
0.35758334
0.34236703
0.32715072
0.3119344
0.29671809
0.28150178
0.26628546
0.25106915
0.23585284
0.22063652
0.20542021
0.1902039
0.17498758
0.15977127
0.14455496
0.12933864
0.11412233
0.098906016
0.083689702
0.068473388
0.053257074
0.03804076
0.022824446
0.0076081424
1.5205477
1.5031853
1.4877967
1.472644
1.4570798
1.441281
1.4255226
1.4098929
1.3943563
1.378866
1.3634037
1.3479692
1.3325635
1.317184
1.3018263
1.2864869
1.2711634
1.2558538
1.2405566
1.2252704
1.2099938
1.1947257
1.179465
1.164211
1.1489628
1.1337197
1.1184811
1.1032465
1.0880152
1.0727869
1.0575611
1.0423373
1.0271153
1.0118947
0.99667525
0.98145667
0.96623877
0.95102137
0.93580433
0.92058756
0.90537096
0.89015448
0.87493807
0.85972171
0.84450538
0.82928905
0.81407274
0.79885643
0.78364012
0.7684238
0.75320749
0.73799118
0.72277487
0.70755855
0.69234224
0.67712593
0.66190961
0.6466933
0.63147699
0.61626067
0.60104436
0.58582805
0.57061173
0.55539542
0.54017911
0.52496279
0.50974648
0.49453016
0.47931385
0.46409754
0.44888122
0.43366491
0.4184486
0.40323228
0.38801597
0.37279966
0.35758334
0.34236703
0.32715072
0.3119344
0.29671809
0.28150178
0.26628546
0.25106915
0.23585284
0.22063652
0.20542021
0.1902039
0.17498758
0.15977127
0.14455496
0.12933864
0.11412233
0.098906016
0.083689703
0.068473389
0.053257075
0.038040762
0.022824448
0.0076081433
1.5211823
1.5039882
1.4882317
1.4727001
1.456978
1.4411786
1.4254544
1.40984
1.3943038
1.3788139
1.363357
1.3479301
1.3325311
1.3171566
1.3018028
1.2864666
1.2711459
1.2558387
1.2405436
1.225259
1.2099839
1.194717
1.1794575
1.1642044
1.1489571
1.1337148
1.1184769
1.1032428
1.0880121
1.0727843
1.0575589
1.0423355
1.0271139
1.0118936
0.99667437
0.981456
0.96623826
0.951021
0.93580407
0.92058738
0.90537084
0.8901544
0.87493802
0.85972168
0.84450536
0.82928904
0.81407273
0.79885643
0.78364012
0.7684238
0.75320749
0.73799118
0.72277487
0.70755855
0.69234224
0.67712593
0.66190961
0.6466933
0.63147699
0.61626067
0.60104436
0.58582805
0.57061173
0.55539542
0.54017911
0.52496279
0.50974648
0.49453016
0.47931385
0.46409754
0.44888122
0.43366491
0.4184486
0.40323228
0.38801597
0.37279966
0.35758334
0.34236703
0.32715072
0.3119344
0.29671809
0.28150178
0.26628546
0.25106915
0.23585284
0.22063652
0.20542021
0.1902039
0.17498758
0.15977127
0.14455496
0.12933864
0.11412233
0.098906017
0.083689703
0.06847339
0.053257077
0.038040765
0.022824451
0.0076081454
1.5218491
1.504766
1.4885865
1.4726917
1.4568487
1.4410679
1.4253813
1.409783
1.3942499
1.3787635
1.3633135
1.3478943
1.3325016
1.3171317
1.3017815
1.2864484
1.2711303
1.2558253
1.2405321
1.2252491
1.2099754
1.1947097
1.1794512
1.1641991
1.1489526
1.133711
1.1184737
1.1032402
1.08801
1.0727825
1.0575575
1.0423345
1.027113
1.0118929
0.9966739
0.98145566
0.96623802
0.95102083
0.93580396
0.92058731
0.90537079
0.89015437
0.87493801
0.85972167
0.84450535
0.82928904
0.81407273
0.79885643
0.78364012
0.7684238
0.75320749
0.73799118
0.72277487
0.70755855
0.69234224
0.67712593
0.66190961
0.6466933
0.63147699
0.61626067
0.60104436
0.58582805
0.57061173
0.55539542
0.54017911
0.52496279
0.50974648
0.49453016
0.47931385
0.46409754
0.44888122
0.43366491
0.4184486
0.40323228
0.38801597
0.37279966
0.35758334
0.34236703
0.32715072
0.3119344
0.29671809
0.28150178
0.26628546
0.25106915
0.23585284
0.22063652
0.20542021
0.1902039
0.17498758
0.15977127
0.14455496
0.12933864
0.11412233
0.098906017
0.083689704
0.068473391
0.053257079
0.038040767
0.022824455
0.0076081482
1.5222329
1.5051572
1.4886709
1.4725665
1.4566826
1.4409339
1.42528
1.4096998
1.3941781
1.3787022
1.3632625
1.347852
1.3324662
1.3171018
1.3017559
1.2864265
1.2711114
1.2558091
1.2405181
1.2252372
1.2099651
1.194701
1.1794438
1.1641928
1.1489473
1.1337067
1.1184702
1.1032374
1.0880077
1.0727808
1.0575562
1.0423335
1.0271123
1.0118924
0.99667356
0.98145543
0.96623788
0.95102075
0.93580391
0.92058728
0.90537078
0.89015437
0.87493801
0.85972167
0.84450536
0.82928904
0.81407274
0.79885643
0.78364012
0.7684238
0.75320749
0.73799118
0.72277487
0.70755855
0.69234224
0.67712593
0.66190961
0.6466933
0.63147699
0.61626067
0.60104436
0.58582805
0.57061173
0.55539542
0.54017911
0.52496279
0.50974648
0.49453016
0.47931385
0.46409754
0.44888122
0.43366491
0.4184486
0.40323228
0.38801597
0.37279966
0.35758334
0.34236703
0.32715072
0.3119344
0.29671809
0.28150178
0.26628546
0.25106915
0.23585284
0.22063652
0.20542021
0.1902039
0.17498758
0.15977127
0.14455496
0.12933864
0.11412233
0.098906017
0.083689704
0.068473392
0.053257079
0.038040768
0.022824458
0.0076081503
)
;

boundaryField
{
    top
    {
        type            zeroGradient;
    }
    inlet
    {
        type            fixedValue;
        value           uniform 1.53103;
    }
    outlet
    {
        type            fixedValue;
        value           uniform 0;
    }
    bottom
    {
        type            zeroGradient;
    }
    back
    {
        type            empty;
    }
    front
    {
        type            empty;
    }
}


// ************************************************************************* //
