/*--------------------------------*- C++ -*----------------------------------*\
| =========                 |                                                 |
| \\      /  F ield         | OpenFOAM: The Open Source CFD Toolbox           |
|  \\    /   O peration     | Version:  4.1                                   |
|   \\  /    A nd           | Web:      www.OpenFOAM.org                      |
|    \\/     M anipulation  |                                                 |
\*---------------------------------------------------------------------------*/
FoamFile
{
    version     2.0;
    format      ascii;
    class       surfaceScalarField;
    location    "8";
    object      phi;
}
// * * * * * * * * * * * * * * * * * * * * * * * * * * * * * * * * * * * * * //

dimensions      [0 3 -1 0 0 0 0];

internalField   nonuniform List<scalar> 
1890
(
0.0023042704
3.8838507e-06
0.0022923328
1.1938275e-05
0.0022789498
1.3382762e-05
0.0022679284
1.1020967e-05
0.0022597519
8.1760667e-06
0.0022535567
6.1949038e-06
0.0022485793
4.9771845e-06
0.0022444518
4.1272912e-06
0.0022410154
3.4363669e-06
0.0022381535
2.86187e-06
0.0022357502
2.4033035e-06
0.002233705
2.0452841e-06
0.0022319445
1.7606465e-06
0.0022304187
1.5258718e-06
0.0022290921
1.326726e-06
0.0022279367
1.1555654e-06
0.0022269293
1.007514e-06
0.0022260509
8.7861785e-07
0.0022252855
7.6559442e-07
0.0022246197
6.6588251e-07
0.0022240424
5.7756095e-07
0.0022235434
4.9912895e-07
0.0022231142
4.2936756e-07
0.0022227471
3.672545e-07
0.0022224354
3.1195117e-07
0.0022221728
2.6277303e-07
0.0022219538
2.1917723e-07
0.0022217732
1.80728e-07
0.0022216263
1.4707456e-07
0.0022215085
1.1791585e-07
0.0022214157
9.2973883e-08
0.0022213439
7.1965887e-08
0.0022212894
5.4585574e-08
0.0022212491
4.0495235e-08
0.0022212199
2.9324168e-08
0.0022211993
2.0682055e-08
0.0022211852
1.4168574e-08
0.0022211759
9.3976101e-09
0.0022211699
6.0084648e-09
0.0022211663
3.6818158e-09
0.0022211642
2.1414295e-09
0.0022211631
1.1646724e-09
0.0022211625
5.7383971e-10
0.0022211623
2.3794088e-10
0.0022211623
5.8743329e-11
0.0022211623
-1.4338122e-11
0.0022211624
-4.3532996e-11
0.0022211624
-4.6315442e-11
0.0022211625
-3.8906067e-11
0.0022211625
-2.7569971e-11
0.0022211625
-1.8257655e-11
0.0022211625
-1.0185283e-11
0.0022211625
-5.4561318e-12
0.0022211626
-1.785244e-12
0.0022211626
-3.4237601e-13
0.0022211626
9.2586699e-13
0.0022211626
8.0868032e-13
0.0022211626
1.3432704e-12
0.0022211626
7.5983015e-13
0.0022211626
1.0620479e-12
0.0022211625
4.5752342e-13
0.0022211625
7.5809437e-13
0.0022211625
2.1115846e-13
0.0022211625
5.0946511e-13
0.0022211625
5.906159e-14
0.0022211625
3.7998733e-13
0.0022211625
-4.5965266e-14
0.0022211625
2.8451346e-13
0.0022211625
-1.1612728e-13
0.0022211625
2.5827939e-13
0.0022211625
-1.4921115e-13
0.0022211625
2.2058365e-13
0.0022211625
-1.6408443e-13
0.0022211625
2.3023211e-13
0.0022211625
-1.6559596e-13
0.0022211625
2.1660104e-13
0.0022211625
-1.5828321e-13
0.0022211625
2.460817e-13
0.0022211625
-1.3931924e-13
0.0022211625
2.5178857e-13
0.0022211625
-1.0580236e-13
0.0022211625
3.0211581e-13
0.0022211625
-4.1603228e-14
0.0022211625
3.4716902e-13
0.0022211625
5.3583099e-14
0.0022211625
4.8006729e-13
0.0022211625
2.1549017e-13
0.0022211625
6.9138851e-13
0.0022211625
5.7129298e-13
0.0022211625
1.1487267e-12
0.0022211625
1.4088361e-12
0.0022211625
2.1971997e-12
0.0022211625
3.5305119e-12
0.0022211625
5.4883794e-12
0.0022211625
1.051186e-11
0.0022211625
1.7015683e-11
0.0022211625
3.1747503e-11
0.0022211624
4.8601945e-11
0.0022211623
9.6848862e-11
1.3068932e-10
0.0055047698
4.3823653e-06
0.0054996251
1.7083981e-05
0.0054909365
2.2071444e-05
0.0054814361
2.0520867e-05
0.0054725967
1.7015052e-05
0.0054646708
1.4120631e-05
0.005457557
1.2090832e-05
0.0054511976
1.048657e-05
0.0054455853
9.0484808e-06
0.0054406868
7.7603011e-06
0.0054364275
6.6626039e-06
0.0054327193
5.7535649e-06
0.0054294833
4.9966777e-06
0.0054266556
4.3536596e-06
0.0054241835
3.7988945e-06
0.0054220222
3.3169906e-06
0.0054201329
2.8968819e-06
0.0054184826
2.5290743e-06
0.0054170429
2.2054129e-06
0.0054157896
1.9193304e-06
0.0054147016
1.665669e-06
0.0054137605
1.4402991e-06
0.0054129502
1.2397953e-06
0.0054122563
1.0612877e-06
0.005411666
9.0238309e-07
0.0054111678
7.6111898e-07
0.0054107512
6.3590189e-07
0.0054104066
5.2544569e-07
0.0054101251
4.2869801e-07
0.0054098984
3.4476301e-07
0.0054097187
2.7282262e-07
0.0054095787
2.1206236e-07
0.0054094718
1.6161996e-07
0.0054093918
1.2055113e-07
0.0054093334
8.7832031e-08
0.0054092918
6.2374393e-08
0.005409263
4.3069828e-08
0.0054092437
2.8829752e-08
0.0054092311
1.8635769e-08
0.0054092233
1.156983e-08
0.0054092186
6.8447017e-09
0.005409216
3.8078497e-09
0.0054092147
1.9449947e-09
0.0054092141
8.6410701e-10
0.0054092139
2.8118983e-10
0.0054092139
4.8109682e-12
0.005409214
-1.0594305e-10
0.005409214
-1.2986773e-10
0.0054092141
-1.1373433e-10
0.0054092142
-8.5919399e-11
0.0054092142
-5.7810973e-11
0.0054092143
-3.5878957e-11
0.0054092143
-1.962513e-11
0.0054092143
-9.5953412e-12
0.0054092143
-3.2068712e-12
0.0054092143
-2.0157393e-13
0.0054092143
1.6598334e-12
0.0054092143
1.8925931e-12
0.0054092143
2.1956843e-12
0.0054092143
1.6489091e-12
0.0054092143
1.6548004e-12
0.0054092143
1.0985392e-12
0.0054092143
1.0782706e-12
0.0054092143
6.1311087e-13
0.0054092143
6.7539396e-13
0.0054092143
3.5162305e-13
0.0054092143
4.0966983e-13
0.0054092143
1.5846037e-13
0.0054092143
2.4662576e-13
0.0054092143
9.3746362e-14
0.0054092143
1.5695048e-13
0.0054092143
1.8597045e-14
0.0054092143
1.1915827e-13
0.0054092143
3.2015999e-14
0.0054092143
1.1487165e-13
0.0054092143
9.8130232e-15
0.0054092143
1.3955383e-13
0.0054092143
6.8790378e-14
0.0054092143
1.9322272e-13
0.0054092143
9.1237852e-14
0.0054092143
2.9005727e-13
0.0054092143
1.9400561e-13
0.0054092143
4.4595062e-13
0.0054092143
3.0376684e-13
0.0054092143
6.9989896e-13
0.0054092143
5.77769e-13
0.0054092143
1.1460609e-12
0.0054092143
1.0134716e-12
0.0054092143
2.0042508e-12
0.0054092143
2.017999e-12
0.0054092143
3.853762e-12
0.0054092143
4.3015796e-12
0.0054092143
8.4308553e-12
0.0054092143
1.1431111e-11
0.0054092143
2.1914777e-11
0.0054092142
3.236218e-11
0.0054092142
5.7033463e-11
0.0054092142
8.5147055e-11
0.0054092141
1.3588218e-10
1.7797328e-10
0.0075879791
3.1294504e-06
0.007590834
1.4230022e-05
0.0075928553
2.0050062e-05
0.0075934066
1.9969212e-05
0.0075929432
1.7478257e-05
0.007591863
1.5200749e-05
0.0075903893
1.3564285e-05
0.0075886758
1.2199879e-05
0.007586859
1.0865112e-05
0.0075850437
9.5755759e-06
0.0075832944
8.4119237e-06
0.0075816453
7.4026488e-06
0.0075801139
6.5281522e-06
0.0075787081
5.7594253e-06
0.0075774298
5.077265e-06
0.0075762759
4.4709555e-06
0.0075752405
3.9323911e-06
0.007574316
3.4535751e-06
0.0075734946
3.0269608e-06
0.0075727679
2.6461003e-06
0.0075721279
2.3057093e-06
0.007571567
2.0013519e-06
0.0075710777
1.7291978e-06
0.0075706532
1.4859011e-06
0.0075702871
1.268582e-06
0.0075699735
1.0747931e-06
0.007569707
9.0249277e-07
0.0075694826
7.499848e-07
0.0075692955
6.1586286e-07
0.0075691414
4.9892553e-07
0.0075690163
3.9809253e-07
0.0075689161
3.1231356e-07
0.0075688374
2.4049604e-07
0.0075687766
1.8145636e-07
0.0075687306
1.3390292e-07
0.0075686966
9.6453073e-08
0.0075686721
6.7670634e-08
0.0075686548
4.6125574e-08
0.0075686431
3.0447859e-08
0.0075686353
1.9383783e-08
0.0075686304
1.1829891e-08
0.0075686274
6.8597889e-09
0.0075686256
3.7219219e-09
0.0075686247
1.8357488e-09
0.0075686242
7.6780151e-10
0.007568624
2.1258136e-10
0.007568624
-4.3986398e-11
0.007568624
-1.3498135e-10
0.007568624
-1.4454952e-10
0.0075686241
-1.1993163e-10
0.0075686241
-8.7466313e-11
0.0075686241
-5.732981e-11
0.0075686241
-3.4625117e-11
0.0075686241
-1.8522826e-11
0.0075686241
-8.6776127e-12
0.0075686242
-2.7140354e-12
0.0075686242
2.0838998e-13
0.0075686242
1.844992e-12
0.0075686242
2.0248801e-12
0.0075686242
2.2237949e-12
0.0075686242
1.7639577e-12
0.0075686242
1.6517103e-12
0.0075686242
1.1723172e-12
0.0075686242
1.071282e-12
0.0075686242
7.2888471e-13
0.0075686242
6.5257981e-13
0.0075686242
4.2086233e-13
0.0075686242
3.6515942e-13
0.0075686242
2.5118596e-13
0.0075686242
1.9151225e-13
0.0075686242
1.5721681e-13
0.0075686242
9.3857741e-14
0.0075686242
1.26745e-13
0.0075686242
7.3468048e-14
0.0075686242
1.1935807e-13
0.0075686242
8.5196046e-14
0.0075686242
1.4890176e-13
0.0075686242
1.5288959e-13
0.0075686242
1.9783766e-13
0.0075686242
2.6125722e-13
0.0075686242
3.0510734e-13
0.0075686242
4.370053e-13
0.0075686242
4.7504314e-13
0.0075686242
6.9439518e-13
0.0075686242
7.9951155e-13
0.0075686242
1.1185891e-12
0.0075686242
1.3643017e-12
0.0075686242
1.8349774e-12
0.0075686242
2.4745559e-12
0.0075686242
3.2005892e-12
0.0075686241
4.7419299e-12
0.0075686241
6.2412749e-12
0.0075686241
1.0565881e-11
0.0075686241
1.51821e-11
0.0075686241
2.5505657e-11
0.0075686241
3.7096203e-11
0.0075686241
5.8551947e-11
0.0075686241
8.5253339e-11
0.0075686241
1.2425136e-10
1.5869636e-10
0.0088202375
1.5532754e-06
0.0088267611
7.707437e-06
0.0088354247
1.1386522e-05
0.0088436348
1.1758855e-05
0.0088505527
1.0560036e-05
0.0088563682
9.3850888e-06
0.0088613765
8.5558067e-06
0.0088657165
7.8597066e-06
0.0088694435
7.137915e-06
0.0088726176
6.4014117e-06
0.0088753185
5.7109987e-06
0.0088776264
5.0947612e-06
0.0088796076
4.5469712e-06
0.0088813135
4.0536433e-06
0.0088827846
3.6061238e-06
0.008884055
3.2006879e-06
0.0088851528
2.8345751e-06
0.008886102
2.5044581e-06
0.0088869223
2.2067468e-06
0.0088876303
1.9382299e-06
0.0088882399
1.6961541e-06
0.0088887632
1.4781366e-06
0.0088892105
1.2819979e-06
0.0088895907
1.105772e-06
0.0088899117
9.4768081e-07
0.0088901804
8.0617947e-07
0.0088904031
6.799227e-07
0.0088905854
5.6777711e-07
0.0088907326
4.6877155e-07
0.0088908496
3.8207693e-07
0.0088909408
3.06941e-07
0.0088910106
2.4264417e-07
0.0088910627
1.8844268e-07
0.0088911007
1.4353452e-07
0.0088911277
1.070436e-07
0.0088911462
7.8020112e-08
0.0088911585
5.5470771e-08
0.0088911663
3.8384825e-08
0.008891171
2.5786353e-08
0.0088911737
1.6759865e-08
0.0088911751
1.0494419e-08
0.0088911757
6.2886977e-09
0.0088911759
3.5728366e-09
0.0088911758
1.8903557e-09
0.0088911757
9.0243733e-10
0.0088911756
3.56891e-10
0.0088911755
8.4163371e-11
0.0088911754
-4.0332198e-11
0.0088911753
-7.6713917e-11
0.0088911753
-7.7065414e-11
0.0088911753
-6.0566447e-11
0.0088911753
-4.3643941e-11
0.0088911753
-2.7142439e-11
0.0088911753
-1.6636979e-11
0.0088911753
-7.9369109e-12
0.0088911753
-4.0030831e-12
0.0088911753
-5.4533627e-13
0.0088911753
1.8655851e-13
0.0088911753
1.650903e-12
0.0088911753
9.6667098e-13
0.0088911753
1.7683283e-12
0.0088911753
7.8289434e-13
0.0088911753
1.4408749e-12
0.0088911753
4.9362501e-13
0.0088911753
1.0665602e-12
0.0088911753
2.1235389e-13
0.0088911753
7.7978321e-13
0.0088911753
2.7185213e-14
0.0088911753
5.7137744e-13
0.0088911753
-1.4571381e-13
0.0088911753
4.8174265e-13
0.0088911753
-2.0100652e-13
0.0088911753
4.2823105e-13
0.0088911753
-2.4879319e-13
0.0088911753
4.4578509e-13
0.0088911753
-1.9662798e-13
0.0088911753
4.7072769e-13
0.0088911753
-1.5022256e-13
0.0088911753
5.7237033e-13
0.0088911753
-1.3381296e-14
0.0088911753
7.1494444e-13
0.0088911753
1.4052234e-13
0.0088911753
9.9531449e-13
0.0088911753
3.9977204e-13
0.0088911753
1.4163225e-12
0.0088911753
8.076727e-13
0.0088911753
2.1329654e-12
0.0088911753
1.5747202e-12
0.0088911753
3.3185564e-12
0.0088911753
2.9221398e-12
0.0088911753
5.5330561e-12
0.0088911753
6.0055248e-12
0.0088911753
1.0844653e-11
0.0088911753
1.3715743e-11
0.0088911753
2.2364805e-11
0.0088911753
2.8504266e-11
0.0088911753
4.2596979e-11
0.0088911753
5.6377656e-11
0.0088911754
7.8912513e-11
9.9885548e-11
0.0093888603
4.5492113e-11
0.0093965689
1.2132485e-10
0.0094079554
5.6243913e-12
0.0094197139
-1.2506685e-10
0.0094302738
-1.4713911e-10
0.0094396589
-1.177402e-10
0.0094482146
-1.2382047e-10
0.0094560743
-1.5831153e-10
0.0094632122
-1.7674128e-10
0.0094696137
-1.8039687e-10
0.0094753249
-1.7072018e-10
0.0094804198
-1.6765569e-10
0.009484967
-1.5739852e-10
0.0094890208
-1.461923e-10
0.0094926271
-1.233204e-10
0.0094958279
-1.0096143e-10
0.0094986627
-7.3337478e-11
0.0095011672
-5.0841643e-11
0.0095033741
-2.7155379e-11
0.0095053124
-9.6701247e-12
0.0095070087
7.4455241e-12
0.0095084869
1.7668464e-11
0.009509769
2.7464776e-11
0.0095108748
3.2669803e-11
0.0095118225
3.9352533e-11
0.0095126288
4.4412804e-11
0.0095133088
5.2276256e-11
0.0095138766
6.0783821e-11
0.0095143454
7.213979e-11
0.0095147275
8.4422243e-11
0.0095150344
9.7708482e-11
0.0095152771
1.1098944e-10
0.0095154655
1.2314931e-10
0.009515609
1.3428297e-10
0.009515716
1.4250161e-10
0.009515794
1.4887279e-10
0.0095158494
1.5132402e-10
0.0095158877
1.5177732e-10
0.0095159134
1.4766742e-10
0.00951593
1.4170368e-10
0.0095159405
1.3161215e-10
0.0095159467
1.2032335e-10
0.0095159502
1.057312e-10
0.009515952
9.1333603e-11
0.0095159528
7.5081446e-11
0.0095159532
6.1281611e-11
0.0095159532
4.8682837e-11
0.0095159531
3.662904e-11
0.009515953
2.5642434e-11
0.009515953
1.8227334e-11
0.0095159529
1.125667e-11
0.0095159528
7.3309487e-12
0.0095159528
3.4159122e-12
0.0095159528
2.0639696e-12
0.0095159528
2.9334106e-13
0.0095159528
2.5961687e-13
0.0095159528
-6.2006953e-13
0.0095159528
8.4367859e-14
0.0095159528
-3.7936729e-13
0.0095159528
3.8982013e-13
0.0095159528
-1.4965099e-13
0.0095159528
5.6923434e-13
0.0095159528
5.605508e-14
0.0095159528
6.7062901e-13
0.0095159528
6.9709761e-15
0.0095159528
6.0201571e-13
0.0095159528
-3.1298743e-14
0.0095159528
5.304967e-13
0.0095159528
-1.9183589e-13
0.0095159528
4.2482053e-13
0.0095159528
-1.8912539e-13
0.0095159528
4.0870699e-13
0.0095159528
-2.7196323e-13
0.0095159528
3.8327989e-13
0.0095159528
-1.9039804e-13
0.0095159528
4.4335497e-13
0.0095159528
-2.0258779e-13
0.0095159528
4.9314551e-13
0.0095159528
-4.1211611e-14
0.0095159528
6.4269365e-13
0.0095159528
5.4154776e-14
0.0095159528
8.1792415e-13
0.0095159528
3.6023283e-13
0.0095159528
1.1530899e-12
0.0095159528
6.6849583e-13
0.0095159528
1.6237625e-12
0.0095159528
1.3353198e-12
0.0095159528
2.4375232e-12
0.0095159528
2.2299119e-12
0.0095159528
3.6499467e-12
0.0095159528
3.9371409e-12
0.0095159528
6.1430535e-12
0.0095159528
7.2232549e-12
0.0095159528
1.0338051e-11
0.0095159528
1.1942566e-11
0.0095159528
1.324739e-11
0.0095159529
1.4765437e-11
0.0095159529
1.3680808e-11
0.0095159529
1.5862475e-11
1.9680792e-11
0.0093888598
-1.5533444e-06
0.0093965684
-7.7077049e-06
0.009407955
-1.1386617e-05
0.0094197135
-1.1758882e-05
0.0094302733
-1.0560214e-05
0.0094396584
-9.3853878e-06
0.0094482142
-8.5561213e-06
0.0094560738
-7.8600073e-06
0.0094632117
-7.1382134e-06
0.0094696132
-6.401726e-06
0.0094753243
-5.7113193e-06
0.0094804192
-5.0950785e-06
0.0094849664
-4.5472669e-06
0.0094890202
-4.0539107e-06
0.0094926264
-3.606351e-06
0.0094958273
-3.2008734e-06
0.009498662
-2.8347135e-06
0.0095011666
-2.5045538e-06
0.0095033734
-2.2068006e-06
0.0095053118
-1.9382503e-06
0.009507008
-1.6961453e-06
0.0095084863
-1.478108e-06
0.0095097684
-1.2819529e-06
0.0095108742
-1.1057162e-06
0.009511822
-9.4761357e-07
0.0095126282
-8.0610159e-07
0.0095133082
-6.7983025e-07
0.0095138761
-5.6766778e-07
0.0095143449
-4.6864094e-07
0.0095147271
-3.8192307e-07
0.009515034
-3.0676238e-07
0.0095152767
-2.4244126e-07
0.0095154652
-1.8821739e-07
0.0095156087
-1.4328962e-07
0.0095157157
-1.0678393e-07
0.0095157937
-7.7750084e-08
0.0095158492
-5.5196463e-08
0.0095158875
-3.8111311e-08
0.0095159132
-2.5520493e-08
0.0095159299
-1.6506075e-08
0.0095159404
-1.0259057e-08
0.0095159466
-6.0750367e-09
0.0095159502
-3.3854721e-09
0.009515952
-1.730853e-09
0.0095159529
-7.7101189e-10
0.0095159532
-2.5287338e-10
0.0095159533
2.0910046e-12
0.0095159532
1.0169553e-10
0.0095159531
1.1990984e-10
0.0095159531
1.0668417e-10
0.009515953
7.8715355e-11
0.009515953
5.4472433e-11
0.0095159529
3.2096872e-11
0.0095159529
1.886093e-11
0.0095159529
7.8993175e-12
0.0095159529
3.5013254e-12
0.0095159529
-6.7358011e-13
0.0095159529
-6.1720794e-13
0.0095159529
-2.1507214e-12
0.0095159529
-8.088715e-13
0.0095159529
-1.6589688e-12
0.0095159529
-2.2665385e-13
0.0095159529
-9.4823874e-13
0.0095159529
2.4792061e-13
0.0095159529
-6.4861919e-13
0.0095159529
5.2329863e-13
0.0095159529
-4.7432564e-13
0.0095159529
5.2351722e-13
0.0095159529
-5.2683117e-13
0.0095159529
5.6549592e-13
0.0095159529
-4.6673929e-13
0.0095159529
5.221599e-13
0.0095159529
-5.1988259e-13
0.0095159529
5.8883415e-13
0.0095159529
-4.2278835e-13
0.0095159529
5.8692217e-13
0.0095159529
-4.3033472e-13
0.0095159529
7.0306097e-13
0.0095159529
-2.6465131e-13
0.0095159529
7.6698093e-13
0.0095159529
-1.623885e-13
0.0095159529
1.0083002e-12
0.0095159529
9.9429917e-14
0.0095159529
1.2817492e-12
0.0095159529
3.3321304e-13
0.0095159529
1.8255392e-12
0.0095159529
7.9972285e-13
0.0095159529
2.5078386e-12
0.0095159529
1.3708069e-12
0.0095159529
3.5258877e-12
0.0095159529
2.3026054e-12
0.0095159529
4.8283308e-12
0.0095159529
2.8959678e-12
0.0095159529
4.4143001e-12
0.0095159529
-1.7303632e-13
0.009515953
-4.4444096e-12
0.009515953
-1.5603469e-11
0.009515953
-3.1365355e-11
0.0095159531
-4.9766822e-11
-6.5754711e-11
0.0088202368
-3.1294032e-06
0.0088267602
-1.4229931e-05
0.0088354238
-2.0050178e-05
0.0088436339
-1.9969429e-05
0.0088505518
-1.7478444e-05
0.0088563671
-1.5200898e-05
0.0088613753
-1.3564467e-05
0.0088657152
-1.2200094e-05
0.0088694422
-1.0865359e-05
0.0088726162
-9.5758197e-06
0.008875317
-8.4121704e-06
0.0088776249
-7.4028791e-06
0.008879606
-6.5283766e-06
0.0088813118
-5.7596228e-06
0.0088827829
-5.0774424e-06
0.0088840532
-4.4710955e-06
0.0088851511
-3.9325046e-06
0.0088861003
-3.4536515e-06
0.0088869206
-3.0270134e-06
0.0088876286
-2.6461235e-06
0.0088882382
-2.3057173e-06
0.0088887616
-2.0013409e-06
0.0088892089
-1.7291789e-06
0.0088895892
-1.4858693e-06
0.0088899103
-1.2685435e-06
0.008890179
-1.0747414e-06
0.0088904018
-9.0242954e-07
0.0088905841
-7.4990404e-07
0.0088907314
-6.1576473e-07
0.0088908484
-4.9880718e-07
0.0088909397
-3.9795465e-07
0.0088910096
-3.1215753e-07
0.0088910618
-2.403233e-07
0.0088910999
-1.8127164e-07
0.008891127
-1.3370806e-07
0.0088911456
-9.6254355e-08
0.008891158
-6.7469764e-08
0.0088911659
-4.5929952e-08
0.0088911707
-3.0257658e-08
0.0088911735
-1.9206499e-08
0.008891175
-1.1665576e-08
0.0088911756
-6.7147729e-09
0.0088911759
-3.5950943e-09
0.0088911759
-1.7314425e-09
0.0088911759
-6.8269748e-10
0.0088911758
-1.4880168e-10
0.0088911757
9.7769819e-11
0.0088911756
1.7056441e-10
0.0088911756
1.7002048e-10
0.0088911756
1.3402699e-10
0.0088911756
9.6706698e-11
0.0088911756
5.9945011e-11
0.0088911756
3.6238152e-11
0.0088911756
1.684026e-11
0.0088911756
7.8737121e-12
0.0088911756
1.9045986e-13
0.0088911756
-8.5984889e-13
0.0088911756
-3.6088928e-12
0.0088911756
-1.8240502e-12
0.0088911756
-3.1897485e-12
0.0088911756
-9.591189e-13
0.0088911756
-2.0101229e-12
0.0088911756
-1.7842415e-13
0.0088911756
-1.3253089e-12
0.0088911756
3.6445509e-13
0.0088911756
-9.097901e-13
0.0088911756
5.9114249e-13
0.0088911756
-8.6892427e-13
0.0088911756
6.7106609e-13
0.0088911756
-7.4162362e-13
0.0088911756
7.0393353e-13
0.0088911756
-7.9400494e-13
0.0088911756
7.362048e-13
0.0088911756
-6.775465e-13
0.0088911756
7.7155074e-13
0.0088911756
-7.1539126e-13
0.0088911756
8.2627683e-13
0.0088911756
-5.659523e-13
0.0088911756
8.9805508e-13
0.0088911756
-5.4971171e-13
0.0088911756
1.0137274e-12
0.0088911756
-2.9262779e-13
0.0088911756
1.1663937e-12
0.0088911756
-1.2052916e-13
0.0088911756
1.4288429e-12
0.0088911756
2.7282246e-13
0.0088911756
1.7983651e-12
0.0088911756
6.2500994e-13
0.0088911756
2.2410238e-12
0.0088911756
1.1925457e-12
0.0088911756
2.4752579e-12
0.0088911756
1.2006827e-12
0.0088911756
7.3005655e-13
0.0088911756
-2.7554616e-12
0.0088911756
-8.8754563e-12
0.0088911756
-1.9573282e-11
0.0088911756
-3.902136e-11
0.0088911757
-6.5816816e-11
0.0088911757
-1.039671e-10
-1.3845372e-10
0.007587978
-4.382371e-06
0.0075908329
-1.7083985e-05
0.0075928542
-2.2071522e-05
0.0075934054
-2.0521038e-05
0.0075929419
-1.7015249e-05
0.0075918616
-1.4120795e-05
0.0075903879
-1.2090976e-05
0.0075886743
-1.0486711e-05
0.0075868574
-9.0486301e-06
0.0075850419
-7.7604426e-06
0.0075832925
-6.6627322e-06
0.0075816433
-5.7536742e-06
0.0075801118
-4.9967753e-06
0.007578706
-4.3537436e-06
0.0075774276
-3.798968e-06
0.0075762737
-3.3170479e-06
0.0075752383
-2.8969248e-06
0.0075743138
-2.5290997e-06
0.0075734924
-2.2054251e-06
0.0075727658
-1.9193293e-06
0.0075721259
-1.6656594e-06
0.0075715649
-1.4402809e-06
0.0075710757
-1.2397718e-06
0.0075706513
-1.0612578e-06
0.0075702852
-9.0234765e-07
0.0075699717
-7.6107571e-07
0.0075697053
-6.3585008e-07
0.007569481
-5.2538334e-07
0.007569294
-4.2862469e-07
0.0075691401
-3.4467866e-07
0.007569015
-2.7272782e-07
0.007568915
-2.1195895e-07
0.0075688364
-1.6150939e-07
0.0075687757
-1.204367e-07
0.0075687298
-8.7715255e-08
0.007568696
-6.2258374e-08
0.0075686716
-4.295629e-08
0.0075686545
-2.8721527e-08
0.0075686428
-1.8533728e-08
0.0075686352
-1.1476664e-08
0.0075686303
-6.7605567e-09
0.0075686274
-3.7353116e-09
0.0075686258
-1.883973e-09
0.0075686249
-8.1552722e-10
0.0075686245
-2.4354533e-10
0.0075686243
2.3486515e-11
0.0075686243
1.2723529e-10
0.0075686243
1.4322517e-10
0.0075686244
1.2196379e-10
0.0075686245
8.9319944e-11
0.0075686245
5.8857127e-11
0.0075686245
3.4681414e-11
0.0075686246
1.8133292e-11
0.0075686246
7.2379433e-12
0.0075686246
1.4329362e-12
0.0075686246
-1.7140958e-12
0.0075686246
-2.6648442e-12
0.0075686246
-2.9978456e-12
0.0075686246
-2.4968829e-12
0.0075686246
-2.0974698e-12
0.0075686246
-1.375537e-12
0.0075686246
-1.1946815e-12
0.0075686246
-7.1251277e-13
0.0075686246
-5.9355898e-13
0.0075686246
-1.9783789e-13
0.0075686246
-3.4395491e-13
0.0075686246
-8.2125647e-14
0.0075686246
-2.2359671e-13
0.0075686246
6.215817e-14
0.0075686246
-1.7754423e-13
0.0075686246
3.8119225e-14
0.0075686246
-1.4073127e-13
0.0075686246
1.3062128e-13
0.0075686246
-1.0910399e-13
0.0075686246
9.3216152e-14
0.0075686246
-7.7725884e-14
0.0075686246
2.0647988e-13
0.0075686246
-3.6032029e-14
0.0075686246
1.80715e-13
0.0075686246
2.483991e-14
0.0075686246
3.3446372e-13
0.0075686246
1.4234417e-13
0.0075686246
3.4153425e-13
0.0075686246
3.0265276e-13
0.0075686246
5.7314946e-13
0.0075686246
5.1298973e-13
0.0075686246
6.5328192e-13
0.0075686246
8.1116632e-13
0.0075686246
9.085921e-13
0.0075686246
1.0248924e-12
0.0075686246
5.5421072e-13
0.0075686246
2.6517356e-13
0.0075686246
-2.3024505e-12
0.0075686246
-5.2720605e-12
0.0075686246
-1.370337e-11
0.0075686246
-2.2414418e-11
0.0075686246
-4.771975e-11
0.0075686246
-7.4515764e-11
0.0075686246
-1.2881464e-10
-1.7411446e-10
0.0055047688
-3.8837373e-06
0.0054996239
-1.1938236e-05
0.0054909353
-1.3382801e-05
0.005481435
-1.1021103e-05
0.0054725957
-8.176291e-06
0.0054646697
-6.1951522e-06
0.0054575558
-4.9773663e-06
0.0054511963
-4.1274061e-06
0.005445584
-3.4364292e-06
0.0054406854
-2.861912e-06
0.005436426
-2.4033178e-06
0.0054327177
-2.0452812e-06
0.0054294817
-1.7606201e-06
0.0054266539
-1.5258389e-06
0.0054241818
-1.3266819e-06
0.0054220204
-1.1555202e-06
0.0054201312
-1.0074587e-06
0.0054184808
-8.7856013e-07
0.0054170412
-7.655278e-07
0.0054157879
-6.6581503e-07
0.0054146999
-5.774874e-07
0.0054137589
-4.9905601e-07
0.0054129487
-4.2929082e-07
0.0054122548
-3.6717909e-07
0.0054116646
-3.1187329e-07
0.0054111665
-2.62696e-07
0.00541075
-2.1909831e-07
0.0054104055
-1.8064923e-07
0.0054101241
-1.4699482e-07
0.0054098974
-1.1783613e-07
0.0054097178
-9.2894765e-08
0.005409578
-7.1887551e-08
0.0054094712
-5.451016e-08
0.0054093913
-4.0421838e-08
0.005409333
-2.9255821e-08
0.0054092915
-2.0616831e-08
0.0054092628
-1.4110046e-08
0.0054092436
-9.3430849e-09
0.0054092311
-5.9612293e-09
0.0054092233
-3.6389594e-09
0.0054092187
-2.1062616e-09
0.0054092162
-1.1339987e-09
0.0054092149
-5.5037649e-10
0.0054092143
-2.1835413e-10
0.0054092142
-4.558738e-11
0.0054092142
2.484182e-11
0.0054092143
5.0173296e-11
0.0054092144
5.1887542e-11
0.0054092145
4.0522594e-11
0.0054092146
2.9488402e-11
0.0054092146
1.7456581e-11
0.0054092146
1.0525802e-11
0.0054092146
3.9829907e-12
0.0054092147
1.6289281e-12
0.0054092147
-9.8431788e-13
0.0054092147
-7.0093119e-13
0.0054092147
-1.9864897e-12
0.0054092147
-8.1701433e-13
0.0054092147
-1.6261164e-12
0.0054092147
-3.3064262e-13
0.0054092147
-1.1250297e-12
0.0054092147
-1.1683649e-14
0.0054092147
-8.1256281e-13
0.0054092147
3.0970226e-13
0.0054092147
-6.4859021e-13
0.0054092147
3.7065668e-13
0.0054092147
-5.7989098e-13
0.0054092147
4.7478818e-13
0.0054092147
-5.4129235e-13
0.0054092147
4.4616638e-13
0.0054092147
-5.277518e-13
0.0054092147
5.1486802e-13
0.0054092147
-5.0866496e-13
0.0054092147
4.7585821e-13
0.0054092147
-5.0175222e-13
0.0054092147
5.424815e-13
0.0054092147
-4.7903901e-13
0.0054092147
5.0679143e-13
0.0054092147
-4.6712921e-13
0.0054092147
5.8390005e-13
0.0054092147
-4.2794711e-13
0.0054092147
5.6897123e-13
0.0054092147
-4.001595e-13
0.0054092147
6.7262681e-13
0.0054092147
-3.3540046e-13
0.0054092147
6.8780496e-13
0.0054092147
-2.8926689e-13
0.0054092147
8.3053727e-13
0.0054092147
-2.1496632e-13
0.0054092147
8.576162e-13
0.0054092147
-5.8558762e-13
0.0054092147
3.8399102e-14
0.0054092147
-3.1142352e-12
0.0054092147
-3.6610762e-12
0.0054092146
-9.5124735e-12
0.0054092146
-1.4806866e-11
0.0054092146
-3.1227594e-11
0.0054092146
-4.6777149e-11
0.0054092145
-9.9257665e-11
-1.3521383e-10
0.0023042703
0.0022923323
0.0022789494
0.002267928
0.0022597516
0.0022535563
0.0022485788
0.0022444513
0.0022410148
0.0022381529
0.0022357497
0.0022337044
0.0022319439
0.0022304182
0.0022290916
0.0022279362
0.0022269288
0.0022260504
0.002225285
0.0022246193
0.0022240419
0.002223543
0.0022231138
0.0022227467
0.002222435
0.0022221724
0.0022219535
0.0022217729
0.0022216261
0.0022215083
0.0022214155
0.0022213438
0.0022212893
0.002221249
0.0022212198
0.0022211993
0.0022211852
0.0022211759
0.00222117
0.0022211664
0.0022211643
0.0022211632
0.0022211627
0.0022211625
0.0022211624
0.0022211625
0.0022211625
0.0022211626
0.0022211626
0.0022211627
0.0022211627
0.0022211627
0.0022211627
0.0022211627
0.0022211627
0.0022211627
0.0022211627
0.0022211627
0.0022211627
0.0022211627
0.0022211627
0.0022211627
0.0022211627
0.0022211627
0.0022211627
0.0022211627
0.0022211627
0.0022211627
0.0022211627
0.0022211627
0.0022211627
0.0022211627
0.0022211627
0.0022211627
0.0022211627
0.0022211627
0.0022211627
0.0022211627
0.0022211627
0.0022211627
0.0022211627
0.0022211627
0.0022211627
0.0022211627
0.0022211627
0.0022211627
0.0022211627
0.0022211627
0.0022211627
0.0022211627
0.0022211627
0.0022211627
0.0022211627
0.0022211627
0.0022211627
0.0022211627
0.0022211626
0.0022211626
0.0022211625
)
;

boundaryField
{
    top
    {
        type            calculated;
        value           uniform 0;
    }
    inlet
    {
        type            calculated;
        value           nonuniform List<scalar> 10(-0.002308153 -0.0055052674 -0.0075867247 -0.0088186601 -0.0093873057 -0.009387305 -0.0088186597 -0.0075867237 -0.0055052664 -0.0023081535);
    }
    outlet
    {
        type            calculated;
        value           nonuniform List<scalar> 10(0.0022211622 0.0054092141 0.0075686241 0.0088911754 0.009515953 0.0095159532 0.0088911758 0.0075686246 0.0054092145 0.0022211623);
    }
    bottom
    {
        type            calculated;
        value           uniform 0;
    }
    back
    {
        type            empty;
        value           nonuniform 0();
    }
    front
    {
        type            empty;
        value           nonuniform 0();
    }
}


// ************************************************************************* //
