/*--------------------------------*- C++ -*----------------------------------*\
| =========                 |                                                 |
| \\      /  F ield         | OpenFOAM: The Open Source CFD Toolbox           |
|  \\    /   O peration     | Version:  4.1                                   |
|   \\  /    A nd           | Web:      www.OpenFOAM.org                      |
|    \\/     M anipulation  |                                                 |
\*---------------------------------------------------------------------------*/
FoamFile
{
    version     2.0;
    format      ascii;
    class       volVectorField;
    location    "8";
    object      U;
}
// * * * * * * * * * * * * * * * * * * * * * * * * * * * * * * * * * * * * * //

dimensions      [0 1 -1 0 0 0 0];

internalField   nonuniform List<vector> 
1000
(
(0.23890649 0.00030946294 0)
(0.23819834 0.00082245247 0)
(0.23673235 0.0008289175 0)
(0.2353798 0.00058505371 0)
(0.23437476 0.00036534059 0)
(0.2336427 0.0002433942 0)
(0.23307363 0.00018369191 0)
(0.2326062 0.00014670702 0)
(0.23221631 0.00011747953 0)
(0.23189174 9.453103e-05 0)
(0.23162077 7.793594e-05 0)
(0.23139192 6.6166723e-05 0)
(0.23119601 5.7262721e-05 0)
(0.23102669 4.9939052e-05 0)
(0.23087965 4.3644095e-05 0)
(0.23075165 3.8175794e-05 0)
(0.2306401 3.3409703e-05 0)
(0.23054282 2.9225093e-05 0)
(0.23045801 2.5519625e-05 0)
(0.23038417 2.2219576e-05 0)
(0.23032003 1.9273987e-05 0)
(0.2302645 1.6642788e-05 0)
(0.23021661 1.4291971e-05 0)
(0.23017554 1.2191869e-05 0)
(0.23014053 1.0318127e-05 0)
(0.23011092 8.6508622e-06 0)
(0.2300861 7.174389e-06 0)
(0.23006552 5.8758243e-06 0)
(0.23004866 4.7444102e-06 0)
(0.23003505 3.7702599e-06 0)
(0.23002423 2.943581e-06 0)
(0.23001579 2.253848e-06 0)
(0.23000932 1.6893754e-06 0)
(0.23000447 1.2372807e-06 0)
(0.23000092 8.8363292e-07 0)
(0.22999838 6.1407466e-07 0)
(0.22999662 4.1422189e-07 0)
(0.22999544 2.7044848e-07 0)
(0.22999467 1.7014911e-07 0)
(0.22999419 1.0256134e-07 0)
(0.2299939 5.8637047e-08 0)
(0.22999374 3.1359505e-08 0)
(0.22999366 1.5198658e-08 0)
(0.22999362 6.2812532e-09 0)
(0.22999361 1.6656997e-09 0)
(0.22999361 -6.6957855e-10 0)
(0.22999362 -1.4709203e-09 0)
(0.22999362 -1.4218407e-09 0)
(0.22999363 -1.1306697e-09 0)
(0.22999363 -7.4635812e-10 0)
(0.22999363 -4.6766373e-10 0)
(0.22999364 -2.2385361e-10 0)
(0.22999364 -1.0698585e-10 0)
(0.22999364 2.1995751e-12 0)
(0.22999364 1.5283599e-11 0)
(0.22999364 6.2101333e-11 0)
(0.22999364 4.1016322e-11 0)
(0.22999364 6.2881881e-11 0)
(0.22999364 2.903492e-11 0)
(0.22999364 4.6674859e-11 0)
(0.22999364 1.3411385e-11 0)
(0.22999364 3.3862346e-11 0)
(0.22999364 9.2198211e-13 0)
(0.22999364 2.4003144e-11 0)
(0.22999364 -6.6434887e-12 0)
(0.22999364 1.9772113e-11 0)
(0.22999364 -1.0465092e-11 0)
(0.22999364 1.7094053e-11 0)
(0.22999364 -1.1371384e-11 0)
(0.22999364 1.673619e-11 0)
(0.22999364 -1.2683259e-11 0)
(0.22999364 1.5397847e-11 0)
(0.22999364 -1.286817e-11 0)
(0.22999364 1.5749171e-11 0)
(0.22999364 -1.3294521e-11 0)
(0.22999364 1.5263947e-11 0)
(0.22999364 -1.2544212e-11 0)
(0.22999364 1.6440102e-11 0)
(0.22999364 -1.2227085e-11 0)
(0.22999364 1.6412516e-11 0)
(0.22999364 -1.115314e-11 0)
(0.22999364 1.7647146e-11 0)
(0.22999364 -1.0487402e-11 0)
(0.22999364 1.8719567e-11 0)
(0.22999364 -6.0990131e-12 0)
(0.22999364 2.4607362e-11 0)
(0.22999364 3.8896289e-12 0)
(0.22999364 3.5737905e-11 0)
(0.22999364 2.5990473e-11 0)
(0.22999364 6.4347087e-11 0)
(0.22999364 7.6802495e-11 0)
(0.22999364 1.3408285e-10 0)
(0.22999364 2.1089302e-10 0)
(0.22999364 3.5333083e-10 0)
(0.22999363 6.7213635e-10 0)
(0.22999363 1.1376205e-09 0)
(0.22999363 2.0961079e-09 0)
(0.22999363 3.2979635e-09 0)
(0.22999362 6.2594134e-09 0)
(0.2299936 8.0944116e-09 0)
(0.56982254 0.00040768678 0)
(0.57036167 0.0015805535 0)
(0.5693329 0.0020214776 0)
(0.56808523 0.0018179159 0)
(0.56706784 0.0014302396 0)
(0.56622976 0.0011190684 0)
(0.56547367 0.00091291518 0)
(0.56477653 0.00076362518 0)
(0.56415089 0.00063950337 0)
(0.56360418 0.00053422535 0)
(0.56313096 0.00044877079 0)
(0.56272036 0.00038130006 0)
(0.5623624 0.00032741196 0)
(0.56204957 0.00028300492 0)
(0.56177609 0.0002454729 0)
(0.56153703 0.00021334582 0)
(0.56132808 0.00018565385 0)
(0.56114549 0.00016161551 0)
(0.56098608 0.0001405889 0)
(0.56084715 0.00012207747 0)
(0.56072636 0.00010570838 0)
(0.56062169 9.1192862e-05 0)
(0.56053136 7.829757e-05 0)
(0.56045378 6.6829879e-05 0)
(0.56038757 5.6632473e-05 0)
(0.56033146 4.7578524e-05 0)
(0.56028433 3.9567254e-05 0)
(0.56024513 3.2518128e-05 0)
(0.56021291 2.6365456e-05 0)
(0.56018678 2.1052269e-05 0)
(0.5601659 1.6524945e-05 0)
(0.56014951 1.2728322e-05 0)
(0.56013686 9.6026404e-06 0)
(0.56012731 7.082127e-06 0)
(0.56012026 5.0956146e-06 0)
(0.56011517 3.5685576e-06 0)
(0.5601116 2.425958e-06 0)
(0.56010916 1.5955496e-06 0)
(0.56010756 1.0106091e-06 0)
(0.56010654 6.1242689e-07 0)
(0.56010592 3.5144589e-07 0)
(0.56010556 1.8769462e-07 0)
(0.56010537 9.009399e-08 0)
(0.56010528 3.5633065e-08 0)
(0.56010524 7.7256868e-09 0)
(0.56010523 -5.0027752e-09 0)
(0.56010524 -9.1362325e-09 0)
(0.56010525 -8.9606701e-09 0)
(0.56010526 -7.1584989e-09 0)
(0.56010526 -5.0249252e-09 0)
(0.56010527 -3.2135996e-09 0)
(0.56010527 -1.8362885e-09 0)
(0.56010528 -9.3535564e-10 0)
(0.56010528 -3.556194e-10 0)
(0.56010528 -5.8184655e-11 0)
(0.56010528 1.1114539e-10 0)
(0.56010528 1.5876924e-10 0)
(0.56010528 1.8556062e-10 0)
(0.56010528 1.5257705e-10 0)
(0.56010528 1.4160397e-10 0)
(0.56010528 1.0085534e-10 0)
(0.56010528 9.4324543e-11 0)
(0.56010528 5.7852753e-11 0)
(0.56010528 5.5693015e-11 0)
(0.56010528 2.8782812e-11 0)
(0.56010528 3.5565517e-11 0)
(0.56010528 1.2347402e-11 0)
(0.56010528 1.9516199e-11 0)
(0.56010528 2.9214246e-12 0)
(0.56010528 1.5065142e-11 0)
(0.56010528 -1.1244987e-12 0)
(0.56010528 9.075119e-12 0)
(0.56010528 -3.2201019e-12 0)
(0.56010528 1.0836778e-11 0)
(0.56010528 -3.0463372e-12 0)
(0.56010528 8.6156254e-12 0)
(0.56010528 -2.5544615e-12 0)
(0.56010528 1.3120997e-11 0)
(0.56010528 2.3173827e-13 0)
(0.56010528 1.4401683e-11 0)
(0.56010528 4.7172814e-12 0)
(0.56010528 2.4000627e-11 0)
(0.56010528 1.3755078e-11 0)
(0.56010528 3.2097062e-11 0)
(0.56010528 2.931645e-11 0)
(0.56010528 5.4148052e-11 0)
(0.56010528 6.1090038e-11 0)
(0.56010528 8.8224332e-11 0)
(0.56010528 1.2371018e-10 0)
(0.56010528 1.6696445e-10 0)
(0.56010528 2.6545671e-10 0)
(0.56010528 3.470193e-10 0)
(0.56010528 6.2134363e-10 0)
(0.56010528 8.8823686e-10 0)
(0.56010527 1.6994162e-09 0)
(0.56010527 2.5899287e-09 0)
(0.56010527 4.7388946e-09 0)
(0.56010527 7.0650398e-09 0)
(0.56010525 1.2345824e-08 0)
(0.56010526 1.7061832e-08 0)
(0.78514804 0.00032846598 0)
(0.78682703 0.0015268299 0)
(0.78666386 0.0022032969 0)
(0.78626392 0.0022313328 0)
(0.78613501 0.001965602 0)
(0.78612597 0.001690318 0)
(0.78605691 0.0014811696 0)
(0.78589936 0.0013113159 0)
(0.78570053 0.0011536523 0)
(0.78550051 0.001005418 0)
(0.78531275 0.00087320152 0)
(0.78513726 0.00075990146 0)
(0.78497289 0.00066344793 0)
(0.78482038 0.00058033127 0)
(0.78468088 0.00050787735 0)
(0.78455471 0.00044442078 0)
(0.78444137 0.00038875684 0)
(0.78434 0.00033981535 0)
(0.78424973 0.00029663201 0)
(0.78416968 0.00025839639 0)
(0.78409905 0.00022445437 0)
(0.784037 0.00019427309 0)
(0.78398275 0.00016740656 0)
(0.78393556 0.00014347691 0)
(0.78389475 0.00012216617 0)
(0.78385967 0.00010321076 0)
(0.78382974 8.6395303e-05 0)
(0.78380442 7.154505e-05 0)
(0.7837832 5.8517365e-05 0)
(0.78376563 4.7191844e-05 0)
(0.78375125 3.7460171e-05 0)
(0.78373965 2.921626e-05 0)
(0.78373045 2.2348734e-05 0)
(0.78372328 1.673612e-05 0)
(0.78371781 1.2245941e-05 0)
(0.78371371 8.7367713e-06 0)
(0.78371072 6.0630231e-06 0)
(0.7837086 4.0808064e-06 0)
(0.78370712 2.6540703e-06 0)
(0.78370614 1.6594884e-06 0)
(0.7837055 9.9011423e-07 0)
(0.7837051 5.5695836e-07 0)
(0.78370486 2.8909762e-07 0)
(0.78370473 1.3223379e-07 0)
(0.78370466 4.6626791e-08 0)
(0.78370463 4.5184671e-09 0)
(0.78370462 -1.2796306e-08 0)
(0.78370462 -1.7258856e-08 0)
(0.78370462 -1.5698754e-08 0)
(0.78370463 -1.2081781e-08 0)
(0.78370463 -8.3241956e-09 0)
(0.78370463 -5.2378884e-09 0)
(0.78370464 -2.9859928e-09 0)
(0.78370464 -1.507454e-09 0)
(0.78370464 -6.0199948e-10 0)
(0.78370464 -1.1010933e-10 0)
(0.78370464 1.3569226e-10 0)
(0.78370464 2.2835305e-10 0)
(0.78370464 2.4780293e-10 0)
(0.78370464 2.212047e-10 0)
(0.78370464 1.9288603e-10 0)
(0.78370464 1.5352887e-10 0)
(0.78370464 1.2489478e-10 0)
(0.78370464 9.2764475e-11 0)
(0.78370464 7.6529776e-11 0)
(0.78370464 5.6324147e-11 0)
(0.78370464 4.5137897e-11 0)
(0.78370464 2.9840345e-11 0)
(0.78370464 2.6138938e-11 0)
(0.78370464 1.788434e-11 0)
(0.78370464 1.5564897e-11 0)
(0.78370464 8.7973437e-12 0)
(0.78370464 1.1496489e-11 0)
(0.78370464 8.6430708e-12 0)
(0.78370464 1.0784983e-11 0)
(0.78370464 7.6923876e-12 0)
(0.78370464 1.3880216e-11 0)
(0.78370464 1.3887397e-11 0)
(0.78370464 1.971793e-11 0)
(0.78370464 1.9254897e-11 0)
(0.78370464 3.0761686e-11 0)
(0.78370464 3.4205934e-11 0)
(0.78370464 4.8813764e-11 0)
(0.78370464 5.1806199e-11 0)
(0.78370464 7.8841557e-11 0)
(0.78370464 8.7643716e-11 0)
(0.78370464 1.319683e-10 0)
(0.78370464 1.4524872e-10 0)
(0.78370464 2.3296569e-10 0)
(0.78370464 2.6487039e-10 0)
(0.78370464 4.4409926e-10 0)
(0.78370464 5.3277357e-10 0)
(0.78370464 9.5867794e-10 0)
(0.78370464 1.3274393e-09 0)
(0.78370464 2.3749813e-09 0)
(0.78370464 3.4729247e-09 0)
(0.78370463 5.796185e-09 0)
(0.78370464 8.6238934e-09 0)
(0.78370462 1.3300601e-08 0)
(0.78370465 1.7891793e-08 0)
(0.91253428 0.0002022968 0)
(0.91488149 0.0010364708 0)
(0.91519765 0.0015862225 0)
(0.91533377 0.0016902268 0)
(0.91589701 0.0015558578 0)
(0.91665829 0.0013891412 0)
(0.91733186 0.0012586269 0)
(0.91784297 0.0011500172 0)
(0.91824113 0.0010427199 0)
(0.91857945 0.00093451153 0)
(0.91887782 0.00083209886 0)
(0.91913778 0.00073994069 0)
(0.91936021 0.00065812395 0)
(0.91954982 0.00058496511 0)
(0.91971255 0.00051907012 0)
(0.91985314 0.00045967393 0)
(0.91997488 0.0004062546 0)
(0.92008024 0.00035827658 0)
(0.9201713 0.00031518026 0)
(0.92024992 0.00027645046 0)
(0.9203177 0.00024164287 0)
(0.92037599 0.00021037443 0)
(0.92042594 0.00018230443 0)
(0.92046851 0.00015712806 0)
(0.92050458 0.00013457461 0)
(0.92053491 0.00011440923 0)
(0.92056016 9.6431149e-05 0)
(0.92058096 8.047173e-05 0)
(0.92059786 6.6389333e-05 0)
(0.92061138 5.4063459e-05 0)
(0.92062202 4.3386457e-05 0)
(0.92063023 3.425536e-05 0)
(0.92063642 2.6564137e-05 0)
(0.92064097 2.0198204e-05 0)
(0.92064424 1.5032024e-05 0)
(0.92064651 1.092959e-05 0)
(0.92064803 7.7481358e-06 0)
(0.92064901 5.3430257e-06 0)
(0.92064961 3.5741259e-06 0)
(0.92064996 2.3108491e-06 0)
(0.92065015 1.4370935e-06 0)
(0.92065023 8.5338038e-07 0)
(0.92065026 4.7841429e-07 0)
(0.92065026 2.4794675e-07 0)
(0.92065025 1.1382944e-07 0)
(0.92065024 4.1020213e-08 0)
(0.92065022 5.3742078e-09 0)
(0.92065021 -9.3599759e-09 0)
(0.9206502 -1.3217139e-08 0)
(0.9206502 -1.2205251e-08 0)
(0.9206502 -9.3799027e-09 0)
(0.92065019 -6.5039715e-09 0)
(0.92065019 -4.049514e-09 0)
(0.92065019 -2.3442003e-09 0)
(0.92065019 -1.1452077e-09 0)
(0.92065019 -4.8883438e-10 0)
(0.92065019 -5.7398135e-11 0)
(0.92065019 8.2380694e-11 0)
(0.92065019 2.0294425e-10 0)
(0.9206502 1.7324693e-10 0)
(0.92065019 2.042364e-10 0)
(0.9206502 1.3322668e-10 0)
(0.92065019 1.5098112e-10 0)
(0.9206502 8.0969227e-11 0)
(0.92065019 1.0338484e-10 0)
(0.9206502 3.8715285e-11 0)
(0.92065019 6.8003384e-11 0)
(0.9206502 1.2384826e-11 0)
(0.92065019 4.7478336e-11 0)
(0.9206502 -3.1486338e-12 0)
(0.92065019 3.6258816e-11 0)
(0.9206502 -9.1767483e-12 0)
(0.92065019 3.225271e-11 0)
(0.9206502 -1.2101878e-11 0)
(0.92065019 3.1573276e-11 0)
(0.9206502 -1.0212e-11 0)
(0.92065019 3.5324962e-11 0)
(0.9206502 -6.4360662e-12 0)
(0.92065019 4.2217206e-11 0)
(0.9206502 3.4134203e-12 0)
(0.92065019 5.5781441e-11 0)
(0.9206502 1.8630197e-11 0)
(0.92065019 7.7715215e-11 0)
(0.9206502 4.6876699e-11 0)
(0.92065019 1.1674185e-10 0)
(0.9206502 9.1012211e-11 0)
(0.92065019 1.8192989e-10 0)
(0.9206502 1.675923e-10 0)
(0.92065019 2.9935833e-10 0)
(0.9206502 3.0671459e-10 0)
(0.92065019 5.2481622e-10 0)
(0.9206502 6.0841256e-10 0)
(0.92065019 1.064638e-09 0)
(0.9206502 1.4279249e-09 0)
(0.92065019 2.3767822e-09 0)
(0.9206502 3.2862995e-09 0)
(0.92065019 5.0507696e-09 0)
(0.92065021 7.1565332e-09 0)
(0.92065018 1.0342438e-08 0)
(0.92065022 1.3561133e-08 0)
(0.97131805 6.7430817e-05 0)
(0.97396838 0.00036112226 0)
(0.9744683 0.00056677402 0)
(0.9748134 0.00061630911 0)
(0.97568782 0.00057630763 0)
(0.97683418 0.00052124306 0)
(0.97790706 0.00047826634 0)
(0.97879916 0.00044285612 0)
(0.97955589 0.00040701069 0)
(0.98023428 0.00036956833 0)
(0.98085453 0.00033310944 0)
(0.98141555 0.00029956937 0)
(0.98191599 0.00026920983 0)
(0.98236013 0.00024154894 0)
(0.98275462 0.00021617883 0)
(0.98310532 0.0001929213 0)
(0.98341662 0.0001716816 0)
(0.98369212 0.00015234313 0)
(0.98393518 0.0001347617 0)
(0.98414896 0.00011879391 0)
(0.98433637 0.00010431098 0)
(0.98450005 9.1197246e-05 0)
(0.98464235 7.9344878e-05 0)
(0.98476544 6.8652697e-05 0)
(0.98487127 5.9026958e-05 0)
(0.98496163 5.0383243e-05 0)
(0.98503816 4.2646934e-05 0)
(0.98510238 3.5753528e-05 0)
(0.98515569 2.9647477e-05 0)
(0.98519941 2.4280726e-05 0)
(0.98523477 1.9609963e-05 0)
(0.98526292 1.5593844e-05 0)
(0.98528496 1.2189917e-05 0)
(0.98530189 9.3524397e-06 0)
(0.98531463 7.0310824e-06 0)
(0.985324 5.1709352e-06 0)
(0.98533073 3.7136813e-06 0)
(0.98533544 2.5995162e-06 0)
(0.98533863 1.76961e-06 0)
(0.98534073 1.1684116e-06 0)
(0.98534207 7.4572687e-07 1.8719834e-33)
(0.98534287 4.5790637e-07 0)
(0.98534334 2.6867637e-07 0)
(0.98534359 1.4896419e-07 0)
(0.98534371 7.6556172e-08 0)
(0.98534376 3.5022993e-08 0)
(0.98534378 1.2927631e-08 0)
(0.98534377 2.3019503e-09 0)
(0.98534376 -2.111474e-09 0)
(0.98534375 -3.3401214e-09 0)
(0.98534374 -3.1115333e-09 0)
(0.98534374 -2.4116172e-09 0)
(0.98534373 -1.6504075e-09 0)
(0.98534373 -1.0409548e-09 0)
(0.98534373 -5.7557708e-10 0)
(0.98534373 -2.9169667e-10 0)
(0.98534373 -9.6354867e-11 0)
(0.98534373 -1.0023211e-11 0)
(0.98534373 5.9715011e-11 0)
(0.98534373 7.0178021e-11 0)
(0.98534373 8.8618465e-11 0)
(0.98534373 6.9602971e-11 0)
(0.98534373 8.1248619e-11 0)
(0.98534373 5.6291176e-11 0)
(0.98534373 6.00889e-11 0)
(0.98534373 3.2000558e-11 0)
(0.98534373 4.2856257e-11 0)
(0.98534373 1.7083295e-11 0)
(0.98534373 2.5944648e-11 0)
(0.98534373 2.2804691e-12 0)
(0.98534373 2.0395426e-11 0)
(0.98534373 2.2113745e-13 0)
(0.98534373 1.5201045e-11 0)
(0.98534373 -3.7675462e-12 0)
(0.98534373 1.8467215e-11 0)
(0.98534373 1.6111162e-12 0)
(0.98534373 1.9768671e-11 0)
(0.98534373 4.1357352e-12 0)
(0.98534373 3.0213604e-11 0)
(0.98534373 1.8656535e-11 0)
(0.98534373 4.2613437e-11 0)
(0.98534373 3.5249813e-11 0)
(0.98534373 6.9296507e-11 0)
(0.98534373 7.1066564e-11 0)
(0.98534373 1.0779678e-10 0)
(0.98534373 1.1912895e-10 0)
(0.98534373 1.7479725e-10 0)
(0.98534373 2.0318819e-10 0)
(0.98534373 2.8053113e-10 0)
(0.98534373 3.3575594e-10 0)
(0.98534373 4.7164693e-10 0)
(0.98534373 6.0829919e-10 0)
(0.98534373 8.9810555e-10 2.9495518e-35)
(0.98534373 1.1956573e-09 0)
(0.98534373 1.7176153e-09 0)
(0.98534374 2.126363e-09 8.848654e-36)
(0.98534373 2.905735e-09 0)
(0.98534374 3.5863054e-09 0)
(0.98534372 4.8124063e-09 0)
(0.98534376 6.2309546e-09 0)
(0.97131797 -6.7428394e-05 0)
(0.97396836 -0.00036111397 0)
(0.97446827 -0.00056677371 0)
(0.97481335 -0.00061632447 0)
(0.97568777 -0.00057633124 0)
(0.97683413 -0.00052126976 0)
(0.97790702 -0.00047829482 0)
(0.97879911 -0.00044288808 0)
(0.97955584 -0.00040704466 0)
(0.98023422 -0.00036960362 0)
(0.98085447 -0.00033314421 0)
(0.98141549 -0.00029960354 0)
(0.98191592 -0.00026924183 0)
(0.98236006 -0.00024157824 0)
(0.98275456 -0.00021620375 0)
(0.98310525 -0.00019294165 0)
(0.98341655 -0.00017169659 0)
(0.98369205 -0.00015235343 0)
(0.98393511 -0.00013476728 0)
(0.98414889 -0.00011879585 0)
(0.9843363 -0.00010430959 0)
(0.98449998 -9.1193663e-05 0)
(0.98464229 -7.9339422e-05 0)
(0.98476538 -6.8646094e-05 0)
(0.98487121 -5.9019128e-05 0)
(0.98496157 -5.0374348e-05 0)
(0.98503811 -4.2636554e-05 0)
(0.98510233 -3.5741437e-05 0)
(0.98515564 -2.9633186e-05 0)
(0.98519936 -2.4263985e-05 0)
(0.98523472 -1.959059e-05 0)
(0.98526288 -1.5571818e-05 0)
(0.98528492 -1.2165436e-05 0)
(0.98530186 -9.3257297e-06 0)
(0.9853146 -7.0026652e-06 0)
(0.98532397 -5.1412269e-06 0)
(0.98533071 -3.6834019e-06 0)
(0.98533542 -2.5691389e-06 0)
(0.98533862 -1.7399605e-06 0)
(0.98534072 -1.13994e-06 0)
(0.98534206 -7.1917913e-07 -1.8719834e-33)
(0.98534287 -4.3362241e-07 0)
(0.98534334 -2.4727236e-07 0)
(0.98534359 -1.3049706e-07 0)
(0.98534372 -6.128835e-08 0)
(0.98534377 -2.2619338e-08 0)
(0.98534378 -3.2685714e-09 0)
(0.98534378 5.0665579e-09 0)
(0.98534377 7.3488226e-09 0)
(0.98534376 7.0263471e-09 0)
(0.98534375 5.4285321e-09 0)
(0.98534375 3.887162e-09 0)
(0.98534374 2.372313e-09 0)
(0.98534374 1.4486391e-09 0)
(0.98534374 6.4327917e-10 0)
(0.98534374 3.4044696e-10 0)
(0.98534374 -3.6226777e-12 0)
(0.98534374 1.8485946e-11 0)
(0.98534374 -1.2502597e-10 0)
(0.98534374 -5.1251017e-12 0)
(0.98534374 -1.0828656e-10 0)
(0.98534374 3.5603598e-11 0)
(0.98534374 -6.6884483e-11 0)
(0.98534374 6.3192053e-11 0)
(0.98534374 -5.5552249e-11 0)
(0.98534374 7.1809026e-11 0)
(0.98534374 -4.7020096e-11 0)
(0.98534374 7.1120164e-11 0)
(0.98534374 -5.5558263e-11 0)
(0.98534374 6.7492776e-11 0)
(0.98534374 -5.2765346e-11 0)
(0.98534374 6.5942418e-11 0)
(0.98534374 -5.8820562e-11 0)
(0.98534374 6.6496848e-11 0)
(0.98534374 -5.1191492e-11 0)
(0.98534374 7.0274017e-11 0)
(0.98534374 -5.2012297e-11 0)
(0.98534374 7.6700125e-11 0)
(0.98534374 -3.8351462e-11 0)
(0.98534374 8.7678193e-11 0)
(0.98534374 -3.0147107e-11 0)
(0.98534374 1.0587092e-10 0)
(0.98534374 -3.6660694e-13 0)
(0.98534374 1.3634971e-10 0)
(0.98534374 3.2608136e-11 0)
(0.98534374 1.8414203e-10 0)
(0.98534374 9.645267e-11 0)
(0.98534374 2.5863262e-10 0)
(0.98534374 1.7554638e-10 0)
(0.98534374 3.6700972e-10 0)
(0.98534374 3.0776588e-10 0)
(0.98534374 5.5689454e-10 0)
(0.98534374 5.0918315e-10 -2.9495518e-35)
(0.98534374 7.5985912e-10 0)
(0.98534374 5.7052778e-10 0)
(0.98534375 4.516281e-10 -8.848654e-36)
(0.98534374 2.0046794e-11 0)
(0.98534376 -8.5397596e-10 0)
(0.98534373 -1.7302259e-09 0)
(0.98534378 -2.4024072e-09 0)
(0.91253424 -0.00020229645 0)
(0.9148814 -0.001036479 0)
(0.91519755 -0.0015862393 0)
(0.91533367 -0.0016902467 0)
(0.91589692 -0.0015558784 0)
(0.91665818 -0.0013891621 0)
(0.91733174 -0.0012586503 0)
(0.91784284 -0.0011500431 0)
(0.91824099 -0.0010427481 0)
(0.9185793 -0.00093454035 0)
(0.91887767 -0.00083212802 0)
(0.91913762 -0.00073996907 0)
(0.91936005 -0.0006581512 0)
(0.91954965 -0.00058498979 0)
(0.91971237 -0.00051909174 0)
(0.91985295 -0.00045969151 0)
(0.9199747 -0.0004062683 0)
(0.92008005 -0.00035828618 0)
(0.92017112 -0.0003151864 0)
(0.92024974 -0.00027645337 0)
(0.92031753 -0.00024164342 0)
(0.92037582 -0.00021037299 0)
(0.92042577 -0.00018230168 0)
(0.92046835 -0.00015712411 0)
(0.92050443 -0.0001345697 0)
(0.92053476 -0.00011440311 0)
(0.92056002 -9.6423642e-05 0)
(0.92058082 -8.0462437e-05 0)
(0.92059773 -6.6377989e-05 0)
(0.92061126 -5.4049829e-05 0)
(0.92062191 -4.3370465e-05 0)
(0.92063012 -3.4237109e-05 0)
(0.92063632 -2.6543793e-05 0)
(0.92064089 -2.0176151e-05 0)
(0.92064416 -1.5008608e-05 0)
(0.92064644 -1.0905378e-05 0)
(0.92064797 -7.7235299e-06 0)
(0.92064897 -5.3186607e-06 0)
(0.92064958 -3.5504123e-06 0)
(0.92064994 -2.288412e-06 0)
(0.92065013 -1.4162589e-06 0)
(0.92065023 -8.3463294e-07 0)
(0.92065026 -4.6189365e-07 0)
(0.92065027 -2.3390725e-07 0)
(0.92065026 -1.0211639e-07 0)
(0.92065025 -3.1718351e-08 0)
(0.92065024 1.615286e-09 0)
(0.92065024 1.4404278e-08 0)
(0.92065023 1.677231e-08 0)
(0.92065023 1.4464837e-08 0)
(0.92065023 1.0783747e-08 0)
(0.92065023 7.182391e-09 0)
(0.92065023 4.3696199e-09 0)
(0.92065023 2.3444145e-09 0)
(0.92065023 1.0905281e-09 0)
(0.92065023 3.1855175e-10 0)
(0.92065023 -2.9882622e-11 0)
(0.92065023 -2.0412281e-10 0)
(0.92065023 -2.1190056e-10 0)
(0.92065023 -2.1771223e-10 0)
(0.92065023 -1.44395e-10 0)
(0.92065023 -1.1770497e-10 0)
(0.92065023 -5.2405449e-11 0)
(0.92065023 -5.7111661e-11 0)
(0.92065023 -1.2161636e-11 0)
(0.92065023 -2.3928586e-11 0)
(0.92065023 8.18373e-12 0)
(0.92065023 -2.0626903e-11 0)
(0.92065023 8.2493965e-12 0)
(0.92065023 -1.2583933e-11 0)
(0.92065023 1.4706928e-11 0)
(0.92065023 -1.6392715e-11 0)
(0.92065023 1.1785901e-11 0)
(0.92065023 -8.6877493e-12 0)
(0.92065023 1.9149185e-11 0)
(0.92065023 -1.0844037e-11 0)
(0.92065023 1.8535003e-11 0)
(0.92065023 -2.9246466e-13 0)
(0.92065023 2.8925094e-11 0)
(0.92065023 1.9005448e-12 0)
(0.92065023 3.3968733e-11 0)
(0.92065023 2.0845089e-11 0)
(0.92065023 5.5521578e-11 0)
(0.92065023 3.9132257e-11 0)
(0.92065023 7.9135366e-11 0)
(0.92065023 8.5587008e-11 0)
(0.92065023 1.2716347e-10 0)
(0.92065023 1.4213605e-10 0)
(0.92065023 1.7798204e-10 0)
(0.92065023 2.2483062e-10 0)
(0.92065023 2.4345097e-10 0)
(0.92065023 2.9114961e-10 0)
(0.92065023 1.9472259e-10 0)
(0.92065023 8.5485447e-11 0)
(0.92065023 -4.8668506e-10 0)
(0.92065023 -1.1977144e-09 0)
(0.92065023 -2.6982272e-09 0)
(0.92065024 -4.8970546e-09 0)
(0.92065022 -7.8160889e-09 0)
(0.92065026 -1.0709954e-08 0)
(0.78514794 -0.00032846511 0)
(0.78682693 -0.0015268262 0)
(0.78666373 -0.0022033041 0)
(0.78626378 -0.0022313506 0)
(0.78613488 -0.0019656229 0)
(0.78612584 -0.0016903359 0)
(0.78605677 -0.001481186 0)
(0.78589921 -0.0013113326 0)
(0.78570037 -0.001153671 0)
(0.78550034 -0.0010054369 0)
(0.78531256 -0.00087322037 0)
(0.78513706 -0.00075991877 0)
(0.78497268 -0.00066346423 0)
(0.78482017 -0.00058034559 0)
(0.78468066 -0.00050789007 0)
(0.78455448 -0.00044443094 0)
(0.78444114 -0.00038876494 0)
(0.78433977 -0.00033982084 0)
(0.7842495 -0.00029663565 0)
(0.78416946 -0.00025839802 0)
(0.78409883 -0.00022445482 0)
(0.78403679 -0.00019427228 0)
(0.78398254 -0.00016740509 0)
(0.78393536 -0.00014347453 0)
(0.78389455 -0.00012216312 0)
(0.78385948 -0.00010320664 0)
(0.78382956 -8.6390064e-05 0)
(0.78380425 -7.1538317e-05 0)
(0.78378305 -5.8509074e-05 0)
(0.78376548 -4.7181884e-05 0)
(0.78375111 -3.7448606e-05 0)
(0.78373953 -2.9203288e-05 0)
(0.78373034 -2.2334532e-05 0)
(0.78372319 -1.6721103e-05 0)
(0.78371772 -1.2230328e-05 0)
(0.78371364 -8.7210482e-06 0)
(0.78371067 -6.0473647e-06 0)
(0.78370855 -4.0657252e-06 0)
(0.78370709 -2.6396652e-06 0)
(0.78370612 -1.6462554e-06 0)
(0.78370549 -9.7807541e-07 0)
(0.7837051 -5.4649744e-07 0)
(0.78370487 -2.8002908e-07 0)
(0.78370475 -1.2477379e-07 0)
(0.78370469 -4.0507743e-08 0)
(0.78370466 3.9692297e-11 0)
(0.78370465 1.6182458e-08 0)
(0.78370466 1.9403867e-08 0)
(0.78370466 1.7103696e-08 0)
(0.78370467 1.2742416e-08 0)
(0.78370467 8.6526829e-09 0)
(0.78370468 5.1650752e-09 0)
(0.78370468 2.8798395e-09 0)
(0.78370468 1.2143593e-09 0)
(0.78370468 4.2218916e-10 0)
(0.78370468 -1.6245171e-10 0)
(0.78370468 -2.317368e-10 0)
(0.78370468 -3.9146983e-10 0)
(0.78370468 -2.4682756e-10 0)
(0.78370468 -3.0893292e-10 0)
(0.78370468 -1.2081315e-10 0)
(0.78370468 -1.8924452e-10 0)
(0.78370468 -2.816264e-11 0)
(0.78370468 -1.2294721e-10 0)
(0.78370468 2.5565764e-11 0)
(0.78370468 -8.4216243e-11 0)
(0.78370468 4.1198054e-11 0)
(0.78370468 -7.7524437e-11 0)
(0.78370468 5.4264008e-11 0)
(0.78370468 -6.5409996e-11 0)
(0.78370468 5.3792063e-11 0)
(0.78370468 -6.7958922e-11 0)
(0.78370468 6.23839e-11 0)
(0.78370468 -5.792768e-11 0)
(0.78370468 6.139135e-11 0)
(0.78370468 -5.9860757e-11 0)
(0.78370468 7.1045327e-11 0)
(0.78370468 -4.8051275e-11 0)
(0.78370468 7.290075e-11 0)
(0.78370468 -4.6364372e-11 0)
(0.78370468 8.6830403e-11 0)
(0.78370468 -2.9492581e-11 0)
(0.78370468 9.3712595e-11 0)
(0.78370468 -1.8634133e-11 0)
(0.78370468 1.1594453e-10 0)
(0.78370468 1.5953444e-11 0)
(0.78370468 1.3709606e-10 0)
(0.78370468 5.0681027e-11 0)
(0.78370468 1.6836607e-10 0)
(0.78370468 1.0107987e-10 0)
(0.78370468 1.6149823e-10 0)
(0.78370468 5.6370377e-11 0)
(0.78370468 -7.115567e-11 0)
(0.78370469 -4.2432745e-10 0)
(0.78370468 -1.1596852e-09 0)
(0.78370469 -2.1048866e-09 0)
(0.78370468 -4.3733263e-09 0)
(0.78370469 -7.1244461e-09 0)
(0.78370467 -1.1849269e-08 0)
(0.7837047 -1.6654325e-08 0)
(0.56982244 -0.00040768189 0)
(0.57036158 -0.0015805515 0)
(0.56933278 -0.0020214834 0)
(0.5680851 -0.0018179312 0)
(0.56706773 -0.0014302619 0)
(0.56622965 -0.0011190927 0)
(0.56547356 -0.00091293558 0)
(0.56477641 -0.00076364096 0)
(0.56415075 -0.00063951516 0)
(0.56360404 -0.00053423459 0)
(0.56313081 -0.00044877714 0)
(0.5627202 -0.000381304 0)
(0.56236223 -0.00032741346 0)
(0.5620494 -0.00028300503 0)
(0.56177591 -0.0002454717 0)
(0.56153685 -0.00021334383 0)
(0.5613279 -0.00018565072 0)
(0.56114531 -0.00016161157 0)
(0.5609859 -0.00014058397 0)
(0.56084697 -0.00012207199 0)
(0.56072619 -0.00010570229 0)
(0.56062153 -9.1186492e-05 0)
(0.5605312 -7.8290815e-05 0)
(0.56045363 -6.682293e-05 0)
(0.56038742 -5.6625175e-05 0)
(0.56033132 -4.7570927e-05 0)
(0.5602842 -3.9559212e-05 0)
(0.56024501 -3.2509655e-05 0)
(0.5602128 -2.6356527e-05 0)
(0.56018668 -2.1042946e-05 0)
(0.56016581 -1.6515339e-05 0)
(0.56014942 -1.2718534e-05 0)
(0.56013679 -9.5928772e-06 0)
(0.56012725 -7.0724988e-06 0)
(0.56012021 -5.086344e-06 0)
(0.56011513 -3.559687e-06 0)
(0.56011157 -2.4176983e-06 0)
(0.56010915 -1.587897e-06 0)
(0.56010755 -1.0037612e-06 0)
(0.56010654 -6.0632777e-07 0)
(0.56010593 -3.4625048e-07 0)
(0.56010557 -1.8326834e-07 0)
(0.56010539 -8.6533765e-08 0)
(0.5601053 -3.2754393e-08 0)
(0.56010527 -5.590137e-09 0)
(0.56010526 6.5646091e-09 0)
(0.56010527 1.0148047e-08 0)
(0.56010528 9.5948517e-09 0)
(0.56010529 7.404045e-09 0)
(0.5601053 5.1126442e-09 0)
(0.56010531 3.0995752e-09 0)
(0.56010531 1.7258445e-09 0)
(0.56010531 7.3660157e-10 0)
(0.56010531 2.3175999e-10 0)
(0.56010532 -1.2193885e-10 0)
(0.56010532 -1.8638557e-10 0)
(0.56010532 -2.6829758e-10 0)
(0.56010532 -1.9756364e-10 0)
(0.56010532 -2.1452254e-10 0)
(0.56010531 -1.0990265e-10 0)
(0.56010532 -1.2709404e-10 0)
(0.56010531 -4.4846999e-11 0)
(0.56010532 -8.4583157e-11 0)
(0.56010531 -5.5426818e-12 0)
(0.56010532 -5.1408307e-11 0)
(0.56010531 9.2658136e-12 0)
(0.56010532 -4.6798475e-11 0)
(0.56010531 2.0505276e-11 0)
(0.56010532 -3.3300878e-11 0)
(0.56010531 2.179335e-11 0)
(0.56010532 -3.7732179e-11 0)
(0.56010531 2.7835936e-11 0)
(0.56010532 -2.6898253e-11 0)
(0.56010531 2.7603244e-11 0)
(0.56010532 -3.1906992e-11 0)
(0.56010531 3.3767075e-11 0)
(0.56010532 -2.0945522e-11 0)
(0.56010531 3.4347681e-11 0)
(0.56010532 -2.4510721e-11 0)
(0.56010531 4.2340305e-11 0)
(0.56010532 -1.1889682e-11 0)
(0.56010531 4.5353871e-11 0)
(0.56010532 -1.2656819e-11 0)
(0.56010531 5.7848133e-11 0)
(0.56010532 3.4306337e-12 0)
(0.56010531 6.6642668e-11 0)
(0.56010532 6.6496408e-12 0)
(0.56010531 8.5539865e-11 0)
(0.56010532 2.1366901e-11 0)
(0.56010532 9.6145931e-11 0)
(0.56010532 -1.9637779e-11 0)
(0.56010532 1.3500897e-11 0)
(0.56010532 -3.07503e-10 0)
(0.56010532 -5.2026655e-10 0)
(0.56010531 -1.2949384e-09 0)
(0.56010531 -2.0430886e-09 0)
(0.56010531 -4.3400422e-09 0)
(0.56010531 -6.5199145e-09 0)
(0.56010529 -1.2188752e-08 0)
(0.56010531 -1.7294663e-08 0)
(0.23890653 -0.00030945562 0)
(0.23819832 -0.00082244951 0)
(0.2367323 -0.00082891923 0)
(0.23537975 -0.00058506162 0)
(0.23437473 -0.00036535475 0)
(0.23364267 -0.00024341064 0)
(0.23307358 -0.00018370403 0)
(0.23260614 -0.00014671391 0)
(0.23221626 -0.00011748214 0)
(0.23189169 -9.4531808e-05 0)
(0.23162072 -7.7934817e-05 0)
(0.23139187 -6.6164435e-05 0)
(0.23119595 -5.7258976e-05 0)
(0.23102664 -4.9934954e-05 0)
(0.23087959 -4.3639473e-05 0)
(0.23075159 -3.817126e-05 0)
(0.23064004 -3.3404724e-05 0)
(0.23054277 -2.9220093e-05 0)
(0.23045796 -2.5514228e-05 0)
(0.23038412 -2.2214233e-05 0)
(0.23031998 -1.9268395e-05 0)
(0.23026445 -1.6637307e-05 0)
(0.23021657 -1.4286356e-05 0)
(0.2301755 -1.2186408e-05 0)
(0.23014049 -1.0312633e-05 0)
(0.23011088 -8.6455284e-06 0)
(0.23008606 -7.1690994e-06 0)
(0.23006549 -5.8707047e-06 0)
(0.23004863 -4.7394285e-06 0)
(0.23003503 -3.7654726e-06 0)
(0.23002421 -2.9390239e-06 0)
(0.23001577 -2.249521e-06 0)
(0.2300093 -1.685374e-06 0)
(0.23000446 -1.2335488e-06 0)
(0.23000091 -8.8028202e-07 0)
(0.22999838 -6.1099451e-07 0)
(0.22999662 -4.1154746e-07 0)
(0.22999544 -2.6804005e-07 0)
(0.22999467 -1.6814627e-07 0)
(0.22999419 -1.0077834e-07 0)
(0.22999391 -5.7218548e-08 0)
(0.22999375 -3.0116618e-08 0)
(0.22999367 -1.4308136e-08 0)
(0.22999364 -5.5178234e-09 0)
(0.22999363 -1.1736873e-09 0)
(0.22999363 1.1228186e-09 0)
(0.22999363 1.6790361e-09 0)
(0.22999364 1.6052507e-09 0)
(0.22999364 1.1471395e-09 0)
(0.22999365 8.0134809e-10 0)
(0.22999365 4.1178566e-10 0)
(0.22999365 2.5150826e-10 0)
(0.22999365 3.7924231e-11 0)
(0.22999365 2.6904351e-11 0)
(0.22999365 -8.0946966e-11 0)
(0.22999365 -2.3298756e-11 0)
(0.22999365 -9.3111271e-11 0)
(0.22999365 -1.8336524e-11 0)
(0.22999365 -7.229975e-11 0)
(0.22999365 1.1439951e-11 0)
(0.22999365 -5.3343027e-11 0)
(0.22999365 2.1633075e-11 0)
(0.22999365 -4.2275649e-11 0)
(0.22999365 3.3147668e-11 0)
(0.22999365 -3.8767434e-11 0)
(0.22999365 3.0315972e-11 0)
(0.22999365 -3.5501342e-11 0)
(0.22999365 3.6981639e-11 0)
(0.22999365 -3.6342545e-11 0)
(0.22999365 3.1735092e-11 0)
(0.22999365 -3.4383947e-11 0)
(0.22999365 3.766711e-11 0)
(0.22999365 -3.5885154e-11 0)
(0.22999365 3.2131512e-11 0)
(0.22999365 -3.4140288e-11 0)
(0.22999365 3.7907742e-11 0)
(0.22999365 -3.5601517e-11 0)
(0.22999365 3.238034e-11 0)
(0.22999365 -3.3866654e-11 0)
(0.22999365 3.8434989e-11 0)
(0.22999365 -3.4857475e-11 0)
(0.22999365 3.3893522e-11 0)
(0.22999365 -3.2571803e-11 0)
(0.22999365 4.0913097e-11 0)
(0.22999365 -3.3344107e-11 0)
(0.22999365 3.6889108e-11 0)
(0.22999365 -3.1494543e-11 0)
(0.22999365 4.4622945e-11 0)
(0.22999365 -3.2483496e-11 0)
(0.22999365 3.86652e-11 0)
(0.22999365 -5.5273139e-11 0)
(0.22999365 -1.9952461e-11 0)
(0.22999365 -2.307692e-10 0)
(0.22999365 -3.063807e-10 0)
(0.22999365 -6.7440488e-10 0)