/*--------------------------------*- C++ -*----------------------------------*\
| =========                 |                                                 |
| \\      /  F ield         | OpenFOAM: The Open Source CFD Toolbox           |
|  \\    /   O peration     | Version:  4.1                                   |
|   \\  /    A nd           | Web:      www.OpenFOAM.org                      |
|    \\/     M anipulation  |                                                 |
\*---------------------------------------------------------------------------*/
FoamFile
{
    version     2.0;
    format      ascii;
    class       volScalarField;
    location    "13";
    object      p;
}
// * * * * * * * * * * * * * * * * * * * * * * * * * * * * * * * * * * * * * //

dimensions      [0 2 -2 0 0 0 0];

internalField   nonuniform List<scalar> 
1000
(
1.5225523
1.5059018
1.4896173
1.4735957
1.457743
1.4419996
1.4263327
1.4107247
1.3951651
1.3796454
1.3641584
1.3486985
1.3332617
1.317845
1.3024463
1.2870637
1.2716958
1.256341
1.2409982
1.2256664
1.2103447
1.1950322
1.179728
1.1644317
1.1491424
1.1338598
1.1185831
1.103312
1.088046
1.0727847
1.0575278
1.0422748
1.0270256
1.0117797
0.99653693
0.98129706
0.96605982
0.95082503
0.93559247
0.92036197
0.90513336
0.88990649
0.87468122
0.85945741
0.84423494
0.8290137
0.81379358
0.7985745
0.78335635
0.76813907
0.75292256
0.73770678
0.72249164
0.7072771
0.6920631
0.67684959
0.66163652
0.64642385
0.63121155
0.61599957
0.60078789
0.58557648
0.57036531
0.55515435
0.53994359
0.524733
0.50952256
0.49431225
0.47910207
0.46389199
0.448682
0.43347209
0.41826225
0.40305248
0.38784275
0.37263307
0.35742343
0.34221381
0.32700423
0.31179466
0.29658511
0.28137558
0.26616606
0.25095655
0.23574704
0.22053754
0.20532805
0.19011856
0.17490907
0.15969958
0.1444901
0.12928061
0.11407113
0.098861645
0.083652162
0.06844268
0.053233197
0.038023714
0.02281423
0.0076047443
1.5222719
1.5056004
1.4895299
1.4736751
1.4578689
1.442107
1.4264134
1.4107899
1.3952225
1.3796967
1.3642034
1.3487372
1.333295
1.3178742
1.3024721
1.2870869
1.2717165
1.2563597
1.2410152
1.2256818
1.2103587
1.1950449
1.1797397
1.1644423
1.1491522
1.1338687
1.1185913
1.1033195
1.0880528
1.072791
1.0575335
1.0422801
1.0270304
1.0117841
0.99654094
0.98130072
0.96606317
0.95082808
0.93559525
0.9203645
0.90513567
0.88990859
0.87468312
0.85945914
0.84423651
0.82901512
0.81379487
0.79857565
0.7833574
0.76814001
0.75292341
0.73770754
0.72249232
0.70727771
0.69206364
0.67685007
0.66163695
0.64642423
0.63121188
0.61599987
0.60078815
0.58557671
0.57036551
0.55515452
0.53994374
0.52473312
0.50952266
0.49431234
0.47910214
0.46389205
0.44868205
0.43347214
0.41826229
0.40305251
0.38784278
0.37263309
0.35742344
0.34221383
0.32700424
0.31179467
0.29658512
0.28137559
0.26616606
0.25095655
0.23574704
0.22053754
0.20532805
0.19011856
0.17490907
0.15969958
0.1444901
0.12928061
0.11407113
0.098861645
0.083652162
0.06844268
0.053233197
0.038023714
0.022814231
0.0076047454
1.5217655
1.5049835
1.4892089
1.4736497
1.4579696
1.4422083
1.4264807
1.4108359
1.3952632
1.379737
1.364241
1.34877
1.3333228
1.3178978
1.3024928
1.2871052
1.2717329
1.2563744
1.2410283
1.2256937
1.2103694
1.1950546
1.1797485
1.1644504
1.1491595
1.1338753
1.1185973
1.103325
1.0880579
1.0727956
1.0575378
1.042284
1.0270339
1.0117873
0.99654391
0.98130343
0.96606565
0.95083034
0.93559732
0.92036639
0.90513739
0.88991016
0.87468455
0.85946044
0.84423769
0.82901619
0.81379584
0.79857654
0.7833582
0.76814073
0.75292406
0.73770813
0.72249285
0.70727819
0.69206407
0.67685045
0.66163729
0.64642454
0.63121215
0.61600011
0.60078837
0.5855769
0.57036567
0.55515467
0.53994386
0.52473323
0.50952276
0.49431242
0.47910221
0.46389211
0.4486821
0.43347218
0.41826233
0.40305254
0.3878428
0.37263311
0.35742346
0.34221384
0.32700425
0.31179468
0.29658513
0.28137559
0.26616607
0.25095655
0.23574705
0.22053755
0.20532805
0.19011856
0.17490907
0.15969958
0.1444901
0.12928061
0.11407113
0.098861646
0.083652163
0.06844268
0.053233198
0.038023716
0.022814233
0.0076047467
1.5212638
1.5043208
1.4888037
1.473559
1.4580428
1.442304
1.4265467
1.4108793
1.3953018
1.3797775
1.3642811
1.348806
1.3333534
1.3179238
1.3025154
1.2871253
1.2717509
1.2563904
1.2410426
1.2257065
1.210381
1.1950651
1.179758
1.164459
1.1491674
1.1338825
1.1186039
1.103331
1.0880634
1.0728007
1.0575424
1.0422882
1.0270378
1.0117909
0.99654719
0.98130644
0.96606841
0.95083287
0.93559964
0.92036852
0.90513934
0.88991194
0.87468619
0.85946193
0.84423905
0.82901744
0.81379698
0.79857758
0.78335914
0.76814159
0.75292485
0.73770884
0.7224935
0.70727877
0.6920646
0.67685093
0.66163772
0.64642492
0.6312125
0.61600042
0.60078865
0.58557715
0.5703659
0.55515487
0.53994404
0.52473339
0.5095229
0.49431255
0.47910232
0.4638922
0.44868218
0.43347225
0.41826239
0.40305259
0.38784284
0.37263315
0.35742349
0.34221386
0.32700427
0.31179469
0.29658514
0.2813756
0.26616608
0.25095656
0.23574705
0.22053755
0.20532805
0.19011856
0.17490907
0.15969958
0.1444901
0.12928061
0.11407113
0.098861646
0.083652164
0.068442681
0.053233199
0.038023717
0.022814235
0.0076047476
1.5209635
1.503908
1.4885336
1.4734846
1.4580811
1.4423641
1.4265899
1.4109076
1.3953269
1.3798046
1.3643087
1.3488314
1.3333754
1.3179427
1.3025321
1.2871402
1.2717642
1.2564024
1.2410534
1.2257162
1.2103898
1.1950731
1.1797653
1.1644656
1.1491734
1.1338881
1.118609
1.1033357
1.0880677
1.0728046
1.057546
1.0422915
1.0270409
1.0117937
0.99654977
0.98130881
0.96607059
0.95083488
0.93560148
0.92037021
0.90514089
0.88991337
0.87468749
0.85946313
0.84424015
0.82901844
0.81379789
0.79857841
0.78335991
0.76814229
0.75292548
0.73770942
0.72249403
0.70727925
0.69206503
0.67685133
0.66163808
0.64642525
0.6312128
0.61600069
0.60078889
0.58557736
0.57036609
0.55515504
0.53994419
0.52473353
0.50952302
0.49431265
0.47910242
0.46389229
0.44868226
0.43347231
0.41826244
0.40305264
0.38784288
0.37263318
0.35742352
0.34221389
0.32700429
0.31179471
0.29658515
0.28137561
0.26616609
0.25095657
0.23574706
0.22053756
0.20532806
0.19011856
0.17490907
0.15969959
0.1444901
0.12928061
0.11407113
0.098861647
0.083652164
0.068442682
0.0532332
0.038023718
0.022814236
0.0076047483
1.5209635
1.503908
1.4885336
1.4734846
1.4580811
1.442364
1.4265899
1.4109076
1.3953269
1.3798046
1.3643087
1.3488314
1.3333754
1.3179427
1.3025321
1.2871402
1.2717642
1.2564024
1.2410534
1.2257162
1.2103898
1.1950731
1.1797653
1.1644656
1.1491734
1.1338881
1.118609
1.1033357
1.0880677
1.0728046
1.057546
1.0422915
1.0270409
1.0117937
0.99654977
0.98130881
0.96607059
0.95083488
0.93560148
0.92037021
0.90514089
0.88991337
0.87468749
0.85946312
0.84424015
0.82901844
0.81379789
0.79857841
0.78335991
0.76814229
0.75292548
0.73770942
0.72249403
0.70727925
0.69206503
0.67685133
0.66163808
0.64642525
0.6312128
0.61600069
0.60078889
0.58557736
0.57036609
0.55515504
0.53994419
0.52473353
0.50952302
0.49431265
0.47910242
0.46389229
0.44868226
0.43347231
0.41826244
0.40305264
0.38784288
0.37263318
0.35742352
0.34221389
0.32700429
0.31179471
0.29658515
0.28137561
0.26616609
0.25095657
0.23574706
0.22053756
0.20532806
0.19011856
0.17490907
0.15969959
0.1444901
0.12928061
0.11407113
0.098861647
0.083652165
0.068442682
0.0532332
0.038023718
0.022814236
0.0076047485
1.5212638
1.5043208
1.4888037
1.473559
1.4580427
1.442304
1.4265467
1.4108793
1.3953018
1.3797775
1.3642811
1.348806
1.3333534
1.3179238
1.3025154
1.2871253
1.2717509
1.2563904
1.2410426
1.2257065
1.210381
1.1950651
1.179758
1.164459
1.1491674
1.1338825
1.1186039
1.103331
1.0880634
1.0728007
1.0575424
1.0422882
1.0270378
1.0117909
0.99654719
0.98130644
0.96606841
0.95083287
0.93559964
0.92036852
0.90513934
0.88991194
0.87468618
0.85946193
0.84423905
0.82901744
0.81379698
0.79857757
0.78335914
0.76814159
0.75292484
0.73770884
0.7224935
0.70727877
0.6920646
0.67685093
0.66163772
0.64642492
0.6312125
0.61600042
0.60078865
0.58557715
0.5703659
0.55515487
0.53994404
0.52473339
0.5095229
0.49431255
0.47910232
0.4638922
0.44868218
0.43347225
0.41826239
0.40305259
0.38784284
0.37263315
0.35742349
0.34221386
0.32700427
0.3117947
0.29658514
0.2813756
0.26616608
0.25095656
0.23574705
0.22053755
0.20532805
0.19011856
0.17490907
0.15969958
0.1444901
0.12928061
0.11407113
0.098861647
0.083652164
0.068442682
0.0532332
0.038023718
0.022814236
0.0076047482
1.5217655
1.5049835
1.489209
1.4736497
1.4579696
1.4422082
1.4264807
1.4108359
1.3952632
1.379737
1.364241
1.34877
1.3333228
1.3178978
1.3024928
1.2871052
1.271733
1.2563744
1.2410284
1.2256937
1.2103694
1.1950546
1.1797485
1.1644504
1.1491595
1.1338753
1.1185973
1.103325
1.0880579
1.0727956
1.0575378
1.042284
1.0270339
1.0117873
0.99654391
0.98130343
0.96606565
0.95083034
0.93559732
0.92036639
0.90513739
0.88991016
0.87468455
0.85946044
0.84423769
0.82901619
0.81379584
0.79857654
0.78335819
0.76814073
0.75292406
0.73770813
0.72249285
0.70727819
0.69206407
0.67685045
0.66163729
0.64642454
0.63121215
0.61600011
0.60078837
0.5855769
0.57036567
0.55515467
0.53994386
0.52473323
0.50952276
0.49431242
0.47910221
0.46389211
0.4486821
0.43347218
0.41826233
0.40305254
0.3878428
0.37263311
0.35742346
0.34221384
0.32700425
0.31179468
0.29658513
0.28137559
0.26616607
0.25095655
0.23574705
0.22053755
0.20532805
0.19011856
0.17490907
0.15969958
0.1444901
0.12928061
0.11407113
0.098861646
0.083652163
0.068442681
0.053233198
0.038023716
0.022814234
0.0076047472
1.5222719
1.5056004
1.48953
1.4736751
1.4578689
1.442107
1.4264134
1.4107899
1.3952225
1.3796967
1.3642034
1.3487372
1.3332951
1.3178742
1.3024722
1.2870869
1.2717165
1.2563597
1.2410152
1.2256818
1.2103587
1.1950449
1.1797397
1.1644423
1.1491522
1.1338687
1.1185913
1.1033195
1.0880528
1.072791
1.0575335
1.0422801
1.0270304
1.0117841
0.99654094
0.98130071
0.96606316
0.95082807
0.93559525
0.9203645
0.90513566
0.88990859
0.87468312
0.85945913
0.8442365
0.82901511
0.81379486
0.79857565
0.78335739
0.76814
0.75292341
0.73770754
0.72249232
0.70727771
0.69206364
0.67685007
0.66163695
0.64642423
0.63121188
0.61599987
0.60078815
0.58557671
0.57036551
0.55515452
0.53994374
0.52473312
0.50952266
0.49431234
0.47910214
0.46389205
0.44868205
0.43347214
0.41826229
0.40305251
0.38784278
0.37263309
0.35742344
0.34221383
0.32700424
0.31179467
0.29658512
0.28137559
0.26616606
0.25095655
0.23574704
0.22053755
0.20532805
0.19011856
0.17490907
0.15969958
0.1444901
0.12928061
0.11407113
0.098861646
0.083652163
0.06844268
0.053233198
0.038023715
0.022814232
0.0076047457
1.5225522
1.5059018
1.4896173
1.4735957
1.457743
1.4419996
1.4263326
1.4107247
1.3951651
1.3796454
1.3641584
1.3486985
1.3332617
1.317845
1.3024463
1.2870638
1.2716958
1.256341
1.2409982
1.2256665
1.2103447
1.1950322
1.1797281
1.1644317
1.1491425
1.1338598
1.1185831
1.103312
1.088046
1.0727847
1.0575278
1.0422748
1.0270256
1.0117797
0.99653693
0.98129705
0.96605982
0.95082502
0.93559247
0.92036197
0.90513336
0.88990649
0.87468122
0.85945741
0.84423494
0.8290137
0.81379358
0.79857449
0.78335635
0.76813906
0.75292256
0.73770678
0.72249164
0.7072771
0.6920631
0.67684959
0.66163652
0.64642385
0.63121155
0.61599957
0.60078789
0.58557648
0.57036531
0.55515435
0.53994359
0.524733
0.50952256
0.49431225
0.47910207
0.46389199
0.448682
0.43347209
0.41826226
0.40305248
0.38784275
0.37263307
0.35742343
0.34221381
0.32700423
0.31179466
0.29658512
0.28137558
0.26616606
0.25095655
0.23574704
0.22053754
0.20532805
0.19011856
0.17490907
0.15969958
0.1444901
0.12928061
0.11407113
0.098861646
0.083652163
0.06844268
0.053233197
0.038023714
0.02281423
0.0076047445
)
;

boundaryField
{
    top
    {
        type            zeroGradient;
    }
    inlet
    {
        type            fixedValue;
        value           uniform 1.53103;
    }
    outlet
    {
        type            fixedValue;
        value           uniform 0;
    }
    bottom
    {
        type            zeroGradient;
    }
    back
    {
        type            empty;
    }
    front
    {
        type            empty;
    }
}


// ************************************************************************* //
