/*--------------------------------*- C++ -*----------------------------------*\
| =========                 |                                                 |
| \\      /  F ield         | OpenFOAM: The Open Source CFD Toolbox           |
|  \\    /   O peration     | Version:  4.1                                   |
|   \\  /    A nd           | Web:      www.OpenFOAM.org                      |
|    \\/     M anipulation  |                                                 |
\*---------------------------------------------------------------------------*/
FoamFile
{
    version     2.0;
    format      ascii;
    class       surfaceScalarField;
    location    "13";
    object      phi;
}
// * * * * * * * * * * * * * * * * * * * * * * * * * * * * * * * * * * * * * //

dimensions      [0 3 -1 0 0 0 0];

internalField   nonuniform List<scalar> 
1890
(
0.002783553
2.2706452e-06
0.002776111
7.4429453e-06
0.0027671757
8.9353472e-06
0.0027593352
7.8400745e-06
0.0027532497
6.0848758e-06
0.0027485395
4.7096575e-06
0.0027446994
3.8395243e-06
0.0027414298
3.2692242e-06
0.0027386027
2.8267056e-06
0.0027361548
2.4474673e-06
0.0027340286
2.1259415e-06
0.0027321642
1.8641227e-06
0.0027305099
1.6541255e-06
0.0027290274
1.4823514e-06
0.0027276903
1.3369052e-06
0.0027264798
1.2104196e-06
0.0027253806
1.0990058e-06
0.0027243802
1.000331e-06
0.0027234676
9.1251697e-07
0.0027226337
8.3388542e-07
0.0027218706
7.6303762e-07
0.0027211717
6.9888473e-07
0.002720531
6.4059423e-07
0.0027199435
5.8749557e-07
0.0027194045
5.390265e-07
0.0027189098
4.9469822e-07
0.0027184557
4.5409123e-07
0.0027180388
4.1683978e-07
0.0027176562
3.8262994e-07
0.002717305
3.5118342e-07
0.0027169827
3.2225777e-07
0.0027166871
2.9563392e-07
0.002716416
2.7111958e-07
0.0027161675
2.485388e-07
0.0027159397
2.2773645e-07
0.0027157312
2.0856889e-07
0.0027155403
1.9090894e-07
0.0027153657
1.7463755e-07
0.002715206
1.596491e-07
0.0027150602
1.4584373e-07
0.0027149271
1.3313287e-07
0.0027148057
1.2143202e-07
0.002714695
1.106663e-07
0.0027145943
1.0076373e-07
0.0027145026
9.1660654e-08
0.0027144194
8.3295429e-08
0.0027143438
7.5613738e-08
0.0027142752
6.8562587e-08
0.0027142131
6.2095489e-08
0.002714157
5.6166787e-08
0.0027141063
5.0736637e-08
0.0027140605
4.5765611e-08
0.0027140193
4.1219535e-08
0.0027139823
3.7064362e-08
0.002713949
3.3270818e-08
0.0027139192
2.98095e-08
0.0027138926
2.6655392e-08
0.0027138688
2.3783178e-08
0.0027138476
2.1171591e-08
0.0027138288
1.8798902e-08
0.0027138122
1.6647138e-08
0.0027137975
1.4697748e-08
0.0027137846
1.2935652e-08
0.0027137733
1.1345037e-08
0.0027137634
9.9132905e-09
0.0027137547
8.6269246e-09
0.0027137473
7.4753697e-09
0.0027137408
6.4469999e-09
0.0027137353
5.5328461e-09
0.0027137306
4.7227368e-09
0.0027137266
4.0089244e-09
0.0027137232
3.382313e-09
0.0027137204
2.8360631e-09
0.002713718
2.3619202e-09
0.0027137161
1.9537861e-09
0.0027137145
1.6041012e-09
0.0027137132
1.3074355e-09
0.0027137121
1.0569235e-09
0.0027137113
8.478482e-10
0.0027137106
6.7406757e-10
0.0027137101
5.316313e-10
0.0027137097
4.1520191e-10
0.0027137093
3.2166367e-10
0.0027137091
2.465036e-10
0.0027137089
1.8742369e-10
0.0027137088
1.4074797e-10
0.0027137087
1.049305e-10
0.0027137086
7.707996e-11
0.0027137085
5.6234814e-11
0.0027137085
4.0243102e-11
0.0027137085
2.8507284e-11
0.0027137085
1.9587251e-11
0.0027137084
1.2859036e-11
0.0027137084
7.640075e-12
0.0027137084
2.2955779e-12
0.0027137084
-2.0509392e-12
0.0027137084
-9.3484211e-12
0.0027137085
-1.6224191e-11
0.0027137085
-3.4851175e-11
-4.3936079e-11
0.0069240051
2.5159065e-06
0.0069209055
1.0543779e-05
0.00691541
1.4431061e-05
0.0069091156
1.4134061e-05
0.006903067
1.2132904e-05
0.0068975127
1.0263449e-05
0.0068923991
8.9527025e-06
0.0068876738
7.9942013e-06
0.0068833384
7.1617564e-06
0.0068794031
6.3824624e-06
0.0068758529
5.6758832e-06
0.006872651
5.0657729e-06
0.0068697553
4.5497125e-06
0.0068671283
4.1091651e-06
0.0068647397
3.7253176e-06
0.0068625643
3.385742e-06
0.0068605799
3.0832919e-06
0.0068587671
2.813112e-06
0.0068571086
2.5709495e-06
0.0068555895
2.352903e-06
0.0068541968
2.1556359e-06
0.0068529192
1.9764711e-06
0.0068517465
1.8132734e-06
0.0068506697
1.66429e-06
0.0068496806
1.5280249e-06
0.0068487721
1.4031865e-06
0.0068479376
1.288651e-06
0.006847171
1.1834452e-06
0.0068464669
1.086716e-06
0.0068458203
9.9771522e-07
0.0068452268
9.157756e-07
0.0068446821
8.4030406e-07
0.0068441825
7.7076559e-07
0.0068437244
7.0668098e-07
0.0068433045
6.4761405e-07
0.0068429199
5.9317145e-07
0.0068425678
5.429922e-07
0.0068422457
4.9674916e-07
0.0068419512
4.5414011e-07
0.0068416822
4.1489012e-07
0.0068414366
3.7874387e-07
0.0068412126
3.4546855e-07
0.0068410084
3.1484708e-07
0.0068408225
2.8668113e-07
0.0068406534
2.6078511e-07
0.0068404997
2.3698944e-07
0.0068403602
2.1513497e-07
0.0068402337
1.9507622e-07
0.0068401191
1.7667628e-07
0.0068400155
1.598102e-07
0.0068399219
1.4436013e-07
0.0068398374
1.3021852e-07
0.0068397614
1.1728376e-07
0.006839693
1.0546344e-07
0.0068396316
9.467005e-08
0.0068395766
8.4824181e-08
0.0068395274
7.5850583e-08
0.0068394835
6.7681288e-08
0.0068394445
6.025186e-08
0.0068394098
5.3504335e-08
0.006839379
4.7383737e-08
0.0068393519
4.1840966e-08
0.006839328
3.682938e-08
0.0068393071
3.2307491e-08
0.0068392888
2.8235749e-08
0.0068392728
2.4579157e-08
0.006839259
2.1304098e-08
0.0068392471
1.8380773e-08
0.0068392368
1.5780228e-08
0.0068392281
1.3476771e-08
0.0068392206
1.1445063e-08
0.0068392144
9.6624512e-09
0.0068392091
8.1062998e-09
0.0068392047
6.7563594e-09
0.0068392011
5.5922026e-09
0.0068391981
4.5955521e-09
0.0068391957
3.7479304e-09
0.0068391937
3.0330338e-09
0.0068391921
2.4344245e-09
0.0068391908
1.9378349e-09
0.0068391898
1.5289799e-09
0.0068391891
1.1958664e-09
0.0068391885
9.2654311e-10
0.006839188
7.1133267e-10
0.0068391877
5.4057782e-10
0.0068391874
4.0694731e-10
0.0068391872
3.0294717e-10
0.006839187
2.2337607e-10
0.0068391869
1.6249744e-10
0.0068391869
1.1707602e-10
0.0068391868
8.2628562e-11
0.0068391868
5.7672079e-11
0.0068391867
3.8081061e-11
0.0068391867
2.4059431e-11
0.0068391867
1.0984212e-11
0.0068391867
1.19051e-12
0.0068391867
-1.2215079e-11
0.0068391867
-2.3892716e-11
0.0068391867
-4.2658323e-11
-5.442424e-11
0.0098167385
1.8253862e-06
0.0098184559
8.8273572e-06
0.0098198163
1.3070638e-05
0.0098203305
1.3619195e-05
0.0098202339
1.2228957e-05
0.0098197446
1.0752323e-05
0.0098189729
9.7240394e-06
0.0098179876
8.9792383e-06
0.0098168632
8.2858367e-06
0.00981567
7.5754215e-06
0.0098144587
6.886973e-06
0.0098132603
6.2639487e-06
0.0098120932
5.7166772e-06
0.0098109691
5.2330944e-06
0.0098098961
4.7981839e-06
0.0098088791
4.4026642e-06
0.0098079202
4.0420772e-06
0.0098070198
3.7135223e-06
0.0098061767
3.4139812e-06
0.0098053892
3.1402756e-06
0.0098046553
2.8895106e-06
0.0098039725
2.6592824e-06
0.0098033381
2.4476217e-06
0.0098027495
2.2528457e-06
0.009802204
2.0734658e-06
0.0098016991
1.9081433e-06
0.009801232
1.7556829e-06
0.0098008004
1.6150141e-06
0.009800402
1.4851812e-06
0.0098000344
1.3653196e-06
0.0097996955
1.2546485e-06
0.0097993833
1.1524541e-06
0.009799096
1.0580881e-06
0.0097988317
9.709546e-07
0.0097985888
8.905102e-07
0.0097983658
8.1625291e-07
0.009798161
7.4772344e-07
0.0097979733
6.8449561e-07
0.0097978013
6.2617855e-07
0.0097976438
5.7240837e-07
0.0097974997
5.2285089e-07
0.009797368
4.7719417e-07
0.0097972477
4.3515144e-07
0.0097971379
3.964544e-07
0.0097970378
3.6085643e-07
0.0097969467
3.2812638e-07
0.0097968638
2.9805176e-07
0.0097967884
2.7043309e-07
0.00979672
2.4508719e-07
0.009796658
2.2184187e-07
0.0097966019
2.0053909e-07
0.0097965511
1.8103012e-07
0.0097965052
1.6317871e-07
0.0097964638
1.4685651e-07
0.0097964265
1.3194613e-07
0.009796393
1.1833695e-07
0.0097963629
1.059281e-07
0.009796336
9.4624496e-08
0.0097963119
8.4339744e-08
0.0097962904
7.4992422e-08
0.0097962713
6.6508919e-08
0.0097962544
5.8819876e-08
0.0097962393
5.1862848e-08
0.0097962261
4.5578942e-08
0.0097962144
3.9915389e-08
0.0097962042
3.4822251e-08
0.0097961952
3.0254821e-08
0.0097961874
2.6170496e-08
0.0097961807
2.2531102e-08
0.0097961749
1.9299874e-08
0.0097961699
1.6443666e-08
0.0097961656
1.3930156e-08
0.009796162
1.1730066e-08
0.0097961589
9.8145266e-09
0.0097961564
8.1572735e-09
0.0097961542
6.7322493e-09
0.0097961525
5.5158555e-09
0.009796151
4.4846762e-09
0.0097961498
3.6177094e-09
0.0097961489
2.8942416e-09
0.0097961481
2.2960704e-09
0.0097961475
1.8054143e-09
0.009796147
1.4070234e-09
0.0097961467
1.0861775e-09
0.0097961464
8.3066419e-10
0.0097961462
6.2885009e-10
0.009796146
4.7136384e-10
0.0097961459
3.4946477e-10
0.0097961458
2.5625395e-10
0.0097961457
1.8560869e-10
0.0097961457
1.3247022e-10
0.0097961456
9.2957838e-11
0.0097961456
6.2965314e-11
0.0097961456
4.0615173e-11
0.0097961456
2.2313391e-11
0.0097961456
8.324377e-12
0.0097961456
-6.7041439e-12
0.0097961456
-1.9736976e-11
0.0097961456
-3.5085379e-11
-4.5648895e-11
0.011636892
9.2488722e-07
0.011640895
4.8254196e-06
0.011646514
7.4513465e-06
0.01165211
8.0224634e-06
0.011656984
7.3543098e-06
0.01166117
6.5655598e-06
0.01166486
6.0337093e-06
0.01166817
5.6697106e-06
0.011671134
5.3213049e-06
0.011673769
4.9395695e-06
0.011676104
4.5518646e-06
0.011678177
4.1910251e-06
0.011680026
3.8676354e-06
0.011681683
3.5762676e-06
0.011683172
3.3087748e-06
0.011684514
3.0605781e-06
0.011685726
2.8301493e-06
0.011686822
2.6167768e-06
0.011687817
2.4194125e-06
0.01168872
2.2367033e-06
0.011689543
2.0673238e-06
0.011690292
1.9101712e-06
0.011690975
1.7643278e-06
0.011691599
1.628999e-06
0.011692169
1.503441e-06
0.01169269
1.3869667e-06
0.011693167
1.2789294e-06
0.011693603
1.1787423e-06
0.011694002
1.0858544e-06
0.011694368
9.9976426e-07
0.011694702
9.1999591e-07
0.011695009
8.4611499e-07
0.011695289
7.7770746e-07
0.011695546
7.1439628e-07
0.01169578
6.55821e-07
0.011695995
6.0165433e-07
0.011696191
5.5158221e-07
0.01169637
5.0532015e-07
0.011696534
4.625943e-07
0.011696683
4.2315757e-07
0.011696819
3.867713e-07
0.011696943
3.5322086e-07
0.011697056
3.2229826e-07
0.011697159
2.9381732e-07
0.011697252
2.6759695e-07
0.011697337
2.4347571e-07
0.011697413
2.2129597e-07
0.011697483
2.00918e-07
0.011697546
1.8220478e-07
0.011697603
1.6503545e-07
0.011697654
1.4929091e-07
0.0116977
1.3486685e-07
0.011697742
1.2165989e-07
0.011697779
1.0958008e-07
0.011697812
9.8537843e-08
0.011697842
8.8455857e-08
0.011697869
7.9256683e-08
0.011697893
7.0874015e-08
0.011697914
6.3241055e-08
0.011697932
5.6301298e-08
0.011697949
4.9997387e-08
0.011697964
4.4281369e-08
0.011697976
3.9104145e-08
0.011697987
3.4425303e-08
0.011697997
3.0202949e-08
0.011698006
2.6403055e-08
0.011698013
2.2989785e-08
0.011698019
1.9934474e-08
0.011698024
1.720628e-08
0.011698029
1.4780753e-08
0.011698033
1.2630961e-08
0.011698036
1.0735772e-08
0.011698039
9.0713065e-09
0.011698041
7.6189227e-09
0.011698043
6.3571166e-09
0.011698044
5.269322e-09
0.011698045
4.336083e-09
0.011698046
3.5426442e-09
0.011698047
2.8714737e-09
0.011698048
2.3097123e-09
0.011698048
1.8418424e-09
0.011698048
1.4569672e-09
0.011698049
1.1416713e-09
0.011698049
8.8720346e-10
0.011698049
6.8231504e-10
0.011698049
5.2036885e-10
0.011698049
3.9217407e-10
0.011698049
2.9317443e-10
0.011698049
2.1601231e-10
0.011698049
1.5795772e-10
0.011698049
1.1308856e-10
0.011698049
8.0191144e-11
0.011698049
5.4342441e-11
0.011698049
3.5678067e-11
0.011698049
2.0121557e-11
0.011698049
8.9850673e-12
0.011698049
-2.5151541e-12
0.011698049
-1.1903676e-11
0.011698049
-2.3343893e-11
-3.0174218e-11
0.012513251
3.0114495e-11
0.012518078
8.7418031e-11
0.012525529
2.7414325e-11
0.01253355
-5.6705525e-12
0.012540904
4.0047067e-11
0.012547469
1.4297718e-10
0.012553502
2.223006e-10
0.012559171
2.5480439e-10
0.012564492
2.5919435e-10
0.012569431
2.59719e-10
0.012573982
2.6027826e-10
0.012578173
2.5487359e-10
0.01258204
2.4141765e-10
0.012585616
2.2041199e-10
0.012588924
1.961978e-10
0.012591985
1.6904943e-10
0.012594815
1.4167944e-10
0.012597431
1.1255888e-10
0.01259985
8.4694503e-11
0.012602087
5.6568328e-11
0.012604154
3.1308187e-11
0.012606064
7.4255968e-12
0.012607829
-1.4926182e-11
0.012609458
-3.5092469e-11
0.012610961
-5.1538603e-11
0.012612348
-6.7053204e-11
0.012613627
-7.874665e-11
0.012614806
-8.9562751e-11
0.012615892
-9.6723924e-11
0.012616892
-1.0345404e-10
0.012617812
-1.069017e-10
0.012618658
-1.1011243e-10
0.012619436
-1.1031358e-10
0.01262015
-1.1066959e-10
0.012620806
-1.0837145e-10
0.012621408
-1.0628247e-10
0.01262196
-1.0173227e-10
0.012622465
-9.7630216e-11
0.012622928
-9.135937e-11
0.012623351
-8.5554646e-11
0.012623738
-7.7797871e-11
0.012624091
-7.0783907e-11
0.012624414
-6.2191508e-11
0.012624708
-5.4457917e-11
0.012624975
-4.5456144e-11
0.012625219
-3.7628935e-11
0.01262544
-2.8943086e-11
0.012625641
-2.1532375e-11
0.012625823
-1.3555962e-11
0.012625988
-7.0545599e-12
0.012626138
-1.9851912e-13
0.012626272
5.2384019e-12
0.012626394
1.0886208e-11
0.012626504
1.4929467e-11
0.012626602
1.9218265e-11
0.012626691
2.203993e-11
0.01262677
2.5198384e-11
0.012626841
2.694557e-11
0.012626904
2.9078309e-11
0.01262696
3.0027278e-11
0.01262701
3.1488817e-11
0.012627055
3.1850515e-11
0.012627094
3.2769089e-11
0.012627128
3.2776767e-11
0.012627158
3.3408975e-11
0.012627185
3.3143626e-11
0.012627208
3.3467853e-11
0.012627227
3.2988289e-11
0.012627245
3.3080715e-11
0.012627259
3.2308996e-11
0.012627272
3.2023415e-11
0.012627283
3.0921129e-11
0.012627292
3.0275389e-11
0.012627299
2.8760099e-11
0.012627306
2.7655524e-11
0.012627311
2.5769106e-11
0.012627315
2.4330872e-11
0.012627319
2.2124603e-11
0.012627322
2.0399611e-11
0.012627324
1.8050038e-11
0.012627326
1.6275824e-11
0.012627327
1.392207e-11
0.012627328
1.2199457e-11
0.012627329
1.0028248e-11
0.01262733
8.5612341e-12
0.01262733
6.6414779e-12
0.012627331
5.4303812e-12
0.012627331
3.8204439e-12
0.012627331
2.9212065e-12
0.012627331
1.5438681e-12
0.012627332
7.7755057e-13
0.012627332
-5.976353e-13
0.012627332
-1.3704986e-12
0.012627332
-2.8719717e-12
0.012627332
-3.4458219e-12
0.012627332
-4.5752333e-12
0.012627332
-5.4810587e-12
0.012627332
-6.5347704e-12
0.012627332
-1.0568934e-11
-1.1466826e-11
0.01251325
-9.249775e-07
0.012518077
-4.825871e-06
0.012525528
-7.4517168e-06
0.01253355
-8.0225555e-06
0.012540903
-7.3541845e-06
0.012547468
-6.5653384e-06
0.012553501
-6.0334103e-06
0.012559171
-5.6693476e-06
0.012564491
-5.3208938e-06
0.012569431
-4.9391283e-06
0.012573982
-4.5514131e-06
0.012578173
-4.1905806e-06
0.01258204
-3.8672121e-06
0.012585616
-3.5758765e-06
0.012588924
-3.3084235e-06
0.012591985
-3.060273e-06
0.012594815
-2.8298937e-06
0.012597431
-2.6165734e-06
0.01259985
-2.4192602e-06
0.012602087
-2.2366015e-06
0.012604154
-2.0672688e-06
0.012606064
-1.9101606e-06
0.012607829
-1.7643575e-06
0.012609458
-1.6290653e-06
0.012610961
-1.5035381e-06
0.012612348
-1.3870913e-06
0.012613627
-1.279076e-06
0.012614806
-1.1789076e-06
0.012615892
-1.0860334e-06
0.012616892
-9.9995447e-07
0.012617812
-9.2019274e-07
0.012618658
-8.4631656e-07
0.012619436
-7.7790981e-07
0.01262015
-7.1459816e-07
0.012620806
-6.5601893e-07
0.012621408
-6.0184735e-07
0.01262196
-5.5176726e-07
0.012622465
-5.0549667e-07
0.012622928
-4.6275959e-07
0.012623351
-4.2331128e-07
0.012623738
-3.8691121e-07
0.012624091
-3.533471e-07
0.012624413
-3.2240911e-07
0.012624707
-2.939133e-07
0.012624975
-2.6767697e-07
0.012625219
-2.4354087e-07
0.01262544
-2.2134573e-07
0.012625641
-2.0095382e-07
0.012625823
-1.8222661e-07
0.012625988
-1.6504509e-07
0.012626137
-1.492886e-07
0.012626272
-1.3485448e-07
0.012626394
-1.2163795e-07
0.012626503
-1.0955059e-07
0.012626602
-9.8501212e-08
0.01262669
-8.841391e-08
0.01262677
-7.920972e-08
0.012626841
-7.0823703e-08
0.012626904
-6.3187477e-08
0.01262696
-5.6245792e-08
0.01262701
-4.9939855e-08
0.012627054
-4.4222959e-08
0.012627093
-3.9044564e-08
0.012627128
-3.4365452e-08
0.012627158
-3.0142465e-08
0.012627184
-2.634279e-08
0.012627207
-2.2929344e-08
0.012627227
-1.9874635e-08
0.012627244
-1.7146731e-08
0.012627259
-1.4722357e-08
0.012627272
-1.2573473e-08
0.012627283
-1.0680052e-08
0.012627292
-9.017203e-09
0.012627299
-7.5673574e-09
0.012627306
-6.3079356e-09
0.012627311
-5.2233502e-09
0.012627315
-4.2931355e-09
0.012627319
-3.5034773e-09
0.012627321
-2.8357633e-09
0.012627324
-2.2780091e-09
0.012627326
-1.8136947e-09
0.012627327
-1.4328019e-09
0.012627328
-1.1208712e-09
0.012627329
-8.7001316e-10
0.01262733
-6.6804163e-10
0.01262733
-5.0922538e-10
0.012627331
-3.8341007e-10
0.012627331
-2.8696055e-10
0.012627331
-2.1165356e-10
0.012627331
-1.5574839e-10
0.012627331
-1.1245777e-10
0.012627332
-8.1640892e-11
0.012627332
-5.7453256e-11
0.012627332
-4.1088549e-11
0.012627332
-2.673956e-11
0.012627332
-1.7281325e-11
0.012627332
-7.4467316e-12
0.012627332
8.6551364e-13
0.012627332
6.7370885e-12
1.2329695e-11
0.011636892
-1.8253557e-06
0.011640894
-8.8272247e-06
0.011646513
-1.3070589e-05
0.011652109
-1.3619251e-05
0.011656983
-1.2228997e-05
0.01166117
-1.0752292e-05
0.01166486
-9.7239216e-06
0.011668169
-8.9790542e-06
0.011671133
-8.2856017e-06
0.011673769
-7.5751505e-06
0.011676104
-6.8866777e-06
0.011678177
-6.2636422e-06
0.011680026
-5.7163743e-06
0.011681683
-5.2328061e-06
0.011683172
-4.7979221e-06
0.011684514
-4.4024333e-06
0.011685726
-4.0418843e-06
0.011686823
-3.7133665e-06
0.011687817
-3.4138664e-06
0.011688721
-3.1401976e-06
0.011689543
-2.8894714e-06
0.011690292
-2.6592753e-06
0.011690975
-2.4476478e-06
0.011691599
-2.2528974e-06
0.011692169
-2.0735436e-06
0.01169269
-1.9082393e-06
0.011693167
-1.7557976e-06
0.011693603
-1.61514e-06
0.011694002
-1.4853194e-06
0.011694368
-1.365463e-06
0.011694702
-1.2547986e-06
0.011695009
-1.1526045e-06
0.011695289
-1.0582408e-06
0.011695546
-9.7110358e-07
0.01169578
-8.9065775e-07
0.011695995
-8.1639356e-07
0.011696191
-7.4785976e-07
0.01169637
-6.8462246e-07
0.011696533
-6.262985e-07
0.011696683
-5.7251678e-07
0.011696819
-5.2295066e-07
0.011696943
-4.772811e-07
0.011697056
-4.3522854e-07
0.011697158
-3.965181e-07
0.011697251
-3.6091014e-07
0.011697336
-3.2816703e-07
0.011697413
-2.9808288e-07
0.011697482
-2.7045216e-07
0.011697545
-2.4509801e-07
0.011697602
-2.2184224e-07
0.011697653
-2.0053272e-07
0.011697699
-1.8101514e-07
0.011697741
-1.6315887e-07
0.011697778
-1.4683002e-07
0.011697812
-1.3191648e-07
0.011697842
-1.1830239e-07
0.011697868
-1.0589193e-07
0.011697892
-9.4584882e-08
0.011697913
-8.4299596e-08
0.011697932
-7.4949866e-08
0.011697948
-6.6466656e-08
0.011697963
-5.8775925e-08
0.011697976
-5.1819595e-08
0.011697987
-4.553443e-08
0.011697997
-3.987191e-08
0.011698005
-3.4777857e-08
0.011698012
-3.0211643e-08
0.011698019
-2.6126727e-08
0.011698024
-2.2488904e-08
0.011698029
-1.9257531e-08
0.011698032
-1.6403264e-08
0.011698036
-1.3890131e-08
0.011698038
-1.1692541e-08
0.01169804
-9.7779763e-09
0.011698042
-8.1236957e-09
0.011698044
-6.7001629e-09
0.011698045
-5.4872044e-09
0.011698046
-4.4578985e-09
0.011698047
-3.5945459e-09
0.011698047
-2.8730741e-09
0.011698048
-2.2785413e-09
0.011698048
-1.7897807e-09
0.011698048
-1.3947414e-09
0.011698049
-1.0754636e-09
0.011698049
-8.2294891e-10
0.011698049
-6.2229302e-10
0.011698049
-4.6732643e-10
0.011698049
-3.4614898e-10
0.011698049
-2.5513176e-10
0.011698049
-1.8492498e-10
0.011698049
-1.3376494e-10
0.011698049
-9.4506432e-11
0.011698049
-6.6612019e-11
0.011698049
-4.4531182e-11
0.011698049
-2.8126613e-11
0.011698049
-1.4169313e-11
0.011698049
-7.4493223e-13
0.011698049
1.3162048e-11
0.011698049
2.9314855e-11
3.9182243e-11
0.0098167376
-2.5158583e-06
0.0098184551
-1.0543557e-05
0.0098198155
-1.4430847e-05
0.0098203299
-1.4134052e-05
0.0098202333
-1.2133097e-05
0.0098197441
-1.0263703e-05
0.0098189726
-8.9528976e-06
0.0098179874
-7.9942968e-06
0.0098168631
-7.1617628e-06
0.00981567
-6.3824044e-06
0.0098144587
-5.675781e-06
0.0098132604
-5.0656394e-06
0.0098120934
-4.5495614e-06
0.0098109694
-4.1090087e-06
0.0098098964
-3.7251686e-06
0.0098088795
-3.3856076e-06
0.0098079206
-3.0831781e-06
0.0098070202
-2.81302e-06
0.0098061771
-2.5708812e-06
0.0098053897
-2.3528573e-06
0.0098046557
-2.155613e-06
0.0098039729
-1.9764679e-06
0.0098033385
-1.8132893e-06
0.0098027499
-1.6643215e-06
0.0098022044
-1.5280707e-06
0.0098016993
-1.4032429e-06
0.0098012322
-1.288717e-06
0.0098008006
-1.1835174e-06
0.0098004021
-1.0867939e-06
0.0098000344
-9.9779567e-07
0.0097996954
-9.1585832e-07
0.0097993832
-8.4038663e-07
0.0097990958
-7.7084805e-07
0.0097988315
-7.0676103e-07
0.0097985885
-6.4769193e-07
0.0097983654
-5.9324532e-07
0.0097981606
-5.4306245e-07
0.0097979728
-4.9681398e-07
0.0097978007
-4.5420002e-07
0.0097976432
-4.149437e-07
0.009797499
-3.787918e-07
0.0097973673
-3.4550953e-07
0.0097972469
-3.1488195e-07
0.0097971371
-2.8670901e-07
0.0097970371
-2.6080705e-07
0.0097969459
-2.370047e-07
0.009796863
-2.1514473e-07
0.0097967876
-1.9508009e-07
0.0097967192
-1.7667559e-07
0.0097966572
-1.5980456e-07
0.009796601
-1.4435084e-07
0.0097965502
-1.3020542e-07
0.0097965044
-1.1726817e-07
0.009796463
-1.0544506e-07
0.0097964258
-9.4650101e-08
0.0097963923
-8.4802432e-08
0.0097963622
-7.582811e-08
0.0097963353
-6.7657677e-08
0.0097963112
-6.0228029e-08
0.0097962898
-5.3479893e-08
0.0097962707
-4.7359482e-08
0.0097962537
-4.1816343e-08
0.0097962387
-3.6805076e-08
0.0097962255
-3.2283028e-08
0.0097962138
-2.821177e-08
0.0097962036
-2.4555107e-08
0.0097961947
-2.1280594e-08
0.009796187
-1.83574e-08
0.0097961802
-1.5757624e-08
0.0097961744
-1.3454488e-08
0.0097961695
-1.1423743e-08
0.0097961652
-9.6417823e-09
0.0097961616
-8.0869266e-09
0.0097961586
-6.7379027e-09
0.009796156
-5.575267e-09
0.0097961539
-4.5798259e-09
0.0097961522
-3.7339623e-09
0.0097961508
-3.0203845e-09
0.0097961496
-2.4235558e-09
0.0097961486
-1.9283298e-09
0.0097961479
-1.5212243e-09
0.0097961473
-1.1893094e-09
0.0097961468
-9.2150169e-10
0.0097961465
-7.0730271e-10
0.0097961462
-5.3784957e-10
0.009796146
-4.0493435e-10
0.0097961458
-3.019452e-10
0.0097961457
-2.2289522e-10
0.0097961456
-1.6288675e-10
0.0097961455
-1.1780169e-10
0.0097961455
-8.4084734e-11
0.0097961454
-5.9318955e-11
0.0097961454
-4.0394874e-11
0.0097961454
-2.6372282e-11
0.0097961454
-1.4223721e-11
0.0097961454
-4.7062776e-12
0.0097961454
8.5469856e-12
0.0097961454
2.1543046e-11
0.0097961454
4.5780267e-11
5.7637751e-11
0.0069240049
-2.2705108e-06
0.0069209052
-7.4427826e-06
0.00691541
-8.9352782e-06
0.0069091157
-7.8401855e-06
0.0069030671
-6.0851881e-06
0.0068975127
-4.710067e-06
0.0068923991
-3.8399042e-06
0.0068876737
-3.269504e-06
0.0068833383
-2.8268857e-06
0.006879403
-2.4475767e-06
0.0068758528
-2.1260052e-06
0.006872651
-1.8641554e-06
0.0068697553
-1.6541342e-06
0.0068671284
-1.4823458e-06
0.0068647399
-1.3368915e-06
0.0068625645
-1.2104059e-06
0.0068605802
-1.0989932e-06
0.0068587674
-1.0003236e-06
0.0068571089
-9.1251284e-07
0.0068555898
-8.338876e-07
0.0068541972
-7.6304311e-07
0.0068529195
-6.9889608e-07
0.0068517468
-6.4060793e-07
0.00685067
-5.8751398e-07
0.0068496809
-5.3904573e-07
0.0068487724
-4.9472066e-07
0.0068479377
-4.541132e-07
0.0068471711
-4.1686383e-07
0.0068464669
-3.8265244e-07
0.0068458203
-3.5120705e-07
0.0068452268
-3.2227918e-07
0.006844682
-2.9565588e-07
0.0068441823
-2.7113881e-07
0.0068437241
-2.4855809e-07
0.0068433042
-2.2775277e-07
0.0068429196
-2.0858498e-07
0.0068425674
-1.9092183e-07
0.0068422453
-1.7464993e-07
0.0068419508
-1.5965821e-07
0.0068416817
-1.4585221e-07
0.0068414361
-1.3313802e-07
0.006841212
-1.2143643e-07
0.0068410078
-1.1066752e-07
0.0068408219
-1.0076429e-07
0.0068406528
-9.1658192e-08
0.0068404991
-8.329244e-08
0.0068403596
-7.5608066e-08
0.0068402331
-6.8556662e-08
0.0068401185
-6.2087224e-08
0.0068400149
-5.615854e-08
0.0068399213
-5.0726475e-08
0.0068398368
-4.5755799e-08
0.0068397608
-4.1208168e-08
0.0068396924
-3.705361e-08
0.0068396311
-3.3258878e-08
0.0068395761
-2.9798422e-08
0.0068395269
-2.664336e-08
0.006839483
-2.3772141e-08
0.006839444
-2.1159809e-08
0.0068394093
-1.8788215e-08
0.0068393786
-1.6635792e-08
0.0068393515
-1.4687505e-08
0.0068393276
-1.2924839e-08
0.0068393067
-1.1335341e-08
0.0068392884
-9.903039e-09
0.0068392725
-8.6177668e-09
0.0068392587
-7.4657232e-09
0.0068392468
-6.4384723e-09
0.0068392365
-5.5238628e-09
0.0068392278
-4.7148947e-09
0.0068392204
-4.0007279e-09
0.0068392141
-3.375328e-09
0.0068392089
-2.8287807e-09
0.0068392045
-2.3559002e-09
0.0068392009
-1.9475646e-09
0.0068391979
-1.5992021e-09
0.0068391955
-1.302346e-09
0.0068391935
-1.0531633e-09
0.006839192
-8.4391804e-10
0.0068391907
-6.7145468e-10
0.0068391897
-5.287683e-10
0.0068391889
-4.1358747e-10
0.0068391883
-3.1974184e-10
0.0068391879
-2.4575441e-10
0.0068391875
-1.8624217e-10
0.0068391873
-1.4063605e-10
0.0068391871
-1.0433928e-10
0.0068391869
-7.7479333e-11
0.0068391868
-5.609332e-11
0.0068391867
-4.1019762e-11
0.0068391867
-2.8690794e-11
0.0068391867
-2.0524458e-11
0.0068391866
-1.2910728e-11
0.0068391866
-8.3383444e-12
0.0068391866
-2.8076162e-12
0.0068391866
1.3747875e-12
0.0068391866
8.5459308e-12
0.0068391866
1.6319789e-11
0.0068391866
3.8831111e-11
4.8286889e-11
0.0027835536
0.0027761112
0.0027671758
0.0027593353
0.0027532498
0.0027485394
0.0027446991
0.0027414294
0.0027386022
0.0027361544
0.0027340282
0.0027321639
0.0027305097
0.0027290272
0.0027276902
0.0027264797
0.0027253807
0.0027243803
0.0027234677
0.0027226338
0.0027218707
0.0027211718
0.0027205312
0.0027199436
0.0027194046
0.0027189098
0.0027184557
0.0027180389
0.0027176562
0.002717305
0.0027169827
0.0027166871
0.0027164159
0.0027161674
0.0027159396
0.0027157311
0.0027155402
0.0027153655
0.0027152059
0.00271506
0.0027149269
0.0027148055
0.0027146948
0.0027145941
0.0027145024
0.0027144191
0.0027143435
0.002714275
0.0027142129
0.0027141568
0.0027141061
0.0027140603
0.0027140191
0.0027139821
0.0027139488
0.002713919
0.0027138924
0.0027138686
0.0027138475
0.0027138287
0.0027138121
0.0027137974
0.0027137845
0.0027137732
0.0027137633
0.0027137546
0.0027137472
0.0027137408
0.0027137352
0.0027137305
0.0027137265
0.0027137232
0.0027137203
0.002713718
0.002713716
0.0027137144
0.0027137131
0.0027137121
0.0027137112
0.0027137106
0.0027137101
0.0027137096
0.0027137093
0.0027137091
0.0027137089
0.0027137088
0.0027137086
0.0027137086
0.0027137085
0.0027137085
0.0027137084
0.0027137084
0.0027137084
0.0027137084
0.0027137084
0.0027137084
0.0027137084
0.0027137084
0.0027137085
)
;

boundaryField
{
    top
    {
        type            calculated;
        value           uniform 0;
    }
    inlet
    {
        type            calculated;
        value           nonuniform List<scalar> 10(-0.0027858224 -0.0069242495 -0.0098160467 -0.011635991 -0.012512326 -0.012512324 -0.011635991 -0.0098160458 -0.0069242493 -0.0027858235);
    }
    outlet
    {
        type            calculated;
        value           nonuniform List<scalar> 10(0.0027137085 0.0068391868 0.0097961455 0.011698049 0.012627332 0.012627332 0.011698049 0.0097961453 0.0068391866 0.0027137085);
    }
    bottom
    {
        type            calculated;
        value           uniform 0;
    }
    back
    {
        type            empty;
        value           nonuniform 0();
    }
    front
    {
        type            empty;
        value           nonuniform 0();
    }
}


// ************************************************************************* //
