/*--------------------------------*- C++ -*----------------------------------*\
| =========                 |                                                 |
| \\      /  F ield         | OpenFOAM: The Open Source CFD Toolbox           |
|  \\    /   O peration     | Version:  4.1                                   |
|   \\  /    A nd           | Web:      www.OpenFOAM.org                      |
|    \\/     M anipulation  |                                                 |
\*---------------------------------------------------------------------------*/
FoamFile
{
    version     2.0;
    format      ascii;
    class       volVectorField;
    location    "13";
    object      U;
}
// * * * * * * * * * * * * * * * * * * * * * * * * * * * * * * * * * * * * * //

dimensions      [0 1 -1 0 0 0 0];

internalField   nonuniform List<vector> 
1000
(
(0.28840699 0.00019233027 0)
(0.28797455 0.00054806335 0)
(0.28703993 0.00058810103 0)
(0.28611494 0.00043997306 0)
(0.28538223 0.00028393413 0)
(0.28482845 0.00018915743 0)
(0.28439176 0.00014345861 0)
(0.2840268 0.00011877053 0)
(0.28371241 9.9981669e-05 0)
(0.28344004 8.3906254e-05 0)
(0.283204 7.1188297e-05 0)
(0.28299821 6.1905871e-05 0)
(0.28281676 5.5133001e-05 0)
(0.28265492 4.9801382e-05 0)
(0.28250936 4.5242034e-05 0)
(0.28237779 4.1186177e-05 0)
(0.28225848 3.7557225e-05 0)
(0.28215001 3.4314945e-05 0)
(0.28205116 3.1407897e-05 0)
(0.2819609 2.8781846e-05 0)
(0.28187836 2.6394073e-05 0)
(0.28180279 2.4215084e-05 0)
(0.28173355 2.2223814e-05 0)
(0.28167006 2.0402377e-05 0)
(0.28161182 1.8734521e-05 0)
(0.28155838 1.7205192e-05 0)
(0.28150933 1.5801242e-05 0)
(0.2814643 1.4511005e-05 0)
(0.28142297 1.332444e-05 0)
(0.28138503 1.2232437e-05 0)
(0.28135021 1.1227027e-05 0)
(0.28131827 1.0300859e-05 0)
(0.28128897 9.4475082e-06 0)
(0.2812621 8.660997e-06 0)
(0.28123748 7.9361e-06 0)
(0.28121492 7.2678867e-06 0)
(0.28119427 6.6520459e-06 0)
(0.28117537 6.08446e-06 0)
(0.28115809 5.5615317e-06 0)
(0.2811423 5.0797853e-06 0)
(0.28112788 4.6361941e-06 0)
(0.28111472 4.2278039e-06 0)
(0.28110273 3.8520505e-06 0)
(0.2810918 3.5064047e-06 0)
(0.28108185 3.1886839e-06 0)
(0.28107281 2.896716e-06 0)
(0.2810646 2.6286368e-06 0)
(0.28105715 2.3825718e-06 0)
(0.2810504 2.1569256e-06 0)
(0.28104429 1.9500795e-06 0)
(0.28103876 1.7606668e-06 0)
(0.28103378 1.5872852e-06 0)
(0.28102928 1.4287639e-06 0)
(0.28102524 1.2838905e-06 0)
(0.28102161 1.1516637e-06 0)
(0.28101835 1.0310343e-06 0)
(0.28101543 9.2114947e-07 0)
(0.28101283 8.2110585e-07 0)
(0.28101051 7.3018122e-07 0)
(0.28100844 6.4759892e-07 0)
(0.28100661 5.7275169e-07 0)
(0.281005 5.0497627e-07 0)
(0.28100357 4.437653e-07 0)
(0.28100232 3.885513e-07 0)
(0.28100122 3.3891119e-07 0)
(0.28100026 2.9435921e-07 0)
(0.28099943 2.545407e-07 0)
(0.28099872 2.1903344e-07 0)
(0.2809981 1.8753547e-07 0)
(0.28099757 1.5967506e-07 0)
(0.28099712 1.3518992e-07 0)
(0.28099674 1.1374486e-07 0)
(0.28099642 9.510718e-08 0)
(0.28099615 7.897238e-08 0)
(0.28099593 6.5132661e-08 0)
(0.28099575 5.3308978e-08 0)
(0.2809956 4.3316883e-08 0)
(0.28099548 3.490489e-08 0)
(0.28099538 2.7914175e-08 0)
(0.2809953 2.2121003e-08 0)
(0.28099524 1.7394079e-08 0)
(0.28099519 1.3541333e-08 0)
(0.28099516 1.0461234e-08 0)
(0.28099513 7.9921839e-09 0)
(0.2809951 6.0613822e-09 0)
(0.28099509 4.5382509e-09 0)
(0.28099508 3.3765043e-09 0)
(0.28099507 2.4717828e-09 0)
(0.28099506 1.7983534e-09 0)
(0.28099505 1.2774918e-09 0)
(0.28099505 8.956515e-10 0)
(0.28099505 5.974876e-10 0)
(0.28099505 3.6573283e-10 0)
(0.28099505 1.7098624e-10 0)
(0.28099505 -4.6820326e-11 0)
(0.28099505 -2.8875342e-10 0)
(0.28099505 -7.0544112e-10 0)
(0.28099505 -1.1415481e-09 0)
(0.28099505 -2.2409836e-09 0)
(0.28099505 -2.72146e-09 0)
(0.7168347 0.00022809607 0)
(0.71717513 0.00097097263 0)
(0.71657164 0.0013325727 0)
(0.7157667 0.0012779326 0)
(0.71506784 0.0010527501 0)
(0.71447971 0.00084311877 0)
(0.7139452 0.00069938724 0)
(0.71343981 0.00060142118 0)
(0.71296716 0.00052333264 0)
(0.71253557 0.00045473506 0)
(0.71214707 0.00039540654 0)
(0.71179809 0.00034644086 0)
(0.71148331 0.00030687825 0)
(0.71119808 0.00027445118 0)
(0.71093889 0.00024704689 0)
(0.71070299 0.00022330876 0)
(0.710488 0.00020248829 0)
(0.71029177 0.0001841176 0)
(0.71011238 0.0001678184 0)
(0.70994816 0.00015325887 0)
(0.70979767 0.00014016549 0)
(0.70965965 0.00012832707 0)
(0.70953299 0.0001175823 0)
(0.70941671 0.00010780262 0)
(0.70930992 9.8880766e-05 0)
(0.70921182 9.0724844e-05 0)
(0.70912172 8.3256042e-05 0)
(0.70903894 7.6406486e-05 0)
(0.70896291 7.0117599e-05 0)
(0.70889309 6.4338088e-05 0)
(0.70882898 5.902284e-05 0)
(0.70877014 5.4131654e-05 0)
(0.70871615 4.9628767e-05 0)
(0.70866664 4.5481989e-05 0)
(0.70862125 4.1662452e-05 0)
(0.70857966 3.8143925e-05 0)
(0.70854158 3.4902714e-05 0)
(0.70850673 3.1917119e-05 0)
(0.70847486 2.9167435e-05 0)
(0.70844573 2.6635495e-05 0)
(0.70841913 2.430474e-05 0)
(0.70839485 2.215983e-05 0)
(0.70837272 2.0186747e-05 0)
(0.70835256 1.8372444e-05 0)
(0.70833421 1.6704978e-05 0)
(0.70831753 1.5173207e-05 0)
(0.70830237 1.3766918e-05 0)
(0.70828863 1.2476554e-05 0)
(0.70827617 1.1293354e-05 0)
(0.70826489 1.0209106e-05 0)
(0.7082547 9.216284e-06 0)
(0.7082455 8.307818e-06 0)
(0.70823721 7.4772363e-06 0)
(0.70822974 6.7184542e-06 0)
(0.70822304 6.025914e-06 0)
(0.70821702 5.3943827e-06 0)
(0.70821164 4.8190949e-06 0)
(0.70820683 4.2955676e-06 0)
(0.70820255 3.8197355e-06 0)
(0.70819874 3.3877727e-06 0)
(0.70819536 2.9962262e-06 0)
(0.70819237 2.6418503e-06 0)
(0.70818974 2.3217295e-06 0)
(0.70818742 2.0331153e-06 0)
(0.7081854 1.7735454e-06 0)
(0.70818363 1.5406906e-06 0)
(0.70818209 1.332463e-06 0)
(0.70818076 1.1468661e-06 0)
(0.70817962 9.8210177e-07 0)
(0.70817864 8.3643188e-07 0)
(0.70817781 7.0828043e-07 0)
(0.7081771 5.9610106e-07 0)
(0.70817651 4.9848297e-07 0)
(0.70817601 4.1403279e-07 0)
(0.7081756 3.4147847e-07 0)
(0.70817526 2.7955745e-07 0)
(0.70817498 2.2712449e-07 0)
(0.70817475 1.8305131e-07 0)
(0.70817457 1.4632999e-07 0)
(0.70817442 1.15974e-07 0)
(0.70817431 9.1121175e-08 0)
(0.70817422 7.0941338e-08 0)
(0.70817414 5.4729949e-08 0)
(0.70817409 4.1814736e-08 0)
(0.70817405 3.1643281e-08 0)
(0.70817402 2.369928e-08 0)
(0.70817399 1.7571761e-08 0)
(0.70817398 1.2883937e-08 0)
(0.70817396 9.3361082e-09 0)
(0.70817395 6.6789847e-09 0)
(0.70817395 4.6876759e-09 0)
(0.70817394 3.2292146e-09 0)
(0.70817394 2.0880535e-09 0)
(0.70817394 1.2534831e-09 0)
(0.70817394 4.2891677e-10 0)
(0.70817394 -2.2940983e-10 0)
(0.70817394 -1.2717136e-09 0)
(0.70817394 -2.1612858e-09 0)
(0.70817394 -4.1000022e-09 0)
(0.70817394 -5.4262193e-09 0)
(1.016128 0.00018241691 0)
(1.0171706 0.00091626548 0)
(1.0171379 0.001407348 0)
(1.0168892 0.0015071462 0)
(1.0167822 0.0013803855 0)
(1.0167783 0.0012114685 0)
(1.0167632 0.0010787288 0)
(1.0166914 0.00098006315 0)
(1.0165768 0.00089388662 0)
(1.0164466 0.00081002353 0)
(1.0163166 0.00072990716 0)
(1.0161908 0.0006575191 0)
(1.0160687 0.00059430717 0)
(1.0159503 0.00053925363 0)
(1.0158362 0.00049065158 0)
(1.0157275 0.0004472071 0)
(1.0156249 0.00040816052 0)
(1.0155285 0.00037301567 0)
(1.0154382 0.00034133457 0)
(1.0153538 0.00031269197 0)
(1.015275 0.00028670306 0)
(1.0152017 0.00026304585 0)
(1.0151335 0.00024145767 0)
(1.0150702 0.00022172009 0)
(1.0150116 0.00020364558 0)
(1.0149572 0.00018707044 0)
(1.0149069 0.00017185122 0)
(1.0148604 0.00015786239 0)
(1.0148175 0.00014499356 0)
(1.0147779 0.00013314719 0)
(1.0147413 0.00012223635 0)
(1.0147077 0.00011218319 0)
(1.0146767 0.00010291763 0)
(1.0146481 9.4376435e-05 0)
(1.0146219 8.6502241e-05 0)
(1.0145978 7.924293e-05 0)
(1.0145757 7.2550914e-05 0)
(1.0145554 6.638271e-05 0)
(1.0145368 6.0698407e-05 0)
(1.0145197 5.5461377e-05 0)
(1.0145041 5.0637866e-05 0)
(1.0144899 4.61968e-05 0)
(1.0144769 4.2109457e-05 0)
(1.014465 3.8349327e-05 0)
(1.0144541 3.4891854e-05 0)
(1.0144442 3.1714339e-05 0)
(1.0144352 2.8795719e-05 0)
(1.014427 2.6116503e-05 0)
(1.0144196 2.3658583e-05 0)
(1.0144129 2.1405196e-05 0)
(1.0144068 1.9340755e-05 0)
(1.0144012 1.7450823e-05 0)
(1.0143962 1.5721974e-05 0)
(1.0143917 1.4141778e-05 0)
(1.0143877 1.2698683e-05 0)
(1.014384 1.1381997e-05 0)
(1.0143807 1.0181792e-05 0)
(1.0143778 9.0889004e-06 0)
(1.0143751 8.094823e-06 0)
(1.0143728 7.19173e-06 0)
(1.0143707 6.3723773e-06 0)
(1.0143688 5.6301147e-06 0)
(1.0143672 4.958801e-06 0)
(1.0143657 4.3528081e-06 0)
(1.0143644 3.8069406e-06 0)
(1.0143633 3.3164397e-06 0)
(1.0143623 2.8769004e-06 0)
(1.0143614 2.4842699e-06 0)
(1.0143607 2.1347714e-06 0)
(1.01436 1.8249069e-06 0)
(1.0143595 1.5513841e-06 0)
(1.014359 1.3111221e-06 0)
(1.0143586 1.1011927e-06 0)
(1.0143582 9.1883767e-07 0)
(1.014358 7.6141928e-07 0)
(1.0143577 6.2644558e-07 0)
(1.0143575 5.115347e-07 0)
(1.0143573 4.144514e-07 0)
(1.0143572 3.3307555e-07 0)
(1.0143571 2.6544032e-07 0)
(1.014357 2.0970551e-07 0)
(1.0143569 1.6419897e-07 0)
(1.0143569 1.2738252e-07 0)
(1.0143568 9.7891246e-08 0)
(1.0143568 7.4489841e-08 0)
(1.0143568 5.6121499e-08 0)
(1.0143568 4.1836517e-08 0)
(1.0143568 3.0863993e-08 0)
(1.0143567 2.2493335e-08 0)
(1.0143567 1.6211858e-08 0)
(1.0143567 1.1484527e-08 0)
(1.0143567 8.0241365e-09 0)
(1.0143567 5.3754227e-09 0)
(1.0143567 3.4508619e-09 0)
(1.0143567 1.7925741e-09 0)
(1.0143567 5.1854139e-10 0)
(1.0143567 -9.0855749e-10 0)
(1.0143567 -2.1811972e-09 0)
(1.0143567 -3.9534247e-09 0)
(1.0143567 -5.249608e-09 0)
(1.2044503 0.00011382531 0)
(1.2059294 0.00062281863 0)
(1.2062369 0.0010094623 0)
(1.2063398 0.0011324732 0)
(1.2066672 0.0010787312 0)
(1.2071619 0.00097762694 0)
(1.2076537 0.00089462101 0)
(1.2080589 0.00083384882 0)
(1.2083828 0.00077990044 0)
(1.2086581 0.00072413648 0)
(1.208906 0.00066742463 0)
(1.2091322 0.00061353941 0)
(1.2093362 0.00056455123 0)
(1.2095182 0.00052038105 0)
(1.2096805 0.00048012952 0)
(1.209826 0.00044306858 0)
(1.2099574 0.00040883523 0)
(1.2100764 0.00037724527 0)
(1.2101843 0.00034812479 0)
(1.2102823 0.0003212699 0)
(1.2103713 0.00029647331 0)
(1.2104524 0.00027355148 0)
(1.2105264 0.00025234892 0)
(1.2105938 0.00023273151 0)
(1.2106555 0.00021457811 0)
(1.2107118 0.00019777772 0)
(1.2107633 0.00018222796 0)
(1.2108105 0.00016783544 0)
(1.2108536 0.00015451445 0)
(1.2108931 0.00014218667 0)
(1.2109293 0.00013077962 0)
(1.2109624 0.00012022668 0)
(1.2109927 0.00011046592 0)
(1.2110204 0.00010144034 0)
(1.2110458 9.3096821e-05 0)
(1.211069 8.5386424e-05 0)
(1.2110902 7.8263435e-05 0)
(1.2111096 7.1685709e-05 0)
(1.2111273 6.5613799e-05 0)
(1.2111435 6.0011332e-05 0)
(1.2111582 5.4844211e-05 0)
(1.2111716 5.0081007e-05 0)
(1.2111839 4.5692214e-05 0)
(1.211195 4.1650652e-05 0)
(1.2112051 3.7930773e-05 0)
(1.2112143 3.4509066e-05 0)
(1.2112226 3.1363405e-05 0)
(1.2112302 2.8473452e-05 0)
(1.211237 2.5820045e-05 0)
(1.2112432 2.3385599e-05 0)
(1.2112488 2.115353e-05 0)
(1.2112538 1.9108642e-05 0)
(1.2112584 1.7236581e-05 0)
(1.2112624 1.5524228e-05 0)
(1.2112661 1.3959185e-05 0)
(1.2112693 1.2530147e-05 0)
(1.2112723 1.1226425e-05 0)
(1.2112749 1.0038306e-05 0)
(1.2112772 8.9566033e-06 0)
(1.2112792 7.9730067e-06 0)
(1.211281 7.0796567e-06 0)
(1.2112826 6.2694809e-06 0)
(1.211284 5.5357851e-06 0)
(1.2112853 4.872579e-06 0)
(1.2112864 4.2741811e-06 0)
(1.2112873 3.7355281e-06 0)
(1.2112881 3.2517932e-06 0)
(1.2112888 2.8186823e-06 0)
(1.2112894 2.4320658e-06 0)
(1.2112899 2.0882632e-06 0)
(1.2112903 1.7836896e-06 0)
(1.2112907 1.515137e-06 0)
(1.211291 1.2794384e-06 0)
(1.2112912 1.0737472e-06 0)
(1.2112914 8.952209e-07 0)
(1.2112916 7.4130436e-07 0)
(1.2112917 6.0943188e-07 0)
(1.2112919 4.9731135e-07 0)
(1.2112919 4.0264154e-07 0)
(1.211292 3.2339781e-07 0)
(1.2112921 2.5755758e-07 0)
(1.2112921 2.0338338e-07 0)
(1.2112921 1.5914908e-07 0)
(1.2112922 1.2342306e-07 0)
(1.2112922 9.47852e-08 0)
(1.2112922 7.2114157e-08 0)
(1.2112922 5.4282951e-08 0)
(1.2112922 4.0467732e-08 0)
(1.2112922 2.9800617e-08 0)
(1.2112922 2.172657e-08 0)
(1.2112922 1.5581004e-08 0)
(1.2112922 1.1038582e-08 0)
(1.2112922 7.560684e-09 0)
(1.2112922 5.0138752e-09 0)
(1.2112922 2.94597e-09 0)
(1.2112922 1.3803729e-09 0)
(1.2112922 -1.0938255e-10 0)
(1.2112922 -1.363533e-09 0)
(1.2112922 -2.8348255e-09 0)
(1.2112922 -3.8708398e-09 0)
(1.2951204 3.8362045e-05 0)
(1.2968083 0.00021790544 0)
(1.2972644 0.00036139545 0)
(1.2975159 0.00041320757 0)
(1.2980398 0.00039922986 0)
(1.2987785 0.00036555286 0)
(1.2995338 0.00033745554 0)
(1.3001988 0.00031746249 0)
(1.3007713 0.00029992917 0)
(1.3012857 0.00028135277 0)
(1.3017652 0.00026189646 0)
(1.3022153 0.00024300896 0)
(1.3026341 0.00022557468 0)
(1.3030206 0.00020964713 0)
(1.3033766 0.00019493328 0)
(1.3037052 0.0001811892 0)
(1.3040092 0.00016830962 0)
(1.3042906 0.0001562596 0)
(1.3045509 0.00014500696 0)
(1.3047915 0.00013450396 0)
(1.305014 0.00012469707 0)
(1.3052195 0.00011553779 0)
(1.3054094 0.00010698532 0)
(1.3055848 9.9004044e-05 0)
(1.3057467 9.1560787e-05 0)
(1.3058961 8.462384e-05 0)
(1.3060339 7.8162781e-05 0)
(1.3061609 7.2148778e-05 0)
(1.306278 6.655447e-05 0)
(1.3063858 6.1353988e-05 0)
(1.306485 5.6522698e-05 0)
(1.3065763 5.2037273e-05 0)
(1.3066602 4.7875511e-05 0)
(1.3067373 4.401645e-05 0)
(1.3068081 4.0440209e-05 0)
(1.3068731 3.7128081e-05 0)
(1.3069327 3.4062361e-05 0)
(1.3069874 3.1226429e-05 0)
(1.3070374 2.8604584e-05 0)
(1.3070832 2.6182139e-05 0)
(1.307125 2.3945237e-05 1.8715075e-33)
(1.3071633 2.1880937e-05 0)
(1.3071982 1.9977053e-05 0)
(1.30723 1.8222232e-05 0)
(1.307259 1.6605795e-05 0)
(1.3072854 1.5117806e-05 0)
(1.3073094 1.3748928e-05 0)
(1.3073313 1.2490498e-05 0)
(1.307351 1.1334379e-05 0)
(1.307369 1.0273027e-05 0)
(1.3073852 9.2993596e-06 0)
(1.3073999 8.4068292e-06 0)
(1.3074131 7.5892976e-06 0)
(1.3074251 6.8410909e-06 0)
(1.3074358 6.1568852e-06 0)
(1.3074455 5.5317831e-06 0)
(1.3074541 4.9611885e-06 0)
(1.3074619 4.4408797e-06 0)
(1.3074688 3.9668999e-06 0)
(1.307475 3.5356325e-06 0)
(1.3074805 3.1436883e-06 0)
(1.3074853 2.7879774e-06 0)
(1.3074896 2.4656078e-06 0)
(1.3074934 2.1739584e-06 0)
(1.3074967 1.9105723e-06 0)
(1.3074997 1.6732248e-06 0)
(1.3075022 1.4598272e-06 0)
(1.3075044 1.2684934e-06 0)
(1.3075063 1.0974394e-06 0)
(1.307508 9.4504621e-07 0)
(1.3075094 8.0977037e-07 0)
(1.3075106 6.902078e-07 0)
(1.3075116 5.8500271e-07 0)
(1.3075125 4.9291116e-07 0)
(1.3075132 4.1272276e-07 0)
(1.3075138 3.433277e-07 0)
(1.3075143 2.8363839e-07 0)
(1.3075147 2.3265712e-07 0)
(1.307515 1.894093e-07 0)
(1.3075153 1.5301371e-07 0)
(1.3075155 1.2261254e-07 0)
(1.3075156 9.7440686e-08 0)
(1.3075158 7.6762403e-08 0)
(1.3075159 5.9941619e-08 0)
(1.3075159 4.6369599e-08 0)
(1.307516 3.5535432e-08 0)
(1.307516 2.6953292e-08 0)
(1.3075161 2.023852e-08 0)
(1.3075161 1.5017585e-08 0)
(1.3075161 1.1014022e-08 0)
(1.3075161 7.945867e-09 0)
(1.3075162 5.6274046e-09 0)
(1.3075162 3.8468419e-09 2.9482285e-35)
(1.3075162 2.4996369e-09 0)
(1.3075162 1.4301754e-09 0)
(1.3075162 6.2442079e-10 8.8446859e-36)
(1.3075162 -1.1833334e-10 0)
(1.3075162 -7.1264043e-10 0)
(1.3075162 -1.5713916e-09 0)
(1.3075162 -2.1323673e-09 0)
(1.2951203 -3.8362114e-05 0)
(1.2968082 -0.00021790567 0)
(1.2972643 -0.00036139944 0)
(1.2975159 -0.00041320975 0)
(1.2980397 -0.00039922003 0)
(1.2987785 -0.00036552571 0)
(1.2995338 -0.00033741457 0)
(1.3001988 -0.00031741392 0)
(1.3007713 -0.00029987752 0)
(1.3012856 -0.00028129997 0)
(1.3017651 -0.00026184356 0)
(1.3022153 -0.00024295732 0)
(1.3026341 -0.00022552574 0)
(1.3030206 -0.00020960225 0)
(1.3033766 -0.00019489319 0)
(1.3037052 -0.00018115451 0)
(1.3040092 -0.00016828048 0)
(1.3042906 -0.0001562363 0)
(1.3045509 -0.00014498931 0)
(1.3047915 -0.00013449198 0)
(1.305014 -0.00012469026 0)
(1.3052195 -0.00011553601 0)
(1.3054094 -0.00010698789 0)
(1.3055848 -9.9010644e-05 0)
(1.3057467 -9.1570758e-05 0)
(1.3058961 -8.4636906e-05 0)
(1.3060339 -7.8178284e-05 0)
(1.3061609 -7.2166445e-05 0)
(1.306278 -6.6573681e-05 0)
(1.3063858 -6.1374535e-05 0)
(1.306485 -5.6544031e-05 0)
(1.3065763 -5.2059235e-05 0)
(1.3066602 -4.7897614e-05 0)
(1.3067373 -4.4038602e-05 0)
(1.3068081 -4.0461981e-05 0)
(1.3068731 -3.7149413e-05 0)
(1.3069327 -3.4082863e-05 0)
(1.3069873 -3.1246079e-05 0)
(1.3070374 -2.8623041e-05 0)
(1.3070831 -2.6199402e-05 0)
(1.307125 -2.3961007e-05 -1.8715075e-33)
(1.3071632 -2.1895264e-05 0)
(1.3071982 -1.9989701e-05 0)
(1.30723 -1.8233292e-05 0)
(1.307259 -1.6615091e-05 0)
(1.3072854 -1.5125489e-05 0)
(1.3073094 -1.3754892e-05 0)
(1.3073312 -1.2494934e-05 0)
(1.307351 -1.1337229e-05 0)
(1.307369 -1.0274523e-05 0)
(1.3073852 -9.2994945e-06 0)
(1.3073999 -8.4058575e-06 0)
(1.3074131 -7.5872209e-06 0)
(1.3074251 -6.8381608e-06 0)
(1.3074358 -6.1531151e-06 0)
(1.3074455 -5.5274059e-06 0)
(1.3074541 -4.9562043e-06 0)
(1.3074619 -4.4355033e-06 0)
(1.3074688 -3.9611173e-06 0)
(1.307475 -3.5296233e-06 0)
(1.3074804 -3.1374138e-06 0)
(1.3074853 -2.7815944e-06 0)
(1.3074896 -2.4590632e-06 0)
(1.3074934 -2.1673811e-06 0)
(1.3074967 -1.9038953e-06 0)
(1.3074996 -1.6665692e-06 0)
(1.3075022 -1.4531276e-06 0)
(1.3075044 -1.2618617e-06 0)
(1.3075063 -1.0908132e-06 0)
(1.307508 -9.3854519e-07 0)
(1.3075094 -8.0334483e-07 0)
(1.3075106 -6.8397702e-07 0)
(1.3075116 -5.7892288e-07 0)
(1.3075124 -4.8710818e-07 0)
(1.3075132 -4.0715836e-07 0)
(1.3075138 -3.3811849e-07 0)
(1.3075142 -2.7873885e-07 0)
(1.3075146 -2.2817694e-07 0)
(1.307515 -1.852932e-07 0)
(1.3075152 -1.4934981e-07 0)
(1.3075155 -1.1932695e-07 0)
(1.3075156 -9.460792e-08 0)
(1.3075158 -7.4294455e-08 0)
(1.3075159 -5.7893109e-08 0)
(1.3075159 -4.4638105e-08 0)
(1.307516 -3.4171693e-08 0)
(1.307516 -2.5850994e-08 0)
(1.3075161 -1.944419e-08 0)
(1.3075161 -1.4423532e-08 0)
(1.3075161 -1.0681664e-08 0)
(1.3075161 -7.7790526e-09 0)
(1.3075161 -5.7174288e-09 0)
(1.3075162 -4.1047005e-09 -2.9482285e-35)
(1.3075162 -3.0353822e-09 0)
(1.3075162 -2.1180022e-09 0)
(1.3075162 -1.504594e-09 -8.8446859e-36)
(1.3075162 -9.3016095e-10 0)
(1.3075162 -4.2704211e-10 0)
(1.3075162 -2.7526819e-10 0)
(1.3075162 -7.7135147e-11 0)
(1.2044503 -0.00011382599 0)
(1.2059293 -0.00062283216 0)
(1.2062368 -0.0010094847 0)
(1.2063397 -0.0011324927 0)
(1.2066671 -0.0010787386 0)
(1.2071618 -0.00097761949 0)
(1.2076537 -0.00089460121 0)
(1.2080589 -0.00083382072 0)
(1.2083828 -0.00077986703 0)
(1.2086581 -0.00072409962 0)
(1.208906 -0.00066738582 0)
(1.2091322 -0.00061350019 0)
(1.2093362 -0.00056451321 0)
(1.2095182 -0.00052034546 0)
(1.2096805 -0.00048009737 0)
(1.2098261 -0.00044304042 0)
(1.2099575 -0.00040881157 0)
(1.2100764 -0.00037722623 0)
(1.2101844 -0.00034811052 0)
(1.2102823 -0.00032126019 0)
(1.2103714 -0.00029646806 0)
(1.2104525 -0.00027355021 0)
(1.2105264 -0.00025235145 0)
(1.2105939 -0.00023273731 0)
(1.2106555 -0.00021458691 0)
(1.2107118 -0.00019778897 0)
(1.2107634 -0.00018224135 0)
(1.2108105 -0.00016785045 0)
(1.2108536 -0.00015453085 0)
(1.2108931 -0.00014220397 0)
(1.2109293 -0.00013079764 0)
(1.2109624 -0.000120245 0)
(1.2109927 -0.00011048442 0)
(1.2110204 -0.00010145867 0)
(1.2110458 -9.3114881e-05 0)
(1.211069 -8.54039e-05 0)
(1.2110902 -7.8280273e-05 0)
(1.2111096 -7.1701636e-05 0)
(1.2111273 -6.5628782e-05 0)
(1.2111434 -6.002513e-05 0)
(1.2111582 -5.485683e-05 0)
(1.2111716 -5.0092259e-05 0)
(1.2111838 -4.5702141e-05 0)
(1.2111949 -4.1659114e-05 0)
(1.2112051 -3.7937864e-05 0)
(1.2112142 -3.4514707e-05 0)
(1.2112226 -3.1367728e-05 0)
(1.2112301 -2.8476421e-05 0)
(1.211237 -2.5821835e-05 0)
(1.2112431 -2.3386217e-05 0)
(1.2112487 -2.1153161e-05 0)
(1.2112538 -1.9107299e-05 0)
(1.2112583 -1.7234465e-05 0)
(1.2112623 -1.5521372e-05 0)
(1.211266 -1.3955777e-05 0)
(1.2112693 -1.2526209e-05 0)
(1.2112722 -1.1222127e-05 0)
(1.2112748 -1.0033658e-05 0)
(1.2112771 -8.951748e-06 0)
(1.2112792 -7.9679301e-06 0)
(1.211281 -7.0744797e-06 0)
(1.2112826 -6.2641753e-06 0)
(1.211284 -5.5304479e-06 0)
(1.2112852 -4.8671663e-06 0)
(1.2112863 -4.2687801e-06 0)
(1.2112872 -3.7300946e-06 0)
(1.2112881 -3.2464066e-06 0)
(1.2112887 -2.8132987e-06 0)
(1.2112893 -2.4267696e-06 0)
(1.2112899 -2.0830217e-06 0)
(1.2112903 -1.7785893e-06 0)
(1.2112906 -1.5101502e-06 0)
(1.211291 -1.2746578e-06 0)
(1.2112912 -1.0691523e-06 0)
(1.2112914 -8.9089993e-07 0)
(1.2112916 -7.3723161e-07 0)
(1.2112917 -6.0569024e-07 0)
(1.2112918 -4.9386906e-07 0)
(1.2112919 -3.9956522e-07 0)
(1.211292 -3.2063943e-07 0)
(1.211292 -2.5517081e-07 0)
(1.2112921 -2.0130867e-07 0)
(1.2112921 -1.5742308e-07 0)
(1.2112921 -1.2197192e-07 0)
(1.2112922 -9.3639126e-08 0)
(1.2112922 -7.1196058e-08 0)
(1.2112922 -5.3617974e-08 0)
(1.2112922 -3.9976165e-08 0)
(1.2112922 -2.9515392e-08 0)
(1.2112922 -2.1577318e-08 0)
(1.2112922 -1.5613474e-08 0)
(1.2112922 -1.1191598e-08 0)
(1.2112922 -7.9030878e-09 0)
(1.2112922 -5.4970303e-09 0)
(1.2112922 -3.5949163e-09 0)
(1.2112922 -2.1564278e-09 0)
(1.2112922 -7.4983516e-10 0)
(1.2112922 4.7509706e-10 0)
(1.2112922 1.6720995e-09 0)
(1.2112922 2.5852204e-09 0)
(1.0161279 -0.00018241533 0)
(1.0171705 -0.0009162518 0)
(1.0171378 -0.0014073324 0)
(1.0168891 -0.00150714 0)
(1.0167822 -0.0013803881 0)
(1.0167782 -0.0012114741 0)
(1.0167632 -0.0010787309 0)
(1.0166914 -0.0009800587 0)
(1.0165768 -0.00089387568 0)
(1.0164466 -0.00081000761 0)
(1.0163166 -0.00072988787 0)
(1.0161908 -0.00065749774 0)
(1.0160688 -0.00059428504 0)
(1.0159503 -0.00053923178 0)
(1.0158362 -0.0004906312 0)
(1.0157275 -0.00044718885 0)
(1.0156249 -0.00040814511 0)
(1.0155286 -0.0003730032 0)
(1.0154383 -0.00034132533 0)
(1.0153538 -0.00031268572 0)
(1.0152751 -0.0002866999 0)
(1.0152017 -0.00026304535 0)
(1.0151336 -0.0002414598 0)
(1.0150703 -0.00022172436 0)
(1.0150116 -0.00020365189 0)
(1.0149572 -0.00018707824 0)
(1.0149069 -0.00017186044 0)
(1.0148605 -0.00015787251 0)
(1.0148175 -0.00014500455 0)
(1.0147779 -0.0001331586 0)
(1.0147413 -0.00012224816 0)
(1.0147076 -0.00011219501 0)
(1.0146766 -0.00010292952 0)
(1.0146481 -9.4388019e-05 0)
(1.0146219 -8.6513595e-05 0)
(1.0145978 -7.9253727e-05 0)
(1.0145756 -7.2561259e-05 0)
(1.0145553 -6.6392302e-05 0)
(1.0145367 -6.0707356e-05 0)
(1.0145197 -5.5469419e-05 0)
(1.0145041 -5.0645142e-05 0)
(1.0144898 -4.6203082e-05 0)
(1.0144768 -4.2114899e-05 0)
(1.0144649 -3.8353747e-05 0)
(1.014454 -3.4895443e-05 0)
(1.0144441 -3.1716951e-05 0)
(1.0144351 -2.8797558e-05 0)
(1.014427 -2.611746e-05 0)
(1.0144195 -2.3658886e-05 0)
(1.0144128 -2.1404753e-05 0)
(1.0144067 -1.9339787e-05 0)
(1.0144012 -1.7449259e-05 0)
(1.0143962 -1.5720041e-05 0)
(1.0143916 -1.4139409e-05 0)
(1.0143876 -1.2696081e-05 0)
(1.0143839 -1.137909e-05 0)
(1.0143806 -1.0178772e-05 0)
(1.0143777 -9.0856838e-06 0)
(1.0143751 -8.0915723e-06 0)
(1.0143727 -7.1883526e-06 0)
(1.0143706 -6.3690235e-06 0)
(1.0143688 -5.6266814e-06 0)
(1.0143671 -4.9554163e-06 0)
(1.0143656 -4.3493683e-06 0)
(1.0143644 -3.8035715e-06 0)
(1.0143632 -3.3130378e-06 0)
(1.0143622 -2.8735816e-06 0)
(1.0143614 -2.4809401e-06 0)
(1.0143606 -2.1315537e-06 0)
(1.01436 -1.8217134e-06 0)
(1.0143594 -1.5483332e-06 0)
(1.014359 -1.3081356e-06 0)
(1.0143586 -1.0983943e-06 0)
(1.0143582 -9.1615014e-07 0)
(1.0143579 -7.589562e-07 0)
(1.0143577 -6.2413008e-07 0)
(1.0143575 -5.0947765e-07 0)
(1.0143573 -4.1256734e-07 0)
(1.0143572 -3.314586e-07 0)
(1.0143571 -2.6399877e-07 0)
(1.014357 -2.085276e-07 0)
(1.0143569 -1.6318242e-07 0)
(1.0143569 -1.266011e-07 0)
(1.0143568 -9.7239384e-08 0)
(1.0143568 -7.404216e-08 0)
(1.0143568 -5.5768348e-08 0)
(1.0143567 -4.1648217e-08 0)
(1.0143567 -3.0734822e-08 0)
(1.0143567 -2.250544e-08 0)
(1.0143567 -1.6261853e-08 0)
(1.0143567 -1.1662491e-08 0)
(1.0143567 -8.2231763e-09 0)
(1.0143567 -5.7089673e-09 0)
(1.0143567 -3.7988781e-09 0)
(1.0143567 -2.2756936e-09 0)
(1.0143567 -1.0378789e-09 0)
(1.0143567 3.9159023e-10 0)
(1.0143567 1.677439e-09 0)
(1.0143567 3.7331158e-09 0)
(1.0143567 5.1576051e-09 0)
(0.71683467 -0.00022808811 0)
(0.71717512 -0.00097094982 0)
(0.71657163 -0.0013325521 0)
(0.71576669 -0.0012779312 0)
(0.71506784 -0.0010527727 0)
(0.71447972 -0.00084315623 0)
(0.7139452 -0.00069942567 0)
(0.7134398 -0.0006014512 0)
(0.71296715 -0.00052335205 0)
(0.71253556 -0.00045474578 0)
(0.71214707 -0.0003954111 0)
(0.71179809 -0.00034644112 0)
(0.71148332 -0.00030687547 0)
(0.71119809 -0.00027444664 0)
(0.7109389 -0.00024704164 0)
(0.71070301 -0.00022330379 0)
(0.71048802 -0.00020248403 0)
(0.7102918 -0.00018411444 0)
(0.71011242 -0.00016781634 0)
(0.7099482 -0.00015325804 0)
(0.70979771 -0.00014016573 0)
(0.70965968 -0.00012832841 0)
(0.70953302 -0.00011758448 0)
(0.70941674 -0.00010780564 0)
(0.70930994 -9.8884332e-05 0)
(0.70921185 -9.0728933e-05 0)
(0.70912173 -8.3260393e-05 0)
(0.70903895 -7.6411118e-05 0)
(0.70896292 -7.0122277e-05 0)
(0.70889309 -6.4342845e-05 0)
(0.70882898 -5.9027472e-05 0)
(0.70877013 -5.413623e-05 0)
(0.70871614 -4.9633109e-05 0)
(0.70866662 -4.5486166e-05 0)
(0.70862122 -4.1666305e-05 0)
(0.70857963 -3.8147546e-05 0)
(0.70854154 -3.4905957e-05 0)
(0.70850669 -3.192007e-05 0)
(0.70847481 -2.9169961e-05 0)
(0.70844568 -2.6637699e-05 0)
(0.70841907 -2.4306506e-05 0)
(0.7083948 -2.2161258e-05 0)
(0.70837266 -2.0187736e-05 0)
(0.7083525 -1.8373112e-05 0)
(0.70833415 -1.6705243e-05 0)
(0.70831746 -1.5173182e-05 0)
(0.70830231 -1.3766536e-05 0)
(0.70828856 -1.2475939e-05 0)
(0.7082761 -1.1292449e-05 0)
(0.70826483 -1.0208027e-05 0)
(0.70825463 -9.2149795e-06 0)
(0.70824544 -8.3064088e-06 0)
(0.70823714 -7.4756731e-06 0)
(0.70822968 -6.7168422e-06 0)
(0.70822298 -6.024201e-06 0)
(0.70821697 -5.3926711e-06 0)
(0.70821159 -4.8173291e-06 0)
(0.70820678 -4.2938326e-06 0)
(0.7082025 -3.8179715e-06 0)
(0.70819869 -3.3860616e-06 0)
(0.70819531 -2.9945059e-06 0)
(0.70819233 -2.6401888e-06 0)
(0.7081897 -2.3200637e-06 0)
(0.70818738 -2.0315146e-06 0)
(0.70818536 -1.7719493e-06 0)
(0.70818359 -1.5391603e-06 0)
(0.70818206 -1.3309414e-06 0)
(0.70818073 -1.1454197e-06 0)
(0.70817959 -9.8067822e-07 0)
(0.70817861 -8.3509228e-07 0)
(0.70817778 -7.0697584e-07 0)
(0.70817708 -5.9489722e-07 0)
(0.70817648 -4.9733329e-07 0)
(0.70817599 -4.1299527e-07 0)
(0.70817558 -3.4050615e-07 0)
(0.70817524 -2.787094e-07 0)
(0.70817496 -2.2635201e-07 0)
(0.70817473 -1.8240312e-07 0)
(0.70817455 -1.4575411e-07 0)
(0.70817441 -1.1551897e-07 0)
(0.70817429 -9.0732388e-08 0)
(0.7081742 -7.0658078e-08 0)
(0.70817413 -5.4495577e-08 0)
(0.70817408 -4.1671409e-08 0)
(0.70817404 -3.1534603e-08 0)
(0.70817401 -2.3662525e-08 0)
(0.70817398 -1.7552059e-08 0)
(0.70817396 -1.292599e-08 0)
(0.70817395 -9.3892692e-09 0)
(0.70817394 -6.7864042e-09 0)
(0.70817394 -4.7984805e-09 0)
(0.70817393 -3.3835656e-09 0)
(0.70817393 -2.2297335e-09 0)
(0.70817393 -1.4087327e-09 0)
(0.70817392 -6.0079985e-10 0)
(0.70817392 5.1591421e-11 0)
(0.70817392 1.0741729e-09 0)
(0.70817392 2.0360086e-09 0)
(0.70817393 4.5145025e-09 0)
(0.70817392 5.9807133e-09 0)
(0.28840709 -0.0001923205 0)
(0.28797461 -0.00054805032 0)
(0.28703995 -0.00058809735 0)
(0.28611495 -0.00043998489 0)
(0.28538224 -0.00028396058 0)
(0.28482845 -0.00018918972 0)
(0.28439174 -0.00014348746 0)
(0.28402677 -0.00011879132 0)
(0.28371236 -9.9994913e-05 0)
(0.28343999 -8.3914489e-05 0)
(0.28320396 -7.1193572e-05 0)
(0.28299817 -6.190929e-05 0)
(0.28281673 -5.5135041e-05 0)
(0.2826549 -4.9802614e-05 0)
(0.28250935 -4.5242792e-05 0)
(0.28237778 -4.1186893e-05 0)
(0.28225848 -3.7557901e-05 0)
(0.28215001 -3.4315769e-05 0)
(0.28205117 -3.1408721e-05 0)
(0.28196091 -2.8782829e-05 0)
(0.28187837 -2.6395031e-05 0)
(0.28180281 -2.4216168e-05 0)
(0.28173356 -2.2224826e-05 0)
(0.28167008 -2.0403471e-05 0)
(0.28161184 -1.8735486e-05 0)
(0.28155839 -1.7206189e-05 0)
(0.28150934 -1.580208e-05 0)
(0.28146431 -1.4511856e-05 0)
(0.28142297 -1.3325112e-05 0)
(0.28138503 -1.2233103e-05 0)
(0.28135021 -1.1227512e-05 0)
(0.28131827 -1.030134e-05 0)
(0.28128896 -9.4478092e-06 0)
(0.28126209 -8.6612902e-06 0)
(0.28123747 -7.9362232e-06 0)
(0.28121491 -7.2680107e-06 0)
(0.28119426 -6.6520065e-06 0)
(0.28117536 -6.0844201e-06 0)
(0.28115808 -5.5613414e-06 0)
(0.28114228 -5.0796037e-06 0)
(0.28112786 -4.6358708e-06 0)
(0.2811147 -4.2274904e-06 0)
(0.28110271 -3.8516105e-06 0)
(0.28109178 -3.5059861e-06 0)
(0.28108183 -3.1881511e-06 0)
(0.28107279 -2.8962093e-06 0)
(0.28106458 -2.6280338e-06 0)
(0.28105713 -2.3820087e-06 0)
(0.28105037 -2.1562801e-06 0)
(0.28104426 -1.9494803e-06 0)
(0.28103874 -1.7600022e-06 0)
(0.28103376 -1.5866788e-06 0)
(0.28102926 -1.4281033e-06 0)
(0.28102522 -1.2832916e-06 0)
(0.28102159 -1.1510232e-06 0)
(0.28101833 -1.030463e-06 0)
(0.28101541 -9.2054242e-07 0)
(0.28101281 -8.2056678e-07 0)
(0.28101049 -7.2961334e-07 0)
(0.28100843 -6.4710156e-07 0)
(0.2810066 -5.7222689e-07 0)
(0.28100498 -5.0451764e-07 0)
(0.28100356 -4.4328281e-07 0)
(0.2810023 -3.8813538e-07 0)
(0.28100121 -3.3847132e-07 0)
(0.28100025 -2.939815e-07 0)
(0.28099942 -2.5414239e-07 0)
(0.28099871 -2.1869836e-07 0)
(0.28099809 -1.8718052e-07 0)
(0.28099756 -1.5938055e-07 0)
(0.28099711 -1.348796e-07 0)
(0.28099673 -1.1349699e-07 0)
(0.28099641 -9.4844446e-08 0)
(0.28099615 -7.8769672e-08 0)
(0.28099593 -6.4918105e-08 0)
(0.28099574 -5.3155401e-08 0)
(0.2809956 -4.3150367e-08 0)
(0.28099547 -3.4795117e-08 0)
(0.28099538 -2.7791651e-08 0)
(0.2809953 -2.2053844e-08 0)
(0.28099524 -1.7310405e-08 0)
(0.28099519 -1.3506918e-08 0)
(0.28099515 -1.0408419e-08 0)
(0.28099512 -7.9864033e-09 0)
(0.2809951 -6.0327271e-09 0)
(0.28099508 -4.5513294e-09 0)
(0.28099507 -3.3654113e-09 0)
(0.28099506 -2.5028598e-09 0)
(0.28099506 -1.8035936e-09 0)
(0.28099505 -1.3225764e-09 0)
(0.28099505 -9.1129264e-10 0)
(0.28099505 -6.4482922e-10 0)
(0.28099504 -3.6148001e-10 0)
(0.28099504 -1.8856173e-10 0)
(0.28099504 5.7087947e-11 0)
(0.28099504 2.8301323e-10 0)
(0.28099504 6.8775154e-10 0)
(0.28099504 1.2216488e-09 0)
(0.28099505 2.5829453e-09 0)
(0.28099505 3.0539203e-09 0)
)
;

boundaryField
{
    top
    {
        type            fixedValue;
        value           uniform (0 0 0);
    }
    inlet
    {
        type            pressureNormalInletOutletVelocity;
        phi             phi;
        rho             rho;