/*--------------------------------*- C++ -*----------------------------------*\
  =========                 |
  \\      /  F ield         | OpenFOAM: The Open Source CFD Toolbox
   \\    /   O peration     | Website:  https://openfoam.org
    \\  /    A nd           | Version:  6
     \\/     M anipulation  |
\*---------------------------------------------------------------------------*/
FoamFile
{
    version     2.0;
    format      ascii;
    class       surfaceScalarField;
    location    "27";
    object      phi;
}
// * * * * * * * * * * * * * * * * * * * * * * * * * * * * * * * * * * * * * //

dimensions      [0 3 -1 0 0 0 0];

internalField   nonuniform List<scalar> 
18180
(
0.0003260082
-0.00017673518
-0.00014927303
0.0013383315
-0.0014234872
0.00041116392
0.0030992488
-0.0034491907
0.0016882734
0.0056696358
-0.0061658643
0.0035954774
0.0091085405
-0.0095182229
0.0060793182
0.013471015
-0.013462283
0.0090998089
0.01880526
-0.017959817
0.012625572
0.025149464
-0.022975532
0.016631328
0.032528465
-0.028473853
0.021094851
0.040950532
-0.03441625
0.025994184
0.050404584
-0.040759476
0.031305423
0.060858258
-0.047454678
0.037001004
0.072257225
-0.054447408
0.043048441
0.084526244
-0.061678523
0.049409504
0.097572533
-0.069086073
0.056039784
0.11129198
-0.076608266
0.062888819
0.12557761
-0.084187321
0.06990169
0.1403351
-0.091773891
0.077016398
0.15555548
-0.099348606
0.084128232
-0.10690842
0.091035572
0.17142832
0.00040574603
-0.0005824812
0.0016422063
-0.0026599475
0.0037628542
-0.0055698386
0.0068188109
-0.009221821
0.010856765
-0.013556177
0.015915082
-0.0185206
0.022019572
-0.024064307
0.029179347
-0.030135307
0.037383056
-0.036677561
0.046595947
-0.043629142
0.056758203
-0.050921732
0.067784922
-0.058481396
0.079567981
-0.066230467
0.091979864
-0.074090406
0.10487919
-0.081985399
0.11811731
-0.089846384
0.13154495
-0.097614959
0.14501931
-0.10524826
0.1584033
-0.1127326
-0.12000064
0.17149553
0.00048978982
-0.001072271
0.0019543656
-0.0041245232
0.0044318529
-0.0080473259
0.0079564668
-0.012746435
0.012553978
-0.018153688
0.018236049
-0.024202671
0.024994963
-0.030823221
0.032799236
-0.03793958
0.041590596
-0.045468921
0.051282827
-0.053321372
0.061762861
-0.061401765
0.072894273
-0.069612808
0.084523019
-0.077859214
0.096484945
-0.086052332
0.10861427
-0.094114721
0.12075189
-0.10198401
0.13275236
-0.10961543
0.14448739
-0.11698329
0.1558384
-0.12408361
-0.13087023
0.166708
0.00057613855
-0.0016484096
0.0022660091
-0.0058143938
0.0050840016
-0.010865318
0.0090386361
-0.016701069
0.014124944
-0.023239996
0.020317358
-0.030395085
0.027564269
-0.038070132
0.035784722
-0.046160033
0.044867734
-0.054551933
0.05467459
-0.063128229
0.065044139
-0.071771314
0.075800683
-0.080369352
0.086763707
-0.088822238
0.097758368
-0.097046993
0.10862553
-0.10498189
0.1192302
-0.11258867
0.12946738
-0.11985261
0.13926448
-0.12678039
0.14857784
-0.13339696
-0.13970595
0.15741356
0.00066145899
-0.0023098685
0.0025638782
-0.007716813
0.0056886842
-0.013990124
0.01000918
-0.021021565
0.015479823
-0.028710638
0.022028546
-0.036943808
0.029552531
-0.045594118
0.037917614
-0.054525116
0.04696154
-0.063595859
0.05650091
-0.072667599
0.066341111
-0.081611515
0.076288071
-0.090316312
0.086160406
-0.098694572
0.095800429
-0.10668702
0.10508273
-0.11426419
0.11391947
-0.12142541
0.12226201
-0.12819516
0.13009924
-0.13461762
0.1374526
-0.14075032
-0.14664064
0.14438728
0.00074153556
-0.0030514041
0.002831922
-0.0098071995
0.0062105023
-0.017368705
0.010806352
-0.025617416
0.016525112
-0.034429398
0.023242145
-0.043660841
0.030801157
-0.053153129
0.039017818
-0.062741777
0.047687946
-0.072265987
0.056599192
-0.081578845
0.065544623
-0.090556946
0.074336296
-0.099107986
0.082816953
-0.10717523
0.090868381
-0.11473844
0.098415522
-0.12181133
0.10542624
-0.12843613
0.11190734
-0.13467626
0.11789792
-0.1406082
0.12346139
-0.14631379
-0.15186653
0.12868728
0.00081162192
-0.003863026
0.0030527201
-0.012048298
0.0066127049
-0.020928689
0.011369349
-0.03037406
0.017174465
-0.040234514
0.023849572
-0.050335947
0.031188839
-0.060492397
0.038967781
-0.070520719
0.04695623
-0.080254436
0.0549335
-0.089556115
0.062703303
-0.098326749
0.070106122
-0.1065108
0.077027353
-0.11409646
0.083400315
-0.12111141
0.089204231
-0.12761525
0.09445804
-0.13368994
0.099211514
-0.13942973
0.1035354
-0.14493208
0.10751216
-0.15029055
-0.15558737
0.111233
0.00086656602
-0.004729592
0.0032084347
-0.014390166
0.0068599436
-0.024580198
0.01164384
-0.035157956
0.017357624
-0.045948298
0.023773315
-0.056751639
0.030645578
-0.067364659
0.037725274
-0.077600415
0.044775844
-0.087305006
0.051589527
-0.096369798
0.058000583
-0.10473781
0.063893477
-0.1124037
0.069205097
-0.11940808
0.073921249
-0.12582756
0.078068629
-0.13176263
0.081704071
-0.13732538
0.084903059
-0.14262872
0.087749256
-0.14777828
0.090326318
-0.15286762
-0.15797505
0.092714001
0.00089997949
-0.0056295715
0.003280846
-0.016771033
0.0069205255
-0.028219878
0.011587106
-0.039824537
0.017028208
-0.051389399
0.022975956
-0.062699388
0.029160138
-0.073548841
0.035325272
-0.083765549
0.041248021
-0.093227755
0.046751503
-0.10187328
0.051713954
-0.10970026
0.056070601
-0.11676035
0.059809094
-0.12314657
0.062959965
-0.12897843
0.065584256
-0.13438692
0.067760629
-0.13950175
0.069573838
-0.14444193
0.071105934
-0.14931037
0.072430694
-0.15419238
-0.1591553
0.073610945
0.00090838108
-0.0065379526
0.0032609784
-0.01912363
0.0067801258
-0.031739025
0.011183479
-0.044227889
0.016177923
-0.056383843
0.021469632
-0.067991097
0.026781012
-0.078860222
0.031868943
-0.088853481
0.036540283
-0.097899095
0.040661441
-0.10599444
0.044160481
-0.1131993
0.047021993
-0.11962186
0.049276414
-0.125401
0.050986293
-0.13068831
0.052232065
-0.13563269
0.053099489
-0.14036917
0.05367013
-0.14501257
0.05401544
-0.14965568
0.054194184
-0.15437112
0.054251532
-0.15921265
-0.00020710349
0.00020710344
7.1822793e-11
-0.00069298626
0.00048588261
1.8146882e-10
-0.0013717571
0.00067877061
2.7292427e-10
-0.0021776864
0.00080592891
3.494234e-10
-0.0030579257
0.00088023899
4.1303396e-10
-0.0039693061
0.0009113799
4.6497247e-10
-0.0048760236
0.00090671709
5.0614968e-10
-0.005747706
0.00087168188
5.3656312e-10
-0.0065578905
0.00081018393
5.5652751e-10
-0.0072828321
0.00072494111
5.648349e-10
-0.007900551
0.00061771839
5.6155224e-10
-0.0083900661
0.00048951461
5.4348226e-10
-0.0087307871
0.00034072049
5.1148198e-10
-0.0089020539
0.00017126641
4.5934398e-10
-0.0088828565
-1.9197668e-05
3.860998e-10
-0.0086518461
-0.00023101065
2.8470254e-10
-0.0081875958
-0.00046425039
1.6075174e-10
-0.0074681743
-0.00071942144
-6.2374407e-12
-0.0064706944
-0.00099747972
-2.0533598e-10
-0.001284535
-0.0051861589
-4.4085217e-10
-0.00019213479
0.00039923824
-0.00063827449
0.00093202233
-0.0012539487
0.0012944448
-0.0019735324
0.0015255126
-0.0027435157
0.0016502223
-0.0035194605
0.0016873247
-0.0042637793
0.0016510359
-0.0049438632
0.0015517658
-0.0055305942
0.001396915
-0.0059971692
0.0011915162
-0.0063181496
0.00093869879
-0.0064686868
0.00064005184
-0.0064238884
0.00029592216
-0.0061583086
-9.4313336e-05
-0.0056455955
-0.00053191076
-0.0048583903
-0.0010182158
-0.0037685274
-0.0015541133
-0.0023469557
-0.0021409931
-0.00056355806
-0.0027808773
-0.0034434513
0.0015953583
-0.00016201333
0.00056125158
-0.00052840119
0.0012984102
-0.0010180894
0.0017841331
-0.0015661839
0.0020736071
-0.0021182798
0.0022023182
-0.0026277881
0.0021968331
-0.0030539277
0.0020771755
-0.003360002
0.0018578401
-0.0035120082
0.0015489212
-0.0034775212
0.0011570292
-0.0032247798
0.00068595747
-0.0027219329
0.00013720493
-0.00193638
-0.00048963067
-0.00083423729
-0.001196456
0.00062011663
-0.0019862646
0.0024643558
-0.0028624549
0.004738201
-0.0038279584
0.0074830901
-0.0048858821
0.010742084
-0.0060398711
-0.0072391437
0.014537776
-0.00011922872
0.00068048031
-0.00037148755
0.001550669
-0.00068026021
0.0020929058
-0.00098169775
0.0023750446
-0.0012202385
0.002440859
-0.0013464222
0.0023230168
-0.0013151862
0.0020459396
-0.0010843659
0.0016270198
-0.00061346313
0.0010780185
0.00013733659
0.00040622951
0.0012079746
-0.00038468052
0.002639181
-0.0012940014
0.0044730298
-0.0023234794
0.0067534294
-0.0034768556
0.009526638
-0.0047594732
0.012841836
-0.0061776532
0.016751526
-0.0077376477
0.021311232
-0.0094455889
0.02657928
-0.011307919
-0.013249792
0.032589929
-6.698865e-05
0.00074746896
-0.00017799889
0.0016616793
-0.0002612709
0.0021761778
-0.00025395984
0.0023677336
-9.906473e-05
0.0022859639
0.00025623532
0.0019677167
0.00086193578
0.0014402392
0.0017664007
0.00072255482
0.0030173573
-0.00017293806
0.0046626914
-0.0012391045
0.0067510144
-0.0024730035
0.009332072
-0.003875059
0.012457059
-0.0054484665
0.01617892
-0.0071987166
0.020552681
-0.0091332335
0.025636025
-0.011260998
0.031490161
-0.013591783
0.038180336
-0.016135764
0.045776651
-0.018904233
-0.021797934
0.054324793
-8.5013714e-06
0.00075597034
4.1414202e-05
0.0016117637
0.00021741401
0.002000178
0.00058166773
0.0020034799
0.0011928613
0.0016747704
0.0021073541
0.0010532239
0.0033801495
0.0001674438
0.0050657808
-0.00096307648
0.0072189606
-0.0023261178
0.0098949359
-0.0039150798
0.013149678
-0.005727746
0.017039948
-0.0077653289
0.021623162
-0.01003168
0.026957154
-0.012532708
0.033099969
-0.015276049
0.04011004
-0.018271069
0.048047252
-0.021528995
0.056974957
-0.025063469
0.066963889
-0.028893165
-0.032900623
0.078066578
5.3665402e-05
0.00070230494
0.00027788952
0.0013875396
0.00073741404
0.0015406535
0.0014941623
0.0012467316
0.0026085654
0.00056036734
0.0041403
-0.00047851082
0.0061488612
-0.0018411174
0.0086939114
-0.0035081267
0.011835374
-0.0054675803
0.015633358
-0.0077130637
0.02014782
-0.010242208
0.025437952
-0.013055461
0.031561342
-0.016155071
0.038572951
-0.019544316
0.046524018
-0.023227116
0.055461329
-0.02720838
0.065427803
-0.03149547
0.076465716
-0.036101381
0.088625615
-0.041053064
-0.046235458
0.10196045
0.00011796101
0.00058434394
0.00052552926
0.00097997136
0.0012856859
0.00078049684
0.0024603387
7.2078768e-05
0.0041113711
-0.0010906651
0.0063009281
-0.0026680678
0.0090913341
-0.0046315234
0.012544853
-0.0069616451
0.016723199
-0.0096459263
0.021686694
-0.012676559
0.027493117
-0.01604863
0.034196243
-0.019758587
0.041844119
-0.023802948
0.05047711
-0.028177307
0.060125846
-0.032875852
0.070809438
-0.037891972
0.082535094
-0.043221126
0.095301019
-0.048867306
0.10910763
-0.05485967
-0.061119332
0.1239915
0.0001837402
0.00040060374
0.00078127022
0.00038244134
0.0018543698
-0.00029260278
0.0034645807
-0.0015381321
0.0056741096
-0.003300194
0.0085454851
-0.0055394433
0.012140837
-0.0082268753
0.016520857
-0.011341665
0.021743388
-0.014868457
0.027861658
-0.01879483
0.034922201
-0.023109173
0.042962501
-0.027798887
0.052008429
-0.032848875
0.062071498
-0.038240376
0.073145955
-0.043950309
0.08520577
-0.049951787
0.098202446
-0.056217802
0.11206637
-0.062731226
0.12671991
-0.069513214
-0.076567451
0.14216803
0.00025133072
0.001044936
0.0024406066
0.0044979519
0.007277076
0.010837442
0.015236138
0.020525801
0.026752195
0.033951549
0.042147799
0.051349917
0.061549482
0.07271861
0.084808084
0.097745116
0.111429
0.12571418
0.14032919
0.15479732
-0.0031227222
-0.0020634356
-1.0171912e-09
-0.00075823095
-0.0023644896
-1.6200774e-09
0.0018864941
-0.0026447226
-2.3146731e-09
0.0047538949
-0.0028673975
-3.0960111e-09
0.0078178991
-0.0030640002
-3.9821471e-09
0.011062563
-0.003244659
-4.9367125e-09
0.014470209
-0.00340764
-5.9676829e-09
0.018024054
-0.0035538379
-7.0505238e-09
0.021709792
-0.0036857304
-8.177768e-09
0.025514766
-0.003804964
-9.3363783e-09
0.0294274
-0.0039126239
-1.0450537e-08
0.03343717
-0.0040097591
-1.1454346e-08
0.037534567
-0.0040973841
-1.2242513e-08
0.041711
-0.0041764205
-1.2731523e-08
0.045958747
-0.0042477338
-1.2808739e-08
0.050270937
-0.0043121781
-1.238877e-08
0.054641568
-0.0043706197
-1.1363359e-08
0.059065533
-0.0044239553
-9.6586515e-09
0.063538672
-0.0044731314
-7.1913544e-09
0.068057832
-0.0045191563
-3.9321832e-09
0.072620938
-0.004563106
1.3882301e-10
0.077227052
-0.0046061194
4.9661309e-09
0.081876424
-0.004649382
1.0471884e-08
0.086570501
-0.0046940938
1.6486071e-08
0.091311896
-0.0047414183
2.2816771e-08
0.09610428
-0.0047924126
2.9175724e-08
0.10095218
-0.0048479345
3.5274894e-08
0.10586067
-0.0049085302
4.0747084e-08
0.11083493
-0.0049743069
4.5273172e-08
0.11587968
-0.0050447982
4.8500797e-08
0.12099847
-0.0051188373
5.0185717e-08
0.12619287
-0.0051944519
5.0119643e-08
0.13146162
-0.0052688037
4.8241498e-08
0.13679977
-0.005338187
4.4599545e-08
0.14219783
-0.0053981032
3.9354858e-08
0.14764121
-0.0054434132
3.2821933e-08
0.15310974
-0.0054685577
2.5307356e-08
0.15857754
-0.0054678152
1.727945e-08
0.16401307
-0.0054355373
9.0275039e-09
0.16937932
-0.0053662572
9.8825289e-10
0.17463385
-0.0052545237
-6.6626201e-09
0.17972815
-0.0050942786
-1.3670236e-08
0.18460609
-0.0048779273
-1.9833987e-08
0.18920137
-0.0045952481
-2.4909219e-08
0.19343633
-0.004234935
-2.869307e-08
0.19722172
-0.0037853565
-3.0985086e-08
0.20047473
-0.0032529818
-3.1658914e-08
0.20310522
-0.0026304577
-3.0650427e-08
0.20517662
-0.0020713669
-2.857339e-08
-0.0010871659
-2.2639687e-08
0.0035465317
-0.0040146089
0.0057927529
-0.0046107108
0.0083050777
-0.0051570473
0.011020332
-0.0055826518
0.01391818
-0.0059618484
0.016987772
-0.0063142507
0.020213663
-0.0066335312
0.023580688
-0.0069208629
0.027076234
-0.0071812764
0.030689112
-0.0074178415
0.034408908
-0.0076324199
0.038226039
-0.0078268905
0.042131772
-0.0080031169
0.046118148
-0.0081627961
0.050177944
-0.0083075301
0.054304683
-0.0084389169
0.058492657
-0.0085585942
0.062736975
-0.0086682731
0.067033616
-0.0087697721
0.071379501
-0.0088650414
0.075772566
-0.0089561718
0.080211833
-0.0090453856
0.084697454
-0.0091350036
0.089230742
-0.0092273813
0.093814135
-0.0093248115
0.098451106
-0.0094293838
0.10314598
-0.009542804
0.10790362
-0.0096661728
0.11272904
-0.0097997339
0.11762685
-0.0099426076
0.12260055
-0.010092538
0.12765179
-0.010245684
0.13277947
-0.010396491
0.13797897
-0.010537688
0.1432413
-0.010660428
0.14855247
-0.010754581
0.15389308
-0.010809167
0.15923813
-0.010812865
0.16455707
-0.010754484
0.16981399
-0.010623178
0.17496762
-0.010408149
0.17997075
-0.010097413
0.1847688
-0.0096759722
0.18929712
-0.0091235649
0.19347988
-0.0084177036
0.19722937
-0.0075348434
0.20046393
-0.0064875369
0.20309309
-0.0052596205
0.20517881
-0.0041570865
-0.0022073292
0.016252143
-0.0057289752
0.018242028
-0.0066005961
0.020472522
-0.0073875415
0.022873241
-0.0079833701
0.025433394
-0.0085220019
0.028150907
-0.0090317637
0.031014515
-0.0094971389
0.034011991
-0.0099183394
0.037133652
-0.010302937
0.04037085
-0.01065504
0.043715187
-0.010976757
0.047158688
-0.011270392
0.050693924
-0.011538353
0.054313981
-0.011782853
0.058012455
-0.012006004
0.061783492
-0.012209954
0.065621845
-0.012396948
0.069522938
-0.012569366
0.073482937
-0.012729771
0.077498838
-0.012880942
0.081568544
-0.013025878
0.085690946
-0.013167788
0.089865984
-0.013310042
0.094094679
-0.013456076
0.098379118
-0.013609251
0.10272239
-0.013772652
0.1071284
-0.013948818
0.11160166
-0.014139428
0.11614684
-0.014344922
0.12076835
-0.014564114
0.12546962
-0.014793811
0.13025244
-0.015028502
0.13511611
-0.01526016
0.14005664
-0.015478217
0.14506597
-0.015669763
0.15013136
-0.015819962
0.15523487
-0.015912684
0.16035325
-0.01593124
0.16545785
-0.015859088
0.17051486
-0.015680183
0.17548527
-0.015378566
0.18032445
-0.014936596
0.18498072
-0.014332239
0.18939273
-0.013535575
0.19348819
-0.01251316
0.19718244
-0.011229098
0.20039598
-0.0097010745
0.20303819
-0.0079018309
0.20516747
-0.0062863653
-0.0034084922
0.033928615
-0.0070676618
0.035511468
-0.0081834483
0.037299546
-0.0091756193
0.039220405
-0.0099042289
0.041275817
-0.010577414
0.043473613
-0.01122956
0.045808014
-0.01183154
0.048270803
-0.012381128
0.050855825
-0.012887958
0.053557425
-0.01335664
0.056369602
-0.013788934
0.059286257
-0.014187047
0.062301421
-0.014553516
0.065409311
-0.014890743
0.068604385
-0.015201077
0.07188141
-0.01548698
0.075235563
-0.0157511
0.078662517
-0.015996319
0.082158539
-0.016225794
0.085720589
-0.016442992
0.089346408
-0.016651697
0.093034613
-0.016855993
0.096784762
-0.01706019
0.1005974
-0.017268717
0.10447408
-0.01748593
0.10841729
-0.017715858
0.11243034
-0.01796187
0.11651716
-0.018226248
0.12068195
-0.018509716
0.12492877
-0.018810931
0.12926093
-0.019125973
0.13368037
-0.01944794
0.13818687
-0.01976666
0.1427773
-0.02006865
0.14744487
-0.020337337
0.15217849
-0.020553582
0.15696229
-0.020696477
0.16177535
-0.020744301
0.1665917
-0.020675442
0.17138042
-0.020468903
0.1761057
-0.020103845
0.18072646
-0.019557353
0.18519513
-0.018800906
0.18945507
-0.01779552
0.1934391
-0.016497189
0.19706719
-0.014857181
0.20026308
-0.012896967
0.20293646
-0.010575208
0.20514066
-0.0084905717
-0.0047391488
0.055126659
-0.007869528
0.056138311
-0.0091950999
0.05731484
-0.010352147
0.058592459
-0.011181848
0.05998752
-0.011972475
0.061515645
-0.012757685
0.063176691
-0.013492585
0.064967172
-0.014171609
0.06688431
-0.014805095
0.068925033
-0.015397363
0.071085479
-0.01594938
0.073361176
-0.016462743
0.075747314
-0.016939654
0.078238936
-0.017382366
0.080831067
-0.017793208
0.08351882
-0.018174733
0.086297532
-0.018529812
0.089162876
-0.018861664
0.092110985
-0.019173903
0.095138558
-0.019470564
0.098242962
-0.019756101
0.10142233
-0.020035361
0.10467564
-0.020313499
0.10800277
-0.020595844
0.11140452
-0.02088768
0.1148826
-0.021193937
0.11843952
-0.021518798
0.12207847
-0.021865194
0.12580299
-0.022234235
0.12961665
-0.022624586
0.13352253
-0.023031855
0.13752265
-0.023448065
0.1416173
-0.023861305
0.14580427
-0.024255622
0.1500782
-0.024611264
0.15442989
-0.024905279
0.15884586
-0.025112443
0.16330797
-0.025206416
0.1677934
-0.025160873
0.17227468
-0.024950176
0.17671979
-0.02454896
0.18109196
-0.023929525
0.18534864
-0.023057579
0.18943901
-0.021885899
0.19330237
-0.020360549
0.19686476
-0.018419567
0.20005448
-0.016086687
0.20278228
-0.013303004
0.20509566
-0.01080396
-0.0062483667
0.078152136
-0.0079550852
0.078422312
-0.0094652758
0.078820663
-0.010750498
0.079306518
-0.011667703
0.07990984
-0.012575798
0.080648557
-0.013496402
0.081526903
-0.014370931
0.08254623
-0.015190936
0.083706277
-0.015965142
0.085005349
-0.016696435
0.086440768
-0.017384799
0.088008935
-0.018030911
0.0897055
-0.018636219
0.091525677
-0.019202543
0.093464476
-0.019732007
0.095516857
-0.020227115
0.097677871
-0.020690825
0.099942802
-0.021126595
0.10230731
-0.021538407
0.10476752
-0.021930777
0.10732017
-0.022308753
0.10996267
-0.022677866
0.11269322
-0.023044047
0.11551083
-0.023413454
0.1184154
-0.023792244
0.12140767
-0.024186213
0.12448923
-0.02460036
0.12766235
-0.025038307
0.13092977
-0.025501656
0.13429444
-0.025989257
0.13775909
-0.026496504
0.14132572
-0.027014696
0.14499501
-0.027530595
0.14876566
-0.028026272
0.15263372
-0.028479326
0.15659197
-0.028863529
0.16062939
-0.029149867
0.16473083
-0.029307849
0.16887679
-0.029306841
0.17304356
-0.029116939
0.17720324
-0.028708646
0.18132377
-0.028050051
0.18536814
-0.027101946
0.18929216
-0.02580992
0.19304264
-0.024111031
0.196553
-0.021929927
0.19975747
-0.019291154
0.20256896
-0.016114493
0.20502914
-0.013264143
-0.0079857848
0.10117313
-0.00716776
0.10055516
-0.0088473073
0.10003631
-0.010231651
0.099620102
-0.011251495
0.099344479
-0.012300176
0.099221571
-0.013373494
0.099257782
-0.014407142
0.099458464
-0.015391618
0.099824541
-0.016331219
0.10035412
-0.017226014
0.10104428
-0.018074962
0.10189118
-0.018877805
0.10289
-0.019635041
0.10403533
-0.020347877
0.10532148
-0.021018152
0.10674264
-0.021648276
0.10829308
-0.022241268
0.10996728
-0.022800791
0.11176004
-0.023331171
0.11366665
-0.023837383
0.11568293
-0.024325037
0.11780539
-0.024800324
0.12003125
-0.025269905
0.12235853
-0.025740741
0.12478611
-0.026219824
0.12731371
-0.026713809
0.12994186
-0.027228509
0.13267185
-0.027768295
0.13550554
-0.028335354
0.13844518
-0.028928893
0.14149301
-0.029544338
0.14465091
-0.030172593
0.14791983
-0.030799514
0.15129924
-0.03140568
0.15478649
-0.031966578
0.15837623
-0.032453265
0.16205984
-0.032833478
0.16582507
-0.033073077
0.16965579
-0.033137563
0.173532
-0.032993151
0.17743001
-0.032606655
0.18132251
-0.031942554
0.18517824
-0.030957678
0.18895999
-0.029591668
0.19262279
-0.027773825
0.19610845
-0.025415589
0.19935847
-0.022541178
0.20228926
-0.019045278
0.20493737
-0.015912253
-0.010001472
0.12228245
-0.0054587141
0.12071565
-0.0072805055
0.11921169
-0.0087276845
0.11785561
-0.0098954233
0.11668457
-0.011129133
0.11569691
-0.012385828
0.11489903
-0.013609271
0.11429838
-0.014790966
0.11389562
-0.01592846
0.11368746
-0.017017846
0.11366939
-0.0180569
0.11383618
-0.019044589
0.11418172
-0.019980586
0.11469935
-0.020865506
0.11538211
-0.021700914
0.11622301
-0.022489175
0.11721516
-0.023233417
0.11835192
-0.023937547
0.11962701
-0.024606262
0.12103465
-0.025245021
0.12256963
-0.025860016
0.1242274
-0.026458097
0.12600416
-0.027046666
0.1278969
-0.027633476
0.12990343
-0.028226357
0.13202244
-0.028832815
0.13425344
-0.029459515
0.13659675
-0.030111608
0.13905336
-0.030791961
0.14162476
-0.031500288
0.14431267
-0.032232256
0.14711875
-0.032978676
0.15004412
-0.033724876
0.15308883
-0.034450392
0.15625136
-0.035129114
0.15952802
-0.035729921
0.16291238
-0.03621784
0.16639489
-0.036555587
0.16996257
-0.03670524
0.17359896
-0.036629546
0.17728435
-0.036292045
0.18099602
-0.035654223
0.18470827
-0.034669929
0.18839084
-0.033274232
0.19200724
-0.031390224
0.19550837
-0.028916725
0.1988442
-0.025877001
0.20193597
-0.022137048
0.20481646
-0.018792744
-0.012345649
0.13967557
-0.0029662517
0.13725604
-0.0048609761
0.13480986
-0.0062815041
0.1325766
-0.0076621631
0.13058285
-0.009135387
0.12881092
-0.010613892
0.12726457
-0.01206292
0.12594975
-0.013476147
0.12486594
-0.014844653
0.12400856
-0.016160465
0.12337133
-0.017419674
0.12294719
-0.018620451
0.12272851
-0.019761899
0.12270721
-0.020844208
0.12287502
-0.021868729
0.12322367
-0.022837822
0.12374503
-0.02375478
0.12443129
-0.024623806
0.12527503
-0.025450002
0.12626936
-0.026239351
0.127408
-0.02699865
0.12868534
-0.027735444
0.13009657
-0.028457892
0.13163766
-0.029174562
0.13330544
-0.029894142
0.13509764
-0.030625018
0.13701285
-0.031374722
0.13905049
-0.032149248
0.14121075
-0.032952218
0.14349443
-0.03378397
0.14590277
-0.034640598
0.14843716
-0.035513061
0.15109876
-0.036386482
0.15388813
-0.037239754
0.15680463
-0.038045621
0.159846
-0.038771283
0.16300772
-0.039379561
0.16628263
-0.039830502
0.16966059
-0.040083203
0.17312837
-0.040097321
0.17666985
-0.039833525
0.18026649
-0.039250863
0.18389772
-0.038301162
0.18753983
-0.036916344
0.19116468
-0.035015072
0.19473252
-0.032484559
0.19820263
-0.029347119
0.20150247
-0.025436888
0.20466252
-0.021952794
-0.015068329
0.15231564
-0.00048457302
0.14910563
-0.0016509638
0.14590148
-0.003077354
0.14295666
-0.0047173427
0.14027388
-0.006452616
0.13784789
-0.0081879007
0.13568166
-0.0098966822
0.1337761
-0.011570596
0.13212964
-0.013198193
0.1307381
-0.014768919
0.12959479
-0.016276361
0.12869149
-0.017717158
0.12801929
-0.019089697
0.12756885
-0.020393765
0.12733061
-0.021630487
0.127295
-0.022802215
0.12745264
-0.02391242
0.12779446
-0.024965631
0.12831186
-0.025967402
0.12899678
-0.026924269
0.12984182
-0.027843687
0.13084031
-0.028733937
0.13198641
-0.029603985
0.13327511
-0.030463264
0.13470233
-0.031321364
0.13626491
-0.032187599
0.13796062
-0.033070432
0.13978813
-0.033976754
0.14174694
-0.03491103
0.1438373
-0.035874325
0.14606001
-0.036863309
0.14841624
-0.037869293
0.15090721
-0.038877455
0.15353384
-0.039866379
0.15629626
-0.04080805
0.1591934
-0.041668418
0.16222238
-0.042408545
0.16537813
-0.04298625
0.16865297
-0.043358038
0.17203647
-0.043480824
0.1755157
-0.043312753
0.17907574
-0.042810907
0.18270054
-0.04192596
0.18637223
-0.040588041
0.19007055
-0.038713384
0.19376474
-0.03617875
0.19742442
-0.033006807
0.20098261
-0.028995072
0.2044741
-0.025444285
-0.018216565
0.19233099
0.0039637534
-0.19677932
0.18867036
0.0020096734
0.185432
0.00016100361
0.18244797
-0.0017333161
0.17968097
-0.0036856137
0.17710645
-0.0056133822
0.17470725
-0.0074974845
0.1724753
-0.00933864
0.17040756
-0.011130458
0.16850283
-0.012864181
0.16676025
-0.014533787
0.16517884
-0.016135742
0.16375712
-0.017667978
0.16249307
-0.019129717
0.16138413
-0.020521549
0.16042729
-0.021845376
0.15961919
-0.023104314
0.15895619
-0.024302638
0.15843453
-0.025445732
0.1580503
-0.026540046
0.15779963
-0.027593012
0.15767863
-0.028612941
0.1576835
-0.029608854
0.15781049
-0.030590256
0.15805592
-0.031566792
0.15841612
-0.032547799
0.15888741
-0.03354172
0.15946602
-0.034555366
0.16014805
-0.035593066
0.16092943
-0.036655698
0.16180583
-0.03773971
0.16277271
-0.03883617
0.16382525
-0.039930003
0.1649584
-0.040999526
0.16616676
-0.042016411
0.16744455
-0.04294621
0.16878546
-0.043749448
0.17018242
-0.044383219
0.17162749
-0.044803099
0.1731116
-0.044964935
0.17462471
-0.044825864
0.1761561
-0.0443423
0.17769517
-0.043465027
0.1792313
-0.042124171
0.18075467
-0.040236759
0.18224948
-0.037673555
0.18370555
-0.034462883
0.18507464
-0.030364157
0.18640645
-0.026776099
-0.019267438
0.2201409
0.007212791
-0.22338994
0.21682369
0.0053268864
0.21376961
0.0032150833
0.2108299
0.0012063912
0.20795622
-0.00081193202
0.20517962
-0.0028367846
0.20251768
-0.0048355451
0.19997584
-0.0067967974
0.19756085
-0.008715466
0.19528044
-0.010583773
0.19314082
-0.012394168
0.19114647
-0.014141393
0.18930053
-0.015822042
0.18760494
-0.017434118
0.18606044
-0.018977058
0.18466683
-0.020451758
0.18342302
-0.021860506
0.18232727
-0.023206894
0.18137731
-0.024495771
0.18057044
-0.025733169
0.17990364
-0.026926212
0.17937368
-0.02808298
0.17897715
-0.02921233
0.17871052
-0.030323628
0.17857012
-0.031426391
0.17855214
-0.032529813
0.17865257
-0.033642154
0.17886721
-0.03477
0.17919155
-0.035917413
0.17962083
-0.037084978
0.18014998
-0.038268853
0.18077366
-0.039459856
0.18148638
-0.040642721
0.18228249
-0.041795641
0.1831563
-0.042890212
0.18410198
-0.04389189
0.18511354
-0.044761015
0.18618465
-0.045454326
0.18730838
-0.045926825
0.18847704
-0.046133602
0.18968226
-0.046031082
0.19091534
-0.045575375
0.19216822
-0.044717909
0.193434
-0.043389956
0.19470757
-0.041510327
0.19598056
-0.038946541
0.19724713
-0.035729458
0.19847269
-0.031589713
0.19968591
-0.027989326
-0.020275785
0.24680017
0.009798651
-0.24938603
0.24409588
0.0080311768
0.241392
0.0059189668
0.23870162
0.0038967657
0.23598915
0.0019005451
0.23327477
-0.00012240766
0.23058984
-0.0021506149
0.22795444
-0.0041613967
0.22538514
-0.0061461688
0.22289852
-0.0080971558
0.22050923
-0.010004877
0.21822917
-0.011861332
0.21606794
-0.013660813
0.21403318
-0.015399351
0.21213066
-0.017074541
0.21036451
-0.018685611
0.20873741
-0.020233402
0.20725079
-0.021720272
0.20590504
-0.023150025
0.20469969
-0.024527819
0.20363354
-0.025860061
0.2027048
-0.027154242
0.2019112
-0.028418726
0.20125003
-0.029662462
0.20071823
-0.030894585
0.20031233
-0.032123919
0.20002851
-0.033358337
0.19986253
-0.034604015
0.1998097
-0.035864579
0.1998649
-0.037140185
0.20002265
-0.038426602
0.20027714
-0.039714349
0.20062242
-0.040988001
0.20105253
-0.042225747
0.20156163
-0.043399308
0.20214407
-0.044474335
0.20279438
-0.045411323
0.20350707
-0.046167021
0.20427646
-0.046696208
0.20509639
-0.046953536
0.2059603
-0.046894987
0.20686163
-0.046476713
0.20779499
-0.045651266
0.20875726
-0.044352221
0.20974809
-0.042501159
0.21076717
-0.039965626
0.211813
-0.036775284
0.21286787
-0.032644585
0.2139333
-0.029054755
-0.021226894
0.27198079
0.011715797
-0.27389794
0.26993623
0.010075738
0.26772337
0.0081318238
0.2654199
0.0062002386
0.26303578
0.0042846623
0.2605813
0.0023320773
0.25808236
0.00034831811
0.25556334
-0.0016423689
0.25304492
-0.0036277548
0.25054759
-0.0055998234
0.24809116
-0.0075484411
0.24569339
-0.009463563
0.24336975
-0.011337175
0.24113355
-0.01316315
0.23899598
-0.01493697
0.23696617
-0.016655808
0.23505137
-0.0183186
0.23325709
-0.019925991
0.23158732
-0.021480258
0.23004472
-0.022985219
0.22863078
-0.024446119
0.22734599
-0.025869449
0.22618998
-0.027262714
0.22516162
-0.028634103
0.22425911
-0.029992075
0.22348
-0.031344813
0.22282123
-0.032699565
0.2222791
-0.034061881
0.22184927
-0.035434756
0.22152683
-0.036817745
0.22130632
-0.03820609
0.2211819
-0.039589932
0.22114757
-0.040953668
0.22119737
-0.042275547
0.22132564
-0.043527579
0.22152716
-0.044675853
0.22179717
-0.045681331
0.22213125
-0.046501107
0.22252512
-0.047090075
0.22297433
-0.047402748
0.22347427
-0.047394927
0.22402065
-0.047023094
0.22461073
-0.046241343
0.22524511
-0.044986598
0.22592818
-0.043184236
0.22666765
-0.040705091
0.22746705
-0.037574682
0.22832554
-0.033503083
0.2292204
-0.029949614
-0.022102597
0.29534531
0.012961459
-0.29659098
0.29395736
0.011463694
0.29233308
0.0097561046
0.29053933
0.0079939851
0.28861226
0.0062117373
0.28656331
0.0043810266
0.28441114
0.0025004867
0.28217925
0.0005895188
0.279889
-0.0013375031
0.277561
-0.0032718215
0.27521622
-0.005203659
0.27287496
-0.0071223106
0.27055608
-0.009018288
0.26827671
-0.010883781
0.26605221
-0.01271247
0.26389601
-0.014499608
0.26181958
-0.016242175
0.25983252
-0.017938927
0.25794262
-0.019590356
0.25615603
-0.021198632
0.25447741
-0.022767499
0.25291006
-0.024302103
0.2514561
-0.02580875
0.25011655
-0.027294558
0.24889149
-0.028767012
0.24778007
-0.030233391
0.24678058
-0.031700079
0.24589048
-0.033171773
0.24510636
-0.034650641
0.24442407
-0.036135453
0.24383875
-0.03762077
0.24334505
-0.039096232
0.24293738
-0.040545999
0.24261024
-0.041948402
0.2423585
-0.043275839
0.24217767
-0.044495029
0.242064
-0.045567655
0.24201435
-0.046451461
0.24202603
-0.047101756
0.24209648
-0.047473196
0.24222318
-0.047521627
0.24240419
-0.047204103
0.24263942
-0.04647657
0.24293297
-0.045280154
0.24329376
-0.043545018
0.24373699
-0.041148329
0.24427179
-0.03810948
0.24491344
-0.034144726
0.2456191
-0.030655282
-0.022885207
0.31711774
0.013603568
-0.31775985
0.31632224
0.012259192
0.31528571
0.01079264
0.31404348