/*--------------------------------*- C++ -*----------------------------------*\
  =========                 |
  \\      /  F ield         | OpenFOAM: The Open Source CFD Toolbox
   \\    /   O peration     | Website:  https://openfoam.org
    \\  /    A nd           | Version:  6
     \\/     M anipulation  |
\*---------------------------------------------------------------------------*/
FoamFile
{
    version     2.0;
    format      ascii;
    class       volVectorField;
    location    "27";
    object      U;
}
// * * * * * * * * * * * * * * * * * * * * * * * * * * * * * * * * * * * * * //

dimensions      [0 1 -1 0 0 0 0];

internalField   nonuniform List<vector> 
9200
(
(0.0011697746 0.0013543531 -6.027895e-20)
(0.014255586 -0.0023556936 4.7009267e-20)
(0.0395843 -0.0063915597 -3.9272287e-20)
(0.074431515 -0.010521423 -6.1398204e-20)
(0.1169683 -0.014489779 1.9246463e-20)
(0.16596666 -0.017853016 3.3410732e-20)
(0.22034948 -0.020316433 -1.2564161e-20)
(0.27911792 -0.021729457 9.5000788e-21)
(0.34133218 -0.022029468 1.7093042e-20)
(0.40607919 -0.021218779 1.5146422e-21)
(0.472449 -0.019353134 -2.1928592e-20)
(0.53952614 -0.016530592 2.1154184e-20)
(0.60639333 -0.012880448 -4.1328474e-20)
(0.67214557 -0.008551916 -2.1687572e-20)
(0.73591296 -0.0037020645 6.0518311e-21)
(0.7968895 0.0015142611 -2.5887515e-20)
(0.85438045 0.0069676386 2.6071919e-20)
(0.90792686 0.012700462 2.3388084e-20)
(0.95713098 0.018848337 -8.0087975e-23)
(0.99931614 0.022097706 -1.3871977e-21)
(0.0054789606 -0.0014665502 -1.7367595e-20)
(0.027830472 -0.0094217207 4.0522994e-20)
(0.063425694 -0.01551549 2.4046023e-20)
(0.10913085 -0.020131784 -1.1772988e-19)
(0.16280405 -0.023418804 -1.29897e-20)
(0.22295302 -0.025163571 7.4540399e-20)
(0.28822628 -0.025271183 -3.6140874e-20)
(0.35733613 -0.023777571 -8.5421237e-21)
(0.42904613 -0.020791115 3.4964512e-20)
(0.50214778 -0.016473665 -4.417921e-20)
(0.57545029 -0.011032437 -3.1063256e-20)
(0.64778908 -0.0047093305 7.383536e-20)
(0.71804817 0.0022311953 3.9306071e-20)
(0.78519173 0.0095141947 -7.0021684e-20)
(0.84830041 0.016864673 1.5135789e-20)
(0.90660656 0.024012768 -3.8009894e-20)
(0.95953635 0.030707783 -1.4160154e-20)
(1.0068089 0.036790433 7.40243e-20)
(1.0483105 0.041858023 3.1509079e-20)
(1.0823015 0.042833867 -8.5419722e-20)
(0.011201427 -0.004209782 3.737967e-20)
(0.045158479 -0.015973524 2.5469194e-21)
(0.092819804 -0.02339383 2.2798787e-20)
(0.15069319 -0.027594151 9.9722867e-22)
(0.21633117 -0.029213311 -4.1619041e-20)
(0.28794896 -0.028334097 1.8844706e-20)
(0.36388279 -0.025122848 1.3698728e-20)
(0.44252084 -0.01986101 -5.1288581e-20)
(0.5223082 -0.012882234 5.8435997e-20)
(0.60174399 -0.0045548422 1.4638751e-20)
(0.67939413 0.0047263082 -5.571645e-20)
(0.75392276 0.014554006 -1.8835434e-20)
(0.82413369 0.024525813 8.9838634e-21)
(0.88901355 0.03426098 2.4234121e-20)
(0.94776968 0.043414988 -1.1836136e-20)
(0.99985521 0.051689039 2.8868523e-20)
(1.0449826 0.058844183 -2.0852063e-20)
(1.0831527 0.064747796 -7.2966576e-20)
(1.1145324 0.069142592 -2.4884446e-20)
(1.1383252 0.070195721 5.001819e-20)
(0.018435225 -0.0066252457 2.4882565e-20)
(0.066361357 -0.021311117 5.1871342e-20)
(0.12775546 -0.028979034 2.0191123e-20)
(0.19883984 -0.031618014 1.3127426e-20)
(0.27687727 -0.030446413 1.7513958e-20)
(0.35977085 -0.025913475 -4.8518242e-20)
(0.44552557 -0.018512273 -2.6113879e-20)
(0.53220411 -0.0088282761 0)
(0.61796204 0.0025325341 1.4417892e-20)
(0.70107564 0.014964085 -6.1850897e-21)
(0.77998258 0.027872437 -1.0045883e-19)
(0.85333418 0.040696327 -1.6056697e-20)
(0.92004663 0.052930084 6.7294513e-20)
(0.97934063 0.064143779 2.3375414e-22)
(1.0307624 0.073997926 -1.6280454e-21)
(1.0741808 0.082250626 2.275522e-20)
(1.1097633 0.088763976 -5.5162496e-21)
(1.1379481 0.093531571 -6.3299241e-20)
(1.1593253 0.096541539 -4.7742843e-20)
(1.1739193 0.096877864 7.1549973e-20)
(0.027208442 -0.0084291826 -3.9600441e-21)
(0.091338845 -0.024678327 -5.2026403e-21)
(0.1678382 -0.03118874 5.7435114e-20)
(0.25274927 -0.030929494 1.8788163e-20)
(0.34308285 -0.025782998 -3.2445198e-20)
(0.43643717 -0.016636186 1.2362195e-20)
(0.53050828 -0.004370215 2.6913802e-21)
(0.62308971 0.010079505 3.4392769e-20)
(0.71214771 0.02581001 5.797461e-21)
(0.79588317 0.041978412 -1.3679431e-20)
(0.872795 0.057820274 6.2185561e-20)
(0.94173911 0.072675324 -5.9537972e-20)
(1.0019688 0.086011371 -1.363321e-19)
(1.0531475 0.097439793 -5.7630134e-21)
(1.0953305 0.10672027 8.608775e-20)
(1.1289177 0.11375417 0)
(1.1545844 0.11857283 1.0442265e-20)
(1.1732078 0.12133916 -1.6016079e-20)
(1.1857494 0.12224827 -8.9379888e-21)
(1.1928112 0.12093723 2.1645131e-20)
(0.0374584 -0.0093144971 -5.4478719e-21)
(0.11973657 -0.025305612 4.4175997e-21)
(0.21227932 -0.028990466 -8.8825095e-21)
(0.31109526 -0.024403159 2.8880754e-20)
(0.41301733 -0.014157903 -2.987965e-20)
(0.51539226 0.00036094884 -1.7235136e-20)
(0.61569048 0.017842261 3.7914466e-20)
(0.71156488 0.03698532 4.7929438e-21)
(0.80096748 0.056606191 -2.5278924e-20)
(0.88223751 0.075673702 7.1722198e-20)
(0.95416947 0.093330713 3.0153117e-22)
(1.0160542 0.10891723 -8.3082936e-20)
(1.0676817 0.12198401 0)
(1.109304 0.13229055 4.0958317e-20)
(1.1415619 0.13978755 5.7329158e-21)
(1.1653886 0.14458652 -8.0165458e-20)
(1.1819008 0.14692446 -2.0239614e-20)
(1.1922987 0.14714001 -1.2880942e-20)
(1.1977568 0.14558696 -1.5220604e-20)
(1.1991553 0.14222805 4.1747314e-20)
(0.049018237 -0.0089718367 -1.745056e-20)
(0.15092946 -0.022469773 -2.35761e-21)
(0.25990512 -0.021492771 3.0738138e-20)
(0.37210716 -0.011174875 3.7918055e-20)
(0.484312 0.0051044117 -2.0249188e-20)
(0.59372812 0.025432878 -7.0493956e-20)
(0.69775335 0.048066298 -2.868858e-20)
(0.79409855 0.07137217 8.0744821e-20)
(0.88093472 0.09395595 8.9613428e-21)
(0.95698617 0.11469995 -2.5430939e-20)
(1.0215757 0.13277683 1.3829172e-20)
(1.0746192 0.14765558 -4.5253994e-21)
(1.1165677 0.15908921 0)
(1.1483072 0.1670817 2.8033828e-20)
(1.1710311 0.17183883 -8.1779611e-20)
(1.1861043 0.17371031 -3.245715e-20)
(1.194937 0.1731332 8.3584537e-20)
(1.1988825 0.17059087 -4.5034768e-21)
(1.1991545 0.16653603 3.6456741e-21)
(1.1966795 0.16111035 2.8060911e-20)
(0.061610733 -0.0071177439 -3.2720954e-20)
(0.18402778 -0.015566752 -8.2671042e-20)
(0.30920264 -0.0080442266 2.4494903e-21)
(0.43367498 0.0092531917 7.1247067e-20)
(0.55433661 0.032201198 6.3474274e-20)
(0.66843441 0.058377655 -7.2718151e-20)
(0.77351053 0.085657977 -9.4488255e-23)
(0.86758286 0.11217157 8.7727782e-20)
(0.94929827 0.13644019 5.0035041e-20)
(1.0180009 0.15740609 -5.5747507e-20)
(1.0737245 0.17442037 -9.4912271e-20)
(1.1171177 0.18721354 -3.2485826e-21)
(1.1493151 0.19584241 4.3334224e-20)
(1.171778 0.20061701 -6.7998308e-21)
(1.1861285 0.20201828 -1.3219762e-20)
(1.1939995 0.20061761 2.0198018e-20)
(1.1969172 0.19700902 4.5162656e-20)
(1.1962235 0.1917639 -4.5090763e-20)
(1.1930341 0.18537061 -1.0541996e-19)
(1.1881786 0.17805595 2.5447071e-20)
(0.074818791 -0.0035257003 -3.5453849e-20)
(0.21783896 -0.0041883845 -1.7554563e-19)
(0.35829635 0.011683025 8.3458374e-20)
(0.49335536 0.036950935 9.4254406e-20)
(0.62024366 0.066833201 5.8915052e-20)
(0.73648003 0.098477554 8.7921507e-21)
(0.84001089 0.12949662 -1.0844086e-19)
(0.92942472 0.15793578 0)
(1.0040792 0.18240619 -7.0677808e-20)
(1.064114 0.20208142 -1.5668226e-20)
(1.1103679 0.21663988 5.6167529e-20)
(1.144227 0.22618355 1.1278954e-20)
(1.167432 0.23113521 -4.6839927e-20)
(1.1818802 0.23212546 -5.0370917e-20)
(1.1894494 0.22988505 2.4995891e-20)
(1.1918631 0.22515463 4.6128311e-20)
(1.1906054 0.21861997 -5.7191756e-20)
(1.1868855 0.21087576 -1.1050672e-19)
(1.181641 0.20239125 -3.1353594e-21)
(1.1755398 0.19342345 2.7792609e-20)
(0.088069223 0.0019584129 -3.7012219e-21)
(0.25087299 0.011863083 8.9022041e-20)
(0.40498743 0.037697507 -1.6020551e-20)
(0.54846087 0.071585802 -8.5962876e-20)
(0.67910952 0.10825267 4.6022416e-20)
(0.7949868 0.14457067 4.9913885e-20)
(0.89470705 0.17807763 5.6642383e-21)
(0.97766167 0.20694319 -1.0179867e-19)
(1.044088 0.23006981 -2.5675202e-21)
(1.0950044 0.24703391 5.1817729e-20)
(1.132046 0.25796438 6.1411723e-21)
(1.1572442 0.26340075 -2.0255006e-20)
(1.1727952 0.26414276 -7.7652555e-20)
(1.180853 0.26110839 -6.3715486e-21)
(1.1833736 0.25521683 4.4623329e-20)
(1.1820194 0.24730528 3.7941042e-20)
(1.1781219 0.23808133 2.0209746e-20)
(1.1726919 0.22810572 -5.4631377e-20)
(1.1664633 0.21779031 1.2987732e-20)
(1.1599302 0.20739476 8.4713898e-20)
(-0.0013238202 0.00146847 -1.1326437e-21)
(-0.004855107 0.0032586271 2.1051596e-21)
(-0.011010572 0.0042244911 9.4334367e-22)
(-0.018137715 0.0046327266 -2.4338313e-21)
(-0.025260841 0.0046547048 -1.4914004e-21)
(-0.031940901 0.0044055838 1.6291914e-21)
(-0.037901401 0.0039692878 -7.1190175e-21)
(-0.042960374 0.0034067951 -6.1744881e-21)
(-0.047015178 0.0027616282 1.1570253e-20)
(-0.050018043 0.0020645257 -1.0094397e-20)
(-0.051955716 0.0013369291 -2.0045588e-22)
(-0.052836394 0.00059352828 3.8144579e-21)
(-0.052681147 -0.00015581051 -6.5252471e-22)
(-0.051518067 -0.00090450769 2.3737185e-20)
(-0.049378575 -0.0016478683 3.0438934e-22)
(-0.046296907 -0.0023815804 -4.2654628e-20)
(-0.042312576 -0.0031010937 7.9001652e-21)
(-0.037461877 -0.0038044569 2.4957598e-20)
(-0.031749681 -0.004490304 -4.5946976e-20)
(-0.025233351 -0.0051087945 -2.9106215e-20)
(-0.0016896584 0.0042778548 -5.5219564e-21)
(-0.0055153339 0.0094718134 1.1062943e-20)
(-0.011453552 0.012260127 -1.0447422e-20)
(-0.018014865 0.01341842 4.1006414e-21)
(-0.024321042 0.013447223 5.019124e-21)
(-0.029983437 0.012684569 7.403038e-22)
(-0.034760408 0.01137695 -2.3311847e-20)
(-0.038495123 0.009703371 -2.1054757e-21)
(-0.041101775 0.0077915597 2.0862526e-20)
(-0.042543262 0.0057316879 -5.2244349e-21)
(-0.042812639 0.0035866028 -2.2554046e-20)
(-0.041921274 0.0013992926 5.0781999e-21)
(-0.039891135 -0.00080147126 2.3455592e-20)
(-0.036749375 -0.0029966263 1.0714005e-20)
(-0.032524452 -0.0051727133 2.2779049e-20)
(-0.027246649 -0.0073176095 -2.0603711e-20)
(-0.020958109 -0.00941865 -2.2599781e-20)
(-0.013704167 -0.011469594 2.2199671e-20)
(-0.0054134296 -0.01345588 2.8044387e-20)
(0.0041167275 -0.015206084 1.653643e-20)
(-0.0023525516 0.0067076255 -4.4760502e-21)
(-0.0066701147 0.01478779 -5.7208806e-21)
(-0.012114209 0.019090074 3.0193378e-22)
(-0.017511072 0.020822125 1.0614603e-21)
(-0.02216996 0.020769611 6.8881992e-21)
(-0.025799236 0.019469073 1.0977394e-20)
(-0.028224918 0.017312593 -3.8442958e-21)
(-0.029339107 0.014585017 -1.950302e-20)
(-0.02908894 0.01148983 6.7578223e-21)
(-0.027458557 0.0081708488 1.3290951e-20)
(-0.024454115 0.0047283643 6.0733048e-21)
(-0.020094396 0.0012309124 1.8762018e-20)
(-0.014404746 -0.002275888 1.7926324e-21)
(-0.0074126319 -0.0057623501 -3.5091204e-20)
(0.00085624017 -0.0092079345 1.3011227e-21)
(0.01037617 -0.01259462 -2.2909105e-20)
(0.021098332 -0.015905554 -2.5558152e-20)
(0.032955553 -0.019132613 4.7872683e-20)
(0.046146364 -0.022221664 2.6574564e-20)
(0.061380392 -0.024799793 2.2964728e-22)
(-0.0031909709 0.0085479023 -5.4342049e-21)
(-0.0080374936 0.018705481 -8.8461827e-21)
(-0.012632308 0.024038269 4.4610142e-21)
(-0.016234533 0.026069286 4.2643233e-21)
(-0.018412753 0.02580143 2.0608247e-21)
(-0.019011228 0.02393165 7.5459694e-21)
(-0.017952164 0.020970834 9.5905559e-21)
(-0.015198235 0.01729034 -1.389878e-21)
(-0.010745233 0.013155984 -1.1825222e-20)
(-0.0046100592 0.0087560364 -2.9989084e-20)
(0.0031792014 0.0042219543 8.4654784e-23)
(0.012588847 -0.00035644568 4.2023648e-20)
(0.023583806 -0.0049198892 -1.8944319e-20)
(0.036129309 -0.0094302411 -1.2721634e-20)
(0.050195153 -0.013862414 5.0589339e-22)
(0.0657539 -0.018196608 3.3533597e-20)
(0.082743754 -0.022419346 -1.5530079e-20)
(0.10105677 -0.026530494 -5.5422477e-20)
(0.12102373 -0.030410753 4.7578803e-20)
(0.14407839 -0.03336217 3.4360997e-20)
(-0.0040419537 0.0096544266 -6.8025606e-22)
(-0.0092310864 0.020868187 -1.2842577e-20)
(-0.012503984 0.026614008 -3.5101104e-20)
(-0.013626457 0.028592419 -5.9136192e-21)
(-0.012475464 0.02794116 -3.6893899e-21)
(-0.00906016 0.025470261 6.4803237e-21)
(-0.0034218861 0.021775708 -4.7734456e-21)
(0.0043871757 0.017290661 -9.0328398e-21)
(0.014307202 0.012325771 2.2493968e-20)
(0.02627523 0.0071014249 5.1673908e-21)
(0.040229627 0.0017719309 -2.6107923e-20)
(0.056110207 -0.0035570913 1.1378149e-20)
(0.073858761 -0.0088159779 0)
(0.09341949 -0.013961194 1.2472825e-20)
(0.11474209 -0.018966476 -1.0019665e-20)
(0.13778086 -0.023815226 -1.4862645e-20)
(0.16244644 -0.028507599 -1.4501021e-21)
(0.18856564 -0.033072625 -2.3688896e-21)
(0.21655685 -0.037323978 4.7645777e-20)
(0.24872825 -0.04009474 -1.1108381e-20)
(-0.004718699 0.0099578775 -7.699241e-21)
(-0.0097936281 0.021089385 2.5153199e-20)
(-0.011114491 0.026552366 -1.0796546e-20)
(-0.0089855364 0.028084322 -2.8162271e-20)
(-0.0036183041 0.026870559 -2.8204611e-20)
(0.0047942179 0.02378279 -1.5296943e-20)
(0.016074394 0.019464017 -7.0256727e-22)
(0.030064144 0.014380405 5.6718368e-21)
(0.046624827 0.0088669774 2.0073073e-20)
(0.065632665 0.0031623008 7.5405037e-21)
(0.08697427 -0.0025664178 -7.3594066e-21)
(0.11054411 -0.0082046497 -2.0148004e-21)
(0.1362406 -0.013677313 -3.9274851e-20)
(0.16396324 -0.018939036 -1.3061131e-20)
(0.19361413 -0.023965826 1.9414541e-20)
(0.22509897 -0.028749141 -2.1750954e-20)
(0.2582748 -0.033312904 -9.2676455e-21)
(0.29287486 -0.037744178 3.1299778e-20)
(0.32932427 -0.041826714 5.2035414e-20)
(0.37085174 -0.043813196 3.4830172e-21)
(-0.005026202 0.009460817 1.7119922e-20)
(-0.0092293534 0.019355766 1.4762867e-20)
(-0.0077736426 0.023830124 5.2332749e-20)
(-0.0015003505 0.024528586 2.3964409e-20)
(0.0090373866 0.022599083 1.8702276e-22)
(0.023452486 0.018922886 -4.0315189e-20)
(0.041418687 0.014150585 -2.4900161e-20)
(0.062659032 0.0087519728 1.0690009e-20)
(0.086937069 0.0030639904 1.4730989e-20)
(0.11404624 -0.0026734701 -1.33689e-20)
(0.14379874 -0.0082926538 -4.5139874e-20)
(0.17601638 -0.013679733 3.0384503e-20)
(0.21052274 -0.018761724 2.0484634e-20)
(0.247137 -0.023497553 -2.8288629e-20)
(0.28567336 -0.027871226 1.2006422e-20)
(0.32594457 -0.031888532 2.4884047e-20)
(0.3677144 -0.035606396 8.3461006e-21)
(0.41059211 -0.039200423 -1.222075e-20)
(0.45491357 -0.042504761 -1.4490751e-20)
(0.50474395 -0.04317769 6.4340238e-21)
(-0.0047720114 0.0082262557 1.1337355e-20)
(-0.0070306097 0.015811175 -2.395904e-20)
(-0.0017511276 0.0186564 8.7476986e-21)
(0.0097104177 0.018200502 3.4375022e-20)
(0.026465163 0.015474829 5.3302459e-20)
(0.047928266 0.011320939 2.0728494e-20)
(0.073614592 0.0063591484 -6.0130529e-21)
(0.10310874 0.0010310868 -1.252323e-20)
(0.13605471 -0.004348283 -6.3770695e-21)
(0.17213569 -0.0095568262 3.5011701e-20)
(0.21105535 -0.014442172 -4.6868364e-21)
(0.25252337 -0.018904726 -1.7079548e-20)
(0.29624391 -0.022885682 -2.0125825e-20)
(0.34190712 -0.026359498 -4.865864e-20)
(0.38918756 -0.029329107 2.3832241e-20)
(0.43775179 -0.031825741 -1.4490899e-20)
(0.48722571 -0.033952102 2.6811999e-20)
(0.53707688 -0.036006411 2.1687839e-20)
(0.58748049 -0.037997323 -8.7588611e-20)
(0.64312993 -0.037160366 1.9641995e-23)
(-0.0037730951 0.006363966 2.2358223e-20)
(-0.0027031595 0.010734683 -2.6782962e-20)
(0.0076779541 0.011455947 -4.5974695e-20)
(0.025530148 0.0096607438 -2.7852083e-20)
(0.049642575 0.006192402 -2.0871363e-21)
(0.07922668 0.0018054079 1.3275353e-20)
(0.11362375 -0.0029484463 -2.8527836e-21)
(0.15225919 -0.0076869215 1.847062e-20)
(0.19462684 -0.012143935 9.0155623e-21)
(0.24026116 -0.016138268 -1.1608397e-20)
(0.28871209 -0.019553684 9.1507708e-21)
(0.33952657 -0.022324008 -2.4434545e-20)
(0.39223512 -0.024422428 8.3215478e-21)
(0.44634286 -0.025854782 1.7186079e-20)
(0.50132807 -0.026655475 -2.718122e-21)
(0.55665227 -0.026889217 1.7028187e-21)
(0.61174493 -0.026705407 -3.0045752e-22)
(0.66590825 -0.026507866 2.0168835e-20)
(0.71912422 -0.026501456 4.146932e-21)
(0.77646668 -0.024013665 -1.2090041e-21)
(-0.001856538 0.004019333 2.4199838e-20)
(0.0042139794 0.0045265954 5.8447589e-20)
(0.021179174 0.0028675342 -5.0263978e-20)
(0.046747655 -0.00022457284 -1.0150235e-20)
(0.079398097 -0.0041670485 2.0632242e-20)
(0.11813257 -0.0083389053 2.1840436e-21)
(0.16210075 -0.012296571 -3.0370061e-20)
(0.2105391 -0.015753574 7.081996e-21)
(0.26275171 -0.018525781 7.2996354e-21)
(0.31807746 -0.020503952 -2.681365e-20)
(0.37586217 -0.02163795 1.3348657e-21)
(0.43544072 -0.021923937 -3.8020076e-20)
(0.49612727 -0.021393919 -3.7238578e-20)
(0.55721192 -0.02010732 6.7428425e-20)
(0.61796392 -0.018143519 5.7248658e-21)
(0.6776394 -0.015600642 -1.5728655e-20)
(0.73546777 -0.012636053 1.9910203e-20)
(0.79057887 -0.0095537237 -9.4535361e-22)
(0.84247178 -0.0063779474 2.0638037e-20)
(0.8948422 -0.0015625255 -2.0502784e-20)
(-0.017462232 -0.0054137643 6.1379376e-20)
(-0.0082966325 -0.0059892229 1.6559253e-20)
(0.002359338 -0.006462964 -3.7005841e-20)
(0.014148842 -0.0067631794 1.7816041e-20)
(0.026803182 -0.0069749034 0)
(0.040268634 -0.0071267607 0)
(0.054492335 -0.0072210879 -2.4468494e-20)
(0.069400185 -0.0072656281 -1.7591819e-20)
(0.084927585 -0.007269987 2.0563684e-20)
(0.10102181 -0.0072411373 1.9566102e-20)
(0.11763543 -0.0071844128 1.1094959e-21)
(0.13472493 -0.0071045577 -1.1111386e-20)
(0.15225125 -0.0070057548 9.1812339e-21)
(0.1701796 -0.0068916037 1.9781898e-20)
(0.18847902 -0.0067652474 -5.9115679e-21)
(0.20712228 -0.0066294823 -1.111289e-20)
(0.22608587 -0.0064868211 -4.7350336e-21)
(0.24535021 -0.0063395418 -4.7753551e-21)
(0.2648998 -0.0061897293 7.7717169e-22)
(0.2847235 -0.0060393019 1.4056608e-21)
(0.30481487 -0.005890025 3.0903009e-21)
(0.32517252 -0.0057435111 7.7418881e-21)
(0.34580041 -0.0056012072 4.2717972e-23)
(0.36670802 -0.0054643682 -4.1798243e-21)
(0.38791043 -0.0053340182 1.2684275e-22)
(0.40942811 -0.0052109007 -7.2849553e-22)
(0.43128629 -0.0050954214 1.6084082e-21)
(0.45351399 -0.0049875874 1.2614971e-21)
(0.47614243 -0.0048869515 -2.0412893e-21)
(0.49920289 -0.0047925691 -9.7272304e-23)
(0.52272388 -0.0047029784 -3.5474993e-22)
(0.54672784 -0.004616215 -5.2397794e-22)
(0.57122736 -0.0045298673 -8.1930168e-22)
(0.59622113 -0.0044411789 3.4565918e-22)
(0.62169009 -0.0043471945 -2.1536403e-22)
(0.64759393 -0.0042449406 -2.8708452e-22)
(0.67386836 -0.00413162 3.1246629e-22)
(0.70042349 -0.0040047931 3.0319816e-22)
(0.72714321 -0.0038625042 -2.3614713e-22)
(0.75388567 -0.003703295 -3.9761014e-22)
(0.7804831 -0.0035260433 -8.6490744e-23)
(0.80674209 -0.0033295604 9.2855543e-23)
(0.8324328 -0.003112098 -1.6317295e-23)
(0.8572957 -0.0028708904 -4.1077437e-22)
(0.88097195 -0.0026031489 -2.5799021e-22)
(0.90317622 -0.0023065891 1.6170778e-22)
(0.92316049 -0.0019880544 6.5577002e-23)
(0.94151202 -0.0016478437 5.952846e-24)
(0.95487758 -0.0013570743 7.988872e-24)
(0.97225993 -0.00090335566 2.5026538e-22)
(0.013244211 -0.015983738 -1.3510127e-20)
(0.021554373 -0.01772362 -6.6511425e-20)
(0.031842901 -0.019114395 -3.2333183e-20)
(0.043231378 -0.019972822 4.0715866e-20)
(0.055331933 -0.02058257 1.5557189e-20)
(0.068172435 -0.021027214 -1.9483363e-20)
(0.08173196 -0.021305607 5.1591618e-21)
(0.095938924 -0.021438921 2.7127579e-20)
(0.11073597 -0.021455813 -8.0662738e-23)
(0.12607981 -0.021376308 -8.3113378e-21)
(0.14193 -0.021215412 -1.3730959e-20)
(0.15824823 -0.020986693 -9.3934255e-21)
(0.17499988 -0.020702223 1.9231634e-20)
(0.19215384 -0.020372392 1.0343869e-20)
(0.20968212 -0.020006301 -1.7684375e-20)
(0.2275598 -0.019612079 -6.6141075e-21)
(0.24576524 -0.019197063 3.4320253e-21)
(0.26428024 -0.01876793 9.083581e-21)
(0.28309028 -0.018330811 7.9179729e-21)
(0.30218487 -0.017891363 -8.3159887e-21)
(0.3215579 -0.017454809 -4.197999e-21)
(0.34120797 -0.017025931 2.1252656e-21)
(0.36113876 -0.016609031 1.1655732e-21)
(0.3813592 -0.016207849 1.6538219e-21)
(0.40188357 -0.015825451 4.0979036e-22)
(0.42273127 -0.015464076 -6.0764311e-22)
(0.44392632 -0.015124966 -1.1348083e-21)
(0.4654964 -0.014808186 1.8623231e-21)
(0.48747129 -0.014512456 1.5059412e-21)
(0.5098809 -0.01423502 -8.2260424e-22)
(0.53275251 -0.013971587 1.1915352e-21)
(0.5561076 -0.01371637 -3.5548947e-22)
(0.57995815 -0.013462245 -9.665175e-22)
(0.60430281 -0.013201058 -1.3078872e-21)
(0.62912307 -0.01292405 6.895939e-22)
(0.65437984 -0.012622395 -7.3302533e-22)
(0.68001079 -0.012287776 8.1600794e-22)
(0.70592867 -0.011912929 -1.1687024e-21)
(0.73202071 -0.01149202 1.4593518e-21)
(0.75814897 -0.011020692 7.4913626e-23)
(0.78415019 -0.010495599 2.4019246e-22)
(0.80983616 -0.0099132096 6.8160394e-22)
(0.83498317 -0.0092683397 8.8740559e-22)
(0.85933898 -0.008552743 6.891827e-22)
(0.8825534 -0.0077580685 7.8824721e-22)
(0.90434997 -0.0068772716 1.2208177e-22)
(0.92399032 -0.005930655 2.1179832e-22)
(0.94206197 -0.0049183993 7.0312595e-23)
(0.95523058 -0.0040532831 2.373038e-23)
(0.97242624 -0.0027003581 2.566599e-22)
(0.072992064 -0.025705028 9.977138e-21)
(0.079583812 -0.028605569 3.5958381e-21)
(0.089007586 -0.030845734 -1.3182143e-20)
(0.099534033 -0.032168815 -1.4497363e-21)
(0.11048284 -0.033122819 1.6027493e-20)
(0.12204049 -0.033842618 -1.5820637e-20)
(0.13425735 -0.034304011 -3.1980412e-20)
(0.14706292 -0.034535485 1.5679782e-20)
(0.16041048 -0.03458412 1.9682507e-20)
(0.17427428 -0.034480969 -1.2592038e-20)
(0.18862654 -0.034248178 1.099246e-21)
(0.20343794 -0.033906351 9.0042307e-21)
(0.21868148 -0.033474208 -1.6825727e-20)
(0.23433241 -0.032967935 4.0708054e-21)
(0.25036776 -0.032401759 8.5088062e-21)
(0.26676655 -0.031788504 -6.7780402e-22)
(0.28351013 -0.03113984 -1.8805051e-22)
(0.30058253 -0.030466463 -8.6896532e-21)
(0.31797078 -0.029778256 5.3893526e-21)
(0.33566529 -0.029084392 1.0206098e-20)
(0.35366026 -0.028393382 -4.6768488e-21)
(0.37195408 -0.027713057 -2.5908506e-21)
(0.39054969 -0.027050495 9.37452e-22)
(0.40945478 -0.026411884 -2.3700309e-21)
(0.42868192 -0.025802332 1.6652984e-21)
(0.44824841 -0.025225622 9.0592134e-22)
(0.46817581 -0.024683925 3.2057017e-21)
(0.48848909 -0.024177506 -3.8275422e-21)
(0.50921525 -0.023704444 4.5724103e-21)
(0.53038146 -0.023260411 1.1026518e-21)
(0.55201255 -0.022838567 1.79685e-21)
(0.57412806 -0.02242961 4.7763514e-22)
(0.59673877 -0.022022033 2.5447577e-21)
(0.6198431 -0.021602605 -3.9651908e-21)
(0.64342349 -0.021157066 1.2075313e-21)
(0.66744308 -0.020671001 1.0509874e-21)
(0.69184317 -0.020130781 -3.6577571e-22)
(0.71654147 -0.019524458 -4.0266104e-22)
(0.74143142 -0.0188424 -1.0539098e-21)
(0.76638248 -0.018077398 7.5221914e-22)
(0.79123991 -0.017223935 -1.5108307e-23)
(0.81582534 -0.016276245 2.2238497e-21)
(0.83992673 -0.015225893 -9.6268463e-22)
(0.86330584 -0.014059316 -6.7884134e-23)
(0.88562914 -0.012762633 3.7434591e-22)
(0.9066375 -0.011323508 -1.9902062e-22)
(0.92561139 -0.0097749377 -1.7836284e-22)
(0.94313959 -0.0081150841 7.5028087e-22)
(0.95592461 -0.0066963801 -2.1716094e-23)
(0.97275567 -0.0044684606 -5.3247709e-22)
(0.15888218 -0.033917806 1.669516e-21)
(0.16288127 -0.037940029 -1.1962712e-20)
(0.17075751 -0.0409287 6.8057017e-21)
(0.17985708 -0.042604041 -1.4058664e-20)
(0.18899886 -0.043846426 -2.0910839e-21)
(0.19857457 -0.044833143 9.9247825e-21)
(0.20875565 -0.045493938 -1.0819888e-20)
(0.21946914 -0.045854907 1.340807e-21)
(0.23067535 -0.045979034 1.3815369e-20)
(0.24237113 -0.04590589 3.8988074e-21)
(0.25454534 -0.045661568 -6.6887656e-21)
(0.26717917 -0.045271008 -3.3654585e-21)
(0.28025431 -0.044757708 -5.9265665e-21)
(0.29375342 -0.044142279 -7.3010032e-21)
(0.30765926 -0.043442992 2.9557393e-21)
(0.32195516 -0.042676506 1.8164613e-22)
(0.33662568 -0.041858175 1.8083802e-21)
(0.3516571 -0.041002236 -3.7860378e-21)
(0.36703784 -0.040121962 -5.4159517e-21)
(0.38275896 -0.039229778 3.0368765e-21)
(0.39881456 -0.038337289 4.4157577e-21)
(0.41520228 -0.037455245 -2.525077e-21)
(0.43192362 -0.036593424 2.2152009e-21)
(0.44898421 -0.035760443 -8.3581313e-22)
(0.46639397 -0.034963491 -6.347531e-21)
(0.48416698 -0.03420799 -4.241656e-21)
(0.50232113 -0.033497209 -6.5355578e-22)
(0.52087739 -0.032831849 1.6740773e-22)
(0.53985862 -0.032209661 -3.4293532e-21)
(0.55928791 -0.031625126 -2.4206464e-21)
(0.5791864 -0.031069301 3.2913065e-22)
(0.59957063 -0.030529863 -3.0782596e-21)
(0.62044938 -0.029991437 -4.0524213e-22)
(0.64182045 -0.02943623 -1.3970386e-21)
(0.66366723 -0.028844964 -7.4832535e-22)
(0.68595568 -0.028198048 -2.36127e-21)
(0.70863182 -0.027476872 -3.5113033e-21)
(0.73162001 -0.026665032 2.3564472e-22)
(0.75482213 -0.025749231 -4.6201204e-24)
(0.77811771 -0.024719484 -1.9789198e-21)
(0.80136376 -0.023568191 5.713745e-22)
(0.82439553 -0.022287531 -1.5113763e-21)
(0.84701722 -0.020866128 -2.6360391e-21)
(0.86901031 -0.019285401 1.6874653e-21)
(0.89006499 -0.017526023 -8.9706076e-24)
(0.90994719 -0.015569625 6.8804806e-22)
(0.92796519 -0.013460577 -3.038697e-22)
(0.94471041 -0.011192331 -5.1321826e-22)
(0.9569409 -0.0092530534 -7.8687795e-23)
(0.97324129 -0.0061895119 4.0696832e-22)
(0.26684051 -0.039844629 -2.200177e-20)
(0.26733879 -0.044935455 4.9667342e-20)
(0.27278699 -0.048554581 1.0765654e-20)
(0.27975452 -0.050493267 -1.6603011e-20)
(0.28638314 -0.052003088 -2.3288172e-21)
(0.2932536 -0.053280352 2.5606188e-21)
(0.30070768 -0.0541927 -1.9875553e-21)
(0.30867191 -0.054753524 -4.9855583e-21)
(0.31710164 -0.055034443 -4.2915293e-21)
(0.3260149 -0.055080263 -1.3094005e-20)
(0.33541868 -0.054918666 1.9681718e-20)
(0.3453039 -0.054576204 7.3533433e-21)
(0.35565934 -0.054078901 -1.8200513e-20)
(0.36647386 -0.053450332 1.0630863e-20)
(0.377735 -0.052711786 8.5083199e-21)
(0.38942941 -0.051882957 -2.7285479e-22)
(0.40154387 -0.050982298 -2.9571637e-21)
(0.41406601 -0.050027171 -5.0001077e-21)
(0.42698475 -0.049033964 -1.9440334e-21)
(0.44029092 -0.048018161 -1.7708637e-21)
(0.45397771 -0.046994347 -4.2837493e-21)
(0.46804112 -0.045976129 0)
(0.48248033 -0.04497598 -2.0393216e-21)
(0.49729802 -0.044004992 5.1290244e-21)
(0.51250043 -0.043072533 7.9452143e-21)
(0.5280974 -0.042185835 -1.1620135e-21)
(0.54410202 -0.041349502 -5.4802671e-21)
(0.56053007 -0.040564999 6.2192165e-21)
(0.57739903 -0.039830156 -5.4371325e-22)
(0.59472668 -0.039138765 7.1887892e-21)
(0.61252927 -0.038480355 -7.6749807e-22)
(0.63081918 -0.037840215 3.5367393e-21)
(0.6496023 -0.037199775 -2.146594e-21)
(0.66887506 -0.036537346 1.3594966e-21)
(0.68862147 -0.035829259 -1.6089872e-21)
(0.70881033 -0.035051298 1.3447372e-21)
(0.72939283 -0.03418031 1.6138222e-21)
(0.75030086 -0.033195742 1.4071841e-21)
(0.77144607 -0.032080824 -3.4270593e-21)
(0.79271986 -0.030822902 2.4847321e-21)
(0.81399309 -0.029412418 -1.2092298e-21)
(0.83511729 -0.027839746 -4.6946442e-21)
(0.85591622 -0.026091004 5.7813426e-21)
(0.87619535 -0.024143062 2.0822807e-23)
(0.89567432 -0.021971341 -5.6798738e-22)
(0.9141507 -0.019550632 1.2516563e-23)
(0.93096911 -0.016934966 -6.2647497e-22)
(0.94672537 -0.014109762 -9.5497571e-22)
(0.95825247 -0.011693317 2.9695656e-22)
(0.97387294 -0.0078468595 -7.5681019e-23)
(0.39170658 -0.042493513 -1.8447383e-20)
(0.38780664 -0.048659016 1.3288348e-20)
(0.38981321 -0.052832049 3.391863e-21)
(0.39382394 -0.055036874 -8.0305574e-21)
(0.39723304 -0.05687618 1.2704241e-20)
(0.40071198 -0.058524159 8.2424659e-21)
(0.40479769 -0.059791463 -1.319233e-20)
(0.40943449 -0.060676361 -6.4518978e-21)
(0.41455718 -0.061246044 1.3540747e-20)
(0.42019234 -0.061544044 -1.6896754e-20)
(0.42636231 -0.061598419 -1.5084838e-20)
(0.43306559 -0.061435901 1.5911331e-20)
(0.44029436 -0.061083151 7.4084224e-21)
(0.44804022 -0.060565441 -5.5577979e-21)
(0.4562929 -0.059906418 -1.3877286e-21)
(0.46504025 -0.059128401 -3.7999625e-21)
(0.47426937 -0.058252666 5.1175501e-21)
(0.48396752 -0.057299563 4.0888139e-21)
(0.49412274 -0.056288555 -3.4437729e-21)
(0.50472433 -0.05523821 3.5501256e-21)
(0.51576342 -0.054166159 3.6015755e-21)
(0.52723337 -0.053088967 -4.1811365e-21)
(0.53913011 -0.052021927 4.4186338e-22)
(0.55145242 -0.05097876 -3.8857971e-21)
(0.56420203 -0.049971216 1.1989268e-20)
(0.57738363 -0.049008583 9.4818701e-21)
(0.59100463 -0.048097118 1.9373478e-21)
(0.60507467 -0.047239442 -2.8281702e-21)
(0.61960485 -0.046433948 7.9533888e-21)
(0.6346066 -0.045674312 1.5334165e-20)
(0.65009019 -0.04494919 4.3034611e-21)
(0.66606283 -0.044242219 7.8652843e-21)
(0.68252647 -0.043532395 4.4953443e-21)
(0.69947532 -0.042794911 2.0933208e-21)
(0.71689329 -0.042002439 -4.1268666e-22)
(0.73475152 -0.04112679 8.2047093e-21)
(0.75300618 -0.040140793 1.8774148e-21)
(0.77159682 -0.039020134 8.2131801e-22)
(0.79044529 -0.037744805 1.2484741e-22)
(0.80945557 -0.036299634 4.0518421e-21)
(0.82851344 -0.034673263 4.3769905e-23)
(0.84748808 -0.032854569 2.1525823e-21)
(0.86622468 -0.030827719 -1.8308686e-22)
(0.88455538 -0.028565681 -1.7009601e-21)
(0.90223325 -0.026039024 -6.5739171e-22)
(0.91909262 -0.023214947 -1.5142509e-21)
(0.93452202 -0.020155284 6.7299087e-22)
(0.94912379 -0.016833625 -2.8387218e-22)
(0.95982542 -0.013991513 -1.8755155e-22)
(0.97463756 -0.0094258068 4.503868e-22)
(0.5271307 -0.040864951 3.5728597e-21)
(0.51813704 -0.048128523 -1.9524536e-20)
(0.51570419 -0.052838724 -2.4639912e-21)
(0.51592141 -0.055477916 5.7074684e-21)
(0.51552908 -0.057854517 3.3565407e-21)
(0.51509416 -0.060046351 2.4991606e-22)
(0.51531394 -0.061837755 6.9046329e-21)
(0.51619457 -0.063228768 8.1917133e-21)
(0.5176484 -0.064272152 1.0381396e-20)
(0.51968744 -0.0650011 -1.2136261e-20)
(0.5223385 -0.065442277 -2.3593334e-20)
(0.52560453 -0.065622695 -4.6241681e-21)
(0.52947722 -0.065569194 1.7629272e-20)
(0.53394651 -0.065308282 1.4204864e-20)
(0.53900082 -0.064865921 -6.1250458e-21)
(0.54462656 -0.06426727 8.8998997e-22)
(0.55080898 -0.063536702 -4.7047645e-21)
(0.55753316 -0.062697854 3.7423841e-21)
(0.56478466 -0.061773575 -3.2799178e-22)
(0.57255001 -0.060785839 -2.2953834e-21)
(0.58081721 -0.059755625 1.0328847e-20)
(0.58957602 -0.058702746 -7.6692826e-22)
(0.59881835 -0.057645596 9.3150686e-22)
(0.60853841 -0.056600803 -3.1367113e-22)
(0.61873282 -0.055582786 -6.0563045e-21)
(0.62940056 -0.054603206 6.1300395e-21)
(0.64054279 -0.053670334 2.4057298e-21)
(0.65216243 -0.05278837 -5.195309e-21)
(0.6642636 -0.051956775 -5.9957004e-21)