/*--------------------------------*- C++ -*----------------------------------*\
  =========                 |
  \\      /  F ield         | OpenFOAM: The Open Source CFD Toolbox
   \\    /   O peration     | Website:  https://openfoam.org
    \\  /    A nd           | Version:  6
     \\/     M anipulation  |
\*---------------------------------------------------------------------------*/
FoamFile
{
    version     2.0;
    format      ascii;
    class       volScalarField;
    location    "98";
    object      p;
}
// * * * * * * * * * * * * * * * * * * * * * * * * * * * * * * * * * * * * * //

dimensions      [0 2 -2 0 0 0 0];

internalField   nonuniform List<scalar> 
9200
(
-0.37820018
-0.36685248
-0.35675777
-0.34780761
-0.33906707
-0.33055004
-0.32233478
-0.31438877
-0.30664466
-0.29903051
-0.29147333
-0.28390406
-0.27626452
-0.26851469
-0.2606433
-0.25268566
-0.2447181
-0.23682846
-0.23004156
-0.22863923
-0.39606245
-0.38226343
-0.37022498
-0.35975494
-0.34964231
-0.33986851
-0.3305023
-0.32148037
-0.3127032
-0.30407241
-0.2954948
-0.28688813
-0.2781887
-0.26935732
-0.26038489
-0.25129638
-0.24212168
-0.23286051
-0.22419576
-0.21829321
-0.41434166
-0.39806851
-0.38413227
-0.37221282
-0.3607834
-0.34977484
-0.33923457
-0.32906085
-0.31911997
-0.30929104
-0.29946973
-0.28957396
-0.27955066
-0.26937889
-0.25906968
-0.24866172
-0.23819382
-0.22767496
-0.21750436
-0.20879701
-0.4326037
-0.41387556
-0.39810692
-0.38479967
-0.37207372
-0.3597929
-0.34797552
-0.33648087
-0.32514898
-0.31385183
-0.30249475
-0.29101952
-0.27940747
-0.26767726
-0.25587822
-0.2440802
-0.23234977
-0.22072586
-0.2094759
-0.19934099
-0.45021856
-0.42913849
-0.4116542
-0.39703624
-0.38302344
-0.36940185
-0.35616052
-0.34313043
-0.33014591
-0.31709889
-0.30393408
-0.29064534
-0.27727147
-0.26388635
-0.2505855
-0.23747188
-0.22463559
-0.21213517
-0.20015882
-0.18921397
-0.46636166
-0.44313822
-0.42411395
-0.4082747
-0.39296846
-0.37790358
-0.36305228
-0.34824288
-0.33333815
-0.31828634
-0.30310442
-0.28786302
-0.27267208
-0.2576628
-0.24296937
-0.22871385
-0.21499091
-0.20185644
-0.18943643
-0.17806767
-0.48002775
-0.45498833
-0.43466141
-0.41770096
-0.40108097
-0.38444792
-0.36778503
-0.35095869
-0.33390462
-0.31666678
-0.29936259
-0.28215326
-0.265219
-0.24873552
-0.23285528
-0.2176962
-0.20333397
-0.1897997
-0.17716025
-0.16561682
-0.49005295
-0.46365858
-0.4423397
-0.42438161
-0.40643401
-0.38811546
-0.36946282
-0.35043281
-0.33108251
-0.31158657
-0.29218016
-0.27311466
-0.25462595
-0.23691091
-0.22011431
-0.20432599
-0.18958312
-0.17587756
-0.16321818
-0.15169226
-0.49509493
-0.46787362
-0.44586272
-0.42698076
-0.40765154
-0.38752778
-0.36676002
-0.34545253
-0.32382334
-0.3021933
-0.28090877
-0.26028868
-0.24059374
-0.22201072
-0.20465041
-0.18855595
-0.17371522
-0.16007655
-0.14759485
-0.13625986
-0.49380318
-0.46621645
-0.4436828
-0.42383297
-0.40301167
-0.38098938
-0.35809575
-0.33462842
-0.31098012
-0.28760106
-0.26491147
-0.2432524
-0.2228666
-0.20389776
-0.18640228
-0.17036797
-0.15573383
-0.14241038
-0.13030574
-0.1193248
-0.26530619
-0.26998092
-0.27248951
-0.27324063
-0.27302637
-0.27203362
-0.27034384
-0.26804458
-0.26520804
-0.26188895
-0.25813137
-0.25397279
-0.24944634
-0.24458209
-0.23940829
-0.23395384
-0.22824961
-0.22231614
-0.21615245
-0.20984409
-0.26803921
-0.27229861
-0.27450041
-0.27503284
-0.27463548
-0.27348651
-0.27166544
-0.26925616
-0.26632728
-0.26293072
-0.25910809
-0.25489481
-0.25032209
-0.24541799
-0.24020818
-0.23472054
-0.2289934
-0.22304567
-0.21677001
-0.21014048
-0.27336938
-0.2768166
-0.27842034
-0.27852498
-0.27776867
-0.27631412
-0.27423735
-0.27161495
-0.26850862
-0.26496465
-0.26101982
-0.25670532
-0.2520486
-0.24707388
-0.24180198
-0.2362579
-0.23049142
-0.22452028
-0.21804532
-0.21080874
-0.28105678
-0.28334132
-0.28407941
-0.28355526
-0.28226599
-0.28035472
-0.27789353
-0.27494913
-0.27157356
-0.26780526
-0.26367416
-0.25920536
-0.25442075
-0.24933887
-0.24397372
-0.23834514
-0.23251484
-0.2265052
-0.21977064
-0.21168348
-0.29079904
-0.29162967
-0.29126606
-0.28992456
-0.28793335
-0.28541476
-0.28243769
-0.27905757
-0.27531501
-0.27123921
-0.26685187
-0.26216978
-0.25720733
-0.25197612
-0.24648204
-0.24073657
-0.23480939
-0.22873607
-0.22171186
-0.21259422
-0.30228232
-0.30142942
-0.29976285
-0.29743193
-0.29457911
-0.29130728
-0.28768439
-0.28375484
-0.27954728
-0.27507921
-0.27036154
-0.2654018
-0.26020558
-0.25477605
-0.24910994
-0.24320743
-0.23713822
-0.23095728
-0.22362876
-0.21337389
-0.31522763
-0.3125155
-0.30937903
-0.30590768
-0.30204942
-0.29789096
-0.29350311
-0.2889189
-0.28415226
-0.27920821
-0.27408617
-0.2687824
-0.26329188
-0.25760823
-0.25171911
-0.24561287
-0.23935202
-0.23301417
-0.22539551
-0.2140121
-0.32941892
-0.32471283
-0.31997273
-0.31523789
-0.31025766
-0.30510544
-0.29985529
-0.29452801
-0.28912279
-0.28363023
-0.27803538
-0.27232025
-0.26646617
-0.2604547
-0.25426381
-0.24787295
-0.24134186
-0.23479411
-0.22697721
-0.21469688
-0.34470312
-0.33788903
-0.33143353
-0.32533591
-0.31913946
-0.312903
-0.30670572
-0.30055569
-0.29443449
-0.28831508
-0.2821646
-0.2759466
-0.26962331
-0.26315597
-0.25650014
-0.24960791
-0.2425036
-0.23529339
-0.22672004
-0.21328112
-0.36098134
-0.35193633
-0.34364923
-0.33608424
-0.32856521
-0.32113614
-0.31388126
-0.30679363
-0.29983469
-0.29295815
-0.28611285
-0.27924562
-0.27230411
-0.26523685
-0.25798801
-0.25049316
-0.24269516
-0.23438741
-0.22391915
-0.20824896
-0.20269168
-0.1937412
-0.18478568
-0.17588913
-0.16699785
-0.15815352
-0.14940966
-0.14080135
-0.13235789
-0.12410788
-0.11607714
-0.10828786
-0.10075921
-0.09350753
-0.08654643
-0.079886799
-0.073536934
-0.067502641
-0.061787334
-0.056392143
-0.051316038
-0.04655597
-0.042107018
-0.037962557
-0.034114435
-0.030553159
-0.027268089
-0.02424763
-0.021479432
-0.018950575
-0.01664776
-0.014557482
-0.012666195
-0.010960464
-0.0094271131
-0.0080533492
-0.0068268967
-0.0057360871
-0.0047700535
-0.0039186273
-0.0031732039
-0.0025246388
-0.0019707433
-0.0014942628
-0.0011321985
-0.00077061204
-0.00076014474
-0.00012333292
-0.0017857735
0.0025121862
-0.20370215
-0.19435435
-0.18528977
-0.17640758
-0.16749828
-0.15862376
-0.14985548
-0.14122491
-0.13275887
-0.12448654
-0.116434
-0.10862334
-0.10107369
-0.093801489
-0.086820403
-0.080141381
-0.073772787
-0.067720486
-0.061987945
-0.056576334
-0.051484657
-0.046709885
-0.04224711
-0.038089707
-0.03422952
-0.030657041
-0.027361608
-0.024331602
-0.021554638
-0.019017763
-0.016707641
-0.014610724
-0.012713424
-0.011002266
-0.0094640294
-0.008085878
-0.0068554943
-0.0057611682
-0.0047919923
-0.0039377586
-0.0031898221
-0.002539002
-0.0019830518
-0.001504726
-0.0011407427
-0.00077782145
-0.00076381038
-0.00012943401
-0.0017713412
0.0024832682
-0.20582169
-0.19562311
-0.18634108
-0.17752762
-0.16859474
-0.15965954
-0.15084365
-0.14216907
-0.133656
-0.12533576
-0.11723567
-0.10937771
-0.1017811
-0.094462641
-0.087436263
-0.080713143
-0.074301851
-0.06820844
-0.062436529
-0.056987412
-0.051860181
-0.04705187
-0.042557604
-0.03837077
-0.034483196
-0.030885341
-0.027566494
-0.02451497
-0.02171831
-0.019163474
-0.016837033
-0.014725342
-0.012814712
-0.011091564
-0.0095425748
-0.0081548073
-0.0069158433
-0.0058138753
-0.0048379015
-0.0039776219
-0.0032243004
-0.0025686712
-0.0020083692
-0.0015261431
-0.0011581775
-0.00079240491
-0.00077132223
-0.00014148616
-0.0017430014
0.0024260421
-0.20889144
-0.19731594
-0.18771291
-0.17909851
-0.17017628
-0.1611644
-0.15229439
-0.14357087
-0.13499878
-0.12661451
-0.11844911
-0.11052459
-0.10286047
-0.095474396
-0.088381007
-0.081592001
-0.075116408
-0.068960688
-0.063128796
-0.057622291
-0.052440472
-0.04758052
-0.043037657
-0.038805318
-0.034875338
-0.03123815
-0.027882981
-0.024798061
-0.021970823
-0.019388102
-0.017036329
-0.014901712
-0.012970407
-0.011228675
-0.0096630354
-0.00826039
-0.0070081648
-0.0058944
-0.0049079452
-0.0040383568
-0.0032767566
-0.0026137451
-0.0020467764
-0.0015585803
-0.0011845557
-0.00081439988
-0.00078275214
-0.00015942074
-0.0017014707
0.0023417337
-0.21268457
-0.19916217
-0.18913591
-0.18092243
-0.17209626
-0.16301039
-0.15409735
-0.14534124
-0.13671557
-0.12826395
-0.12002593
-0.11202464
-0.10428006
-0.096811257
-0.08963428
-0.082761852
-0.076203848
-0.069967469
-0.06405729
-0.058475372
-0.053221407
-0.048292874
-0.043685209
-0.039391984
-0.035405103
-0.031715008
-0.028310886
-0.025180883
-0.022312311
-0.019691859
-0.017305785
-0.015140108
-0.013180783
-0.011413864
-0.0098256551
-0.008402848
-0.0071326575
-0.0060029175
-0.0050022768
-0.0041200963
-0.003347305
-0.0026743209
-0.0020983553
-0.0016021056
-0.001219937
-0.00084384222
-0.00079821067
-0.0001831029
-0.0016478567
0.0022322414
-0.21685358
-0.2008812
-0.19034081
-0.18276605
-0.17418222
-0.165054
-0.15612031
-0.14736605
-0.13871353
-0.13020795
-0.12190267
-0.11382531
-0.10599683
-0.098438185
-0.091167656
-0.084199757
-0.07754578
-0.071214131
-0.065210411
-0.05953753
-0.054195856
-0.0491834
-0.044495998
-0.040127505
-0.036070008
-0.032314038
-0.028848798
-0.02566238
-0.022741989
-0.020074162
-0.017644967
-0.015440207
-0.013445599
-0.011646948
-0.010030298
-0.0085820791
-0.0072892445
-0.0061393707
-0.0051208544
-0.0042228105
-0.0034359251
-0.0027503862
-0.0021630991
-0.0016567173
-0.0012643282
-0.00088072983
-0.00081780601
-0.00021235295
-0.001583556
0.0021000257
-0.2210007
-0.20229136
-0.19111584
-0.18435155
-0.17623348
-0.16716813
-0.15824807
-0.14953298
-0.14089669
-0.13236856
-0.12401436
-0.11587159
-0.10796456
-0.10031656
-0.092948828
-0.08587863
-0.079119473
-0.07268158
-0.066572101
-0.060795236
-0.055352403
-0.050242449
-0.045461853
-0.041004953
-0.036864168
-0.033030236
-0.029492455
-0.02623892
-0.02325676
-0.02053237
-0.018051626
-0.015800096
-0.013763234
-0.011926556
-0.010275809
-0.008797115
-0.0074771195
-0.0063030933
-0.0052631327
-0.0043460584
-0.0035422653
-0.0028416658
-0.002240798
-0.0017222623
-0.0013176297
-0.00092499269
-0.00084162606
-0.00024697397
-0.0015101656
0.0019479898
-0.22486485
-0.20378821
-0.19168532
-0.18549145
-0.17803573
-0.16926531
-0.16043696
-0.15178574
-0.14320299
-0.13469006
-0.12631175
-0.11811822
-0.11014152
-0.10240848
-0.09494368
-0.08776791
-0.080897683
-0.074345663
-0.06812105
-0.06222977
-0.056674666
-0.051455731
-0.046570351
-0.042013553
-0.037778261
-0.033855553
-0.030234922
-0.02690454
-0.023851506
-0.021062102
-0.018522019
-0.016216588
-0.01413098
-0.012250401
-0.010560265
-0.009046351
-0.0076949543
-0.0064929978
-0.0054282329
-0.0044891419
-0.0036657832
-0.0029477512
-0.0023311563
-0.0017985426
-0.0013797288
-0.00097657854
-0.00086980206
-0.00028682977
-0.0014294174
0.001779428
-0.22610346
-0.20561611
-0.19274463
-0.18612197
-0.17915375
-0.1709651
-0.16241335
-0.15389136
-0.14541571
-0.13697992
-0.12863161
-0.12042867
-0.11241426
-0.10462104
-0.097077563
-0.089808714
-0.082834871
-0.076171977
-0.06983201
-0.063823288
-0.058150681
-0.052815865
-0.047817597
-0.043151998
-0.038812832
-0.034791796
-0.03107881
-0.027662298
-0.024529469
-0.021666592
-0.019059243
-0.016692555
-0.01455144
-0.012620794
-0.010885686
-0.0093315262
-0.0079442292
-0.0067103309
-0.0056171961
-0.0046529229
-0.0038071865
-0.0030692167
-0.0024346345
-0.0018859135
-0.0014509107
-0.0010356395
-0.00090265529
-0.00033156241
-0.0013434143
0.0015986377
-0.21624162
-0.2048613
-0.19386176
-0.18577284
-0.17871542
-0.1713012
-0.16335587
-0.15519994
-0.14701234
-0.13881914
-0.13064807
-0.12255661
-0.11460029
-0.10682206
-0.099257744
-0.091938924
-0.084892274
-0.078139269
-0.071696614
-0.065576669
-0.059787736
-0.054334363
-0.049217667
-0.044435681
-0.039983681
-0.035854522
-0.032038978
-0.028526064
-0.025303353
-0.02235729
-0.01967347
-0.017236917
-0.015032334
-0.013044327
-0.011257622
-0.0096572413
-0.0082286878
-0.0069580699
-0.0058323193
-0.0048390991
-0.0039676496
-0.0032067803
-0.0025515659
-0.0019843633
-0.0015309432
-0.0011015863
-0.00093994139
-0.0003794324
-0.0012547116
0.0014111622
-0.19410374
-0.19880802
-0.19353311
-0.18462758
-0.17712356
-0.17011418
-0.16261225
-0.1547533
-0.1468032
-0.13882514
-0.13083871
-0.12289682
-0.11505875
-0.10737187
-0.099875191
-0.092603212
-0.085585583
-0.078846573
-0.072405405
-0.066276702
-0.060470794
-0.054994016
-0.049849056
-0.045035298
-0.040549177
-0.036384534
-0.032532956
-0.028984128
-0.025726164
-0.022745926
-0.020029327
-0.01756162
-0.015327655
-0.013312125
-0.011499785
-0.0098756417
-0.0084251434
-0.007134315
-0.0059899757
-0.0049796607
-0.0040924308
-0.0033169821
-0.0026479182
-0.0020680501
-0.0016003223
-0.0011614848
-0.00097200835
-0.00042721441
-0.0011637513
0.0012249737
-0.18355229
-0.18937012
-0.18589564
-0.17715611
-0.16995209
-0.16369461
-0.15699334
-0.14984848
-0.14255592
-0.13519073
-0.12776266
-0.12032029
-0.11292535
-0.10562891
-0.098473544
-0.091497569
-0.084734677
-0.078213143
-0.071956029
-0.065981597
-0.060303592
-0.054931528
-0.049871016
-0.045124123
-0.040689725
-0.036563867
-0.032740121
-0.029209942
-0.025963012
-0.022987577
-0.020270756
-0.017798846
-0.015557596
-0.013532459
-0.011708827
-0.010072237
-0.0086085643
-0.0073041774
-0.0061461503
-0.0051222214
-0.0042215208
-0.0034329312
-0.0027505968
-0.002158388
-0.0016754093
-0.0012276904
-0.0010060402
-0.00048308758
-0.0010613829
0.0010239906
-0.1748112
-0.17802959
-0.17575108
-0.16872991
-0.16237657
-0.15681316
-0.15087884
-0.1444642
-0.13783586
-0.13108894
-0.12423534
-0.11731746
-0.1103958
-0.10352326
-0.096744537
-0.090100319
-0.083627208
-0.077356696
-0.071315139
-0.065524081
-0.060000489
-0.054756979
-0.049802109
-0.045140715
-0.040774246
-0.036701119
-0.032917074
-0.029415529
-0.026187933
-0.023224102
-0.020512547
-0.018040781
-0.015795607
-0.013763384
-0.011930272
-0.01028245
-0.0088063246
-0.0074886906
-0.0063169499
-0.0052791051
-0.0043643963
-0.0035619433
-0.0028654015
-0.0022598378
-0.0017601239
-0.0013025373
-0.0010453487
-0.00054588366
-0.00095090603
0.00080357182
-0.16512983
-0.16573984
-0.16390697
-0.15896201
-0.15383881
-0.1490182
-0.14387515
-0.13827239
-0.13238727
-0.12632061
-0.1201001
-0.1137662
-0.10737602
-0.10098312
-0.094634019
-0.08837141
-0.082234385
-0.076257401
-0.070470006
-0.064897026
-0.059558729
-0.054470987
-0.049645508
-0.045090133
-0.040809141
-0.036803591
-0.033071659
-0.029608993
-0.026409061
-0.023463492
-0.020762411
-0.018294753
-0.016048562
-0.01401127
-0.012169954
-0.010511566
-0.0090231513
-0.0076920304
-0.0065060119
-0.0054534268
-0.0045236757
-0.0037061503
-0.0029940379
-0.0023736068
-0.0018554663
-0.0013861432
-0.0010911316
-0.00061292981
-0.00083998811
0.00057392397
-0.1545571
-0.15328777
-0.1514771
-0.14824704
-0.1444172
-0.14040159
-0.13605572
-0.13129707
-0.12620907
-0.12087475
-0.11533727
-0.10963969
-0.10383497
-0.097975517
-0.09210878
-0.086278717
-0.080526163
-0.074887971
-0.069396519
-0.064079704
-0.058961006
-0.054059569
-0.049390361
-0.044964394
-0.040788999
-0.036868121
-0.033202639
-0.029790703
-0.026628069
-0.023708445
-0.021023817
-0.018564777
-0.016320827
-0.014280667
-0.012432463
-0.010764097
-0.0092633888
-0.0079182983
-0.0067171384
-0.005648647
-0.0047024514
-0.0038682517
-0.0031388214
-0.002501572
-0.0019630275
-0.0014794489
-0.0011448189
-0.00068347776
-0.0007346811
0.00034327359
-0.14276697
-0.1407064
-0.1390105
-0.13705474
-0.13439581
-0.13121634
-0.1276577
-0.12372381
-0.11943675
-0.11485234
-0.11002148
-0.10498889
-0.099803
-0.094513854
-0.089168722
-0.083811786
-0.07848452
-0.07322518
-0.068068213
-0.063044012
-0.058178852
-0.053494869
-0.049010133
-0.044738783
-0.040691235
-0.036874424
-0.033292083
-0.029945045
-0.026831566
-0.023947645
-0.021287355
-0.018843162
-0.016606233
-0.014566732
-0.012714101
-0.011037311
-0.0095251094
-0.0081662221
-0.0069495801
-0.0058644204
-0.0049006792
-0.0040484089
-0.0033000544
-0.0026440772
-0.0020832516
-0.001582692
-0.0012073336
-0.00075699106
-0.00064100874
0.00012037392
-0.13006959
-0.12813863
-0.126791
-0.12574732
-0.12405206
-0.12168234
-0.11888411
-0.11572898
-0.11221377
-0.10836804
-0.10424171
-0.099881171
-0.095329392
-0.090631313
-0.085832843
-0.08097763
-0.076106788
-0.071258838
-0.066469285
-0.061770207
-0.057190013
-0.05275332
-0.048480915
-0.044389808
-0.040493348
-0.036801397
-0.033320555
-0.030054412
-0.027003834
-0.024167262
-0.021541018
-0.019119621
-0.016896087
-0.014862225
-0.013008923
-0.01132641
-0.0098045061
-0.0084328432
-0.0072010909
-0.0060990882
-0.0051171748
-0.0042458078
-0.0034772142
-0.0028007889
-0.0022160287
-0.0016957242
-0.0012792975
-0.00083295317
-0.0005649194
-8.5329919e-05
-0.11718074
-0.11583023
-0.11497141
-0.11458354
-0.11364385
-0.11200943
-0.10992206
-0.10748418
-0.10468904
-0.10154845
-0.098104533
-0.094401604
-0.090479503
-0.086377534
-0.082136797
-0.077799219
-0.073404925
-0.06899176
-0.064595208
-0.060248059
-0.055980037
-0.051817543
-0.047783521
-0.043897404
-0.040175149
-0.03662932
-0.033269249
-0.030101225
-0.027128731
-0.024352702
-0.021771806
-0.019382735
-0.01718049
-0.015158675
-0.013309778
-0.011625435
-0.010096683
-0.0087141969
-0.0074685088
-0.0063501684
-0.0053500226
-0.0044589937
-0.0036692213
-0.0029709121
-0.0023608521
-0.0018181599
-0.0013610485
-0.00091108283
-0.00051151501
-0.00026486969
-0.10464352
-0.10395969
-0.10361685
-0.10372302
-0.10337142
-0.10237435
-0.10092864
-0.099138031
-0.09699906
-0.094514024
-0.091715248
-0.088641713
-0.08532876
-0.081811363
-0.078126009
-0.074310244
-0.070401811
-0.066437186
-0.062450991
-0.058475773
-0.054541674
-0.050676093
-0.046903444
-0.043245012
-0.039718885
-0.036339969
-0.033120053
-0.030067941
-0.027189621
-0.024488481
-0.021965539
-0.019619705
-0.01744805
-0.015446075
-0.013607982
-0.01192694
-0.010395335
-0.009005005
-0.0077474683
-0.0066140932
-0.0055963416
-0.0046856688
-0.0038742694
-0.0031530531
-0.0025167089
-0.0019493003
-0.0014525254
-0.00099133057
-0.00048424701
-0.00041096776
-0.092743493
-0.092645804
-0.09277145
-0.093265289
-0.093375056
-0.092912882
-0.09202787
-0.090809998
-0.089258084
-0.08736967
-0.085167999
-0.082685025
-0.079950825
-0.076995275
-0.07385041
-0.070549635
-0.067126725
-0.063615497
-0.060048964
-0.056458658
-0.052874295
-0.049323465
-0.045831321
-0.042420349
-0.039110215
-0.035917692
-0.032856653
-0.029938122
-0.02717038
-0.024559121
-0.022107634
-0.019817021
-0.017686431
-0.01571331
-0.013893649
-0.012222239
-0.010692914
-0.0092987845
-0.0080324605
-0.0068862319
-0.0058522817
-0.0049226711
-0.0040897955
-0.0033451861
-0.0026820475
-0.0020881012
-0.0015532084
-0.0010738099
-0.00048436042
-0.00051921445
-0.081620971
-0.081979329
-0.08248744
-0.083283888
-0.083754513
-0.083729478
-0.08331981
-0.082597642
-0.081561374
-0.080205633
-0.078546012
-0.076607103
-0.074413219
-0.071988958
-0.069361252
-0.066559136
-0.063612514
-0.060551588
-0.057406686
-0.054207585
-0.050982864
-0.04775955
-0.044562808
-0.041415655
-0.038338732
-0.035350152
-0.032465418
-0.029697401
-0.027056381
-0.02455013
-0.022184047
-0.019961323
-0.017883135
-0.015948859
-0.014156299
-0.012501916
-0.01098106
-0.0095881943
-0.008317109
-0.0071611062
-0.006113187
-0.0051660939
-0.0043125654
-0.0035447063
-0.0028548112
-0.0022331591
-0.0016620815
-0.0011586166
-0.00051057417
-0.00058886472
-0.071336397
-0.072022729
-0.072817231
-0.073838723
-0.074584526
-0.074906643
-0.074887976
-0.074584068
-0.073991226
-0.07310166
-0.071924637
-0.070477822
-0.068779657
-0.066849423
-0.064708863
-0.062382142
-0.059894975
-0.057273878
-0.054545829
-0.051737998
-0.048877137
-0.045989049
-0.04309823
-0.040227566
-0.037398057
-0.034628598
-0.031935826
-0.029334032
-0.026835131
-0.024448684
-0.022181972
-0.020040107
-0.018026178
-0.016141426
-0.01438544
-0.012756353
-0.011251064
-0.0098654394
-0.0085945153
-0.0074326788
-0.0063738342
-0.0054114786
-0.0045388264
-0.0037485447
-0.0030325247
-0.0023827447
-0.0017776581
-0.001245688
-0.00055920278
-0.00062316612
-0.061901681
-0.062808789
-0.063800995
-0.064976513
-0.065922056
-0.066510119
-0.066802738
-0.066841716
-0.066620906
-0.066130373
-0.06537416
-0.064363801
-0.063112162
-0.061633357
-0.059944039
-0.058063457
-0.056012787
-0.053814552
-0.051492198
-0.049069755
-0.046571472
-0.0440213
-0.041442452
-0.038857061
-0.036285879
-0.033748011
-0.031260708
-0.028839213
-0.026496671
-0.024244088
-0.022090342
-0.020042241
-0.018104619
-0.016280461
-0.014571062
-0.012976197
-0.011494301
-0.010122664
-0.0088576081
-0.007694659
-0.0066286941
-0.0056540331
-0.0047644859
-0.0039533031
-0.0032123945
-0.0025348326
-0.0018980193
-0.0013346327
-0.00062465824
-0.00062888544
-0.05330202
-0.054345752
-0.055461152
-0.056728733
-0.057808323
-0.058590602
-0.059121791
-0.0594328
-0.05951544
-0.059358082
-0.058960556
-0.058329197
-0.057471894
-0.056397972
-0.055119282
-0.053650315
-0.052007698
-0.050209742
-0.048276104
-0.046227442
-0.044085044
-0.041870454
-0.039605042
-0.037309617
-0.035004108
-0.032707271
-0.030436439
-0.028207318
-0.026033842
-0.023928072
-0.021900155
-0.019958321
-0.018108928
-0.016356537
-0.014704029
-0.013152737
-0.011702593
-0.010352294
-0.0090994634
-0.0079407957
-0.0068721944
-0.0058888622
-0.004985309
-0.004155414
-0.0033914388
-0.0026871757
-0.0020209203
-0.0014246831
-0.00070036106
-0.00061515142
-0.045506619
-0.046622686
-0.047802037
-0.049110668
-0.050269053
-0.051183951
-0.051889521
-0.052408229
-0.052730536
-0.052843735
-0.052744428
-0.052434751
-0.051918375
-0.051200424
-0.050288414
-0.049192417
-0.047924711
-0.046499438
-0.044932347
-0.043240527
-0.041442067
-0.039555711
-0.037600511
-0.035595457
-0.033559132
-0.031509412
-0.029463191
-0.027436141
-0.025442521
-0.023495033
-0.021604721
-0.019780918
-0.018031239
-0.016361609
-0.014776328
-0.013278164
-0.011868465
-0.010547291
-0.0093135458
-0.0081651048
-0.0070989311
-0.006111159
-0.0051970859
-0.0043512804
-0.003566601
-0.0028373734
-0.0021439104
-0.0015146927
-0.00077978547
-0.00059172815
-0.038474088
-0.039614689
-0.040812882
-0.042122805
-0.043315427
-0.044311764
-0.045136869
-0.045806796
-0.046311367
-0.04663745
-0.046779375
-0.046736064
-0.046507821
-0.046096277
-0.045505222
-0.044740809
-0.043811336
-0.042727008
-0.041499762
-0.040143073
-0.038671694
-0.037101355
-0.035448457
-0.033729763
-0.03196207
-0.030161898
-0.028345215
-0.026527176
-0.024721901
-0.022942295
-0.021199899
-0.019504799
-0.01786556
-0.016289211
-0.014781261
-0.01334575
-0.011985323
-0.010701318
-0.0094938729
-0.0083620296
-0.0073038214
-0.0063163494
-0.0053957663
-0.0045373948
-0.0037348586
-0.0029829653
-0.0022644952
-0.0016032525
-0.00085745871
-0.00056723695
-0.032156991
-0.03328783
-0.034471919
-0.035753686
-0.036946119
-0.037982835
-0.038882115
-0.039655259
-0.040292056
-0.040779543
-0.041110643
-0.041281995
-0.041291381
-0.041137703
-0.040821715
-0.04034626
-0.039716157
-0.038938056
-0.038020346
-0.036973027
-0.035807528
-0.03453648
-0.03317346
-0.031732724
-0.030228937
-0.028676873
-0.027091147
-0.025485951
-0.023874821
-0.022270429
-0.020684407
-0.019127212
-0.017608021
-0.016134672
-0.014713634
-0.013350016
-0.012047593
-0.010808868
-0.0096351319
-0.0085265458
-0.0074822017
-0.0065001822
-0.0055775419
-0.0047104163
-0.0038932979
-0.0031215066
-0.0023802747
-0.0016888217
-0.00092957795
-0.00054776002
-0.02650527
-0.027602882
-0.028749966
-0.029982975
-0.031149828
-0.03219519
-0.033132374
-0.033969225
-0.034695974
-0.035300296
-0.035774441
-0.036113585
-0.036313771
-0.03637192
-0.036286459
-0.036057582
-0.035687212
-0.03517894
-0.034537993
-0.03377118
-0.032886777
-0.031894374
-0.030804685
-0.029629332
-0.028380616
-0.027071276
-0.025714231
-0.02432233
-0.022908123
-0.021483639
-0.020060199
-0.018648245
-0.017257212
-0.015895423
-0.014570025
-0.013286952
-0.012050916
-0.010865423
-0.0097328057
-0.0086542654
-0.007629912
-0.0066588002
-0.0057389083
-0.0048672275
-0.0040391725
-0.0032506459
-0.0024890612
-0.00176988
-0.00099415515
-0.00053626352
-0.021468547
-0.022517979
-0.023613238
-0.024784187
-0.025907784
-0.026938307
-0.027885437
-0.028754555
-0.029536655
-0.03022039
-0.030797907
-0.031263594
-0.031612444
-0.031840067
-0.03194324
-0.031920164
-0.03177048
-0.031495269
-0.031097077
-0.030579907
-0.029949181
-0.029211642
-0.02837523
-0.027448934
-0.026442606
-0.025366771
-0.024232407
-0.023050728
-0.021832961
-0.020590132
-0.019332877
-0.018071257
-0.016814603
-0.015571392
-0.014349143
-0.013154346
-0.01199242
-0.010867686
-0.0097833644
-0.0087415894
-0.0077434151
-0.0067888318
-0.0058767345
-0.0050049913
-0.004169955
-0.0033681884
-0.0025889391
-0.0018450266
-0.0010506653
-0.00053288738
-0.016998007
-0.017990841
-0.019025793
-0.020127222
-0.021196253
-0.022195471
-0.0231319
-0.024009172
-0.024819235
-0.025551925
-0.026199698
-0.026756681
-0.027217365
-0.027576626
-0.027830188
-0.027974864
-0.028008607
-0.027930554
-0.027741082
-0.027441848
-0.027035797
-0.026527125
-0.025921212
-0.025224529
-0.024444517
-0.02358943
-0.022668178
-0.021690139
-0.020664967
-0.019602396
-0.018512054
-0.017403286
-0.016284986
-0.015165451
-0.014052266
-0.012952192
-0.0118711
-0.010813907
-0.0097845475
-0.0087859419
-0.0078199875
-0.0068875416
-0.0059883805
-0.0051212429
-0.0042834096
-0.0034721692
-0.0026782939
-0.0019130416
-0.001099451
-0.0005358862
-0.01304746
-0.013980193
-0.014951217
-0.015980237
-0.01698852
-0.017945799
-0.018857124
-0.019724888
-0.020542068
-0.021299772
-0.021991036
-0.022610099
-0.02315137
-0.023609446
-0.023979491
-0.024257453
-0.024440139
-0.024525272
-0.024511573
-0.024398831
-0.024187942
-0.023880924
-0.023480895
-0.02299203
-0.022419493
-0.021769335
-0.021048376
-0.020264066
-0.019424331
-0.018537405
-0.017611661
-0.016655446
-0.015676916
-0.014683894
-0.013683724
-0.01268316
-0.011688259
-0.010704305
-0.0097357353
-0.0087860973
-0.0078579955
-0.0069530596
-0.0060718819
-0.0052140387
-0.0043777067
-0.0035609447
-0.0027558249
-0.0019729125
-0.0011411264
-0.00054275098
-0.0095749003
-0.010447566
-0.011354615
-0.012311751
-0.013257069
-0.01416642
-0.01504337
-0.015889411
-0.016698539
-0.017463139
-0.018176974
-0.018834641
-0.019430757
-0.019959974
-0.020417277
-0.020798181
-0.021098797
-0.021315906
-0.021447045
-0.021490599
-0.021445856
-0.021313052
-0.021093393
-0.020789053
-0.020403141
-0.019939659
-0.019403422
-0.018799961
-0.018135419
-0.017416411
-0.016649888
-0.01584299
-0.0150029
-0.014136699
-0.013251229
-0.012352965
-0.011447899
-0.010541438
-0.0096383167
-0.0087425172
-0.0078572023
-0.0069846504
-0.0061261812
-0.0052821468
-0.0044515736
-0.003633307
-0.0028205782
-0.0020238608
-0.0011762137
-0.00055110948
-0.006542337
-0.0073575993
-0.008203326
-0.0090917493
-0.0099750344
-0.01083425
-0.011671813
-0.012488537
-0.013279377
-0.014037926
-0.014758729
-0.015436879
-0.016067384
-0.01664517
-0.017165323
-0.017623242
-0.018014705
-0.018335941
-0.018583717
-0.018755428
-0.018849166
-0.01886379
-0.018798962
-0.01865518
-0.018433788
-0.01813696
-0.01776767
-0.017329638
-0.016827254
-0.016265492
-0.015649802
-0.01498599
-0.014280095
-0.013538259
-0.0127666
-0.011971083
-0.011157402
-0.010330864
-0.0094962858
-0.0086578973
-0.007819249
-0.0069831338
-0.0061514822
-0.0053253456
-0.0045045307
-0.0036886617
-0.0028720394
-0.0020654097
-0.0012050534
-0.00055920227
-0.0039175659
-0.0046796307
-0.0054683592
-0.006292912
-0.007117218
-0.0079267814
-0.0087231071
-0.0095064781
-0.010272706
-0.011016484
-0.011733129
-0.012418284
-0.013067438
-0.013675925
-0.014239106
-0.014752488
-0.015211782
-0.015612969
-0.015952375
-0.01622676
-0.016433387
-0.016570102
-0.016635382
-0.01662839
-0.016549007
-0.016397852
-0.016176281
-0.01588637
-0.015530879
-0.015113197
-0.014637279
-0.014107548
-0.01352881
-0.012906137
-0.012244762
-0.011549961
-0.010826933
-0.010080687
-0.0093159273
-0.0085369472
-0.0077475216
-0.006950804
-0.0061492191
-0.0053444103
-0.0045368913
-0.0037270232
-0.0029101142
-0.0020973616
-0.0012278264
-0.00056593147
-0.0016749509
-0.0023896201
-0.0031273029
-0.0038945323
-0.0046650071
-0.0054279469
-0.006184117
-0.0069333679
-0.0076722491
-0.0083964189
-0.0091019077
-0.0097849029
-0.010441398
-0.011067192
-0.011658013
-0.012209616
-0.012717823
-0.013178582
-0.01358803
-0.013942572
-0.014238947
-0.014474304
-0.014646261
-0.014752968
-0.014793154
-0.014766169
-0.01467201
-0.014511331
-0.014285439
-0.013996273
-0.01364637
-0.013238812
-0.012777158
-0.012265364
-0.01170769
-0.011108604
-0.010472674
-0.0098044566
-0.009108385
-0.008388655
-0.0076491084
-0.0068931216
-0.0061234789
-0.0053423123
-0.0045507407
-0.0037498083
-0.0029357517
-0.0021202891
-0.0012450272
-0.00057093396
0.0002096266
-0.00046346768
-0.0011563146
-0.0018730689
-0.0025954886
-0.0033159032
-0.004034476
-0.0047506909
-0.0054617094
-0.0061640103
-0.0068542502
-0.0075291171
-0.0081850857
-0.0088184162
-0.0094252378
-0.010001617
-0.01054359
-0.01104721
-0.011508595
-0.011924
-0.012289871
-0.012602916
-0.012860167
-0.013059041
-0.013197402
-0.013273612
-0.013286569
-0.013235751
-0.013121226
-0.012943667
-0.012704339
-0.012405084
-0.012048276
-0.011636771
-0.011173841
-0.010663094
-0.010108386
-0.0095137208
-0.0088831416
-0.0082206189
-0.0075299316
-0.0068145469
-0.0060774889
-0.0053212569
-0.0045474824
-0.0037577969
-0.0029492933
-0.0021341804
-0.0012564692
-0.00057371636
0.0017332626
0.0010939464
0.00043791746
-0.000237227
-0.00091966704
-0.001604178
-0.0022904266
-0.0029775989
-0.0036633467
-0.0043448133
-0.005019173
-0.0056835408
-0.0063348128
-0.0069696664
-0.0075846101
-0.0081760312
-0.0087402176
-0.0092733964
-0.0097717712
-0.010231578
-0.010649135
-0.011020904
-0.011343545
-0.011613986
-0.011829474
-0.011987643
-0.012086559
-0.012124776
-0.01210137
-0.01201597
-0.011868768
-0.011660531
-0.011392588
-0.011066801
-0.010685521
-0.010251537
-0.0097679941
-0.0092383192
-0.0086661164
-0.0080550617
-0.0074087862
-0.0067307534
-0.0060241221
-0.0052916604
-0.0045353983
-0.0037574665
-0.0029556963
-0.0021427252
-0.0012647558
-0.0005755922
0.0029367955
0.0023252548
0.0016993601
0.0010583364
0.00040897558
-0.00024545684
-0.00090424211
-0.0015663155
-0.0022296996
-0.0028920557
-0.0035509685
-0.0042038965
-0.0048480818
-0.0054805516
-0.0060981425
-0.0066975331
-0.0072752565
-0.0078277326
-0.0083512941
-0.008842234
-0.0092968431
-0.0097114679
-0.010082557
-0.010406727
-0.010680813