/*--------------------------------*- C++ -*----------------------------------*\
  =========                 |
  \\      /  F ield         | OpenFOAM: The Open Source CFD Toolbox
   \\    /   O peration     | Website:  https://openfoam.org
    \\  /    A nd           | Version:  6
     \\/     M anipulation  |
\*---------------------------------------------------------------------------*/
FoamFile
{
    version     2.0;
    format      ascii;
    class       surfaceScalarField;
    location    "98";
    object      phi_0;
}
// * * * * * * * * * * * * * * * * * * * * * * * * * * * * * * * * * * * * * //

dimensions      [0 3 -1 0 0 0 0];

internalField   nonuniform List<scalar> 
18180
(
0.00031876529
-0.00016323118
-0.00015553411
0.0013093553
-0.0013672081
0.00037661809
0.0030332168
-0.0033342127
0.0016103513
0.0055503685
-0.0059769284
0.0034597766
0.0089191423
-0.0092404987
0.0058717249
0.013194195
-0.013081469
0.0088064166
0.018423847
-0.017462368
0.012232715
0.024647116
-0.022348975
0.016125706
0.031890561
-0.027707194
0.020463749
0.040165212
-0.033500432
0.02522578
0.049463881
-0.039687843
0.030389174
0.059759235
-0.046223411
0.035928056
0.071003034
-0.053055851
0.041812052
0.083126982
-0.060129373
0.048005425
0.096045817
-0.067385382
0.054466548
0.10966315
-0.074765254
0.061147926
0.12387946
-0.082213997
0.067997679
0.13860739
-0.089684563
0.074956639
0.15384545
-0.097159809
0.081921742
-0.10463736
0.088690583
0.16979223
0.00039753811
-0.0005607693
0.0016097571
-0.0025794271
0.0036896844
-0.0054141401
0.0066880984
-0.0089753424
0.01065168
-0.01320408
0.015619353
-0.018049142
0.021618273
-0.023461288
0.028659867
-0.029390569
0.036736197
-0.035783525
0.045817066
-0.0425813
0.055848278
-0.049719054
0.066751427
-0.05712656
0.07842545
-0.064729874
0.090750029
-0.072453951
0.10359064
-0.080225993
0.11680464
-0.087979259
0.13024748
-0.095656834
0.14377944
-0.10321652
0.15726459
-0.11064496
-0.11787264
0.17049986
0.00048066923
-0.0010414386
0.0019188766
-0.0040176345
0.004352876
-0.0078481395
0.0078172638
-0.01243973
0.012338748
-0.017725565
0.017930746
-0.023641139
0.0245883
-0.030118843
0.032283813
-0.037086082
0.04096401
-0.044463722
0.050548643
-0.052165933
0.060931294
-0.060101705
0.071982454
-0.06817772
0.083554753
-0.076302173
0.09548993
-0.084389128
0.1076268
-0.092362866
0.11980919
-0.10016164
0.13189256
-0.10774021
0.14374749
-0.11507145
0.15525199
-0.12214946
-0.12892417
0.16630352
0.0005662197
-0.0016076583
0.0022281336
-0.0056795484
0.0050010303
-0.010621036
0.008894738
-0.016333438
0.013906364
-0.022737191
0.020013421
-0.029748197
0.027168495
-0.037273917
0.035295901
-0.045213488
0.044290796
-0.053458617
0.054021116
-0.061896253
0.064332371
-0.07041296
0.075054976
-0.078900325
0.086013419
-0.087260616
0.097036281
-0.09541199
0.10796597
-0.10329255
0.11866701
-0.11086269
0.1290321
-0.11810529
0.13898468
-0.12502403
0.14847577
-0.13164055
-0.13795414
0.15750574
0.00065093951
-0.0022585978
0.002524541
-0.00755315
0.0056040638
-0.013700559
0.0098651964
-0.020594571
0.015265701
-0.028137695
0.021737891
-0.036220387
0.029184362
-0.044720387
0.03747715
-0.053506276
0.046460577
-0.062442044
0.055957642
-0.071393318
0.06577935
-0.080234668
0.075735906
-0.08885688
0.085648435
-0.097173145
0.095359781
-0.10512334
0.10474312
-0.11267589
0.11370749
-0.11982706
0.12219994
-0.12659775
0.13020432
-0.13302841
0.13773689
-0.13917311
-0.1450756
0.14485835
0.00073069096
-0.0029892888
0.002792288
-0.0096147471
0.006127
-0.017035271
0.010667422
-0.025134992
0.016323681
-0.033793954
0.022976605
-0.042873312
0.030476101
-0.052219884
0.038644328
-0.061674502
0.04728329
-0.071081006
0.056185896
-0.080295925
0.06514898
-0.089197751
0.073986483
-0.097694384
0.082541018
-0.10572768
0.090692355
-0.11327467
0.098361915
-0.12034545
0.10551308
-0.12697822
0.11214782
-0.13323248
0.11830063
-0.13918123
0.12403103
-0.14490352
-0.1504705
0.12942592
0.00080078651
-0.0037900754
0.0030141136
-0.011828074
0.0065333012
-0.020554459
0.011240712
-0.029842403
0.016993628
-0.03954687
0.023619732
-0.049499416
0.030919613
-0.059519764
0.038674849
-0.069429738
0.046660334
-0.079066491
0.054658868
-0.088294459
0.06247571
-0.097014593
0.06995086
-0.10516953
0.076967406
-0.11274423
0.083454983
-0.11976225
0.089388358
-0.12627882
0.094781874
-0.13237174
0.099681145
-0.13813175
0.1041536
-0.14365369
0.10827947
-0.14902939
-0.15434003
0.112149
0.00085611232
-0.0046461877
0.0031722467
-0.014144209
0.0067875986
-0.024169811
0.011530389
-0.034585193
0.01720423
-0.045220711
0.023587518
-0.055882704
0.030440951
-0.066373197
0.037520419
-0.076509206
0.044592794
-0.086138866
0.051451785
-0.09515345
0.057931084
-0.10349389
0.063912794
-0.11115124
0.069330142
-0.11816157
0.074164607
-0.12459672
0.078438541
-0.13055276
0.082204972
-0.13613817
0.085536478
-0.14146326
0.088514879
-0.14663209
0.091223024
-0.15173753
-0.15685787
0.09374086
0.00089031219
-0.0055365
0.0032484507
-0.016502347
0.0068579468
-0.027779307
0.011492955
-0.039220201
0.016907443
-0.050635199
0.022839617
-0.061814878
0.0290244
-0.07255798
0.03520989
-0.082694696
0.04117437
-0.092103346
0.046740533
-0.10071961
0.051784393
-0.10853775
0.056237667
-0.11560452
0.060083863
-0.12200777
0.0633494
-0.12786225
0.066091777
-0.13329513
0.068387024
-0.13843341
0.070318301
-0.14339454
0.07196703
-0.14828081
0.073407141
-0.15317764
-0.15815294
0.074702218
0.00089986246
-0.0064363625
0.0032335236
-0.018836008
0.0067294295
-0.031275213
0.011111556
-0.043602328
0.016092939
-0.055616582
0.021385084
-0.067107023
0.026714265
-0.077887162
0.031839319
-0.08781975
0.036567014
-0.09683104
0.040761836
-0.10491444
0.044348603
-0.11212452
0.04730799
-0.11856391
0.049666525
-0.12436631
0.051483397
-0.12967912
0.052836568
-0.1346483
0.053810327
-0.13940717
0.054485691
-0.1440699
0.054934279
-0.1487294
0.05521549
-0.15345885
0.055375407
-0.15831286
-0.00020239994
0.00020239997
1.7452399e-11
-0.00067781583
0.0004754159
4.0509729e-11
-0.0013425582
0.00066474234
6.30971e-11
-0.0021324971
0.0007899389
8.4639852e-11
-0.0029960479
0.00086355072
1.0716167e-10
-0.003891083
0.00089503502
1.2811417e-10
-0.0047826979
0.00089161479
1.498272e-10
-0.0056413418
0.00085864376
1.6761137e-10
-0.0064413467
0.00080000485
1.8407401e-10
-0.0071597768
0.00071842987
1.944145e-10
-0.007775509
0.00061573208
2.0275701e-10
-0.0082684986
0.00049298934
2.0447372e-10
-0.0086191984
0.00035069967
2.0413053e-10
-0.0088081262
0.00018892765
1.9674858e-10
-0.0088156089
7.4825254e-06
1.8696375e-10
-0.0086218064
-0.0001938027
1.6933021e-10
-0.0082069753
-0.00041483125
1.4775101e-10
-0.0075510637
-0.0006559117
1.1799081e-10
-0.0066333053
-0.00091775847
8.3659884e-11
-0.0011867665
-0.0054465389
4.0648308e-11
-0.00018799355
0.00039039355
-0.00062506734
0.00091248973
-0.0012288667
0.0012685417
-0.0019353651
0.0014964373
-0.0026923645
0.0016205502
-0.003456556
0.0016592265
-0.0041913726
0.0016264314
-0.0048651797
0.0015324509
-0.0054498374
0.0013846625
-0.0059195647
0.0011881572
-0.0062500244
0.00094619182
-0.0064175808
0.00066054578
-0.006398695
0.00033181385
-0.0061694454
-4.032194e-05
-0.0057052028
-0.00045676004
-0.00498055
-0.00091845548
-0.0039694977
-0.0014258836
-0.0026454048
-0.0019800045
-0.00098082938
-0.0025823339
-0.0032030534
0.0010354575
-0.00015894198
0.00054933555
-0.00051893436
0.0012724821
-0.0010008469
0.0017504543
-0.0015413676
0.0020369581
-0.0020874801
0.0021666627
-0.0025938717
0.0021656182
-0.0030209893
0.002053549
-0.0033333714
0.0018448331
-0.0034983027
0.0015495938
-0.0034847373
0.0011745919
-0.0032624153
0.00072386985
-0.0028011424
0.00019927291
-0.0020701563
-0.00039917223
-0.0010376127
-0.0010728656
0.0003298445
-0.0018242172
0.0020673593
-0.0026559703
0.0042118238
-0.0035703482
0.0068015722
-0.0045697529
0.0098763112
-0.005657073
-0.0067820782
0.013455336
-0.00011757446
0.00066691004
-0.00036701806
0.0015219258
-0.00067354116
0.0020569774
-0.00097484952
0.0023382665
-0.0012168554
0.0024086686
-0.0013515471
0.0023003099
-0.0013353314
0.0020373333
-0.0011275784
0.0016370801
-0.00068942498
0.0011114404
1.7177406e-05
0.0004679895
0.0010302471
-0.00028919988
0.0023884194
-0.0011588993
0.0041314913
-0.0021422441
0.0063009036
-0.003242278
0.008940247
-0.0044635606
0.012095818
-0.0058115417
0.015816996
-0.007291526
0.020155939
-0.0089086959
0.025167374
-0.010668508
-0.012496393
0.030881689
-6.6907755e-05
0.00073381783
-0.0001791595
0.0016341776
-0.00026650494
0.0021443229
-0.00026761848
0.0023393801
-0.00012704736
0.0022680975
0.0002064253
0.0019668373
0.00078110917
0.0014626495
0.0016435763
0.00077461301
0.0028396308
-8.461408e-05
0.0044150949
-0.0011074746
0.0064163724
-0.0022904774
0.008890865
-0.003633392
0.011887298
-0.0051386769
0.015456049
-0.0068110289
0.019649522
-0.0086570344
0.02452277
-0.01068479
0.030134368
-0.012903124
0.036546926
-0.015321254
0.043827854
-0.017949436
-0.020688035
0.052019496
-9.9773515e-06
0.0007437952
3.4569037e-05
0.0015896312
0.00019997723
0.0019789147
0.00054693931
0.001992418
0.0011325485
0.0016824883
0.0020114599
0.0010879259
0.0032368544
0.00023725494
0.0048613221
-0.00084985463
0.0069375192
-0.0021608112
0.009518543
-0.0036884983
0.012658139
-0.0054300739
0.016410808
-0.0073860607
0.020831729
-0.0095595975
0.025976599
-0.011955899
0.031901535
-0.014581971
0.038663373
-0.017446628
0.046320852
-0.020560602
0.054936673
-0.023937075
0.064581333
-0.027594096
-0.031412926
0.075306225
5.0765433e-05
0.00069302979
0.00026571748
0.0013746792
0.00070839727
0.0015362349
0.0014393011
0.0012615143
0.0025172713
0.00060451802
0.0040002586
-0.00039506129
0.0059459175
-0.001708404
0.0084119961
-0.0033159332
0.011456465
-0.0052052805
0.015137488
-0.0073695214
0.019513152
-0.0098057375
0.024640939
-0.012513847
0.03057699
-0.015495649
0.037375211
-0.018754119
0.04508633
-0.02229309
0.053757359
-0.026117657
0.063432402
-0.030235646
0.074156049
-0.034660721
0.085982317
-0.039420364
-0.044397558
0.098966948
0.00011381653
0.00057921329
0.00050858652
0.0009799092
0.0012461767
0.00079864477
0.0023871383
0.00012055266
0.0039918306
-0.0010001742
0.0061207654
-0.002523996
0.0088345877
-0.0044222263
0.012193899
-0.0066752442
0.01625885
-0.0092702322
0.0210884
-0.012199071
0.026739269
-0.015456607
0.033264622
-0.0190392
0.04071247
-0.022943498
0.049123871
-0.02716552
0.058531027
-0.031700245
0.068955659
-0.036542289
0.080408829
-0.041688815
0.09289405
-0.047145943
0.10641879
-0.052945107
-0.059006107
0.12102734
0.00017852143
0.00040069187
0.00076013399
0.00039829666
0.0018055797
-0.00024680089
0.0033751556
-0.0014490232
0.0055297096
-0.0031547283
0.0083303839
-0.0053246703
0.011837989
-0.0079298319
0.016112083
-0.010949338
0.021209687
-0.014367836
0.027183664
-0.018173047
0.034080789
-0.022353733
0.041939551
-0.026897962
0.050787718
-0.031791664
0.060639702
-0.037017505
0.071493709
-0.042554252
0.083328726
-0.048377307
0.09610232
-0.054462409
0.10975197
-0.060795594
0.12420855
-0.06740169
-0.074285932
0.13948838
0.00024515776
0.0010200725
0.0023836229
0.0043943763
0.0071113729
0.010593119
0.014896003
0.020072371
0.026168284
0.033221017
0.041256459
0.050286553
0.060306941
0.071294861
0.083207157
0.095977776
0.10951305
0.12367409
0.13819414
0.15259879
-0.0035052685
-0.0019412704
-2.170139e-11
-0.001282746
-0.0022225224
-1.1838183e-10
0.0011986994
-0.0024814452
-2.241287e-10
0.003882164
-0.0026834643
-3.3833591e-10
0.0067408459
-0.0028586814
-4.5612701e-10
0.0097574434
-0.003016597
-5.7567356e-10
0.012913026
-0.0031555816
-6.9055765e-10
0.016189573
-0.0032765466
-7.9588212e-10
0.019571388
-0.0033818136
-8.8501701e-10
0.023044254
-0.0034728656
-9.5046474e-10
0.02659489
-0.0035506349
-9.8677615e-10
0.030210875
-0.0036159836
-9.8693673e-10
0.033880569
-0.0036696937
-9.4628467e-10
0.037592983
-0.0037124125
-8.5953743e-10
0.041337669
-0.0037446852
-7.2523465e-10
0.045104661
-0.0037669921
-5.4247885e-10
0.048884427
-0.0037797652
-3.1539462e-10
0.052667829
-0.003783402
-4.8775972e-11
0.056446108
-0.0037782799
2.4770009e-10
0.060210876
-0.0037647679
5.6471758e-10
0.06395411
-0.0037432353
8.8865146e-10
0.067668167
-0.0037140578
1.2080092e-09
0.071345787
-0.0036776215
1.5076448e-09
0.07498011
-0.0036343254
1.7767051e-09
0.078564689
-0.003584581
2.0000952e-09
0.082093499
-0.0035288118
2.1686914e-09
0.085560947
-0.0034674505
2.2664083e-09
0.088961882
-0.0034009367
2.2850622e-09
0.092291593
-0.0033297131
2.2052857e-09
0.095545812
-0.0032542218
2.0203501e-09
0.098720712
-0.0031749012
1.7091828e-09
0.10181289
-0.0030921827
1.2744387e-09
0.10481938
-0.0030064877
7.0303978e-10
0.10773761
-0.0029182261
2.3561867e-11
0.1105654
-0.0028277949
-7.5436265e-10
0.11330098
-0.0027355783
-1.5563824e-09
0.11594293
-0.0026419488
-2.3458585e-09
0.11849021
-0.0025472702
-2.9941774e-09
0.12094211
-0.0024519046
-3.4669033e-09
0.12329833
-0.002356214
-3.5854281e-09
0.12555894
-0.0022606031
-3.3680489e-09
0.12772438
-0.002165443
-2.7212468e-09
0.12979584
-0.0020714564
-1.7637369e-09
0.13177449
-0.0019786455
-4.6124345e-10
0.13366472
-0.0018902288
1.0269552e-09
0.13546525
-0.001800533
2.4847875e-09
0.13720123
-0.0017359865
3.6308797e-09
0.13882837
-0.0016271435
4.2783117e-09
0.14054959
-0.0017212251
4.0985376e-09
-0.0013714466
2.6429144e-09
0.0028567409
-0.0037625538
0.0049546409
-0.0043204225
0.0072983468
-0.0048251512
0.0098254117
-0.0052105292
0.012514776
-0.0055480457
0.015354119
-0.0058559404
0.018326705
-0.0061281669
0.021416129
-0.0063659705
0.024608376
-0.0065740609
0.027890688
-0.0067551776
0.031250937
-0.0069108839
0.034677646
-0.0070426928
0.038159963
-0.0071520107
0.041687547
-0.0072399961
0.045250485
-0.0073076232
0.04883925
-0.0073557573
0.05244467
-0.0073851855
0.056057908
-0.0073966403
0.059670454
-0.0073908255
0.063274124
-0.0073684374
0.066861068
-0.0073301801
0.070423787
-0.0072767766
0.073955141
-0.0072089752
0.077448368
-0.0071275528
0.080897102
-0.0070333147
0.084295381
-0.0069270912
0.087637664
-0.0068097335
0.090918835
-0.0066821073
0.094134207
-0.0065450854
0.097279526
-0.0063995409
0.10035097
-0.0062463402
0.10334512
-0.006086336
0.10625899
-0.0059203627
0.10909
-0.0057492322
0.11183594
-0.0055737311
0.11449498
-0.0053946216
0.11706567
-0.0052126437
0.11954692
-0.0050285202
0.12193799
-0.0048429725
0.1242385
-0.0046567207
0.12644847
-0.0044705738
0.1285683
-0.0042852717
0.1305991
-0.0041022578
0.132542
-0.0039215406
0.13440129
-0.0037495253
0.13617572
-0.0035749639
0.13788998
-0.003450241
0.13950079
-0.0032379571
0.14120592
-0.0034263548
-0.0027404185
0.015027381
-0.0053345988
0.016859262
-0.0061523037
0.018913663
-0.0068795521
0.021120651
-0.0074175177
0.023468596
-0.00789599
0.025953849
-0.0083411933
0.028563796
-0.0087381144
0.031284962
-0.0090871362
0.034106249
-0.0093953481
0.037017432
-0.0096663607
0.040008395
-0.0099018467
0.043069281
-0.010103579
0.046190572
-0.010273301
0.049363017
-0.010412441
0.052577593
-0.010522199
0.055825495
-0.010603659
0.059098139
-0.01065783
0.062387173
-0.010685674
0.065684483
-0.010688135
0.068982213
-0.010666167
0.072272787
-0.010620755
0.075548932
-0.010552921
0.078803696
-0.010463739
0.082030475
-0.010354332
0.08522303
-0.01022587
0.088375505
-0.010079566
0.091482438
-0.0099166664
0.094538775
-0.0097384441
0.097539872
-0.0095461824
0.1004815
-0.0093411689
0.10335984
-0.0091246809
0.10617148
-0.0088979784
0.10891341
-0.008662295
0.11158301
-0.0084188319
0.11417804
-0.0081687552
0.11669661
-0.0079131953
0.11913722
-0.0076532517
0.1214987
-0.0073899998
0.12378024
-0.0071245149
0.12598139
-0.0068578723
0.1281021
-0.006591282
0.13014268
-0.0063258532
0.13210417
-0.0060637431
0.13398761
-0.0058049833
0.13579717
-0.0055590828
0.13753167
-0.005309464
0.13921484
-0.0051334125
0.14080575
-0.0048288624
0.14249156
-0.0051121661
-0.0041176474
0.032065726
-0.0065186364
0.033481726
-0.0075683034
0.0350881
-0.008485926
0.036811872
-0.00914129
0.038653732
-0.0097378502
0.040619983
-0.010307444
0.042703458
-0.010821589
0.044894639
-0.011278316
0.047185952
-0.011686661
0.049570175
-0.012050584
0.052039605
-0.012371277
0.054586291
-0.012650265
0.057202228
-0.012889238
0.059879378
-0.013089591
0.062609686
-0.013252507
0.065385114
-0.013379087
0.068197689
-0.013470405
0.071039542
-0.013527527
0.073902948
-0.013551542
0.076780369
-0.013543587
0.079664481
-0.013504867
0.082548219
-0.013436659
0.085424802
-0.013340323
0.088287767
-0.013217297
0.091130987
-0.01306909
0.093948696
-0.012897275
0.096735506
-0.012703476
0.099486414
-0.012489352
0.10219681
-0.012256581
0.10486249
-0.012006849
0.10747964
-0.01174183
0.11004484
-0.011463178
0.11255506
-0.011172512
0.11500764
-0.010871412
0.1174003
-0.010561414
0.11973111
-0.010244007
0.1219985
-0.0099206424
0.12420124
-0.0095927433
0.12633846
-0.0092617339
0.12840963
-0.008929043
0.13041463
-0.0085962792
0.1323537
-0.0082649222
0.13422779
-0.0079378358
0.13603791
-0.0076150992
0.13778803
-0.0073092026
0.13947717
-0.0069986072
0.1411277
-0.0067839372
0.14270214
-0.0064033048
0.14437243
-0.0067824574
-0.005519065
0.052660546
-0.0071596871
0.053501933
-0.00840969
0.054496898
-0.0094808913
0.055579762
-0.010224154
0.056765347
-0.010923435
0.058067952
-0.011610049
0.059486093
-0.01223973
0.061014906
-0.01280713
0.062650187
-0.013321942
0.064387342
-0.013787739
0.066220855
-0.01420479
0.068144463
-0.014573873
0.070151407
-0.014896182
0.072234591
-0.015172775
0.074386674
-0.01540459
0.07660015
-0.015592564
0.078867436
-0.015737691
0.081180946
-0.015841037
0.08353316
-0.015903756
0.085916687
-0.015927115
0.088324313
-0.015912492
0.090749048
-0.015861394
0.093184169
-0.015775444
0.095623252
-0.015656379
0.0980602
-0.015506038
0.10048927
-0.015326344
0.10290508
-0.015119291
0.10530265
-0.014886916
0.10767736
-0.01463129
0.110025
-0.014354489
0.11234175
-0.01405858
0.11462417
-0.013745602
0.11686922
-0.013417561
0.11907421
-0.013076406
0.12123684
-0.012724038
0.12335514
-0.012362305
0.1254275
-0.011993006
0.12745267
-0.01161791
0.12942972
-0.01123879
0.13135811
-0.010857428
0.13323766
-0.010475835
0.1350686
-0.010095863
0.13685185
-0.0097210762
0.13858838
-0.0093516332
0.14028203
-0.0090028514
0.14193212
-0.0086486958
0.14355934
-0.0084111556
0.14513065
-0.0079746192
0.14679912
-0.0084509249
-0.0069679515
0.07523593
-0.0070893929
0.075341651
-0.0085154103
0.075566817
-0.0097060573
0.075867956
-0.010525293
0.076273113
-0.011328592
0.076799143
-0.012136079
0.077449087
-0.012889674
0.07822288
-0.013580923
0.079118836
-0.014217898
0.080133811
-0.014802714
0.081263568
-0.015334547
0.082502815
-0.015813121
0.083845375
-0.016238741
0.085284473
-0.016611874
0.086812941
-0.016933057
0.088423332
-0.017202955
0.090108036
-0.017422395
0.091859383
-0.017592384
0.093669739
-0.017714113
0.095531577
-0.017788953
0.097437544
-0.017818459
0.099380509
-0.01780436
0.10135362
-0.017748556
0.10335033
-0.017653091
0.10536444
-0.017520148
0.10739011
-0.017352014
0.10942189
-0.017151064
0.1114547
-0.016919731
0.1134839
-0.016660488
0.11550522
-0.016375813
0.11751482
-0.016068174
0.11950922
-0.01574001
0.12148538
-0.015393712
0.12344058
-0.015031614
0.12537253
-0.014655987
0.12727927
-0.014269039
0.12915919
-0.013872927
0.13101105
-0.01346977
0.13283395
-0.013061697
0.13462738
-0.012650853
0.13639119
-0.01223965
0.13812566
-0.01183033
0.13983173
-0.011427142
0.14151047
-0.011030373
0.1431656
-0.010657985
0.14479688
-0.010279979
0.14642317
-0.010037442
0.14801658
-0.0095680327
0.14970887
-0.01014321
-0.0084964505
0.098040592
-0.0061630374
0.097274002
-0.0077488199
0.09659843
-0.0090304855
0.096014761
-0.0099416237
0.09555913
-0.010872961
0.095242775
-0.011819723
0.095071065
-0.012717965
0.095048009
-0.013557868
0.095173146
-0.014343035
0.095443215
-0.015072783
0.095853861
-0.015745193
0.09639968
-0.01635894
0.097074194
-0.016913255
0.097870175
-0.017407855
0.098779947
-0.017842829
0.099795545
-0.018218553
0.10090884
-0.018535691
0.10211166
-0.018795203
0.10339588
-0.018998336
0.10475353
-0.019146601
0.10617683
-0.019241761
0.10765828
-0.019285809
0.10919068
-0.019280957
0.11076719
-0.019229602
0.11238135
-0.019134305
0.1140271
-0.01899776
0.11569879
-0.018822757
0.11739122
-0.018612163
0.11909962
-0.018368881
0.12081963
-0.018095824
0.12254735
-0.017795893
0.12427928
-0.017471946
0.12601236
-0.017126788
0.1277439
-0.016763155
0.12947162
-0.016383709
0.13119362
-0.01599104
0.13290837
-0.015587675
0.1346147
-0.015176102
0.13631183
-0.014758822
0.13799932
-0.014338349
0.13967719
-0.013917521
0.14134584
-0.013498974
0.14300635
-0.013087651
0.14465997
-0.012683996
0.14631043
-0.012308448
0.14795805
-0.011927592
0.14961978
-0.011699174
0.15127339
-0.011221642
0.15302811
-0.011897935
-0.010146338
0.11920422
-0.0043399192
0.1175122
-0.0060567942
0.1158733
-0.0073915904
0.11437145
-0.0084397685
0.11304287
-0.0095443882
0.1118851
-0.010661946
0.11090359
-0.011736454
0.11010463
-0.01275891
0.10948764
-0.013726045
0.10904803
-0.014633172
0.10877999
-0.015477156
0.10867687
-0.01625582
0.10873108
-0.016967462
0.10893431
-0.017611085
0.10927784
-0.018186363
0.10975275
-0.018693457
0.11035
-0.019132945
0.11106061
-0.01950581
0.11187569
-0.019813421
0.11278659
-0.020057495
0.11378489
-0.020240067
0.11486255
-0.020363462
0.11601185
-0.020430266
0.11722554
-0.020443286
0.11849676
-0.020405524
0.11981913
-0.020320132
0.12118675
-0.020190379
0.1225942
-0.020019611
0.12403653
-0.019811215
0.12550929
-0.019568586
0.1270085
-0.019295096
0.12853062
-0.01899407
0.1300726
-0.018668764
0.13163179
-0.01832235
0.133206
-0.017957917
0.13479342
-0.017578463
0.13639266
-0.017186917
0.13800272
-0.016786161
0.13962299
-0.016379088
0.14125325
-0.015968615
0.14289375
-0.015558014
0.14454512
-0.015150345
0.14620871
-0.014751241
0.14788607
-0.014361357
0.14958104
-0.014003422
0.15129462
-0.013641165
0.15304194
-0.013446492
0.15480663
-0.01298634
0.15667532
-0.013766626
-0.011968941
0.13690981
-0.00176135
0.13439231
-0.0035392907
0.13183426
-0.0048335454
0.12947777
-0.0060832807
0.12735005
-0.0074166623
0.12543246
-0.0087443605
0.12372785
-0.010031843
0.12224131
-0.011272365
0.12097128
-0.012456023
0.11991202
-0.013573905
0.119056
-0.014621142
0.1183949
-0.015594718
0.11791972
-0.016492284
0.11762095
-0.017312308
0.11748871
-0.018054128
0.11751301
-0.018717758
0.11768384
-0.019303772
0.11799128
-0.019813252
0.11842562
-0.020247758
0.1189774
-0.02060928
0.11963753
-0.020900192
0.12039728
-0.021123215
0.12124839
-0.021281378
0.12218307
-0.021377967
0.12319404
-0.021416489
0.12427453
-0.021400625
0.12541833
-0.02133418
0.12661977
-0.021221047
0.12787371
-0.021065158
0.12917557
-0.020870449
0.1305213
-0.02064082
0.13190735
-0.020380116
0.13333067
-0.020092093
0.13478873
-0.01978041
0.13627944
-0.019448622
0.13780116
-0.01910018
0.1393527
-0.018738456
0.14093329
-0.018366755
0.1425426
-0.017988402
0.14418073
-0.017606742
0.14584823
-0.017225515
0.14754611
-0.016848225
0.14927608
-0.016481213
0.15104011
-0.016125384
0.15284228
-0.015805594
0.15468437
-0.015483249
0.15657979
-0.015341919
0.1585182
-0.014924747
0.16056399
-0.015812417
-0.01402424
0.15006355
0.00077389768
0.14677498
-0.00025072055
0.14347808
-0.0015366519
0.1404308
-0.0030359946
0.13763644
-0.0046223076
0.13508877
-0.0061966857
0.13278961
-0.0077326897
0.13073907
-0.0092218212
0.1289347
-0.010651653
0.12737131
-0.012010513
0.12604107
-0.013290909
0.1249346
-0.014488244
0.12404171
-0.015599395
0.12335176
-0.016622353
0.12285376
-0.017556131
0.12253662
-0.018400615
0.12238926
-0.019156416
0.12240079
-0.01982478
0.12256055
-0.02040752
0.12285824
-0.020906965
0.12328394
-0.0213259
0.12382824
-0.021667516
0.12448222
-0.021935357
0.12523752
-0.022133264
0.12608636
-0.022265329
0.12702157
-0.022335833
0.12803659
-0.022349199
0.12912548
-0.022309937
0.13028292
-0.022222599
0.1315042
-0.02209173
0.13278521
-0.02192183
0.13412241
-0.021717322
0.13551285
-0.021482527
0.13695409
-0.021221647
0.13844422
-0.020938757
0.13998185
-0.020637811
0.14156606
-0.020322662
0.14319639
-0.019997091
0.14487288
-0.019664889
0.146596
-0.019329863
0.14836674
-0.018996256
0.15018656
-0.018668039
0.15205763
-0.018352292
0.15398242
-0.018050173
0.15596542
-0.017788595
0.15800909
-0.017526915
0.16012577
-0.017458602
0.16230947
-0.017108446
0.16460761
-0.018110556
-0.01637699
0.18892597
0.0053752726
-0.19352734
0.18511663
0.0035586153
0.18172532
0.0018546626
0.17858095
0.00010837614
0.17564618
-0.001687537
0.17289598
-0.003446485
0.17031213
-0.0051488392
0.16788564
-0.0067953322
0.16561263
-0.0083786488
0.16349096
-0.0098888425
0.16151877
-0.011318717
0.15969395
-0.012663425
0.15801387
-0.013919313
0.15647524
-0.015083722
0.15507414
-0.016155037
0.15380612
-0.017132596
0.15266626
-0.018016554
0.15164927
-0.018807788
0.15074958
-0.019507829
0.14996142
-0.02011881
0.14927892
-0.020643394
0.14869612
-0.02108472
0.1482071
-0.02144634
0.147806
-0.021732162
0.14748706
-0.021946388
0.14724468
-0.022093455
0.14707346
-0.022177973
0.14696819
-0.02220467
0.14692393
-0.022178337
0.14693597
-0.022103777
0.14699991
-0.021985764
0.14711159
-0.021829
0.14726715
-0.021638095
0.14746304
-0.021417539
0.14769599
-0.0211717
0.147963
-0.020904826
0.14826141
-0.020621065
0.14858881
-0.020324492
0.14894312
-0.020019204
0.14932258
-0.019709318
0.14972574
-0.019399421
0.15015152
-0.019093817
0.15059932
-0.018800089
0.15106879
-0.018519644
0.15156082
-0.018280632
0.15207541
-0.018041504
0.15261774
-0.018000928
0.15318282
-0.017673531
0.15379686
-0.018724592
-0.017000245
0.21687428
0.0087728841
-0.22027189
0.21340114
0.0070317492
0.21018909
0.0050667129
0.20708457
0.003212896
0.2040388
0.0013582333
0.20108274
-0.00049042406
0.19823328
-0.0022993752
0.19549493
-0.0040569821
0.1928736
-0.0057573174
0.19037612
-0.0073913663
0.18800771
-0.0089503012
0.18577175
-0.010427472
0.18367026
-0.011817825
0.18170395
-0.013117404
0.17987227
-0.01432336
0.17817362
-0.015433944
0.17660545
-0.016448389
0.17516447
-0.017366801
0.17384672
-0.018190083
0.17264777
-0.018919857
0.17156277
-0.019558401
0.17058662
-0.020108569
0.16971401
-0.020573722
0.1689395
-0.02095766
0.16825767
-0.021264552
0.16766308
-0.021498863
0.16715039
-0.021665288
0.16671441
-0.021768689
0.1663501
-0.021814027
0.16605263
-0.021806312
0.16581742
-0.021750547
0.1656401
-0.021651686
0.16551662
-0.021514607
0.16544316
-0.021344078
0.16541621
-0.021144756
0.16543257
-0.020921181
0.1654893
-0.0206778
0.16558381
-0.020418995
0.16571378
-0.020149176
0.16587724
-0.019872785
0.16607258
-0.019594758
0.16629854
-0.019319778
0.1665543
-0.019055842
0.16683954
-0.018804887
0.16715438
-0.018595472
0.16750024
-0.018387368
0.16787693
-0.01837761
0.16829237
-0.018088977
0.16873104
-0.019163258
-0.017505624
0.24378207
0.011496158
-0.24650535
0.24093235
0.009881469
0.23807987
0.0079191903
0.23523368
0.0060590904
0.23235669
0.004235226
0.22946972
0.0023965459
0.22660399
0.00056635166
0.22377881
-0.0012317992
0.22101009
-0.0029886006
0.21831378
-0.0046950556
0.21570374
-0.0063402599
0.21319097
-0.0079147044
0.21078409
-0.0094109486
0.20848967
-0.010822984
0.20631235
-0.012146037
0.20425501
-0.013376606
0.20231902
-0.0145124
0.20050443
-0.015552211
0.19881017
-0.016495818
0.19723421
-0.017343897
0.19577375
-0.018097944
0.19442536
-0.018760179
0.19318511
-0.019333465
0.19204867
-0.019821226
0.19101148
-0.02022736
0.19006878
-0.02055616
0.18921572
-0.020812235
0.18844747
-0.021000431
0.1877592
-0.021125762
0.18714623
-0.02119334
0.186604
-0.021208321
0.18612817
-0.021175848
0.18571458
-0.021101017
0.18535934
-0.020988842
0.18505882
-0.020844242
0.18480968
-0.020672037
0.18460885
-0.020476967
0.18445357
-0.02026372
0.18434142
-0.020037022
0.18427028
-0.019801653
0.18423842
-0.019562894
0.18424449
-0.019325847
0.18428748
-0.019098834
0.18436719
-0.018884597
0.18448295
-0.018711235
0.18463775
-0.018542163
0.18482558
-0.018565437
0.18506839
-0.018331789
0.18530373
-0.019398595
-0.017870519
0.26928832
0.013528527
-0.27132069
0.2671209
0.012048891
0.26477979
0.010260301
0.26234125
0.008497631
0.25981323
0.0067632454
0.25720591
0.0050038641
0.25454541
0.0032268458
0.25185592
0.0014576963
0.24915742
-0.00029010428
0.24646974
-0.0020073689
0.24381215
-0.0036826768
0.24120181
-0.005304365
0.23865345
-0.0068625851
0.23617956
-0.0083490928
0.23379044
-0.0097569191
0.23149427
-0.011080431
0.22929723
-0.01231536
0.22720373
-0.013458712
0.22521658
-0.014508669
0.22333719
-0.015464506
0.22156574
-0.016326497
0.21990138
-0.017095822
0.21834239
-0.017774472
0.21688631
-0.01836515
0.21553013
-0.018871178
0.21427037
-0.019296404
0.21310324
-0.019645106
0.21202472
-0.019921907
0.21103065
-0.02013169
0.21011683
-0.02027952
0.20927908
-0.020370573
0.20851331
-0.020410077
0.20781555
-0.020403262
0.20718203
-0.02035532
0.20660917
-0.020271383
0.20609365
-0.020156514
0.2056324
-0.02001572
0.20522266
-0.019853979
0.20486196
-0.019676325
0.20454819
-0.019487877
0.20427955
-0.019294254
0.20405471
-0.019101003
0.20387257
-0.018916695
0.20373305
-0.018745078
0.20363489
-0.018613079
0.20358233
-0.018489604
0.20356442
-0.018547525
0.20361482
-0.018382187
0.20362874
-0.019412517
-0.018072378
0.29299747
0.014859223
-0.29432816
0.2915187
0.013527656
0.28979672
0.01198228
0.28789864
0.010395714
0.28585932
0.0088025615
0.28368959
0.007173594
0.28140786
0.0055085761
0.27903738
0.0038281804
0.27659945
0.0021478277
0.27411423
0.00047784902
0.27160193
-0.0011703783
0.26908228
-0.0027847179
0.26657362
-0.0043539187
0.26409253
-0.0058680044
0.26165376
-0.0073181549
0.2592701
-0.0086967634
0.25695229
-0.0099975576
0.25470918
-0.011215602
0.25254776
-0.012347244
0.2504733
-0.013390052
0.24848955
-0.014342747
0.24659885
-0.015205119
0.24480231
-0.015977934
0.2431
-0.016662833
0.24149105
-0.017262236
0.23997389
-0.017779238
0.23854629
-0.018217509
0.23720558
-0.018581193
0.2359487
-0.018874816
0.23477238
-0.019103193
0.23367315
-0.019271351
0.23264753
-0.019384452
0.231692
-0.019447736
0.23080316
-0.019466473
0.2299777
-0.019445924
0.22921252
-0.019391334
0.22850472
-0.019307927
0.22785168
-0.019200937
0.22725104
-0.019075682
0.22670077
-0.018937606
0.22619916
-0.018792651
0.22574498
-0.018646816
0.22533714
-0.018508859
0.22497572
-0.01838366
0.22465909
-0.018296446
0.22439236
-0.01822287
0.22416077
-0.018315936
0.22400664
-0.018228062
0.22379061
-0.019196481
-0.01809368
0.3150796
0.015553736