/*--------------------------------*- C++ -*----------------------------------*\
  =========                 |
  \\      /  F ield         | OpenFOAM: The Open Source CFD Toolbox
   \\    /   O peration     | Website:  https://openfoam.org
    \\  /    A nd           | Version:  6
     \\/     M anipulation  |
\*---------------------------------------------------------------------------*/
FoamFile
{
    version     2.0;
    format      ascii;
    class       volScalarField;
    location    "98";
    object      pPrime2Mean;
}
// * * * * * * * * * * * * * * * * * * * * * * * * * * * * * * * * * * * * * //

dimensions      [0 4 -4 0 0 0 0];

internalField   nonuniform List<scalar> 
9200
(
0.11418116
0.094596579
0.078018564
0.06723191
0.058627382
0.051379491
0.045128801
0.039692269
0.034948112
0.030798705
0.027163104
0.023973384
0.021172114
0.018710453
0.016546678
0.014645116
0.01297559
0.011512988
0.010239212
0.0091315333
0.092458962
0.076438908
0.063045026
0.054248005
0.047196395
0.041240667
0.036098288
0.031625337
0.027724856
0.024318554
0.021340937
0.018736506
0.016457839
0.014464135
0.012720111
0.011195212
0.0098631688
0.0087014266
0.0076893936
0.0067978481
0.072093286
0.059500628
0.049096364
0.042172714
0.036580435
0.031836216
0.027731135
0.024158991
0.021047141
0.01833597
0.015974592
0.013918924
0.012130446
0.010575289
0.0092235952
0.0080490801
0.0070287629
0.0061424723
0.0053701625
0.0046854222
0.053650202
0.04423947
0.036540386
0.031320465
0.027053972
0.023408681
0.020243863
0.017488586
0.015093024
0.013014657
0.011215539
0.009661377
0.0083210835
0.0071665441
0.006172511
0.0053165448
0.0045789273
0.0039423025
0.0033895978
0.0029008014
0.037639963
0.031067045
0.025715848
0.02198397
0.018875185
0.016188837
0.013844969
0.011804281
0.010037199
0.0085157806
0.0072126696
0.0061013263
0.0051565197
0.004354822
0.0036750123
0.0030983178
0.0026084481
0.0021913524
0.0018339992
0.0015230067
0.024512297
0.020342125
0.016923305
0.014425074
0.012276684
0.010386239
0.0087251939
0.0072809321
0.0060404483
0.0049870751
0.0041012563
0.0033620735
0.0027486974
0.0022415236
0.0018229267
0.0014776306
0.0011927392
0.00095751856
0.00076281542
0.00060044506
0.014643155
0.01236193
0.010418316
0.0088689057
0.0074602591
0.0061841316
0.0050521996
0.0040723365
0.0032435292
0.0025566395
0.0019970702
0.0015475747
0.0011905204
0.00090943366
0.00068986624
0.00051971149
0.00038913002
0.00029029382
0.00021716748
0.00016508054
0.0083249698
0.0073560564
0.0064065269
0.0054992739
0.0045922183
0.0037344168
0.0029650818
0.0023054541
0.0017614687
0.0013277593
0.00099209906
0.00073927672
0.00055386399
0.0004218657
0.00033147225
0.000273197
0.00023965576
0.00022525793
0.00022612453
0.0002396423
0.0057584737
0.0054801074
0.0050353097
0.0044496748
0.0037951574
0.0031507944
0.0025690129
0.0020764901
0.0016809525
0.0013774285
0.0011540075
0.00099630552
0.00089030499
0.00082381733
0.00078697433
0.00077215069
0.00077362183
0.00078721639
0.000810206
0.00084083574
0.007043725
0.0068101653
0.006384303
0.0057941022
0.0051392316
0.00449982
0.0039259024
0.0034414855
0.0030513932
0.0027483898
0.0025194206
0.0023500394
0.0022268995
0.0021388171
0.0020769725
0.0020346605
0.0020068886
0.0019900104
0.0019814645
0.00197933
0.27213216
0.22884192
0.18910521
0.163983
0.1440397
0.12730389
0.11289794
0.10034834
0.089361978
0.079708476
0.071199593
0.063679485
0.057017617
0.051103643
0.045843611
0.041157063
0.036974769
0.033234752
0.029878848
0.026873422
0.26865503
0.22569562
0.18641508
0.16158212
0.14188924
0.12536728
0.11114638
0.098760823
0.087920903
0.078398465
0.070007063
0.062592365
0.056025139
0.050196176
0.045012529
0.040394658
0.036274238
0.032590198
0.029284065
0.026323398
0.26156333
0.21946658
0.18117146
0.1569574
0.1377772
0.12168872
0.10784083
0.095782489
0.085231603
0.07596554
0.067802232
0.060590916
0.054205344
0.048538855
0.043500701
0.039013287
0.035010137
0.031431975
0.028220553
0.025344108
0.25098151
0.21030636
0.17352601
0.15025253
0.13183372
0.11638611
0.10308934
0.091513041
0.081386571
0.072495896
0.064665802
0.057751088
0.051630115
0.046200106
0.041373629
0.037075944
0.033243162
0.029818606
0.02674518
0.023990897
0.23719897
0.19847517
0.16370034
0.14166577
0.12423673
0.10961998
0.09703781
0.086085842
0.076508282
0.068102452
0.060702252
0.054169882
0.048389812
0.043264379
0.038710477
0.03465702
0.03104326
0.02781572
0.024919998
0.022323438
0.22060888
0.18431749
0.15198179
0.13145034
0.11521192
0.10159263
0.089868372
0.079665467
0.070745878
0.062920706
0.056034953
0.049959844
0.044587302
0.039825884
0.035597712
0.031836062
0.028483743
0.02549078
0.0228072
0.020400507
0.20168833
0.16824633
0.13871033
0.11990306
0.10502244
0.092538862
0.081791297
0.072440532
0.064268828
0.05710311
0.050801163
0.045244654
0.040334152
0.035985441
0.032126711
0.028696272
0.025640905
0.022914169
0.020471799
0.018283353
0.18098099
0.15072845
0.12426761
0.10735516
0.09396075
0.082718654
0.073038332
0.064617912
0.057261949
0.050814844
0.045148552
0.040156378
0.035748572
0.031849062
0.028392909
0.02532419
0.022594261
0.02016042
0.017984901
0.016041175
0.15907751
0.13226718
0.10906336
0.094160424
0.082338118
0.07240792
0.063854693
0.056415663
0.049919186
0.044228412
0.039230557
0.034831511
0.030952061
0.027525041
0.024493113
0.021806851
0.019423054
0.017303602
0.015418255
0.013744471
0.13659411
0.11338836
0.093520915
0.080680057
0.07046993
0.061884727
0.054486409
0.04805185
0.042434113
0.037515906
0.033200381
0.029406588
0.026066331
0.023121797
0.020523708
0.018229818
0.016203751
0.014414755
0.012842754
0.011465797
0.023701827
0.020538832
0.017855659
0.015524988
0.013532874
0.011825526
0.010356306
0.0090852305
0.0079798
0.0070136313
0.0061653615
0.005417868
0.0047573914
0.0041727224
0.0036545959
0.0031952493
0.0027880858
0.0024274222
0.0021083042
0.0018263692
0.0015777428
0.0013589594
0.0011669012
0.00099875002
0.00085195081
0.0007241823
0.00061333397
0.00051748713
0.00043489945
0.00036399157
0.00030333564
0.00025164458
0.00020776247
0.00017065513
0.00013940135
0.00011318404
9.1282132e-05
7.3061989e-05
5.7970385e-05
4.552501e-05
3.5312275e-05
2.6967235e-05
2.0202449e-05
1.4712535e-05
1.0390048e-05
6.8121897e-06
4.3711398e-06
1.9847397e-06
2.6727025e-06
4.2501488e-06
0.023240291
0.020183184
0.017577442
0.015306276
0.013363018
0.011695085
0.01025633
0.009008298
0.0079201742
0.0069669155
0.0061282792
0.005388066
0.0047331988
0.0041529377
0.003638337
0.0031818516
0.0027770344
0.0024183073
0.0021007927
0.0018201871
0.0015726626
0.0013547914
0.0011634869
0.00099595747
0.00084966998
0.00072232184
0.0006118182
0.00051625357
0.00043389663
0.00036317725
0.00030267518
0.00025110965
0.00020732994
0.0001703061
0.00013912042
0.00011295863
9.1101992e-05
7.2918731e-05
5.7857163e-05
4.5436234e-05
3.5243378e-05
2.6914504e-05
2.0162862e-05
1.468371e-05
1.0370006e-05
6.7994872e-06
4.3646815e-06
1.9811243e-06
2.6555746e-06
4.1648532e-06
0.022427233
0.019560859
0.017095373
0.014933418
0.013077998
0.011479687
0.010093808
0.0088849652
0.007825678
0.0068935558
0.0060704634
0.0053418604
0.0046958604
0.0041225223
0.0036134312
0.0031613985
0.0027602187
0.0024044824
0.0020894351
0.0018108668
0.0015650238
0.0013485383
0.0011583738
0.0009917801
0.0008462593
0.00071953825
0.00060954682
0.00051440018
0.00043238421
0.000361943
0.00030166798
0.00025028798
0.00020666006
0.00016976062
0.00013867702
0.00011259916
9.0811587e-05
7.2685229e-05
5.7670569e-05
4.5288324e-05
3.5127372e-05
2.6824825e-05
2.0094939e-05
1.4633867e-05
1.0335218e-05
6.777418e-06
4.3537072e-06
1.9749861e-06
2.621402e-06
3.9983298e-06
0.02131214
0.018709768
0.016443464
0.014439205
0.012706959
0.011203281
0.0098876198
0.0087296662
0.0077071114
0.0068016325
0.0059980821
0.005284094
0.0046492862
0.004084708
0.0035825938
0.0031361912
0.0027395955
0.0023876109
0.0020756413
0.0017995989
0.0015558272
0.0013410376
0.0011522588
0.00098679546
0.00084219504
0.00071622246
0.00060683923
0.00051218677
0.00043057254
0.00036045837
0.0003004501
0.00024928822
0.00020583921
0.00016908697
0.0001381249
0.00011214766
9.0443627e-05
7.2386766e-05
5.7430008e-05
4.5096052e-05
3.49754e-05
2.6706506e-05
2.0004775e-05
1.456739e-05
1.0288687e-05
6.7479864e-06
4.3390943e-06
1.9671851e-06
2.5702252e-06
3.7592181e-06
0.019944429
0.017668957
0.015657061
0.01385732
0.012279353
0.0108891
0.0096551148
0.0085550822
0.0075737019
0.0066980002
0.0059164544
0.0052190911
0.004597117
0.0040426281
0.0035485521
0.0031086116
0.0027172407
0.0023694936
0.0020609645
0.0017877144
0.0015462061
0.0013332482
0.0011459488
0.00098167818
0.00083803826
0.00071283858
0.00060407735
0.00050992598
0.00042871631
0.00035892977
0.00029918797
0.00024824392
0.00020497397
0.0001683698
0.00013753088
0.0001116566
9.0039042e-05
7.2055067e-05
5.715989e-05
4.4878046e-05
3.4801535e-05
2.6570051e-05
1.990008e-05
1.448981e-05
1.0234191e-05
6.7136975e-06
4.3218992e-06
1.9588074e-06
2.5026001e-06
3.460169e-06
0.018367158
0.016474391
0.01476843
0.013215544
0.011816969
0.01055217
0.0094058487
0.0083674091
0.0074298527
0.0065861536
0.0058286327
0.0051496708
0.0045419979
0.0039987514
0.0035135828
0.0030807318
0.0026950164
0.0023517845
0.0020468583
0.0017764789
0.0015372533
0.0013261061
0.0011402398
0.00097710101
0.00083435376
0.00070985795
0.00060165224
0.00050794047
0.00042708022
0.00035757323
0.00029805694
0.00024729663
0.00020417799
0.00016769985
0.00013696699
0.00011118284
8.9642414e-05
7.1724849e-05
5.6887045e-05
4.4654861e-05
3.4621362e-05
2.6427125e-05
1.9789426e-05
1.4407286e-05
1.0175916e-05
6.6773027e-06
4.3032184e-06
1.951004e-06
2.4194422e-06
3.1165395e-06
0.016622587
0.015162228
0.013806502
0.012530962
0.011327199
0.010193994
0.0091386708
0.0081653098
0.0072752729
0.0064669785
0.0057363621
0.0050780916
0.004486424
0.0039556069
0.0034801177
0.0030548115
0.0026749736
0.0023363126
0.0020349318
0.0017672925
0.0015301755
0.0013206432
0.0011360075
0.00097380211
0.00083175997
0.00070779555
0.00059999033
0.00050658141
0.00042595196
0.00035662317
0.00029724706
0.00024659961
0.00020357424
0.00016717523
0.0001365111
0.00011078778
8.930189e-05
7.1433593e-05
5.6640423e-05
4.4448651e-05
3.4451649e-05
2.629024e-05
1.9681969e-05
1.432634e-05
1.0118245e-05
6.641645e-06
4.2841277e-06
1.9448888e-06
2.3220232e-06
2.7449676e-06
0.014762833
0.013773752
0.012793516
0.01180145
0.010795253
0.0097990475
0.008842086
0.007941968
0.007107159
0.0063405384
0.0056414142
0.0050069792
0.0044333436
0.0039161507
0.0034509415
0.0030333753
0.0026593439
0.002325016
0.002026846
0.0017615641
0.0015261577
0.0013178491
0.0011340734
0.00097245942
0.00083081354
0.00070710623
0.00059946151
0.00050614817
0.00042557267
0.00035627295
0.00029691262
0.00024627539
0.00020325952
0.00016687203
0.00013622267
0.00011051762
8.9053115e-05
7.1208612e-05
5.6440784e-05
4.4275049e-05
3.4304029e-05
2.6167933e-05
1.958383e-05
1.4251254e-05
1.006393e-05
6.6084498e-06
4.2649803e-06
1.9411325e-06
2.2118386e-06
2.362199e-06
0.012838728
0.012327986
0.011707542
0.010974889
0.010164285
0.0093209777
0.0084824826
0.0076734799
0.0069082496
0.006194144
0.0055342491
0.0049289578
0.0043769059
0.0038756503
0.0034221722
0.0030132081
0.0026454503
0.002315662
0.0020207404
0.0017577476
0.0015239202
0.001316669
0.0011335719
0.00097236588
0.00083093914
0.00070732356
0.00059968875
0.00050633678
0.00042569783
0.00035632619
0.00029689613
0.00024619787
0.00020313303
0.00016670982
0.00013603771
0.00011032163
8.8856075e-05
7.1018541e-05
5.6263745e-05
4.4115298e-05
3.4164271e-05
2.6049582e-05
1.9487238e-05
1.4176483e-05
1.0009064e-05
6.575122e-06
4.243705e-06
1.9390265e-06
2.0909163e-06
1.985392e-06
0.010921494
0.010781157
0.010448137
0.0099574442
0.0093621388
0.0087049777
0.008017362
0.0073259529
0.0066508228
0.0060049306
0.0053960728
0.004828642
0.0043045413
0.0038238539
0.0033854639
0.0029875291
0.0026277965
0.002303808
0.0020130366
0.0017529715
0.0015211686
0.0013152779
0.001133058
0.00097238275
0.00083124351
0.00070774998
0.00060012973
0.00050672743
0.00042600385
0.00035653451
0.00029700783
0.00024622276
0.00020308567
0.00016660667
0.00013589515
0.00011015474
8.867791e-05
7.0839789e-05
5.6092703e-05
4.3958004e-05
3.4024809e-05
2.593036e-05
1.938929e-05
1.4100331e-05
9.9527617e-06
6.5409354e-06
4.2199033e-06
1.9379022e-06
1.9638706e-06
1.632255e-06
0.0088314951
0.0089136317
0.0088168192
0.0085570623
0.0081884471
0.0077420414
0.0072389136
0.0067027602
0.0061555606
0.0056135142
0.0050878851
0.004586535
0.0041145834
0.0036748936
0.0032686578
0.0028959117
0.0025559051
0.0022473683
0.0019687062
0.0017181364
0.0014937829
0.001293739
0.0011161093
0.00095903825
0.00082072949
0.00069945916
0.00059358563
0.00050155637
0.00042191296
0.00035329438
0.0002944388
0.00024418412
0.00020146718
0.00016532182
0.00013487592
0.00010934754
8.8040316e-05
7.0338152e-05
5.5700195e-05
4.3653218e-05
3.3790496e-05
2.5752995e-05
1.9257266e-05
1.4006417e-05
9.8863622e-06
6.5041501e-06
4.1903621e-06
1.9384749e-06
1.8330823e-06
1.3222091e-06
0.0068408649
0.0070384982
0.0070861003
0.0069896178
0.0067940515
0.0065218828
0.0061850651
0.005801776
0.0053916399
0.0049701076
0.0045487597
0.00413657
0.0037401981
0.0033641733
0.003011318
0.0026831802
0.0023803624
0.0021027725
0.001849824
0.0016205897
0.0014139137
0.0012284939
0.0010629413
0.00091582468
0.00078570305
0.00067115053
0.00057077522
0.00048323395
0.00040724361
0.00034158982
0.00028513322
0.0002368137
0.00019565288
0.00016075483
0.00013130542
0.00010657047
8.5892823e-05
6.8688436e-05
5.4442547e-05
4.2703289e-05
3.3080847e-05
2.5230876e-05
1.8879218e-05
1.3742458e-05
9.7035047e-06
6.3962766e-06
4.1104812e-06
1.9229075e-06
1.6694898e-06
1.0296974e-06
0.0051312919
0.0054013272
0.0055496045
0.0055792856
0.0055194636
0.0053866412
0.0051878235
0.0049358663
0.0046469022
0.0043347026
0.0040102366
0.0036826303
0.0033592624
0.0030456984
0.0027459192
0.0024626428
0.002197585
0.0019516711
0.0017252201
0.0015180956
0.0013298247
0.0011596902
0.0010068018
0.00087015151
0.00074865716
0.0006411964
0.0005466338
0.00046384256
0.00039172177
0.00032921019
0.00027529682
0.00022902888
0.0001895174
0.00015594075
0.0001275463
0.00010365055
8.3638021e-05
6.6958805e-05
5.3125921e-05
4.1710264e-05
3.2340011e-05
2.4686511e-05
1.8485318e-05
1.3467737e-05
9.5124014e-06
6.2842516e-06
4.0235145e-06
1.9094221e-06
1.4937747e-06
7.5745979e-07
0.0036950261
0.00400027
0.0042099227
0.0043274371
0.0043671995
0.0043403349
0.0042513128
0.0041084493
0.0039236974
0.0037083838
0.0034721657
0.0032235394
0.0029698413
0.0027170371
0.0024697654
0.0022315274
0.0020048649
0.0017915167
0.0015925661
0.0014085746
0.0012396937
0.0010857569
0.00094635484
0.00082089658
0.00070865946
0.00060882981
0.00052053627
0.00044287713
0.00037494276
0.00031583385
0.00026467603
0.00022063134
0.00018290694
0.00015076132
0.00012350839
0.00010051969
8.1225012e-05
6.5111609e-05
5.1722783e-05
4.0654232e-05
3.1553781e-05
2.4109808e-05
1.8068587e-05
1.3177122e-05
9.3098675e-06
6.1647685e-06
3.9288514e-06
1.8949021e-06
1.3185279e-06
5.2727139e-07
0.0025402463
0.0028433103
0.0030780357
0.003246429
0.0033516343
0.0033994062
0.0033923488
0.0033352606
0.0032360047
0.003103033
0.0029442011
0.002766816
0.0025775545
0.0023822048
0.0021855712
0.0019915338
0.0018031392
0.0016226936
0.0014518633
0.0012917767
0.0011431189
0.0010062128
0.00088109124
0.00076755709
0.0006652355
0.00057361739
0.00049209645
0.00042000029
0.00035661661
0.000301215
0.00025306496
0.00021145046
0.00017568142
0.00014510255
0.00011909973
9.7104249e-05
7.8595276e-05
6.3100705e-05
5.0197041e-05
3.9507199e-05
3.0700653e-05
2.3484395e-05
1.7616773e-05
1.2861409e-05
9.0894496e-06
6.032685e-06
3.8240923e-06
1.8761119e-06
1.1509634e-06
3.5052664e-07
0.0016557395
0.0019272126
0.0021566989
0.0023435348
0.0024835925
0.002577793
0.0026267336
0.0026324634
0.0025993388
0.0025329101
0.0024389591
0.0023232517
0.0021913783
0.0020484915
0.0018991312
0.0017471772
0.0015958607
0.001447794
0.0013050209
0.0011690801
0.0010410725
0.00092172592
0.00081145482
0.00071041529
0.00061855365
0.0005356494
0.00046135285
0.00039521779
0.00033672968
0.00028532979
0.00024043563
0.00020145789
0.00016781437
0.000138941
0.0001143003
9.3387617e-05
7.5735355e-05
6.0915379e-05
4.8540282e-05
3.8262613e-05
2.977556e-05
2.2806314e-05
1.7126817e-05
1.2518052e-05
8.8493223e-06
5.8859913e-06
3.7088536e-06
1.8507664e-06
9.9687235e-07
2.3108136e-07
0.001012825
0.0012350081
0.0014375368
0.0016173529
0.0017667107
0.0018830083
0.0019648304
0.00201202
0.0020261518
0.0020101655
0.0019677434
0.001902961
0.0018200732
0.0017232795
0.0016165186
0.0015033486
0.0013868916
0.0012698119
0.0011543184
0.0010421887
0.00093480447
0.00083319403
0.00073807572
0.00064990139
0.00056889776
0.00049510488
0.0004284113
0.00036858583
0.00031530581
0.00026818202
0.00022678033
0.00019064024
0.0001592904
0.00013226149
0.00010909639
8.9358128e-05
7.2635723e-05
5.8548114e-05
4.6746729e-05
3.6916119e-05
2.877525e-05
2.2073112e-05
1.6596876e-05
1.2145497e-05
8.588441e-06
5.7233184e-06
3.5833939e-06
1.8168329e-06
8.6041876e-07
1.6552046e-07
0.00057468471
0.0007403181
0.00090307116
0.0010584787
0.001197878
0.0013167082
0.0014119756
0.0014818539
0.0015258649
0.0015448211
0.0015404955
0.0015153132
0.0014721292
0.0014140218
0.0013441006
0.0012653584
0.0011805679
0.0010922194
0.001002486
0.00091321111
0.00082591439
0.00074180856
0.00066182393
0.000586637
0.00051670105
0.00045227688
0.00039346274
0.00034022271
0.00029241301
0.00024980602
0.00021211182
0.00017899721
0.00015010206
0.00012505332
0.00010347648
8.5004855e-05
6.9286786e-05
5.5990923e-05
4.4809997e-05
3.5462768e-05
2.7695979e-05
2.1281986e-05
1.6024888e-05
1.174214e-05
8.3058022e-06
5.5435508e-06
3.4482211e-06
1.7727418e-06
7.4358424e-07
1.4385476e-07
0.00030267104
0.00041204587
0.0005297993
0.00065103874
0.00076778071
0.00087484098
0.00096836317
0.0010454633
0.0011042997
0.0011441265
0.0011651576
0.0011683603
0.0011552729
0.0011278358
0.0010882274
0.0010387201
0.00098156429
0.00091889812
0.00085268575
0.00078467854
0.00071639438
0.00064911158
0.00058387342
0.00052150066
0.00046260918
0.00040763074
0.00035683537
0.00031035425
0.00026820219
0.00023029907
0.00019648994
0.00016656326
0.00014026719
0.00011732396
9.744198e-05
8.0326003e-05
6.5685362e-05
5.3240319e-05
4.2726879e-05
3.389989e-05
2.6535676e-05
2.0431411e-05
1.54098e-05
1.1307258e-05
8.0011162e-06
5.3464052e-06
3.3043277e-06
1.7178995e-06
6.4638844e-07
1.5188629e-07
0.00016015646
0.00021838563
0.00029156464
0.00037507223
0.00046233839
0.00054846519
0.00062945106
0.00070197087
0.00076344363
0.00081213328
0.00084712966
0.00086824542
0.00087589735
0.00087098699
0.0008547766
0.0008287666
0.0007945865
0.00075390172
0.00070833746
0.00065942209
0.0006085481
0.0005569472
0.0005056775
0.00045562022
0.00040748408
0.00036181495
0.00031900929
0.00027932994
0.00024292324
0.00020983649
0.00018003515
0.00015341929
0.00012983881
0.0001091072
9.1013777e-05
7.533408e-05
6.1838713e-05
5.0300423e-05
4.0499716e-05
3.2228888e-05
2.5295295e-05
1.9522159e-05
1.4752325e-05
1.0841574e-05
7.6752083e-06
5.1327152e-06
3.1532402e-06
1.6528492e-06
5.6741457e-07
1.7451664e-07
0.00011485908
0.00012961667
0.00016229784
0.00020894117
0.00026458281
0.00032510289
0.0003868858
0.00044667903
0.00050168311
0.00054967927
0.00058907704
0.00061888975
0.00063868068
0.00064849627
0.00064878711
0.00064031944
0.00062408577
0.00060122198
0.00057293359
0.00054043287
0.0005048891
0.00046739163
0.00042892381
0.00039034682
0.0003523918
0.00031565871
0.00028062042
0.00024763065
0.00021693468
0.00018868174
0.0001629383
0.0001397016
0.00011891285
0.00010046969
8.4237609e-05
7.0060182e-05
5.776787e-05
4.7185484e-05
3.8138268e-05
3.0456601e-05
2.3979783e-05
1.8557971e-05
1.4055407e-05
1.034756e-05
7.330215e-06
4.9045292e-06
2.996992e-06
1.5792265e-06
5.0445639e-07
1.9894774e-07
0.00013979319
0.00011961943
0.00011783024
0.00013125911
0.00015644496
0.00019022061
0.00022964883
0.00027189619
0.00031432877
0.0003546503
0.00039098244
0.00042188955
0.00044637548
0.00046386347
0.00047415962
0.00047740133
0.00047399642
0.00046455907
0.00044984798
0.00043070876
0.00040802304
0.000382666
0.00035547296
0.00032721424
0.00029857789
0.00027015923
0.00024245633
0.00021587019
0.00019070876
0.0001671936
0.0001454686
0.00012560975
0.00010763557
9.1517419e-05
7.7189586e-05
6.4558522e-05
5.3511247e-05
4.3922669e-05
3.5661798e-05
2.85968e-05
2.2599124e-05
1.7546245e-05
1.3324646e-05
9.8296563e-06
6.9696661e-06
4.6650291e-06
2.8379838e-06
1.4994483e-06
4.5498132e-07
2.1675542e-07
0.0002132671
0.0001664513
0.00013690118
0.00012221322
0.00012018722
0.0001285823
0.00014522917
0.00016788711
0.00019432433
0.00022244949
0.00025040081
0.00027659443
0.0002997523
0.00031891607
0.00033344494
0.00034299708
0.00034749797
0.00034710027
0.00034213939
0.00033308802
0.00032051205
0.00030503008
0.00028727815
0.00026788065
0.00024742722
0.0002264558
0.0002054411
0.00018478811
0.00016482976
0.00014582802
0.00012797762
0.00011141173
9.6208975e-05
8.2401119e-05
6.998106e-05
5.8910662e-05
4.9128153e-05
4.0554877e-05
3.3101247e-05
2.6671807e-05
2.1169481e-05
1.6498794e-05
1.2568763e-05
9.2944956e-06
6.5985584e-06
4.4184182e-06
2.6788849e-06
1.4163585e-06
4.1643105e-07
2.2436351e-07
0.00031837724
0.0002523252
0.00020156068
0.00016432702
0.00013939931
0.00012533089
0.00012067449
0.00012381705
0.00013303352
0.0001465993
0.00016287225
0.00018034555
0.00019768881
0.00021378108
0.00022773151
0.00023888565
0.00024681869
0.00025131828
0.00025235974
0.00025007607
0.00024472552
0.00023665854
0.00022628632
0.0002140522
0.00020040709
0.00018578908
0.00017060763
0.00015523202
0.00013998393
0.0001251335
0.00011089842
9.7445441e-05
8.4893772e-05
7.3319734e-05
6.2762298e-05
5.3228997e-05
4.4701905e-05
3.7143379e-05
3.0501367e-05
2.4714144e-05
1.9714407e-05
1.5432677e-05
1.1800115e-05
8.7511509e-06
6.2234271e-06
4.1697849e-06
2.5225454e-06
1.3328608e-06
3.8634876e-07
2.2207317e-07
0.00044228247
0.00036324011
0.00029715527
0.00024277762
0.00019958311
0.00016674814
0.00014343032
0.00012858872
0.00012101031
0.00011939807
0.00012243728
0.00012884131
0.00013739265
0.00014698197
0.00015663992
0.00016555858
0.00017310224
0.0001788086
0.00018238155
0.00018367725
0.00018268495
0.00017950458
0.00017432276
0.00016738896
0.00015899291
0.00014944439
0.00013905579
0.00012812798
0.00011693939
0.00010573832
9.4738163e-05
8.4115182e-05
7.4008396e-05
6.4521189e-05
5.572417e-05
4.7658894e-05
4.0342064e-05
3.3769922e-05
2.7922575e-05
2.2768063e-05
1.8266049e-05
1.4371086e-05
1.10353e-05
8.2114917e-06
5.8525243e-06
3.9250899e-06
2.3720497e-06
1.2517253e-06
3.6253406e-07
2.1238049e-07
0.00057544286
0.00048845167
0.00041206173
0.00034539825
0.00028840369
0.00024070828
0.00020193354
0.00017150919
0.00014867734
0.0001325569
0.00012219195
0.00011658505
0.00011473057
0.00011565058
0.00011842839
0.00012223602
0.00012635454
0.00013018719
0.00013326553
0.00013524877
0.00013591728
0.00013516137
0.00013296666
0.00012939731
0.00012457852
0.00011867914
0.00011189556
0.00010443718
9.6514242e-05
8.8327874e-05
8.0062699e-05
7.1881674e-05
6.3923068e-05
5.6299243e-05
4.9096935e-05
4.2378692e-05
3.6185144e-05
3.05378e-05
2.5442126e-05
2.0890679e-05
1.6866129e-05
1.3344134e-05
1.0295749e-05
7.6905767e-06
5.4960587e-06
3.6912504e-06
2.2308539e-06
1.1755411e-06
3.4323718e-07
1.9837455e-07
0.00071092515
0.00061990713
0.00053729519
0.00046248382
0.00039569836
0.00033687662
0.00028596882
0.00024276076
0.00020686292
0.00017775531
0.00015481947
0.00013735875
0.00012462096
0.00011582624
0.00011019615
0.00010698026
0.00010547922
0.00010506343
0.000105187
0.00010539642
0.00010533393
0.0001047362
0.00010342875
0.00010131726
9.8376493e-05
9.4637885e-05
9.0176707e-05
8.5099513e-05
7.9532483e-05
7.3611147e-05
6.7471723e-05
6.1244245e-05
5.5047435e-05
4.8985272e-05
4.3145038e-05
3.7596654e-05
3.2393035e-05
2.7571225e-05
2.3154072e-05
1.9152239e-05
1.5566363e-05
1.2389303e-05
9.6081232e-06
7.2069769e-06
5.1664426e-06
3.4763122e-06
2.1030066e-06
1.1068296e-06
3.2739007e-07
1.8272571e-07
0.00084381182
0.00075171328
0.0006660788
0.00058649268
0.00051332921
0.00044671853
0.00038682467
0.00033368227
0.00028717714
0.00024707637
0.00021304776
0.00018466899
0.00016143992
0.00014280116
0.00012815562
0.00011689028
0.00010839702
0.00010209175
9.7431176e-05
9.3926266e-05
9.1151947e-05
8.8752878e-05
8.6445417e-05
8.4016148e-05
8.1317482e-05
7.8260979e-05
7.4809098e-05
7.0966057e-05
6.6768457e-05
6.2276176e-05
5.7564004e-05
5.2714286e-05
4.7810794e-05
4.2933881e-05
3.8156924e-05
3.3543952e-05
2.9148331e-05
2.5012339e-05
2.116744e-05
1.7635096e-05
1.4427938e-05
1.155123e-05
9.0042793e-06
6.7828262e-06
4.8783863e-06
3.2895722e-06
1.9933227e-06
1.0481996e-06
3.1472508e-07
1.6730796e-07
0.00097071962
0.00087967112
0.00079342905
0.00071171153
0.00063495029
0.00056338313
0.00049729848
0.00043689002
0.00038223364
0.00033330754
0.00029000278
0.0002521245
0.00021939602
0.00019146882
0.00016793629
0.00014834894
0.00013223043
0.00011909377
0.00010845716
9.9858386e-05
9.2867176e-05
8.7094994e-05
8.2202002e-05
7.7901096e-05
7.3959164e-05
7.0195824e-05
6.648005e-05
6.2725182e-05
5.8882832e-05
5.4936186e-05
5.0893166e-05
4.677983e-05
4.2634328e-05
3.850161e-05
3.4429029e-05
3.0462871e-05
2.6645807e-05
2.3015181e-05
1.9602055e-05
1.6430878e-05
1.3519645e-05
1.0880513e-05
8.5205359e-06
6.4434075e-06
4.6486966e-06
3.1415416e-06
1.9074351e-06
1.0024714e-06
3.0572634e-07
1.5323856e-07
0.0010894171
0.0010008868
0.00091578499
0.00083392598
0.00075574066
0.00068151614
0.00061160042
0.00054627685
0.00048574099
0.00043011414
0.00037944828
0.00033372249
0.00029284135
0.00025663834
0.00022488288
0.00019728913
0.00017352648
0.00015323127
0.00013601934
0.00012149879
0.00010928198
9.8996561e-05
9.0294704e-05
8.2860488e-05
7.6415077e-05
7.0719729e-05
6.557671e-05
6.0828364e-05
5.6354624e-05
5.2069356e-05
4.7915891e-05
4.3862132e-05
3.9895564e-05
3.6018446e-05
3.2243401e-05
2.8589564e-05
2.5079364e-05
2.1735979e-05
1.8581447e-05
1.5635392e-05
1.2914286e-05
1.0431235e-05
8.1960088e-06
6.2160812e-06
4.4956267e-06
3.0436194e-06
1.851629e-06
9.7268407e-07
3.0141287e-07
1.4107783e-07
0.0011985251
0.0011134542
0.0010306901
0.00095011877
0.00087213626
0.00079704131
0.00072519755
0.00065692812
0.0005924944
0.00053210539
0.00047591947
0.00042403847
0.00037650275
0.0003332903
0.00029431868
0.00025944865
0.0002284896
0.00020120651
0.00017732852
0.0001565584
0.00013858251
0.00012308072
0.00010973587
9.8242174e-05
8.8312522e-05
7.9684095e-05
7.2122425e-05
6.5423762e-05
5.9415873e-05
5.3957438e-05
4.8936297e-05
4.4266804e-05
3.9886578e-05
3.575293e-05
3.1839201e-05
2.8131233e-05
2.4624115e-05
2.1319331e-05
1.8222372e-05
1.5340828e-05
1.2682981e-05
1.0256885e-05
8.0697681e-06
6.128372e-06
4.4376467e-06
3.0073769e-06
1.8324166e-06
9.6194864e-07
3.0304893e-07
1.3103983e-07
0.0012972811
0.0012161985
0.0011365254
0.0010582039
0.00098157786
0.00090693535
0.00083462807
0.00076498549
0.00069829641
0.00063481569
0.00057476445
0.00051832345
0.00046562677
0.00041675845
0.00037175115
0.00033058612
0.00029319464
0.00025946095
0.00022922691
0.00020229784
0.00017844956
0.00015743599
0.00013899715
0.00012286709
0.00010878136
9.6483783e-05
8.5732173e-05
7.6302873e-05
6.7994034e-05
6.0627591e-05
5.4050045e-05
4.8132162e-05
4.2767789e-05
3.7871975e-05
3.3378624e-05
2.9237884e-05
2.5413455e-05
2.1879974e-05
1.86206e-05
1.5624892e-05
1.2887021e-05
1.04044e-05
8.1765845e-06
6.2050366e-06
4.4915045e-06
3.0433659e-06
1.855816e-06
9.731284e-07
3.1185461e-07
1.2315389e-07
0.0013853549
0.0013084712
0.0012322899
0.0011567999
0.0010822866
0.0010090155
0.00093731096
0.00086748817
0.00079983793
0.00073463157
0.00067212048
0.0006125299
0.00055605242
0.0005028436
0.00045301882
0.00040665099
0.00036376933
0.00032435929
0.00028836395
0.00025568667
0.00022619507
0.00019972586
0.00017609064
0.00015508215
0.00013648082
0.00012006119
0.00010559802
9.2871806e-05
8.1673452e-05
7.1808043e-05
6.3097601e-05
5.5382839e-05
4.8523963e-05
4.240064e-05
3.6911248e-05
3.1971589e-05
2.7513216e-05
2.3481539e-05
1.9833847e-05
1.6537385e-05
1.3567566e-05
1.0906431e-05
8.541296e-06
6.464098e-06
4.6695493e-06
3.1594224e-06
1.9263313e-06
1.0083499e-06
3.2874613e-07
1.1736196e-07
0.0014626943
0.0013899754
0.0013174094
0.0012450269
0.0011730548
0.0011017315
0.0010313468
0.00096219065
0.00089454045
0.00082866495
0.00076482349
0.00070326071
0.00064420058
0.00058784195
0.00053435468
0.00048387623
0.00043650885
0.00039231762
0.00035132947
0.00031353341
0.00027888176
0.00024729247
0.00021865248
0.00019282183
0.00016963855
0.00014892387
0.00013048767
0.00011413387
9.9665538e-05
8.6889506e-05
7.5620354e-05
6.5683639e-05
5.6918333e-05
4.9178451e-05
4.2333923e-05
3.6270777e-05
3.0890759e-05
2.6110493e-05
2.186033e-05
1.8082995e-05
1.4732165e-05
1.1771085e-05
9.1712202e-06
6.9114291e-06
4.9760344e-06
3.3582909e-06
2.0455386e-06
1.0683002e-06
3.5406331e-07
1.1355259e-07
0.0015294161
0.0014606411
0.0013915981
0.0013223565
0.0012530883
0.0011840043
0.0011153589
0.001047412
0.0009804199
0.00091463775
0.00085031885
0.00078771039
0.00072704848
0.00066855407
0.00061242896
0.00055885223
0.00050797653
0.00045992525
0.00041479003
0.00037262925
0.00033346728
0.00029729475
0.00026406963
0.00023371932
0.00020614356
0.00018121804
0.00015879851
0.00013872539
0.00012082837
0.00010493114
9.085575e-05
7.8426706e-05
6.7474443e-05
5.7838255e-05
4.9368543e-05
4.1928401e-05
3.5394576e-05
2.9657852e-05
2.4622952e-05
2.0208053e-05
1.6344017e-05
1.2973471e-05
1.0049733e-05
7.5360747e-06
5.403863e-06
3.6355115e-06
2.2108343e-06
1.1516193e-06
3.8738071e-07
1.1157426e-07
0.001585658
0.001520459
0.0014546743
0.0013884107
0.0013217911
0.0012550012
0.0011882619
0.0011218032
0.0010558578
0.00099066203
0.00092645567
0.00086347853
0.00080196642
0.00074214776
0.00068423995
0.00062844584
0.00057495001
0.00052391545
0.00047548035
0.00042975562
0.00038682276
0.00034673261
0.00030950472
0.00027512768
0.00024356015
0.00021473283
0.00018855105
0.00016489806
0.00014363875
0.00012462376
0.00010769368
9.2683307e-05
7.9425607e-05
6.7755461e-05
5.7512915e-05
4.8545905e-05
4.0712438e-05
3.3882171e-05
2.793745e-05
2.2773837e-05
1.8300196e-05
1.4438455e-05
1.1123043e-05
8.3004487e-06
5.9276542e-06
3.9747751e-06