/*--------------------------------*- C++ -*----------------------------------*\
  =========                 |
  \\      /  F ield         | OpenFOAM: The Open Source CFD Toolbox
   \\    /   O peration     | Website:  https://openfoam.org
    \\  /    A nd           | Version:  6
     \\/     M anipulation  |
\*---------------------------------------------------------------------------*/
FoamFile
{
    version     2.0;
    format      ascii;
    class       volVectorField;
    location    "98";
    object      U_0;
}
// * * * * * * * * * * * * * * * * * * * * * * * * * * * * * * * * * * * * * //

dimensions      [0 1 -1 0 0 0 0];

internalField   nonuniform List<vector> 
9200
(
(0.0010400339 0.001419619 -5.9207203e-20)
(0.013679063 -0.0020599523 4.6047351e-20)
(0.038319671 -0.0058693492 -3.8505541e-20)
(0.07228541 -0.0097674977 -6.0263496e-20)
(0.11378097 -0.013495265 1.882902e-20)
(0.16160304 -0.016612152 3.2747206e-20)
(0.2147001 -0.018825045 -1.2269451e-20)
(0.27210156 -0.019982923 9.269983e-21)
(0.33289881 -0.020021544 1.6804962e-20)
(0.39621324 -0.01894069 1.4849617e-21)
(0.46117239 -0.016792816 -2.1458773e-20)
(0.52690046 -0.013672157 2.0672447e-20)
(0.59252053 -0.0097039328 -4.0426643e-20)
(0.65716672 -0.0050333257 -2.1136679e-20)
(0.72000482 0.00018627322 5.9053844e-21)
(0.7802588 0.0058029276 -2.5135428e-20)
(0.83725692 0.011689612 2.5221334e-20)
(0.89055643 0.017893102 2.2248819e-20)
(0.93975852 0.024545633 -2.9821662e-22)
(0.98213884 0.028263407 -1.667809e-21)
(0.0052533511 -0.0013469042 -1.7060891e-20)
(0.026966945 -0.0089912742 3.9751601e-20)
(0.061679057 -0.014813424 2.3578599e-20)
(0.10630928 -0.019177234 -1.1570786e-19)
(0.15875625 -0.022220211 -1.2728383e-20)
(0.21756089 -0.0237281 7.3303448e-20)
(0.28140752 -0.023603671 -3.5479758e-20)
(0.34904797 -0.021878683 -8.3913393e-21)
(0.41928856 -0.018656392 3.4291006e-20)
(0.49096596 -0.014092895 -4.3264268e-20)
(0.56293556 -0.0083892585 -3.0342193e-20)
(0.63407774 -0.0017812541 7.1931177e-20)
(0.70331773 0.005472255 3.8299144e-20)
(0.76965436 0.013100861 -6.7986822e-20)
(0.83219393 0.020832511 1.4626252e-20)
(0.89018352 0.028398158 -3.6739736e-20)
(0.94305273 0.035545979 -1.3779059e-20)
(0.99051504 0.04211488 7.0989769e-20)
(1.0324368 0.047686898 2.9651093e-20)
(1.0670128 0.049109151 -8.3488004e-20)
(0.010860182 -0.0040432786 3.6776482e-20)
(0.043959554 -0.015433862 2.5049217e-21)
(0.090527144 -0.022556601 2.234393e-20)
(0.14712955 -0.026502979 9.8124981e-22)
(0.21136779 -0.027893082 -4.0778071e-20)
(0.28150043 -0.026802958 1.8577827e-20)
(0.35591086 -0.023391563 1.3421653e-20)
(0.43303816 -0.017931339 -5.0332583e-20)
(0.51138016 -0.010746444 5.7267834e-20)
(0.58948824 -0.0021957383 1.4258671e-20)
(0.66597715 0.0073348647 -5.4307909e-20)
(0.7395532 0.017445881 -1.8240441e-20)
(0.80905247 0.027740649 9.0587372e-21)
(0.87348148 0.03784162 2.3448693e-20)
(0.93205348 0.047404442 -1.1364878e-20)
(0.98421327 0.056127224 2.7882644e-20)
(1.0296521 0.063765106 -2.0191496e-20)
(1.0683402 0.07017787 -7.0137627e-20)
(1.1004045 0.075090354 -2.3801752e-20)
(1.1249797 0.076609959 4.8666439e-20)
(0.01795965 -0.0064232021 2.4509885e-20)
(0.064785051 -0.020697946 5.1043413e-20)
(0.12486702 -0.028065532 1.9883266e-20)
(0.19449181 -0.030469945 1.2990864e-20)
(0.27097933 -0.029101711 1.7276968e-20)
(0.35228685 -0.024396701 -4.7724262e-20)
(0.43647737 -0.016834479 -2.564925e-20)
(0.52167358 -0.0069859639 0)
(0.60608927 0.004556876 1.3923234e-20)
(0.68805323 0.017200573 -5.8540734e-21)
(0.76604602 0.030361567 -9.7947682e-20)
(0.83874866 0.04348585 -1.5776216e-20)
(0.9050914 0.056071155 6.5114211e-20)
(0.9642924 0.067686744 4.8313742e-22)
(1.0158795 0.077988166 -1.5728335e-21)
(1.0596896 0.086724899 2.1961464e-20)
(1.0958486 0.093747857 -5.2659963e-21)
(1.1247478 0.099038411 -6.1040926e-20)
(1.1469286 0.10256762 -4.5860556e-20)
(1.1623555 0.10338205 6.9530602e-20)
(0.026582619 -0.008206827 -3.9196142e-21)
(0.089354154 -0.024036788 -5.1259669e-21)
(0.16432546 -0.030269685 5.6603645e-20)
(0.2476074 -0.0298157 1.854064e-20)
(0.33627628 -0.024519451 -3.195763e-20)
(0.42799425 -0.015246892 1.216482e-20)
(0.52052345 -0.0028589718 2.640547e-21)
(0.61172145 0.011728841 3.3613176e-20)
(0.69961096 0.027631084 5.6606482e-21)
(0.78243688 0.044018677 -1.3207156e-20)
(0.85872579 0.060136319 6.0164314e-20)
(0.92734258 0.075327454 -5.801702e-20)
(0.98753054 0.089057939 -1.3218702e-19)
(1.0389258 0.10093193 -5.5782333e-21)
(1.0815432 0.11069763 8.3165476e-20)
(1.1157333 0.11824209 0)
(1.142119 0.12358131 1.0120532e-20)
(1.1615271 0.1268635 -1.5462553e-20)
(1.1748742 0.12826919 -8.6011028e-21)
(1.1827197 0.12741737 2.0995494e-20)
(0.036670932 -0.0090907237 -5.4309744e-21)
(0.11732741 -0.024688509 4.3581791e-21)
(0.20813981 -0.02814449 -8.7635949e-21)
(0.30518716 -0.02341995 2.8474448e-20)
(0.40537437 -0.013081036 -2.939517e-20)
(0.50611876 0.0015168082 -1.6928595e-20)
(0.60495963 0.019088923 3.7366977e-20)
(0.69961058 0.038358458 4.7597032e-21)
(0.78806976 0.058160004 -2.4440345e-20)
(0.8687032 0.077474191 6.9876915e-20)
(0.9403106 0.095448304 5.2279406e-22)
(1.0021667 0.11141936 -8.0457612e-20)
(1.0540269 0.12492854 0)
(1.0960951 0.13572075 3.9549265e-20)
(1.128957 0.14372916 5.5246657e-21)
(1.1534892 0.14904709 -7.7579455e-20)
(1.1707567 0.15189476 -1.9590181e-20)
(1.1819161 0.15259688 -1.2469714e-20)
(1.1881093 0.151497 -1.4711938e-20)
(1.1901928 0.14855379 4.042713e-20)
(0.048063747 -0.008768444 -1.7278831e-20)
(0.14809757 -0.021934723 -2.2205915e-21)
(0.25516491 -0.020801349 3.0382305e-20)
(0.3654976 -0.010416624 3.7486465e-20)
(0.47594693 0.0058976153 -1.9946278e-20)
(0.58379341 0.026265183 -6.9169801e-20)
(0.68649937 0.048972767 -2.7999321e-20)
(0.78182479 0.072412734 7.8938393e-20)
(0.86796831 0.095206432 8.5797651e-21)
(0.94365744 0.11624216 -2.4876282e-20)
(1.0081945 0.13468902 1.3643127e-20)
(1.0614546 0.15000416 -4.3205018e-21)
(1.1038348 0.1619228 0)
(1.1361601 0.17042795 2.7207655e-20)
(1.1595638 0.17570418 -7.9334771e-20)
(1.1753577 0.17808225 -3.1480452e-20)
(1.184909 0.17798429 8.10673e-20)
(1.1895407 0.17588339 -4.2979498e-21)
(1.1904483 0.17222752 3.5565773e-21)
(1.1885505 0.16716309 2.7116278e-20)
(0.060490978 -0.0069581783 -3.2416184e-20)
(0.18079426 -0.015172389 -8.1629714e-20)
(0.30391632 -0.0075858427 2.5790727e-21)
(0.42646245 0.0097011258 7.0167363e-20)
(0.54539722 0.032629468 6.2429717e-20)
(0.65803423 0.058817952 -7.1580302e-20)
(0.76196793 0.086174096 -2.8178344e-22)
(0.85524613 0.11284915 8.553371e-20)
(0.93651901 0.13737398 4.8834161e-20)
(1.0051077 0.15868761 -5.4226134e-20)
(1.061001 0.17612745 -9.2347221e-20)
(1.1047877 0.18940297 -3.1594344e-21)
(1.1375366 0.19854631 4.2133946e-20)
(1.1606449 0.20384283 -6.6066289e-21)
(1.1756788 0.20575191 -1.28706e-20)
(1.1842283 0.2048285 1.9693434e-20)
(1.1877902 0.20165608 4.3887093e-20)
(1.1876898 0.19680102 -4.3865696e-20)
(1.1850372 0.19075223 -1.0233767e-19)
(1.1806644 0.18374563 2.4571258e-20)
(0.073543744 -0.0034334431 -3.4982192e-20)
(0.21424527 -0.0039900283 -1.7389467e-19)
(0.35254602 0.011838617 8.2110207e-20)
(0.48566736 0.037018069 9.2775105e-20)
(0.61090166 0.066835666 5.7975363e-20)
(0.72582191 0.098481348 8.61163e-21)
(0.82840756 0.12959671 -1.0625122e-19)
(0.91725248 0.15824146 0)
(0.99169112 0.18302539 -6.8758372e-20)
(1.0518154 0.20310731 -1.5204783e-20)
(1.0984001 0.21814148 5.4710863e-20)
(1.13276 0.22820112 1.0974947e-20)
(1.1565671 0.23368026 -4.5620072e-20)
(1.1716597 0.23518453 -4.9087925e-20)
(1.1798701 0.23342599 2.4291231e-20)
(1.1828917 0.22913365 4.4829456e-20)
(1.1821927 0.2229883 -5.5608445e-20)
(1.1789773 0.21558493 -1.0752642e-19)
(1.1741859 0.20739744 -3.1513302e-21)
(1.1684937 0.19869266 2.7050213e-20)
(0.086657683 0.0019613746 -3.5456986e-21)
(0.24698015 0.011816888 8.7918951e-20)
(0.39887872 0.037493403 -1.6476901e-20)
(0.54044577 0.071220346 -8.4317581e-20)
(0.6695481 0.10779144 4.5168731e-20)
(0.78427455 0.14411797 4.9179181e-20)
(0.8832483 0.17775861 5.5363298e-21)
(0.96583953 0.20688556 -9.9514101e-20)
(1.0322373 0.23038684 -2.5051952e-21)
(1.0833927 0.24781205 5.0510218e-20)
(1.1208647 0.25925695 5.9862754e-21)
(1.1466108 0.26522745 -1.9719879e-20)
(1.1627627 0.26649394 -7.5714493e-20)
(1.1714254 0.26395233 -6.2560166e-21)
(1.1745222 0.25850814 4.3538903e-20)
(1.1736981 0.25099271 3.7026702e-20)
(1.1702792 0.24211402 1.9795602e-20)
(1.165279 0.23243729 -5.3003096e-20)
(1.1594382 0.22238139 1.2957727e-20)
(1.1532602 0.21221403 8.2669691e-20)
(-0.0012934026 0.0014348154 -1.1234739e-21)
(-0.0047464614 0.0031877387 2.0648762e-21)
(-0.010772448 0.0041363013 8.7984592e-22)
(-0.017756017 0.0045399457 -2.4409808e-21)
(-0.024742642 0.0045657982 -1.4119204e-21)
(-0.031302421 0.0043263642 1.5464635e-21)
(-0.037164543 0.0039037883 -6.8713557e-21)
(-0.042150909 0.0033578826 -5.9584328e-21)
(-0.046161348 0.0027314427 1.117401e-20)
(-0.049149713 0.0020547844 -9.744513e-21)
(-0.051103969 0.0013491394 -1.98349e-22)
(-0.052033386 0.00062913929 3.6680639e-21)
(-0.051960138 -9.5300704e-05 -6.3305668e-22)
(-0.050913567 -0.00081747769 2.2823243e-20)
(-0.048926567 -0.0015325362 3.0402044e-22)
(-0.046035047 -0.0022360184 -4.0891441e-20)
(-0.042280224 -0.0029232743 7.5402887e-21)
(-0.037700387 -0.003592216 2.386934e-20)
(-0.03230394 -0.0042413449 -4.386232e-20)
(-0.026150284 -0.0048226532 -2.7745662e-20)
(-0.0016523728 0.004181313 -5.3723176e-21)
(-0.0053980208 0.0092690648 1.0866305e-20)
(-0.011219575 0.012008576 -1.0192751e-20)
(-0.017659625 0.013154926 3.9239131e-21)
(-0.023858486 0.013196486 4.813245e-21)
(-0.029435708 0.012463627 7.1338374e-22)
(-0.034154904 0.011197688 -2.2513652e-20)
(-0.037862995 0.0095743027 -2.0373602e-21)
(-0.040476777 0.0077190936 2.0167057e-20)
(-0.041961081 0.0057210127 -5.0482501e-21)
(-0.042310602 0.0036423012 -2.1766527e-20)
(-0.041538288 0.0015257831 4.8982151e-21)
(-0.039667761 -0.00059962245 2.2639507e-20)
(-0.036728018 -0.0027144879 1.0310381e-20)
(-0.032749642 -0.0048048507 2.1858776e-20)
(-0.027765221 -0.006858131 -1.9774767e-20)
(-0.021819053 -0.0088613305 -2.1677421e-20)
(-0.014958491 -0.010807852 2.118945e-20)
(-0.0071189275 -0.012683172 2.6816238e-20)
(0.0018870379 -0.014321936 1.5858017e-20)
(-0.0023036556 0.0065609114 -4.3574373e-21)
(-0.0065398203 0.014481593 -5.6391003e-21)
(-0.011893128 0.018712239 3.0720102e-22)
(-0.017212419 0.0204299 1.0957396e-21)
(-0.021820644 0.020401881 6.6928101e-21)
(-0.025432555 0.019152931 1.0666696e-20)
(-0.027878565 0.017067168 -3.7233907e-21)
(-0.029054216 0.014424213 -1.8899167e-20)
(-0.028909379 0.011424282 6.5424e-21)
(-0.027430559 0.0082092929 1.286473e-20)
(-0.02462615 0.0048785859 5.8352254e-21)
(-0.020517225 0.001500436 1.8162152e-20)
(-0.015131525 -0.0018793136 1.7299037e-21)
(-0.0084990927 -0.0052303833 -3.3870603e-20)
(-0.00064846135 -0.0085314713 1.2024688e-21)
(0.0083918649 -0.01176374 -2.2143016e-20)
(0.018570433 -0.014909543 -2.4471536e-20)
(0.029818769 -0.017960063 4.5829512e-20)
(0.042324927 -0.020862333 2.5355131e-20)
(0.056762426 -0.023255869 1.2286109e-22)
(-0.0031293126 0.0083697934 -5.2840357e-21)
(-0.0078970362 0.018338183 -8.4833674e-21)
(-0.012439833 0.023589808 4.3597873e-21)
(-0.016027401 0.025611641 4.146931e-21)
(-0.018235682 0.025384472 2.0108092e-21)
(-0.018912858 0.023590625 7.3221644e-21)
(-0.017984216 0.020731031 9.3139111e-21)
(-0.015415231 0.017170502 -1.3513573e-21)
(-0.01120431 0.013170737 -1.1483712e-20)
(-0.0053709468 0.0089175958 -2.9076485e-20)
(0.0020542487 0.0045412929 6.1978247e-23)
(0.011034809 0.00013131043 4.0704454e-20)
(0.021533012 -0.004252856 -1.8386011e-20)
(0.033511458 -0.0085724448 -1.2298194e-20)
(0.046937284 -0.012801415 5.5329952e-22)
(0.061780386 -0.016918792 3.230865e-20)
(0.077977183 -0.020909737 -1.483288e-20)
(0.095420667 -0.024772644 -5.3349267e-20)
(0.11443148 -0.028390245 4.577372e-20)
(0.13638373 -0.031084839 3.3019652e-20)
(-0.0039707374 0.0094665989 -6.8784406e-22)
(-0.0090922772 0.020489503 -1.2536228e-20)
(-0.012365045 0.02616108 -3.4149266e-20)
(-0.013552742 0.028145231 -5.7251457e-21)
(-0.012532743 0.027556526 -3.6225489e-21)
(-0.0093151991 0.025189014 6.3060075e-21)
(-0.0039427554 0.021627652 -4.6468962e-21)
(0.0035307231 0.017298385 -8.8082603e-21)
(0.01304347 0.012507279 2.1902764e-20)
(0.024530304 0.0074720014 5.0573241e-21)
(0.037927379 0.0023454329 -2.5294316e-20)
(0.053172438 -0.0027673434 1.1079819e-20)
(0.070205393 -0.0077965801 0)
(0.088969026 -0.012698214 1.2091488e-20)
(0.10941219 -0.017445098 -9.7031968e-21)
(0.13148886 -0.022019411 -1.433969e-20)
(0.15511058 -0.026419571 -1.573404e-21)
(0.18010954 -0.030671841 -2.2188476e-21)
(0.20690114 -0.034590531 4.6154414e-20)
(0.23771784 -0.037035389 -1.0473111e-20)
(-0.004645432 0.0097816719 -7.5364577e-21)
(-0.009677747 0.020749395 2.4519515e-20)
(-0.011064503 0.026162648 -1.0500826e-20)
(-0.009096114 0.027725881 -2.7472718e-20)
(-0.0039777253 0.026602613 -2.7551344e-20)
(0.0040998787 0.023648603 -1.4923458e-20)
(0.014959963 0.019495777 -6.907014e-22)
(0.028444581 0.014603035 5.5506519e-21)
(0.044414442 0.0093006939 1.9618284e-20)
(0.062745157 0.0038245034 7.3540429e-21)
(0.083322758 -0.0016598956 -7.1871217e-21)
(0.10604162 -0.007038672 -2.0103068e-21)
(0.13080082 -0.012236887 -3.8197172e-20)
(0.15750169 -0.01720896 -1.2695495e-20)
(0.18604964 -0.021930424 1.8753851e-20)
(0.21635517 -0.026391956 -2.1025256e-20)
(0.2482817 -0.030616083 -8.9745205e-21)
(0.28157448 -0.034686177 3.044481e-20)
(0.3166694 -0.038382204 5.0479752e-20)
(0.35671967 -0.039983267 3.3565904e-21)
(-0.0049620546 0.0093146635 1.6784943e-20)
(-0.009166494 0.01909882 1.4469375e-20)
(-0.0078588056 0.023564427 5.1151318e-20)
(-0.0018565898 0.024329591 2.3390857e-20)
(0.0082996067 0.022523746 1.8254066e-22)
(0.022228273 0.019013463 -3.9393182e-20)
(0.03960672 0.014438982 -2.4316776e-20)
(0.060160608 0.0092632596 1.0466994e-20)
(0.083655713 0.0038188898 1.4403278e-20)
(0.10988764 -0.001656954 -1.3115088e-20)
(0.13867136 -0.0069980505 -4.4044305e-20)
(0.16983265 -0.012091339 2.9622381e-20)
(0.20320059 -0.016864164 2.0022973e-20)
(0.23860196 -0.021275573 -2.7554904e-20)
(0.27586106 -0.025309614 1.1651906e-20)
(0.31480337 -0.02897207 2.4201095e-20)
(0.35520738 -0.032319704 8.0737407e-21)
(0.39670254 -0.035525151 -1.1766376e-20)
(0.43965237 -0.038413057 -1.4191863e-20)
(0.48806737 -0.038656789 5.8753855e-21)
(-0.004730946 0.0081241258 1.1095043e-20)
(-0.0070583674 0.015671715 -2.3355711e-20)
(-0.0020278419 0.018562256 8.6206596e-21)
(0.0090360679 0.018215825 3.3591894e-20)
(0.025262575 0.015649888 5.2130153e-20)
(0.046075816 0.011693304 2.0278779e-20)
(0.070997825 0.0069574847 -5.8646545e-21)
(0.099619601 0.0018782145 -1.2287531e-20)
(0.13159144 -0.0032332863 -6.2065767e-21)
(0.16660347 -0.008157167 3.4244769e-20)
(0.20436777 -0.012742314 -4.5112552e-21)
(0.24460445 -0.016889724 -1.6645484e-20)
(0.28703069 -0.020540824 -1.969585e-20)
(0.33135258 -0.023670206 -4.7449951e-20)
(0.37726393 -0.026281036 2.3241777e-20)
(0.4244538 -0.028405124 -1.4098005e-20)
(0.4725725 -0.030146686 2.5997505e-20)
(0.52111538 -0.031804101 2.1044021e-20)
(0.57029915 -0.033373542 -8.5580477e-20)
(0.62480006 -0.032083779 -1.0748499e-22)
(-0.0037710262 0.0063148354 2.1927198e-20)
(-0.0028648594 0.010734955 -2.6168584e-20)
(0.0071449193 0.011563379 -4.5018046e-20)
(0.024455794 0.0099233862 -2.7256761e-20)
(0.047879883 0.0066496718 -2.044205e-21)
(0.076641863 0.0024868179 1.3051302e-20)
(0.11009462 -0.0020204582 -2.8339143e-21)
(0.14767521 -0.0064943068 1.8120354e-20)
(0.18888986 -0.010671308 8.8693558e-21)
(0.233287 -0.014371683 -1.1381358e-20)
(0.28043303 -0.017479719 8.8792104e-21)
(0.32989428 -0.019929134 -2.3906018e-20)
(0.38122389 -0.021692638 8.0517217e-21)
(0.43395276 -0.022775482 1.6758591e-20)
(0.48758796 -0.023211633 -2.6398478e-21)
(0.54162215 -0.023066004 1.6620685e-21)
(0.5955164 -0.022490383 -3.1942658e-22)
(0.64860412 -0.021892894 1.9593257e-20)
(0.70091322 -0.021469773 4.0439491e-21)
(0.75754594 -0.018525883 -5.7632778e-22)
(-0.0019107067 0.0040272661 2.3694631e-20)
(0.0038712476 0.0046756539 5.7166349e-20)
(0.020319769 0.0031861782 -4.9249274e-20)
(0.045186301 0.00029159079 -9.9464435e-21)
(0.076977503 -0.0034281502 2.0258276e-20)
(0.1147136 -0.0073588261 2.1435792e-21)
(0.15756181 -0.011061494 -2.9818011e-20)
(0.20477742 -0.014252016 6.9853476e-21)
(0.25568512 -0.016747182 7.1107075e-21)
(0.30964716 -0.018437625 -2.625693e-20)
(0.36603587 -0.019272223 1.2929257e-21)
(0.42421594 -0.019245499 -3.7178482e-20)
(0.4835342 -0.018387402 -3.634557e-20)
(0.54331533 -0.016755114 6.5692342e-20)
(0.60286381 -0.014425861 5.5635691e-21)
(0.66146989 -0.011496268 -1.5191525e-20)
(0.71839344 -0.0081243137 1.9366686e-20)
(0.77278824 -0.0046171075 -9.1901332e-22)
(0.82418015 -0.00099436154 2.0365959e-20)
(0.87631278 0.0042995465 -1.9558686e-20)
(-0.01882737 -0.0051013652 5.8366214e-20)
(-0.010212713 -0.0056367686 1.5787293e-20)
(-0.00020590027 -0.0060708973 -3.5148153e-20)
(0.010842297 -0.006336277 1.6794861e-20)
(0.022665719 -0.0065143558 0)
(0.035205741 -0.0066325371 0)
(0.048402565 -0.0066935534 -2.2981457e-20)
(0.062176488 -0.0067052467 -1.6507553e-20)
(0.076457113 -0.0066770028 1.9128654e-20)
(0.09118495 -0.0066156109 1.8179793e-20)
(0.10630504 -0.0065262632 1.0526623e-21)
(0.12176561 -0.0064135236 -1.0320798e-20)
(0.13751836 -0.0062813513 8.33017e-21)
(0.15351812 -0.0061330941 1.8239571e-20)
(0.16972213 -0.005971616 -5.2299097e-21)
(0.18608978 -0.0057994031 -1.0178266e-20)
(0.20258236 -0.0056186274 -4.32101e-21)
(0.21916285 -0.0054311986 -4.4268808e-21)
(0.23579589 -0.0052388097 7.3679366e-22)
(0.25244764 -0.005042972 1.2291441e-21)
(0.26908583 -0.0048450416 2.5681904e-21)
(0.28567972 -0.0046462391 6.656979e-21)
(0.3022002 -0.0044476649 2.4830664e-22)
(0.3186198 -0.0042503096 -3.4533523e-21)
(0.33491276 -0.004055062 1.5549005e-22)
(0.35105512 -0.0038627149 -5.7746444e-22)
(0.36702471 -0.0036739695 1.2443017e-21)
(0.38280127 -0.0034894397 1.0526812e-21)
(0.39836641 -0.0033096554 -1.3006363e-21)
(0.41370367 -0.0031350663 -1.2210718e-22)
(0.42879849 -0.002966046 3.4710098e-23)
(0.44363823 -0.0028028964 -3.5233596e-22)
(0.45821212 -0.0026458525 -4.0680738e-22)
(0.47251125 -0.0024950879 5.6198128e-23)
(0.48652848 -0.0023507202 -1.3839401e-22)
(0.50025847 -0.0022128178 -2.2387545e-22)
(0.51369759 -0.0020814059 2.5637196e-22)
(0.52684393 -0.0019564736 2.9592505e-22)
(0.53969719 -0.0018379831 -8.8938342e-24)
(0.55225909 -0.0017258735 -1.5676029e-22)
(0.56453221 -0.0016200895 3.0390311e-23)
(0.57652403 -0.0015205356 -4.032214e-23)
(0.58823532 -0.0014272941 9.3502077e-23)
(0.59969699 -0.001340028 2.1674526e-23)
(0.61086229 -0.0012600619 -1.1761108e-22)
(0.62193129 -0.0011841289 -7.0542053e-24)
(0.63241032 -0.0011246812 9.2796665e-26)
(0.64386037 -0.0010483465 -4.0485486e-24)
(0.6520276 -0.0010670013 2.9315219e-23)
(0.66894175 -0.00089396216 3.6496267e-22)
(0.01046144 -0.015022681 -1.2750342e-20)
(0.018198227 -0.016646604 -6.3317258e-20)
(0.027801223 -0.017921522 -3.0550116e-20)
(0.038411059 -0.018678618 3.8486164e-20)
(0.049651175 -0.019190547 1.4666619e-20)
(0.061541489 -0.019536795 -1.8210546e-20)
(0.07405278 -0.019717618 4.6742739e-21)
(0.08710817 -0.019754618 2.5454432e-20)
(0.10064464 -0.019675764 9.1309214e-23)
(0.11461199 -0.019500527 -7.6618153e-21)
(0.12896212 -0.019243517 -1.3023974e-20)
(0.14364844 -0.018917788 -8.5279599e-21)
(0.1586271 -0.018534758 1.7778021e-20)
(0.17385659 -0.018104086 8.9348265e-21)
(0.1892972 -0.017634058 -1.6526745e-20)
(0.20491077 -0.0171319 -6.041108e-21)
(0.2206606 -0.016603952 3.2152509e-21)
(0.23651134 -0.016055812 8.3739728e-21)
(0.25242898 -0.015492464 6.9862118e-21)
(0.26838082 -0.014918369 -6.9768945e-21)
(0.28433548 -0.014337546 -3.171698e-21)
(0.300263 -0.013753623 1.3628426e-21)
(0.31613485 -0.013169878 3.8917222e-22)
(0.33192407 -0.012589271 1.2126155e-21)
(0.34760526 -0.012014461 1.8432591e-22)
(0.36315475 -0.011447825 -3.2738434e-22)
(0.37855057 -0.010891471 -7.254118e-22)
(0.39377256 -0.010347246 9.7390272e-22)
(0.40880237 -0.0098167485 8.2658044e-22)
(0.42362352 -0.0093013396 -1.5327297e-22)
(0.43822136 -0.0088021527 5.547315e-22)
(0.45258308 -0.0083201077 -2.3912075e-22)
(0.46669772 -0.0078559251 -3.7233619e-22)
(0.4805561 -0.0074101419 -6.1206535e-22)
(0.49415079 -0.0069831282 4.426864e-22)
(0.5074761 -0.0065751063 -1.7393446e-23)
(0.52052801 -0.0061861698 1.6328445e-22)
(0.53330423 -0.0058163041 -4.4495583e-22)
(0.54580401 -0.0054654142 3.7631507e-22)
(0.55802861 -0.0051333349 6.7613906e-23)
(0.56998016 -0.0048199182 -1.029245e-22)
(0.58166559 -0.0045248954 1.793999e-22)
(0.59308528 -0.0042485291 2.3855711e-22)
(0.60426936 -0.0039898275 1.7389145e-22)
(0.61517128 -0.0037527606 1.7348681e-22)
(0.6259882 -0.0035275992 -2.7191648e-23)
(0.63623292 -0.0033514618 8.9774763e-23)
(0.64744322 -0.0031249993 8.203946e-23)
(0.65543095 -0.0031808926 -2.028741e-22)
(0.67202502 -0.0026675525 -3.7050122e-23)
(0.067642154 -0.024037815 9.4552724e-21)
(0.073620203 -0.026758527 3.2964428e-21)
(0.082299712 -0.02881586 -1.2166748e-20)
(0.091986137 -0.029979483 -1.2267538e-21)
(0.10202594 -0.030779489 1.4975287e-20)
(0.11259384 -0.031343157 -1.4891269e-20)
(0.12372863 -0.031648957 -2.9851579e-20)
(0.13535507 -0.031726486 1.4498584e-20)
(0.14742121 -0.031621689 1.8188283e-20)
(0.15989413 -0.031364661 -1.1602629e-20)
(0.17273823 -0.030976958 1.0193832e-21)
(0.18591586 -0.030478408 8.687367e-21)
(0.19939081 -0.029886707 -1.5259645e-20)
(0.21312801 -0.029216883 2.9138247e-21)
(0.22709291 -0.028481884 7.5230743e-21)
(0.24125153 -0.027693102 2.9078117e-23)
(0.25557054 -0.026860627 2.639823e-22)
(0.27001739 -0.025993438 -7.4193736e-21)
(0.2845603 -0.025099584 3.8667323e-21)
(0.29916839 -0.024186328 8.4803522e-21)
(0.31381177 -0.023260247 -3.8377306e-21)
(0.32846166 -0.022327313 -2.2141088e-21)
(0.3430905 -0.021392946 1.0121434e-21)
(0.35767205 -0.02046206 -1.7173646e-21)
(0.37218151 -0.019539087 1.3540111e-21)
(0.38659559 -0.018628005 7.1891794e-22)
(0.40089258 -0.017732348 1.5314344e-21)
(0.41505244 -0.016855229 -1.9576567e-21)
(0.42905683 -0.015999351 2.2297666e-21)
(0.44288913 -0.015167024 5.5332455e-22)
(0.45653448 -0.014360185 4.0698611e-22)
(0.46997973 -0.013580418 3.2176078e-22)
(0.4832135 -0.012828977 8.7785255e-22)
(0.4962261 -0.012106811 -1.378278e-21)
(0.50900952 -0.011414593 3.7314097e-22)
(0.52155741 -0.010752751 1.1204331e-22)
(0.53386505 -0.010121499 -4.6102979e-23)
(0.54592936 -0.0095208696 8.5712547e-23)
(0.55774879 -0.0089507631 -3.7518845e-22)
(0.56932373 -0.0084109608 1.8547046e-22)
(0.58065545 -0.0079012719 -3.5241324e-23)
(0.59174993 -0.0074213031 3.9870913e-22)
(0.60260672 -0.0069715401 -1.899557e-22)
(0.61325457 -0.0065503908 4.8143045e-23)
(0.62364728 -0.006164452 4.5250608e-23)
(0.63397651 -0.005797745 -7.6549413e-23)
(0.64376743 -0.0055113306 -1.2854372e-22)
(0.65451327 -0.0051422139 4.0799506e-22)
(0.66215269 -0.005234996 1.8010366e-22)
(0.67812637 -0.0043985876 -8.4059278e-22)
(0.15025812 -0.031472928 1.5017514e-21)
(0.15359294 -0.035270903 -1.1568548e-20)
(0.16066613 -0.038025468 6.6450256e-21)
(0.16886013 -0.039494532 -1.3328095e-20)
(0.17704103 -0.040536959 -1.976352e-21)
(0.1855871 -0.041319386 9.1632831e-21)
(0.19465306 -0.041775159 -9.7707143e-21)
(0.20416138 -0.041932418 1.5654018e-21)
(0.21406814 -0.041852798 1.2907693e-20)
(0.22436285 -0.041574539 3.4052159e-21)
(0.23502623 -0.041122963 -6.2116695e-21)
(0.24603121 -0.040522063 -2.8657774e-21)
(0.25735037 -0.03979404 -5.8413134e-21)
(0.2689562 -0.038958011 -6.458527e-21)
(0.28082016 -0.038030586 3.2346949e-21)
(0.29291298 -0.037026562 8.4382725e-22)
(0.30520513 -0.035959233 1.3695071e-21)
(0.31766706 -0.034840582 -3.3863953e-21)
(0.3302694 -0.033681471 -4.2467909e-21)
(0.34298319 -0.032491797 2.3638316e-21)
(0.35578006 -0.0312806 3.2288922e-21)
(0.3686324 -0.03005615 -1.5666136e-21)
(0.38151357 -0.028826006 1.5885869e-21)
(0.39439802 -0.027597051 -3.9257559e-22)
(0.40726141 -0.02637553 -3.9265582e-21)
(0.42008074 -0.025167069 -3.0364803e-21)
(0.43283444 -0.023976695 -1.9159026e-22)
(0.44550244 -0.02280885 4.2776641e-22)
(0.45806623 -0.021667414 -2.2136958e-21)
(0.47050889 -0.020555725 -8.5923614e-22)
(0.48281514 -0.0194766 2.2862827e-22)
(0.49497129 -0.018432368 -1.2548471e-21)
(0.50696531 -0.017424898 5.1369089e-24)
(0.51878675 -0.016455633 -4.2697759e-22)
(0.53042677 -0.015525633 -4.7297849e-22)
(0.5418781 -0.014635614 -5.2545674e-22)
(0.55313502 -0.013785993 -8.4991005e-22)
(0.56419338 -0.012976932 -5.3902138e-23)
(0.57505053 -0.012208407 -3.9342864e-24)
(0.58570568 -0.011480225 -5.2638292e-22)
(0.59615891 -0.010792229 -9.0861777e-23)
(0.60641492 -0.010143978 -3.3871743e-22)
(0.61647217 -0.0095362437 -4.4850647e-22)
(0.62635747 -0.0089669227 3.8832097e-22)
(0.6360252 -0.0084451915 1.5224529e-23)
(0.64565921 -0.0079491949 1.8930903e-22)
(0.65480248 -0.0075626785 -1.4077955e-22)
(0.66488426 -0.0070629838 -2.7998588e-22)
(0.67202582 -0.007191878 -3.739634e-23)
(0.68710967 -0.0060603071 4.685495e-22)
(0.25474507 -0.036569233 -2.090558e-20)
(0.25453294 -0.041411102 4.7595838e-20)
(0.25914001 -0.044764428 1.0350088e-20)
(0.26515526 -0.046461845 -1.5769165e-20)
(0.27078511 -0.047735102 -2.0241064e-21)
(0.27660061 -0.048769554 2.6230315e-21)
(0.28292137 -0.049436473 -1.6621865e-21)
(0.28966834 -0.049751801 -4.6874525e-21)
(0.29679393 -0.049786052 -4.0171027e-21)
(0.30430913 -0.049582571 -1.2211387e-20)
(0.31221255 -0.049168083 1.7905057e-20)
(0.32048688 -0.048568054 6.5253055e-21)
(0.32911211 -0.047807057 -1.6786168e-20)
(0.33806723 -0.046906938 1.0318865e-20)
(0.34732889 -0.045887038 8.3855072e-21)
(0.35687172 -0.044764866 -8.7703299e-22)
(0.36666918 -0.043556438 -3.1216189e-21)
(0.37669401 -0.042276444 -3.82384e-21)
(0.3869186 -0.040938397 -1.3911472e-21)
(0.39731528 -0.039554754 -1.2322158e-21)
(0.40785664 -0.038137018 -3.0298208e-21)
(0.41851575 -0.036695802 0)
(0.42926643 -0.035240872 -1.3473192e-21)
(0.44008335 -0.033781185 3.9343511e-21)
(0.45094226 -0.032324905 5.4125076e-21)
(0.4618201 -0.030879426 -9.4166664e-22)
(0.47269507 -0.029451386 -2.9346369e-21)
(0.48354677 -0.028046685 3.0347438e-21)
(0.49435622 -0.026670503 2.5209646e-22)
(0.50510594 -0.025327325 3.4454275e-21)
(0.51577994 -0.024020973 -5.3517796e-22)
(0.52636376 -0.022754637 1.7223227e-21)
(0.53684447 -0.021530918 -8.0342803e-22)
(0.54721065 -0.020351872 2.9395655e-22)
(0.55745239 -0.019219055 -4.3748338e-22)
(0.5675613 -0.018133582 5.6500984e-22)
(0.57753043 -0.01709618 4.609372e-22)
(0.58735438 -0.01610725 3.8621814e-22)
(0.59702917 -0.015166943 -9.6933623e-22)
(0.60655265 -0.014275194 6.9176016e-22)
(0.61592351 -0.013431977 -3.7442337e-22)
(0.62514494 -0.012636894 -1.1227317e-21)
(0.63421414 -0.011891082 1.4364524e-21)
(0.64315564 -0.011192038 -6.3132865e-23)
(0.65192465 -0.010551444 -1.6277793e-22)
(0.6606953 -0.0099420705 -8.1157402e-24)
(0.66903317 -0.0094686314 -1.3408054e-22)
(0.67828671 -0.0088541848 -4.8637171e-22)
(0.68480816 -0.0090180002 8.7410891e-22)
(0.6987765 -0.0076279916 -4.5075858e-23)
(0.37642626 -0.038388541 -1.7499567e-20)
(0.37178811 -0.044291779 1.2834272e-20)
(0.37294914 -0.048184402 2.9772563e-21)
(0.37599714 -0.050122777 -7.6371942e-21)
(0.37839659 -0.05169501 1.205895e-20)
(0.38081908 -0.053068532 7.7934506e-21)
(0.38377728 -0.054057308 -1.2650209e-20)
(0.3872073 -0.054661457 -6.069666e-21)
(0.39104175 -0.054947421 1.2700998e-20)
(0.3953011 -0.054957594 -1.5311609e-20)
(0.39999945 -0.054718999 -1.4067475e-20)
(0.40512722 -0.054257143 1.4136797e-20)
(0.41066815 -0.053597142 6.8217435e-21)
(0.41660457 -0.052762412 -4.2089455e-21)
(0.42291589 -0.051774455 -1.8528264e-21)
(0.42957867 -0.050653163 -4.0572233e-21)
(0.43656759 -0.049417097 5.3040494e-21)
(0.44385614 -0.048083617 3.6696652e-21)
(0.45141717 -0.046668954 -3.241469e-21)
(0.45922316 -0.045188267 3.1392681e-21)
(0.46724667 -0.043655696 2.7693928e-21)
(0.47546055 -0.042084401 -3.2141576e-21)
(0.48383827 -0.040486574 3.7076968e-22)
(0.49235406 -0.038873462 -3.258861e-21)
(0.50098314 -0.037255368 7.2596165e-21)
(0.50970179 -0.035641666 6.1177156e-21)
(0.51848753 -0.034040812 8.1307198e-22)
(0.52731916 -0.032460352 -1.7711992e-21)
(0.53617687 -0.030906956 3.7141453e-21)
(0.54504222 -0.029386432 7.2110977e-21)
(0.55389826 -0.027903773 2.3103344e-21)
(0.56272945 -0.026463192 3.329165e-21)
(0.57152174 -0.025068173 2.0027033e-21)
(0.58026253 -0.023721524 7.4948676e-22)
(0.58894068 -0.022425441 -2.6429245e-22)
(0.59754647 -0.021181569 2.7376822e-21)
(0.60607163 -0.019991072 6.2422954e-22)
(0.61450938 -0.018854709 2.9697309e-22)
(0.6228543 -0.017772926 5.6617806e-23)
(0.63110279 -0.016745897 1.0020661e-21)
(0.63925207 -0.01577383 4.7385776e-23)
(0.64730373 -0.014856482 4.5030614e-22)
(0.65525367 -0.013995428 -1.2813665e-22)
(0.66312395 -0.013187897 -2.842429e-22)
(0.6708709 -0.01244797 -1.5634649e-22)
(0.67865743 -0.011743637 -4.3594361e-22)
(0.6860758 -0.011198511 1.7038493e-22)
(0.69437988 -0.010487791 -1.3219372e-22)
(0.70019241 -0.010684979 -4.9806201e-22)
(0.71287276 -0.0090796096 2.5015659e-22)
(0.50936176 -0.035998194 3.646783e-21)
(0.49962122 -0.042985811 -1.8961125e-20)
(0.49637012 -0.047409868 -2.3090893e-21)
(0.49565474 -0.049764387 5.4880069e-21)
(0.49427286 -0.051846882 3.0541206e-21)
(0.49280375 -0.053735492 -4.8680032e-23)
(0.49192526 -0.055218962 6.1927142e-21)
(0.49163275 -0.056297927 7.6275699e-21)
(0.49183551 -0.05702426 9.8603683e-21)
(0.49254051 -0.057430483 -1.125381e-20)
(0.49376715 -0.057542375 -2.1587793e-20)
(0.4955106 -0.057385642 -3.938106e-21)
(0.49775464 -0.056985495 1.5944918e-20)
(0.50048058 -0.056366504 1.2814441e-20)
(0.5036673 -0.055552356 -5.9075591e-21)
(0.50729077 -0.0545656 1.3798676e-21)
(0.51132481 -0.053427679 -3.6639158e-21)
(0.51574193 -0.052158993 2.2497954e-21)
(0.52051388 -0.050778888 -2.913549e-22)
(0.52561204 -0.04930563 -1.866861e-21)
(0.53100781 -0.047756399 7.8349009e-21)
(0.53667288 -0.046147283 -2.9469256e-22)
(0.54257951 -0.04449327 4.1987698e-22)
(0.54870072 -0.04280824 -6.5525577e-22)
(0.55501051 -0.041104958 -4.3080918e-21)
(0.56148394 -0.039395079 4.2140236e-21)
(0.56809729 -0.037689149 1.9043591e-21)
(0.5748281 -0.035996628 -3.3133833e-21)