/*--------------------------------*- C++ -*----------------------------------*\
  =========                 |
  \\      /  F ield         | OpenFOAM: The Open Source CFD Toolbox
   \\    /   O peration     | Website:  https://openfoam.org
    \\  /    A nd           | Version:  6
     \\/     M anipulation  |
\*---------------------------------------------------------------------------*/
FoamFile
{
    version     2.0;
    format      ascii;
    class       volScalarField;
    location    "54";
    object      p;
}
// * * * * * * * * * * * * * * * * * * * * * * * * * * * * * * * * * * * * * //

dimensions      [0 2 -2 0 0 0 0];

internalField   nonuniform List<scalar> 
9200
(
-0.38374967
-0.37237364
-0.36225471
-0.35328402
-0.34452398
-0.33598823
-0.32775493
-0.31979109
-0.31202879
-0.30439547
-0.29681753
-0.28922535
-0.28156026
-0.27378189
-0.26587873
-0.25788598
-0.24988015
-0.24194945
-0.23511668
-0.2336591
-0.40164879
-0.38781805
-0.37575288
-0.36526045
-0.3551265
-0.34533209
-0.33594569
-0.32690339
-0.3181049
-0.30945112
-0.30084821
-0.2922134
-0.28348261
-0.27461647
-0.26560591
-0.25647612
-0.24725746
-0.23795035
-0.22923617
-0.22327731
-0.4199641
-0.40365637
-0.38969147
-0.37774816
-0.3662958
-0.35526456
-0.34470148
-0.33450397
-0.32453748
-0.31468037
-0.30482776
-0.29489723
-0.28483561
-0.27462209
-0.26426811
-0.2538129
-0.24329596
-0.23272709
-0.22250482
-0.21374245
-0.43826005
-0.41949508
-0.40369633
-0.39036396
-0.37761327
-0.36530719
-0.35346342
-0.34194031
-0.33057708
-0.3192451
-0.30784944
-0.29633189
-0.2846741
-0.2728953
-0.26104553
-0.24919544
-0.23741242
-0.22573614
-0.21443387
-0.20424609
-0.45590478
-0.43478638
-0.41727101
-0.40262672
-0.38858702
-0.37493679
-0.36166437
-0.34859986
-0.33557698
-0.32248742
-0.3092761
-0.29593738
-0.28251083
-0.26907126
-0.25571513
-0.24254627
-0.22965551
-0.21710195
-0.20507384
-0.19407865
-0.47207151
-0.44880915
-0.42975329
-0.41388641
-0.39855052
-0.38345268
-0.36856446
-0.35371355
-0.33876256
-0.32366009
-0.30842386
-0.29312552
-0.27787618
-0.26280814
-0.24805658
-0.2337443
-0.21996648
-0.20677929
-0.19430878
-0.18289202
-0.48575269
-0.46067476
-0.44031616
-0.42332654
-0.4066735
-0.39000224
-0.37329564
-0.35641999
-0.3393115
-0.32201517
-0.30464976
-0.28737791
-0.27038119
-0.25383642
-0.23789689
-0.22268099
-0.20826466
-0.19467898
-0.1819908
-0.17040156
-0.49578209
-0.4693507
-0.44800045
-0.43001138
-0.4120267
-0.39366396
-0.37496026
-0.35587298
-0.33646052
-0.31689924
-0.29742615
-0.27829431
-0.25974092
-0.24196378
-0.22510821
-0.20926423
-0.19446894
-0.18071395
-0.16800802
-0.15643848
-0.50081512
-0.47355919
-0.45151743
-0.43260227
-0.41323137
-0.39305708
-0.37223099
-0.35085895
-0.32916113
-0.30746067
-0.28610604
-0.26541782
-0.24565785
-0.22701352
-0.20959583
-0.19344779
-0.17855697
-0.16487135
-0.15234557
-0.1409692
-0.4994995
-0.47188109
-0.44931689
-0.42943114
-0.40856327
-0.38648434
-0.36352605
-0.33998852
-0.3162673
-0.29281515
-0.2700544
-0.24832752
-0.22787807
-0.20885
-0.19129961
-0.1752144
-0.16053294
-0.14716529
-0.13501922
-0.12399918
-0.27057317
-0.27525818
-0.27777111
-0.2785218
-0.27830433
-0.27730603
-0.27560847
-0.27329933
-0.27045086
-0.26711782
-0.26334427
-0.2591677
-0.25462122
-0.24973489
-0.24453697
-0.23905637
-0.23332402
-0.22736047
-0.22116466
-0.21482245
-0.27331482
-0.27758299
-0.27978812
-0.28031951
-0.27991852
-0.27876369
-0.27693468
-0.27451544
-0.27157466
-0.26816423
-0.2643258
-0.26009474
-0.25550226
-0.25057641
-0.24534285
-0.23982947
-0.23407468
-0.22809739
-0.22178975
-0.21512546
-0.2786615
-0.2821146
-0.28371975
-0.2838222
-0.28306141
-0.28160043
-0.27951536
-0.27688286
-0.27376464
-0.27020697
-0.26624663
-0.26191479
-0.25723884
-0.252243
-0.24694806
-0.24137903
-0.23558576
-0.22958608
-0.22307954
-0.2158067
-0.28637187
-0.28865837
-0.28939521
-0.28886719
-0.2875722
-0.28565361
-0.28318354
-0.28022873
-0.27684121
-0.27305936
-0.26891309
-0.26442744
-0.25962426
-0.25452205
-0.24913476
-0.24348221
-0.2376262
-0.23158923
-0.22482391
-0.21669914
-0.29614193
-0.29696996
-0.29660191
-0.29525442
-0.29325587
-0.29072873
-0.28774194
-0.28435088
-0.28059615
-0.27650685
-0.27210458
-0.2674061
-0.26242571
-0.25717495
-0.25165965
-0.24589121
-0.23993933
-0.23383982
-0.22678601
-0.21763012
-0.30765624
-0.30679592
-0.3051214
-0.30278206
-0.29991995
-0.29663805
-0.29300432
-0.28906311
-0.28484295
-0.28036124
-0.27562875
-0.27065293
-0.26543924
-0.25999075
-0.25430413
-0.24837942
-0.24228622
-0.23607976
-0.22872284
-0.21843015
-0.32063459
-0.31791029
-0.31476226
-0.31127984
-0.30741014
-0.30323986
-0.29883987
-0.29424306
-0.28946321
-0.28450519
-0.27936823
-0.27404843
-0.26854061
-0.26283822
-0.25692881
-0.25080056
-0.24451577
-0.23815229
-0.230506
-0.21908636
-0.33486019
-0.33013742
-0.32538221
-0.32063365
-0.31563976
-0.31047391
-0.3052102
-0.29986928
-0.2944501
-0.28894303
-0.28333288
-0.27760138
-0.27172963
-0.26569894
-0.25948709
-0.25307331
-0.24651704
-0.23994205
-0.23209698
-0.21978278
-0.35017961
-0.34334464
-0.33687067
-0.33075678
-0.3245445
-0.31829259
-0.31208027
-0.30591539
-0.29977922
-0.29364441
-0.28747771
-0.28124232
-0.27490012
-0.268412
-0.26173323
-0.25481565
-0.24768317
-0.24044205
-0.23183735
-0.21836523
-0.36649387
-0.35742404
-0.34911527
-0.34153153
-0.33399449
-0.32654803
-0.31927639
-0.31217231
-0.30519683
-0.29830318
-0.29143977
-0.28455293
-0.2775899
-0.27049886
-0.26322369
-0.25569978
-0.24786989
-0.23952768
-0.2290246
-0.21332003
-0.20763028
-0.19862858
-0.1896195
-0.18066769
-0.1717192
-0.16281585
-0.15401157
-0.14534173
-0.1368359
-0.12852296
-0.120429
-0.11257647
-0.10498475
-0.097670408
-0.090647231
-0.083926253
-0.077515888
-0.071422019
-0.065648098
-0.06019525
-0.055062397
-0.050246396
-0.045742185
-0.041542951
-0.037640306
-0.03402447
-0.030684465
-0.027608312
-0.024783221
-0.022195782
-0.019832148
-0.017678212
-0.015719764
-0.013942647
-0.01233289
-0.010876842
-0.0095612957
-0.0083735699
-0.0073017603
-0.0063344411
-0.0054622597
-0.0046736364
-0.0039693637
-0.0033195655
-0.0027964517
-0.0021857933
-0.0021322771
-0.00085743619
-0.0035476304
0.0041625228
-0.20865118
-0.19925043
-0.19013203
-0.18119502
-0.17222865
-0.16329513
-0.15446646
-0.14577439
-0.13724599
-0.12891071
-0.12079492
-0.11292096
-0.1053082
-0.097973271
-0.090930031
-0.084189581
-0.077760398
-0.07164843
-0.065857179
-0.060387815
-0.055239294
-0.050408494
-0.045890366
-0.041678102
-0.037763307
-0.034136187
-0.030785746
-0.027699978
-0.024866061
-0.022270551
-0.019899565
-0.017738953
-0.015774465
-0.0139919
-0.012377246
-0.010916807
-0.0095973337
-0.0084061034
-0.0073311704
-0.0063610676
-0.0054864004
-0.0046955495
-0.0039892383
-0.0033376075
-0.0028124819
-0.0022005272
-0.0021426353
-0.00087118928
-0.0035347107
0.0041214205
-0.21079098
-0.2005359
-0.19119955
-0.18233242
-0.17334294
-0.16434881
-0.15547265
-0.14673669
-0.13816131
-0.12977812
-0.12161474
-0.1136934
-0.10603357
-0.098652242
-0.091563552
-0.084778826
-0.078306755
-0.072153476
-0.066322648
-0.060815567
-0.055631283
-0.050766738
-0.04621692
-0.041975032
-0.038032667
-0.034380002
-0.031005991
-0.027898565
-0.025044826
-0.022431247
-0.02004385
-0.017868391
-0.015890517
-0.014095924
-0.012470497
-0.011000438
-0.0096723971
-0.0084735517
-0.0073918601
-0.0064157598
-0.0055357609
-0.0047401502
-0.0040295132
-0.0033739901
-0.0028446897
-0.0022299157
-0.0021632922
-0.00089825803
-0.0035089662
0.0040398783
-0.2138877
-0.2022504
-0.19259239
-0.18392658
-0.17494878
-0.16587821
-0.15694826
-0.14816374
-0.13952954
-0.13108243
-0.12285377
-0.11486584
-0.10713841
-0.099689337
-0.092533455
-0.085682628
-0.079146012
-0.072930158
-0.06703907
-0.061474315
-0.056235152
-0.051318677
-0.04671998
-0.042432315
-0.038447288
-0.034755049
-0.031344496
-0.028203474
-0.025318983
-0.022677368
-0.020264516
-0.018066034
-0.016067414
-0.014254194
-0.012612098
-0.011127169
-0.0097858973
-0.008575307
-0.0074832045
-0.0064978774
-0.005609688
-0.0048067746
-0.0040895141
-0.0034280335
-0.0028923845
-0.0022732715
-0.0021935747
-0.00093791537
-0.0034703159
0.0039194374
-0.21771033
-0.20411986
-0.19403784
-0.18577631
-0.17689647
-0.16775249
-0.15878017
-0.14996377
-0.14127653
-0.1327624
-0.12446135
-0.1163968
-0.10858894
-0.10105708
-0.093817493
-0.086883065
-0.080263811
-0.073967032
-0.067997363
-0.062356881
-0.057045246
-0.052059862
-0.047396038
-0.043047171
-0.039004941
-0.035259513
-0.031799748
-0.028613412
-0.025687386
-0.02300787
-0.02056058
-0.018330935
-0.016304228
-0.014465787
-0.012801124
-0.011296066
-0.0099368928
-0.0087104182
-0.0076042438
-0.0066064529
-0.005707207
-0.0048944426
-0.0041682554
-0.0034987491
-0.0029545762
-0.0023295996
-0.0022325584
-0.00098905161
-0.0034188773
0.0037625473
-0.22190618
-0.20586043
-0.19526355
-0.18764458
-0.17900995
-0.16982488
-0.16083295
-0.15201957
-0.14330647
-0.1347391
-0.12637134
-0.11823111
-0.11033962
-0.10271808
-0.095384975
-0.088355025
-0.08163967
-0.075247431
-0.069183982
-0.063452259
-0.058052614
-0.05298299
-0.048239108
-0.043814656
-0.039701503
-0.035889914
-0.032368767
-0.029125782
-0.026147736
-0.02342068
-0.020930144
-0.018661331
-0.016599298
-0.014729122
-0.013036056
-0.011505663
-0.010123959
-0.0088774955
-0.007753617
-0.0067401502
-0.0058270029
-0.0050018575
-0.004264455
-0.0035848706
-0.0030300122
-0.0023976564
-0.0022791072
-0.0010503033
-0.0033548775
0.0035723772
-0.22607215
-0.20728822
-0.19605593
-0.18925034
-0.18108497
-0.17196512
-0.1629885
-0.15421588
-0.14552052
-0.13693184
-0.12851614
-0.12031129
-0.11234185
-0.10463138
-0.097201352
-0.090069256
-0.083248764
-0.076750232
-0.070580899
-0.064745008
-0.059243977
-0.054076598
-0.04923925
-0.044726113
-0.0405294
-0.03663959
-0.033045667
-0.029735359
-0.026695373
-0.023911622
-0.021369447
-0.019053818
-0.01694953
-0.015041374
-0.013314302
-0.011753569
-0.01034488
-0.0090744746
-0.0079293909
-0.0068971485
-0.005967351
-0.0051273768
-0.0043765393
-0.0036848867
-0.0031172328
-0.0024760331
-0.0023319511
-0.001120208
-0.0032786091
0.0033525942
-0.22994139
-0.20879744
-0.19663977
-0.19040532
-0.18290524
-0.1740837
-0.1652013
-0.15649461
-0.14785471
-0.13928295
-0.13084456
-0.12259009
-0.11455191
-0.10675714
-0.099230587
-0.091993295
-0.085061968
-0.078449423
-0.07216497
-0.066214599
-0.060601171
-0.05532464
-0.050382307
-0.045769059
-0.041477624
-0.037498832
-0.033821874
-0.030434559
-0.027323574
-0.024474724
-0.02187317
-0.019503647
-0.017350669
-0.015398718
-0.013632412
-0.01203666
-0.010596814
-0.0092987599
-0.0081291837
-0.0070752513
-0.0061262142
-0.0052691013
-0.0045027246
-0.0037971202
-0.0032146468
-0.0025632294
-0.0023897589
-0.0011973049
-0.0031904129
0.0031073317
-0.23116324
-0.21062505
-0.19770628
-0.19104346
-0.18403286
-0.17579679
-0.16719429
-0.15861947
-0.15008909
-0.1415967
-0.13319025
-0.12492802
-0.11685351
-0.10899969
-0.10139536
-0.094065686
-0.087031259
-0.080308199
-0.073908618
-0.067840921
-0.062110015
-0.056717562
-0.051662251
-0.04694008
-0.042544635
-0.038467378
-0.034697938
-0.031224389
-0.028033537
-0.025111179
-0.02244237
-0.02001165
-0.017803277
-0.015801422
-0.013990361
-0.012354631
-0.010879201
-0.0095495626
-0.0083520072
-0.0072733006
-0.0063022932
-0.0054256155
-0.004641505
-0.0039199889
-0.0033206468
-0.0026575484
-0.0024511215
-0.0012795002
-0.0030912069
0.0028421576
-0.221273
-0.20984878
-0.19880939
-0.1906842
-0.1835879
-0.17613069
-0.16813908
-0.15993432
-0.1516956
-0.14344913
-0.1352229
-0.12707476
-0.11906058
-0.11122364
-0.10360006
-0.096221707
-0.089115501
-0.082303126
-0.075801454
-0.06962296
-0.063776015
-0.058265179
-0.053091529
-0.048252996
-0.043744701
-0.039559285
-0.035687245
-0.032117263
-0.02883652
-0.025831001
-0.023085785
-0.020585314
-0.018313637
-0.016254642
-0.014392259
-0.012710639
-0.011194335
-0.0098284022
-0.0085986937
-0.0074915211
-0.0064952815
-0.0055961461
-0.0047917181
-0.0040519651
-0.0034335151
-0.0027568135
-0.0025145202
-0.0013629271
-0.0029838171
0.0025646253
-0.19913716
-0.20377492
-0.19845858
-0.18952243
-0.18198325
-0.17493396
-0.1673891
-0.15948466
-0.15148658
-0.14345822
-0.13541942
-0.12742342
-0.11952985
-0.1117864
-0.10423238
-0.09690258
-0.089826911
-0.083029863
-0.076530839
-0.070344594
-0.064481541
-0.058948045
-0.053746767
-0.048877009
-0.044335064
-0.04011457
-0.036206856
-0.032601284
-0.029285586
-0.026246176
-0.023468461
-0.020937116
-0.018636349
-0.016550137
-0.014662443
-0.012957406
-0.011419523
-0.010033765
-0.0087858659
-0.0076620028
-0.0066503579
-0.0057370114
-0.0049188614
-0.0041667627
-0.003532751
-0.0028479065
-0.0025683818
-0.0014453251
-0.0028670487
0.0022861745
-0.18852298
-0.19426746
-0.19075524
-0.18199414
-0.17476019
-0.16846663
-0.16172691
-0.15454127
-0.14720528
-0.13979415
-0.13231793
-0.12482552
-0.11737896
-0.11002959
-0.10282029
-0.095789651
-0.08897162
-0.082394694
-0.07608212
-0.070052298
-0.064319068
-0.058891984
-0.05377665
-0.048975065
-0.04448598
-0.040305257
-0.036426226
-0.032840039
-0.029536015
-0.02650197
-0.023724532
-0.02118944
-0.018881812
-0.016786401
-0.014887823
-0.013170755
-0.011620135
-0.010221283
-0.0089601898
-0.0078232505
-0.0067986629
-0.0058728068
-0.0050416944
-0.0042782111
-0.0036274733
-0.0029373126
-0.0026128291
-0.0015348763
-0.0027166687
0.0019828191
-0.1797114
-0.1828571
-0.18054213
-0.17350667
-0.16712956
-0.16153398
-0.1555651
-0.14911396
-0.14244648
-0.13565783
-0.1287602
-0.12179629
-0.11482688
-0.10790511
-0.10107594
-0.094380336
-0.087855136
-0.081532044
-0.075437599
-0.069593488
-0.064016776
-0.058720131
-0.053712115
-0.048997508
-0.044577652
-0.040450798
-0.036612462
-0.033055777
-0.029771845
-0.026750074
-0.0239785
-0.021444093
-0.019133044
-0.017031027
-0.015123439
-0.013395613
-0.011833024
-0.010421433
-0.0091471551
-0.0079968681
-0.0069588154
-0.006019745
-0.0051746855
-0.004398851
-0.0037295436
-0.0030336057
-0.0026585108
-0.0016318845
-0.002543457
0.0016457815
-0.16995249
-0.1704973
-0.16862914
-0.16367283
-0.1585306
-0.15368183
-0.14850803
-0.1428728
-0.13695258
-0.13084822
-0.12458774
-0.11821188
-0.1117779
-0.10533956
-0.098943633
-0.092633061
-0.08644716
-0.080420586
-0.074583061
-0.068959551
-0.063570427
-0.058431619
-0.053554846
-0.048947906
-0.044614988
-0.040556999
-0.036771909
-0.033255098
-0.029999707
-0.026996973
-0.024236565
-0.021706893
-0.019395407
-0.017288868
-0.015373604
-0.013635735
-0.012061386
-0.010636854
-0.0093488563
-0.0081844171
-0.0071318727
-0.0061783733
-0.0053179637
-0.0045282242
-0.0038384458
-0.003134916
-0.0027057352
-0.0017300418
-0.0023581466
0.0012899113
-0.15929462
-0.15797312
-0.15613087
-0.15289003
-0.14904425
-0.14500418
-0.1406309
-0.1358435
-0.13072422
-0.1253557
-0.1197818
-0.11404601
-0.10820129
-0.10230008
-0.096390043
-0.090515384
-0.084717152
-0.079032376
-0.073493594
-0.068128833
-0.062961674
-0.058011324
-0.053292762
-0.048816972
-0.044591201
-0.04061926
-0.036901835
-0.033436826
-0.030219679
-0.027243728
-0.024500522
-0.021980145
-0.019671521
-0.017562696
-0.015641104
-0.013893804
-0.012307711
-0.010869767
-0.0095671953
-0.0083874392
-0.0073189948
-0.0063494418
-0.0054719008
-0.0046662295
-0.0039538923
-0.0032401099
-0.0027544881
-0.0018260062
-0.0021679642
0.00092705493
-0.14741894
-0.14531967
-0.1435972
-0.14163028
-0.13895711
-0.13575631
-0.13217322
-0.12821341
-0.12389828
-0.1192833
-0.11441933
-0.1093515
-0.10412883
-0.098801273
-0.093416107
-0.088017706
-0.082647753
-0.077344669
-0.072143042
-0.067073382
-0.062162056
-0.057431259
-0.052899076
-0.048579621
-0.044483236
-0.040616729
-0.036983656
-0.033584616
-0.030417567
-0.027478153
-0.024760027
-0.022255163
-0.019954168
-0.017846568
-0.015921086
-0.014165887
-0.01256882
-0.011117607
-0.0098000832
-0.0086042059
-0.0075187142
-0.0065316468
-0.0056353101
-0.0048116661
-0.0040748401
-0.0033477557
-0.0028045771
-0.001917128
-0.0019804431
0.00056954574
-0.13464122
-0.13268175
-0.13131216
-0.13025699
-0.12854832
-0.1261597
-0.12333952
-0.12016081
-0.1166201
-0.11274657
-0.10859028
-0.10419745
-0.099611416
-0.094877651
-0.09004199
-0.085148118
-0.080237277
-0.075348138
-0.070516337
-0.065774062
-0.061149802
-0.056668223
-0.052350128
-0.048212502
-0.044268623
-0.040528239
-0.03699778
-0.033680612
-0.03057732
-0.027686005
-0.025002583
-0.022521099
-0.020234022
-0.018132541
-0.016206839
-0.014446352
-0.012840012
-0.011376455
-0.010044257
-0.0088319827
-0.0077287165
-0.0067229887
-0.0058064442
-0.0049629149
-0.0041999409
-0.0034562985
-0.0028558027
-0.0020010431
-0.0018037008
0.00023060582
-0.12167839
-0.12030564
-0.11942839
-0.11902912
-0.11807662
-0.1164251
-0.11431781
-0.11185831
-0.10903973
-0.10587359
-0.10240205
-0.0986696
-0.094715858
-0.090580289
-0.086304569
-0.081930703
-0.077498757
-0.073046629
-0.068609924
-0.064221538
-0.059911269
-0.05570556
-0.051627365
-0.047696092
-0.04392763
-0.040334433
-0.036925672
-0.033707423
-0.030682899
-0.027852708
-0.025215127
-0.022766388
-0.020500961
-0.018411845
-0.016490835
-0.014728788
-0.013115865
-0.011641753
-0.010295888
-0.0090675534
-0.007946288
-0.0069211537
-0.0059833196
-0.0051182216
-0.0043277682
-0.0035643118
-0.0029080175
-0.0020761201
-0.0016454102
-7.7067412e-05
-0.10907256
-0.10836994
-0.10801106
-0.10810629
-0.10774245
-0.1067296
-0.1052656
-0.103455
-0.10129429
-0.098785537
-0.095961068
-0.092859974
-0.089517653
-0.085969016
-0.082250598
-0.078400316
-0.074456114
-0.070454406
-0.066429831
-0.062415019
-0.058440186
-0.054532767
-0.050717182
-0.047014685
-0.043443302
-0.04001783
-0.036749903
-0.033648123
-0.030718219
-0.027963262
-0.025383892
-0.022978575
-0.020743865
-0.018674669
-0.016764514
-0.015005803
-0.013390054
-0.011908128
-0.010550447
-0.0093071171
-0.008168249
-0.0071234853
-0.0061637242
-0.0052757459
-0.0044568911
-0.0036706324
-0.0029611623
-0.0021417469
-0.0015118492
-0.0003428797
-0.097108103
-0.096993486
-0.097104611
-0.097588025
-0.097686089
-0.097209132
-0.096307078
-0.095070547
-0.093498302
-0.091587696
-0.089361946
-0.086853075
-0.084091222
-0.081106303
-0.077930345
-0.074596742
-0.071139519
-0.067592705
-0.063989265
-0.060360728
-0.056736864
-0.053145296
-0.049611179
-0.046156966
-0.04280226
-0.039563727
-0.036455092
-0.033487183
-0.030668033
-0.028003031
-0.0254951
-0.02314491
-0.020951111
-0.018910566
-0.017018606
-0.015269269
-0.013655533
-0.012169541
-0.01080281
-0.0095463721
-0.008391024
-0.0073270488
-0.0063452851
-0.0054336325
-0.0045859532
-0.0037744392
-0.0030152911
-0.0021983673
-0.0014071678
-0.00055968156
-0.085924498
-0.086267018
-0.086761531
-0.08754792
-0.08800726
-0.087968179
-0.087542423
-0.086802653
-0.085747198
-0.084370512
-0.082688154
-0.080724753
-0.078504657
-0.076052493
-0.073395232
-0.070561897
-0.067582384
-0.064487077
-0.061306448
-0.05807024
-0.054807024
-0.051543844
-0.048305863
-0.045116063
-0.041995018
-0.038960737
-0.03602858
-0.033211228
-0.03051872
-0.027958536
-0.025535721
-0.023253048
-0.021111205
-0.019109006
-0.017243605
-0.015510724
-0.013904872
-0.012419554
-0.011047475
-0.009780684
-0.0086107741
-0.0075287336
-0.0065255498
-0.0055900725
-0.0047137256
-0.0038752638
-0.003070552
-0.0022473204
-0.0013329264
-0.00072469325
-0.075581675
-0.07625291
-0.077034367
-0.078045956
-0.078780721
-0.079089304
-0.079055246
-0.078734538
-0.078123407
-0.077213895
-0.076015224
-0.074545074
-0.0728219
-0.070864991
-0.068696103
-0.06633943
-0.063820666
-0.061166334
-0.058403534
-0.055559504
-0.05266097
-0.049733713
-0.046802212
-0.043889317
-0.041015957
-0.038200922
-0.035460707
-0.032809419
-0.030258741
-0.02781795
-0.025493985
-0.023291551
-0.021213264
-0.019259817
-0.017430163
-0.015721713
-0.014130539
-0.012651563
-0.011278744
-0.010005227
-0.0088234968
-0.007725319
-0.0067020247
-0.0057433086
-0.0048390943
-0.0039729086
-0.0031271052
-0.0022905154
-0.0012880091
-0.00083977985
-0.066091242
-0.066983805
-0.067963295
-0.069128883
-0.070063465
-0.070638311
-0.070916015
-0.070938768
-0.070700338
-0.070190628
-0.069413622
-0.068380852
-0.067105181
-0.065600709
-0.063884083
-0.061974557
-0.059893314
-0.057662856
-0.055306635
-0.052848745
-0.05031345
-0.047724665
-0.045105562
-0.042478224
-0.039863329
-0.037279876
-0.034744973
-0.032273683
-0.029878922
-0.027571421
-0.025359724
-0.023250248
-0.021247364
-0.019353523
-0.017569402
-0.015894067
-0.014325145
-0.012858995
-0.011490879
-0.010215092
-0.0090250961
-0.0079135039
-0.0068721685
-0.0058915877
-0.004960986
-0.0040672878
-0.0031849906
-0.0023300106
-0.0012689534
-0.0009109529
-0.05743817
-0.058467784
-0.059570655
-0.060828151
-0.061896718
-0.062665935
-0.063182503
-0.06347767
-0.063543158
-0.063367182
-0.062949504
-0.062296447
-0.061415874
-0.060317084
-0.059011907
-0.057514815
-0.055842427
-0.054013042
-0.052046292
-0.049962826
-0.047783946
-0.045531174
-0.04322582
-0.040888631
-0.038539452
-0.036196927
-0.033878245
-0.03159893
-0.029372693
-0.027211324
-0.025124647
-0.023120507
-0.021204812
-0.019381604
-0.017653162
-0.016020124
-0.014481634
-0.013035477
-0.01167823
-0.010405384
-0.0092114374
-0.008089922
-0.0070333688
-0.0060330899
-0.0050782614
-0.0041582339
-0.0032439825
-0.0023675971
-0.0012706457
-0.00094715193
-0.049591467
-0.050693753
-0.051860671
-0.053158984
-0.054306185
-0.05520805
-0.055899151
-0.056402239
-0.056707691
-0.056802651
-0.056683648
-0.056352789
-0.055813713
-0.055071502
-0.054133634
-0.053010151
-0.051713302
-0.050257204
-0.048657577
-0.046931473
-0.045096949
-0.043172725
-0.041177795
-0.039131069
-0.037051035
-0.03495545
-0.03286106
-0.030783355
-0.02873637
-0.02673254
-0.02478259
-0.022895479
-0.021078384
-0.019336721
-0.017674203
-0.016092924
-0.014593458
-0.013174977
-0.011835362
-0.01057131
-0.0093784091
-0.0082511678
-0.0071829307
-0.0061658723
-0.0051896223
-0.0042453316
-0.0033034879
-0.0024044907
-0.0012872385
-0.0009585669
-0.042509584
-0.043636672
-0.04482247
-0.046121795
-0.047303007
-0.04828625
-0.049096926
-0.049751332
-0.050239209
-0.050547281
-0.050669805
-0.050605665
-0.050355118
-0.049919748
-0.049303293
-0.048511863
-0.047553713
-0.046439005
-0.045179636
-0.043789034
-0.042281896
-0.040673896
-0.038981377
-0.037221016
-0.0354095
-0.033563222
-0.031697996
-0.029828791
-0.027969505
-0.026132774
-0.02432983
-0.022570387
-0.020862583
-0.01921295
-0.017626429
-0.016106399
-0.014654753
-0.013271964
-0.011957179
-0.010708292
-0.0095220035
-0.0083938504
-0.0073180987
-0.0062878551
-0.0052935677
-0.004327825
-0.0033625242
-0.0024411925
-0.0013130754
-0.00095490623
-0.036144957
-0.037262504
-0.038434199
-0.039705065
-0.040885823
-0.041909319
-0.042794129
-0.043551756
-0.044171912
-0.044641498
-0.044953363
-0.045104098
-0.045091432
-0.044914212
-0.044573129
-0.044070974
-0.043412509
-0.042604332
-0.041654772
-0.040573771
-0.039372692
-0.038064091
-0.036661463
-0.035178977
-0.033631179
-0.032032707
-0.030398013
-0.028741101
-0.02707528
-0.025412958
-0.023765458
-0.022142873
-0.020553963
-0.019006081
-0.01750514
-0.016055609
-0.014660535
-0.013321582
-0.012039083
-0.010812094
-0.0096384285
-0.0085146816
-0.0074361225
-0.0063968618
-0.0053884128
-0.004404617
-0.0034197853
-0.0024775246
-0.001343405
-0.00094403652
-0.030447445
-0.031531952
-0.032666619
-0.033888415
-0.035043306
-0.036075281
-0.036997897
-0.037819167
-0.038529247
-0.039115686
-0.039570658
-0.039889284
-0.040067552
-0.040102316
-0.039991938
-0.039736547
-0.039338002
-0.038799826
-0.038127179
-0.037326797
-0.036406878
-0.035376927
-0.034247558
-0.03303029
-0.031737305
-0.030381197
-0.028974713
-0.027530509
-0.026060906
-0.02457767
-0.023091815
-0.021613428
-0.020151531
-0.018713978
-0.017307375
-0.015937037
-0.014606972
-0.013319879
-0.012077172
-0.010878997
-0.0097242532
-0.0086105994
-0.0075343584
-0.0064907036
-0.0054723622
-0.0044743477
-0.0034737668
-0.0025127879
-0.0013747336
-0.00093128691
-0.025366631
-0.026403119
-0.027485925
-0.028645354
-0.029756694
-0.030773637
-0.031706063
-0.032559488
-0.033324833
-0.033990634
-0.03454896
-0.034994144
-0.035321113
-0.03552541
-0.035603739
-0.035554227
-0.035376443
-0.035071394
-0.034641545
-0.034090817
-0.033424542
-0.032649366
-0.031773123
-0.030804681
-0.029753763
-0.028630745
-0.027446431
-0.026211833
-0.024937946
-0.023635535
-0.02231493
-0.020985843
-0.019657205
-0.018337033
-0.017032323
-0.015748972
-0.014491717
-0.01326411
-0.012068499
-0.010906022
-0.0097765978
-0.008678929
-0.0076104065
-0.0065673004
-0.005543621
-0.0045355206
-0.0035229087
-0.0025459704
-0.0014048006
-0.0009194767
-0.020853707
-0.021833739
-0.022856194
-0.023945805
-0.025002286
-0.02598772
-0.026909285
-0.027770721
-0.028563904
-0.02927856
-0.02990707
-0.030443497
-0.030882268
-0.031218184
-0.031446892
-0.031565125
-0.031570758
-0.031462844
-0.031241672
-0.030908807
-0.030467094
-0.029920623
-0.029274659
-0.028535544
-0.027710573
-0.026807849
-0.025836103
-0.024804508
-0.023722483
-0.0225995
-0.021444886
-0.020267641
-0.019076269
-0.017878625
-0.016681785
-0.015491943
-0.014314319
-0.013153102
-0.012011402
-0.01089121
-0.0097933773
-0.0087175897
-0.0076622856
-0.0066248323
-0.005600532
-0.0045866522
-0.0035657265
-0.0025759435
-0.0014322906
-0.00090948253
-0.016862568
-0.017782625
-0.018741106
-0.019758024
-0.020753473
-0.021696758
-0.022593048
-0.023444815
-0.024244964
-0.024984503
-0.025656391
-0.026254802
-0.026774076
-0.027208731
-0.02755385
-0.0278053
-0.027959799
-0.028014982
-0.027969474
-0.027822962
-0.027576238
-0.027231203
-0.026790851
-0.026259221
-0.025641326
-0.024943051
-0.024171034
-0.023332522
-0.022435204
-0.021487048
-0.020496132
-0.019470465
-0.018417826
-0.017345604
-0.016260662
-0.015169206
-0.014076682
-0.012987685
-0.011905886
-0.010833974
-0.0097736008
-0.0087253505
-0.0076886498
-0.0066619279
-0.005641739
-0.0046264328
-0.0036009236
-0.0026016196
-0.0014564702
-0.00090102547
-0.013351301
-0.0142114
-0.015105859
-0.016050628
-0.016982842
-0.017877994
-0.018739736
-0.019569609
-0.020361545
-0.021107831
-0.021802154
-0.022439044
-0.023013046
-0.023518728
-0.023950996
-0.024305273
-0.024577581
-0.024764605
-0.024863781
-0.024873386
-0.024792592
-0.024621517
-0.024361232
-0.024013768
-0.023582079
-0.023069993
-0.022482136
-0.021823836
-0.021100996
-0.020319971
-0.019487416
-0.018610143
-0.017694966
-0.016748552
-0.015777281
-0.014787108
-0.013783451
-0.012771074
-0.011754002
-0.010735437
-0.0097176858
-0.0087021101
-0.0076890336
-0.0066778769
-0.0056663705
-0.0046538942
-0.0036274965
-0.0026220769
-0.0014769057
-0.0008933791
-0.010282209
-0.011085
-0.01191809
-0.012793901
-0.013663828
-0.014508647
-0.015330829
-0.016131215
-0.016904696
-0.017644771
-0.018345913
-0.019003144
-0.019611394
-0.02016551
-0.020660489
-0.021091639
-0.021454643
-0.021745629
-0.021961258
-0.022098811
-0.022156261
-0.022132337
-0.022026564
-0.02183929
-0.021571698
-0.021225783
-0.020804326
-0.020310835
-0.01974947
-0.019124943
-0.018442412
-0.017707363
-0.016925478
-0.016102502
-0.015244112
-0.014355785
-0.013442675
-0.012509495
-0.011560414
-0.010598956
-0.0096279171
-0.0086492957
-0.0076641925
-0.0066729197
-0.0056742795
-0.0046686091
-0.0036448619
-0.002636675
-0.0014933338
-0.00088583737
-0.0076231746
-0.0083728483
-0.0091488967
-0.0099606145
-0.010771332
-0.011566315
-0.012347097
-0.013113969
-0.013862676
-0.014587826
-0.015284662
-0.015948752
-0.016575509
-0.017160182
-0.017698044
-0.018184506
-0.018615181
-0.018985945
-0.019293013
-0.019533027
-0.019703126
-0.019801018
-0.01982504
-0.0197742
-0.019648211
-0.019447513
-0.019173264
-0.018827325
-0.018412223
-0.017931093
-0.0173876
-0.016785856
-0.016130321
-0.015425687
-0.014676769
-0.013888384
-0.013065228
-0.012211766
-0.011332114
-0.010429935
-0.0095083439
-0.0085698206
-0.0076161054
-0.0066482793
-0.0056660915
-0.0046707452
-0.0036528881
-0.0026450917
-0.0015056071
-0.00087790958
-0.0053493258
-0.0060516663
-0.0067766228
-0.0075308146
-0.0082874889
-0.0090356758
-0.0097761468
-0.010508741
-0.011229944
-0.011935332
-0.012620861
-0.013282644
-0.013916595
-0.014518425
-0.015083775
-0.015608299
-0.01608772
-0.016517877
-0.016894793
-0.017214749
-0.017474356
-0.017670623
-0.01780102
-0.017863539
-0.017856739
-0.017779785
-0.017632474
-0.017415243
-0.017129165
-0.016775925
-0.016357784
-0.015877517
-0.015338349
-0.014743874
-0.014097956
-0.013404632
-0.012668005
-0.011892133
-0.011080919
-0.010238002
-0.0093666512
-0.0084696768
-0.0075493118
-0.0066072695
-0.0056441076
-0.0046617867
-0.0036524479
-0.0026477453
-0.001513998
-0.00086952168
-0.003436244
-0.0040970655
-0.0047771518
-0.0054807001
-0.0061891418
-0.006894659
-0.0075974027
-0.0082968295
-0.0089900372
-0.009673426
-0.010343579
-0.010997107
-0.011630404
-0.012239643
-0.012820861
-0.013370025
-0.013883067
-0.014355928
-0.014784612
-0.015165244
-0.015494139
-0.015767862
-0.015983293
-0.016137687
-0.016228735
-0.01625461
-0.016214012
-0.016106199
-0.015931008
-0.01568886
-0.015380748
-0.015008213
-0.014573308
-0.01407854
-0.013526806
-0.012921313
-0.012265485
-0.01156287
-0.010817035
-0.010031458
-0.0092094268
-0.0083539353
-0.0074675669
-0.0065525263
-0.0056100351
-0.0046426919
-0.0036439337
-0.0026446083
-0.0015182742
-0.00086040218
-0.0018888437
-0.0025159138
-0.003159133
-0.0038209131
-0.0044892091
-0.0051586831
-0.0058289735
-0.0064992271
-0.0071670319
-0.0078294555
-0.0084835991
-0.0091264991
-0.0097549709
-0.010365602
-0.010954808
-0.011518874
-0.012053985
-0.012556251
-0.013021759
-0.013446614
-0.013826999
-0.01415923
-0.014439814
-0.014665512
-0.014833395
-0.014940908
-0.014985915
-0.014966754
-0.014882263
-0.014731819
-0.014515349
-0.014233334
-0.01388679
-0.013477246
-0.013006699
-0.012477555
-0.011892564
-0.011254731
-0.010567232
-0.0098333082
-0.0090561651
-0.0082388729
-0.0073842411
-0.0064948358
-0.0055723997
-0.0046200442
-0.003632301
-0.0026392958
-0.0015209565
-0.00085199271
-0.00066450059
-0.0012638392
-0.0018769106
-0.0025044694
-0.0031395785
-0.0037788864
-0.0044216345
-0.0050667083
-0.0057120669
-0.0063552982
-0.0069939141
-0.0076252937
-0.0082465974
-0.0088547613
-0.0094465289
-0.010018475
-0.010567028
-0.011088491
-0.011579075
-0.012034942
-0.012452246
-0.012827184
-0.01315605
-0.013435291
-0.013661565
-0.013831806
-0.013943276
-0.013993623
-0.013980934
-0.013903776
-0.013761226
-0.013552893
-0.01327893
-0.012940028
-0.012537394
-0.012072716
-0.011548112
-0.010966063