/*--------------------------------*- C++ -*----------------------------------*\
  =========                 |
  \\      /  F ield         | OpenFOAM: The Open Source CFD Toolbox
   \\    /   O peration     | Website:  https://openfoam.org
    \\  /    A nd           | Version:  6
     \\/     M anipulation  |
\*---------------------------------------------------------------------------*/
FoamFile
{
    version     2.0;
    format      ascii;
    class       volScalarField;
    location    "54";
    object      pMean;
}
// * * * * * * * * * * * * * * * * * * * * * * * * * * * * * * * * * * * * * //

dimensions      [0 2 -2 0 0 0 0];

internalField   nonuniform List<scalar> 
9200
(
-0.43565246
-0.42208625
-0.40988153
-0.39916403
-0.3886407
-0.37828853
-0.36820261
-0.35834065
-0.34862223
-0.33896838
-0.3293044
-0.31956462
-0.30969961
-0.29968292
-0.28952011
-0.27926414
-0.26900914
-0.25885641
-0.24976611
-0.24576047
-0.45534684
-0.43933716
-0.42521258
-0.41294736
-0.40098684
-0.38928163
-0.37791701
-0.36682241
-0.35589054
-0.34502317
-0.33413407
-0.32315431
-0.31203936
-0.30077373
-0.2893744
-0.27789254
-0.26638442
-0.25487314
-0.24401236
-0.2358774
-0.47517942
-0.45674779
-0.4407779
-0.42704562
-0.41369887
-0.40064478
-0.38794995
-0.37551243
-0.36320135
-0.35090847
-0.33855004
-0.32607086
-0.3134494
-0.30069845
-0.28786217
-0.27500939
-0.26220533
-0.24947902
-0.23722584
-0.22655594
-0.49464139
-0.47384464
-0.45611302
-0.44097514
-0.42624861
-0.41178367
-0.39762539
-0.38364616
-0.36970575
-0.35570667
-0.34159207
-0.32734554
-0.31299112
-0.29858773
-0.28421954
-0.269984
-0.25596731
-0.24221865
-0.22900882
-0.21709788
-0.51302544
-0.49000319
-0.47064015
-0.45416923
-0.43805664
-0.42208988
-0.40629895
-0.3905483
-0.37471471
-0.35874215
-0.34263112
-0.32643008
-0.31022714
-0.29413685
-0.27828478
-0.262793
-0.24776015
-0.23324322
-0.21943281
-0.20686095
-0.52943454
-0.50443028
-0.48362094
-0.46589922
-0.44837891
-0.43079173
-0.41317267
-0.39541055
-0.37743722
-0.35927506
-0.341012
-0.3227807
-0.3047403
-0.2870564
-0.26988301
-0.25334926
-0.23754616
-0.22251742
-0.20838695
-0.19551191
-0.54280077
-0.51617365
-0.49416147
-0.47528213
-0.45632411
-0.43698696
-0.41734591
-0.39735967
-0.37706067
-0.35658608
-0.33613367
-0.31592687
-0.29618804
-0.27711579
-0.25886921
-0.24156065
-0.22525153
-0.20995326
-0.19572562
-0.1827813
-0.55191162
-0.52415046
-0.50125081
-0.48133431
-0.46092425
-0.43972965
-0.41791452
-0.39556178
-0.37285046
-0.35006165
-0.32751276
-0.30551034
-0.28431987
-0.26414671
-0.24512873
-0.22733917
-0.21079318
-0.19545881
-0.1813335
-0.16850575
-0.55538947
-0.52703892
-0.5035504
-0.4826706
-0.46076691
-0.43762637
-0.41356391
-0.38884087
-0.36381524
-0.33891864
-0.3145732
-0.29114006
-0.26889434
-0.24801701
-0.2286006
-0.21066383
-0.19416825
-0.17903728
-0.16521088
-0.15266988
-0.55187349
-0.5233938
-0.49947744
-0.47759718
-0.45412073
-0.42899905
-0.40275932
-0.37587773
-0.34889336
-0.3223609
-0.29676278
-0.2724664
-0.24971453
-0.22863407
-0.20925608
-0.19154024
-0.17539823
-0.16071671
-0.14738579
-0.13529131
-0.30370126
-0.30738649
-0.3083571
-0.30775019
-0.30609819
-0.3035308
-0.30017293
-0.29613633
-0.29150252
-0.28633541
-0.28068905
-0.27461057
-0.26814225
-0.26132323
-0.2541909
-0.24678343
-0.23914147
-0.23129509
-0.22325113
-0.21511275
-0.30706294
-0.31025866
-0.31088509
-0.31004502
-0.30820384
-0.30548274
-0.30200408
-0.29787389
-0.2931688
-0.28794894
-0.28226524
-0.27616202
-0.26967911
-0.26285311
-0.25571822
-0.24831098
-0.24067923
-0.23285125
-0.22471857
-0.21625274
-0.31359231
-0.31584182
-0.31580405
-0.31450864
-0.31229766
-0.30927623
-0.30556111
-0.30124756
-0.29640273
-0.29107937
-0.28532199
-0.27916934
-0.27265626
-0.26581452
-0.25867247
-0.25126262
-0.2436432
-0.23584209
-0.22755053
-0.21847516
-0.32294951
-0.32386121
-0.32287097
-0.3209067
-0.3181444
-0.31466861
-0.310589
-0.30598635
-0.30091487
-0.29541687
-0.28952777
-0.28327823
-0.27669591
-0.26980555
-0.26262763
-0.25518793
-0.24755435
-0.23976095
-0.23125607
-0.22134438
-0.33470813
-0.33397265
-0.33178376
-0.32895157
-0.32545923
-0.32137011
-0.31678693
-0.3117742
-0.30637105
-0.30060743
-0.29450764
-0.2880917
-0.28137784
-0.2743823
-0.26711641
-0.25959645
-0.2518955
-0.24406216
-0.23530558
-0.22440242
-0.34842801
-0.34581995
-0.34223219
-0.33835307
-0.33396101
-0.32910089
-0.32387077
-0.31831925
-0.31246949
-0.30633648
-0.29993091
-0.29326101
-0.28633411
-0.27915656
-0.27172983
-0.26405859
-0.25621359
-0.24826307
-0.23921788
-0.22723959
-0.36371873
-0.35908464
-0.35394253
-0.34886361
-0.34342023
-0.33764369
-0.33163158
-0.32541624
-0.31900261
-0.31239028
-0.30557562
-0.29855326
-0.29131817
-0.28386605
-0.27618919
-0.26828142
-0.26020598
-0.25205327
-0.2427038
-0.22967382
-0.38027481
-0.37351472
-0.3667049
-0.36030781
-0.35369348
-0.34688367
-0.33997594
-0.33298675
-0.32590335
-0.31870824
-0.31138104
-0.30390029
-0.29624624
-0.28840214
-0.28035125
-0.27208059
-0.26365279
-0.25520446
-0.24560087
-0.23173995
-0.39787205
-0.38891059
-0.38034479
-0.37253753
-0.36465592
-0.35671203
-0.34880603
-0.34093859
-0.33307736
-0.32518551
-0.31722356
-0.30915121
-0.30093017
-0.29252496
-0.28389885
-0.27501524
-0.26590626
-0.25669299
-0.24625324
-0.23126721
-0.4163557
-0.40510238
-0.39468199
-0.38536265
-0.37610089
-0.36689934
-0.3578611
-0.34897018
-0.34017365
-0.33141567
-0.32263949
-0.3137901
-0.3048178
-0.2956786
-0.28632929
-0.27672286
-0.26682137
-0.25645075
-0.24410865
-0.2269933
-0.20593206
-0.194676
-0.18354739
-0.17265583
-0.16193273
-0.15141538
-0.14116715
-0.13122757
-0.12162382
-0.1123814
-0.10352269
-0.095064751
-0.087019854
-0.079396385
-0.072199097
-0.065429242
-0.059084856
-0.053161066
-0.047650378
-0.042542941
-0.037826827
-0.033488316
-0.029512176
-0.025881943
-0.022580193
-0.019588809
-0.016889229
-0.014462688
-0.012290438
-0.010353943
-0.0086350673
-0.0071162296
-0.0057805446
-0.0046119429
-0.0035952762
-0.0027164078
-0.0019623022
-0.0013210896
-0.00078222192
-0.00033636607
2.3708013e-05
0.00030530013
0.00050770527
0.00064595118
0.00067433916
0.00071499293
0.00036033147
0.00073124339
-0.0016151191
0.0031680874
-0.20785153
-0.19608235
-0.18478303
-0.17387309
-0.16308746
-0.15249039
-0.14217236
-0.13216832
-0.12250123
-0.11319757
-0.10428048
-0.09576687
-0.087668902
-0.079995026
-0.07275003
-0.065935157
-0.059548422
-0.053584924
-0.04803712
-0.042895098
-0.038146855
-0.033778585
-0.029774962
-0.026119419
-0.022794425
-0.01978175
-0.01706272
-0.014618454
-0.012430088
-0.010478975
-0.0087468681
-0.007216078
-0.0058696157
-0.0046913121
-0.003665924
-0.0027792243
-0.0020180922
-0.0013705775
-0.00082605609
-0.00037512278
-1.0478847e-05
0.00027524286
0.00048141172
0.00062310489
0.00065484377
0.00069840318
0.00034826114
0.0007193591
-0.0016079971
0.0031397403
-0.21162991
-0.19880775
-0.18718364
-0.17628967
-0.16540429
-0.15465807
-0.14421044
-0.13408558
-0.12429655
-0.11487279
-0.10583983
-0.097214539
-0.089009119
-0.081232417
-0.073889516
-0.06698181
-0.060507404
-0.054461446
-0.048836386
-0.043622253
-0.038806945
-0.034376518
-0.030315482
-0.026607078
-0.023233566
-0.020176494
-0.017416953
-0.014935825
-0.012714005
-0.010732607
-0.008973147
-0.0074177061
-0.0060490719
-0.0048508608
-0.0038076251
-0.0029049437
-0.0021295125
-0.0014692085
-0.00091324562
-0.00045206467
-7.8222166e-05
0.00021579251
0.00042949892
0.00057808925
0.00061650062
0.00066587549
0.00032467051
0.00069616949
-0.0015934773
0.0030835269
-0.21678262
-0.20235699
-0.19028917
-0.17954104
-0.16858323
-0.15765581
-0.1470543
-0.13678602
-0.12684429
-0.11726462
-0.10807814
-0.099302305
-0.090949715
-0.083030295
-0.075550027
-0.068510878
-0.061911373
-0.055746972
-0.050010321
-0.044691535
-0.039778503
-0.0352572
-0.031111984
-0.027325895
-0.023880948
-0.020758408
-0.017939064
-0.015403476
-0.013132206
-0.011106029
-0.0093061253
-0.0077142418
-0.0063128407
-0.0050852242
-0.0040156423
-0.0030893861
-0.0022928789
-0.0016137402
-0.0010409417
-0.00056469414
-0.00017733748
0.00012885366
0.00035362284
0.0005123345
0.00056054538
0.00061844936
0.00029044596
0.00066237339
-0.0015713245
0.0030005575
-0.2227308
-0.20619415
-0.19359744
-0.18320315
-0.17227255
-0.16117523
-0.15043211
-0.14003537
-0.1299434
-0.12019921
-0.1108447
-0.10189976
-0.093377948
-0.085291118
-0.077647098
-0.070449175
-0.063696864
-0.057386406
-0.051511027
-0.046061236
-0.041025152
-0.036388841
-0.032136635
-0.028251454
-0.024715106
-0.021508592
-0.01861238
-0.016006675
-0.013671655
-0.011587697
-0.00973557
-0.0080966106
-0.0066528746
-0.0053872664
-0.0042836513
-0.0033269515
-0.0025032385
-0.0017997986
-0.0012052888
-0.0007096201
-0.00030484994
1.7027743e-05
0.00025605062
0.00042780497
0.00048867301
0.00055756504
0.00024677628
0.00061900747
-0.0015414472
0.0028926238
-0.22883064
-0.20982947
-0.19665968
-0.18685402
-0.17612012
-0.16491445
-0.15406978
-0.14358997
-0.13338377
-0.1234952
-0.11398166
-0.10486955
-0.096174656
-0.087911536
-0.080090984
-0.072718686
-0.065795981
-0.059320567
-0.053286828
-0.047686142
-0.042507244
-0.037736597
-0.033358746
-0.029356663
-0.025712079
-0.022405809
-0.01941805
-0.016728666
-0.014317443
-0.012164332
-0.010249649
-0.0085542679
-0.0070597775
-0.0057486189
-0.0046042048
-0.0036110191
-0.0027547138
-0.0020221746
-0.0014016796
-0.00088277721
-0.00045718224
-0.0001165481
0.00013952317
0.00032688043
0.00040293899
0.00048497008
0.00019509332
0.00056733157
-0.0015038231
0.0027620519
-0.23450154
-0.21296125
-0.19917053
-0.19010541
-0.1798034
-0.16863205
-0.1577492
-0.14724214
-0.13698014
-0.12699205
-0.11734814
-0.10808691
-0.099229483
-0.090794056
-0.082795408
-0.075242893
-0.068140761
-0.061489015
-0.055283902
-0.049518271
-0.044181964
-0.039262233
-0.034744148
-0.030610974
-0.026844548
-0.023425627
-0.020334223
-0.01754991
-0.015052107
-0.012820334
-0.010834438
-0.0090747963
-0.0075224874
-0.0061594393
-0.0049685575
-0.0039338314
-0.0030404354
-0.0022747979
-0.001624762
-0.001079459
-0.00063020818
-0.00026826994
7.1753189e-06
0.00021226776
0.00030566765
0.00040261992
0.00013698445
0.00050870306
-0.0014584857
0.0026115287
-0.23937719
-0.21590295
-0.20132812
-0.19276601
-0.18308228
-0.17219399
-0.16137596
-0.15088528
-0.1406191
-0.13058196
-0.12084368
-0.11145712
-0.10245336
-0.093855841
-0.085683967
-0.0779517
-0.070667194
-0.063833558
-0.057449552
-0.051510052
-0.046006478
-0.040927268
-0.036258332
-0.031983489
-0.028084878
-0.024543356
-0.021338859
-0.018450749
-0.015858124
-0.013540096
-0.011476048
-0.0096458458
-0.0080300342
-0.0066099951
-0.0053680873
-0.0042877619
-0.0033536706
-0.0025517374
-0.0018693245
-0.0012950992
-0.00081993995
-0.00043466925
-0.00013798855
8.6548528e-05
0.0001990667
0.00031235646
7.3934113e-05
0.00044436325
-0.0014056061
0.0024440066
-0.24113628
-0.21869208
-0.20364488
-0.19472358
-0.18552442
-0.17521537
-0.16466808
-0.15428499
-0.14408913
-0.13408156
-0.12431727
-0.11485854
-0.10574963
-0.097021783
-0.088700072
-0.080803982
-0.073346724
-0.066335638
-0.05977299
-0.053656561
-0.047980138
-0.042734023
-0.037905548
-0.033479567
-0.029438921
-0.025764877
-0.022437547
-0.019436265
-0.016739939
-0.014327366
-0.012177515
-0.010269765
-0.0085841276
-0.0071014199
-0.0058034234
-0.0046730105
-0.0036942629
-0.0028525497
-0.0021346991
-0.0015288611
-0.0010254195
-0.00061470625
-0.00029488022
-4.9165194e-05
8.4237485e-05
0.00021528497
6.8453848e-06
0.00037554771
-0.0013460233
0.0022633614
-0.23219025
-0.21844236
-0.20536982
-0.19528662
-0.18616987
-0.17670472
-0.16680744
-0.15681782
-0.14691382
-0.13713077
-0.12750891
-0.11811391
-0.10900536
-0.10022766
-0.09181582
-0.083798253
-0.076196371
-0.069024599
-0.062291153
-0.055998774
-0.050145333
-0.044724419
-0.039725944
-0.03513673
-0.030941054
-0.027121169
-0.023657793
-0.020530551
-0.017718387
-0.015199931
-0.01295382
-0.010958993
-0.0091949261
-0.007641851
-0.0062809276
-0.0050943931
-0.0040656943
-0.0031795757
-0.0024222605
-0.0017813091
-0.0012465425
-0.00080773112
-0.00046242471
-0.00019345663
-3.7221355e-05
0.00011327965
-6.285263e-05
0.00030506932
-0.0012816034
0.0020754379
-0.21160758
-0.21248306
-0.20472079
-0.1940883
-0.18472329
-0.17574913
-0.16636138
-0.15673247
-0.14711709
-0.13758555
-0.12817261
-0.1189412
-0.10995575
-0.10126631
-0.092912452
-0.084926821
-0.077334987
-0.070155253
-0.063399309
-0.057072992
-0.051176896
-0.045706974
-0.040655164
-0.036009997
-0.03175717
-0.027880098
-0.024360424
-0.021178497
-0.018313806
-0.015745372
-0.013452092
-0.011413055
-0.0096077989
-0.008016541
-0.0066203701
-0.0054014056
-0.0043429416
-0.0034295424
-0.0026472283
-0.0019833432
-0.0014274478
-0.00096910363
-0.00060532721
-0.00031922666
-0.00014444028
2.0279671e-05
-0.0001239413
0.00023605663
-0.0012103851
0.0018894987
-0.1995769
-0.20153612
-0.19575074
-0.18568511
-0.17691554
-0.168894
-0.16048825
-0.1517417
-0.14292762
-0.13412794
-0.12537154
-0.11671901
-0.10823835
-0.099984798
-0.09200327
-0.084332025
-0.077002417
-0.07003845
-0.063457278
-0.057269877
-0.051481632
-0.046092899
-0.041099622
-0.036493939
-0.032264773
-0.028398392
-0.024878945
-0.021688956
-0.01880979
-0.016222064
-0.013906025
-0.011841879
-0.010010088
-0.00839161
-0.0069681232
-0.0057222
-0.0046374706
-0.0036987366
-0.0028921609
-0.0022051727
-0.0016272773
-0.0011481026
-0.00076404536
-0.00045919679
-0.00026294813
-8.3740739e-05
-0.00018874673
0.00015424975
-0.0011220399
0.0016854261
-0.18901819
-0.18890356
-0.18451121
-0.17635586
-0.16865908
-0.1615185
-0.15404175
-0.14617644
-0.13816211
-0.13009701
-0.1220134
-0.11396725
-0.10602607
-0.098247824
-0.090680775
-0.083366946
-0.076342017
-0.069634645
-0.063266707
-0.05725384
-0.051605941
-0.046327656
-0.041418946
-0.036875661
-0.032690113
-0.028851632
-0.025347104
-0.022161474
-0.019278226
-0.016679813
-0.014348056
-0.012264494
-0.0104107
-0.0087685528
-0.0073204703
-0.0060496144
-0.0049400681
-0.0039769698
-0.0031467066
-0.0024368623
-0.0018369306
-0.0013366646
-0.00093179383
-0.00060758316
-0.00038860991
-0.00019445803
-0.00025626198
6.5859375e-05
-0.0010195093
0.0014591109
-0.17751651
-0.1754614
-0.17175865
-0.16575197
-0.15944522
-0.15323039
-0.1467009
-0.13978559
-0.13264135
-0.1253691
-0.11801503
-0.11063387
-0.1032905
-0.096044214
-0.088946111
-0.082041398
-0.075369508
-0.068963366
-0.062849361
-0.057047716
-0.051572871
-0.046433889
-0.041634941
-0.037175827
-0.033052521
-0.029257701
-0.025781283
-0.022610922
-0.0197325
-0.017130567
-0.014788761
-0.012690177
-0.0108177
-0.0091543026
-0.0076833026
-0.0063885849
-0.0052548
-0.0042675194
-0.0034134329
-0.0026803416
-0.002057773
-0.0015356398
-0.0011090063
-0.00076434615
-0.00052126341
-0.00031083301
-0.00032680564
-2.5171567e-05
-0.00091025694
0.0012206078
-0.16520417
-0.16192958
-0.15854653
-0.15430554
-0.1494113
-0.14417038
-0.13858683
-0.13264227
-0.12641043
-0.11997448
-0.11339418
-0.10672637
-0.10003205
-0.093369745
-0.086792184
-0.08034687
-0.074076111
-0.068016393
-0.062198145
-0.056645882
-0.051378447
-0.046409305
-0.041746927
-0.037395235
-0.033354088
-0.029619777
-0.02618553
-0.023042003
-0.020177765
-0.017579747
-0.015233667
-0.013124418
-0.011236423
-0.0095539493
-0.0080613899
-0.0067435069
-0.0055856499
-0.0045739339
-0.0036954427
-0.0029382654
-0.0022920203
-0.0017468094
-0.001297067
-0.00093043473
-0.00066160951
-0.00043292673
-0.000401043
-0.00011726383
-0.00079954474
0.00097743153
-0.15191368
-0.14837594
-0.14539341
-0.14248848
-0.13886137
-0.1346039
-0.12994495
-0.12494139
-0.11961644
-0.11402672
-0.10823651
-0.10230476
-0.096288784
-0.090244584
-0.084224837
-0.078278038
-0.072448163
-0.066774173
-0.061289664
-0.05602278
-0.050996283
-0.046227719
-0.041729681
-0.037510155
-0.033572923
-0.029917999
-0.026542088
-0.023439052
-0.020600371
-0.018015587
-0.015672737
-0.013558741
-0.011659779
-0.0099616128
-0.0084498959
-0.0071104318
-0.0059294142
-0.004893626
-0.0039906508
-0.0032089497
-0.0025383043
-0.0019690406
-0.0014950311
-0.0011049978
-0.00080898334
-0.00055990577
-0.00047899905
-0.00020890306
-0.00069241168
0.00073708546
-0.13800998
-0.13495935
-0.13255868
-0.130646
-0.12807209
-0.12475112
-0.12097685
-0.11685972
-0.11240404
-0.10764278
-0.10263631
-0.097443019
-0.092115964
-0.086707446
-0.081268556
-0.075847422
-0.070488414
-0.065231753
-0.060113129
-0.055163426
-0.050408608
-0.045869749
-0.041563161
-0.037500632
-0.033689721
-0.030134117
-0.026834032
-0.023786625
-0.020986422
-0.018425748
-0.016095138
-0.013983736
-0.012079669
-0.010370387
-0.0088429771
-0.0074844507
-0.0062819941
-0.0052231894
-0.0042962345
-0.0034900566
-0.0027946847
-0.0022007101
-0.0017015399
-0.001286852
-0.00096245706
-0.0006907844
-0.00056062226
-0.00029868566
-0.00059408553
0.00050737187
-0.12415954
-0.12191386
-0.12018066
-0.11901698
-0.11728873
-0.11481374
-0.11186159
-0.10856183
-0.10491712
-0.10094457
-0.09669535
-0.092224185
-0.087579672
-0.082809115
-0.077960409
-0.07308003
-0.068211565
-0.063395281
-0.058667805
-0.054061736
-0.04960537
-0.045322579
-0.041232817
-0.037351226
-0.033688829
-0.030252787
-0.027046717
-0.024071043
-0.021323378
-0.018798912
-0.016490804
-0.014390566
-0.012488428
-0.010773691
-0.0092350427
-0.007860856
-0.0066394566
-0.0055593597
-0.0046094971
-0.003779363
-0.0030593288
-0.002440298
-0.0019153324
-0.0014749234
-0.001121201
-0.00082475659
-0.00064594858
-0.00038568404
-0.00050941105
0.0002955735
-0.11083857
-0.10940553
-0.10832359
-0.10774839
-0.1066971
-0.10495767
-0.10274648
-0.1001866
-0.097283255
-0.094044714
-0.090511425
-0.086731503
-0.082748567
-0.078604719
-0.074343244
-0.070007531
-0.06563929
-0.061277759
-0.056959388
-0.052717435
-0.048581577
-0.044577655
-0.040727556
-0.0370492
-0.033556613
-0.030260091
-0.027166416
-0.024279138
-0.021598888
-0.019123719
-0.016849459
-0.014770072
-0.012878008
-0.011164544
-0.009620107
-0.0082345722
-0.0069975421
-0.0058985943
-0.004927516
-0.0040744728
-0.0033302804
-0.002686211
-0.0021351171
-0.0016681645
-0.0012844316
-0.00096119395
-0.00073504851
-0.00046956015
-0.00044226122
0.00010763296
-0.098285803
-0.097544271
-0.097035423
-0.096934266
-0.096427539
-0.095310638
-0.093748631
-0.091846174
-0.089609186
-0.087040879
-0.08417177
-0.081041842
-0.077688751
-0.074149201
-0.070461401
-0.066664506
-0.062797187
-0.058896675
-0.054998252
-0.051134833
-0.047336523
-0.043630263
-0.040039599
-0.036584559
-0.033281619
-0.030143755
-0.027180573
-0.024398496
-0.021801007
-0.01938893
-0.017160734
-0.015112855
-0.013240017
-0.011535562
-0.0099917595
-0.0086001041
-0.007351596
-0.0062369957
-0.005247062
-0.0043727378
-0.0036053879
-0.0029367195
-0.0023595202
-0.0018655141
-0.0014513828
-0.0010996264
-0.00082798152
-0.00055053914
-0.00039512151
-5.2471776e-05
-0.08661298
-0.086411859
-0.086369499
-0.086645687
-0.086574309
-0.085972357
-0.084964364
-0.083634151
-0.081985724
-0.080018593
-0.07775471
-0.075225671
-0.072462553
-0.069496283
-0.066359683
-0.063087141
-0.059713403
-0.05627274
-0.052798376
-0.049321977
-0.045873171
-0.042479136
-0.039164283
-0.035950031
-0.032854679
-0.029893357
-0.027078058
-0.02441774
-0.021918486
-0.019583717
-0.017414436
-0.015409499
-0.01356591
-0.011879111
-0.010343281
-0.0089516195
-0.0076966239
-0.0065703425
-0.0055646128
-0.0046712571
-0.0038822946
-0.003189941
-0.0025870678
-0.0020658759
-0.0016212876
-0.001239706
-0.00092475155
-0.00062929022
-0.00036886336
-0.00018309933
-0.075862652
-0.076061243
-0.076375298
-0.076940045
-0.077208866
-0.077022608
-0.076475286
-0.075631896
-0.074493161
-0.073055292
-0.071332946
-0.069349808
-0.067130245
-0.064699238
-0.062083984
-0.059313759
-0.05641888
-0.053429941
-0.050377304
-0.047290574
-0.044198082
-0.041126418
-0.038100069
-0.035141114
-0.032269009
-0.029500454
-0.026849329
-0.024326712
-0.021940958
-0.019697832
-0.017600693
-0.015650708
-0.013847097
-0.012187391
-0.0106677
-0.0092829817
-0.0080273015
-0.0068940806
-0.0058763285
-0.004966841
-0.0041583935
-0.0034437905
-0.0028161335
-0.0022680619
-0.0017933243
-0.001381126
-0.0010252428
-0.0007067277
-0.00036274377
-0.00028498614
-0.066034435
-0.066515999
-0.067087525
-0.067860443
-0.068385268
-0.068524968
-0.068350403
-0.067910953
-0.067203952
-0.066222671
-0.064975601
-0.063479352
-0.061751893
-0.059812356
-0.057682321
-0.055385774
-0.052948291
-0.050396343
-0.047756826
-0.045056593
-0.042321943
-0.039578135
-0.036848976
-0.034156482
-0.031520587
-0.02895894
-0.026486759
-0.024116769
-0.0218592
-0.019721844
-0.01771017
-0.015827477
-0.014075082
-0.01245254
-0.010957869
-0.0095877964
-0.0083379957
-0.0072033213
-0.0061780298
-0.0052559738
-0.0044307784
-0.0036959209
-0.0030448735
-0.0024707177
-0.0019665421
-0.0015235116
-0.0011291466
-0.00078377245
-0.00037463259
-0.00036093507
-0.057103669
-0.057775893
-0.058522239
-0.05943385
-0.060141463
-0.060527801
-0.060645905
-0.06053265
-0.060182577
-0.059586594
-0.058748132
-0.057677729
-0.056387587
-0.054891371
-0.053205283
-0.051348099
-0.049340541
-0.047204706
-0.044963643
-0.042640939
-0.040260259
-0.037844875
-0.035417238
-0.032998611
-0.03060874
-0.028265591
-0.02598514
-0.023781242
-0.02166555
-0.019647506
-0.017734381
-0.015931363
-0.014241691
-0.01266682
-0.011206607
-0.0098595174
-0.0086228369
-0.0074928847
-0.0064652168
-0.00553481
-0.0046962222
-0.0039436859
-0.0032711768
-0.0026722583
-0.0021397911
-0.0016663127
-0.001235901
-0.00086113122
-0.00040142137
-0.00041520976
-0.04903101
-0.049822494
-0.050677627
-0.051670801
-0.052499612
-0.053064368
-0.053404399
-0.053546778
-0.053484085
-0.053205603
-0.052710808
-0.052005257
-0.051096211
-0.049992476
-0.04870534
-0.047248673
-0.045638469
-0.043892404
-0.042029498
-0.040069757
-0.038033776
-0.035942315
-0.033815893
-0.031674403
-0.02953678
-0.027420688
-0.025342279
-0.023315991
-0.021354416
-0.019468214
-0.017666095
-0.015954839
-0.014339373
-0.012822873
-0.011406912
-0.010091618
-0.0088758533
-0.0077573999
-0.0067331388
-0.0057992183
-0.0049511971
-0.0041841406
-0.0034926479
-0.0028708318
-0.0023116753
-0.0018087229
-0.0013446583
-0.00093914032
-0.00043952526
-0.0004527627
-0.041767643
-0.042624399
-0.043537388
-0.044567232
-0.045467309
-0.046153556
-0.04665488
-0.046990824
-0.047152835
-0.04712933
-0.046916908
-0.046517237
-0.045933556
-0.045170578
-0.044235304
-0.043137188
-0.041887831
-0.04050066
-0.038990677
-0.037374186
-0.035668461
-0.033891391
-0.032061107
-0.030195628
-0.02831252
-0.026428585
-0.024559581
-0.02271999
-0.020922832
-0.019179527
-0.017499818
-0.015891729
-0.014361581
-0.012914048
-0.011552241
-0.010277826
-0.0090911645
-0.0079914613
-0.0069769173
-0.006044875
-0.0051919424
-0.0044140849
-0.0037066298
-0.0030643216
-0.0024805403
-0.001949643
-0.0014542914
-0.0010176987
-0.00048536834
-0.00047846609
-0.03525964
-0.036141984
-0.037074834
-0.038107497
-0.039039799
-0.039801481
-0.040413637
-0.040890146
-0.041222033
-0.041397534
-0.041411345
-0.041262277
-0.040950484
-0.040477403
-0.039846482
-0.039063386
-0.038135813
-0.037073288
-0.035887003
-0.034589623
-0.033195035
-0.031718065
-0.030174161
-0.028579085
-0.026948591
-0.025298126
-0.023642545
-0.021995857
-0.020371011
-0.018779716
-0.017232312
-0.015737683
-0.014303214
-0.012934795
-0.011636852
-0.010412419
-0.0092632313
-0.0081898375
-0.0071917177
-0.0062674021
-0.0054145733
-0.0046301466
-0.0039102638
-0.0032503857
-0.0026444961
-0.0020876884
-0.0015634345
-0.0010962862
-0.00053575399
-0.0004965038
-0.029451223
-0.030330973
-0.031256378
-0.032267445
-0.033202581
-0.034003607
-0.034685821
-0.03525893
-0.035714086
-0.036039895
-0.036229977
-0.036281203
-0.036191513
-0.035959882
-0.035586966
-0.035075332
-0.034429372
-0.033655191
-0.03276053
-0.031754642
-0.030648133
-0.029452743
-0.028181105
-0.026846483
-0.025462503
-0.024042872
-0.022601109
-0.021150295
-0.019702839
-0.018270279
-0.016863119
-0.015490695
-0.014161095
-0.012881107
-0.011656205
-0.010490576
-0.0093871611
-0.0083477311
-0.0073729671
-0.006462548
-0.0056152274
-0.0048288981
-0.0041005799
-0.0034265248
-0.002801469
-0.0022212348
-0.0016705459
-0.0011740432
-0.00058806388
-0.00051002626
-0.024287004
-0.025145056
-0.026044332
-0.027017173
-0.027933977
-0.028747035
-0.029467371
-0.030101659
-0.030641574
-0.031076487
-0.031399595
-0.031606599
-0.03169398
-0.031659001
-0.031500255
-0.03121791
-0.030813691
-0.030290846
-0.029654124
-0.028909731
-0.028065234
-0.027129421
-0.026112127
-0.025024035
-0.023876456
-0.022681096
-0.021449812
-0.020194379
-0.01892626
-0.017656404
-0.016395057
-0.01515161
-0.013934475
-0.012750999
-0.011607408
-0.010508783
-0.0094590672
-0.0084610916
-0.0075166222
-0.0066264116
-0.0057902495
-0.0050070067
-0.0042746159
-0.003590177
-0.0029492772
-0.0023484911
-0.0017739805
-0.0012498763
-0.00064028553
-0.00052108543
-0.019713753
-0.020538009
-0.021399263
-0.022323492
-0.023207586
-0.024012835
-0.024747116
-0.025414914
-0.026008673
-0.026518781
-0.026938494
-0.027262939
-0.027487766
-0.027609163
-0.027624317
-0.02753165
-0.027330852
-0.027022896
-0.02661006
-0.026095946
-0.025485435
-0.024784619
-0.024000686
-0.023141791
-0.022216885
-0.021235537
-0.02020773
-0.019143658
-0.018053517
-0.016947306
-0.015834642
-0.014724591
-0.013625525
-0.012545004
-0.011489689
-0.010465278
-0.0094764759
-0.0085269794
-0.0076194865
-0.0067557144
-0.0059364201
-0.0051614215
-0.0044295687
-0.0037388404
-0.0030857291
-0.0024675915
-0.0018720654
-0.0013225677
-0.00069091969
-0.00053078865
-0.01568153
-0.016465214
-0.017281791
-0.018151918
-0.0189944
-0.019778207
-0.020508883
-0.021189336
-0.0218129
-0.022371109
-0.022857598
-0.023267363
-0.023595705
-0.023838248
-0.023991323
-0.024052183
-0.024019061
-0.023891213
-0.023668982
-0.023353841
-0.022948405
-0.022456409
-0.021882655
-0.021232935
-0.02051392
-0.01973303
-0.018898284
-0.018018128
-0.017101264
-0.016156469
-0.01519242
-0.014217529
-0.013239791
-0.01226665
-0.011304884
-0.010360522
-0.0094387702
-0.0085439715
-0.0076795739
-0.0068481177
-0.0060512257
-0.0052896003
-0.004562981
-0.0038702248
-0.0032087471
-0.0025767056
-0.0019631766
-0.0013908727
-0.00073884121
-0.00053956536
-0.012144815
-0.012885044
-0.013654194
-0.014468427
-0.015264653
-0.01601836
-0.016733344
-0.017411372
-0.01804669
-0.018632007
-0.019161533
-0.019630428
-0.020033989
-0.020367664
-0.020627364
-0.020809645
-0.020911779
-0.020931813
-0.02086865
-0.020722113
-0.020492989
-0.020183045
-0.019795024
-0.019332608
-0.018800367
-0.018203672
-0.017548593
-0.016841775
-0.016090303
-0.015301549
-0.014483022
-0.013642217
-0.012786465
-0.011922797
-0.011057818
-0.010197601
-0.0093475969
-0.008512557
-0.0076964788
-0.0069025591
-0.0061331576
-0.0053897677
-0.0046729584
-0.0039824343
-0.0033165168
-0.0026741662
-0.0020458261
-0.0014536092
-0.00078317865
-0.00054744398
-0.0090630712
-0.009759892
-0.010481828
-0.011241222
-0.01198992
-0.012708895
-0.01340062
-0.014066017
-0.014700207
-0.015297029
-0.015851358
-0.0163587
-0.016814575
-0.017214524
-0.017554355
-0.017830295
-0.018039059
-0.018177913
-0.018244757
-0.018238205
-0.018157641
-0.018003265
-0.017776116
-0.017478082
-0.017111876
-0.016681005
-0.016189707
-0.015642871
-0.015045939
-0.014404798
-0.013725649
-0.013014885
-0.012278955
-0.011524235
-0.010756902
-0.0099828188
-0.0092074288
-0.0084356625
-0.0076718565
-0.0069196835
-0.0061820889
-0.0054612389
-0.0047584437
-0.0040741943
-0.0034076721
-0.0027586198
-0.0021187623
-0.0015097429
-0.00082324486
-0.00055427309
-0.0064008052
-0.0070561194
-0.0077330016
-0.0084405039
-0.0091427534
-0.0098253172
-0.010489651
-0.011136037
-0.011760394
-0.012357595
-0.012923197
-0.013453143
-0.013943303
-0.014389482
-0.014787602
-0.015133823
-0.015424607
-0.015656777
-0.015827596
-0.015934846
-0.015976892
-0.015952744
-0.0158621
-0.015705375
-0.015483721
-0.01519902
-0.014853861
-0.014451505
-0.013995819
-0.013491207
-0.012942515
-0.012354933
-0.011733887
-0.011084922
-0.010413586
-0.0097253178
-0.0090253369
-0.0083185381
-0.0076093962
-0.006901876
-0.0061993485
-0.0055045171
-0.0048193233
-0.0041449594
-0.003481396
-0.0028291159
-0.0021810316
-0.0015584385
-0.0008584966
-0.00055985656
-0.0041314957
-0.0047489754
-0.0053847252
-0.0060450529
-0.0067040958
-0.0073512099
-0.0079870569
-0.0086114259
-0.0092209288
-0.0098113535
-0.0103789
-0.010919969
-0.011430839
-0.011907665
-0.012346611
-0.012743944
-0.013096088
-0.013399673
-0.013651607
-0.013849149
-0.013989974
-0.014072234
-0.01409462
-0.014056401
-0.013957467
-0.013798348
-0.013580222
-0.013304906
-0.012974836
-0.012593021
-0.01216299
-0.011688717
-0.011174547
-0.010625096
-0.010045154
-0.0094395806
-0.0088132016
-0.0081706983
-0.0075165057
-0.0068547101
-0.0061889499
-0.0055223238
-0.0048572807
-0.0041956094
-0.003537978
-0.0028855453
-0.0022323069
-0.0015993039
-0.00088867445
-0.0005641101
-0.0022266863
-0.0028103897
-0.003409505
-0.004027936
-0.0046479123
-0.005261903
-0.0058699507
-0.0064714536
-0.007063603
-0.0076429643
-0.0082063106
-0.0087504816
-0.0092721614
-0.0097678799
-0.010234104
-0.010667305
-0.011063999
-0.011420792
-0.011734442
-0.012001915
-0.01222045
-0.012387623
-0.012501403
-0.012560207
-0.012562949
-0.012509081
-0.012398621
-0.012232168
-0.012010911
-0.011736612
-0.011411585
-0.011038651
-0.010621088
-0.010162559
-0.0096670365
-0.0091387124
-0.0085819019
-0.0080009421
-0.0074000866
-0.0067833981
-0.0061546394
-0.0055171685
-0.0048738155
-0.004226852
-0.0035775388
-0.0029276292
-0.0022720878
-0.0016317635
-0.0009133011
-0.00056679526
-0.00069139306
-0.0012472536
-0.0018159095
-0.0023995218
-0.0029866442
-0.003572157
-0.0041556147
-0.0047361167
-0.0053113212
-0.0058784237
-0.0064346765
-0.0069773014
-0.0075033503
-0.0080097061
-0.008493142
-0.0089503668
-0.0093780579
-0.0097728975
-0.01013162
-0.010451062
-0.010728224
-0.010960317
-0.011144829
-0.011279579
-0.01136277
-0.01139304
-0.011369508
-0.011291803
-0.011160095
-0.010975105
-0.010738102
-0.010450893
-0.010115792
-0.0097355748
-0.009313423
-0.0088528541
-0.0083576381
-0.0078317051
-0.0072790445
-0.0067035965
-0.0061091393
-0.0054991756
-0.0048767996
-0.0042446508
-0.003604468
-0.0029585001
-0.0023025481
-0.0016572922
-0.00093338613
-0.00056850599
0.00052248435
-1.0298204e-05
-0.00055390091
-0.0011089167
-0.0016687544
-0.0022301911
-0.0027924169
-0.0033542937
-0.0039138342
-0.0044687245
-0.0050165988
-0.0055549913