/*--------------------------------*- C++ -*----------------------------------*\
  =========                 |
  \\      /  F ield         | OpenFOAM: The Open Source CFD Toolbox
   \\    /   O peration     | Website:  https://openfoam.org
    \\  /    A nd           | Version:  6
     \\/     M anipulation  |
\*---------------------------------------------------------------------------*/
FoamFile
{
    version     2.0;
    format      ascii;
    class       volScalarField;
    location    "292";
    object      p;
}
// * * * * * * * * * * * * * * * * * * * * * * * * * * * * * * * * * * * * * //

dimensions      [0 2 -2 0 0 0 0];

internalField   nonuniform List<scalar> 
9200
(
-0.37794899
-0.36660251
-0.35650884
-0.34755955
-0.33881986
-0.33030363
-0.32208915
-0.3141439
-0.30640058
-0.29878726
-0.29123097
-0.28366268
-0.27602423
-0.26827563
-0.2604056
-0.25244946
-0.24448354
-0.23659565
-0.22981072
-0.22841076
-0.3958097
-0.38201204
-0.36997474
-0.35950566
-0.34939394
-0.33962103
-0.33025568
-0.32123463
-0.31245838
-0.30382858
-0.29525205
-0.28664659
-0.2779485
-0.2691186
-0.2601478
-0.25106107
-0.24188823
-0.23262903
-0.22396639
-0.21806624
-0.41408738
-0.39781571
-0.3838807
-0.37196227
-0.36053384
-0.34952624
-0.33898696
-0.32881426
-0.31887448
-0.30904675
-0.29922678
-0.2893325
-0.27931085
-0.26914086
-0.25883356
-0.24842761
-0.2379618
-0.22744508
-0.21727667
-0.20857163
-0.43234797
-0.41362141
-0.39785406
-0.38454789
-0.371823
-0.35954326
-0.34772701
-0.33623358
-0.32490303
-0.31360737
-0.30225194
-0.29077852
-0.27916843
-0.26744029
-0.25564342
-0.24384761
-0.23211943
-0.22049775
-0.20925001
-0.19911731
-0.44996156
-0.42888313
-0.41140018
-0.39678334
-0.38277169
-0.36915133
-0.35591133
-0.34288271
-0.32989984
-0.31685463
-0.30369181
-0.2904052
-0.27703358
-0.26365079
-0.2503523
-0.23724103
-0.22440706
-0.2119089
-0.19993476
-0.18899205
-0.46610365
-0.44288188
-0.42385896
-0.4080209
-0.39271592
-0.37765246
-0.36280274
-0.34799511
-0.33309235
-0.31804271
-0.30286311
-0.28762414
-0.27243569
-0.25742892
-0.24273797
-0.22848487
-0.21476426
-0.20163204
-0.18921419
-0.1778475
-0.47976909
-0.45473132
-0.43440575
-0.41744656
-0.40082798
-0.38419657
-0.36753554
-0.35071131
-0.33365956
-0.31642422
-0.29912265
-0.28191598
-0.26498439
-0.24850352
-0.23262582
-0.21746916
-0.20310923
-0.18957716
-0.17693979
-0.16539833
-0.4897941
-0.46340133
-0.44208378
-0.42412703
-0.40618101
-0.38786435
-0.36921389
-0.35018632
-0.33083868
-0.31134552
-0.29194196
-0.2728793
-0.25439334
-0.23668095
-0.21988687
-0.20410092
-0.18936029
-0.17565684
-0.16299945
-0.1514754
-0.49483646
-0.46761663
-0.44560706
-0.42672652
-0.40739908
-0.38727748
-0.36651221
-0.34520748
-0.32358122
-0.30195418
-0.28067264
-0.26005546
-0.24036329
-0.22178288
-0.20442503
-0.18833285
-0.17349425
-0.15985759
-0.14737778
-0.13604455
-0.49354572
-0.46596036
-0.44342801
-0.42357973
-0.40276041
-0.38074055
-0.35784967
-0.33438534
-0.31074015
-0.28736421
-0.26467765
-0.24302147
-0.22263839
-0.20367207
-0.18617893
-0.17014679
-0.15551467
-0.14219311
-0.13009025
-0.11911097
-0.26506699
-0.26974127
-0.27224968
-0.27300082
-0.27278671
-0.2717942
-0.27010475
-0.26780592
-0.26496989
-0.26165141
-0.25789452
-0.25373672
-0.24921113
-0.24434782
-0.23917506
-0.23372173
-0.22801871
-0.22208653
-0.21592421
-0.2096173
-0.26779963
-0.27205866
-0.27426033
-0.27479279
-0.2743956
-0.27324688
-0.27142616
-0.2690173
-0.26608895
-0.26269298
-0.25887104
-0.25465852
-0.25008665
-0.24518349
-0.2399747
-0.23448816
-0.22876222
-0.22281575
-0.21654146
-0.20991341
-0.27312911
-0.27657608
-0.27817975
-0.2782845
-0.27752838
-0.2760741
-0.27399769
-0.27137573
-0.26826992
-0.26472654
-0.26078238
-0.25646863
-0.25181274
-0.24683893
-0.24156802
-0.23602502
-0.23025968
-0.22428977
-0.21781616
-0.21058113
-0.28081553
-0.28309998
-0.28383813
-0.28331415
-0.28202512
-0.28011418
-0.27765337
-0.27470942
-0.27133437
-0.26756666
-0.26343622
-0.25896814
-0.25418434
-0.24910333
-0.24373913
-0.23811158
-0.23228239
-0.22627392
-0.21954068
-0.21145513
-0.29055662
-0.29138735
-0.29102394
-0.28968269
-0.2876918
-0.28517358
-0.28219694
-0.27881728
-0.27507526
-0.27100004
-0.26661334
-0.26193196
-0.25697029
-0.25173992
-0.24624676
-0.24050227
-0.23457615
-0.22850396
-0.22148102
-0.21236501
-0.30203858
-0.30118599
-0.29951976
-0.29718921
-0.29433678
-0.29106539
-0.28744297
-0.28351393
-0.27930691
-0.27483944
-0.2701224
-0.26516337
-0.2599679
-0.25453918
-0.24887396
-0.24297241
-0.23690423
-0.23072439
-0.22339708
-0.21314383
-0.31498249
-0.31227087
-0.3091349
-0.30566402
-0.30180626
-0.29764831
-0.29326099
-0.28867732
-0.28391125
-0.27896781
-0.27384641
-0.26854334
-0.26305357
-0.25737073
-0.25148248
-0.24537719
-0.23911737
-0.23278061
-0.22516314
-0.21378128
-0.32917232
-0.32446695
-0.31972749
-0.31499324
-0.3100136
-0.30486196
-0.2996124
-0.29428571
-0.28888109
-0.28338916
-0.27779498
-0.27208055
-0.26622724
-0.26021659
-0.25402661
-0.24763674
-0.24110673
-0.23456014
-0.22674445
-0.21446557
-0.34445503
-0.33764183
-0.33118712
-0.3250902
-0.31889443
-0.31265864
-0.30646201
-0.30031262
-0.29419206
-0.28807332
-0.28192354
-0.27570629
-0.26938382
-0.26291737
-0.25626252
-0.24937139
-0.24226828
-0.23505939
-0.22648738
-0.21304988
-0.36073172
-0.35168778
-0.34340161
-0.33583742
-0.32831917
-0.32089084
-0.31363668
-0.30654976
-0.29959153
-0.29271573
-0.28587122
-0.27900483
-0.27206424
-0.26499801
-0.25775029
-0.25025668
-0.24246005
-0.23415377
-0.223687
-0.20801828
-0.20246659
-0.1935183
-0.18456505
-0.17567086
-0.166782
-0.15794017
-0.14919887
-0.14059316
-0.13215233
-0.12390497
-0.11587689
-0.10809028
-0.10056426
-0.093315207
-0.0863567
-0.079699624
-0.073352272
-0.067320447
-0.061607562
-0.056214745
-0.05114097
-0.04638319
-0.04193649
-0.037794255
-0.033948342
-0.03038927
-0.027106412
-0.024088191
-0.021322274
-0.018795764
-0.016495385
-0.014407656
-0.012519061
-0.010816198
-0.0092859259
-0.007915493
-0.0066926658
-0.00560583
-0.0046441686
-0.0037975851
-0.0030575235
-0.00241498
-0.0018676844
-0.0013989944
-0.0010444926
-0.00069461472
-0.00068792269
-8.012672e-05
-0.0017060537
0.002452327
-0.20347662
-0.19413107
-0.18506879
-0.17618893
-0.16728205
-0.15841003
-0.14964431
-0.14101633
-0.13255293
-0.12428325
-0.11623337
-0.10842537
-0.10087837
-0.093608796
-0.086630305
-0.079953843
-0.073587766
-0.067537938
-0.061807823
-0.056398591
-0.051309249
-0.046536769
-0.042076251
-0.037921079
-0.034063105
-0.030492833
-0.027199617
-0.024171851
-0.021397172
-0.018862648
-0.016554963
-0.014460597
-0.012565992
-0.010857704
-0.0093225471
-0.0079477278
-0.0067209699
-0.005630618
-0.0046658145
-0.0038164232
-0.0030738484
-0.0024290499
-0.0018797001
-0.0014091652
-0.0010527484
-0.00070153571
-0.00069132517
-8.5942716e-05
-0.0016914954
0.0024237397
-0.20559531
-0.19539913
-0.18611941
-0.17730823
-0.16837776
-0.15944506
-0.15063172
-0.14195973
-0.1334493
-0.12513171
-0.11703429
-0.10917899
-0.10158504
-0.094269205
-0.087245431
-0.080524879
-0.074116114
-0.068025186
-0.062255711
-0.056808982
-0.051684096
-0.046878087
-0.042386089
-0.038201494
-0.034316141
-0.030720502
-0.027403879
-0.024354604
-0.021560235
-0.019007755
-0.016683757
-0.014574622
-0.01266669
-0.010946415
-0.0094005085
-0.0080160747
-0.0067807377
-0.0056827443
-0.0047111427
-0.0038557049
-0.0031077447
-0.0024581369
-0.001904436
-0.0014300019
-0.0010696101
-0.00071554769
-0.00069831527
-9.7432455e-05
-0.0016629187
0.0023671789
-0.20866392
-0.19709105
-0.18749036
-0.17887815
-0.16995828
-0.16094889
-0.15208141
-0.14336048
-0.13479101
-0.1264094
-0.11824666
-0.1103248
-0.10266334
-0.095279905
-0.088189129
-0.081402701
-0.074929648
-0.068776423
-0.06294698
-0.057442878
-0.052263418
-0.047405782
-0.0428652
-0.038635113
-0.034707367
-0.031072407
-0.027719473
-0.024636812
-0.021811874
-0.019231517
-0.016882194
-0.01475014
-0.012821538
-0.011082683
-0.009520129
-0.0081208191
-0.0068722219
-0.0057624316
-0.0047803483
-0.0039156002
-0.0031593599
-0.0025023686
-0.0019420012
-0.0014615982
-0.0010951581
-0.00073671365
-0.00070899194
-0.00011454799
-0.0016210713
0.0022838691
-0.2124558
-0.19893631
-0.18891242
-0.18070098
-0.17187709
-0.16279368
-0.15388315
-0.1451296
-0.13650653
-0.12805755
-0.11982218
-0.11182356
-0.10408164
-0.096615479
-0.089441122
-0.082571282
-0.076015829
-0.069781959
-0.063874243
-0.058294744
-0.053043152
-0.048116952
-0.043511584
-0.039220626
-0.035235994
-0.03154814
-0.028146266
-0.025018533
-0.022152274
-0.019534195
-0.01715058
-0.014987472
-0.013030856
-0.011266817
-0.0096816966
-0.0082622262
-0.0069956636
-0.0058698967
-0.0048736253
-0.0039962819
-0.0032288473
-0.0025618808
-0.0019925154
-0.0015040592
-0.001129488
-0.00076510548
-0.00072350112
-0.00013718839
-0.0015670968
0.0021756955
-0.21662367
-0.20065443
-0.19011645
-0.18254356
-0.17396188
-0.16483607
-0.15590485
-0.1471531
-0.13850315
-0.13000018
-0.12169753
-0.11362282
-0.10579699
-0.098240985
-0.090973077
-0.084007771
-0.077356353
-0.071027223
-0.06502598
-0.059355531
-0.054016246
-0.049006138
-0.044321048
-0.039954839
-0.035899605
-0.032145891
-0.028682912
-0.025498777
-0.022580709
-0.019915265
-0.017488536
-0.015286352
-0.013294458
-0.011498691
-0.0098851304
-0.0084402477
-0.0071510392
-0.0060051351
-0.0049909835
-0.004097771
-0.0033162369
-0.0026367104
-0.0020560206
-0.0015574308
-0.0011726541
-0.00080076586
-0.00074199763
-0.00016521229
-0.001502443
0.0020451122
-0.22077
-0.20206384
-0.19089073
-0.18412819
-0.17601214
-0.1669491
-0.15803145
-0.14931879
-0.140685
-0.13215943
-0.12380784
-0.11566769
-0.10776328
-0.1001179
-0.09275278
-0.085685171
-0.078928574
-0.072493205
-0.066386211
-0.060611789
-0.055171357
-0.050063764
-0.045285495
-0.040830893
-0.036692385
-0.032860722
-0.029325215
-0.026073974
-0.023094147
-0.020372148
-0.017893877
-0.015644928
-0.013610782
-0.011776989
-0.010129331
-0.0086539703
-0.0073375965
-0.0061675336
-0.0051319302
-0.0042196786
-0.0034212282
-0.002726633
-0.0021323571
-0.0016216098
-0.0012246058
-0.00084367372
-0.00076461832
-0.00019846884
-0.0014287594
0.0018950084
-0.22463393
-0.20356017
-0.1914596
-0.18526746
-0.17781363
-0.16904538
-0.16021933
-0.15157046
-0.14299013
-0.13447969
-0.12610392
-0.11791296
-0.10993884
-0.1022084
-0.094746195
-0.087573002
-0.080705327
-0.07415583
-0.067933704
-0.062044872
-0.056492177
-0.051275614
-0.046392571
-0.041838083
-0.037605081
-0.033684653
-0.030066306
-0.026738227
-0.023687534
-0.020900527
-0.018362922
-0.016060073
-0.013977183
-0.012099487
-0.010412437
-0.0089018505
-0.0075540681
-0.0063560653
-0.0052956468
-0.0043613663
-0.0035433384
-0.0028312992
-0.002221288
-0.0016964559
-0.0012852887
-0.0008938314
-0.00079155237
-0.00023686626
-0.0013478461
0.001728674
-0.22587325
-0.20538807
-0.1925186
-0.18589765
-0.17893124
-0.17074461
-0.16219501
-0.15367526
-0.14520194
-0.13676854
-0.12842269
-0.12022225
-0.11221037
-0.10441971
-0.096878785
-0.089612486
-0.082641177
-0.075980792
-0.069643305
-0.063637029
-0.057966833
-0.052634394
-0.04763847
-0.042975188
-0.03863832
-0.034619573
-0.030908879
-0.027494676
-0.024364194
-0.021503718
-0.018898848
-0.016534744
-0.014396345
-0.012468578
-0.010736548
-0.0091857077
-0.007802014
-0.0065720562
-0.0054832531
-0.0045237743
-0.0036833523
-0.0029513594
-0.0023233485
-0.001782398
-0.0013550591
-0.00095146183
-0.00082318709
-0.0002801134
-0.0012618608
0.001550378
-0.21601263
-0.20463417
-0.19363633
-0.18554896
-0.17849319
-0.1710808
-0.16313744
-0.15498358
-0.14679815
-0.1386072
-0.13043846
-0.1223494
-0.11439552
-0.10661976
-0.099057934
-0.091741613
-0.084697455
-0.077946929
-0.071506732
-0.065389218
-0.059602687
-0.054151685
-0.049037333
-0.044257666
-0.039807967
-0.035681101
-0.031867854
-0.028357253
-0.025136891
-0.02219323
-0.019511889
-0.017077918
-0.014876045
-0.012890911
-0.011107275
-0.009510202
-0.0080852378
-0.0068185438
-0.0056971067
-0.0047086611
-0.0038425058
-0.0030875938
-0.0024389345
-0.0018794878
-0.0014337473
-0.0010160404
-0.00085933245
-0.00032655244
-0.0011733639
0.0013656228
-0.19387467
-0.19858178
-0.19330862
-0.1844044
-0.17690188
-0.16989419
-0.16239409
-0.15453707
-0.146589
-0.13861308
-0.13062886
-0.12268925
-0.11485353
-0.10716903
-0.099674764
-0.092405212
-0.085390014
-0.078653428
-0.072214671
-0.066088359
-0.060284818
-0.054810384
-0.049667742
-0.044856282
-0.040372445
-0.03621008
-0.032360785
-0.02881426
-0.025558635
-0.02258079
-0.019866662
-0.017401526
-0.015170263
-0.013157597
-0.011348316
-0.0097274682
-0.0082805471
-0.0069936293
-0.0058535893
-0.0048480341
-0.0039660844
-0.0031965786
-0.0025340631
-0.0019619346
-0.0015019268
-0.0010746793
-0.00089045848
-0.00037295278
-0.0010829359
0.0011823118
-0.18332589
-0.18914682
-0.18567394
-0.17693533
-0.1697326
-0.16347665
-0.15677702
-0.14963388
-0.14234317
-0.13497992
-0.12755389
-0.12011363
-0.11272087
-0.10542666
-0.098273556
-0.091299875
-0.084539292
-0.078020071
-0.071765268
-0.065793138
-0.060117421
-0.054747629
-0.049689374
-0.044944726
-0.040512566
-0.036388947
-0.03256745
-0.029039545
-0.02579493
-0.022821866
-0.020107498
-0.017638144
-0.01539958
-0.013377292
-0.011556705
-0.0099233968
-0.008463287
-0.0071627947
-0.0060090499
-0.0049898621
-0.0040944231
-0.003311753
-0.0026359557
-0.0020514449
-0.0015762405
-0.0011399546
-0.00092403516
-0.0004274653
-0.00098207143
0.00098467652
-0.17458776
-0.17780924
-0.17553228
-0.16851173
-0.16215941
-0.15659737
-0.15066451
-0.14425142
-0.13762474
-0.13087959
-0.12402786
-0.11711191
-0.11019227
-0.1033218
-0.096545197
-0.089903134
-0.083432203
-0.077163887
-0.071124533
-0.065335679
-0.059814287
-0.054572971
-0.04962029
-0.044961081
-0.040596797
-0.036525862
-0.032744027
-0.029244722
-0.02601941
-0.023057925
-0.0203488
-0.017879569
-0.015637064
-0.013607673
-0.01177759
-0.010133034
-0.0086604542
-0.0073466971
-0.0061792202
-0.0051460963
-0.0042366299
-0.0034400717
-0.002750057
-0.0021521464
-0.0016602754
-0.0012139386
-0.00096305381
-0.00048885907
-0.00087372078
0.00076820393
-0.16490963
-0.16552245
-0.16369111
-0.15874663
-0.15362424
-0.14880483
-0.14366309
-0.13806171
-0.13217807
-0.12611301
-0.11989419
-0.11356205
-0.10717372
-0.10078273
-0.094435599
-0.088175001
-0.082040021
-0.076065106
-0.070279798
-0.064708917
-0.059372724
-0.054287091
-0.049463724
-0.044910465
-0.040631598
-0.036628189
-0.032898422
-0.029437956
-0.026240274
-0.023297022
-0.020598344
-0.018133197
-0.015889654
-0.013855175
-0.012016869
-0.010361728
-0.0088768409
-0.0075495781
-0.0063678039
-0.005319919
-0.0043953907
-0.0035837358
-0.0028781418
-0.0022653194
-0.0017550988
-0.0012968349
-0.0010087536
-0.00055461207
-0.00076544257
0.00054295364
-0.1543405
-0.15307345
-0.15126415
-0.14803455
-0.14420538
-0.14019082
-0.1358461
-0.13108868
-0.126002
-0.12066912
-0.11513319
-0.10943721
-0.10363418
-0.097776479
-0.091911559
-0.086083364
-0.08033272
-0.07469647
-0.069206988
-0.063892163
-0.05877547
-0.053876053
-0.049208876
-0.044784954
-0.040611621
-0.036692828
-0.033029462
-0.029619684
-0.026459263
-0.023541923
-0.020859669
-0.018403117
-0.016161791
-0.014124422
-0.012279209
-0.010614071
-0.0091168719
-0.0077756204
-0.0065786854
-0.0055148741
-0.0045738823
-0.0037455298
-0.0030226104
-0.0023929282
-0.0018623848
-0.0013896783
-0.0010626341
-0.00062409497
-0.00066327471
0.00031703018
-0.14255407
-0.14049519
-0.13880042
-0.13684512
-0.1341868
-0.13100822
-0.12745062
-0.12351783
-0.11923196
-0.11464883
-0.10981937
-0.10478826
-0.099603922
-0.094316389
-0.088972937
-0.083617736
-0.078292252
-0.073034735
-0.067879625
-0.06285731
-0.05799406
-0.053312009
-0.048829226
-0.044559851
-0.040514302
-0.036699521
-0.033119247
-0.029774324
-0.026663021
-0.023781353
-0.02112341
-0.018681679
-0.016447352
-0.014410623
-0.012560964
-0.010887386
-0.0093786757
-0.0080236105
-0.0068111764
-0.0057306793
-0.0047721256
-0.0039256828
-0.0031838352
-0.0025353894
-0.0019826494
-0.001492785
-0.0011256774
-0.0006968665
-0.0005732096
9.908606e-05
-0.1298602
-0.12793045
-0.12658373
-0.12554052
-0.12384581
-0.12147689
-0.11867959
-0.11552546
-0.11201133
-0.10816676
-0.10404169
-0.099682512
-0.095132172
-0.090435591
-0.085638681
-0.080785084
-0.07591591
-0.071069676
-0.066281878
-0.061584591
-0.05700622
-0.052571379
-0.048300855
-0.044211658
-0.04031714
-0.036627169
-0.03314835
-0.029884285
-0.02683585
-0.024001501
-0.021377581
-0.018958626
-0.016737677
-0.014706571
-0.012856228
-0.011176914
-0.0096584895
-0.008290637
-0.0070630811
-0.0059657291
-0.004988993
-0.0041234403
-0.0033613554
-0.0026924353
-0.0021158477
-0.0016060829
-0.0011985588
-0.00077251124
-0.00050114751
-0.00010156881
-0.11697453
-0.11562493
-0.11476688
-0.11437947
-0.11344032
-0.11180662
-0.10972009
-0.10728311
-0.10448895
-0.10134945
-0.097906687
-0.094204998
-0.090284221
-0.086183663
-0.081944397
-0.077608335
-0.07321561
-0.068804065
-0.064409182
-0.060063742
-0.055797467
-0.051636757
-0.047604553
-0.043720292
-0.03999993
-0.036456039
-0.033097956
-0.029931979
-0.026961604
-0.024187779
-0.02160919
-0.019222548
-0.017022878
-0.015003813
-0.013157869
-0.01147672
-0.009951445
-0.0085727661
-0.007331272
-0.0062175798
-0.0052226105
-0.0043373931
-0.0035541399
-0.0028633232
-0.0022615254
-0.0017292441
-0.0012816537
-0.00085081919
-0.0004521085
-0.00027608469
-0.1044402
-0.10375714
-0.10341497
-0.1035216
-0.10317051
-0.1021741
-0.10072917
-0.098939397
-0.09680134
-0.094317301
-0.091519605
-0.088447228
-0.08513551
-0.081619417
-0.077935441
-0.074121123
-0.070214183
-0.066251101
-0.0622665
-0.058292924
-0.05436051
-0.050496657
-0.046725777
-0.043069156
-0.039544887
-0.036167877
-0.032949925
-0.029899842
-0.027023628
-0.024324682
-0.021804042
-0.019460636
-0.017291559
-0.015292336
-0.013457203
-0.011779363
-0.010251243
-0.0088647309
-0.0076113988
-0.0064826825
-0.0054701198
-0.0045652696
-0.0037604123
-0.0030466926
-0.0024187032
-0.0018616098
-0.0013749229
-0.00093179434
-0.00042945588
-0.00041731904
-0.092542874
-0.092445904
-0.092572168
-0.093066445
-0.093176705
-0.092715152
-0.091830857
-0.090613769
-0.08906271
-0.087175229
-0.084974568
-0.082492682
-0.079759642
-0.076805322
-0.073661753
-0.070362348
-0.066940872
-0.063431128
-0.059866129
-0.056277407
-0.052694681
-0.049145535
-0.045655122
-0.042245931
-0.038937629
-0.035746995
-0.032687908
-0.029771398
-0.027005761
-0.0243967
-0.021947523
-0.01965935
-0.017531353
-0.015561003
-0.013744322
-0.012076136
-0.010550321
-0.0091600338
-0.0078979406
-0.0067563979
-0.0057276653
-0.0048039053
-0.0039776098
-0.0032405199
-0.0025858323
-0.002002138
-0.0014778348
-0.0010155481
-0.00043431577
-0.00052096486
-0.081422948
-0.081781985
-0.082290676
-0.083087548
-0.083558648
-0.083534203
-0.083125212
-0.082403784
-0.081368323
-0.080013461
-0.078354795
-0.076416914
-0.074224129
-0.071801037
-0.069174567
-0.066373752
-0.063428502
-0.060369011
-0.057225597
-0.054028036
-0.050804912
-0.047583248
-0.044388211
-0.041242818
-0.038167713
-0.035181014
-0.03229823
-0.02953224
-0.026893334
-0.024389298
-0.022025546
-0.019805287
-0.017729721
-0.01579825
-0.014008706
-0.012357586
-0.01084028
-0.0094512992
-0.0081844887
-0.0070332168
-0.005990562
-0.0050493662
-0.004202472
-0.0034421751
-0.0027608305
-0.0021493984
-0.0015893363
-0.0011021441
-0.00046528641
-0.00058638557
-0.071140878
-0.071827853
-0.072622905
-0.073644813
-0.074391079
-0.074713765
-0.074695745
-0.074392543
-0.07380047
-0.072911741
-0.071735627
-0.070289792
-0.068592675
-0.066663559
-0.064524184
-0.062198715
-0.059712866
-0.057093155
-0.054366556
-0.051560231
-0.048700936
-0.045814472
-0.042925338
-0.040056422
-0.037228726
-0.034461149
-0.031770335
-0.029170582
-0.026673815
-0.02428961
-0.022025261
-0.019885899
-0.017874634
-0.015992734
-0.014239814
-0.012614044
-0.011112362
-0.009730681
-0.0084640928
-0.00730705
-0.0062535344
-0.0052971408
-0.0044311928
-0.0036485334
-0.0029411642
-0.0023015951
-0.0017078669
-0.0011914315
-0.00051854073
-0.00061690648
-0.061708556
-0.062616277
-0.063609018
-0.064784953
-0.065730956
-0.066319574
-0.066612821
-0.066652481
-0.066432411
-0.065942684
-0.065187345
-0.064177925
-0.062927295
-0.061449565
-0.059761391
-0.057882022
-0.05583263
-0.05363574
-0.051314799
-0.048893835
-0.046397093
-0.043848527
-0.041271352
-0.038687702
-0.036118333
-0.033582354
-0.031097023
-0.028677591
-0.026337212
-0.024086905
-0.021935563
-0.019890012
-0.017955107
-0.016133858
-0.014427588
-0.012836105
-0.011357887
-0.0099902671
-0.0087296235
-0.0075715462
-0.0065109902
-0.005542371
-0.0046596107
-0.0038561232
-0.0031239631
-0.0024566169
-0.0018314166
-0.0012829129
-0.00058836334
-0.00061937351
-0.053111182
-0.054155509
-0.055271438
-0.056539443
-0.057619497
-0.058402326
-0.05893413
-0.059245805
-0.059329167
-0.059172592
-0.058775913
-0.058145466
-0.057289139
-0.056216261
-0.054938682
-0.053470893
-0.051829524
-0.050032882
-0.048100629
-0.046053421
-0.043912547
-0.041699551
-0.039435803
-0.037142118
-0.034838427
-0.032543492
-0.030274651
-0.028047619
-0.025876338
-0.023772885
-0.021747419
-0.019808189
-0.017961572
-0.016212155
-0.014562847
-0.013015013
-0.011568627
-0.01022243
-0.0089740978
-0.0078203911
-0.0067572893
-0.0057800889
-0.0048834123
-0.0040612918
-0.0033061532
-0.0026121116
-0.001957632
-0.0013756887
-0.00066805285
-0.00060296581
-0.045317978
-0.04643463
-0.047614507
-0.048923573
-0.05008243
-0.050997877
-0.051704057
-0.052223423
-0.05254644
-0.052660407
-0.052561929
-0.052253143
-0.051737722
-0.051020791
-0.050109867
-0.049015024
-0.047748541
-0.04632456
-0.044758833
-0.043068449
-0.041271499
-0.039386728
-0.037433191
-0.035429879
-0.033395382
-0.031347579
-0.029303372
-0.02727844
-0.025287053
-0.023341926
-0.021454116
-0.019632974
-0.017886135
-0.016219549
-0.014637544
-0.01314292
-0.011737065
-0.010420082
-0.0091909291
-0.0080475445
-0.0069869663
-0.0060054201
-0.0050983142
-0.0042603602
-0.0034845893
-0.002765578
-0.0020839613
-0.0014684924
-0.00075100325
-0.00057748389
-0.038287568
-0.039428744
-0.040627462
-0.041937833
-0.043130937
-0.044127827
-0.044953541
-0.045624124
-0.046129399
-0.046456242
-0.046598984
-0.046556552
-0.046329248
-0.045918708
-0.045328722
-0.044565447
-0.04363718
-0.042554129
-0.041328233
-0.03997297
-0.038503093
-0.036934335
-0.035283101
-0.033566157
-0.031800304
-0.030002068
-0.028187425
-0.026371536
-0.024568534
-0.022791333
-0.021051493
-0.019359114
-0.017722782
-0.016149549
-0.014644953
-0.013213067
-0.011856571
-0.01057685
-0.0093740926
-0.008247402
-0.0071948851
-0.0062137308
-0.0053001994
-0.0044497464
-0.003656167
-0.0029144617
-0.0022078181
-0.0015598055
-0.0008316964
-0.00055154361
-0.031972519
-0.033103924
-0.034288539
-0.035570768
-0.036763695
-0.03780097
-0.038700863
-0.039474663
-0.040112164
-0.040600407
-0.04093232
-0.041104544
-0.041114861
-0.040962177
-0.040647248
-0.04017292
-0.039544013
-0.038767181
-0.037850814
-0.036804915
-0.035640916
-0.034371451
-0.0330101
-0.031571125
-0.030069194
-0.028519089
-0.02693543
-0.025332419
-0.023723603
-0.022121665
-0.020538253
-0.01898384
-0.017467623
-0.015997464
-0.014579859
-0.013219949
-0.011921546
-0.010687195
-0.0095182406
-0.0084149007
-0.0073763387
-0.0064007212
-0.0054852052
-0.0046260482
-0.0038179059
-0.0030562439
-0.0023267349
-0.00164801
-0.00090633912
-0.00053118565
-0.026322776
-0.027420946
-0.028568558
-0.029802042
-0.030969403
-0.032015333
-0.032953135
-0.033790646
-0.034518102
-0.035123182
-0.03559814
-0.035938152
-0.036139267
-0.036198406
-0.036114
-0.035886245
-0.035517067
-0.03501006
-0.034370455
-0.033605062
-0.032722162
-0.031731348
-0.030643339
-0.02946976
-0.02822292
-0.026915564
-0.025560617
-0.024170938
-0.022759087
-0.021337107
-0.019916332
-0.018507221
-0.01711923
-0.015760703
-0.014438817
-0.013159534
-0.011927603
-0.010746574
-0.0096188264
-0.0085456196
-0.0075271304
-0.0065624934
-0.005649782
-0.0047860983
-0.0039670067
-0.0031885157
-0.0024384768
-0.0017315327
-0.0009729877
-0.00051928911
-0.02128796
-0.022337944
-0.023433734
-0.024605173
-0.025729291
-0.026760391
-0.027708147
-0.028577932
-0.029360744
-0.030045241
-0.030623573
-0.031090131
-0.031439911
-0.031668525
-0.031772753
-0.0317508
-0.031602309
-0.031328365
-0.030931517
-0.030415773
-0.029786557
-0.029050617
-0.028215898
-0.027291395
-0.026286966
-0.025213141
-0.024080908
-0.022901489
-0.021686122
-0.020445847
-0.019191312
-0.017932597
-0.016679051
-0.015439175
-0.014220513
-0.013029587
-0.011871849
-0.010751661
-0.0096722916
-0.0086359287
-0.00764369
-0.0066956397
-0.0057907606
-0.0049270189
-0.004100901
-0.0033090421
-0.002541103
-0.0018089467
-0.0010311918
-0.00051588065
-0.016819257
-0.017812638
-0.018848123
-0.019950057
-0.021019622
-0.022019429
-0.022956491
-0.023834438
-0.024645221
-0.025378679
-0.026027273
-0.026585132
-0.02704675
-0.027407006
-0.027661627
-0.027807429
-0.027842371
-0.027765591
-0.02757747
-0.027279671
-0.026875141
-0.026368082
-0.025763879
-0.02506901
-0.02429092
-0.023437873
-0.022518785
-0.021543046
-0.020520318
-0.019460351
-0.018372785
-0.017266982
-0.016151855
-0.015035726
-0.013926201
-0.012830074
-0.011753247
-0.010700679
-0.009676346
-0.0086832219
-0.0077232618
-0.0067973915
-0.0059054664
-0.005046311
-0.0042173208
-0.0034158294
-0.0026329864
-0.0018790223
-0.0010813714
-0.00051909055
-0.012870474
-0.013803749
-0.01477531
-0.015804847
-0.016813679
-0.017771556
-0.018683524
-0.019551972
-0.02036988
-0.02112836
-0.021820452
-0.022440398
-0.02298261
-0.023441688
-0.023812798
-0.024091894
-0.024275786
-0.024362201
-0.024349863
-0.024238566
-0.024029213
-0.023723824
-0.023325525
-0.022838496
-0.022267908
-0.02161982
-0.02090106
-0.02011909
-0.019281844
-0.018397571
-0.017474657
-0.016521465
-0.015546173
-0.014556622
-0.013560183
-0.012563637
-0.011573075
-0.010593815
-0.0096303389
-0.0086862404
-0.0077641791
-0.0068658456
-0.0059919029
-0.0051419997
-0.00431441
-0.0035072138
-0.0027128232
-0.0019407481
-0.0011242114
-0.00052629926
-0.0093995991
-0.010272803
-0.011180392
-0.012138058
-0.013083938
-0.013993898
-0.0148715
-0.015718233
-0.016528099
-0.017293484
-0.018008156
-0.018666714
-0.019263779
-0.019794005
-0.020252383
-0.02063443
-0.020936261
-0.021154662
-0.021287175
-0.021332189
-0.021288996
-0.021157839
-0.020939931
-0.02063745
-0.020253514
-0.019792133
-0.01925813
-0.018657048
-0.017995039
-0.017278731
-0.01651509
-0.015711273
-0.01487448
-0.014011814
-0.01313014
-0.012235961
-0.011335298
-0.010433595
-0.0095356244
-0.0086454126
-0.0077661709
-0.0069002335
-0.0060489803
-0.0052128253
-0.0043908736
-0.0035819733
-0.0027796599
-0.0019933517
-0.0011602851
-0.00053504966
-0.0063686298
-0.0071844281
-0.0080306978
-0.0089196627
-0.0098035221
-0.010663357
-0.01150158
-0.012319006
-0.013110593
-0.013869936
-0.014591585
-0.015270635
-0.015902098
-0.016480903
-0.01700214
-0.017461212
-0.017853901
-0.018176442
-0.018425604
-0.018598789
-0.018694095
-0.018710385
-0.018647329
-0.018505431
-0.018286041
-0.017991345
-0.017624324
-0.017188707
-0.016688898
-0.016129882
-0.015517124
-0.014856446
-0.014153903
-0.013415661
-0.012647858
-0.011856486
-0.011047268
-0.010225542
-0.0093961622
-0.0085633977
-0.0077308443
-0.0069013411
-0.0060768735
-0.0052585397
-0.0044462126
-0.0036395022
-0.0028329846
-0.002036363
-0.0011899677
-0.00054352868
-0.0037453568
-0.0045079553
-0.0052972297
-0.0061223349
-0.0069472266
-0.0077574179
-0.0085544135
-0.0093384956
-0.010105479
-0.01085006
-0.01156756
-0.012253624
-0.012903745
-0.01351326
-0.014077536
-0.014592081
-0.015052613
-0.015455116
-0.015795922
-0.016071795
-0.016280007
-0.016418406
-0.016485478
-0.016480393
-0.01640304
-0.016254045
-0.016034775
-0.015747316
-0.015394438
-0.014979545
-0.014506604
-0.013980055
-0.01340472
-0.012785693
-0.012128229
-0.011437625
-0.01071911
-0.0099777217
-0.0092181988
-0.0084448698
-0.007661548
-0.0068714305
-0.0060769844
-0.0052798935
-0.0044807213
-0.0036798059
-0.0028727035
-0.0020695914
-0.0012134592
-0.0005506097
-0.00150411
-0.0022193112
-0.002957543
-0.0037253349
-0.0044964059
-0.0052599826
-0.006016831
-0.0067668014
-0.0075064471
-0.0082314289
-0.0089377814
-0.0096216945
-0.010279166
-0.010905997
-0.011497923
-0.012050699
-0.012560155
-0.013022242
-0.013433104
-0.013789149
-0.014087125
-0.014324184
-0.014497953
-0.014606589
-0.014648829
-0.014624032
-0.014532203
-0.014374009
-0.014150766
-0.013864427
-0.013517543
-0.013113211
-0.012655007
-0.012146906
-0.011593189
-0.010998346
-0.010366971
-0.0097036491
-0.009012843
-0.0082987807
-0.0075653389
-0.0068159299
-0.0060533752
-0.0052798349
-0.0044964717
-0.0037042928
-0.0028997692
-0.0020936157
-0.0012312666
-0.00055592
0.00037921716
-0.00029440756
-0.00098780615
-0.0017051314
-0.0024281563
-0.0031492155
-0.0038684739
-0.0045854157
-0.0052972063
-0.0060003269
-0.0066914384
-0.007367231
-0.0080241841
-0.0086585607
-0.0092664952
-0.0098440575
-0.01038729
-0.010892248
-0.011355059
-0.01177198
-0.012139465
-0.012454228
-0.012713308
-0.012914131
-0.013054568
-0.013132988
-0.013148303
-0.013099998
-0.012988153
-0.012813454
-0.01257718
-0.012281188
-0.011927869
-0.011520096
-0.011061161
-0.010554695
-0.010004576
-0.0094148344
-0.0087895405
-0.008132694
-0.0074481041
-0.0067392693
-0.0060092424
-0.0052605481
-0.0044948476
-0.0037137358
-0.0029145179
-0.0021084266
-0.0012432059
-0.00055896322
0.0019018086
0.0012619623
0.00060537878
-7.0344516e-05
-0.00075339824
-0.0014385611
-0.0021255021
-0.0028134085
-0.0034999357
-0.0041822294
-0.0048574683
-0.0055227693
-0.0061750337
-0.0068109415
-0.0074270066
-0.0080196196
-0.0085850746
-0.0091196024
-0.0096194134
-0.010080748
-0.010499933
-0.010873433
-0.01119792
-0.011470326
-0.011687909
-0.011848309
-0.011949605
-0.01199036
-0.011969661
-0.011887149
-0.011743033
-0.011538092
-0.01127367
-0.010951648
-0.010574397
-0.010144723
-0.0096657972
-0.0091410676
-0.008574164
-0.0079687886
-0.007328599
-0.0066570854
-0.0059574315
-0.0052324231
-0.0044841171
-0.0037145993
-0.0029219045
-0.0021177123
-0.0012518816
-0.00056105413
0.003104426
0.0024923565
0.0018659057
0.0012242978
0.00057431766
-8.0771593e-05
-0.00074025397
-0.0014030662
-0.0020672347
-0.002730423
-0.00339022
-0.0040440865
-0.0046892697
-0.0053227993
-0.0059415176
-0.0065421064
-0.0071211052
-0.0076749375
-0.0081999432
-0.0086924196
-0.0091486657
-0.009565033
-0.0099379792
-0.010264127