/*--------------------------------*- C++ -*----------------------------------*\
  =========                 |
  \\      /  F ield         | OpenFOAM: The Open Source CFD Toolbox
   \\    /   O peration     | Website:  https://openfoam.org
    \\  /    A nd           | Version:  6
     \\/     M anipulation  |
\*---------------------------------------------------------------------------*/
FoamFile
{
    version     2.0;
    format      ascii;
    class       volVectorField;
    location    "259";
    object      U_0;
}
// * * * * * * * * * * * * * * * * * * * * * * * * * * * * * * * * * * * * * //

dimensions      [0 1 -1 0 0 0 0];

internalField   nonuniform List<vector> 
9200
(
(0.0010393461 0.0014199823 -5.920184e-20)
(0.013676067 -0.0020583664 4.6042531e-20)
(0.038313166 -0.0058665675 -3.8501735e-20)
(0.072274435 -0.0097635044 -6.0257748e-20)
(0.11376474 -0.013490028 1.8826964e-20)
(0.16158088 -0.016605656 3.2743879e-20)
(0.21467148 -0.018817283 -1.2268008e-20)
(0.27206607 -0.019973888 9.2688612e-21)
(0.33285622 -0.02001122 1.6803427e-20)
(0.39616347 -0.018929048 1.4848073e-21)
(0.46111555 -0.016779811 -2.1456337e-20)
(0.52683686 -0.013657726 2.0670004e-20)
(0.59245067 -0.0096879914 -4.0422145e-20)
(0.65709129 -0.005015768 -2.1133899e-20)
(0.7199247 0.00020557179 5.904652e-21)
(0.780175 0.0058241074 -2.5131672e-20)
(0.83717058 0.011712827 2.5217119e-20)
(0.89046874 0.017918528 2.2243194e-20)
(0.93967069 0.024573431 -2.9930706e-22)
(0.98205185 0.028293402 -1.6692089e-21)
(0.0052521801 -0.0013462729 -1.7059352e-20)
(0.0269625 -0.0089890257 3.9747708e-20)
(0.061670114 -0.014809763 2.3576294e-20)
(0.10629489 -0.019172267 -1.1569757e-19)
(0.15873565 -0.022213993 -1.2727087e-20)
(0.21753351 -0.023720681 7.3297079e-20)
(0.28137295 -0.023595091 -3.5476399e-20)
(0.349006 -0.021868959 -8.3905569e-21)
(0.41923919 -0.018645516 3.4287541e-20)
(0.49090943 -0.014080832 -4.3259579e-20)
(0.5628723 -0.0083759409 -3.0338482e-20)
(0.63400845 -0.0017665833 7.1921434e-20)
(0.70324328 0.0054884068 3.8294047e-20)
(0.7695758 0.013118646 -6.797655e-20)
(0.83211244 0.020852097 1.4623687e-20)
(0.89010035 0.02841972 -3.673339e-20)
(0.94296915 0.035569689 -1.3777197e-20)
(0.99043228 0.042140902 7.0974727e-20)
(1.032356 0.047715326 2.9641878e-20)
(1.0669348 0.049139707 -8.3478117e-20)
(0.010858426 -0.0040424156 3.6773455e-20)
(0.043953412 -0.015431076 2.504736e-21)
(0.090515433 -0.022552281 2.2341709e-20)
(0.14711139 -0.026497356 9.8116821e-22)
(0.21134254 -0.027886294 -4.0773934e-20)
(0.28146766 -0.026795111 1.8576404e-20)
(0.35587039 -0.023382724 1.3420298e-20)
(0.43299006 -0.017921532 -5.0327703e-20)
(0.51132476 -0.010735645 5.7261859e-20)
(0.58942612 -0.0021838741 1.4256689e-20)
(0.66590914 0.0073479121 -5.4300711e-20)
(0.73948034 0.01746027 -1.8237403e-20)
(0.80897596 0.027756569 9.0591599e-21)
(0.87340262 0.037859278 2.3444736e-20)
(0.9319736 0.04742405 -1.1362503e-20)
(0.98413365 0.056148979 2.7877718e-20)
(1.029574 0.063789179 -2.0188231e-20)
(1.0682645 0.070204397 -7.0123541e-20)
(1.1003321 0.075119382 -2.3796276e-20)
(1.1249112 0.076641243 4.8659633e-20)
(0.017957214 -0.006422163 2.4508014e-20)
(0.064776994 -0.020694798 5.1039222e-20)
(0.12485228 -0.028060845 1.9881694e-20)
(0.19446965 -0.030464063 1.2990097e-20)
(0.27094931 -0.029094839 1.7275703e-20)
(0.35224878 -0.024388975 -4.7720171e-20)
(0.43643137 -0.016825969 -2.5646856e-20)
(0.52162006 -0.0069766663 0)
(0.60602894 0.0045670362 1.3920619e-20)
(0.68798705 0.017211736 -5.8523405e-21)
(0.76597516 0.030373926 -9.7934947e-20)
(0.83867445 0.043499636 -1.5774818e-20)
(0.90501524 0.056086621 6.5103199e-20)
(0.96421568 0.067704139 4.8442651e-22)
(1.0158035 0.078007719 -1.5725564e-21)
(1.0596155 0.086746797 2.195749e-20)
(1.0957773 0.093772233 -5.2647225e-21)
(1.12468 0.099065339 -6.1029721e-20)
(1.1468647 0.10259708 -4.5851267e-20)
(1.1622957 0.10341386 6.9520563e-20)
(0.026579419 -0.0082056878 -3.9194198e-21)
(0.089344018 -0.024033505 -5.1256302e-21)
(0.16430753 -0.030264986 5.6599407e-20)
(0.24758119 -0.029810017 1.8539325e-20)
(0.3362416 -0.024513025 -3.1955068e-20)
(0.42795125 -0.015239856 1.2163839e-20)
(0.52047261 -0.0028513594 2.6402862e-21)
(0.61166356 0.011737099 3.360917e-20)
(0.6995471 0.027640146 5.6599505e-21)
(0.78236836 0.044028773 -1.320474e-20)
(0.85865404 0.060147728 6.0154039e-20)
(0.92726909 0.075340475 -5.8009357e-20)
(0.98745674 0.089072865 -1.3216613e-19)
(1.038853 0.10094902 -5.5773037e-21)
(1.0814725 0.11071709 8.3150775e-20)
(1.1156655 0.11826406 0)
(1.1420548 0.12360583 1.0118952e-20)
(1.1614668 0.12689057 -1.5459776e-20)
(1.1748179 0.12829871 -8.5994789e-21)
(1.1826673 0.12744916 2.0992271e-20)
(0.036666908 -0.0090895793 -5.4309115e-21)
(0.11731511 -0.024685356 4.3578744e-21)
(0.20811868 -0.028140176 -8.7629837e-21)
(0.30515701 -0.023414952 2.8472393e-20)
(0.40533538 -0.013075589 -2.9392664e-20)
(0.50607146 0.0015226181 -1.6927023e-20)
(0.60490489 0.019095143 3.736423e-20)
(0.69954958 0.038365258 4.7595448e-21)
(0.78800391 0.058167649 -2.4436058e-20)
(0.86863404 0.077483008 6.9867559e-20)
(0.94023971 0.095458646 5.2393836e-22)
(1.0020955 0.11143157 -8.0444316e-20)
(1.0539569 0.12494291 0)
(1.0960273 0.1357375 3.9542117e-20)
(1.1288921 0.14374844 5.5236002e-21)
(1.1534278 0.14906894 -7.7566404e-20)
(1.170699 0.15191914 -1.9586921e-20)
(1.1818623 0.15262369 -1.2467635e-20)
(1.1880592 0.15152607 -1.4709399e-20)
(1.190146 0.14858494 4.0420589e-20)
(0.048058868 -0.0087674049 -1.7277958e-20)
(0.1480831 -0.021931992 -2.2198299e-21)
(0.25514069 -0.020797833 3.0380502e-20)
(0.36546383 -0.010412791 3.7484306e-20)
(0.4759042 0.0059015904 -1.9944733e-20)
(0.58374265 0.026269309 -6.916303e-20)
(0.68644184 0.048977212 -2.7995797e-20)
(0.78176202 0.072417791 7.8929209e-20)
(0.86790195 0.095212481 8.5778139e-21)
(0.94358915 0.11624962 -2.4873482e-20)
(1.0081258 0.13469828 1.3642212e-20)
(1.061387 0.15001556 -4.319449e-21)
(1.1037693 0.1619366 0)
(1.1360975 0.17044428 2.7203483e-20)
(1.1595046 0.17572309 -7.9322416e-20)
(1.175302 0.1781037 -3.1475529e-20)
(1.1848569 0.17800814 8.1054576e-20)
(1.1894921 0.17590946 -4.2969863e-21)
(1.1904029 0.17225559 3.5561051e-21)
(1.188508 0.16719299 2.7111586e-20)
(0.06048525 -0.0069573638 -3.2414614e-20)
(0.18077772 -0.01517038 -8.1624319e-20)
(0.30388929 -0.0075835259 2.579773e-21)
(0.42642555 0.0097033576 7.016181e-20)
(0.54535148 0.032631555 6.2424375e-20)
(0.657981 0.058820045 -7.1574519e-20)
(0.76190882 0.086176509 -2.8275057e-22)
(0.8551829 0.11285231 8.5522546e-20)
(0.93645345 0.13737838 4.8828069e-20)
(1.0050415 0.1586937 -5.4218407e-20)
(1.0609356 0.17613563 -9.2334214e-20)
(1.1047242 0.18941355 -3.1589826e-21)
(1.1374759 0.19855944 4.2127866e-20)
(1.1605873 0.20385857 -6.6056272e-21)
(1.1756247 0.2057702 -1.2868785e-20)
(1.1841776 0.2048492 1.9690804e-20)
(1.1877427 0.20167898 4.3880615e-20)
(1.1876453 0.19682589 -4.3859423e-20)
(1.1849953 0.19077885 -1.0232198e-19)
(1.180625 0.18377381 2.4566869e-20)
(0.073537215 -0.0034329734 -3.497975e-20)
(0.21422687 -0.0039890253 -1.7388611e-19)
(0.35251657 0.011839376 8.2103243e-20)
(0.48562797 0.037018337 9.2767514e-20)
(0.61085379 0.066835552 5.7970565e-20)
(0.72576726 0.098481178 8.6107093e-21)
(0.82834801 0.12959696 -1.0624009e-19)
(0.91718997 0.15824269 0)
(0.99162743 0.18302814 -6.8748587e-20)
(1.0517521 0.20311207 -1.5202409e-20)
(1.0983384 0.21814861 5.4703464e-20)
(1.1327008 0.22821083 1.0973379e-20)
(1.1565109 0.23369261 -4.5613852e-20)
(1.1716067 0.23519947 -4.908136e-20)
(1.1798203 0.23344336 2.428768e-20)
(1.182845 0.22915324 4.4822889e-20)
(1.1821488 0.22300987 -5.5600404e-20)
(1.178936 0.21560823 -1.075112e-19)
(1.1741468 0.20742225 -3.1513633e-21)
(1.1684567 0.19871882 2.7046392e-20)
(0.086650445 0.001961386 -3.5448995e-21)
(0.24696018 0.011816634 8.7913241e-20)
(0.39884739 0.037492309 -1.6479243e-20)
(0.54040464 0.071218381 -8.4309148e-20)
(0.66949901 0.10778893 4.516437e-20)
(0.78421952 0.14411543 4.9175451e-20)
(0.88318939 0.17775668 5.535678e-21)
(0.96577869 0.2068849 -9.9502486e-20)
(1.0321763 0.23038802 -2.5048779e-21)
(1.0833328 0.24781553 5.0503541e-20)
(1.120807 0.25926301 5.9854755e-21)
(1.1465558 0.2652362 -1.9717207e-20)
(1.1627107 0.26650533 -7.5704625e-20)
(1.1713765 0.26396622 -6.2554015e-21)
(1.1744762 0.2585243 4.3533351e-20)
(1.1736548 0.25101089 3.702201e-20)
(1.1702383 0.24213396 1.979344e-20)
(1.1652402 0.23245876 -5.2994837e-20)
(1.1594014 0.22240419 1.2957451e-20)
(1.1532251 0.212238 8.2659087e-20)
(-0.0012932614 0.0014346598 -1.1234445e-21)
(-0.0047459602 0.0031874148 2.0646967e-21)
(-0.010771358 0.004135904 8.7950067e-22)
(-0.017754286 0.0045395359 -2.4411018e-21)
(-0.024740317 0.0045654165 -1.4114827e-21)
(-0.031299591 0.0043260384 1.5460013e-21)
(-0.037161326 0.003903538 -6.870081e-21)
(-0.04214744 0.0033577216 -5.9573043e-21)
(-0.046157774 0.0027313812 1.1171998e-20)
(-0.049146188 0.0020548305 -9.7427489e-21)
(-0.051100652 0.0013493004 -1.983305e-22)
(-0.052030442 0.00062942195 3.6673438e-21)
(-0.051957736 -9.4889413e-05 -6.3295603e-22)
(-0.05091188 -0.00081693028 2.2818744e-20)
(-0.048925777 -0.0015318446 3.0401141e-22)
(-0.046035341 -0.0022351738 -4.088287e-20)
(-0.042281798 -0.0029222677 7.5385608e-21)
(-0.037703444 -0.0035910382 2.386411e-20)
(-0.032308696 -0.0042399861 -4.3852373e-20)
(-0.026156967 -0.0048211127 -2.7739204e-20)
(-0.0016521999 0.0041808662 -5.3716027e-21)
(-0.0053974809 0.0092681378 1.0865438e-20)
(-0.011218509 0.012007443 -1.0191543e-20)
(-0.017658025 0.013153763 3.9229747e-21)
(-0.023856431 0.013195413 4.8121445e-21)
(-0.029433316 0.012462724 7.132419e-22)
(-0.034152319 0.011197013 -2.2509491e-20)
(-0.037860376 0.0095738965 -2.037024e-21)
(-0.040474297 0.007718987 2.0163541e-20)
(-0.04195892 0.0057212303 -5.0473602e-21)
(-0.042308948 0.0036428646 -2.176259e-20)
(-0.041537336 0.001526713 4.897317e-21)
(-0.039667712 -0.00059830502 2.2635422e-20)
(-0.036729082 -0.0027127604 1.0308391e-20)
(-0.032752035 -0.0048026883 2.1854284e-20)
(-0.027769173 -0.0068555074 -1.9770728e-20)
(-0.021824799 -0.0088582184 -2.1672943e-20)
(-0.014966276 -0.010804223 2.1184616e-20)
(-0.0071290246 -0.012678999 2.6810364e-20)
(0.001874286 -0.014317221 1.5854766e-20)
(-0.0023034291 0.0065602324 -4.3568688e-21)
(-0.0065392236 0.014480195 -5.6387542e-21)
(-0.011892131 0.018710542 3.072393e-22)
(-0.017211098 0.020428179 1.0959872e-21)
(-0.021819141 0.020400323 6.6918404e-21)
(-0.02543104 0.019151665 1.0665169e-20)
(-0.027877231 0.017066287 -3.722764e-21)
(-0.029053268 0.014423782 -1.8896165e-20)
(-0.028909036 0.011424352 6.5413173e-21)
(-0.02743105 0.008209905 1.286257e-20)
(-0.024627714 0.0048797762 5.8340846e-21)
(-0.02052011 0.001502239 1.8159106e-20)
(-0.015135989 -0.0018768626 1.7295915e-21)
(-0.0085054028 -0.0052272467 -3.3864529e-20)
(-0.00065689852 -0.0085276087 1.2020168e-21)
(0.0083810094 -0.011759107 -2.2139211e-20)
(0.018556857 -0.014904094 -2.4466301e-20)
(0.029802168 -0.01795375 4.5819708e-20)
(0.042304948 -0.020855113 2.5349345e-20)
(0.056738552 -0.023247762 1.2239217e-22)
(-0.0031290275 0.0083689697 -5.2833069e-21)
(-0.0078963986 0.018336512 -8.4815273e-21)
(-0.012438985 0.023587808 4.3593046e-21)
(-0.016026534 0.025609657 4.1463452e-21)
(-0.018235023 0.025382744 2.0105707e-21)
(-0.018912651 0.023589321 7.3209962e-21)
(-0.017984717 0.020730272 9.3124785e-21)
(-0.015416711 0.017170377 -1.3511358e-21)
(-0.011207049 0.013171314 -1.1481947e-20)
(-0.0053752367 0.0089189317 -2.9071878e-20)
(0.0020481064 0.0045434377 6.1892076e-23)
(0.011026501 0.00013431187 4.0697822e-20)
(0.021522215 -0.0042489497 -1.8383172e-20)
(0.033497838 -0.0085675831 -1.2296088e-20)
(0.046920496 -0.012795544 5.5348983e-22)
(0.061760075 -0.016911852 3.2302642e-20)
(0.077952989 -0.020901666 -1.4829542e-20)
(0.095392236 -0.024763371 -5.3339182e-20)
(0.11439842 -0.028379713 4.5765007e-20)
(0.13634534 -0.031073089 3.3013167e-20)
(-0.0039704095 0.0094657319 -6.8788987e-22)
(-0.0090916577 0.020487791 -1.253474e-20)
(-0.012364471 0.026159086 -3.4144535e-20)
(-0.01355254 0.028143337 -5.7241625e-21)
(-0.01253324 0.027555006 -3.6222733e-21)
(-0.0093167253 0.025188063 6.305104e-21)
(-0.0039456465 0.021627411 -4.6461968e-21)
(0.0035261253 0.017298959 -8.8070285e-21)
(0.013036817 0.012508752 2.1899711e-20)
(0.024521236 0.0074744434 5.0567081e-21)
(0.037915531 0.0023489052 -2.5290293e-20)
(0.053157436 -0.0027627825 1.1078279e-20)
(0.070186855 -0.0077908725 0)
(0.088946567 -0.012691301 1.2089576e-20)
(0.10938542 -0.017436916 -9.7016176e-21)
(0.13145739 -0.022009893 -1.4337119e-20)
(0.15507405 -0.026408642 -1.573897e-21)
(0.18006758 -0.030659415 -2.2181543e-21)
(0.20685339 -0.034576528 4.6147062e-20)
(0.23766356 -0.037019862 -1.0470124e-20)
(-0.0046450977 0.009780862 -7.5356676e-21)
(-0.0096772506 0.020747879 2.4516399e-20)
(-0.01106438 0.026160976 -1.0499346e-20)
(-0.0090968329 0.027724444 -2.7469281e-20)
(-0.0039797218 0.026601694 -2.7548146e-20)
(0.004096181 0.023648408 -1.4921569e-20)
(0.014954146 0.019496457 -6.9059661e-22)
(0.028436231 0.014604706 5.5499791e-21)
(0.044403141 0.0093034475 1.961588e-20)
(0.062730489 0.0038284169 7.3530858e-21)
(0.083304306 -0.0016547532 -7.1862216e-21)
(0.10601896 -0.0070322361 -2.0102315e-21)
(0.13077356 -0.012229095 -3.8191711e-20)
(0.15746942 -0.017199749 -1.2693645e-20)
(0.18601198 -0.02191973 1.8750606e-20)
(0.21631175 -0.026379713 -2.1021674e-20)
(0.24823221 -0.030602217 -8.9730583e-21)
(0.28151865 -0.034670601 3.0440468e-20)
(0.31660701 -0.038364812 5.0472064e-20)
(0.35665012 -0.039964092 3.3559653e-21)
(-0.0049617683 0.0093139985 1.6783303e-20)
(-0.0091662692 0.019097709 1.4467938e-20)
(-0.0078593651 0.023563366 5.1145485e-20)
(-0.0018585403 0.024328943 2.3387981e-20)
(0.0082957212 0.022523783 1.8251774e-22)
(0.022221937 0.019014385 -3.9388456e-20)
(0.039597438 0.014440937 -2.431386e-20)
(0.060147898 0.0092663606 1.0465818e-20)
(0.083639108 0.0038232298 1.4401587e-20)
(0.10986668 -0.001651297 -1.3113712e-20)
(0.13864562 -0.0069910068 -4.4038717e-20)
(0.16980169 -0.012082844 2.96185e-20)
(0.20316403 -0.016854155 2.0020553e-20)
(0.23855944 -0.02126399 -2.7551157e-20)
(0.27581228 -0.025296397 1.1650135e-20)
(0.31474808 -0.028957161 2.4197615e-20)
(0.35514543 -0.032303045 8.0723946e-21)
(0.39663384 -0.035506668 -1.176421e-20)
(0.43957698 -0.038392633 -1.4190297e-20)
(0.48798507 -0.038634391 5.8727569e-21)
(-0.0047307762 0.0081236731 1.1093845e-20)
(-0.0070586006 0.015671176 -2.3352718e-20)
(-0.0020293666 0.018562032 8.6200547e-21)
(0.0090325187 0.018216225 3.3587966e-20)
(0.025256359 0.01565115 5.2124338e-20)
(0.046066334 0.011695604 2.027651e-20)
(0.070984517 0.0069609538 -5.8639355e-21)
(0.099601941 0.0018829533 -1.2286284e-20)
(0.13156893 -0.0032271955 -6.2057469e-21)
(0.16657566 -0.0081496541 3.4240836e-20)
(0.20433423 -0.012733316 -4.5104385e-21)
(0.24456483 -0.016879182 -1.6643301e-20)
(0.28698467 -0.02052868 -1.9693573e-20)
(0.33129995 -0.023656404 -4.744374e-20)
(0.37720456 -0.026265524 2.3238704e-20)
(0.42438767 -0.02838785 -1.4095984e-20)
(0.4724997 -0.030127608 2.59934e-20)
(0.52103614 -0.031783175 2.1040824e-20)
(0.57021391 -0.033350662 -8.5570384e-20)
(0.62470912 -0.032058822 -1.0807226e-22)
(-0.003771052 0.0063146394 2.1925054e-20)
(-0.0028657668 0.010735096 -2.6165528e-20)
(0.0071421036 0.011564137 -4.5013293e-20)
(0.02445023 0.0099249906 -2.725378e-20)
(0.047870847 0.0066523074 -2.0439868e-21)
(0.076628697 0.0024906191 1.3050095e-20)
(0.11007672 -0.0020153926 -2.8337698e-21)
(0.14765205 -0.0064879006 1.8118537e-20)
(0.18886094 -0.010663499 8.8685618e-21)
(0.23325193 -0.014362416 -1.1380172e-20)
(0.28039147 -0.017468943 8.8779134e-21)
(0.32984601 -0.019916798 -2.3903268e-20)
(0.38116878 -0.021678688 8.050479e-21)
(0.43389082 -0.022759864 1.6756391e-20)
(0.48751933 -0.023194288 -2.6395148e-21)
(0.54154713 -0.023046877 1.6618992e-21)
(0.59543542 -0.022469429 -3.1957872e-22)
(0.6485178 -0.021870086 1.9590423e-20)
(0.70082236 -0.021445042 4.0434009e-21)
(0.75745147 -0.018499059 -5.733503e-22)
(-0.0019110146 0.0040273483 2.3692111e-20)
(0.0038694292 0.0046765209 5.7159956e-20)
(0.020315309 0.0031879657 -4.9244223e-20)
(0.045178281 0.00029442801 -9.9454143e-21)
(0.076965147 -0.0034241493 2.0256345e-20)
(0.11469622 -0.0073535826 2.1433717e-21)
(0.15753882 -0.011054953 -2.9815161e-20)
(0.2047483 -0.014244134 6.9848106e-21)
(0.25564948 -0.016737922 7.1097875e-21)
(0.30960471 -0.018426949 -2.6254078e-20)
(0.36598646 -0.019260089 1.2927326e-21)
(0.42415956 -0.019231857 -3.7174113e-20)
(0.48347099 -0.018372191 -3.6341014e-20)
(0.54324562 -0.016738263 6.5683476e-20)
(0.60278809 -0.014407287 5.5627479e-21)
(0.66138882 -0.011475882 -1.5188792e-20)
(0.71830781 -0.0081020275 1.9363969e-20)
(0.77269898 -0.0045928466 -9.1888154e-22)
(0.82408832 -0.00096802726 2.036458e-20)
(0.87621964 0.0043280917 -1.9554162e-20)
(-0.018836425 -0.0050997018 5.8352035e-20)
(-0.010224666 -0.0056349249 1.5783666e-20)
(-0.00022120968 -0.0060688775 -3.5139551e-20)
(0.010823207 -0.0063341068 1.6790228e-20)
(0.022642442 -0.0065120439 0)
(0.035177855 -0.0066300865 0)
(0.048369626 -0.0066909696 -2.297494e-20)
(0.062138035 -0.0067025358 -1.6502866e-20)
(0.076412671 -0.0066741701 1.9122584e-20)
(0.091134025 -0.0066126612 1.8174026e-20)
(0.10624712 -0.0065232011 1.0524254e-21)
(0.12170016 -0.0064103532 -1.0317633e-20)
(0.13744484 -0.0062780762 8.3268735e-21)
(0.15343594 -0.0061297174 1.823371e-20)
(0.16963069 -0.00596814 -5.2274124e-21)
(0.18598846 -0.0057958293 -1.0174931e-20)
(0.20247049 -0.0056149567 -4.3195859e-21)
(0.21903974 -0.005427431 -4.425738e-21)
(0.2356608 -0.0052349445 7.3667191e-22)
(0.25229979 -0.0050390073 1.2286033e-21)
(0.26892437 -0.0048409745 2.5666291e-21)
(0.28550378 -0.0046420659 6.6539429e-21)
(0.30200881 -0.0044433806 2.4894511e-22)
(0.31841192 -0.0042459082 -3.4514682e-21)
(0.33468728 -0.0040505362 1.5558778e-22)
(0.35081082 -0.0038580561 -5.7709749e-22)
(0.36676027 -0.003669168 1.2434355e-21)
(0.38251524 -0.0034844841 1.0522433e-21)
(0.39805719 -0.0033045331 -1.2987917e-21)
(0.41336952 -0.003129763 -1.2218745e-22)
(0.42843748 -0.0029605457 3.5750635e-23)
(0.44324822 -0.0027971814 -3.518755e-22)
(0.45779075 -0.0026399031 -4.0565338e-22)
(0.47205589 -0.002488882 5.5412597e-23)
(0.4860362 -0.0023442335 -1.3809013e-22)
(0.49972601 -0.002206023 -2.2343132e-22)
(0.5131213 -0.0020742726 2.5571878e-22)
(0.5262197 -0.001948968 2.9501912e-22)
(0.53902044 -0.0018300674 -8.2709031e-24)
(0.55152461 -0.0017175054 -1.5517312e-22)
(0.56373419 -0.0016112211 3.0406625e-23)
(0.57565575 -0.001511114 -4.0144687e-23)
(0.58728949 -0.0014172552 9.2203112e-23)
(0.5986644 -0.0013293083 2.1977387e-23)
(0.60973487 -0.0012485569 -1.1394395e-22)
(0.62069289 -0.0011717916 -6.7612232e-24)
(0.63106085 -0.0011112427 -7.2461104e-26)
(0.64234934 -0.0010339459 -3.5610311e-24)
(0.65042727 -0.0010508031 2.945375e-23)
(0.66700809 -0.00087555692 3.60506e-22)
(0.010445863 -0.015017607 -1.2746813e-20)
(0.018179691 -0.01664101 -6.3302323e-20)
(0.027779208 -0.017915411 -3.0541934e-20)
(0.038385136 -0.018672069 3.8476005e-20)
(0.049620977 -0.019183586 1.4662609e-20)
(0.061506617 -0.01952943 -1.8204924e-20)
(0.074012806 -0.019709862 4.6721979e-21)
(0.087062653 -0.019746489 2.5447184e-20)
(0.10059312 -0.019667278 9.1994832e-23)
(0.11455399 -0.019491697 -7.6591224e-21)
(0.12889715 -0.019234356 -1.3021016e-20)
(0.14357598 -0.018908308 -8.524527e-21)
(0.15854661 -0.018524969 1.777233e-20)
(0.17376751 -0.018093997 8.9295393e-21)
(0.18919894 -0.017623675 -1.6522435e-20)
(0.20480271 -0.017121227 -6.0390568e-21)
(0.22054208 -0.016592992 3.2145044e-21)
(0.23638169 -0.016044566 8.3716309e-21)
(0.25228746 -0.015480927 6.983225e-21)
(0.26822666 -0.014906536 -6.9727131e-21)
(0.28416785 -0.014325408 -3.1685442e-21)
(0.30008101 -0.013741169 1.3605325e-21)
(0.31593756 -0.013157093 3.8682676e-22)
(0.33171043 -0.012576135 1.2113946e-21)
(0.34737418 -0.012000952 1.8368326e-22)
(0.362905 -0.011433918 -3.266159e-22)
(0.37828084 -0.010877135 -7.2434812e-22)
(0.39348139 -0.010332447 9.7156473e-22)
(0.40848819 -0.0098014488 8.2482865e-22)
(0.42328457 -0.0092854954 -1.514728e-22)
(0.43785572 -0.0087857158 5.5306002e-22)
(0.45218862 -0.0083030245 -2.3880901e-22)
(0.46627207 -0.007838136 -3.7069825e-22)
(0.48009663 -0.0073915806 -6.0999006e-22)
(0.49365458 -0.0069637214 4.4171694e-22)
(0.50693989 -0.0065547722 -1.5476519e-23)
(0.51994815 -0.0061648177 1.6124664e-22)
(0.53267662 -0.0057938329 -4.4174656e-22)
(0.54512406 -0.0054417111 3.7189373e-22)
(0.55729113 -0.005108274 6.7175114e-23)
(0.56917931 -0.0047933566 -1.0285399e-22)
(0.5807947 -0.0044966752 1.7613603e-22)
(0.59213703 -0.0042184586 2.333951e-22)
(0.60323457 -0.0039577172 1.692636e-22)
(0.61404186 -0.0037182964 1.6767051e-22)
(0.62474803 -0.0034906408 -2.6097741e-23)
(0.63488188 -0.0033111995 8.4042627e-23)
(0.64593103 -0.0030818568 7.6290533e-23)
(0.65382943 -0.0031323443 -1.9466334e-22)
(0.67009127 -0.0026124269 -3.802669e-23)
(0.067614674 -0.024029142 9.4528284e-21)
(0.073589655 -0.026749045 3.2950984e-21)
(0.082265489 -0.028805563 -1.2162199e-20)
(0.0919478 -0.029968498 -1.2257896e-21)
(0.10198319 -0.030767858 1.4970584e-20)
(0.11254631 -0.031330885 -1.4887121e-20)
(0.12367594 -0.031636064 -2.9842262e-20)
(0.13529679 -0.031712998 1.4493516e-20)
(0.14735692 -0.031607628 1.818196e-20)
(0.15982339 -0.031350048 -1.1598512e-20)
(0.17266056 -0.030961812 1.0190549e-21)
(0.18583078 -0.030462745 8.6860148e-21)
(0.1992978 -0.029870543 -1.5253535e-20)
(0.21302652 -0.02920023 2.9095108e-21)
(0.22698238 -0.028464751 7.5194323e-21)
(0.24113136 -0.027675495 3.1600133e-23)
(0.2554401 -0.026842549 2.6556521e-22)
(0.26987601 -0.025974887 -7.4150824e-21)
(0.28440726 -0.025080555 3.8616793e-21)
(0.29900293 -0.024166809 8.4749009e-21)
(0.31363307 -0.023240223 -3.8351743e-21)
(0.32826886 -0.022306763 -2.2130358e-21)
(0.34288264 -0.021371845 1.0124439e-21)
(0.35744813 -0.020440376 -1.7155315e-21)
(0.37194042 -0.019516783 1.3532249e-21)
(0.38633611 -0.018605036 7.1845893e-22)
(0.40061341 -0.017708664 1.5268369e-21)
(0.41475214 -0.016830773 -1.9526596e-21)
(0.42873382 -0.015974058 2.2235655e-21)
(0.44254167 -0.015140822 5.5188475e-22)
(0.45616063 -0.014332994 4.0322429e-22)
(0.46957738 -0.013552148 3.2134451e-22)
(0.48278028 -0.012799528 8.7324832e-22)
(0.49575939 -0.012076072 -1.3708578e-21)
(0.5085064 -0.011382443 3.7065476e-22)
(0.52101463 -0.010719053 1.0941202e-22)
(0.53327895 -0.010086102 -4.5171962e-23)
(0.54529586 -0.0094836058 8.6733042e-23)
(0.55706329 -0.008911444 -3.7184858e-22)
(0.56858106 -0.0083693766 1.8293422e-22)
(0.57984978 -0.0078571846 -3.4987054e-23)
(0.59087458 -0.0073744496 3.9003956e-22)
(0.6016544 -0.0069216008 -1.8544314e-22)
(0.61221611 -0.0064970499 4.7323263e-23)
(0.62251458 -0.0061071855 4.3603173e-23)
(0.63273355 -0.0057363201 -7.3598762e-23)
(0.64241393 -0.0054443939 -1.2082317e-22)
(0.65299942 -0.0050704867 3.8808744e-22)
(0.66054943 -0.0051542304 1.7270395e-22)
(0.67619301 -0.0043069957 -8.303956e-22)
(0.15021526 -0.031460423 1.5010127e-21)
(0.15354687 -0.035257388 -1.1566606e-20)
(0.1606162 -0.038010912 6.6441961e-21)
(0.16880588 -0.03947909 -1.3324742e-20)
(0.17698221 -0.040520681 -1.9758309e-21)
(0.18552343 -0.041302271 9.1599354e-21)
(0.19458417 -0.041757227 -9.7662112e-21)
(0.20408688 -0.0419137 1.5662783e-21)
(0.21398764 -0.04183332 1.2903796e-20)
(0.22427595 -0.041554325 3.4031972e-21)
(0.2349325 -0.041102034 -6.2096941e-21)
(0.24593017 -0.040500438 -2.8638076e-21)
(0.25724154 -0.039771738 -5.8409055e-21)
(0.26883907 -0.038935044 -6.455311e-21)
(0.28069418 -0.038006964 3.235693e-21)
(0.29277758 -0.037002291 8.462122e-22)
(0.30505969 -0.035934314 1.3679569e-21)
(0.31751093 -0.034815011 -3.3850408e-21)
(0.33010189 -0.033655238 -4.2428833e-21)
(0.34280356 -0.032464884 2.3616495e-21)
(0.3555875 -0.031252985 3.2251334e-21)
(0.36842606 -0.030027804 -1.5636179e-21)
(0.38129252 -0.02879689 1.5867257e-21)
(0.39416125 -0.02756712 -3.9123928e-22)
(0.40700782 -0.026344731 -3.9196374e-21)
(0.41980915 -0.02513534 -3.03328e-21)
(0.43254353 -0.023943964 -1.9026231e-22)
(0.44519079 -0.022775037 4.2858959e-22)
(0.45773227 -0.021632428 -2.2106021e-21)
(0.47015089 -0.020519465 -8.5497008e-22)
(0.48243117 -0.019438953 2.2837644e-22)
(0.49455924 -0.018393208 -1.2498665e-21)
(0.50652282 -0.017384084 6.2633846e-24)
(0.51831121 -0.016413012 -4.2420784e-22)
(0.52991527 -0.015481034 -4.7193575e-22)
(0.54132738 -0.014588845 -5.1995513e-22)
(0.55254145 -0.013736842 -8.4132839e-22)
(0.56355288 -0.012925164 -5.4496471e-23)
(0.57435851 -0.012153758 -3.9160388e-24)
(0.58495698 -0.011422402 -5.1972145e-22)
(0.59534772 -0.010730898 -9.1607272e-23)
(0.60553457 -0.01007877 -3.3239204e-22)
(0.61551537 -0.009466711 -4.3759656e-22)
(0.6253151 -0.0088926223 3.7841495e-22)
(0.63488915 -0.0083653887 1.4820885e-23)
(0.64441358 -0.0078635648 1.8237433e-22)
(0.65344681 -0.007469322 -1.3246521e-22)
(0.66336938 -0.0069629322 -2.6690799e-22)
(0.67042143 -0.0070791301 -4.4693434e-23)
(0.68517828 -0.0059326623 4.6229401e-22)
(0.25468562 -0.036552746 -2.0900302e-20)
(0.25447016 -0.041393496 4.7585946e-20)
(0.25907328 -0.044745643 1.0348099e-20)
(0.26508407 -0.046442028 -1.5765321e-20)
(0.27070926 -0.047714299 -2.0227899e-21)
(0.27651988 -0.048747759 2.6232262e-21)
(0.28283542 -0.0494137 -1.6608192e-21)
(0.28957682 -0.049728081 -4.6861403e-21)
(0.29669649 -0.049761412 -4.0159156e-21)
(0.30420538 -0.049557033 -1.2207635e-20)
(0.31210208 -0.049141668 1.7897747e-20)
(0.32036927 -0.048540782 6.5219871e-21)
(0.32898689 -0.047778945 -1.6780519e-20)
(0.33793391 -0.046877999 1.0317572e-20)
(0.34718696 -0.04585728 8.3849906e-21)
(0.35672062 -0.044734292 -8.7923843e-22)
(0.36650831 -0.043525047 -3.1222234e-21)
(0.37652275 -0.042244227 -3.8197287e-21)
(0.38673627 -0.040905338 -1.3892566e-21)
(0.39712115 -0.039520831 -1.230418e-21)
(0.40764993 -0.0381022 -3.0257581e-21)
(0.41829563 -0.036660048 0)
(0.42903196 -0.035204133 -1.34519e-21)
(0.43983356 -0.0337434 3.930949e-21)
(0.45067606 -0.032286006 5.4052626e-21)
(0.4615363 -0.030839332 -9.4112527e-22)
(0.47239239 -0.029410005 -2.9274401e-21)
(0.48322379 -0.028003912 3.0258341e-21)
(0.49401138 -0.026626221 2.5447557e-22)
(0.50473751 -0.025281403 3.4352405e-21)
(0.51538601 -0.023973266 -5.3459715e-22)
(0.52594223 -0.022704983 1.7173445e-21)
(0.536393 -0.021479137 -7.9964206e-22)
(0.54672664 -0.020297765 2.9094013e-22)
(0.55693294 -0.019162402 -4.3403799e-22)
(0.56700316 -0.018074137 5.6231522e-22)
(0.57692998 -0.017033671 4.5709721e-22)
(0.58670755 -0.016041372 3.8255449e-22)
(0.5963314 -0.015097358 -9.5935825e-22)
(0.60579879 -0.014201524 6.8355132e-22)
(0.61510777 -0.01335379 -3.695719e-22)
(0.62426068 -0.012553718 -1.1033121e-21)
(0.63325409 -0.011802337 1.4078077e-21)
(0.64211073 -0.011097155 -6.2005449e-23)
(0.65078677 -0.010449476 -1.5815847e-22)
(0.6594487 -0.0098326003 -7.8243746e-24)
(0.66767719 -0.0093492137 -1.2621373e-22)
(0.67677299 -0.0087261717 -4.6581907e-22)
(0.68320483 -0.0088736073 8.7882946e-22)
(0.69685021 -0.0074648606 -4.4315498e-23)
(0.37635124 -0.038368151 -1.7495094e-20)
(0.37170971 -0.044270213 1.283205e-20)
(0.37286684 -0.048161595 2.9754492e-21)
(0.37591039 -0.050098833 -7.635374e-21)
(0.3783052 -0.051669952 1.2055978e-20)
(0.38072287 -0.053042353 7.7914078e-21)
(0.38367594 -0.054030018 -1.2647685e-20)
(0.3871005 -0.054633081 -6.0679753e-21)
(0.39092916 -0.054917981 1.2697337e-20)
(0.39518235 -0.05492711 -1.5304968e-20)
(0.39987416 -0.054687491 -1.4063187e-20)
(0.40499498 -0.054224628 1.4129629e-20)
(0.41052852 -0.053563634 6.8193818e-21)
(0.41645708 -0.052727923 -4.2037634e-21)
(0.42276004 -0.05173899 -1.8545616e-21)
(0.42941393 -0.050616722 -4.0581718e-21)
(0.43639337 -0.049379674 5.3047598e-21)
(0.44367184 -0.048045199 3.668208e-21)
(0.45122212 -0.04662952 -3.2408291e-21)
(0.45901666 -0.045147787 3.137948e-21)
(0.46702794 -0.04361413 2.7666788e-21)
(0.47522877 -0.042041697 -3.2111117e-21)
(0.48359254 -0.040442672 3.7056553e-22)
(0.4920934 -0.038828287 -3.2571636e-21)
(0.50070648 -0.037208834 7.2454089e-21)
(0.50940797 -0.035593675 6.108056e-21)
(0.51817526 -0.033991249 8.0973057e-22)
(0.52698705 -0.03240909 -1.768322e-21)
(0.53582336 -0.030853851 3.702173e-21)
(0.54466561 -0.029331324 7.1885117e-21)
(0.55349665 -0.027846483 2.3049291e-21)
(0.56230075 -0.026403523 3.3164824e-21)
(0.57106362 -0.025005904 1.9956186e-21)
(0.57977241 -0.023656413 7.4557816e-22)
(0.58841567 -0.022357218 -2.6374535e-22)
(0.59698335 -0.021109932 2.7203073e-21)
(0.6054668 -0.019915689 6.1992063e-22)
(0.61385879 -0.018775208 2.9487712e-22)
(0.62215342 -0.017688891 5.6232371e-23)
(0.63034649 -0.016656865 9.8966225e-22)
(0.6384346 -0.015679275 4.7019986e-23)
(0.64641848 -0.01475582 4.4247245e-22)
(0.65429342 -0.013887952 -1.2621749e-22)
(0.66207966 -0.013072907 -2.7734673e-22)
(0.6697345 -0.012324309 -1.5218539e-22)
(0.67741337 -0.011610792 -4.2207584e-22)
(0.68472315 -0.011053491 1.6139112e-22)
(0.69287134 -0.010332282 -1.2723501e-22)
(0.69859416 -0.010509378 -5.0126415e-22)
(0.71095649 -0.008881706 2.4586839e-22)
(0.50927423 -0.035974259 3.6471422e-21)
(0.49953032 -0.042960639 -1.8958311e-20)
(0.49627548 -0.047383435 -2.3083837e-21)
(0.49555583 -0.049736738 5.4869494e-21)
(0.49416943 -0.051818001 3.0528121e-21)
(0.49269563 -0.053705365 -4.9882504e-23)
(0.49181218 -0.055187602 6.1896647e-21)
(0.49151439 -0.056265349 7.6250999e-21)
(0.49171154 -0.056990482 9.8580392e-21)
(0.4924106 -0.057395521 -1.1250038e-20)
(0.49363091 -0.057506246 -2.1579415e-20)
(0.49536764 -0.05734836 -3.9353457e-21)
(0.49760453 -0.056947072 1.5938138e-20)
(0.50032287 -0.056326949 1.2808954e-20)
(0.50350151 -0.05551167 -5.9066942e-21)
(0.50711637 -0.054523782 1.3817055e-21)
(0.51114124 -0.053384718 -3.6600816e-21)
(0.51554858 -0.052114871 2.2443725e-21)
(0.52031011 -0.050733577 -2.9123013e-22)
(0.52539717 -0.049259093 -1.8654088e-21)
(0.53078107 -0.047708587 7.8265844e-21)
(0.53643346 -0.046098135 -2.9308729e-22)
(0.54232651 -0.044442713 4.1818064e-22)
(0.5484332 -0.042756185 -6.5646675e-22)
(0.5547274 -0.041051304 -4.3029357e-21)
(0.56118409 -0.039339707 4.2085132e-21)
(0.56777943 -0.037631926 1.9031211e-21)
(0.57449085 -0.035937401 -3.3081896e-21)