/*--------------------------------*- C++ -*----------------------------------*\
  =========                 |
  \\      /  F ield         | OpenFOAM: The Open Source CFD Toolbox
   \\    /   O peration     | Website:  https://openfoam.org
    \\  /    A nd           | Version:  6
     \\/     M anipulation  |
\*---------------------------------------------------------------------------*/
FoamFile
{
    version     2.0;
    format      ascii;
    class       volSymmTensorField;
    location    "312";
    object      UPrime2Mean;
}
// * * * * * * * * * * * * * * * * * * * * * * * * * * * * * * * * * * * * * //

dimensions      [0 2 -2 0 0 0 0];

internalField   nonuniform List<symmTensor> 
9200
(
(6.3637705e-05 -4.9395968e-05 2.3019428e-22 3.9639087e-05 -1.230185e-22 3.7288887e-39)
(0.00039287487 -0.00031446459 5.919269e-22 0.0002526736 -4.4169585e-22 4.0569439e-39)
(0.00079562173 -0.00061663967 7.0728667e-23 0.00048075409 -5.364587e-23 2.2241029e-39)
(0.0012563463 -0.00090902724 -8.942443e-22 0.0006652386 6.2819477e-22 4.4349626e-39)
(0.0017122776 -0.0011696774 4.3746579e-23 0.00081308581 -3.5881516e-23 6.5012067e-40)
(0.0021319816 -0.0013868401 3.7854948e-22 0.0009240627 -2.5062713e-22 1.0285489e-40)
(0.0024934809 -0.0015562695 -8.2722343e-23 0.0010018944 5.6828664e-23 2.946061e-40)
(0.0027788513 -0.0016780515 7.5143079e-23 0.0010528921 -5.0198525e-23 1.984154e-40)
(0.0029754431 -0.0017543695 3.6764718e-22 0.001083136 -2.2243412e-22 5.662301e-40)
(0.0030763802 -0.0017885156 2.8666998e-23 0.0010978044 -1.7427837e-23 1.6165032e-42)
(0.003080658 -0.0017844296 -3.9848701e-22 0.0011011799 2.4382113e-22 3.0440885e-40)
(0.0029931454 -0.0017464128 3.3460646e-22 0.0010966977 -2.1219643e-22 4.2161399e-41)
(0.0028242336 -0.0016789456 -5.9762376e-22 0.0010870216 4.0023739e-22 6.5222113e-40)
(0.0025889865 -0.0015865775 -3.0418069e-22 0.0010741512 2.0765958e-22 4.2248244e-41)
(0.0023058125 -0.0014738561 7.9092018e-23 0.0010595398 -5.8171818e-23 5.3605092e-42)
(0.0019947759 -0.0013452636 -2.9928052e-22 0.0010442078 2.3213757e-22 5.677397e-41)
(0.001675679 -0.0012051606 2.6395942e-22 0.0010289056 -2.2173326e-22 6.8685307e-41)
(0.0013661258 -0.0010578072 1.9777097e-22 0.0010146543 -1.7385546e-22 2.7686749e-40)
(0.0010811632 -0.00090716606 -6.3594855e-24 0.0010027967 1.3876313e-23 5.0851491e-41)
(0.00083749974 -0.00075596016 -3.3619557e-24 0.0009833293 1.218228e-23 6.3033082e-41)
(8.4015657e-05 -5.6160749e-05 2.3954285e-23 3.8550779e-05 -9.1568542e-24 6.5628097e-41)
(0.00050137884 -0.00034745872 6.2686027e-22 0.000241536 -4.0775032e-22 4.3270131e-39)
(0.00099848417 -0.00067131747 -2.0228325e-22 0.00045395419 1.3573357e-22 2.3501088e-39)
(0.0015332606 -0.0009716204 -1.6058297e-21 0.0006227102 1.0028254e-21 1.0263395e-38)
(0.0020326818 -0.001227877 -5.6318501e-23 0.00075510767 3.5571143e-23 1.2947393e-40)
(0.0024601483 -0.0014296925 1.2457337e-21 0.00085221826 -7.3374899e-22 3.3972383e-39)
(0.0027927637 -0.0015751629 -5.1367688e-22 0.00091891112 2.9933849e-22 1.170152e-40)
(0.0030156007 -0.0016670658 -1.5528677e-22 0.00096204828 8.9706616e-23 4.1776062e-41)
(0.0031221328 -0.0017101247 5.9177753e-22 0.00098789798 -3.4384615e-22 3.1968075e-40)
(0.0031140759 -0.0017098598 -7.2001167e-22 0.0010015835 4.2516086e-22 3.6761174e-40)
(0.0030007446 -0.0016720633 -5.126286e-22 0.0010071242 3.1023687e-22 4.5300372e-40)
(0.0027980448 -0.0016024945 1.1119232e-21 0.0010075161 -6.9979332e-22 2.3047292e-39)
(0.0025269075 -0.0015067256 5.1985495e-22 0.0010048392 -3.48192e-22 1.6262055e-40)
(0.0022111952 -0.0013900883 -8.232636e-22 0.0010003866 5.8864465e-22 8.0077775e-40)
(0.0018753162 -0.0012576716 1.4865791e-22 0.00099479046 -1.145622e-22 6.6538384e-41)
(0.0015418827 -0.0011143281 -3.3163821e-22 0.00098813277 2.8635698e-22 1.7826081e-40)
(0.0012297089 -0.00096467406 -1.3729513e-22 0.00098007218 1.3969481e-22 5.5911176e-41)
(0.00095237784 -0.00081299618 4.2580532e-22 0.00097001542 -4.7105374e-22 9.0483882e-40)
(0.00071824916 -0.00066276131 2.0305356e-22 0.00095618456 -2.6747613e-22 1.7279221e-40)
(0.00053314228 -0.00051739926 -8.8520004e-23 0.00092951082 1.092303e-22 1.2887627e-39)
(0.00010704519 -6.0978102e-05 -2.0171575e-22 3.5514031e-05 8.5853194e-23 1.6860468e-39)
(0.00061722578 -0.00036677409 -3.3670645e-22 0.00021852672 1.8705338e-22 1.757542e-39)
(0.001207239 -0.00069791648 -3.8336295e-22 0.00040583592 2.2338077e-22 4.3931485e-39)
(0.0018048053 -0.00099268057 1.2866157e-23 0.00055246089 -7.0663365e-24 4.7710255e-43)
(0.0023282103 -0.0012331826 1.2875307e-23 0.00066583052 -6.1676602e-24 3.1566667e-39)
(0.0027383315 -0.0014115312 4.3635351e-22 0.00074828011 -2.3233841e-22 8.8288477e-40)
(0.0030152276 -0.001528813 4.3005536e-23 0.00080539594 -2.1382698e-23 3.6543621e-40)
(0.0031514661 -0.0015906188 -7.4550366e-22 0.00084399691 3.9926616e-22 2.3420751e-40)
(0.0031510955 -0.0016039583 8.8513335e-22 0.00086993571 -4.8574958e-22 4.4222765e-40)
(0.0030281561 -0.0015760542 2.9222572e-22 0.00088770883 -1.6821845e-22 4.8370419e-40)
(0.0028046079 -0.001513859 -8.0754236e-22 0.00090055514 4.8529059e-22 1.0014804e-39)
(0.0025077618 -0.0014238581 -2.5452159e-22 0.00091058702 1.6377188e-22 3.2676328e-40)
(0.0021672601 -0.0013120627 9.1494702e-23 0.00091894671 -6.3387098e-23 8.840934e-40)
(0.0018119266 -0.0011841015 2.2221272e-22 0.00092598149 -1.7079491e-22 1.276667e-40)
(0.0014669543 -0.001045325 -7.8424129e-23 0.00093142138 6.7247795e-23 9.738248e-41)
(0.0011518543 -0.00090086078 1.8266548e-22 0.00093455673 -1.8085101e-22 7.7682351e-41)
(0.00087942025 -0.00075559446 -1.2618226e-22 0.00093441409 1.4705003e-22 2.9963441e-41)
(0.00065573244 -0.00061404031 -2.5957527e-22 0.00092986636 3.548461e-22 7.2421582e-40)
(0.00048115679 -0.00048001352 -9.6382732e-24 0.00091942593 1.0241429e-23 6.4867208e-40)
(0.00035246704 -0.0003570635 9.0753782e-23 0.00089993545 -1.9334527e-22 7.4996251e-41)
(0.00013195714 -6.3137228e-05 -1.6026606e-22 3.0798517e-05 5.9051035e-23 8.3737648e-40)
(0.00073449361 -0.0003691849 2.4681198e-22 0.00018602277 -1.2105633e-22 1.5662587e-40)
(0.0014093668 -0.00069187009 2.1888335e-22 0.00034176934 -1.0789422e-22 1.8095881e-40)
(0.0020525256 -0.00096831677 4.7716633e-22 0.00046275136 -2.2771527e-22 1.9510986e-39)
(0.0025764938 -0.0011842351 4.2065561e-22 0.00055618275 -1.9965519e-22 8.6804895e-40)
(0.002943746 -0.0013350171 -7.4194917e-22 0.00062530329 3.5212795e-22 6.6364855e-40)
(0.0031422098 -0.0014247543 -4.1599712e-22 0.00067575982 2.008794e-22 1.8896577e-40)
(0.0031767077 -0.0014612492 0 0.0007136377 0 0)
(0.0030656101 -0.0014528699 4.5632045e-22 0.00074376196 -2.4712855e-22 2.4320492e-39)
(0.0028372669 -0.0014074942 -1.9899392e-22 0.00076948856 1.1686633e-22 9.2127356e-40)
(0.0025259888 -0.0013322502 -1.1710126e-21 0.00079286563 6.959119e-22 8.2167348e-40)
(0.0021678291 -0.0012335702 -1.5017802e-22 0.00081481801 9.4298232e-23 1.647087e-40)
(0.0017965508 -0.0011173974 5.8160325e-22 0.00083535699 -4.3064523e-22 1.1112632e-39)
(0.0014403322 -0.00098939452 3.2067735e-23 0.00085381334 -2.0985422e-23 4.5823525e-40)
(0.0011196854 -0.00085504516 -9.0617848e-24 0.00086908314 8.8131017e-24 3.235107e-43)
(0.00084679152 -0.00071960591 9.7861113e-23 0.00087988126 -1.1233727e-22 5.6946562e-41)
(0.00062614706 -0.00058792825 2.1849803e-25 0.00088496721 2.3123461e-24 6.6348452e-41)
(0.00045614923 -0.00046421294 -1.7497279e-22 0.00088325558 2.9179083e-22 1.7512603e-40)
(0.00033105637 -0.00035174932 -9.78229e-23 0.00087421447 2.0332134e-22 1.216421e-40)
(0.00024309223 -0.00025297141 5.0247412e-23 0.00085903941 -1.4981511e-22 7.5610407e-40)
(0.00015761561 -6.2029564e-05 1.2121663e-22 2.4845938e-05 -3.8623463e-23 3.2941387e-40)
(0.00084580923 -0.000352584 5.0522043e-22 0.00014734284 -2.015119e-22 2.9679591e-39)
(0.0015906754 -0.00065121169 4.0011943e-22 0.00026848889 -1.6477006e-22 1.8836135e-40)
(0.002257481 -0.00089865323 4.4464353e-22 0.00036312569 -1.8157061e-22 1.0441185e-39)
(0.0027573643 -0.0010848067 -6.8582488e-22 0.00043783414 2.8311333e-22 1.6454719e-39)
(0.0030596367 -0.0012084223 2.6870769e-23 0.00049617438 -8.6449636e-24 1.5652261e-40)
(0.0031652125 -0.0012757497 3.9485779e-23 0.00054313126 -1.7160873e-23 1.3204206e-42)
(0.0030950206 -0.0012954448 5.6324867e-22 0.00058344704 -2.6153591e-22 5.8882933e-40)
(0.0028835244 -0.0012757896 7.6305341e-23 0.00062045784 -3.759793e-23 5.3194139e-42)
(0.0025726194 -0.0012240664 -2.0562923e-22 0.00065604592 1.1601631e-22 3.1833794e-40)
(0.002205734 -0.0011466938 6.7100499e-22 0.00069084602 -4.1437245e-22 2.2213749e-39)
(0.0018226334 -0.0010495783 -4.8954283e-22 0.00072447598 3.2127909e-22 1.9294867e-40)
(0.0014555139 -0.00093844854 -9.2620041e-22 0.00075580614 7.1970287e-22 1.3673932e-39)
(0.0011268538 -0.00081900499 -3.0773837e-23 0.00078326513 2.815417e-23 2.8888338e-42)
(0.00084912255 -0.0006968295 3.3311776e-22 0.00080516076 -3.7013938e-22 1.1038119e-39)
(0.00062604036 -0.00057710464 0 0.00081998866 0 0)
(0.00045480625 -0.00046425664 4.1906155e-23 0.00082665893 -6.01515e-23 2.8707395e-41)
(0.00032863648 -0.0003616601 -2.1342138e-23 0.00082454612 4.624522e-23 4.2678858e-41)
(0.00023895439 -0.00027150697 -2.1486959e-23 0.00081405129 4.6708381e-23 1.1248557e-41)
(0.00017702603 -0.00019478494 1.0500997e-23 0.00079856945 -4.3779014e-23 7.6703486e-41)
(0.00018263216 -5.728835e-05 2.6514949e-22 1.8276061e-05 -6.8319112e-23 1.3321684e-39)
(0.00094336023 -0.00031665012 2.6155414e-23 0.00010658222 -8.5851129e-24 2.4666622e-42)
(0.0017375616 -0.00057753424 -7.5150862e-23 0.00019361623 2.5370464e-23 1.0923455e-41)
(0.0024036735 -0.0007886781 7.8188695e-23 0.00026362702 -2.5131685e-23 2.1576087e-40)
(0.0028569797 -0.0009440883 -4.7293802e-22 0.00032214898 1.6570077e-22 4.0493635e-40)
(0.0030791649 -0.0010449962 -2.2808256e-22 0.00037243349 8.2902207e-23 3.66587e-41)
(0.0030882727 -0.0010981035 1.6282882e-22 0.0004182365 -4.9885961e-23 1.152872e-39)
(0.0029230844 -0.0011110473 -5.8577191e-24 0.00046260868 6.6411677e-24 9.0179032e-41)
(0.0026331336 -0.0010904739 -3.8743015e-22 0.00050720245 1.9180794e-22 9.5415003e-40)
(0.0022702882 -0.0010420692 6.738845e-22 0.0005523266 -3.4912356e-22 2.828561e-40)
(0.0018818233 -0.00097111321 -1.8369612e-23 0.00059717606 2.5491254e-23 4.9535483e-40)
(0.0015055564 -0.00088297737 -5.3832682e-22 0.00064011655 3.8943428e-22 1.3694402e-39)
(0.0011674321 -0.00078333424 0 0.00067903842 0 0)
(0.00088150716 -0.00067800932 1.3234979e-22 0.0007117519 -1.4898778e-22 7.3351873e-40)
(0.00065179014 -0.00057256588 6.8586594e-24 0.00073636689 -1.4105396e-23 4.0126888e-41)
(0.00047509712 -0.00047180533 -1.6147876e-22 0.00075159722 2.5191813e-22 8.5365237e-40)
(0.00034408053 -0.00037936104 -3.6579408e-23 0.00075690569 6.5068656e-23 1.7909075e-41)
(0.00024980752 -0.00029751543 -1.1358487e-23 0.00075242606 3.044694e-23 2.8624585e-41)
(0.00018348874 -0.00022730561 -1.4786285e-23 0.00073940374 4.1084072e-23 1.1176891e-41)
(0.0001373689 -0.00016866323 2.6842453e-23 0.00072197816 -1.0072263e-22 1.0663666e-40)
(0.00020552086 -4.888019e-05 1.0218076e-22 1.1825577e-05 -1.9660699e-23 2.1096977e-40)
(0.0010199016 -0.0002630798 -7.345715e-22 6.8100536e-05 1.8483873e-22 4.587799e-39)
(0.0018388648 -0.00047596257 -6.4378874e-23 0.00012462379 1.8303195e-23 4.2838238e-40)
(0.0024803186 -0.00064759111 -1.9507441e-22 0.00017339204 5.7526689e-23 2.1545131e-39)
(0.0028697286 -0.00077513226 -1.4838041e-22 0.00021863008 4.1128968e-23 2.9853034e-41)
(0.0030058721 -0.00086046835 -8.4057218e-22 0.00026284753 2.6004308e-22 3.9606485e-40)
(0.0029259617 -0.00090849833 -4.1281929e-22 0.00030836545 1.4507432e-22 3.186216e-40)
(0.0026855891 -0.00092394847 8.0118419e-22 0.00035655667 -3.0097301e-22 2.5912941e-40)
(0.0023456306 -0.00091067076 1.3754328e-22 0.0004074744 -7.0447555e-23 3.2660453e-40)
(0.0019625284 -0.00087234644 -1.7690317e-22 0.00045994953 8.0062803e-23 1.1189533e-40)
(0.0015817668 -0.00081323815 8.2595387e-23 0.00051185695 -3.0468777e-23 4.1905732e-40)
(0.0012347542 -0.00073849887 -1.6201242e-23 0.0005604994 2.0987304e-23 1.0622032e-40)
(0.00093883584 -0.00065395915 0 0.00060308197 0 0)
(0.00069960964 -0.00056553464 8.9066812e-23 0.00063718923 -9.1894817e-23 2.5941997e-41)
(0.00051440836 -0.0004785213 -1.9030677e-22 0.00066116255 2.4610548e-22 3.5217823e-40)
(0.00037587305 -0.00039703528 -6.1931487e-23 0.00067430433 9.3865884e-23 3.048736e-41)
(0.00027488464 -0.00032374064 1.0784012e-22 0.00067685674 -2.1282208e-22 4.1990847e-40)
(0.00020254569 -0.00025989354 -2.3340394e-23 0.00066976224 3.1179196e-23 8.9898878e-41)
(0.00015119026 -0.00020568197 -1.3243118e-24 0.0006548679 -2.8020395e-24 1.0082293e-41)
(0.00011462516 -0.00016052768 2.4688144e-23 0.00063613976 -7.2232935e-23 9.3252419e-42)
(0.00022486498 -3.7136408e-05 7.4274085e-23 6.2493411e-06 -9.7431044e-24 1.3211688e-40)
(0.0010696791 -0.00019544677 -6.8255167e-22 3.5907165e-05 1.2294976e-22 2.104913e-39)
(0.0018872412 -0.00035447636 -5.3316746e-22 6.7791086e-05 1.0567645e-22 2.5182158e-39)
(0.0024830531 -0.0004873886 7.6593317e-22 9.944556e-05 -1.596478e-22 6.1843919e-40)
(0.0027984186 -0.00059267296 5.8012512e-22 0.00013384517 -1.3007526e-22 1.2944513e-40)
(0.0028519955 -0.00067039123 -4.2690662e-22 0.00017274061 9.3853562e-23 1.3379567e-39)
(0.0026994371 -0.00072139196 1.3873731e-22 0.00021726756 -5.249935e-23 5.6622721e-40)
(0.0024094356 -0.00074611344 8.173296e-22 0.00026746366 -2.8786285e-22 6.3973635e-40)
(0.0020487379 -0.00074517811 3.5931344e-22 0.00032205427 -1.4030616e-22 8.1254557e-41)
(0.0016726747 -0.00072049315 -3.5422472e-22 0.00037859167 1.7921865e-22 2.0887147e-40)
(0.0013205152 -0.00067578099 -4.8155616e-22 0.00043383401 2.8426929e-22 2.5165883e-40)
(0.0010150221 -0.00061633199 -1.3163399e-23 0.00048429999 9.4156981e-24 2.6248247e-43)
(0.00076501764 -0.00054819396 1.3923571e-22 0.00052687763 -1.2045797e-22 4.0835584e-41)
(0.00056945041 -0.00047717892 -5.1155186e-24 0.00055932585 1.5767965e-23 6.1214346e-41)
(0.00042158947 -0.00040804989 -5.6500677e-24 0.00058054961 2.5686144e-23 1.656782e-40)
(0.00031243676 -0.00034409359 4.4140258e-24 0.00059061225 -3.358872e-23 2.9928992e-40)
(0.00023300035 -0.0002870916 4.9676843e-23 0.0005905102 -9.6913012e-23 8.8223551e-41)
(0.00017550133 -0.00023758657 -2.8516015e-23 0.00058180004 8.1605743e-23 2.290402e-40)
(0.00013377006 -0.00019534857 -7.2707908e-23 0.00056658245 1.980455e-22 4.4577212e-40)
(0.00010309572 -0.000159715 2.4045849e-23 0.00054813917 -5.7984294e-23 1.0154782e-41)
(0.00023954623 -2.2727854e-05 -1.9363663e-22 2.2128659e-06 1.6141462e-23 3.9484327e-40)
(0.0010892168 -0.00011875462 -1.5389358e-22 1.3107916e-05 1.646518e-23 4.2636205e-40)
(0.0018799179 -0.00022281638 1.1734296e-21 2.7413089e-05 -1.4855835e-22 5.2054861e-39)
(0.0024141859 -0.00032114114 8.7674133e-22 4.5978933e-05 -1.2622897e-22 5.7069305e-40)
(0.0026533777 -0.00041103384 3.9436548e-22 7.1061174e-05 -6.1388972e-23 2.798908e-40)
(0.0026360312 -0.00048819212 7.9660479e-23 0.00010414582 -1.6154168e-23 2.7166386e-42)
(0.0024327321 -0.00054775325 -7.4981424e-22 0.00014581564 1.6480275e-22 1.1704431e-39)
(0.0021197382 -0.0005853392 0 0.00019529281 0 0)
(0.0017638386 -0.00059865125 -4.6112589e-22 0.00025029725 1.9690356e-22 9.6863011e-40)
(0.0014146915 -0.00058846568 -7.9599834e-23 0.00030732418 5.1470762e-23 2.190512e-40)
(0.0011030121 -0.00055849144 2.2692448e-22 0.00036226051 -1.2992568e-22 5.4506927e-41)
(0.00084291345 -0.00051433922 2.4647521e-23 0.00041116531 -3.0742057e-23 1.2049377e-40)
(0.00063640512 -0.00046214729 -1.0890194e-22 0.00045097165 1.0502252e-22 1.4081948e-40)
(0.00047825417 -0.00040738403 -8.240674e-23 0.00047991191 1.060219e-22 3.0042937e-40)
(0.00036002065 -0.00035413569 5.2843888e-23 0.00049759451 -5.3206193e-23 3.7012452e-41)
(0.00027278679 -0.00030492437 7.3409612e-23 0.00050478465 -9.3600501e-23 3.4578426e-41)
(0.00020863727 -0.00026091214 -6.565882e-23 0.00050300729 1.0721101e-22 3.2344066e-41)
(0.0001612258 -0.00022229792 -8.8439207e-23 0.0004941172 1.8702713e-22 3.7313894e-40)
(0.00012578851 -0.00018878142 6.6689054e-24 0.00048014018 -1.5081245e-24 4.357911e-41)
(9.8820322e-05 -0.00015982687 1.2158545e-23 0.00046347374 -3.9835194e-23 5.1536644e-41)
(0.00024870971 -6.557797e-06 -1.2774793e-22 1.9834011e-07 3.2552631e-24 1.9314012e-40)
(0.0010773598 -3.8806726e-05 5.4734458e-22 1.5317892e-06 -1.956106e-23 1.0716324e-39)
(0.0018186666 -9.133649e-05 8.3663252e-22 5.4068041e-06 -5.1281937e-23 7.76924e-39)
(0.0022821222 -0.00016153437 -9.8465023e-22 1.4219815e-05 8.429088e-23 2.1418854e-39)
(0.0024506082 -0.00024272681 3.5713508e-22 3.0550213e-05 -3.8817664e-23 5.4499252e-41)
(0.0023795516 -0.00032427292 1.4775707e-22 5.6524575e-05 6.3343153e-25 1.975683e-39)
(0.0021489845 -0.00039492162 3.8743558e-23 9.2971452e-05 -7.774877e-24 7.2282942e-43)
(0.001836702 -0.00044586156 -5.5262661e-22 0.00013880555 1.2646081e-22 6.6932779e-40)
(0.0015046756 -0.00047272297 -1.2571042e-23 0.00019101565 4.3042859e-24 1.0890389e-43)
(0.0011942522 -0.00047590859 2.0712728e-22 0.00024525851 -1.0645785e-22 2.5482774e-40)
(0.00092733184 -0.00045947105 1.6344512e-23 0.00029682993 -1.6389208e-23 3.6336171e-41)
(0.00071088657 -0.00042930258 -7.4561895e-23 0.00034165938 2.0338691e-23 4.700866e-40)
(0.00054242486 -0.00039140904 -1.6701567e-22 0.00037700766 1.3452636e-22 5.4020561e-41)
(0.00041476043 -0.00035074318 -1.1070653e-24 0.00040171316 1.2780957e-23 6.1216969e-41)
(0.00031937035 -0.00031072566 5.6859472e-23 0.00041602423 -7.3567589e-23 6.0163632e-41)
(0.00024831365 -0.00027330697 3.795961e-23 0.00042118022 -5.928819e-23 5.8239745e-41)
(0.00019505334 -0.00023931646 8.8117263e-24 0.00041892648 -2.8005294e-23 9.398942e-41)
(0.0001546121 -0.0002088863 -6.0462409e-23 0.00041111238 8.4520816e-23 7.6201924e-41)
(0.00012339668 -0.00018182699 -1.2117568e-23 0.00039946666 -7.7321528e-24 3.2223057e-40)
(9.8821784e-05 -0.00015776367 3.3835237e-23 0.00038551679 -1.0217517e-22 5.3256304e-40)
(1.6522219e-06 -2.0652936e-07 1.6507571e-23 2.5218494e-07 -3.3025885e-24 1.8872429e-40)
(7.786967e-06 -3.2593405e-06 -2.3556836e-23 1.6742753e-06 6.5273106e-24 1.8167983e-40)
(1.7442322e-05 -7.5321827e-06 5.2321148e-23 3.3380437e-06 -1.9615288e-23 1.0436672e-39)
(5.5921774e-05 -1.589739e-05 1.4609749e-22 4.7887117e-06 -3.1188397e-23 3.5096096e-39)
(0.00012274109 -2.6232846e-05 -1.0443016e-22 6.0946508e-06 1.7818823e-23 9.1284654e-40)
(0.00021940892 -3.7813317e-05 1.31695e-22 7.2571753e-06 -1.7918425e-23 1.0086136e-39)
(0.00034911984 -5.0249021e-05 -1.8103921e-22 8.2778252e-06 2.306533e-23 1.1081096e-39)
(0.00051276702 -6.3149722e-05 -1.8683592e-22 9.1774339e-06 1.9617579e-23 1.1714386e-39)
(0.00070964006 -7.6198635e-05 2.3547009e-22 9.9784015e-06 -2.4544301e-23 1.2389463e-39)
(0.00093850123 -8.9162361e-05 -1.8307746e-22 1.0698141e-05 1.7990768e-23 6.3111959e-40)
(0.0011977894 -0.00010186517 -9.102204e-24 1.1349846e-05 1.5263227e-25 7.3323315e-42)
(0.0014856446 -0.00011417088 5.301687e-23 1.1943602e-05 -5.6717781e-24 2.3265191e-41)
(0.0017999979 -0.00012597211 -9.0953953e-24 1.2487126e-05 4.4368736e-25 3.6809329e-42)
(0.002138656 -0.00013718376 2.8935512e-22 1.2986613e-05 -2.610971e-23 1.1060468e-39)
(0.0024993525 -0.00014774097 3.0985951e-25 1.3447795e-05 5.4727673e-25 2.3858113e-42)
(0.0028797988 -0.00015760314 -4.2866199e-22 1.3876997e-05 4.0240928e-23 2.275784e-39)
(0.0032777538 -0.00016675731 7.9893916e-23 1.4280985e-05 -8.393932e-24 4.8147008e-41)
(0.0036910335 -0.00017520261 1.9483725e-22 1.466475e-05 -1.9280244e-23 5.78748e-40)
(0.004117469 -0.00018297373 -3.1842935e-22 1.5033238e-05 3.3604633e-23 1.6407575e-39)
(0.0045545802 -0.00019030768 -1.7738987e-22 1.5382958e-05 1.9863789e-23 6.160029e-40)
(1.8712542e-06 -8.6381361e-07 5.4413361e-24 2.2191219e-06 -2.0148739e-24 1.8706513e-41)
(9.9269018e-06 -1.1168457e-05 -1.4918929e-22 1.4753826e-05 1.1248394e-22 6.0759458e-39)
(2.2276918e-05 -2.5357657e-05 2.9603513e-23 2.9407086e-05 -2.4474802e-23 5.483864e-40)
(6.5800876e-05 -5.1472772e-05 1.5722785e-22 4.2189848e-05 -9.6661188e-23 2.933637e-39)
(0.00013847629 -8.3277941e-05 2.1857775e-22 5.367365e-05 -1.05188e-22 3.3174723e-39)
(0.00024134751 -0.00011864279 2.6449255e-23 6.3853945e-05 -1.062749e-23 3.1166184e-41)
(0.00037724243 -0.0001564032 -7.0385224e-22 7.2746704e-05 2.4448918e-22 1.6594649e-38)
(0.00054661115 -0.00019540501 -2.4890471e-23 8.0536651e-05 1.0339253e-23 4.8145233e-42)
(0.00074834604 -0.00023471756 3.9942852e-22 8.742063e-05 -1.220494e-22 2.8334763e-39)
(0.00098084644 -0.00027365487 -9.6536853e-23 9.3551927e-05 2.6765853e-23 1.5754989e-40)
(0.0012421914 -0.00031169865 -3.6731419e-22 9.9046682e-05 1.0107496e-22 1.7483828e-39)
(0.0015301565 -0.00034844531 7.7432988e-23 0.00010399304 -1.9887666e-23 7.9600456e-41)
(0.0018422996 -0.00038357426 3.2727815e-22 0.00010845733 -7.3620603e-23 1.8744067e-39)
(0.0021760374 -0.00041682783 1.358638e-22 0.00011249131 -3.3928276e-23 2.1423976e-40)
(0.0025286817 -0.00044800386 2.7294157e-22 0.00011614118 -7.2858229e-23 6.2018836e-40)
(0.0028974906 -0.0004769664 -2.1637567e-22 0.00011945661 5.4615148e-23 5.2436777e-40)
(0.0032797952 -0.00050365936 -2.0767437e-22 0.00012249159 5.1849631e-23 5.7345989e-40)
(0.0036729479 -0.00052805681 2.1102165e-22 0.00012528912 -5.9677958e-23 3.3202316e-40)
(0.0040735619 -0.000550249 1.939741e-22 0.0001278978 -5.3446176e-23 5.7974801e-40)
(0.0044776576 -0.00057114673 7.5884366e-23 0.00013030571 -2.0054941e-23 2.4600735e-40)
(2.4052155e-06 -2.2108584e-06 4.1866883e-24 5.9179066e-06 -2.0986958e-24 9.8534124e-42)
(1.5005672e-05 -2.3081001e-05 1.1331623e-22 3.9384482e-05 -1.2128674e-22 2.5894838e-39)
(3.3538538e-05 -5.1011111e-05 -2.4807417e-23 7.8443223e-05 3.1972707e-23 1.3561847e-40)
(8.7632776e-05 -9.7728797e-05 -1.708462e-22 0.0001125011 1.439106e-22 3.2109801e-39)
(0.00017243725 -0.00015323094 6.3058137e-23 0.0001429929 -5.2991564e-23 9.1171035e-41)
(0.00028806141 -0.00021407758 8.3717446e-23 0.00016983993 -6.8098688e-23 4.8290822e-41)
(0.00043659317 -0.00027834517 -1.0410819e-22 0.00019307955 5.5296771e-23 2.8619071e-40)
(0.00061764412 -0.00034416416 -2.7299277e-22 0.00021320321 1.5952724e-22 5.7344167e-40)
(0.00082934548 -0.00041003887 1.1952233e-22 0.00023073382 -5.8224738e-23 1.6001503e-40)
(0.0010693896 -0.00047486153 2.5397737e-22 0.00024608176 -1.0593559e-22 9.081894e-40)
(0.0013351542 -0.00053778691 7.1441109e-23 0.00025955963 -4.9298325e-23 3.4317054e-41)
(0.0016237054 -0.00059814841 3.1126123e-22 0.00027140369 -1.0386944e-22 1.6847974e-39)
(0.0019318748 -0.00065540643 2.6493859e-23 0.00028178848 -9.849916e-24 6.991156e-42)
(0.0022563206 -0.00070911368 -4.6487801e-22 0.0002908445 1.5765769e-22 2.7100914e-39)
(0.0025935452 -0.00075890132 3.4637028e-23 0.00029868212 -2.2605301e-23 1.5056236e-41)
(0.0029399463 -0.00080449711 -2.1823566e-22 0.00030541705 6.118053e-23 1.0555632e-39)
(0.0032920601 -0.00084575802 -3.0973082e-22 0.00031117618 1.2235215e-22 4.3531207e-40)
(0.0036464246 -0.00088258884 5.0470838e-22 0.0003160851 -1.9591128e-22 1.4440694e-39)
(0.0039975937 -0.00091509943 2.6778497e-22 0.00032035072 -1.0997074e-22 2.9438233e-40)
(0.0043393292 -0.00094524544 5.3272576e-23 0.00032408469 -2.399742e-23 6.3253704e-42)
(3.5429621e-06 -4.5719495e-06 -6.2607063e-24 1.0896497e-05 7.8781183e-24 1.4476442e-41)
(2.4603626e-05 -4.0985937e-05 -2.626149e-22 7.2660933e-05 3.3209388e-22 8.5941341e-39)
(5.4456404e-05 -8.8391738e-05 -1.9061265e-23 0.00014460582 2.4495999e-23 1.1742574e-40)
(0.00012605713 -0.00015987298 4.4131976e-23 0.00020724322 -4.8851228e-23 7.4954481e-41)
(0.00023062319 -0.00024218357 -7.0531262e-24 0.00026304738 1.7877798e-24 1.9337839e-41)
(0.0003668802 -0.00033065279 2.2496132e-22 0.00031171515 -1.6500404e-22 1.4115877e-39)
(0.00053577171 -0.00042259151 2.4904052e-22 0.00035328776 -1.6278585e-22 1.2824771e-39)
(0.00073566021 -0.00051547901 -7.536348e-23 0.00038866985 3.6486785e-23 2.0202035e-40)
(0.00096352973 -0.00060731861 -2.7730284e-22 0.00041883039 1.4507748e-22 1.2849877e-39)
(0.0012159898 -0.00069661733 -5.6067695e-22 0.00044454144 3.0273432e-22 2.7267792e-39)
(0.0014893414 -0.00078221806 -1.1918414e-23 0.00046639961 -6.6386595e-24 6.2183306e-41)
(0.0017795702 -0.00086319208 7.1563074e-22 0.00048485951 -3.3394524e-22 4.4555673e-39)
(0.0020824084 -0.0009387673 -2.9003333e-22 0.00050025565 1.1106586e-22 1.3164237e-39)
(0.0023933962 -0.0010082862 -1.8820116e-22 0.00051283457 8.2539893e-23 2.6000296e-40)
(0.002707885 -0.0010711826 -2.3186348e-23 0.00052279462 2.5416963e-23 5.6078436e-41)
(0.0030210984 -0.0011270047 4.4818669e-22 0.00053033026 -1.9647374e-22 1.0673266e-39)
(0.0033285183 -0.0011754799 -2.5493151e-22 0.00053564984 1.2717709e-22 7.2306239e-41)
(0.0036257489 -0.0012164478 -5.8580541e-22 0.00053902006 2.4643352e-22 2.2973004e-39)
(0.0039049854 -0.0012500489 3.9535836e-22 0.00054109501 -1.7155506e-22 1.1553741e-39)
(0.0041575004 -0.0012794612 3.4079925e-22 0.00054260026 -1.3642725e-22 1.0739276e-39)
(5.6660451e-06 -8.1423712e-06 2.8120245e-23 1.6609295e-05 -2.7327176e-23 1.8504721e-40)
(4.0831367e-05 -6.6051933e-05 9.0417058e-24 0.00011091397 -2.2769488e-24 8.3786888e-41)
(8.9302417e-05 -0.00013976089 -3.6262394e-22 0.00022037897 5.1893209e-22 7.0541221e-39)
(0.00018706514 -0.0002407877 -2.0829901e-22 0.00031538225 2.2119782e-22 2.1807271e-39)
(0.00032044932 -0.00035320028 1.3883967e-22 0.00039943572 -1.1055442e-22 1.3177986e-39)
(0.00048629271 -0.00047109371 1.7322226e-22 0.00047182897 -1.3957298e-22 6.2099158e-40)
(0.00068389023 -0.00059097372 -2.2528937e-22 0.00053259411 1.4717833e-22 1.4527139e-39)
(0.00090987178 -0.00070974145 -3.4385967e-22 0.00058313074 1.9744681e-22 3.1878202e-39)
(0.0011596165 -0.00082498011 5.1064558e-22 0.0006249525 -3.0512496e-22 3.2721301e-39)
(0.0014282059 -0.00093486808 1.4604824e-22 0.00065929215 -5.9186719e-23 7.6138041e-40)
(0.0017104312 -0.0010379754 -4.6448646e-22 0.0006871272 3.0687489e-22 2.5487657e-40)
(0.0020007913 -0.0011331413 2.029963e-22 0.0007092206 -9.2409894e-23 5.8640903e-40)
(0.0022935751 -0.0012193947 0 0.0007261499 0 0)
(0.0025829302 -0.0012959005 1.9903843e-22 0.00073834687 -9.7013484e-23 2.2972965e-40)
(0.0028628871 -0.0013619319 -1.4970681e-22 0.00074615137 7.1148113e-23 1.2269585e-40)
(0.0031274579 -0.001416894 -2.3013339e-22 0.00074987033 1.1471706e-22 1.4925272e-40)
(0.0033712171 -0.0014604257 8.5596796e-23 0.00074979573 -6.9102029e-23 2.0935272e-40)
(0.0035892974 -0.001492407 -6.9498468e-23 0.00074634558 4.1274345e-23 7.6170998e-42)
(0.0037721661 -0.0015131733 3.3479232e-22 0.00074097156 -1.4477638e-22 1.2428809e-39)
(0.0039084043 -0.0015270001 -2.7106079e-22 0.00073601646 1.3223299e-22 7.3077537e-41)
(9.2167998e-06 -1.2984897e-05 2.6965979e-23 2.2516721e-05 -2.2672108e-23 1.4858813e-40)
(6.60763e-05 -9.8508299e-05 1.3027181e-22 0.00015029181 -1.7339698e-22 5.5622573e-40)
(0.00014280181 -0.0002053928 -1.7488144e-22 0.00029771884 2.319251e-22 1.3233234e-39)
(0.00027697301 -0.00034041197 -2.8781443e-22 0.00042497649 3.2352452e-22 1.1096162e-39)
(0.00044912545 -0.00048544597 -8.5763987e-23 0.00053649589 1.2488449e-22 8.7543345e-40)
(0.00065354739 -0.0006332654 -2.6067349e-22 0.00063104154 2.2879687e-22 5.4488229e-40)
(0.00088722797 -0.00077952388 -1.2084681e-22 0.00070868411 7.4419745e-23 6.2885913e-40)
(0.0011444902 -0.00092064703 2.0988668e-22 0.00077140283 -1.2626857e-22 1.1600356e-39)
(0.001418587 -0.0010539248 5.0313896e-22 0.00082135214 -2.9989757e-22 3.9723902e-39)
(0.0017025917 -0.0011773277 1.5548633e-22 0.00086033755 -9.5656548e-23 1.6668925e-40)
(0.0019894021 -0.0012892819 -1.4774922e-22 0.00088983565 7.8472573e-23 2.6431119e-40)
(0.002271761 -0.0013885327 -2.7098598e-23 0.00091103817 -6.0764556e-24 2.3013683e-40)
(0.0025423949 -0.001474062 -7.0773192e-22 0.00092488345 3.8689616e-22 2.1940675e-39)
(0.0027941529 -0.0015450344 -2.2013539e-22 0.00093210055 1.150197e-22 2.2693154e-40)
(0.0030201036 -0.001600767 3.6998328e-22 0.00093326892 -2.1325561e-22 1.086295e-40)
(0.0032137026 -0.001640743 -3.694177e-22 0.00092887788 1.9905866e-22 2.2519676e-40)
(0.0033695631 -0.0016647154 -1.3054022e-22 0.00091930893 6.4156748e-23 7.1815373e-41)
(0.0034837529 -0.0016728168 2.9330732e-22 0.00090502883 -1.2388181e-22 1.1150562e-39)
(0.0035470488 -0.0016658803 4.4664224e-22 0.00088839264 -2.2249192e-22 8.4697077e-40)
(0.0035455905 -0.0016489285 5.4315253e-23 0.00087460643 -2.5338368e-23 1.6477485e-41)
(1.4666636e-05 -1.9034186e-05 -7.6048672e-23 2.8129074e-05 6.1741954e-23 8.7910906e-40)
(0.00010272173 -0.00013762213 -8.4135082e-23 0.00018714407 8.5350554e-23 7.0071382e-40)
(0.00021942626 -0.00028343637 2.1464112e-22 0.00036895315 -2.7075198e-22 3.2516671e-40)
(0.00040123354 -0.00045546016 3.2663631e-22 0.00052461909 -3.3801506e-22 1.4707776e-39)
(0.0006219304 -0.00063381123 4.2673288e-24 0.0006593291 -3.8393385e-24 2.9183502e-43)
(0.00087238244 -0.00080982639 -8.8820147e-22 0.00077135602 7.3213518e-22 8.5856529e-39)
(0.0011464852 -0.0009783227 -3.4954157e-22 0.00086096161 2.9840496e-22 1.2404857e-40)
(0.0014356509 -0.0011354348 2.7087693e-22 0.00093082359 -1.8255848e-22 9.4193296e-40)
(0.0017305596 -0.0012783961 3.1151596e-22 0.00098384455 -2.0889124e-22 5.7636766e-40)
(0.0020219943 -0.0014052255 -3.0502478e-22 0.0010225197 1.6982404e-22 1.5811426e-39)
(0.0023008631 -0.0015144792 -9.0106929e-22 0.0010489506 5.6728645e-22 2.3084636e-39)
(0.0025583238 -0.0016051106 5.9375177e-22 0.0010648838 -3.5886103e-22 9.4915441e-40)
(0.0027860343 -0.0016763887 3.5354387e-22 0.0010717433 -1.8425459e-22 1.1354531e-39)
(0.0029764143 -0.0017278464 -4.9178912e-22 0.0010706757 2.7069592e-22 9.3784891e-40)
(0.0031228605 -0.0017592475 2.1672224e-22 0.0010626065 -1.2457239e-22 6.3097639e-41)
(0.0032199863 -0.0017705732 3.6034034e-22 0.0010482852 -1.8517921e-22 6.9835147e-40)
(0.003264468 -0.0017620668 1.3764565e-22 0.0010281904 -7.7202093e-23 2.3894912e-41)
(0.0032556496 -0.0017343814 -2.36299e-22 0.0010026371 1.4488519e-22 3.0525612e-41)
(0.0031878962 -0.0016890689 -5.5324063e-23 0.0009745106 1.8252888e-23 1.7279574e-40)
(0.0030465428 -0.0016312962 3.1085452e-22 0.00095267816 -1.7845203e-22 7.1027189e-41)
(2.2480779e-05 -2.609812e-05 -2.2152143e-24 3.3011588e-05 -2.4433925e-24 1.6494073e-41)