/*--------------------------------*- C++ -*----------------------------------*\
  =========                 |
  \\      /  F ield         | OpenFOAM: The Open Source CFD Toolbox
   \\    /   O peration     | Website:  https://openfoam.org
    \\  /    A nd           | Version:  6
     \\/     M anipulation  |
\*---------------------------------------------------------------------------*/
FoamFile
{
    version     2.0;
    format      ascii;
    class       volScalarField;
    location    "217";
    object      pPrime2Mean;
}
// * * * * * * * * * * * * * * * * * * * * * * * * * * * * * * * * * * * * * //

dimensions      [0 4 -4 0 0 0 0];

internalField   nonuniform List<scalar> 
9200
(
0.051828362
0.042964295
0.035459678
0.030573919
0.026673992
0.023386835
0.020550282
0.018081634
0.015925842
0.014038826
0.01238408
0.010931009
0.0096537875
0.0085304791
0.0075423611
0.0066734249
0.0059101196
0.0052411411
0.0046580842
0.0041499919
0.042034973
0.034780134
0.028713122
0.024725173
0.021525545
0.018820708
0.016483261
0.014448215
0.0126718
0.011118736
0.0097595706
0.0085693941
0.0075269583
0.0066140021
0.0058147323
0.0051154536
0.0045043708
0.003971318
0.0035068162
0.0030973526
0.032852087
0.027145049
0.022428133
0.019285618
0.016744008
0.014584938
0.012714317
0.011084287
0.0096621715
0.0084212434
0.0073387514
0.0063950262
0.0055728946
0.0048572467
0.0042347287
0.0036935386
0.0032233095
0.0028148884
0.0024590806
0.0021438253
0.024534435
0.020264827
0.016769836
0.014396214
0.012452253
0.010787956
0.0093401558
0.0080770788
0.0069765207
0.0060196245
0.0051896
0.0044712686
0.003850836
0.0033157678
0.002854736
0.0024576012
0.0021153881
0.0018201378
0.0015639945
0.0013378281
0.017311503
0.01432443
0.011890272
0.010188196
0.0087659271
0.00753309
0.0064541542
0.0055118526
0.0046933342
0.0039864856
0.0033793929
0.0028604071
0.0024183473
0.0020427226
0.0017239314
0.0014533957
0.001223604
0.0010280246
0.00086061434
0.00071524798
0.011385531
0.0094850132
0.0079242792
0.0067789196
0.0057892312
0.0049142338
0.004141876
0.0034672117
0.002885091
0.0023886244
0.0019694635
0.0016184634
0.0013263448
0.0010842345
0.00088404643
0.00071869082
0.00058212169
0.00046926334
0.00037581504
0.00029799498
0.0069256274
0.0058800865
0.0049865194
0.0042693316
0.0036126635
0.0030136658
0.0024787691
0.002012567
0.0016155159
0.0012841992
0.0010124795
0.00079277513
0.00061712629
0.00047795192
0.00036850122
0.00028304632
0.00021688095
0.00016622576
0.00012818632
0.00010055814
0.0040634619
0.0036128637
0.0031693664
0.0027420023
0.0023110188
0.0018998565
0.001527723
0.0012055117
0.00093694376
0.00072029969
0.00055041585
0.0004204924
0.00032342841
0.00025265199
0.00020252974
0.00016847657
0.00014688126
0.00013498017
0.00013085789
0.00013322845
0.0028896076
0.00275337
0.0025390551
0.0022569547
0.0019395568
0.0016242741
0.0013365894
0.0010900331
0.00088916241
0.00073234506
0.00061441428
0.00052879595
0.00046890801
0.00042891764
0.00040402989
0.00039049069
0.00038544753
0.00038679778
0.00039315527
0.00040361254
0.0034496166
0.0033360914
0.0031315941
0.0028477266
0.002530269
0.0022175103
0.0019340516
0.0016922654
0.0014953105
0.0013403758
0.001221619
0.0011323155
0.0010661124
0.0010176
0.00098245682
0.00095736132
0.00093981702
0.00092798605
0.00092056794
0.00091657119
0.1230185
0.10346221
0.085507774
0.07415475
0.065140446
0.057574312
0.051060302
0.04538475
0.040415381
0.036048233
0.032198376
0.028795496
0.025780697
0.02310419
0.020723579
0.018602553
0.016709859
0.015017512
0.013499231
0.012139818
0.12145201
0.10204459
0.084295817
0.073073235
0.064171886
0.056702224
0.050271706
0.044670181
0.039766893
0.035458881
0.03166202
0.028306674
0.025334531
0.022696315
0.020350081
0.018259931
0.016395023
0.014727781
0.013231775
0.011892333
0.11825677
0.099237918
0.08193353
0.070990086
0.062319996
0.055045896
0.048783693
0.043329823
0.038556961
0.034364625
0.030670655
0.027407018
0.024516747
0.02195171
0.019670955
0.01763946
0.015827219
0.014207473
0.01275388
0.011452036
0.11348863
0.095110376
0.078489172
0.067969973
0.059643327
0.052658347
0.046644805
0.041408442
0.03682708
0.032804103
0.029260431
0.026130535
0.023359519
0.020901003
0.018715531
0.016769367
0.015033677
0.013482881
0.012091167
0.010843964
0.1072778
0.089779093
0.074062514
0.064102136
0.056221944
0.049611766
0.043920605
0.038965918
0.034632193
0.030827926
0.027478133
0.024520617
0.021903235
0.019581911
0.017519142
0.015682846
0.014045601
0.012583288
0.011271359
0.01009488
0.099801247
0.083399201
0.068782955
0.059500593
0.052157431
0.045997168
0.040693001
0.036076203
0.032039259
0.028496861
0.025379025
0.022627618
0.020193855
0.018036466
0.016120314
0.014415288
0.012895573
0.011538641
0.01032204
0.0092309103
0.091273807
0.076156739
0.06280365
0.054299057
0.047568321
0.041920296
0.037056634
0.032824144
0.029124447
0.025879364
0.023024669
0.020506932
0.01828127
0.016309678
0.014559764
0.013003704
0.011617477
0.01038016
0.0092720024
0.008279185
0.081940423
0.068262056
0.056296598
0.04864681
0.042586425
0.037498303
0.033115913
0.029302901
0.025970933
0.023049709
0.020481389
0.018217796
0.016218419
0.014448937
0.012880074
0.011486626
0.010246652
0.0091409249
0.0081527509
0.0072703096
0.072067266
0.059941978
0.04944642
0.042703256
0.03735196
0.032855442
0.028981215
0.02561056
0.022665884
0.020085342
0.01781799
0.015821338
0.014059645
0.012502631
0.011124469
0.0099029142
0.0088185045
0.0078540886
0.0069964367
0.0062357861
0.061932106
0.051433459
0.042443778
0.036630977
0.032006802
0.028116712
0.024763036
0.021844956
0.019296039
0.017063284
0.015102957
0.013378535
0.011859276
0.010519154
0.0093360099
0.0082908639
0.0073673742
0.0065517617
0.0058354073
0.0052089635
0.010705725
0.0092760347
0.0080638505
0.0070115304
0.0061126239
0.005342706
0.0046805839
0.0041080785
0.0036104109
0.0031755801
0.0027938674
0.0024574865
0.0021601867
0.0018968844
0.0016633873
0.0014561933
0.0012723362
0.0011092698
0.00096478254
0.00083693306
0.00072400216
0.00062445521
0.0005369133
0.00046013072
0.0003929776
0.00033442632
0.00028354086
0.00023946831
0.00020143197
0.00016872562
0.00014070864
0.0001168016
9.6482312e-05
7.9281981e-05
6.4781622e-05
5.2608416e-05
4.2432353e-05
3.3962604e-05
2.6944563e-05
2.1155747e-05
1.6404826e-05
1.2522949e-05
9.3759848e-06
6.823787e-06
4.8116072e-06
3.1538699e-06
2.0077282e-06
9.228787e-07
1.2168798e-06
2.0089936e-06
0.010497999
0.0091157537
0.0079382677
0.0069126042
0.0060355865
0.0052833374
0.0046348769
0.0040727132
0.003582824
0.0031538089
0.0027764504
0.0024433752
0.0021486375
0.0018873626
0.0016554995
0.0014496423
0.0012668906
0.0011047443
0.0009610253
0.00083381816
0.00072142409
0.00062232522
0.00053515664
0.00045868449
0.0003917889
0.00033345083
0.00028274154
0.00023881428
0.00020089759
0.00016828963
0.00014035348
0.00011651278
9.6247903e-05
7.9092167e-05
6.462834e-05
5.2485043e-05
4.2333449e-05
3.3883705e-05
2.6882003e-05
2.110652e-05
1.6366469e-05
1.2493453e-05
9.353712e-06
6.8074349e-06
4.800113e-06
3.1464043e-06
2.0037918e-06
9.2055294e-07
1.2095823e-06
1.9701179e-06
0.010132429
0.0088355658
0.0077208884
0.0067441286
0.005906429
0.0051853484
0.0045605639
0.0040159549
0.0035389991
0.0031194857
0.00274914
0.0024213303
0.002130642
0.001872555
0.0016432528
0.0014394858
0.0012584593
0.0010977465
0.00095522246
0.0008290125
0.00071745009
0.00061904379
0.00053245082
0.00045645607
0.0003899556
0.00033194391
0.00028150379
0.00023779824
0.00020006399
0.00016760611
0.0001397934
0.00011605425
9.5872965e-05
7.8786082e-05
6.4379009e-05
5.2282525e-05
4.2169563e-05
3.3751709e-05
2.6776332e-05
2.1022579e-05
1.6300461e-05
1.2442247e-05
9.3147426e-06
6.7786237e-06
4.7797823e-06
3.1331664e-06
1.9969181e-06
9.1646503e-07
1.1950019e-06
1.8941846e-06
0.0096314601
0.0084527664
0.0074273063
0.0065212003
0.0057386297
0.005059878
0.0044664896
0.0039446297
0.0034841037
0.0030765283
0.0027149672
0.0023937606
0.0021081644
0.0018540971
0.0016280281
0.0014268984
0.0012480437
0.0010891292
0.0009480983
0.00082312873
0.00071259608
0.00061504336
0.00052915663
0.00045374509
0.00038772539
0.00033010942
0.00027999465
0.00023655646
0.00019904189
0.0001667646
0.00013910049
0.00011548381
9.5403623e-05
7.8400361e-05
6.4062582e-05
5.2023627e-05
4.1958494e-05
3.358045e-05
2.6638232e-05
2.0912109e-05
1.6213019e-05
1.2374006e-05
9.2625381e-06
6.7398694e-06
4.7523693e-06
3.1153458e-06
1.987693e-06
9.1111866e-07
1.1731343e-06
1.7850891e-06
0.0090171894
0.0079849806
0.007073574
0.0062591933
0.0055457109
0.0049176723
0.0043607604
0.0038647421
0.0034225784
0.0030282943
0.0026765804
0.0023628468
0.0020830565
0.0018335912
0.0016112245
0.001413104
0.0012367116
0.0010798198
0.00094045329
0.00081685359
0.00070744756
0.00061082019
0.00052569226
0.000450902
0.00038539038
0.00032818959
0.00027841402
0.00023525307
0.0001979654
0.00016587417
0.00013836305
0.00011487257
9.4896875e-05
7.7980455e-05
6.3715118e-05
5.1736797e-05
4.1722558e-05
3.3387326e-05
2.6481173e-05
2.0785459e-05
1.6112022e-05
1.2294658e-05
9.2014937e-06
6.6943641e-06
4.7200951e-06
3.0944427e-06
1.9768335e-06
9.0515811e-07
1.1441917e-06
1.6485506e-06
0.0083085228
0.0074482385
0.0066741786
0.0059706253
0.0053375571
0.0047656221
0.0042478345
0.0037792574
0.0033565931
0.0029765477
0.0026355416
0.0023300384
0.0020566793
0.0018123065
0.0015940113
0.0013991659
0.0012254181
0.0010706665
0.00093303336
0.00081083712
0.00070256641
0.00060685632
0.00052246846
0.00044827459
0.00038324327
0.00032642933
0.00027696566
0.00023405671
0.00019697334
0.0001650485
0.00013767368
0.00011429559
9.4413234e-05
7.7574896e-05
6.3375324e-05
5.1452735e-05
4.1485955e-05
3.319129e-05
2.6319894e-05
2.0653996e-05
1.6006153e-05
1.2210758e-05
9.1364754e-06
6.6456442e-06
4.6854086e-06
3.0721005e-06
1.9650908e-06
8.9927025e-07
1.1085176e-06
1.4915112e-06
0.0075239293
0.0068585829
0.006242027
0.0056630635
0.0051174062
0.0046043727
0.0041272065
0.0036876197
0.0032860897
0.0029217797
0.0025927403
0.002296462
0.002030267
0.0017914904
0.0015775872
0.0013861993
0.0012151773
0.0010625758
0.00092663793
0.00080577681
0.00069855564
0.00060366886
0.00051992548
0.00044623522
0.00038159707
0.00032509021
0.00027586694
0.00023314707
0.00019621347
0.00016440848
0.00013713078
0.00011383257
9.4016923e-05
7.7235166e-05
6.3084249e-05
5.1203985e-05
4.1274333e-05
3.301242e-05
2.6169996e-05
2.0529741e-05
1.5904576e-05
1.2129203e-05
9.0725794e-06
6.5973868e-06
4.6508289e-06
3.0499873e-06
1.9531883e-06
8.9411632e-07
1.0665784e-06
1.3214827e-06
0.0066864048
0.0062343362
0.0057870222
0.0053354371
0.0048784567
0.0044268138
0.003993622
0.0035867159
0.0032097922
0.0028640308
0.0025490054
0.0022633443
0.0020052006
0.0017725321
0.0015632666
0.001375401
0.0012070522
0.0010564754
0.00092206617
0.00080235401
0.00069599135
0.00060174154
0.00051846701
0.00044511892
0.00038072842
0.00032439958
0.00027530385
0.00023267557
0.00019580854
0.00016405317
0.00013681395
0.00011354715
9.3758589e-05
7.7001374e-05
6.2873493e-05
5.1015305e-05
4.1106974e-05
3.2865638e-05
2.604294e-05
2.0421421e-05
1.5813872e-05
1.205489e-05
9.0133781e-06
6.5521383e-06
4.6180497e-06
3.0292031e-06
1.9414758e-06
8.9012915e-07
1.0189046e-06
1.146009e-06
0.0058187169
0.0055834468
0.0052988087
0.0049640322
0.0045949331
0.0042119145
0.0038318213
0.0034656899
0.0031198562
0.0027975288
0.0024999923
0.0022273208
0.0019788053
0.0017532631
0.0015492658
0.0013652897
0.0011998059
0.0010513309
0.0009184543
0.00079984961
0.00069427749
0.00060058277
0.00051768969
0.00044459641
0.00038036982
0.00032414112
0.00027510213
0.00023250235
0.00019564664
0.00016389325
0.00013665205
0.00011338281
9.3593452e-05
7.6838126e-05
6.2715171e-05
5.0864818e-05
4.0966806e-05
3.2737713e-05
2.5928569e-05
2.0321328e-05
1.5728272e-05
1.1983583e-05
8.9558275e-06
6.5077716e-06
4.5855964e-06
3.0087898e-06
1.9291376e-06
8.8708366e-07
9.6626336e-07
9.7283198e-07
0.0049551897
0.004885991
0.004731197
0.0045059806
0.0042340357
0.0039348082
0.0036225384
0.0033091889
0.0030037265
0.002711912
0.0024371719
0.0021813946
0.0019453491
0.0017289925
0.0015317513
0.0013527378
0.001190892
0.0010450752
0.00091412967
0.00079691574
0.00069233269
0.00059932918
0.00051690769
0.00044412571
0.00038009521
0.00032398162
0.00027500255
0.00023242678
0.0001955733
0.00016381045
0.00013655505
0.00011327146
9.3470345e-05
7.6707303e-05
6.2581164e-05
5.073203e-05
4.0839119e-05
3.2618288e-05
2.5819768e-05
2.0224731e-05
1.5644775e-05
1.1913485e-05
8.8989514e-06
6.4637992e-06
4.5532816e-06
2.9885796e-06
1.9160622e-06
8.847622e-07
9.1064935e-07
8.1007901e-07
0.0040155843
0.0040427924
0.0039938426
0.0038734548
0.0037041727
0.0035001731
0.0032712048
0.0030279213
0.0027801534
0.0025351382
0.0022978812
0.0020718467
0.0018592633
0.0016613479
0.0014785717
0.0013108954
0.0011579373
0.0010190933
0.0008936242
0.00078071676
0.00067952422
0.0005891929
0.00050887941
0.00043776163
0.00037504586
0.00031997157
0.00027181466
0.0002298898
0.00019355217
0.00016219867
0.00013526863
0.00011224411
9.2649715e-05
7.6052002e-05
6.2058389e-05
5.0315723e-05
4.0508517e-05
3.2356795e-05
2.5614069e-05
2.0064135e-05
1.5520627e-05
1.1818944e-05
8.8281826e-06
6.4129924e-06
4.5173559e-06
2.9678514e-06
1.9008677e-06
8.8344745e-07
8.5282885e-07
6.6682247e-07
0.0031124788
0.003192648
0.0032097918
0.0031640868
0.003073591
0.0029486708
0.0027950709
0.0026209764
0.0024351695
0.0022445734
0.0020543586
0.0018685098
0.0016899664
0.0015207095
0.0013619556
0.0012143543
0.0010781378
0.00095323521
0.00083936239
0.00073609058
0.00064289587
0.00055919477
0.00048436975
0.00041778753
0.00035881248
0.00030681652
0.00026118664
0.00022133075
0.00018668231
0.00015670385
0.00013088967
0.00010876782
8.9901281e-05
7.3888497e-05
6.036336e-05
4.8994601e-05
3.948476e-05
3.1568675e-05
2.5011954e-05
1.9608326e-05
1.5179332e-05
1.1567218e-05
8.6455252e-06
6.2850459e-06
4.4288371e-06
2.9150609e-06
1.8631939e-06
8.7478823e-07
7.7914454e-07
5.3064829e-07
0.0023358279
0.0024507203
0.0025140882
0.002525845
0.0024971268
0.0024354934
0.0023444574
0.0022298273
0.0020988216
0.0019576195
0.0018111318
0.0016634268
0.0015177816
0.0013766559
0.001241798
0.0011143918
0.00099517641
0.00088454233
0.00078261471
0.00068932116
0.00060444459
0.00052766358
0.00045858333
0.00039675939
0.00034171592
0.00029295997
0.00024999273
0.00021231854
0.00017945217
0.00015092469
0.00012628798
0.0001051184
8.7019306e-05
7.1622825e-05
5.8590824e-05
4.7615195e-05
3.8417577e-05
3.0748514e-05
2.4386442e-05
1.9135628e-05
1.4825983e-05
1.1307031e-05
8.4569377e-06
6.1531721e-06
4.3372983e-06
2.860889e-06
1.8226396e-06
8.6726116e-07
6.9909092e-07
4.0281116e-07
0.0016831043
0.001815916
0.0019077124
0.0019593847
0.0019759818
0.0019625186
0.0019212843
0.0018560589
0.0017721916
0.0016747675
0.0015681168
0.0014560359
0.0013417936
0.0012280403
0.001116829
0.001009703
0.00090777846
0.0008118154
0.00072228499
0.00063942958
0.00056331278
0.00049386012
0.00043089192
0.00037414988
0.00032331849
0.00027804234
0.00023794031
0.00020261717
0.00017167312
0.00014471168
0.00012134606
0.00010120428
8.3933069e-05
6.9200861e-05
5.669975e-05
4.6146714e-05
3.7284113e-05
2.9879542e-05
2.372538e-05
1.863734e-05
1.4454439e-05
1.1034073e-05
8.2594711e-06
6.0152168e-06
4.2414054e-06
2.80393e-06
1.7789206e-06
8.5953347e-07
6.1844067e-07
2.93386e-07
0.0011581559
0.0012916646
0.0013954685
0.0014703037
0.0015167041
0.0015372101
0.0015331751
0.0015067996
0.0014616047
0.0014013857
0.001329668
0.0012497207
0.0011645242
0.0010766568
0.00098825329
0.00090103349
0.00081634521
0.00073520699
0.00065835412
0.0005862849
0.00051930278
0.00045755285
0.00040105316
0.00034972136
0.00030339703
0.00026186058
0.00022484907
0.00019206958
0.00016321052
0.00013795103
0.00011596889
9.6946948e-05
8.0578347e-05
6.657053e-05
5.4648271e-05
4.4555769e-05
3.6057945e-05
2.8941013e-05
2.3012609e-05
1.8100981e-05
1.405515e-05
1.0741095e-05
8.0477129e-06
5.8671173e-06
4.1383005e-06
2.7418983e-06
1.7309384e-06
8.5015415e-07
5.4048381e-07
2.0765114e-07
0.00075610898
0.00087651705
0.00097852003
0.0010618546
0.0011241824
0.0011658619
0.0011872654
0.0011893503
0.0011740695
0.0011439151
0.0011014826
0.0010493531
0.000990024
0.00092579356
0.00085868323
0.00079041771
0.0007224314
0.00065588334
0.00059168032
0.00053050584
0.00047285046
0.00041904061
0.00036926515
0.00032359934
0.000282026
0.00024445419
0.0002107354
0.00018067766
0.00015405775
0.0001306317
0.00011014369
9.2333628e-05
7.6943301e-05
6.3721433e-05
5.2427593e-05
4.2835139e-05
3.4733284e-05
2.7928372e-05
2.2244597e-05
1.7523832e-05
1.3626033e-05
1.0426479e-05
7.8204121e-06
5.7078177e-06
4.0272125e-06
2.6739125e-06
1.6785074e-06
8.3807978e-07
4.6791657e-07
1.4742577e-07
0.00046392528
0.00056278235
0.0006530276
0.00073335755
0.00080003829
0.00085185613
0.0008882287
0.00090911088
0.00091520967
0.00090784388
0.00088866596
0.00085950045
0.00082224815
0.0007787825
0.00073085878
0.00068006076
0.000627777
0.000575192
0.00052328824
0.00047285712
0.00042451548
0.00037872429
0.0003358081
0.00029597404
0.00025932987
0.00022590069
0.00019564416
0.00016846423
0.00014422341
0.00012275359
0.00010386556
8.7357124e-05
7.3020108e-05
6.0646087e-05
5.0031091e-05
4.0979267e-05
3.3305663e-05
2.6838148e-05
2.1418721e-05
1.6903952e-05
1.3165667e-05
1.0089171e-05
7.5767839e-06
5.536653e-06
3.9076887e-06
2.5993589e-06
1.6217358e-06
8.2236751e-07
4.0279846e-07
1.1124413e-07
0.0002647518
0.00033848591
0.00041106297
0.00048052557
0.00054284004
0.00059592636
0.0006384666
0.00066965562
0.00068927861
0.00069769862
0.00069570963
0.00068439591
0.00066503193
0.00063899011
0.0006076555
0.00057236039
0.00053433884
0.00049469898
0.00045440808
0.00041428774
0.00037501656
0.00033713791
0.00030107068
0.00026712189
0.00023550002
0.0002063283
0.00017965768
0.00015547912
0.00013373494
0.00011432934
9.7137729e-05
8.2015176e-05
6.8803636e-05
5.7338222e-05
4.7452422e-05
3.8982348e-05
3.1770097e-05
2.5666262e-05
2.0531768e-05
1.6238886e-05
1.2672223e-05
9.7278217e-06
7.3158514e-06
5.3528737e-06
3.7792616e-06
2.5177218e-06
1.5608566e-06
8.0228101e-07
3.4630242e-07
9.471123e-08
0.00014094908
0.00018953305
0.00024199638
0.00029616453
0.00034835894
0.00039622963
0.00043805898
0.00047255975
0.00049890372
0.0005167533
0.00052620156
0.00052767833
0.00052186777
0.00050963315
0.00049194328
0.00046980856
0.00044422976
0.00041615821
0.00038646827
0.00035594041
0.00032525229
0.00029497613
0.00026558072
0.00023743684
0.00021082487
0.00018594377
0.00016292069
0.00014182083
0.00012265715
0.00010539971
8.9984353e-05
7.6320772e-05
6.4299704e-05
5.3799304e-05
4.4690631e-05
3.6842272e-05
3.0124118e-05
2.4410344e-05
1.9581693e-05
1.5526994e-05
1.2144458e-05
9.3415367e-06
7.0370067e-06
5.1560742e-06
3.6417593e-06
2.428853e-06
1.4963379e-06
7.7753538e-07
2.9879227e-07
9.1610933e-08
7.586187e-05
0.00010152194
0.00013400524
0.00017124466
0.00021022093
0.00024871862
0.00028494948
0.00031742407
0.00034498101
0.00036683736
0.00038258094
0.00039212303
0.00039564481
0.00039354396
0.00038637933
0.00037481614
0.0003595774
0.00034140288
0.00032101536
0.00029909539
0.00027626411
0.00025307222
0.00022999433
0.00020742733
0.00018569219
0.00016503798
0.00014564761
0.00012764454
0.0001111001
9.6041062e-05
8.2457079e-05
7.0307859e-05
5.9529873e-05
5.0042465e-05
4.1753306e-05
3.4563124e-05
2.8369712e-05
2.3071211e-05
1.8568733e-05
1.4768287e-05
1.1582346e-05
8.9303419e-06
6.7403566e-06
4.9464475e-06
3.4954852e-06
2.3331013e-06
1.4288995e-06
7.4837706e-07
2.600118e-07
9.5421531e-08
5.4843895e-05
6.0999365e-05
7.5304689e-05
9.5983456e-05
0.00012075348
0.00014775238
0.00017536266
0.00020212552
0.0002267809
0.00024832882
0.00026605136
0.00027950096
0.00028847597
0.00029299086
0.00029324087
0.00028956263
0.00028239417
0.00027223813
0.00025962916
0.00024510604
0.00022918948
0.00021236577
0.00019507511
0.00017770442
0.00016058364
0.00014398503
0.00012812472
0.00011316602
9.9223934e-05
8.6370378e-05
7.4639958e-05
6.4035803e-05
5.4535339e-05
4.6095792e-05
3.8659263e-05
3.2157315e-05
2.651497e-05
2.1654117e-05
1.7496334e-05
1.3965092e-05
1.0987541e-05
8.4955012e-06
6.4269355e-06
4.7249202e-06
3.3413e-06
2.2313481e-06
1.3594862e-06
7.1556024e-07
2.2930286e-07
1.007391e-07
6.5665807e-05
5.6143836e-05
5.4966709e-05
6.0713622e-05
7.1789849e-05
8.6763629e-05
0.00010432071
0.0001231898
0.00014218528
0.00016027253
0.00017660452
0.00019053235
0.00020160368
0.00020955378
0.00021428929
0.00021586524
0.00021445795
0.00021033652
0.00020383533
0.0001953286
0.00018520774
0.00017386241
0.00016166571
0.00014896283
0.00013606335
0.00012323634
0.0001107082
9.8662476e-05
8.7241424e-05
7.6548762e-05
6.6653325e-05
5.7593271e-05
4.9380569e-05
4.2005546e-05
3.5441302e-05
2.9647852e-05
2.4575899e-05
2.0170155e-05
1.6372197e-05
1.3122805e-05
1.0363898e-05
8.0398568e-06
6.0989107e-06
4.4932522e-06
3.1806512e-06
2.1249591e-06
1.2891839e-06
6.8019229e-07
2.0573065e-07
1.0413425e-07
9.8502727e-05
7.7025431e-05
6.3376985e-05
5.6479273e-05
5.5314287e-05
5.8868684e-05
6.6172317e-05
7.6220013e-05
8.8007341e-05
0.00010059226
0.00011313563
0.00012492252
0.00013537464
0.00014405663
0.00015067519
0.00015507094
0.00015720431
0.00015713779
0.00015501618
0.00015104639
0.00014547799
0.00013858511
0.00013065079
0.00012195396
0.00011275909
0.00010330848
9.3817001e-05
8.4469014e-05
7.5417092e-05
6.6782314e-05
5.8655731e-05
5.1100723e-05
4.4155971e-05
3.7838786e-05
3.2148602e-05
2.7070432e-05
2.2578179e-05
1.863767e-05
1.5209372e-05
1.2250712e-05
9.7180526e-06
7.5682137e-06
5.7598168e-06
4.2541479e-06
3.0156046e-06
2.0157232e-06
1.2191568e-06
6.4355516e-07
1.8815633e-07
1.0424683e-07
0.00014569976
0.00011559535
9.2418071e-05
7.5380547e-05
6.3911166e-05
5.735541e-05
5.5066971e-05
5.6322792e-05
6.0346813e-05
6.6362466e-05
7.362994e-05
8.1469625e-05
8.9280486e-05
9.6554928e-05
0.00010288819
0.00010798128
0.00011163809
0.0001137578
0.00011432401
0.00011339141
0.00011107145
0.00010751768
0.00010291177
9.7450759e-05
9.1336027e-05
8.4764173e-05
7.7919823e-05
7.0970346e-05
6.4062368e-05
5.7319831e-05
5.0843413e-05
4.4711035e-05
3.897921e-05
3.368502e-05
2.8848482e-05
2.4475136e-05
2.0558685e-05
1.7083561e-05
1.4027324e-05
1.1362813e-05
9.060039e-06
7.0877665e-06
5.4148238e-06
4.0113898e-06
2.848886e-06
1.905789e-06
1.1506001e-06
6.0692507e-07
1.7528424e-07
1.0124331e-07
0.00020144167
0.00016551829
0.00013546339
0.00011071709
9.1029024e-05
7.6026264e-05
6.5333903e-05
5.8486133e-05
5.4937665e-05
5.4104783e-05
5.5395512e-05
5.8229934e-05
6.2058551e-05
6.6379848e-05
7.0754673e-05
7.4815952e-05
7.827363e-05
8.091533e-05
8.260331e-05
8.3268338e-05
8.2901264e-05
8.1543109e-05
7.9274464e-05
7.6204864e-05
7.2462723e-05
6.818628e-05
6.3515752e-05
5.858692e-05
5.3526131e-05
4.8446722e-05
4.344673e-05
3.8607737e-05
3.3994691e-05
2.9656488e-05
2.5627151e-05
2.1927411e-05
1.8566541e-05
1.5544295e-05
1.2852838e-05
1.0478585e-05
8.4038901e-06
6.6085502e-06
5.0710505e-06
3.7700285e-06
2.6839811e-06
1.79767e-06
1.0847706e-06
5.7148172e-07
1.6578832e-07
9.6032517e-08
0.00026140784
0.00022193257
0.0001872568
0.00015698925
0.00013109396
0.00010940316
9.1750111e-05
7.788061e-05
6.745448e-05
6.0075584e-05
5.5313845e-05
5.2720031e-05
5.1840642e-05
5.2234056e-05
5.3485647e-05
5.5220187e-05
5.7111052e-05
5.888624e-05
6.033122e-05
6.12888e-05
6.1656351e-05
6.13809e-05
6.0452695e-05
5.8897812e-05
5.6770344e-05
5.4144682e-05
5.1108261e-05
4.7755047e-05
4.4179984e-05
4.0474467e-05
3.6722903e-05
3.3000276e-05
2.9370671e-05
2.5886609e-05
2.2589064e-05
1.950802e-05
1.6663423e-05
1.4066391e-05
1.1720566e-05
9.6235202e-06
7.7681177e-06
6.1438339e-06
4.7378653e-06
3.5365897e-06
2.5252678e-06
1.6943013e-06
1.0230687e-06
5.3829726e-07
1.5850436e-07
8.9623439e-08
0.00032245772
0.00028119422
0.00024373517
0.0002098101
0.00017951363
0.00015281717
0.00012970135
0.00011007202
9.3754987e-05
8.0516931e-05
7.0079995e-05
6.2130758e-05
5.6330324e-05
5.232686e-05
4.976867e-05
4.8316206e-05
4.7652453e-05
4.749142e-05
4.7584484e-05
4.7724391e-05
4.7746909e-05
4.753033e-05
4.6993117e-05
4.6090082e-05
4.4807524e-05
4.3157723e-05
4.1173209e-05
3.8901143e-05
3.6398057e-05
3.3725199e-05
3.0944568e-05
2.8115746e-05
2.5293492e-05
2.2526105e-05
1.9854449e-05
1.7311569e-05
1.4922774e-05
1.2706094e-05
1.0672992e-05
8.8292449e-06
7.1759095e-06
5.7103375e-06
4.4270877e-06
3.3192424e-06
2.3781517e-06
1.5991398e-06
9.671653e-07
5.0840596e-07
1.5264125e-07
8.2814439e-08
0.00038236317
0.00034063613
0.00030183373
0.00026577052
0.00023261063
0.00020241252
0.00017525258
0.00015114844
0.00013004991
0.00011185309
9.64092e-05
8.352862e-05
7.2986334e-05
6.453024e-05
5.7890875e-05
5.2791187e-05
4.8955924e-05
4.6120287e-05
4.4037524e-05
4.2485054e-05
4.126892e-05
4.0226482e-05
3.922741e-05
3.8173114e-05
3.6994873e-05
3.5650909e-05
3.4122737e-05
3.2411101e-05
3.0531766e-05
2.8511421e-05
2.6383881e-05
2.4186726e-05
2.195848e-05
1.9736358e-05
1.7554582e-05
1.5443238e-05
1.3427619e-05
1.1527969e-05
9.759561e-06
8.1330303e-06
6.6548801e-06
5.3281337e-06
4.1529769e-06
3.1278339e-06
2.2491241e-06
1.5162383e-06
9.1910438e-07
4.8289402e-07
1.4789775e-07
7.6150954e-08
0.00043959059
0.00039835755
0.00035929846
0.00032228776
0.00028751721
0.00025509407
0.00022515031
0.00019777487
0.00017300317
0.00015082641
0.00013119646
0.00011402631
9.919183e-05
8.6536226e-05
7.5876241e-05
6.7008967e-05
5.9719056e-05
5.3786039e-05
4.8991467e-05
4.5125438e-05
4.1992223e-05
3.941474e-05
3.7237762e-05
3.5329824e-05
3.3583874e-05
3.1916779e-05
3.0267885e-05
2.8596817e-05
2.6880778e-05
2.5111549e-05
2.329241e-05
2.1435146e-05
1.9557288e-05
1.7679682e-05
1.5824449e-05
1.4013364e-05
1.2266642e-05
1.0602116e-05
9.034757e-06
7.5764832e-06
6.2362086e-06
5.0200985e-06
3.9318982e-06
2.9737061e-06
2.1456798e-06
1.4502425e-06
8.81342e-07
4.6296935e-07
1.444424e-07
6.9991774e-08
0.00049312779
0.00045304805
0.00041451848
0.00037745645
0.00034205463
0.00030844272
0.00027677907
0.0002471928
0.00021977311
0.00019457566
0.00017162483
0.00015091202
0.00013239489
0.00011599887
0.00010162028
8.9130301e-05
7.837966e-05
6.9203905e-05
6.1429093e-05
5.4877508e-05
4.9373152e-05
4.4746703e-05
4.0839771e-05
3.7508263e-05
3.4624792e-05
3.2080095e-05
2.9783517e-05
2.7662646e-05
2.5662241e-05
2.3742617e-05
2.187765e-05
2.0052577e-05
1.8261732e-05
1.6506353e-05
1.4792562e-05
1.3129579e-05
1.1528227e-05
9.9997378e-06
8.5548538e-06
7.203215e-06
5.9529954e-06
4.810779e-06
3.7815647e-06
2.8692103e-06
2.0760262e-06
1.4062483e-06
8.566762e-07
4.4996976e-07
1.4277353e-07
6.456823e-08
0.00054234846
0.00050384412
0.00046638229
0.00042991234
0.00039461212
0.00036061671
0.00032809118
0.0002971823
0.00026800884
0.00024066591
0.00021522577
0.00019173515
0.00017021295
0.00015064982
0.00013300902
0.00011722803
0.00010322096
9.0881697e-05
8.0087723e-05
7.0704419e-05
6.2589561e-05
5.55978e-05
4.9584958e-05
4.4411884e-05
3.9947755e-05
3.6072686e-05
3.2679608e-05
2.967539e-05
2.6981244e-05
2.4532494e-05
2.227782e-05
2.0178076e-05
1.8204837e-05
1.6338778e-05
1.4568006e-05
1.288644e-05
1.1292315e-05
9.7868537e-06
8.373155e-06
7.0552982e-06
5.8376736e-06
4.7245425e-06
3.7197478e-06
2.826841e-06
2.0485282e-06
1.3894808e-06
8.4805152e-07
4.4529466e-07
1.4353648e-07
6.0015396e-08
0.0005869054
0.00055021292
0.00051415693
0.00047871189
0.00044403276
0.00041024986
0.00037752261
0.00034600043
0.00031581432
0.00028707997
0.00025989785
0.00023435022
0.00021049821
0.00018838033
0.00016801181
0.00014938458
0.00013246788
0.00011720961
0.00010353833
9.1365995e-05
8.059104e-05
7.1101855e-05
6.2780403e-05
5.5505811e-05
4.9157786e-05
4.3619689e-05
3.8781162e-05
3.4540223e-05
3.0804783e-05
2.7493579e-05
2.453656e-05
2.1874782e-05
1.9459884e-05
1.7253256e-05
1.5224971e-05
1.3352602e-05
1.1619984e-05
1.0016015e-05
8.5335319e-06
7.1683264e-06
5.9183109e-06
4.7828702e-06
3.762348e-06
2.8579074e-06
2.0708293e-06
1.4047526e-06
8.5822581e-07
4.502553e-07
1.4735638e-07
5.6393578e-08
0.00062664754
0.00059185999
0.00055738908
0.00052323026
0.00048951246
0.00045635586
0.00042390737
0.00039230976
0.00036169484
0.00033218562
0.00030389615
0.00027692865
0.00025137062
0.0002272928
0.00020474774
0.00018376878
0.00016436944
0.00014654337
0.00013026501
0.00011549074
0.00010216063
9.0200704e-05
7.9525484e-05
7.0040861e-05
6.1647046e-05
5.4241504e-05
4.7721736e-05
4.1987789e-05
3.6944415e-05
3.2502797e-05
2.8581834e-05
2.5108956e-05
2.2020514e-05
1.9261777e-05
1.6786611e-05
1.4556891e-05
1.2541745e-05
1.0716684e-05
9.0626927e-06
7.5653388e-06
6.213943e-06
5.0008603e-06
3.9208475e-06
2.9707409e-06
2.1486419e-06
1.4556949e-06
8.8930333e-07
4.6584901e-07
1.547068e-07
5.3709221e-08
0.00066154909
0.0006286494
0.00059581799
0.00056306887
0.00053050482
0.00049823376
0.00046638695
0.00043509559
0.00040448535
0.000374678
0.00034579109
0.00031793551
0.00029121286
0.00026571337
0.00024151415
0.00021867768
0.00019725046
0.00017726216
0.00015872516
0.0001416346
0.00012596897
0.00011169112
9.8749783e-05
8.7081455e-05
7.6612559e-05
6.7261842e-05
5.8942849e-05
5.1566371e-05
4.5042781e-05
3.928414e-05
3.4206031e-05
2.972904e-05
2.5779885e-05
2.229217e-05
1.9206795e-05
1.6472051e-05
1.404345e-05
1.1883344e-05
9.9603971e-06
8.2489622e-06
6.7284201e-06
5.3825379e-06
4.1988417e-06
3.1682172e-06
2.2840533e-06
1.5436669e-06
9.4208213e-07
4.9243308e-07
1.6578455e-07
5.1928491e-08
0.00069166219
0.00066054922
0.00062931428
0.00059798882
0.00056665095
0.00053539619
0.00050433958
0.00047359876
0.00044328976
0.00041352816
0.0003844287
0.00035610336
0.00032865915
0.00030219622
0.00027680609
0.00025256997
0.00022955714
0.00020782362
0.00018741102
0.00016834591
0.00015063938
0.00013428723
0.0001192704
0.00010555595
9.3098336e-05
8.1841067e-05
7.171857e-05
6.2658258e-05
5.4582666e-05
4.7411562e-05
4.1063981e-05
3.5460063e-05
3.052267e-05
2.6178721e-05
2.2360226e-05
1.9005023e-05
1.6057217e-05
1.3467363e-05
1.1192418e-05
9.1955207e-06
7.4456315e-06
5.9171058e-06
4.589194e-06
3.445687e-06
2.474089e-06
1.666824e-06
1.015505e-06
5.2945995e-07
1.8043863e-07
5.0986932e-08
0.00071704652
0.00068755297
0.00065779394
0.00062781779
0.00059768034
0.00056746576
0.00053727396
0.00050720904
0.00047737624
0.00044788263
0.00041883678
0.00039034728
0.00036252094
0.00033546125
0.00030926672
0.00028402929
0.00025983262
0.00023675061
0.00021484592
0.00019416887
0.0001747564
0.00015663159