/*--------------------------------*- C++ -*----------------------------------*\
  =========                 |
  \\      /  F ield         | OpenFOAM: The Open Source CFD Toolbox
   \\    /   O peration     | Website:  https://openfoam.org
    \\  /    A nd           | Version:  6
     \\/     M anipulation  |
\*---------------------------------------------------------------------------*/
FoamFile
{
    version     2.0;
    format      ascii;
    class       volVectorField;
    location    "217";
    object      U;
}
// * * * * * * * * * * * * * * * * * * * * * * * * * * * * * * * * * * * * * //

dimensions      [0 1 -1 0 0 0 0];

internalField   nonuniform List<vector> 
9200
(
(0.0010393462 0.0014199822 -5.9201843e-20)
(0.013676067 -0.0020583667 4.6042532e-20)
(0.038313167 -0.0058665681 -3.8501738e-20)
(0.072274438 -0.0097635052 -6.0257747e-20)
(0.11376474 -0.013490029 1.8826965e-20)
(0.16158089 -0.016605658 3.2743879e-20)
(0.21467148 -0.018817285 -1.2268009e-20)
(0.27206608 -0.01997389 9.2688626e-21)
(0.33285623 -0.020011222 1.6803425e-20)
(0.39616348 -0.018929051 1.4848072e-21)
(0.46111556 -0.016779814 -2.1456336e-20)
(0.52683687 -0.013657729 2.0670006e-20)
(0.59245068 -0.0096879948 -4.0422155e-20)
(0.65709131 -0.0050157718 -2.1133904e-20)
(0.71992472 0.0002055676 5.9046533e-21)
(0.78017502 0.0058241027 -2.5131675e-20)
(0.8371706 0.011712822 2.5217109e-20)
(0.89046876 0.017918523 2.2243169e-20)
(0.93967071 0.024573424 -2.9929987e-22)
(0.98205187 0.028293394 -1.6691893e-21)
(0.0052521803 -0.0013462729 -1.7059353e-20)
(0.026962501 -0.0089890261 3.9747708e-20)
(0.061670116 -0.014809763 2.3576297e-20)
(0.10629489 -0.019172268 -1.1569757e-19)
(0.15873565 -0.022213994 -1.2727089e-20)
(0.21753352 -0.023720682 7.3297075e-20)
(0.28137296 -0.023595092 -3.5476399e-20)
(0.34900601 -0.02186896 -8.3905563e-21)
(0.4192392 -0.018645519 3.4287539e-20)
(0.49090944 -0.014080835 -4.3259578e-20)
(0.56287232 -0.0083759436 -3.0338479e-20)
(0.63400847 -0.0017665863 7.192143e-20)
(0.7032433 0.0054884035 3.829405e-20)
(0.76957581 0.013118642 -6.7976561e-20)
(0.83211246 0.020852093 1.462369e-20)
(0.89010037 0.028419715 -3.6733399e-20)
(0.94296917 0.035569684 -1.3777189e-20)
(0.9904323 0.042140896 7.0974759e-20)
(1.032356 0.047715317 2.9642006e-20)
(1.0669348 0.049139696 -8.3478398e-20)
(0.010858427 -0.0040424157 3.6773458e-20)
(0.043953413 -0.015431076 2.5047378e-21)
(0.090515435 -0.022552282 2.2341714e-20)
(0.14711139 -0.026497357 9.8116819e-22)
(0.21134254 -0.027886295 -4.0773939e-20)
(0.28146767 -0.026795112 1.8576401e-20)
(0.3558704 -0.023382725 1.3420301e-20)
(0.43299007 -0.017921534 -5.0327701e-20)
(0.51132477 -0.010735647 5.7261856e-20)
(0.58942613 -0.0021838765 1.4256685e-20)
(0.66590916 0.0073479095 -5.4300705e-20)
(0.73948036 0.017460267 -1.82374e-20)
(0.80897598 0.027756566 9.0591669e-21)
(0.87340264 0.037859274 2.3444737e-20)
(0.93197362 0.047424045 -1.1362505e-20)
(0.98413367 0.056148974 2.787773e-20)
(1.029574 0.063789174 -2.0188236e-20)
(1.0682645 0.070204391 -7.0123619e-20)
(1.1003322 0.075119375 -2.3796304e-20)
(1.1249112 0.076641232 4.8659986e-20)
(0.017957214 -0.0064221632 2.4508016e-20)
(0.064776995 -0.020694799 5.1039223e-20)
(0.12485228 -0.028060846 1.9881694e-20)
(0.19446966 -0.030464064 1.2990093e-20)
(0.27094931 -0.02909484 1.7275701e-20)
(0.35224879 -0.024388977 -4.7720169e-20)
(0.43643139 -0.01682597 -2.5646854e-20)
(0.52162008 -0.0069766681 0)
(0.60602895 0.0045670342 1.3920612e-20)
(0.68798707 0.017211733 -5.852336e-21)
(0.76597517 0.030373923 -9.7934941e-20)
(0.83867447 0.043499633 -1.5774818e-20)
(0.90501526 0.056086618 6.5103193e-20)
(0.9642157 0.067704136 4.8443064e-22)
(1.0158035 0.078007715 -1.5725568e-21)
(1.0596155 0.086746792 2.1957498e-20)
(1.0957773 0.093772227 -5.2647182e-21)
(1.12468 0.099065333 -6.1029758e-20)
(1.1468647 0.10259708 -4.5851295e-20)
(1.1622957 0.10341385 6.9520643e-20)
(0.02657942 -0.008205688 -3.9194208e-21)
(0.08934402 -0.024033506 -5.1256336e-21)
(0.16430754 -0.030264987 5.6599408e-20)
(0.2475812 -0.029810018 1.8539322e-20)
(0.33624161 -0.024513026 -3.1955064e-20)
(0.42795126 -0.015239858 1.216384e-20)
(0.52047262 -0.0028513608 2.640286e-21)
(0.61166357 0.011737097 3.3609166e-20)
(0.69954712 0.027640144 5.65995e-21)
(0.78236837 0.044028771 -1.3204738e-20)
(0.85865406 0.060147726 6.0154031e-20)
(0.92726911 0.075340472 -5.8009355e-20)
(0.98745676 0.089072862 -1.3216612e-19)
(1.0388531 0.10094902 -5.5773033e-21)
(1.0814725 0.11071709 8.3150771e-20)
(1.1156655 0.11826405 0)
(1.1420548 0.12360583 1.0118965e-20)
(1.1614668 0.12689056 -1.5459769e-20)
(1.1748179 0.12829871 -8.59946e-21)
(1.1826673 0.12744916 2.099222e-20)
(0.036666909 -0.0090895795 -5.4309137e-21)
(0.11731511 -0.024685357 4.3578745e-21)
(0.20811868 -0.028140177 -8.7629836e-21)
(0.30515702 -0.023414953 2.8472395e-20)
(0.40533539 -0.01307559 -2.9392662e-20)
(0.50607147 0.001522617 -1.6927022e-20)
(0.6049049 0.019095142 3.7364233e-20)
(0.69954959 0.038365256 4.7595458e-21)
(0.78800392 0.058167647 -2.4436054e-20)
(0.86863406 0.077483006 6.9867554e-20)
(0.94023973 0.095458644 5.2394103e-22)
(1.0020956 0.11143157 -8.0444308e-20)
(1.0539569 0.12494291 0)
(1.0960273 0.1357375 3.954211e-20)
(1.1288922 0.14374843 5.5235987e-21)
(1.1534278 0.14906893 -7.7566392e-20)
(1.1706991 0.15191914 -1.9586923e-20)
(1.1818623 0.15262368 -1.2467628e-20)
(1.1880592 0.15152606 -1.4709373e-20)
(1.190146 0.14858493 4.0420467e-20)
(0.048058868 -0.008767405 -1.7277959e-20)
(0.1480831 -0.021931993 -2.2198256e-21)
(0.2551407 -0.020797834 3.0380504e-20)
(0.36546384 -0.010412792 3.7484309e-20)
(0.47590421 0.0059015897 -1.9944733e-20)
(0.58374266 0.026269308 -6.9163027e-20)
(0.68644186 0.048977211 -2.7995794e-20)
(0.78176204 0.072417791 7.8929205e-20)
(0.86790196 0.09521248 8.577812e-21)
(0.94358916 0.11624961 -2.4873481e-20)
(1.0081258 0.13469827 1.3642213e-20)
(1.061387 0.15001555 -4.319448e-21)
(1.1037693 0.16193659 0)
(1.1360975 0.17044428 2.720348e-20)
(1.1595046 0.17572309 -7.9322404e-20)
(1.175302 0.1781037 -3.1475525e-20)
(1.184857 0.17800813 8.1054569e-20)
(1.1894921 0.17590945 -4.2969854e-21)
(1.1904029 0.17225559 3.5561067e-21)
(1.188508 0.16719298 2.7111531e-20)
(0.060485251 -0.0069573639 -3.2414615e-20)
(0.18077773 -0.01517038 -8.1624317e-20)
(0.30388929 -0.0075835263 2.5797763e-21)
(0.42642556 0.0097033572 7.0161807e-20)
(0.54535149 0.032631555 6.2424373e-20)
(0.65798101 0.058820044 -7.1574519e-20)
(0.76190883 0.086176509 -2.8275189e-22)
(0.85518291 0.11285231 8.5522542e-20)
(0.93645346 0.13737837 4.8828066e-20)
(1.0050415 0.1586937 -5.4218403e-20)
(1.0609356 0.17613563 -9.2334209e-20)
(1.1047242 0.18941354 -3.1589824e-21)
(1.1374759 0.19855944 4.2127863e-20)
(1.1605873 0.20385857 -6.6056275e-21)
(1.1756247 0.2057702 -1.2868786e-20)
(1.1841776 0.20484919 1.9690808e-20)
(1.1877427 0.20167897 4.3880615e-20)
(1.1876453 0.19682588 -4.385943e-20)
(1.1849954 0.19077884 -1.0232201e-19)
(1.180625 0.1837738 2.4566864e-20)
(0.073537216 -0.0034329735 -3.497975e-20)
(0.21422687 -0.0039890254 -1.7388611e-19)
(0.35251657 0.011839376 8.2103239e-20)
(0.48562798 0.037018337 9.2767512e-20)
(0.6108538 0.066835552 5.7970565e-20)
(0.72576727 0.098481178 8.610709e-21)
(0.82834803 0.12959696 -1.0624009e-19)
(0.91718998 0.15824269 0)
(0.99162744 0.18302814 -6.8748585e-20)
(1.0517521 0.20311206 -1.5202409e-20)
(1.0983384 0.2181486 5.4703462e-20)
(1.1327008 0.22821082 1.097338e-20)
(1.156511 0.2336926 -4.5613852e-20)
(1.1716068 0.23519947 -4.9081361e-20)
(1.1798204 0.23344336 2.4287678e-20)
(1.182845 0.22915323 4.4822888e-20)
(1.1821488 0.22300986 -5.5600407e-20)
(1.178936 0.21560823 -1.0751122e-19)
(1.1741468 0.20742224 -3.1513636e-21)
(1.1684567 0.19871881 2.7046403e-20)
(0.086650447 0.001961386 -3.5448992e-21)
(0.24696019 0.011816634 8.791324e-20)
(0.3988474 0.03749231 -1.6479245e-20)
(0.54040465 0.071218382 -8.4309146e-20)
(0.66949903 0.10778893 4.5164369e-20)
(0.78421953 0.14411543 4.9175451e-20)
(0.8831894 0.17775668 5.5356779e-21)
(0.9657787 0.2068849 -9.9502484e-20)
(1.0321763 0.23038802 -2.5048779e-21)
(1.0833328 0.24781553 5.0503541e-20)
(1.120807 0.25926301 5.9854759e-21)
(1.1465558 0.2652362 -1.9717204e-20)
(1.1627107 0.26650533 -7.5704624e-20)
(1.1713765 0.26396622 -6.2554027e-21)
(1.1744762 0.2585243 4.3533353e-20)
(1.1736548 0.25101089 3.7022013e-20)
(1.1702383 0.24213395 1.9793442e-20)
(1.1652402 0.23245875 -5.2994845e-20)
(1.1594014 0.22240418 1.2957451e-20)
(1.1532252 0.212238 8.2659105e-20)
(-0.0012932615 0.0014346597 -1.1234449e-21)
(-0.0047459602 0.0031874147 2.0646968e-21)
(-0.010771359 0.004135904 8.7949943e-22)
(-0.017754287 0.0045395359 -2.4411023e-21)
(-0.024740317 0.0045654165 -1.4114821e-21)
(-0.031299592 0.0043260385 1.546001e-21)
(-0.037161326 0.0039035381 -6.87008e-21)
(-0.042147441 0.0033577216 -5.9573035e-21)
(-0.046157775 0.0027313812 1.1171997e-20)
(-0.049146189 0.0020548305 -9.742748e-21)
(-0.051100653 0.0013493004 -1.983302e-22)
(-0.052030442 0.00062942191 3.667344e-21)
(-0.051957736 -9.4889478e-05 -6.3295576e-22)
(-0.050911881 -0.00081693037 2.2818743e-20)
(-0.048925777 -0.0015318447 3.0401088e-22)
(-0.046035341 -0.0022351739 -4.088287e-20)
(-0.042281798 -0.0029222679 7.5385617e-21)
(-0.037703443 -0.0035910384 2.3864109e-20)
(-0.032308695 -0.0042399864 -4.3852373e-20)
(-0.026156966 -0.0048211129 -2.7739203e-20)
(-0.0016521999 0.0041808662 -5.3716026e-21)
(-0.005397481 0.009268138 1.0865439e-20)
(-0.011218509 0.012007443 -1.0191542e-20)
(-0.017658025 0.013153764 3.9229736e-21)
(-0.023856432 0.013195413 4.8121432e-21)
(-0.029433317 0.012462724 7.1324175e-22)
(-0.034152319 0.011197013 -2.2509487e-20)
(-0.037860377 0.0095738967 -2.0370239e-21)
(-0.040474297 0.0077189871 2.0163538e-20)
(-0.041958921 0.0057212303 -5.0473596e-21)
(-0.042308949 0.0036428645 -2.1762588e-20)
(-0.041537336 0.0015267128 4.8973166e-21)
(-0.039667712 -0.00059830526 2.2635419e-20)
(-0.036729081 -0.0027127607 1.030839e-20)
(-0.032752035 -0.0048026887 2.1854284e-20)
(-0.027769172 -0.0068555079 -1.9770727e-20)
(-0.021824797 -0.008858219 -2.1672942e-20)
(-0.014966274 -0.010804224 2.1184616e-20)
(-0.0071290225 -0.012679 2.6810363e-20)
(0.0018742887 -0.014317222 1.5854764e-20)
(-0.0023034291 0.0065602326 -4.3568688e-21)
(-0.0065392237 0.014480195 -5.6387546e-21)
(-0.011892131 0.018710543 3.0723944e-22)
(-0.017211098 0.02042818 1.0959881e-21)
(-0.021819141 0.020400323 6.69184e-21)
(-0.02543104 0.019151665 1.0665168e-20)
(-0.027877231 0.017066287 -3.7227634e-21)
(-0.029053268 0.014423782 -1.8896164e-20)
(-0.028909036 0.011424352 6.5413167e-21)
(-0.02743105 0.0082099049 1.2862569e-20)
(-0.024627714 0.004879776 5.834085e-21)
(-0.020520109 0.0015022387 1.8159104e-20)
(-0.015135988 -0.001876863 1.7295913e-21)
(-0.0085054015 -0.0052272474 -3.3864526e-20)
(-0.0006568967 -0.0085276095 1.2020173e-21)
(0.0083810117 -0.011759108 -2.2139209e-20)
(0.01855686 -0.014904095 -2.4466301e-20)
(0.029802172 -0.017953751 4.5819707e-20)
(0.042304953 -0.020855115 2.5349345e-20)
(0.056738557 -0.023247764 1.2239266e-22)
(-0.0031290276 0.0083689699 -5.283307e-21)
(-0.0078963987 0.018336512 -8.4815267e-21)
(-0.012438986 0.023587808 4.3593047e-21)
(-0.016026534 0.025609658 4.146345e-21)
(-0.018235023 0.025382745 2.0105707e-21)
(-0.018912651 0.023589321 7.320995e-21)
(-0.017984717 0.020730272 9.3124771e-21)
(-0.01541671 0.017170377 -1.3511352e-21)
(-0.011207049 0.013171314 -1.1481945e-20)
(-0.0053752357 0.0089189315 -2.9071875e-20)
(0.0020481078 0.0045434373 6.1892555e-23)
(0.011026503 0.00013431131 4.0697818e-20)
(0.021522217 -0.0042489504 -1.838317e-20)
(0.033497841 -0.0085675841 -1.2296087e-20)
(0.046920499 -0.012795545 5.5348911e-22)
(0.06176008 -0.016911854 3.2302641e-20)
(0.077952995 -0.020901668 -1.4829543e-20)
(0.095392242 -0.024763373 -5.3339179e-20)
(0.11439842 -0.028379715 4.5765006e-20)
(0.13634535 -0.031073092 3.3013171e-20)
(-0.0039704095 0.0094657321 -6.8788991e-22)
(-0.0090916578 0.020487792 -1.253474e-20)
(-0.012364471 0.026159086 -3.4144534e-20)
(-0.01355254 0.028143338 -5.7241616e-21)
(-0.01253324 0.027555006 -3.6222742e-21)
(-0.0093167249 0.025188064 6.3051031e-21)
(-0.0039456458 0.021627411 -4.6461953e-21)
(0.0035261264 0.017298959 -8.8070259e-21)
(0.013036818 0.012508752 2.1899708e-20)
(0.024521238 0.0074744429 5.0567065e-21)
(0.037915534 0.0023489045 -2.5290293e-20)
(0.053157439 -0.0027627834 1.1078277e-20)
(0.070186859 -0.0077908737 0)
(0.088946572 -0.012691302 1.2089575e-20)
(0.10938543 -0.017436918 -9.7016168e-21)
(0.1314574 -0.022009895 -1.4337118e-20)
(0.15507405 -0.026408644 -1.5738935e-21)
(0.18006758 -0.030659418 -2.2181555e-21)
(0.2068534 -0.034576531 4.6147064e-20)
(0.23766357 -0.037019865 -1.0470128e-20)
(-0.0046450978 0.0097808622 -7.5356678e-21)
(-0.0096772507 0.02074788 2.45164e-20)
(-0.01106438 0.026160977 -1.0499346e-20)
(-0.0090968327 0.027724444 -2.746928e-20)
(-0.0039797213 0.026601694 -2.7548146e-20)
(0.0040961819 0.023648408 -1.4921568e-20)
(0.014954148 0.019496457 -6.9059558e-22)
(0.028436233 0.014604706 5.5499774e-21)
(0.044403144 0.0093034471 1.9615877e-20)
(0.062730492 0.0038284162 7.3530848e-21)
(0.08330431 -0.0016547542 -7.1862204e-21)
(0.10601897 -0.0070322374 -2.0102302e-21)
(0.13077356 -0.012229096 -3.8191707e-20)
(0.15746943 -0.017199751 -1.2693644e-20)
(0.18601199 -0.021919732 1.8750605e-20)
(0.21631176 -0.026379715 -2.1021672e-20)
(0.24823222 -0.03060222 -8.9730567e-21)
(0.28151866 -0.034670605 3.0440464e-20)
(0.31660702 -0.038364816 5.0472071e-20)
(0.35665014 -0.039964096 3.3559665e-21)
(-0.0049617684 0.0093139986 1.6783304e-20)
(-0.0091662692 0.019097709 1.4467938e-20)
(-0.0078593649 0.023563366 5.1145486e-20)
(-0.0018585398 0.024328943 2.338798e-20)
(0.0082957222 0.022523783 1.8251773e-22)
(0.022221939 0.019014385 -3.9388452e-20)
(0.03959744 0.014440936 -2.4313859e-20)
(0.060147901 0.0092663601 1.0465816e-20)
(0.083639111 0.003823229 1.4401585e-20)
(0.10986669 -0.0016512981 -1.311371e-20)
(0.13864562 -0.0069910082 -4.4038712e-20)
(0.1698017 -0.012082846 2.9618497e-20)
(0.20316404 -0.016854157 2.002055e-20)
(0.23855945 -0.021263992 -2.7551154e-20)
(0.27581229 -0.0252964 1.1650134e-20)
(0.3147481 -0.028957164 2.4197611e-20)
(0.35514544 -0.032303048 8.0723934e-21)
(0.39663386 -0.035506672 -1.1764209e-20)
(0.439577 -0.038392637 -1.4190298e-20)
(0.48798508 -0.038634396 5.8727579e-21)
(-0.0047307762 0.0081236732 1.1093845e-20)
(-0.0070586005 0.015671176 -2.3352718e-20)
(-0.0020293662 0.018562033 8.6200557e-21)
(0.0090325195 0.018216225 3.3587965e-20)
(0.02525636 0.01565115 5.2124339e-20)
(0.046066336 0.011695604 2.0276509e-20)
(0.07098452 0.0069609532 -5.863936e-21)
(0.099601945 0.0018829524 -1.2286282e-20)
(0.13156894 -0.0032271967 -6.2057471e-21)
(0.16657567 -0.0081496557 3.4240833e-20)
(0.20433424 -0.012733318 -4.510439e-21)
(0.24456484 -0.016879184 -1.66433e-20)
(0.28698469 -0.020528682 -1.9693572e-20)
(0.33129997 -0.023656407 -4.7443737e-20)
(0.37720457 -0.026265527 2.3238703e-20)
(0.42438768 -0.028387854 -1.4095983e-20)
(0.47249972 -0.030127612 2.5993398e-20)
(0.52103616 -0.03178318 2.1040821e-20)
(0.57021393 -0.033350667 -8.5570377e-20)
(0.62470915 -0.032058827 -1.0807395e-22)
(-0.003771052 0.0063146395 2.1925055e-20)
(-0.0028657666 0.010735096 -2.6165529e-20)
(0.0071421042 0.011564137 -4.5013295e-20)
(0.024450232 0.0099249904 -2.7253781e-20)
(0.047870849 0.0066523069 -2.0439867e-21)
(0.0766287 0.0024906184 1.3050093e-20)
(0.11007673 -0.0020153936 -2.8337685e-21)
(0.14765205 -0.0064879019 1.8118536e-20)
(0.18886095 -0.010663501 8.8685605e-21)
(0.23325194 -0.014362418 -1.1380172e-20)
(0.28039148 -0.017468945 8.877914e-21)
(0.32984602 -0.0199168 -2.3903267e-20)
(0.38116879 -0.021678691 8.0504779e-21)
(0.43389083 -0.022759867 1.6756392e-20)
(0.48751934 -0.023194292 -2.6395124e-21)
(0.54154714 -0.023046881 1.6618974e-21)
(0.59543544 -0.022469433 -3.195754e-22)
(0.64851782 -0.021870091 1.9590419e-20)
(0.70082238 -0.021445047 4.0433995e-21)
(0.75745149 -0.018499064 -5.7333643e-22)
(-0.0019110145 0.0040273483 2.3692112e-20)
(0.0038694296 0.0046765208 5.7159957e-20)
(0.02031531 0.0031879653 -4.9244225e-20)
(0.045178283 0.00029442748 -9.9454141e-21)
(0.076965149 -0.00342415 2.0256343e-20)
(0.11469622 -0.0073535836 2.1433716e-21)
(0.15753882 -0.011054954 -2.981516e-20)
(0.2047483 -0.014244136 6.9848093e-21)
(0.25564949 -0.016737924 7.1097884e-21)
(0.30960472 -0.018426952 -2.6254077e-20)
(0.36598647 -0.019260092 1.292733e-21)
(0.42415957 -0.01923186 -3.7174113e-20)
(0.483471 -0.018372194 -3.6341017e-20)
(0.54324564 -0.016738267 6.5683482e-20)
(0.60278811 -0.014407291 5.5627481e-21)
(0.66138883 -0.011475886 -1.5188792e-20)
(0.71830783 -0.0081020323 1.9363966e-20)
(0.772699 -0.0045928516 -9.188812e-22)
(0.82408834 -0.00096803281 2.0364577e-20)
(0.87621966 0.0043280854 -1.9554131e-20)
(-0.018836424 -0.0050997021 5.8352034e-20)
(-0.010224664 -0.0056349253 1.5783664e-20)
(-0.00022120659 -0.0060688779 -3.5139553e-20)
(0.010823211 -0.0063341073 1.679023e-20)
(0.022642447 -0.0065120444 0)
(0.035177861 -0.0066300871 0)
(0.048369633 -0.0066909702 -2.2974938e-20)
(0.062138043 -0.0067025364 -1.6502864e-20)
(0.07641268 -0.0066741707 1.9122586e-20)
(0.091134036 -0.0066126619 1.8174026e-20)
(0.10624714 -0.0065232018 1.0524249e-21)
(0.12170017 -0.0064103539 -1.0317632e-20)
(0.13744485 -0.006278077 8.326876e-21)
(0.15343595 -0.0061297181 1.8233709e-20)
(0.16963071 -0.0059681407 -5.2274149e-21)
(0.18598848 -0.0057958301 -1.0174931e-20)
(0.20247051 -0.0056149575 -4.3195854e-21)
(0.21903977 -0.0054274318 -4.4257366e-21)
(0.23566082 -0.0052349452 7.3667154e-22)
(0.25229982 -0.005039008 1.2286034e-21)
(0.26892441 -0.0048409752 2.5666299e-21)
(0.28550382 -0.0046420666 6.6539431e-21)
(0.30200885 -0.0044433814 2.4894414e-22)
(0.31841197 -0.004245909 -3.4514685e-21)
(0.33468733 -0.004050537 1.555876e-22)
(0.35081087 -0.0038580569 -5.7709754e-22)
(0.36676033 -0.0036691688 1.2434356e-21)
(0.3825153 -0.003484485 1.0522431e-21)
(0.39805726 -0.003304534 -1.2987923e-21)
(0.41336959 -0.0031297639 -1.2218735e-22)
(0.42843755 -0.0029605468 3.575006e-23)
(0.4432483 -0.0027971826 -3.5187557e-22)
(0.45779084 -0.0026399043 -4.0565372e-22)
(0.47205598 -0.0024888834 5.5412874e-23)
(0.48603631 -0.002344235 -1.3809018e-22)
(0.49972613 -0.0022060246 -2.2343138e-22)
(0.51312142 -0.0020742743 2.5571887e-22)
(0.52621983 -0.0019489697 2.9501928e-22)
(0.53902058 -0.0018300692 -8.2710095e-24)
(0.55152476 -0.0017175073 -1.5517338e-22)
(0.56373435 -0.001611223 3.0406647e-23)
(0.57565593 -0.0015111159 -4.0144734e-23)
(0.58728968 -0.0014172571 9.2203338e-23)
(0.59866461 -0.0013293103 2.1977415e-23)
(0.60973509 -0.001248559 -1.1394449e-22)
(0.62069313 -0.0011717938 -6.7612872e-24)
(0.63106112 -0.001111245 -7.2441911e-26)
(0.64234964 -0.0010339484 -3.5611169e-24)
(0.65042759 -0.001050806 2.9453722e-23)
(0.66700847 -0.00087556026 3.6050681e-22)
(0.010445867 -0.015017609 -1.2746814e-20)
(0.018179695 -0.016641011 -6.3302331e-20)
(0.027779213 -0.017915412 -3.0541937e-20)
(0.038385142 -0.01867207 3.8476007e-20)
(0.049620983 -0.019183587 1.4662608e-20)
(0.061506624 -0.019529431 -1.8204926e-20)
(0.074012815 -0.019709864 4.672202e-21)
(0.087062663 -0.019746491 2.5447185e-20)
(0.10059313 -0.01966728 9.1993187e-23)
(0.114554 -0.019491699 -7.6591235e-21)
(0.12889716 -0.019234358 -1.3021014e-20)
(0.143576 -0.01890831 -8.5245288e-21)
(0.15854662 -0.018524971 1.7772331e-20)
(0.17376753 -0.018093999 8.929543e-21)
(0.18919896 -0.017623677 -1.6522434e-20)
(0.20480273 -0.017121229 -6.0390571e-21)
(0.22054211 -0.016592994 3.2145041e-21)
(0.23638171 -0.016044568 8.3716306e-21)
(0.25228749 -0.015480929 6.9832257e-21)
(0.26822669 -0.014906538 -6.9727146e-21)
(0.28416789 -0.014325411 -3.1685456e-21)
(0.30008105 -0.013741171 1.3605337e-21)
(0.3159376 -0.013157095 3.8682802e-22)
(0.33171048 -0.012576138 1.211395e-21)
(0.34737423 -0.012000955 1.8368353e-22)
(0.36290506 -0.011433921 -3.2661617e-22)
(0.3782809 -0.010877138 -7.2434842e-22)
(0.39348146 -0.01033245 9.7156544e-22)
(0.40848826 -0.0098014518 8.2482913e-22)
(0.42328465 -0.0092854985 -1.5147336e-22)
(0.4378558 -0.0087857191 5.5306045e-22)
(0.4521887 -0.0083030279 -2.3880906e-22)
(0.46627216 -0.0078381396 -3.7069864e-22)
(0.48009673 -0.0073915845 -6.0999049e-22)
(0.49365469 -0.0069637255 4.4171711e-22)
(0.50694 -0.0065547765 -1.5476948e-23)
(0.51994828 -0.0061648222 1.6124705e-22)
(0.53267675 -0.0057938377 -4.4174716e-22)
(0.5451242 -0.0054417161 3.7189453e-22)
(0.55729128 -0.0051082791 6.7175197e-23)
(0.56917948 -0.0047933619 -1.0285403e-22)
(0.58079488 -0.0044966807 1.7613661e-22)
(0.59213722 -0.0042184644 2.33396e-22)
(0.60323478 -0.0039577232 1.692644e-22)
(0.61404209 -0.0037183028 1.6767153e-22)
(0.62474828 -0.0034906476 -2.6097935e-23)
(0.63488215 -0.0033112069 8.4043703e-23)
(0.64593133 -0.0030818647 7.629163e-23)
(0.65382974 -0.0031323532 -1.9466485e-22)
(0.67009164 -0.002612437 -3.8026524e-23)
(0.06761468 -0.024029144 9.4528291e-21)
(0.073589661 -0.026749047 3.2950969e-21)
(0.082265497 -0.028805566 -1.2162199e-20)
(0.091947809 -0.029968501 -1.2257928e-21)
(0.1019832 -0.030767861 1.4970587e-20)
(0.11254632 -0.031330888 -1.488712e-20)
(0.12367595 -0.031636066 -2.9842269e-20)
(0.1352968 -0.031713001 1.449352e-20)
(0.14735694 -0.031607631 1.8181962e-20)
(0.1598234 -0.031350051 -1.1598514e-20)
(0.17266057 -0.030961815 1.019055e-21)
(0.18583079 -0.030462748 8.6860137e-21)
(0.19929782 -0.029870546 -1.5253538e-20)
(0.21302654 -0.029200233 2.9095136e-21)
(0.22698241 -0.028464754 7.5194337e-21)
(0.24113138 -0.027675499 3.159839e-23)
(0.25544013 -0.026842552 2.6556406e-22)
(0.26987604 -0.025974891 -7.415084e-21)
(0.28440729 -0.025080559 3.8616818e-21)
(0.29900296 -0.024166813 8.4749027e-21)
(0.31363311 -0.023240228 -3.8351751e-21)
(0.3282689 -0.022306768 -2.213036e-21)
(0.34288269 -0.02137185 1.0124437e-21)
(0.35744818 -0.02044038 -1.715532e-21)
(0.37194047 -0.019516788 1.3532251e-21)
(0.38633617 -0.01860504 7.18459e-22)
(0.40061347 -0.017708669 1.5268383e-21)
(0.41475221 -0.016830778 -1.952661e-21)
(0.42873389 -0.015974063 2.2235672e-21)
(0.44254174 -0.015140827 5.5188511e-22)
(0.45616071 -0.014332999 4.0322532e-22)
(0.46957746 -0.013552153 3.2134458e-22)
(0.48278037 -0.012799534 8.732494e-22)
(0.49575949 -0.012076079 -1.3708595e-21)
(0.50850651 -0.01138245 3.706553e-22)
(0.52101474 -0.01071906 1.0941261e-22)
(0.53327907 -0.010086109 -4.517216e-23)
(0.54529599 -0.0094836134 8.6732818e-23)
(0.55706343 -0.008911452 -3.7184921e-22)
(0.56858121 -0.0083693849 1.8293469e-22)
(0.57984994 -0.0078571933 -3.4987101e-23)
(0.59087476 -0.0073744587 3.9004124e-22)
(0.60165459 -0.0069216105 -1.8544398e-22)
(0.61221632 -0.0064970601 4.7323408e-23)
(0.62251481 -0.0061071962 4.3603478e-23)
(0.6327338 -0.0057363316 -7.3599306e-23)
(0.6424142 -0.0054444063 -1.2082461e-22)
(0.65299972 -0.0050705 3.8809123e-22)
(0.66054975 -0.0051542453 1.7270532e-22)
(0.67619338 -0.0043070125 -8.3039749e-22)
(0.15021527 -0.031460425 1.5010105e-21)
(0.15354688 -0.035257391 -1.1566608e-20)
(0.16061621 -0.038010915 6.644189e-21)
(0.16880589 -0.039479093 -1.3324736e-20)
(0.17698223 -0.040520684 -1.9758305e-21)
(0.18552344 -0.041302275 9.1599393e-21)
(0.19458418 -0.041757231 -9.7662125e-21)
(0.2040869 -0.041913705 1.5662798e-21)
(0.21398766 -0.041833325 1.2903797e-20)
(0.22427597 -0.041554329 3.4031988e-21)
(0.23493252 -0.041102039 -6.2096946e-21)
(0.24593019 -0.040500443 -2.8638088e-21)
(0.25724156 -0.039771742 -5.8409056e-21)
(0.26883909 -0.038935049 -6.4553121e-21)
(0.28069421 -0.038006969 3.2356923e-21)
(0.29277761 -0.037002296 8.4621072e-22)
(0.30505972 -0.035934319 1.3679576e-21)
(0.31751096 -0.034815016 -3.3850411e-21)
(0.33010193 -0.033655243 -4.2428848e-21)
(0.3428036 -0.03246489 2.3616503e-21)
(0.35558754 -0.031252991 3.2251347e-21)
(0.3684261 -0.03002781 -1.563619e-21)
(0.38129257 -0.028796896 1.5867263e-21)
(0.3941613 -0.027567126 -3.9123975e-22)
(0.40700788 -0.026344738 -3.9196395e-21)
(0.4198092 -0.025135347 -3.0332808e-21)
(0.4325436 -0.023943971 -1.9026272e-22)
(0.44519086 -0.022775044 4.2858928e-22)
(0.45773234 -0.021632435 -2.2106027e-21)
(0.47015096 -0.020519472 -8.549712e-22)
(0.48243125 -0.01943896 2.2837648e-22)
(0.49455932 -0.018393216 -1.2498677e-21)
(0.50652291 -0.017384093 6.2630978e-24)
(0.51831131 -0.016413021 -4.2420847e-22)
(0.52991538 -0.015481043 -4.7193593e-22)
(0.5413275 -0.014588855 -5.199563e-22)
(0.55254157 -0.013736852 -8.4133015e-22)
(0.56355301 -0.012925175 -5.4496342e-23)
(0.57435865 -0.012153769 -3.9160421e-24)
(0.58495713 -0.011422413 -5.1972269e-22)
(0.59534788 -0.01073091 -9.1607138e-23)
(0.60553475 -0.010078783 -3.3239325e-22)
(0.61551556 -0.0094667244 -4.3759861e-22)
(0.62531531 -0.0088926364 3.7841676e-22)
(0.63488938 -0.0083654038 1.4820957e-23)
(0.64441383 -0.0078635808 1.8237561e-22)
(0.65344708 -0.0074693394 -1.3246675e-22)
(0.66336968 -0.0069629508 -2.6691041e-22)
(0.67042175 -0.0070791509 -4.4692111e-23)
(0.68517866 -0.0059326858 4.6229516e-22)
(0.25468563 -0.03655275 -2.0900309e-20)
(0.25447017 -0.0413935 4.7585932e-20)
(0.25907329 -0.044745647 1.0348087e-20)
(0.26508408 -0.046442032 -1.5765315e-20)
(0.27070928 -0.047714303 -2.0227916e-21)
(0.2765199 -0.048747764 2.623232e-21)
(0.28283544 -0.049413706 -1.6608162e-21)
(0.28957684 -0.049728086 -4.6861408e-21)
(0.29669651 -0.049761417 -4.0159154e-21)
(0.3042054 -0.049557039 -1.2207636e-20)
(0.31210211 -0.049141673 1.7897751e-20)
(0.3203693 -0.048540788 6.5219884e-21)
(0.32898691 -0.047778951 -1.6780521e-20)
(0.33793394 -0.046878005 1.0317573e-20)
(0.34718699 -0.045857286 8.3849901e-21)
(0.35672065 -0.044734299 -8.7923689e-22)
(0.36650835 -0.043525053 -3.1222226e-21)
(0.37652279 -0.042244234 -3.8197305e-21)
(0.38673631 -0.040905345 -1.3892573e-21)
(0.39712119 -0.039520838 -1.2304187e-21)
(0.40764997 -0.038102207 -3.0257595e-21)
(0.41829567 -0.036660055 0)
(0.42903201 -0.03520414 -1.3451907e-21)
(0.43983361 -0.033743408 3.9309499e-21)
(0.45067612 -0.032286014 5.4052646e-21)
(0.46153636 -0.03083934 -9.4112536e-22)
(0.47239246 -0.029410014 -2.9274421e-21)
(0.48322386 -0.028003921 3.0258365e-21)
(0.49401145 -0.02662623 2.5447484e-22)
(0.50473759 -0.025281412 3.435243e-21)
(0.5153861 -0.023973275 -5.3459725e-22)
(0.52594232 -0.022704993 1.7173456e-21)
(0.5363931 -0.021479148 -7.9964293e-22)
(0.54672674 -0.020297776 2.9094084e-22)
(0.55693305 -0.019162413 -4.3403874e-22)
(0.56700327 -0.018074149 5.6231576e-22)
(0.5769301 -0.017033683 4.5709799e-22)
(0.58670769 -0.016041386 3.8255522e-22)
(0.59633154 -0.015097372 -9.5936016e-22)
(0.60579895 -0.014201538 6.8355288e-22)
(0.61510794 -0.013353806 -3.6957281e-22)
(0.62426086 -0.012553734 -1.1033159e-21)
(0.63325429 -0.011802354 1.407813e-21)
(0.64211094 -0.011097173 -6.2005651e-23)
(0.650787 -0.010449496 -1.5815932e-22)
(0.65944895 -0.0098326209 -7.8244267e-24)
(0.66767746 -0.009349236 -1.2621519e-22)
(0.67677329 -0.0087261955 -4.6582281e-22)
(0.68320515 -0.008873634 8.7882871e-22)
(0.69685058 -0.0074648907 -4.4315636e-23)
(0.37635126 -0.038368156 -1.7495096e-20)
(0.37170973 -0.044270217 1.2832039e-20)
(0.37286686 -0.0481616 2.9754614e-21)
(0.37591041 -0.050098838 -7.6353758e-21)
(0.37830522 -0.051669958 1.2055988e-20)
(0.38072289 -0.053042359 7.7914122e-21)
(0.38367596 -0.054030025 -1.2647688e-20)
(0.38710053 -0.054633087 -6.0679743e-21)
(0.39092918 -0.054917988 1.2697336e-20)
(0.39518237 -0.054927117 -1.5304971e-20)
(0.39987419 -0.054687497 -1.406319e-20)
(0.40499501 -0.054224635 1.412963e-20)
(0.41052856 -0.053563641 6.8193828e-21)
(0.41645711 -0.05272793 -4.203765e-21)
(0.42276008 -0.051738997 -1.8545601e-21)
(0.42941396 -0.05061673 -4.0581704e-21)
(0.4363934 -0.049379682 5.3047588e-21)
(0.44367188 -0.048045207 3.6682084e-21)
(0.45122216 -0.046629528 -3.2408292e-21)
(0.4590167 -0.045147795 3.1379483e-21)
(0.46702799 -0.043614139 2.7666796e-21)
(0.47522882 -0.042041706 -3.2111126e-21)
(0.48359259 -0.040442681 3.7056558e-22)
(0.49209346 -0.038828296 -3.2571639e-21)
(0.50070654 -0.037208844 7.2454131e-21)
(0.50940803 -0.035593685 6.1080586e-21)
(0.51817533 -0.033991259 8.0973153e-22)
(0.52698712 -0.032409101 -1.7683227e-21)
(0.53582343 -0.030853861 3.7021761e-21)
(0.54466569 -0.029331335 7.1885173e-21)
(0.55349673 -0.027846495 2.3049303e-21)
(0.56230084 -0.026403535 3.3164854e-21)
(0.57106372 -0.025005917 1.9956201e-21)
(0.57977251 -0.023656426 7.4557903e-22)
(0.58841578 -0.022357231 -2.6374544e-22)
(0.59698347 -0.021109947 2.7203109e-21)
(0.60546693 -0.019915704 6.199215e-22)
(0.61385893 -0.018775224 2.9487753e-22)
(0.62215356 -0.017688908 5.6232444e-23)
(0.63034665 -0.016656883 9.8966458e-22)
(0.63843476 -0.015679293 4.7020053e-23)
(0.64641866 -0.014755839 4.4247395e-22)
(0.65429361 -0.013887973 -1.2621784e-22)
(0.66207987 -0.013072929 -2.7734799e-22)
(0.66973473 -0.012324332 -1.5218613e-22)
(0.67741361 -0.011610817 -4.2207836e-22)
(0.68472342 -0.011053518 1.6139275e-22)
(0.69287163 -0.010332311 -1.2723589e-22)
(0.69859447 -0.010509411 -5.0126369e-22)
(0.71095687 -0.0088817425 2.4586917e-22)
(0.50927425 -0.035974264 3.6471495e-21)
(0.49953034 -0.042960644 -1.8958295e-20)
(0.4962755 -0.04738344 -2.308384e-21)
(0.49555586 -0.049736744 5.4869593e-21)
(0.49416946 -0.051818008 3.052804e-21)
(0.49269566 -0.053705372 -4.9888264e-23)
(0.49181221 -0.055187608 6.1896694e-21)
(0.49151442 -0.056265357 7.6250999e-21)
(0.49171157 -0.056990489 9.8580393e-21)
(0.49241062 -0.057395528 -1.125004e-20)
(0.49363094 -0.057506254 -2.1579417e-20)
(0.49536767 -0.057348368 -3.9353448e-21)
(0.49760457 -0.05694708 1.593814e-20)
(0.50032291 -0.056326957 1.2808956e-20)
(0.50350154 -0.055511679 -5.9066936e-21)
(0.50711641 -0.054523791 1.3817043e-21)
(0.51114128 -0.053384727 -3.660083e-21)
(0.51554863 -0.05211488 2.2443744e-21)
(0.52031016 -0.050733587 -2.9123016e-22)
(0.52539721 -0.049259103 -1.8654092e-21)
(0.53078112 -0.047708597 7.8265872e-21)
(0.53643351 -0.046098146 -2.9308788e-22)
(0.54232657 -0.044442723 4.1818121e-22)
(0.54843326 -0.042756196 -6.5646629e-22)
(0.55472746 -0.041051315 -4.3029371e-21)
(0.56118416 -0.039339719 4.2085147e-21)
(0.5677795 -0.037631938 1.9031213e-21)
(0.57449092 -0.035937413 -3.3081909e-21)
(0.58129719 -0.034264516 -4.1116421e-21)
(0.58817843 -0.032620584 -5.3744354e-21)