/*--------------------------------*- C++ -*----------------------------------*\
  =========                 |
  \\      /  F ield         | OpenFOAM: The Open Source CFD Toolbox
   \\    /   O peration     | Website:  https://openfoam.org
    \\  /    A nd           | Version:  6
     \\/     M anipulation  |
\*---------------------------------------------------------------------------*/
FoamFile
{
    version     2.0;
    format      ascii;
    class       volSymmTensorField;
    location    "343";
    object      UPrime2Mean;
}
// * * * * * * * * * * * * * * * * * * * * * * * * * * * * * * * * * * * * * //

dimensions      [0 2 -2 0 0 0 0];

internalField   nonuniform List<symmTensor> 
9200
(
(5.7902254e-05 -4.4943897e-05 2.0934717e-22 3.6065946e-05 -1.1186778e-22 3.3919873e-39)
(0.00035754476 -0.00028617231 5.3861502e-22 0.00022993055 -4.019106e-22 3.6904759e-39)
(0.00072426579 -0.00056126794 6.4139762e-23 0.00043753841 -4.8669301e-23 2.0231607e-39)
(0.001143972 -0.00082756196 -8.1402938e-22 0.00060552288 5.7177649e-22 4.0344482e-39)
(0.0015595546 -0.0010650701 4.0008339e-23 0.00074020327 -3.2756055e-23 5.9138628e-40)
(0.0019423871 -0.0012630808 3.4487441e-22 0.00084135625 -2.282509e-22 9.3652534e-41)
(0.0022724228 -0.0014177072 -7.5474596e-23 0.00091236167 5.180375e-23 2.6799204e-40)
(0.0025332833 -0.0015290029 6.8554168e-23 0.00095895509 -4.5756366e-23 1.8049016e-40)
(0.002713376 -0.0015989314 3.3496507e-22 0.00098666428 -2.0257919e-22 5.1509822e-40)
(0.0028063556 -0.0016304665 2.6128464e-23 0.0010001985 -1.5876212e-23 1.4707473e-42)
(0.0028112219 -0.0016271739 -3.6330594e-22 0.0010034532 2.2215756e-22 2.7697401e-40)
(0.0027323295 -0.0015929507 3.0516714e-22 0.00099955393 -1.9338019e-22 3.8417206e-41)
(0.0025790767 -0.00153186 -5.4515731e-22 0.00099092504 3.6477747e-22 5.9351087e-40)
(0.0023651385 -0.0014480313 -2.7757111e-22 0.00097938696 1.8931302e-22 3.8506587e-41)
(0.0021072617 -0.0013455951 7.2187198e-23 0.00096626288 -5.3036561e-23 4.8820505e-42)
(0.0018237279 -0.0012286266 -2.73274e-22 0.00095248206 2.1171525e-22 5.1760363e-41)
(0.0015326048 -0.0011010931 2.4112065e-22 0.00093872814 -2.0228321e-22 6.260129e-41)
(0.0012499758 -0.00096687505 1.8080909e-22 0.00092593237 -1.5872496e-22 2.5195824e-40)
(0.00098961016 -0.00082958524 -5.7661367e-24 0.00091531846 1.260889e-23 4.6255639e-41)
(0.00076682399 -0.00069169723 -3.0253687e-24 0.00089774275 1.1054763e-23 5.7336428e-41)
(7.6449247e-05 -5.1102874e-05 2.1773656e-23 3.5078504e-05 -8.3188341e-24 5.9705836e-41)
(0.00045633541 -0.00031622752 5.703841e-22 0.00021981522 -3.7101174e-22 3.9360601e-39)
(0.00090903743 -0.00061110071 -1.838945e-22 0.00041318801 1.2340496e-22 2.1377226e-39)
(0.0013962981 -0.00088464836 -1.4618928e-21 0.0005668701 9.1281595e-22 9.3366875e-39)
(0.0018516492 -0.0011182033 -5.1377562e-23 0.00068749322 3.2428629e-23 1.177805e-40)
(0.0022417307 -0.0013022792 1.1344941e-21 0.0007760213 -6.6805177e-22 3.0906622e-39)
(0.0025456251 -0.0014351147 -4.6800499e-22 0.00083687668 2.7261553e-22 1.0654731e-40)
(0.0027496488 -0.0015192104 -1.4148388e-22 0.00087629857 8.1697859e-23 3.8008528e-41)
(0.0028477563 -0.0015588408 5.3934873e-22 0.00089998849 -3.1321298e-22 2.9093116e-40)
(0.0028414077 -0.001559009 -6.5640776e-22 0.00091260784 3.8735224e-22 3.3463351e-40)
(0.0027389943 -0.0015249688 -4.6747451e-22 0.00091781485 2.8269897e-22 4.1220817e-40)
(0.0025549316 -0.0014619479 1.0143332e-21 0.00091833702 -6.3782047e-22 2.0972934e-39)
(0.002308241 -0.0013750066 4.7435819e-22 0.00091606838 -3.1740525e-22 1.4815078e-40)
(0.0020206463 -0.0012689901 -7.5151316e-22 0.00091218644 5.3673926e-22 7.2916264e-40)
(0.0017144006 -0.0011485257 1.3577085e-22 0.00090726657 -1.0449743e-22 6.0559801e-41)
(0.0014101472 -0.0010180291 -3.0296662e-22 0.00090138235 2.6123022e-22 1.6237213e-40)
(0.0011250882 -0.00088170398 -1.254113e-22 0.00089422103 1.2740872e-22 5.0900221e-41)
(0.0008716669 -0.000743458 3.89399e-22 0.00088523983 -4.3000622e-22 8.2386504e-40)
(0.0006575682 -0.00060645299 1.8577864e-22 0.00087281208 -2.442154e-22 1.5744933e-40)
(0.00048817027 -0.00047381453 -8.1120939e-23 0.00084864469 9.9952803e-23 1.1723981e-39)
(9.74121e-05 -5.5490717e-05 -1.8345628e-22 3.2317891e-05 7.8077516e-23 1.5336832e-39)
(0.00056183063 -0.00033383831 -3.0629678e-22 0.00019889298 1.7015946e-22 1.5986982e-39)
(0.0010992185 -0.00063538058 -3.4864225e-22 0.00036942583 2.0315569e-22 3.9961049e-39)
(0.0016438017 -0.00090392518 1.1713752e-23 0.00050296811 -6.4324351e-24 4.3403394e-43)
(0.0021211665 -0.0011231672 1.1308609e-23 0.00060626605 -5.43858e-24 2.8714184e-39)
(0.0024956162 -0.0012858927 3.9733848e-22 0.00068143529 -2.11511e-22 8.0312787e-40)
(0.0027488851 -0.0013930597 3.9304025e-23 0.00073355358 -1.9522795e-23 3.3241401e-40)
(0.0028740816 -0.0014497302 -6.7942429e-22 0.00076882405 3.6368164e-22 2.1326664e-40)
(0.0028747696 -0.0014622619 8.0686368e-22 0.00079257294 -4.4251484e-22 4.0261214e-40)
(0.0027636286 -0.0014372112 2.6644269e-22 0.00080889367 -1.5326196e-22 4.4003057e-40)
(0.0025605797 -0.0013808919 -7.3658654e-22 0.00082073571 4.4225806e-22 9.1140329e-40)
(0.0022904548 -0.0012991963 -2.3226587e-22 0.00083002325 1.4929248e-22 2.9729058e-40)
(0.0019802491 -0.0011975875 8.3381233e-23 0.00083779687 -5.7730405e-23 8.0419265e-40)
(0.0016562489 -0.001081184 2.0292901e-22 0.00084437251 -1.5576432e-22 1.1620743e-40)
(0.0013414616 -0.00095485439 -7.1684104e-23 0.00084950288 6.1366527e-23 8.8598218e-41)
(0.0010537347 -0.00082326804 1.6693958e-22 0.00085253896 -1.6500669e-22 7.0764016e-41)
(0.00080480017 -0.00069087848 -1.1532607e-22 0.00085259025 1.3416272e-22 2.7317161e-41)
(0.00060026701 -0.00056180505 -2.375306e-22 0.00084862529 3.2399051e-22 6.592893e-40)
(0.00044052417 -0.00043953283 -8.9523127e-24 0.00083928101 9.5041082e-24 5.9005775e-40)
(0.00032267677 -0.00032730681 8.3112647e-23 0.00082166116 -1.76554e-22 6.8370601e-41)
(0.00012009133 -5.7460082e-05 -1.4576456e-22 2.8029043e-05 5.3705943e-23 7.6169991e-40)
(0.0006686416 -0.00033606435 2.2469292e-22 0.00016932424 -1.1020231e-22 1.4253646e-40)
(0.0012834108 -0.00062994032 1.9924578e-22 0.00031113452 -9.8204096e-23 1.646187e-40)
(0.0018696699 -0.00088183357 4.3427118e-22 0.00042133056 -2.0722446e-22 1.7747803e-39)
(0.0023477126 -0.0010787031 3.8297954e-22 0.00050646556 -1.8173626e-22 7.8962428e-40)
(0.0026832504 -0.0012163213 -6.7584767e-22 0.00056948147 3.2064013e-22 6.0383281e-40)
(0.0028651443 -0.001298383 -3.7903459e-22 0.00061551479 1.8294385e-22 1.7194544e-40)
(0.0028976385 -0.0013319673 0 0.00065010427 0 0)
(0.0027973344 -0.0013246734 4.1596074e-22 0.0006776434 -2.2510561e-22 2.2123315e-39)
(0.0025899589 -0.0012836579 -1.8148887e-22 0.00070118925 1.0648143e-22 8.3803501e-40)
(0.0023067136 -0.0012153978 -1.0683357e-21 0.00072260826 6.3426063e-22 7.4851699e-40)
(0.0019804356 -0.0011257392 -1.3700669e-22 0.00074274363 8.5947818e-23 1.4984139e-40)
(0.0016419181 -0.0010200851 5.3109228e-22 0.00076160551 -3.9269987e-22 1.0113735e-39)
(0.0013168965 -0.00090358664 2.9165778e-23 0.00077858285 -1.9086794e-23 4.168204e-40)
(0.001024138 -0.00078123632 -8.2817493e-24 0.00079266701 8.0405103e-24 2.9454083e-43)
(0.00077482051 -0.00065782462 8.9483459e-23 0.00080268273 -1.0251766e-22 5.184759e-41)
(0.00057310958 -0.00053777788 1.5129967e-25 0.00080749419 2.1432362e-24 6.0352578e-41)
(0.00041759623 -0.00042493369 -1.6012918e-22 0.00080610623 2.6639025e-22 1.5965046e-40)
(0.00030308078 -0.00032230187 -8.9597848e-23 0.00079802707 1.8568762e-22 1.1084336e-40)
(0.0002224938 -0.00023211528 4.615148e-23 0.00078433668 -1.3692654e-22 6.8791271e-40)
(0.00014345337 -5.6456435e-05 1.102656e-22 2.2613555e-05 -3.5134467e-23 2.99642e-40)
(0.00077005575 -0.00032098238 4.5960924e-22 0.0001341276 -1.8331868e-22 2.6997215e-39)
(0.0014486859 -0.00059297831 3.6432875e-22 0.00024444154 -1.5000872e-22 1.7141531e-40)
(0.0020566366 -0.00081847035 4.0475206e-22 0.00033064412 -1.6525645e-22 9.4977939e-40)
(0.0025128844 -0.0009882274 -6.2449861e-22 0.0003987167 2.577296e-22 1.4968473e-39)
(0.0027893198 -0.0011010812 2.4561175e-23 0.00045189672 -7.8995569e-24 1.4237853e-40)
(0.002886599 -0.0011626972 3.5983154e-23 0.0004947217 -1.5629814e-23 1.2016677e-42)
(0.0028236249 -0.001180937 5.134211e-22 0.00053151066 -2.3823169e-22 5.3575112e-40)
(0.0026316695 -0.0011633264 6.9582038e-23 0.00056530365 -3.4256045e-23 4.8420729e-42)
(0.0023488298 -0.0011164826 -1.8759201e-22 0.00059781706 1.0572204e-22 2.8960123e-40)
(0.0020146564 -0.0010462375 6.1240697e-22 0.00062963074 -3.7770866e-22 2.0211155e-39)
(0.001665412 -0.00095795851 -4.4682786e-22 0.00066039709 2.9290236e-22 1.7582178e-40)
(0.0013304982 -0.00085685397 -8.4587102e-22 0.00068908587 6.5632359e-22 1.2455581e-39)
(0.0010304788 -0.00074811121 -2.8118725e-23 0.00071426241 2.5681781e-23 2.6306558e-42)
(0.00077679749 -0.00063681494 3.045947e-22 0.00073438002 -3.3774923e-22 1.0046183e-39)
(0.00057291253 -0.00052769187 0 0.00074806161 0 0)
(0.00041632068 -0.00042478425 3.8301471e-23 0.000754307 -5.4888561e-23 2.6125599e-41)
(0.00030086899 -0.00033117917 -1.9566185e-23 0.00075253923 4.2239992e-23 3.8833675e-41)
(0.00021875296 -0.00024888734 -1.9659713e-23 0.00074311766 4.2644731e-23 1.0241358e-41)
(0.00016201202 -0.00017882291 9.665511e-24 0.00072913304 -4.0011623e-23 6.9784193e-41)
(0.00016623433 -5.2145157e-05 2.4120428e-22 1.6635263e-05 -6.2150464e-23 1.2117716e-39)
(0.00085895726 -0.00028829445 2.3807509e-23 9.7030045e-05 -7.8141049e-24 2.2440263e-42)
(0.0015826451 -0.00052593429 -6.8420303e-23 0.00017628532 2.3094805e-23 9.9379863e-42)
(0.0021901061 -0.00071836438 7.1328553e-23 0.00024005476 -2.2914605e-23 1.9627221e-40)
(0.0026040334 -0.00086009783 -4.3074777e-22 0.00029337216 1.5086527e-22 3.6839678e-40)
(0.0028075437 -0.00095223283 -2.0782107e-22 0.0003391976 7.5498459e-23 3.3364138e-41)
(0.0028168761 -0.0010008541 1.4854609e-22 0.00038095289 -4.5489445e-23 1.048701e-39)
(0.0026672024 -0.0010129019 -5.3236204e-24 0.00042141914 6.0396651e-24 8.2028743e-41)
(0.0024035519 -0.00099441535 -3.5336547e-22 0.00046210464 1.7475529e-22 8.6802256e-40)
(0.0020731492 -0.00095055782 6.1484641e-22 0.00050329358 -3.1818948e-22 2.5772496e-40)
(0.0017190939 -0.00088612313 -1.6834725e-23 0.00054425428 2.323477e-23 4.5058729e-40)
(0.0013759099 -0.00080599055 -4.9163222e-22 0.00058349765 3.5509618e-22 1.2462688e-39)
(0.0010673228 -0.00071531799 0 0.00061909901 0 0)
(0.00080622534 -0.00061940891 1.2106508e-22 0.00064905815 -1.3593546e-22 6.6732847e-40)
(0.00059634034 -0.00052333448 6.3039405e-24 0.000671646 -1.2877979e-23 3.6501487e-41)
(0.0004348152 -0.00043147732 -1.4781114e-22 0.00068568272 2.2995685e-22 7.7682332e-40)
(0.00031498181 -0.0003471593 -3.3482114e-23 0.00069067111 5.940547e-23 1.6312264e-41)
(0.0002287098 -0.00027247258 -1.0424205e-23 0.00068672639 2.7810333e-23 2.604328e-41)
(0.00016798736 -0.00020837411 -1.3555813e-23 0.00067497892 3.7528698e-23 1.0177098e-41)
(0.00012573765 -0.00015481267 2.4643759e-23 0.00065920169 -9.2023294e-23 9.7064846e-41)
(0.00018708106 -4.4495024e-05 9.2943713e-23 1.0764656e-05 -1.788329e-23 1.9190256e-40)
(0.00092874372 -0.00023954006 -6.6835527e-22 6.2000828e-05 1.6817357e-22 4.1731878e-39)
(0.0016751079 -0.00043346634 -5.847131e-23 0.00011347167 1.6629944e-23 3.8966885e-40)
(0.0022602263 -0.00058988545 -1.7737643e-22 0.00015788719 5.2313888e-23 1.9597914e-39)
(0.002616008 -0.00070619819 -1.3521957e-22 0.00019909346 3.7461394e-23 2.716599e-41)
(0.002741107 -0.00078410634 -7.6602338e-22 0.00023937812 2.368302e-22 3.6056154e-40)
(0.0026692221 -0.0008280615 -3.7630173e-22 0.00028085862 1.3213467e-22 2.8990642e-40)
(0.0024508628 -0.00084235721 7.3063192e-22 0.00032478981 -2.7421626e-22 2.3614135e-40)
(0.0021414336 -0.00083048714 1.2548197e-22 0.0003712246 -6.418117e-23 2.9710387e-40)
(0.0017923711 -0.00079578644 -1.6141329e-22 0.00041910148 7.2984466e-23 1.0181678e-40)
(0.00144518 -0.00074211985 7.5334046e-23 0.00046648583 -2.7791113e-23 3.8118983e-40)
(0.0011285649 -0.00067416692 -1.4835488e-23 0.00051091884 1.913445e-23 9.6622024e-41)
(0.00085841827 -0.00059723113 0 0.00054984954 0 0)
(0.00063991412 -0.00051670113 8.1407776e-23 0.00058107009 -8.3841388e-23 2.364058e-41)
(0.00047067265 -0.00043740773 -1.7405032e-22 0.00060306081 2.2459335e-22 3.2067157e-40)
(0.00034401635 -0.00036311126 -5.6656815e-23 0.00061517763 8.5681407e-23 2.7781174e-41)
(0.00025164563 -0.00029625071 9.8753441e-23 0.00061763406 -1.9431493e-22 3.8222884e-40)
(0.00018545074 -0.00023798164 -2.1313211e-23 0.0006112836 2.8468431e-23 8.17795e-41)
(0.0001384376 -0.00018848467 -1.1964439e-24 0.00059780687 -2.5612794e-24 9.1711384e-42)
(0.0001049513 -0.0001472406 2.2617491e-23 0.00058082069 -6.599063e-23 8.5200595e-42)
(0.00020470294 -3.3806915e-05 6.7550069e-23 5.6890116e-06 -8.8606646e-24 1.2017706e-40)
(0.00097416745 -0.00017796925 -6.2122365e-22 3.2691856e-05 1.1189546e-22 1.9147845e-39)
(0.0017193674 -0.00032283618 -4.8524383e-22 6.172273e-05 9.6164363e-23 2.2906477e-39)
(0.0022629936 -0.00044395713 6.9761231e-22 9.0545506e-05 -1.453472e-22 5.6273262e-40)
(0.0025513326 -0.00053995293 5.2862524e-22 0.00012187085 -1.1845414e-22 1.178947e-40)
(0.0026011327 -0.00061087975 -3.8926163e-22 0.00015729691 8.5517804e-23 1.2171612e-39)
(0.0024629072 -0.0006575071 1.2644669e-22 0.00019786306 -4.7798346e-23 5.1506044e-40)
(0.0021991385 -0.0006802235 7.4547487e-22 0.0002436095 -2.6226252e-22 5.8246134e-40)
(0.0018706243 -0.00067957761 3.278375e-22 0.00029338075 -1.2787301e-22 7.4052272e-41)
(0.0015278267 -0.0006572845 -3.233271e-22 0.00034495084 1.6335802e-22 1.9019104e-40)
(0.0012066097 -0.00061671467 -4.3969072e-22 0.00039536707 2.5918947e-22 2.2941882e-40)
(0.00092780475 -0.00056267341 -1.2023321e-23 0.00044145469 8.5871669e-24 2.3930429e-43)
(0.00069952799 -0.00050066481 1.2722206e-22 0.00048037195 -1.0988596e-22 3.7233978e-41)
(0.00052087607 -0.00043598635 -4.7094033e-24 0.00051006839 1.4380476e-23 5.5682947e-41)
(0.00038574691 -0.00037298555 -5.2237921e-24 0.00052953725 2.34324e-23 1.5070752e-40)
(0.00028595339 -0.0003146676 4.1164035e-24 0.00053882841 -3.064961e-23 2.7224624e-40)
(0.00021330123 -0.00026266624 4.5484043e-23 0.00053884408 -8.8486551e-23 8.0314867e-41)
(0.00016069463 -0.00021748472 -2.6163361e-23 0.00053099925 7.4522178e-23 2.0838759e-40)
(0.00012250183 -0.00017892017 -6.6646825e-23 0.00051720736 1.8090812e-22 4.0580042e-40)
(9.4420095e-05 -0.00014637387 2.2011547e-23 0.0005004621 -5.2980411e-23 9.267068e-42)
(0.00021808052 -2.0691035e-05 -1.7619559e-22 2.0144943e-06 1.4688214e-23 3.5917704e-40)
(0.00099205345 -0.00010813608 -1.4031784e-22 1.1933466e-05 1.5006856e-23 3.8791458e-40)
(0.0017128778 -0.00020291396 1.0683366e-21 2.4954879e-05 -1.3521075e-22 4.7353414e-39)
(0.0022004849 -0.00029248794 7.9866126e-22 4.1854088e-05 -1.1491632e-22 5.1941348e-40)
(0.0024193931 -0.00037441899 3.5946247e-22 6.4687686e-05 -5.5908474e-23 2.5468839e-40)
(0.0024044629 -0.00044479999 7.2620403e-23 9.4813119e-05 -1.4711629e-23 2.4749264e-42)
(0.0022198425 -0.0004992016 -6.8385072e-22 0.00013276732 1.5015459e-22 1.0651259e-39)
(0.0019349503 -0.00053362205 0 0.00017784927 0 0)
(0.0016106624 -0.00054594352 -4.2082733e-22 0.00022798884 1.7941629e-22 8.813905e-40)
(0.0012922985 -0.00053684689 -7.2689048e-23 0.00027999731 4.6900087e-23 1.9926826e-40)
(0.0010079359 -0.00050968956 2.0722146e-22 0.00033012727 -1.1847569e-22 4.9721541e-41)
(0.00077051642 -0.0004695707 2.2547919e-23 0.00037478352 -2.8021696e-23 1.09608e-40)
(0.00058193196 -0.00042208004 -9.9542197e-23 0.00041116384 9.5800405e-23 1.2816889e-40)
(0.00043745057 -0.0003722046 -7.5380096e-23 0.00043764848 9.6725038e-23 2.7335015e-40)
(0.00032939756 -0.00032367633 4.8290127e-23 0.0004538721 -4.8576971e-23 3.3693087e-41)
(0.00024964887 -0.00027880305 6.7116937e-23 0.00046052542 -8.546521e-23 3.1530407e-41)
(0.0001909862 -0.00023865229 -6.0071523e-23 0.000458994 9.7901584e-23 2.9520668e-41)
(0.00014761798 -0.00020341187 -8.0989436e-23 0.00045096628 1.7080318e-22 3.397213e-40)
(0.00011519446 -0.0001728128 6.0779469e-24 0.00043828863 -1.3884347e-24 3.9640652e-41)
(9.0513855e-05 -0.00014637009 1.1157551e-23 0.00042314841 -3.6389742e-23 4.6894148e-41)
(0.00022643386 -5.9695404e-06 -1.1623514e-22 1.8051138e-07 2.961777e-24 1.7568967e-40)
(0.00098133994 -3.532519e-05 4.982538e-22 1.3938395e-06 -1.7800358e-23 9.7488488e-40)
(0.0016572355 -8.3132495e-05 7.6157635e-22 4.9190244e-06 -4.6656792e-23 7.0671697e-39)
(0.0020803386 -0.00014704089 -8.9696015e-22 1.2937147e-05 7.6703557e-23 1.9486828e-39)
(0.0022347581 -0.00022100739 3.2551925e-22 2.779755e-05 -3.5334966e-23 4.9651384e-41)
(0.0021707599 -0.00029535962 1.3486114e-22 5.144072e-05 5.4737642e-25 1.7971562e-39)
(0.0019611376 -0.00035984792 3.5338076e-23 8.4628863e-05 -7.0815219e-24 6.5894989e-43)
(0.0016767517 -0.00040642591 -5.0423702e-22 0.00012638296 1.1525289e-22 6.09235e-40)
(0.0013741189 -0.00043108315 -1.1473651e-23 0.00017396824 3.9230048e-24 9.9337827e-44)
(0.0010909976 -0.00043415761 1.8912369e-22 0.00022343209 -9.7029316e-23 2.319063e-40)
(0.00084742857 -0.00041932081 1.4938748e-23 0.00027048742 -1.4933126e-23 3.305345e-41)
(0.00064983235 -0.00039193144 -6.8059373e-23 0.00031141951 1.8606177e-23 4.2761811e-40)
(0.00049598208 -0.0003574616 -1.5261312e-22 0.00034372384 1.2275088e-22 4.9323854e-41)
(0.00037935105 -0.00032043016 -1.0356015e-24 0.00036633301 1.1644924e-23 5.5684633e-41)
(0.00029217887 -0.00028396258 5.2003769e-23 0.00037946591 -6.7142081e-23 5.4774045e-41)
(0.00022722636 -0.00024984456 3.4734462e-23 0.00038424689 -5.4117747e-23 5.3007291e-41)
(0.00017852966 -0.00021883863 8.0905739e-24 0.00038226391 -2.5552598e-23 8.5499872e-41)
(0.00014154538 -0.0001910701 -5.5291847e-23 0.00037520171 7.7226367e-23 6.9410152e-41)
(0.00011299224 -0.00016636956 -1.103184e-23 0.00036463647 -7.0210051e-24 2.9310781e-40)
(9.0508668e-05 -0.0001443974 3.1039319e-23 0.00035196176 -9.3318882e-23 4.8454161e-40)
(1.5029349e-06 -1.878865e-07 1.5015317e-23 2.294063e-07 -3.0039177e-24 1.7167013e-40)
(7.0831986e-06 -2.9647673e-06 -2.1427685e-23 1.5229567e-06 5.9373491e-24 1.6526096e-40)
(1.5865924e-05 -6.8513993e-06 4.7591609e-23 3.0364017e-06 -1.7843656e-23 9.493711e-40)
(5.0867876e-05 -1.4460872e-05 1.3289725e-22 4.356201e-06 -2.8373754e-23 3.1924738e-39)
(0.00011165077 -2.3863486e-05 -9.5001023e-23 5.5446381e-06 1.6213232e-23 8.3037329e-40)
(0.00019959073 -3.4400217e-05 1.1981093e-22 6.602947e-06 -1.6305899e-23 9.1748488e-40)
(0.00031759927 -4.5717178e-05 -1.6472612e-22 7.5325241e-06 2.0995201e-23 1.0080337e-39)
(0.00046649599 -5.7459966e-05 -1.700115e-22 8.3522943e-06 1.7859601e-23 1.0656177e-39)
(0.00064564278 -6.9340875e-05 2.1431099e-22 9.0826001e-06 -2.2351502e-23 1.1270792e-39)
(0.00085392257 -8.1147947e-05 -1.6665686e-22 9.739246e-06 1.6387628e-23 5.7414494e-40)
(0.0010899245 -9.27216e-05 -8.2801302e-24 1.03342e-05 1.3893013e-25 6.6696435e-42)
(0.0013519662 -0.00010393814 4.8293657e-23 1.0876606e-05 -5.1690845e-24 2.1170401e-41)
(0.0016381749 -0.00011470004 -8.2809595e-24 1.137346e-05 4.0458817e-25 3.348321e-42)
(0.001946565 -0.00012492997 2.6368915e-22 1.1830376e-05 -2.3808589e-23 1.0062802e-39)
(0.0022750841 -0.00013456901 2.7463221e-25 1.225255e-05 4.9861981e-25 2.1702162e-42)
(0.0026216594 -0.00014358025 -3.9097493e-22 1.264572e-05 3.6713311e-23 2.0706225e-39)
(0.0029842609 -0.0001519519 7.2915101e-23 1.3016028e-05 -7.6587147e-24 4.3816831e-41)
(0.0033609105 -0.00015968312 1.7791363e-22 1.3367995e-05 -1.7599998e-23 5.2657682e-40)
(0.0037496436 -0.00016680543 -2.9100125e-22 1.3706107e-05 3.0683139e-23 1.4928913e-39)
(0.0041482115 -0.00017353382 -1.6225745e-22 1.4027092e-05 1.8141257e-23 5.6048283e-40)
(1.7021708e-06 -7.8580425e-07 4.9499218e-24 2.0186568e-06 -1.8333544e-24 1.701934e-41)
(9.0297187e-06 -1.0159063e-05 -1.3570584e-22 1.342039e-05 1.0231772e-22 5.5268513e-39)
(2.0263598e-05 -2.3066016e-05 2.6927581e-23 2.6749853e-05 -2.2261426e-23 4.9882718e-40)
(5.9855232e-05 -4.6822707e-05 1.4302974e-22 3.8379662e-05 -8.7942428e-23 2.6686023e-39)
(0.00012596824 -7.57589e-05 1.9885306e-22 4.8830459e-05 -9.5712338e-23 3.017767e-39)
(0.00021955765 -0.00010793882 2.4064484e-23 5.8098408e-05 -9.6716707e-24 2.8350828e-41)
(0.00034320273 -0.00014230552 -6.4045569e-22 6.6197969e-05 2.225416e-22 1.5095695e-38)
(0.00049732124 -0.00017781075 -2.2658311e-23 7.329693e-05 9.4150802e-24 4.3820934e-42)
(0.00068091475 -0.00021360923 3.6357944e-22 7.9574041e-05 -1.1114841e-22 2.5776988e-39)
(0.00089253694 -0.0002490779 -8.7885841e-23 8.5168418e-05 2.4380775e-23 1.4332682e-40)
(0.0011304504 -0.00028374598 -3.344861e-22 9.0185405e-05 9.209295e-23 1.5906247e-39)
(0.0013926415 -0.0003172468 7.0526944e-23 9.4704912e-05 -1.8125013e-23 7.2417173e-41)
(0.0016768989 -0.00034928901 2.9813133e-22 9.8787046e-05 -6.7116267e-23 1.7051689e-39)
(0.0019808819 -0.00037963832 1.2382248e-22 0.00010247867 -3.0937839e-23 1.949144e-40)
(0.0023021543 -0.00040811087 2.4886791e-22 0.00010582165 -6.6449797e-23 5.64312e-40)
(0.0026382304 -0.00043458284 -1.9735678e-22 0.00010886102 4.9827946e-23 4.770863e-40)
(0.0029866901 -0.00045900296 -1.8950731e-22 0.00011164572 4.7320262e-23 5.2174046e-40)
(0.0033451316 -0.0004813472 1.9268799e-22 0.00011421471 -5.446539e-23 3.0214685e-40)
(0.0037104815 -0.00050169721 1.7725875e-22 0.00011661202 -4.8804985e-23 5.2748188e-40)
(0.0040791326 -0.00052088008 6.9427622e-23 0.00011882594 -1.833059e-23 2.2379963e-40)
(2.1878653e-06 -2.0111131e-06 3.8085727e-24 5.3832106e-06 -1.9096378e-24 8.9652959e-42)
(1.364956e-05 -2.0995031e-05 1.0307621e-22 3.5825006e-05 -1.1032606e-22 2.3554711e-39)
(3.0508278e-05 -4.6402225e-05 -2.2566782e-23 7.1355882e-05 2.9085304e-23 1.2336365e-40)
(7.971882e-05 -8.8903885e-05 -1.5542326e-22 0.00010234296 1.3092646e-22 2.920827e-39)
(0.00015687418 -0.00013940477 5.7382758e-23 0.00013009314 -4.8227152e-23 8.2957163e-41)
(0.0002620814 -0.00019477935 7.620462e-23 0.00015453547 -6.1992766e-23 4.3978621e-41)
(0.00039724907 -0.000253281 -9.4742468e-23 0.00017570359 5.0334107e-23 2.6034155e-40)
(0.0005620342 -0.00031321154 -2.4853508e-22 0.00019404387 1.4526406e-22 5.2183272e-40)
(0.00075474767 -0.00037321215 1.0881819e-22 0.00021003108 -5.3026183e-23 1.4557998e-40)
(0.00097330126 -0.00043227634 2.3124879e-22 0.00022403763 -9.6494661e-23 8.2619873e-40)
(0.0012153204 -0.00048963595 6.5128782e-23 0.00023634705 -4.4921168e-23 3.1240468e-41)
(0.0014781466 -0.00054468486 2.8348788e-22 0.00024717347 -9.466132e-23 1.5326348e-39)
(0.0017589074 -0.00059693218 2.4140932e-23 0.00025667499 -8.9790453e-24 6.3603597e-42)
(0.0020545714 -0.00064597061 -4.2367949e-22 0.00026496969 1.4376396e-22 2.4654627e-39)
(0.0023619645 -0.00069146396 3.161728e-23 0.00027215742 -2.0607439e-23 1.3699813e-41)
(0.0026778156 -0.00073316363 -1.9900144e-22 0.00027834295 5.5839403e-23 9.6022942e-40)
(0.0029989785 -0.0007709383 -2.8265724e-22 0.00028364125 1.1162855e-22 3.9615896e-40)
(0.0033223051 -0.0008046997 4.6079451e-22 0.00028816613 -1.7879233e-22 1.3140877e-39)
(0.0036428436 -0.00083454606 2.4462894e-22 0.00029210521 -1.0037554e-22 2.6794346e-40)
(0.0039549401 -0.00086225488 4.8648477e-23 0.00029555786 -2.1888219e-23 5.7583512e-42)
(3.2227633e-06 -4.1587752e-06 -5.6945876e-24 9.9117909e-06 7.1651973e-24 1.3175591e-41)
(2.2380566e-05 -3.7282263e-05 -2.3889267e-22 6.6094508e-05 3.0209228e-22 7.8176747e-39)
(4.9539163e-05 -8.0408531e-05 -1.7336962e-23 0.00013154338 2.2280133e-23 1.0681347e-40)
(0.00011468405 -0.00014544532 4.0157658e-23 0.00018853607 -4.4451577e-23 6.8190454e-41)
(0.00020983574 -0.0002203495 -6.4109303e-24 0.00023932593 1.6216126e-24 1.7590505e-41)
(0.00033384591 -0.00030087737 2.0471988e-22 0.00028363786 -1.5017031e-22 1.2840756e-39)
(0.00048758522 -0.00038458658 2.2666466e-22 0.00032150848 -1.4817898e-22 1.1666421e-39)
(0.00066957668 -0.00046918684 -6.8583363e-23 0.0003537592 3.3211958e-23 1.8376435e-40)
(0.00087708903 -0.00055286339 -2.5245451e-22 0.00038126974 1.3211005e-22 1.1689231e-39)
(0.0011070496 -0.00063425884 -5.1061577e-22 0.00040474067 2.7575693e-22 2.4807262e-39)
(0.0013561042 -0.00071232056 -1.0818804e-23 0.00042471307 -6.0517616e-24 5.6563609e-41)
(0.00162061 -0.00078620303 6.5198038e-22 0.00044159896 -3.043254e-22 4.0534406e-39)
(0.0018966922 -0.00085520259 -2.6424394e-22 0.00045570124 1.012456e-22 1.1975187e-39)
(0.0021802986 -0.0009187192 -1.7155512e-22 0.00046724292 7.5256445e-23 2.3654522e-40)
(0.002467203 -0.00097623547 -2.1187945e-23 0.00047640322 2.3164507e-23 5.1012451e-41)
(0.0027530599 -0.0010273374 4.0882347e-22 0.000483358 -1.79217e-22 9.7112388e-40)
(0.0030337561 -0.0010717739 -2.3265695e-22 0.00048829585 1.1600274e-22 6.5867978e-41)
(0.0033052842 -0.0011093952 -5.3475312e-22 0.00049145865 2.2491746e-22 2.0901681e-39)
(0.0035605338 -0.0011403252 3.6114985e-22 0.00049344077 -1.5663501e-22 1.0512264e-39)
(0.0037915892 -0.0011674538 3.1129761e-22 0.00049489905 -1.2457636e-22 9.7703873e-40)
(5.1539568e-06 -7.4064667e-06 2.5578842e-23 1.5108172e-05 -2.485725e-23 1.683247e-40)
(3.7143344e-05 -6.0084716e-05 8.2177201e-24 0.0001008924 -2.0637109e-24 7.6234665e-41)
(8.1245188e-05 -0.00012714475 -3.2994516e-22 0.00020047829 4.7213647e-22 6.4172273e-39)
(0.00017020804 -0.00021907422 -1.8952773e-22 0.00028692601 2.0125966e-22 1.9836951e-39)
(0.00029161118 -0.00032138855 1.2630864e-22 0.00036343318 -1.005779e-22 1.1986996e-39)
(0.00044259288 -0.00042872208 1.5765359e-22 0.00042935366 -1.2702972e-22 5.6489714e-40)
(0.00062252687 -0.00053789999 -2.0503063e-22 0.00048471479 1.339543e-22 1.3214427e-39)
(0.00082836143 -0.00064610528 -3.1297094e-22 0.00053078712 1.7973496e-22 2.8997576e-39)
(0.0010559052 -0.00075113986 4.6495697e-22 0.00056894474 -2.7785317e-22 2.9765942e-39)
(0.0013006939 -0.0008513458 1.3294118e-22 0.00060030629 -5.3894804e-23 6.9257308e-40)
(0.0015579969 -0.00094542043 -4.232848e-22 0.00062575837 2.7959393e-22 2.3212237e-40)
(0.0018228141 -0.0010323049 1.8492232e-22 0.00064599255 -8.4208597e-23 5.3343602e-40)
(0.002089951 -0.0011111123 0 0.000661532 0 0)
(0.0023540806 -0.0011810782 1.814503e-22 0.00067276736 -8.8446169e-23 2.0900188e-40)
(0.0026097649 -0.0012415359 -1.3651656e-22 0.00068000582 6.4880776e-23 1.1162729e-40)
(0.0028515446 -0.0012919385 -2.0993695e-22 0.00068352479 1.0462635e-22 1.3581729e-40)
(0.0030744677 -0.001331951 7.8156483e-23 0.0006835883 -6.2987737e-23 1.9044265e-40)
(0.0032740843 -0.0013614574 -6.3445715e-23 0.00068057563 3.7641835e-23 6.9343565e-42)
(0.003441691 -0.0013807567 3.0581255e-22 0.00067580787 -1.3222291e-22 1.130707e-39)
(0.0035669125 -0.0013937385 -2.4750908e-22 0.00067141464 1.2066444e-22 6.6549132e-41)
(8.3839073e-06 -1.1811439e-05 2.4528275e-23 2.0481777e-05 -2.0622524e-23 1.3516152e-40)
(6.0110977e-05 -8.9612491e-05 1.1852995e-22 0.00013671661 -1.5776084e-22 5.0610982e-40)
(0.00012992922 -0.00018686412 -1.591234e-22 0.00027084668 2.1101267e-22 1.2037899e-39)
(0.00025204559 -0.00030974113 -2.6195931e-22 0.00038665385 2.9442719e-22 1.0095655e-39)
(0.00040877365 -0.00044176976 -7.8189403e-23 0.00048817134 1.1374343e-22 7.9644286e-40)
(0.00059493575 -0.00057637917 -2.3730663e-22 0.0005742741 2.0826546e-22 4.9571779e-40)
(0.00080780937 -0.00070961802 -1.099603e-22 0.00064502307 6.771903e-23 5.720251e-40)
(0.0010422431 -0.00083823467 1.9103958e-22 0.00070221471 -1.1493814e-22 1.0552053e-39)
(0.0012921081 -0.00095976174 4.5810881e-22 0.00074780483 -2.7307192e-22 3.6134829e-39)
(0.0015511079 -0.0010723494 1.4162734e-22 0.00078343197 -8.7126667e-23 1.5163971e-40)
(0.0018127816 -0.0011745611 -1.3458366e-22 0.00081043576 7.1486836e-23 2.4043411e-40)
(0.002070522 -0.001265249 -2.4628945e-23 0.00082989697 -5.5383819e-24 2.093374e-40)
(0.0023177014 -0.00134348 -6.4510688e-22 0.00084266615 3.5262458e-22 1.9961225e-39)
(0.002547798 -0.0014084856 -2.0070288e-22 0.00084940365 1.0485596e-22 2.0645641e-40)
(0.0027544835 -0.0014596356 3.374712e-22 0.00085063387 -1.944296e-22 9.8928757e-41)
(0.0029317763 -0.0014964498 -3.3702123e-22 0.00084679944 1.8153247e-22 2.0495893e-40)
(0.0030747439 -0.0015186935 -1.1911775e-22 0.00083824512 5.8529679e-23 6.5339289e-41)
(0.0031797725 -0.0015264775 2.6772775e-22 0.0008253941 -1.1309966e-22 1.0143579e-39)
(0.0032384196 -0.0015205521 4.0791823e-22 0.00081039171 -2.0310278e-22 7.7064831e-40)
(0.0032380609 -0.0015054893 4.9595022e-23 0.0007979789 -2.3129974e-23 1.4991024e-41)
(1.3341657e-05 -1.7314524e-05 -6.9172988e-23 2.5587481e-05 5.6159077e-23 7.996667e-40)
(9.3453723e-05 -0.00012520087 -7.6518701e-23 0.00017024814 7.7623532e-23 6.3739358e-40)
(0.00019966519 -0.00025788688 1.9541407e-22 0.00033567164 -2.4644576e-22 2.9619837e-40)
(0.00036516791 -0.0004144627 2.972895e-22 0.00047734506 -3.0761259e-22 1.338004e-39)
(0.00056614046 -0.00057685069 3.8839201e-24 0.0005999878 -3.4940876e-24 2.6547152e-43)
(0.00079429283 -0.00073717366 -8.0853391e-22 0.00070202559 6.6639842e-22 7.8101782e-39)
(0.0010440864 -0.00089071628 -3.1837188e-22 0.00078369133 2.7171659e-22 1.1298289e-40)
(0.0013077169 -0.0010339587 2.4662433e-22 0.00084741549 -1.6620298e-22 8.5683082e-40)
(0.0015767067 -0.0011643783 2.8372543e-22 0.0008958333 -1.9022887e-22 5.24328e-40)
(0.0018426651 -0.0012801652 -2.7777846e-22 0.00093120981 1.5465831e-22 1.4382708e-39)
(0.0020973082 -0.0013799968 -8.210951e-22 0.00095545242 5.1681317e-22 2.1003144e-39)
(0.0023325713 -0.0014629109 5.4117026e-22 0.00097014608 -3.2699492e-22 8.6358463e-40)
(0.0025408381 -0.0015282312 3.2224527e-22 0.00097658269 -1.6793411e-22 1.0328969e-39)
(0.0027151787 -0.0015755205 -4.4843007e-22 0.00097580205 2.467679e-22 8.5323951e-40)
(0.002849546 -0.0016045512 1.9768219e-22 0.00096864325 -1.1357737e-22 5.7428467e-41)
(0.0029389955 -0.0016152932 3.2874764e-22 0.0009557852 -1.6890377e-22 6.3532986e-40)
(0.0029804589 -0.0016079547 1.2561774e-22 0.00093766034 -7.0416868e-23 2.175073e-41)
(0.0029732958 -0.0015831178 -2.1569899e-22 0.00091455309 1.321398e-22 2.781487e-41)
(0.002912319 -0.0015421865 -5.0557262e-23 0.00088909353 1.6710633e-23 1.5718298e-40)
(0.0027841397 -0.0014898689 2.8384792e-22 0.00086936511 -1.6282888e-22 6.469932e-41)
(2.0450788e-05 -2.3741297e-05 -2.0104527e-24 3.0030038e-05 -2.2273674e-24 1.5014876e-41)