/*--------------------------------*- C++ -*----------------------------------*\
  =========                 |
  \\      /  F ield         | OpenFOAM: The Open Source CFD Toolbox
   \\    /   O peration     | Website:  https://openfoam.org
    \\  /    A nd           | Version:  6
     \\/     M anipulation  |
\*---------------------------------------------------------------------------*/
FoamFile
{
    version     2.0;
    format      ascii;
    class       surfaceScalarField;
    location    "92";
    object      phi;
}
// * * * * * * * * * * * * * * * * * * * * * * * * * * * * * * * * * * * * * //

dimensions      [0 3 -1 0 0 0 0];

internalField   nonuniform List<scalar> 
18180
(
0.00031878466
-0.00016326949
-0.0001555152
0.001309433
-0.0013673656
0.0003767172
0.0030333939
-0.0033345319
0.001610571
0.0055506887
-0.00597745
0.0034601552
0.0089196512
-0.0092412624
0.0058722999
0.013194939
-0.013082513
0.0088072248
0.018424873
-0.017463727
0.012233793
0.024648468
-0.022350683
0.016127088
0.031892279
-0.027709279
0.020465468
0.04016733
-0.033502918
0.025227868
0.04946642
-0.039690748
0.030391658
0.059762206
-0.046226744
0.035930959
0.071006429
-0.053059614
0.041815391
0.083130778
-0.060133559
0.04800921
0.096049968
-0.067389975
0.054470784
0.10966759
-0.074770228
0.061152608
0.12388411
-0.082219322
0.068002796
0.13861214
-0.089690199
0.07496217
0.15385019
-0.097165715
0.081927664
-0.10464349
0.088696873
0.16979681
0.00039756019
-0.00056082971
0.0016098445
-0.0025796499
0.0036898817
-0.0054145691
0.0066884511
-0.0089760195
0.010652234
-0.013205045
0.015620152
-0.018050431
0.021619358
-0.023462933
0.028661273
-0.029392598
0.03673795
-0.035785957
0.045819179
-0.042584147
0.05585075
-0.049722319
0.066754241
-0.057130235
0.078428569
-0.064733942
0.090753397
-0.072458386
0.10359418
-0.080230761
0.11680827
-0.087984318
0.13025109
-0.095662141
0.14378293
-0.10322203
0.15726783
-0.11065062
-0.11787841
0.17050275
0.0004806939
-0.0010415236
0.0019189727
-0.0040179287
0.0043530899
-0.0078486864
0.0078176411
-0.012440571
0.012339332
-0.017726736
0.017931574
-0.023642673
0.024589406
-0.030120764
0.032285216
-0.037088408
0.040965718
-0.044466459
0.050550648
-0.052169077
0.06093357
-0.060105242
0.071984958
-0.068181623
0.083557423
-0.076306407
0.095492688
-0.084393651
0.10762956
-0.092367632
0.11981184
-0.1001666
0.13189502
-0.10774531
0.14374964
-0.11507666
0.15525376
-0.12215473
-0.12892948
0.16630482
0.00056624665
-0.0016077703
0.0022282366
-0.0056799186
0.005001256
-0.010621706
0.0088951298
-0.016334445
0.013906959
-0.022738566
0.020014251
-0.029749964
0.027169577
-0.037276091
0.03529724
-0.045216071
0.04429238
-0.053461599
0.054022915
-0.061899613
0.064334338
-0.070416664
0.075057047
-0.078904331
0.086015516
-0.087264877
0.097038318
-0.095416453
0.10796785
-0.10329717
0.11866866
-0.11086741
0.12903342
-0.11811007
0.1389856
-0.12502884
0.14847623
-0.13164537
-0.13795895
0.1575057
0.00065096821
-0.0022587385
0.0025246485
-0.0075535989
0.0056042951
-0.013701353
0.0098655903
-0.02059574
0.015266287
-0.028139263
0.021738689
-0.036222366
0.029185374
-0.044722776
0.037478365
-0.053509061
0.046461963
-0.062445198
0.055959153
-0.071396802
0.065780922
-0.080238433
0.075737464
-0.088860873
0.085649897
-0.09717731
0.095361065
-0.10512762
0.10474414
-0.11268024
0.11370818
-0.11983145
0.12220024
-0.12660214
0.13020419
-0.13303279
0.13773629
-0.13917746
-0.14507992
0.14485726
0.00073072068
-0.0029894592
0.0027923968
-0.009615275
0.0061272294
-0.017036185
0.010667804
-0.025136314
0.016324236
-0.033795695
0.022977339
-0.042875469
0.030477002
-0.05222244
0.038645367
-0.061677425
0.047284422
-0.071084253
0.056187061
-0.080299442
0.065150107
-0.08920148
0.073987498
-0.097698264
0.082541844
-0.10573166
0.090692923
-0.1132787
0.098362163
-0.12034948
0.10551296
-0.12698224
0.11214729
-0.13323647
0.11829968
-0.13918517
0.12402964
-0.14490742
-0.15047437
0.12942408
0.00080081634
-0.0037902756
0.0030142199
-0.011828679
0.0065335204
-0.020555486
0.011241068
-0.029843862
0.01699413
-0.039548756
0.023620372
-0.049501711
0.030920365
-0.059522433
0.038675673
-0.069432733
0.046661175
-0.079069754
0.05465966
-0.088297927
0.062476384
-0.097018203
0.069951348
-0.10517323
0.076967645
-0.11274795
0.08345492
-0.11976598
0.089387953
-0.12628252
0.094781098
-0.13237539
0.099679981
-0.13813535
0.10415204
-0.14365724
0.10827752
-0.14903289
-0.15434351
0.11214665
0.00085614123
-0.0046464169
0.0031723469
-0.014144884
0.0067877994
-0.024170938
0.011530704
-0.034586767
0.017204658
-0.04522271
0.02358804
-0.055885093
0.030441531
-0.066375924
0.037521006
-0.076512209
0.04459333
-0.086142078
0.051452205
-0.095156803
0.057931327
-0.10349733
0.063912804
-0.1111547
0.069329872
-0.11816502
0.074164022
-0.12460013
0.078437619
-0.13055611
0.082203699
-0.13614147
0.085534851
-0.1414665
0.088512898
-0.14663528
0.091220692
-0.15174069
-0.15686099
0.093738179
0.00089033908
-0.005536756
0.003248541
-0.016503086
0.0068581218
-0.027780519
0.011493219
-0.039221864
0.016907784
-0.050637275
0.022840006
-0.061817315
0.029024793
-0.072560711
0.035210234
-0.08269765
0.041174607
-0.09210645
0.046740606
-0.1007228
0.051784251
-0.10854097
0.056237267
-0.11560772
0.060083176
-0.12201093
0.063348406
-0.12786535
0.066090466
-0.13329817
0.068385393
-0.13843639
0.070316352
-0.14339746
0.071964767
-0.1482837
0.073404568
-0.15318049
-0.15815576
0.074699335
0.00089988626
-0.0064366422
0.0032336006
-0.018836801
0.0067295726
-0.031276491
0.01111176
-0.043604052
0.016093183
-0.055618698
0.021385332
-0.067109463
0.02671447
-0.07788985
0.031839429
-0.087822608
0.036566975
-0.096833997
0.040761602
-0.10491743
0.044348134
-0.1121275
0.047307258
-0.11856685
0.049665513
-0.12436919
0.051482096
-0.12968194
0.052834977
-0.13465105
0.053808449
-0.13940987
0.054483529
-0.14407254
0.054931838
-0.14873201
0.055212772
-0.15346142
0.05537241
-0.1583154
-0.00020241158
0.00020241185
-2.7482361e-10
-0.00067785305
0.00047544175
-2.7480932e-10
-0.0013426292
0.00066477641
-2.6196987e-10
-0.002132606
0.000789977
-2.8070185e-10
-0.0029961952
0.0008635895
-3.0112146e-10
-0.0038912665
0.00089507164
-3.1943557e-10
-0.004782913
0.00089164682
-3.3731715e-10
-0.0056415816
0.00085866893
-3.5397312e-10
-0.0064416022
0.00080002096
-3.7081783e-10
-0.0071600366
0.00071843469
-3.8492017e-10
-0.0077757594
0.00061572325
-3.9925114e-10
-0.0082687233
0.00049296428
-4.0959551e-10
-0.0086193785
0.00035065556
-4.2000769e-10
-0.0088082394
0.00018886132
-4.2505405e-10
-0.0088156294
7.3903863e-06
-4.2959998e-10
-0.0086217044
-0.00019392462
-4.2707884e-10
-0.0082067166
-0.00041498735
-4.2214765e-10
-0.0075506094
-0.00065610683
-4.0885008e-10
-0.006632611
-0.00091799803
-3.9173797e-10
-0.0011870551
-0.0054455556
-3.6632182e-10
-0.0001880038
0.00039041564
-0.00062509969
0.00091253763
-0.0012289274
0.0012686042
-0.0019354564
0.0014965059
-0.002692485
0.0016206181
-0.0034567012
0.0016592878
-0.0041915354
0.001626481
-0.0048653504
0.0015324839
-0.0054500035
0.001384674
-0.0059197111
0.0011881423
-0.006250133
0.00094614517
-0.0064176304
0.00066046162
-0.0063986606
0.00033168581
-0.0061692983
-4.0501013e-05
-0.0057049098
-0.00045699816
-0.0049800728
-0.0009187616
-0.0039687925
-0.0014262677
-0.002644422
-0.0019804774
-0.00097951231
-0.0025829077
-0.0032037386
0.0010371712
-0.00015894957
0.0005493652
-0.00051895738
0.0012725454
-0.0010008881
0.0017505348
-0.0015414255
0.0020370434
-0.0020875496
0.0021667421
-0.0025939443
0.0021656825
-0.0030210532
0.0020535899
-0.0033334117
0.0018448423
-0.0034983009
0.0015495632
-0.0034846716
0.0011745129
-0.0032622597
0.00072373332
-0.0028008669
0.00019906878
-0.0020697261
-0.00039945505
-0.0010369876
-0.0010732394
0.00033070995
-0.0018246958
0.0020685171
-0.0026565688
0.0042133332
-0.0035710837
0.0068034998
-0.004570644
0.0098787319
-0.0056581398
-0.0067833394
0.013458333
-0.00011757851
0.0006669437
-0.00036702855
0.0015219954
-0.00067355591
0.0020570622
-0.00097486221
0.0023383497
-0.0012168559
0.0024087357
-0.0013515214
0.002300348
-0.0013352616
0.0020373301
-0.0011274427
0.0016370234
-0.00068919743
0.0011113179
1.7527397e-05
0.00046778807
0.0010307551
-0.00028949435
0.002389126
-0.0011593022
0.0041324431
-0.0021427722
0.0063021535
-0.0032429498
0.0089418542
-0.0044643965
0.01209785
-0.0058125641
0.015819525
-0.0072927597
0.020159049
-0.0089101676
0.025171156
-0.010670247
-0.012498427
0.030886244
-6.6907843e-05
0.00073385153
-0.00017915577
0.0016342433
-0.00026648942
0.0021443958
-0.00026757919
0.0023394394
-0.00012696822
0.0022681247
0.00020656453
0.0019668152
0.00078133313
0.0014625615
0.0016439142
0.00077444234
0.0028401169
-8.4884792e-05
0.0044157687
-0.0011078637
0.006417279
-0.0022910047
0.0088920555
-0.0036340786
0.011888829
-0.0051395461
0.015457985
-0.0068121055
0.019651934
-0.0086583453
0.024525734
-0.010686364
0.030137967
-0.012904993
0.03655125
-0.015323451
0.043832999
-0.017951997
-0.020690996
0.052025569
-9.9734748e-06
0.00074382498
3.4587289e-05
0.0015896826
0.00020002397
0.0019789591
0.00054703259
0.0019924308
0.0011327106
0.0016824467
0.0020117174
0.0010878084
0.0032372389
0.00023704001
0.0048618699
-0.0008501887
0.0069382722
-0.0021612871
0.0095195483
-0.0036891399
0.01265945
-0.0054309065
0.016412483
-0.0073871115
0.020833832
-0.0095608952
0.0259792
-0.011957474
0.03190471
-0.014583855
0.0386672
-0.017448854
0.046325412
-0.020563205
0.05494205
-0.023940088
0.064587611
-0.027597558
-0.031416876
0.07531349
5.0772995e-05
0.00069305197
0.00026574954
0.001374706
0.00070847406
0.0015362345
0.0014394466
0.0012614582
0.002517514
0.00060437934
0.004000631
-0.00039530873
0.0059464574
-0.0017087864
0.008412746
-0.0033164773
0.011457473
-0.005206014
0.015138806
-0.0073704733
0.019514838
-0.009806938
0.024643054
-0.012515328
0.030579601
-0.015497442
0.037378385
-0.018756258
0.045090138
-0.022295607
0.05376187
-0.026120586
0.063437682
-0.030239017
0.074162159
-0.034664565
0.085989308
-0.039424707
-0.044402434
0.098974867
0.00011382738
0.00057922457
0.00050863117
0.00097990216
0.0012462812
0.00079858447
0.0023873324
0.00012040697
0.0039921479
-0.0010004362
0.006121244
-0.0025244049
0.0088352702
-0.0044228126
0.012194832
-0.006676039
0.016260085
-0.0092712674
0.021089991
-0.012200379
0.026741274
-0.015458221
0.033267099
-0.019041153
0.040715479
-0.022945822
0.049127469
-0.027168248
0.058535267
-0.031703405
0.068960589
-0.036545908
0.080414486
-0.041692914
0.092900458
-0.047150537
0.10642596
-0.052950207
-0.059011726
0.12103525
0.00017853518
0.00040068936
0.00076018994
0.00039824737
0.0018057092
-0.00024693478
0.0033753933
-0.0014492772
0.0055300939
-0.0031551369
0.0083309568
-0.0053252678
0.011838797
-0.0079306524
0.016113173
-0.010950416
0.021211111
-0.014369205
0.027185473
-0.018174741
0.034083035
-0.022355784
0.041942282
-0.0269004
0.050790979
-0.031794519
0.060643529
-0.037020798
0.071498128
-0.042558005
0.083333752
-0.048381532
0.09610795
-0.054467112
0.10975819
-0.060800772
0.12421531
-0.067407333
-0.074292023
0.13949561
0.00024517414
0.0010201387
0.0023837749
0.0043946528
0.0071118158
0.010593773
0.014896913
0.020073585
0.026169849
0.033222976
0.04125885
0.050289408
0.060310281
0.071298693
0.083211472
0.095982549
0.10951823
0.12367963
0.13819996
0.15260481
-0.0035039383
-0.0019416169
-4.3911117e-10
-0.0012810195
-0.0022229184
-3.6145996e-10
0.0012008747
-0.002481894
-2.6965721e-10
0.0038848382
-0.0026839633
-1.6475511e-10
0.0067440698
-0.0028592316
-4.9346848e-11
0.0097612705
-0.0030172008
7.7799001e-11
0.012917511
-0.0031562408
2.0893192e-10
0.016194774
-0.0032772631
3.4305663e-10
0.019577363
-0.0033825894
4.7538235e-10
0.023051065
-0.0034737026
6.0180622e-10
0.0266026
-0.0035515355
7.1930839e-10
0.030219549
-0.0036169502
8.2632236e-10
0.033890277
-0.0036707289
9.2189898e-10
0.037603795
-0.0037135191
1.0057996e-09
0.041349661
-0.0037458666
1.0773146e-09
0.045117911
-0.0037682517
1.1355902e-09
0.048899017
-0.0037811069
1.1781463e-09
0.052683846
-0.0037848301
1.2017227e-09
0.056463644
-0.0037797993
1.2006317e-09
0.060230027
-0.0037663841
1.1683285e-09
0.06397498
-0.0037449543
1.0958501e-09
0.067690865
-0.0037158864
9.7479855e-10
0.071370432
-0.0036795675
7.9592219e-10
0.075006829
-0.0036363973
5.5383066e-10
0.078593617
-0.0035867887
2.4484864e-10
0.082124783
-0.0035311662
-1.2661913e-10
0.085594748
-0.0034699643
-5.5245807e-10
0.088998374
-0.0034036243
-1.0129055e-09
0.092330966
-0.0033325907
-1.4852002e-09
0.095588275
-0.0032573079
-1.9337071e-09
0.098766495
-0.0031782169
-2.3245959e-09
0.10186225
-0.0030957519
-2.6125474e-09
0.10487259
-0.0030103376
-2.7633455e-09
0.10779498
-0.0029223876
-2.7340388e-09
0.11062729
-0.002832303
-2.5055608e-09
0.11336776
-0.0027404727
-2.0512558e-09
0.11601504
-0.0026472748
-1.3858435e-09
0.11856812
-0.002553079
-5.1321416e-10
0.12102637
-0.0024582549
4.9565638e-10
0.12338954
-0.0023631724
1.5889109e-09
0.12565778
-0.0022682467
2.6215094e-09
0.12783164
-0.0021738592
3.4806002e-09
0.12991239
-0.0020807501
3.9893271e-09
0.13190131
-0.0019889295
4.0391339e-09
0.13380298
-0.0019016688
3.5280628e-09
0.13561622
-0.0018132439
2.4470971e-09
0.13736657
-0.001750351
9.6125925e-10
0.13900965
-0.0016430777
-6.4507875e-10
0.14074954
-0.001739891
-2.0182344e-09
-0.0013933776
-2.1592738e-09
0.0028588155
-0.0037632611
0.0049571223
-0.0043212251
0.0073012849
-0.0048260566
0.0098288538
-0.0052115321
0.01251877
-0.005549148
0.015358717
-0.0058571472
0.018331958
-0.0061294822
0.021422093
-0.0063673979
0.024615108
-0.0065756043
0.027898247
-0.0067568415
0.031259384
-0.0069126728
0.034687045
-0.0070446117
0.038170382
-0.0071540651
0.041699054
-0.0072421919
0.045263155
-0.0073099669
0.048853159
-0.0073582562
0.0524599
-0.0073878475
0.056074544
-0.0073994743
0.059688586
-0.0073938413
0.063293848
-0.007371646
0.066882487
-0.0073335939
0.07044701
-0.0072804092
0.073980285
-0.0072128421
0.077475559
-0.0071316715
0.080926475
-0.0070377048
0.084327084
-0.006931775
0.087671856
-0.0068147363
0.090955689
-0.0066874576
0.094173914
-0.0065508159
0.097322295
-0.0064056885
0.10039702
-0.006252947
0.10339472
-0.0060934498
0.10631242
-0.0059280377
0.10914756
-0.0057575299
0.11189798
-0.0055827214
0.11456189
-0.0054043839
0.11713789
-0.0052232684
0.11962492
-0.0050401101
0.12202231
-0.004855645
0.12432975
-0.0046706099
0.12654733
-0.0044858343
0.12867555
-0.0043020795
0.13071563
-0.0041208243
0.13266879
-0.0039420925
0.13453952
-0.003772396
0.13632666
-0.0036003837
0.13805529
-0.0034789784
0.13968205
-0.0032698379
0.14140588
-0.0034637215
-0.0027842743
0.015030761
-0.0053356891
0.016863064
-0.0061535283
0.018917931
-0.0068809238
0.021125428
-0.0074190294
0.023473925
-0.0078976447
0.025959777
-0.0083429991
0.028570373
-0.0087400778
0.031292237
-0.0090892627
0.034114277
-0.0093976438
0.037026268
-0.0096688324
0.040018096
-0.0099045016
0.04307991
-0.010106425
0.046202191
-0.010276347
0.049375695
-0.010415695
0.052591399
-0.010525671
0.055840504
-0.010607361
0.05911443
-0.010661774
0.062404829
-0.010689873
0.065703593
-0.010692604
0.06900287
-0.010670924
0.072295094
-0.010625817
0.075572994
-0.01055831
0.078829631
-0.010469478
0.082058406
-0.010360447
0.085253092
-0.010232391
0.088407844
-0.010086526
0.091517212
-0.0099241048
0.094576158
-0.0097464034
0.097580054
-0.0095547114
0.10052469
-0.0093503234
0.10340627
-0.0091345241
0.1062214
-0.008908582
0.1089671
-0.0086737405
0.11164078
-0.0084312119
0.11424024
-0.0081821747
0.11676363
-0.0079277738
0.11920948
-0.007669125
0.1215767
-0.0074073228
0.12386451
-0.0071434645
0.12607256
-0.0068786507
0.12820084
-0.0066141224
0.13024979
-0.006351021
0.13222052
-0.0060915577
0.13411421
-0.0058357868
0.13593519
-0.0055933778
0.13768241
-0.0053475983
0.13937997
-0.0051765435
0.14098686
-0.0048767227
0.14269143
-0.0051682958
-0.0041834329
0.032070685
-0.0065201303
0.033487119
-0.0075699618
0.035093963
-0.008487768
0.036818242
-0.0091433086
0.038660648
-0.0097400505
0.040627486
-0.010309838
0.042711593
-0.010824185
0.044903452
-0.011281121
0.047195493
-0.011689685
0.049580495
-0.012053834
0.052050758
-0.012374765
0.054598335
-0.012654002
0.057215222
-0.012893234
0.059893387
-0.01309386
0.062624777
-0.013257061
0.065401358
-0.013383943
0.068215163
-0.013475578
0.071058326
-0.013533036
0.073923129
-0.013557408
0.076802037
-0.013549832
0.079687736
-0.013511516
0.082573166
-0.01344374
0.085451556
-0.013347868
0.08831645
-0.013225341
0.091161732
-0.013077673
0.093981648
-0.012906443
0.096770822
-0.012713279
0.099524267
-0.012499848
0.10223739
-0.012267836
0.104906
-0.012018937
0.10752632
-0.011754835
0.11009493
-0.011477197
0.11260884
-0.011187654
0.11506543
-0.010887802
0.11746245
-0.010579191
0.11979801
-0.010263331
0.12207058
-0.0099416966
0.12427899
-0.0096157349
0.12642243
-0.0092869001
0.12850043
-0.0089566552
0.13051296
-0.0086266506
0.13246035
-0.0082984094
0.13434366
-0.0079748679
0.13616401
-0.0076561363
0.13792555
-0.0073549194
0.13962742
-0.0070494718
0.14129238
-0.0068414991
0.14288286
-0.0064672038
0.14457201
-0.006857446
-0.0056068063
0.05266703
-0.0071615913
0.05350885
-0.008411782
0.054504276
-0.0094831944
0.055587632
-0.010226665
0.056773744
-0.010926162
0.058076914
-0.011613007
0.059495659
-0.01224293
0.06102512
-0.012810582
0.062661093
-0.013325657
0.064398988
-0.013791729
0.066233292
-0.014209069
0.068157745
-0.014578455
0.07016559
-0.01490108
0.072249736
-0.015178006
0.074402846
-0.015410171
0.076617418
-0.015598515
0.078885872
-0.015744033
0.081200628
-0.015847792
0.083554172
-0.015910952
0.085939119
-0.015934779
0.088348259
-0.015920656
0.090774613
-0.015870094
0.093211465
-0.01578472
0.095652399
-0.015666275
0.09809133
-0.015516605
0.10052253
-0.015337638
0.10294062
-0.015131375
0.10534064
-0.014899864
0.10771799
-0.014645185
0.11006848
-0.014369424
0.1123883
-0.014074662
0.11467406
-0.013762951
0.11692272
-0.013436314
0.11913163
-0.013096719
0.12129853
-0.012746088
0.12342149
-0.012386294
0.12549896
-0.012019162
0.12752972
-0.011646494
0.12951292
-0.011270102
0.13144807
-0.01089181
0.1333351
-0.010513681
0.13517432
-0.010137624
0.13696674
-0.0097672928
0.13871349
-0.009402887
0.14041857
-0.0090599924
0.14208141
-0.0087123171
0.14372312
-0.008483203
0.14531055
-0.0080546402
0.14699801
-0.008544903
-0.0070776916
0.075243588
-0.0070916888
0.075349721
-0.0085179152
0.075575321
-0.0097087946
0.075876923
-0.010528266
0.076282573
-0.011331813
0.076809132
-0.012139565
0.077459641
-0.012893439
0.078234039
-0.01358498
0.079130642
-0.01422226
0.080146309
-0.014807397
0.081276806
-0.015339566
0.082516844
-0.015818493
0.08386025
-0.016244485
0.085300252
-0.016618008
0.086829685
-0.016939604
0.088441107
-0.017209937
0.090126912
-0.017429838
0.091879436
-0.017600316
0.093691051
-0.017722566
0.095554235
-0.017797962
0.09746164
-0.017828062
0.099406146
-0.017814601
0.10138091
-0.017759482
0.10337939
-0.017664756
0.1053954
-0.017532613
0.10742311
-0.017365347
0.10945707
-0.017165343
0.11149225
-0.016935044
0.113524
-0.016676933
0.11554808
-0.016393504
0.11756066
-0.016087239
0.1195583
-0.015760595
0.12153797
-0.015415983
0.12349701
-0.015055758
0.12543314
-0.014682218
0.12734445
-0.014297601
0.12922938
-0.013904097
0.13108675
-0.013503864
0.13291573
-0.013099077
0.13471585
-0.012691933
0.13648708
-0.01228491
0.13822977
-0.011880314
0.13994499
-0.011482509
0.14163393
-0.011091828
0.14330049
-0.010726558
0.14494457
-0.010356393
0.14658541
-0.010124043
0.14819505
-0.0096642797
0.14990648
-0.010256336
-0.0086282504
0.098048858
-0.00616568
0.097282638
-0.0077516955
0.096607457
-0.0090336133
0.096024204
-0.0099450136
0.095569022
-0.01087663
0.095253146
-0.01182369
0.095081951
-0.012722245
0.095059448
-0.013562477
0.095185178
-0.01434799
0.095455884
-0.015078102
0.095867213
-0.015750895
0.096413764
-0.016365044
0.097089062
-0.016919783
0.097885883
-0.017414829
0.098796555
-0.017850275
0.099813116
-0.018226498
0.10092744
-0.018544166
0.10213137
-0.018804241
0.10341678
-0.019007974
0.10477569
-0.019156879
0.10620035
-0.019252724
0.10768326
-0.019297509
0.10921723
-0.01929345
0.11079542
-0.019242951
0.11241139
-0.019148581
0.11405909
-0.019013043
0.11573288
-0.018839139
0.11742759
-0.018629746
0.11913844
-0.018387782
0.12086111
-0.018116175
0.12259171
-0.017817845
0.12432679
-0.01749567
0.12606328
-0.017152477
0.12779855
-0.016791031
0.12953036
-0.016414024
0.13125684
-0.016024079
0.13297651
-0.015623765
0.13468826
-0.015215615
0.13639136
-0.014802184
0.13808548
-0.01438605
0.1397707
-0.013970126
0.14144751
-0.013557128
0.14311713
-0.013152129
0.14478094
-0.012755635
0.14644284
-0.01238846
0.14810328
-0.012016836
0.14977964
-0.011800405
0.15144959
-0.011334228
0.15322364
-0.012030385
-0.010300262
0.11921242
-0.0043428459
0.1175207
-0.0060599823
0.11588214
-0.0073950551
0.11438065
-0.0084435226
0.11305247
-0.0095484513
0.11189512
-0.010666338
0.11091407
-0.011741193
0.11011561
-0.012764015
0.10949915
-0.013731535
0.10906012
-0.014639068
0.1087927
-0.015483479
0.10869025
-0.016262592
0.10874518
-0.016974709
0.10894918
-0.017618832
0.10929354
-0.01819464
0.10976934
-0.018702295
0.11036755
-0.019142378
0.11107919
-0.019515877
0.11189538
-0.019824164
0.11280746
-0.020068961
0.11380705
-0.020252309
0.11488608
-0.020376537
0.11603687
-0.020444238
0.11725214
-0.020458229
0.11852508
-0.020421519
0.11984931
-0.020337272
0.12121894
-0.020208768
0.12262856
-0.020039367
0.12407325
-0.01983247
0.12554857
-0.019591494
0.12705055
-0.01931983
0.12857571
-0.019020825
0.130121
-0.018697765
0.13168382
-0.018353851
0.133262
-0.017992207
0.13485379
-0.017615872
0.13645785
-0.017227822
0.13807323
-0.016830991
0.13969938
-0.016428337
0.14133618
-0.016022848
0.14298394
-0.015617885
0.14464341
-0.0152166
0.14631606
-0.014824781
0.14800357
-0.014443149
0.14970998
-0.014094871
0.15143642
-0.01374327
0.15319843
-0.013562419
0.15497958
-0.013115372
0.15686776
-0.013918572
-0.012145044
0.13691726
-0.0017644926
0.1344
-0.0035427253
0.13184224
-0.0048372924
0.12948606
-0.0060873467
0.12735867
-0.0074210654
0.12544146
-0.0087491229
0.12373725
-0.010036986
0.12225114
-0.011277908
0.1209816
-0.012461988
0.11992284
-0.013580315
0.11906739
-0.014628022
0.11840689
-0.015602094
0.11793236
-0.016500182
0.11763429
-0.017320758
0.11750281
-0.018063163
0.11752793
-0.018727414
0.11769964
-0.019314087
0.11800803
-0.01982427
0.11844339
-0.020259525
0.11899628
-0.020621851
0.1196576
-0.020913625
0.12041863
-0.021137575
0.12127113
-0.021296739
0.12220732
-0.02139441
0.1232199
-0.021434106
0.12430215
-0.021419521
0.12544786
-0.021354473
0.12665136
-0.021242869
0.12790755
-0.02108866
0.12921186
-0.020895803
0.13056025
-0.020668222
0.13194921
-0.020409787
0.13337573
-0.020124287
0.1348373
-0.019815415
0.13633185
-0.019486766
0.13785782
-0.019141838
0.13941405
-0.018784054
0.14099984
-0.018416783
0.14261493
-0.018043422
0.14425948
-0.017667397
0.14593414
-0.01729255
0.14764003
-0.016922493
0.14937899
-0.01656374
0.15115312
-0.016217276
0.1529667
-0.015908452
0.15482165
-0.015598216
0.15673181
-0.015472585
0.15868674
-0.015070304
0.16075217
-0.015984
-0.014222539
0.1500697
0.00077061887
0.14678133
-0.00025435676
0.14348468
-0.0015406378
0.14043766
-0.0030403254
0.13764359
-0.0046270005
0.13509623
-0.0062017653
0.13279743
-0.0077381793
0.13074726
-0.0092277436
0.12894331
-0.010658033
0.12738037
-0.012017375
0.12605063
-0.013298281
0.12494469
-0.014496153
0.12405238
-0.015607874
0.12336305
-0.016631434
0.12286574
-0.017565849
0.12254934
-0.01841101
0.12240278
-0.019167532
0.12241518
-0.019836664
0.12257587
-0.020420225
0.12287457
-0.020920549
0.12330138
-0.02134043
0.12384687
-0.021683065
0.12450213
-0.021952005
0.12525883
-0.022151103
0.12610918
-0.022284461
0.12704604
-0.022356374
0.12806284
-0.02237128
0.12915368
-0.022333707
0.13031325
-0.022248226
0.13153685
-0.022119404
0.1328204
-0.021951769
0.13416039
-0.021749775
0.13555388
-0.021517777
0.13699848
-0.021260016
0.13849232
-0.020980612
0.14003406
-0.020683571
0.14162281
-0.020372808
0.1432582
-0.020052172
0.14494031
-0.019725534
0.14666971
-0.019396798
0.14844748
-0.01907032
0.15027518
-0.018750193
0.15215513
-0.018443692
0.15408993
-0.018152068
0.15608426
-0.017902789
0.15814074
-0.017654696
0.16027216
-0.017604002
0.16247238
-0.017270526
0.16479029
-0.018301902
-0.01659739
0.18893521
0.0053716036
-0.19353619
0.18512625
0.0035546024
0.18173532
0.0018502902
0.17859135
0.00010364006
0.17565701
-0.0016926533
0.17290725
-0.0034520074
0.17032386
-0.0051547938
0.16789786
-0.0068017441
0.16562538
-0.0083855446
0.16350425
-0.0098962502
0.16153264
-0.011326666
0.15970843
-0.012671947
0.158029
-0.013928442
0.15649106
-0.015093494
0.1550907
-0.016165491
0.15382347
-0.017143776
0.15268444
-0.018028508
0.15166834
-0.018820567
0.15076961
-0.019521492
0.14998248
-0.020133421
0.14930108
-0.020659024
0.14871946
-0.021101449
0.14823171
-0.021464257
0.14783198
-0.021751366
0.14751451
-0.021966992
0.14727372
-0.022115584
0.1471042
-0.022201769
0.14700079
-0.022230294
0.14695854
-0.022205972
0.14697276
-0.02213363
0.14703906
-0.02201807
0.14715332
-0.021864029
0.14731169
-0.021676152
0.14751065
-0.021458974
0.14774695
-0.021216911
0.14801765
-0.020954267
0.14832009
-0.020675254
0.14865195
-0.020384024
0.14901117
-0.02008476
0.14939606
-0.019781681
0.14980524
-0.0194795
0.15023769
-0.01918265
0.15069293
-0.018898925
0.15117069
-0.01862983
0.15167202
-0.01840412
0.15219698
-0.018179657
0.15275114
-0.018158161
0.15332916
-0.017848542
0.15395896
-0.018931706
-0.017237182
0.21688321
0.0087688282
-0.22028043
0.21341048
0.0070273312
0.21019884
0.0050619308
0.20709474
0.0032077334
0.20404942
0.001352673
0.20109382
-0.00049640892
0.19824484
-0.002305813
0.19550699
-0.0040639006
0.19288619
-0.0057647453
0.19038928
-0.0073993344
0.18802145
-0.0089588421
0.18578613
-0.01043662
0.1836853
-0.011827617
0.18171969
-0.013127881
0.17988876
-0.014334564
0.17819091
-0.015445923
0.1766236
-0.016461195
0.17518352
-0.017380491
0.17386675
-0.01820472
0.17266884
-0.018935513
0.17158497
-0.019575153
0.17061002
-0.020126503
0.1697387
-0.020592935
0.1689656
-0.020978261
0.16828527
-0.021286662
0.1676923
-0.021522617
0.16718137
-0.021690842
0.1667473
-0.021796216
0.16638505
-0.021843726
0.16608982
-0.021838405
0.16585704
-0.021785289
0.16568238
-0.021689369
0.16556179
-0.021555559
0.16549149
-0.021388678
0.16546801
-0.021193432
0.16548817
-0.020974422
0.16554908
-0.020736167
0.16564819
-0.020483128
0.16578324
-0.02021981
0.16595232
-0.019950764
0.16615388
-0.019681061
0.16638675
-0.019415523
0.1666502
-0.019162375
0.16694403
-0.018923659
0.16726849
-0.018728573
0.1676251
-0.01853627
0.16801397
-0.018547037
0.16844287
-0.018277435
0.16889758
-0.019386415
-0.017759585
0.24379039
0.011491737
-0.2465133
0.24094106
0.0098766651
0.23808897
0.0079140141
0.23524319
0.0060535147
0.23236664
0.0042292296
0.22948012
0.0023901035
0.22661488
0.00055943425
0.2237902
-0.0012392215
0.22102201
-0.0029965588
0.21832626
-0.0047035828
0.21571681
-0.0063493914
0.21320467
-0.0079244777
0.21079845
-0.0094214038
0.20850474
-0.010834165
0.20632816
-0.01215799
0.20427162
-0.013389383
0.20233649
-0.014526058
0.20052281
-0.015566814
0.19882952
-0.016511432
0.19725461
-0.017360601
0.19579528
-0.018115822
0.1944481
-0.018779324
0.19320915
-0.019353983
0.19207412
-0.019843234
0.19103845
-0.02025099
0.19009739
-0.020581559
0.18924612
-0.020839569
0.18847979
-0.021029888
0.18779362
-0.021157555
0.18718292
-0.021227711
0.18664318
-0.021245543
0.18617004
-0.021216234
0.1857594
-0.021144921
0.1854074
-0.02103667
0.18511042
-0.020896455
0.18486516
-0.020729163
0.1846686
-0.020539607
0.18451804
-0.020332562
0.18441108
-0.020112856
0.1843457
-0.019885386
0.18432022
-0.019655577
0.18433338
-0.019428681
0.18438426
-0.019213261
0.18447278
-0.019012179
0.1845984
-0.018854192
0.18476424
-0.018702109
0.18496451
-0.01874731
0.18522121
-0.018534132
0.18547264
-0.019637846
-0.018141901
0.26929582
0.013523792
-0.27132788
0.26712874
0.012043752
0.26478797
0.010254776
0.2623498
0.0084916869
0.25982218
0.0067568559
0.25721528
0.0049970035
0.25455523
0.0032194848
0.2518662
0.001449804
0.2491682
-0.00029856057
0.24648104
-0.0020164252
0.24382402
-0.0036923705
0.24121428
-0.005314736
0.23866655
-0.0068736767
0.23619334
-0.0083609516
0.23380495
-0.0097695964
0.23150955
-0.011093983
0.22931334
-0.012329847
0.22722073
-0.013474203
0.22523453
-0.014525238
0.22335617
-0.015482236
0.22158582
-0.016345479
0.21992266
-0.017116159
0.21836495
-0.017796276
0.21691026
-0.018388548
0.21555559
-0.018896312
0.21429746
-0.019323432
0.2131321
-0.019674208
0.21205549
-0.019953285
0.21106351
-0.020165572
0.21015197
-0.020316166
0.2093167
-0.020410276
0.20855364
-0.020453173
0.20785885
-0.02045013
0.20722857
-0.020406395
0.20665928
-0.020327159
0.20614767
-0.020217555
0.20569073
-0.020082671
0.20528575
-0.019927577
0.20493031
-0.019757416
0.20462235
-0.019577432
0.20436017
-0.019393396
0.20414251
-0.01921102
0.20396837
-0.019039122
0.20383779
-0.018881596
0.20374963
-0.018766025
0.20370828
-0.018660767
0.20370294
-0.018741964
0.2037675
-0.018598691
0.20379738
-0.019667733
-0.01836138
0.2930041
0.014854249
-0.29433455
0.29152559
0.013522261
0.28980389
0.011976478
0.2879061
0.010389473
0.2858671
0.0087958518
0.28369772
0.0071663875
0.28141636
0.0055008426
0.27904628
0.0038198866
0.27660878
0.0021389392
0.27412402
0.00046833004
0.27161222
-0.0011805679
0.26909311
-0.0027956221
0.26658502
-0.0043655835
0.26410454
-0.0058804799
0.26166644
-0.0073314958
0.25928349
-0.0087110295
0.25696646
-0.010012815
0.25472418
-0.011231923
0.25256365
-0.012364709
0.25049016
-0.013408749
0.24850746
-0.014362775
0.24661789
-0.015226588
0.24482258
-0.016000965
0.24312159
-0.016687562
0.24151409
-0.017288815
0.2399985
-0.017807838
0.23857261
-0.018248322
0.23723376
-0.018614435
0.23597892
-0.018910731
0.23480482
-0.019142059
0.23370802
-0.019313481
0.23268505
-0.019430204
0.23173244
-0.019497517
0.23084679
-0.019520744
0.23002484
-0.019505215
0.22926353
-0.019456245
0.22856001
-0.019379147
0.22791168
-0.019279252
0.22731626
-0.019161994
0.22677178
-0.01903295
0.22627661
-0.018898225
0.22582958
-0.018763992
0.22542973
-0.018639268
0.22507723
-0.018529101
0.22477057
-0.018459365
0.22451506
-0.018405253
0.22429598
-0.018522883
0.22415607