/*--------------------------------*- C++ -*----------------------------------*\
  =========                 |
  \\      /  F ield         | OpenFOAM: The Open Source CFD Toolbox
   \\    /   O peration     | Website:  https://openfoam.org
    \\  /    A nd           | Version:  6
     \\/     M anipulation  |
\*---------------------------------------------------------------------------*/
FoamFile
{
    version     2.0;
    format      ascii;
    class       volScalarField;
    location    "92";
    object      pMean;
}
// * * * * * * * * * * * * * * * * * * * * * * * * * * * * * * * * * * * * * //

dimensions      [0 2 -2 0 0 0 0];

internalField   nonuniform List<scalar> 
9200
(
-0.412651
-0.39999752
-0.38866123
-0.3786711
-0.36888165
-0.35928508
-0.34996952
-0.34089666
-0.33199139
-0.32317758
-0.31438115
-0.30553496
-0.2965859
-0.28750189
-0.27828148
-0.26897034
-0.25965527
-0.25043205
-0.24228731
-0.23934991
-0.43159335
-0.41649271
-0.40322639
-0.3916998
-0.38049981
-0.36958973
-0.35904796
-0.34880686
-0.33876226
-0.32881575
-0.31887817
-0.30887501
-0.29875377
-0.28848916
-0.27808738
-0.26758881
-0.25703888
-0.24645114
-0.23649111
-0.22927105
-0.45078893
-0.43324443
-0.41811086
-0.40512432
-0.39256658
-0.38035448
-0.36854667
-0.35704116
-0.3457058
-0.33442704
-0.32311256
-0.31169601
-0.30014281
-0.28845185
-0.27665364
-0.26480465
-0.25295927
-0.24113835
-0.22973877
-0.21987247
-0.46975961
-0.44981258
-0.43288791
-0.41850295
-0.40459959
-0.39103356
-0.3778388
-0.36488217
-0.3520152
-0.33912769
-0.32614714
-0.31303987
-0.29981233
-0.28650688
-0.27319339
-0.25995801
-0.24687893
-0.2340012
-0.22159421
-0.2104101
-0.48782977
-0.46560482
-0.44701382
-0.43130489
-0.41605617
-0.40105441
-0.3863126
-0.37168127
-0.35701957
-0.34224995
-0.3273499
-0.31234539
-0.29730425
-0.28232436
-0.267519
-0.25300245
-0.23886993
-0.22517912
-0.21211966
-0.2002134
-0.50413201
-0.47985834
-0.45978228
-0.44283456
-0.42622498
-0.40967541
-0.39319484
-0.37664701
-0.35993525
-0.34305132
-0.32605398
-0.30905037
-0.29217946
-0.2755928
-0.25943632
-0.24383633
-0.22888542
-0.21463237
-0.20120194
-0.18894294
-0.51762403
-0.49164778
-0.47032763
-0.45223715
-0.43424061
-0.4160155
-0.39759898
-0.37891162
-0.35994596
-0.34080082
-0.32164095
-0.30266425
-0.28407586
-0.26606505
-0.2487883
-0.23236032
-0.21684844
-0.20227222
-0.18869434
-0.17632281
-0.52711308
-0.49991174
-0.477661
-0.45854945
-0.43915176
-0.41913945
-0.39862404
-0.37763642
-0.35630541
-0.33486836
-0.31360893
-0.29281111
-0.27272833
-0.25356255
-0.23545456
-0.2184845
-0.20267658
-0.18800867
-0.17448291
-0.1621873
-0.53123584
-0.50334729
-0.48046515
-0.46040631
-0.43956066
-0.41765973
-0.39495067
-0.37163016
-0.34799864
-0.32444228
-0.30135217
-0.27907224
-0.2578718
-0.23793429
-0.21935981
-0.20217715
-0.1863587
-0.17183812
-0.15856151
-0.14651335
-0.52863552
-0.50052061
-0.47717147
-0.45612527
-0.43373957
-0.40989084
-0.38502493
-0.35954461
-0.33392887
-0.30868956
-0.2842837
-0.26106798
-0.23928527
-0.21906944
-0.20046199
-0.18343419
-0.16790896
-0.15378273
-0.14095303
-0.12931349
-0.2885352
-0.29263044
-0.29423686
-0.29419082
-0.29313226
-0.29121456
-0.28854469
-0.28522442
-0.28133144
-0.27692587
-0.27205762
-0.26676985
-0.26110105
-0.25508663
-0.24876018
-0.24215606
-0.23531089
-0.22825079
-0.22097937
-0.21359256
-0.29163832
-0.2952745
-0.29655205
-0.29627875
-0.29503347
-0.29296097
-0.29016596
-0.28674531
-0.28277235
-0.27830383
-0.27338682
-0.26806196
-0.26236552
-0.25633058
-0.24998781
-0.24337016
-0.23652158
-0.22946646
-0.22209673
-0.21438495
-0.29767447
-0.30041943
-0.30105986
-0.30034245
-0.29873174
-0.29635668
-0.29331721
-0.28970089
-0.28557262
-0.28098248
-0.27597178
-0.27057616
-0.26482739
-0.25875411
-0.25238158
-0.2457392
-0.23888171
-0.23183282
-0.22428757
-0.21596709
-0.3063449
-0.30782389
-0.30754736
-0.30617743
-0.30402282
-0.30119232
-0.29778005
-0.293861
-0.28948849
-0.2847032
-0.2795383
-0.27402213
-0.26817998
-0.26203401
-0.25560202
-0.24890733
-0.24201531
-0.2349552
-0.22717762
-0.21801475
-0.31727422
-0.31718528
-0.31574974
-0.31353251
-0.31065926
-0.30721775
-0.30329672
-0.29895694
-0.29423813
-0.28916994
-0.28377555
-0.27807368
-0.27208094
-0.26581165
-0.25927489
-0.25248495
-0.24551349
-0.23840378
-0.23035897
-0.22018843
-0.33007425
-0.3281902
-0.32539496
-0.32215423
-0.31839676
-0.31419139
-0.30962375
-0.30474068
-0.29956761
-0.29412056
-0.28841027
-0.28244469
-0.27623041
-0.26977245
-0.26307032
-0.25612681
-0.24901223
-0.24178937
-0.23344962
-0.22217835
-0.34440042
-0.34055864
-0.33624347
-0.33182713
-0.32703702
-0.32192731
-0.31658454
-0.31104131
-0.30530628
-0.29938124
-0.2932638
-0.28694925
-0.28043254
-0.27370849
-0.26676745
-0.25960098
-0.25227199
-0.24486563
-0.23622754
-0.22387303
-0.35998413
-0.3540703
-0.34811343
-0.34240117
-0.33646005
-0.33033316
-0.32410836
-0.31780387
-0.31141185
-0.30491811
-0.2983045
-0.29155094
-0.2846381
-0.2775485
-0.2702632
-0.26276606
-0.25511847
-0.24745168
-0.23858248
-0.22537009
-0.37663047
-0.36855331
-0.36085679
-0.35375361
-0.34656603
-0.33932541
-0.33212327
-0.3249633
-0.31781887
-0.31065715
-0.30344134
-0.2961327
-0.2886931
-0.28108566
-0.27327043
-0.26520612
-0.25692156
-0.2485317
-0.23885885
-0.22450761
-0.39420779
-0.38386343
-0.37432142
-0.36572431
-0.35718007
-0.34870841
-0.34040464
-0.33225645
-0.32421682
-0.31623377
-0.30825282
-0.30021965
-0.2920834
-0.28379697
-0.27531188
-0.26657392
-0.25753719
-0.24801423
-0.23644167
-0.21991884
-0.20524458
-0.1949343
-0.18469646
-0.17462189
-0.16464814
-0.15481432
-0.14517978
-0.13578225
-0.12664983
-0.11780933
-0.10928459
-0.10109482
-0.093255156
-0.085777318
-0.078669731
-0.071937648
-0.065583356
-0.059606406
-0.054003815
-0.048770266
-0.043898328
-0.039378677
-0.035200323
-0.031350844
-0.027816616
-0.024583049
-0.021634811
-0.018956051
-0.016530607
-0.014342204
-0.012374633
-0.010611919
-0.0090384719
-0.0076392159
-0.0063997128
-0.0053062661
-0.0043460266
-0.0035070679
-0.0027785601
-0.0021506415
-0.0016153883
-0.0011643779
-0.00079745828
-0.00049694036
-0.00030939537
-0.00010290029
-0.00029900009
0.00026645925
-0.0019201987
0.0030951095
-0.20678992
-0.19601413
-0.18563101
-0.17555164
-0.16553376
-0.15564068
-0.14595509
-0.13651053
-0.12733161
-0.11844594
-0.10987793
-0.10164664
-0.093767148
-0.086251237
-0.079107382
-0.072340854
-0.065953958
-0.059946251
-0.054314742
-0.049054098
-0.044156857
-0.039613652
-0.035413445
-0.031543752
-0.027990886
-0.024740183
-0.021776237
-0.019083119
-0.016644587
-0.014444284
-0.012465921
-0.010693444
-0.009111183
-0.0077039869
-0.0064573438
-0.0053574866
-0.0043914986
-0.0035473888
-0.002814266
-0.0021822094
-0.0016432384
-0.0011888752
-0.00081889912
-0.00051559647
-0.00032528106
-0.00011653273
-0.00030842479
0.00025604124
-0.0019103453
0.0030652404
-0.2098857
-0.19814
-0.18747636
-0.1774349
-0.16734879
-0.15734311
-0.14756179
-0.13802816
-0.12875824
-0.11978229
-0.11112662
-0.10281023
-0.09484826
-0.087252868
-0.080032818
-0.073193563
-0.066737546
-0.060664431
-0.054971287
-0.049652796
-0.044701477
-0.040107908
-0.035860967
-0.031948064
-0.028355382
-0.025068114
-0.022070697
-0.019347035
-0.016880713
-0.014655199
-0.012654027
-0.010860966
-0.0092601754
-0.0078363349
-0.00657477
-0.0054615577
-0.0044836322
-0.0036288606
-0.0028862174
-0.002245653
-0.0016990637
-0.0012378513
-0.00086165574
-0.00055269373
-0.00035679478
-0.00014345702
-0.0003270015
0.00023563871
-0.0018906483
0.0030060399
-0.21418149
-0.20092522
-0.18986846
-0.17999511
-0.16987102
-0.15972734
-0.14983339
-0.14019541
-0.13081151
-0.12171761
-0.11294486
-0.1045126
-0.096436354
-0.088729247
-0.081400864
-0.074457214
-0.067901177
-0.061732769
-0.055949313
-0.050545653
-0.045514387
-0.040846108
-0.036529646
-0.032552312
-0.028900149
-0.025558175
-0.022510622
-0.019741172
-0.017233168
-0.014969831
-0.012934437
-0.011110501
-0.0094819254
-0.0080331405
-0.0067492284
-0.0056160313
-0.0046202587
-0.0037495632
-0.0029927155
-0.0023394708
-0.001781539
-0.0013101386
-0.00092470045
-0.00060733238
-0.00040314624
-0.00018299422
-0.0003541529
0.00020576528
-0.0018611686
0.0029186926
-0.21924329
-0.20394299
-0.19240088
-0.18290125
-0.17283304
-0.16255914
-0.15256439
-0.14283764
-0.13334349
-0.12412524
-0.11522389
-0.10666069
-0.098451887
-0.090612338
-0.083153297
-0.076081972
-0.069402174
-0.063114683
-0.057217424
-0.051705678
-0.046572342
-0.041808186
-0.037402114
-0.033341425
-0.029612069
-0.026198912
-0.023085985
-0.020256723
-0.0176942
-0.015381336
-0.0133011
-0.011436686
-0.0097716751
-0.0082901785
-0.0069769647
-0.0058175713
-0.0047984142
-0.0039068648
-0.0031314258
-0.0024615943
-0.0018888341
-0.0014041211
-0.0010066088
-0.000678262
-0.00046324082
-0.0002341929
-0.00038910448
0.00016719609
-0.0018221848
0.0028050798
-0.22454903
-0.20678953
-0.1946986
-0.18580878
-0.17595648
-0.16560166
-0.15553889
-0.1457643
-0.13619214
-0.12686695
-0.11784454
-0.10915185
-0.10080683
-0.092826711
-0.085225415
-0.078012295
-0.071192823
-0.064769133
-0.058740253
-0.053102327
-0.047848896
-0.042971183
-0.038458383
-0.034297944
-0.030475847
-0.026976888
-0.023784943
-0.020883229
-0.018254544
-0.015881496
-0.013746711
-0.011833021
-0.010123636
-0.0086022911
-0.007253383
-0.0060620833
-0.0050144535
-0.0040975228
-0.003299467
-0.0026094674
-0.0020186852
-0.0015177981
-0.0011056168
-0.00076393439
-0.00053572549
-0.00029587985
-0.0004309128
0.00012088184
-0.0017741109
0.0026676434
-0.22959294
-0.20921245
-0.19649469
-0.18837465
-0.17896869
-0.16866027
-0.15858094
-0.14880673
-0.13920871
-0.12981595
-0.12069694
-0.11188979
-0.103417
-0.095298896
-0.087552948
-0.080191811
-0.073223581
-0.066652499
-0.060479328
-0.05470161
-0.04931397
-0.044308444
-0.0396748
-0.035400861
-0.031472807
-0.027875487
-0.024592709
-0.021607523
-0.018902478
-0.016459874
-0.01426198
-0.012291243
-0.010530463
-0.0089629554
-0.0075726959
-0.0063444389
-0.0052638382
-0.0043175275
-0.0034933027
-0.0027799768
-0.0021683577
-0.0016487746
-0.0012196324
-0.00086253353
-0.00061903081
-0.00036671834
-0.00047851808
6.7847337e-05
-0.0017174525
0.002509218
-0.23405145
-0.21155894
-0.19799814
-0.19040905
-0.18163994
-0.17161991
-0.16161683
-0.15187888
-0.14230076
-0.1328857
-0.12370152
-0.11479999
-0.10621265
-0.097964367
-0.090076716
-0.082566513
-0.075445388
-0.068720416
-0.062394685
-0.056467643
-0.050935432
-0.045791258
-0.041025762
-0.036627374
-0.032582666
-0.028876685
-0.025493278
-0.0224154
-0.019625403
-0.017105301
-0.014837015
-0.012802594
-0.010984407
-0.009365324
-0.0079288598
-0.0066593117
-0.0055418817
-0.0045627632
-0.0037093264
-0.0029699707
-0.0023351042
-0.001794664
-0.001346589
-0.00097228272
-0.00071163517
-0.00044543057
-0.00053092451
9.0345611e-06
-0.0016528366
0.0023329632
-0.23559343
-0.21395099
-0.19979643
-0.19181946
-0.18353638
-0.17409711
-0.16436761
-0.15474651
-0.14525422
-0.13588866
-0.12670185
-0.11775428
-0.10908981
-0.10074032
-0.092732336
-0.085087616
-0.077822358
-0.070947477
-0.06446927
-0.058389881
-0.052707681
-0.047417668
-0.042511886
-0.037979828
-0.033808825
-0.029984423
-0.02649075
-0.023310851
-0.020427013
-0.01782106
-0.015474623
-0.013369385
-0.011487296
-0.0098107647
-0.0083228261
-0.0070072853
-0.0058488521
-0.0048332336
-0.0039473263
-0.003179065
-0.0025184077
-0.0019548486
-0.0014857962
-0.0010924381
-0.00081277738
-0.00053120434
-0.00058752002
-5.4474498e-05
-0.0015814552
0.0021430414
-0.2262655
-0.21348992
-0.20126854
-0.19200445
-0.18373334
-0.17510984
-0.16601291
-0.15677447
-0.14757292
-0.13843977
-0.12941013
-0.12054636
-0.11190638
-0.10353405
-0.095464762
-0.087728262
-0.08034817
-0.073341853
-0.066721053
-0.060492501
-0.054658384
-0.049216821
-0.044162348
-0.039486406
-0.035177795
-0.031223123
-0.027607226
-0.024313566
-0.021324605
-0.018622141
-0.016187621
-0.014002424
-0.012048101
-0.010306597
-0.0087604418
-0.0073929066
-0.0061881586
-0.0051313607
-0.004208875
-0.0034081084
-0.002718507
-0.0021290568
-0.0016365736
-0.0012219732
-0.00092123694
-0.00062249671
-0.00064720331
-0.00012004445
-0.0015054719
0.0019453705
-0.2050407
-0.20748917
-0.20074901
-0.19082593
-0.18222512
-0.17405741
-0.16544312
-0.1565395
-0.14760585
-0.13870957
-0.12987918
-0.12117352
-0.11265495
-0.10437243
-0.096365346
-0.088667154
-0.081305139
-0.074300095
-0.06766685
-0.061414885
-0.055548827
-0.050068923
-0.044971548
-0.040249706
-0.035893513
-0.031890664
-0.02822688
-0.024886326
-0.021852005
-0.019106121
-0.016630406
-0.014406422
-0.012415818
-0.010640568
-0.009063171
-0.0076668244
-0.0064355831
-0.0053544696
-0.0044096797
-0.00358844
-0.0028799655
-0.0022730762
-0.0017640513
-0.0013342111
-0.0010165347
-0.0007057133
-0.00069910154
-0.00018459108
-0.0014236039
0.0017489924
-0.19361301
-0.19715666
-0.19232099
-0.18280035
-0.1746736
-0.1673761
-0.15966949
-0.15157932
-0.14338817
-0.13517516
-0.1269613
-0.11880226
-0.1107635
-0.10289856
-0.095251426
-0.087860429
-0.080757915
-0.073969681
-0.067515344
-0.061408911
-0.055659229
-0.050270445
-0.045242495
-0.040571611
-0.036250812
-0.032270381
-0.028618331
-0.025280838
-0.022242657
-0.0194875
-0.016998394
-0.014757989
-0.012748849
-0.010953701
-0.0093556528
-0.0079383882
-0.006686338
-0.0055848066
-0.0046201792
-0.0037798187
-0.0030529295
-0.0024284633
-0.0019020908
-0.0014562748
-0.001119522
-0.00079699792
-0.00075252555
-0.00025990054
-0.0013240471
0.0015344847
-0.18379606
-0.18504886
-0.18152498
-0.17383628
-0.16669137
-0.16019814
-0.15335409
-0.14608333
-0.13863649
-0.13111056
-0.1235294
-0.11594343
-0.1084173
-0.1010069
-0.093759071
-0.086715308
-0.079911707
-0.073378123
-0.067138307
-0.061210355
-0.055607096
-0.050336477
-0.04540201
-0.040803252
-0.036536275
-0.032594144
-0.028967372
-0.025644371
-0.022611872
-0.019855317
-0.017359232
-0.015107553
-0.013083938
-0.011272024
-0.0096556774
-0.0082191932
-0.006947488
-0.0058262421
-0.0048421078
-0.0039826505
-0.0032371052
-0.0025946133
-0.0020501878
-0.0015876244
-0.0012303956
-0.00089556735
-0.00080920443
-0.00034203364
-0.0012109058
0.0012970438
-0.17303636
-0.17207376
-0.16913886
-0.16356928
-0.15774897
-0.15210643
-0.14614569
-0.1397684
-0.13313977
-0.1263607
-0.11946976
-0.11251584
-0.10556062
-0.098661057
-0.091866387
-0.085220814
-0.078763659
-0.072528504
-0.066543066
-0.060829488
-0.05540463
-0.050280377
-0.045464014
-0.040958658
-0.036763704
-0.032875273
-0.029286667
-0.025988811
-0.022970678
-0.020219695
-0.017722121
-0.015463396
-0.013428462
-0.011602045
-0.0099689191
-0.008514124
-0.007223176
-0.0060822275
-0.0050782766
-0.0041991544
-0.0034341739
-0.0027727006
-0.0022090968
-0.0017285187
-0.0013492754
-0.0010006003
-0.00086969982
-0.00042710051
-0.0010920867
0.0010473259
-0.16143169
-0.15897872
-0.15624111
-0.15241632
-0.1479597
-0.14322178
-0.13814596
-0.13268758
-0.12692423
-0.12093896
-0.11478478
-0.10851286
-0.10218091
-0.095844927
-0.08955548
-0.083358643
-0.077296144
-0.071404644
-0.065715396
-0.060254329
-0.055042216
-0.050094877
-0.045423467
-0.041034835
-0.036931916
-0.033114146
-0.029577891
-0.026316872
-0.023322587
-0.02058472
-0.018091523
-0.01583018
-0.013787135
-0.011948404
-0.010299842
-0.0088273904
-0.0075172969
-0.0063562985
-0.0053318328
-0.0044320709
-0.0036464639
-0.002964633
-0.0023803336
-0.0018800314
-0.0014769829
-0.0011122476
-0.00093479588
-0.00051352498
-0.00097328236
0.00079354285
-0.14875
-0.14581747
-0.143363
-0.1408487
-0.13761969
-0.13380477
-0.1295972
-0.12503217
-0.12013235
-0.11495399
-0.10955584
-0.10399101
-0.098313237
-0.09257604
-0.086829866
-0.081121458
-0.075493782
-0.069985531
-0.064630669
-0.059458287
-0.054492608
-0.049753083
-0.045254569
-0.041007593
-0.037018668
-0.033290652
-0.02982313
-0.026612815
-0.02365395
-0.020938699
-0.01845754
-0.016199621
-0.014153109
-0.012305504
-0.010643928
-0.009155388
-0.0078270091
-0.0066462396
-0.0056010656
-0.0046800848
-0.0038729635
-0.0031696157
-0.0025632682
-0.0020415958
-0.0016131078
-0.0012298886
-0.0010047257
-0.00059990654
-0.00086007661
0.00054412044
-0.1353343
-0.13274252
-0.13077401
-0.12921882
-0.12700613
-0.12407567
-0.12070177
-0.11697899
-0.11290854
-0.10852191
-0.10387518
-0.099021759
-0.094010589
-0.088890993
-0.083711912
-0.078519637
-0.073357206
-0.068264157
-0.063276119
-0.058424484
-0.05373624
-0.049233927
-0.044935711
-0.040855534
-0.037003338
-0.033385348
-0.030004396
-0.026860267
-0.023950072
-0.021268619
-0.018808784
-0.016561871
-0.014517954
-0.012666205
-0.010995189
-0.0094931399
-0.0081482126
-0.0069486992
-0.0058832516
-0.0049409914
-0.0041118899
-0.0033861962
-0.0027567168
-0.0022121994
-0.0017568839
-0.0013526832
-0.0010795867
-0.00068494715
-0.00075822247
0.00030797299
-0.12187158
-0.11999282
-0.11861845
-0.11777377
-0.11636962
-0.11423965
-0.11164217
-0.10869566
-0.10539889
-0.10176675
-0.097846651
-0.093689064
-0.08933894
-0.084840282
-0.080238256
-0.075577487
-0.070900119
-0.066245422
-0.061649564
-0.057145239
-0.052761343
-0.048522799
-0.044450505
-0.040561372
-0.036868453
-0.033381128
-0.030105355
-0.027043955
-0.024196932
-0.021561807
-0.019133966
-0.016907001
-0.014873047
-0.013023102
-0.011347332
-0.0098353562
-0.0084765011
-0.0072600379
-0.0061754064
-0.0052123556
-0.0043612609
-0.0036127571
-0.0029593613
-0.0023907421
-0.0019074764
-0.0014798408
-0.0011594494
-0.00076778015
-0.00067295512
9.3526653e-05
-0.10886557
-0.1077396
-0.10696091
-0.10666577
-0.10590193
-0.10446713
-0.10256981
-0.10032514
-0.097734761
-0.094804448
-0.091571293
-0.08807965
-0.084369725
-0.080480685
-0.076452999
-0.072327674
-0.06814483
-0.063942557
-0.059756546
-0.055619774
-0.051562118
-0.047610069
-0.04378656
-0.040110896
-0.036598776
-0.033262385
-0.030110556
-0.027148982
-0.024380477
-0.021805255
-0.019421242
-0.017224389
-0.015208987
-0.013367981
-0.011693268
-0.010175982
-0.008806759
-0.0075759756
-0.0064739805
-0.0054912563
-0.0046186879
-0.0038473543
-0.0031696301
-0.0025759583
-0.0020639329
-0.001610621
-0.0012443049
-0.00084808466
-0.00060830908
-9.2318133e-05
-0.096574178
-0.096096435
-0.095847822
-0.095991109
-0.095737544
-0.094889205
-0.09360467
-0.091982616
-0.09002602
-0.08773573
-0.085139255
-0.08227327
-0.079172308
-0.075870261
-0.072402794
-0.068806673
-0.065118571
-0.061374354
-0.057608359
-0.053852926
-0.050138008
-0.046490817
-0.042935565
-0.039493291
-0.036181782
-0.03301557
-0.030006004
-0.027161383
-0.024487143
-0.021986079
-0.019658605
-0.01750303
-0.01551584
-0.013691998
-0.012025222
-0.010508269
-0.0091331945
-0.0078915958
-0.0067748439
-0.005774259
-0.0048813421
-0.0040876834
-0.0033856687
-0.0027663944
-0.0022251703
-0.0017443238
-0.0013340253
-0.00092605294
-0.00056662097
-0.00024504613
-0.085120841
-0.085148801
-0.085332089
-0.085821898
-0.085972967
-0.085607531
-0.084844638
-0.083763348
-0.082365342
-0.080648091
-0.078630918
-0.07634253
-0.073811214
-0.071065289
-0.068135148
-0.065052973
-0.0618515
-0.058563337
-0.055220543
-0.051854
-0.048492898
-0.045164356
-0.041893096
-0.038701194
-0.035607909
-0.032629589
-0.02977966
-0.027068673
-0.024504414
-0.022092064
-0.019834396
-0.017732005
-0.015783554
-0.013986037
-0.012335044
-0.010825024
-0.0094495376
-0.0082014995
-0.0070734021
-0.0060575006
-0.0051460155
-0.0043311208
-0.0036053681
-0.002960424
-0.0023899849
-0.001880274
-0.0014283335
-0.0010022628
-0.00054825882
-0.00036310149
-0.074555436
-0.074953572
-0.075464421
-0.076216574
-0.076681016
-0.076703028
-0.076372118
-0.075749432
-0.074833861
-0.073619942
-0.0721201
-0.070355534
-0.068348168
-0.066120628
-0.063697862
-0.061107038
-0.058376573
-0.055535372
-0.052612412
-0.049636309
-0.046634739
-0.043633963
-0.040658468
-0.037730663
-0.034870635
-0.032095976
-0.029421687
-0.026860152
-0.024421165
-0.022112024
-0.019937664
-0.01790083
-0.016002277
-0.014240997
-0.012614453
-0.011118818
-0.0097492152
-0.0084999452
-0.0073647044
-0.0063367691
-0.0054091754
-0.0045747582
-0.0038263836
-0.0031562485
-0.0025570453
-0.002017772
-0.0015267617
-0.0010774748
-0.00055163858
-0.00044803229
-0.064882619
-0.065538107
-0.066281781
-0.067219738
-0.067916953
-0.068240175
-0.068256691
-0.0680128
-0.067504388
-0.066723381
-0.065676425
-0.064378034
-0.062844069
-0.061091587
-0.059140134
-0.057011739
-0.054730162
-0.052320243
-0.04980745
-0.047217478
-0.044575784
-0.041907084
-0.039234933
-0.03658139
-0.033966716
-0.031409151
-0.028924732
-0.026527204
-0.02422797
-0.022036115
-0.019958474
-0.017999743
-0.016162633
-0.014448044
-0.012855266
-0.011382189
-0.010025518
-0.0087809851
-0.0076435504
-0.006607583
-0.0056670199
-0.0048154346
-0.0040461476
-0.0033518882
-0.0027248701
-0.002156022
-0.0016286069
-0.0011523992
-0.00057354484
-0.00050412294
-0.056081772
-0.056905653
-0.057802847
-0.058860215
-0.059720078
-0.060268304
-0.060555179
-0.060615159
-0.060441644
-0.060024476
-0.059365588
-0.058473783
-0.057359477
-0.056034539
-0.054513373
-0.052812981
-0.050952394
-0.048952143
-0.046833875
-0.044619963
-0.042333093
-0.039995822
-0.037630147
-0.035257136
-0.0328966
-0.030566817
-0.028284305
-0.02606366
-0.02391745
-0.021856164
-0.019888217
-0.018020005
-0.016255996
-0.014598859
-0.01304962
-0.011607833
-0.010271771
-0.0090386081
-0.0079046073
-0.0068652828
-0.005915545
-0.0050497804
-0.004261891
-0.0035451769
-0.0028918061
-0.0022940605
-0.0017329004
-0.0012274892
-0.00060970306
-0.00053755224
-0.048117056
-0.049040857
-0.05002833
-0.051150496
-0.052114021
-0.05282175
-0.053310932
-0.053606773
-0.053700967
-0.053581955
-0.053248019
-0.052703298
-0.051953567
-0.051006105
-0.049870638
-0.048559463
-0.047087036
-0.04546957
-0.043724731
-0.041871315
-0.039928878
-0.037917344
-0.03585662
-0.033766216
-0.031664908
-0.029570435
-0.027499234
-0.025466231
-0.023484677
-0.02156604
-0.019719954
-0.017954205
-0.016274769
-0.014685894
-0.013190197
-0.011788805
-0.010481503
-0.0092668887
-0.0081425341
-0.0071051328
-0.0061506235
-0.0052742731
-0.0044706785
-0.0037337727
-0.00305602
-0.0024307055
-0.0018384084
-0.001302809
-0.00065548236
-0.00055524867
-0.040942704
-0.041914983
-0.042944201
-0.044088387
-0.045107852
-0.04592052
-0.04655375
-0.047025676
-0.047327062
-0.047445669
-0.047377148
-0.047122028
-0.046682331
-0.046061489
-0.045265173
-0.044301467
-0.043180601
-0.041914668
-0.040517397
-0.039003919
-0.037390459
-0.035694007
-0.033931973
-0.032121846
-0.03028086
-0.028425684
-0.026572143
-0.024734974
-0.022927621
-0.021162083
-0.019448805
-0.017796614
-0.0162127
-0.014702644
-0.013270469
-0.011918734
-0.010648637
-0.0094601443
-0.0083521166
-0.0073224329
-0.0063680962
-0.0054853091
-0.0046694585
-0.0039151864
-0.0032155107
-0.0025645421
-0.0019436692
-0.0013779987
-0.00070656546
-0.00056371496
-0.034507452
-0.035490744
-0.036525792
-0.037659963
-0.038698229
-0.039571834
-0.040300748
-0.040897811
-0.041353527
-0.041655619
-0.041798043
-0.041778705
-0.041596774
-0.041252632
-0.040748608
-0.040089192
-0.039280888
-0.038332026
-0.037252633
-0.036054265
-0.034749787
-0.033353106
-0.03187889
-0.030342266
-0.028758522
-0.027142812
-0.025509869
-0.023873753
-0.022247626
-0.02064356
-0.019072388
-0.017543595
-0.01606525
-0.014643983
-0.013284988
-0.011992067
-0.010767698
-0.0096131181
-0.0085284197
-0.0075126467
-0.0065638773
-0.0056792878
-0.0048551299
-0.0040868301
-0.0033681444
-0.002693947
-0.0020470624
-0.0014523237
-0.00075942893
-0.00056811081
-0.028757874
-0.029725942
-0.03074133
-0.031842644
-0.032871969
-0.033772215
-0.034557891
-0.035237957
-0.035803174
-0.036241748
-0.036546724
-0.036714265
-0.03674152
-0.036626609
-0.036369258
-0.035971045
-0.035435334
-0.034767185
-0.03397329
-0.033061884
-0.032042601
-0.030926281
-0.029724751
-0.028450585
-0.027116846
-0.025736821
-0.02432376
-0.022890623
-0.021449845
-0.020013135
-0.018591291
-0.017194059
-0.015830028
-0.014506556
-0.013229735
-0.012004386
-0.010834085
-0.009721205
-0.0086669778
-0.0076715584
-0.0067340829
-0.005852716
-0.0050246243
-0.0042460829
-0.0035117092
-0.0028171435
-0.0021468902
-0.0015247799
-0.00081154022
-0.00057179753
-0.023640647
-0.024576096
-0.025554736
-0.026607938
-0.027608597
-0.028509749
-0.02932189
-0.030051175
-0.03068899
-0.031224395
-0.031650142
-0.031961384
-0.032153978
-0.032224496
-0.032170772
-0.031992151
-0.031689489
-0.031265129
-0.0307229
-0.030068087
-0.02930736
-0.028448649
-0.027500994
-0.026474361
-0.025379443
-0.024227436
-0.023029814
-0.021798091
-0.020543604
-0.019277298
-0.018009539
-0.016749948
-0.015507261
-0.014289231
-0.013102545
-0.011952783
-0.010844402
-0.0097807409
-0.00876404
-0.0077954775
-0.0068751986
-0.0060023432
-0.0051750141
-0.0043903787
-0.0036439885
-0.0029322793
-0.0022414573
-0.0015942117
-0.00086127779
-0.00057638604
-0.019104365
-0.019996617
-0.020928021
-0.021923935
-0.022882817
-0.023766427
-0.024582309
-0.02533461
-0.02601556
-0.026615306
-0.027126762
-0.027544635
-0.027864088
-0.028080757
-0.028191214
-0.028193208
-0.028085702
-0.027868897
-0.027544278
-0.027114628
-0.026584018
-0.025957742
-0.025242227
-0.024444914
-0.023574113
-0.022638829
-0.021648577
-0.020613189
-0.019542604
-0.018446678
-0.01733499
-0.016216676
-0.015100269
-0.013993574
-0.012903563
-0.011836292
-0.010796858
-0.0097893574
-0.0088168789
-0.0078815021
-0.0069842992
-0.0061253416
-0.0053036579
-0.0045173245
-0.003762858
-0.0030375209
-0.0023291401
-0.0016594196
-0.00090767589
-0.0005821595
-0.015100648
-0.015944276
-0.016823044
-0.017757256
-0.018666583
-0.019520255
-0.020323627
-0.021079406
-0.021780768
-0.022419057
-0.022987654
-0.023481231
-0.023894713
-0.024223289
-0.024462799
-0.024609945
-0.024662361
-0.024618657
-0.024478494
-0.024242636
-0.023912975
-0.023492521
-0.022985365
-0.022396612
-0.021732292
-0.020999236
-0.020204945
-0.019357426
-0.018465028
-0.017536268
-0.016579659
-0.015603538
-0.014615916
-0.013624332
-0.012635733
-0.011656369
-0.010691712
-0.0097463935
-0.0088241605
-0.0079278422
-0.0070593256
-0.0062195375
-0.0054083907
-0.0046248562
-0.0038664128
-0.0031311665
-0.0024084533
-0.0017192485
-0.000950137
-0.0005886421
-0.011585441
-0.012378764
-0.013203262
-0.014074939
-0.014931072
-0.015747251
-0.01652719
-0.017272547
-0.017977459
-0.018634485
-0.019237643
-0.019781852
-0.020262118
-0.02067355
-0.021011666
-0.02127258
-0.021453072
-0.021550656
-0.021563657
-0.021491288
-0.021333702
-0.02109202
-0.020768332
-0.020365677
-0.019888003
-0.01934009
-0.018727465
-0.018056287
-0.017333218
-0.016565283
-0.015759721
-0.014923833
-0.01406484
-0.013189735
-0.012305157
-0.011417272
-0.010531671
-0.0096532853
-0.0087863124
-0.0079341588
-0.0070993872
-0.006283676
-0.0054877493
-0.0047114288
-0.003953122
-0.0032117763
-0.0024781253
-0.0017726649
-0.00098822606
-0.00059510043
-0.0085192967
-0.0092634409
-0.01003489
-0.010845963
-0.011648542
-0.012423599
-0.013173593
-0.013899402
-0.014596072
-0.015257328
-0.0158779
-0.016453114
-0.016978267
-0.017448637
-0.017859724
-0.018207398
-0.018487975
-0.018698282
-0.018835735
-0.01889843
-0.018885203
-0.018795681
-0.018630318
-0.018390406
-0.018078073
-0.017696251
-0.017248629
-0.016739586
-0.016174098
-0.015557638
-0.014896058
-0.014195465
-0.013462088
-0.012702151
-0.011921746
-0.011126708
-0.010322506
-0.0095141403
-0.0087060515
-0.0079020374
-0.0071051798
-0.006317781
-0.0055412779
-0.0047762705
-0.0040220361
-0.003278337
-0.0025372015
-0.0018188432
-0.001021591
-0.0006008649
-0.0058680916
-0.0065659088
-0.0072873623
-0.0080415662
-0.0087924888
-0.0095256396
-0.010242499
-0.01094335
-0.011624059
-0.012279413
-0.012904862
-0.013496213
-0.014049171
-0.014559333
-0.01502238
-0.01543419
-0.0157909
-0.016088973
-0.01632527
-0.016497135
-0.016602463
-0.016639764
-0.016608212
-0.016507686
-0.016338789
-0.016102859
-0.015801949
-0.0154388
-0.01501679
-0.014539871
-0.01401248
-0.013439448
-0.012825896
-0.01217712
-0.01149848
-0.010795281
-0.010072663
-0.0093354877
-0.0085882389
-0.0078349228
-0.0070789765
-0.0063231854
-0.0055695812
-0.0048194477
-0.0040728516
-0.0033303212
-0.0025850795
-0.0018571945
-0.0010499381
-0.00060544745
-0.0036057698
-0.0042618097
-0.0049380284
-0.0056408378
-0.0063441358
-0.007037197
-0.0077207271
-0.0083945389
-0.0090552105
-0.0096984654
-0.010320424
-0.010917389
-0.011485512
-0.012020787
-0.01251919
-0.012976761
-0.013389662
-0.013754229
-0.014067036
-0.014324971
-0.014525308
-0.014665766
-0.014744571
-0.01476051
-0.014712972
-0.014601973
-0.014428176
-0.014192891
-0.013898052
-0.013546193
-0.013140395
-0.012684223
-0.012181648
-0.011636963
-0.011054683
-0.010439446
-0.0097959025
-0.0091286097
-0.0084419234
-0.0077398915
-0.0070261488
-0.0063038201
-0.0055754034
-0.0048427557
-0.004106634
-0.003368262
-0.0026219505
-0.0018877037
-0.001073286
-0.00060868099
-0.0017056284
-0.0023246766
-0.0029608672
-0.0036182131
-0.0042787069
-0.0049347406
-0.0055864053
-0.0062331309
-0.0068720883
-0.0074997969
-0.0081129721
-0.0087083807
-0.0092826104
-0.0098320676
-0.010353068
-0.010841903
-0.011294876
-0.011708351
-0.012078806
-0.012402896
-0.012677516
-0.012899864
-0.013067501
-0.01317841
-0.013231048
-0.013224392
-0.01315797
-0.013031888
-0.01284684
-0.012604104
-0.012305524
-0.011953474
-0.011550813
-0.011100823
-0.010607133
-0.010073635
-0.0095043946
-0.0089035423
-0.0082751744
-0.0076232413
-0.0069514363
-0.0062630878
-0.0055610328
-0.0048475831
-0.0041240768
-0.0033923441
-0.0026476675
-0.0019100236
-0.001091268
-0.00061024019
-0.00017207296
-0.00076082891
-0.0013639259
-0.0019836261
-0.0026082996
-0.0032327683
-0.0038566297
-0.0044790138
-0.0050975679
-0.0057094561
-0.0063118891
-0.0069020339
-0.0074768681
-0.0080331774
-0.008567614
-0.0090767403
-0.0095570593
-0.01000505
-0.010417212
-0.010790116
-0.011120464
-0.011405137
-0.011641262
-0.011826265
-0.011957933
-0.012034463
-0.012054512
-0.012017235
-0.011922319
-0.011769996
-0.011561057
-0.011296838
-0.010979202
-0.0106105
-0.010193522
-0.0097314266
-0.0092276704
-0.0086859129
-0.0081099201
-0.0075034571
-0.0068701749
-0.006213497
-0.0055364849
-0.0048417916
-0.0041312194
-0.0034071017
-0.002665559
-0.0019265357
-0.0011055436
-0.00061102254
0.0010402283
0.00047648598
-9.9456205e-05
-0.00068826372
-0.0012832438
-0.0018811442
-0.002481188
-0.0030822605
-0.0036823707
-0.0042791846
-0.0048703066
-0.0054532291
-0.0060252526
-0.0065834855
-0.0071248766
-0.0076462434
-0.0081442944
-0.0086156572
-0.0090569135