/*--------------------------------*- C++ -*----------------------------------*\
  =========                 |
  \\      /  F ield         | OpenFOAM: The Open Source CFD Toolbox
   \\    /   O peration     | Website:  https://openfoam.org
    \\  /    A nd           | Version:  6
     \\/     M anipulation  |
\*---------------------------------------------------------------------------*/
FoamFile
{
    version     2.0;
    format      ascii;
    class       volVectorField;
    location    "92";
    object      U_0;
}
// * * * * * * * * * * * * * * * * * * * * * * * * * * * * * * * * * * * * * //

dimensions      [0 1 -1 0 0 0 0];

internalField   nonuniform List<vector> 
9200
(
(0.0010404105 0.0014194186 -5.9210005e-20)
(0.013680693 -0.0020608176 4.6049944e-20)
(0.038323207 -0.0058708641 -3.8507516e-20)
(0.07229137 -0.0097696708 -6.0266525e-20)
(0.11378979 -0.013498113 1.8830087e-20)
(0.16161507 -0.016615684 3.274893e-20)
(0.21471563 -0.018829264 -1.2270199e-20)
(0.27212081 -0.019987833 9.2705641e-21)
(0.33292191 -0.020027154 1.6805748e-20)
(0.39624023 -0.018947015 1.4850413e-21)
(0.46120322 -0.016799879 -2.1460035e-20)
(0.52693496 -0.013679993 2.067371e-20)
(0.59255842 -0.009712588 -4.0428946e-20)
(0.65720762 -0.0050428566 -2.1138127e-20)
(0.72004826 0.0001757992 5.9057634e-21)
(0.78030424 0.0057914346 -2.5137402e-20)
(0.83730374 0.011677017 2.5223569e-20)
(0.89060397 0.01787931 2.2251848e-20)
(0.93980613 0.024530556 -2.9761812e-22)
(0.982186 0.028247141 -1.667048e-21)
(0.0052539898 -0.0013472494 -1.7061705e-20)
(0.026969362 -0.0089924979 3.9753709e-20)
(0.061683914 -0.014815415 2.3579795e-20)
(0.1063171 -0.019179934 -1.1571327e-19)
(0.15876743 -0.02222359 -1.272906e-20)
(0.21757575 -0.02373213 7.3306743e-20)
(0.28142628 -0.023608333 -3.5481494e-20)
(0.34907074 -0.021883965 -8.391742e-21)
(0.41931534 -0.018662299 3.4292794e-20)
(0.49099663 -0.014099446 -4.3266696e-20)
(0.56296986 -0.008396489 -3.034413e-20)
(0.63411532 -0.0017892182 7.1936294e-20)
(0.70335811 0.0054634882 3.830181e-20)
(0.76969696 0.013091209 -6.7992239e-20)
(0.83223812 0.020821883 1.4627615e-20)
(0.89022862 0.02838646 -3.67431e-20)
(0.94309805 0.035533118 -1.3780026e-20)
(0.99055991 0.042100765 7.0997801e-20)
(1.0324806 0.047671482 2.9655976e-20)
(1.0670551 0.049092584 -8.3493217e-20)
(0.010861137 -0.0040437491 3.6778072e-20)
(0.043962892 -0.015435377 2.5049974e-21)
(0.090533502 -0.022558948 2.2345083e-20)
(0.14713941 -0.026506033 9.812927e-22)
(0.2113815 -0.027896768 -4.0780241e-20)
(0.28151821 -0.02680722 1.857856e-20)
(0.35593281 -0.023396362 1.3422359e-20)
(0.43306425 -0.017936663 -5.033511e-20)
(0.51141021 -0.010752307 5.7270936e-20)
(0.58952194 -0.0022021786 1.425972e-20)
(0.66601404 0.0073277828 -5.4311694e-20)
(0.73959271 0.017438071 -1.824206e-20)
(0.80909396 0.02773201 9.0584458e-21)
(0.87352425 0.037832038 2.3450798e-20)
(0.9320968 0.047393804 -1.1366156e-20)
(0.98425644 0.056115423 2.7885261e-20)
(1.0296945 0.063752049 -2.0193212e-20)
(1.0683812 0.070163484 -7.0145153e-20)
(1.1004437 0.075074612 -2.3804736e-20)
(1.1250169 0.076592997 4.8669955e-20)
(0.017960975 -0.0064237676 2.4510869e-20)
(0.064789427 -0.020699656 5.1045652e-20)
(0.12487502 -0.028068076 1.9884101e-20)
(0.19450383 -0.030473138 1.2991268e-20)
(0.27099562 -0.029105442 1.7277626e-20)
(0.3523075 -0.024400895 -4.7726392e-20)
(0.43650232 -0.016839098 -2.5650497e-20)
(0.52170261 -0.0069910104 0)
(0.60612199 0.0045513614 1.3924647e-20)
(0.68808913 0.017194515 -5.8550245e-21)
(0.76608445 0.030354861 -9.7954378e-20)
(0.8387889 0.043478369 -1.577692e-20)
(0.9051327 0.056062764 6.5120089e-20)
(0.96433401 0.067677307 4.8239324e-22)
(1.0159207 0.07797756 -1.5729814e-21)
(1.0597298 0.086713022 2.1963586e-20)
(1.0958872 0.093734637 -5.2666987e-21)
(1.1247846 0.099023807 -6.1046895e-20)
(1.1469632 0.10255163 -4.5865537e-20)
(1.1623879 0.1033648 6.9536019e-20)
(0.026584358 -0.0082074463 -3.9197088e-21)
(0.089359657 -0.02403857 -5.1261215e-21)
(0.16433518 -0.030272235 5.6605891e-20)
(0.24762163 -0.029818784 1.8541335e-20)
(0.33629509 -0.024522939 -3.1958977e-20)
(0.42801757 -0.01525071 1.2165328e-20)
(0.52055103 -0.0028631028 2.640684e-21)
(0.61175285 0.011724359 3.3615297e-20)
(0.6996456 0.027626166 5.6610168e-21)
(0.78247405 0.044013198 -1.3208462e-20)
(0.85876471 0.060130129 6.0169834e-20)
(0.92738244 0.075320389 -5.8021041e-20)
(0.98757056 0.089049842 -1.3219814e-19)
(1.0389653 0.10092266 -5.5787294e-21)
(1.0815815 0.11068708 8.317336e-20)
(1.11577 0.11823018 0)
(1.1421538 0.12356801 1.0121351e-20)
(1.1615598 0.12684882 -1.5464049e-20)
(1.1749048 0.12825318 -8.6019666e-21)
(1.1827481 0.12740012 2.0997249e-20)
(0.036673118 -0.0090913453 -5.4309899e-21)
(0.11733409 -0.02469022 4.3583424e-21)
(0.20815127 -0.028146831 -8.7639197e-21)
(0.30520352 -0.023422661 2.8475524e-20)
(0.40539552 -0.013083991 -2.9396496e-20)
(0.50614443 0.0015136561 -1.6929424e-20)
(0.60498933 0.019085549 3.7368378e-20)
(0.69964367 0.038354769 4.7597704e-21)
(0.78810548 0.058155856 -2.444267e-20)
(0.86874071 0.077469407 6.9881876e-20)
(0.94034905 0.095442693 5.2212721e-22)
(1.0022052 0.11141274 -8.0464751e-20)
(1.0540649 0.12492074 0)
(1.0961319 0.13571166 3.9553139e-20)
(1.1289922 0.1437187 5.5252512e-21)
(1.1535225 0.14903524 -7.7586467e-20)
(1.1707879 0.15188154 -1.959192e-20)
(1.1819453 0.15258235 -1.2470834e-20)
(1.1881365 0.15148124 -1.4713299e-20)
(1.1902181 0.1485369 4.0430661e-20)
(0.048066396 -0.0087690081 -1.7279293e-20)
(0.14810542 -0.021936203 -2.2210356e-21)
(0.25517805 -0.020803255 3.038325e-20)
(0.36551592 -0.010418703 3.7487572e-20)
(0.47597012 0.0058954593 -1.9947089e-20)
(0.58382095 0.026262945 -6.9173398e-20)
(0.68653057 0.048970356 -2.8001214e-20)
(0.78185884 0.07240999 7.8943264e-20)
(0.86800431 0.09520315 8.5808422e-21)
(0.94369447 0.11623812 -2.4877742e-20)
(1.0082317 0.134684 1.3643554e-20)
(1.0614913 0.14999798 -4.3210919e-21)
(1.1038703 0.16191532 0)
(1.136194 0.17041909 2.720988e-20)
(1.1595959 0.17569392 -7.9341375e-20)
(1.1753878 0.17807062 -3.1483075e-20)
(1.1849372 0.17797135 8.1074103e-20)
(1.189567 0.17586926 -4.2984324e-21)
(1.1904729 0.17221229 3.556836e-21)
(1.1885736 0.16714688 2.7118774e-20)
(0.060494087 -0.0069586203 -3.2417022e-20)
(0.18080324 -0.015173478 -8.1632634e-20)
(0.30393099 -0.0075870987 2.5786573e-21)
(0.42648246 0.0096999159 7.0170338e-20)
(0.54542203 0.032628336 6.2432557e-20)
(0.65806311 0.058816817 -7.1583323e-20)
(0.762 0.086172786 -2.8122158e-22)
(0.85528043 0.11284743 8.5539697e-20)
(0.93655457 0.1373716 4.8837395e-20)
(1.0051436 0.15868431 -5.4230278e-20)
(1.0610365 0.17612301 -9.2354165e-20)
(1.1048222 0.18939724 -3.1596755e-21)
(1.1375696 0.19853918 4.2137187e-20)
(1.1606761 0.20383429 -6.607185e-21)
(1.1757082 0.20574199 -1.2871602e-20)
(1.1842558 0.20481728 1.9694881e-20)
(1.1878159 0.20164367 4.3890548e-20)
(1.1877139 0.19678753 -4.3869058e-20)
(1.1850598 0.1907378 -1.0234601e-19)
(1.1806858 0.18373035 2.4573574e-20)
(0.073547287 -0.0034336977 -3.4983517e-20)
(0.21425526 -0.0039905718 -1.7389926e-19)
(0.352562 0.011838206 8.2114009e-20)
(0.48568872 0.037017925 9.2779193e-20)
(0.61092764 0.066835729 5.797791e-20)
(0.72585155 0.09848144 8.6121234e-21)
(0.82843985 0.12959657 -1.0625711e-19)
(0.91728639 0.15824079 0)
(0.99172567 0.1830239 -6.8763667e-20)
(1.0518497 0.20310473 -1.5206089e-20)
(1.0984335 0.21813762 5.4714814e-20)
(1.1327921 0.22819586 1.0975813e-20)
(1.1565976 0.23367356 -4.562341e-20)
(1.1716884 0.23517643 -4.9091459e-20)
(1.179897 0.23341657 2.4293095e-20)
(1.182917 0.22912303 4.4832918e-20)
(1.1822165 0.22297661 -5.5612704e-20)
(1.1789997 0.2155723 -1.0753451e-19)
(1.1742071 0.20738398 -3.1513312e-21)
(1.1685138 0.19867848 2.7052251e-20)
(0.08666161 0.0019613685 -3.5461338e-21)
(0.24699098 0.011817026 8.7922064e-20)
(0.39889572 0.037493996 -1.6475568e-20)
(0.54046808 0.071221413 -8.4322179e-20)
(0.66957473 0.10779281 4.5171079e-20)
(0.78430439 0.14411934 4.9181111e-20)
(0.88328025 0.17775965 5.5366795e-21)
(0.96587253 0.20688592 -9.9520276e-20)
(1.0322704 0.23038619 -2.505365e-21)
(1.0834252 0.24781016 5.0513824e-20)
(1.1208961 0.25925367 5.9867185e-21)
(1.1466406 0.26522271 -1.9721241e-20)
(1.1627909 0.26648776 -7.5719736e-20)
(1.1714519 0.2639448 -6.2563664e-21)
(1.1745472 0.25849937 4.3541861e-20)
(1.1737216 0.25098286 3.7029203e-20)
(1.1703014 0.24210321 1.9796772e-20)
(1.1653 0.23242565 -5.3007433e-20)
(1.1594582 0.22236903 1.2957921e-20)
(1.1532792 0.21220104 8.2675351e-20)
(-0.001293479 0.0014348961 -1.1235614e-21)
(-0.004746733 0.0031879118 2.0649702e-21)
(-0.010773037 0.0041365152 8.7984383e-22)
(-0.017756953 0.0045401667 -2.4408005e-21)
(-0.024743898 0.0045660043 -1.4121779e-21)
(-0.031303948 0.0043265402 1.5468525e-21)
(-0.037166277 0.0039039238 -6.8720282e-21)
(-0.042152777 0.0033579702 -5.9592004e-21)
(-0.046163269 0.0027314767 1.1175131e-20)
(-0.049151604 0.0020547603 -9.7454902e-21)
(-0.051105743 0.0013490533 -1.9839814e-22)
(-0.052034954 0.00062898746 3.6684216e-21)
(-0.051961409 -9.5522143e-05 -6.331268e-22)
(-0.050914446 -0.00081777286 2.2825699e-20)
(-0.048926956 -0.0015329096 3.0404213e-22)
(-0.046034844 -0.0022364747 -4.0896087e-20)
(-0.042279325 -0.0029238184 7.5412092e-21)
(-0.037698681 -0.0035928531 2.3872178e-20)
(-0.032301309 -0.0042420801 -4.3867703e-20)
(-0.026146608 -0.004823487 -2.7749155e-20)
(-0.0016524661 0.004181551 -5.3726342e-21)
(-0.005398313 0.0092695629 1.086676e-20)
(-0.011220151 0.012009186 -1.0193245e-20)
(-0.017660489 0.013155552 3.9243661e-21)
(-0.023859595 0.013197064 4.8138432e-21)
(-0.029436997 0.012464112 7.1346326e-22)
(-0.034156295 0.011198049 -2.2516016e-20)
(-0.037864402 0.009574518 -2.0375201e-21)
(-0.040478105 0.0077191467 2.0168953e-20)
(-0.041962233 0.0057208901 -5.048738e-21)
(-0.042311476 0.0036419911 -2.1768656e-20)
(-0.041538778 0.0015252744 4.8987048e-21)
(-0.039667758 -0.00060034122 2.264177e-20)
(-0.036727409 -0.0027154289 1.0311462e-20)
(-0.032748308 -0.0048060272 2.1861197e-20)
(-0.02776304 -0.0068595573 -1.9776956e-20)
(-0.021815895 -0.0088630212 -2.1679848e-20)
(-0.014954226 -0.010809822 2.1192055e-20)
(-0.007113407 -0.012685436 2.6819413e-20)
(0.0018939987 -0.014324493 1.5859776e-20)
(-0.0023037776 0.0065612748 -4.3577116e-21)
(-0.0065401427 0.014482345 -5.6392811e-21)
(-0.011893666 0.018713152 3.0718051e-22)
(-0.017213131 0.020430826 1.0955692e-21)
(-0.021821453 0.020402718 6.6932775e-21)
(-0.025433368 0.019153608 1.0667427e-20)
(-0.027879279 0.017067637 -3.7237338e-21)
(-0.029054718 0.014424438 -1.8900688e-20)
(-0.02890955 0.011424234 6.5429715e-21)
(-0.027430275 0.0082089514 1.2865902e-20)
(-0.024625282 0.0048779308 5.8357933e-21)
(-0.020515638 0.0014994485 1.8163831e-20)
(-0.01512908 -0.0018806523 1.7300725e-21)
(-0.0084956433 -0.0052320935 -3.3873903e-20)
(-0.00064385634 -0.0085335748 1.2027007e-21)
(0.0083977831 -0.01176626 -2.2145089e-20)
(0.018577827 -0.014912504 -2.4474351e-20)
(0.029827806 -0.017963492 4.5834793e-20)
(0.042335795 -0.020866252 2.5358245e-20)
(0.056775406 -0.023260267 1.2311136e-22)
(-0.0031294658 0.0083702349 -5.2843987e-21)
(-0.0078973801 0.018339082 -8.4842765e-21)
(-0.01244029 0.023590884 4.3600185e-21)
(-0.016027866 0.025612708 4.1472236e-21)
(-0.018236034 0.025385399 2.0109204e-21)
(-0.018912964 0.02359132 7.3227955e-21)
(-0.017983934 0.02073143 9.3146834e-21)
(-0.015414417 0.017170557 -1.3514951e-21)
(-0.011202812 0.01317041 -1.1484675e-20)
(-0.0053686057 0.0089168576 -2.907894e-20)
(0.0020575961 0.004540116 6.2008309e-23)
(0.011039332 0.00012966883 4.070802e-20)
(0.021538887 -0.0042549882 -1.8387555e-20)
(0.033518865 -0.0085750948 -1.2299326e-20)
(0.046946409 -0.012804612 5.5320652e-22)
(0.061791422 -0.016922567 3.2311879e-20)
(0.077990325 -0.020914125 -1.4834669e-20)
(0.095436106 -0.024777682 -5.3354696e-20)
(0.11444944 -0.028395963 4.577841e-20)
(0.13640456 -0.031091215 3.3023134e-20)
(-0.0039709134 0.0094670639 -6.8781771e-22)
(-0.0090926106 0.020490423 -1.2536975e-20)
(-0.012365352 0.026162153 -3.4151673e-20)
(-0.013552847 0.028146246 -5.725673e-21)
(-0.012532468 0.027557337 -3.6226505e-21)
(-0.0093143643 0.025189517 6.3064888e-21)
(-0.0039411792 0.021627769 -4.6472966e-21)
(0.0035332261 0.017298058 -8.8089597e-21)
(0.013047089 0.012506464 2.1904399e-20)
(0.024535233 0.0074706607 5.0576769e-21)
(0.037933817 0.0023435332 -2.5296417e-20)
(0.053180587 -0.0027698337 1.108065e-20)
(0.07021546 -0.0077996921 0)
(0.088981219 -0.01270198 1.2092511e-20)
(0.10942672 -0.017449552 -9.7040426e-21)
(0.13150593 -0.022024588 -1.4341067e-20)
(0.15513041 -0.02642551 -1.5731439e-21)
(0.1801323 -0.03067859 -2.2192191e-21)
(0.20692705 -0.034598133 4.6158362e-20)
(0.23774727 -0.037043814 -1.0474712e-20)
(-0.0046456111 0.0097821058 -7.5368594e-21)
(-0.009678013 0.02075021 2.4521118e-20)
(-0.011064566 0.026163544 -1.0501598e-20)
(-0.009095719 0.027726648 -2.7474483e-20)
(-0.0039766365 0.026603097 -2.7552941e-20)
(0.0041018911 0.023648693 -1.4924435e-20)
(0.014963125 0.019495392 -6.9077757e-22)
(0.028449118 0.014602112 5.5510261e-21)
(0.044420579 0.0092991832 1.9619573e-20)
(0.06275312 0.0038223631 7.3545476e-21)
(0.083332774 -0.0016627025 -7.1876014e-21)
(0.10605391 -0.0070421805 -2.0103553e-21)
(0.13081561 -0.012241131 -3.820007e-20)
(0.1575192 -0.017213973 -1.269648e-20)
(0.18607008 -0.021936241 1.8755578e-20)
(0.21637872 -0.026398612 -2.1027169e-20)
(0.24830854 -0.030623616 -8.9753028e-21)
(0.28160476 -0.034694635 3.0447134e-20)
(0.31670323 -0.038391644 5.0483871e-20)
(0.35675737 -0.039993671 3.3569228e-21)
(-0.0049622073 0.0093150191 1.6785778e-20)
(-0.009166612 0.019099414 1.4470101e-20)
(-0.0078584974 0.023564992 5.1154311e-20)
(-0.0018555263 0.024329931 2.3392355e-20)
(0.0083017203 0.022523712 1.8255275e-22)
(0.022231716 0.019012949 -3.9395657e-20)
(0.039611761 0.014437907 -2.431827e-20)
(0.060167508 0.009261561 1.0467613e-20)
(0.083664726 0.0038165186 1.4404159e-20)
(0.10989901 -0.0016600399 -1.3115816e-20)
(0.13868534 -0.0070018886 -4.4047227e-20)
(0.16984945 -0.012095964 2.9624419e-20)
(0.20322043 -0.01686961 2.0024251e-20)
(0.23862502 -0.021281872 -2.7556886e-20)
(0.27588751 -0.025316798 1.1652846e-20)
(0.31483334 -0.02898017 2.4202947e-20)
(0.35524098 -0.032328752 8.0744592e-21)
(0.39673979 -0.035535185 -1.1767536e-20)
(0.43969324 -0.038424142 -1.4192697e-20)
(0.48811199 -0.03866894 5.8767861e-21)
(-0.0047310351 0.0081243665 1.1095667e-20)
(-0.0070582364 0.015672 -2.3357299e-20)
(-0.0020270096 0.018562368 8.6209334e-21)
(0.009037999 0.018215597 3.3593948e-20)
(0.025265954 0.01564919 5.213313e-20)
(0.046080965 0.011692042 2.0279951e-20)
(0.071005049 0.0069555882 -5.8650186e-21)
(0.099629185 0.0018756284 -1.2288179e-20)
(0.13160365 -0.0032366061 -6.2070022e-21)
(0.16661856 -0.0081612583 3.4246805e-20)
(0.20438596 -0.012747211 -4.5116783e-21)
(0.24462595 -0.016895458 -1.6646623e-20)
(0.28705565 -0.020547426 -1.9697044e-20)
(0.33138112 -0.023677706 -4.7453225e-20)
(0.37729612 -0.026289463 2.3243403e-20)
(0.42448966 -0.028414505 -1.4099078e-20)
(0.47261197 -0.030157044 2.5999692e-20)
(0.52115833 -0.031815459 2.1045725e-20)
(0.57034536 -0.033385956 -8.5585861e-20)
(0.62484936 -0.032097316 -1.0717277e-22)
(-0.0037710089 0.0063149372 2.192831e-20)
(-0.0028643621 0.010734872 -2.6170205e-20)
(0.0071464525 0.011562959 -4.5020504e-20)
(0.024458818 0.0099225057 -2.7258315e-20)
(0.047884791 0.0066482307 -2.044319e-21)
(0.076649012 0.0024847435 1.3051943e-20)
(0.11010433 -0.0020232193 -2.8339944e-21)
(0.14768778 -0.0064977957 1.8121287e-20)
(0.18890555 -0.010675559 8.8697645e-21)
(0.23330603 -0.014376724 -1.1381968e-20)
(0.28045556 -0.017485578 8.8798773e-21)
(0.32992046 -0.019935839 -2.3907447e-20)
(0.38125377 -0.021700217 8.0523616e-21)
(0.43398635 -0.022783966 1.6759747e-20)
(0.48762517 -0.023221052 -2.6400167e-21)
(0.54166283 -0.023076388 1.6621534e-21)
(0.5955603 -0.022501757 -3.1933745e-22)
(0.64865092 -0.02190527 1.9594763e-20)
(0.70096247 -0.02148319 4.044249e-21)
(0.75759715 -0.018540432 -5.7792045e-22)
(-0.0019105362 0.0040272176 2.369597e-20)
(0.0038722392 0.0046751776 5.7169769e-20)
(0.020322195 0.0031852013 -4.9251899e-20)
(0.045190659 0.00029004309 -9.9469865e-21)
(0.076984212 -0.0034303302 2.0259295e-20)
(0.11472303 -0.007361681 2.1436867e-21)
(0.15757429 -0.011065053 -2.9819477e-20)
(0.20479321 -0.014256303 6.9856225e-21)
(0.25570446 -0.016752217 7.1111795e-21)
(0.30967019 -0.018443428 -2.6258394e-20)
(0.36606267 -0.019278817 1.2930239e-21)
(0.42424652 -0.019252911 -3.7180752e-20)
(0.48356847 -0.018395663 -3.6347939e-20)
(0.54335313 -0.016764264 6.5696991e-20)
(0.60290487 -0.014435944 5.5640033e-21)
(0.66151385 -0.011507332 -1.5192988e-20)
(0.71843987 -0.0081364072 1.9368125e-20)
(0.77283663 -0.0046302699 -9.190839e-22)
(0.82422994 -0.001008646 2.0366688e-20)
(0.87636328 0.0042840658 -1.9561118e-20)
(-0.018822406 -0.0051022656 5.8373871e-20)
(-0.010206178 -0.0056377668 1.5789256e-20)
(-0.00019754839 -0.0060719909 -3.5152793e-20)
(0.010852693 -0.0063374523 1.6797355e-20)
(0.022678379 -0.0065156081 0)
(0.03522089 -0.0066338646 0)
(0.048420443 -0.0066949534 -2.2984961e-20)
(0.062197342 -0.0067067159 -1.6510071e-20)
(0.076481199 -0.0066785383 1.9131914e-20)
(0.091212534 -0.0066172103 1.8182888e-20)
(0.1063364 -0.0065279242 1.0527891e-21)
(0.12180103 -0.006415244 -1.0322496e-20)
(0.13755815 -0.0062831292 8.3319436e-21)
(0.15356258 -0.0061349282 1.824272e-20)
(0.1697716 -0.0059735051 -5.231259e-21)
(0.18614462 -0.0058013465 -1.0180063e-20)
(0.20264291 -0.0056206246 -4.3217784e-21)
(0.21922951 -0.0054332497 -4.4274963e-21)
(0.23586906 -0.0052409152 7.3685886e-22)
(0.25252777 -0.0050451328 1.2294387e-21)
(0.26917337 -0.0048472589 2.5690437e-21)
(0.28577517 -0.0046485149 6.6586391e-21)
(0.30230408 -0.0044500016 2.4795618e-22)
(0.31873269 -0.0042527102 -3.4543854e-21)
(0.33503527 -0.0040575301 1.5543645e-22)
(0.35118792 -0.0038652549 -5.7766566e-22)
(0.36716853 -0.0036765867 1.2447763e-21)
(0.38295689 -0.0034921399 1.0529201e-21)
(0.3985347 -0.0033124456 -1.3016454e-21)
(0.41388558 -0.0031379544 -1.2206258e-22)
(0.42899507 -0.002969041 3.4137945e-23)
(0.44385065 -0.0028060084 -3.5258561e-22)
(0.45844166 -0.0026490928 -4.0743676e-22)
(0.47275932 -0.0024984689 5.6629689e-23)
(0.48679669 -0.002354256 -1.3855777e-22)
(0.5005486 -0.0022165235 -2.2411236e-22)
(0.51401161 -0.0020852984 2.5672019e-22)
(0.52718409 -0.0019605715 2.9640692e-22)
(0.54006599 -0.0018423071 -9.2356886e-24)
(0.55265937 -0.0017304464 -1.5761886e-22)
(0.56496715 -0.0016249368 3.0379461e-23)
(0.57699729 -0.0015256857 -4.0416157e-23)
(0.58875091 -0.0014327812 9.4203547e-23)
(0.60025992 -0.001345886 2.1505703e-23)
(0.61147701 -0.0012663476 -1.1959472e-22)
(0.62260664 -0.0011908678 -7.2085777e-24)
(0.63314635 -0.0011320217 1.829349e-25)
(0.64468472 -0.0010562124 -4.3132415e-24)
(0.65290078 -0.0010758584 2.9242701e-23)
(0.66999735 -0.00090402854 3.6744657e-22)
(0.010469934 -0.01502543 -1.2752242e-20)
(0.018208325 -0.016649635 -6.3325311e-20)
(0.027813205 -0.017924829 -3.0554525e-20)
(0.038425156 -0.01868216 3.8491631e-20)
(0.049667584 -0.019194311 1.4668775e-20)
(0.061560423 -0.019540777 -1.821357e-20)
(0.074074469 -0.019721811 4.6753901e-21)
(0.087132854 -0.019759011 2.5458326e-20)
(0.10067256 -0.019680351 9.0939646e-23)
(0.11464341 -0.019505301 -7.6632612e-21)
(0.1289973 -0.019248471 -1.3025557e-20)
(0.14368767 -0.018922917 -8.5298054e-21)
(0.15867066 -0.018540057 1.7781075e-20)
(0.1739048 -0.018109552 8.9376829e-21)
(0.18935039 -0.017639688 -1.6529055e-20)
(0.20496927 -0.017137692 -6.0422132e-21)
(0.22072476 -0.016609905 3.2156516e-21)
(0.23658156 -0.016061928 8.3752368e-21)
(0.25250565 -0.015498744 6.9878346e-21)
(0.26846438 -0.014924816 -6.9791742e-21)
(0.28442638 -0.014344164 -3.1734213e-21)
(0.30036173 -0.013760419 1.3641055e-21)
(0.31624194 -0.013176859 3.9045362e-22)
(0.33204008 -0.012596445 1.2132835e-21)
(0.34773082 -0.01202184 1.8467664e-22)
(0.36329051 -0.011455422 -3.2780369e-22)
(0.37869726 -0.010899301 -7.2599257e-22)
(0.39393096 -0.010355327 9.7517685e-22)
(0.40897336 -0.0098251008 8.2753462e-22)
(0.42380804 -0.0093099864 -1.5425198e-22)
(0.43842046 -0.0088111202 5.5564028e-22)
(0.45279792 -0.0083294254 -2.3928978e-22)
(0.46692958 -0.007865626 -3.7322585e-22)
(0.48080641 -0.0074202628 -6.131904e-22)
(0.49442113 -0.0069937101 4.4320883e-22)
(0.50776826 -0.0065861945 -1.843877e-23)
(0.52084398 -0.0061978146 1.6439211e-22)
(0.53364623 -0.0058285615 -4.4669092e-22)
(0.54617455 -0.0054783465 3.7870947e-22)
(0.55843052 -0.0051470112 6.7849583e-23)
(0.57041662 -0.0048344169 -1.0296013e-22)
(0.58214027 -0.0045403026 1.8116382e-22)
(0.59360217 -0.0042649492 2.4135106e-22)
(0.60483348 -0.004007364 1.7640251e-22)
(0.61578707 -0.0037715853 1.7664189e-22)
(0.62666447 -0.0035477889 -2.7779041e-23)
(0.63696977 -0.0033734627 9.2886567e-23)
(0.64826816 -0.0031485778 8.5174629e-23)
(0.65630473 -0.0032074527 -2.0732762e-22)
(0.6730806 -0.0026977128 -3.6488992e-23)
(0.067657088 -0.024042518 9.4565879e-21)
(0.073636801 -0.026763665 3.2971676e-21)
(0.082318302 -0.028821434 -1.21692e-20)
(0.092006954 -0.029985426 -1.2272729e-21)
(0.10204915 -0.030785779 1.4977816e-20)
(0.11261963 -0.031349791 -1.48935e-20)
(0.12375722 -0.031655924 -2.9856587e-20)
(0.13538667 -0.031733774 1.4501307e-20)
(0.14745606 -0.031629285 1.8191679e-20)
(0.15993247 -0.031372556 -1.1604839e-20)
(0.1727803 -0.030985145 1.0195592e-21)
(0.18596195 -0.030486877 8.6880845e-21)
(0.19944119 -0.029895452 -1.526293e-20)
(0.21318297 -0.0292259 2.9161643e-21)
(0.22715276 -0.028491169 7.5250406e-21)
(0.2413166 -0.027702653 2.770202e-23)
(0.25564119 -0.026870444 2.631171e-22)
(0.27009399 -0.026003524 -7.4217048e-21)
(0.28464324 -0.025109942 3.8694897e-21)
(0.2992581 -0.024196963 8.4833246e-21)
(0.31390869 -0.023271167 -3.8391265e-21)
(0.32856628 -0.022338528 -2.2146956e-21)
(0.34320333 -0.021404469 1.0119801e-21)
(0.35779367 -0.020473906 -1.7183674e-21)
(0.37231252 -0.019551276 1.3544424e-21)
(0.38673664 -0.018640557 7.191697e-22)
(0.4010444 -0.01774529 1.5339404e-21)
(0.41521582 -0.01686859 -1.9603794e-21)
(0.42923263 -0.016013164 2.2331424e-21)
(0.44307829 -0.015181329 5.5410788e-22)
(0.45673804 -0.014375026 4.0903111e-22)
(0.47019886 -0.013595843 3.2198651e-22)
(0.48344948 -0.01284504 8.8035365e-22)
(0.49648034 -0.012123574 -1.382307e-21)
(0.50928362 -0.011432124 3.7449089e-22)
(0.52185314 -0.010771126 1.1347622e-22)
(0.53418439 -0.0101408 -4.6609881e-23)
(0.54627455 -0.0095411918 8.5151867e-23)
(0.55812232 -0.0089722097 -3.7699413e-22)
(0.56972844 -0.0084336474 1.8684333e-22)
(0.58109451 -0.0079253295 -3.5378073e-23)
(0.59222699 -0.007446876 4.0340867e-22)
(0.60312579 -0.006998803 -1.9240493e-22)
(0.61382065 -0.0065795168 4.8584686e-23)
(0.6242648 -0.0061957283 4.61488e-23)
(0.63465424 -0.0058312993 -7.8153052e-23)
(0.64450555 -0.0055479085 -1.3273477e-22)
(0.65533903 -0.0051814169 4.1888418e-22)
(0.66302732 -0.0052791845 1.84117e-22)
(0.6791816 -0.0044486994 -8.4625336e-22)
(0.15028138 -0.03147971 1.5021526e-21)
(0.15361794 -0.035278226 -1.1569593e-20)
(0.16069322 -0.038033351 6.6454737e-21)
(0.16888957 -0.039502889 -1.3329901e-20)
(0.17707293 -0.040545764 -1.9766324e-21)
(0.18562164 -0.041328639 9.1650823e-21)
(0.19469042 -0.041784851 -9.7731344e-21)
(0.20420177 -0.041942532 1.5649296e-21)
(0.21411176 -0.041863321 1.2909784e-20)
(0.22440994 -0.041585461 3.4063013e-21)
(0.23507703 -0.041134275 -6.2127283e-21)
(0.24608595 -0.040533755 -2.8668389e-21)
(0.25740933 -0.039806106 -5.8415224e-21)
(0.26901965 -0.038970446 -6.4602605e-21)
(0.28088841 -0.038043386 3.2341437e-21)
(0.29298634 -0.037039727 8.4252475e-22)
(0.30528393 -0.035972764 1.3703503e-21)
(0.31775167 -0.034854483 -3.3871287e-21)
(0.33036021 -0.033695749 -4.2489204e-21)
(0.34308061 -0.032506459 2.3650221e-21)
(0.35588452 -0.031295659 3.2309454e-21)
(0.36874438 -0.030071622 -1.5682506e-21)
(0.38163359 -0.028841907 1.5896045e-21)
(0.39452663 -0.027613405 -3.9330519e-22)
(0.40739921 -0.026392363 -3.9303387e-21)
(0.42022839 -0.025184412 -3.0382309e-21)
(0.43299265 -0.023994584 -1.9231333e-22)
(0.44567199 -0.022827326 4.2731993e-22)
(0.45824797 -0.021686525 -2.2153823e-21)
(0.47070378 -0.020575525 -8.6155582e-22)
(0.4830242 -0.019497151 2.2876516e-22)
(0.49519569 -0.018453738 -1.2575528e-21)
(0.50720632 -0.017447162 4.5241002e-24)
(0.51904579 -0.016478878 -4.28482e-22)
(0.53070542 -0.015549954 -4.7354059e-22)
(0.54217813 -0.014661116 -5.2844696e-22)
(0.55345841 -0.013812792 -8.5457089e-22)
(0.56454236 -0.013005161 -5.3575357e-23)
(0.57542759 -0.01223821 -3.9440628e-24)
(0.58611364 -0.011511765 -5.2998952e-22)
(0.59660095 -0.01082569 -9.0451083e-23)
(0.60689467 -0.010179563 -3.421472e-22)
(0.61699362 -0.0095741973 -4.5443616e-22)
(0.62692561 -0.0090074881 3.9370969e-22)
(0.63664447 -0.0084887715 1.5442757e-23)
(0.64633831 -0.0079959681 1.9308824e-22)
(0.65554168 -0.0076136909 -1.4529681e-22)
(0.66571045 -0.0071176655 -2.8713867e-22)
(0.67290092 -0.0072535616 -3.3452043e-23)
(0.68816363 -0.0061301394 4.720268e-22)
(0.25477732 -0.036578174 -2.0908404e-20)
(0.25456699 -0.041420644 4.7601174e-20)
(0.2591762 -0.044774604 1.0351164e-20)
(0.26519387 -0.046472574 -1.5771236e-20)
(0.27082624 -0.04774636 -2.0248131e-21)
(0.27664438 -0.048781343 2.6229265e-21)
(0.28296796 -0.049448785 -1.6629219e-21)
(0.28971795 -0.049764622 -4.688157e-21)
(0.29684675 -0.049799369 -4.0177396e-21)
(0.30436535 -0.049596374 -1.2213399e-20)
(0.31227241 -0.049182361 1.7908979e-20)
(0.32055061 -0.048582801 6.5270897e-21)
(0.32917996 -0.047822267 -1.6789196e-20)
(0.33813947 -0.046922607 1.0319543e-20)
(0.3474058 -0.045903164 8.3857683e-21)
(0.35695361 -0.04478145 -8.7582936e-22)
(0.36675637 -0.043573483 -3.1212823e-21)
(0.37678686 -0.042293958 -3.8260772e-21)
(0.38701747 -0.040956388 -1.3921779e-21)
(0.39742058 -0.039573235 -1.2331968e-21)
(0.40796879 -0.038156006 -3.0320393e-21)
(0.41863524 -0.036715317 0)
(0.42939374 -0.035260938 -1.3484826e-21)
(0.44021904 -0.033801831 3.9362133e-21)
(0.45108693 -0.032346166 5.4164679e-21)
(0.46197438 -0.030901343 -9.4196398e-22)
(0.47285968 -0.029474006 -2.9385609e-21)
(0.48372248 -0.028070061 3.0395969e-21)
(0.49454388 -0.026694695 2.5080401e-22)
(0.50530649 -0.025352404 3.4509691e-21)
(0.51599441 -0.024047017 -5.3549378e-22)
(0.5265933 -0.022781734 1.7250265e-21)
(0.53709035 -0.021559167 -8.0548417e-22)
(0.54747428 -0.020381381 2.9559641e-22)
(0.55773536 -0.019249948 -4.3935521e-22)
(0.56786535 -0.018165993 5.6646887e-22)
(0.57785754 -0.017130262 4.6302116e-22)
(0.58770677 -0.016143169 3.8820567e-22)
(0.59740932 -0.015204888 -9.7474329e-22)
(0.60696338 -0.014315374 6.9620506e-22)
(0.61636797 -0.013474627 -3.7704883e-22)
(0.62562675 -0.012682278 -1.1332641e-21)
(0.63473728 -0.011939515 1.4520031e-21)
(0.64372508 -0.011243834 -6.3741396e-23)
(0.65254482 -0.010607122 -1.6528883e-22)
(0.6613748 -0.01000186 -8.2728665e-24)
(0.6697724 -0.0095338781 -1.3836195e-22)
(0.67911208 -0.0089241424 -4.976207e-22)
(0.6856825 -0.0090969881 8.7163316e-22)
(0.69982742 -0.0077172278 -4.5500812e-23)
(0.37646692 -0.0383996 -1.7501974e-20)
(0.37183061 -0.044303471 1.2835475e-20)
(0.37299376 -0.048196759 2.978225e-21)
(0.37604417 -0.050135745 -7.6381749e-21)
(0.37844613 -0.051708574 1.2060547e-20)
(0.38087123 -0.053082697 7.7945482e-21)
(0.38383221 -0.054072068 -1.2651565e-20)
(0.38726519 -0.0546768 -6.0705742e-21)
(0.39110278 -0.054963337 1.2702961e-20)
(0.39536545 -0.054974074 -1.5315172e-20)
(0.40006735 -0.054736035 -1.406977e-20)
(0.40519888 -0.054274729 1.4140648e-20)
(0.41074383 -0.053615273 6.8230089e-21)
(0.4166845 -0.052781087 -4.2117488e-21)
(0.42300036 -0.051793674 -1.8518787e-21)
(0.42966798 -0.05067293 -4.0566975e-21)
(0.43666204 -0.049437416 5.3036507e-21)
(0.44395608 -0.0481045 3.6704531e-21)
(0.45152296 -0.046690413 -3.2418134e-21)
(0.45933519 -0.045210319 3.1399859e-21)
(0.46736536 -0.043678364 2.7708738e-21)
(0.47558637 -0.042107708 -3.2158216e-21)
(0.48397171 -0.040510553 3.7088147e-22)
(0.49249567 -0.038898147 -3.2597924e-21)
(0.50113349 -0.037280804 7.2673744e-21)
(0.50986152 -0.035667903 6.1229917e-21)
(0.51865735 -0.034067905 8.1489224e-22)
(0.52749984 -0.032488369 -1.7727688e-21)
(0.53636923 -0.030935971 3.7206621e-21)
(0.54524722 -0.029416531 7.2233846e-21)
(0.5541169 -0.027935051 2.3132733e-21)
(0.56296288 -0.026495756 3.336056e-21)
(0.57177122 -0.025102143 2.0065495e-21)
(0.58052947 -0.023757035 7.5160925e-22)
(0.58922663 -0.022462642 -2.6458731e-22)
(0.59785319 -0.021220626 2.7471102e-21)
(0.60640109 -0.02003217 6.2656597e-22)
(0.61486377 -0.018898052 2.9810777e-22)
(0.62323609 -0.017818745 5.6825836e-23)
(0.63151479 -0.016794448 1.0087894e-21)
(0.6396974 -0.015825404 4.7582672e-23)
(0.647786 -0.014911398 4.5455892e-22)
(0.65577684 -0.014054075 -1.2917498e-22)
(0.66369294 -0.01325066 -2.8800559e-22)
(0.67149014 -0.012515485 -1.5861137e-22)
(0.6793354 -0.011816184 -4.4350362e-22)
(0.68681305 -0.011277735 1.7527752e-22)
(0.69520224 -0.010572765 -1.3491014e-22)
(0.70106376 -0.010781024 -4.9638022e-22)
(0.71391789 -0.0091878511 2.5255517e-22)
(0.5094092 -0.036011175 3.6465922e-21)
(0.4996705 -0.042999458 -1.8962654e-20)
(0.49642141 -0.047424193 -2.3094693e-21)
(0.49570836 -0.049779366 5.4885762e-21)
(0.49432891 -0.051862521 3.0548248e-21)
(0.49286234 -0.053751798 -4.803435e-23)
(0.49198654 -0.055235931 6.1943494e-21)
(0.4916969 -0.056315549 7.6288958e-21)
(0.4919027 -0.057042528 9.8616171e-21)
(0.49261093 -0.05744939 -1.1255831e-20)
(0.49384099 -0.057561915 -2.1592283e-20)
(0.49558809 -0.05740581 -3.9395915e-21)
(0.497836 -0.057006289 1.5948557e-20)
(0.50056607 -0.056387924 1.2817388e-20)
(0.50375718 -0.055574404 -5.908015e-21)
(0.50738533 -0.054588283 1.378865e-21)
(0.51142435 -0.053451005 -3.6659954e-21)
(0.51584679 -0.052182975 2.2527467e-21)
(0.5206244 -0.050803543 -2.9142252e-22)
(0.52572863 -0.04933098 -1.8676516e-21)
(0.53113087 -0.04778247 7.839437e-21)
(0.53680286 -0.046174105 -2.955686e-22)
(0.5427169 -0.044520882 4.2080269e-22)
(0.54884606 -0.042836684 -6.5459686e-22)
(0.55516437 -0.041134287 -4.3109112e-21)
(0.56164695 -0.03942535 4.2170357e-21)
(0.56827014 -0.037720432 1.9050387e-21)
(0.57501155 -0.036028999 -3.3162177e-21)
(0.58185017 -0.034359453 -4.1191515e-21)