/*--------------------------------*- C++ -*----------------------------------*\
  =========                 |
  \\      /  F ield         | OpenFOAM: The Open Source CFD Toolbox
   \\    /   O peration     | Website:  https://openfoam.org
    \\  /    A nd           | Version:  6
     \\/     M anipulation  |
\*---------------------------------------------------------------------------*/
FoamFile
{
    version     2.0;
    format      ascii;
    class       volScalarField;
    location    "283";
    object      pMean;
}
// * * * * * * * * * * * * * * * * * * * * * * * * * * * * * * * * * * * * * //

dimensions      [0 2 -2 0 0 0 0];

internalField   nonuniform List<scalar> 
9200
(
-0.3892491
-0.37747763
-0.36697992
-0.3576922
-0.34861118
-0.33974369
-0.3311712
-0.32285932
-0.31473821
-0.30673456
-0.29877505
-0.29079125
-0.28272666
-0.27454384
-0.26623472
-0.25783797
-0.24943333
-0.24111121
-0.23388407
-0.23198412
-0.40746155
-0.39324021
-0.38080328
-0.36999034
-0.35952477
-0.34938211
-0.33963426
-0.33021652
-0.32102787
-0.31196995
-0.30295088
-0.29389095
-0.28473012
-0.2754337
-0.26599758
-0.25645174
-0.24683109
-0.23713984
-0.22805527
-0.22172586
-0.42603775
-0.40935218
-0.39502744
-0.3827617
-0.37096607
-0.35956684
-0.34861509
-0.33800903
-0.32761548
-0.31731595
-0.30701003
-0.29662077
-0.28610111
-0.27543653
-0.26464441
-0.2537692
-0.24285475
-0.23191389
-0.22134508
-0.21226238
-0.44452929
-0.42540585
-0.40926217
-0.39560522
-0.38249714
-0.36979916
-0.35753469
-0.34556549
-0.33373537
-0.32192211
-0.31003825
-0.29803355
-0.28589749
-0.27365643
-0.26136636
-0.24910241
-0.23693489
-0.22490472
-0.21327996
-0.20280532
-0.4622914
-0.44084013
-0.42299686
-0.40802491
-0.39361102
-0.37954149
-0.36581317
-0.35226341
-0.33873465
-0.32512872
-0.31140099
-0.29755575
-0.28364123
-0.26973906
-0.25595053
-0.24238225
-0.22912596
-0.21623991
-0.20391278
-0.19265668
-0.47848563
-0.45492177
-0.43555638
-0.4193575
-0.40362831
-0.38808163
-0.37270162
-0.35732814
-0.34183714
-0.32619103
-0.31042033
-0.29460751
-0.27887193
-0.26335136
-0.2481838
-0.23349267
-0.21937193
-0.20587517
-0.19312798
-0.18147104
-0.49209475
-0.46675176
-0.44610276
-0.42877571
-0.41170906
-0.39455943
-0.37732757
-0.3598975
-0.34222339
-0.324367
-0.30646112
-0.28867884
-0.27120844
-0.25423001
-0.2378973
-0.22232717
-0.20759258
-0.1937209
-0.18077763
-0.16896616
-0.50194553
-0.47528978
-0.45366877
-0.4353365
-0.41691844
-0.3980504
-0.37879351
-0.35912856
-0.33913595
-0.31901064
-0.29900354
-0.27937659
-0.26037132
-0.24218624
-0.22496484
-0.20879377
-0.19370601
-0.17968886
-0.16674903
-0.15497401
-0.50668891
-0.47925158
-0.45695825
-0.43769455
-0.41787342
-0.39717322
-0.37577586
-0.35381561
-0.33153724
-0.30928278
-0.28741307
-0.26625512
-0.24607242
-0.22705064
-0.20929709
-0.19285024
-0.17769294
-0.16376878
-0.15102979
-0.13946402
-0.50497237
-0.47721475
-0.45441678
-0.43417895
-0.41285027
-0.39023568
-0.36670254
-0.3425826
-0.31829657
-0.29431464
-0.27106893
-0.24890554
-0.22806725
-0.20869454
-0.19083897
-0.174483
-0.15956038
-0.14597709
-0.13363781
-0.12244376
-0.27271421
-0.27720029
-0.27941549
-0.27990747
-0.27941883
-0.27812553
-0.27611734
-0.27348641
-0.27030675
-0.26663482
-0.26251659
-0.25799139
-0.25309409
-0.2478565
-0.24230861
-0.23648109
-0.23040668
-0.22410773
-0.21758475
-0.21092667
-0.27556732
-0.27962389
-0.28152515
-0.28179567
-0.28112276
-0.27967371
-0.27753624
-0.27479843
-0.27153045
-0.26778576
-0.26360777
-0.25903359
-0.25409607
-0.24882491
-0.2432474
-0.23739307
-0.23130208
-0.22499511
-0.2183646
-0.21138414
-0.28112658
-0.28434535
-0.2856359
-0.28547336
-0.28443941
-0.28268577
-0.28029626
-0.27735101
-0.27391278
-0.27002906
-0.26573813
-0.26107262
-0.25606139
-0.25073008
-0.24510098
-0.2392005
-0.23308003
-0.22675926
-0.21993718
-0.21234916
-0.28913296
-0.29115558
-0.29156386
-0.29076486
-0.28919443
-0.28698452
-0.28421437
-0.2809534
-0.27725405
-0.27315549
-0.26868871
-0.26387985
-0.25875193
-0.25332465
-0.24761326
-0.24163872
-0.23546393
-0.2291135
-0.22204066
-0.21360476
-0.29926042
-0.29979217
-0.29908021
-0.29745417
-0.29517641
-0.29235802
-0.28907433
-0.28538252
-0.28132291
-0.27692485
-0.27221051
-0.26719733
-0.26190041
-0.25633224
-0.25049975
-0.24441532
-0.2381493
-0.23173973
-0.2243845
-0.21492556
-0.31117097
-0.30998304
-0.30794976
-0.3053233
-0.30217662
-0.29860157
-0.29467184
-0.29043261
-0.2859115
-0.28112554
-0.27608556
-0.27079925
-0.26527253
-0.25950915
-0.25350678
-0.24726643
-0.240858
-0.234339
-0.22668247
-0.21609815
-0.32456434
-0.32148529
-0.31796594
-0.31418766
-0.31002677
-0.30555937
-0.30086141
-0.29596576
-0.29088464
-0.28562205
-0.28017681
-0.27454486
-0.26872119
-0.26269981
-0.25646924
-0.2500189
-0.24341143
-0.23672688
-0.22877753
-0.21707935
-0.33920742
-0.33410914
-0.32897386
-0.32392163
-0.31862938
-0.31316066
-0.30759401
-0.30194941
-0.29622375
-0.2904061
-0.28448046
-0.27842817
-0.27223036
-0.2658689
-0.25932278
-0.25257287
-0.24567947
-0.23876863
-0.23061036
-0.2180279
-0.35493354
-0.34770938
-0.34085091
-0.33442681
-0.32790857
-0.32134607
-0.31482251
-0.30834455
-0.30189109
-0.29543324
-0.28893686
-0.28236475
-0.27567905
-0.26884162
-0.26180947
-0.25453687
-0.24704959
-0.23945668
-0.2305267
-0.21679205
-0.37163317
-0.3621664
-0.35347189
-0.34557186
-0.33772001
-0.32995245
-0.32235702
-0.31492504
-0.30761521
-0.3003794
-0.29316539
-0.28591963
-0.27859027
-0.27112729
-0.26347724
-0.25557901
-0.24737914
-0.23867722
-0.22785086
-0.21190436
-0.20338661
-0.19399539
-0.18462437
-0.17534627
-0.16610454
-0.15694004
-0.14790817
-0.13904485
-0.13037899
-0.12193861
-0.11374887
-0.105831
-0.09820282
-0.090879193
-0.083872026
-0.077190373
-0.070840576
-0.064826405
-0.059149192
-0.053807972
-0.048799636
-0.044119097
-0.039759463
-0.035712232
-0.031967477
-0.028514057
-0.025339814
-0.022431779
-0.019776375
-0.017359603
-0.015167232
-0.013184971
-0.011398625
-0.0097942458
-0.0083582685
-0.0070776309
-0.005939896
-0.0049333441
-0.00404715
-0.0032712882
-0.0025974042
-0.002016673
-0.0015275194
-0.0011129152
-0.00081212221
-0.0005079787
-0.00056693191
2.9280393e-05
-0.001781683
0.0026657907
-0.2045707
-0.19476003
-0.18526818
-0.1759982
-0.16672997
-0.15752582
-0.14846087
-0.13956724
-0.13087103
-0.1224009
-0.11418238
-0.10623657
-0.098581286
-0.091231433
-0.084198988
-0.077493054
-0.071120019
-0.065083698
-0.059385456
-0.054024349
-0.04899728
-0.044299162
-0.039923098
-0.035860564
-0.032101609
-0.02863506
-0.025448718
-0.022529574
-0.019864001
-0.017437951
-0.015237142
-0.013247227
-0.011453959
-0.0098433372
-0.008401742
-0.0071160598
-0.0059738033
-0.0049632037
-0.0040733886
-0.0032942867
-0.0026174979
-0.0020341547
-0.0015426211
-0.0011258665
-0.00082288015
-0.00051710324
-0.00057231193
2.1946905e-05
-0.0017686635
0.0026367616
-0.20700709
-0.19630701
-0.18657721
-0.17736591
-0.16805957
-0.15877787
-0.14964966
-0.14069737
-0.13193984
-0.12340803
-0.11512892
-0.10712353
-0.099409736
-0.092002825
-0.084915048
-0.078155713
-0.071731397
-0.065646072
-0.059901228
-0.054496008
-0.049427369
-0.044690249
-0.040277744
-0.036181305
-0.032390928
-0.02889537
-0.02568235
-0.022738758
-0.020050861
-0.017604497
-0.015385262
-0.013378688
-0.011570401
-0.0099462782
-0.0084925767
-0.0071960639
-0.0060441363
-0.0050249135
-0.0041274154
-0.0033414667
-0.0026585668
-0.0020697511
-0.001573259
-0.0011520329
-0.00084454813
-0.00053535584
-0.00058310787
7.5175166e-06
-0.001742991
0.0025792923
-0.21047473
-0.19835441
-0.18828019
-0.17925783
-0.16994631
-0.16056799
-0.15136662
-0.14234738
-0.13351295
-0.12489958
-0.11653833
-0.10845035
-0.10065385
-0.093164991
-0.085996775
-0.079159042
-0.07265882
-0.066500472
-0.060685794
-0.055214163
-0.050082701
-0.045286449
-0.040818553
-0.036670463
-0.032832138
-0.029292256
-0.02603843
-0.023057419
-0.02033534
-0.017857865
-0.015610413
-0.013578332
-0.011747062
-0.01010229
-0.0086300875
-0.0073170377
-0.0061503587
-0.0051179973
-0.0042088073
-0.0034124529
-0.0027202774
-0.0021231667
-0.0016191707
-0.0011911833
-0.00087692155
-0.00056255641
-0.00059919685
-1.3806833e-05
-0.0017051878
0.0024945949
-0.21467954
-0.20058091
-0.19006328
-0.18143292
-0.17220435
-0.16273374
-0.15347055
-0.14440043
-0.13549399
-0.12679473
-0.11834266
-0.1101603
-0.1022664
-0.094678654
-0.087411552
-0.080476017
-0.073879948
-0.067628457
-0.061723956
-0.056166299
-0.050952972
-0.046079275
-0.041538522
-0.037322251
-0.033420436
-0.029821715
-0.026513604
-0.02348273
-0.020715038
-0.018196003
-0.015910827
-0.013844629
-0.011982607
-0.010310203
-0.0088132448
-0.0074780722
-0.0062916662
-0.0052417427
-0.0043169333
-0.0035066863
-0.0028021353
-0.0021939648
-0.0016799709
-0.0012429792
-0.00091970631
-0.00059844144
-0.00062042286
-4.1703605e-05
-0.0016561134
0.0023845537
-0.21921741
-0.20266594
-0.19162293
-0.18362178
-0.17462688
-0.16510135
-0.15580209
-0.14671764
-0.13776769
-0.12899724
-0.1204604
-0.11218459
-0.10418978
-0.096495702
-0.089119215
-0.082073152
-0.075366909
-0.069006848
-0.062996434
-0.057336375
-0.052024819
-0.047057575
-0.04242832
-0.038128832
-0.034149217
-0.030478151
-0.027103112
-0.024010616
-0.021186449
-0.01861588
-0.016283873
-0.014175282
-0.012275025
-0.010568252
-0.0090404958
-0.0076777999
-0.0064668538
-0.0053950886
-0.0044508596
-0.0036233464
-0.0029034211
-0.0022815161
-0.0017551108
-0.0013069447
-0.00097249571
-0.00064265498
-0.00064658027
-7.5765323e-05
-0.001596876
0.0022516199
-0.22365559
-0.20440488
-0.19272944
-0.18552547
-0.17698993
-0.16752186
-0.15822638
-0.14916844
-0.140221
-0.13141333
-0.12281205
-0.11445488
-0.1063655
-0.098566244
-0.091077122
-0.083913896
-0.077088306
-0.070608628
-0.064479933
-0.058704255
-0.053280804
-0.048206214
-0.043474785
-0.039078741
-0.035008478
-0.031252826
-0.027799306
-0.024634384
-0.02174371
-0.019112359
-0.01672505
-0.01456635
-0.012620868
-0.010873425
-0.0093092128
-0.0079139329
-0.0066739345
-0.0055763136
-0.0046090999
-0.0037611545
-0.0030230391
-0.0023848869
-0.0018437988
-0.001382416
-0.0010347416
-0.00069474459
-0.00067741313
-0.00011555375
-0.0015287488
0.0020986656
-0.22771282
-0.20617763
-0.19360219
-0.18695579
-0.17907423
-0.16989888
-0.16069001
-0.15168692
-0.14278204
-0.13397733
-0.12533856
-0.11691641
-0.10874275
-0.10084377
-0.093243057
-0.085960112
-0.079009851
-0.072403118
-0.066147124
-0.060245686
-0.054699468
-0.049506259
-0.044661253
-0.040157337
-0.035985374
-0.032134488
-0.028592346
-0.02534543
-0.02237931
-0.019678891
-0.017228652
-0.015012872
-0.01301583
-0.01122199
-0.0096161706
-0.0081836935
-0.0069105249
-0.0057833822
-0.0047899249
-0.0039186508
-0.0031597659
-0.0025030609
-0.0019451987
-0.0014687166
-0.0011059083
-0.00075429235
-0.00071272118
-0.0001606972
-0.0014531458
0.0019289389
-0.22905048
-0.20818893
-0.19490155
-0.18783964
-0.18044506
-0.17185105
-0.16291772
-0.15403977
-0.14523502
-0.1364984
-0.12787898
-0.11943547
-0.11121125
-0.10323873
-0.095545775
-0.088156263
-0.081089204
-0.0743589
-0.067975479
-0.061945251
-0.056270971
-0.050952144
-0.045985348
-0.04136455
-0.037081429
-0.03312569
-0.029485373
-0.026147166
-0.023096688
-0.020318774
-0.017797732
-0.015517588
-0.013462308
-0.011615999
-0.0099630895
-0.0084884931
-0.0071777587
-0.0060171846
-0.0049940154
-0.004096339
-0.0033139571
-0.0026362707
-0.0020594418
-0.0015658885
-0.0011859834
-0.00082117933
-0.00075256173
-0.00021064259
-0.0013719063
0.0017466758
-0.21936294
-0.20753016
-0.19613443
-0.18766441
-0.18021342
-0.17240718
-0.16408866
-0.15558206
-0.14706613
-0.13856872
-0.13011993
-0.12177884
-0.11360173
-0.10563185
-0.097904866
-0.09045176
-0.083298207
-0.076464339
-0.069965245
-0.063811451
-0.058009269
-0.052561157
-0.047466094
-0.042719972
-0.038315965
-0.034244904
-0.03049564
-0.02705539
-0.023910077
-0.021044645
-0.018443357
-0.016090065
-0.013968464
-0.012062316
-0.010355652
-0.0088329508
-0.0074793071
-0.0062805536
-0.0052234695
-0.0042956776
-0.00348652
-0.0027849499
-0.0021865693
-0.0016736282
-0.0012744511
-0.00089454508
-0.00079644457
-0.00026340799
-0.0012874615
0.0015575175
-0.19752184
-0.20149449
-0.1957443
-0.18650876
-0.17864909
-0.17126416
-0.16340171
-0.1552043
-0.14693568
-0.1386604
-0.13040094
-0.12221212
-0.11415423
-0.10627515
-0.098613987
-0.091204906
-0.084076778
-0.077252737
-0.070750573
-0.064583233
-0.05875919
-0.0532828
-0.048154699
-0.0433722
-0.038929686
-0.034819006
-0.031029846
-0.027550107
-0.024366248
-0.021463631
-0.018826823
-0.016439889
-0.014286659
-0.012350959
-0.010616831
-0.009068719
-0.0076916446
-0.006471338
-0.0053944489
-0.004448455
-0.0036225034
-0.0029054156
-0.0022923063
-0.0017658531
-0.0013515366
-0.00096126855
-0.0008343939
-0.000315811
-0.0011997758
0.001369742
-0.18668714
-0.19176754
-0.18785151
-0.1788586
-0.17135538
-0.16476072
-0.1577336
-0.15028247
-0.14269889
-0.13505925
-0.12737695
-0.11970286
-0.11209993
-0.10462001
-0.09730614
-0.090196622
-0.083324706
-0.076717858
-0.070398015
-0.064382051
-0.058682117
-0.053305979
-0.048257406
-0.043536568
-0.039140441
-0.035063202
-0.031296621
-0.027830445
-0.024652765
-0.021750362
-0.019109039
-0.016713921
-0.014549739
-0.012601078
-0.010852607
-0.0092892859
-0.0078965466
-0.006660442
-0.0055678557
-0.0046064464
-0.0037654058
-0.003033721
-0.0024060091
-0.0018660084
-0.0014352301
-0.0010350691
-0.00087445671
-0.00037718621
-0.0010992228
0.0011663699
-0.17759809
-0.18017936
-0.17749692
-0.17025911
-0.16364904
-0.15778418
-0.15155499
-0.14486297
-0.13796954
-0.13097043
-0.12388143
-0.11674752
-0.10963056
-0.10258441
-0.095654455
-0.088881641
-0.082302399
-0.075947682
-0.069842993
-0.064008754
-0.058460583
-0.053209575
-0.04826265
-0.043622928
-0.039290112
-0.035260885
-0.031529292
-0.028087133
-0.02492433
-0.022029289
-0.019389237
-0.01699054
-0.014818993
-0.012860088
-0.011099261
-0.0095221023
-0.0081145585
-0.0068630937
-0.0057548994
-0.0047778779
-0.0039213065
-0.0031743905
-0.002531215
-0.0019767297
-0.0015280411
-0.0011171105
-0.00091923802
-0.0004454272
-0.00098915423
0.00094278361
-0.16756815
-0.16766859
-0.16547837
-0.16033063
-0.1549813
-0.14989421
-0.14448612
-0.13863239
-0.13250645
-0.12620915
-0.11977171
-0.1132373
-0.10666454
-0.10010808
-0.093615304
-0.087229404
-0.080989534
-0.074929862
-0.069079337
-0.063461908
-0.058096733
-0.052998385
-0.048177136
-0.04363929
-0.039387542
-0.035421349
-0.031737309
-0.02832954
-0.025190057
-0.022309135
-0.019675653
-0.017277423
-0.015101497
-0.013134445
-0.011362615
-0.0097723607
-0.0083502565
-0.0070832729
-0.0059589884
-0.0049656133
-0.0040925598
-0.0033292862
-0.002669362
-0.0020989596
-0.0016307241
-0.0012072564
-0.00096975364
-0.00051755565
-0.00087725002
0.00070924845
-0.15666212
-0.15500934
-0.15289814
-0.14947501
-0.14544181
-0.14119202
-0.13660954
-0.13162415
-0.12631739
-0.12077232
-0.11503528
-0.10915195
-0.10317684
-0.097163527
-0.091160461
-0.085212284
-0.079360115
-0.07364074
-0.068086168
-0.062723651
-0.057575787
-0.052660639
-0.047991932
-0.043579329
-0.039428731
-0.035542622
-0.031920419
-0.028558837
-0.025452259
-0.022593091
-0.019972119
-0.01757884
-0.015401776
-0.013428772
-0.011647264
-0.010044524
-0.0086078872
-0.0073249457
-0.0061837614
-0.0051729292
-0.0042820603
-0.003500901
-0.0028225566
-0.0022343663
-0.0017446697
-0.0013062475
-0.0010272654
-0.00059262582
-0.00076943711
0.00047391229
-0.14458433
-0.1422413
-0.14029947
-0.13816242
-0.13531852
-0.13193301
-0.12816404
-0.12402563
-0.11954008
-0.11476335
-0.10974891
-0.10454418
-0.099199313
-0.093765477
-0.088290978
-0.082820822
-0.077396965
-0.072057799
-0.066837612
-0.06176637
-0.056869677
-0.052168796
-0.047680752
-0.043418509
-0.039391218
-0.03560449
-0.032060714
-0.028759392
-0.02569748
-0.022869743
-0.020269093
-0.017886932
-0.015713466
-0.013738011
-0.011949273
-0.010335608
-0.0088852592
-0.0075865687
-0.0064281931
-0.0053992027
-0.0044894883
-0.0036891264
-0.0029908398
-0.0023830412
-0.0018700874
-0.0014140894
-0.0010925074
-0.00066987708
-0.00067157717
0.00024536233
-0.13165549
-0.12951043
-0.12796153
-0.12675185
-0.12488871
-0.12233719
-0.11935237
-0.1160133
-0.11231823
-0.10829736
-0.10400261
-0.099482656
-0.094782397
-0.089948185
-0.085026917
-0.080063097
-0.075098463
-0.070171863
-0.065318837
-0.060571238
-0.055957011
-0.051500096
-0.047220428
-0.043134019
-0.039253113
-0.035586392
-0.032139236
-0.028914004
-0.025910348
-0.023125537
-0.020554784
-0.018191574
-0.016027982
-0.014054976
-0.012262708
-0.010640781
-0.009178497
-0.0078650836
-0.0066899123
-0.0056426297
-0.004713499
-0.0038929763
-0.0031735112
-0.0025444696
-0.0020066929
-0.0015304546
-0.0011659631
-0.00074859992
-0.00058952663
3.2789208e-05
-0.11858197
-0.1170603
-0.11603435
-0.11549826
-0.11440791
-0.11261283
-0.11036013
-0.10775744
-0.10479982
-0.10150008
-0.097902057
-0.094052066
-0.089991614
-0.085761531
-0.081404225
-0.076962489
-0.072477111
-0.067986398
-0.063526054
-0.059128834
-0.05482419
-0.050638043
-0.046592668
-0.042706683
-0.0389951
-0.035469452
-0.032137977
-0.029005843
-0.026075408
-0.023346507
-0.020816751
-0.018481835
-0.016335844
-0.014371552
-0.012580708
-0.010954315
-0.0094828804
-0.0081566502
-0.0069658355
-0.0059007661
-0.0049521801
-0.0041109702
-0.0033694428
-0.0027177886
-0.0021539041
-0.0016548603
-0.0012479059
-0.00082836502
-0.00052838119
-0.0001550853
-0.1058941
-0.10506702
-0.10458289
-0.10455888
-0.10407358
-0.1029346
-0.10134254
-0.099404832
-0.097119662
-0.094490469
-0.091551128
-0.088342365
-0.084901102
-0.081263669
-0.077467853
-0.07355232
-0.069555575
-0.065514617
-0.06146442
-0.057437667
-0.053464411
-0.049571756
-0.045783634
-0.042120686
-0.038600226
-0.035236277
-0.032039673
-0.02901821
-0.026176852
-0.023517962
-0.021041565
-0.018745619
-0.016626306
-0.014678311
-0.012895107
-0.01126922
-0.0097924946
-0.0084563215
-0.0072518716
-0.0061702659
-0.0052028241
-0.0043409414
-0.0035769225
-0.0029016662
-0.0023107482
-0.0017866184
-0.0013383049
-0.00090906728
-0.00049172944
-0.00031118803
-0.093868498
-0.093647689
-0.093652036
-0.094032178
-0.094024125
-0.093436787
-0.092422326
-0.091073529
-0.089390571
-0.087372071
-0.08504266
-0.082435825
-0.07958309
-0.076515635
-0.073266673
-0.069870705
-0.066362444
-0.062776363
-0.059145906
-0.05550287
-0.051877046
-0.048295899
-0.044784277
-0.041364197
-0.038054715
-0.034871878
-0.031828742
-0.02893545
-0.026199366
-0.023625249
-0.021215462
-0.018970211
-0.016887794
-0.014964864
-0.013196692
-0.011577428
-0.010100353
-0.0087581148
-0.0075429527
-0.006446882
-0.0054619097
-0.0045800049
-0.0037936176
-0.0030942637
-0.0024758273
-0.0019247977
-0.0014367605
-0.000990844
-0.00048109946
-0.00043113582
-0.082639995
-0.082891347
-0.083294207
-0.083991225
-0.08435825
-0.084222909
-0.083698818
-0.082860348
-0.081706967
-0.08023423
-0.078458946
-0.076407042
-0.074104121
-0.071575992
-0.068850708
-0.065958328
-0.062929679
-0.059795741
-0.056587399
-0.053334787
-0.050066687
-0.046810155
-0.043590209
-0.040429564
-0.037348412
-0.034364295
-0.031492045
-0.028743783
-0.026128985
-0.023654588
-0.021325147
-0.019143021
-0.017108581
-0.015220446
-0.013475717
-0.011870222
-0.010398754
-0.0090552998
-0.0078332624
-0.0067256427
-0.0057252344
-0.0048246549
-0.0040166443
-0.0032932795
-0.002647347
-0.0020682156
-0.0015424749
-0.0010739289
-0.00049567438
-0.00051398582
-0.072265619
-0.072858646
-0.073561267
-0.07449545
-0.075150064
-0.075374962
-0.075255177
-0.074848061
-0.074150765
-0.073156258
-0.071874835
-0.07032531
-0.068527256
-0.066501041
-0.064269449
-0.061857622
-0.059292152
-0.056600332
-0.053809789
-0.050948158
-0.048042492
-0.045118744
-0.042201408
-0.039313216
-0.036474873
-0.033704852
-0.031019262
-0.028431779
-0.025953636
-0.023593664
-0.021358392
-0.019252172
-0.017277349
-0.015434446
-0.013722379
-0.012138666
-0.01067965
-0.0093407184
-0.0081165043
-0.0070010729
-0.0059880929
-0.0050709048
-0.0042426752
-0.0034960239
-0.0028231686
-0.0022154374
-0.001654248
-0.0011584735
-0.00053236648
-0.00056247911
-0.06275493
-0.063580609
-0.064492343
-0.065590883
-0.066455974
-0.066958274
-0.067161512
-0.067108941
-0.06679508
-0.0662106
-0.065360394
-0.064256962
-0.062914147
-0.061347017
-0.059573168
-0.057612752
-0.055487783
-0.053221538
-0.050838121
-0.048362103
-0.045818123
-0.043230382
-0.040622205
-0.038015702
-0.035431468
-0.032888329
-0.030403146
-0.027990679
-0.025663513
-0.023432037
-0.021304474
-0.019286955
-0.017383638
-0.015596844
-0.013927234
-0.01237399
-0.010935009
-0.0096071014
-0.0083861803
-0.0072674338
-0.00624548
-0.0053144535
-0.0044680725
-0.003699516
-0.0030008793
-0.0023647862
-0.0017705019
-0.0012443815
-0.00058628309
-0.00058262345
-0.054091239
-0.055063859
-0.056108641
-0.057308138
-0.058316576
-0.059023097
-0.059475232
-0.059705034
-0.059704834
-0.059463485
-0.0589815
-0.05826602
-0.057325754
-0.056170855
-0.054814005
-0.053270511
-0.051557782
-0.04969485
-0.047702021
-0.04560051
-0.043412059
-0.041158543
-0.038861534
-0.03654193
-0.034219623
-0.031913215
-0.02963978
-0.027414667
-0.025251371
-0.023161452
-0.0211545
-0.019238162
-0.017418191
-0.015698549
-0.014081532
-0.012567913
-0.011157109
-0.0098473507
-0.0086358486
-0.0075189537
-0.0064922924
-0.005550858
-0.0046890306
-0.0039005926
-0.0031778739
-0.0025143689
-0.0018893413
-0.0013312025
-0.00065152056
-0.00058261839
-0.046242116
-0.047296031
-0.04841332
-0.049661595
-0.050756916
-0.051604795
-0.052240386
-0.052687037
-0.052935613
-0.052973783
-0.052798698
-0.052413146
-0.051821481
-0.05102953
-0.050045528
-0.04888027
-0.047546745
-0.046059767
-0.04443571
-0.042692218
-0.040847858
-0.038921759
-0.036933251
-0.034901495
-0.032845141
-0.030782022
-0.028728887
-0.026701172
-0.024712814
-0.022776121
-0.020901686
-0.019098351
-0.017373211
-0.015731659
-0.014177466
-0.012712885
-0.011338779
-0.010054761
-0.0088593312
-0.0077500209
-0.0067235043
-0.0057756885
-0.0049017098
-0.0040960157
-0.0033514403
-0.002662121
-0.0020086505
-0.0014181121
-0.00072212138
-0.00057132836
-0.039164754
-0.04025098
-0.041394556
-0.042650868
-0.043787488
-0.044724448
-0.045487542
-0.046093495
-0.046532435
-0.046791525
-0.046865527
-0.046753886
-0.046457465
-0.045978483
-0.04532134
-0.044492821
-0.043501852
-0.042359252
-0.041077542
-0.039670738
-0.03815407
-0.036543682
-0.034856302
-0.033108934
-0.031318517
-0.029501625
-0.027674183
-0.025851214
-0.024046626
-0.022273036
-0.020541639
-0.01886212
-0.01724261
-0.01568968
-0.014208376
-0.012802273
-0.01147357
-0.010223184
-0.00905087
-0.0079553283
-0.0069343013
-0.0059846506
-0.0051023446
-0.0042825641
-0.0035188389
-0.0028058654
-0.0021262157
-0.0015039763
-0.0007929609
-0.00055668237
-0.032810474
-0.033893686
-0.035029639
-0.036263701
-0.037406313
-0.038390339
-0.039234603
-0.039950898
-0.04052925
-0.040956921
-0.041227172
-0.041337055
-0.041284804
-0.041069805
-0.040693323
-0.04015874
-0.039471423
-0.038638571
-0.037669105
-0.036573533
-0.035363752
-0.034052812
-0.032654644
-0.031183792
-0.029655125
-0.028083545
-0.026483708
-0.024869771
-0.023255153
-0.021652339
-0.020072709
-0.018526416
-0.017022287
-0.015567782
-0.014168973
-0.012830561
-0.011555924
-0.010347177
-0.0092052542
-0.0081299873
-0.0071201816
-0.0061736755
-0.0052873239
-0.004457105
-0.0036773696
-0.00294338
-0.0022398498
-0.0015874703
-0.0008603332
-0.00054443801
-0.027128127
-0.02818396
-0.029288548
-0.030479029
-0.031601478
-0.032600005
-0.033488306
-0.034274584
-0.034949245
-0.035500139
-0.035919776
-0.036203655
-0.03634818
-0.036350663
-0.036209955
-0.035926701
-0.035503296
-0.034943808
-0.034253944
-0.033440976
-0.032513627
-0.031481893
-0.030356853
-0.029150441
-0.027875209
-0.02654408
-0.025170083
-0.023766109
-0.022344677
-0.02091772
-0.019496397
-0.018090934
-0.016710503
-0.015363127
-0.014055627
-0.012793592
-0.011581388
-0.010422178
-0.0093179655
-0.0082696459
-0.0072770529
-0.0063389998
-0.0054532579
-0.0046166523
-0.0038244281
-0.0030724659
-0.0023474962
-0.0016672097
-0.00092209961
-0.00053763754
-0.022066376
-0.023079085
-0.024136751
-0.025269715
-0.026353659
-0.027342471
-0.028246093
-0.029070153
-0.029805775
-0.030441746
-0.030970413
-0.031386415
-0.031685025
-0.031862169
-0.031914969
-0.031842
-0.0316433
-0.031320363
-0.030876152
-0.030315091
-0.029643008
-0.028867036
-0.027995476
-0.027037636
-0.026003647
-0.024904255
-0.023750604
-0.022554012
-0.021325747
-0.020076817
-0.018817779
-0.01755856
-0.016308311
-0.015075286
-0.013866749
-0.012688914
-0.011546907
-0.010444754
-0.0093853852
-0.0083706569
-0.0074013657
-0.0064772697
-0.005597059
-0.0047584328
-0.0039575633
-0.0031910154
-0.0024472956
-0.001741858
-0.00097742361
-0.00053683127
-0.017575566
-0.01853603
-0.019537639
-0.020605069
-0.021638613
-0.022600601
-0.023498221
-0.024335271
-0.025103793
-0.025793725
-0.026397675
-0.02690996
-0.027325292
-0.027638794
-0.02784647
-0.027945437
-0.02793398
-0.027811584
-0.027578987
-0.027238216
-0.026792585
-0.026246648
-0.02560613
-0.024877822
-0.024069447
-0.023189512
-0.022247127
-0.021251824
-0.020213355
-0.019141501
-0.018045885
-0.016935792
-0.01582001
-0.014706692
-0.013603235
-0.012516193
-0.011451201
-0.010412937
-0.0094050832
-0.0084303203
-0.0074903116
-0.0065856999
-0.0057160659
-0.0048799844
-0.0040745565
-0.003297089
-0.002537623
-0.001810196
-0.0010262687
-0.00054085866
-0.013608792
-0.014512883
-0.015454237
-0.016452747
-0.017429189
-0.018353145
-0.019229762
-0.020061531
-0.020841496
-0.021560846
-0.022212728
-0.022791527
-0.023291819
-0.023708397
-0.024036645
-0.024272761
-0.02441382
-0.024457838
-0.024403844
-0.024251945
-0.024003365
-0.023660448
-0.02322663
-0.022706393
-0.022105187
-0.021429322
-0.020685842
-0.019882386
-0.019027024
-0.018128089
-0.017194008
-0.016233135
-0.015253591
-0.014263119
-0.013268948
-0.012277686
-0.011295219
-0.01032664
-0.009376189
-0.0084472071
-0.0075420988
-0.0066623018
-0.0058082297
-0.0049793057
-0.0041735376
-0.0033890122
-0.002617116
-0.0018711653
-0.0010688976
-0.00054780541
-0.010123378
-0.010970573
-0.01185111
-0.012780782
-0.013697444
-0.014576871
-0.015422675
-0.0162364
-0.017012091
-0.01774219
-0.018420548
-0.019041865
-0.019600889
-0.02009242
-0.020511622
-0.020854203
-0.021116497
-0.021295524
-0.021389082
-0.021395826
-0.021315329
-0.021148118
-0.02089569
-0.020560504
-0.020145946
-0.019656276
-0.019096546
-0.018472498
-0.017790448
-0.017057154
-0.016279668
-0.015465193
-0.014620935
-0.01375396
-0.012871056
-0.011978616
-0.011082519
-0.010188039
-0.009299758
-0.0084214987
-0.0075562574
-0.0067061511
-0.0058723417
-0.0050550462
-0.0042531367
-0.0034654932
-0.0026847176
-0.0019239085
-0.0011055521
-0.00055578117
-0.0070808539
-0.007873318
-0.0086952235
-0.0095588262
-0.010416219
-0.011248447
-0.012057938
-0.012845528
-0.013606202
-0.014333598
-0.015022325
-0.015667551
-0.016264382
-0.016807859
-0.017293206
-0.017715977
-0.018072128
-0.018358084
-0.018570827
-0.018707982
-0.018767887
-0.018749653
-0.018653205
-0.018479302
-0.018229547
-0.017906366
-0.017512972
-0.017053304
-0.016531949
-0.015954053
-0.015325203
-0.014651313
-0.013938495
-0.013192929
-0.01242074
-0.011627865
-0.010819941
-0.010002197
-0.0091793486
-0.0083555079
-0.0075341009
-0.0067177886
-0.005908374
-0.0051067896
-0.0043127097
-0.0035257947
-0.0027397718
-0.0019678391
-0.0011363682
-0.00056334864
-0.0044483878
-0.0051898865
-0.0059570721
-0.0067590866
-0.0075598878
-0.0083449868
-0.0091158807
-0.0098728517
-0.010611732
-0.011327246
-0.012014757
-0.012669962
-0.013288423
-0.013865563
-0.014396848
-0.014877907
-0.015304595
-0.01567305
-0.015979776
-0.016221725
-0.016396372
-0.016501778
-0.016536654
-0.016500398
-0.016393133
-0.016215714
-0.01596973
-0.015657481
-0.015281933
-0.014846666
-0.0143558
-0.013813901
-0.013225886
-0.012596914
-0.011932271
-0.011237258
-0.010517069
-0.0097766857
-0.0090207595
-0.0082535119
-0.0074786309
-0.0066991767
-0.0059174715
-0.005135066
-0.004352358
-0.0035697495
-0.0027820193
-0.0020026369
-0.001161384
-0.00056959097
-0.0022001868
-0.0028961153
-0.0036141461
-0.0043607707
-0.0051097647
-0.0058503697
-0.0065833322
-0.0073084901
-0.0080224048
-0.008720757
-0.0093996091
-0.010055187
-0.010683539
-0.011280529
-0.011841968
-0.012363706
-0.012841679
-0.013271963
-0.013650842
-0.01397488
-0.014240994
-0.014446521
-0.014589282
-0.014667638
-0.014680538
-0.014627553
-0.014508902
-0.014325459
-0.014078742
-0.013770891
-0.013404628
-0.0129832
-0.012510313
-0.011990041
-0.011426741
-0.010824949
-0.010189276
-0.0095242952
-0.0088344327
-0.0081238555
-0.007396359
-0.0066552593
-0.0059032699
-0.0051424501
-0.0043738275
-0.003598482
-0.0028121652
-0.0020286868
-0.0011809469
-0.00057420301
-0.00031129939
-0.00096714202
-0.0016419015
-0.0023396852
-0.0030423366
-0.0037422082
-0.0044394411
-0.0051335018
-0.0058215571
-0.0065001005
-0.0071658103
-0.0078154014
-0.008445388
-0.0090520795
-0.0096316692
-0.010180298
-0.010694093
-0.011169211
-0.011601891
-0.011988519
-0.012325694
-0.012610284
-0.0128395
-0.013010946
-0.013122684
-0.013173281
-0.013161847
-0.013088068
-0.012952225
-0.012755192
-0.012498434
-0.012183973
-0.011814351
-0.011392573
-0.010922039
-0.010406463
-0.0098497834
-0.0092560597
-0.0086293692
-0.0079736935
-0.0072928016
-0.0065901346
-0.0058686727
-0.0051308695
-0.0043782787
-0.0036125746
-0.0028303886
-0.0020458696
-0.0011948131
-0.00057674421
0.0012149348
0.00059173731
-4.7416702e-05
-0.000704884
-0.0013689129
-0.0020342958
-0.0027006783
-0.0033672289
-0.0040316003
-0.0046909437
-0.0053424482
-0.0059832466
-0.0066102647
-0.0072202166
-0.0078096609
-0.0083750436
-0.0089127265
-0.0094190205
-0.0098902297
-0.010322702
-0.010712884
-0.011057378
-0.011353
-0.011596845
-0.01178634
-0.011919307
-0.011994012
-0.012009209
-0.011964179
-0.011858755
-0.011693334
-0.011468874
-0.011186888
-0.010849408
-0.010458939
-0.010018401
-0.0095310565
-0.0090004197
-0.008430163
-0.0078240072
-0.0071856057
-0.0065184251
-0.0058256075
-0.0051098939
-0.0043732565
-0.0036178649
-0.0028411162
-0.0020574486
-0.00120528
-0.00057839355
0.0024207692
0.0018244501
0.0012144609
0.00059006168
-4.1992086e-05
-0.00067844051
-0.0013185477
-0.0019612335
-0.0026045184
-0.0032460666
-0.0038834717
-0.0045142045
-0.0051355293
-0.005744501
-0.0063379964
-0.0069127408
-0.0074653286
-0.0079922489
-0.0084899201
-0.0089547301
-0.009383082
-0.0097714445