/*--------------------------------*- C++ -*----------------------------------*\
  =========                 |
  \\      /  F ield         | OpenFOAM: The Open Source CFD Toolbox
   \\    /   O peration     | Website:  https://openfoam.org
    \\  /    A nd           | Version:  6
     \\/     M anipulation  |
\*---------------------------------------------------------------------------*/
FoamFile
{
    version     2.0;
    format      ascii;
    class       volVectorField;
    location    "283";
    object      U_0;
}
// * * * * * * * * * * * * * * * * * * * * * * * * * * * * * * * * * * * * * //

dimensions      [0 1 -1 0 0 0 0];

internalField   nonuniform List<vector> 
9200
(
(0.001039346 0.0014199823 -5.9201844e-20)
(0.013676067 -0.0020583664 4.6042531e-20)
(0.038313165 -0.0058665674 -3.8501739e-20)
(0.072274435 -0.0097635043 -6.0257746e-20)
(0.11376474 -0.013490027 1.8826966e-20)
(0.16158088 -0.016605656 3.274388e-20)
(0.21467148 -0.018817283 -1.226801e-20)
(0.27206607 -0.019973888 9.2688632e-21)
(0.33285622 -0.02001122 1.6803425e-20)
(0.39616347 -0.018929048 1.4848072e-21)
(0.46111555 -0.016779811 -2.1456337e-20)
(0.52683686 -0.013657726 2.0670008e-20)
(0.59245067 -0.0096879911 -4.042216e-20)
(0.65709129 -0.0050157677 -2.1133906e-20)
(0.7199247 0.00020557206 5.9046537e-21)
(0.780175 0.0058241077 -2.5131676e-20)
(0.83717058 0.011712827 2.5217115e-20)
(0.89046874 0.017918529 2.2243168e-20)
(0.93967069 0.024573431 -2.9930613e-22)
(0.98205185 0.028293403 -1.6692023e-21)
(0.00525218 -0.0013462728 -1.7059353e-20)
(0.0269625 -0.0089890256 3.9747707e-20)
(0.061670114 -0.014809763 2.3576298e-20)
(0.10629489 -0.019172267 -1.1569757e-19)
(0.15873565 -0.022213993 -1.2727089e-20)
(0.21753351 -0.023720681 7.3297075e-20)
(0.28137295 -0.02359509 -3.5476399e-20)
(0.349006 -0.021868958 -8.3905564e-21)
(0.41923919 -0.018645516 3.428754e-20)
(0.49090943 -0.014080832 -4.325958e-20)
(0.5628723 -0.0083759406 -3.0338481e-20)
(0.63400845 -0.001766583 7.1921435e-20)
(0.70324328 0.0054884072 3.8294054e-20)
(0.76957579 0.013118646 -6.7976565e-20)
(0.83211244 0.020852097 1.462369e-20)
(0.89010035 0.02841972 -3.6733397e-20)
(0.94296915 0.035569689 -1.377719e-20)
(0.99043228 0.042140902 7.0974729e-20)
(1.032356 0.047715324 2.9641953e-20)
(1.0669348 0.049139704 -8.3478285e-20)
(0.010858426 -0.0040424155 3.6773458e-20)
(0.043953412 -0.015431076 2.5047381e-21)
(0.090515433 -0.022552281 2.2341714e-20)
(0.14711139 -0.026497356 9.8116818e-22)
(0.21134254 -0.027886294 -4.077394e-20)
(0.28146766 -0.02679511 1.8576401e-20)
(0.35587039 -0.023382723 1.3420301e-20)
(0.43299006 -0.017921531 -5.0327702e-20)
(0.51132476 -0.010735644 5.7261857e-20)
(0.58942612 -0.0021838738 1.4256686e-20)
(0.66590914 0.0073479124 -5.4300708e-20)
(0.73948034 0.01746027 -1.8237401e-20)
(0.80897596 0.02775657 9.0591681e-21)
(0.87340262 0.037859278 2.3444739e-20)
(0.9319736 0.04742405 -1.1362505e-20)
(0.98413365 0.056148979 2.7877728e-20)
(1.029574 0.063789179 -2.018823e-20)
(1.0682645 0.070204397 -7.0123603e-20)
(1.1003321 0.075119381 -2.379632e-20)
(1.1249112 0.076641239 4.865992e-20)
(0.017957214 -0.006422163 2.4508015e-20)
(0.064776993 -0.020694798 5.1039222e-20)
(0.12485228 -0.028060845 1.9881693e-20)
(0.19446965 -0.030464063 1.2990093e-20)
(0.27094931 -0.029094838 1.7275701e-20)
(0.35224878 -0.024388975 -4.7720169e-20)
(0.43643137 -0.016825968 -2.5646854e-20)
(0.52162006 -0.006976666 0)
(0.60602894 0.0045670365 1.3920612e-20)
(0.68798705 0.017211736 -5.8523362e-21)
(0.76597516 0.030373926 -9.7934945e-20)
(0.83867445 0.043499637 -1.577482e-20)
(0.90501524 0.056086621 6.5103197e-20)
(0.96421568 0.067704139 4.8443179e-22)
(1.0158035 0.078007719 -1.572557e-21)
(1.0596155 0.086746797 2.1957498e-20)
(1.0957773 0.093772233 -5.2647196e-21)
(1.12468 0.099065339 -6.1029766e-20)
(1.1468647 0.10259708 -4.5851351e-20)
(1.1622957 0.10341386 6.952073e-20)
(0.026579419 -0.0082056877 -3.9194207e-21)
(0.089344018 -0.024033505 -5.1256333e-21)
(0.16430753 -0.030264986 5.6599407e-20)
(0.24758119 -0.029810017 1.8539322e-20)
(0.3362416 -0.024513024 -3.1955063e-20)
(0.42795124 -0.015239856 1.216384e-20)
(0.52047261 -0.0028513591 2.640286e-21)
(0.61166356 0.011737099 3.3609166e-20)
(0.6995471 0.027640146 5.6599501e-21)
(0.78236836 0.044028773 -1.3204738e-20)
(0.85865404 0.060147728 6.0154032e-20)
(0.92726909 0.075340475 -5.8009358e-20)
(0.98745674 0.089072866 -1.3216613e-19)
(1.038853 0.10094902 -5.5773037e-21)
(1.0814725 0.11071709 8.3150781e-20)
(1.1156655 0.11826406 0)
(1.1420548 0.12360583 1.0118965e-20)
(1.1614668 0.12689057 -1.5459773e-20)
(1.1748179 0.12829871 -8.5994749e-21)
(1.1826673 0.12744917 2.0992247e-20)
(0.036666908 -0.0090895793 -5.4309132e-21)
(0.11731511 -0.024685356 4.3578744e-21)
(0.20811868 -0.028140176 -8.7629835e-21)
(0.30515701 -0.023414952 2.8472394e-20)
(0.40533538 -0.013075588 -2.9392662e-20)
(0.50607146 0.0015226183 -1.6927022e-20)
(0.60490489 0.019095143 3.7364232e-20)
(0.69954958 0.038365258 4.7595456e-21)
(0.78800391 0.058167649 -2.4436054e-20)
(0.86863404 0.077483008 6.9867555e-20)
(0.94023971 0.095458647 5.2394113e-22)
(1.0020955 0.11143157 -8.0444309e-20)
(1.0539569 0.12494291 0)
(1.0960273 0.1357375 3.954211e-20)
(1.1288921 0.14374844 5.5235983e-21)
(1.1534278 0.14906894 -7.7566397e-20)
(1.170699 0.15191914 -1.9586925e-20)
(1.1818623 0.15262369 -1.2467628e-20)
(1.1880592 0.15152607 -1.4709376e-20)
(1.190146 0.14858494 4.0420496e-20)
(0.048058867 -0.0087674048 -1.7277958e-20)
(0.1480831 -0.021931992 -2.2198269e-21)
(0.25514069 -0.020797833 3.0380503e-20)
(0.36546383 -0.010412791 3.7484307e-20)
(0.4759042 0.0059015906 -1.9944732e-20)
(0.58374265 0.026269309 -6.9163026e-20)
(0.68644184 0.048977212 -2.7995794e-20)
(0.78176202 0.072417792 7.8929205e-20)
(0.86790195 0.095212481 8.5778122e-21)
(0.94358915 0.11624962 -2.4873481e-20)
(1.0081258 0.13469828 1.3642213e-20)
(1.061387 0.15001556 -4.3194479e-21)
(1.1037693 0.1619366 0)
(1.1360975 0.17044428 2.720348e-20)
(1.1595046 0.1757231 -7.9322405e-20)
(1.175302 0.1781037 -3.1475526e-20)
(1.1848569 0.17800814 8.105457e-20)
(1.1894921 0.17590946 -4.2969885e-21)
(1.1904029 0.17225559 3.5561051e-21)
(1.188508 0.16719299 2.711153e-20)
(0.06048525 -0.0069573637 -3.2414614e-20)
(0.18077772 -0.01517038 -8.1624317e-20)
(0.30388928 -0.0075835257 2.5797748e-21)
(0.42642555 0.0097033577 7.0161807e-20)
(0.54535148 0.032631555 6.2424372e-20)
(0.657981 0.058820045 -7.1574516e-20)
(0.76190882 0.086176509 -2.8275131e-22)
(0.8551829 0.11285231 8.5522541e-20)
(0.93645345 0.13737838 4.8828066e-20)
(1.0050415 0.1586937 -5.4218403e-20)
(1.0609356 0.17613563 -9.2334208e-20)
(1.1047242 0.18941355 -3.1589824e-21)
(1.1374759 0.19855944 4.2127863e-20)
(1.1605873 0.20385857 -6.6056271e-21)
(1.1756247 0.2057702 -1.2868785e-20)
(1.1841776 0.2048492 1.9690806e-20)
(1.1877427 0.20167898 4.3880613e-20)
(1.1876453 0.19682589 -4.3859424e-20)
(1.1849953 0.19077885 -1.0232198e-19)
(1.180625 0.18377381 2.4566852e-20)
(0.073537214 -0.0034329734 -3.497975e-20)
(0.21422687 -0.0039890252 -1.7388611e-19)
(0.35251656 0.011839376 8.210324e-20)
(0.48562797 0.037018337 9.2767511e-20)
(0.61085379 0.066835552 5.7970563e-20)
(0.72576726 0.098481178 8.6107089e-21)
(0.82834801 0.12959696 -1.0624008e-19)
(0.91718996 0.15824269 0)
(0.99162743 0.18302814 -6.8748584e-20)
(1.0517521 0.20311207 -1.5202409e-20)
(1.0983384 0.21814861 5.4703461e-20)
(1.1327008 0.22821083 1.097338e-20)
(1.1565109 0.23369261 -4.5613851e-20)
(1.1716067 0.23519947 -4.9081359e-20)
(1.1798203 0.23344336 2.4287678e-20)
(1.182845 0.22915324 4.4822887e-20)
(1.1821488 0.22300987 -5.5600405e-20)
(1.178936 0.21560823 -1.0751121e-19)
(1.1741468 0.20742225 -3.1513646e-21)
(1.1684567 0.19871882 2.7046399e-20)
(0.086650445 0.001961386 -3.5448994e-21)
(0.24696018 0.011816634 8.791324e-20)
(0.39884739 0.037492309 -1.6479242e-20)
(0.54040464 0.071218382 -8.4309146e-20)
(0.66949901 0.10778893 4.5164368e-20)
(0.78421951 0.14411543 4.9175448e-20)
(0.88318939 0.17775668 5.5356778e-21)
(0.96577869 0.2068849 -9.9502481e-20)
(1.0321763 0.23038802 -2.5048778e-21)
(1.0833328 0.24781553 5.050354e-20)
(1.120807 0.25926301 5.9854759e-21)
(1.1465558 0.2652362 -1.9717204e-20)
(1.1627107 0.26650533 -7.5704623e-20)
(1.1713765 0.26396622 -6.2554026e-21)
(1.1744762 0.2585243 4.3533352e-20)
(1.1736548 0.25101089 3.7022012e-20)
(1.1702383 0.24213396 1.9793442e-20)
(1.1652402 0.23245876 -5.2994843e-20)
(1.1594014 0.22240419 1.2957452e-20)
(1.1532251 0.212238 8.2659103e-20)
(-0.0012932614 0.0014346597 -1.1234445e-21)
(-0.0047459601 0.0031874147 2.0646967e-21)
(-0.010771358 0.0041359039 8.7950069e-22)
(-0.017754286 0.0045395358 -2.4411021e-21)
(-0.024740317 0.0045654164 -1.4114825e-21)
(-0.031299591 0.0043260384 1.546001e-21)
(-0.037161325 0.003903538 -6.8700808e-21)
(-0.04214744 0.0033577216 -5.9573037e-21)
(-0.046157774 0.0027313811 1.1171997e-20)
(-0.049146187 0.0020548305 -9.7427485e-21)
(-0.051100652 0.0013493004 -1.9833031e-22)
(-0.052030442 0.00062942195 3.6673439e-21)
(-0.051957735 -9.4889403e-05 -6.329559e-22)
(-0.05091188 -0.00081693027 2.2818743e-20)
(-0.048925777 -0.0015318445 3.040112e-22)
(-0.046035341 -0.0022351738 -4.0882869e-20)
(-0.042281798 -0.0029222677 7.538561e-21)
(-0.037703444 -0.0035910382 2.3864109e-20)
(-0.032308696 -0.0042399861 -4.3852372e-20)
(-0.026156967 -0.0048211126 -2.7739203e-20)
(-0.0016521998 0.0041808661 -5.3716028e-21)
(-0.0053974809 0.0092681378 1.0865438e-20)
(-0.011218509 0.012007443 -1.0191543e-20)
(-0.017658025 0.013153763 3.9229746e-21)
(-0.023856431 0.013195412 4.8121442e-21)
(-0.029433316 0.012462724 7.1324185e-22)
(-0.034152319 0.011197013 -2.250949e-20)
(-0.037860376 0.0095738965 -2.037024e-21)
(-0.040474296 0.007718987 2.016354e-20)
(-0.04195892 0.0057212303 -5.0473599e-21)
(-0.042308948 0.0036428646 -2.1762589e-20)
(-0.041537336 0.001526713 4.8973168e-21)
(-0.039667712 -0.00059830499 2.2635421e-20)
(-0.036729081 -0.0027127603 1.030839e-20)
(-0.032752035 -0.0048026883 2.1854284e-20)
(-0.027769173 -0.0068555073 -1.9770727e-20)
(-0.021824799 -0.0088582183 -2.1672943e-20)
(-0.014966276 -0.010804223 2.1184615e-20)
(-0.0071290246 -0.012678999 2.6810363e-20)
(0.001874286 -0.014317221 1.5854765e-20)
(-0.0023034291 0.0065602324 -4.3568689e-21)
(-0.0065392236 0.014480195 -5.6387542e-21)
(-0.011892131 0.018710542 3.0723933e-22)
(-0.017211098 0.020428179 1.0959875e-21)
(-0.021819141 0.020400323 6.6918405e-21)
(-0.02543104 0.019151665 1.0665169e-20)
(-0.02787723 0.017066287 -3.7227638e-21)
(-0.029053268 0.014423782 -1.8896165e-20)
(-0.028909036 0.011424352 6.5413172e-21)
(-0.02743105 0.008209905 1.286257e-20)
(-0.024627714 0.0048797762 5.8340849e-21)
(-0.02052011 0.0015022391 1.8159105e-20)
(-0.015135989 -0.0018768625 1.7295914e-21)
(-0.0085054028 -0.0052272467 -3.3864527e-20)
(-0.0006568985 -0.0085276086 1.202017e-21)
(0.0083810094 -0.011759107 -2.213921e-20)
(0.018556857 -0.014904094 -2.4466301e-20)
(0.029802168 -0.01795375 4.5819706e-20)
(0.042304948 -0.020855113 2.5349345e-20)
(0.056738552 -0.023247762 1.2239207e-22)
(-0.0031290275 0.0083689697 -5.2833071e-21)
(-0.0078963985 0.018336512 -8.4815276e-21)
(-0.012438985 0.023587808 4.3593047e-21)
(-0.016026534 0.025609657 4.1463452e-21)
(-0.018235023 0.025382744 2.0105708e-21)
(-0.018912651 0.023589321 7.3209958e-21)
(-0.017984717 0.020730272 9.3124781e-21)
(-0.015416711 0.017170377 -1.3511355e-21)
(-0.011207049 0.013171314 -1.1481947e-20)
(-0.0053752366 0.0089189317 -2.9071877e-20)
(0.0020481065 0.0045434377 6.1892404e-23)
(0.011026501 0.00013431193 4.069782e-20)
(0.021522215 -0.0042489496 -1.8383171e-20)
(0.033497838 -0.008567583 -1.2296087e-20)
(0.046920496 -0.012795544 5.5348942e-22)
(0.061760075 -0.016911852 3.2302642e-20)
(0.077952989 -0.020901666 -1.4829543e-20)
(0.095392236 -0.024763371 -5.333918e-20)
(0.11439842 -0.028379713 4.5765007e-20)
(0.13634534 -0.031073089 3.3013173e-20)
(-0.0039704095 0.0094657319 -6.8788987e-22)
(-0.0090916577 0.020487791 -1.253474e-20)
(-0.012364471 0.026159086 -3.4144535e-20)
(-0.01355254 0.028143337 -5.7241622e-21)
(-0.01253324 0.027555006 -3.622274e-21)
(-0.0093167252 0.025188063 6.3051037e-21)
(-0.0039456465 0.021627411 -4.646196e-21)
(0.0035261254 0.017298959 -8.807027e-21)
(0.013036817 0.012508752 2.189971e-20)
(0.024521236 0.0074744434 5.056707e-21)
(0.037915531 0.0023489052 -2.5290294e-20)
(0.053157436 -0.0027627824 1.1078278e-20)
(0.070186855 -0.0077908724 0)
(0.088946567 -0.0126913 1.2089575e-20)
(0.10938542 -0.017436916 -9.7016173e-21)
(0.13145739 -0.022009893 -1.4337119e-20)
(0.15507405 -0.026408641 -1.5738946e-21)
(0.18006757 -0.030659415 -2.2181551e-21)
(0.20685339 -0.034576528 4.6147065e-20)
(0.23766356 -0.037019861 -1.0470127e-20)
(-0.0046450977 0.009780862 -7.5356678e-21)
(-0.0096772506 0.020747879 2.45164e-20)
(-0.01106438 0.026160976 -1.0499346e-20)
(-0.0090968329 0.027724444 -2.7469282e-20)
(-0.0039797217 0.026601694 -2.7548147e-20)
(0.004096181 0.023648408 -1.4921569e-20)
(0.014954146 0.019496457 -6.9059574e-22)
(0.028436231 0.014604706 5.5499779e-21)
(0.044403141 0.0093034476 1.9615878e-20)
(0.062730489 0.003828417 7.3530854e-21)
(0.083304306 -0.0016547531 -7.186221e-21)
(0.10601896 -0.007032236 -2.0102305e-21)
(0.13077356 -0.012229094 -3.819171e-20)
(0.15746942 -0.017199749 -1.2693645e-20)
(0.18601198 -0.02191973 1.8750606e-20)
(0.21631175 -0.026379712 -2.1021673e-20)
(0.24823221 -0.030602217 -8.9730575e-21)
(0.28151865 -0.034670601 3.0440467e-20)
(0.31660701 -0.038364812 5.047207e-20)
(0.35665012 -0.039964091 3.355966e-21)
(-0.0049617683 0.0093139985 1.6783304e-20)
(-0.0091662691 0.019097709 1.4467939e-20)
(-0.0078593651 0.023563366 5.1145488e-20)
(-0.0018585403 0.024328943 2.3387981e-20)
(0.0082957213 0.022523783 1.8251774e-22)
(0.022221937 0.019014385 -3.9388455e-20)
(0.039597438 0.014440937 -2.4313861e-20)
(0.060147898 0.0092663607 1.0465817e-20)
(0.083639107 0.0038232299 1.4401586e-20)
(0.10986668 -0.0016512969 -1.311371e-20)
(0.13864561 -0.0069910067 -4.4038716e-20)
(0.16980169 -0.012082844 2.9618499e-20)
(0.20316403 -0.016854155 2.0020552e-20)
(0.23855944 -0.02126399 -2.7551156e-20)
(0.27581228 -0.025296397 1.1650135e-20)
(0.31474808 -0.028957161 2.4197613e-20)
(0.35514543 -0.032303044 8.0723941e-21)
(0.39663384 -0.035506668 -1.1764209e-20)
(0.43957698 -0.038392632 -1.4190298e-20)
(0.48798506 -0.038634391 5.8727552e-21)
(-0.0047307762 0.0081236732 1.1093845e-20)
(-0.0070586006 0.015671176 -2.3352718e-20)
(-0.0020293666 0.018562032 8.6200563e-21)
(0.0090325187 0.018216225 3.3587966e-20)
(0.025256359 0.01565115 5.2124341e-20)
(0.046066334 0.011695604 2.027651e-20)
(0.070984517 0.0069609539 -5.8639365e-21)
(0.09960194 0.0018829534 -1.2286283e-20)
(0.13156893 -0.0032271954 -6.2057478e-21)
(0.16657566 -0.008149654 3.4240836e-20)
(0.20433423 -0.012733316 -4.5104398e-21)
(0.24456483 -0.016879182 -1.6643302e-20)
(0.28698467 -0.02052868 -1.9693573e-20)
(0.33129995 -0.023656404 -4.7443742e-20)
(0.37720456 -0.026265524 2.3238705e-20)
(0.42438767 -0.02838785 -1.4095985e-20)
(0.4724997 -0.030127608 2.5993401e-20)
(0.52103614 -0.031783175 2.1040823e-20)
(0.57021391 -0.033350662 -8.5570377e-20)
(0.62470912 -0.032058821 -1.0807439e-22)
(-0.0037710521 0.0063146395 2.1925055e-20)
(-0.0028657668 0.010735096 -2.6165529e-20)
(0.0071421036 0.011564137 -4.5013296e-20)
(0.02445023 0.0099249907 -2.7253781e-20)
(0.047870847 0.0066523074 -2.0439868e-21)
(0.076628697 0.0024906192 1.3050092e-20)
(0.11007672 -0.0020153925 -2.8337681e-21)
(0.14765205 -0.0064879005 1.8118536e-20)
(0.18886094 -0.010663499 8.8685607e-21)
(0.23325193 -0.014362416 -1.1380172e-20)
(0.28039147 -0.017468942 8.8779156e-21)
(0.32984601 -0.019916798 -2.3903269e-20)
(0.38116878 -0.021678688 8.0504798e-21)
(0.43389082 -0.022759863 1.6756394e-20)
(0.48751932 -0.023194288 -2.6395135e-21)
(0.54154713 -0.023046876 1.6618982e-21)
(0.59543542 -0.022469428 -3.1957677e-22)
(0.6485178 -0.021870086 1.9590423e-20)
(0.70082236 -0.021445041 4.0434e-21)
(0.75745147 -0.018499058 -5.7333885e-22)
(-0.0019110146 0.0040273483 2.3692112e-20)
(0.0038694291 0.004676521 5.7159956e-20)
(0.020315309 0.0031879657 -4.9244226e-20)
(0.045178281 0.00029442809 -9.9454141e-21)
(0.076965146 -0.0034241492 2.0256343e-20)
(0.11469622 -0.0073535825 2.1433716e-21)
(0.15753882 -0.011054952 -2.981516e-20)
(0.2047483 -0.014244134 6.9848092e-21)
(0.25564948 -0.016737922 7.1097892e-21)
(0.30960471 -0.018426949 -2.6254079e-20)
(0.36598646 -0.019260089 1.2927333e-21)
(0.42415956 -0.019231857 -3.7174116e-20)
(0.48347099 -0.018372191 -3.6341021e-20)
(0.54324562 -0.016738263 6.5683489e-20)
(0.60278809 -0.014407287 5.5627485e-21)
(0.66138881 -0.011475882 -1.5188792e-20)
(0.71830781 -0.0081020272 1.936397e-20)
(0.77269898 -0.0045928459 -9.1888139e-22)
(0.82408832 -0.00096802646 2.0364579e-20)
(0.87621963 0.0043280926 -1.955414e-20)
(-0.018836425 -0.0050997018 5.8352034e-20)
(-0.010224666 -0.0056349248 1.5783665e-20)
(-0.00022120982 -0.0060688775 -3.5139554e-20)
(0.010823207 -0.0063341067 1.6790228e-20)
(0.022642442 -0.0065120438 0)
(0.035177855 -0.0066300864 0)
(0.048369626 -0.0066909695 -2.2974939e-20)
(0.062138035 -0.0067025357 -1.6502865e-20)
(0.07641267 -0.00667417 1.9122583e-20)
(0.091134024 -0.0066126611 1.8174025e-20)
(0.10624712 -0.006523201 1.0524253e-21)
(0.12170016 -0.0064103531 -1.0317632e-20)
(0.13744484 -0.0062780761 8.3268736e-21)
(0.15343593 -0.0061297172 1.8233709e-20)
(0.16963069 -0.0059681398 -5.2274125e-21)
(0.18598846 -0.0057958292 -1.0174931e-20)
(0.20247049 -0.0056149566 -4.3195856e-21)
(0.21903974 -0.0054274309 -4.4257376e-21)
(0.23566079 -0.0052349444 7.3667181e-22)
(0.25229978 -0.0050390072 1.2286033e-21)
(0.26892437 -0.0048409744 2.5666291e-21)
(0.28550378 -0.0046420658 6.6539426e-21)
(0.30200881 -0.0044433806 2.4894492e-22)
(0.31841192 -0.0042459082 -3.4514681e-21)
(0.33468728 -0.0040505362 1.5558774e-22)
(0.35081082 -0.0038580561 -5.7709747e-22)
(0.36676027 -0.003669168 1.2434355e-21)
(0.38251523 -0.0034844842 1.0522432e-21)
(0.39805719 -0.0033045331 -1.2987917e-21)
(0.41336951 -0.003129763 -1.2218745e-22)
(0.42843747 -0.0029605458 3.5750666e-23)
(0.44324822 -0.0027971815 -3.5187548e-22)
(0.45779075 -0.0026399031 -4.0565331e-22)
(0.47205588 -0.002488882 5.5412513e-23)
(0.4860362 -0.0023442335 -1.3809012e-22)
(0.49972601 -0.0022060229 -2.2343133e-22)
(0.51312129 -0.0020742725 2.5571879e-22)
(0.5262197 -0.0019489678 2.9501915e-22)
(0.53902043 -0.0018300672 -8.2707997e-24)
(0.5515246 -0.0017175052 -1.5517299e-22)
(0.56373418 -0.0016112209 3.0406674e-23)
(0.57565574 -0.0015111138 -4.0144718e-23)
(0.58728948 -0.001417255 9.2203087e-23)
(0.59866439 -0.0013293082 2.1977481e-23)
(0.60973486 -0.0012485568 -1.1394377e-22)
(0.62069287 -0.0011717916 -6.7612376e-24)
(0.63106084 -0.0011112426 -7.2487004e-26)
(0.64234933 -0.0010339459 -3.5610083e-24)
(0.65042726 -0.001050803 2.9453768e-23)
(0.66700808 -0.00087555679 3.6050591e-22)
(0.010445863 -0.015017607 -1.2746813e-20)
(0.018179691 -0.01664101 -6.330233e-20)
(0.027779208 -0.017915411 -3.0541934e-20)
(0.038385136 -0.018672069 3.8476003e-20)
(0.049620976 -0.019183586 1.4662608e-20)
(0.061506617 -0.01952943 -1.8204925e-20)
(0.074012806 -0.019709862 4.6721996e-21)
(0.087062653 -0.019746489 2.5447185e-20)
(0.10059312 -0.019667278 9.1994664e-23)
(0.11455399 -0.019491697 -7.6591223e-21)
(0.12889715 -0.019234356 -1.3021015e-20)
(0.14357598 -0.018908308 -8.524527e-21)
(0.15854661 -0.018524969 1.777233e-20)
(0.17376751 -0.018093997 8.9295393e-21)
(0.18919894 -0.017623675 -1.6522434e-20)
(0.20480271 -0.017121227 -6.0390566e-21)
(0.22054208 -0.016592992 3.2145042e-21)
(0.23638168 -0.016044565 8.3716306e-21)
(0.25228746 -0.015480926 6.9832248e-21)
(0.26822665 -0.014906536 -6.9727131e-21)
(0.28416785 -0.014325408 -3.1685442e-21)
(0.30008101 -0.013741169 1.3605326e-21)
(0.31593756 -0.013157093 3.8682693e-22)
(0.33171043 -0.012576135 1.2113946e-21)
(0.34737418 -0.012000952 1.8368329e-22)
(0.362905 -0.011433918 -3.2661591e-22)
(0.37828084 -0.010877135 -7.2434812e-22)
(0.39348139 -0.010332447 9.7156473e-22)
(0.40848819 -0.0098014487 8.2482863e-22)
(0.42328457 -0.0092854954 -1.5147279e-22)
(0.43785571 -0.0087857157 5.5305999e-22)
(0.45218862 -0.0083030244 -2.3880899e-22)
(0.46627207 -0.0078381359 -3.7069821e-22)
(0.48009663 -0.0073915805 -6.0998999e-22)
(0.49365458 -0.0069637212 4.4171691e-22)
(0.50693988 -0.006554772 -1.5476424e-23)
(0.51994815 -0.0061648175 1.6124655e-22)
(0.53267662 -0.0057938326 -4.4174644e-22)
(0.54512405 -0.0054417108 3.7189353e-22)
(0.55729112 -0.0051082736 6.7175107e-23)
(0.5691793 -0.0047933562 -1.0285403e-22)
(0.58079469 -0.0044966748 1.7613593e-22)
(0.59213702 -0.0042184583 2.3339495e-22)
(0.60323456 -0.0039577169 1.6926347e-22)
(0.61404185 -0.0037182961 1.6767035e-22)
(0.62474802 -0.0034906405 -2.6097722e-23)
(0.63488187 -0.0033111992 8.4042503e-23)
(0.64593101 -0.0030818565 7.6290402e-23)
(0.65382941 -0.003132344 -1.9466325e-22)
(0.67009125 -0.0026124264 -3.8026666e-23)
(0.067614674 -0.024029142 9.4528287e-21)
(0.073589654 -0.026749044 3.295097e-21)
(0.082265489 -0.028805563 -1.2162199e-20)
(0.0919478 -0.029968498 -1.2257925e-21)
(0.10198319 -0.030767858 1.4970586e-20)
(0.11254631 -0.031330885 -1.4887121e-20)
(0.12367594 -0.031636063 -2.9842265e-20)
(0.13529679 -0.031712998 1.4493517e-20)
(0.14735692 -0.031607628 1.818196e-20)
(0.15982339 -0.031350047 -1.1598512e-20)
(0.17266056 -0.030961811 1.0190549e-21)
(0.18583077 -0.030462744 8.6860146e-21)
(0.19929779 -0.029870542 -1.5253535e-20)
(0.21302652 -0.02920023 2.9095104e-21)
(0.22698238 -0.028464751 7.5194321e-21)
(0.24113135 -0.027675495 3.1600066e-23)
(0.2554401 -0.026842548 2.6556509e-22)
(0.269876 -0.025974886 -7.4150823e-21)
(0.28440726 -0.025080554 3.8616795e-21)
(0.29900293 -0.024166809 8.4749009e-21)
(0.31363307 -0.023240223 -3.8351743e-21)
(0.32826885 -0.022306763 -2.2130357e-21)
(0.34288264 -0.021371845 1.0124438e-21)
(0.35744813 -0.020440376 -1.7155315e-21)
(0.37194041 -0.019516783 1.3532249e-21)
(0.38633611 -0.018605036 7.1845891e-22)
(0.40061341 -0.017708664 1.526837e-21)
(0.41475214 -0.016830773 -1.9526596e-21)
(0.42873382 -0.015974058 2.2235655e-21)
(0.44254166 -0.015140822 5.5188474e-22)
(0.45616063 -0.014332994 4.0322429e-22)
(0.46957738 -0.013552147 3.213445e-22)
(0.48278028 -0.012799528 8.7324824e-22)
(0.49575939 -0.012076072 -1.3708576e-21)
(0.5085064 -0.011382443 3.706547e-22)
(0.52101462 -0.010719053 1.0941196e-22)
(0.53327895 -0.010086102 -4.5171939e-23)
(0.54529585 -0.0094836053 8.6733074e-23)
(0.55706328 -0.0089114435 -3.7184849e-22)
(0.56858105 -0.0083693761 1.8293415e-22)
(0.57984977 -0.007857184 -3.498705e-23)
(0.59087457 -0.007374449 3.900394e-22)
(0.60165439 -0.0069216003 -1.8544305e-22)
(0.6122161 -0.0064970494 4.7323249e-23)
(0.62251457 -0.006107185 4.3603141e-23)
(0.63273354 -0.0057363196 -7.3598709e-23)
(0.64241392 -0.0054443934 -1.2082305e-22)
(0.6529994 -0.0050704862 3.8808713e-22)
(0.66054942 -0.0051542297 1.7270388e-22)
(0.67619299 -0.0043069949 -8.303955e-22)
(0.15021526 -0.031460423 1.5010107e-21)
(0.15354687 -0.035257388 -1.1566605e-20)
(0.1606162 -0.038010912 6.6441889e-21)
(0.16880588 -0.03947909 -1.3324737e-20)
(0.17698221 -0.040520681 -1.9758308e-21)
(0.18552343 -0.041302271 9.1599365e-21)
(0.19458416 -0.041757227 -9.7662093e-21)
(0.20408688 -0.0419137 1.5662798e-21)
(0.21398764 -0.04183332 1.2903795e-20)
(0.22427595 -0.041554325 3.4031974e-21)
(0.2349325 -0.041102034 -6.209694e-21)
(0.24593017 -0.040500438 -2.8638075e-21)
(0.25724154 -0.039771737 -5.8409059e-21)
(0.26883907 -0.038935044 -6.4553107e-21)
(0.28069418 -0.038006964 3.235693e-21)
(0.29277757 -0.037002291 8.4621206e-22)
(0.30505969 -0.035934314 1.3679569e-21)
(0.31751093 -0.03481501 -3.3850407e-21)
(0.33010189 -0.033655237 -4.2428834e-21)
(0.34280356 -0.032464884 2.3616495e-21)
(0.35558749 -0.031252985 3.2251335e-21)
(0.36842605 -0.030027804 -1.563618e-21)
(0.38129252 -0.028796889 1.5867257e-21)
(0.39416125 -0.02756712 -3.9123933e-22)
(0.40700782 -0.026344731 -3.9196375e-21)
(0.41980914 -0.02513534 -3.03328e-21)
(0.43254353 -0.023943964 -1.9026234e-22)
(0.44519079 -0.022775036 4.2858955e-22)
(0.45773227 -0.021632428 -2.210602e-21)
(0.47015088 -0.020519464 -8.549701e-22)
(0.48243116 -0.019438952 2.2837643e-22)
(0.49455923 -0.018393207 -1.2498665e-21)
(0.50652281 -0.017384084 6.2633863e-24)
(0.51831121 -0.016413012 -4.2420781e-22)
(0.52991526 -0.015481033 -4.7193572e-22)
(0.54132738 -0.014588845 -5.1995503e-22)
(0.55254144 -0.013736842 -8.4132823e-22)
(0.56355287 -0.012925164 -5.4496483e-23)
(0.5743585 -0.012153758 -3.9160385e-24)
(0.58495697 -0.011422401 -5.1972131e-22)
(0.59534771 -0.010730897 -9.1607298e-23)
(0.60553456 -0.01007877 -3.3239194e-22)
(0.61551536 -0.0094667103 -4.3759638e-22)
(0.62531509 -0.0088926216 3.784148e-22)
(0.63488914 -0.008365388 1.4820878e-23)
(0.64441357 -0.0078635641 1.8237422e-22)
(0.6534468 -0.0074693213 -1.3246509e-22)
(0.66336936 -0.0069629314 -2.6690782e-22)
(0.67042142 -0.0070791291 -4.4693519e-23)
(0.68517826 -0.0059326612 4.6229396e-22)
(0.25468562 -0.036552746 -2.0900304e-20)
(0.25447016 -0.041393496 4.7585929e-20)
(0.25907328 -0.044745643 1.034809e-20)
(0.26508407 -0.046442027 -1.5765319e-20)
(0.27070926 -0.047714299 -2.0227884e-21)
(0.27651988 -0.048747759 2.6232322e-21)
(0.28283542 -0.0494137 -1.6608166e-21)
(0.28957682 -0.049728081 -4.68614e-21)
(0.29669649 -0.049761411 -4.0159152e-21)
(0.30420538 -0.049557033 -1.2207635e-20)
(0.31210208 -0.049141667 1.7897747e-20)
(0.32036927 -0.048540782 6.5219867e-21)
(0.32898689 -0.047778945 -1.6780519e-20)
(0.33793391 -0.046877998 1.0317572e-20)
(0.34718695 -0.04585728 8.3849902e-21)
(0.35672062 -0.044734292 -8.7923811e-22)
(0.36650831 -0.043525046 -3.1222231e-21)
(0.37652275 -0.042244227 -3.8197288e-21)
(0.38673626 -0.040905338 -1.3892567e-21)
(0.39712115 -0.039520831 -1.2304181e-21)
(0.40764993 -0.0381022 -3.0257582e-21)
(0.41829562 -0.036660047 0)
(0.42903196 -0.035204132 -1.34519e-21)
(0.43983355 -0.0337434 3.930949e-21)
(0.45067606 -0.032286005 5.4052626e-21)
(0.4615363 -0.030839332 -9.4112525e-22)
(0.47239239 -0.029410005 -2.9274402e-21)
(0.48322378 -0.028003912 3.0258342e-21)
(0.49401137 -0.02662622 2.544755e-22)
(0.5047375 -0.025281403 3.4352405e-21)
(0.51538601 -0.023973265 -5.3459713e-22)
(0.52594223 -0.022704982 1.7173444e-21)
(0.536393 -0.021479137 -7.9964203e-22)
(0.54672663 -0.020297764 2.9094011e-22)
(0.55693293 -0.019162401 -4.3403795e-22)
(0.56700315 -0.018074136 5.6231517e-22)
(0.57692997 -0.01703367 4.5709715e-22)
(0.58670754 -0.016041372 3.8255442e-22)
(0.59633139 -0.015097358 -9.5935806e-22)
(0.60579878 -0.014201523 6.8355118e-22)
(0.61510776 -0.013353789 -3.6957182e-22)
(0.62426067 -0.012553717 -1.1033119e-21)
(0.63325408 -0.011802336 1.4078073e-21)
(0.64211072 -0.011097154 -6.200543e-23)
(0.65078676 -0.010449475 -1.5815841e-22)
(0.65944869 -0.0098325994 -7.8243699e-24)
(0.66767717 -0.0093492127 -1.2621362e-22)
(0.67677298 -0.0087261706 -4.6581882e-22)
(0.68320482 -0.008873606 8.7882953e-22)
(0.69685019 -0.0074648592 -4.4315496e-23)
(0.37635124 -0.038368151 -1.7495094e-20)
(0.37170971 -0.044270212 1.2832041e-20)
(0.37286684 -0.048161595 2.975455e-21)
(0.37591039 -0.050098832 -7.6353773e-21)
(0.3783052 -0.051669952 1.2055986e-20)
(0.38072287 -0.053042353 7.79141e-21)
(0.38367594 -0.054030018 -1.2647685e-20)
(0.3871005 -0.05463308 -6.0679741e-21)
(0.39092916 -0.054917981 1.2697336e-20)
(0.39518235 -0.05492711 -1.5304967e-20)
(0.39987416 -0.05468749 -1.4063187e-20)
(0.40499498 -0.054224627 1.4129627e-20)
(0.41052852 -0.053563634 6.8193816e-21)
(0.41645708 -0.052727922 -4.203763e-21)
(0.42276004 -0.051738989 -1.8545612e-21)
(0.42941392 -0.050616722 -4.0581713e-21)
(0.43639336 -0.049379674 5.3047593e-21)
(0.44367184 -0.048045199 3.6682079e-21)
(0.45122212 -0.04662952 -3.240829e-21)
(0.45901666 -0.045147786 3.1379479e-21)
(0.46702794 -0.04361413 2.7666788e-21)
(0.47522877 -0.042041697 -3.2111117e-21)
(0.48359253 -0.040442671 3.7056552e-22)
(0.4920934 -0.038828286 -3.2571635e-21)
(0.50070648 -0.037208834 7.2454092e-21)
(0.50940797 -0.035593675 6.1080561e-21)
(0.51817526 -0.033991248 8.0973064e-22)
(0.52698705 -0.03240909 -1.768322e-21)
(0.53582335 -0.03085385 3.7021731e-21)
(0.5446656 -0.029331323 7.1885117e-21)
(0.55349664 -0.027846483 2.304929e-21)
(0.56230074 -0.026403522 3.3164824e-21)
(0.57106362 -0.025005904 1.9956185e-21)
(0.57977241 -0.023656413 7.4557813e-22)
(0.58841566 -0.022357217 -2.6374533e-22)
(0.59698334 -0.021109931 2.7203071e-21)
(0.6054668 -0.019915689 6.1992056e-22)
(0.61385879 -0.018775207 2.9487709e-22)
(0.62215341 -0.017688891 5.6232364e-23)
(0.63034649 -0.016656864 9.8966205e-22)
(0.63843459 -0.015679274 4.701998e-23)
(0.64641847 -0.014755819 4.4247237e-22)
(0.65429341 -0.013887951 -1.2621746e-22)
(0.66207965 -0.013072906 -2.7734666e-22)
(0.66973449 -0.012324308 -1.5218533e-22)
(0.67741335 -0.011610791 -4.2207567e-22)
(0.68472314 -0.01105349 1.61391e-22)
(0.69287132 -0.010332281 -1.2723496e-22)
(0.69859414 -0.010509377 -5.012642e-22)
(0.71095647 -0.0088817042 2.4586838e-22)
(0.50927423 -0.035974259 3.6471484e-21)
(0.49953032 -0.042960638 -1.8958302e-20)
(0.49627548 -0.047383434 -2.3083834e-21)
(0.49555583 -0.049736738 5.4869594e-21)
(0.49416943 -0.051818001 3.0528051e-21)
(0.49269563 -0.053705365 -4.9886416e-23)
(0.49181218 -0.055187601 6.1896655e-21)
(0.49151439 -0.056265349 7.6250988e-21)
(0.49171154 -0.056990481 9.8580399e-21)
(0.49241059 -0.05739552 -1.1250038e-20)
(0.49363091 -0.057506246 -2.1579413e-20)
(0.49536764 -0.05734836 -3.9353445e-21)
(0.49760453 -0.056947071 1.5938137e-20)
(0.50032287 -0.056326948 1.2808953e-20)
(0.5035015 -0.05551167 -5.9066937e-21)
(0.50711636 -0.054523781 1.3817052e-21)
(0.51114123 -0.053384717 -3.6600817e-21)
(0.51554858 -0.05211487 2.2443728e-21)
(0.52031011 -0.050733577 -2.9123012e-22)
(0.52539716 -0.049259093 -1.8654088e-21)
(0.53078107 -0.047708587 7.8265846e-21)
(0.53643345 -0.046098135 -2.9308739e-22)
(0.54232651 -0.044442712 4.1818072e-22)
(0.54843319 -0.042756185 -6.5646665e-22)
(0.5547274 -0.041051303 -4.3029357e-21)
(0.56118409 -0.039339707 4.2085133e-21)
(0.56777943 -0.037631926 1.903121e-21)
(0.57449085 -0.0359374 -3.3081896e-21)
(0.58129711 -0.034264503 -4.111641e-21)