/*--------------------------------*- C++ -*----------------------------------*\
  =========                 |
  \\      /  F ield         | OpenFOAM: The Open Source CFD Toolbox
   \\    /   O peration     | Website:  https://openfoam.org
    \\  /    A nd           | Version:  6
     \\/     M anipulation  |
\*---------------------------------------------------------------------------*/
FoamFile
{
    version     2.0;
    format      ascii;
    class       surfaceScalarField;
    location    "187";
    object      phi;
}
// * * * * * * * * * * * * * * * * * * * * * * * * * * * * * * * * * * * * * //

dimensions      [0 3 -1 0 0 0 0];

internalField   nonuniform List<scalar> 
18180
(
0.00031872921
-0.00016316004
-0.00015556917
0.0013092108
-0.0013669159
0.00037643431
0.0030328871
-0.00333362
0.0016099437
0.0055497726
-0.0059759593
0.0034590738
0.0089181955
-0.00923908
0.0058706571
0.01319281
-0.01307953
0.0088049154
0.018421938
-0.017459842
0.012230714
0.0246446
-0.022345801
0.016123139
0.031887363
-0.027703318
0.020460554
0.040161272
-0.033495809
0.0252219
0.049459157
-0.039682442
0.030384557
0.059753709
-0.046217212
0.03592266
0.070996717
-0.053048853
0.041805845
0.08311992
-0.060121588
0.047998385
0.096038093
-0.067376842
0.05445867
0.10965488
-0.074756003
0.061139217
0.12387081
-0.082204095
0.067988163
0.13859854
-0.089674079
0.074946351
0.15383664
-0.097148825
0.081910728
-0.10462596
0.088678882
0.16978371
0.00039749701
-0.00056065705
0.0016095945
-0.0025790134
0.0036893174
-0.0054133429
0.0066874424
-0.0089740843
0.01065065
-0.013202288
0.015617867
-0.018046746
0.021616255
-0.02345823
0.028657252
-0.029386798
0.036732937
-0.035779003
0.045813136
-0.042576007
0.055843678
-0.049712984
0.066746192
-0.057119726
0.078419648
-0.064722309
0.090743763
-0.072445703
0.10358405
-0.080217127
0.11679789
-0.087969849
0.13024076
-0.095646964
0.14377296
-0.10320628
0.15725856
-0.11063442
-0.11786189
0.17049449
0.00048062336
-0.0010412804
0.0019186979
-0.0040170879
0.0043524781
-0.0078471231
0.007816562
-0.012438168
0.012337662
-0.017723388
0.017929204
-0.023638288
0.024586244
-0.03011527
0.032281204
-0.037081758
0.040960833
-0.044458633
0.050544913
-0.052160087
0.060927058
-0.06009513
0.071977794
-0.068170463
0.083549786
-0.0762943
0.095484798
-0.084380716
0.10762168
-0.092354004
0.11980425
-0.10015242
0.13188799
-0.10773071
0.14374347
-0.11506176
0.1552487
-0.12213965
-0.12891428
0.16630109
0.0005661696
-0.00160745
0.0022279421
-0.0056788604
0.0050006104
-0.010619791
0.0088940092
-0.016331567
0.013905255
-0.022734634
0.020011878
-0.029744911
0.027166483
-0.037269875
0.035293411
-0.045208686
0.044287851
-0.053453072
0.05401777
-0.061890006
0.064328712
-0.070406072
0.075051123
-0.078892874
0.086009516
-0.087252693
0.097032491
-0.09540369
0.10796246
-0.10328397
0.11866395
-0.11085392
0.12902965
-0.1180964
0.13898297
-0.12501508
0.14847491
-0.13163159
-0.13794519
0.15750582
0.00065088617
-0.0022583362
0.0025243413
-0.0075523156
0.0056036338
-0.013699084
0.0098644637
-0.020592397
0.015264609
-0.02813478
0.021736408
-0.036216709
0.029182478
-0.044715946
0.03747489
-0.053501098
0.046457998
-0.062436179
0.055954833
-0.07138684
0.065776427
-0.080227666
0.075733008
-0.088849455
0.085645713
-0.097165399
0.095357392
-0.10511537
0.10474121
-0.11266779
0.11370619
-0.1198189
0.12219937
-0.12658958
0.13020456
-0.13302028
0.137738
-0.13916503
-0.14506757
0.14486038
0.00073063576
-0.0029889719
0.002792086
-0.0096137658
0.0061265737
-0.017033572
0.010666711
-0.025132534
0.016322649
-0.033790718
0.022975241
-0.042869302
0.030474426
-0.052215131
0.038642395
-0.061669066
0.047281184
-0.071074969
0.056183729
-0.080289385
0.065146882
-0.089190819
0.073984595
-0.097687168
0.082539479
-0.10572028
0.090691297
-0.11326719
0.098361452
-0.12033794
0.1055133
-0.12697075
0.11214879
-0.13322507
0.1183024
-0.13917389
0.12403362
-0.14489625
-0.1504633
0.12942935
0.00080073113
-0.0037897031
0.0030139158
-0.01182695
0.0065328937
-0.02055255
0.011240051
-0.029839691
0.016992696
-0.039543362
0.023618543
-0.049495149
0.030918213
-0.059514801
0.038673315
-0.069424169
0.04665877
-0.079060423
0.054657394
-0.08828801
0.062474456
-0.09700788
0.069949953
-0.10516266
0.076966962
-0.11273729
0.0834551
-0.11975533
0.089389111
-0.12627195
0.094783316
-0.13236495
0.099683307
-0.13812506
0.1041565
-0.14364708
0.10828311
-0.14902286
-0.15433356
0.11215338
0.00085605864
-0.0046457617
0.0031720604
-0.014142952
0.0067872252
-0.024167714
0.011529801
-0.034582267
0.017203432
-0.045216994
0.023586547
-0.055878263
0.030439873
-0.066368127
0.037519326
-0.076503622
0.044591797
-0.086132894
0.051451002
-0.095147215
0.057930631
-0.10348751
0.063912776
-0.11114481
0.069330645
-0.11815516
0.074165694
-0.12459037
0.078440257
-0.13054651
0.082207338
-0.13613203
0.085539504
-0.14145723
0.088518563
-0.14662614
0.09122736
-0.15173166
-0.15685205
0.093745845
0.00089026231
-0.005536024
0.003248283
-0.016500973
0.0068576216
-0.027777053
0.011492463
-0.039217109
0.016906808
-0.050631338
0.022838894
-0.061810349
0.029023668
-0.072552902
0.035209249
-0.082689203
0.041173928
-0.092097572
0.046740396
-0.10071368
0.051784656
-0.10853177
0.056238408
-0.11559856
0.06008514
-0.12200189
0.063351248
-0.12785648
0.066094215
-0.13328948
0.068390057
-0.13842787
0.070321925
-0.1433891
0.071971238
-0.14827546
0.073411927
-0.15317235
-0.1581477
0.07470758
0.00089981819
-0.0064358422
0.0032333803
-0.018834535
0.0067291635
-0.031272836
0.011111176
-0.043599121
0.016092484
-0.055612647
0.021384622
-0.067102486
0.026713884
-0.077882164
0.031839116
-0.087814435
0.036567086
-0.096825542
0.040762272
-0.10490887
0.044349475
-0.11211897
0.04730935
-0.11855844
0.049668406
-0.12436095
0.051485815
-0.12967389
0.052839525
-0.13464319
0.05381382
-0.13940217
0.05448971
-0.14406499
0.054938819
-0.14872456
0.055220546
-0.15345408
0.05538098
-0.15830813
-0.00020237824
0.00020237824
6.7841519e-13
-0.00067774636
0.00047536812
-1.617213e-13
-0.0013424256
0.00066467919
1.6385295e-12
-0.0021322938
0.00078986822
4.5270764e-12
-0.0029957726
0.00086347879
6.842778e-12
-0.0038907396
0.00089496704
8.287941e-12
-0.004782295
0.00089155533
8.8904521e-12
-0.005640892
0.00085859702
8.833115e-12
-0.0064408669
0.0007999749
8.1781003e-12
-0.0071592878
0.00071842085
7.08934e-12
-0.0077750361
0.00061574838
5.5912545e-12
-0.0082680718
0.0004930357
3.8006007e-12
-0.0086188532
0.00035078137
1.7067663e-12
-0.0088079038
0.0001890506
-6.1496631e-13
-0.0088155571
7.6533397e-06
-3.1736527e-12
-0.0086219806
-0.00019357658
-5.9278297e-12
-0.0082074389
-0.00041454164
-8.8979028e-12
-0.0075518894
-0.00065554953
-1.2022003e-11
-0.0066345757
-0.00091731367
-1.5315387e-11
-0.0011862305
-0.0054483452
-1.8695255e-11
-0.00018797446
0.00039035269
-0.000625007
0.00091240067
-0.0012287532
0.0012684254
-0.0019351945
0.0014963095
-0.0026921392
0.0016204235
-0.0034562841
0.0016591119
-0.0041910672
0.0016263385
-0.004864859
0.0015323888
-0.0054495242
0.0013846401
-0.0059192871
0.0011881838
-0.006249816
0.00094627719
-0.006417481
0.00066070069
-0.0063987498
0.00033205019
-0.0061697083
-3.9990873e-05
-0.0057057356
-0.00045631932
-0.0049814238
-0.00091788839
-0.0039707938
-0.0014251717
-0.002647216
-0.0019791273
-0.00098326069
-0.002581269
-0.0032017809
0.0010322897
-0.00015892785
0.00054928054
-0.00051889143
0.0012723642
-0.00100077
0.001750304
-0.0015412594
0.0020367989
-0.0020873499
0.002166514
-0.0025937353
0.0021654973
-0.0030208684
0.0020534716
-0.0033332939
0.0018448143
-0.0034983026
0.0015496488
-0.0034848554
0.0011747366
-0.0032626996
0.00072412138
-0.0028016488
0.00019964992
-0.0020709495
-0.00039864912
-0.0010387669
-0.0010721735
0.00032824423
-0.0018233304
0.0020652162
-0.0026548604
0.0042090281
-0.0035689836
0.0067979996
-0.0045680988
0.0098718221
-0.0056550915
-0.0067797349
0.013449776
-0.00011756695
0.00066684749
-0.00036699852
0.0015217958
-0.0006735136
0.002056819
-0.00097482559
0.0023381109
-0.001216854
0.0024085424
-0.0013515942
0.0023002375
-0.00133546
0.0020373374
-0.001127829
0.0016371833
-0.000689846
0.0011116658
1.6529202e-05
0.00046836139
0.0010293058
-0.00028865524
0.0023871091
-0.0011581534
0.0041297255
-0.0021412656
0.0062985843
-0.0032410323
0.0089372637
-0.0044620098
0.012092047
-0.005809644
0.015812299
-0.0072892353
0.020150162
-0.0089059619
0.025160347
-0.010665277
-0.012492612
0.030873224
-6.6907633e-05
0.00073375512
-0.0001791665
0.0016340547
-0.00026653381
0.0021441864
-0.0002676915
0.0023392686
-0.00012719436
0.0022680453
0.00020616669
0.0019668765
0.00078069317
0.001462811
0.0016429485
0.00077492796
0.0028387276
-8.4113358e-05
0.0044138429
-0.0011067539
0.0064146877
-0.0022895001
0.0088886528
-0.0036321184
0.011884451
-0.0051370642
0.01545245
-0.0068090305
0.01964504
-0.0086546
0.024517261
-0.010681865
0.030127677
-0.012899651
0.036538886
-0.01531717
0.043818284
-0.017944675
-0.020682529
0.052008202
-9.9846257e-06
0.00074373975
3.4534972e-05
0.0015895351
0.00019989015
0.0019788312
0.00054676567
0.0019923931
0.001132247
0.001682564
0.0020109808
0.0010881426
0.0032361394
0.0002376524
0.0048603032
-0.00084923588
0.0069361189
-0.002159929
0.0095166732
-0.0036873082
0.012655702
-0.0054285286
0.016407693
-0.0073841099
0.020827817
-0.0095571876
0.025971759
-0.011952973
0.03189563
-0.01457847
0.038656256
-0.017442491
0.04631237
-0.020555765
0.054926671
-0.023931472
0.064569655
-0.027587659
-0.031405582
0.075292708
5.0751296e-05
0.00069298845
0.0002656577
0.0013746287
0.00070825421
0.0015362347
0.00143903
0.0012616173
0.0025168197
0.00060477427
0.0039995654
-0.00039460307
0.0059449129
-0.0017076951
0.0084106008
-0.0033149238
0.011454591
-0.005203919
0.015135037
-0.007367754
0.019510016
-0.009803508
0.024637003
-0.012511097
0.030572133
-0.015492318
0.037369304
-0.018750145
0.045079245
-0.022288411
0.053748966
-0.026112212
0.063422578
-0.030229378
0.074144681
-0.034653575
0.085969308
-0.039412286
-0.044388488
0.098952214
0.00011379628
0.00057919218
0.0005085033
0.00097992166
0.0012459821
0.00079875591
0.0023867771
0.00012082228
0.0039912399
-0.00099968858
0.0061198745
-0.0025232376
0.0088333175
-0.0044211381
0.012192162
-0.0066737684
0.016256553
-0.0092683096
0.021085439
-0.012196641
0.026735539
-0.015453608
0.033260013
-0.01903557
0.040706872
-0.022939177
0.049117177
-0.02716045
0.058523137
-0.03169437
0.068946486
-0.036535562
0.080398303
-0.041681195
0.092882128
-0.047137399
0.10640546
-0.052935621
-0.058995654
0.12101263
0.00017849578
0.00040069639
0.00076002975
0.0003983877
0.0018053386
-0.0002465529
0.003374713
-0.0014485522
0.0055289943
-0.0031539699
0.0083293176
-0.0053235609
0.011836487
-0.007928308
0.016110055
-0.010947336
0.021207038
-0.014365293
0.027180298
-0.0181699
0.034076611
-0.022349921
0.041934469
-0.026893429
0.05078165
-0.031786358
0.060632581
-0.03701138
0.071485485
-0.042547274
0.083319374
-0.048369451
0.096091843
-0.054453663
0.10974041
-0.060785963
0.12419598
-0.067391195
-0.074274602
0.13947493
0.00024512722
0.0010199492
0.00238334
0.0043938616
0.0071105488
0.010591903
0.014894309
0.020070112
0.026165374
0.033217374
0.041252009
0.050281241
0.060300727
0.071287732
0.083199128
0.095968895
0.10950339
0.12366378
0.13818332
0.1525876
-0.0035077199
-0.0019406253
-3.0455996e-11
-0.001285935
-0.0022217848
-3.6926735e-11
0.0011946741
-0.0024806091
-4.3167157e-11
0.0038772083
-0.0026825342
-4.9423771e-11
0.0067348641
-0.0028576557
-5.4605594e-11
0.0097503353
-0.0030154711
-6.0082645e-11
0.012904687
-0.003154352
-6.427871e-11
0.016179898
-0.0032752102
-6.7621777e-11
0.019560265
-0.003380367
-6.9628985e-11
0.02303157
-0.0034713049
-6.996393e-11
0.026580526
-0.0035489563
-6.8458887e-11
0.030194709
-0.0036141828
-6.4864876e-11
0.033862475
-0.0036677662
-5.9062355e-11
0.037572828
-0.0037103532
-5.0927292e-11
0.041315317
-0.0037424888
-4.0515682e-11
0.04507997
-0.0037646523
-2.7963839e-11
0.048857245
-0.0037772751
-1.359613e-11
0.052637999
-0.0037807539
2.1453129e-12
0.056413464
-0.003775465
1.8653944e-11
0.06017524
-0.0037617764
3.5193639e-11
0.063915296
-0.0037400558
5.0931506e-11
0.067625973
-0.0037106775
6.4949863e-11
0.071299999
-0.003674026
7.6371735e-11
0.074930497
-0.0036304983
8.4325931e-11
0.078511001
-0.0035805035
8.8170918e-11
0.082035464
-0.0035244628
8.7362451e-11
0.08549827
-0.0034628062
8.1791614e-11
0.08889424
-0.0033959701
7.1477797e-11
0.092218633
-0.0033243936
5.7037479e-11
0.095467148
-0.0032485148
3.9124196e-11
0.098635916
-0.003168768
1.903746e-11
0.10172149
-0.0030855791
-2.111245e-12
0.10472086
-0.002999364
-2.2659014e-11
0.10763138
-0.0029105259
-4.1381269e-11
0.11045084
-0.0028194542
-5.6724251e-11
0.11317736
-0.0027265245
-6.7622006e-11
0.11580946
-0.0026320993
-7.2997988e-11
0.11834599
-0.0025365308
-7.175807e-11
0.12078616
-0.0024401678
-6.3470265e-11
0.12312952
-0.0023433568
-4.7129886e-11
0.125376
-0.0022464835
-2.3582536e-11
0.1275259
-0.0021498993
6.453479e-12
0.12958019
-0.0020542937
4.0808858e-11
0.13153985
-0.0019596552
7.5364259e-11
0.13340895
-0.0018691046
1.0375434e-10
0.13518602
-0.0017770632
1.1747435e-10
0.13689549
-0.0017094693
1.0778799e-10
0.13849322
-0.0015977316
7.2910077e-11
0.14018003
-0.0016868069
3.6306753e-12
-0.0013310109
-8.9030819e-11
0.0028529021
-0.0037612376
0.0049500452
-0.004318928
0.0072929004
-0.0048234643
0.0098190257
-0.0052086595
0.01250736
-0.0055459898
0.015345577
-0.0058536888
0.018316938
-0.006125712
0.021405033
-0.0063633062
0.024595846
-0.0065711798
0.027876614
-0.0067520721
0.031235203
-0.006907546
0.034660134
-0.0070391138
0.038140549
-0.0071481815
0.041666103
-0.0072359064
0.045226876
-0.0073032619
0.048813335
-0.007351112
0.052416302
-0.0073802422
0.056026932
-0.0073913834
0.059636704
-0.0073852372
0.063237426
-0.0073624978
0.066821236
-0.0073238665
0.070380622
-0.0072700633
0.073908429
-0.0072018331
0.07739788
-0.0071199488
0.080842588
-0.0070252113
0.084236571
-0.006918446
0.087574263
-0.0068004985
0.090850521
-0.0066722281
0.094060628
-0.0065345009
0.097200295
-0.0063881817
0.10026566
-0.0062341282
0.10325326
-0.0060731829
0.10616006
-0.0059061685
0.10898342
-0.0057338837
0.11172107
-0.0055571001
0.11437111
-0.0053765624
0.116932
-0.0051929908
0.11940255
-0.0050070849
0.12178192
-0.0048195394
0.12406961
-0.0046310435
0.12626549
-0.0044423681
0.12836981
-0.0042542136
0.13038347
-0.0040679567
0.13230739
-0.0038835788
0.13414558
-0.0037072884
0.13589654
-0.0035280279
0.13758427
-0.0033971969
0.13916566
-0.003179121
0.14083632
-0.0033574666
-0.0026595676
0.015021109
-0.0053325709
0.016852206
-0.0061500243
0.018905738
-0.006876997
0.021111779
-0.0074147004
0.023458694
-0.0078929045
0.02594283
-0.0083378244
0.028551568
-0.0087344503
0.031271429
-0.0090831669
0.034091311
-0.0093910625
0.037000986
-0.0096617467
0.039990332
-0.0098968918
0.043049488
-0.01009827
0.046168931
-0.010267624
0.049339404
-0.01040638
0.052551878
-0.010515736
0.055797542
-0.010596776
0.059067805
-0.010650505
0.062354306
-0.010677884
0.065648921
-0.010679852
0.068943785
-0.010657362
0.072231311
-0.010611392
0.07550421
-0.010542963
0.078755519
-0.010453141
0.081978614
-0.010343044
0.085167238
-0.010213835
0.088315513
-0.010066721
0.091417953
-0.0099029389
0.094469477
-0.009723752
0.09746541
-0.0095304333
0.10040149
-0.0093242585
0.10327385
-0.0091064914
0.10607904
-0.0088783767
0.10881401
-0.0086411306
0.11147606
-0.0083959344
0.11406289
-0.0081439314
0.11657255
-0.0078862259
0.11900345
-0.0076238873
0.12135432
-0.0073579563
0.12362425
-0.0070894676
0.12581265
-0.0068194504
0.12791934
-0.0065490569
0.12994447
-0.0062793366
0.13188886
-0.0060123468
0.13375335
-0.0057480771
0.13554181
-0.005495741
0.13725283
-0.0052390473
0.13890943
-0.0050537984
0.14047084
-0.0047405358
0.14212206
-0.0050086871
-0.0039963617
0.032056511
-0.0065158582
0.033471704
-0.0075652172
0.035077203
-0.0084824961
0.036800032
-0.0091375291
0.038640876
-0.0097337486
0.040606032
-0.010302981
0.04268833
-0.010816748
0.044878245
-0.011273082
0.047168202
-0.011681019
0.049550972
-0.012044517
0.052018847
-0.012364768
0.054563873
-0.012643296
0.057178036
-0.012881788
0.059853296
-0.013081639
0.062581589
-0.013244029
0.065354872
-0.013370058
0.068165162
-0.013460796
0.071004584
-0.013517305
0.073865402
-0.013540671
0.076740067
-0.013532027
0.079621245
-0.01349257
0.082501856
-0.013423574
0.085375105
-0.01332639
0.08823451
-0.013202449
0.091073926
-0.013053252
0.093887566
-0.012880361
0.096670015
-0.012685388
0.099416244
-0.012469981
0.10212161
-0.012235803
0.10478188
-0.011984523
0.10739319
-0.0117178
0.10995207
-0.011437264
0.11245546
-0.011144513
0.11490062
-0.010841101
0.11728522
-0.01052853
0.11960725
-0.010208256
0.12186505
-0.0098816909
0.12405731
-0.00955021
0.12618302
-0.0092151831
0.12824155
-0.008877977
0.13023262
-0.0085401227
0.1321563
-0.0082030195
0.13401335
-0.0078693971
0.13580455
-0.0075392776
0.13753357
-0.0072247562
0.13919919
-0.0069046752
0.14082307
-0.0066776771
0.14236791
-0.0062853711
0.14400342
-0.0066441982
-0.0053572871
0.05264849
-0.0071561462
0.053489071
-0.0084057979
0.054483178
-0.009476604
0.055565126
-0.010219477
0.05674973
-0.010918353
0.058051284
-0.011604535
0.059468299
-0.012233763
0.060995908
-0.01280069
0.062629898
-0.01331501
0.064365674
-0.013780292
0.066197713
-0.014196807
0.068119747
-0.014565329
0.07012501
-0.014887051
0.072206401
-0.015163031
0.074356573
-0.015394201
0.076568013
-0.015581498
0.078833128
-0.015725911
0.081144325
-0.015828502
0.083494074
-0.015890421
0.085874973
-0.015912926
0.088279796
-0.015897392
0.090701539
-0.015845318
0.093133465
-0.015758316
0.09556913
-0.015638115
0.098002421
-0.015486543
0.10042757
-0.015305509
0.10283918
-0.015096994
0.10523221
-0.014863019
0.10760205
-0.014605638
0.10994443
-0.014326906
0.1122555
-0.014028867
0.11453177
-0.013713536
0.11677015
-0.013382887
0.11896788
-0.013038837
0.1211226
-0.012683248
0.12323227
-0.012317925
0.12529519
-0.011944614
0.12731001
-0.011565025
0.12927569
-0.011180865
0.13119155
-0.010793835
0.13305727
-0.010405848
0.13487291
-0.010018655
0.13663916
-0.0096356511
0.1383568
-0.0092569214
0.14002934
-0.0088972884
0.14165585
-0.0085311913
0.14325632
-0.0082781397
0.14479786
-0.007826913
0.14643129
-0.0082776309
-0.0067655827
0.075221685
-0.0070851234
0.075326637
-0.0085107503
0.075550996
-0.0097009627
0.075851277
-0.010519757
0.076255515
-0.011322591
0.076780562
-0.012129583
0.077429455
-0.012882656
0.078202123
-0.013573358
0.079096875
-0.014209761
0.080110561
-0.014793979
0.081238939
-0.015325185
0.082476713
-0.015803103
0.083817698
-0.016228036
0.085255114
-0.016600447
0.086781785
-0.016920872
0.088390258
-0.017189971
0.090072914
-0.017408568
0.091822076
-0.017577663
0.093630099
-0.017698443
0.095489445
-0.017772272
0.097392748
-0.017800696
0.099332866
-0.017785436
0.10130293
-0.01772838
0.10329638
-0.017631561
0.10530698
-0.01749715
0.10732889
-0.017327416
0.10935662
-0.01712472
0.11138507
-0.016891474
0.11340956
-0.01663013
0.1154258
-0.016343142
0.11742988
-0.01603295
0.11941831
-0.015701963
0.12138796
-0.015352535
0.12333608
-0.014986959
0.12526029
-0.01460746
0.12715856
-0.014216193
0.1290292
-0.013815253
0.13087086
-0.013406686
0.13268253
-0.012992539
0.13446356
-0.012574859
0.13621365
-0.012155942
0.1379329
-0.011737903
0.13962204
-0.011324789
0.14128191
-0.010916792
0.1429159
-0.010531283
0.14452354
-0.010138827
0.14612293
-0.0098775311
0.14768637
-0.0093903498
0.1493433
-0.0099345681
-0.0082533618
0.098025214
-0.0061581228
0.097257934
-0.0077434704
0.096581636
-0.0090246648
0.095997192
-0.009935313
0.095540729
-0.010866128
0.095223481
-0.011812334
0.095050813
-0.012709988
0.09502673
-0.013549275
0.095150763
-0.014333795
0.095419648
-0.015062863
0.095829024
-0.015734561
0.096373482
-0.01634756
0.097046536
-0.01690109
0.097840953
-0.017394865
0.098749051
-0.01782897
0.099762857
-0.018203777
0.10087423
-0.018519946
0.102075
-0.01877843
0.10335703
-0.01898047
0.10471233
-0.019127569
0.10613311
-0.019221479
0.10761186
-0.019264185
0.10914136
-0.019257885
0.11071476
-0.019204963
0.11232558
-0.019107964
0.11396773
-0.018969564
0.11563554
-0.018792533
0.11732378
-0.018579717
0.11902764
-0.018333992
0.12074275
-0.018058243
0.12246513
-0.017755339
0.12419127
-0.0174281
0.12591802
-0.017079289
0.12764266
-0.016711596
0.12936283
-0.016327627
0.13107654
-0.015929908
0.13278218
-0.015520893
0.13447848
-0.015102985
0.13616453
-0.014678585
0.13783976
-0.014250096
0.13950403
-0.013820213
0.14115756
-0.013391425
0.1428012
-0.012968433
0.14443598
-0.012551573
0.14606528
-0.012160584
0.14768916
-0.011762709
0.14932385
-0.011512216
0.15094726
-0.011013758
0.15266629
-0.011653599
-0.009862384
0.11918898
-0.0043344762
0.11749637
-0.0060508634
0.11585685
-0.0073851434
0.11435432
-0.0084327807
0.11302502
-0.009536823
0.11186645
-0.010653766
0.11088408
-0.011727625
0.11008421
-0.012749396
0.10946622
-0.013715812
0.10902554
-0.014622181
0.10875635
-0.015465369
0.10865199
-0.016243196
0.10870485
-0.016953959
0.10890665
-0.017596656
0.10924863
-0.018170958
0.10972188
-0.018677021
0.11031735
-0.019115417
0.11102604
-0.019487123
0.11183907
-0.0197935
0.11274776
-0.020036256
0.1137437
-0.020217417
0.1148188
-0.020339292
0.11596538
-0.020404456
0.11717611
-0.0204157
0.11844415
-0.020376007
0.1197631
-0.020288509
0.12112702
-0.020156452
0.12253046
-0.019983156
0.12396844
-0.019771978
0.12543648
-0.019526282
0.12693055
-0.019249402
0.12844707
-0.018944619
0.12998292
-0.018615141
0.13153541
-0.018264086
0.13310226
-0.017894477
0.13468159
-0.01750924
0.13627191
-0.017111218
0.13787212
-0.016703195
0.13948149
-0.016287949
0.14109966
-0.015868264
0.14272669
-0.015447249
0.14436306
-0.015027792
0.14600987
-0.014615246
0.14766844
-0.014210136
0.14934224
-0.013834391
0.15103202
-0.013452486
0.15275215
-0.013232346
0.15448643
-0.012748039
0.15631908
-0.013486249
-0.011643997
0.13689596
-0.001755505
0.134378
-0.0035329013
0.13181943
-0.0048265735
0.12946236
-0.0060757131
0.127334
-0.0074084652
0.12541573
-0.0087354922
0.12371037
-0.010022265
0.12222301
-0.011262039
0.12095211
-0.012444908
0.11989188
-0.013561958
0.11903483
-0.01460832
0.11837261
-0.015580974
0.11789622
-0.016477569
0.11759613
-0.01729657
0.11746249
-0.01803731
0.11748526
-0.018699798
0.11765445
-0.019284602
0.11796012
-0.019792797
0.11839256
-0.020225932
0.11894229
-0.02058599
0.1196002
-0.020875331
0.12035757
-0.021096663
0.12120612
-0.021252999
0.12213802
-0.021347607
0.12314599
-0.021383974
0.12422324
-0.021365758
0.12536353
-0.021296739
0.12656115
-0.021180778
0.12781095
-0.021021776
0.12910829
-0.020823629
0.13044909
-0.020590198
0.13182975
-0.020325276
0.13324717
-0.020032566
0.13469875
-0.019715663
0.13618232
-0.019378049
0.13769617
-0.019023091
0.13923902
-0.018654063
0.14080998
-0.018274159
0.1424086
-0.017886571
0.14403483
-0.017494493
0.14568906
-0.017101475
0.14737209
-0.016710827
0.14908542
-0.016328569
0.15083074
-0.015955456
0.15261178
-0.015615436
0.15443005
-0.015270755
0.1562982
-0.015100491
0.15820602
-0.014655864
0.16021549
-0.015495714
-0.013658241
0.15005209
0.00077999636
0.14676315
-0.00024395589
0.14346581
-0.0015292352
0.14041803
-0.0030279345
0.13762314
-0.0046135718
0.13507487
-0.0061872283
0.13277508
-0.0077224664
0.13072383
-0.0092107896
0.12891869
-0.010639768
0.12735446
-0.011997727
0.12602331
-0.013277173
0.12491584
-0.014473506
0.12402187
-0.015583601
0.12333075
-0.016605443
0.12283148
-0.017538042
0.12251296
-0.018381278
0.12236411
-0.019135756
0.12237403
-0.019802712
0.12253204
-0.02038395
0.12282784
-0.020881788
0.12325151
-0.021298999
0.12379361
-0.021638758
0.1244452
-0.02190459
0.12519791
-0.022100319
0.12604395
-0.022230012
0.12697611
-0.022297925
0.12798783
-0.022308452
0.12907312
-0.022266071
0.13022664
-0.022175294
0.13144363
-0.022040625
0.13271995
-0.021866517
0.13405202
-0.021657339
0.1354368
-0.021417348
0.13687181
-0.021150675
0.13835508
-0.020861314
0.13988511
-0.020553122
0.14146089
-0.020229844
0.14308186
-0.019895134
0.14474792
-0.019552631
0.1464594
-0.019205972
0.14821711
-0.018859187
0.15002231
-0.018516025
0.15187694
-0.018183201
0.15378319
-0.017861707
0.15574519
-0.017577433
0.15776512
-0.017290682
0.15985451
-0.017189881
0.16200761
-0.016808962
0.16426915
-0.017757258
-0.015970084
0.18890878
0.0053820982
-0.19351089
0.18509875
0.0035660818
0.18170671
0.0018627992
0.17856159
0.00011719107
0.17562603
-0.0016780127
0.172875
-0.003436203
0.17029029
-0.0051377506
0.16786289
-0.0067833899
0.16558892
-0.0083658038
0.16346624
-0.0098750428
0.16149297
-0.011303908
0.15966702
-0.012647549
0.15798573
-0.013902311
0.15644581
-0.015065528
0.15504335
-0.016135581
0.15377387
-0.017111803
0.15263246
-0.01799434
0.15161381
-0.018784059
0.15071234
-0.019482484
0.14992229
-0.020091733
0.14923774
-0.020614456
0.14865276
-0.021053776
0.14816139
-0.021413225
0.14775777
-0.021696691
0.14743611
-0.021908351
0.14719079
-0.022052614
0.1470164
-0.022134059
0.14690771
-0.022157377
0.14685973
-0.02212732
0.14686775
-0.022048646
0.14692731
-0.021926075
0.14703422
-0.021764252
0.14718459
-0.021567718
0.14737481
-0.021340888
0.14760153
-0.02108804
0.14786173
-0.020813319
0.14815264
-0.020520754
0.14847179
-0.020214285
0.148817
-0.019897843
0.14918639
-0.019575362
0.1495784
-0.019251199
0.1499918
-0.018929418
0.1504258
-0.018617209
0.1508799
-0.018315805
0.15135471
-0.018052236
0.15185007
-0.017786042
0.15237046
-0.017710274
0.15291158
-0.017350083
0.15349639
-0.018342071
-0.016562696
0.21685767
0.0087804298
-0.220256
0.21338378
0.0070399698
0.21017097
0.0050756122
0.20706566
0.0032225049
0.20401906
0.0013685839
0.20106214
-0.00047928162
0.19821178
-0.0022873876
0.19547249
-0.0040440979
0.19285016
-0.0057434834
0.19035165
-0.0073765256
0.18798213
-0.0089343938
0.18574502
-0.010410435
0.1836423
-0.011799591
0.18167467
-0.013097903
0.17984161
-0.014302515
0.17814147
-0.015411669
0.17657173
-0.016424593
0.17512905
-0.017341384
0.1738095
-0.01816293
0.17260861
-0.018890844
0.17152154
-0.019527386
0.17054316
-0.020075393
0.16966814
-0.020538208
0.16889105
-0.020919606
0.16820643
-0.02122373
0.16760883
-0.021455015
0.1670929
-0.021618123
0.1666534
-0.021717877
0.16628527
-0.021759195
0.16598366
-0.021747037
0.16574394
-0.02168635
0.16556171
-0.021582027
0.16543287
-0.021438871
0.16535355
-0.021261568
0.16532018
-0.021054677
0.16532949
-0.020822631
0.16537849
-0.020569745
0.16546446
-0.020300256
0.16558501
-0.020018398
0.16573806
-0.019728414
0.16592186
-0.019434992
0.166135
-0.019142556
0.16637647
-0.018858685
0.16664579
-0.018585122
0.16694279
-0.018349242
0.16726872
-0.018111967
0.16762278
-0.018064337
0.16801329
-0.017740589
0.16842219
-0.018750971
-0.017036505
0.24376659
0.011504384
-0.24649055
0.24091616
0.009890408
0.23806295
0.007928823
0.23521598
0.0060694676
0.23233818
0.0042463875
0.22945036
0.0024085394
0.22658374
0.00057923069
0.22375762
-0.001217979
0.22098792
-0.0029737814
0.21829057
-0.0046791765
0.21567943
-0.006323256
0.2131655
-0.0078965074
0.2107574
-0.0093914857
0.20846167
-0.010802178
0.20628296
-0.012123801
0.20422414
-0.01335285
0.20228657
-0.014487023
0.20047029
-0.015525102
0.19877421
-0.016466853
0.19719631
-0.01731294
0.19573376
-0.018064841
0.19438313
-0.018724758
0.19314045
-0.019295533
0.19200141
-0.019780564
0.1909614
-0.020183723
0.19001566
-0.020509269
0.18915931
-0.020761777
0.18838748
-0.020946049
0.18769534
-0.021067054
0.18707816
-0.021129852
0.18653134
-0.021139537
0.1860505
-0.021101185
0.18563145
-0.021019814
0.18527023
-0.020900348
0.18496315
-0.020747605
0.18470681
-0.020566284
0.18449805
-0.020360988
0.18433404
-0.020136246
0.18421224
-0.019896596
0.18413043
-0.019646605
0.18408672
-0.019391288
0.18407963
-0.019135467
0.18410797
-0.018887025
0.18417133
-0.018648477
0.1842688
-0.018446709
0.18440309
-0.018246259
0.18456781
-0.018229057
0.18478485
-0.017957626
0.18499029
-0.018956418
-0.017369057
0.26927436
0.013537336
-0.27130732
0.26710632
0.012058452
0.26476456
0.010270584
0.26232533
0.0085086935
0.25979658
0.006775138
0.25718849
0.0050166348
0.25452717
0.0032405489
0.2518368
0.0014723894
0.24913738
-0.00027436055
0.24644871
-0.0019905082
0.24379008
-0.0036646302
0.24117864
-0.0052850596
0.23862909
-0.0068419426
0.23615394
-0.0083270285
0.23376348
-0.0097333413
0.23146587
-0.01105524
0.2292673
-0.012288445
0.22717215
-0.013429953
0.22518323
-0.014477933
0.22330193
-0.015431644
0.22152843
-0.016291343
0.21986187
-0.01705819
0.21830049
-0.017734153
0.21684183
-0.018321909
0.21548286
-0.018824751
0.21422008
-0.019246491
0.21304968
-0.01959137
0.2119676
-0.019863966
0.21096965
-0.020069113
0.21005162
-0.020211818
0.20920928
-0.020297194
0.20843849
-0.020330396
0.20773524
-0.020316569
0.2070957
-0.02026081
0.20651624
-0.020168142
0.20599346
-0.0200435
0.20552421
-0.019891743
0.20510565
-0.019717679
0.20473519
-0.019526143
0.20441061
-0.019322022
0.20412998
-0.019110655
0.20389179
-0.018897285
0.20369479
-0.018690025
0.20353868
-0.018492358
0.20342196
-0.018329995
0.20334856
-0.018172861
0.2033073
-0.018187791
0.20333138
-0.017981712
0.20331562
-0.018940651
-0.01753817
0.29298513
0.014868477
-0.29431628
0.29150589
0.013537694
0.2897834
0.011993077
0.28788477
0.010407327
0.28584486
0.0088150485
0.28367448
0.0071870066
0.28139206
0.0055229706
0.27902083
0.0038436182
0.2765821
0.0021643727
0.27409602
0.00049556745
0.27158281
-0.0011514128
0.26906217
-0.0027644248
0.26655244
-0.004332214
0.26407021
-0.0058447976
0.26163022
-0.0072933474
0.25924523
-0.0086702475
0.256926
-0.0099692155
0.25468135
-0.011185304
0.25251826
-0.012314846
0.25044201
-0.013355393
0.24845632
-0.01430565
0.24656351
-0.015165383
0.24476469
-0.015935335
0.2430599
-0.01661712
0.24144827
-0.017213124
0.23992819
-0.017726408
0.23849742
-0.0181606
0.23715325
-0.018519796
0.23589261
-0.01880847
0.23471217
-0.019031377
0.23360845
-0.019193473
0.2325779
-0.019299846
0.23161697
-0.019355644
0.2307222
-0.019366035
0.22989022
-0.019336165
0.22911786
-0.019271139
0.22840214
-0.019176028
0.22774035
-0.019055882
0.22713001
-0.018915806
0.22656899
-0.018760998
0.22605543
-0.018597103
0.22558794
-0.018429794
0.22516527
-0.018267354
0.22478726
-0.018114349
0.22445208
-0.017994816
0.22416448
-0.017885259
0.22390963
-0.017932934
0.22372906
-0.017801146
0.22348395
-0.018695538
-0.017526803