/*--------------------------------*- C++ -*----------------------------------*\
  =========                 |
  \\      /  F ield         | OpenFOAM: The Open Source CFD Toolbox
   \\    /   O peration     | Website:  https://openfoam.org
    \\  /    A nd           | Version:  6
     \\/     M anipulation  |
\*---------------------------------------------------------------------------*/
FoamFile
{
    version     2.0;
    format      ascii;
    class       volScalarField;
    location    "187";
    object      pPrime2Mean;
}
// * * * * * * * * * * * * * * * * * * * * * * * * * * * * * * * * * * * * * //

dimensions      [0 4 -4 0 0 0 0];

internalField   nonuniform List<scalar> 
9200
(
0.060102643
0.049819516
0.041113681
0.035446318
0.030922888
0.027110518
0.023821003
0.020958381
0.01845878
0.016271047
0.014352811
0.012668558
0.0111883
0.0098865651
0.0087416074
0.0077348346
0.00685051
0.00607551
0.0054001172
0.0048117233
0.048735565
0.040319918
0.033282379
0.028656972
0.024946345
0.021809906
0.019099786
0.016740568
0.014681457
0.012881504
0.011306511
0.0099275468
0.0087199304
0.0076624451
0.0067367425
0.0059269139
0.0052192617
0.0046019856
0.0040641136
0.0035900138
0.038077259
0.03145773
0.025986889
0.02234264
0.019395754
0.016892848
0.014724696
0.012835747
0.011188061
0.0097505946
0.0084969107
0.0074041478
0.0064523433
0.0056239349
0.004903406
0.004277051
0.003732838
0.003260152
0.002848345
0.0024834418
0.028423458
0.023471899
0.019418977
0.016667056
0.014413865
0.012485341
0.010808121
0.009345294
0.008071049
0.0069634502
0.0060029605
0.0051719191
0.0044542807
0.0038354749
0.0033023452
0.0028431262
0.0024474134
0.0021059895
0.0018097608
0.0015481467
0.020040615
0.016577199
0.013755222
0.011782654
0.010135025
0.0087074261
0.0074585364
0.0063682451
0.0054215621
0.0046043528
0.0039027243
0.0033031071
0.0027924936
0.0023586961
0.0019905752
0.001678192
0.0014128538
0.0011870094
0.00099367057
0.00082574178
0.013163544
0.010960776
0.0091522306
0.007825755
0.0066802815
0.0056681753
0.0047753231
0.0039958694
0.0033237274
0.0027508041
0.0022673375
0.0018626692
0.0015260114
0.0012470704
0.0010164821
0.00082604873
0.00066878831
0.00053884591
0.00043125645
0.00034164452
0.0079885887
0.0067776668
0.0057431755
0.0049136128
0.0041547478
0.0034631399
0.0028460737
0.0023087203
0.0018514689
0.0014702456
0.0011578584
0.00090547736
0.0007038651
0.00054424597
0.00041882075
0.00032098262
0.00024531061
0.00018745655
0.00014408758
0.00011266015
0.0046686026
0.0041477175
0.0036353264
0.0031421114
0.0026452663
0.0021717951
0.0017437562
0.0013735911
0.001065458
0.00081725309
0.00062292932
0.00047458508
0.00036400061
0.00028358827
0.00022685694
0.00018853214
0.00016446575
0.00015148749
0.00014739978
0.00015072658
0.0033087017
0.0031522253
0.0029055936
0.0025809442
0.0022159786
0.0018538475
0.0015238446
0.0012414432
0.0010117673
0.00083282848
0.00069859837
0.00060146003
0.00053381399
0.00048894207
0.00046133202
0.00044667516
0.00044170245
0.00044400756
0.00045200559
0.00046466116
0.0039616902
0.0038311894
0.0035957558
0.0032690107
0.0029039608
0.0025447148
0.0022195127
0.0019424765
0.001717121
0.001540114
0.0014046674
0.0013030084
0.0012278149
0.0011728646
0.0011331946
0.0011049955
0.0010854076
0.0010723274
0.001064268
0.0010600979
0.14273558
0.12004282
0.099209341
0.086036131
0.075576859
0.066798141
0.059240348
0.05265551
0.046890114
0.04182351
0.037357128
0.033409363
0.029911864
0.026806847
0.024045109
0.021584509
0.01938878
0.017425445
0.01566401
0.01408684
0.14091719
0.11839726
0.0978025
0.084780687
0.074452513
0.06578576
0.058324865
0.051825939
0.046137233
0.04113926
0.036734385
0.032841791
0.029393805
0.026333237
0.023611409
0.02118666
0.019023199
0.017089023
0.015353468
0.013799509
0.13720819
0.11513933
0.095060345
0.082362508
0.072302734
0.063862948
0.056597393
0.050269827
0.044732488
0.039868765
0.035583305
0.031797155
0.0284442
0.025468581
0.022822771
0.020466127
0.018363827
0.016484816
0.014798533
0.013288272
0.13167346
0.11034818
0.091062119
0.078856671
0.069195502
0.061091265
0.054114299
0.048039163
0.042724073
0.038056904
0.033945883
0.030314961
0.02710043
0.024248464
0.02171327
0.019455702
0.017442292
0.015643357
0.014028948
0.012582174
0.12446416
0.10415979
0.085923652
0.074366779
0.06522377
0.057554531
0.050951716
0.045203487
0.040175801
0.035762468
0.031876471
0.028445629
0.025409427
0.022716717
0.020323973
0.018193963
0.016294864
0.014598682
0.013076929
0.011712303
0.11578574
0.096754249
0.079795153
0.069025194
0.060505473
0.053358411
0.047204744
0.041848674
0.037165436
0.033056038
0.029439268
0.026247661
0.023424601
0.020922196
0.018699665
0.016722063
0.014959432
0.013385624
0.011974565
0.010709042
0.10588759
0.088347514
0.072854409
0.062987132
0.055178206
0.048625661
0.042983259
0.038073231
0.033781422
0.030017114
0.026705778
0.02378541
0.021203923
0.018917213
0.016887682
0.015083038
0.013475406
0.012040496
0.010755353
0.0096039526
0.09505406
0.079183751
0.065301068
0.056425872
0.049394969
0.043492268
0.038408456
0.033985305
0.030120323
0.026731933
0.023753022
0.02112768
0.018808894
0.016756833
0.014937516
0.013321686
0.011883879
0.010601776
0.009455947
0.0084326517
0.083594095
0.069526246
0.057349431
0.049526445
0.043318526
0.038102473
0.033608477
0.029698781
0.026283354
0.023290439
0.020660918
0.018345484
0.016302655
0.014497288
0.012899402
0.011483169
0.010226
0.0091079807
0.0081136939
0.0072317458
0.071830111
0.05965005
0.049220832
0.042477602
0.037113601
0.032601416
0.028711638
0.025327285
0.022371277
0.019782114
0.017509046
0.015509685
0.01374835
0.012194825
0.010823381
0.0096119802
0.0085416447
0.0075963681
0.0067660796
0.0060398448
0.012422953
0.010764097
0.0093575152
0.0081363414
0.0070931134
0.0061995078
0.0054309522
0.0047663693
0.0041886254
0.003683807
0.0032406474
0.0028501193
0.0025049749
0.0021993183
0.001928286
0.0016878134
0.0014744566
0.0012852579
0.0011176468
0.00096936616
0.00083841639
0.00072301198
0.00062154835
0.00053257584
0.00045477962
0.00038696409
0.00032804044
0.00027701686
0.00023299049
0.00019514076
0.00016272361
0.00013506641
0.00011156321
9.1670282e-05
7.4901877e-05
6.0825952e-05
4.9060225e-05
3.9267929e-05
3.1154338e-05
2.4461993e-05
1.8969564e-05
1.448173e-05
1.0843504e-05
7.8925895e-06
5.5664191e-06
3.6488044e-06
2.3251856e-06
1.0671424e-06
1.4102921e-06
2.3168684e-06
0.012181791
0.010578049
0.009211774
0.0080215666
0.0070037658
0.006130684
0.0053779965
0.0047254247
0.0041567128
0.0036586455
0.0032205381
0.0028338435
0.0024916678
0.0021883583
0.0019192158
0.0016802877
0.0014682067
0.0012800687
0.0011133424
0.00096580078
0.00083546799
0.00072057803
0.00061954261
0.00053092579
0.0004534244
0.00038585272
0.00032713037
0.00027627267
0.00023238279
0.00019464521
0.00016232014
0.00013473844
0.00011129714
9.1454907e-05
7.4728014e-05
6.068606e-05
4.8948116e-05
3.9178523e-05
3.1083471e-05
2.440625e-05
1.8926148e-05
1.444836e-05
1.0818319e-05
7.8741154e-06
5.5534472e-06
3.6404e-06
2.320768e-06
1.064548e-06
1.4017496e-06
2.2718157e-06
0.011757321
0.010252775
0.0089594673
0.0078260733
0.0068539524
0.0060170815
0.0052918997
0.0046597211
0.0041060315
0.0036189971
0.0031890288
0.0028084411
0.0024709578
0.0021713383
0.0019051565
0.001668642
0.0014585504
0.0012720632
0.0011067113
0.00096031509
0.00083093636
0.0007168399
0.00061646316
0.00052839198
0.00045134164
0.00038414212
0.00032572635
0.00027512089
0.00023143839
0.00019387123
0.00016168621
0.00013421965
0.00011087306
9.1108795e-05
7.4446138e-05
6.045715e-05
4.8762903e-05
3.9029373e-05
3.0964088e-05
2.4311435e-05
1.8851607e-05
1.4390554e-05
1.0774347e-05
7.8416293e-06
5.5305473e-06
3.625528e-06
2.3130739e-06
1.0600024e-06
1.3846855e-06
2.1838228e-06
0.011175576
0.00980832
0.0086186553
0.0075673366
0.0066592655
0.0058715772
0.005182877
0.004577133
0.0040425335
0.0035693671
0.0031495992
0.0027766738
0.0024450939
0.0021501294
0.001887687
0.0016542185
0.0014466317
0.0012622156
0.0010985806
0.00095360858
0.00082541043
0.00071229113
0.00061272167
0.00052531617
0.00044881379
0.00038206467
0.00032401872
0.00027371678
0.00023028336
0.00019292075
0.00016090388
0.00013357579
0.00011034341
9.0673575e-05
7.4089133e-05
6.0165062e-05
4.8524778e-05
3.8836164e-05
3.080829e-05
2.4186815e-05
1.8752977e-05
1.4313597e-05
1.0715496e-05
7.7979696e-06
5.4996947e-06
3.6055257e-06
2.3027545e-06
1.0540725e-06
1.3590996e-06
2.057411e-06
0.010462232
0.0092651373
0.0082079526
0.0072631724
0.0064353632
0.0057066026
0.0050602936
0.0044845858
0.0039713305
0.0035136119
0.0031052851
0.0027410371
0.0024161932
0.0021265623
0.0018684054
0.001638415
0.0014336699
0.0012515844
0.001089864
0.00094646507
0.00081955838
0.00070749792
0.00060879517
0.00052209803
0.00044617392
0.0003798965
0.00032223528
0.00027224729
0.00022907043
0.00019191792
0.00016007361
0.00013288772
0.000109773
9.020089e-05
7.3697947e-05
5.9842086e-05
4.8259058e-05
3.8618618e-05
3.063134e-05
2.4044107e-05
1.8639168e-05
1.4224189e-05
1.0646728e-05
7.7467352e-06
5.4633888e-06
3.5820779e-06
2.2906057e-06
1.0474823e-06
1.3252453e-06
1.8992159e-06
0.009639311
0.0086418621
0.007744184
0.0069281116
0.0061937097
0.0055301382
0.0049293019
0.0043854954
0.0038949127
0.0034537502
0.003057871
0.0027031863
0.0023858099
0.0021020863
0.0018486467
0.0016224458
0.0014207559
0.0012411386
0.0010814135
0.00093962692
0.0008140218
0.00070301062
0.00060515251
0.00051913445
0.00044375594
0.00037791692
0.00032060833
0.00027090462
0.00022795774
0.0001909922
0.0001593008
0.00013224085
0.00010923063
8.9745908e-05
7.3316561e-05
5.9523083e-05
4.7993206e-05
3.8398232e-05
3.0449941e-05
2.3896185e-05
1.8520009e-05
1.4129743e-05
1.0573539e-05
7.6919154e-06
5.4243869e-06
3.5570311e-06
2.2774608e-06
1.0410035e-06
1.2835337e-06
1.717292e-06
0.0087283405
0.0079571552
0.0072423514
0.0065709583
0.0059380778
0.0053429383
0.0047893132
0.0042792092
0.0038132016
0.0033903381
0.0030083739
0.0026644126
0.0023553596
0.0020781328
0.0018297869
0.0016075906
0.0014090531
0.0012319178
0.0010741457
0.00093389359
0.00080949158
0.00069942149
0.00060229775
0.00051685159
0.00044191793
0.00037642504
0.00031938634
0.00026989407
0.00022711406
0.00019028159
0.00015869775
0.00013172608
0.00010878953
8.9367283e-05
7.2991713e-05
5.9245088e-05
4.7756393e-05
3.8197828e-05
3.0281816e-05
2.3756692e-05
1.8405893e-05
1.4038072e-05
1.0501698e-05
7.6376673e-06
5.3855311e-06
3.5322631e-06
2.2641239e-06
1.0353793e-06
1.2345243e-06
1.5203562e-06
0.0077560888
0.007232328
0.0067139682
0.0061904872
0.0056605937
0.0051367672
0.0046342399
0.0041621206
0.0037247185
0.003323421
0.0029577512
0.0026261331
0.0023264374
0.0020563058
0.0018133425
0.0015952298
0.0013997866
0.0012249906
0.0010689805
0.00093004883
0.00080663002
0.00069728626
0.00060069435
0.00051563382
0.00044097709
0.00037568134
0.00031878226
0.0002693889
0.00022667971
0.00018989926
0.00015835529
0.00013141598
0.00010850739
8.9110685e-05
7.2759354e-05
5.9036242e-05
4.7570513e-05
3.803433e-05
3.013995e-05
2.3635508e-05
1.8304255e-05
1.3954703e-05
1.0435229e-05
7.5868535e-06
5.3487192e-06
3.5090025e-06
2.2509728e-06
1.0310923e-06
1.1788573e-06
1.3171654e-06
0.0067490049
0.0064767032
0.0061470872
0.0057592071
0.0053313627
0.0048872352
0.0044463866
0.0040216409
0.0036203675
0.0032463071
0.002900967
0.0025844489
0.0022959446
0.0020340936
0.0017972484
0.0015836486
0.0013915253
0.0012191607
0.001064919
0.0009272614
0.00080474818
0.00069603679
0.00059987612
0.00051510055
0.00044062415
0.00037543567
0.00031859447
0.00026922718
0.00022652504
0.00018974164
0.00015819088
0.00013124493
0.00010833216
8.8934899e-05
7.2586969e-05
5.8870998e-05
4.7415602e-05
3.7892242e-05
3.0012424e-05
2.3523566e-05
1.8208304e-05
1.3874635e-05
1.0370529e-05
7.536949e-06
5.3121967e-06
3.4861052e-06
2.2370437e-06
1.0278672e-06
1.1174475e-06
1.1167038e-06
0.0057465861
0.0056671846
0.0054882368
0.0052274484
0.004912356
0.0045655039
0.0042034079
0.0038399614
0.003485585
0.0031469776
0.0028281299
0.0025312478
0.0022572376
0.0020060618
0.0017770658
0.0015692277
0.0013813242
0.0012120383
0.001060029
0.00092397488
0.00080259809
0.00069467714
0.00059905227
0.00051462706
0.00044036813
0.00037530409
0.00031852432
0.00026917779
0.00022647208
0.00018967242
0.00015810071
0.00013113432
0.00010820473
8.8795856e-05
7.2442009e-05
5.8725596e-05
4.7274569e-05
3.7759499e-05
2.9890925e-05
2.3415319e-05
1.8114491e-05
1.3795726e-05
1.0306415e-05
7.4873468e-06
5.2757148e-06
3.4633535e-06
2.2221979e-06
1.025439e-06
1.052624e-06
9.2838164e-07
0.0046555842
0.0046886827
0.0046326878
0.0044934627
0.0042974586
0.004061104
0.0037956756
0.0035135432
0.0032261293
0.0029418442
0.0026665088
0.0024041564
0.002157386
0.0019276212
0.0017154193
0.0015207433
0.0013431565
0.0011819629
0.0010363076
0.00090524805
0.00078780173
0.00068297688
0.00058979287
0.0005072933
0.00043455448
0.00037069112
0.00031486033
0.00026626444
0.00022415307
0.00018782462
0.00015662706
0.00012995833
0.00010726605
8.8046796e-05
7.1844824e-05
5.825033e-05
4.6897372e-05
3.7461327e-05
2.9656508e-05
2.3232408e-05
1.7973175e-05
1.3688177e-05
1.0225953e-05
7.4296338e-06
5.2348991e-06
3.4399014e-06
2.204823e-06
1.0241421e-06
9.85327e-07
7.6267874e-07
0.0036082299
0.0037026631
0.0037232305
0.0036705232
0.0035658468
0.0034211976
0.0032431883
0.0030413207
0.0028257984
0.0026046634
0.0023839249
0.0021682173
0.0019609618
0.0017644675
0.0015801548
0.001408785
0.0012506339
0.0011056236
0.00097342747
0.00085354943
0.00074538186
0.000648247
0.00056142677
0.00048418433
0.00041577977
0.00035548184
0.0003025768
0.0002563754
0.00021621823
0.00018147991
0.0001515723
0.0001259467
0.00010409522
8.5551454e-05
6.9890315e-05
5.672735e-05
4.5717486e-05
3.655324e-05
2.8962913e-05
2.2707482e-05
1.7580229e-05
1.3398434e-05
1.0015757e-05
7.2824474e-06
5.1330451e-06
3.3792313e-06
2.1613223e-06
1.0143272e-06
8.9979855e-07
6.0532864e-07
0.0027076906
0.0028421056
0.002916196
0.0029300942
0.0028970329
0.0028257684
0.0027203226
0.0025874353
0.0024354933
0.0022716735
0.0021016809
0.0019302447
0.001761176
0.0015973375
0.0014407657
0.0012928408
0.0011544261
0.0010259791
0.00090764778
0.00079934986
0.000700834
0.00061172684
0.00053156915
0.00045984357
0.00039599596
0.00033945216
0.00028963123
0.00024595598
0.00020786153
0.00017480212
0.00014625649
0.00012173201
0.00010076768
8.293612e-05
6.7844695e-05
5.5135787e-05
4.4486441e-05
3.5607357e-05
2.8241677e-05
2.2162568e-05
1.7172987e-05
1.3098633e-05
9.798493e-06
7.1305625e-06
5.0275804e-06
3.3168836e-06
2.1144326e-06
1.0057959e-06
8.0702849e-07
4.5778503e-07
0.0019508835
0.0021057814
0.0022127513
0.0022729302
0.0022924013
0.0022769854
0.0022292974
0.0021537193
0.0020564663
0.0019434439
0.0018196816
0.0016895911
0.0015569725
0.001424908
0.0012957863
0.0011714043
0.0010530619
0.00094164502
0.00083770321
0.00074151941
0.00065316821
0.00057256309
0.00049949477
0.00043366221
0.00037469765
0.00032218683
0.00027568561
0.00023473352
0.00019886497
0.00016761839
0.00014054373
0.00011720833
9.7201537e-05
8.0138091e-05
6.56604e-05
5.3439918e-05
4.3177697e-05
3.4604181e-05
2.7478653e-05
2.1587524e-05
1.6744282e-05
1.2783735e-05
9.5707101e-06
6.9714558e-06
4.9169425e-06
3.2512149e-06
2.0638263e-06
9.9699101e-07
7.1370041e-07
3.3169889e-07
0.00134225
0.0014976971
0.0016184953
0.0017055245
0.0017595417
0.0017835041
0.0017789546
0.0017484414
0.0016960552
0.0016262035
0.0015429807
0.0014501849
0.00135128
0.0012492635
0.0011466179
0.001045344
0.00094701009
0.00085280166
0.00076357459
0.0006799089
0.0006021576
0.00053048923
0.00046492425
0.00040536608
0.00035162724
0.00030345134
0.0002605316
0.00022252649
0.00018907289
0.0001597971
0.00013432405
0.00011228476
9.332242e-05
7.7097031e-05
6.3288893e-05
5.1601014e-05
4.1760589e-05
3.3519625e-05
2.665507e-05
2.0967843e-05
1.6283009e-05
1.2445306e-05
9.3261099e-06
6.8003995e-06
4.7978075e-06
3.1795685e-06
2.008232e-06
9.8622832e-07
6.2362645e-07
2.331726e-07
0.00087610496
0.0010161695
0.0011347905
0.0012316563
0.0013041271
0.0013526278
0.0013775747
0.0013800735
0.0013623929
0.0013274267
0.0012781894
0.0012176797
0.0011487995
0.0010742205
0.00099629259
0.00091702155
0.00083807563
0.00076080301
0.00068625843
0.00061523682
0.00054830845
0.00048585249
0.00042808785
0.00037510114
0.00032687137
0.0002832917
0.00024418837
0.00020933716
0.00017847766
0.00015132547
0.00012758266
0.00010694648
8.9116574e-05
7.3800842e-05
6.0719933e-05
4.9610657e-05
4.0228357e-05
3.234836e-05
2.5766788e-05
2.0300336e-05
1.5786722e-05
1.2081448e-05
9.0632224e-06
6.6161558e-06
4.6692738e-06
3.1009191e-06
1.9474373e-06
9.7229989e-07
5.3992189e-07
1.6430313e-07
0.00053733136
0.00065227795
0.00075719041
0.00085054399
0.00092804239
0.00098828327
0.001030582
0.0010548822
0.0010620049
0.0010534819
0.0010312322
0.00099737556
0.00095412085
0.00090364562
0.00084799031
0.00078899632
0.00072827825
0.00066721351
0.0006069445
0.00054839134
0.00049227094
0.00043911875
0.00038931138
0.00034308874
0.00030057505
0.0002617984
0.00022670843
0.00019519243
0.00016708959
0.00014220368
0.00012031408
0.0001011853
8.4575049e-05
7.0240938e-05
5.79459e-05
4.7462442e-05
3.8575844e-05
3.1086372e-05
2.4810769e-05
1.9582747e-05
1.5253763e-05
1.1690927e-05
8.7811308e-06
6.4179484e-06
4.5308143e-06
3.0145551e-06
1.88157e-06
9.541166e-07
4.6494728e-07
1.2337566e-07
0.00030640727
0.00039213619
0.00047650032
0.00055721898
0.00062963031
0.00069132378
0.00074076473
0.0007770158
0.00079982749
0.00080962171
0.00080732079
0.00079418463
0.00077169442
0.00074144543
0.00070504791
0.00066405079
0.00061988892
0.0005738507
0.00052706077
0.0004804742
0.00043487966
0.00039090833
0.00034904652
0.0003096503
0.00027296102
0.00023912084
0.00020818792
0.00018015066
0.00015494103
0.0001324468
0.00011252245
9.4998929e-05
7.9692161e-05
6.641026e-05
5.4959605e-05
4.5149763e-05
3.6797363e-05
2.9728999e-05
2.3783334e-05
1.8812261e-05
1.4682032e-05
1.1272193e-05
8.4787089e-06
6.2049119e-06
4.3818893e-06
2.9198802e-06
1.8108999e-06
9.3082909e-07
4.0001849e-07
1.0527025e-07
0.000162892
0.00021939623
0.00028038751
0.00034333695
0.00040398725
0.00045961281
0.00050821674
0.00054830292
0.00057890969
0.00059964541
0.00061061861
0.00061232912
0.00060557246
0.00059135238
0.0005707954
0.00054507644
0.00051535918
0.00048274977
0.00044826478
0.00041281149
0.0003771775
0.00034202759
0.00030790614
0.00027524341
0.00024436443
0.00021549947
0.0001887953
0.00016432667
0.00014210769
0.00012210265
0.00010423622
8.8402831e-05
7.4475002e-05
6.2310798e-05
5.1760182e-05
4.267037e-05
3.4890207e-05
2.8273609e-05
2.2682196e-05
1.7987037e-05
1.4070133e-05
1.0824236e-05
8.1552707e-06
5.9765871e-06
4.222305e-06
2.8167257e-06
1.7359665e-06
9.0210966e-07
3.4550013e-07
1.0274163e-07
8.7475918e-05
0.00011735167
0.00015513425
0.00019842183
0.0002437189
0.00028845517
0.00033055258
0.00036828082
0.00040029154
0.00042567602
0.0004439561
0.00045502944
0.00045910736
0.00045665276
0.00044831587
0.00043487051
0.00041715764
0.00039603761
0.00037235086
0.00034688861
0.00032037282
0.00029344342
0.00026665164
0.00024045822
0.0002152355
0.00019127213
0.00016877976
0.00014790096
0.0001287177
0.00011126024
9.5515761e-05
8.1436787e-05
6.8948948e-05
5.7958113e-05
4.8356713e-05
4.0029237e-05
3.2856873e-05
2.6721307e-05
2.1507757e-05
1.7107184e-05
1.3418103e-05
1.0347135e-05
7.8109713e-06
5.733217e-06
4.0524231e-06
2.7054994e-06
1.6575995e-06
8.6824382e-07
3.0103271e-07
1.0817487e-07
6.3173488e-05
7.0395774e-05
8.7066859e-05
0.00011112337
0.00013992331
0.00017130584
0.00020339157
0.00023448611
0.00026312658
0.00028815226
0.00030872997
0.00032434065
0.00033475097
0.00033997868
0.00034025163
0.00033596186
0.00032761923
0.0003158086
0.00030115189
0.00028427565
0.00026578525
0.00024624585
0.0002261689
0.00020600369
0.00018613314
0.00016687298
0.00014847365
0.00013112412
0.00011495718
0.00010005563
8.645892e-05
7.4170018e-05
6.3162131e-05
5.3385099e-05
4.477131e-05
3.7241012e-05
3.0706961e-05
2.5078368e-05
2.0264158e-05
1.6175513e-05
1.2727946e-05
9.8424186e-06
7.4470538e-06
5.4759039e-06
3.8732561e-06
2.5872293e-06
1.5768891e-06
8.3010339e-07
2.657975e-07
1.152407e-07
7.579996e-05
6.4814511e-05
6.3506165e-05
7.0224728e-05
8.3124595e-05
0.00010054455
0.0001209576
0.0001428872
0.00016495692
0.00018596579
0.00020493067
0.00022109864
0.00023394516
0.00024316366
0.00024864668
0.00025045916
0.00024880689
0.00024400341
0.000236438
0.00022654608
0.00021478289
0.00020160148
0.0001874354
0.00017268568
0.00015771171
0.00014282573
0.00012829022
0.00011431781
0.00010107311
8.8675917e-05
7.7205526e-05
6.6705638e-05
5.7189597e-05
4.8645687e-05
4.1042272e-05
3.4332615e-05
2.845925e-05
2.3357841e-05
1.8960483e-05
1.5198412e-05
1.2004235e-05
9.3134585e-06
7.066086e-06
5.206725e-06
3.6865039e-06
2.4635089e-06
1.4950932e-06
7.889695e-07
2.3867523e-07
1.199022e-07
0.0001139587
8.9088073e-05
7.3297423e-05
6.5334517e-05
6.4021851e-05
6.8183738e-05
7.669291e-05
8.8381883e-05
0.00010208455
0.00011670734
0.00013127626
0.0001449616
0.00015709245
0.00016716398
0.00017483645
0.00017992565
0.00018238657
0.00018229271
0.00017981311
0.00017518888
0.00016871053
0.00016069699
0.00015147735
0.00014137575
0.00013069936
0.00011972948
0.00010871537
9.7870754e-05
8.7372345e-05
7.7360231e-05
6.7939602e-05
5.9183517e-05
5.1136383e-05
4.3817842e-05
3.7226837e-05
3.1345643e-05
2.6143705e-05
2.1581167e-05
1.7612015e-05
1.4186771e-05
1.1254767e-05
8.7659091e-06
6.6722286e-06
4.9288607e-06
3.4945909e-06
2.3364287e-06
1.4135671e-06
7.4632853e-07
2.1834044e-07
1.2054317e-07
0.00016876999
0.00013387887
0.00010702263
8.7286642e-05
7.4010487e-05
6.643484e-05
6.3808576e-05
6.5291791e-05
6.9983462e-05
7.6982078e-05
8.5428861e-05
9.4535025e-05
0.00010360314
0.00011204437
0.00011938939
0.00012529176
0.00012952454
0.00013197152
0.00013261442
0.00013151756
0.00012881105
0.0001246738
0.00011931723
0.00011297048
0.00010586759
9.8236886e-05
9.0292672e-05
8.2229078e-05
7.4216049e-05
6.6397121e-05
5.8888767e-05
5.1781015e-05
4.5139043e-05
3.9005485e-05
3.3403206e-05
2.8338313e-05
2.3803231e-05
1.9779678e-05
1.6241455e-05
1.3156941e-05
1.0491276e-05
8.2081949e-06
6.2715417e-06
4.6467463e-06
3.3007125e-06
2.208503e-06
1.3337103e-06
7.0366537e-07
2.0331798e-07
1.1735438e-07
0.00023348816
0.00019183714
0.0001569935
0.00012830679
0.00010548861
8.8106402e-05
7.5724237e-05
6.7800911e-05
6.3703265e-05
6.2753621e-05
6.4264758e-05
6.7563539e-05
7.2012253e-05
7.7028997e-05
8.2104375e-05
8.6812753e-05
9.081799e-05
9.3874182e-05
9.5822099e-05
9.6582053e-05
9.614408e-05
9.4556409e-05
9.1913125e-05
8.8341812e-05
8.3991863e-05
7.9023948e-05
7.3600915e-05
6.7880347e-05
6.200877e-05
5.6117529e-05
5.0320136e-05
4.4710965e-05
3.9365057e-05
3.433882e-05
2.9671415e-05
2.5386602e-05
2.1494885e-05
1.7995759e-05
1.4879961e-05
1.2131601e-05
9.7301196e-06
7.6520265e-06
5.8723425e-06
4.3662889e-06
3.1089491e-06
2.0826747e-06
1.2570006e-06
6.6235882e-07
1.9212097e-07
1.1142678e-07
0.00030310136
0.00025732272
0.00021711173
0.00018201376
0.00015198863
0.0001268418
0.00010637913
9.0305102e-05
7.8224649e-05
6.9677807e-05
6.4165247e-05
6.1165474e-05
6.0152126e-05
6.0612723e-05
6.2066214e-05
6.4077365e-05
6.6267446e-05
6.8321193e-05
6.9990111e-05
7.1092287e-05
7.1509152e-05
7.1179759e-05
7.0093287e-05
6.828044e-05
6.5804363e-05
6.2751669e-05
5.9224013e-05
5.5330533e-05
5.1181408e-05
4.6882613e-05
4.2531943e-05
3.8216204e-05
3.4009516e-05
2.9972559e-05
2.6152608e-05
2.2584198e-05
1.9290236e-05
1.6283412e-05
1.3567779e-05
1.1140378e-05
8.9928296e-06
7.1128516e-06
5.4855492e-06
4.0951022e-06
2.9244159e-06
1.9623778e-06
1.1850874e-06
6.2366737e-07
1.8345744e-07
1.039932e-07
0.00037396663
0.00032610816
0.00028266322
0.00024331749
0.00020818189
0.00017722335
0.00015041889
0.00012765885
0.00010874084
9.3393865e-05
8.1295267e-05
7.2081157e-05
6.5358141e-05
6.0717882e-05
5.7752279e-05
5.6067404e-05
5.5295558e-05
5.5105119e-05
5.5207893e-05
5.5363745e-05
5.5382501e-05
5.5123351e-05
5.4492093e-05
5.3436688e-05
5.1941586e-05
5.0021333e-05
4.7713903e-05
4.5074171e-05
4.216781e-05
3.9065891e-05
3.584029e-05
3.256002e-05
2.9288454e-05
2.608144e-05
2.298618e-05
2.00408e-05
1.7274459e-05
1.4707884e-05
1.2354207e-05
1.0219988e-05
8.3063394e-06
6.6101045e-06
5.1249112e-06
3.8426991e-06
2.7534161e-06
1.8516504e-06
1.1199337e-06
5.888071e-07
1.7645862e-07
9.6044644e-08
0.00044349954
0.00039509935
0.00035009216
0.00030826243
0.00026980138
0.00023477692
0.00020327732
0.00017532273
0.0001508547
0.00012975247
0.00011184318
9.690663e-05
8.4681566e-05
7.4875355e-05
6.7175272e-05
6.1259846e-05
5.6809754e-05
5.351787e-05
5.1098063e-05
4.9292304e-05
4.7875821e-05
4.6660211e-05
4.5494573e-05
4.426484e-05
4.2891579e-05
4.132659e-05
3.954866e-05
3.755883e-05
3.5375512e-05
3.3029734e-05
3.0560732e-05
2.8012058e-05
2.5428316e-05
2.2852552e-05
2.0324315e-05
1.7878346e-05
1.5543815e-05
1.3344043e-05
1.1296594e-05
9.4136692e-06
7.7026974e-06
6.1670916e-06
4.8069951e-06
3.6205297e-06
2.603506e-06
1.7552184e-06
1.0639318e-06
5.5905276e-07
1.7080434e-07
8.8261192e-08
0.00050992134
0.0004620913
0.00041678348
0.00037385189
0.00033351957
0.00029591101
0.00026117908
0.00022942678
0.000200695
0.00017497341
0.00015220596
0.00013229153
0.00011508595
0.00010040718
8.8042505e-05
7.775644e-05
6.9299124e-05
6.2414795e-05
5.6850086e-05
5.2361597e-05
4.8722411e-05
4.5727279e-05
4.3196338e-05
4.0977307e-05
3.8946229e-05
3.7006891e-05
3.5089133e-05
3.3146293e-05
3.1152063e-05
2.9097002e-05
2.6984964e-05
2.4829624e-05
2.2651283e-05
2.0474051e-05
1.8323489e-05
1.6224735e-05
1.4201107e-05
1.2273154e-05
1.0458109e-05
8.7696711e-06
7.2180687e-06
5.8103563e-06
4.5507982e-06
3.4417677e-06
2.4833977e-06
1.6784885e-06
1.0199459e-06
5.3581656e-07
1.6669922e-07
8.1081543e-08
0.00057205813
0.00052556391
0.00048086828
0.00043787516
0.00039680843
0.0003578186
0.00032108925
0.00028677001
0.00025496428
0.00022573649
0.00019911481
0.00017508912
0.00015361016
0.00013459132
0.00011791219
0.00010342326
9.0951286e-05
8.0305469e-05
7.1284027e-05
6.368084e-05
5.7291815e-05
5.1920642e-05
4.7383718e-05
4.3514047e-05
4.0164029e-05
3.720709e-05
3.453824e-05
3.2073635e-05
2.9749327e-05
2.7519387e-05
2.5353581e-05
2.3234822e-05
2.1156538e-05
1.9120137e-05
1.7132659e-05
1.520472e-05
1.3348776e-05
1.1577747e-05
9.9039814e-06
8.3385506e-06
6.8908314e-06
5.5683659e-06
4.3768691e-06
3.3207477e-06
2.4026219e-06
1.6273831e-06
9.9122991e-07
5.2065671e-07
1.6471664e-07
7.4776858e-08
0.00062918369
0.00058451554
0.00054105707
0.00049874936
0.00045779896
0.00041836259
0.00038063169
0.00034477643
0.00031093452
0.00027921622
0.00024970528
0.00022245578
0.00019748958
0.00017479573
0.00015433151
0.00013602432
0.00011977445
0.00010545876
9.2935101e-05
8.2047319e-05
7.2630453e-05
6.4515957e-05
5.7536662e-05
5.1531253e-05
4.6348093e-05
4.1848247e-05
3.7907649e-05
3.4418396e-05
3.1289213e-05
2.8445181e-05
2.5826849e-05
2.3388864e-05
2.1098281e-05
1.8932684e-05
1.6878251e-05
1.4927882e-05
1.307946e-05
1.1334325e-05
9.6959808e-06
8.1690647e-06
6.7585754e-06
5.4693664e-06
4.305812e-06
3.2719598e-06
2.3708824e-06
1.6079662e-06
9.8120085e-07
5.1519848e-07
1.6559463e-07
6.9497208e-08
0.00068089552
0.00063832825
0.0005964996
0.00055537983
0.00051514883
0.00047595777
0.00043799158
0.00040142354
0.00036640558
0.00033307186
0.00030153888
0.00027190197
0.00024423202
0.0002185736
0.00019494431
0.00017333474
0.00015370914
0.00013600701
0.00012014548
0.00010602236
9.3519866e-05
8.2508539e-05
7.2851503e-05
6.4408608e-05
5.7040393e-05
5.0611649e-05
4.4994463e-05
4.0070642e-05
3.5733463e-05
3.1888757e-05
2.8455347e-05
2.536492e-05
2.2561425e-05
2.0000094e-05
1.7646215e-05
1.5473751e-05
1.3463911e-05
1.1603761e-05
9.8849243e-06
8.3024427e-06
6.853814e-06
5.538243e-06
4.3560492e-06
3.3085091e-06
2.3970381e-06
1.625816e-06
9.9305363e-07
5.2096113e-07
1.700476e-07
6.5304703e-08
0.00072701866
0.00068666057
0.00064667
0.00060704163
0.00056792505
0.00052945968
0.00049181593
0.00045515941
0.000419643
0.00038540939
0.00035259082
0.00032130585
0.00029165593
0.00026372306
0.00023756817
0.00021322987
0.0001907238
0.00017004257
0.00015115648
0.0001340149
0.00011854832
0.00010467092
9.2283573e-05
8.1277145e-05
7.1535933e-05
6.2941059e-05
5.5373698e-05
4.8717986e-05
4.2863519e-05
3.7707352e-05
3.3155483e-05
2.9123798e-05
2.5538515e-05
2.2336185e-05
1.9463308e-05
1.6875662e-05
1.4537418e-05
1.2420136e-05
1.0501709e-05
8.7653385e-06
7.19857e-06
5.7924644e-06
4.5408662e-06
3.4400354e-06
2.4876978e-06
1.6851331e-06
1.02922e-06
5.3909671e-07
1.7861614e-07
6.2201396e-08
0.00076752351
0.00072935504
0.00069126595
0.00065327243
0.00061549373
0.00057805503
0.0005411086
0.00050480664
0.00046929493
0.0004347147
0.0004012023
0.00036888635
0.00033788467
0.0003083019
0.00028022747
0.0002537338
0.00022887483
0.00020568492
0.0001841784
0.00016434962
0.00014617361
0.00012960728
0.00011459117
0.00010105162
8.8903313e-05
7.8052045e-05
6.8397578e-05
5.9836492e-05
5.2264883e-05
4.5580812e-05
3.9686422e-05
3.4489656e-05
2.9905561e-05
2.5857161e-05
2.2275932e-05
1.9101906e-05
1.6283477e-05
1.3776959e-05
1.1545972e-05
9.5607246e-06
7.7972463e-06
6.236647e-06
4.8643922e-06
3.6698427e-06
2.6452593e-06
1.7874771e-06
1.0906133e-06
5.7001297e-07
1.9152209e-07
6.0145285e-08
0.00080247066
0.00076637469
0.00073013733
0.00069379505
0.00065743844
0.0006211783
0.0005851481
0.00054948429
0.00051432151
0.0004797938
0.00044603425
0.00041317277
0.00038133346
0.0003506325
0.00032117602
0.00029305821
0.00026635941
0.00024114458
0.00021746196
0.00019534236
0.00017479864
0.0001558259
0.00013840205
0.00012248888
0.00010803358
9.4970646e-05
8.322405e-05
7.2709637e-05
6.3337597e-05
5.501492e-05
4.7647743e-05
4.1143485e-05
3.541272e-05
3.0370718e-05
2.5938649e-05
2.2044431e-05
1.8623237e-05
1.5617711e-05
1.2977909e-05
1.0661044e-05
8.6310718e-06
6.8581959e-06
5.3182905e-06
3.9924917e-06
2.8662367e-06
1.9306823e-06
1.1759891e-06
6.130646e-07
2.0858403e-07
5.9060908e-08
0.00083192979
0.00079771232
0.00076318696
0.00072840977
0.00069344548
0.00065839175
0.00062336446
0.00058848439
0.00055387363
0.00051965641
0.00048595862
0.00045290626
0.00042062322
0.00038922956
0.0003588395
0.00032955971
0.00030148721
0.00027470772
0.00024929391
0.00022530412
0.00020278122
0.00018175195
0.00016222658
0.00014419907
0.00012764762
0.00011253568
9.8813336e-05