/*--------------------------------*- C++ -*----------------------------------*\
  =========                 |
  \\      /  F ield         | OpenFOAM: The Open Source CFD Toolbox
   \\    /   O peration     | Website:  https://openfoam.org
    \\  /    A nd           | Version:  6
     \\/     M anipulation  |
\*---------------------------------------------------------------------------*/
FoamFile
{
    version     2.0;
    format      ascii;
    class       volVectorField;
    location    "55";
    object      U_0;
}
// * * * * * * * * * * * * * * * * * * * * * * * * * * * * * * * * * * * * * //

dimensions      [0 1 -1 0 0 0 0];

internalField   nonuniform List<vector> 
9200
(
(0.0010550188 0.0014116641 -5.9322828e-20)
(0.0137441 -0.0020944542 4.6151505e-20)
(0.038460685 -0.0059297657 -3.8587629e-20)
(0.072523118 -0.0098541489 -6.0387215e-20)
(0.11413245 -0.013608839 1.8873426e-20)
(0.1620827 -0.01675299 3.2818852e-20)
(0.2153196 -0.018993305 -1.2300631e-20)
(0.27286952 -0.020178808 9.2942177e-21)
(0.33382053 -0.020245429 1.6837803e-20)
(0.39729033 -0.019193221 1.4882785e-21)
(0.46240248 -0.017074997 -2.1511147e-20)
(0.52827696 -0.01398541 2.0725021e-20)
(0.59403255 -0.010050129 -4.05233e-20)
(0.65879923 -0.0054147838 -2.1196555e-20)
(0.721739 -0.00023318197 5.9211382e-21)
(0.78207264 0.0053424043 -2.5216522e-20)
(0.83912599 0.011184665 2.5312686e-20)
(0.89245455 0.017339884 2.2371194e-20)
(0.94165969 0.023940662 -2.7451731e-22)
(0.98402199 0.02761046 -1.6375739e-21)
(0.0052787957 -0.0013606505 -1.7094083e-20)
(0.027063331 -0.0090400941 3.9835693e-20)
(0.061872785 -0.014892852 2.3628342e-20)
(0.10662094 -0.01928494 -1.1592903e-19)
(0.15920203 -0.022355006 -1.2756331e-20)
(0.21815342 -0.023888921 7.3440075e-20)
(0.28215556 -0.023789701 -3.5551947e-20)
(0.34995604 -0.022089554 -8.4081257e-21)
(0.42035661 -0.018892292 3.4365464e-20)
(0.49218912 -0.014354642 -4.3365147e-20)
(0.56430401 -0.0086783433 -3.0422164e-20)
(0.63557688 -0.0020998483 7.214147e-20)
(0.70492854 0.0051213532 3.8409102e-20)
(0.77135412 0.012714334 -6.8208762e-20)
(0.83395718 0.020406688 1.4681741e-20)
(0.89198321 0.027929238 -3.6876995e-20)
(0.94486143 0.035030237 -1.3819252e-20)
(0.99230591 0.041548732 7.1315436e-20)
(1.0341851 0.047068359 2.9848955e-20)
(1.0687008 0.048444223 -8.3698815e-20)
(0.01089827 -0.0040620276 3.6841694e-20)
(0.044092645 -0.015494295 2.5088902e-21)
(0.090780702 -0.022650261 2.2391884e-20)
(0.14752263 -0.026624861 9.8300394e-22)
(0.21191418 -0.028040206 -4.0867382e-20)
(0.28220926 -0.026973069 1.8608267e-20)
(0.35678617 -0.023583204 1.3450867e-20)
(0.43407853 -0.018144033 -5.0437506e-20)
(0.51257851 -0.010980752 5.739643e-20)
(0.59083188 -0.002453261 1.4301501e-20)
(0.66744816 0.0070515358 -5.4463328e-20)
(0.74112913 0.017133288 -1.8306251e-20)
(0.81070739 0.027394674 9.0489739e-21)
(0.87518731 0.037457754 2.3534404e-20)
(0.9337815 0.046978112 -1.1416437e-20)
(0.9859356 0.055654139 2.7989233e-20)
(1.0313432 0.063241563 -2.026195e-20)
(1.0699776 0.069600936 -7.0442607e-20)
(1.1019702 0.074458989 -2.392122e-20)
(1.1264631 0.075929526 4.8810092e-20)
(0.01801246 -0.0064457456 2.455018e-20)
(0.064959537 -0.02076616 5.1133766e-20)
(0.12518602 -0.028167081 1.9917104e-20)
(0.19497118 -0.030597392 1.3007237e-20)
(0.27162874 -0.029250651 1.7304054e-20)
(0.35311012 -0.02456418 -4.7812173e-20)
(0.43747206 -0.017019015 -2.5700737e-20)
(0.52283081 -0.0071876701 0)
(0.60739387 0.0043363485 1.3980046e-20)
(0.68948438 0.016958178 -5.8918746e-21)
(0.76757827 0.030093096 -9.8222682e-20)
(0.84035334 0.043186265 -1.5806122e-20)
(0.90673831 0.055735002 6.5352952e-20)
(0.96595159 0.067308601 4.5466198e-22)
(1.0175229 0.0775631 -1.57884e-21)
(1.0612927 0.086248858 2.2047631e-20)
(1.0973913 0.093217959 -5.2938836e-21)
(1.1262149 0.098453059 -6.1283888e-20)
(1.1483104 0.10192705 -4.6063045e-20)
(1.1636487 0.1026906 6.9750283e-20)
(0.026651938 -0.0082315212 -3.9237627e-21)
(0.089573556 -0.0241079 -5.1331474e-21)
(0.16471322 -0.030371456 5.6694853e-20)
(0.24817439 -0.029938813 1.8568908e-20)
(0.33702623 -0.024658723 -3.2012759e-20)
(0.42892401 -0.015399432 1.2185881e-20)
(0.52162273 -0.0030241016 2.6461689e-21)
(0.61297303 0.011549605 3.3699754e-20)
(0.70099152 0.027434292 5.675723e-21)
(0.78391833 0.043799335 -1.3259671e-20)
(0.86027703 0.059888394 6.0387335e-20)
(0.9289315 0.075044452 -5.8182419e-20)
(0.98912609 0.088733524 -1.3263959e-19)
(1.0404999 0.1005605 -5.5983939e-21)
(1.0830719 0.11027477 8.3484751e-20)
(1.1171983 0.11776491 0)
(1.1435075 0.12304856 1.0154525e-20)
(1.1628318 0.1262755 -1.5523051e-20)
(1.1760927 0.12762785 -8.6366934e-21)
(1.1838543 0.12672666 2.1066586e-20)
(0.03675806 -0.0091155136 -5.4322064e-21)
(0.11759364 -0.024756768 4.3647431e-21)
(0.20859684 -0.028237909 -8.7767509e-21)
(0.30583904 -0.023528215 2.8518581e-20)
(0.40621731 -0.013199111 -2.9449213e-20)
(0.50714135 0.001390788 -1.6962492e-20)
(0.606143 0.018953909 3.7425651e-20)
(0.70092926 0.038210763 4.7629319e-21)
(0.78949327 0.057993876 -2.4533606e-20)
(0.87019813 0.077282538 7.007925e-20)
(0.94184295 0.095223492 4.9742661e-22)
(1.0037041 0.11115402 -8.0746147e-20)
(1.0555409 0.12461629 0)
(1.0975623 0.13535675 3.9704794e-20)
(1.13036 0.14331045 5.5479208e-21)
(1.1548166 0.14857266 -7.7863081e-20)
(1.1720031 0.15136544 -1.9660922e-20)
(1.1830807 0.15201499 -1.2514977e-20)
(1.1891948 0.15086602 -1.4767335e-20)
(1.1912046 0.14787772 4.057083e-20)
(0.048169333 -0.0087909446 -1.729757e-20)
(0.14841059 -0.021993817 -2.2373787e-21)
(0.25568859 -0.020877481 3.0420953e-20)
(0.36622756 -0.010499682 3.7532494e-20)
(0.47687066 0.0058113893 -1.9979513e-20)
(0.58489057 0.02617558 -6.931609e-20)
(0.68774261 0.04887616 -2.8075742e-20)
(0.78318144 0.072302727 7.9136854e-20)
(0.86940264 0.095074834 8.6224024e-21)
(0.94513333 0.11608006 -2.4936562e-20)
(1.009678 0.13448784 1.366233e-20)
(1.0629163 0.14975654 -4.3435803e-21)
(1.1052509 0.16162328 0)
(1.1375137 0.17007333 2.7298091e-20)
(1.1608444 0.17529357 -7.960285e-20)
(1.1765606 0.17761682 -3.1587235e-20)
(1.1860344 0.17746686 8.1343529e-20)
(1.190592 0.17531791 -4.3186874e-21)
(1.191431 0.17161849 3.5668357e-21)
(1.1894711 0.16651458 2.7218474e-20)
(0.060614893 -0.0069758107 -3.2449921e-20)
(0.18115192 -0.015215861 -8.1746316e-20)
(0.30450089 -0.0076360334 2.5633888e-21)
(0.42725994 0.0096526963 7.0287461e-20)
(0.54638575 0.032584067 6.2545059e-20)
(0.65918465 0.058772323 -7.1704552e-20)
(0.7632454 0.086121412 -2.6032321e-22)
(0.85661251 0.11278013 8.577561e-20)
(0.93793577 0.13727827 4.896585e-20)
(1.0065388 0.15855514 -5.4393639e-20)
(1.0624152 0.17594959 -9.2628927e-20)
(1.1061604 0.18917333 -3.1692215e-21)
(1.1388503 0.19826118 4.2265663e-20)
(1.161889 0.20350119 -6.6285141e-21)
(1.1768491 0.20535511 -1.2910193e-20)
(1.1853251 0.20437971 1.9750748e-20)
(1.1888172 0.20115963 4.4027581e-20)
(1.1886526 0.19626183 -4.4001769e-20)
(1.185942 0.1901752 -1.026774e-19)
(1.1815172 0.18313468 2.4666227e-20)
(0.073684953 -0.0034436106 -3.5035018e-20)
(0.21464316 -0.0040117511 -1.7407895e-19)
(0.35318263 0.011822105 8.2261611e-20)
(0.48651856 0.037012098 9.2939519e-20)
(0.61193627 0.066837858 5.8078867e-20)
(0.72700284 0.098484635 8.6315602e-21)
(0.8296941 0.12959077 -1.0649137e-19)
(0.91860332 0.15821434 0)
(0.99306743 0.18296519 -6.8970841e-20)
(1.0531835 0.20300369 -1.5256533e-20)
(1.0997334 0.21798669 5.4871085e-20)
(1.1340396 0.22799054 1.1009152e-20)
(1.1577818 0.2334124 -4.5754976e-20)
(1.1728045 0.23486067 -4.9230428e-20)
(1.1809453 0.23304946 2.4367983e-20)
(1.1839009 0.22870911 4.4971529e-20)
(1.1831413 0.22252099 -5.5782564e-20)
(1.1798712 0.21508006 -1.0785615e-19)
(1.1750308 0.20685974 -3.1507285e-21)
(1.1692946 0.19812581 2.7132975e-20)
(0.086814173 0.0019611177 -3.5630522e-21)
(0.24741167 0.011822329 8.8042792e-20)
(0.3995559 0.03751693 -1.6425136e-20)
(0.54133447 0.071262637 -8.4500961e-20)
(0.67060867 0.10784549 4.5263199e-20)
(0.78546348 0.14417242 4.925908e-20)
(0.88452111 0.17779975 5.550442e-21)
(0.96715401 0.20689931 -9.9765057e-20)
(1.0335566 0.23036063 -2.5120646e-21)
(1.0846871 0.24773619 5.0655103e-20)
(1.122113 0.25912537 6.0037286e-21)
(1.1477998 0.26503775 -1.9777245e-20)
(1.1638865 0.26624695 -7.5928081e-20)
(1.1724835 0.26365137 -6.2694941e-21)
(1.1755176 0.25815803 4.3659169e-20)
(1.1746358 0.25059897 3.7128355e-20)
(1.1711648 0.24168215 1.9842556e-20)
(1.1661181 0.23197233 -5.3181673e-20)
(1.1602354 0.2218876 1.2963945e-20)
(1.1540191 0.21169481 8.289947e-20)
(-0.001296463 0.0014381901 -1.1241089e-21)
(-0.0047573287 0.0031947678 2.0687648e-21)
(-0.010796065 0.0041449293 8.8727974e-22)
(-0.017793542 0.0045488574 -2.4384165e-21)
(-0.024793075 0.0045741156 -1.4213521e-21)
(-0.03136382 0.0043334836 1.5564382e-21)
(-0.037234386 0.0039092905 -6.8988858e-21)
(-0.042226282 0.0033614694 -5.9828258e-21)
(-0.046239089 0.0027328912 1.1217516e-20)
(-0.0492265 0.0020539161 -9.7826787e-21)
(-0.051176362 0.001345798 -1.9874874e-22)
(-0.052097842 0.00062317535 3.6836623e-21)
(-0.052013008 -0.00010404086 -6.352363e-22)
(-0.050951084 -0.0008291591 2.2920795e-20)
(-0.048944824 -0.0015473388 3.0421344e-22)
(-0.046029977 -0.0022541337 -4.1077499e-20)
(-0.042247601 -0.0029449011 7.5778273e-21)
(-0.037635801 -0.0036175621 2.3983027e-20)
(-0.032202655 -0.0042706255 -4.4078659e-20)
(-0.026007387 -0.0048558918 -2.788621e-20)
(-0.0016561198 0.004190991 -5.3877932e-21)
(-0.005409721 0.0092891484 1.0885076e-20)
(-0.011242673 0.012033142 -1.0218889e-20)
(-0.017694303 0.013180158 3.9441455e-21)
(-0.023903036 0.013219822 4.8369751e-21)
(-0.029487581 0.0124833 7.1644431e-22)
(-0.034211018 0.011212464 -2.2603487e-20)
(-0.037919892 0.0095832985 -2.0446336e-21)
(-0.040530743 0.0077216455 2.0243088e-20)
(-0.042008213 0.0057165847 -5.0674974e-21)
(-0.042346844 0.0036304221 -2.1851761e-20)
(-0.041559434 0.0015060015 4.9176624e-21)
(-0.039669452 -0.00062776973 2.2727967e-20)
(-0.036705722 -0.0027514974 1.0353528e-20)
(-0.032698628 -0.0048512648 2.1956253e-20)
(-0.027680547 -0.006914532 -1.9862449e-20)
(-0.021695578 -0.0089283221 -2.1774656e-20)
(-0.014790902 -0.01088606 2.1294552e-20)
(-0.0069012651 -0.012773202 2.6943961e-20)
(0.0021622387 -0.014423754 1.5928694e-20)
(-0.0023085597 0.0065756103 -4.3697498e-21)
(-0.0065527395 0.01451186 -5.6465808e-21)
(-0.011914708 0.018748996 3.063772e-22)
(-0.017241007 0.020467216 1.0904414e-21)
(-0.021853195 0.020435723 6.7137718e-21)
(-0.025465375 0.019180493 1.0699746e-20)
(-0.027907522 0.01708647 -3.7369148e-21)
(-0.029074839 0.014433821 -1.8964111e-20)
(-0.028916933 0.011423102 6.565813e-21)
(-0.027420089 0.0081964333 1.2911413e-20)
(-0.024592491 0.0048532575 5.8600042e-21)
(-0.020455002 0.0014618821 1.8227985e-20)
(-0.015035141 -0.0019318658 1.7366643e-21)
(-0.0083627172 -0.0052977599 -3.400216e-20)
(-0.00046600455 -0.0086145656 1.2123406e-21)
(0.0086267416 -0.011863515 -2.2225441e-20)
(0.018864303 -0.015027026 -2.4585265e-20)
(0.030178295 -0.018096329 4.6042592e-20)
(0.042757785 -0.021018313 2.5481012e-20)
(0.057279912 -0.023431175 1.3316013e-22)
(-0.0031354775 0.0083876146 -5.2998223e-21)
(-0.0079108241 0.018374347 -8.523257e-21)
(-0.01245816 0.023633124 4.3702313e-21)
(-0.016046116 0.025654646 4.1595924e-21)
(-0.018249899 0.025421997 2.0159736e-21)
(-0.018917301 0.023619024 7.3473464e-21)
(-0.017973312 0.0207477 9.3448025e-21)
(-0.015383143 0.01717352 -1.3560973e-21)
(-0.011144958 0.013158617 -1.1521776e-20)
(-0.005278012 0.0088891084 -2.9176062e-20)
(0.0021873131 0.0044953449 6.3902189e-23)
(0.011214803 6.6852267e-05 4.0847882e-20)
(0.021766973 -0.0043368852 -1.8447319e-20)
(0.033806653 -0.0086771572 -1.2343789e-20)
(0.047301213 -0.012928005 5.4906435e-22)
(0.062220781 -0.017068557 3.2438923e-20)
(0.078501916 -0.021084092 -1.4905468e-20)
(0.096037461 -0.024973126 -5.3568127e-20)
(0.11514906 -0.02861815 4.5962921e-20)
(0.1372169 -0.031339298 3.3160351e-20)
(-0.0039778191 0.0094853418 -6.8683278e-22)
(-0.0091056486 0.020526513 -1.2568427e-20)
(-0.012377401 0.026204244 -3.4251599e-20)
(-0.013557023 0.028186244 -5.7463608e-21)
(-0.012521874 0.027589506 -3.628568e-21)
(-0.0092820246 0.025209751 6.3254736e-21)
(-0.0038800126 0.021633093 -4.6618837e-21)
(0.0036304394 0.017286236 -8.8346577e-21)
(0.013187732 0.012475732 2.1968542e-20)
(0.02472688 0.0074195424 5.0704844e-21)
(0.038184229 0.0022707067 -2.5381454e-20)
(0.053497696 -0.0028656222 1.1113007e-20)
(0.070607346 -0.0079196897 0)
(0.089456067 -0.01284747 1.2132843e-20)
(0.10999275 -0.017621888 -9.737373e-21)
(0.13217137 -0.022225228 -1.4395449e-20)
(0.15590335 -0.026656062 -1.5624039e-21)
(0.18102025 -0.030940915 -2.2339946e-21)
(0.20793779 -0.03489399 4.6313606e-20)
(0.23889633 -0.037372139 -1.0538151e-20)
(-0.0046526386 0.0097991568 -7.5535297e-21)
(-0.0096884225 0.020782138 2.4586944e-20)
(-0.01106705 0.026198764 -1.0532829e-20)
(-0.0090804047 0.027756956 -2.7546965e-20)
(-0.0039343299 0.026622523 -2.7620493e-20)
(0.004180132 0.023652908 -1.4964199e-20)
(0.015086119 0.019481204 -6.928567e-22)
(0.028625635 0.01456708 5.565009e-21)
(0.04465942 0.0092413574 1.9669873e-20)
(0.06306311 0.0037400916 7.3746658e-21)
(0.083722759 -0.0017708978 -7.2064709e-21)
(0.10653271 -0.0071776903 -2.0117651e-21)
(0.13139194 -0.012405313 -3.8315132e-20)
(0.15820154 -0.017408189 -1.2735469e-20)
(0.18686655 -0.022161877 1.8824269e-20)
(0.21729693 -0.026657114 -2.1102933e-20)
(0.24935543 -0.030916554 -9.0061764e-21)
(0.28278601 -0.035023938 3.0538553e-20)
(0.31802348 -0.03875959 5.0646156e-20)
(0.35822917 -0.040399652 3.3700866e-21)
(-0.0049682054 0.0093289916 1.6820326e-20)
(-0.0091712549 0.019122735 1.4500388e-20)
(-0.0078465406 0.02358727 5.1277336e-20)
(-0.001814177 0.024343527 2.3452936e-20)
(0.008383935 0.022522904 1.830342e-22)
(0.022365669 0.018993533 -3.9494865e-20)
(0.039807927 0.014396754 -2.4379748e-20)
(0.06043606 0.0091962522 1.0492192e-20)
(0.084015571 0.0037250919 1.4439641e-20)
(0.1103418 -0.0017792549 -1.3144458e-20)
(0.1392294 -0.0071503903 -4.4164822e-20)
(0.17050368 -0.012275156 2.9706139e-20)
(0.20399314 -0.017080842 2.0074958e-20)
(0.23952372 -0.021526466 -2.7635751e-20)
(0.27691866 -0.025596049 1.1690253e-20)
(0.31600207 -0.029295359 2.427623e-20)
(0.35655094 -0.032681163 8.1029343e-21)
(0.39819257 -0.035926414 -1.1813585e-20)
(0.44128765 -0.038856742 -1.4225486e-20)
(0.48985292 -0.039143653 5.9325395e-21)
(-0.0047345552 0.0081338393 1.1120915e-20)
(-0.0070531799 0.015683228 -2.3420462e-20)
(-0.0019946504 0.018566929 8.6336601e-21)
(0.0091131139 0.018207017 3.3676623e-20)
(0.025397383 0.015622447 5.2255675e-20)
(0.046281315 0.011643442 2.0327652e-20)
(0.071286154 0.0068823652 -5.8802502e-21)
(0.10000219 0.0017756313 -1.2314194e-20)
(0.13207902 -0.0033651322 -6.2245918e-21)
(0.16720602 -0.0083198208 3.4329423e-20)
(0.20509434 -0.012937174 -4.5291561e-21)
(0.24546298 -0.017118112 -1.6692686e-20)
(0.28802773 -0.02080402 -1.9744682e-20)
(0.332493 -0.023969463 -4.7583873e-20)
(0.37855056 -0.026617567 2.3307904e-20)
(0.42588714 -0.028780071 -1.4141577e-20)
(0.47415048 -0.030561027 2.6086302e-20)
(0.52283303 -0.032258828 2.1113289e-20)
(0.57214721 -0.033870992 -8.5798676e-20)
(0.62677173 -0.032626702 -9.4693385e-23)
(-0.0037703858 0.0063189792 2.1973399e-20)
(-0.0028450502 0.010731725 -2.6234608e-20)
(0.007206077 0.011546765 -4.5120502e-20)
(0.024576444 0.0098884601 -2.7320994e-20)
(0.048075694 0.0065924508 -2.0488952e-21)
(0.076927069 0.0024043899 1.3077052e-20)
(0.11048219 -0.0021302398 -2.8368675e-21)
(0.14817687 -0.0066331114 1.815928e-20)
(0.18951596 -0.010840513 8.8862733e-21)
(0.23404643 -0.014572501 -1.1406773e-20)
(0.28133289 -0.017713299 8.9073931e-21)
(0.33093964 -0.020196627 -2.3965128e-20)
(0.3824174 -0.021995236 8.0788853e-21)
(0.43529437 -0.023114434 1.6805998e-20)
(0.48907458 -0.023588227 -2.6472143e-21)
(0.54324744 -0.023481508 1.6658233e-21)
(0.59727069 -0.022945815 -3.162702e-22)
(0.65047449 -0.022388855 1.9654743e-20)
(0.70288191 -0.022007838 4.0558378e-21)
(0.75959291 -0.019109772 -6.4122127e-22)
(-0.0019039502 0.0040253896 2.3749055e-20)
(0.0039107876 0.0046566993 5.7304522e-20)
(0.020416534 0.0031472695 -4.935816e-20)
(0.045360101 0.00022995761 -9.9686091e-21)
(0.077245125 -0.0035149625 2.0299722e-20)
(0.11508987 -0.0074725305 2.1480299e-21)
(0.15805966 -0.011203297 -2.9879072e-20)
(0.20540774 -0.014422866 6.9967545e-21)
(0.25645663 -0.016947923 7.130573e-21)
(0.31056605 -0.018669109 -2.6318179e-20)
(0.36710553 -0.019535403 1.2971111e-21)
(0.4254366 -0.019541501 -3.7272419e-20)
(0.48490261 -0.018717573 -3.6443669e-20)
(0.54482461 -0.017121043 6.5883467e-20)
(0.60450335 -0.014829375 5.5813043e-21)
(0.66322548 -0.011939363 -1.5250689e-20)
(0.72024767 -0.0086089372 1.9425534e-20)
(0.77472116 -0.005144904 -9.218757e-22)
(0.82616898 -0.0015674919 2.0395819e-20)
(0.87833005 0.0036780575 -1.9657584e-20)
(-0.018633202 -0.0051372945 5.8675033e-20)
(-0.0099558865 -0.0056766579 1.5866302e-20)
(0.00012359228 -0.0061146586 -3.5335655e-20)
(0.011253732 -0.00638336 1.6896018e-20)
(0.023168011 -0.0065645768 0)
(0.035808129 -0.0066858325 0)
(0.049114828 -0.0067498119 -2.3124126e-20)
(0.063008763 -0.00676434 -1.6610276e-20)
(0.077419885 -0.0067388189 1.9261895e-20)
(0.092289108 -0.0066800493 1.8306531e-20)
(0.10756191 -0.0065932293 1.0578711e-21)
(0.12318698 -0.0064829316 -1.039056e-20)
(0.13911651 -0.0063531275 8.4029773e-21)
(0.15530587 -0.0062071781 1.8369224e-20)
(0.17171291 -0.0060479619 -5.28529e-21)
(0.18829767 -0.005877981 -1.0252361e-20)
(0.20502218 -0.0056994245 -4.3527303e-21)
(0.22185027 -0.0055142212 -4.4524096e-21)
(0.23874749 -0.0053240838 7.3952655e-22)
(0.25568108 -0.0051305451 1.2412871e-21)
(0.27261994 -0.0049349838 2.6033178e-21)
(0.28953469 -0.004738645 6.7255639e-21)
(0.30639775 -0.0045426546 2.3393691e-22)
(0.32318339 -0.0043480308 -3.496146e-21)
(0.33986783 -0.0041556913 1.532918e-22)
(0.35642935 -0.0039664601 -5.8584077e-22)
(0.37284835 -0.0037810713 1.2641149e-21)
(0.38910746 -0.0036001742 1.0627551e-21)
(0.4051916 -0.0034243365 -1.3428979e-21)
(0.42108807 -0.0032540485 -1.202663e-22)
(0.43678659 -0.0030897275 1.0746299e-23)
(0.4522794 -0.0029317231 -3.6289615e-22)
(0.46756127 -0.0027803219 -4.3340032e-22)
(0.48262962 -0.0026357541 7.4471048e-23)
(0.49748455 -0.0024982001 -1.4531036e-22)
(0.51212897 -0.0023677979 -2.3379107e-22)
(0.52656872 -0.0022446514 2.7084256e-22)
(0.54081275 -0.0021288395 3.1568301e-22)
(0.55487321 -0.0020204295 -2.3912307e-23)
(0.56876645 -0.0019194801 -1.9312428e-22)
(0.58251113 -0.0018260923 2.9101509e-23)
(0.5961363 -0.0017403235 -4.2948401e-23)
(0.60965963 -0.0016625628 1.2065872e-22)
(0.62315699 -0.0015925219 8.8114504e-24)
(0.63656324 -0.0015326043 -2.0030875e-22)
(0.65026251 -0.0014781242 -9.08615e-24)
(0.66341039 -0.0014476711 5.4403826e-24)
(0.67872424 -0.0013955072 -1.4826763e-23)
(0.68911286 -0.001466717 2.8392044e-23)
(0.71412384 -0.0013390698 5.0861858e-22)
(0.010797854 -0.015132342 -1.2827302e-20)
(0.018598729 -0.0167677 -6.3642516e-20)
(0.028277168 -0.018053941 -3.0728655e-20)
(0.038971833 -0.018820685 3.8707856e-20)
(0.050304839 -0.019341717 1.4754206e-20)
(0.062296767 -0.019696931 -1.8333599e-20)
(0.07491908 -0.019886416 4.7198412e-21)
(0.088095239 -0.019931713 2.5613221e-20)
(0.10176256 -0.019860843 7.6159765e-23)
(0.11587128 -0.01969331 -7.7210177e-21)
(0.13037377 -0.019443742 -1.3088909e-20)
(0.14522391 -0.019125215 -8.60368e-21)
(0.16037835 -0.018749183 1.7903597e-20)
(0.17579616 -0.018325344 9.0519836e-21)
(0.19143825 -0.017862025 -1.6622121e-20)
(0.20726713 -0.017366498 -6.0866565e-21)
(0.22324686 -0.016845156 3.2318493e-21)
(0.23934295 -0.016303651 8.4262287e-21)
(0.25552234 -0.015747025 7.0530681e-21)
(0.27175338 -0.015179802 -7.0707101e-21)
(0.28800592 -0.014606069 -3.24258e-21)
(0.30425135 -0.014029526 1.414832e-21)
(0.32046269 -0.013453526 4.4199938e-22)
(0.33661472 -0.012881111 1.2402493e-21)
(0.35268405 -0.012315025 1.9886177e-22)
(0.36864924 -0.011757739 -3.4481509e-22)
(0.3844909 -0.011211457 -7.4963025e-22)
(0.40019177 -0.010678131 1.0271814e-21)
(0.41573682 -0.010159474 8.6660753e-22)
(0.43111332 -0.0096569658 -1.9443962e-22)
(0.44631089 -0.0091718709 5.9307424e-22)
(0.4613216 -0.0087052513 -2.4626804e-22)
(0.47614003 -0.0082579821 -4.1007437e-22)
(0.49076332 -0.0078307703 -6.5983426e-22)
(0.50519125 -0.0074241746 4.6474498e-22)
(0.51942637 -0.0070386272 -6.2424345e-23)
(0.53347411 -0.0066744596 2.1093864e-22)
(0.54734299 -0.0063319274 -5.1887995e-22)
(0.56104467 -0.0060112524 4.7941486e-22)
(0.574595 -0.0057126303 7.7247513e-23)
(0.58801211 -0.0054363823 -1.0177185e-22)
(0.60132441 -0.0051826978 2.5543912e-22)
(0.61454911 -0.004952758 3.5875635e-22)
(0.62776102 -0.0047457117 2.8243527e-22)
(0.6408954 -0.0045687632 3.1157314e-22)
(0.65433202 -0.0044079025 -4.7240394e-23)
(0.66723586 -0.0043186839 2.1737556e-22)
(0.68229174 -0.0041645161 2.1535222e-22)
(0.69249579 -0.0043780285 -3.7805533e-22)
(0.71713796 -0.0039996261 -1.9514095e-23)
(0.068237981 -0.024225528 9.5085163e-21)
(0.074282686 -0.026963972 3.3259148e-21)
(0.08304208 -0.029039161 -1.2266426e-20)
(0.092818004 -0.030217928 -1.2479638e-21)
(0.10295398 -0.031032218 1.5078137e-20)
(0.1136258 -0.031610076 -1.4981969e-20)
(0.12487332 -0.031929661 -3.0055621e-20)
(0.13662156 -0.032020428 1.4609756e-20)
(0.14881891 -0.031928406 1.8327123e-20)
(0.16143291 -0.031683754 -1.1693126e-20)
(0.17442847 -0.031308048 1.0266022e-21)
(0.18776847 -0.030821148 8.7169338e-21)
(0.20141723 -0.030240805 -1.5394581e-20)
(0.21534027 -0.029582107 3.009596e-21)
(0.22950369 -0.028858067 7.6038507e-21)
(0.24387423 -0.028080152 -2.7132281e-23)
(0.25841936 -0.02725853 2.2865137e-22)
(0.27310739 -0.02640227 -7.5151646e-21)
(0.28790752 -0.025519515 3.979792e-21)
(0.30278997 -0.024617629 8.6026011e-21)
(0.31772607 -0.023703298 -3.8951945e-21)
(0.33268843 -0.022782612 -2.2383202e-21)
(0.34765106 -0.021861115 1.0054458e-21)
(0.36258949 -0.020943853 -1.7588232e-21)
(0.37748092 -0.020035402 1.371897e-21)
(0.39230432 -0.019139887 7.2938512e-22)
(0.40704056 -0.018261008 1.6358286e-21)
(0.42167251 -0.017402047 -2.0714253e-21)
(0.43618515 -0.016565894 2.371253e-21)
(0.45056561 -0.01575506 5.8625609e-22)
(0.4648033 -0.014971697 4.9318702e-22)
(0.47888994 -0.014217623 3.3129845e-22)
(0.49281965 -0.01349435 9.8389305e-22)
(0.50658906 -0.012803109 -1.5495098e-21)
(0.52019733 -0.012144888 4.3067493e-22)
(0.53364631 -0.011520463 1.7359638e-22)
(0.54694066 -0.010930444 -6.7970102e-23)
(0.56008807 -0.010375314 6.0769133e-23)
(0.57309931 -0.0098554998 -4.5213409e-22)
(0.58598925 -0.0093713839 2.4470216e-22)
(0.59877504 -0.0089235549 -4.0633574e-23)
(0.61148395 -0.0085123793 6.0507025e-22)
(0.62413222 -0.0081398694 -2.9723039e-22)
(0.63679273 -0.007804656 6.4352173e-23)
(0.64940148 -0.0075187206 8.7043978e-23)
(0.66233001 -0.0072589145 -1.4410446e-22)
(0.67476103 -0.0071170275 -2.9668163e-22)
(0.68931714 -0.0068678109 8.9086822e-22)
(0.69916289 -0.0072227563 3.375777e-22)
(0.72308966 -0.0066078139 -1.1700255e-21)
(0.15118877 -0.031743967 1.5180341e-21)
(0.15459352 -0.035564049 -1.1610498e-20)
(0.16175079 -0.038341451 6.6628722e-21)
(0.17003915 -0.039830035 -1.3401295e-20)
(0.17831958 -0.040890936 -1.9877349e-21)
(0.18697166 -0.041691877 9.2366071e-21)
(0.19615171 -0.042165778 -9.8695862e-21)
(0.20578247 -0.042340526 1.5459394e-21)
(0.21582026 -0.042277857 1.2993148e-20)
(0.22625513 -0.0420161 3.4496878e-21)
(0.23706837 -0.0415806 -6.2550901e-21)
(0.24823343 -0.040995385 -2.909299e-21)
(0.25972348 -0.040282724 -5.8500745e-21)
(0.27151165 -0.039461807 -6.5297062e-21)
(0.28357007 -0.038549328 3.2123556e-21)
(0.29587023 -0.037560182 7.9066708e-22)
(0.30838342 -0.036507766 1.404051e-21)
(0.32108098 -0.03540418 -3.4165953e-21)
(0.33393457 -0.034260413 -4.3341621e-21)
(0.34691634 -0.033086496 2.4127185e-21)
(0.35999916 -0.031891621 3.3132563e-21)
(0.37315684 -0.030684216 -1.6339397e-21)
(0.38636434 -0.029472006 1.6305342e-21)
(0.39959787 -0.028262061 -4.2269706e-22)
(0.41283513 -0.027060818 -4.0830468e-21)
(0.42605538 -0.02587411 -3.1091515e-21)
(0.43923964 -0.024707188 -2.2167495e-22)
(0.45237075 -0.023564732 4.0915202e-22)
(0.46543352 -0.02245088 -2.2843391e-21)
(0.47841477 -0.021369245 -9.5660879e-22)
(0.49130348 -0.020322946 2.3439711e-22)
(0.5040908 -0.019314638 -1.3690942e-21)
(0.51677019 -0.018346547 -2.0836727e-23)
(0.52933746 -0.017420511 -4.9086593e-22)
(0.54179089 -0.016538026 -4.9668933e-22)
(0.55413135 -0.015700297 -6.5334051e-22)
(0.56636242 -0.014908293 -1.0496579e-21)
(0.57849063 -0.014162805 -3.9371551e-23)
(0.5905255 -0.013464544 -4.335306e-24)
(0.60248059 -0.012814155 -6.8139819e-22)
(0.61437167 -0.012212568 -6.942655e-23)
(0.62622444 -0.011660397 -4.874093e-22)
(0.63805384 -0.01116054 -7.1065757e-22)
(0.64993004 -0.010711193 6.2219136e-22)
(0.6617901 -0.010329037 2.3565501e-23)
(0.67399388 -0.0099821703 3.5273671e-22)
(0.68574955 -0.0097971977 -3.2353e-22)
(0.6995901 -0.0094643986 -5.9596642e-22)
(0.70892313 -0.0099586223 1.0103041e-22)
(0.73182124 -0.0091308267 6.6477213e-22)
(0.25603636 -0.03692706 -2.1019946e-20)
(0.25589702 -0.041793444 4.7810848e-20)
(0.26059038 -0.04517265 1.0393388e-20)
(0.2667031 -0.046892817 -1.5853088e-20)
(0.2724346 -0.04818786 -2.0529997e-21)
(0.2783569 -0.049244266 2.6185372e-21)
(0.28479182 -0.049932859 -1.6923077e-21)
(0.2916607 -0.050269262 -4.7161734e-21)
(0.29891609 -0.050324057 -4.0431238e-21)
(0.30656949 -0.050140681 -1.2293722e-20)
(0.31462016 -0.049745888 1.8065898e-20)
(0.32305137 -0.049165183 6.5985022e-21)
(0.33184369 -0.048423206 -1.6910651e-20)
(0.34097678 -0.047541887 1.0347093e-20)
(0.35042801 -0.046540666 8.3966514e-21)
(0.36017277 -0.045437162 -8.2790994e-22)
(0.37018537 -0.044247517 -3.108072e-21)
(0.38043948 -0.042986563 -3.9155212e-21)
(0.39090851 -0.041667966 -1.4333812e-21)
(0.40156594 -0.040304352 -1.2724422e-21)
(0.41238562 -0.038907407 -3.1208978e-21)
(0.42334206 -0.037487942 0)
(0.43441066 -0.036055936 -1.3952209e-21)
(0.44556791 -0.034620573 4.0112016e-21)
(0.45679156 -0.033190263 5.5762615e-21)
(0.46806085 -0.031772664 -9.5399904e-22)
(0.47935654 -0.030374693 -3.0977061e-21)
(0.49066116 -0.029002553 3.2369829e-21)
(0.50195902 -0.02766175 1.9812084e-22)
(0.51323637 -0.026357122 3.6777215e-21)
(0.52448144 -0.025092874 -5.484696e-22)
(0.53568459 -0.023872612 1.8363016e-21)
(0.54683832 -0.022699395 -8.9033704e-22)
(0.55793741 -0.021575782 3.6352282e-22)
(0.56897902 -0.020503889 -5.1708748e-22)
(0.57996278 -0.019485456 6.2691786e-22)
(0.59089095 -0.01852192 5.4993264e-22)
(0.60176867 -0.017614484 4.7128328e-22)
(0.61260397 -0.016764243 -1.2008447e-21)
(0.62340883 -0.015972202 8.8226605e-22)
(0.63419739 -0.015239725 -4.8634166e-22)
(0.64499346 -0.014567761 -1.5772952e-21)
(0.65581044 -0.013960157 2.1061065e-21)
(0.66671522 -0.01341478 -8.6390758e-23)
(0.67764628 -0.012952886 -2.6963516e-22)
(0.68894877 -0.012534368 -1.3899949e-23)
(0.69986319 -0.012318627 -3.1364685e-22)
(0.71280886 -0.011917351 -9.8498018e-22)
(0.72150195 -0.012547489 8.5801115e-22)
(0.74310491 -0.011538306 -6.7502522e-23)
(0.37805494 -0.038831621 -1.7596953e-20)
(0.37349097 -0.044760647 1.2882529e-20)
(0.37473743 -0.0486805 3.0168493e-21)
(0.37788277 -0.050643953 -7.6769157e-21)
(0.38038374 -0.052240773 1.2123716e-20)
(0.38291192 -0.053639112 7.8380243e-21)
(0.38598246 -0.05465251 -1.2705158e-20)
(0.38953218 -0.055280827 -6.106678e-21)
(0.39349375 -0.055590524 1.2781194e-20)
(0.39788809 -0.055624047 -1.5457578e-20)
(0.40272999 -0.05540845 -1.4161585e-20)
(0.40801044 -0.054969279 1.4294827e-20)
(0.41371383 -0.054331717 6.8737611e-21)
(0.41982313 -0.053519266 -4.3237832e-21)
(0.42631849 -0.052553535 -1.8141949e-21)
(0.43317724 -0.05145454 -4.0359937e-21)
(0.44037491 -0.050240984 5.2881069e-21)
(0.44788596 -0.04893039 3.7020993e-21)
(0.45568424 -0.047539168 -3.2557478e-21)
(0.4637434 -0.046082675 3.1688071e-21)
(0.47203727 -0.044575268 2.8301878e-21)
(0.48054014 -0.043030338 -3.2825353e-21)
(0.48922706 -0.041460335 3.7537372e-22)
(0.49807408 -0.039876776 -3.2972748e-21)
(0.50705842 -0.038290258 7.5799274e-21)
(0.51615864 -0.036710472 6.3360918e-21)
(0.52535483 -0.035146209 8.8858647e-22)
(0.53462867 -0.033605384 -1.8365246e-21)
(0.54396363 -0.032095057 3.9860146e-21)
(0.55334497 -0.030621467 7.7251929e-21)
(0.5627599 -0.029190067 2.4336908e-21)
(0.57219766 -0.027805576 3.6190993e-21)
(0.58164956 -0.026472035 2.1649443e-21)
(0.59110912 -0.025192864 8.392618e-22)
(0.60057216 -0.023970939 -2.7670266e-22)
(0.61003689 -0.022808668 3.1382618e-21)
(0.61950409 -0.021708077 7.2363386e-22)
(0.62897733 -0.020670903 3.4517496e-22)
(0.63846302 -0.019698741 6.5374394e-23)
(0.64797141 -0.018793064 1.2911945e-21)
(0.65751487 -0.017955767 5.529164e-23)
(0.66711514 -0.017188234 6.3518712e-22)
(0.67678398 -0.016495326 -1.7023106e-22)
(0.68658454 -0.015874696 -4.5222006e-22)
(0.69645712 -0.015352011 -2.5421509e-22)
(0.70672969 -0.014879609 -7.5993084e-22)
(0.7166809 -0.014647222 3.7181546e-22)
(0.72859623 -0.014195059 -2.5347437e-22)
(0.73655507 -0.014956745 -4.8448028e-22)
(0.75665258 -0.013803074 3.760845e-22)
(0.511261 -0.036518805 3.6390159e-21)
(0.50159464 -0.043533558 -1.9022257e-20)
(0.49842537 -0.047985314 -2.3245019e-21)
(0.49780361 -0.050366639 5.5109662e-21)
(0.49652061 -0.052476324 3.082886e-21)
(0.49515435 -0.054392476 -2.2062734e-23)
(0.49438472 -0.055903303 6.2596182e-21)
(0.4942081 -0.057009309 7.6816804e-21)
(0.49453394 -0.057762394 9.9112788e-21)
(0.49536961 -0.058195075 -1.1336556e-20)
(0.49673511 -0.058333141 -2.1771929e-20)
(0.49862625 -0.058202336 -3.9990395e-21)
(0.50102741 -0.057827938 1.6094384e-20)
(0.50392057 -0.057234605 1.2935559e-20)
(0.50728532 -0.056446136 -5.9265168e-21)
(0.51109841 -0.055485215 1.3389738e-21)
(0.51533453 -0.054373445 -3.7491235e-21)
(0.5199671 -0.053131405 2.3705285e-21)
(0.52496893 -0.051778646 -2.9413643e-22)
(0.53031254 -0.050333659 -1.8992987e-21)
(0.53597059 -0.048813872 8.0209611e-21)
(0.5419162 -0.047235644 -3.3061467e-22)
(0.54812322 -0.045614255 4.5789737e-22)
(0.55456646 -0.043963902 -6.2816162e-22)
(0.56122192 -0.042297691 -4.4243682e-21)
(0.5680669 -0.040627643 4.3385184e-21)
(0.57508021 -0.0389647 1.9325399e-21)
(0.58224228 -0.037318745 -3.4311473e-21)
(0.58953523 -0.03569863 -4.2270643e-21)