/*--------------------------------*- C++ -*----------------------------------*\
  =========                 |
  \\      /  F ield         | OpenFOAM: The Open Source CFD Toolbox
   \\    /   O peration     | Website:  https://openfoam.org
    \\  /    A nd           | Version:  6
     \\/     M anipulation  |
\*---------------------------------------------------------------------------*/
FoamFile
{
    version     2.0;
    format      ascii;
    class       surfaceScalarField;
    location    "95";
    object      phi;
}
// * * * * * * * * * * * * * * * * * * * * * * * * * * * * * * * * * * * * * //

dimensions      [0 3 -1 0 0 0 0];

internalField   nonuniform List<scalar> 
18180
(
0.00031877386
-0.00016324808
-0.00015552581
0.0013093897
-0.0013672778
0.0003766619
0.0030332952
-0.003334354
0.0016104485
0.0055505102
-0.0059771591
0.0034599441
0.0089193675
-0.0092408365
0.0058719792
0.013194524
-0.013081931
0.0088067741
0.018424301
-0.017462969
0.012233192
0.024647714
-0.02234973
0.016126318
0.031891321
-0.027708117
0.020464509
0.040166149
-0.033501532
0.025226704
0.049465004
-0.039689128
0.030390273
0.05976055
-0.046224885
0.03592934
0.071004536
-0.053057516
0.041813529
0.083128661
-0.060131225
0.0480071
0.096047654
-0.067387414
0.054468422
0.10966511
-0.074767455
0.061149997
0.12388152
-0.082216353
0.067999943
0.13860949
-0.089687057
0.074959086
0.15384755
-0.097162422
0.081924363
-0.10464007
0.088693366
0.16979426
0.00039754788
-0.00056079598
0.0016097958
-0.0025795257
0.0036897717
-0.0054143299
0.0066882545
-0.008975642
0.010651925
-0.013204507
0.015619706
-0.018049712
0.021618753
-0.023462016
0.028660489
-0.029391466
0.036736973
-0.0357846
0.045818001
-0.04258256
0.055849372
-0.049720499
0.066752672
-0.057128186
0.07842683
-0.064731674
0.090751519
-0.072455913
0.10359221
-0.080228102
0.11680625
-0.087981497
0.13024908
-0.095659182
0.14378098
-0.10321896
0.15726602
-0.11064746
-0.11787519
0.17050114
0.00048068015
-0.0010414761
0.0019189191
-0.0040177647
0.0043529706
-0.0078483814
0.0078174308
-0.012440102
0.012339007
-0.017726083
0.017931112
-0.023641818
0.024588789
-0.030119693
0.032284434
-0.037087111
0.040964766
-0.044464933
0.05054953
-0.052167324
0.060932301
-0.06010327
0.071983562
-0.068179447
0.083555935
-0.076304047
0.09549115
-0.084391129
0.10762802
-0.092364975
0.11981036
-0.10016384
0.13189365
-0.10774247
0.14374844
-0.11507375
0.15525277
-0.12215179
-0.12892652
0.16630409
0.00056623163
-0.0016077078
0.0022281792
-0.0056797122
0.0050011302
-0.010621332
0.0088949114
-0.016333883
0.013906627
-0.022737799
0.020013788
-0.029748979
0.027168974
-0.037274879
0.035296493
-0.04521463
0.044291497
-0.053459936
0.054021912
-0.061897739
0.064333241
-0.070414599
0.075055892
-0.078902097
0.086014347
-0.087262501
0.097037182
-0.095413965
0.1079668
-0.10329459
0.11866774
-0.11086478
0.12903268
-0.11810741
0.13898508
-0.12502615
0.14847597
-0.13164268
-0.13795627
0.15750572
0.00065095222
-0.00225866
0.0025245886
-0.0075533486
0.0056041662
-0.01370091
0.0098653707
-0.020595088
0.01526596
-0.028138388
0.021738244
-0.036221263
0.02918481
-0.044721444
0.037477687
-0.053507508
0.04646119
-0.062443439
0.055958311
-0.07139486
0.065780046
-0.080236334
0.075736595
-0.088858647
0.085649082
-0.097174988
0.095360349
-0.10512523
0.10474357
-0.11267781
0.11370779
-0.119829
0.12220007
-0.12659969
0.13020427
-0.13303035
0.13773662
-0.13917504
-0.14507751
0.14485787
0.00073070413
-0.0029893642
0.0027923362
-0.0096149807
0.0061271015
-0.017035675
0.010667591
-0.025135577
0.016323926
-0.033794724
0.02297693
-0.042874266
0.0304765
-0.052221014
0.038644787
-0.061675795
0.04728379
-0.071082442
0.056186411
-0.080297481
0.065149479
-0.089199401
0.073986932
-0.0976961
0.082541383
-0.10572944
0.090692606
-0.11327646
0.098362024
-0.12034723
0.10551302
-0.12698
0.11214758
-0.13323425
0.11830021
-0.13918297
0.12403041
-0.14490524
-0.15047221
0.12942511
0.00080079972
-0.0037901639
0.0030141607
-0.011828342
0.0065333982
-0.020554913
0.01124087
-0.029843049
0.01699385
-0.039547704
0.023620015
-0.049500432
0.030919946
-0.059520945
0.038675213
-0.069431063
0.046660706
-0.079067935
0.054659218
-0.088295993
0.062476008
-0.09701619
0.069951076
-0.10517117
0.076967512
-0.11274587
0.083454955
-0.1197639
0.089388178
-0.12628046
0.09478153
-0.13237335
0.09968063
-0.13813335
0.10415291
-0.14365526
0.10827861
-0.14903094
-0.15434157
0.11214796
0.00085612513
-0.0046462891
0.0031722911
-0.014144508
0.0067876875
-0.02417031
0.011530528
-0.034585889
0.017204419
-0.045221596
0.023587749
-0.055883761
0.030441208
-0.066374403
0.037520679
-0.076510534
0.044593031
-0.086140287
0.051451971
-0.095154934
0.057931191
-0.10349541
0.063912798
-0.11115278
0.069330023
-0.1181631
0.074164348
-0.12459822
0.078438133
-0.13055424
0.082204409
-0.13613963
0.085535758
-0.1414647
0.088514002
-0.1466335
0.091221992
-0.15173893
-0.15685925
0.093739674
0.0008903241
-0.0055366132
0.0032484907
-0.016502674
0.0068580242
-0.027779843
0.011493072
-0.039220937
0.016907594
-0.050636118
0.022839789
-0.061815956
0.029024574
-0.072559188
0.035210042
-0.082696003
0.041174475
-0.092104719
0.046740566
-0.10072102
0.05178433
-0.10853918
0.05623749
-0.11560594
0.060083559
-0.12200917
0.06334896
-0.12786362
0.066091197
-0.13329648
0.068386303
-0.13843473
0.070317439
-0.14339583
0.071966029
-0.14828209
0.073406003
-0.1531789
-0.15815419
0.074700942
0.00089987299
-0.0064364862
0.0032335577
-0.018836359
0.0067294928
-0.031275778
0.011111646
-0.043603091
0.016093047
-0.055617518
0.021385193
-0.067108103
0.026714356
-0.077888351
0.031839368
-0.087821014
0.036566997
-0.096832348
0.040761733
-0.10491576
0.044348396
-0.11212584
0.047307666
-0.11856521
0.049666078
-0.12436758
0.051482821
-0.12968037
0.052835864
-0.13464952
0.053809496
-0.13940837
0.054484735
-0.14407107
0.054933199
-0.14873055
0.055214287
-0.15345999
0.055374081
-0.15831398
-0.0002024051
0.00020240536
-2.6142877e-10
-0.00067783233
0.00047542741
-1.6955305e-10
-0.0013425897
0.00066475744
-8.5356384e-11
-0.0021325454
0.00078995579
-7.5466442e-11
-0.0029961132
0.00086356793
-8.3901505e-11
-0.0038911644
0.00089505129
-9.3074435e-11
-0.0047827934
0.00089162905
-1.0075404e-10
-0.0056414483
0.00085865501
-1.0796397e-10
-0.0064414603
0.00080001211
-1.1609233e-10
-0.0071598923
0.00071843215
-1.2573632e-10
-0.0077756205
0.00061572834
-1.3816133e-10
-0.0082685988
0.00049297843
-1.5307327e-10
-0.008619279
0.00035068034
-1.7194155e-10
-0.0088081773
0.00018889849
-1.9376724e-10
-0.0088156191
7.4419519e-06
-2.2022865e-10
-0.0086217624
-0.00019385645
-2.4956633e-10
-0.008206862
-0.00041490014
-2.8330994e-10
-0.0075508638
-0.00065599787
-3.1901816e-10
-0.0066329991
-0.00091786432
-3.5826711e-10
-0.0011868941
-0.0054461047
-3.9881311e-10
-0.0001879981
0.00039040346
-0.00062508169
0.000912511
-0.0012288936
0.0012685694
-0.0019354056
0.0014964678
-0.002692418
0.0016205803
-0.0034566205
0.0016592538
-0.0041914449
0.0016264535
-0.0048652556
0.0015324657
-0.0054499113
0.0013846678
-0.0059196301
0.0011881508
-0.0062500731
0.00094617142
-0.0064176035
0.0006605088
-0.0063986807
0.00033175746
-0.0061693813
-4.0400909e-05
-0.0057050742
-0.00045686515
-0.0049803399
-0.0009185907
-0.0039691867
-0.0014260534
-0.002644971
-0.0019802136
-0.00098024756
-0.0025825877
-0.0032033566
0.001036215
-0.00015894534
0.0005493488
-0.00051894458
0.0012725102
-0.0010008652
0.00175049
-0.0015413934
0.002036996
-0.002087511
0.0021666979
-0.002593904
0.0021656468
-0.0030210178
0.0020535673
-0.0033333896
0.0018448374
-0.0034983023
0.0015495806
-0.0034847087
0.0011745572
-0.003262347
0.00072380975
-0.0028010212
0.00019918291
-0.0020699667
-0.00039929704
-0.0010373369
-0.0010730307
0.00033022662
-0.0018244287
0.0020678708
-0.0026562348
0.0042124908
-0.0035706735
0.0068024243
-0.0045701471
0.0098773815
-0.005657545
-0.0067826364
0.013456661
-0.00011757626
0.00066692505
-0.00036702273
0.0015219567
-0.00067354774
0.002057015
-0.00097485523
0.0023383034
-0.0012168557
0.0024086984
-0.0013515359
0.002300327
-0.0013353008
0.0020373321
-0.0011275186
0.0016370553
-0.00068932462
0.0011113865
1.7331891e-05
0.00046790071
0.0010304714
-0.00028932982
0.0023887315
-0.0011590772
0.0041319119
-0.0021424774
0.0063014561
-0.0032425749
0.0089409576
-0.0044639302
0.012096717
-0.0058119939
0.015818115
-0.0072920717
0.020157315
-0.008909347
0.025169047
-0.010669278
-0.012497293
0.030883704
-6.6907802e-05
0.00073383285
-0.00017915788
0.0016342067
-0.00026649811
0.0021443552
-0.00026760116
0.0023394065
-0.00012701244
0.0022681097
0.00020648678
0.0019668277
0.00078120812
0.0014626108
0.0016437256
0.00077453778
0.0028398457
-8.473354e-05
0.0044153928
-0.0011076464
0.0064167733
-0.0022907103
0.0088913915
-0.0036336954
0.011887975
-0.0051390611
0.015456905
-0.0068115049
0.019650589
-0.0086576141
0.024524081
-0.010685486
0.03013596
-0.01290395
0.036548839
-0.015322226
0.04383013
-0.017950569
-0.020689346
0.052022183
-9.9756428e-06
0.00074380848
3.4577096e-05
0.001589654
0.00019999788
0.0019789344
0.00054698054
0.0019924238
0.0011326202
0.00168247
0.0020115738
0.0010878741
0.0032370245
0.00023716009
0.0048615644
-0.00085000216
0.0069378523
-0.0021610214
0.0095189877
-0.0036887818
0.012658719
-0.0054304419
0.016411549
-0.0073865253
0.020832659
-0.0095601713
0.02597775
-0.011956595
0.031902939
-0.014582804
0.038665066
-0.017447613
0.04632287
-0.020561754
0.054939052
-0.023938408
0.064584111
-0.027595628
-0.031414674
0.07530944
5.0768774e-05
0.00069303969
0.00026573166
0.0013746911
0.00070843123
0.0015362348
0.0014393655
0.0012614895
0.0025173787
0.00060445681
0.0040004234
-0.00039517058
0.0059461564
-0.001708573
0.0084123279
-0.0033161736
0.011456911
-0.0052056047
0.015138072
-0.0073699423
0.019513898
-0.0098062683
0.024641875
-0.012514502
0.030578145
-0.015496442
0.037376615
-0.018755065
0.045088015
-0.022294203
0.053759355
-0.026118953
0.063434739
-0.030237138
0.074158753
-0.034662422
0.08598541
-0.039422286
-0.044399716
0.098970452
0.00011382133
0.00057921835
0.00050860627
0.00097990613
0.0012462229
0.00079861814
0.0023872242
0.00012048828
0.003991971
-0.00100029
0.0061209772
-0.0025241768
0.0088348897
-0.0044224855
0.012194312
-0.0066755956
0.016259397
-0.00927069
0.021089104
-0.012199649
0.026740156
-0.015457321
0.033265718
-0.019040064
0.040713802
-0.022944526
0.049125464
-0.027166727
0.058532903
-0.031701643
0.068957841
-0.03654389
0.080411332
-0.041690629
0.092896886
-0.047147976
0.10642196
-0.052947363
-0.059008594
0.12103084
0.00017852751
0.00040069082
0.00076015874
0.00039827489
0.001805637
-0.0002468601
0.0033752608
-0.0014491355
0.0055298797
-0.003154909
0.0083306374
-0.0053249345
0.011838347
-0.0079301947
0.016112566
-0.010949815
0.021210317
-0.014368441
0.027184464
-0.018173796
0.034081783
-0.02235464
0.04194076
-0.02689904
0.050789161
-0.031792927
0.060641396
-0.037018962
0.071495665
-0.042555912
0.08333095
-0.048379176
0.096104811
-0.05446449
0.10975472
-0.060797885
0.12421154
-0.067404187
-0.074288628
0.13949158
0.00024516501
0.0010201018
0.0023836901
0.0043944987
0.0071115689
0.010593408
0.014896405
0.020072908
0.026168977
0.033221884
0.041257517
0.050287817
0.060308419
0.071296557
0.083209066
0.095979888
0.10951534
0.12367654
0.13819672
0.15260146
-0.0035046804
-0.0019414237
-5.9839128e-10
-0.0012819821
-0.0022226976
-6.6277563e-10
0.0011996625
-0.0024816439
-7.1732332e-10
0.0038833485
-0.0026836852
-7.5741346e-10
0.0067422743
-0.0028589251
-7.7498259e-10
0.0097591395
-0.0030168644
-7.6829454e-10
0.012915014
-0.0031558736
-7.3102691e-10
0.016191878
-0.003276864
-6.6253767e-10
0.019574036
-0.0033821571
-5.6209585e-10
0.023047273
-0.0034732361
-4.3066824e-10
0.026598306
-0.0035510335
-2.7213407e-10
0.030214718
-0.0036164112
-9.0114429e-11
0.033884869
-0.0036701514
1.0922902e-10
0.03759777
-0.0037129015
3.2052981e-10
0.041342977
-0.003745207
5.3620357e-10
0.045110524
-0.0037675482
7.5030209e-10
0.048890881
-0.0037803574
9.5517345e-10
0.052674912
-0.0037840321
1.1457297e-09
0.056453861
-0.0037789503
1.3154195e-09
0.06021934
-0.0037654811
1.4604488e-09
0.063963333
-0.003743994
1.5746622e-09
0.067678196
-0.0037148651
1.6540692e-09
0.071356675
-0.0036784809
1.6906646e-09
0.074991914
-0.0036352408
1.6782889e-09
0.07857747
-0.0035855568
1.6053812e-09
0.082107321
-0.0035298528
1.4637924e-09
0.085575882
-0.0034685623
1.2402039e-09
0.088978006
-0.0034021255
9.2988482e-10
0.092308992
-0.0033309859
5.2498723e-10
0.095564578
-0.0032555866
3.4861183e-11
0.098740946
-0.0031763674
-5.3269222e-10
0.10183471
-0.0030937606
-1.143205e-09
0.1048429
-0.0030081894
-1.7675163e-09
0.10776297
-0.0029200652
-2.3431149e-09
0.11059276
-0.0028297869
-2.825973e-09
0.1133305
-0.0027377408
-3.1359445e-09
0.11597481
-0.0026443019
-3.2353444e-09
0.11852465
-0.0025498365
-3.0494851e-09
0.12097936
-0.0024547102
-2.5778806e-09
0.12333865
-0.0023592884
-1.7860637e-09
0.12560263
-0.0022639805
-7.4129963e-10
0.12777179
-0.0021691621
5.0427864e-10
0.12984735
-0.0020755634
1.8039922e-09
0.13183054
-0.0019831904
3.0159454e-09
0.13372582
-0.0018952845
3.9352599e-09
0.13553197
-0.0018061502
4.3304815e-09
0.1372743
-0.0017423334
4.1085305e-09
0.13890848
-0.0016341829
3.1641447e-09
0.14063794
-0.001729468
1.7318205e-09
-0.0013811303
-7.8007662e-10
0.0028576584
-0.003762867
0.0049557388
-0.004320778
0.0072996473
-0.0048255524
0.0098269358
-0.0052109737
0.012516545
-0.0055485343
0.015356156
-0.0058564753
0.018329032
-0.0061287498
0.021418771
-0.006366603
0.024611359
-0.0065747446
0.027894037
-0.0067559144
0.031254679
-0.0069116757
0.034681809
-0.0070435415
0.038164577
-0.0071529189
0.041692642
-0.0072409661
0.045256093
-0.007308658
0.048845404
-0.0073568601
0.052451407
-0.0073863598
0.056065265
-0.0073978902
0.05967847
-0.0073921555
0.063282842
-0.0073698525
0.066870534
-0.0073316861
0.070434048
-0.0072783797
0.07396625
-0.0072106825
0.077460381
-0.0071293721
0.080910079
-0.0070352547
0.084309388
-0.0069291618
0.087652772
-0.0068119458
0.09093512
-0.0066844736
0.094151754
-0.0065476201
0.097298427
-0.00640226
0.10037132
-0.0062492621
0.10336704
-0.0060894818
0.10628261
-0.0059237562
0.10911545
-0.0057529004
0.11186336
-0.005577705
0.11452456
-0.0053989363
0.1170976
-0.0052173392
0.1195814
-0.0050336418
0.12197526
-0.0048485723
0.12427883
-0.0046628579
0.12649217
-0.0044773168
0.12861571
-0.0042926985
0.1306506
-0.0041104616
0.13259804
-0.0039306217
0.13446238
-0.0037596309
0.13624243
-0.0035861954
0.13796303
-0.003462937
0.13958089
-0.0032520404
0.14129428
-0.0034428562
-0.0027597841
0.015028876
-0.0053350817
0.016860944
-0.0061528462
0.018915552
-0.00688016
0.021122766
-0.0074181877
0.023470955
-0.0078967235
0.025956474
-0.0083419938
0.028566709
-0.0087389847
0.031288184
-0.0090880786
0.034109805
-0.0093963652
0.037021345
-0.0096674552
0.040012692
-0.0099030217
0.043073988
-0.010104838
0.046195717
-0.010274648
0.049368629
-0.010413879
0.052583703
-0.010523732
0.055832136
-0.010605293
0.059105346
-0.01065957
0.062394981
-0.010687526
0.065692932
-0.010690106
0.068991344
-0.010668265
0.072282645
-0.010622987
0.075559565
-0.010555299
0.078815155
-0.010466273
0.082042816
-0.010357033
0.085236312
-0.010228751
0.088389793
-0.010082643
0.091497803
-0.0099199556
0.094555294
-0.0097419644
0.097557628
-0.009549955
0.10050059
-0.0093452182
0.10338036
-0.0091290344
0.10619354
-0.0089026677
0.10893714
-0.008667356
0.11160855
-0.0084243054
0.11420553
-0.0081746876
0.11672624
-0.0079196394
0.11916916
-0.0076602674
0.12153318
-0.0073976556
0.12381749
-0.007132889
0.12602169
-0.006867054
0.12814575
-0.0066013744
0.13019002
-0.0063369737
0.13215559
-0.0060760328
0.13404357
-0.0058185935
0.13585817
-0.0055742355
0.13759829
-0.0053263125
0.13928782
-0.0051524668
0.14088578
-0.0048500044
0.14257988
-0.0051369539
-0.0041466973
0.03206792
-0.0065192979
0.033484112
-0.007569038
0.035090694
-0.0084867421
0.036814691
-0.0091421846
0.038656793
-0.0097388255
0.040623304
-0.010308505
0.042707059
-0.01082274
0.04489854
-0.011279559
0.047190176
-0.011688001
0.049574744
-0.012052023
0.052044543
-0.012372821
0.054591623
-0.012651918
0.05720798
-0.012891005
0.059885579
-0.013091477
0.062616364
-0.013254518
0.065392302
-0.01338123
0.068205419
-0.013472687
0.071047849
-0.013529956
0.073911871
-0.013554128
0.076789947
-0.013546341
0.079674759
-0.013507799
0.082559243
-0.013439783
0.085436624
-0.013343653
0.08830044
-0.013220849
0.091144571
-0.013072882
0.093963256
-0.012901327
0.096751111
-0.012707811
0.099503141
-0.012493994
0.10221474
-0.012261559
0.10488172
-0.012012196
0.10750027
-0.011747582
0.11006698
-0.011469378
0.11257883
-0.011179208
0.11503319
-0.010878659
0.11742777
-0.010569273
0.11976068
-0.010252549
0.12203036
-0.0099299486
0.12423561
-0.0096029049
0.12637558
-0.0092728557
0.12844977
-0.0089412448
0.13045809
-0.0086096995
0.13240084
-0.0082797188
0.13427901
-0.0079541982
0.13609364
-0.0076332308
0.13784881
-0.0073294015
0.13954358
-0.0070210799
0.14120048
-0.0068093667
0.142782
-0.006431532
0.14446062
-0.0068155743
-0.0055578116
0.052663415
-0.0071605302
0.053504994
-0.0084106165
0.054500163
-0.0094819115
0.055583245
-0.010225266
0.056769063
-0.010924644
0.058071918
-0.01161136
0.059490326
-0.012241148
0.061019427
-0.01280866
0.062655014
-0.013323588
0.064392497
-0.013789506
0.06622636
-0.014206684
0.068150342
-0.0145759
0.070157685
-0.014898347
0.072241294
-0.015175086
0.074393831
-0.015407054
0.076607791
-0.01559519
0.078875592
-0.015740488
0.081189651
-0.015844015
0.083542451
-0.015906929
0.085926604
-0.015930493
0.088334897
-0.015916092
0.090760347
-0.015865232
0.093196231
-0.015779538
0.09563613
-0.015660749
0.098073955
-0.015510707
0.10050396
-0.015331336
0.10292079
-0.015124634
0.10531944
-0.014892643
0.10769531
-0.014637436
0.11004421
-0.014361095
0.11236232
-0.014065693
0.11464622
-0.013753275
0.11689287
-0.013425854
0.1190996
-0.013085388
0.12126411
-0.012733787
0.12338447
-0.01237291
0.12545909
-0.012004568
0.12748673
-0.011630544
0.1294665
-0.011252628
0.13139788
-0.010872622
0.13328074
-0.010492558
0.13511533
-0.010114316
0.13690263
-0.0097414968
0.13864368
-0.009374279
0.14034238
-0.0090280978
0.1419981
-0.0086768047
0.14363172
-0.0084429848
0.14521016
-0.0080099688
0.14688701
-0.0084924296
-0.0070164143
0.075239319
-0.0070904092
0.075345222
-0.0085165195
0.07557058
-0.0097072696
0.075871924
-0.01052661
0.076277299
-0.011330019
0.076803563
-0.012137624
0.077453757
-0.012891343
0.078227818
-0.013582721
0.07912406
-0.01421983
0.080139342
-0.014804788
0.081269426
-0.015336769
0.082509024
-0.015815498
0.083851958
-0.016241281
0.085291456
-0.016614585
0.08682035
-0.016935948
0.088431197
-0.017206036
0.090116387
-0.017425678
0.091868253
-0.017595882
0.093679164
-0.01771784
0.095541595
-0.017792925
0.097448196
-0.017822693
0.099391841
-0.017808877
0.10136568
-0.017753377
0.10336317
-0.017658241
0.10537812
-0.017525655
0.10740469
-0.017357907
0.10943743
-0.017157377
0.1114713
-0.016926504
0.11350162
-0.016667762
0.11552416
-0.016383638
0.11753508
-0.016076607
0.11953092
-0.015749115
0.12150863
-0.015403561
0.12346553
-0.01504229
0.12539933
-0.014667584
0.12730808
-0.014281666
0.12919022
-0.013886705
0.13104451
-0.01348484
0.1328701
-0.013078218
0.13466649
-0.012669007
0.13643358
-0.01225965
0.13817168
-0.011852416
0.13988179
-0.011451607
0.14156504
-0.011057526
0.14322522
-0.010688283
0.14486216
-0.01031374
0.14649488
-0.010075701
0.14809546
-0.0096105513
0.1497962
-0.010193173
-0.0085546577
0.09804425
-0.0061642071
0.097277824
-0.007750093
0.096602425
-0.0090318706
0.096018939
-0.0099431251
0.095563507
-0.010874587
0.095247364
-0.011821481
0.095075882
-0.012719861
0.095053071
-0.01355991
0.09517847
-0.01434523
0.095448821
-0.015075139
0.095859769
-0.015747717
0.096405913
-0.016361641
0.097080774
-0.016916142
0.097877127
-0.017410937
0.098787297
-0.017846118
0.099803321
-0.01822206
0.10091707
-0.01853943
0.10212038
-0.018799188
0.10340512
-0.019002585
0.10476333
-0.019151132
0.10618723
-0.019246594
0.10766932
-0.019290969
0.10920242
-0.019286469
0.11077967
-0.019235495
0.11239463
-0.019140611
0.11404123
-0.019004514
0.11571386
-0.01883
0.11740729
-0.018619939
0.11911677
-0.018377242
0.12083796
-0.018104827
0.12256696
-0.017805604
0.12430028
-0.017482439
0.12603487
-0.017138149
0.12776806
-0.016775482
0.12949759
-0.016397113
0.13122157
-0.016005646
0.13293849
-0.015603629
0.13464722
-0.015193568
0.13634699
-0.014777987
0.13803741
-0.01435943
0.13971853
-0.013940768
0.14139078
-0.013524672
0.14305532
-0.013116141
0.14471344
-0.01271565
0.14636896
-0.0123438
0.14802224
-0.011967023
0.14969044
-0.011743898
0.15135127
-0.01127138
0.15311453
-0.011956435
-0.010214319
0.11920785
-0.0043412146
0.11751596
-0.0060582056
0.11587721
-0.0073931245
0.11437552
-0.0084414309
0.11304712
-0.0095461877
0.11188953
-0.010663892
0.11090823
-0.011738553
0.11010949
-0.012761171
0.10949273
-0.013728477
0.10905338
-0.014635783
0.10878562
-0.015479955
0.10868279
-0.016258817
0.10873732
-0.016970667
0.10894089
-0.01761451
0.10928479
-0.01819002
0.10976009
-0.01869736
0.11035777
-0.019137108
0.11106883
-0.01951025
0.1118844
-0.019818158
0.11279582
-0.02006255
0.11379469
-0.020245464
0.11487295
-0.020369228
0.11602291
-0.02043643
0.1172373
-0.020449881
0.11850927
-0.020412588
0.11983247
-0.020327706
0.12120097
-0.020198509
0.12260938
-0.020028348
0.12405276
-0.019820617
0.12552665
-0.01957872
0.12702709
-0.019306037
0.12855055
-0.019005904
0.13009399
-0.01868159
0.13165479
-0.01833628
0.13323076
-0.017973079
0.13482011
-0.017595002
0.13642148
-0.017205
0.13803389
-0.016805978
0.13965676
-0.016400856
0.14128991
-0.015992584
0.14293362
-0.015584473
0.14458857
-0.015179623
0.14625617
-0.014783737
0.14793801
-0.014397498
0.14963804
-0.014043829
0.1513573
-0.013686279
0.15311111
-0.01349771
0.15488308
-0.013043346
0.15676038
-0.013833741
-0.012046722
0.13691311
-0.0017627409
0.13439571
-0.003540811
0.13183779
-0.0048352042
0.12948144
-0.006085081
0.12735386
-0.007418612
0.12543644
-0.0087464695
0.12373201
-0.010034121
0.12224566
-0.01127482
0.12097585
-0.012458664
0.11991681
-0.013576743
0.11906104
-0.014624188
0.11840021
-0.015597982
0.11792532
-0.016495777
0.11762685
-0.017316044
0.11749495
-0.01805812
0.11751961
-0.018722022
0.11769083
-0.019308325
0.11799869
-0.019818113
0.11843348
-0.020252947
0.11898575
-0.020614822
0.1196464
-0.020906114
0.12040672
-0.021129547
0.12125845
-0.021288154
0.12219379
-0.021385223
0.12320547
-0.021424268
0.12428674
-0.021408973
0.12543138
-0.02134315
0.12663373
-0.021230697
0.12788866
-0.021075554
0.12919161
-0.020881664
0.13053851
-0.020652942
0.13192585
-0.02039324
0.13335059
-0.020106332
0.1348102
-0.01979589
0.13630261
-0.019465488
0.13782621
-0.019118598
0.13937982
-0.018758614
0.14096271
-0.01838887
0.14257458
-0.018012721
0.14421555
-0.01763355
0.14588621
-0.017255141
0.14758764
-0.016881045
0.14932158
-0.016517681
0.15109007
-0.016165989
0.15289729
-0.015851044
0.15474505
-0.015534048
0.156647
-0.015399651
0.15859271
-0.014989056
0.16064718
-0.01588821
-0.014111828
0.15006627
0.00077244656
0.14677779
-0.00025233
0.143481
-0.0015384163
0.14043383
-0.0030379118
0.1376396
-0.0046243853
0.13509207
-0.0061989349
0.13279307
-0.0077351206
0.13074269
-0.0092244437
0.12893851
-0.010654478
0.12737531
-0.012013551
0.1260453
-0.013294173
0.12493906
-0.014491744
0.12404643
-0.015603147
0.12335676
-0.016626369
0.12285906
-0.017560426
0.12254225
-0.018405207
0.12239525
-0.019161324
0.12240716
-0.019830024
0.12256733
-0.020413124
0.12286547
-0.020912955
0.12329166
-0.021332306
0.12383648
-0.021674372
0.12449103
-0.021942699
0.12524694
-0.022141136
0.12609645
-0.022273776
0.12703238
-0.022344907
0.12804819
-0.022358958
0.12913794
-0.022320447
0.13029632
-0.022233934
0.13151863
-0.022103972
0.13280076
-0.021935074
0.1341392
-0.021731678
0.13553098
-0.021498118
0.13697371
-0.021238615
0.13846549
-0.020957265
0.14000493
-0.020658043
0.14159115
-0.020344831
0.14322372
-0.02002144
0.14490269
-0.019691696
0.14662859
-0.019359447
0.14840244
-0.019028989
0.15022574
-0.018704346
0.15210074
-0.018392683
0.15402995
-0.0180952
0.15601796
-0.017839056
0.15806729
-0.017583379
0.16019049
-0.017522847
0.16238149
-0.017180059
0.16468837
-0.018195084
-0.016474347
0.18893006
0.0053736487
-0.19353126
0.18512089
0.0035568391
0.18172974
0.0018527272
0.17858555
0.00010627957
0.17565097
-0.0016898021
0.17290096
-0.00344893
0.17031732
-0.0051514757
0.16789105
-0.0067981712
0.16561827
-0.0083817019
0.16349684
-0.009892122
0.1615249
-0.011322236
0.15970036
-0.012667196
0.15802056
-0.013923352
0.15648223
-0.015088044
0.15508147
-0.016159658
0.15381379
-0.017137535
0.1526743
-0.018021832
0.15165771
-0.018813427
0.15075844
-0.019513857
0.14997074
-0.020125253
0.14928872
-0.020650286
0.14870644
-0.021092097
0.14821798
-0.021454242
0.14781748
-0.021740636
0.14749919
-0.021955484
0.14725751
-0.02210323
0.14708705
-0.02218849
0.1469826
-0.022216
0.14693922
-0.02219056
0.14695223
-0.022116983
0.14701722
-0.022000056
0.14713003
-0.021844496
0.14728684
-0.021654928
0.14748409
-0.021435863
0.14771852
-0.021191692
0.14798716
-0.020926686
0.14828735
-0.020645022
0.14861672
-0.02035081
0.14897321
-0.020048183
0.14935506
-0.019741303
0.14976089
-0.019434814
0.15018962
-0.019133077
0.1506407
-0.018843767
0.15111384
-0.018568337
0.15160999
-0.018335201
0.15212916
-0.018102553
0.15267672
-0.018070405
0.15324752
-0.017750861
0.15386853
-0.018816091
-0.017104912
0.21687823
0.008771089
-0.22027567
0.21340527
0.0070297937
0.2101934
0.0050645962
0.20708907
0.0032106107
0.2040435
0.0013557719
0.20108764
-0.00049307359
0.19823839
-0.0023022253
0.19550027
-0.004060045
0.19287917
-0.0057606057
0.19038194
-0.0073948934
0.18801379
-0.0089540813
0.18577811
-0.01043152
0.18367692
-0.011822157
0.18171091
-0.013122037
0.17987957
-0.014328313
0.17818127
-0.015439236
0.17661348
-0.016454044
0.17517289
-0.017372844
0.17385558
-0.018196541
0.17265709
-0.018926762
0.17157259
-0.019565788
0.17059697
-0.020116478
0.16972492
-0.020582197
0.16895104
-0.02096675
0.16826987
-0.021274313
0.16767599
-0.021509355
0.16716409
-0.021676582
0.16672895
-0.021780859
0.16636555
-0.021827162
0.16606907
-0.021820509
0.16583493
-0.021765916
0.16565879
-0.021668356
0.16553659
-0.021532721
0.16546453
-0.021363803
0.16543912
-0.021166281
0.16545715
-0.020944722
0.16551573
-0.020703605
0.16561227
-0.020447347
0.16574449
-0.0201804
0.16591044
-0.019907254
0.16610853
-0.019632904
0.16633755
-0.019362094
0.1665967
-0.019102924
0.16688574
-0.018857376
0.16720483
-0.018654292
0.16755545
-0.018453169
0.16793752
-0.018452478
0.16835891
-0.018172252
0.16880467
-0.01926185
-0.017617818
0.24378575
0.011494202
-0.24650887
0.2409362
0.0098793428
0.2380839
0.0079168992
0.23523789
0.0060566224
0.23236109
0.0042325717
0.22947432
0.0023936941
0.22660881
0.00056328954
0.22378385
-0.0012350848
0.22101536
-0.0029921232
0.2183193
-0.0046988298
0.21570952
-0.0063443009
0.21319703
-0.0079190287
0.21079045
-0.0094155733
0.20849634
-0.010827928
0.20631934
-0.01215132
0.20426236
-0.013382251
0.20232675
-0.014518432
0.20051256
-0.015558658
0.19881873
-0.016502708
0.19724323
-0.017351266
0.19578327
-0.018105829
0.19443542
-0.018768623
0.19319574
-0.019342516
0.19205992
-0.019830937
0.1910234
-0.020237791
0.19008143
-0.020567378
0.18922916
-0.020824315
0.18846175
-0.021013455
0.18777441
-0.021139823
0.18716245
-0.021208544
0.18662132
-0.021224787
0.18614668
-0.021193713
0.18573439
-0.021120436
0.18538059
-0.021009994
0.18508164
-0.020867331
0.18483421
-0.020697296
0.18463527
-0.020504662
0.18448208
-0.020294155
0.18437222
-0.020070545
0.18430363
-0.019838666
0.18427459
-0.019603861
0.18428379
-0.019371298
0.18433028
-0.019149407
0.18441388
-0.018940982
0.184534
-0.018774413
0.18469368
-0.018612848
0.18488701
-0.01864581
0.18513597
-0.018421204
0.18537842
-0.019504306
-0.017990417
0.26929164
0.013526432
-0.27132387
0.26712437
0.012046617
0.26478341
0.010257856
0.26234503
0.0084950001
0.25981719
0.0067604173
0.25721005
0.0050008275
0.25454975
0.0032235877
0.25186047
0.0014542031
0.24916219
-0.00029384692
0.24647474
-0.0020113768
0.2438174
-0.0036869662
0.24120733
-0.0053089533
0.23865924
-0.0068674911
0.23618565
-0.0083543366
0.23379686
-0.009762523
0.23150102
-0.011086419
0.22930435
-0.012321759
0.22721124
-0.013465551
0.22522452
-0.014515982
0.22334558
-0.015472329
0.22157462
-0.016334871
0.21991079
-0.017104793
0.21835237
-0.017784091
0.2168969
-0.018375475
0.21554139
-0.018882274
0.21428235
-0.019308341
0.213116
-0.019657966
0.21203832
-0.019935779
0.21104518
-0.020146674
0.21013236
-0.02029573
0.20929571
-0.020388137
0.20853114
-0.020429141
0.20783469
-0.020423993
0.20720261
-0.020377909
0.20663133
-0.020296048
0.20611754
-0.020183505
0.2056582
-0.020045322
0.20525056
-0.019886517
0.20489219
-0.019712174
0.20458099
-0.019527465
0.2043152
-0.019338078
0.20409354
-0.019149632
0.20391494
-0.018970806
0.20377937
-0.018805415
0.20368563
-0.018680676
0.20363803
-0.01856525
0.20362568
-0.018633455
0.20368234
-0.018477865
0.20370333
-0.01952529
-0.01820007
0.2930004
0.014857022
-0.29433099
0.29152175
0.013525268
0.28979989
0.011979712
0.28790194
0.010392952
0.28586276
0.0087995919
0.28369319
0.0071704045
0.28141162
0.0055051535
0.27904131
0.0038245099
0.27660357
0.0021438942
0.27411856
0.00047363685
0.27160648
-0.0011748867
0.26908707
-0.0027895418
0.26657866
-0.0043590779
0.26409784
-0.0058735208
0.26165937
-0.0073240523
0.25927602
-0.0087030677
0.25695856
-0.010004297
0.25471581
-0.011222809
0.25255479
-0.012354954
0.25048076
-0.013398303
0.24849747
-0.014351584
0.24660727
-0.015214591
0.24481128
-0.015988095
0.24310955
-0.016673746
0.24150124
-0.01727397
0.23998477
-0.01779187
0.23855793
-0.018231124
0.23721804
-0.018595888
0.23596206
-0.018890698
0.23478672
-0.019120384
0.23368857
-0.019289987
0.23266412
-0.01940469
0.23170988
-0.019469755
0.23082245
-0.019490476
0.22999854
-0.019472145
0.22923508
-0.019420037
0.22852917
-0.019339417
0.22787821
-0.019235562
0.22727988
-0.01911384
0.22673217
-0.018979755
0.22623341
-0.01883932
0.22578239
-0.018698612
0.22537809
-0.018566501
0.22502062
-0.018447945
0.2247084
-0.018368454
0.22444663
-0.01830348
0.22422057
-0.0184074
0.22407273
-0.018330029
0.22386361