/*--------------------------------*- C++ -*----------------------------------*\
  =========                 |
  \\      /  F ield         | OpenFOAM: The Open Source CFD Toolbox
   \\    /   O peration     | Website:  https://openfoam.org
    \\  /    A nd           | Version:  6
     \\/     M anipulation  |
\*---------------------------------------------------------------------------*/
FoamFile
{
    version     2.0;
    format      ascii;
    class       volScalarField;
    location    "78";
    object      pPrime2Mean;
}
// * * * * * * * * * * * * * * * * * * * * * * * * * * * * * * * * * * * * * //

dimensions      [0 4 -4 0 0 0 0];

internalField   nonuniform List<scalar> 
9200
(
0.14312774
0.11854626
0.097740148
0.084206008
0.073413051
0.064324459
0.056488422
0.049675012
0.043731275
0.038534546
0.033983059
0.029991365
0.02648717
0.023408951
0.020704135
0.018327774
0.016241859
0.014414788
0.012824119
0.011442147
0.11581453
0.09571227
0.078907243
0.06787384
0.059033293
0.051569771
0.045128049
0.039527288
0.034645648
0.030384658
0.02666187
0.023407356
0.020561319
0.018072289
0.015895756
0.013993199
0.012331534
0.010882399
0.0096201512
0.0085084688
0.090208368
0.074412399
0.061363631
0.052684729
0.045679026
0.039739408
0.034603042
0.030136364
0.026247933
0.022862596
0.019916124
0.017352827
0.015124021
0.013186922
0.011503852
0.010041704
0.0087715951
0.0076682431
0.0067066445
0.0058537872
0.067021651
0.055222935
0.045572688
0.039035054
0.033696484
0.02913951
0.025186817
0.02174895
0.018762924
0.01617487
0.013936672
0.01200485
0.010340035
0.0089067012
0.0076730381
0.0066108653
0.0056955038
0.004905306
0.0042190104
0.0036115965
0.046896679
0.038662216
0.031961242
0.027293808
0.023411257
0.020061164
0.017142328
0.01460475
0.012410623
0.010524197
0.008910536
0.0075358708
0.0063682337
0.005378081
0.0045387807
0.0038268796
0.0032221125
0.0027070671
0.0022655751
0.0018809328
0.030399596
0.025182116
0.020908059
0.017791119
0.015116681
0.012768609
0.010709959
0.0089239143
0.0073932081
0.0060960856
0.0050073631
0.0041003784
0.003348806
0.0027280468
0.0022161241
0.0017940935
0.0014460392
0.0011587686
0.00092099694
0.00072255433
0.018003615
0.015156989
0.012735184
0.010810768
0.0090670948
0.0074926787
0.0061007035
0.0048997312
0.0038873212
0.0030510888
0.0023721194
0.0018284878
0.0013980444
0.0010602793
0.00079733349
0.00059433249
0.00043925175
0.00032256876
0.00023691749
0.00017655467
0.010076649
0.0088758978
0.0077016243
0.0065842486
0.0054718421
0.0044243857
0.0034892247
0.0026913818
0.0020369873
0.0015184063
0.0011198286
0.00082206274
0.00060590315
0.00045409369
0.00035218413
0.00028864193
0.0002545436
0.00024317
0.00024985711
0.00027145834
0.0068709959
0.006534655
0.0059929425
0.0052796192
0.0044850805
0.0037064224
0.0030072026
0.0024190452
0.0019503003
0.0015939478
0.0013347628
0.0011547823
0.0010367231
0.00096569571
0.00092973629
0.00091966187
0.00092862122
0.00095165218
0.00098552335
0.0010281768
0.0085118924
0.008228679
0.0077091318
0.0069896806
0.006194549
0.0054217182
0.0047314897
0.0041520749
0.0036882918
0.0033304774
0.0030621719
0.0028654899
0.0027240836
0.0026243633
0.0025556814
0.0025099879
0.0024813184
0.0024653347
0.0024590013
0.0024600618
0.34176049
0.28737764
0.23746325
0.20590897
0.18086169
0.15984479
0.14175524
0.12599786
0.11220428
0.10008494
0.089403224
0.079963247
0.071600933
0.064177585
0.05757512
0.051692419
0.046442485
0.04174745
0.03753425
0.033760644
0.33738694
0.28342043
0.23407961
0.20288898
0.17815653
0.15740846
0.13955149
0.1240003
0.11039079
0.098436186
0.087902158
0.078594717
0.070351427
0.063035025
0.056528692
0.050732463
0.045560478
0.040936004
0.036785603
0.033068545
0.32846739
0.27558603
0.22748413
0.19707156
0.17298359
0.1527804
0.1353923
0.12025237
0.10700615
0.095373806
0.08512652
0.076074799
0.068059967
0.060947962
0.054624733
0.048992759
0.043968502
0.039477478
0.035446545
0.031835871
0.31515863
0.2640652
0.21786762
0.18863749
0.16550665
0.14610907
0.1294137
0.11487967
0.10216691
0.091006444
0.081178061
0.072499276
0.064817211
0.058002692
0.051945831
0.0465527
0.041743012
0.037445532
0.033588559
0.030132057
0.2978249
0.24918533
0.20550891
0.17783625
0.15594967
0.13759654
0.12179942
0.10805019
0.096027422
0.085476453
0.076188546
0.067990527
0.060737202
0.054305828
0.048591953
0.043506236
0.03897234
0.034923034
0.031289944
0.028032267
0.27696091
0.23137982
0.19076949
0.16498641
0.14459658
0.12749737
0.11277874
0.099971151
0.08877555
0.0789546
0.070313538
0.062690545
0.055949799
0.049976374
0.044672383
0.039953962
0.035749244
0.031995383
0.028629454
0.025610852
0.25316688
0.21116814
0.17407696
0.1504613
0.13177843
0.11610699
0.10261624
0.090879971
0.080624675
0.071632922
0.063726026
0.056755302
0.050595794
0.045141656
0.040302617
0.036001126
0.032170297
0.028751718
0.025689481
0.022945423
0.22712663
0.18913735
0.15591131
0.13467749
0.11786299
0.10375235
0.091603401
0.0810369
0.071807373
0.063719364
0.056612007
0.05035124
0.044824274
0.039935485
0.03560322
0.031757149
0.028336122
0.025286413
0.022560126
0.020123734
0.19958298
0.16592041
0.13678782
0.11807994
0.10324179
0.090780549
0.080048784
0.070716405
0.062567854
0.055431243
0.04916488
0.043650509
0.03878856
0.034494582
0.030696443
0.02733195
0.024346764
0.021692909
0.019331859
0.017234784
0.17131086
0.14217868
0.11723908
0.10112316
0.088311809
0.0775417
0.068262284
0.060193287
0.053150193
0.046985669
0.041578027
0.036825519
0.032642384
0.028955883
0.025703982
0.022833472
0.020298546
0.018060431
0.016093348
0.014369024
0.029777756
0.025804957
0.022433983
0.019505062
0.017000869
0.01485399
0.013006003
0.011406826
0.01001576
0.0087997664
0.0077320958
0.0067913029
0.0059601458
0.0052245668
0.0045729335
0.0039954859
0.0034839164
0.0030310561
0.0026306445
0.0022771609
0.0019656961
0.0016918545
0.0014516791
0.0012415929
0.0010583531
0.0008990152
0.00076090421
0.00064159099
0.00053887251
0.00045075471
0.00037543761
0.00031130133
0.00025689348
0.00021091672
0.00017221732
0.00013977353
0.00011268505
9.0161808e-05
7.1514975e-05
5.614472e-05
4.353738e-05
3.3239885e-05
2.489661e-05
1.8127398e-05
1.2804301e-05
8.3915567e-06
5.4037146e-06
2.4370467e-06
3.3563698e-06
5.2673255e-06
0.02919711
0.025357815
0.022084468
0.019230584
0.016787992
0.014690798
0.012881202
0.011311054
0.0099417738
0.0087420125
0.0076864342
0.0067547591
0.0059306067
0.0052005132
0.0045532507
0.0039793357
0.0034706509
0.0030201609
0.0026217036
0.0022698331
0.0019596993
0.0016869546
0.0014476817
0.0012383364
0.0010557037
0.00089686233
0.00075915666
0.00064017384
0.00053772436
0.0004498254
0.00037468621
0.00031069455
0.00025640423
0.000210523
0.00017190126
0.00013952062
0.00011248347
9.0001953e-05
7.1389017e-05
5.6046287e-05
4.3461278e-05
3.3181899e-05
2.4853319e-05
1.8096114e-05
1.2782791e-05
8.3782013e-06
5.3972863e-06
2.4334898e-06
3.3347652e-06
5.1603082e-06
0.028173758
0.024575045
0.021478587
0.018762449
0.016430659
0.014421275
0.012678363
0.011157625
0.0098246772
0.0086515156
0.0076154636
0.0066983352
0.0058852547
0.0051637698
0.0045233265
0.0039548947
0.0034506655
0.0030038192
0.002608351
0.002258935
0.0019508153
0.0016797209
0.0014417976
0.0012335537
0.0010518181
0.00089370602
0.00075659262
0.00063809034
0.00053603067
0.00044844803
0.00037356576
0.00030978305
0.00025566298
0.00020992075
0.00017141274
0.00013912533
0.00011216474
8.9746192e-05
7.1185082e-05
5.5885036e-05
4.3335193e-05
3.3084799e-05
2.478015e-05
1.8042818e-05
1.2746032e-05
8.3554095e-06
5.3866844e-06
2.4276557e-06
3.2916396e-06
4.9514055e-06
0.026769696
0.023504008
0.020658736
0.018141449
0.015965045
0.014075071
0.01242077
0.010964254
0.0096776459
0.0085380646
0.007526602
0.006627817
0.0058287357
0.0051181609
0.0044863644
0.0039248725
0.0034262609
0.0029839842
0.0025922409
0.0022458618
0.0019402157
0.0016711324
0.0014348408
0.0012279182
0.0010472505
0.00089000059
0.00075358258
0.00063564126
0.00053403446
0.00044681805
0.00037223268
0.00030869145
0.0002547685
0.00020918786
0.00017081283
0.0001386353
0.00011176579
8.9422942e-05
7.0924885e-05
5.5677422e-05
4.3171468e-05
3.2957735e-05
2.4683771e-05
1.7972267e-05
1.2697242e-05
8.3253073e-06
5.3727413e-06
2.420478e-06
3.2270085e-06
4.6514851e-06
0.02504724
0.022193729
0.019669169
0.017409656
0.015427836
0.013681015
0.012129845
0.010746493
0.0095118995
0.0084099151
0.0074261986
0.0065483295
0.0057653432
0.0050673705
0.0044455656
0.003892062
0.00339987
0.0029627653
0.0025751913
0.0022321706
0.0019292251
0.0016623089
0.0014277523
0.0012222158
0.0010426538
0.00088628499
0.00075056926
0.00063318831
0.00053202971
0.00044517317
0.00037087819
0.00030757274
0.00025384257
0.0002084207
0.00017017738
0.00013810984
0.00011133271
8.9067791e-05
7.0635682e-05
5.5444137e-05
4.2985654e-05
3.2812238e-05
2.4572582e-05
1.7890438e-05
1.2640447e-05
8.2905284e-06
5.3564367e-06
2.4131227e-06
3.1415362e-06
4.2764463e-06
0.023061138
0.020689633
0.0185505
0.016601981
0.014846321
0.013257824
0.011817385
0.010511888
0.0093327173
0.0082712013
0.0073178368
0.0064631737
0.0056981747
0.0050142914
0.0044035999
0.0038588945
0.003373678
0.0029421034
0.0025589079
0.0022193456
0.0019191241
0.0016543464
0.0014214631
0.0012172321
0.0010386864
0.00088310799
0.00074800712
0.00063110567
0.00053032279
0.0004437628
0.00036970422
0.00030658951
0.00025301533
0.00020772287
0.00016958835
0.00013761341
0.00011091584
8.8719771e-05
7.0347497e-05
5.5208067e-05
4.2795001e-05
3.2661139e-05
2.4455941e-05
1.7803991e-05
1.2580102e-05
8.253961e-06
5.3387673e-06
2.4068152e-06
3.0363578e-06
3.8455913e-06
0.020865251
0.019037502
0.017339273
0.01574006
0.014229897
0.012807414
0.011481909
0.010258683
0.0091396247
0.0081229052
0.007203566
0.0063750389
0.0056302163
0.0049619566
0.0043633847
0.0038280799
0.0033501423
0.0029241876
0.0025453135
0.0022090575
0.0019113503
0.0016484717
0.0014170126
0.0012138417
0.0010360795
0.000881077
0.00074639798
0.00062980565
0.0005292506
0.00044286078
0.00036893216
0.00030591978
0.00025242919
0.00020720762
0.00016913532
0.00013721642
0.00011057016
8.8421498e-05
7.0093095e-05
5.4994158e-05
4.2618283e-05
3.2518356e-05
2.4343952e-05
1.7720059e-05
1.2520928e-05
8.218616e-06
5.320714e-06
2.4027398e-06
2.9130883e-06
3.3798414e-06
0.018525739
0.017289607
0.016063604
0.014821373
0.013560134
0.012310397
0.011109049
0.0099783503
0.0089291037
0.0079650833
0.0070855672
0.0062871637
0.0055651017
0.0049140028
0.0043283392
0.0038027109
0.0033319902
0.0029113801
0.0025364274
0.0022030141
0.001907336
0.0016458777
0.0014153877
0.0012128565
0.0010354978
0.00088073334
0.00074618052
0.00062964198
0.00052909699
0.00044269379
0.00036874211
0.00030570593
0.00025219607
0.00020696248
0.00016888629
0.00013697136
0.00011033592
8.8203589e-05
6.9895557e-05
5.4819632e-05
4.2468187e-05
3.2393087e-05
2.4243115e-05
1.7643105e-05
1.2465698e-05
8.1861777e-06
5.3024048e-06
2.4015556e-06
2.7736603e-06
2.9002725e-06
0.016106711
0.015470648
0.014696495
0.013780653
0.012765742
0.011708662
0.010656675
0.009640935
0.0086795313
0.0077818473
0.0069519032
0.0061903269
0.0054955243
0.0048645283
0.004293629
0.0037787895
0.0033158976
0.0029009123
0.0025299455
0.0021993027
0.0019054991
0.0016452608
0.001415519
0.0012134025
0.0010362294
0.00088149931
0.00074688702
0.00063023678
0.00052955718
0.0004430163
0.00036893652
0.00030578916
0.00025218851
0.00020688531
0.00016875963
0.0001368132
0.00011016155
8.8025403e-05
6.9723113e-05
5.46599e-05
4.2325926e-05
3.2271208e-05
2.4143009e-05
1.7565628e-05
1.240908e-05
8.1530662e-06
5.2810251e-06
2.4022363e-06
2.6206977e-06
2.428478e-06
0.013695003
0.013525825
0.013112765
0.012500602
0.011756325
0.010933489
0.010071486
0.0092039168
0.0083561294
0.0075445253
0.0067790248
0.0060652719
0.0054057746
0.0048007423
0.0042488619
0.0037478906
0.0032950507
0.0028872896
0.0025214517
0.0021943878
0.0019030209
0.0016443834
0.001415638
0.0012140884
0.0010371844
0.00088252443
0.00074785659
0.00063107849
0.00053023668
0.0004435252
0.00036928339
0.00030599265
0.00025227239
0.00020687493
0.00016867953
0.00013668565
0.00011000569
8.7856951e-05
6.9554393e-05
5.4500063e-05
4.2181401e-05
3.2146086e-05
2.4039474e-05
1.7485056e-05
1.2349607e-05
8.1180983e-06
5.2559156e-06
2.4038049e-06
2.4600617e-06
1.9866123e-06
0.011063828
0.011179192
0.011063916
0.010741257
0.010281458
0.0097233705
0.0090931916
0.0084207627
0.0077338214
0.007052824
0.0063920311
0.0057614335
0.0051675722
0.0046141438
0.0041027324
0.0036334543
0.0032054214
0.0028170765
0.0024664381
0.0021512757
0.0018692296
0.0016178925
0.0013948646
0.0011977922
0.0010243936
0.00087247785
0.00073995845
0.00062486284
0.00052533945
0.00043966219
0.00036623283
0.00030358155
0.00025036574
0.00020536723
0.00016748819
0.00013574584
0.00010926634
8.7277689e-05
6.9103145e-05
5.415133e-05
4.1914691e-05
3.1945401e-05
2.3891049e-05
1.738051e-05
1.2276116e-05
8.0789453e-06
5.2228596e-06
2.4072083e-06
2.2949212e-06
1.5988046e-06
0.0085678363
0.0088272725
0.0088923419
0.008773666
0.0085305162
0.0081908701
0.0077693396
0.0072888018
0.006774014
0.006244461
0.0057147729
0.0051963145
0.0046975423
0.0042242309
0.0037800016
0.0033668635
0.002985624
0.0026362043
0.0023178912
0.0020295311
0.0017696724
0.001536671
0.0013287678
0.0011441454
0.00098097228
0.00083743456
0.00071176179
0.00060224615
0.00050725757
0.00042525498
0.0003547944
0.0002945343
0.00024323845
0.00019977667
0.0001631236
0.00013235606
0.00010664899
8.5270232e-05
6.7575393e-05
5.2999537e-05
4.1055995e-05
3.131509e-05
2.3435766e-05
1.7063698e-05
1.2056972e-05
7.9508991e-06
5.1264165e-06
2.3906599e-06
2.089003e-06
1.2337194e-06
0.0064255305
0.0067733987
0.0069640112
0.0070032555
0.0069300818
0.0067650834
0.0065166538
0.006200951
0.0058383273
0.0054461378
0.0050382234
0.0046261215
0.0042191756
0.003824448
0.0034470054
0.0030903188
0.0027565898
0.0024470158
0.0021620207
0.0019014459
0.0016647002
0.0014508778
0.0012588489
0.0010873315
0.0009349476
0.00080026754
0.00068184521
0.00057824639
0.00048807119
0.00040997178
0.000342666
0.00028494735
0.00023569197
0.00019386281
0.00015851152
0.00012877823
0.00010388987
8.3156759e-05
6.5969036e-05
5.1790005e-05
4.0155268e-05
3.0654595e-05
2.2958831e-05
1.6732044e-05
1.1826458e-05
7.8169413e-06
5.0205263e-06
2.3765241e-06
1.8682882e-06
8.9475133e-07
0.0046259673
0.0050155702
0.0052824172
0.0054317077
0.0054832388
0.0054509869
0.0053402525
0.0051614637
0.0049296985
0.0046592274
0.004362227
0.0040494276
0.003730105
0.0034118124
0.0031004328
0.002800414
0.0025149907
0.0022463795
0.0019959641
0.0017644634
0.0015520728
0.0013585807
0.0011834646
0.0010259694
0.00088517165
0.00076003192
0.00064943802
0.00055224026
0.00046728031
0.0003934147
0.00032953343
0.00027457454
0.00022753495
0.00018747817
0.00015353919
0.00012492694
0.00010092487
8.0889648e-05
6.4249073e-05
5.0497277e-05
3.9194229e-05
2.9950839e-05
2.2451129e-05
1.6378806e-05
1.1580359e-05
7.6727358e-06
4.9043675e-06
2.3607442e-06
1.6485839e-06
6.0914292e-07
0.0031792362
0.0035640344
0.0038615469
0.0040745319
0.0042079858
0.0042691973
0.0042612333
0.0041900898
0.0040656837
0.0038986619
0.0036989261
0.0034756994
0.003237417
0.0029913985
0.002743726
0.0024993168
0.0022620353
0.0020348083
0.001819751
0.0016182954
0.0014313083
0.0012591956
0.0011019929
0.00095944263
0.00083106101
0.00071619371
0.0006140636
0.00052381073
0.00044452599
0.00037527899
0.00031514107
0.00026320368
0.00021859294
0.00018048054
0.00014809162
0.00012070991
9.7680538e-05
7.8410838e-05
6.2369978e-05
4.9085954e-05
3.8145622e-05
2.918302e-05
2.1897057e-05
1.5992244e-05
1.1310433e-05
7.5117147e-06
4.7748872e-06
2.3391953e-06
1.43895e-06
3.9118425e-07
0.0020710303
0.0024147162
0.0027049622
0.0029409091
0.0031179258
0.0032372297
0.0032994529
0.003307137
0.0032657744
0.003182358
0.0030641743
0.0029184996
0.0027523946
0.0025723713
0.0023841716
0.0021927066
0.002002068
0.0018155649
0.0016357857
0.0014646778
0.0013036322
0.0011535652
0.0010149942
0.00088810822
0.00077282925
0.00066886794
0.00057577154
0.00049296592
0.00041979169
0.00035553506
0.00029945387
0.00025079911
0.00020883246
0.0001728401
0.00014214327
0.00011610585
9.4139485e-05
7.5706397e-05
6.0320736e-05
4.7547395e-05
3.700271e-05
2.8345845e-05
2.129251e-05
1.5568947e-05
1.1014235e-05
7.33124e-06
4.631557e-06
2.3089577e-06
1.2466169e-06
2.4575159e-07
0.001265435
0.0015463341
0.0018022094
0.0020291358
0.0022176546
0.0023645372
0.0024679396
0.0025276374
0.0025456161
0.0025255807
0.0024721733
0.0023905373
0.0022860468
0.0021640093
0.0020294047
0.0018867338
0.0017399475
0.0015924174
0.0014469386
0.0013057584
0.0011706216
0.0010428238
0.00092326642
0.00081251225
0.0007108381
0.00061828411
0.00053469884
0.00045977994
0.00039311033
0.00033419013
0.00028246417
0.00023734555
0.00019823536
0.00016453869
0.00013567753
0.00011110047
9.028995e-05
7.2766956e-05
5.8094069e-05
4.5876045e-05
3.5761293e-05
2.7436106e-05
2.0635047e-05
1.5106852e-05
1.0690367e-05
7.1295235e-06
4.4746732e-06
2.2674476e-06
1.0766938e-06
1.6859189e-07
0.00071647468
0.00092582325
0.0011313713
0.0013274439
0.0015032961
0.0016532178
0.0017734079
0.001861551
0.001917046
0.0019409203
0.001935411
0.0019035812
0.0018490389
0.0017756756
0.0016874244
0.0015880709
0.001481123
0.0013697312
0.0012566437
0.0011441908
0.0010342913
0.00092847392
0.00082790831
0.00073344168
0.00064563774
0.00056481614
0.00049109084
0.00042440644
0.00036457192
0.00031129138
0.00026419149
0.00022284565
0.00018679479
0.0001555649
0.00012868154
0.00010568131
8.6120836e-05
6.958318e-05
5.5682445e-05
4.4066015e-05
3.4416873e-05
2.6450396e-05
1.9922136e-05
1.4603964e-05
1.0337572e-05
6.9051531e-06
4.3048657e-06
2.2126828e-06
9.3146636e-07
1.4714211e-07
0.00037582077
0.0005141768
0.00066293859
0.00081592095
0.00096317549
0.0010981962
0.00121611
0.0013132769
0.0013873798
0.0014374837
0.001463863
0.0014677438
0.0014510736
0.0014163086
0.001366206
0.0013036424
0.0012314657
0.0011523812
0.0010688732
0.00098315569
0.00089714565
0.00081245532
0.00073039801
0.00065200412
0.00057804374
0.00050905338
0.00044536472
0.00038713398
0.00033437075
0.00028696548
0.00024471512
0.00020734637
0.0001745364
0.00014593089
0.0001211594
9.984803e-05
8.1629681e-05
6.6151894e-05
5.3082758e-05
4.2114638e-05
3.2967345e-05
2.5387147e-05
1.9152686e-05
1.405952e-05
9.9555743e-06
6.6578168e-06
4.1233926e-06
2.1439223e-06
8.1068983e-07
1.634398e-07
0.0001975932
0.00027148093
0.00036406113
0.00046950629
0.00057961945
0.0006882487
0.0007903445
0.00088171564
0.00095911497
0.0010203608
0.0010643123
0.0010907406
0.0011001798
0.0010937757
0.0010731299
0.0010401443
0.00099688367
0.00094545684
0.00088792048
0.00082620742
0.00076207718
0.0006970842
0.00063256171
0.00056961778
0.00050914105
0.00045181333
0.000398127
0.00034840538
0.00030282471
0.00026143666
0.00022419028
0.00019095305
0.00016153019
0.00013568217
0.00011314005
9.3618657e-05
7.6827552e-05
6.2479866e-05
5.0299224e-05
4.0024675e-05
3.1414665e-05
2.4247889e-05
1.8327992e-05
1.34747e-05
9.545584e-06
6.3886615e-06
3.9322089e-06
2.0618663e-06
7.1229272e-07
1.9823736e-07
0.00014131478
0.00016043252
0.00020199996
0.00026102671
0.00033132021
0.00040770451
0.00048561918
0.00056096654
0.00063022471
0.00069060416
0.00074010714
0.00077749768
0.0008022338
0.00081438328
0.00081452378
0.00080363104
0.00078296592
0.00075396949
0.00071816939
0.00067710015
0.00063224043
0.00058496616
0.00053651758
0.00048797891
0.00044026861
0.00039413823
0.00035017788
0.0003088267
0.00027038669
0.00023503877
0.00020285982
0.00017384004
0.00014789979
0.00012490539
0.00010468364
8.7034666e-05
7.1742977e-05
5.8586794e-05
4.7345598e-05
3.7805923e-05
2.9766002e-05
2.3038051e-05
1.7452292e-05
1.2852995e-05
9.110542e-06
6.1004179e-06
3.7339416e-06
1.968604e-06
6.3325901e-07
2.3503227e-07
0.00017313182
0.00014824589
0.00014640561
0.00016362296
0.00019558346
0.00023830796
0.000288092
0.00034136636
0.00039481738
0.00044555753
0.00049122606
0.00053002088
0.00056069454
0.00058252873
0.00059528817
0.00059915535
0.00059465345
0.00058256544
0.00056385564
0.00053959674
0.00051090526
0.00047888798
0.00044459973
0.00040901153
0.00037298901
0.0003372794
0.00030250608
0.00026916913
0.00023765071
0.00020822384
0.00018106368
0.00015626013
0.00013383116
0.00011373605
9.5888083e-05
8.0166339e-05
6.6426208e-05
5.4508582e-05
4.4247616e-05
3.5476979e-05
2.8034956e-05
2.1767766e-05
1.6533265e-05
1.2200458e-05
8.6552124e-06
5.7972969e-06
3.5317244e-06
1.86723e-06
5.702885e-07
2.6275533e-07
0.00026582547
0.00020737677
0.00017058134
0.00015241177
0.00015012958
0.00016091958
0.00018204531
0.00021068391
0.00024402739
0.00027944552
0.00031459769
0.0003474942
0.00037653153
0.00040050971
0.00041862936
0.00043046821
0.0004359409
0.00043524815
0.00042882048
0.00041726058
0.00040128747
0.0003816852
0.00035925834
0.00033479519
0.00030903871
0.00028266527
0.00025627025
0.00023036015
0.00020534988
0.00018156444
0.00015924389
0.00013855081
0.00011957932
0.00010236495
8.6894869e-05
7.3117798e-05
6.0953379e-05
5.0300657e-05
4.1045542e-05
3.3067111e-05
2.6242877e-05
2.0452739e-05
1.5582554e-05
1.1525944e-05
8.1862542e-06
5.4848418e-06
3.3290784e-06
1.7614067e-06
5.202313e-07
2.7650883e-07
0.00039818331
0.00031549636
0.00025198768
0.00020544405
0.00017434576
0.00015687557
0.00015120674
0.00015530649
0.000167004
0.00018412992
0.00020461928
0.00022657836
0.0002483366
0.00026848804
0.00028591718
0.00029980685
0.00030962944
0.00031512502
0.00031626984
0.00031323833
0.00030636194
0.00029608726
0.00028293618
0.00026746982
0.0002502575
0.00023185101
0.00021276489
0.00019346197
0.00017434424
0.00015574811
0.00013794355
0.0001211362
0.00010547185
9.1042514e-05
7.7893553e-05
6.6031222e-05
5.5430253e-05
4.6041118e-05
3.7796697e-05
3.0618202e-05
2.4420276e-05
1.9115193e-05
1.4616341e-05
1.0841379e-05
7.7122802e-06
5.1697392e-06
3.1297946e-06
1.6549038e-06
4.8025037e-07
2.7648774e-07
0.00055409081
0.00045502813
0.00037222426
0.00030410324
0.00025002083
0.00020894257
0.0001798037
0.00016129156
0.00015187915
0.00014993453
0.00015380406
0.00016187021
0.00017260342
0.00018461112
0.00019667775
0.00020779167
0.00021715853
0.00022420258
0.00022855749
0.00023004842
0.00022866774
0.00022454651
0.00021792415
0.00020911817
0.00019849569
0.00018644795
0.00017336836
0.00015963478
0.0001455959
0.00013156179
0.00011779796
0.00010452288
9.1907966e-05
8.00798e-05
6.9123899e-05
5.9089504e-05
4.9994961e-05
4.18333e-05
3.4577698e-05
2.8186581e-05
2.2608247e-05
1.7784915e-05
1.365605e-05
1.0162158e-05
7.2440447e-06
4.8597785e-06
2.9379818e-06
1.5513466e-06
4.4795143e-07
2.6592556e-07
0.00072157641
0.0006124838
0.00051669553
0.00043310852
0.00036166069
0.00030188764
0.00025330908
0.0002152047
0.00018661982
0.00016644538
0.0001534786
0.0001464651
0.00014414099
0.00014527803
0.00014872577
0.00015344609
0.0001585387
0.00016325755
0.0001670183
0.00016939742
0.00017012375
0.00016906417
0.000166205
0.00016163073
0.00015550183
0.00014803283
0.00013947196
0.00013008294
0.00012012964
0.00010986376
9.9515577e-05
8.9287665e-05
7.9351234e-05
6.9844757e-05
6.0874477e-05
5.2516337e-05
4.4818936e-05
3.7807123e-05
3.1485905e-05
2.5844405e-05
2.0859658e-05
1.6500197e-05
1.272904e-05
9.5075904e-06
6.7947097e-06
4.5639295e-06
2.758212e-06
1.454139e-06
4.2151629e-07
2.4902041e-07
0.00089194018
0.00077775418
0.00067411902
0.00058027079
0.00049649976
0.00042272788
0.00035888904
0.00030471114
0.0002597028
0.00022320889
0.00019445078
0.00017255199
0.00015656675
0.00014551517
0.00013841978
0.00013433899
0.00013239602
0.00013180243
0.00013187544
0.00013204873
0.00013187662
0.00013103207
0.00012929967
0.00012656441
0.00012279761
0.0001180413
0.00011239189
0.00010598437
9.8977701e-05
9.1541888e-05
8.3847181e-05
7.6055549e-05
6.8314345e-05
6.0752124e-05
5.3476319e-05
4.6572522e-05
4.0105033e-05
3.4118365e-05
2.8639414e-05
2.3680015e-05
1.9239674e-05
1.5308382e-05
1.186909e-05
8.9012902e-06
6.3801302e-06
4.2925324e-06
2.5957679e-06
1.3665845e-06
3.9988543e-07
2.2951783e-07
0.0010590122
0.00094344148
0.00083598504
0.00073611813
0.00064431586
0.0005607417
0.00048559909
0.00041892928
0.00036058713
0.00031027853
0.00026758468
0.0002319738
0.00020281672
0.00017941019
0.00016100414
0.00014682898
0.00013612179
0.00012815037
0.0001222343
0.00011776169
0.00011420136
0.00011110992
0.00010813412
0.00010500885
0.00010155148
9.7653337e-05
9.3269241e-05
8.8405951e-05
8.3110335e-05
7.7457929e-05
7.1542449e-05
6.5466607e-05
5.9334489e-05
5.324556e-05
4.7290297e-05
4.1547306e-05
3.6081772e-05
3.0944999e-05
2.6174826e-05
2.179669e-05
1.7825125e-05
1.4265611e-05
1.1116346e-05
8.3712269e-06
6.0189594e-06
4.0574351e-06
2.4568379e-06
1.2920621e-06
3.8285044e-07
2.1009406e-07
0.0012185482
0.001104275
0.00099603597
0.00089347506
0.00079713779
0.00070732278
0.00062439049
0.0005485825
0.00047999283
0.00041859286
0.00036424446
0.00031670176
0.0002756163
0.00024054964
0.0002109907
0.00018637492
0.0001661044
0.00014956829
0.00013616268
0.00012530861
0.0001164676
0.00010915385
0.00010294287
9.7476465e-05
9.2464201e-05
8.7681707e-05
8.2966335e-05
7.8210808e-05
7.3355509e-05
6.838003e-05
6.329457e-05
5.8131671e-05
5.2938658e-05
4.7771059e-05
4.268715e-05
3.7743679e-05
3.2992739e-05
2.8479702e-05
2.4242076e-05
2.0309142e-05
1.6702196e-05
1.3435342e-05
1.0516422e-05
7.9492118e-06
5.7323923e-06
3.8719381e-06
2.348571e-06
1.2341736e-06
3.7100341e-07
1.9233881e-07
0.0013677497
0.0012566228
0.0011498008
0.0010470488
0.00094891001
0.00085574496
0.00076798943
0.00068599812
0.00061001566
0.00054019341
0.00047659563
0.00041919511
0.00036787114
0.0003224139
0.00028253331
0.00024787014
0.00021800921
0.00019249412
0.00017084311
0.00015256495
0.00013717411
0.00012420449
0.00011322099
0.00010382872
9.5679403e-05
8.8475082e-05
8.1969164e-05
7.5965183e-05
7.0313604e-05
6.4907184e-05
5.9675326e-05
5.4577929e-05
4.9599127e-05
4.4741283e-05
4.0019496e-05
3.5456819e-05
3.1080275e-05
2.6917728e-05
2.2995566e-05
1.9337155e-05
1.5961952e-05
1.2885267e-05
1.0118319e-05
7.6695588e-06
5.5433521e-06
3.7503822e-06
2.2788692e-06
1.1967519e-06
3.6552042e-07
1.7702174e-07
0.0015048876
0.001398093
0.0012941953
0.0011930501
0.0010951559
0.0010008876
0.00091070124
0.00082500172
0.00074411662
0.00066830764
0.00059777292
0.00053263956
0.00047295756
0.00041869864
0.00036975874
0.00032596269
0.00028707092
0.00025278838
0.0002227752
0.00019665868
0.00017404573
0.00015453538
0.00013773055
0.00012324864
0.00011073057
9.9847822e-05
9.0307456e-05
8.1854999e-05
7.4275392e-05
6.7392189e-05
6.1065298e-05
5.5187642e-05
4.9681063e-05
4.4491842e-05
3.9586124e-05
3.4945513e-05
3.0563037e-05
2.6439605e-05
2.2581059e-05
1.8995829e-05
1.5693202e-05
1.2682202e-05
9.9708647e-06
7.566688e-06
5.4749488e-06
3.7072538e-06
2.2558631e-06
1.1836833e-06
3.678598e-07
1.644113e-07
0.0016290072
0.0015272122
0.0014271875
0.0013288597
0.0012326611
0.0011389531
0.0010481771
0.00096074614
0.00087702245
0.0007973255
0.0007219324
0.00065106955
0.00058490477
0.00052354303
0.00046702491
0.0004153265
0.00036836125
0.0003259837
0.00028799533
0.00025415196
0.00022417252
0.00019774865
0.00017455473
0.00015425777
0.00013652683
0.00012104141
0.00010749863
9.5618834e-05
8.5149705e-05
7.586865e-05
6.7583753e-05
6.0133369e-05
5.3384599e-05
4.7230933e-05
4.1589292e-05
3.6396775e-05
3.1607289e-05
2.718831e-05
2.3117878e-05
1.9381972e-05
1.5972303e-05
1.2884625e-05
1.0117385e-05
7.6714515e-06
5.548052e-06
3.7556941e-06
2.2870179e-06
1.1985149e-06
3.7943896e-07
1.5452472e-07
0.0017396958
0.0016431671
0.0015475208
0.0014527428
0.0013591913
0.0012671995
0.0011771745
0.0010895117
0.0010045759
0.00092270744
0.00084422156
0.00076940066
0.00069848614
0.00063167291
0.00056910546
0.00051087503
0.00045701803
0.00040751602
0.00036229748
0.00032124116
0.00028418106
0.00025091252
0.00022119951
0.00019478247
0.00017138651
0.00015072941
0.00013252936
0.00011651172
0.00010241494
8.9995213e-05
7.9029899e-05
6.9319686e-05
6.0689582e-05
5.2988835e-05
4.6089988e-05
3.9887264e-05
3.4294463e-05
2.9242609e-05
2.4677487e-05
2.0557254e-05
1.6850223e-05
1.3532966e-05
1.0588628e-05
8.0061527e-06
5.7779287e-06
3.9053725e-06
2.3778607e-06
1.2438467e-06
4.0132034e-07
1.4727324e-07
0.0018368901
0.0017455866
0.0016544757
0.0015635954
0.0014732305
0.00138368
0.0012953079
0.0012084778
0.001123538
0.0010408255
0.00096066583
0.00088336572
0.00080920611
0.00073843638
0.00067126946
0.0006078777
0.00054838924
0.00049288559
0.00044140049
0.00039392011
0.00035038469
0.00031069141
0.00027469863
0.00024223109
0.00021308599
0.00018703952
0.00016385374
0.00014328326
0.00012508165
0.0001090072
9.4827891e-05
8.2325395e-05
7.1298128e-05
6.1563251e-05
5.2957748e-05
4.5338647e-05
3.8582533e-05
3.2584498e-05
2.7256709e-05
2.2526723e-05
1.8335723e-05
1.4636803e-05
1.1393302e-05
8.5777911e-06
6.169637e-06
4.1595301e-06
2.5302237e-06
1.3204611e-06
4.3386825e-07
1.42509e-07
0.0019207377
0.0018343835
0.0017476931
0.0016607536
0.0015737807
0.0014870389
0.0014008474
0.0013155326
0.001231416
0.0011488179
0.001068056
0.00098944063
0.00091326788
0.00083981497
0.00076933504
0.0007020527
0.00063815944
0.00057780998
0.00052111928
0.00046816059
0.00041896452
0.00037351941
0.00033177267
0.00029363347
0.00025897632
0.00022764561
0.00019946084
0.00017422227
0.00015171677
0.00013172369
0.00011402033
9.8387013e-05
8.4611455e-05
7.2492401e-05
6.1842419e-05
5.2489877e-05
4.4280131e-05
3.7076004e-05
3.0757657e-05
2.5221994e-05
2.0381705e-05
1.6164123e-05
1.2509901e-05
9.3721075e-06
6.7138787e-06
4.512284e-06
2.7406434e-06
1.4265413e-06
4.764891e-07
1.400401e-07
0.0019914142
0.0019095481
0.0018269469
0.0017437446
0.001660095
0.0015762313
0.0014924307
0.0014089822
0.0013261775
0.0012443134
0.0011636908
0.0010846106
0.0010073686
0.0009322517
0.00085953245
0.00078946544
0.00072228223
0.00065818733
0.00059735413
0.00053992181
0.00048599268
0.00043563061
0.00038886026
0.00034566749
0.0003060007
0.00026977324
0.00023686667
0.00020713493
0.00018040896
0.00015650185
0.0001352141
0.0001163389
9.9667137e-05
8.4992044e-05
7.2113244e-05
6.0840164e-05
5.0994744e-05
4.2413416e-05
3.4948389e-05
2.8468313e-05
2.2858397e-05
1.8020103e-05
1.3870469e-05
1.0341566e-05
7.3785182e-06
4.9429612e-06
2.9968922e-06
1.5558005e-06
5.2689083e-07
1.3947652e-07
0.0020491155
0.0019711293
0.0018921112
0.0018122441
0.0017316266
0.0016504653
0.001569001