/*--------------------------------*- C++ -*----------------------------------*\
  =========                 |
  \\      /  F ield         | OpenFOAM: The Open Source CFD Toolbox
   \\    /   O peration     | Website:  https://openfoam.org
    \\  /    A nd           | Version:  6
     \\/     M anipulation  |
\*---------------------------------------------------------------------------*/
FoamFile
{
    version     2.0;
    format      ascii;
    class       volVectorField;
    location    "78";
    object      U_0;
}
// * * * * * * * * * * * * * * * * * * * * * * * * * * * * * * * * * * * * * //

dimensions      [0 1 -1 0 0 0 0];

internalField   nonuniform List<vector> 
9200
(
(0.0010422877 0.0014184169 -5.9224341e-20)
(0.013688816 -0.0020651394 4.6062917e-20)
(0.038340795 -0.0058784223 -3.851768e-20)
(0.072320998 -0.0097805013 -6.0281974e-20)
(0.11383357 -0.013512298 1.883558e-20)
(0.16167481 -0.016633264 3.2757841e-20)
(0.21479277 -0.018850255 -1.2274054e-20)
(0.27221643 -0.02001226 9.2735579e-21)
(0.33303667 -0.020055062 1.6809882e-20)
(0.39637433 -0.018978482 1.4854568e-21)
(0.46135636 -0.016835031 -2.146659e-20)
(0.52710634 -0.013719005 2.0680259e-20)
(0.59274669 -0.0097556935 -4.0440933e-20)
(0.65741092 -0.0050903438 -2.1145581e-20)
(0.72026425 0.00012358983 5.9077197e-21)
(0.78053019 0.0057341205 -2.5147491e-20)
(0.83753662 0.01161418 2.5234935e-20)
(0.89084053 0.01781047 2.22671e-20)
(0.94004314 0.024455281 -2.9464979e-22)
(0.98242083 0.028165897 -1.663265e-21)
(0.0052571692 -0.0013489704 -1.7065828e-20)
(0.026981388 -0.008998598 3.9764197e-20)
(0.061708066 -0.014825334 2.3585946e-20)
(0.10635593 -0.019193378 -1.1574089e-19)
(0.15882296 -0.022240408 -1.2732526e-20)
(0.21764955 -0.023752188 7.3323839e-20)
(0.28151943 -0.023631526 -3.5490499e-20)
(0.34918381 -0.021910247 -8.3938444e-21)
(0.41944833 -0.018691691 3.4302102e-20)
(0.49114894 -0.014132049 -4.3279296e-20)
(0.56314027 -0.0084324892 -3.0354131e-20)
(0.63430202 -0.0018288845 7.1962575e-20)
(0.70355873 0.0054198077 3.8315521e-20)
(0.7699087 0.013043102 -6.8019919e-20)
(0.83245781 0.020768891 1.4634538e-20)
(0.8904529 0.028328109 -3.6760204e-20)
(0.94332352 0.035468943 -1.3785006e-20)
(0.99078322 0.042030319 7.1038378e-20)
(1.0326987 0.047594515 2.9680603e-20)
(1.0672657 0.049009838 -8.3519616e-20)
(0.010865891 -0.0040460913 3.6786169e-20)
(0.043979487 -0.015442919 2.5054711e-21)
(0.090565103 -0.022570633 2.2351007e-20)
(0.14718838 -0.026521235 9.8151177e-22)
(0.21144955 -0.027915114 -4.0791309e-20)
(0.28160649 -0.026828425 1.8582393e-20)
(0.35604182 -0.023420244 1.3425977e-20)
(0.43319381 -0.017963162 -5.0348211e-20)
(0.51155945 -0.01078149 5.7287e-20)
(0.58968927 -0.002234245 1.4265093e-20)
(0.66619726 0.0072925113 -5.4331117e-20)
(0.73978903 0.017399165 -1.8250292e-20)
(0.80930015 0.027688955 9.0571818e-21)
(0.87373682 0.037784274 2.3461496e-20)
(0.93231219 0.04734076 -1.1372599e-20)
(0.98447118 0.056056563 2.7898551e-20)
(1.0299054 0.063686911 -2.0201974e-20)
(1.0685855 0.070091699 -7.0183191e-20)
(1.1006392 0.074996049 -2.3819707e-20)
(1.1252021 0.076508319 4.8687863e-20)
(0.017967561 -0.0064265808 2.4515876e-20)
(0.064811176 -0.020708163 5.1056904e-20)
(0.12491477 -0.028080739 1.9888323e-20)
(0.19456355 -0.030489027 1.2993345e-20)
(0.27107651 -0.029124006 1.7281033e-20)
(0.35241004 -0.024421764 -4.7737388e-20)
(0.43662621 -0.016862086 -2.5656937e-20)
(0.52184674 -0.00701613 0)
(0.60628449 0.0045239057 1.3931793e-20)
(0.6882674 0.017164345 -5.8597754e-21)
(0.76627534 0.030321453 -9.798871e-20)
(0.83898885 0.043441096 -1.5780636e-20)
(0.90533795 0.056020946 6.5149905e-20)
(0.96454084 0.067630269 4.7880854e-22)
(1.0161256 0.077924685 -1.5737311e-21)
(1.0599298 0.086653804 2.1974341e-20)
(1.0960797 0.093668714 -5.2701961e-21)
(1.1249677 0.098950979 -6.107719e-20)
(1.1471358 0.10247193 -4.5890791e-20)
(1.1625494 0.10327875 6.9563505e-20)
(0.026593 -0.0082105261 -3.920222e-21)
(0.089387 -0.024047436 -5.1269995e-21)
(0.1643835 -0.030284921 5.6617267e-20)
(0.24769226 -0.029834127 1.8544884e-20)
(0.33638851 -0.024540291 -3.196589e-20)
(0.42813338 -0.01526971 1.2167948e-20)
(0.52068796 -0.0028836643 2.6413869e-21)
(0.61190876 0.011702049 3.3626127e-20)
(0.69981758 0.027601679 5.6629006e-21)
(0.78265863 0.043985913 -1.3215031e-20)
(0.85895801 0.060099294 6.0197709e-20)
(0.92758048 0.075285197 -5.8041679e-20)
(0.98776947 0.089009501 -1.3225465e-19)
(1.0391616 0.10087647 -5.5812469e-21)
(1.0817722 0.11063449 8.3213244e-20)
(1.1159528 0.11817083 0)
(1.1423271 0.12350174 1.0125579e-20)
(1.1617228 0.12677566 -1.5471611e-20)
(1.175057 0.12817337 -8.6063947e-21)
(1.18289 0.12731416 2.1006145e-20)
(0.036683978 -0.0090944359 -5.4311407e-21)
(0.11736726 -0.024698727 4.359161e-21)
(0.20820822 -0.028158472 -8.7655621e-21)
(0.30528473 -0.023436149 2.8481028e-20)
(0.40550053 -0.013098697 -2.9403256e-20)
(0.50627181 0.0014979673 -1.6933661e-20)
(0.60513675 0.019068748 3.7375693e-20)
(0.69980796 0.038336398 4.7601701e-21)
(0.78828285 0.058135201 -2.4454329e-20)
(0.86892701 0.077445584 6.9907148e-20)
(0.94054005 0.095414752 5.189492e-22)
(1.0023969 0.11137976 -8.0500801e-20)
(1.0542537 0.12488193 0)
(1.096315 0.13566641 3.9572587e-20)
(1.1291673 0.14366664 5.5281633e-21)
(1.1536882 0.14897624 -7.7621923e-20)
(1.1709436 0.1518157 -1.9600757e-20)
(1.1820908 0.15250995 -1.2476496e-20)
(1.1882722 0.15140271 -1.472022e-20)
(1.1903447 0.14845275 4.0448623e-20)
(0.048079554 -0.0087718127 -1.7281631e-20)
(0.14814443 -0.021943568 -2.2231288e-21)
(0.2552433 -0.020812741 3.0388073e-20)
(0.36560686 -0.010429047 3.7493316e-20)
(0.47608519 0.0058847272 -1.9951242e-20)
(0.58395764 0.0262518 -6.9191678e-20)
(0.68668547 0.04895835 -2.8010762e-20)
(0.78202789 0.072396327 7.8968057e-20)
(0.86818306 0.09518681 8.5861679e-21)
(0.94387844 0.11621799 -2.4885272e-20)
(1.0084166 0.13465902 1.3645951e-20)
(1.0616736 0.14996722 -4.3239778e-21)
(1.104047 0.16187811 0)
(1.1363629 0.17037502 2.7221182e-20)
(1.1597558 0.17564287 -7.9374888e-20)
(1.175538 0.17801274 -3.1496422e-20)
(1.1850778 0.17790699 8.1108641e-20)
(1.1896984 0.1757989 -4.3010031e-21)
(1.1905958 0.1721365 3.5581246e-21)
(1.1886887 0.16706616 2.7131535e-20)
(0.060509529 -0.0069608177 -3.2421237e-20)
(0.1808478 -0.015178894 -8.1647175e-20)
(0.30400383 -0.0075933492 2.576712e-21)
(0.42658183 0.0096938906 7.0185341e-20)
(0.5455452 0.032622696 6.2446971e-20)
(0.65820645 0.058811159 -7.1598861e-20)
(0.76215919 0.086166263 -2.7855015e-22)
(0.85545072 0.11283889 8.5569911e-20)
(0.93673117 0.13735974 4.885385e-20)
(1.005322 0.15866789 -5.4251205e-20)
(1.0612129 0.17610095 -9.2389369e-20)
(1.1049934 0.18936873 -3.1608988e-21)
(1.1377335 0.19850377 4.2153655e-20)
(1.1608314 0.20379184 -6.6099234e-21)
(1.1758543 0.20569266 -1.287656e-20)
(1.1843928 0.20476147 1.9702062e-20)
(1.1879443 0.20158192 4.3908122e-20)
(1.1878343 0.19672045 -4.3886089e-20)
(1.185173 0.19066599 -1.023885e-19)
(1.1807924 0.1836543 2.4585433e-20)
(0.073564885 -0.0034349646 -3.4990099e-20)
(0.21430484 -0.0039932772 -1.7392229e-19)
(0.35264132 0.011836154 8.2132877e-20)
(0.48579479 0.037017194 9.2799727e-20)
(0.61105656 0.066836025 5.7990855e-20)
(0.72599872 0.098481886 8.6146131e-21)
(0.8286002 0.12959588 -1.0628714e-19)
(0.91745478 0.15823748 0)
(0.99189726 0.18301648 -6.8790195e-20)
(1.0520203 0.20309191 -1.5212546e-20)
(1.0985998 0.21811844 5.4734844e-20)
(1.1329517 0.22816974 1.0980085e-20)
(1.1567492 0.23364031 -4.5640281e-20)
(1.1718313 0.2351362 -4.9109286e-20)
(1.1800313 0.23336977 2.43027e-20)
(1.1830431 0.22907024 4.4850695e-20)
(1.182335 0.22291848 -5.5634491e-20)
(1.1791115 0.21550948 -1.0757578e-19)
(1.1743127 0.20731706 -3.1512658e-21)
(1.168614 0.19860791 2.706261e-20)
(0.086681112 0.001961337 -3.5482842e-21)
(0.24704476 0.011817706 8.7937497e-20)
(0.39898011 0.037496936 -1.6469209e-20)
(0.54057883 0.0712267 -8.4345038e-20)
(0.6697069 0.10779957 4.5182881e-20)
(0.78445258 0.14412617 4.9191146e-20)
(0.88343891 0.17776484 5.5384426e-21)
(0.96603641 0.20688771 -9.9551663e-20)
(1.032435 0.23038302 -2.5062236e-21)
(1.0835866 0.24780082 5.0531922e-20)
(1.1210518 0.25923739 5.9888946e-21)
(1.146789 0.26519919 -1.9728442e-20)
(1.1629312 0.26645711 -7.5746471e-20)
(1.1715841 0.26390742 -6.2580475e-21)
(1.1746715 0.25845587 4.3556918e-20)
(1.1738388 0.25093391 3.7041931e-20)
(1.1704121 0.24204949 1.9802652e-20)
(1.1654049 0.2323678 -5.3029788e-20)
(1.1595579 0.22230758 1.2958716e-20)
(1.1533742 0.2121364 8.2704131e-20)
(-0.0012938578 0.0014353116 -1.1236622e-21)
(-0.004748078 0.0031887778 2.0654488e-21)
(-0.010775959 0.0041375775 8.8070495e-22)
(-0.017761593 0.0045412628 -2.4404149e-21)
(-0.024750131 0.0045670255 -1.4133718e-21)
(-0.031311532 0.0043274118 1.5481734e-21)
(-0.037174897 0.0039045939 -6.8754594e-21)
(-0.042162072 0.003358402 -5.9623452e-21)
(-0.046172846 0.0027316425 1.1180584e-20)
(-0.049161049 0.0020546381 -9.7502703e-21)
(-0.05111463 0.0013486238 -1.9848302e-22)
(-0.052042842 0.00062823208 3.6703341e-21)
(-0.051967845 -9.6622481e-05 -6.3341688e-22)
(-0.050918961 -0.00081923866 2.2837887e-20)
(-0.048929066 -0.0015347632 3.0409262e-22)
(-0.046034043 -0.00223874 -4.091929e-20)
(-0.042275087 -0.0029265201 7.5458554e-21)
(-0.037690459 -0.0035960169 2.3886365e-20)
(-0.032288513 -0.0042457329 -4.3894673e-20)
(-0.026128626 -0.0048276318 -2.7766677e-20)
(-0.0016529296 0.0041827467 -5.3745283e-21)
(-0.0053997603 0.0092720437 1.0869066e-20)
(-0.011223007 0.012012219 -1.019642e-20)
(-0.017664774 0.013158663 3.9268809e-21)
(-0.023865096 0.013199936 4.8168253e-21)
(-0.029443396 0.012466527 7.1384871e-22)
(-0.03416321 0.011199855 -2.2527341e-20)
(-0.037871401 0.0095756046 -2.0384122e-21)
(-0.040484729 0.0077194319 2.017845e-20)
(-0.041967996 0.0057203076 -5.051149e-21)
(-0.042315874 0.0036404825 -2.1779298e-20)
(-0.041541289 0.0015227836 4.9011373e-21)
(-0.03966784 -0.00060387177 2.2652889e-20)
(-0.0367245 -0.002720061 1.0316852e-20)
(-0.032741819 -0.0048118284 2.1873337e-20)
(-0.027752358 -0.0068665999 -1.9787899e-20)
(-0.021800382 -0.0088713805 -2.169199e-20)
(-0.014933221 -0.010819576 2.120513e-20)
(-0.0070861693 -0.01269666 2.683534e-20)
(0.0019283962 -0.014337183 1.5868613e-20)
(-0.0023043839 0.0065630918 -4.3592264e-21)
(-0.0065417396 0.014486084 -5.6401933e-21)
(-0.011896331 0.01871769 3.0707406e-22)
(-0.017216657 0.020435426 1.0948642e-21)
(-0.021825462 0.020406882 6.6958617e-21)
(-0.025437399 0.01915699 1.0671489e-20)
(-0.027882819 0.01706999 -3.7254337e-21)
(-0.029057212 0.014425584 -1.8908722e-20)
(-0.028910409 0.011424039 6.5458877e-21)
(-0.027428883 0.0082073049 1.2871751e-20)
(-0.024620999 0.0048747345 5.8388215e-21)
(-0.020507797 0.0014946087 1.8172118e-20)
(-0.015116984 -0.0018872319 1.7309176e-21)
(-0.0084785696 -0.0052405155 -3.3890379e-20)
(-0.0006210484 -0.0085439504 1.2038988e-21)
(0.0084271125 -0.011778709 -2.2155437e-20)
(0.018614495 -0.014927155 -2.4488501e-20)
(0.029872638 -0.017980477 4.5861318e-20)
(0.042389746 -0.020885688 2.5373894e-20)
(0.056839878 -0.023282106 1.2436977e-22)
(-0.0031302277 0.008372438 -5.2863471e-21)
(-0.0078990823 0.018343549 -8.4892218e-21)
(-0.012442548 0.023596229 4.3612986e-21)
(-0.016030162 0.025618005 4.1487915e-21)
(-0.018237761 0.02539001 2.0115504e-21)
(-0.018913466 0.023594793 7.3259638e-21)
(-0.01798252 0.020733443 9.3185655e-21)
(-0.01541036 0.017170872 -1.3521151e-21)
(-0.011195358 0.013168842 -1.1489469e-20)
(-0.0053569698 0.0089132553 -2.9091382e-20)
(0.002074227 0.0045343437 6.2218032e-23)
(0.011061803 0.00012159635 4.0725967e-20)
(0.021568071 -0.0042654926 -1.8395269e-20)
(0.033555665 -0.0085881693 -1.2305024e-20)
(0.046991757 -0.012820405 5.5271573e-22)
(0.061846277 -0.01694124 3.2328126e-20)
(0.078055666 -0.020935854 -1.4843673e-20)
(0.095512892 -0.024802658 -5.3381992e-20)
(0.11453875 -0.028424347 4.5801992e-20)
(0.13650824 -0.031122899 3.3040693e-20)
(-0.0039717879 0.00946938 -6.8768774e-22)
(-0.009094258 0.020494991 -1.2540947e-20)
(-0.012366864 0.026167472 -3.4164359e-20)
(-0.013553345 0.028151289 -5.7283413e-21)
(-0.012531074 0.027561375 -3.623343e-21)
(-0.0093101886 0.025192027 6.3089352e-21)
(-0.0039333199 0.021628375 -4.649225e-21)
(0.0035456888 0.017296477 -8.8123518e-21)
(0.013065096 0.012502471 2.1912673e-20)
(0.024559748 0.0074640684 5.0593825e-21)
(0.03796583 0.0023341738 -2.530722e-20)
(0.053221108 -0.0027821196 1.1084833e-20)
(0.070265519 -0.007815063 0)
(0.089041858 -0.012720599 1.2097681e-20)
(0.10949899 -0.017471592 -9.7083128e-21)
(0.13159087 -0.022050234 -1.4348014e-20)
(0.15522906 -0.026454968 -1.5718405e-21)
(0.18024562 -0.030712096 -2.221085e-21)
(0.20705602 -0.034635911 4.617824e-20)
(0.23789389 -0.037085729 -1.0482786e-20)
(-0.0046464997 0.0097842648 -7.5389662e-21)
(-0.0096793218 0.020754245 2.4529467e-20)
(-0.011064853 0.026167984 -1.0505581e-20)
(-0.0090937276 0.02773045 -2.74837e-20)
(-0.0039711945 0.026605504 -2.7561457e-20)
(0.0041119229 0.023649155 -1.4929514e-20)
(0.01497887 0.019493503 -6.9109314e-22)
(0.028471695 0.014597564 5.5528776e-21)
(0.044451108 0.0092917283 1.962611e-20)
(0.062792725 0.0038117918 7.3571338e-21)
(0.083382583 -0.0016765781 -7.1900427e-21)
(0.10611505 -0.0070595369 -2.0105817e-21)
(0.13088919 -0.01226214 -3.8214822e-20)
(0.1576063 -0.017238809 -1.2701479e-20)
(0.18617173 -0.02196508 1.8764326e-20)
(0.2164959 -0.026431638 -2.103684e-20)
(0.24844213 -0.030661029 -8.9792548e-21)
(0.28175549 -0.034736682 3.0458876e-20)
(0.3168717 -0.038438614 5.0504618e-20)
(0.35694518 -0.040045485 3.3586082e-21)
(-0.0049629632 0.0093167854 1.6790146e-20)
(-0.0091671819 0.019102351 1.4473925e-20)
(-0.0078569389 0.02356778 5.116991e-20)
(-0.0018502098 0.024331599 2.3400086e-20)
(0.0083122566 0.022523536 1.8261464e-22)
(0.022248857 0.019010393 -3.9408408e-20)
(0.039636842 0.014432576 -2.4326084e-20)
(0.060201825 0.0092531486 1.04708e-20)
(0.083709542 0.0038047756 1.4408721e-20)
(0.10995556 -0.0016753255 -1.3119554e-20)
(0.1387548 -0.0070209068 -4.4062288e-20)
(0.16993296 -0.012118893 2.9634884e-20)
(0.20331906 -0.016896621 2.0030793e-20)
(0.23873972 -0.021313134 -2.7567e-20)
(0.27601911 -0.025352475 1.1657623e-20)
(0.3149825 -0.029020425 2.4212348e-20)
(0.35540816 -0.032373749 8.0780931e-21)
(0.3969252 -0.035585128 -1.1773378e-20)
(0.43989673 -0.038479356 -1.4196919e-20)
(0.4883342 -0.038729518 5.8838725e-21)
(-0.0047314736 0.0081255593 1.1098873e-20)
(-0.0070575659 0.015673395 -2.3365352e-20)
(-0.0020228445 0.018562896 8.6224982e-21)
(0.0090476274 0.018214437 3.3604504e-20)
(0.025282773 0.015645706 5.2148672e-20)
(0.046106581 0.011685764 2.0286043e-20)
(0.07104097 0.0069461674 -5.8669325e-21)
(0.099676831 0.0018627917 -1.2291549e-20)
(0.13166436 -0.0032530809 -6.2092205e-21)
(0.16669357 -0.0081815622 3.4257387e-20)
(0.20447639 -0.012771517 -4.5138612e-21)
(0.24473279 -0.01692393 -1.6652497e-20)
(0.28717973 -0.020580222 -1.9703189e-20)
(0.33152304 -0.023714982 -4.7469977e-20)
(0.37745624 -0.02633137 2.3251696e-20)
(0.42466804 -0.028461184 -1.4104533e-20)
(0.47280836 -0.030208617 2.6010776e-20)
(0.52137212 -0.03187205 2.1054353e-20)
(0.57057541 -0.033447858 -8.561308e-20)
(0.62509483 -0.032164868 -1.0559117e-22)
(-0.0037709178 0.0063154381 2.193403e-20)
(-0.0028618703 0.010734435 -2.6178413e-20)
(0.0071540998 0.011560842 -4.5033198e-20)
(0.024473874 0.0099181001 -2.7266306e-20)
(0.047909202 0.0066410448 -2.0449058e-21)
(0.076684546 0.0024744181 1.3055228e-20)
(0.1101526 -0.0020369488 -2.8344049e-21)
(0.14775025 -0.006515135 1.8126169e-20)
(0.18898349 -0.010696678 8.8719089e-21)
(0.23340056 -0.014401772 -1.1385155e-20)
(0.28056757 -0.017514698 8.8833397e-21)
(0.33005057 -0.019969173 -2.3914851e-20)
(0.38140232 -0.021737912 8.055677e-21)
(0.43415333 -0.022826178 1.6765674e-20)
(0.48781021 -0.02326794 -2.6409007e-21)
(0.54186515 -0.02312811 1.6626012e-21)
(0.5957787 -0.02255844 -3.1891135e-22)
(0.6488838 -0.02196699 1.9602406e-20)
(0.70120763 -0.021550144 4.0457521e-21)
(0.75785211 -0.018613081 -5.8597011e-22)
(-0.0019096835 0.0040269708 2.3702732e-20)
(0.0038771877 0.004672787 5.7186964e-20)
(0.020334275 0.0031803143 -4.9265399e-20)
(0.045212331 0.00028231944 -9.9497545e-21)
(0.077017561 -0.0034411923 2.0264507e-20)
(0.1147699 -0.007375892 2.1442439e-21)
(0.15763629 -0.011082761 -2.9827127e-20)
(0.20487169 -0.014277623 6.9870758e-21)
(0.2558005 -0.016777253 7.1136302e-21)
(0.30978457 -0.018472286 -2.6266039e-20)
(0.36619582 -0.019311613 1.2935336e-21)
(0.42439847 -0.019289785 -3.719251e-20)
(0.48373882 -0.018436783 -3.6360175e-20)
(0.54354103 -0.016809827 6.5720849e-20)
(0.60310901 -0.014486176 5.5662181e-21)
(0.66173246 -0.011562484 -1.5200389e-20)
(0.7186708 -0.0081967198 1.9375455e-20)
(0.7730774 -0.0046959489 -9.1944112e-22)
(0.82447773 -0.001079961 2.0370415e-20)
(0.87661468 0.0042067391 -1.957342e-20)
(-0.018798036 -0.0051067446 5.8412325e-20)
(-0.010174001 -0.0056427372 1.5799141e-20)
(-0.00015631836 -0.0060774416 -3.5176187e-20)
(0.010904129 -0.0063433146 1.6809919e-20)
(0.02274113 -0.006521859 0)
(0.035296103 -0.0066404959 0)
(0.048509331 -0.0067019508 -2.3002696e-20)
(0.062301163 -0.006714063 -1.6522843e-20)
(0.076601253 -0.0066862207 1.9148439e-20)
(0.091350167 -0.0066252149 1.8198606e-20)
(0.10649301 -0.0065362386 1.0534399e-21)
(0.12197807 -0.006423857 -1.0331147e-20)
(0.13775714 -0.006292031 8.3409305e-21)
(0.1537851 -0.0061441104 1.8258762e-20)
(0.17001929 -0.0059829613 -5.2380699e-21)
(0.1864192 -0.0058110722 -1.0189208e-20)
(0.2029462 -0.0056306174 -4.3256877e-21)
(0.21956343 -0.0054435094 -4.4306482e-21)
(0.23623563 -0.0052514442 7.3719825e-22)
(0.25292912 -0.0050559359 1.2309231e-21)
(0.2696118 -0.0048583437 2.5733215e-21)
(0.28625313 -0.0046598919 6.6669859e-21)
(0.3028242 -0.0044616843 2.4621998e-22)
(0.31929779 -0.0042647151 -3.4595647e-21)
(0.33564842 -0.004069877 1.5517182e-22)
(0.35185244 -0.0038779672 -5.7867403e-22)
(0.36788805 -0.003689691 1.2471553e-21)
(0.38373538 -0.0035056672 1.0541268e-21)
(0.3993765 -0.0033264306 -1.3066964e-21)
(0.41479547 -0.0031524362 -1.2184368e-22)
(0.42997834 -0.0029840634 3.1291193e-23)
(0.44491311 -0.0028216206 -3.538435e-22)
(0.4595898 -0.0026653494 -4.1059103e-22)
(0.47400033 -0.0025154309 5.8781568e-23)
(0.48813858 -0.0023719913 -1.3938422e-22)
(0.50200033 -0.0022351078 -2.2531316e-22)
(0.51558321 -0.0021048161 2.5848245e-22)
(0.52888681 -0.0019811168 2.9884197e-22)
(0.54191248 -0.0018639854 -1.0953903e-23)
(0.5546639 -0.0017533757 -1.6193952e-22)
(0.5671458 -0.0016492515 3.0311101e-23)
(0.57936854 -0.0015515344 -4.0862786e-23)
(0.59133497 -0.0014603448 9.768077e-23)
(0.60308225 -0.0013753448 2.0533237e-23)
(0.61456008 -0.0012979995 -1.2957498e-22)
(0.62599529 -0.0012248505 -7.8914167e-24)
(0.63684122 -0.0011691082 6.7032339e-25)
(0.64882599 -0.0010960023 -5.6375506e-24)
(0.65728906 -0.0011208191 2.8895595e-23)
(0.67531159 -0.00095512618 3.8050016e-22)
(0.010511951 -0.015039096 -1.2761783e-20)
(0.018258323 -0.01666472 -6.3365821e-20)
(0.027872596 -0.017941322 -3.0576712e-20)
(0.038495107 -0.01869985 3.8519198e-20)
(0.049749097 -0.01921313 1.4679662e-20)
(0.061654581 -0.019560707 -1.8228841e-20)
(0.07418244 -0.019742812 4.6810238e-21)
(0.087255845 -0.019781037 2.5478051e-20)
(0.10081183 -0.019703361 8.9083832e-23)
(0.11480024 -0.019529258 -7.6705939e-21)
(0.12917306 -0.019273341 -1.3033643e-20)
(0.14388378 -0.018948668 -8.5391625e-21)
(0.15888859 -0.018566661 1.779662e-20)
(0.17414608 -0.018136986 8.9520969e-21)
(0.18961664 -0.017667934 -1.6540869e-20)
(0.20526219 -0.017166737 -6.0478307e-21)
(0.22104614 -0.016639745 3.2177051e-21)
(0.23693327 -0.016092563 8.3816746e-21)
(0.25288971 -0.01553018 6.9960257e-21)
(0.26888289 -0.01495707 -6.9906274e-21)
(0.28488163 -0.01437726 -3.1820467e-21)
(0.30085613 -0.013794387 1.3704167e-21)
(0.31677812 -0.013211741 3.9685269e-22)
(0.33262084 -0.012632291 1.2166272e-21)
(0.34835922 -0.012058709 1.8643157e-22)
(0.36396986 -0.011493385 -3.2990385e-22)
(0.37943117 -0.010938439 -7.2890352e-22)
(0.3947234 -0.010395733 9.8156766e-22)
(0.40982865 -0.0098668794 8.3232438e-22)
(0.42473097 -0.0093532562 -1.5916755e-22)
(0.43941628 -0.0088560137 5.6020795e-22)
(0.45387247 -0.0083760908 -2.4014141e-22)
(0.46808933 -0.0079142284 -3.7770123e-22)
(0.48205853 -0.0074709857 -6.1885597e-22)
(0.49577365 -0.0070467578 4.4584531e-22)
(0.50923011 -0.0066417942 -2.3697127e-23)
(0.52242519 -0.0062562193 1.6997198e-22)
(0.53535804 -0.0058900531 -4.5543956e-22)
(0.5480296 -0.0055432406 3.9079617e-22)
(0.56044308 -0.0052156607 6.9032519e-23)
(0.57260274 -0.0049072234 -1.0308217e-22)
(0.58451842 -0.0046177115 1.9008585e-22)
(0.59619254 -0.0043475026 2.5546874e-22)
(0.60766149 -0.0040956029 1.89091e-22)
(0.61887521 -0.0038664049 1.9263508e-22)
(0.63005742 -0.003649602 -3.0640272e-23)
(0.64066837 -0.0034845948 1.0851463e-22)
(0.65241188 -0.0032678091 1.0094665e-22)
(0.66069548 -0.0033422342 -2.2963607e-22)
(0.67839393 -0.0028507709 -3.3704303e-23)
(0.067731303 -0.024065899 9.4632025e-21)
(0.07371931 -0.026789249 3.3008067e-21)
(0.082410748 -0.028849237 -1.2181534e-20)
(0.092110534 -0.030015109 -1.2298865e-21)
(0.10216469 -0.030817233 1.4990578e-20)
(0.11274809 -0.031383004 -1.4904769e-20)
(0.1238997 -0.031690843 -2.9881909e-20)
(0.13554429 -0.031770328 1.4515087e-20)
(0.14762998 -0.031667414 1.8208886e-20)
(0.16012392 -0.031412207 -1.161605e-20)
(0.17299056 -0.031026267 1.020454e-21)
(0.18619235 -0.030529424 8.6917884e-21)
(0.19969315 -0.029939384 -1.52796e-20)
(0.21345798 -0.029271183 2.9279131e-21)
(0.22745237 -0.028537779 7.5349871e-21)
(0.24164245 -0.027750574 2.0835036e-23)
(0.25599501 -0.026919669 2.5880721e-22)
(0.27047763 -0.026054057 -7.4334438e-21)
(0.28505865 -0.0251618 3.8832884e-21)
(0.29970735 -0.024250174 8.4982524e-21)
(0.31439403 -0.023325772 -3.8461302e-21)
(0.3290901 -0.022394582 -2.2176433e-21)
(0.34376823 -0.021462042 1.0111711e-21)
(0.35840241 -0.020533082 -1.7233871e-21)
(0.37296814 -0.019612156 1.3566031e-21)
(0.38744244 -0.01870326 7.2043091e-22)
(0.40180396 -0.017809952 1.5465037e-21)
(0.41603308 -0.016935366 -1.9740393e-21)
(0.43011191 -0.016082231 2.250092e-21)
(0.44402436 -0.015252883 5.5804371e-22)
(0.45775614 -0.014449289 4.1930916e-22)
(0.4712948 -0.013673063 3.2312363e-22)
(0.48462971 -0.012925493 8.9293834e-22)
(0.49775205 -0.012207565 -1.4025887e-21)
(0.51065479 -0.011519994 3.8128846e-22)
(0.52333271 -0.010863253 1.2069023e-22)
(0.53578237 -0.010237608 -4.9163875e-23)
(0.54800214 -0.0096431479 8.2322672e-23)
(0.55999216 -0.0090798407 -3.8610135e-22)
(0.57175477 -0.0085475413 1.9378129e-22)
(0.58329335 -0.0080461554 -3.6059187e-23)
(0.59461678 -0.0075753762 4.2723702e-22)
(0.60572668 -0.0071358815 -2.048097e-22)
(0.61665798 -0.0067260754 5.0756002e-23)
(0.62736107 -0.0063532604 5.0745425e-23)
(0.63805387 -0.0060004894 -8.6219138e-23)
(0.64820971 -0.005732642 -1.5370256e-22)
(0.6594859 -0.0053796179 4.7406999e-22)
(0.66742127 -0.0055033703 2.0421444e-22)
(0.68449158 -0.0047029554 -8.7610653e-22)
(0.15039718 -0.031513453 1.5041483e-21)
(0.15374244 -0.035314717 -1.157484e-20)
(0.16082817 -0.038072678 6.647721e-21)
(0.16903624 -0.03954464 -1.3339002e-20)
(0.17723198 -0.040589806 -1.9780473e-21)
(0.18579386 -0.041374975 9.1741702e-21)
(0.19487681 -0.04183343 -9.7853683e-21)
(0.20440338 -0.041993272 1.5625503e-21)
(0.21432964 -0.041916151 1.2920391e-20)
(0.22464521 -0.04164032 3.4117918e-21)
(0.2353309 -0.041191106 -6.2181117e-21)
(0.24635968 -0.040592504 -2.8722026e-21)
(0.25770424 -0.039866728 -5.8426483e-21)
(0.26933717 -0.039032904 -6.4690357e-21)
(0.28123 -0.038107654 3.231439e-21)
(0.29335359 -0.037105789 8.3603339e-22)
(0.30567853 -0.036040619 1.3745806e-21)
(0.31817538 -0.034924143 -3.3908398e-21)
(0.33081495 -0.033767241 -4.2595997e-21)
(0.3435684 -0.032579828 2.370989e-21)
(0.35640756 -0.031370966 3.2412221e-21)
(0.36930503 -0.030148947 -1.5764349e-21)
(0.38223438 -0.028921351 1.5946972e-21)
(0.39517031 -0.027695089 -3.9695458e-22)
(0.40808878 -0.02647643 -3.9492644e-21)
(0.42096711 -0.02527103 -3.0469992e-21)
(0.43378408 -0.024083944 -1.9593876e-22)
(0.44652005 -0.022919648 4.2507879e-22)
(0.45915695 -0.021782056 -2.2238496e-21)
(0.47167841 -0.020674542 -8.7321041e-22)
(0.48406972 -0.019599964 2.2945396e-22)
(0.49631788 -0.018560695 -1.2711633e-21)
(0.5084116 -0.017558648 1.4426605e-24)
(0.52034132 -0.016595323 -4.3605462e-22)
(0.53209918 -0.015671834 -4.7637655e-22)
(0.54367902 -0.014788962 -5.43508e-22)
(0.5550764 -0.013947195 -8.7806055e-22)
(0.56628863 -0.013146777 -5.1926258e-23)
(0.57731473 -0.012387776 -3.9932352e-24)
(0.58815587 -0.011670105 -5.4820377e-22)
(0.59881422 -0.010993741 -8.830158e-23)
(0.60929737 -0.010358365 -3.5949092e-22)
(0.61960584 -0.009765017 -4.845112e-22)
(0.62977259 -0.0092115893 4.2093195e-22)
(0.63974868 -0.0087082462 1.6523988e-23)
(0.6497438 -0.0082317716 2.121744e-22)
(0.65925009 -0.0078712691 -1.6791989e-22)
(0.66985803 -0.0073940572 -3.2337399e-22)
(0.67729565 -0.007566415 -1.3905447e-23)
(0.69346479 -0.0064843539 4.9030398e-22)
(0.25493795 -0.036622704 -2.0922661e-20)
(0.25473667 -0.041468221 4.7627926e-20)
(0.2593566 -0.044825395 1.0356562e-20)
(0.26538638 -0.046526189 -1.5781671e-20)
(0.27103138 -0.047802675 -2.028381e-21)
(0.27686278 -0.048840378 2.6223942e-21)
(0.28320054 -0.049510503 -1.6666384e-21)
(0.28996567 -0.049828942 -4.6917257e-21)
(0.29711058 -0.049866222 -4.0209706e-21)
(0.30464633 -0.0496657 -1.2223616e-20)
(0.31257165 -0.049254104 1.7928882e-20)
(0.32086931 -0.048656908 6.5361288e-21)
(0.32951936 -0.047898693 -1.6804609e-20)
(0.33850092 -0.047001318 1.0323093e-20)
(0.34779072 -0.045984138 8.3872063e-21)
(0.35736352 -0.044864677 -8.6982804e-22)
(0.36719288 -0.043658969 -3.1196524e-21)
(0.37725169 -0.042381726 -3.8373005e-21)
(0.38751248 -0.041046481 -1.3973391e-21)
(0.39794776 -0.039665716 -1.238106e-21)
(0.40853028 -0.038250959 -3.0431405e-21)
(0.41923334 -0.036812848 0)
(0.43003096 -0.035361182 -1.3543027e-21)
(0.44089809 -0.033904946 3.9455359e-21)
(0.45181076 -0.03245234 5.4362928e-21)
(0.46274622 -0.031010792 -9.4345244e-22)
(0.47368306 -0.029586979 -2.9582296e-21)
(0.48460127 -0.02818684 3.0639416e-21)
(0.49548235 -0.0268156 2.443145e-22)
(0.50630933 -0.025477792 3.4788071e-21)
(0.51706683 -0.024177288 -5.3708242e-22)
(0.52774105 -0.022917335 1.738628e-21)
(0.53831982 -0.021700593 -8.158299e-22)
(0.54879259 -0.020529185 3.0384712e-22)
(0.55915043 -0.019404742 -4.4877876e-22)
(0.56938606 -0.018328461 5.7382142e-22)
(0.57949381 -0.017301162 4.7352283e-22)
(0.58946973 -0.016323347 3.9822641e-22)
(0.59931151 -0.015395292 -1.0020199e-21)
(0.60901893 -0.014517063 7.1864274e-22)
(0.61859278 -0.013688809 -3.9029172e-22)
(0.62803911 -0.012910291 -1.1864764e-21)
(0.6373572 -0.01218299 1.5305076e-21)
(0.64657763 -0.011504399 -6.6752004e-23)
(0.65565244 -0.010887466 -1.7793961e-22)
(0.66478102 -0.010303211 -9.0463616e-24)
(0.67347947 -0.0098632386 -1.5992338e-22)
(0.68325372 -0.009277641 -5.5464901e-22)
(0.69007131 -0.009497456 8.6023413e-22)
(0.70511018 -0.008169704 -4.7720225e-23)
(0.37666955 -0.038454724 -1.7514057e-20)
(0.37204246 -0.044361799 1.2841489e-20)
(0.37321622 -0.04825847 2.9831076e-21)
(0.37627872 -0.050200566 -7.6431135e-21)
(0.37869329 -0.051776443 1.20686e-20)
(0.38113152 -0.05315364 7.800089e-21)
(0.38410644 -0.054146057 -1.2658423e-20)
(0.38755428 -0.054753775 -6.0751732e-21)
(0.39140765 -0.055043239 1.2712922e-20)
(0.39568707 -0.055056848 -1.5333234e-20)
(0.40040677 -0.054821632 -1.4081448e-20)
(0.40555723 -0.054363102 1.4160169e-20)
(0.41112231 -0.053706384 6.8294499e-21)
(0.4170844 -0.052874907 -4.2258634e-21)
(0.42342305 -0.051890188 -1.8471629e-21)
(0.43011491 -0.050772137 -4.0541338e-21)
(0.43713478 -0.049539334 5.3017443e-21)
(0.44445632 -0.048209164 3.6744439e-21)
(0.45205249 -0.046797882 -3.2435786e-21)
(0.45989597 -0.045320676 3.1436069e-21)
(0.46795947 -0.043791716 2.7782942e-21)
(0.47621608 -0.042224193 -3.2241549e-21)
(0.48463948 -0.040630335 3.7144192e-22)
(0.49320417 -0.039021426 -3.2644577e-21)
(0.50188564 -0.037407809 7.306203e-21)
(0.51066051 -0.035798902 6.1494112e-21)
(0.51950666 -0.034203204 8.2401567e-22)
(0.5284033 -0.032628315 -1.7806389e-21)
(0.53733108 -0.031080952 3.7533688e-21)
(0.54627211 -0.029566986 7.2850931e-21)
(0.55520999 -0.02809147 2.3280447e-21)
(0.56412987 -0.026658683 3.3707058e-21)
(0.57301847 -0.025272186 2.0259023e-21)
(0.58186403 -0.023934868 7.622904e-22)
(0.59065638 -0.022649015 -2.6607473e-22)
(0.59938694 -0.021416372 2.7945944e-21)
(0.60804869 -0.020238218 6.3833848e-22)
(0.61663628 -0.019115437 3.0382692e-22)
(0.62514597 -0.018048627 5.7873852e-23)
(0.63357607 -0.017038123 1.0427437e-21)
(0.64192589 -0.01608435 4.8566329e-23)
(0.65019985 -0.015187255 4.7607375e-22)
(0.65839593 -0.014348839 -1.3436291e-22)
(0.66654212 -0.013566324 -3.0710821e-22)
(0.67459178 -0.012855338 -1.7005027e-22)
(0.68273241 -0.012181728 -4.8162738e-22)
(0.69050831 -0.01167752 1.9984399e-22)
(0.69932642 -0.011001984 -1.4870378e-22)
(0.70543498 -0.011267747 -4.886314e-22)
(0.71916776 -0.009736457 2.6507915e-22)
(0.50964556 -0.036075937 3.6456145e-21)
(0.49991607 -0.043067591 -1.8970286e-20)
(0.49667716 -0.047495765 -2.3113773e-21)
(0.49597574 -0.049854262 5.4914428e-21)
(0.49460858 -0.051940787 3.0583741e-21)
(0.49315478 -0.053833475 -4.477595e-23)
(0.4922925 -0.055320993 6.2026123e-21)
(0.49201725 -0.056403952 7.6356067e-21)
(0.49223832 -0.05713423 9.8679565e-21)
(0.49296277 -0.057544349 -1.1266092e-20)
(0.49421006 -0.057660088 -2.1615082e-20)
(0.49597546 -0.057507159 -3.9471055e-21)
(0.49824286 -0.057110782 1.5967037e-20)
(0.50099364 -0.05649554 1.2832353e-20)
(0.5042068 -0.055685136 -5.9103903e-21)
(0.50785842 -0.054702138 1.3738697e-21)
(0.51192245 -0.053568013 -3.6764509e-21)
(0.51637152 -0.052303186 2.2675245e-21)
(0.52117754 -0.050927031 -2.917643e-22)
(0.52631207 -0.049457847 -1.8716218e-21)
(0.53174667 -0.047912849 7.8621628e-21)
(0.53745325 -0.046308161 -2.9994585e-22)
(0.5434043 -0.044658812 4.254305e-22)
(0.54957309 -0.042978726 -6.5130341e-22)
(0.55593392 -0.041280715 -4.3250207e-21)
(0.56246216 -0.039576482 4.232114e-21)
(0.56913445 -0.037876628 1.9084397e-21)
(0.57592876 -0.03619067 -3.3304247e-21)
(0.58282445 -0.03452706 -4.1324525e-21)