/*--------------------------------*- C++ -*----------------------------------*\
  =========                 |
  \\      /  F ield         | OpenFOAM: The Open Source CFD Toolbox
   \\    /   O peration     | Website:  https://openfoam.org
    \\  /    A nd           | Version:  6
     \\/     M anipulation  |
\*---------------------------------------------------------------------------*/
FoamFile
{
    version     2.0;
    format      ascii;
    class       volVectorField;
    location    "28";
    object      U;
}
// * * * * * * * * * * * * * * * * * * * * * * * * * * * * * * * * * * * * * //

dimensions      [0 1 -1 0 0 0 0];

internalField   nonuniform List<vector> 
9200
(
(0.0011593991 0.0013593515 -6.0188522e-20)
(0.014208601 -0.002332177 4.692859e-20)
(0.03948032 -0.0063497235 -3.9207199e-20)
(0.074254174 -0.010460674 -6.1303427e-20)
(0.11670406 -0.014409213 1.9210856e-20)
(0.16560407 -0.01775199 3.3354781e-20)
(0.21987925 -0.020194436 -1.2538929e-20)
(0.27853317 -0.021585941 9.480322e-21)
(0.34062867 -0.02186375 1.706966e-20)
(0.40525563 -0.021029965 1.5121952e-21)
(0.4715073 -0.019140055 -2.1889764e-20)
(0.53847158 -0.016291764 2.1113801e-20)
(0.60523466 -0.012614048 -4.125207e-20)
(0.67089485 -0.0082557947 -2.1641273e-20)
(0.73458531 -0.0033737736 6.0394569e-21)
(0.79550256 0.0018773995 -2.5823983e-20)
(0.85295384 0.0073684869 2.5999837e-20)
(0.90648155 0.013142237 2.3291338e-20)
(0.95568784 0.019333978 -9.8585466e-23)
(0.99789196 0.022624095 -1.4112051e-21)
(0.0054605914 -0.0014569431 -1.734179e-20)
(0.027759563 -0.0093867724 4.0458678e-20)
(0.06328156 -0.015458335 2.4006106e-20)
(0.10889727 -0.020053869 -1.1756139e-19)
(0.16246822 -0.023320679 -1.2967503e-20)
(0.22250494 -0.025045675 7.4437909e-20)
(0.28765898 -0.025133762 -3.6085556e-20)
(0.356646 -0.023620526 -8.5296744e-21)
(0.42823319 -0.020613918 3.4908571e-20)
(0.5012159 -0.016275313 -4.410302e-20)
(0.57440724 -0.010811418 -3.1003412e-20)
(0.64664648 -0.004463629 7.3676797e-20)
(0.71682112 0.0025040485 3.9221584e-20)
(0.78389827 0.0098170305 -6.9850771e-20)
(0.84696074 0.017200546 1.5092944e-20)
(0.90524209 0.024384774 -3.7902538e-20)
(0.95816876 0.031118891 -1.4127405e-20)
(1.0054594 0.037243424 7.3766624e-20)
(1.0469985 0.042354366 3.1350628e-20)
(1.0810409 0.043368527 -8.5257065e-20)
(0.011173428 -0.0041962095 3.7328785e-20)
(0.045059647 -0.01592931 2.5429271e-21)
(0.092630241 -0.023325141 2.275962e-20)
(0.15039793 -0.027504476 9.9590045e-22)
(0.21591931 -0.029104575 -4.1547216e-20)
(0.28741328 -0.028207661 1.8823143e-20)
(0.36322006 -0.024979459 1.367496e-20)
(0.44173213 -0.019700667 -5.1208806e-20)
(0.52139906 -0.012704146 5.8338649e-20)
(0.60072441 -0.0043574382 1.4607568e-20)
(0.67827821 0.0049453358 -5.559913e-20)
(0.75272818 0.014797593 -1.8785954e-20)
(0.82288083 0.024797355 8.9892561e-21)
(0.88772445 0.034564113 2.4168196e-20)
(0.94646685 0.04375333 -1.1796685e-20)
(0.99856041 0.052065916 2.8785241e-20)
(1.0437158 0.05926239 -2.0795666e-20)
(1.0819311 0.065209454 -7.27273e-20)
(1.1133701 0.069648301 -2.4794714e-20)
(1.1372302 0.070741068 4.9902258e-20)
(0.018396054 -0.0066086642 2.4851105e-20)
(0.066231151 -0.021260648 5.1802184e-20)
(0.12751641 -0.028903766 2.0165565e-20)
(0.19847949 -0.031523279 1.3116947e-20)
(0.27638797 -0.030335226 1.7494871e-20)
(0.35914954 -0.025787735 -4.8452512e-20)
(0.44477409 -0.018372757 -2.6075397e-20)
(0.53132936 -0.008674551 0)
(0.61697586 0.0027020597 1.437793e-20)
(0.69999429 0.015152041 -6.1582354e-21)
(0.77882592 0.028082299 -1.0024863e-19)
(0.85212457 0.040932151 -1.6032732e-20)
(0.91880758 0.053196178 6.7112102e-20)
(0.97809539 0.06444435 2.5382131e-22)
(1.0295326 0.07433673 -1.6234062e-21)
(1.0729854 0.082630663 2.2688441e-20)
(1.1086178 0.089187282 -5.4957086e-21)
(1.1368638 0.093999131 -6.3107956e-20)
(1.1583097 0.0970529 -4.7583512e-20)
(1.1729747 0.097429488 7.1380447e-20)
(0.027156795 -0.0084108705 -3.9564488e-21)
(0.091174747 -0.02462539 -5.1953709e-21)
(0.16754739 -0.031112819 5.7365898e-20)
(0.25232319 -0.030837333 1.8768245e-20)
(0.34251847 -0.025678198 -3.2405539e-20)
(0.43573684 -0.016520603 1.2345394e-20)
(0.52967994 -0.0042440262 2.6871631e-21)
(0.62214669 0.010217774 3.4328259e-20)
(0.7111081 0.025963276 5.78607e-21)
(0.79476874 0.042150721 -1.3640397e-20)
(0.87162983 0.058016406 6.2017541e-20)
(0.94054801 0.072900332 -5.9410023e-20)
(1.0007757 0.086270111 -1.3598477e-19)
(1.051974 0.09773648 -5.7475296e-21)
(1.0941947 0.10705813 8.5843339e-20)
(1.1278336 0.1141352 0)
(1.1535616 0.11899774 1.0414565e-20)
(1.1722517 0.12180739 -1.5969871e-20)
(1.1848616 0.12275809 -8.9090136e-21)
(1.1919899 0.12148543 2.1590967e-20)
(0.037393353 -0.0092960333 -5.4459724e-21)
(0.11953731 -0.025254616 4.4126819e-21)
(0.21193666 -0.028920456 -8.872675e-21)
(0.3106059 -0.024321604 2.884661e-20)
(0.41238406 -0.014068286 -2.9839786e-20)
(0.5146238 0.00045754555 -1.7209717e-20)
(0.61480135 0.017946951 3.7867951e-20)
(0.71057469 0.037101186 4.7899179e-21)
(0.79989973 0.056737835 -2.5209689e-20)
(0.8811179 0.075826675 7.1568076e-20)
(0.95302411 0.093510901 3.1925437e-22)
(1.0149078 0.10913022 -8.2864318e-20)
(1.0665561 0.12223457 0)
(1.1082168 0.13258219 4.0841592e-20)
(1.1405263 0.1401223 5.7158647e-21)
(1.1644128 0.14496487 -7.9950148e-20)
(1.180989 0.1473455 -2.018522e-20)
(1.1914512 0.14760167 -1.2846842e-20)
(1.1969715 0.14608634 -1.5178018e-20)
(1.1984278 0.14276195 4.1636777e-20)
(0.048939371 -0.0089550364 -1.7436138e-20)
(0.15069527 -0.022425513 -2.3474456e-21)
(0.2595129 -0.021435445 3.0708196e-20)
(0.37156008 -0.011111769 3.78812e-20)
(0.48361952 0.0051707895 -2.0223913e-20)
(0.59290577 0.025503006 -7.0384074e-20)
(0.69682208 0.048143207 -2.8631552e-20)
(0.79308341 0.071460934 8.0594214e-20)
(0.87986306 0.094062934 8.9300167e-21)
(0.95588557 0.11483197 -2.5384269e-20)
(1.020472 0.13294038 1.3812807e-20)
(1.0735348 0.14785611 -4.5087442e-21)
(1.1155204 0.15933067 0)
(1.1473097 0.16736626 2.7964873e-20)
(1.1700911 0.1721669 -8.1575963e-20)
(1.1852251 0.1740807 -3.2375605e-20)
(1.1941184 0.17354351 8.3375155e-20)
(1.1981217 0.17103784 -4.4851272e-21)
(1.1984473 0.16701604 3.6385992e-21)
(1.196021 0.1616202 2.798141e-20)
(0.061518225 -0.0071045529 -3.2695677e-20)
(0.18376049 -0.015534089 -8.2585787e-20)
(0.3087655 -0.0080060864 2.4592705e-21)
(0.43307847 0.0092907833 7.1158019e-20)
(0.55359732 0.032237614 6.3387554e-20)
(0.66757454 0.05841565 -7.2622758e-20)
(0.77255664 0.085702947 -1.0949887e-22)
(0.86656401 0.11223069 8.7545509e-20)
(0.94824376 0.13652135 4.9934815e-20)
(1.0169381 0.15751688 -5.5621052e-20)
(1.072677 0.17456718 -9.4698642e-20)
(1.1161039 0.18740098 -3.2411582e-21)
(1.1483481 0.19607302 4.3234259e-20)
(1.1708655 0.20089128 -6.7842241e-21)
(1.1852735 0.2023349 -1.3191589e-20)
(1.1932015 0.20097393 2.0157375e-20)
(1.1961734 0.19740151 4.505691e-20)
(1.1955296 0.19218865 -4.4990008e-20)
(1.1923854 0.18582376 -1.0516471e-19)
(1.1875708 0.17853444 2.5373524e-20)
(0.074713499 -0.0035180608 -3.541525e-20)
(0.21754208 -0.004171889 -1.7540969e-19)
(0.35782121 0.011696222 8.3348256e-20)
(0.49272011 0.036957202 9.4132287e-20)
(0.6194719 0.066834642 5.8836829e-20)
(0.73559987 0.098479752 8.7771666e-21)
(0.83905323 0.12950752 -1.0825803e-19)
(0.92842088 0.15796449 0)
(1.0030585 0.18246165 -7.0519066e-20)
(1.0631018 0.20217128 -1.5630229e-20)
(1.1093842 0.21676977 5.6046407e-20)
(1.1432857 0.22635669 1.1254219e-20)
(1.1665415 0.23135241 -4.6739065e-20)
(1.1810438 0.23238547 -5.0265286e-20)
(1.1886668 0.23018509 2.4936855e-20)
(1.1911314 0.22549097 4.6019937e-20)
(1.1899207 0.21898848 -5.7060314e-20)
(1.1862432 0.21127236 -1.1026069e-19)
(1.1810369 0.20281225 -3.1374558e-21)
(1.1749703 0.19386601 2.773178e-20)
(0.087952732 0.0019586894 -3.688506e-21)
(0.25055164 0.011859419 8.8931836e-20)
(0.40448312 0.037681089 -1.605713e-20)
(0.54779925 0.071556501 -8.582752e-20)
(0.67832048 0.10821603 4.5951678e-20)
(0.79410322 0.14453543 4.9851956e-20)
(0.89376252 0.17805422 5.6536203e-21)
(0.976688 0.20694216 -1.0160828e-19)
(1.043113 0.2301005 -2.5623451e-21)
(1.0940501 0.2471034 5.170974e-20)
(1.1311282 0.25807695 6.1285836e-21)
(1.1563725 0.26355789 -2.0209497e-20)
(1.171974 0.26434354 -7.7491797e-20)
(1.1800824 0.26135007 -6.3624706e-21)
(1.1826513 0.25549554 4.4533932e-20)
(1.1813415 0.24761671 3.786585e-20)
(1.1774841 0.23842121 2.0176297e-20)
(1.1720903 0.22847016 -5.4495925e-20)
(1.1658944 0.21817602 1.2987152e-20)
(1.1593914 0.20779911 8.4547607e-20)
(-0.0013211379 0.0014654958 -1.1316873e-21)
(-0.0048454929 0.0032523207 2.1015216e-21)
(-0.010989394 0.0042165822 9.3829781e-22)
(-0.018103589 0.0046243142 -2.4334786e-21)
(-0.025214231 0.0046465183 -1.4851609e-21)
(-0.031883061 0.0043981221 1.6227854e-21)
(-0.037834077 0.0039628952 -7.0985893e-21)
(-0.042885647 0.0034017146 -6.1568754e-21)
(-0.046935342 0.0027580397 1.153729e-20)
(-0.049935529 0.0020625721 -1.006516e-20)
(-0.051873062 0.0013367354 -2.0037277e-22)
(-0.052756229 0.00059521469 3.802025e-21)
(-0.052606196 -0.00015211894 -6.5092996e-22)
(-0.051451164 -0.00089867397 2.3659666e-20)
(-0.049322684 -0.0016397396 3.0444682e-22)
(-0.046255145 -0.0023709885 -4.2503844e-20)
(-0.042288217 -0.0030878574 7.8691191e-21)
(-0.037458384 -0.0037883774 2.4863817e-20)
(-0.031770854 -0.0044711637 -4.5766379e-20)
(-0.025283201 -0.0050865305 -2.8987935e-20)
(-0.0016863694 0.0042693231 -5.5089767e-21)
(-0.0055049393 0.0094537692 1.1045081e-20)
(-0.011432696 0.012237549 -1.0425238e-20)
(-0.017982991 0.013394495 4.0863623e-21)
(-0.024279212 0.013424079 5.0025849e-21)
(-0.029933426 0.01266367 7.3811941e-22)
(-0.034704448 0.011359313 -2.3246606e-20)
(-0.038435772 0.0096897195 -2.0996963e-21)
(-0.041041821 0.0077824354 2.080449e-20)
(-0.042485665 0.0057275267 -5.2097276e-21)
(-0.042760505 0.0035877887 -2.2487883e-20)
(-0.041877852 0.0014061968 5.063063e-21)
(-0.039859825 -0.00078846208 2.3387124e-20)
(-0.036733747 -0.0029770897 1.067981e-20)
(-0.032528272 -0.0051461772 2.2700558e-20)
(-0.027273903 -0.007283553 -2.0532965e-20)
(-0.021012987 -0.0093765103 -2.2520878e-20)
(-0.013791063 -0.01141876 2.2112366e-20)
(-0.0055373764 -0.013395725 2.7938207e-20)
(0.0039493038 -0.01513649 1.6477945e-20)
(-0.0023482354 0.0066946593 -4.4657891e-21)
(-0.0066585376 0.014760514 -5.7132895e-21)
(-0.01209439 0.019056098 3.0224397e-22)
(-0.017484004 0.020786397 1.0635001e-21)
(-0.022137836 0.020735482 6.8716675e-21)
(-0.025764805 0.019438875 1.0950958e-20)
(-0.028191319 0.017287968 -3.8343667e-21)
(-0.029309783 0.014567155 -1.9452042e-20)
(-0.029067582 0.011479637 6.7397702e-21)
(-0.027449074 0.0081690703 1.3255431e-20)
(-0.024460623 0.0047356643 6.0527769e-21)
(-0.020121224 0.0012479363 1.871211e-20)
(-0.01445645 -0.0022484696 1.7873483e-21)
(-0.0074940126 -0.0057238073 -3.4988406e-20)
(0.00074011158 -0.0091574597 1.2923909e-21)
(0.010219947 -0.012531319 -2.2844589e-20)
(0.02089641 -0.015828443 -2.5464794e-20)
(0.032702175 -0.019040621 4.7696684e-20)
(0.045834801 -0.022113791 2.6468645e-20)
(0.061000667 -0.024676081 2.198507e-22)
(-0.0031855209 0.0085321559 -5.4213211e-21)
(-0.0080249491 0.0186727 -8.8159523e-21)
(-0.012614829 0.023997797 4.4522301e-21)
(-0.01621521 0.026027339 4.2544258e-21)
(-0.018395323 0.025762312 2.0564865e-21)
(-0.018999779 0.0238984 7.5276599e-21)
(-0.01795106 0.020945633 9.5678e-21)
(-0.015212101 0.017274804 -1.3869401e-21)
(-0.010778935 0.013151375 -1.1797094e-20)
(-0.0046687081 0.0087634138 -2.9912818e-20)
(0.003090256 0.0042422733 8.2476124e-23)
(0.012463993 -0.00032225149 4.1913187e-20)
(0.023417174 -0.0048708574 -1.8897901e-20)
(0.035914773 -0.0093653419 -1.2685971e-20)
(0.049926323 -0.013780519 5.1036241e-22)
(0.065424119 -0.018096465 3.3429645e-20)
(0.082346174 -0.022299558 -1.547002e-20)
(0.10058459 -0.026389502 -5.5245842e-20)
(0.1204692 -0.030247134 4.7424217e-20)
(0.14342854 -0.033176189 3.4246549e-20)
(-0.0040356415 0.0096378025 -6.8080066e-22)
(-0.0092185638 0.020834263 -1.2816309e-20)
(-0.012490929 0.026572851 -3.5020671e-20)
(-0.013618378 0.028550932 -5.8981955e-21)
(-0.012477918 0.027904252 -3.6831288e-21)
(-0.0090788065 0.025441463 6.4659793e-21)
(-0.0034625119 0.021757605 -4.7634779e-21)
(0.004318618 0.017285219 -9.0150401e-21)
(0.01420457 0.012334564 2.2445195e-20)
(0.026132169 0.0071257973 5.1587764e-21)
(0.040039564 0.0018131142 -2.6039108e-20)
(0.055866365 -0.0034979019 1.1353555e-20)
(0.073554171 -0.0087375666 0)
(0.093047032 -0.013862283 1.244088e-20)
(0.11429454 -0.01884569 -9.9931002e-21)
(0.13725094 -0.023671062 -1.4818387e-20)
(0.16182691 -0.028338371 -1.4617947e-21)
(0.18784971 -0.032876375 -2.3556962e-21)
(0.21573746 -0.037098753 4.7520187e-20)
(0.24779183 -0.039840775 -1.1053171e-20)
(-0.0047121662 0.0099422383 -7.6852722e-21)
(-0.009782926 0.021058691 2.5099298e-20)
(-0.011108825 0.026516443 -1.0771671e-20)
(-0.0089929339 0.028050162 -2.8104072e-20)
(-0.0036462594 0.026843287 -2.8148846e-20)
(0.0047383839 0.023766162 -1.5265695e-20)
(0.015983418 0.019460843 -7.0202244e-22)
(0.029930754 0.014392873 5.6622863e-21)
(0.046441673 0.008896879 2.0036048e-20)
(0.06539232 0.0032111924 7.5250565e-21)
(0.086669233 -0.0024971039 -7.3452906e-21)
(0.11016685 -0.0081135281 -2.0149255e-21)
(0.13578362 -0.013562995 -3.9185091e-20)
(0.16341918 -0.018800095 -1.3030681e-20)
(0.1929759 -0.023800776 1.9358597e-20)
(0.22435987 -0.028556403 -2.1689746e-20)
(0.25742868 -0.033090753 -9.243108e-21)
(0.29191659 -0.037490547 3.1229168e-20)
(0.32824968 -0.04153916 5.1904787e-20)
(0.36965039 -0.043491371 3.4724159e-21)
(-0.0050204004 0.0094477592 1.7091311e-20)
(-0.0092230151 0.01933215 1.4737793e-20)
(-0.0077792338 0.023804729 5.2232412e-20)
(-0.0015283236 0.02450793 2.3916173e-20)
(0.0089776403 0.022588109 1.8665025e-22)
(0.023352035 0.018925281 -4.0238628e-20)
(0.041268889 0.014169157 -2.485098e-20)
(0.062451448 0.0087889486 1.0671806e-20)
(0.086663431 0.0031212317 1.4703888e-20)
(0.11369845 -0.0025943259 -1.3348553e-20)
(0.14336891 -0.0081900898 -4.5048783e-20)
(0.17549696 -0.013552284 3.0321135e-20)
(0.20990663 -0.018607939 2.0446944e-20)
(0.24641776 -0.023315972 -2.8227843e-20)
(0.2848454 -0.027660375 1.1976704e-20)
(0.32500341 -0.031646915 2.4827525e-20)
(0.36665682 -0.035332487 8.3231795e-21)
(0.40941665 -0.038892434 -1.218183e-20)
(0.45362121 -0.042160059 -1.4466503e-20)
(0.50333135 -0.042794709 6.3857341e-21)
(-0.0047681243 0.0082169767 1.1316805e-20)
(-0.0070318043 0.0157976 -2.3908055e-20)
(-0.0017726958 0.018645644 8.7365791e-21)
(0.0096558486 0.018198123 3.4309154e-20)
(0.02636649 0.015485207 5.3203068e-20)
(0.047775139 0.011347382 2.0690761e-20)
(0.073397253 0.0064042073 -6.000302e-21)
(0.10281796 0.0010968198 -1.2504019e-20)
(0.1356818 -0.004260131 -6.3624749e-21)
(0.17167252 -0.0094446974 3.494803e-20)
(0.21049451 -0.014304606 -4.6714657e-21)
(0.25185834 -0.018740303 -1.7043162e-20)
(0.29546928 -0.022692989 -2.0090908e-20)
(0.34101887 -0.02613712 -4.8558783e-20)
(0.38818331 -0.029075636 2.3783837e-20)
(0.43663113 -0.031539804 -1.4458477e-20)
(0.48599032 -0.033632447 2.6744059e-20)
(0.53573087 -0.035651812 2.1633786e-20)
(0.58603158 -0.037605495 -8.7421495e-20)
(0.64158486 -0.03672822 8.5357929e-24)
(-0.0037724628 0.0063592232 2.2321743e-20)
(-0.0027155259 0.010733042 -2.6731101e-20)
(0.0076349964 0.011462406 -4.5893635e-20)
(0.025442176 0.0096794961 -2.7801915e-20)
(0.049497101 0.0062269185 -2.0835517e-21)
(0.079012328 0.0018583239 1.3257379e-20)
(0.11333012 -0.0028750919 -2.8517184e-21)
(0.15187686 -0.0075914591 1.844169e-20)
(0.19414745 -0.012024917 9.0038524e-21)
(0.23967752 -0.015994363 -1.1589732e-20)
(0.28801842 -0.0193836 9.1272515e-21)
(0.33871876 -0.022126438 -2.4391066e-20)
(0.39131101 -0.024196016 8.2978189e-21)
(0.44530248 -0.025598117 1.7150717e-20)
(0.50017396 -0.026367102 -2.7110648e-21)
(0.55538965 -0.026567694 1.6991505e-21)
(0.61038174 -0.026349493 -3.0171007e-22)
(0.66445513 -0.026116707 2.0120316e-20)
(0.71759574 -0.026073495 4.138431e-21)
(0.7748803 -0.023545259 -1.1538859e-21)
(-0.0018606044 0.004019458 2.4157267e-20)
(0.0041865011 0.004537638 5.8339761e-20)
(0.021108985 0.0028920191 -5.0178093e-20)
(0.046619053 -0.00018414701 -1.0133179e-20)
(0.079197738 -0.0041084059 2.0601398e-20)
(0.11784864 -0.0082603377 2.1806809e-21)
(0.16172291 -0.01219676 -3.0324338e-20)
(0.21005862 -0.015631395 7.074389e-21)
(0.2621616 -0.018380186 7.283397e-21)
(0.31737274 -0.020333883 -2.6767277e-20)
(0.37504011 -0.021442262 1.3311483e-21)
(0.43450115 -0.021701346 -3.7950648e-20)
(0.49507282 -0.021142967 -3.7164127e-20)
(0.55604819 -0.01982636 6.728386e-20)
(0.61669953 -0.017830725 5.7114159e-21)
(0.67628588 -0.015254067 -1.5683807e-20)
(0.73403927 -0.012253807 1.9864543e-20)
(0.78909159 -0.0091342016 -9.4313968e-22)
(0.84094418 -0.0059191716 2.06155e-20)
(0.89329701 -0.0010616366 -2.0421896e-20)
(-0.017547582 -0.0053892288 6.1115628e-20)
(-0.0084258239 -0.0059610752 1.649164e-20)
(0.0021776301 -0.0064311809 -3.6841064e-20)
(0.013906339 -0.0067281006 1.7723721e-20)
(0.026491678 -0.0069365455 0)
(0.039879267 -0.007085023 0)
(0.054015387 -0.0071758937 -2.4329748e-20)
(0.068825147 -0.0072168999 -1.7489407e-20)
(0.084243088 -0.0072176185 2.0424791e-20)
(0.10021549 -0.0071849963 1.9429856e-20)
(0.11669378 -0.0071243444 1.1040389e-21)
(0.13363319 -0.0070403799 -1.1031147e-20)
(0.15099323 -0.0069372539 9.0912975e-21)
(0.16873748 -0.0068185302 1.9617996e-20)
(0.18683313 -0.0066873128 -5.8357333e-21)
(0.20525082 -0.0065463553 -1.1008654e-20)
(0.22396467 -0.0063981248 -4.6876951e-21)
(0.24295234 -0.006244854 -4.7349103e-21)
(0.26219522 -0.0060885846 7.7242968e-22)
(0.28167869 -0.0059311994 1.383938e-21)
(0.30139242 -0.0057744429 3.0249458e-21)
(0.32133078 -0.0056199302 7.6044299e-21)
(0.34149316 -0.0054691447 6.8712064e-23)
(0.36188436 -0.0053234249 -4.0873546e-21)
(0.38251481 -0.0051839382 1.3048229e-22)
(0.4034007 -0.0050516437 -7.09914e-22)
(0.42456378 -0.0049272437 1.5652908e-21)
(0.44603088 -0.0048111272 1.2396198e-21)
(0.46783298 -0.0047033093 -1.9605008e-21)
(0.49000366 -0.0046033731 -1.0152256e-22)
(0.51257708 -0.0045104235 -3.0937134e-22)
(0.53558515 -0.0044230619 -5.1411508e-22)
(0.55905422 -0.0043393933 -7.9030434e-22)
(0.58300127 -0.0042570742 3.1815372e-22)
(0.60742978 -0.0041734063 -2.1809416e-22)
(0.63232574 -0.0040854754 -3.0380093e-22)
(0.65765393 -0.0039903257 3.4122828e-22)
(0.68335511 -0.0038851521 3.521717e-22)
(0.70934408 -0.0037674819 -2.1748163e-22)
(0.73550916 -0.0036353061 -4.1513631e-22)
(0.76171185 -0.003487108 -6.8664346e-23)
(0.78778917 -0.0033216947 7.0458092e-23)
(0.8135455 -0.0031378748 2.3970639e-23)
(0.83876924 -0.0029337545 -3.8130665e-22)
(0.86315122 -0.0027070784 -3.0786997e-22)
(0.88649589 -0.002453731 1.5322114e-22)
(0.90801497 -0.0021774353 6.8630926e-23)
(0.92854332 -0.0018662636 2.0344907e-24)
(0.94381636 -0.001603527 1.2546203e-23)
(0.96506363 -0.0011075054 3.5340752e-22)
(0.013031299 -0.015907443 -1.3442941e-20)
(0.021294798 -0.017636849 -6.6230552e-20)
(0.031526686 -0.019016987 -3.2173824e-20)
(0.042850142 -0.019865812 4.0515348e-20)
(0.054878103 -0.020466006 1.5476209e-20)
(0.067637533 -0.020900758 -1.9365293e-20)
(0.081106543 -0.021169013 5.1124818e-21)
(0.095212795 -0.021291951 2.6969899e-20)
(0.1098981 -0.021298143 -6.2550719e-23)
(0.12511818 -0.021207535 -8.2470832e-21)
(0.14083145 -0.021035069 -1.3663173e-20)
(0.15699838 -0.020794236 -9.3038445e-21)
(0.17358294 -0.020497014 1.9080896e-20)
(0.19055244 -0.020153693 1.018923e-20)
(0.20787707 -0.019773257 -1.7560803e-20)
(0.2255299 -0.019363713 -6.5502107e-21)
(0.24348696 -0.018932267 3.407741e-21)
(0.2617274 -0.018485462 9.0010044e-21)
(0.28023375 -0.018029304 7.805782e-21)
(0.29899219 -0.017569347 -8.151265e-21)
(0.31799289 -0.017110752 -4.0699703e-21)
(0.33723043 -0.016658308 2.0294151e-21)
(0.35670417 -0.016216423 1.0677582e-21)
(0.37641859 -0.015789084 1.5979096e-21)
(0.39638357 -0.015379774 3.8144897e-22)
(0.41661448 -0.014991368 -5.7278859e-22)
(0.43713205 -0.01462598 -1.0852357e-21)
(0.45796192 -0.014284801 1.7570879e-21)
(0.4791337 -0.013967916 1.4295062e-21)
(0.50067958 -0.013674128 -7.4559515e-22)
(0.52263228 -0.013400825 1.1278294e-21)
(0.54502244 -0.013143896 -3.4869973e-22)
(0.56787533 -0.012897754 -9.161189e-22)
(0.59120723 -0.012655473 -1.2678255e-21)
(0.61502138 -0.012409065 6.9788294e-22)
(0.63930412 -0.012149891 -6.628122e-22)
(0.66402125 -0.011869175 7.7384316e-22)
(0.6891152 -0.011558576 -1.1744061e-21)
(0.71450318 -0.01121073 1.4373481e-21)
(0.74007654 -0.010819644 9.0622589e-23)
(0.76570041 -0.010380789 1.8387026e-22)
(0.79121601 -0.0098906057 7.0244574e-22)
(0.81643261 -0.009345557 9.3306635e-22)
(0.84114435 -0.0087400085 7.3463649e-22)
(0.86504914 -0.0080672695 8.4902006e-22)
(0.88795905 -0.0073149287 1.0313728e-22)
(0.90909657 -0.0064941421 2.7090042e-22)
(0.92929651 -0.0055685732 1.2276721e-22)
(0.94432781 -0.0047874623 -2.0483865e-23)
(0.96531807 -0.003309095 2.5229512e-22)
(0.072550022 -0.025570406 9.9313821e-21)
(0.079090101 -0.028454699 3.5686602e-21)
(0.088450575 -0.030678062 -1.3089618e-20)
(0.09890504 -0.031985993 -1.4286601e-21)
(0.10977533 -0.03292491 1.5931114e-20)
(0.12124672 -0.033628977 -1.5735588e-20)
(0.13336835 -0.034074174 -3.1781415e-20)
(0.14606903 -0.034289038 1.5566909e-20)
(0.15930128 -0.03432051 1.95378e-20)
(0.17303834 -0.034199508 -1.2494583e-20)
(0.18725134 -0.033948083 1.0913153e-21)
(0.20190978 -0.033586718 8.975429e-21)
(0.21698528 -0.033133991 -1.6661461e-20)
(0.23245161 -0.032605926 3.9417206e-21)
(0.24828408 -0.032016577 8.4000441e-21)
(0.26445979 -0.031378575 -5.9542666e-22)
(0.28095795 -0.030703384 -1.3456257e-22)
(0.29776015 -0.030001492 -8.5399147e-21)
(0.31485069 -0.029282587 5.2057446e-21)
(0.33221695 -0.028555678 9.9949696e-21)
(0.34984978 -0.027829178 -4.5726371e-21)
(0.36774393 -0.027110928 -2.5432653e-21)
(0.38589846 -0.026408173 9.4618656e-22)
(0.40431706 -0.025727489 -2.2877676e-21)
(0.42300841 -0.025074653 1.6260114e-21)
(0.4419862 -0.024454459 8.828074e-22)
(0.46126911 -0.02387048 3.0021589e-21)
(0.48088038 -0.023324791 -3.6065532e-21)
(0.50084695 -0.022817672 4.3055424e-21)
(0.52119822 -0.022347321 1.0438122e-21)
(0.54196416 -0.02190962 1.6443204e-21)
(0.56317285 -0.021498003 4.6828023e-22)
(0.58484746 -0.021103473 2.3954626e-21)
(0.60700283 -0.020714829 -3.7633852e-21)
(0.62964169 -0.020319098 1.148473e-21)
(0.65275092 -0.019902204 9.6651605e-22)
(0.67629817 -0.019449806 -3.4002539e-22)
(0.70022904 -0.018948232 -3.4130855e-22)
(0.72446517 -0.018385372 -1.0663221e-21)
(0.74890364 -0.017751335 7.4633683e-22)
(0.77341645 -0.017038633 -2.6488491e-23)
(0.79785275 -0.01624139 2.2133973e-21)
(0.8220311 -0.015353836 -9.8068303e-22)
(0.84575662 -0.014366745 -4.2948245e-23)
(0.86874078 -0.013269201 3.8424919e-22)
(0.89081042 -0.012040357 -2.3599209e-22)
(0.91120889 -0.010698634 -2.5530436e-22)
(0.93077148 -0.0091819563 9.5353796e-22)
(0.94533232 -0.0079028647 1.751718e-23)
(0.96582104 -0.0054708221 -7.6842806e-22)
(0.15815175 -0.033716716 1.6541279e-21)
(0.16209308 -0.037718659 -1.1929592e-20)
(0.16989924 -0.040685781 6.7929849e-21)
(0.1789194 -0.042341453 -1.3993762e-20)
(0.18797632 -0.043564176 -2.0807852e-21)
(0.19746042 -0.044530255 9.8539252e-21)
(0.20754151 -0.045169672 -1.0719631e-20)
(0.21814596 -0.04550864 1.3646963e-21)
(0.22923343 -0.045609963 1.3729193e-20)
(0.24079983 -0.045513039 3.8489697e-21)
(0.25283291 -0.045243828 -6.6417862e-21)
(0.26531274 -0.044827126 -3.3130203e-21)
(0.27821973 -0.044286249 -5.9209043e-21)
(0.29153513 -0.043641607 -7.2105518e-21)
(0.30524012 -0.042911249 2.9891601e-21)
(0.31931628 -0.042111592 2.5823587e-22)
(0.33374621 -0.041257731 1.7576781e-21)
(0.34851404 -0.040363638 -3.739514e-21)
(0.36360578 -0.039442339 -5.2765776e-21)
(0.37900983 -0.038506046 2.9553955e-21)
(0.39471742 -0.03756624 4.2704209e-21)
(0.41072305 -0.036633681 -2.4071256e-21)
(0.42702496 -0.035718365 2.1371144e-21)
(0.44362543 -0.034829414 -7.8111415e-22)
(0.46053111 -0.033974892 -6.0476986e-21)
(0.47775314 -0.033161553 -4.0930933e-21)
(0.49530711 -0.032394519 -5.9779883e-22)
(0.51321267 -0.031676896 1.9927115e-22)
(0.53149289 -0.031009371 -3.2957511e-21)
(0.55017306 -0.030389813 -2.2467109e-21)
(0.56927906 -0.029812943 3.2106356e-22)
(0.5888352 -0.029270142 -2.9037483e-21)
(0.60886146 -0.02874946 -3.5982548e-22)
(0.6293704 -0.028235894 -1.3146192e-21)
(0.65036372 -0.027711974 -7.5402048e-22)
(0.67182883 -0.027158644 -2.221888e-21)
(0.69373563 -0.026556403 -3.3491483e-21)
(0.71603385 -0.025886573 1.9798286e-22)
(0.73865115 -0.025132532 -5.3353291e-24)
(0.76149238 -0.02428063 -1.9691485e-21)
(0.78443893 -0.023320501 4.9010277e-22)
(0.80735096 -0.022244045 -1.5243982e-21)
(0.83005993 -0.021043434 -2.644848e-21)
(0.8523863 -0.019706117 1.7672857e-21)
(0.87406072 -0.018217286 -1.679247e-24)
(0.89493112 -0.016547555 7.6874306e-22)
(0.91427119 -0.014722181 -3.8875406e-22)
(0.93291712 -0.01265177 -6.4752076e-22)
(0.94679943 -0.010906845 -7.6530393e-23)
(0.96655988 -0.0075678238 5.4033886e-22)
(0.2658095 -0.039570886 -2.1908068e-20)
(0.26624456 -0.044639127 4.9488925e-20)
(0.27161803 -0.048233717 1.0730165e-20)
(0.27850073 -0.050149312 -1.652949e-20)
(0.28503975 -0.051635803 -2.3001414e-21)
(0.29181495 -0.052888491 2.5680827e-21)
(0.29916601 -0.05377523 -1.9559525e-21)
(0.30701875 -0.054309549 -4.9580377e-21)
(0.31532802 -0.054562898 -4.265732e-21)
(0.32411096 -0.054579881 -1.3009504e-20)
(0.33337351 -0.054388023 1.9504885e-20)
(0.3431055 -0.054013708 7.2684585e-21)
(0.35329455 -0.053482758 -1.8056369e-20)
(0.36392821 -0.052818519 1.0601983e-20)
(0.37499258 -0.052042032 8.4984846e-21)
(0.38647273 -0.051172719 -3.4165423e-22)
(0.39835373 -0.050228742 -2.9767414e-21)
(0.4106213 -0.049227166 -4.8638685e-21)
(0.42326233 -0.048184096 -1.8790326e-21)
(0.43626541 -0.047114781 -1.7066959e-21)
(0.44962136 -0.046033662 -4.1323958e-21)
(0.46332366 -0.044954364 0)
(0.47736889 -0.043889618 -1.9545137e-21)
(0.4917571 -0.042851108 4.9796724e-21)
(0.5064921 -0.041849243 7.6328329e-21)
(0.52158153 -0.040892837 -1.1344498e-21)
(0.5370369 -0.03998871 -5.1756641e-21)
(0.55287329 -0.039141216 5.8459768e-21)
(0.56910872 -0.038351736 -4.498579e-22)
(0.58576324 -0.037618171 6.781991e-21)
(0.60285747 -0.036934528 -7.4830131e-22)
(0.62041076 -0.036290654 3.3710325e-21)
(0.6384388 -0.035672224 -2.0249161e-21)
(0.65695096 -0.035061055 1.2570254e-21)
(0.67594721 -0.034435802 -1.5127818e-21)
(0.69541507 -0.033773029 1.3159747e-21)
(0.71532668 -0.033048605 1.5500984e-21)
(0.7356363 -0.032239276 1.3628877e-21)
(0.75627844 -0.031324219 -3.3681905e-21)
(0.77716702 -0.030286224 2.4711173e-21)
(0.7981945 -0.029112166 -1.232985e-21)
(0.81923418 -0.027791843 -4.7373344e-21)
(0.84013298 -0.026315615 5.9511384e-21)
(0.86072994 -0.024667987 -7.2369732e-24)
(0.8807793 -0.022830742 -6.1914444e-22)
(0.9001551 -0.020765956 7.9796863e-24)
(0.91816989 -0.018505151 -7.1346739e-22)
(0.93566104 -0.01592991 -1.1714709e-21)
(0.94868554 -0.013761083 4.4123684e-22)
(0.96751629 -0.0095774921 -8.9237598e-23)
(0.39040531 -0.042146376 -1.8365418e-20)
(0.38643888 -0.048287971 1.3250001e-20)
(0.38836959 -0.052435008 3.3539054e-21)
(0.3922939 -0.054614274 -7.9960957e-21)
(0.39561176 -0.056427237 1.2647301e-20)
(0.39899461 -0.058047455 8.2023829e-21)
(0.40297717 -0.059285745 -1.3145168e-20)
(0.40750287 -0.060140431 -6.4168778e-21)
(0.41250609 -0.060678549 1.3462612e-20)
(0.41801267 -0.060943443 -1.6742487e-20)
(0.42404396 -0.060962995 -1.4986752e-20)
(0.43059743 -0.060763748 1.5731585e-20)
(0.43766419 -0.060372149 7.3490977e-21)
(0.44523467 -0.059813231 -5.4132604e-21)
(0.45329729 -0.059110378 -1.4396165e-21)
(0.46183851 -0.058285625 -3.8297313e-21)
(0.47084392 -0.057359944 5.1392433e-21)
(0.48029916 -0.056353379 4.0408198e-21)
(0.49019054 -0.055285101 -3.4195537e-21)
(0.50050555 -0.054173436 3.5006736e-21)
(0.51123344 -0.053035873 3.5018688e-21)
(0.52236563 -0.051889009 -4.0635928e-21)
(0.53389614 -0.05074843 4.3290729e-22)
(0.54582189 -0.049628524 -3.8058037e-21)
(0.55814298 -0.0485422 1.1416316e-20)
(0.57086279 -0.047500519 9.0741288e-21)
(0.58398795 -0.046512225 1.8043579e-21)
(0.59752808 -0.0455832 -2.7048427e-21)
(0.61149533 -0.044715862 7.4706191e-21)
(0.62590358 -0.043908574 1.4443978e-20)
(0.64076723 -0.043155135 4.1040319e-21)
(0.65609967 -0.04244445 7.4194595e-21)
(0.67191134 -0.041760478 4.2800081e-21)
(0.68820743 -0.041082563 1.9788071e-21)
(0.70498536 -0.040386206 -4.1475051e-22)
(0.72223207 -0.039644284 7.8544214e-21)
(0.7399215 -0.038828659 1.8163071e-21)
(0.75801227 -0.037912022 8.1073606e-22)
(0.77644587 -0.03686973 1.2841009e-22)
(0.79514574 -0.035681261 3.9663409e-21)
(0.81401624 -0.03433089 5.628013e-23)
(0.83294485 -0.032806469 2.1348025e-21)
(0.85179543 -0.03109685 -2.1959244e-22)
(0.87042752 -0.029184086 -1.7138569e-21)
(0.8886218 -0.027047204 -6.9696228e-22)
(0.90628201 -0.024639902 -1.6720576e-21)
(0.92276666 -0.02199942 7.7126889e-22)
(0.93891422 -0.018976599 -3.3788189e-22)
(0.95093643 -0.016433194 -2.7045261e-22)
(0.96866701 -0.011480144 5.258942e-22)
(0.52562364 -0.040450307 3.5794336e-21)
(0.51656254 -0.047688618 -1.9477511e-20)
(0.51405608 -0.052372157 -2.4503544e-21)
(0.51418953 -0.054984038 5.6887572e-21)
(0.51370781 -0.057331751 3.3289566e-21)
(0.51317888 -0.059493071 2.2126279e-22)
(0.51329834 -0.061252589 6.8382596e-21)
(0.51407124 -0.062610274 8.1397581e-21)
(0.51540949 -0.063618702 1.0334187e-20)
(0.51732449 -0.064310902 -1.2052674e-20)
(0.51984219 -0.064713363 -2.3398618e-20)
(0.5229646 -0.064852892 -4.5548531e-21)
(0.52668245 -0.064756102 1.7459055e-20)
(0.53098463 -0.064449253 1.4061482e-20)
(0.53585839 -0.063958041 -6.1033135e-21)
(0.5412889 -0.063307339 9.4386876e-22)
(0.54726012 -0.062521219 -4.5895888e-21)
(0.55375571 -0.061623015 3.5748077e-21)
(0.56075981 -0.060635297 -3.2373192e-22)
(0.56825748 -0.059579808 -2.2451917e-21)
(0.57623523 -0.05847741 1.0034061e-20)
(0.58468144 -0.057347972 -7.1187343e-22)
(0.59358669 -0.056210225 8.7132018e-22)
(0.60294405 -0.055081526 -3.5210081e-22)
(0.61274928 -0.053977549 -5.8426406e-21)
(0.62300088 -0.052911864 5.8973216e-21)
(0.63370008 -0.051895428 2.3440192e-21)
(0.64485056 -0.050935969 -4.9750001e-21)
(0.65645806 -0.050037319 -5.7851182e-21)