/*--------------------------------*- C++ -*----------------------------------*\
  =========                 |
  \\      /  F ield         | OpenFOAM: The Open Source CFD Toolbox
   \\    /   O peration     | Website:  https://openfoam.org
    \\  /    A nd           | Version:  6
     \\/     M anipulation  |
\*---------------------------------------------------------------------------*/
FoamFile
{
    version     2.0;
    format      ascii;
    class       volScalarField;
    location    "149";
    object      pMean;
}
// * * * * * * * * * * * * * * * * * * * * * * * * * * * * * * * * * * * * * //

dimensions      [0 2 -2 0 0 0 0];

internalField   nonuniform List<scalar> 
9200
(
-0.39941102
-0.38725736
-0.37639629
-0.36680422
-0.35741623
-0.34823283
-0.33933838
-0.33069678
-0.32223591
-0.31388123
-0.30555909
-0.29720162
-0.28875379
-0.28018046
-0.27147645
-0.26268346
-0.25388427
-0.24517164
-0.23754682
-0.23519723
-0.41793981
-0.40333744
-0.39054112
-0.37941894
-0.36863515
-0.35815996
-0.34806811
-0.33829362
-0.3287341
-0.31929116
-0.3098741
-0.30040546
-0.29082846
-0.28111249
-0.2712579
-0.26129918
-0.2512758
-0.24119601
-0.231732
-0.22501653
-0.43678447
-0.41972668
-0.40505145
-0.39247337
-0.38034751
-0.36859606
-0.35727338
-0.34627759
-0.33547596
-0.32475212
-0.31400918
-0.30317476
-0.29220723
-0.28109786
-0.26986974
-0.2585725
-0.24725458
-0.23593228
-0.22500338
-0.21558101
-0.45548371
-0.43600335
-0.41952123
-0.40554881
-0.39209612
-0.37902201
-0.36635444
-0.35395739
-0.34167799
-0.32939923
-0.31704014
-0.30455765
-0.29194858
-0.27924624
-0.26651263
-0.25382765
-0.24126504
-0.2288675
-0.21690367
-0.20612148
-0.47337939
-0.45159281
-0.43342551
-0.4181342
-0.40335855
-0.38888508
-0.3747176
-0.36069918
-0.34667948
-0.33256928
-0.31833353
-0.3039859
-0.28958312
-0.27521388
-0.26098464
-0.24700535
-0.23336926
-0.22013439
-0.2074898
-0.19595185
-0.48962051
-0.465749
-0.44607563
-0.42955225
-0.41344156
-0.3974603
-0.38160339
-0.36572103
-0.34970102
-0.3335185
-0.31721621
-0.30088732
-0.28465968
-0.26867706
-0.25308087
-0.23799579
-0.22351521
-0.20969061
-0.19664725
-0.1847293
-0.50317896
-0.47756149
-0.45662163
-0.43896375
-0.42149415
-0.40387848
-0.38613326
-0.36815834
-0.34992452
-0.33150962
-0.31306028
-0.29476033
-0.27680537
-0.25937948
-0.24263758
-0.2266956
-0.21162407
-0.19744698
-0.1842286
-0.17217433
-0.51287307
-0.48598082
-0.46408689
-0.44541692
-0.42657434
-0.40721044
-0.38740816
-0.36717001
-0.34659736
-0.32590356
-0.30535369
-0.28521926
-0.26574695
-0.24713679
-0.22953109
-0.21301367
-0.19761373
-0.18331447
-0.17012063
-0.15811992
-0.51734757
-0.48971463
-0.46716611
-0.44755782
-0.42729271
-0.40607216
-0.38410635
-0.36155659
-0.33869177
-0.31587305
-0.29347439
-0.27183013
-0.25120629
-0.23178757
-0.21367816
-0.19691235
-0.18146844
-0.16728572
-0.15431366
-0.14253875
-0.51524809
-0.48733557
-0.4642987
-0.44371056
-0.42192379
-0.39877435
-0.37466361
-0.34995408
-0.32509173
-0.30056482
-0.27681625
-0.25419672
-0.23294906
-0.21321087
-0.19502938
-0.17838216
-0.1631983
-0.14937964
-0.13682774
-0.12544055
-0.27959102
-0.28390784
-0.28585934
-0.28611826
-0.28538272
-0.28381892
-0.28152406
-0.27859449
-0.27510577
-0.27111598
-0.26667279
-0.26181718
-0.2565856
-0.2510114
-0.24512615
-0.23896211
-0.2325537
-0.22592491
-0.21907758
-0.21210368
-0.28255246
-0.28642697
-0.28805806
-0.288093
-0.28717213
-0.28545299
-0.28303065
-0.279997
-0.27642359
-0.27236529
-0.2678671
-0.26296766
-0.2577013
-0.25209919
-0.24619009
-0.24000499
-0.23358571
-0.22695453
-0.22000367
-0.21270626
-0.28831838
-0.29133193
-0.29234085
-0.29193795
-0.29065413
-0.28863128
-0.28596018
-0.28272419
-0.278987
-0.27479721
-0.27019442
-0.26521257
-0.25988176
-0.25422896
-0.24827771
-0.24205575
-0.2356159
-0.22897961
-0.22184413
-0.21393866
-0.29661251
-0.29839964
-0.29851127
-0.29746493
-0.29564142
-0.29316265
-0.29011431
-0.28656823
-0.28257722
-0.27818112
-0.27341186
-0.26829654
-0.26285915
-0.25712046
-0.25109682
-0.24481022
-0.23832464
-0.23166667
-0.22428842
-0.21553745
-0.30708744
-0.3073503
-0.30632488
-0.30444272
-0.30190698
-0.29881862
-0.29525881
-0.29128626
-0.28694104
-0.28225263
-0.27724365
-0.27193207
-0.26633366
-0.26046169
-0.25432403
-0.24793389
-0.24136218
-0.23464921
-0.22699514
-0.21722778
-0.31938343
-0.31789392
-0.31553054
-0.31263795
-0.30922665
-0.30537851
-0.30117239
-0.29665422
-0.29185064
-0.28677824
-0.28144784
-0.27586721
-0.27004257
-0.26397824
-0.25767265
-0.25112761
-0.24441319
-0.23758918
-0.22963657
-0.21875452
-0.33318101
-0.3297715
-0.32590737
-0.32185265
-0.31741914
-0.31267345
-0.30769612
-0.30251989
-0.29715546
-0.29160585
-0.28586936
-0.27994165
-0.27381769
-0.26749184
-0.26095342
-0.25419277
-0.24727265
-0.24027532
-0.2320275
-0.22004486
-0.3482317
-0.34278006
-0.33728883
-0.33195062
-0.32637724
-0.32062335
-0.31477154
-0.30884102
-0.30282665
-0.29671607
-0.29049235
-0.28413621
-0.27762859
-0.27095163
-0.26408521
-0.25701152
-0.24979131
-0.24255289
-0.23408654
-0.22123106
-0.3643566
-0.35676284
-0.34954126
-0.34282293
-0.33601467
-0.32915836
-0.32234078
-0.31556732
-0.30881448
-0.30205166
-0.29524357
-0.28835233
-0.28133998
-0.2741689
-0.26679744
-0.25918177
-0.25134901
-0.24341074
-0.23415883
-0.22015694
-0.38143658
-0.37158954
-0.36252782
-0.35432574
-0.34617389
-0.33810125
-0.33019891
-0.32245661
-0.31483057
-0.30727099
-0.29972468
-0.29213774
-0.28445876
-0.27663898
-0.26862709
-0.26036498
-0.25180246
-0.24274474
-0.23159499
-0.21539869
-0.20421348
-0.19442393
-0.18467719
-0.17505384
-0.16549478
-0.15604009
-0.1467469
-0.13765192
-0.12878369
-0.12016973
-0.11183461
-0.10379869
-0.096078647
-0.088687961
-0.08163704
-0.074933291
-0.068581301
-0.062583011
-0.056937886
-0.051643075
-0.046693596
-0.042082526
-0.037801199
-0.033839413
-0.030185638
-0.026827239
-0.023750681
-0.020941745
-0.018385733
-0.016067657
-0.013972428
-0.012085023
-0.010390638
-0.0088748354
-0.0075236673
-0.0063237929
-0.0052625924
-0.0043282515
-0.0035099375
-0.0027976891
-0.0021833331
-0.0016582055
-0.0012213562
-0.00085541127
-0.00060293793
-0.00033995208
-0.00045795101
0.00012777603
-0.0018495119
0.0028576266
-0.2055541
-0.19532514
-0.18544698
-0.17582616
-0.16623295
-0.15673012
-0.14739607
-0.13826353
-0.12935796
-0.12070757
-0.11233739
-0.10426766
-0.096514991
-0.089092947
-0.082011987
-0.075279554
-0.068900268
-0.062876099
-0.057206527
-0.051888706
-0.046917647
-0.042286411
-0.037986303
-0.034007086
-0.030337189
-0.026963924
-0.023873704
-0.021052252
-0.018484805
-0.016156316
-0.014051629
-0.012155655
-0.010453529
-0.0089307479
-0.0075733024
-0.0063677917
-0.005301538
-0.0043626714
-0.0035403058
-0.0028244283
-0.0022068154
-0.0016787549
-0.0012392326
-0.00087086247
-0.00061594541
-0.00035105767
-0.00046510889
0.00011907848
-0.0018378759
0.0028282009
-0.20827622
-0.19712295
-0.1869884
-0.17741727
-0.16777291
-0.15817734
-0.14876597
-0.1395616
-0.13058185
-0.12185738
-0.1134149
-0.10527452
-0.097452964
-0.089964148
-0.082818817
-0.076024611
-0.069586314
-0.063506035
-0.057783348
-0.052415464
-0.047397416
-0.042722254
-0.038381247
-0.034364092
-0.030659136
-0.027253589
-0.024133747
-0.021285205
-0.018693067
-0.016342141
-0.014217128
-0.012302795
-0.010584129
-0.0090464849
-0.0076757132
-0.0064582781
-0.0053813715
-0.0044329985
-0.003602154
-0.0028787103
-0.0022543334
-0.0017202042
-0.0012751771
-0.00090182077
-0.00064193452
-0.00037312265
-0.00047932632
0.00010200668
-0.0018148147
0.0027699162
-0.21210271
-0.19949005
-0.18898999
-0.17959878
-0.16993503
-0.16022492
-0.15072329
-0.14143577
-0.13236306
-0.12354128
-0.11500151
-0.10676413
-0.098846187
-0.091262529
-0.084024676
-0.077140809
-0.07061616
-0.064453209
-0.058651816
-0.053209393
-0.048121103
-0.04338006
-0.038977539
-0.034903197
-0.031145295
-0.027690925
-0.024526234
-0.021636647
-0.019007077
-0.016622132
-0.014466301
-0.012524134
-0.010780405
-0.0092202504
-0.0078293113
-0.0065938455
-0.0055008463
-0.0045381282
-0.0036945035
-0.0029596689
-0.0023251212
-0.0017818771
-0.001328593
-0.00094776278
-0.00068044435
-0.00040574839
-0.00050028101
7.6899114e-05
-0.001780648
0.002683973
-0.21667888
-0.20205942
-0.19109777
-0.18209065
-0.17249814
-0.16267931
-0.15309898
-0.14374417
-0.13458288
-0.12565855
-0.1170116
-0.108664
-0.10063343
-0.092936349
-0.085585846
-0.078591234
-0.071958645
-0.065691315
-0.059789709
-0.054251703
-0.049072794
-0.044246319
-0.039763683
-0.035614585
-0.031787256
-0.028268698
-0.025044918
-0.022101157
-0.019422114
-0.016992157
-0.014795518
-0.012816478
-0.011039533
-0.0094495467
-0.0080318823
-0.006772529
-0.0056582185
-0.0046765125
-0.0038159812
-0.0030660872
-0.0024181019
-0.0018628223
-0.0013986411
-0.0010079513
-0.00073083036
-0.00044836984
-0.00052754546
4.4277538e-05
-0.0017359796
0.0025722555
-0.22154949
-0.20447441
-0.19297722
-0.18459093
-0.17522441
-0.1653394
-0.15570916
-0.14632551
-0.13710577
-0.12809476
-0.11934733
-0.11089067
-0.10274389
-0.094925651
-0.087451523
-0.080332841
-0.073577297
-0.067189427
-0.061170771
-0.055520061
-0.05023345
-0.045304758
-0.040725723
-0.036486245
-0.032574642
-0.028977909
-0.025681962
-0.022671886
-0.019932171
-0.017446932
-0.015200117
-0.013175702
-0.011357863
-0.0097311338
-0.0082805501
-0.0069917748
-0.0058512209
-0.0048461402
-0.0039648048
-0.0031963881
-0.0025318821
-0.0019618119
-0.0014842416
-0.0010814413
-0.00079227141
-0.00050027266
-0.00056058999
4.7886569e-06
-0.0016816124
0.0024372115
-0.22625014
-0.20650971
-0.19438252
-0.18678155
-0.17786876
-0.16803644
-0.15840117
-0.14903271
-0.13980321
-0.13074183
-0.12191603
-0.11336368
-0.10510795
-0.097170322
-0.089569691
-0.082320479
-0.075432849
-0.068913329
-0.062765125
-0.056988323
-0.05158015
-0.046535245
-0.041845947
-0.037502571
-0.033493687
-0.0298064
-0.02642662
-0.023339331
-0.020528841
-0.017979018
-0.015673519
-0.013595989
-0.011730252
-0.010060473
-0.0085713125
-0.0072480591
-0.0060767559
-0.0050442934
-0.0041385946
-0.0033484929
-0.0026646511
-0.0020772737
-0.0015840344
-0.0011670649
-0.000863772
-0.00056061654
-0.00059880553
-4.087093e-05
-0.0016184816
0.0022816981
-0.23048122
-0.20853105
-0.19552853
-0.18847361
-0.18020739
-0.17066593
-0.1611128
-0.15179114
-0.14259439
-0.13352504
-0.12464976
-0.1160197
-0.10766658
-0.099616036
-0.091890774
-0.084509132
-0.077484605
-0.070826407
-0.06453996
-0.05862719
-0.053086804
-0.047914604
-0.04310381
-0.038645381
-0.034528318
-0.030739979
-0.027266374
-0.024092457
-0.021202402
-0.018579858
-0.016208196
-0.014070726
-0.012150896
-0.010432476
-0.0088997177
-0.0075374942
-0.0063314364
-0.0052680296
-0.0043348024
-0.0035202031
-0.0028145197
-0.0022075925
-0.0016966449
-0.0012636635
-0.00094436386
-0.00062860574
-0.00064164168
-9.207791e-05
-0.0015476538
0.0021089257
-0.23190732
-0.21070729
-0.19704405
-0.18958559
-0.18180595
-0.17284559
-0.16356716
-0.15436707
-0.14526426
-0.13625496
-0.12738951
-0.11872741
-0.11031223
-0.10217616
-0.09434649
-0.086846177
-0.079693013
-0.072899835
-0.066475111
-0.060423347
-0.0547454
-0.049438822
-0.044498226
-0.039915642
-0.035680863
-0.031781792
-0.028204775
-0.024934917
-0.021956395
-0.019252737
-0.016807088
-0.014602459
-0.012621937
-0.010848892
-0.0092671448
-0.0078611249
-0.0066160134
-0.0055178471
-0.0045537146
-0.0037116302
-0.0029814578
-0.0023526248
-0.0018218408
-0.0013709314
-0.001033703
-0.00070381411
-0.00068885916
-0.0001480438
-0.0014706824
0.0019231007
-0.22237543
-0.21013406
-0.19838051
-0.18956636
-0.18175994
-0.1735995
-0.16494359
-0.15611977
-0.14730663
-0.1385336
-0.12983297
-0.12126523
-0.11288737
-0.10474291
-0.096867405
-0.089291293
-0.082039363
-0.07513055
-0.068578494
-0.062392077
-0.056575827
-0.051130319
-0.046052609
-0.04133666
-0.036973751
-0.032952883
-0.029261166
-0.02588419
-0.022806376
-0.020011304
-0.017482015
-0.015201286
-0.013151883
-0.011316776
-0.0096793418
-0.0082235334
-0.0069340387
-0.0057963951
-0.0047971957
-0.0039239625
-0.0031660772
-0.0025124929
-0.0019593448
-0.0014882457
-0.0011309625
-0.00078507921
-0.0007396979
-0.00020649539
-0.0013898824
0.0017299888
-0.20080131
-0.20411344
-0.19793423
-0.18840073
-0.18021986
-0.17249569
-0.16430737
-0.15580385
-0.14724695
-0.13870245
-0.13019546
-0.12178253
-0.11352485
-0.10547077
-0.097659526
-0.090124969
-0.082895287
-0.075992601
-0.069433418
-0.063229185
-0.05738671
-0.051908569
-0.04679355
-0.042037101
-0.037631756
-0.033567563
-0.02983249
-0.026412817
-0.023293507
-0.02045855
-0.017891283
-0.015574685
-0.013491638
-0.011625163
-0.0099586295
-0.0084759383
-0.0071616875
-0.0060012954
-0.0049812097
-0.0040887922
-0.0033132136
-0.0026432809
-0.0020746193
-0.0015892614
-0.0012160548
-0.00085907049
-0.00078378146
-0.00026429359
-0.0013046641
0.0015382048
-0.18970948
-0.19412388
-0.18980931
-0.18058771
-0.17281426
-0.16591499
-0.15859337
-0.15086524
-0.1430183
-0.13513009
-0.12721733
-0.11933296
-0.11154102
-0.1038941
-0.096435642
-0.089203967
-0.082231934
-0.075546286
-0.069167956
-0.063112576
-0.057390868
-0.052009029
-0.046969168
-0.042269749
-0.037906033
-0.03387051
-0.030153322
-0.026742666
-0.023625187
-0.020786337
-0.018210712
-0.015882364
-0.013785081
-0.011902641
-0.010219034
-0.0087186616
-0.007386519
-0.0062083292
-0.0051707544
-0.0042613182
-0.0034692118
-0.0027833936
-0.0021989416
-0.0016989883
-0.0013081819
-0.00094053594
-0.00082967638
-0.0003318375
-0.0012043947
0.0013296812
-0.18030483
-0.18231031
-0.17926322
-0.17183003
-0.16498818
-0.15885099
-0.15235531
-0.14541243
-0.13827911
-0.13105162
-0.12374924
-0.11641932
-0.10912491
-0.10192078
-0.094852913
-0.087962517
-0.081285872
-0.074853458
-0.068690019
-0.062814969
-0.057242719
-0.051983
-0.047041258
-0.042419066
-0.038114556
-0.034122842
-0.030436439
-0.027045678
-0.023939096
-0.021103816
-0.01852589
-0.016190631
-0.014082905
-0.012187398
-0.010488862
-0.0089723225
-0.0076232757
-0.0064278412
-0.0053729713
-0.0044464154
-0.0036374264
-0.0029351689
-0.0023341326
-0.0018187189
-0.0014088839
-0.0010298215
-0.00087963958
-0.00040623317
-0.0010927861
0.0010997065
-0.16995844
-0.16959811
-0.16708516
-0.16175464
-0.15620121
-0.15087339
-0.14522577
-0.13914511
-0.13280127
-0.12629512
-0.11966106
-0.11294475
-0.10620614
-0.09950086
-0.092877119
-0.086378536
-0.080044341
-0.07390845
-0.067999278
-0.062339993
-0.056948758
-0.051838982
-0.047019642
-0.042495663
-0.038268309
-0.034335591
-0.030692679
-0.027332306
-0.02424517
-0.021420309
-0.018845464
-0.01650742
-0.014392311
-0.012485906
-0.010773866
-0.0092419736
-0.0078763399
-0.006663576
-0.0055910036
-0.0046466619
-0.0038199134
-0.0031001642
-0.0024813276
-0.0019490926
-0.0015186341
-0.0011264856
-0.00093448606
-0.00048409228
-0.00097762707
0.00085873068
-0.15874941
-0.15674978
-0.1543671
-0.15076993
-0.14655325
-0.14209191
-0.13729561
-0.13210521
-0.12660053
-0.12086463
-0.11494674
-0.10889492
-0.10276507
-0.096611809
-0.090484509
-0.084428434
-0.078484967
-0.072690839
-0.067077734
-0.061672332
-0.05649644
-0.051567149
-0.046897073
-0.042494652
-0.038364506
-0.034507796
-0.030922617
-0.027604385
-0.024546234
-0.021739388
-0.019173534
-0.016837163
-0.014717898
-0.012802787
-0.011078577
-0.0095319604
-0.0081497979
-0.0069193054
-0.0058282692
-0.0048650936
-0.0040193139
-0.0032806106
-0.0026423689
-0.0020915113
-0.0016385683
-0.0012310046
-0.00099526399
-0.00056418481
-0.00086474472
0.00061494034
-0.14640967
-0.14381111
-0.1416471
-0.13934659
-0.13633581
-0.1327642
-0.12880513
-0.12448181
-0.11981668
-0.11486585
-0.10968505
-0.10432419
-0.098834961
-0.093269556
-0.087677208
-0.082103675
-0.076591352
-0.071178763
-0.065900055
-0.060784815
-0.055858051
-0.051140241
-0.04664747
-0.042391647
-0.038380779
-0.034619285
-0.031108338
-0.027846232
-0.024828745
-0.022049514
-0.019500396
-0.017171814
-0.015053089
-0.013132745
-0.011398802
-0.0098390251
-0.0084411711
-0.007193189
-0.0060834395
-0.0051007817
-0.0042350021
-0.0034760956
-0.0028169999
-0.0022457743
-0.0017686204
-0.0013431045
-0.0010624846
-0.00064546313
-0.00075988306
0.00037686371
-0.13326959
-0.1309309
-0.12920014
-0.12784074
-0.12582613
-0.12311038
-0.11995692
-0.11645154
-0.11259376
-0.10841433
-0.10396698
-0.099302445
-0.094467363
-0.08950938
-0.084476279
-0.079413338
-0.074362858
-0.069363986
-0.064452303
-0.059659463
-0.055012993
-0.050536231
-0.046248344
-0.042164447
-0.038295787
-0.034649982
-0.031231306
-0.028041003
-0.025077623
-0.022337367
-0.019814434
-0.017501364
-0.01538936
-0.013468612
-0.011728579
-0.010158269
-0.0087464825
-0.0074820368
-0.0063539862
-0.0053517433
-0.0044654378
-0.0036854254
-0.0030043049
-0.0024111448
-0.001908291
-0.0014622289
-0.0011364589
-0.00072695349
-0.00066885899
0.00015358385
-0.12002717
-0.11835072
-0.11717376
-0.11650395
-0.11527761
-0.11333739
-0.11093526
-0.10818354
-0.10507891
-0.10163507
-0.097897418
-0.09391406
-0.089727997
-0.085381433
-0.080917974
-0.076381209
-0.07181251
-0.067250603
-0.062731393
-0.058287609
-0.053948463
-0.049739444
-0.04568223
-0.041794699
-0.038091015
-0.034581778
-0.031274238
-0.028172544
-0.025278033
-0.022589539
-0.020103705
-0.017815314
-0.015717604
-0.013802576
-0.012061293
-0.010484152
-0.0090611451
-0.0077820925
-0.0066368651
-0.0056155345
-0.0047086744
-0.0039070556
-0.0032030686
-0.002586652
-0.0020568835
-0.0015877556
-0.0012173688
-0.00080802951
-0.00059683604
-4.6292828e-05
-0.1072012
-0.10624456
-0.10563277
-0.10549126
-0.10488525
-0.10361807
-0.1018937
-0.099822934
-0.097405463
-0.094645732
-0.09157901
-0.088247594
-0.08468983
-0.080943277
-0.077046883
-0.073040331
-0.068962824
-0.064851836
-0.06074265
-0.056668078
-0.052658096
-0.048739543
-0.044935919
-0.041267284
-0.037750255
-0.034398057
-0.031220656
-0.028224937
-0.025414932
-0.022792071
-0.020355468
-0.01810221
-0.016027657
-0.014125739
-0.012389242
-0.010810087
-0.0093795898
-0.008088697
-0.0069282183
-0.0058889914
-0.0049621404
-0.0041389133
-0.0034116369
-0.0027709895
-0.0022134305
-0.0017189701
-0.0013051908
-0.00088848808
-0.00054760522
-0.00021575586
-0.095060189
-0.09472801
-0.094622719
-0.094900216
-0.094785763
-0.094085302
-0.092953779
-0.091486535
-0.089684958
-0.087548631
-0.085103433
-0.082384232
-0.079423856
-0.076254658
-0.072910917
-0.069428112
-0.065841806
-0.062187077
-0.058497757
-0.054805877
-0.051141298
-0.047531377
-0.044000686
-0.040570817
-0.037260277
-0.034084457
-0.031055672
-0.028183265
-0.025473765
-0.022931078
-0.020556722
-0.018350078
-0.016308659
-0.014428381
-0.012703841
-0.011128582
-0.0096953491
-0.0083963309
-0.0072233854
-0.0061682199
-0.0052226149
-0.0043783653
-0.0036278842
-0.0029624851
-0.0023766703
-0.0018550411
-0.0013996439
-0.00096848977
-0.00052305583
-0.00035035383
-0.083734036
-0.083888553
-0.084196241
-0.084803458
-0.085076888
-0.084841816
-0.084214213
-0.083270485
-0.082011057
-0.080432315
-0.078552155
-0.076397709
-0.073995743
-0.071373154
-0.068559008
-0.065584285
-0.062480636
-0.05927975
-0.05601302
-0.052710904
-0.049402361
-0.046114473
-0.042872132
-0.039697774
-0.036611188
-0.033629398
-0.030766626
-0.028034312
-0.025441199
-0.022993463
-0.020694886
-0.018547058
-0.016549611
-0.014700456
-0.012996038
-0.011431582
-0.010001345
-0.008698844
-0.0075170824
-0.0064487315
-0.005486329
-0.0046222908
-0.003849265
-0.0031591321
-0.0025450668
-0.0019950085
-0.0015001599
-0.0010484212
-0.00052289668
-0.00044886866
-0.073276666
-0.073785207
-0.074404701
-0.075259991
-0.07583218
-0.075969135
-0.07575783
-0.075257264
-0.07446534
-0.073375705
-0.071999577
-0.070356804
-0.068467976
-0.066354441
-0.06403992
-0.061550431
-0.058913359
-0.056156694
-0.053308648
-0.050397282
-0.047449918
-0.044492644
-0.041549949
-0.038644426
-0.035796511
-0.033024297
-0.030343411
-0.027766968
-0.025305577
-0.022967406
-0.020758289
-0.01868188
-0.016739835
-0.014932012
-0.013256693
-0.011710809
-0.010290174
-0.0089896967
-0.0078036009
-0.0067256032
-0.0057490906
-0.0048671752
-0.0040728827
-0.0033586323
-0.0027168368
-0.0021377623
-0.0016058628
-0.0011287058
-0.00054470469
-0.00051351625
-0.063695512
-0.064447406
-0.065286287
-0.066315224
-0.067107549
-0.067532221
-0.067654512
-0.067518998
-0.067120787
-0.066451096
-0.065515576
-0.064327598
-0.062901882
-0.061254355
-0.059403458
-0.057370158
-0.055177224
-0.05284861
-0.050409011
-0.047883485
-0.045297026
-0.042674057
-0.040038004
-0.037410953
-0.034813356
-0.032263782
-0.029778737
-0.027372539
-0.025057261
-0.022842726
-0.020736552
-0.01874425
-0.016869347
-0.015113547
-0.013476914
-0.011958066
-0.010554381
-0.0092621978
-0.0080770108
-0.0069936469
-0.0060064219
-0.005109218
-0.0042955698
-0.0035584458
-0.0028899783
-0.0022820161
-0.0017155628
-0.0012096073
-0.00058432678
-0.00054955075
-0.054972183
-0.055880313
-0.05686111
-0.057998998
-0.05894303
-0.059580927
-0.059961413
-0.060117586
-0.060042238
-0.05972465
-0.059165951
-0.058374
-0.057358247
-0.056129588
-0.054701449
-0.053089874
-0.051312974
-0.049390429
-0.047343126
-0.045192782
-0.042961548
-0.040671594
-0.038344678
-0.036001768
-0.033662723
-0.031346003
-0.029068441
-0.026845059
-0.024688949
-0.022611206
-0.020620911
-0.018725166
-0.016929165
-0.015236309
-0.013648339
-0.012165499
-0.010786705
-0.0095097255
-0.0083313562
-0.0072475789
-0.0062537024
-0.005344448
-0.0045139776
-0.0037558496
-0.0030623077
-0.0024262894
-0.0018277764
-0.0012910794
-0.00063657643
-0.00056429084
-0.047072772
-0.048070266
-0.049131269
-0.050324873
-0.051363056
-0.052150171
-0.05272228
-0.053103538
-0.053285168
-0.053255175
-0.053011197
-0.052556608
-0.051896377
-0.051036962
-0.049987241
-0.048758661
-0.047364846
-0.045821217
-0.044144705
-0.042353455
-0.040466462
-0.038503198
-0.036483245
-0.034425913
-0.032349906
-0.030273017
-0.02821186
-0.026181646
-0.024196017
-0.022266915
-0.020404515
-0.018617201
-0.016911582
-0.015292551
-0.013763377
-0.012325823
-0.01098028
-0.0097259164
-0.0085608269
-0.0074821724
-0.0064863016
-0.0055688353
-0.0047246652
-0.0039480019
-0.0032315023
-0.00256891
-0.0019407801
-0.0013726948
-0.00069607915
-0.00056575916
-0.039953187
-0.040989997
-0.042083983
-0.043291681
-0.044377503
-0.045260568
-0.045967348
-0.046515178
-0.046894463
-0.047092623
-0.047104806
-0.046930927
-0.046572348
-0.046031817
-0.045314282
-0.044427091
-0.043379734
-0.042183583
-0.040851682
-0.039398528
-0.037839785
-0.03619196
-0.034472079
-0.032697353
-0.03088485
-0.029051185
-0.027212237
-0.025382906
-0.023576898
-0.021806561
-0.020082763
-0.018414815
-0.01681044
-0.015275778
-0.013815428
-0.012432522
-0.011128822
-0.0099048286
-0.0087599045
-0.007692388
-0.0066996942
-0.0057783905
-0.0049241829
-0.0041320059
-0.0033951503
-0.0027080401
-0.0020526947
-0.001453665
-0.0007580641
-0.00056126708
-0.033563631
-0.034603504
-0.035695695
-0.036886441
-0.037983804
-0.038919942
-0.039714178
-0.040378759
-0.040903919
-0.041277117
-0.041491915
-0.041545737
-0.041437219
-0.04116618
-0.040734345
-0.040145576
-0.039405732
-0.038522502
-0.037505286
-0.036365045
-0.035114096
-0.03376586
-0.032334585
-0.030835069
-0.029282363
-0.027691474
-0.026077094
-0.024453336
-0.022833506
-0.021229909
-0.019653688
-0.018114703
-0.016621453
-0.015181034
-0.013799135
-0.012480067
-0.011226813
-0.010041102
-0.008923501
-0.0078734934
-0.0068895627
-0.0059692523
-0.0051091459
-0.0043049707
-0.0035508036
-0.0028417245
-0.0021615853
-0.0015329289
-0.00081890381
-0.00055631745
-0.027851967
-0.028869727
-0.029935623
-0.031087432
-0.032169492
-0.033125389
-0.033969175
-0.034709378
-0.035336561
-0.035838725
-0.036208613
-0.036442011
-0.036535646
-0.036487179
-0.036295839
-0.035962677
-0.035490507
-0.034883825
-0.034148764
-0.033293016
-0.032325695
-0.031257164
-0.030098825
-0.028862889
-0.02756213
-0.026209626
-0.024818501
-0.023401677
-0.021971634
-0.020540207
-0.019118397
-0.017716222
-0.016342598
-0.015005258
-0.013710704
-0.01246419
-0.011269737
-0.01013016
-0.009047124
-0.0080211988
-0.0070519088
-0.0061377786
-0.0052763082
-0.0044640735
-0.0036960329
-0.0029679525
-0.0022655553
-0.0016092718
-0.0008762844
-0.00055409909
-0.022765998
-0.023745185
-0.024768566
-0.025866931
-0.026914746
-0.027865529
-0.028729461
-0.029512401
-0.030205585
-0.030797918
-0.031281922
-0.031652458
-0.031905052
-0.032035911
-0.032042463
-0.031923617
-0.031679766
-0.03131277
-0.030825967
-0.030224155
-0.029513525
-0.028701556
-0.027796866
-0.026809051
-0.025748482
-0.024626102
-0.023453195
-0.022241163
-0.021001304
-0.019744598
-0.018481516
-0.017221851
-0.015974574
-0.014747718
-0.013548296
-0.012382244
-0.011254394
-0.01016847
-0.0091271001
-0.0081318413
-0.0071832014
-0.0062806636
-0.005422655
-0.0046066347
-0.0038284927
-0.003084731
-0.0023628189
-0.0016814381
-0.00092902217
-0.00055563297
-0.01825531
-0.019186172
-0.020157318
-0.021193719
-0.022194868
-0.023122846
-0.023984997
-0.024785269
-0.025515786
-0.026166575
-0.026730378
-0.027201679
-0.027575386
-0.027846845
-0.028012304
-0.028069153
-0.028015972
-0.027852555
-0.027579963
-0.027200551
-0.026717959
-0.026137063
-0.02546389
-0.024705512
-0.023869907
-0.022965796
-0.022002465
-0.020989572
-0.019936951
-0.018854415
-0.017751566
-0.016637621
-0.015521258
-0.014410476
-0.013312486
-0.012233622
-0.011179285
-0.010153894
-0.0091608736
-0.0082026364
-0.0072805846
-0.0063951069
-0.005545537
-0.0047302254
-0.0039460085
-0.0031901695
-0.002451753
-0.0017482181
-0.00097667035
-0.00056039603
-0.014272361
-0.015150207
-0.016064398
-0.017035004
-0.017982319
-0.018875771
-0.019720596
-0.020519381
-0.021265225
-0.021949384
-0.022565108
-0.023106903
-0.023569499
-0.023947858
-0.024237561
-0.024435026
-0.024537568
-0.024543461
-0.024452006
-0.024263596
-0.023979743
-0.023603078
-0.023137322
-0.022587226
-0.021958489
-0.021257647
-0.020491942
-0.019669169
-0.01879752
-0.017885406
-0.016941289
-0.015973515
-0.014990155
-0.013998862
-0.01300674
-0.012020239
-0.011045063
-0.010086101
-0.009147376
-0.008232002
-0.0073421542
-0.0064790431
-0.0056428584
-0.0048328203
-0.0040466975
-0.0032825833
-0.0025309422
-0.0018085115
-0.0010191122
-0.000567108
-0.010773877
-0.011597682
-0.012453891
-0.013358389
-0.014248775
-0.015100745
-0.015917953
-0.016701995
-0.017446953
-0.018145321
-0.018791022
-0.01937885
-0.019903664
-0.020360399
-0.02074437
-0.021051463
-0.021278203
-0.021421823
-0.021480351
-0.021452681
-0.021338639
-0.021139007
-0.020855539
-0.020490944
-0.020048852
-0.019533747
-0.018950885
-0.018306188
-0.017606121
-0.016857557
-0.016067627
-0.015243575
-0.014392612
-0.013521769
-0.012637769
-0.011746903
-0.010854922
-0.0099669481
-0.0090873941
-0.0082198973
-0.0073672613
-0.0065314079
-0.0057133033
-0.0049129872
-0.0041291225
-0.0033606181
-0.0025992365
-0.0018613841
-0.0010562913
-0.00057438801
-0.0077209646
-0.0084924448
-0.00929244
-0.010133235
-0.010966827
-0.011774229
-0.012557882
-0.01331864
-0.014051516
-0.014750184
-0.015409304
-0.016024114
-0.016589801
-0.01710151
-0.017554582
-0.01794471
-0.018268003
-0.018521062
-0.018701055
-0.018805811
-0.018833882
-0.018784605
-0.01865813
-0.018455449
-0.01817839
-0.017829598
-0.017412492
-0.016931199
-0.016390474
-0.015795604
-0.015152289
-0.014466525
-0.013744473
-0.012992331
-0.012216205
-0.011421988
-0.01061524
-0.0098010885
-0.0089841253
-0.0081683235
-0.0073569552
-0.0065525213
-0.0057566613
-0.0049701586
-0.0041925089
-0.0034234181
-0.0026558504
-0.0019061449
-0.0010881287
-0.0005811366
-0.0050802346
-0.0058027588
-0.0065500805
-0.0073313302
-0.0081104674
-0.0088730018
-0.0096204232
-0.010353014
-0.011066622
-0.011755997
-0.012416539
-0.013043996
-0.013633987
-0.014182013
-0.014683631
-0.015134579
-0.015530832
-0.01586867
-0.01614475
-0.016356194
-0.016500658
-0.016576397
-0.016582322
-0.016518039
-0.016383877
-0.016180901
-0.015910899
-0.01557636
-0.01518043
-0.014726848
-0.014219868
-0.013664171
-0.013064761
-0.012426854
-0.011755765
-0.011056796
-0.010335114
-0.0095956449
-0.0088429658
-0.0080812007
-0.0073139252
-0.0065440764
-0.0057738462
-0.0050046658
-0.0042367844
-0.003470661
-0.0027003759
-0.001942357
-0.0011145171
-0.00058662548
-0.0028257829
-0.0035043802
-0.0042042449
-0.0049318343
-0.0056609752
-0.0063809226
-0.0070924054
-0.0077952505
-0.0084860263
-0.0091604318
-0.0098145539
-0.010444652
-0.011046818
-0.011616973
-0.012150997
-0.012644824
-0.013094487
-0.013496174
-0.013846293
-0.014141549
-0.014379013
-0.014556186
-0.014671065
-0.014722195
-0.014708712
-0.014630383
-0.014487616
-0.014281472
-0.014013651
-0.013686459
-0.013302775
-0.012865981
-0.012379896
-0.011848687
-0.011276779
-0.010668748
-0.01002922
-0.0093627587
-0.0086737573
-0.0079663277
-0.0072441924
-0.006510581
-0.0057681101
-0.0050187482
-0.0042634017
-0.0035032157
-0.0027332952
-0.0019702311
-0.0011356602
-0.00059061027
-0.00093189815
-0.00157175
-0.0022297481
-0.0029099589
-0.0035942891
-0.0042751076
-0.004952534
-0.0056260187
-0.0062927301
-0.0069491724
-0.0075920398
-0.0082180692
-0.0088238066
-0.0094056027
-0.0099597036
-0.010482315
-0.01096964
-0.011417924
-0.011823509
-0.012182899
-0.012492817
-0.012750277
-0.012952639
-0.013097671
-0.013183605
-0.013209184
-0.013173699
-0.013077018
-0.012919598
-0.012702487
-0.012427313
-0.01209625
-0.011711975
-0.011277611
-0.010796656
-0.010272898
-0.0097103282
-0.009113035
-0.0084851012
-0.0078304917
-0.0071529401
-0.0064558353
-0.0057420928
-0.0050141021
-0.0042733203
-0.0035214931
-0.0027546464
-0.0019895492
-0.0011512605
-0.00059270059
0.00059760959
-1.0616438e-05
-0.0006340968
-0.0012751473
-0.001922068
-0.0025696637
-0.003217559
-0.0038649054
-0.0045093533
-0.0051480589
-0.0057782204
-0.0063969851
-0.0070013009
-0.0075879125
-0.0081534186
-0.0086943153
-0.0092070249
-0.0096879308
-0.010133421
-0.01053994
-0.010904044
-0.011222454
-0.011492123
-0.011710286
-0.011874527
-0.011982828
-0.012033623
-0.012025841
-0.011958937
-0.011832914
-0.01164834
-0.011406335
-0.011108561
-0.010757188
-0.010354842
-0.0099045441
-0.0094096385
-0.0088737008
-0.0083004411
-0.0076935969
-0.007056818
-0.0063935496
-0.0057068965
-0.0049995596
-0.004273435
-0.0035307674
-0.0027683809
-0.0020031925
-0.0011633391
-0.0005939533
0.0018063349
0.0012241793
0.00062899319
2.0068945e-05
-0.00059586449
-0.0012155502
-0.0018382343
-0.0024628216
-0.0030873272
-0.0037094157
-0.0043266852
-0.0049366154
-0.0055364861
-0.0061233749
-0.0066941892
-0.007245694
-0.0077745326