/*--------------------------------*- C++ -*----------------------------------*\
  =========                 |
  \\      /  F ield         | OpenFOAM: The Open Source CFD Toolbox
   \\    /   O peration     | Website:  https://openfoam.org
    \\  /    A nd           | Version:  6
     \\/     M anipulation  |
\*---------------------------------------------------------------------------*/
FoamFile
{
    version     2.0;
    format      ascii;
    class       volVectorField;
    location    "149";
    object      U_0;
}
// * * * * * * * * * * * * * * * * * * * * * * * * * * * * * * * * * * * * * //

dimensions      [0 1 -1 0 0 0 0];

internalField   nonuniform List<vector> 
9200
(
(0.0010393633 0.0014199732 -5.9201978e-20)
(0.013676142 -0.0020584062 4.604265e-20)
(0.038313329 -0.0058666373 -3.8501835e-20)
(0.072274711 -0.0097636046 -6.0257891e-20)
(0.11376515 -0.013490159 1.8827018e-20)
(0.16158144 -0.016605819 3.2743964e-20)
(0.21467219 -0.018817478 -1.2268045e-20)
(0.27206696 -0.019974115 9.2688903e-21)
(0.33285728 -0.020011479 1.6803464e-20)
(0.39616471 -0.01892934 1.4848111e-21)
(0.46111697 -0.016780138 -2.1456397e-20)
(0.52683845 -0.013658088 2.0670064e-20)
(0.59245242 -0.0096883913 -4.0422258e-20)
(0.65709319 -0.0050162085 -2.1133969e-20)
(0.71992671 0.00020508759 5.9046704e-21)
(0.7801771 0.0058235759 -2.5131765e-20)
(0.83717274 0.011712244 2.5217215e-20)
(0.89047094 0.01791789 2.2243325e-20)
(0.93967289 0.024572732 -2.9927132e-22)
(0.98205403 0.028292648 -1.669155e-21)
(0.0052522095 -0.0013462887 -1.705939e-20)
(0.026962612 -0.0089890821 3.9747804e-20)
(0.061670339 -0.014809855 2.3576353e-20)
(0.10629525 -0.019172392 -1.1569783e-19)
(0.15873617 -0.022214149 -1.272712e-20)
(0.2175342 -0.023720867 7.3297238e-20)
(0.28137382 -0.023595306 -3.5476483e-20)
(0.34900705 -0.021869203 -8.3905764e-21)
(0.41924043 -0.018645789 3.4287627e-20)
(0.49091084 -0.014081135 -4.3259696e-20)
(0.56287389 -0.008376275 -3.0338573e-20)
(0.63401019 -0.0017669513 7.1921674e-20)
(0.70324515 0.0054880017 3.8294173e-20)
(0.76957777 0.0131182 -6.7976809e-20)
(0.83211448 0.020851606 1.4623753e-20)
(0.89010244 0.028419179 -3.6733554e-20)
(0.94297124 0.035569094 -1.3777239e-20)
(0.99043436 0.042140249 7.0975139e-20)
(1.0323581 0.047714611 2.9642202e-20)
(1.0669367 0.049138938 -8.3478568e-20)
(0.01085847 -0.0040424373 3.6773529e-20)
(0.043953566 -0.015431146 2.5047395e-21)
(0.090515727 -0.022552389 2.2341761e-20)
(0.14711185 -0.026497497 9.8117024e-22)
(0.21134317 -0.027886464 -4.0774033e-20)
(0.28146849 -0.026795308 1.857644e-20)
(0.35587141 -0.023382945 1.3420331e-20)
(0.43299126 -0.017921778 -5.0327823e-20)
(0.51132615 -0.010735916 5.7262006e-20)
(0.58942768 -0.0021841718 1.4256738e-20)
(0.66591085 0.0073475848 -5.4300888e-20)
(0.73948217 0.017459909 -1.8237478e-20)
(0.80897788 0.02775617 9.0591499e-21)
(0.8734046 0.037858835 2.3444834e-20)
(0.9319756 0.047423558 -1.1362563e-20)
(0.98413565 0.056148433 2.7877848e-20)
(1.0295759 0.063788575 -2.018832e-20)
(1.0682664 0.070203732 -7.0123935e-20)
(1.100334 0.075118654 -2.3796409e-20)
(1.1249129 0.076640457 4.8659993e-20)
(0.017957275 -0.0064221892 2.4508058e-20)
(0.064777196 -0.020694877 5.1039325e-20)
(0.12485265 -0.028060963 1.9881733e-20)
(0.19447021 -0.030464211 1.299012e-20)
(0.27095006 -0.029095011 1.7275737e-20)
(0.35224974 -0.024389169 -4.7720273e-20)
(0.43643253 -0.016826182 -2.5646915e-20)
(0.52162141 -0.0069768996 0)
(0.60603045 0.0045667813 1.3920687e-20)
(0.68798871 0.017211456 -5.8523852e-21)
(0.76597694 0.030373616 -9.7935256e-20)
(0.83867631 0.04349929 -1.577485e-20)
(0.90501715 0.056086233 6.5103468e-20)
(0.9642176 0.067703703 4.8439395e-22)
(1.0158054 0.078007229 -1.5725634e-21)
(1.0596174 0.086746248 2.1957591e-20)
(1.095779 0.093771621 -5.2647515e-21)
(1.1246817 0.099064663 -6.1030008e-20)
(1.1468663 0.10259635 -4.585146e-20)
(1.1622972 0.10341306 6.9520767e-20)
(0.0265795 -0.0082057165 -3.9194233e-21)
(0.089344272 -0.024033588 -5.1256333e-21)
(0.16430798 -0.030265104 5.6599512e-20)
(0.24758185 -0.02981016 1.8539361e-20)
(0.33624247 -0.024513186 -3.1955135e-20)
(0.42795232 -0.015240033 1.2163861e-20)
(0.52047388 -0.0028515504 2.6402926e-21)
(0.61166501 0.011736891 3.3609269e-20)
(0.6995487 0.027639918 5.6599675e-21)
(0.78237008 0.04402852 -1.3204801e-20)
(0.85865584 0.060147442 6.0154292e-20)
(0.92727094 0.075340148 -5.8009541e-20)
(0.98745859 0.089072491 -1.3216664e-19)
(1.0388549 0.1009486 -5.5773262e-21)
(1.0814743 0.1107166 8.3151131e-20)
(1.1156672 0.1182635 0)
(1.1420564 0.12360522 1.0118996e-20)
(1.1614683 0.12688989 -1.5459839e-20)
(1.1748193 0.12829797 -8.5994994e-21)
(1.1826686 0.12744837 2.0992309e-20)
(0.036667009 -0.0090896081 -5.4309108e-21)
(0.11731541 -0.024685435 4.3578822e-21)
(0.20811921 -0.028140285 -8.7629993e-21)
(0.30515777 -0.023415078 2.8472443e-20)
(0.40533636 -0.013075725 -2.9392727e-20)
(0.50607265 0.0015224724 -1.6927062e-20)
(0.60490626 0.019094987 3.7364294e-20)
(0.69955111 0.038365087 4.7595478e-21)
(0.78800556 0.058167457 -2.4436164e-20)
(0.86863577 0.077482787 6.9867785e-20)
(0.94024149 0.095458387 5.2390847e-22)
(1.0020973 0.11143126 -8.0444641e-20)
(1.0539586 0.12494255 0)
(1.096029 0.13573708 3.9542292e-20)
(1.1288938 0.14374795 5.5236267e-21)
(1.1534293 0.14906839 -7.756672e-20)
(1.1707005 0.15191853 -1.9587001e-20)
(1.1818637 0.15262302 -1.2467683e-20)
(1.1880604 0.15152534 -1.470945e-20)
(1.1901472 0.14858416 4.0420681e-20)
(0.04805899 -0.008767431 -1.727798e-20)
(0.14808346 -0.021932061 -2.2198504e-21)
(0.2551413 -0.020797921 3.0380548e-20)
(0.36546468 -0.010412887 3.748436e-20)
(0.47590527 0.0059014907 -1.9944771e-20)
(0.58374393 0.026269206 -6.9163196e-20)
(0.68644329 0.0489771 -2.7995883e-20)
(0.7817636 0.072417665 7.8929433e-20)
(0.86790361 0.095212329 8.5778618e-21)
(0.94359086 0.11624943 -2.487355e-20)
(1.0081275 0.13469804 1.3642233e-20)
(1.0613887 0.15001527 -4.3194754e-21)
(1.1037709 0.16193625 0)
(1.136099 0.17044387 2.7203584e-20)
(1.1595061 0.17572262 -7.9322714e-20)
(1.1753034 0.17810316 -3.1475648e-20)
(1.1848583 0.17800754 8.1054887e-20)
(1.1894933 0.17590881 -4.2970075e-21)
(1.190404 0.17225489 3.5561187e-21)
(1.188509 0.16719224 2.7111684e-20)
(0.060485393 -0.0069573842 -3.2414655e-20)
(0.18077814 -0.015170431 -8.1624454e-20)
(0.30388996 -0.007583584 2.5797609e-21)
(0.42642648 0.0097033016 7.0161947e-20)
(0.54535263 0.032631503 6.2424508e-20)
(0.65798233 0.058819992 -7.1574667e-20)
(0.7619103 0.086176449 -2.8272966e-22)
(0.85518449 0.11285223 8.552282e-20)
(0.93645509 0.13737827 4.8828219e-20)
(1.0050431 0.15869355 -5.4218596e-20)
(1.0609372 0.17613543 -9.2334532e-20)
(1.1047258 0.18941328 -3.1589937e-21)
(1.1374774 0.19855911 4.2128015e-20)
(1.1605888 0.20385818 -6.6056526e-21)
(1.1756261 0.20576974 -1.2868832e-20)
(1.1841789 0.20484868 1.9690873e-20)
(1.1877439 0.2016784 4.3880776e-20)
(1.1876464 0.19682526 -4.3859586e-20)
(1.1849964 0.19077818 -1.023224e-19)
(1.180626 0.1837731 2.4566987e-20)
(0.073537378 -0.0034329852 -3.497981e-20)
(0.21422733 -0.0039890504 -1.7388633e-19)
(0.3525173 0.011839357 8.2103403e-20)
(0.48562896 0.037018331 9.27677e-20)
(0.61085499 0.066835555 5.7970688e-20)
(0.72576863 0.098481183 8.6107321e-21)
(0.82834951 0.12959695 -1.0624038e-19)
(0.91719153 0.15824266 0)
(0.99162903 0.18302808 -6.8748827e-20)
(1.0517536 0.20311195 -1.5202467e-20)
(1.0983399 0.21814843 5.4703647e-20)
(1.1327022 0.22821058 1.0973418e-20)
(1.1565124 0.2336923 -4.5614006e-20)
(1.1716081 0.2351991 -4.9081523e-20)
(1.1798216 0.23344292 2.4287767e-20)
(1.1828462 0.22915275 4.4823051e-20)
(1.1821499 0.22300933 -5.5600605e-20)
(1.1789371 0.21560765 -1.0751159e-19)
(1.1741478 0.20742163 -3.1513618e-21)
(1.1684577 0.19871816 2.7046495e-20)
(0.086650627 0.0019613857 -3.5449175e-21)
(0.24696068 0.011816641 8.7913375e-20)
(0.39884817 0.037492337 -1.6479205e-20)
(0.54040568 0.071218431 -8.4309344e-20)
(0.66950025 0.107789 4.5164478e-20)
(0.7842209 0.1441155 4.9175557e-20)
(0.88319086 0.17775673 5.5356944e-21)
(0.96578021 0.20688492 -9.9502785e-20)
(1.0321778 0.23038799 -2.5048859e-21)
(1.0833343 0.24781545 5.0503707e-20)
(1.1208084 0.25926286 5.9854952e-21)
(1.1465571 0.26523598 -1.9717274e-20)
(1.162712 0.26650505 -7.570487e-20)
(1.1713777 0.26396588 -6.2554174e-21)
(1.1744774 0.25852389 4.353349e-20)
(1.1736559 0.25101044 3.7022128e-20)
(1.1702393 0.24213346 1.9793495e-20)
(1.1652412 0.23245822 -5.2995046e-20)
(1.1594023 0.22240362 1.2957457e-20)
(1.153226 0.2122374 8.2659359e-20)
(-0.0012932649 0.0014346622 -1.1234675e-21)
(-0.0047459725 0.0031874212 2.0647023e-21)
(-0.010771386 0.0041359123 8.7943132e-22)
(-0.01775433 0.0045395444 -2.4410635e-21)
(-0.024740375 0.0045654244 -1.4114975e-21)
(-0.031299663 0.0043260451 1.5460662e-21)
(-0.037161407 0.003903543 -6.8701032e-21)
(-0.042147527 0.0033577246 -5.9573854e-21)
(-0.046157864 0.0027313818 1.1172055e-20)
(-0.049146276 0.0020548287 -9.7427971e-21)
(-0.051100735 0.0013492958 -1.9834086e-22)
(-0.052030516 0.00062941446 3.6673539e-21)
(-0.051957796 -9.4900026e-05 -6.3296167e-22)
(-0.050911923 -0.00081694423 2.2818858e-20)
(-0.048925797 -0.0015318621 3.0401436e-22)
(-0.046035334 -0.0022351951 -4.0883085e-20)
(-0.042281759 -0.002922293 7.5386023e-21)
(-0.037703367 -0.0035910677 2.3864242e-20)
(-0.032308577 -0.0042400202 -4.3852623e-20)
(-0.0261568 -0.0048211512 -2.7739366e-20)
(-0.0016522041 0.0041808763 -5.3716039e-21)
(-0.0053974944 0.0092681599 1.086546e-20)
(-0.011218535 0.012007471 -1.0191525e-20)
(-0.017658065 0.013153792 3.9229735e-21)
(-0.023856483 0.013195438 4.8121657e-21)
(-0.029433376 0.012462746 7.1324565e-22)
(-0.034152383 0.011197029 -2.2509613e-20)
(-0.037860442 0.009573906 -2.037026e-21)
(-0.040474359 0.0077189892 2.0163619e-20)
(-0.041958974 0.0057212244 -5.0473821e-21)
(-0.04230899 0.0036428501 -2.1762682e-20)
(-0.04153736 0.0015266894 4.897339e-21)
(-0.039667713 -0.00059833826 2.2635529e-20)
(-0.036729055 -0.0027128038 1.030844e-20)
(-0.032751975 -0.0048027426 2.1854393e-20)
(-0.027769074 -0.0068555732 -1.9770828e-20)
(-0.021824655 -0.0088582964 -2.1673055e-20)
(-0.014966081 -0.010804314 2.1184736e-20)
(-0.0071287715 -0.012679104 2.681051e-20)
(0.0018746056 -0.01431734 1.5854847e-20)
(-0.0023034347 0.0065602488 -4.3568772e-21)
(-0.0065392386 0.014480229 -5.6387608e-21)
(-0.011892156 0.018710584 3.0723858e-22)
(-0.017211131 0.020428222 1.0959763e-21)
(-0.021819178 0.020400361 6.6918502e-21)
(-0.025431078 0.019151696 1.0665184e-20)
(-0.027877264 0.017066308 -3.7227778e-21)
(-0.029053292 0.014423793 -1.8896215e-20)
(-0.028909044 0.01142435 6.5413395e-21)
(-0.027431037 0.0082098894 1.286262e-20)
(-0.024627675 0.0048797462 5.8341057e-21)
(-0.020520038 0.0015021937 1.8159181e-20)
(-0.015135877 -0.0018769241 1.7295989e-21)
(-0.0085052445 -0.0052273255 -3.3864677e-20)
(-0.00065668692 -0.0085277056 1.2020266e-21)
(0.0083812816 -0.011759224 -2.2139306e-20)
(0.018557198 -0.014904231 -2.4466429e-20)
(0.029802584 -0.017953908 4.5819949e-20)
(0.042305449 -0.020855294 2.5349488e-20)
(0.056739151 -0.023247965 1.2240391e-22)
(-0.0031290346 0.0083689901 -5.2833226e-21)
(-0.0078964147 0.018336554 -8.4815696e-21)
(-0.012439007 0.023587858 4.3593132e-21)
(-0.016026556 0.025609707 4.1463565e-21)
(-0.01823504 0.025382787 2.0105748e-21)
(-0.018912656 0.023589353 7.3210193e-21)
(-0.017984704 0.020730291 9.3125073e-21)
(-0.015416673 0.01717038 -1.3511407e-21)
(-0.01120698 0.013171299 -1.1481985e-20)
(-0.0053751289 0.0089188981 -2.9071979e-20)
(0.0020482606 0.0045433839 6.1893628e-23)
(0.011026709 0.00013423654 4.0697975e-20)
(0.021522486 -0.0042490477 -1.838324e-20)
(0.033498179 -0.0085677051 -1.2296138e-20)
(0.046920917 -0.012795691 5.534857e-22)
(0.061760585 -0.016912026 3.2302788e-20)
(0.077953596 -0.020901868 -1.4829623e-20)
(0.095392949 -0.024763604 -5.3339428e-20)
(0.11439925 -0.028379977 4.576522e-20)
(0.13634631 -0.031073384 3.3013327e-20)
(-0.0039704178 0.0094657536 -6.8788773e-22)
(-0.0090916734 0.020487834 -1.2534776e-20)
(-0.012364485 0.026159136 -3.4144652e-20)
(-0.013552545 0.028143385 -5.724185e-21)
(-0.012533227 0.027555044 -3.6222826e-21)
(-0.0093166868 0.025188087 6.3051217e-21)
(-0.0039455738 0.021627417 -4.6462076e-21)
(0.0035262409 0.017298945 -8.8070491e-21)
(0.013036984 0.012508715 2.1899774e-20)
(0.024521464 0.0074743821 5.0567196e-21)
(0.037915828 0.0023488181 -2.5290386e-20)
(0.053157812 -0.0027628969 1.1078314e-20)
(0.07018732 -0.0077910157 0)
(0.08894713 -0.012691474 1.2089621e-20)
(0.10938609 -0.017437121 -9.7016553e-21)
(0.13145818 -0.022010131 -1.4337181e-20)
(0.15507496 -0.026408916 -1.5738837e-21)
(0.18006863 -0.030659727 -2.2181718e-21)
(0.20685458 -0.034576879 4.6147242e-20)
(0.23766492 -0.037020251 -1.0470199e-20)
(-0.0046451062 0.0097808824 -7.5356877e-21)
(-0.0096772633 0.020747917 2.4516482e-20)
(-0.011064384 0.026161018 -1.0499385e-20)
(-0.009096815 0.02772448 -2.7469368e-20)
(-0.0039796717 0.026601717 -2.7548231e-20)
(0.0040962738 0.023648413 -1.4921612e-20)
(0.014954292 0.01949644 -6.9059413e-22)
(0.02843644 0.014604664 5.5499888e-21)
(0.044403425 0.0093033786 1.9615927e-20)
(0.062730857 0.0038283188 7.3531067e-21)
(0.083304769 -0.0016548821 -7.1862411e-21)
(0.10601953 -0.0070323976 -2.0102317e-21)
(0.13077424 -0.01222929 -3.8191838e-20)
(0.15747023 -0.01719998 -1.2693689e-20)
(0.18601292 -0.021919998 1.8750684e-20)
(0.21631284 -0.02638002 -2.102176e-20)
(0.24823345 -0.030602565 -8.973093e-21)
(0.28152005 -0.034670992 3.0440571e-20)
(0.31660857 -0.038365248 5.0472256e-20)
(0.35665187 -0.039964573 3.3559815e-21)
(-0.0049617756 0.0093140153 1.6783347e-20)
(-0.009166275 0.019097737 1.4467977e-20)
(-0.0078593512 0.023563393 5.1145644e-20)
(-0.0018584915 0.02432896 2.3388054e-20)
(0.0082958187 0.022523782 1.8251826e-22)
(0.022222096 0.019014362 -3.9388559e-20)
(0.039597671 0.014440888 -2.4313932e-20)
(0.060148217 0.009266283 1.0465841e-20)
(0.083639524 0.003823121 1.4401624e-20)
(0.10986721 -0.0016514388 -1.311374e-20)
(0.13864626 -0.0069911835 -4.4038846e-20)
(0.16980247 -0.012083057 2.961859e-20)
(0.20316495 -0.016854406 2.0020608e-20)
(0.2385605 -0.021264281 -2.7551245e-20)
(0.2758135 -0.025296728 1.1650177e-20)
(0.31474947 -0.028957535 2.4197696e-20)
(0.35514698 -0.032303462 8.0724267e-21)
(0.39663557 -0.035507132 -1.1764263e-20)
(0.43957887 -0.038393145 -1.4190336e-20)
(0.48798713 -0.038634953 5.8728247e-21)
(-0.0047307806 0.0081236847 1.1093877e-20)
(-0.0070585949 0.015671189 -2.3352796e-20)
(-0.0020293285 0.018562038 8.6200757e-21)
(0.0090326076 0.018216215 3.3588066e-20)
(0.025256515 0.015651119 5.2124496e-20)
(0.046066572 0.011695547 2.0276566e-20)
(0.070984851 0.0069608669 -5.8639562e-21)
(0.099602384 0.0018828345 -1.228631e-20)
(0.1315695 -0.0032273482 -6.2057689e-21)
(0.16657636 -0.0081498425 3.4240928e-20)
(0.20433507 -0.012733542 -4.5104603e-21)
(0.24456582 -0.016879446 -1.6643353e-20)
(0.28698583 -0.020528984 -1.9693626e-20)
(0.33130128 -0.023656751 -4.7443887e-20)
(0.37720605 -0.026265913 2.3238777e-20)
(0.42438933 -0.028388284 -1.4096032e-20)
(0.47250153 -0.030128086 2.5993497e-20)
(0.52103813 -0.0317837 2.10409e-20)
(0.57021605 -0.033351236 -8.5570632e-20)
(0.62471141 -0.032059448 -1.0805777e-22)
(-0.0037710515 0.0063146445 2.1925112e-20)
(-0.0028657442 0.010735093 -2.6165607e-20)
(0.0071421741 0.011564118 -4.5013422e-20)
(0.02445037 0.0099249505 -2.7253858e-20)
(0.047871073 0.0066522414 -2.0439921e-21)
(0.076629027 0.0024905239 1.3050118e-20)
(0.11007717 -0.0020155196 -2.8337697e-21)
(0.14765263 -0.0064880613 1.811858e-20)
(0.18886167 -0.010663695 8.8685791e-21)
(0.23325281 -0.014362648 -1.13802e-20)
(0.28039251 -0.017469213 8.8779467e-21)
(0.32984722 -0.019917107 -2.3903333e-20)
(0.38117016 -0.021679038 8.0505095e-21)
(0.43389237 -0.022760255 1.6756444e-20)
(0.48752105 -0.023194723 -2.6395215e-21)
(0.54154901 -0.023047356 1.6619021e-21)
(0.59543745 -0.022469954 -3.1957239e-22)
(0.64851996 -0.021870658 1.9590489e-20)
(0.70082464 -0.021445662 4.0434137e-21)
(0.75745384 -0.018499731 -5.7341709e-22)
(-0.0019110069 0.0040273463 2.3692175e-20)
(0.0038694747 0.0046764993 5.7160117e-20)
(0.02031542 0.0031879209 -4.9244357e-20)
(0.045178482 0.00029435691 -9.9454399e-21)
(0.076965456 -0.0034242496 2.025639e-20)
(0.11469666 -0.0073537141 2.1433768e-21)
(0.1575394 -0.011055117 -2.9815231e-20)
(0.20474903 -0.014244332 6.9848224e-21)
(0.25565038 -0.016738154 7.1098116e-21)
(0.30960578 -0.018427217 -2.6254148e-20)
(0.3659877 -0.019260394 1.2927377e-21)
(0.42416097 -0.019232199 -3.7174219e-20)
(0.48347257 -0.018372573 -3.6341126e-20)
(0.54324737 -0.016738686 6.5683694e-20)
(0.60278999 -0.014407753 5.5627681e-21)
(0.66139085 -0.011476393 -1.518886e-20)
(0.71830996 -0.0081025866 1.9364031e-20)
(0.77270122 -0.0045934551 -9.1888452e-22)
(0.82409062 -0.00096868804 2.036461e-20)
(0.87622197 0.0043273751 -1.9554254e-20)
(-0.018836199 -0.0050997435 5.835239e-20)
(-0.010224367 -0.0056349711 1.5783755e-20)
(-0.00022082613 -0.0060689281 -3.5139766e-20)
(0.010823685 -0.0063341611 1.6790345e-20)
(0.022643026 -0.0065121017 0)
(0.035178554 -0.0066301479 0)
(0.048370452 -0.0066910343 -2.2975102e-20)
(0.062138999 -0.0067026037 -1.6502982e-20)
(0.076413785 -0.006674241 1.9122737e-20)
(0.091135301 -0.0066127351 1.817417e-20)
(0.10624857 -0.0065232779 1.0524309e-21)
(0.1217018 -0.0064104327 -1.0317711e-20)
(0.13744668 -0.0062781584 8.3269577e-21)
(0.153438 -0.0061298021 1.8233855e-20)
(0.16963299 -0.0059682272 -5.2274767e-21)
(0.185991 -0.0057959191 -1.0175014e-20)
(0.20247329 -0.005615049 -4.319621e-21)
(0.21904283 -0.0054275258 -4.4257655e-21)
(0.23566418 -0.0052350417 7.3667466e-22)
(0.2523035 -0.005039107 1.2286169e-21)
(0.26892842 -0.0048410769 2.5666687e-21)
(0.28550819 -0.004642171 6.6540189e-21)
(0.30201361 -0.0044434885 2.4892844e-22)
(0.31841714 -0.004246019 -3.4515154e-21)
(0.33469294 -0.0040506501 1.5558522e-22)
(0.35081695 -0.0038581733 -5.7710667e-22)
(0.36676691 -0.0036692886 1.2434572e-21)
(0.38252241 -0.0034846084 1.0522541e-21)
(0.39806495 -0.0033046614 -1.298838e-21)
(0.4133779 -0.0031298955 -1.2218538e-22)
(0.42844653 -0.002960683 3.5724355e-23)
(0.443258 -0.0027973238 -3.5188697e-22)
(0.45780132 -0.0026400511 -4.056823e-22)
(0.4720673 -0.0024890363 5.5432432e-23)
(0.48604855 -0.0023443947 -1.3809769e-22)
(0.49973936 -0.0022061918 -2.2344228e-22)
(0.51313574 -0.00207445 2.5573491e-22)
(0.52623534 -0.0019491549 2.9504148e-22)
(0.53903739 -0.0018302649 -8.2868109e-24)
(0.55154301 -0.0017177147 -1.5521308e-22)
(0.56375417 -0.0016114433 3.040608e-23)
(0.57567749 -0.0015113505 -4.0149047e-23)
(0.58731316 -0.0014175075 9.2235642e-23)
(0.59869024 -0.0013295778 2.1970156e-23)
(0.60976307 -0.0012488458 -1.1403504e-22)
(0.62072386 -0.0011721009 -6.76893e-24)
(0.63109459 -0.0011115785 -6.8673493e-26)
(0.64238711 -0.0010343048 -3.5729941e-24)
(0.65046727 -0.0010512054 2.9450471e-23)
(0.66705639 -0.00087601354 3.6061525e-22)
(0.010446254 -0.015017735 -1.2746901e-20)
(0.018180156 -0.01664115 -6.3302698e-20)
(0.02777976 -0.017915564 -3.054214e-20)
(0.038385786 -0.018672233 3.8476261e-20)
(0.049621734 -0.01918376 1.4662709e-20)
(0.061507491 -0.019529614 -1.8205065e-20)
(0.074013809 -0.019710057 4.672252e-21)
(0.087063794 -0.019746693 2.5447366e-20)
(0.10059441 -0.019667491 9.197649e-23)
(0.11455544 -0.019491918 -7.6591904e-21)
(0.12889878 -0.019234586 -1.3021088e-20)
(0.1435778 -0.018908546 -8.524614e-21)
(0.15854862 -0.018525214 1.7772473e-20)
(0.17376974 -0.01809425 8.9296744e-21)
(0.1892014 -0.017623935 -1.6522542e-20)
(0.20480542 -0.017121495 -6.0391082e-21)
(0.22054505 -0.016593267 3.2145228e-21)
(0.23638494 -0.016044848 8.3716891e-21)
(0.25229101 -0.015481216 6.9833001e-21)
(0.26823052 -0.014906833 -6.9728187e-21)
(0.28417206 -0.014325713 -3.1686241e-21)
(0.30008558 -0.013741482 1.3605911e-21)
(0.31594251 -0.013157414 3.868863e-22)
(0.33171579 -0.012576465 1.2114254e-21)
(0.34737998 -0.012001292 1.836995e-22)
(0.36291127 -0.011434267 -3.2663526e-22)
(0.37828761 -0.010877495 -7.2437484e-22)
(0.3934887 -0.010332818 9.7162348e-22)
(0.40849607 -0.0098018321 8.248726e-22)
(0.42329308 -0.0092858921 -1.5151806e-22)
(0.43786489 -0.008786127 5.5310192e-22)
(0.45219851 -0.0083034515 -2.3881677e-22)
(0.46628275 -0.0078385803 -3.7073932e-22)
(0.48010815 -0.007392044 -6.1004198e-22)
(0.49366702 -0.0069642057 4.4174105e-22)
(0.50695333 -0.0065552796 -1.5524912e-23)
(0.51996269 -0.0061653506 1.6129793e-22)
(0.53269235 -0.0057943939 -4.4182699e-22)
(0.54514109 -0.0054423031 3.720048e-22)
(0.5573096 -0.0051089002 6.7186062e-23)
(0.56919936 -0.0047940207 -1.0285556e-22)
(0.5808165 -0.0044973811 1.7621793e-22)
(0.59216076 -0.004219211 2.3352447e-22)
(0.60326046 -0.0039585205 1.6937951e-22)
(0.61407011 -0.0037191582 1.6781587e-22)
(0.62477905 -0.0034915642 -2.6125267e-23)
(0.63491566 -0.0033122043 8.4186025e-23)
(0.64596883 -0.0030829322 7.6434315e-23)
(0.65386945 -0.0031335525 -1.9486879e-22)
(0.67013957 -0.0026137981 -3.800289e-23)
(0.067615363 -0.024029359 9.4528893e-21)
(0.073590421 -0.026749282 3.295131e-21)
(0.082266348 -0.028805821 -1.216231e-20)
(0.091948762 -0.029968774 -1.2258141e-21)
(0.10198426 -0.03076815 1.4970702e-20)
(0.1125475 -0.031331193 -1.4887224e-20)
(0.12367726 -0.031636387 -2.9842498e-20)
(0.13529825 -0.031713336 1.4493645e-20)
(0.14735853 -0.031607981 1.818212e-20)
(0.15982516 -0.031350414 -1.1598616e-20)
(0.1726625 -0.030962191 1.0190632e-21)
(0.18583291 -0.030463138 8.6860477e-21)
(0.19930013 -0.029870948 -1.5253689e-20)
(0.21302907 -0.029200648 2.9096209e-21)
(0.22698515 -0.028465181 7.5195244e-21)
(0.24113437 -0.027675937 3.1535653e-23)
(0.25544337 -0.026843003 2.6552476e-22)
(0.26987955 -0.025975353 -7.4151908e-21)
(0.2844111 -0.025081033 3.8618074e-21)
(0.29900708 -0.024167299 8.4750384e-21)
(0.31363756 -0.023240726 -3.8352388e-21)
(0.32827369 -0.02230728 -2.2130628e-21)
(0.34288786 -0.021372375 1.0124362e-21)
(0.35745375 -0.020440921 -1.7155776e-21)
(0.37194647 -0.019517343 1.3532447e-21)
(0.38634262 -0.018605612 7.1847043e-22)
(0.40062042 -0.017709258 1.5269524e-21)
(0.41475968 -0.016831386 -1.952785e-21)
(0.42874192 -0.015974692 2.223721e-21)
(0.44255038 -0.015141478 5.519208e-22)
(0.45617001 -0.014333674 4.0331862e-22)
(0.46958747 -0.013552855 3.2135487e-22)
(0.48279115 -0.012800264 8.733636e-22)
(0.49577109 -0.01207684 -1.3710435e-21)
(0.50851901 -0.011383246 3.7071701e-22)
(0.52102823 -0.010719895 1.094781e-22)
(0.53329364 -0.010086986 -4.5195337e-23)
(0.54531173 -0.0094845364 8.6707286e-23)
(0.55708046 -0.0089124262 -3.7193211e-22)
(0.56859966 -0.0083704156 1.8299772e-22)
(0.57986995 -0.0078582864 -3.4993404e-23)
(0.5908965 -0.0073756208 3.9025659e-22)
(0.60167823 -0.0069228492 -1.8555597e-22)
(0.6122421 -0.0064983831 4.7343838e-23)
(0.62254292 -0.0061086162 4.3644189e-23)
(0.63276464 -0.0057378539 -7.3672486e-23)
(0.64244778 -0.0054460638 -1.210162e-22)
(0.65303726 -0.0050722747 3.8858343e-22)
(0.66058951 -0.0051562412 1.7288913e-22)
(0.6762413 -0.0043092753 -8.3064704e-22)
(0.15021634 -0.031460736 1.5010299e-21)
(0.15354803 -0.035257727 -1.1566658e-20)
(0.16061745 -0.038011277 6.644216e-21)
(0.16880724 -0.039479477 -1.3324822e-20)
(0.17698369 -0.040521089 -1.9758435e-21)
(0.18552503 -0.0413027 9.1600215e-21)
(0.19458589 -0.041757677 -9.7663263e-21)
(0.20408875 -0.04191417 1.5662563e-21)
(0.21398966 -0.041833809 1.2903894e-20)
(0.22427813 -0.041554832 3.4032487e-21)
(0.23493485 -0.041102559 -6.2097438e-21)
(0.2459327 -0.040500981 -2.8638577e-21)
(0.25724427 -0.039772297 -5.8409154e-21)
(0.26884201 -0.038935621 -6.4553922e-21)
(0.28069734 -0.038007557 3.2356673e-21)
(0.29278097 -0.0370029 8.4615147e-22)
(0.30506334 -0.035934939 1.3679961e-21)
(0.31751485 -0.034815653 -3.3850749e-21)
(0.33010609 -0.033655896 -4.242982e-21)
(0.34280806 -0.03246556 2.3617045e-21)
(0.35559233 -0.031253679 3.2252282e-21)
(0.36843123 -0.030028516 -1.5636935e-21)
(0.38129806 -0.028797621 1.5867726e-21)
(0.39416719 -0.027567872 -3.9127294e-22)
(0.40701419 -0.026345505 -3.9198114e-21)
(0.41981596 -0.025136137 -3.0333603e-21)
(0.43255083 -0.023944785 -1.9029567e-22)
(0.44519861 -0.022775885 4.2856888e-22)
(0.45774065 -0.021633305 -2.2106795e-21)
(0.47015987 -0.020520373 -8.5507699e-22)
(0.4824408 -0.019439895 2.2838271e-22)
(0.49456957 -0.018394187 -1.2499911e-21)
(0.50653391 -0.017385105 6.2351251e-24)
(0.51832313 -0.016414078 -4.2427717e-22)
(0.52992809 -0.015482148 -4.7196168e-22)
(0.54134119 -0.014590014 -5.2009293e-22)
(0.55255632 -0.01373807 -8.4154324e-22)
(0.56356892 -0.012926457 -5.44815e-23)
(0.57437584 -0.012155124 -3.9164931e-24)
(0.58497573 -0.011423846 -5.1988808e-22)
(0.59536803 -0.010732431 -9.1588559e-23)
(0.60555661 -0.0100804 -3.3255025e-22)
(0.61553932 -0.0094684485 -4.3786914e-22)
(0.62534119 -0.0088944786 3.7866245e-22)
(0.63491758 -0.0083673819 1.4831005e-23)
(0.64444474 -0.0078657024 1.8254743e-22)
(0.65348072 -0.0074716508 -1.3267302e-22)
(0.66340725 -0.0069654265 -2.6723378e-22)
(0.67046154 -0.0070819378 -4.4510607e-23)
(0.68522653 -0.0059358402 4.6244813e-22)
(0.25468711 -0.036553159 -2.0900439e-20)
(0.25447173 -0.041393938 4.7586192e-20)
(0.25907495 -0.044746114 1.0348143e-20)
(0.26508585 -0.046442525 -1.5765412e-20)
(0.27071117 -0.04771482 -2.0228258e-21)
(0.2765219 -0.048748305 2.6232218e-21)
(0.28283758 -0.049414271 -1.6608528e-21)
(0.28957912 -0.049728676 -4.6861736e-21)
(0.29669894 -0.04976203 -4.0159454e-21)
(0.30420798 -0.049557674 -1.220773e-20)
(0.31210485 -0.04914233 1.7897932e-20)
(0.32037222 -0.048541466 6.522071e-21)
(0.32899003 -0.04777965 -1.6780661e-20)
(0.33793726 -0.046878725 1.0317604e-20)
(0.34719052 -0.045858027 8.3850031e-21)
(0.35672441 -0.04473506 -8.7918242e-22)
(0.36651235 -0.043525834 -3.1222079e-21)
(0.37652705 -0.042245036 -3.8198326e-21)
(0.38674084 -0.040906168 -1.3893043e-21)
(0.39712602 -0.039521683 -1.2304634e-21)
(0.40765512 -0.038103074 -3.0258605e-21)
(0.41830115 -0.036660946 0)
(0.42903785 -0.035205055 -1.3452436e-21)
(0.43983982 -0.033744349 3.9310345e-21)
(0.45068274 -0.032286982 5.4054446e-21)
(0.46154342 -0.030840338 -9.4113884e-22)
(0.47239998 -0.029411043 -2.9276207e-21)
(0.48323189 -0.028004985 3.0260575e-21)
(0.49402003 -0.026627331 2.5441587e-22)
(0.50474675 -0.025282553 3.4354955e-21)
(0.51539589 -0.02397446 -5.3461163e-22)
(0.52595281 -0.022706225 1.7174689e-21)
(0.53640432 -0.021480432 -7.9973675e-22)
(0.54673877 -0.020299118 2.9101565e-22)
(0.55694596 -0.019163817 -4.3412418e-22)
(0.56701715 -0.018075622 5.6238248e-22)
(0.57694503 -0.017035233 4.5719321e-22)
(0.58672376 -0.016043018 3.8264607e-22)
(0.59634888 -0.015099097 -9.5960759e-22)
(0.60581767 -0.014203364 6.8375648e-22)
(0.6151282 -0.013355744 -3.6969315e-22)
(0.62428282 -0.012555796 -1.1037975e-21)
(0.63327812 -0.011804554 1.4085233e-21)
(0.64213688 -0.011099525 -6.203372e-23)
(0.65081524 -0.010452023 -1.5827381e-22)
(0.65947989 -0.0098353327 -7.8316882e-24)
(0.6677111 -0.0093521926 -1.2640993e-22)
(0.67681084 -0.0087293632 -4.6633061e-22)
(0.68324491 -0.0088772036 8.7871063e-22)
(0.69689834 -0.0074689228 -4.4334195e-23)
(0.37635312 -0.038368663 -1.7495207e-20)
(0.37171168 -0.044270754 1.2832101e-20)
(0.37286891 -0.048162167 2.9755026e-21)
(0.37591257 -0.050099433 -7.6354179e-21)
(0.37830749 -0.05167058 1.2056055e-20)
(0.38072528 -0.053043009 7.7914612e-21)
(0.38367848 -0.054030703 -1.2647751e-20)
(0.38710318 -0.054633792 -6.0680176e-21)
(0.39093198 -0.054918719 1.2697429e-20)
(0.39518533 -0.054927875 -1.5305136e-20)
(0.39987731 -0.054688281 -1.4063295e-20)
(0.4049983 -0.054225443 1.412981e-20)
(0.41053203 -0.053564475 6.8194414e-21)
(0.41646078 -0.052728788 -4.2038944e-21)
(0.42276395 -0.05173988 -1.8545176e-21)
(0.42941806 -0.050617637 -4.0581476e-21)
(0.43639774 -0.049380613 5.3047416e-21)
(0.44367646 -0.048046164 3.6682447e-21)
(0.45122701 -0.04663051 -3.2408452e-21)
(0.45902184 -0.045148803 3.1379812e-21)
(0.46703343 -0.043615174 2.7667471e-21)
(0.47523458 -0.042042769 -3.2111884e-21)
(0.4835987 -0.040443774 3.7057067e-22)
(0.49209994 -0.038829421 -3.2572062e-21)
(0.50071342 -0.037210002 7.245766e-21)
(0.50941534 -0.035594879 6.1082985e-21)
(0.5181831 -0.033992492 8.0981444e-22)
(0.52699538 -0.032410376 -1.7683941e-21)
(0.53583222 -0.030855181 3.702473e-21)
(0.54467505 -0.029332704 7.1890772e-21)
(0.55350672 -0.027847918 2.3050642e-21)
(0.5623115 -0.026405016 3.3167997e-21)
(0.57107511 -0.025007462 1.9957957e-21)
(0.5797847 -0.023658041 7.456759e-22)
(0.58842883 -0.022358923 -2.6375895e-22)
(0.59699746 -0.021111723 2.7207415e-21)
(0.60548196 -0.019917573 6.2002828e-22)
(0.61387509 -0.018777194 2.9492946e-22)
(0.62217098 -0.017690991 5.6241989e-23)
(0.63036544 -0.01665909 9.8997226e-22)
(0.63845507 -0.015681637 4.7029127e-23)
(0.64644064 -0.014758335 4.4266821e-22)
(0.65431746 -0.013890637 -1.2626552e-22)
(0.6621058 -0.013075779 -2.7751879e-22)
(0.66976294 -0.012327397 -1.5228925e-22)
(0.67744449 -0.011614108 -4.2242204e-22)
(0.68475699 -0.011057109 1.6161568e-22)
(0.69290906 -0.010336159 -1.2735837e-22)
(0.69863412 -0.010513753 -5.0118327e-22)
(0.71100438 -0.0088866349 2.4597379e-22)
(0.50927643 -0.035974859 3.6471357e-21)
(0.4995326 -0.04296127 -1.8958369e-20)
(0.49627785 -0.047384097 -2.3084019e-21)
(0.49555831 -0.049737431 5.4869769e-21)
(0.49417203 -0.051818725 3.0528421e-21)
(0.49269834 -0.053706121 -4.9857046e-23)
(0.49181502 -0.055188388 6.1897418e-21)
(0.49151736 -0.056266166 7.6251619e-21)
(0.49171465 -0.056991329 9.8580977e-21)
(0.49241385 -0.057396398 -1.1250133e-20)
(0.49363433 -0.057507152 -2.1579626e-20)
(0.49537123 -0.057349295 -3.935415e-21)
(0.4976083 -0.056948036 1.5938309e-20)
(0.50032683 -0.056327941 1.2809092e-20)
(0.50350567 -0.055512691 -5.9067159e-21)
(0.50712074 -0.054524831 1.381659e-21)
(0.51114584 -0.053385796 -3.6601784e-21)
(0.51555344 -0.052115978 2.2445094e-21)
(0.52031523 -0.050734715 -2.9123327e-22)
(0.52540256 -0.049260261 -1.8654453e-21)
(0.53078676 -0.047709788 7.8267939e-21)
(0.53643946 -0.046099369 -2.9312771e-22)
(0.54233286 -0.044443982 4.1822332e-22)
(0.54843991 -0.042757492 -6.5643629e-22)
(0.5547345 -0.041052651 -4.3030652e-21)
(0.56119162 -0.039341096 4.2086516e-21)
(0.56778741 -0.037633361 1.9031521e-21)
(0.57449931 -0.035938886 -3.3083198e-21)