/*--------------------------------*- C++ -*----------------------------------*\
  =========                 |
  \\      /  F ield         | OpenFOAM: The Open Source CFD Toolbox
   \\    /   O peration     | Website:  https://openfoam.org
    \\  /    A nd           | Version:  6
     \\/     M anipulation  |
\*---------------------------------------------------------------------------*/
FoamFile
{
    version     2.0;
    format      ascii;
    class       volSymmTensorField;
    location    "37";
    object      UPrime2Mean;
}
// * * * * * * * * * * * * * * * * * * * * * * * * * * * * * * * * * * * * * //

dimensions      [0 2 -2 0 0 0 0];

internalField   nonuniform List<symmTensor> 
9200
(
(0.00052453583 -0.00040726422 1.9725807e-21 0.00032715237 -1.0614786e-21 3.1361568e-38)
(0.0031798636 -0.002555018 4.8527321e-21 0.0020603838 -3.6238006e-21 3.4065388e-38)
(0.0062973638 -0.0049304315 7.4209371e-22 0.0038777006 -5.4767668e-22 1.8703042e-38)
(0.0097214665 -0.0071483417 -7.0899207e-21 0.0053032913 5.0301709e-21 3.7164697e-38)
(0.012932439 -0.0090376453 2.0947263e-22 0.0064037642 -2.1519137e-22 5.4652259e-39)
(0.015691517 -0.010517022 2.7935209e-21 0.0071857082 -1.9081317e-21 7.9783248e-40)
(0.017855511 -0.011569489 -5.2884784e-22 0.0076870442 3.9653602e-22 2.4752696e-39)
(0.019329023 -0.012213951 4.8447006e-22 0.0079648698 -3.5291278e-22 1.6677018e-39)
(0.020069392 -0.012485801 2.6960141e-21 0.0080725966 -1.6898753e-21 4.7421613e-39)
(0.020085114 -0.012428169 2.0304659e-22 0.0080548213 -1.2942879e-22 1.337546e-41)
(0.019430599 -0.012087674 -2.7455318e-21 0.007947671 1.7781012e-21 2.5091841e-39)
(0.018199922 -0.011511775 2.2318279e-21 0.0077795124 -1.5199763e-21 3.0611107e-40)
(0.016518169 -0.010747093 -3.904474e-21 0.0075718822 2.844388e-21 5.3232352e-39)
(0.014530047 -0.0098383711 -1.9195539e-21 0.007340619 1.4380272e-21 2.9918234e-40)
(0.012386724 -0.0088277938 4.8906813e-22 0.0070970286 -3.9974764e-22 4.0716863e-41)
(0.010232329 -0.0077544306 -1.7655022e-21 0.0068489769 1.5442635e-21 3.9145618e-40)
(0.0081916162 -0.0066537255 1.488512e-21 0.0066021399 -1.4338965e-21 4.8758982e-40)
(0.0063602319 -0.0055572603 1.0123672e-21 0.0063632737 -1.038721e-21 2.2513961e-39)
(0.0048042202 -0.0044917351 -6.4899076e-23 0.0061420912 1.2522756e-22 4.2877137e-40)
(0.0035797438 -0.0034814718 -4.9521841e-23 0.0058861992 1.2027125e-22 5.3139255e-40)
(0.00068834456 -0.0004601547 2.13603e-22 0.00031612602 -8.4959763e-23 5.4670132e-40)
(0.0040257049 -0.002801381 5.1528536e-21 0.0019549954 -3.3536865e-21 3.6399599e-38)
(0.007827912 -0.0053201777 -1.7841601e-21 0.0036318178 1.1897084e-21 1.980674e-38)
(0.011733378 -0.0075656423 -1.2653127e-20 0.0049216736 7.990305e-21 8.5886036e-38)
(0.015159235 -0.0093866288 -3.648813e-22 0.0058950471 2.4623264e-22 1.0856705e-39)
(0.017848844 -0.010718892 9.5048034e-21 0.0065691251 -5.7257749e-21 2.8301853e-38)
(0.01967695 -0.011568442 -3.7742267e-21 0.0069900269 2.2774844e-21 9.065189e-40)
(0.020595869 -0.011977958 -1.1380035e-21 0.0072176032 6.8267241e-22 3.461916e-40)
(0.020630512 -0.012003662 4.2111702e-21 0.0073048957 -2.5689424e-21 2.5891598e-39)
(0.019868355 -0.011705653 -4.9887754e-21 0.0072942331 3.1255254e-21 2.9164166e-39)
(0.018445941 -0.011143515 -3.4578598e-21 0.0072180423 2.2431793e-21 3.7108314e-39)
(0.016533706 -0.010373913 7.2477896e-21 0.0070999536 -4.9544842e-21 1.8792705e-38)
(0.01431865 -0.0094494432 3.2963852e-21 0.0069560858 -2.4294711e-21 1.2021024e-39)
(0.011986022 -0.0084182762 -5.0079583e-21 0.0067964357 4.0039508e-21 6.1905845e-39)
(0.0097022522 -0.0073241211 8.5593066e-22 0.0066261829 -7.5247834e-22 5.3520103e-40)
(0.0076014484 -0.0062062365 -1.8554124e-21 0.0064468173 1.8584606e-21 1.3390889e-39)
(0.0057770378 -0.0050993518 -7.7755058e-22 0.0062571948 9.2650729e-22 4.3996301e-40)
(0.004279213 -0.0040330843 2.1045438e-21 0.0060546345 -2.8533858e-21 7.0409963e-39)
(0.0031204068 -0.0030299168 9.4595862e-22 0.0058309927 -1.5870943e-21 1.2569068e-39)
(0.002289983 -0.0021136141 -3.2651268e-22 0.0055413877 4.9254821e-22 1.0787427e-38)
(0.00087163354 -0.00049643172 -1.7219725e-21 0.00028929843 7.359867e-22 1.4203229e-38)
(0.0049150638 -0.002933993 -2.8229325e-21 0.0017556447 1.5683659e-21 1.4819434e-38)
(0.0093722959 -0.0054822736 -3.2853007e-21 0.0032212362 1.9098865e-21 3.7041497e-38)
(0.013656092 -0.0076556514 1.0077074e-22 0.0043314053 -5.6053067e-23 3.9849771e-42)
(0.017141755 -0.0093314586 4.0394387e-22 0.0051572278 -1.7856987e-22 2.6583349e-38)
(0.019582065 -0.010470016 3.3662413e-21 0.0057248394 -1.8312545e-21 7.4168919e-39)
(0.020902989 -0.01110304 2.2714979e-22 0.0060840685 -1.2672738e-22 3.0774571e-39)
(0.021137866 -0.01129524 -5.3292627e-21 0.0062920797 2.9939431e-21 1.8064135e-39)
(0.02040682 -0.011119173 6.1921629e-21 0.0063964096 -3.5996356e-21 3.4666922e-39)
(0.018893665 -0.010645835 2.0025024e-21 0.006432584 -1.23464e-21 4.0467019e-39)
(0.016820665 -0.0099411869 -5.3233166e-21 0.0064255182 3.4773693e-21 8.1213898e-39)
(0.014423037 -0.0090649754 -1.6007265e-21 0.0063911069 1.1422677e-21 2.7111394e-39)
(0.011924475 -0.008070873 6.5535003e-22 0.0063379278 -4.7971291e-22 7.4529286e-39)
(0.0095162897 -0.0070071456 1.2942975e-21 0.006268985 -1.1406665e-21 1.0182473e-39)
(0.0073429342 -0.0059172189 -4.111409e-22 0.0061833546 4.2282602e-22 8.0871897e-40)
(0.0054955069 -0.0048398262 9.7693469e-22 0.0060776981 -1.1565678e-21 5.7975366e-40)
(0.0040132882 -0.0038087059 -6.7017964e-22 0.005947552 9.4309048e-22 2.0703466e-40)
(0.0028917699 -0.0028518657 -1.1833049e-21 0.0057879681 2.1047776e-21 5.7232981e-39)
(0.0020947435 -0.001990256 4.4886152e-23 0.0055935433 -4.5847559e-23 5.4617726e-39)
(0.0015681779 -0.0012413735 3.699308e-22 0.0053547572 -1.1312568e-21 5.2088429e-40)
(0.0010678062 -0.00051068683 -1.3636859e-21 0.00024920888 5.0386752e-22 7.057776e-39)
(0.0057995964 -0.0029301464 1.9428771e-21 0.0014836386 -9.5654431e-22 1.2721521e-39)
(0.010832852 -0.0053880011 1.7385822e-21 0.0026926528 -8.6435484e-22 1.5150072e-39)
(0.015353278 -0.0073997756 3.8518107e-21 0.0036023027 -1.852879e-21 1.6437393e-38)
(0.018725641 -0.0088768315 3.293078e-21 0.0042799442 -1.5896522e-21 7.2982479e-39)
(0.020748457 -0.0098072909 -5.5509847e-21 0.0047566631 2.7181998e-21 5.4740227e-39)
(0.021435932 -0.010245542 -3.0396164e-21 0.0050801237 1.5302363e-21 1.5501096e-39)
(0.020932296 -0.010270925 0 0.0052991697 0 0)
(0.019469906 -0.0099633424 3.198761e-21 0.0054512065 -1.8510898e-21 2.0442036e-38)
(0.017329686 -0.0093958899 -1.3264826e-21 0.0055613802 8.5364768e-22 7.7498378e-39)
(0.014803599 -0.0086335776 -7.568743e-21 0.0056445161 4.945028e-21 6.1101809e-39)
(0.012161839 -0.0077341004 -9.7309113e-22 0.0057071339 6.6723078e-22 1.3748313e-39)
(0.0096273827 -0.0067492847 3.4168242e-21 0.0057495342 -2.9110599e-21 8.969836e-39)
(0.007360546 -0.0057261785 2.7022767e-22 0.0057679059 -1.7682036e-22 3.8640357e-39)
(0.0054547105 -0.0047072407 -4.8419545e-23 0.0057563361 5.6734101e-23 2.5313562e-42)
(0.0039421435 -0.0037296336 4.9133075e-22 0.005708657 -7.030282e-22 4.4532795e-40)
(0.0028070409 -0.0028240084 3.4338477e-23 0.0056198433 -8.5236604e-24 5.5905166e-40)
(0.0020019565 -0.0020133793 -7.8801794e-22 0.0054864371 1.7512772e-21 1.2203037e-39)
(0.0014633795 -0.0013122862 -3.9185295e-22 0.0053095821 1.1746331e-21 8.8440459e-40)
(0.0011244624 -0.00072743806 1.1465188e-22 0.0051043056 -7.9314781e-22 6.2724663e-39)
(0.0012675573 -0.00049850427 1.0187907e-21 0.00019971106 -3.2434851e-22 2.7775765e-39)
(0.0066215584 -0.0027768579 4.2223331e-21 0.0011670143 -1.6846658e-21 2.50243e-38)
(0.012103952 -0.0050300446 3.1002157e-21 0.0021015173 -1.2929695e-21 1.5311026e-39)
(0.016693005 -0.0068107078 3.5306121e-21 0.0028108628 -1.4594371e-21 8.7840219e-39)
(0.019783085 -0.0080650784 -5.2961774e-21 0.0033541241 2.235323e-21 1.3806942e-38)
(0.021259152 -0.0088058956 1.3993468e-22 0.0037620752 -4.6489096e-23 1.3182128e-39)
(0.021256792 -0.0091005141 2.8435644e-22 0.0040744413 -1.2988254e-22 1.0699536e-41)
(0.020048945 -0.0090305775 3.9575528e-21 0.0043273097 -1.9574908e-21 4.8615604e-39)
(0.017979309 -0.008671875 5.1671699e-22 0.0045449168 -2.7530892e-22 4.2320613e-41)
(0.015406762 -0.008090863 -1.3346036e-21 0.0047400951 8.3654654e-22 2.6589906e-39)
(0.012659983 -0.0073462625 4.1705146e-21 0.0049165465 -2.9121472e-21 1.835891e-38)
(0.010005112 -0.0064914501 -3.0178982e-21 0.0050711854 2.2207706e-21 1.397208e-39)
(0.0076284118 -0.0055760809 -5.3692267e-21 0.0051966093 4.8401665e-21 1.0247436e-38)
(0.0056340242 -0.0046461823 -1.6876289e-22 0.0052835969 1.8437048e-22 2.223076e-41)
(0.0040542499 -0.0037428203 1.6768262e-21 0.005323418 -2.3432225e-21 8.8949785e-39)
(0.0028676749 -0.0029000562 0 0.0053097501 0 0)
(0.0020199098 -0.0021430939 2.2283852e-22 0.0052397646 -3.7968129e-22 2.3267553e-40)
(0.0014424747 -0.0014874492 -7.2679333e-23 0.0051139117 2.637122e-22 3.5121874e-40)
(0.0010664886 -0.00093926937 -1.0034154e-22 0.0049393539 2.7858911e-22 8.7949795e-41)
(0.00083087554 -0.00049559766 1.0084231e-23 0.0047423966 -2.3299552e-22 6.3748501e-40)
(0.0014598889 -0.00045752605 2.2217623e-21 0.0001459637 -5.7160266e-22 1.1230941e-38)
(0.0073221391 -0.0024755661 2.0880584e-22 0.00083891368 -6.8780678e-23 2.0581815e-41)
(0.013089451 -0.0044284458 -5.8842809e-22 0.0015078548 2.0113863e-22 9.0799258e-41)
(0.01757212 -0.0059363739 5.0837258e-22 0.0020339081 -1.7195049e-22 1.8109394e-39)
(0.020239048 -0.0069749603 -3.5798313e-21 0.0024641032 1.2927743e-21 3.3713434e-39)
(0.021099337 -0.0075709771 -1.66415e-21 0.0028240034 6.3296982e-22 2.953189e-40)
(0.020430648 -0.0077894555 1.0569889e-21 0.0031414346 -3.3784214e-22 9.7037129e-39)
(0.018633737 -0.0076997985 -5.2493883e-23 0.0034376722 5.6859662e-23 7.6042698e-40)
(0.016142708 -0.0073631571 -2.5728263e-21 0.0037229175 1.4075242e-21 7.9662936e-39)
(0.013359311 -0.0068336699 4.3241141e-21 0.0039975064 -2.4851193e-21 2.0661357e-39)
(0.010608826 -0.0061621837 -6.5090778e-23 0.0042543685 1.8034586e-22 4.1755126e-39)
(0.0081181387 -0.0053985291 -3.1256486e-21 0.0044817615 2.6514087e-21 1.1110973e-38)
(0.0060143274 -0.0045913767 0 0.0046662446 0 0)
(0.0043390563 -0.0037859607 6.3289875e-22 0.0047955616 -9.5466915e-22 6.1098964e-39)
(0.0030719769 -0.0030208343 1.1930927e-23 0.0048609986 -8.4715007e-23 3.3749801e-40)
(0.0021560931 -0.0023250407 -7.0515363e-22 0.0048588768 1.5372391e-21 6.965321e-39)
(0.0015197237 -0.0017166764 -1.6099165e-22 0.0047907826 3.9036723e-22 1.3526955e-40)
(0.0010921999 -0.0012032925 -3.1265051e-23 0.0046623677 1.7363834e-22 2.3726927e-40)
(0.00081241203 -0.00078385712 -5.0808464e-23 0.004485708 2.3240569e-22 8.6814161e-41)
(0.00063170383 -0.00045005347 6.8803457e-23 0.0042898056 -5.5803589e-22 8.5201466e-40)
(0.001633393 -0.00038808247 8.6288472e-22 9.3891457e-05 -1.6609023e-22 1.7789718e-39)
(0.0078492497 -0.0020431904 -6.0648501e-21 0.00053337482 1.5284551e-21 3.8664014e-38)
(0.013715846 -0.0036288051 -6.07024e-22 0.00096820452 1.6812486e-22 3.6100055e-39)
(0.017930351 -0.0048528984 -1.6914541e-21 0.0013383085 4.945546e-22 1.8167058e-38)
(0.020079889 -0.0057081195 -1.0682475e-21 0.0016770573 3.1002995e-22 2.4360649e-40)
(0.020324176 -0.0062183759 -6.0454151e-21 0.0020020994 1.9773989e-21 3.1233278e-39)
(0.019084759 -0.0064287254 -2.9004865e-21 0.0023285237 1.0952945e-21 2.6264285e-39)
(0.016869019 -0.0063834888 5.400064e-21 0.0026635264 -2.2074932e-21 1.8668325e-39)
(0.014164984 -0.0061227779 8.9081828e-22 0.0030043655 -5.1945398e-22 2.7411798e-39)
(0.011375989 -0.0056873468 -1.1298576e-21 0.003339974 5.5836024e-22 9.1823098e-40)
(0.0087885975 -0.0051220294 5.4833586e-22 0.0036537908 -2.0038541e-22 3.5288464e-39)
(0.0065690518 -0.0044753497 -6.6275753e-23 0.0039271957 1.4490199e-22 8.9440811e-40)
(0.0047806402 -0.003795925 0 0.0041431144 0 0)
(0.0034123293 -0.0031274507 4.7178473e-22 0.0042890704 -5.9050821e-22 1.8738688e-40)
(0.0024093823 -0.0025043019 -9.3384785e-22 0.0043590661 1.5424044e-21 2.7362209e-39)
(0.0016992374 -0.0019491504 -2.9360583e-22 0.0043540306 5.7386545e-22 2.2151515e-40)
(0.0012094576 -0.0014729584 4.446392e-22 0.0042807746 -1.2672733e-21 3.3459292e-39)
(0.00087764013 -0.0010769617 -1.3828866e-22 0.0041497735 1.8423809e-22 7.5393351e-40)
(0.00065475051 -0.00075592088 -1.6678247e-23 0.0039760498 -1.4936214e-23 8.4969271e-41)
(0.00050426029 -0.00050024354 9.6446611e-23 0.0037861104 -4.0252632e-22 5.1593256e-41)
(0.0017775527 -0.00029331837 6.3414563e-22 4.9381073e-05 -8.3467847e-23 1.1135475e-39)
(0.0081641952 -0.0015102684 -5.4911153e-21 0.00028058838 9.9417632e-22 1.7667815e-38)
(0.013940942 -0.0026958067 -4.3000451e-21 0.00052804387 8.6199273e-22 2.1215239e-38)
(0.017755766 -0.003652754 5.7948517e-21 0.00077289707 -1.2508601e-21 5.0764715e-39)
(0.019349734 -0.0043725788 4.2094595e-21 0.001036626 -9.9641706e-22 9.8190281e-40)
(0.01904159 -0.0048563543 -2.9151757e-21 0.0013298319 6.8247505e-22 1.1188612e-38)
(0.017377715 -0.0051135522 9.8788765e-22 0.0016574583 -4.0991901e-22 4.7685201e-39)
(0.014934896 -0.0051557202 5.4255835e-21 0.0020155611 -2.1178478e-21 4.9949361e-39)
(0.012212198 -0.0050010889 2.3053768e-21 0.0023906608 -9.9956312e-22 5.8149745e-40)
(0.0095778925 -0.0046799411 -2.1793461e-21 0.0027619694 1.2621971e-21 1.6171858e-39)
(0.0072577807 -0.004234512 -2.8661687e-21 0.0031052114 1.9459317e-21 1.754034e-39)
(0.0053527426 -0.0037138077 -7.535746e-23 0.0033971554 6.2902441e-23 1.8170921e-42)
(0.0038719672 -0.0031660964 7.6584728e-22 0.0036197536 -7.8510326e-22 2.7970383e-40)
(0.0027694046 -0.0026320542 -3.4724119e-24 0.0037628333 1.0579922e-22 5.1541177e-40)
(0.0019747169 -0.0021406186 1.1585428e-23 0.003824841 1.6785829e-22 1.3948503e-39)
(0.0014146955 -0.0017081177 -3.3535725e-23 0.0038117931 -2.1400367e-22 2.5196379e-39)
(0.0010250902 -0.0013399922 2.099002e-22 0.0037349285 -5.7665554e-22 6.9743581e-40)
(0.00075508956 -0.0010339475 -8.3482646e-23 0.0036078334 4.7803221e-22 1.8973556e-39)
(0.0005671323 -0.00078361888 -2.5738489e-22 0.0034461421 1.1217832e-21 3.5332006e-39)
(0.0004342841 -0.00058070308 1.0596782e-22 0.0032711996 -3.1829194e-22 6.4070711e-41)
(0.0018845639 -0.00017888172 -1.5891232e-21 1.7455499e-05 1.3198993e-22 3.3153814e-39)
(0.0082472649 -0.00091690826 -1.0573157e-21 0.00010291793 1.1718227e-22 3.5336154e-39)
(0.013757906 -0.0017042658 9.1884645e-21 0.00021659684 -1.1938062e-21 4.3656641e-38)
(0.017083951 -0.0024318865 6.5434958e-21 0.00036441348 -9.9274834e-22 4.5918364e-39)
(0.018141073 -0.003068503 2.7854235e-21 0.00056186709 -4.6694168e-22 2.2912672e-39)
(0.017393354 -0.0035739125 5.5527333e-22 0.00081723065 -1.2314286e-22 2.0102497e-41)
(0.015475064 -0.0039122923 -5.0104281e-21 0.0011304153 1.205615e-21 9.5278688e-39)
(0.012987414 -0.0040613627 0 0.0014902051 0 0)
(0.010401284 -0.0040213893 -2.8917029e-21 0.0018747454 1.4314951e-21 7.9457489e-39)
(0.0080256493 -0.0038169866 -4.6704738e-22 0.0022552963 3.7411056e-22 1.8364546e-39)
(0.0060192685 -0.0034907359 1.3338244e-21 0.0026018765 -8.8025167e-22 3.5721279e-40)
(0.0044262486 -0.0030924928 1.1643887e-22 0.002889059 -2.1679828e-22 1.0129401e-39)
(0.0032184146 -0.0026689181 -5.7382271e-22 0.0031001753 6.8857566e-22 1.1321956e-39)
(0.0023325079 -0.0022563692 -3.9559775e-22 0.0032289428 6.8644945e-22 2.4806606e-39)
(0.0016965488 -0.0018781979 2.8765601e-22 0.0032785806 -3.1792128e-22 2.9347177e-40)
(0.0012448857 -0.0015457133 3.7694814e-22 0.0032592324 -5.5392397e-22 2.3603513e-40)
(0.00092443703 -0.0012611885 -3.0927758e-22 0.003184718 6.2905003e-22 2.0117593e-40)
(0.00069549026 -0.00102141 -3.6492453e-22 0.0030695725 1.0875338e-21 2.9279724e-39)
(0.00052979873 -0.00082095951 4.7765735e-23 0.0029280976 -3.9676191e-25 3.6734238e-40)
(0.00040752611 -0.00065374065 3.4569414e-23 0.0027756729 -2.2505764e-22 4.237277e-40)
(0.0019488892 -5.1991067e-05 -1.0529241e-21 1.5987332e-06 2.6907927e-23 1.6246596e-39)
(0.0080967241 -0.0003077361 4.3393457e-21 1.25314e-05 -1.5949857e-22 8.9593131e-39)
(0.013192417 -0.00073060881 6.6425603e-21 4.485832e-05 -4.2481084e-22 6.543427e-38)
(0.015990486 -0.0012797397 -7.349679e-21 0.00011781059 6.8662255e-22 1.7781942e-38)
(0.016578739 -0.001879608 2.5287192e-21 0.00025074895 -3.0756634e-22 4.0250971e-40)
(0.015532076 -0.0024364645 9.1396175e-22 0.0004570133 2.7163138e-23 1.6635501e-38)
(0.013525885 -0.0028675123 2.5691485e-22 0.00073732627 -5.8532905e-23 5.0352915e-42)
(0.011143031 -0.0031217475 -3.5336387e-21 0.0010766907 9.0094417e-22 5.3520484e-39)
(0.0087982873 -0.0031881635 -7.8020671e-23 0.0014468473 3.0552739e-23 7.1698722e-43)
(0.0067320563 -0.0030903412 1.231111e-21 0.001812886 -7.5518295e-22 2.0692163e-39)
(0.0050425535 -0.0028725939 8.6641613e-23 0.0021413119 -1.1973193e-22 3.0545893e-40)
(0.0037325527 -0.0025846805 -4.5931743e-22 0.0024067671 9.3925979e-23 3.9512813e-39)
(0.0027535672 -0.0022702024 -9.1469455e-22 0.0025955545 8.548914e-22 3.2163496e-40)
(0.0020386578 -0.001960666 1.0817321e-23 0.002705641 9.4000697e-23 5.1592955e-40)
(0.001522234 -0.0016746891 2.7885751e-22 0.0027440743 -4.5830113e-22 4.7294837e-40)
(0.0011492464 -0.0014204048 1.749505e-22 0.0027232916 -3.6403182e-22 4.6879768e-40)
(0.00087753399 -0.0011989934 2.1526309e-23 0.0026576021 -1.7979437e-22 7.8892837e-40)
(0.00067669576 -0.0010079821 -3.0324148e-22 0.0025606563 4.6434146e-22 5.7447211e-40)
(0.00052565327 -0.00084372825 -9.5155178e-23 0.0024442732 -7.4633055e-23 2.717091e-39)
(0.00040974036 -0.00070214349 1.0307161e-22 0.0023182711 -5.9115871e-22 4.4123683e-39)
(1.3904012e-05 -1.7253066e-06 1.394333e-22 2.1171876e-06 -2.7983491e-23 1.5894585e-39)
(6.5657869e-05 -2.7483057e-05 -1.9870777e-22 1.4117912e-05 5.5053359e-23 1.5310991e-39)
(0.00014707111 -6.3532884e-05 4.4163336e-22 2.8106413e-05 -1.6444449e-22 8.7782791e-39)
(0.00047130148 -0.00013381071 1.2285903e-21 4.0147127e-05 -2.5975074e-22 2.9549426e-38)
(0.0010325472 -0.00021995022 -8.7327251e-22 5.0749809e-05 1.4650378e-22 7.6756086e-39)
(0.0018405816 -0.00031533574 1.0960877e-21 5.9898343e-05 -1.4578299e-22 8.4833038e-39)
(0.0029180033 -0.00041618475 -1.4886022e-21 6.7610689e-05 1.8344543e-22 9.2883203e-39)
(0.0042669279 -0.00051878748 -1.5280345e-21 7.4082744e-05 1.5399042e-22 9.8385239e-39)
(0.005875242 -0.00062014327 1.8918357e-21 7.9529149e-05 -1.8765641e-22 1.0366479e-38)
(0.0077259018 -0.00071803137 -1.4478674e-21 8.412352e-05 1.3444023e-22 5.2729025e-39)
(0.0097988487 -0.00081078207 -7.6323154e-23 8.8002295e-05 1.2182087e-24 6.1828774e-41)
(0.012071387 -0.00089711279 3.9518118e-22 9.127286e-05 -4.0363065e-23 1.9028096e-40)
(0.014519067 -0.000976027 -7.0971677e-23 9.4019533e-05 2.9925702e-24 3.0989492e-41)
(0.017116482 -0.001046749 2.0735404e-21 9.6310844e-05 -1.7621902e-22 9.1803032e-39)
(0.019837751 -0.0011086992 8.1338501e-24 9.8208721e-05 4.0033276e-24 2.0093568e-41)
(0.022657003 -0.0011615238 -2.8220586e-21 9.9778201e-05 2.5772903e-22 1.8804111e-38)
(0.025549025 -0.0012051284 4.9211173e-22 0.00010108777 -5.3315626e-23 3.9021901e-40)
(0.028489365 -0.0012395494 1.1302819e-21 0.00010219176 -1.1630095e-22 4.7804806e-39)
(0.031453568 -0.0012651261 -1.6768521e-21 0.00010314375 1.9761842e-22 1.3524274e-38)
(0.034415632 -0.0012843249 -8.2584409e-22 0.00010398463 1.1369519e-22 5.0818806e-39)
(1.5751651e-05 -7.2413489e-06 4.5616348e-23 1.8646428e-05 -1.6576481e-23 1.5514802e-40)
(8.3706223e-05 -9.4175626e-05 -1.2578162e-21 0.0001244088 9.4835326e-22 5.1201458e-38)
(0.00018779714 -0.00021367178 2.4997902e-22 0.0002475012 -2.074568e-22 4.6217665e-39)
(0.00055369671 -0.00043239579 1.3162282e-21 0.00035343854 -8.0153284e-22 2.4658563e-38)
(0.0011617863 -0.00069622775 1.8195636e-21 0.00044648628 -8.6299211e-22 2.7880113e-38)
(0.0020170049 -0.00098566437 2.1863237e-22 0.00052639666 -8.6029909e-23 2.6173931e-40)
(0.0031379005 -0.00128943 -5.7684891e-21 0.00059336821 1.9479818e-21 1.3928932e-37)
(0.0045219953 -0.0015965992 -1.9658704e-22 0.00064914866 7.9389745e-23 3.8570382e-41)
(0.0061530933 -0.0018984152 3.1770696e-21 0.00069563282 -9.3096975e-22 2.3660895e-38)
(0.0080104731 -0.002188422 -7.5792446e-22 0.00073435587 2.000263e-22 1.3164357e-39)
(0.010070549 -0.0024617782 -2.8175654e-21 0.0007665258 7.3696438e-22 1.4549393e-38)
(0.012307202 -0.0027147784 5.8323498e-22 0.0007930907 -1.4155009e-22 6.6306629e-40)
(0.014692646 -0.0029445572 2.4341124e-21 0.00081478969 -5.0873017e-22 1.5679911e-38)
(0.017198186 -0.0031488952 9.6671346e-22 0.00083221552 -2.2920038e-22 1.7787389e-39)
(0.019794617 -0.0033261367 1.8550729e-21 0.00084589263 -4.8242582e-22 5.0992393e-39)
(0.022452746 -0.0034752702 -1.4224249e-21 0.00085635901 3.4949958e-22 4.3400099e-39)
(0.025144601 -0.003596061 -1.3012177e-21 0.00086418516 3.2059593e-22 4.7550414e-39)
(0.027843272 -0.0036886765 1.2282342e-21 0.00086985936 -3.6860073e-22 2.7026396e-39)
(0.030515148 -0.003754261 1.0292373e-21 0.00087393628 -3.1061348e-22 4.7927625e-39)
(0.033117608 -0.0038015527 3.4302029e-22 0.00087692871 -1.0419034e-22 2.0554387e-39)
(2.026059e-05 -1.8595486e-05 3.5108784e-23 4.979634e-05 -1.7261349e-23 8.1290681e-41)
(0.00012645748 -0.00019455885 9.5438846e-22 0.00033204204 -1.0217082e-21 2.1818552e-38)
(0.00028205138 -0.00042894713 -2.0804993e-22 0.00065957065 2.6781202e-22 1.14189e-39)
(0.00073402549 -0.00081795216 -1.4266802e-21 0.00094101571 1.1961285e-21 2.7036789e-38)
(0.0014371479 -0.0012743675 5.1353181e-22 0.0011871713 -4.2775905e-22 7.492018e-40)
(0.0023866827 -0.0017665699 6.6518462e-22 0.0013969579 -5.3708775e-22 3.6799744e-40)
(0.0035931879 -0.0022760489 -8.4477363e-22 0.0015709505 4.3964893e-22 2.4008734e-39)
(0.0050456535 -0.002785296 -2.1388433e-21 0.0017138505 1.2279533e-21 4.6717753e-39)
(0.0067203183 -0.0032804733 9.3355979e-22 0.0018307263 -4.4277361e-22 1.3290964e-39)
(0.0085896562 -0.0037514352 1.9712321e-21 0.0019257121 -7.9261301e-22 7.5903715e-39)
(0.010623658 -0.0041906088 4.9348443e-22 0.0020020816 -3.5664188e-22 2.7068451e-40)
(0.01279009 -0.0045922365 2.3555593e-21 0.0020624068 -7.4107877e-22 1.4126606e-38)
(0.015055337 -0.0049519052 1.9222026e-22 0.0021086826 -6.8544919e-23 5.8164867e-41)
(0.017385111 -0.0052662259 -3.3088154e-21 0.0021424801 1.0637631e-21 2.2624995e-38)
(0.019744772 -0.0055326937 2.0888522e-22 0.0021651537 -1.5669051e-22 1.2370418e-40)
(0.022099922 -0.0057498137 -1.4760678e-21 0.0021780555 3.7595337e-22 8.8516698e-39)
(0.024418597 -0.005917369 -1.9262836e-21 0.0021825993 7.8258608e-22 3.530102e-39)
(0.026670989 -0.0060358918 2.9910733e-21 0.0021801889 -1.2156859e-21 1.1784607e-38)
(0.028810413 -0.0061076826 1.4816421e-21 0.002172998 -6.7233849e-22 2.3592942e-39)
(0.030769974 -0.0061503017 3.0661416e-22 0.0021635305 -1.5776097e-22 4.984482e-41)
(2.9869241e-05 -3.8531465e-05 -5.298344e-23 9.181538e-05 6.7049038e-23 1.1645847e-40)
(0.00020698721 -0.00034510233 -2.2045801e-21 0.00061216914 2.7899076e-21 7.22654e-38)
(0.00045568086 -0.00074093049 -1.6191389e-22 0.0012138089 2.0804567e-22 9.897875e-40)
(0.0010476082 -0.001331339 3.6124336e-22 0.0017292337 -4.0003299e-22 6.2431666e-40)
(0.0019016891 -0.0020003038 -6.3049325e-23 0.0021773377 1.8555149e-23 1.6276797e-40)
(0.0029990235 -0.0027048712 1.8284212e-21 0.0025551553 -1.3310435e-21 1.1853479e-38)
(0.0043383453 -0.0034195867 2.0000098e-21 0.0028637415 -1.2925222e-21 1.0758685e-38)
(0.0058965624 -0.004121356 -6.1193499e-22 0.003111877 2.9036511e-22 1.7017136e-39)
(0.0076393245 -0.0047923081 -2.1771261e-21 0.0033090266 1.1141739e-21 1.0782048e-38)
(0.009529684 -0.0054194648 -4.2676845e-21 0.0034630033 2.2637937e-21 2.2700903e-38)
(0.011528957 -0.0059932368 -1.1740018e-22 0.0035800741 -4.6088842e-23 5.2407922e-40)
(0.013596944 -0.0065064453 5.265069e-21 0.0036652081 -2.3942443e-21 3.7151131e-38)
(0.015692773 -0.0069536993 -2.1295239e-21 0.0037222774 7.7358312e-22 1.1047113e-38)
(0.017775671 -0.0073310072 -1.3159293e-21 0.003754337 5.6407927e-22 2.1619245e-39)
(0.019805276 -0.0076355517 -1.2256128e-22 0.0037639574 1.8067302e-22 4.7112024e-40)
(0.021742313 -0.0078658137 2.9293644e-21 0.0037535829 -1.2838967e-21 8.8066349e-39)
(0.023551936 -0.0080220509 -1.5802332e-21 0.0037256757 8.3405173e-22 5.3790269e-40)
(0.025203955 -0.0081058887 -3.5402513e-21 0.0036830497 1.5172578e-21 1.900708e-38)
(0.026641795 -0.0081215535 2.2112673e-21 0.0036316533 -1.014624e-21 9.5421576e-39)
(0.027776421 -0.0080964211 1.9161776e-21 0.0035797721 -7.9631763e-22 8.9298857e-39)
(4.777477e-05 -6.8662602e-05 2.3705017e-22 0.0001400534 -2.3049319e-22 1.5589766e-39)
(0.00034251692 -0.00055497048 8.1446148e-23 0.00093302176 -2.5029465e-23 6.9139958e-40)
(0.00074236165 -0.001166557 -2.9856047e-21 0.0018449123 4.2949366e-21 5.8995028e-38)
(0.0015394644 -0.0019928772 -1.7150184e-21 0.0026222836 1.8242272e-21 1.8343561e-38)
(0.0026081332 -0.0028939846 1.1575992e-21 0.0032925413 -9.2043944e-22 1.1110406e-38)
(0.0039108045 -0.0038160223 1.3950281e-21 0.0038497279 -1.1228302e-21 5.21376e-39)
(0.0054303961 -0.0047269069 -1.8222776e-21 0.0042956077 1.1820344e-21 1.2232079e-38)
(0.007128429 -0.0055993033 -2.7573907e-21 0.0046439606 1.5641899e-21 2.6843917e-38)
(0.008957346 -0.0064127639 3.9585861e-21 0.0049096508 -2.3428439e-21 2.7445025e-38)
(0.010868723 -0.0071527606 1.1622221e-21 0.0051051474 -4.5597753e-22 6.4161976e-39)
(0.012813712 -0.0078088494 -3.3346646e-21 0.0052406506 2.2463418e-21 1.938699e-39)
(0.01474339 -0.0083735603 1.508489e-21 0.0053244083 -6.6638585e-22 4.9254404e-39)
(0.016609775 -0.008841682 0 0.005362982 0 0)
(0.018366729 -0.0092097841 1.3804229e-21 0.0053616038 -6.681232e-22 1.9111732e-39)
(0.019970471 -0.0094759454 -1.0100302e-21 0.0053246304 4.7842112e-22 1.0193542e-39)
(0.021380462 -0.009639831 -1.4938135e-21 0.0052560064 7.6076373e-22 1.2185755e-39)
(0.022563828 -0.0097033143 5.0111853e-22 0.0051593815 -4.8440875e-22 1.7570472e-39)
(0.023496811 -0.009670486 -4.167208e-22 0.005039027 2.7515377e-22 5.9995578e-41)
(0.024123457 -0.0095489535 1.8872047e-21 0.0049067037 -8.298115e-22 1.0366529e-38)
(0.024341391 -0.0093742957 -1.5872399e-21 0.0047829258 8.3113883e-22 5.5959751e-40)
(7.7627164e-05 -0.00010940355 2.2781236e-22 0.00018978182 -1.9159335e-22 1.251021e-39)
(0.00055208649 -0.00082496069 1.0741866e-21 0.0012609418 -1.4349497e-21 4.5742508e-39)
(0.0011784332 -0.0017053314 -1.4386332e-21 0.0024829341 1.918398e-21 1.1108349e-38)
(0.0022558382 -0.0027976363 -2.3084281e-21 0.0035169794 2.6197487e-21 9.1804662e-39)
(0.003606259 -0.003942913 -5.9060203e-22 0.0043986618 9.4275199e-22 7.2848707e-39)
(0.0051684405 -0.0050765194 -2.0534484e-21 0.0051185928 1.8180591e-21 4.5335905e-39)
(0.0069051928 -0.0061603162 -9.9226135e-22 0.0056799896 6.0835484e-22 5.3015684e-39)
(0.0087596958 -0.007164569 1.6781744e-21 0.0061025209 -1.0031531e-21 9.7724893e-39)
(0.010669212 -0.0080682836 3.9112634e-21 0.006407349 -2.3189595e-21 3.3411957e-38)
(0.01257277 -0.0088573591 1.1664794e-21 0.0066125742 -7.1983933e-22 1.393869e-39)
(0.014411512 -0.0095225016 -1.1058928e-21 0.0067333198 5.8181048e-22 2.220496e-39)
(0.016129208 -0.010057966 -2.4404358e-22 0.0067820871 -4.2766091e-23 1.9405335e-39)
(0.017673658 -0.010460792 -4.9730392e-21 0.0067690609 2.7421258e-21 1.8238434e-38)
(0.018997989 -0.010730291 -1.5128961e-21 0.0067025255 7.969702e-22 1.8877469e-39)
(0.020061537 -0.010867723 2.4332373e-21 0.0065893776 -1.4640846e-21 8.2878793e-40)
(0.020830936 -0.01087623 -2.3824866e-21 0.0064356025 1.3326811e-21 1.8133325e-39)
(0.021285105 -0.010761335 -8.2398326e-22 0.0062461379 4.1378027e-22 5.9483077e-40)
(0.021418223 -0.010531414 1.7920844e-21 0.0060259776 -7.3865081e-22 9.3443255e-39)
(0.02119173 -0.010199237 2.5646675e-21 0.0057926665 -1.3457674e-21 6.9764127e-39)
(0.020503139 -0.0098045528 3.1949424e-22 0.0055856835 -1.5320988e-22 1.3690283e-40)
(0.00012322232 -0.00016000281 -6.4315566e-22 0.00023664089 5.2271563e-22 7.4052142e-39)
(0.00085403568 -0.0011474509 -7.1871997e-22 0.0015640966 7.2963758e-22 5.9016714e-39)
(0.0017968573 -0.0023386867 1.6805771e-21 0.0030617865 -2.1587448e-21 2.4287376e-39)
(0.0032344246 -0.0037140409 2.6233673e-21 0.0043162114 -2.738977e-21 1.2287069e-38)
(0.0049291802 -0.0051003497 3.4280759e-23 0.0053705153 -3.1055333e-23 2.4516759e-42)
(0.0067904646 -0.0064225339 -7.0345734e-21 0.0062126885 5.8469e-21 7.2031865e-38)
(0.0087567547 -0.0076377391 -2.6323141e-21 0.0068489321 2.3045612e-21 9.3698216e-40)
(0.010750855 -0.0087164787 2.1129869e-21 0.007305853 -1.4310403e-21 7.921167e-39)
(0.012694685 -0.0096401911 2.3552687e-21 0.0076117363 -1.5983847e-21 4.8213272e-39)
(0.014516224 -0.01039821 -2.3325963e-21 0.0077911547 1.2948627e-21 1.3310242e-38)
(0.016149857 -0.010985413 -6.5095244e-21 0.0078650101 4.1859004e-21 1.9101493e-38)
(0.017537443 -0.011400867 4.2038443e-21 0.0078508683 -2.6014262e-21 7.8439167e-39)
(0.018630202 -0.011646994 2.4964892e-21 0.0077632951 -1.3055842e-21 9.5263087e-39)
(0.019390436 -0.011729007 -3.3418723e-21 0.0076143079 1.881885e-21 7.7947815e-39)
(0.019792667 -0.011654488 1.4233861e-21 0.0074138924 -8.5394241e-22 5.0709701e-40)
(0.019824518 -0.011433061 2.3210853e-21 0.0071704088 -1.2190767e-21 5.8185508e-39)
(0.019490989 -0.011076393 8.5739696e-22 0.006890004 -5.0825075e-22 1.9004496e-40)
(0.018817995 -0.01059871 -1.4364918e-21 0.0065770413 9.6240691e-22 2.2158809e-40)
(0.01780247 -0.010018639 -2.9802846e-22 0.0062517706 7.5525902e-23 1.4539617e-39)
(0.016358103 -0.0093738969 1.8231412e-21 0.0059754477 -1.129922e-21 5.306468e-40)
(0.00018818266 -0.0002185976 -2.2119943e-23 0.00027680122 -1.6945297e-23 1.3053629e-40)
(0.0012633551 -0.001506929 -2.5374715e-21 0.0018147663 2.687265e-21 1.9323118e-38)
(0.0026208907 -0.0030313169 -2.0547764e-21 0.003525339 2.206172e-21 2.9374044e-38)
(0.0044944687 -0.0046862092 3.6867952e-21 0.0049393324 -3.5646641e-21 1.7021974e-38)
(0.0065804447 -0.0062892569 2.8909996e-21 0.0061067943 -2.923172e-21 7.0415169e-39)
(0.008752934 -0.0077563767 2.5310503e-21 0.0070153569 -2.1241688e-21 2.8026281e-39)
(0.010923075 -0.0090427708 -1.9488261e-22 0.0076764628 2.6949467e-22 1.3402934e-39)
(0.012994034 -0.010123078 -2.3232725e-21 0.0081246311 1.5853423e-21 7.7232825e-39)
(0.014875683 -0.010985189 -6.2493564e-22 0.0083958573 5.5800206e-22 7.0842718e-40)