/*--------------------------------*- C++ -*----------------------------------*\
  =========                 |
  \\      /  F ield         | OpenFOAM: The Open Source CFD Toolbox
   \\    /   O peration     | Website:  https://openfoam.org
    \\  /    A nd           | Version:  6
     \\/     M anipulation  |
\*---------------------------------------------------------------------------*/
FoamFile
{
    version     2.0;
    format      ascii;
    class       volScalarField;
    location    "129";
    object      pMean;
}
// * * * * * * * * * * * * * * * * * * * * * * * * * * * * * * * * * * * * * //

dimensions      [0 2 -2 0 0 0 0];

internalField   nonuniform List<scalar> 
9200
(
-0.40273629
-0.39045749
-0.37947746
-0.36978573
-0.36029724
-0.35101041
-0.34201055
-0.33326099
-0.32468888
-0.31621926
-0.3077784
-0.29929858
-0.29072527
-0.28202409
-0.2731908
-0.26426807
-0.25533971
-0.24649923
-0.23874421
-0.23624741
-0.42136864
-0.40664152
-0.39372753
-0.38250411
-0.37161612
-0.36103207
-0.35082758
-0.34093629
-0.33125533
-0.32168634
-0.31213897
-0.30253651
-0.29282326
-0.28296993
-0.27297833
-0.26288444
-0.2527292
-0.24252221
-0.23293397
-0.22609212
-0.44030119
-0.42312153
-0.40833155
-0.3956512
-0.38341723
-0.37155046
-0.36010633
-0.34898294
-0.3380477
-0.32718494
-0.31629891
-0.30531875
-0.29420458
-0.28294959
-0.27157872
-0.26014332
-0.2486933
-0.23724613
-0.22619934
-0.21666577
-0.45906842
-0.43947121
-0.42287828
-0.40880258
-0.39523706
-0.3820398
-0.36924026
-0.35670312
-0.34427662
-0.33184545
-0.31933077
-0.30669185
-0.29392793
-0.28107456
-0.26819574
-0.25537292
-0.24268096
-0.23016315
-0.21808832
-0.20720544
-0.47700782
-0.45511147
-0.43683808
-0.42144221
-0.40654813
-0.39194239
-0.37763113
-0.36345927
-0.34927884
-0.33500354
-0.32060146
-0.30608935
-0.29152672
-0.27700455
-0.26263104
-0.24851719
-0.23475676
-0.22140769
-0.20865918
-0.19702896
-0.49326429
-0.46929207
-0.44951786
-0.43288824
-0.41665264
-0.4005291
-0.38451606
-0.36846708
-0.35227387
-0.33591573
-0.3194394
-0.30294155
-0.28655282
-0.27041892
-0.25468241
-0.23946836
-0.22486997
-0.21093805
-0.19779772
-0.18579433
-0.50680615
-0.48109882
-0.46006373
-0.44229754
-0.42469601
-0.40692775
-0.38901445
-0.37086116
-0.35244409
-0.33384634
-0.31521906
-0.29674964
-0.27863604
-0.26106365
-0.24418779
-0.22812408
-0.21294225
-0.19866517
-0.18535674
-0.17322298
-0.51644895
-0.48947928
-0.467496
-0.44871547
-0.4297339
-0.41020765
-0.39022681
-0.369801
-0.34903845
-0.32815852
-0.30743096
-0.28713038
-0.26750518
-0.24875585
-0.23102434
-0.21439354
-0.1988914
-0.18449979
-0.17122279
-0.1591482
-0.52083542
-0.49313845
-0.47050637
-0.45078527
-0.4303748
-0.40898389
-0.38683197
-0.3640892
-0.34103238
-0.31802893
-0.2954571
-0.27365363
-0.25288537
-0.2333367
-0.2151108
-0.19824057
-0.18270282
-0.16843546
-0.1553871
-0.14354374
-0.51861056
-0.49064733
-0.46753225
-0.44682941
-0.42489267
-0.40156813
-0.37726828
-0.35236573
-0.3273147
-0.30260937
-0.27869617
-0.25592731
-0.23454563
-0.2146878
-0.1963996
-0.17965704
-0.16438766
-0.15049194
-0.13787044
-0.12642002
-0.28184073
-0.28610212
-0.28796727
-0.28814988
-0.28733351
-0.28568113
-0.28329242
-0.28026506
-0.27667516
-0.27258129
-0.2680317
-0.26306791
-0.25772688
-0.25204247
-0.24604677
-0.23977255
-0.23325479
-0.226518
-0.21956449
-0.2124872
-0.28483764
-0.28865252
-0.29019516
-0.29015296
-0.2891509
-0.28734333
-0.28482771
-0.2816972
-0.27802378
-0.2738628
-0.26925977
-0.26425384
-0.25887982
-0.25316936
-0.24715168
-0.24085829
-0.23433152
-0.2275942
-0.22053846
-0.21313729
-0.29067121
-0.29361756
-0.29453428
-0.29405267
-0.29268704
-0.29057604
-0.28781274
-0.28448156
-0.28064648
-0.27635648
-0.27165159
-0.26656616
-0.26113072
-0.25537266
-0.24931594
-0.24298872
-0.23644431
-0.22970471
-0.22246662
-0.21445723
-0.29905956
-0.30076958
-0.30078408
-0.29965676
-0.29775038
-0.29518358
-0.29204415
-0.28840471
-0.28431822
-0.2798247
-0.27495641
-0.26974074
-0.26420203
-0.25836138
-0.25223551
-0.24584674
-0.23925939
-0.23250074
-0.2250225
-0.21616838
-0.30964825
-0.30982307
-0.30869502
-0.30672899
-0.30410878
-0.30093203
-0.29728181
-0.29321734
-0.28877862
-0.28399514
-0.27888968
-0.2734804
-0.26778328
-0.26181184
-0.25557427
-0.24908404
-0.24241224
-0.23559994
-0.22784803
-0.21797971
-0.32207043
-0.32048218
-0.31801071
-0.31503099
-0.31153304
-0.30759549
-0.30329889
-0.29868938
-0.29379331
-0.28862713
-0.28320164
-0.27752465
-0.27160247
-0.26543959
-0.25903474
-0.25238993
-0.24557533
-0.23865146
-0.23060191
-0.21962239
-0.33600036
-0.33248265
-0.32850563
-0.32436039
-0.31983762
-0.31500082
-0.30993201
-0.30466393
-0.29920673
-0.29356314
-0.28773129
-0.28170675
-0.27548447
-0.26905894
-0.26241972
-0.25555748
-0.248535
-0.24143525
-0.23308972
-0.22101395
-0.3511845
-0.34561717
-0.34000938
-0.33457755
-0.32891211
-0.32306485
-0.31711968
-0.31109555
-0.30498665
-0.29878016
-0.29245884
-0.28600322
-0.27939416
-0.2726139
-0.26564262
-0.25846292
-0.25113571
-0.24379004
-0.23522282
-0.22227796
-0.36743995
-0.35972518
-0.35238472
-0.34557005
-0.33866684
-0.33171433
-0.32480048
-0.31793028
-0.31107941
-0.30421674
-0.29730659
-0.29031086
-0.28319156
-0.27591124
-0.26842869
-0.2607007
-0.25275482
-0.24470348
-0.23534618
-0.2212568
-0.38464446
-0.37467292
-0.36549097
-0.35719
-0.34893992
-0.3407674
-0.33276457
-0.32492067
-0.31719109
-0.30952551
-0.3018704
-0.29417176
-0.28637831
-0.2784417
-0.27031135
-0.2619301
-0.25324885
-0.24407464
-0.23281901
-0.21654093
-0.20448236
-0.19456239
-0.18469265
-0.17495628
-0.16529333
-0.15574364
-0.14636491
-0.1371941
-0.12825963
-0.11958886
-0.11120616
-0.10313161
-0.095381505
-0.087968885
-0.080903658
-0.074192696
-0.067840008
-0.06184694
-0.056212341
-0.050932745
-0.046002557
-0.041414253
-0.037158585
-0.033224795
-0.029600829
-0.02627356
-0.023229006
-0.020452537
-0.017929088
-0.015643348
-0.013579947
-0.011723621
-0.01005937
-0.0085725936
-0.0072492201
-0.0060758178
-0.0050397071
-0.0041290432
-0.0033329915
-0.0026416122
-0.0020467921
-0.0015399208
-0.0011202524
-0.00077030454
-0.00053371518
-0.00028430247
-0.00042166613
0.00016038772
-0.0018710593
0.0029199466
-0.20587423
-0.19550832
-0.18550369
-0.17576801
-0.16606841
-0.15646781
-0.14704567
-0.13783492
-0.12886083
-0.12015143
-0.11173162
-0.10362133
-0.095836798
-0.088391138
-0.081294314
-0.074553225
-0.068171914
-0.062151745
-0.05649158
-0.051187952
-0.046235253
-0.041625934
-0.037350716
-0.033398799
-0.02975808
-0.026415378
-0.02335665
-0.020567203
-0.018031906
-0.01573538
-0.013662186
-0.011796994
-0.010124733
-0.0086307371
-0.0073008703
-0.0061216379
-0.0050803
-0.0041649539
-0.0033647096
-0.0026695739
-0.0020713815
-0.0015614723
-0.0011390349
-0.00078657186
-0.00054745686
-0.00029605433
-0.00042940396
0.00015124588
-0.0018598753
0.0028903937
-0.20868989
-0.19738826
-0.1871212
-0.17743226
-0.16767724
-0.15797893
-0.14847486
-0.13918797
-0.13013549
-0.12134796
-0.112852
-0.10466745
-0.096810625
-0.089295013
-0.082130859
-0.075325256
-0.068882403
-0.062803797
-0.057088385
-0.051732745
-0.046731282
-0.042076426
-0.037758848
-0.033767673
-0.030090705
-0.026714649
-0.023625335
-0.020807934
-0.018247169
-0.015927512
-0.013833372
-0.011949262
-0.010259963
-0.008750659
-0.0074070667
-0.0062155518
-0.0051632394
-0.0042380978
-0.003429114
-0.0027261765
-0.0021210064
-0.0016048331
-0.0011767121
-0.00081909438
-0.0005748561
-0.00031936289
-0.00044473739
0.0001333135
-0.0018376672
0.0028318475
-0.21263387
-0.19986003
-0.18922055
-0.17970858
-0.16992953
-0.1601108
-0.15051088
-0.14113553
-0.13198482
-0.12309482
-0.11449662
-0.10621035
-0.098252664
-0.090637987
-0.083377354
-0.076478402
-0.069945776
-0.063781339
-0.057984317
-0.052551478
-0.047477343
-0.042754396
-0.0383733
-0.034323124
-0.030591574
-0.027165222
-0.024029736
-0.021170103
-0.018570842
-0.016216213
-0.014090402
-0.012177698
-0.010462654
-0.0089302306
-0.0075659253
-0.0063558906
-0.0052870466
-0.0043471648
-0.0035250444
-0.0028103934
-0.0021947594
-0.0016692028
-0.0012325781
-0.00086725325
-0.00061536832
-0.00035375816
-0.00046727906
0.00010697392
-0.0018046885
0.0027455047
-0.21733163
-0.20254165
-0.19143464
-0.18230417
-0.17259252
-0.1626597
-0.15297553
-0.14352753
-0.13428282
-0.12528481
-0.11657407
-0.1081724
-0.1000971
-0.092364237
-0.084986447
-0.077972514
-0.071327988
-0.065055491
-0.059154854
-0.053623303
-0.048455683
-0.04364469
-0.039181102
-0.035054018
-0.031251096
-0.027758806
-0.024562656
-0.021647438
-0.018997441
-0.016596671
-0.014429041
-0.012478562
-0.010729497
-0.0091665199
-0.0077748444
-0.0065403443
-0.0054496702
-0.0044903336
-0.0036508852
-0.0029207927
-0.0022913733
-0.0017534618
-0.0013056455
-0.00093018095
-0.00066823454
-0.00039857666
-0.00049651286
7.2813859e-05
-0.0017614598
0.0026332491
-0.22231118
-0.20506468
-0.1934188
-0.18490641
-0.17541823
-0.16541554
-0.15567695
-0.14619534
-0.1368873
-0.12779754
-0.11898117
-0.11046532
-0.1022688
-0.094409929
-0.086903852
-0.079761413
-0.072989748
-0.066592793
-0.060571459
-0.054923831
-0.049645407
-0.044729358
-0.040166786
-0.035946976
-0.032057661
-0.028485286
-0.025215255
-0.022232185
-0.019520142
-0.017062862
-0.014843963
-0.012847131
-0.011056301
-0.009455804
-0.0080305147
-0.006765971
-0.0056484957
-0.0046652825
-0.0038045766
-0.0030555499
-0.0024092344
-0.0018561863
-0.0013946609
-0.0010067794
-0.00073249829
-0.00045298706
-0.0005318034
3.155803e-05
-0.0017086844
0.0024975276
-0.22709776
-0.20719702
-0.19492192
-0.18719098
-0.17815468
-0.16820311
-0.15845661
-0.14898649
-0.13966465
-0.13052023
-0.12162093
-0.11300469
-0.10469452
-0.096711603
-0.089074482
-0.081797137
-0.074889215
-0.06835667
-0.062202098
-0.056424949
-0.051021798
-0.045986633
-0.041311149
-0.036985038
-0.03299627
-0.029331386
-0.025975771
-0.022913921
-0.020129704
-0.017606596
-0.015327905
-0.013276975
-0.011437371
-0.0097930449
-0.0083284847
-0.0070288427
-0.0058800623
-0.0048689675
-0.0039834468
-0.0032123249
-0.0025462983
-0.001975596
-0.0014980786
-0.0010957159
-0.00080701802
-0.00051602246
-0.00057242637
-1.6012734e-05
-0.001647187
0.002341192
-0.23138577
-0.20929974
-0.19615741
-0.18896873
-0.18057658
-0.17091526
-0.16124942
-0.15182348
-0.14253118
-0.1333752
-0.1244225
-0.11572438
-0.10731253
-0.099212377
-0.091446354
-0.084032417
-0.076983594
-0.070308564
-0.064012167
-0.058095708
-0.052557251
-0.047391949
-0.042592378
-0.038148862
-0.034049794
-0.030281954
-0.026830809
-0.023680814
-0.020815683
-0.018218659
-0.015872746
-0.013760938
-0.011866412
-0.010172712
-0.0086639013
-0.0073247085
-0.0061406549
-0.0050981499
-0.00418468
-0.0033886776
-0.0027004583
-0.0021098797
-0.0016143479
-0.0011956746
-0.00089068426
-0.00058676387
-0.0006177172
-6.9193116e-05
-0.0015779215
0.0021674406
-0.23284082
-0.21152999
-0.19774371
-0.19015541
-0.1822497
-0.1731694
-0.16377799
-0.15447244
-0.14527206
-0.13617349
-0.12722751
-0.11849385
-0.11001617
-0.10182657
-0.093952156
-0.086415584
-0.079234247
-0.072420503
-0.065982276
-0.059923481
-0.054244353
-0.048941805
-0.044009808
-0.039439755
-0.035220824
-0.031340328
-0.027784055
-0.024536597
-0.021581655
-0.01890233
-0.016481389
-0.014301506
-0.012345486
-0.010596453
-0.0090380325
-0.0076544943
-0.0064308996
-0.0053532003
-0.0044084341
-0.003584592
-0.0028715587
-0.0022587714
-0.0017431184
-0.0013062363
-0.00098304512
-0.00066468511
-0.00066734008
-0.00012711809
-0.0015023477
0.0019804698
-0.22335992
-0.21098478
-0.19911408
-0.19018726
-0.18226448
-0.17398808
-0.16522171
-0.15629403
-0.14738359
-0.13852034
-0.12973727
-0.12109533
-0.11265177
-0.10445017
-0.096526048
-0.088909681
-0.08162556
-0.074692228
-0.068122851
-0.061925773
-0.056104935
-0.0506603
-0.045588292
-0.040882242
-0.036532809
-0.032528395
-0.02885554
-0.025499301
-0.022443607
-0.019671593
-0.0171659
-0.014908952
-0.012883211
-0.011071389
-0.0094566486
-0.0080227704
-0.0067543098
-0.005636708
-0.0046564976
-0.0038011682
-0.0030601149
-0.0024222921
-0.0018840089
-0.0014266745
-0.0010831722
-0.00074852541
-0.00072044698
-0.00018741974
-0.0014227428
0.0017860857
-0.20187322
-0.20496909
-0.19864942
-0.18901837
-0.18073235
-0.1728971
-0.1646021
-0.15599837
-0.14734709
-0.13871446
-0.13012644
-0.12164015
-0.11331707
-0.10520571
-0.097345341
-0.089769719
-0.082506805
-0.075578388
-0.069000556
-0.062784263
-0.056935772
-0.051457077
-0.046346361
-0.041598461
-0.037205305
-0.033156352
-0.029439008
-0.026039023
-0.022940867
-0.020128083
-0.017583607
-0.015290061
-0.013230016
-0.011386231
-0.0097418564
-0.0082806133
-0.0069869625
-0.0058462207
-0.0048447699
-0.0039699344
-0.0032108933
-0.0025564498
-0.0020023962
-0.0015305583
-0.0011708762
-0.000824886
-0.00076653132
-0.00024697313
-0.0013383368
0.0015930129
-0.19069721
-0.19489357
-0.19044852
-0.18115205
-0.17329012
-0.16629113
-0.15887309
-0.15105428
-0.14312112
-0.13515154
-0.12716333
-0.11921013
-0.11135632
-0.10365473
-0.096148953
-0.088877299
-0.081872503
-0.075161072
-0.068763611
-0.062695345
-0.056966526
-0.051582839
-0.04654585
-0.041853463
-0.037500378
-0.033478533
-0.029777536
-0.026385078
-0.023287331
-0.020469309
-0.017915216
-0.015608752
-0.013533396
-0.011672663
-0.010010319
-0.0085305858
-0.0072183139
-0.0060591194
-0.0050395927
-0.0041472134
-0.0033711733
-0.0027004223
-0.0021301891
-0.0016434123
-0.0012657583
-0.00090885348
-0.00081433213
-0.00031652567
-0.0012381726
0.00138283
-0.18118924
-0.18300623
-0.17983975
-0.1723426
-0.16542486
-0.15919851
-0.15261558
-0.14559058
-0.13837873
-0.13107647
-0.12370424
-0.11631015
-0.10895766
-0.10170181
-0.094588807
-0.087659929
-0.08095141
-0.074493574
-0.068310916
-0.062422521
-0.056842405
-0.051579853
-0.046639825
-0.042023392
-0.037728169
-0.033748756
-0.030077168
-0.026703255
-0.023615101
-0.020799407
-0.018241844
-0.015927378
-0.013840571
-0.011965846
-0.010287731
-0.008791067
-0.0074612034
-0.0062841471
-0.0052467726
-0.0043367798
-0.0035434142
-0.0028558282
-0.0022686437
-0.0017660867
-0.0013690385
-0.0010005039
-0.00086598966
-0.00039292503
-0.0011260774
0.001150796
-0.17073927
-0.1702281
-0.16760948
-0.16221912
-0.15659886
-0.15119224
-0.1454662
-0.13931124
-0.13289607
-0.12632154
-0.11962312
-0.11284727
-0.10605436
-0.099300375
-0.092633767
-0.086098304
-0.079733242
-0.073572411
-0.067644054
-0.061971081
-0.056571331
-0.05145783
-0.046639133
-0.042119712
-0.037900362
-0.033978623
-0.030349196
-0.027004361
-0.023934383
-0.021127897
-0.018572273
-0.016253956
-0.014158782
-0.012272258
-0.01057982
-0.0090670644
-0.0077199502
-0.0065249715
-0.0054693664
-0.0045411186
-0.0037295752
-0.0030241259
-0.0024187967
-0.0018991219
-0.0014810985
-0.0010992964
-0.00092225353
-0.00047264991
-0.0010098744
0.00090742013
-0.15943106
-0.15731788
-0.15484632
-0.15119217
-0.14691541
-0.14238481
-0.13751851
-0.13226099
-0.12669152
-0.12089315
-0.11491605
-0.10880908
-0.10262858
-0.096429507
-0.090261544
-0.084170155
-0.078196809
-0.072378222
-0.066745968
-0.06132654
-0.056141487
-0.051207583
-0.046537074
-0.042138005
-0.038014572
-0.034167506
-0.030594467
-0.027290448
-0.024248172
-0.021458477
-0.018910689
-0.016592974
-0.014492655
-0.012596523
-0.010891099
-0.0093628858
-0.0079985888
-0.0067853016
-0.0057107204
-0.0047631879
-0.0039322149
-0.0032074615
-0.0025824047
-0.0020438336
-0.0016029912
-0.0012056215
-0.00098410252
-0.00055437815
-0.0008953581
0.0006609006
-0.14700557
-0.14432336
-0.14208662
-0.13973258
-0.13666716
-0.13303463
-0.12901332
-0.12462947
-0.11990555
-0.11489772
-0.10966246
-0.10425049
-0.098714009
-0.093105537
-0.087474614
-0.081867247
-0.076325972
-0.070889357
-0.065591503
-0.060461873
-0.055525279
-0.050801941
-0.046307639
-0.042053935
-0.038048461
-0.034295246
-0.030795066
-0.027545817
-0.024542894
-0.021779565
-0.01924734
-0.016936322
-0.014835541
-0.012933267
-0.011217289
-0.0096751839
-0.0082945471
-0.0070632002
-0.0059694073
-0.0050019588
-0.0041506079
-0.0034053236
-0.0027591141
-0.002199926
-0.001734561
-0.0013191146
-0.0010519753
-0.00063696897
-0.00078823368
0.00041974546
-0.13379636
-0.13139428
-0.12960398
-0.12819556
-0.12613135
-0.12336184
-0.12015318
-0.11659335
-0.11268229
-0.10845096
-0.10395366
-0.099241789
-0.094362574
-0.089364077
-0.084294371
-0.079198987
-0.074120413
-0.069097891
-0.064167017
-0.059359377
-0.054702366
-0.050219121
-0.045928558
-0.0418455
-0.037980866
-0.034341926
-0.030932591
-0.027753742
-0.024803568
-0.022077919
-0.019570664
-0.017274031
-0.015178941
-0.013275326
-0.011552421
-0.0099990385
-0.0086038152
-0.0073554346
-0.0062428476
-0.0052553907
-0.0043831504
-0.0036164505
-0.0029479391
-0.00236659
-0.0018752388
-0.0014391446
-0.0011261271
-0.00071936291
-0.00069430468
0.00019300154
-0.12049866
-0.11877154
-0.11754514
-0.11683155
-0.11556069
-0.11357295
-0.11112189
-0.10832139
-0.10516863
-0.10167762
-0.097894257
-0.093867241
-0.089640059
-0.085255368
-0.080757163
-0.076189294
-0.071593327
-0.067008122
-0.062469651
-0.058010635
-0.053660207
-0.049443713
-0.045382637
-0.041494616
-0.037793534
-0.034289687
-0.03099
-0.02789829
-0.02501556
-0.022340315
-0.019868882
-0.017595745
-0.015513865
-0.013614991
-0.011889959
-0.010328971
-0.0089218501
-0.0076582764
-0.0065280104
-0.0055210398
-0.004627885
-0.0038392776
-0.0031476366
-0.00254282
-0.0020242905
-0.0015650443
-0.0012067099
-0.00080086969
-0.00061875621
-1.0763594e-05
-0.1076275
-0.10662845
-0.10597486
-0.10579488
-0.10514936
-0.1038402
-0.10207251
-0.099958186
-0.097497402
-0.094694937
-0.091586515
-0.088214949
-0.084619049
-0.080836777
-0.076907463
-0.072871119
-0.068767181
-0.064633275
-0.060504788
-0.056414572
-0.052392579
-0.048465561
-0.044656875
-0.040986394
-0.037470503
-0.034122168
-0.030951071
-0.027963799
-0.025164077
-0.022553031
-0.020129477
-0.017890217
-0.015830342
-0.013943533
-0.012222355
-0.010658528
-0.0092431956
-0.0079671607
-0.0068211144
-0.0057958022
-0.0048822848
-0.0040717631
-0.0033565715
-0.0027273183
-0.0021807513
-0.001696091
-0.0012937029
-0.00088125449
-0.00056544478
-0.00018456102
-0.095448723
-0.095080084
-0.094938899
-0.09518279
-0.095033502
-0.094296007
-0.09312616
-0.091620138
-0.089779728
-0.087604829
-0.085121727
-0.082365742
-0.07937013
-0.07616763
-0.072792865
-0.069281638
-0.065669789
-0.061992596
-0.058284015
-0.054576155
-0.0508989
-0.047279572
-0.043742651
-0.040309592
-0.036998721
-0.033825213
-0.030801143
-0.027935592
-0.025234814
-0.022702436
-0.0203397
-0.018145718
-0.016117744
-0.014251455
-0.012541227
-0.010980403
-0.0095615542
-0.0082767196
-0.0071176321
-0.0060758991
-0.0051432274
-0.0043113558
-0.003572686
-0.002918467
-0.0023434036
-0.001831486
-0.001386864
-0.00096068559
-0.00053637706
-0.00032391792
-0.084090618
-0.084213433
-0.084489964
-0.085067781
-0.085310568
-0.085042846
-0.084381356
-0.083403168
-0.082109024
-0.080495579
-0.078581087
-0.076393075
-0.073958688
-0.071305179
-0.068461947
-0.065460272
-0.062332078
-0.059109283
-0.055823447
-0.052505134
-0.049183362
-0.045885221
-0.042635561
-0.039456728
-0.036368377
-0.033387365
-0.030527713
-0.027800638
-0.025214643
-0.022775655
-0.020487202
-0.018350626
-0.016365313
-0.014528945
-0.01283775
-0.011286759
-0.0098700517
-0.0085809926
-0.007412454
-0.0063570001
-0.0054070856
-0.0045550609
-0.0037935452
-0.0031143561
-0.002510796
-0.0019703418
-0.0014856996
-0.0010395993
-0.00053143293
-0.0004275269
-0.073606093
-0.074086975
-0.074679256
-0.075508717
-0.076053921
-0.076162086
-0.07592082
-0.075389661
-0.074566759
-0.073445982
-0.072038853
-0.070365555
-0.068447014
-0.066304897
-0.063963231
-0.061448324
-0.058787819
-0.056009932
-0.05314307
-0.050215432
-0.047254428
-0.044286189
-0.041335205
-0.038424022
-0.035572989
-0.032800072
-0.030120742
-0.027547931
-0.025092044
-0.022761028
-0.020560495
-0.018493869
-0.016562579
-0.014766265
-0.013103003
-0.011569534
-0.010161495
-0.0088736423
-0.0077000635
-0.0066343625
-0.0056698347
-0.004799518
-0.004016393
-0.003312815
-0.002681261
-0.0021116543
-0.0015894394
-0.0011185074
-0.00054840581
-0.00049743262
-0.064001887
-0.064729627
-0.065544657
-0.066550807
-0.06731931
-0.067718569
-0.06781436
-0.067651693
-0.067225871
-0.066528285
-0.065564837
-0.064349185
-0.062896331
-0.061222489
-0.059346374
-0.057289219
-0.055074042
-0.052725017
-0.050267034
-0.04772531
-0.045124954
-0.042490464
-0.039845298
-0.037211533
-0.034609575
-0.03205791
-0.029572927
-0.027168799
-0.024857431
-0.022648462
-0.020549312
-0.018565288
-0.016699711
-0.014954083
-0.013328273
-0.011820716
-0.010428619
-0.0091481663
-0.0079747162
-0.0069029781
-0.0059271692
-0.0050410898
-0.0042382157
-0.0035114474
-0.0028529308
-0.0022542641
-0.0016970199
-0.0011977908
-0.00058338367
-0.00053864306
-0.055259049
-0.056146068
-0.057105919
-0.058223638
-0.059146585
-0.059762016
-0.060119048
-0.060251117
-0.060151169
-0.059808624
-0.059224813
-0.058407831
-0.05736737
-0.056114567
-0.054663096
-0.053029239
-0.051231337
-0.049289283
-0.047224155
-0.045057834
-0.042812605
-0.040510734
-0.038174038
-0.035823512
-0.033479001
-0.03115892
-0.028880023
-0.026657225
-0.024503487
-0.02242975
-0.020444929
-0.018555948
-0.016767819
-0.015083758
-0.013505326
-0.012032592
-0.01066431
-0.0093980981
-0.0082306147
-0.0071577223
-0.0061746262
-0.0052759592
-0.004455813
-0.003707674
-0.0030237587
-0.0023968251
-0.0018070916
-0.0012775341
-0.00063141385
-0.00055818897
-0.04734319
-0.048322215
-0.049364793
-0.050540499
-0.051559977
-0.0523272
-0.052878529
-0.05323838
-0.053398096
-0.05334579
-0.053079261
-0.052602075
-0.051919402
-0.051037904
-0.049966674
-0.04871737
-0.047303825
-0.045741656
-0.044047981
-0.042241105
-0.040340165
-0.038364746
-0.03633451
-0.034268818
-0.032186392
-0.03010501
-0.028041242
-0.026010228
-0.02402551
-0.022098913
-0.020240476
-0.01845843
-0.016759226
-0.015147594
-0.013626639
-0.012197964
-0.010861805
-0.0096171862
-0.008462069
-0.0073934941
-0.006407704
-0.0055002266
-0.0046658744
-0.0038987819
-0.003191549
-0.0025377927
-0.0019180584
-0.0013574391
-0.00068731204
-0.00056381764
-0.040209798
-0.041230432
-0.042308185
-0.043499968
-0.044569163
-0.045434585
-0.04612293
-0.046651735
-0.047011493
-0.047189709
-0.047181657
-0.046987406
-0.046608483
-0.046047807
-0.045310506
-0.044404113
-0.043338304
-0.042124628
-0.040776304
-0.039307986
-0.037735479
-0.036075409
-0.034344899
-0.03256123
-0.030741511
-0.028902369
-0.027059672
-0.025228276
-0.023421821
-0.021652569
-0.01993128
-0.018267144
-0.016667749
-0.015139094
-0.013685633
-0.012310352
-0.011014871
-0.0097995555
-0.0086636385
-0.007605341
-0.0066219715
-0.0057100019
-0.004865053
-0.0040819798
-0.0033539965
-0.0026754393
-0.00202815
-0.0014368298
-0.00074642287
-0.00056263818
-0.033808708
-0.034834395
-0.035912262
-0.037088828
-0.038171379
-0.039091842
-0.039869702
-0.040517356
-0.041025104
-0.041380472
-0.041577121
-0.041612593
-0.04148566
-0.04119628
-0.040746329
-0.040139828
-0.039382794
-0.038483079
-0.037450239
-0.036295385
-0.035030968
-0.033670533
-0.032228432
-0.030719545
-0.029158982
-0.027561788
-0.025942663
-0.024315707
-0.022694189
-0.021090357
-0.019515273
-0.017978705
-0.016489041
-0.015053261
-0.013676928
-0.012364224
-0.011118004
-0.0099398735
-0.0088302754
-0.0077885818
-0.0068131713
-0.0059014913
-0.0050500375
-0.0042544558
-0.003508735
-0.0028078964
-0.0021355135
-0.0015147305
-0.00080514463
-0.0005600697
-0.028087461
-0.029092759
-0.030145991
-0.031285141
-0.032353981
-0.033295925
-0.034125139
-0.034850262
-0.035461904
-0.03594812
-0.036301725
-0.036518601
-0.03659558
-0.036530438
-0.03632253
-0.035973035
-0.035484907
-0.034862782
-0.034112935
-0.03324319
-0.032262794
-0.031182227
-0.030013
-0.028767412
-0.027458309
-0.026098822
-0.024702107
-0.023281093
-0.021848251
-0.020415381
-0.018993434
-0.017592359
-0.016220988
-0.014886961
-0.013596676
-0.012355276
-0.011166668
-0.010033557
-0.0089574953
-0.0079389469
-0.0069773356
-0.0060710921
-0.0052176285
-0.0044134399
-0.0036533921
-0.0029332146
-0.0022383042
-0.0015899817
-0.00086110644
-0.00055934828
-0.022993579
-0.023961794
-0.024973954
-0.026060994
-0.027096983
-0.028035318
-0.028886261
-0.029655742
-0.030335036
-0.030913086
-0.031382473
-0.031738129
-0.031975665
-0.032091376
-0.032082794
-0.031948936
-0.03169031
-0.031308899
-0.030808161
-0.030193017
-0.029469779
-0.028646035
-0.027730513
-0.026732897
-0.025663641
-0.02453375
-0.023354556
-0.022137488
-0.020893853
-0.019634621
-0.018370237
-0.017110451
-0.015864173
-0.014639365
-0.013442956
-0.012280794
-0.011157614
-0.010077042
-0.0090416069
-0.0080527678
-0.0071109389
-0.0062155141
-0.005364835
-0.0045562829
-0.0037856566
-0.0030494381
-0.0023347604
-0.0016613542
-0.00091301153
-0.00056164808
-0.018476398
-0.019397572
-0.020358746
-0.021384992
-0.022375538
-0.023292386
-0.024142928
-0.024931163
-0.025649242
-0.026287221
-0.026837885
-0.027295774
-0.02765586
-0.02791356
-0.028065204
-0.028108272
-0.028041439
-0.027864601
-0.027578924
-0.027186872
-0.026692191
-0.026099861
-0.02541601
-0.024647802
-0.023803297
-0.022891286
-0.021921114
-0.020902481
-0.019845247
-0.018759235
-0.01765404
-0.016538859
-0.015422332
-0.014312409
-0.013216238
-0.012140086
-0.011089272
-0.010068135
-0.0090800128
-0.0081272321
-0.0072111097
-0.0063319516
-0.0054890113
-0.0046805665
-0.0039033681
-0.0031546918
-0.0024232592
-0.0017276413
-0.00096027944
-0.00056665374
-0.014488166
-0.015357424
-0.016262724
-0.017224198
-0.018161981
-0.019045449
-0.019879871
-0.020667861
-0.021402538
-0.022075182
-0.022679073
-0.023208759
-0.02365902
-0.024024873
-0.024301964
-0.024486783
-0.024576723
-0.024570143
-0.024466434
-0.024266081
-0.023970691
-0.02358299
-0.023106791
-0.022546933
-0.021909197
-0.021200195
-0.02042723
-0.019598152
-0.01872119
-0.017804783
-0.016857404
-0.015887395
-0.014902813
-0.013911279
-0.012919859
-0.01193495
-0.010962197
-0.010006423
-0.0090715798
-0.0081607074
-0.0072759065
-0.0064183136
-0.0055880458
-0.0047842573
-0.0040046396
-0.003247288
-0.0025023681
-0.0017877288
-0.0010026698
-0.00057329168
-0.010985416
-0.011801568
-0.012649815
-0.013546074
-0.014427862
-0.015270847
-0.016078697
-0.016853025
-0.017587926
-0.018275912
-0.018910926
-0.019487796
-0.020001417
-0.020446766
-0.020819211
-0.021114693
-0.021329801
-0.021461839
-0.021508908
-0.021469982
-0.021344969
-0.021134735
-0.020841118
-0.02046691
-0.020015818
-0.019492402
-0.018901984
-0.018250546
-0.017544602
-0.01679106
-0.015997079
-0.015169917
-0.014316785
-0.013444705
-0.012560378
-0.011670061
-0.010779464
-0.0098936603
-0.0090170064
-0.0081530798
-0.0073046216
-0.0064734898
-0.0056605872
-0.0048658961
-0.0040880114
-0.0033258514
-0.0025709066
-0.0018406575
-0.0010400288
-0.0005803471
-0.0079291161
-0.0086937299
-0.0094865555
-0.010319887
-0.011145691
-0.011944969
-0.012720167
-0.013472146
-0.014195926
-0.014885193
-0.015534626
-0.016139484
-0.016694982
-0.017196298
-0.017638811
-0.01801826
-0.018330805
-0.018573102
-0.018742383
-0.018836543
-0.018854204
-0.018794776
-0.018658484
-0.018446396
-0.018160413
-0.017803253
-0.017378401
-0.016890047
-0.016343002
-0.015742596
-0.01509457
-0.014404944
-0.013679896
-0.012925631
-0.012148248
-0.011353625
-0.0105473
-0.0097343642
-0.0089193713
-0.0081062482
-0.0072982174
-0.0064977277
-0.0057063654
-0.0049248656
-0.0041526662
-0.0033894876
-0.0026280467
-0.0018857023
-0.0010722077
-0.00058683075
-0.0052856926
-0.0060020085
-0.0067428306
-0.0075172858
-0.0082893344
-0.0090444856
-0.0097842268
-0.010508841
-0.011214179
-0.011895002
-0.012546722
-0.0131651
-0.013745777
-0.014284279
-0.014776192
-0.01521729
-0.015603588
-0.015931412
-0.01619747
-0.016398938
-0.016533532
-0.016599571
-0.016596031
-0.016522587
-0.016379635
-0.016168308
-0.015890461
-0.015548645
-0.015146063
-0.014686506
-0.014174275
-0.013614087
-0.013010974
-0.012370171
-0.011697004
-0.010996774
-0.01027464
-0.0095355111
-0.0087839385
-0.0080240154
-0.0072592808
-0.0064926318
-0.0057262181
-0.004961432
-0.0041984746
-0.0034378233
-0.0026733317
-0.0019223881
-0.0010990515
-0.00059207583
-0.0030292056
-0.0037021325
-0.0043960535
-0.005117415
-0.0058400602
-0.006553249
-0.0072577041
-0.0079532493
-0.0086364551
-0.0093030263
-0.0099490582
-0.010570821
-0.011164421
-0.011725797
-0.012250855
-0.012735552
-0.013175956
-0.01356829
-0.013909004
-0.014194849
-0.014422945
-0.014590848
-0.014696613
-0.014738843
-0.01471674
-0.014630129
-0.014479485
-0.01426593
-0.013991219
-0.013657719
-0.013268355
-0.012826557
-0.012336179
-0.01180142
-0.011226725
-0.010616687
-0.0099759342
-0.0093090291
-0.0086203533
-0.0079140013
-0.007193672
-0.006462567
-0.0057232716
-0.0049777246
-0.0042267932
-0.0034716436
-0.002707171
-0.0019508686
-0.0011207171
-0.00059585777
-0.0011336949
-0.0017683153
-0.0024208297
-0.0030952913
-0.0037736275
-0.0044482129
-0.0051191596
-0.0057859131
-0.0064456421
-0.0070948546
-0.0077302499
-0.0083485722
-0.0089463777
-0.0095200309
-0.010065795
-0.010579897
-0.011058565
-0.011498074
-0.0118948
-0.012245283
-0.012546291
-0.012794881
-0.012988465
-0.013124865
-0.013202367
-0.013219773
-0.013176433
-0.013072273
-0.01290781
-0.012684149
-0.012402971
-0.012066498
-0.011677455
-0.011239
-0.010754665
-0.010228264
-0.0096638038
-0.0090653828
-0.0084370856
-0.0077828723
-0.0071064648
-0.0064112357
-0.005700079
-0.0049753638
-0.0042385157
-0.0034913034
-0.0027295564
-0.0019708935
-0.0011368894
-0.00059780259
0.00039687603
-0.00020645224
-0.00082480514
-0.001460485
-0.0021018091
-0.0027435861
-0.0033854338
-0.0040264983
-0.0046644289
-0.0052963839
-0.0059195643
-0.0065311222
-0.0071280127
-0.0077069907
-0.008264668
-0.008797557
-0.0093021001
-0.0097747042
-0.010211785
-0.010609819
-0.010965397
-0.011275282
-0.011536467
-0.011746238
-0.011902227
-0.01200247
-0.012045457
-0.012030171
-0.011956127
-0.011823384
-0.011632564
-0.011384841
-0.011081927
-0.010726036
-0.010319834
-0.0098663764
-0.0093690335
-0.0088314011
-0.0082572021
-0.0076501796
-0.0070139824
-0.006352049
-0.0056674721
-0.0049629399
-0.0042403235
-0.003501892
-0.0027442836
-0.0019852189
-0.0011494989
-0.0005989272
0.0016065403
0.001029018
0.00043867424
-0.00016518785
-0.00077584809
-0.0013900506
-0.0020070356
-0.0026257029
-0.0032440661
-0.0038597897
-0.0044704736
-0.0050736001
-0.0056664543
-0.0062461212
-0.0068095184
-0.0073534236
-0.0078744965
-0.008369305
-0.0088343608