/*--------------------------------*- C++ -*----------------------------------*\
  =========                 |
  \\      /  F ield         | OpenFOAM: The Open Source CFD Toolbox
   \\    /   O peration     | Website:  https://openfoam.org
    \\  /    A nd           | Version:  6
     \\/     M anipulation  |
\*---------------------------------------------------------------------------*/
FoamFile
{
    version     2.0;
    format      ascii;
    class       volVectorField;
    location    "129";
    object      U;
}
// * * * * * * * * * * * * * * * * * * * * * * * * * * * * * * * * * * * * * //

dimensions      [0 1 -1 0 0 0 0];

internalField   nonuniform List<vector> 
9200
(
(0.001039419 0.0014199437 -5.9202411e-20)
(0.013676384 -0.0020585347 4.6043043e-20)
(0.038313855 -0.0058668626 -3.8502141e-20)
(0.072275599 -0.009763928 -6.0258358e-20)
(0.11376646 -0.013490583 1.8827183e-20)
(0.16158323 -0.016606345 3.2744231e-20)
(0.21467451 -0.018818107 -1.2268161e-20)
(0.27206983 -0.019974847 9.2689801e-21)
(0.33286073 -0.020012315 1.6803587e-20)
(0.39616874 -0.018930283 1.4848235e-21)
(0.46112158 -0.016781191 -2.1456593e-20)
(0.5268436 -0.013659256 2.067026e-20)
(0.59245808 -0.0096896821 -4.0422618e-20)
(0.6570993 -0.0050176301 -2.1134193e-20)
(0.7199332 0.00020352497 5.9047291e-21)
(0.78018389 0.005821861 -2.5132068e-20)
(0.83717974 0.011710364 2.5217556e-20)
(0.89047804 0.017915831 2.2243782e-20)
(0.93968001 0.024570481 -2.99183e-22)
(0.98206107 0.028290219 -1.6690424e-21)
(0.0052523044 -0.0013463399 -1.7059515e-20)
(0.026962972 -0.0089892642 3.9748121e-20)
(0.061671063 -0.014810151 2.3576539e-20)
(0.10629641 -0.019172794 -1.1569867e-19)
(0.15873783 -0.022214653 -1.2727225e-20)
(0.21753641 -0.023721468 7.3297751e-20)
(0.28137662 -0.023596001 -3.5476754e-20)
(0.34901045 -0.02186999 -8.3906392e-21)
(0.41924443 -0.01864667 3.4287905e-20)
(0.49091542 -0.014082112 -4.3260073e-20)
(0.56287901 -0.0083773534 -3.0338872e-20)
(0.6340158 -0.0017681393 7.1922459e-20)
(0.70325118 0.0054866938 3.8294585e-20)
(0.76958413 0.01311676 -6.7977638e-20)
(0.83212108 0.02085002 1.462396e-20)
(0.89010917 0.028417433 -3.6734067e-20)
(0.94297801 0.035567174 -1.377739e-20)
(0.99044106 0.042138142 7.0976354e-20)
(1.0323646 0.047712309 2.964294e-20)
(1.0669431 0.049136464 -8.3479352e-20)
(0.010858612 -0.0040425072 3.6773775e-20)
(0.043954064 -0.015431372 2.504755e-21)
(0.090516675 -0.022552739 2.2341944e-20)
(0.14711332 -0.026497952 9.8117687e-22)
(0.21134522 -0.027887014 -4.0774372e-20)
(0.28147114 -0.026795943 1.8576554e-20)
(0.35587468 -0.023383661 1.3420442e-20)
(0.43299516 -0.017922572 -5.0328217e-20)
(0.51133063 -0.01073679 5.7262488e-20)
(0.58943271 -0.0021851325 1.4256897e-20)
(0.66591635 0.0073465282 -5.4301468e-20)
(0.73948807 0.017458744 -1.8237723e-20)
(0.80898407 0.027754881 9.0591162e-21)
(0.87341098 0.037857405 2.3445154e-20)
(0.93198207 0.04742197 -1.1362755e-20)
(0.9841421 0.056146671 2.7878246e-20)
(1.0295823 0.063786626 -2.0188583e-20)
(1.0682725 0.070201583 -7.0125072e-20)
(1.1003398 0.075116303 -2.3796853e-20)
(1.1249185 0.076637923 4.866053e-20)
(0.017957472 -0.0064222733 2.4508211e-20)
(0.064777848 -0.020695132 5.1039665e-20)
(0.12485384 -0.028061342 1.9881861e-20)
(0.194472 -0.030464687 1.2990179e-20)
(0.27095249 -0.029095568 1.7275838e-20)
(0.35225282 -0.024389795 -4.7720604e-20)
(0.43643625 -0.016826871 -2.5647109e-20)
(0.52162574 -0.0069776525 0)
(0.60603534 0.0045659585 1.3920895e-20)
(0.68799407 0.017210552 -5.8525235e-21)
(0.76598267 0.030372615 -9.7936287e-20)
(0.83868232 0.043498174 -1.5774964e-20)
(0.90502332 0.05608498 6.5104358e-20)
(0.96422382 0.067702294 4.8429006e-22)
(1.0158115 0.078005645 -1.5725858e-21)
(1.0596234 0.086744474 2.1957913e-20)
(1.0957848 0.093769647 -5.2648548e-21)
(1.1246871 0.099062483 -6.1030915e-20)
(1.1468715 0.10259396 -4.5852217e-20)
(1.162302 0.10341049 6.9521585e-20)
(0.026579759 -0.0082058087 -3.9194395e-21)
(0.089345093 -0.024033853 -5.1256628e-21)
(0.16430943 -0.030265485 5.6599856e-20)
(0.24758397 -0.02981062 1.8539466e-20)
(0.33624528 -0.024513706 -3.195534e-20)
(0.42795581 -0.015240603 1.2163941e-20)
(0.520478 -0.0028521668 2.6403137e-21)
(0.6116697 0.011736223 3.3609593e-20)
(0.69955387 0.027639184 5.660024e-21)
(0.78237563 0.044027702 -1.3204995e-20)
(0.85866165 0.060146518 6.0155122e-20)
(0.92727689 0.075339094 -5.8010162e-20)
(0.98746457 0.089071282 -1.3216833e-19)
(1.0388608 0.10094721 -5.5774015e-21)
(1.08148 0.11071503 8.3152322e-20)
(1.1156727 0.11826173 0)
(1.1420616 0.12360323 1.0119124e-20)
(1.1614732 0.1268877 -1.5460064e-20)
(1.1748239 0.12829558 -8.5996328e-21)
(1.1826728 0.12744579 2.0992574e-20)
(0.036667335 -0.0090897008 -5.4309165e-21)
(0.11731641 -0.024685691 4.3579068e-21)
(0.20812092 -0.028140634 -8.7630485e-21)
(0.30516021 -0.023415482 2.847261e-20)
(0.40533952 -0.013076166 -2.9392929e-20)
(0.50607648 0.0015220019 -1.6927189e-20)
(0.6049107 0.019094483 3.7364519e-20)
(0.69955605 0.038364536 4.7595612e-21)
(0.78801089 0.058166838 -2.4436511e-20)
(0.86864138 0.077482073 6.9868544e-20)
(0.94024723 0.095457549 5.2381642e-22)
(1.0021031 0.11143027 -8.0445718e-20)
(1.0539643 0.12494139 0)
(1.0960345 0.13573573 3.9542871e-20)
(1.128899 0.14374639 5.523713e-21)
(1.1534343 0.14906662 -7.7567778e-20)
(1.1707051 0.15191656 -1.9587265e-20)
(1.181868 0.15262085 -1.2467852e-20)
(1.1880645 0.15152298 -1.4709656e-20)
(1.190151 0.14858163 4.0421217e-20)
(0.048059385 -0.0087675151 -1.727805e-20)
(0.14808463 -0.021932282 -2.2199116e-21)
(0.25514326 -0.020798206 3.0380693e-20)
(0.36546742 -0.010413198 3.7484534e-20)
(0.47590873 0.0059011688 -1.9944896e-20)
(0.58374804 0.026268872 -6.9163745e-20)
(0.68644794 0.04897674 -2.7996168e-20)
(0.78176868 0.072417255 7.8930178e-20)
(0.86790899 0.095211839 8.5780198e-21)
(0.94359639 0.11624883 -2.4873777e-20)
(1.0081331 0.13469729 1.3642307e-20)
(1.0613942 0.15001435 -4.3195607e-21)
(1.1037762 0.16193513 0)
(1.1361041 0.17044255 2.7203922e-20)
(1.1595109 0.17572109 -7.9323716e-20)
(1.1753079 0.17810142 -3.1476047e-20)
(1.1848625 0.17800561 8.1055918e-20)
(1.1894972 0.17590669 -4.2970858e-21)
(1.1904077 0.17225261 3.5561568e-21)
(1.1885125 0.16718982 2.7112065e-20)
(0.060485857 -0.0069574502 -3.2414781e-20)
(0.18077948 -0.015170593 -8.1624889e-20)
(0.30389215 -0.0075837716 2.5797024e-21)
(0.42642947 0.0097031209 7.0162395e-20)
(0.54535633 0.032631334 6.2424939e-20)
(0.65798664 0.058819823 -7.1575133e-20)
(0.76191509 0.086176253 -2.8265049e-22)
(0.85518961 0.11285197 8.5523725e-20)
(0.9364604 0.13737791 4.8828712e-20)
(1.0050485 0.15869306 -5.4219223e-20)
(1.0609425 0.17613477 -9.2335587e-20)
(1.104731 0.18941242 -3.1590303e-21)
(1.1374823 0.19855805 4.2128507e-20)
(1.1605934 0.2038569 -6.6057339e-21)
(1.1756304 0.20576826 -1.2868979e-20)
(1.184183 0.204847 1.9691086e-20)
(1.1877477 0.20167655 4.3881301e-20)
(1.18765 0.19682325 -4.3860093e-20)
(1.1849998 0.19077602 -1.0232367e-19)
(1.1806292 0.18377082 2.4567341e-20)
(0.073537907 -0.0034330232 -3.4980008e-20)
(0.21422882 -0.0039891316 -1.7388702e-19)
(0.35251969 0.011839296 8.2103969e-20)
(0.48563215 0.037018309 9.2768312e-20)
(0.61085886 0.066835565 5.7971074e-20)
(0.72577305 0.098481196 8.6108065e-21)
(0.82835433 0.12959693 -1.0624127e-19)
(0.9171966 0.15824256 0)
(0.99163418 0.18302785 -6.8749621e-20)
(1.0517588 0.20311156 -1.520266e-20)
(1.0983449 0.21814785 5.4704247e-20)
(1.132707 0.2282098 1.0973546e-20)
(1.1565169 0.2336913 -4.5614511e-20)
(1.1716124 0.23519789 -4.9082055e-20)
(1.1798256 0.23344152 2.4288054e-20)
(1.18285 0.22915116 4.4823583e-20)
(1.1821535 0.22300758 -5.5601256e-20)
(1.1789404 0.21560576 -1.0751282e-19)
(1.174151 0.20741962 -3.1513592e-21)
(1.1684606 0.19871604 2.7046804e-20)
(0.086651213 0.0019613848 -3.544983e-21)
(0.2469623 0.011816661 8.7913839e-20)
(0.39885071 0.037492426 -1.6479007e-20)
(0.54040901 0.07121859 -8.4310028e-20)
(0.66950422 0.1077892 4.516483e-20)
(0.78422535 0.1441157 4.9175854e-20)
(0.88319564 0.17775689 5.5357471e-21)
(0.96578514 0.20688497 -9.9503723e-20)
(1.0321828 0.2303879 -2.5049116e-21)
(1.0833392 0.24781516 5.0504249e-20)
(1.1208131 0.25926237 5.9855602e-21)
(1.1465616 0.26523527 -1.971749e-20)
(1.1627162 0.26650413 -7.570567e-20)
(1.1713817 0.26396475 -6.2554674e-21)
(1.1744811 0.25852258 4.3533939e-20)
(1.1736594 0.25100896 3.7022507e-20)
(1.1702426 0.24213184 1.979367e-20)
(1.1652443 0.23245648 -5.2995713e-20)
(1.1594053 0.22240177 1.295748e-20)
(1.1532289 0.21223546 8.2660218e-20)
(-0.0012932764 0.0014346752 -1.1234632e-21)
(-0.0047460132 0.0031874478 2.0647171e-21)
(-0.010771474 0.0041359448 8.7948311e-22)
(-0.01775447 0.004539578 -2.4410652e-21)
(-0.024740564 0.0045654558 -1.4115327e-21)
(-0.031299892 0.004326072 1.546089e-21)
(-0.037161668 0.0039035638 -6.8702118e-21)
(-0.042147809 0.0033577382 -5.9574635e-21)
(-0.046158154 0.0027313874 1.1172218e-20)
(-0.049146562 0.0020548255 -9.74294e-21)
(-0.051101005 0.0013492834 -1.9833952e-22)
(-0.052030755 0.00062939215 3.6674148e-21)
(-0.051957991 -9.4932747e-05 -6.3296885e-22)
(-0.05091206 -0.00081698797 2.2819222e-20)
(-0.048925862 -0.0015319175 3.0401412e-22)
(-0.046035311 -0.0022352629 -4.088378e-20)
(-0.042281632 -0.0029223739 7.5387431e-21)
(-0.037703121 -0.0035911625 2.3864665e-20)
(-0.032308194 -0.0042401296 -4.3853429e-20)
(-0.02615626 -0.0048212754 -2.7739889e-20)
(-0.0016522181 0.0041809127 -5.371666e-21)
(-0.0053975381 0.0092682352 1.0865534e-20)
(-0.011218622 0.012007563 -1.0191636e-20)
(-0.017658195 0.013153886 3.9230554e-21)
(-0.02385665 0.013195526 4.8122583e-21)
(-0.02943357 0.012462819 7.1325742e-22)
(-0.034152593 0.011197084 -2.2509954e-20)
(-0.037860655 0.0095739394 -2.0370551e-21)
(-0.04047456 0.0077189983 2.016391e-20)
(-0.04195915 0.0057212073 -5.0474548e-21)
(-0.042309125 0.003642805 -2.1763004e-20)
(-0.041537438 0.0015266146 4.897412e-21)
(-0.039667718 -0.00059844435 2.2635859e-20)
(-0.03672897 -0.0027129431 1.0308601e-20)
(-0.032751782 -0.0048029171 2.1854758e-20)
(-0.027768755 -0.006855785 -1.9771156e-20)
(-0.02182419 -0.0088585477 -2.1673418e-20)
(-0.014965451 -0.010804607 2.1185128e-20)
(-0.0071279551 -0.012679441 2.6810986e-20)
(0.0018756369 -0.014317721 1.585511e-20)
(-0.0023034531 0.0065603038 -4.3569242e-21)
(-0.0065392869 0.014480343 -5.6387914e-21)
(-0.011892237 0.018710722 3.0723589e-22)
(-0.017211238 0.020428361 1.0959578e-21)
(-0.021819301 0.020400488 6.6919318e-21)
(-0.025431201 0.019151799 1.0665313e-20)
(-0.027877373 0.01706638 -3.7228302e-21)
(-0.029053369 0.014423828 -1.8896466e-20)
(-0.028909073 0.011424344 6.5414291e-21)
(-0.027430998 0.0082098403 1.2862797e-20)
(-0.024627549 0.0048796503 5.8341996e-21)
(-0.020519805 0.0015020482 1.8159429e-20)
(-0.015135516 -0.001877122 1.7296243e-21)
(-0.0085047343 -0.0052275788 -3.386517e-20)
(-0.00065600451 -0.0085280177 1.2020635e-21)
(0.0083821598 -0.011759598 -2.2139614e-20)
(0.018558296 -0.014904671 -2.4466854e-20)
(0.029803928 -0.017954418 4.5820744e-20)
(0.042307066 -0.020855878 2.5349957e-20)
(0.056741083 -0.023248621 1.2244183e-22)
(-0.0031290577 0.0083690567 -5.2833812e-21)
(-0.0078964663 0.018336689 -8.4817128e-21)
(-0.012439075 0.02358802 4.3593525e-21)
(-0.016026626 0.025609868 4.1464037e-21)
(-0.018235093 0.025382927 2.010594e-21)
(-0.018912673 0.023589459 7.321117e-21)
(-0.017984664 0.020730353 9.3126271e-21)
(-0.015416554 0.017170391 -1.3511599e-21)
(-0.011206759 0.013171253 -1.1482132e-20)
(-0.0053747821 0.0089187904 -2.9072358e-20)
(0.0020487574 0.0045432106 6.1900359e-23)
(0.011027382 0.00013399401 4.0698516e-20)
(0.02152336 -0.0042493634 -1.8383471e-20)
(0.033499282 -0.0085680981 -1.2296309e-20)
(0.046922276 -0.012796166 5.5347039e-22)
(0.061762229 -0.016912587 3.2303276e-20)
(0.077955555 -0.020902521 -1.4829894e-20)
(0.095395251 -0.024764354 -5.3340247e-20)
(0.11440192 -0.028380829 4.5765927e-20)
(0.13634942 -0.031074334 3.3013853e-20)
(-0.0039704443 0.0094658237 -6.8788463e-22)
(-0.0090917235 0.020487973 -1.2534894e-20)
(-0.012364532 0.026159297 -3.4145026e-20)
(-0.013552561 0.028143538 -5.7242637e-21)
(-0.012533187 0.027555167 -3.6223023e-21)
(-0.0093165636 0.025188164 6.3051967e-21)
(-0.0039453401 0.021627437 -4.6462683e-21)
(0.0035266127 0.017298899 -8.807155e-21)
(0.013037522 0.012508596 2.1900027e-20)
(0.024522197 0.0074741847 5.0567718e-21)
(0.037916787 0.0023485373 -2.5290713e-20)
(0.053159026 -0.0027632658 1.107844e-20)
(0.070188821 -0.0077914773 0)
(0.088948948 -0.012692033 1.2089776e-20)
(0.10938826 -0.017437783 -9.7017837e-21)
(0.13146073 -0.022010901 -1.433739e-20)
(0.15507792 -0.0264098 -1.5738441e-21)
(0.18007203 -0.030660732 -2.2182279e-21)
(0.20685845 -0.034578012 4.6147838e-20)
(0.23766931 -0.037021507 -1.0470441e-20)
(-0.0046451332 0.0097809479 -7.5357509e-21)
(-0.0096773034 0.02074804 2.4516729e-20)
(-0.011064393 0.026161154 -1.0499502e-20)
(-0.0090967568 0.027724597 -2.7469641e-20)
(-0.0039795102 0.026601792 -2.7548483e-20)
(0.004096573 0.023648429 -1.4921765e-20)
(0.014954763 0.019496385 -6.9060546e-22)
(0.028437116 0.014604529 5.5500467e-21)
(0.04440434 0.0093031558 1.9616127e-20)
(0.062732044 0.0038280022 7.3531852e-21)
(0.083306263 -0.0016552982 -7.186315e-21)
(0.10602136 -0.0070329183 -2.0102385e-21)
(0.13077645 -0.01222992 -3.8192283e-20)
(0.15747284 -0.017200725 -1.2693839e-20)
(0.18601597 -0.021920864 1.8750947e-20)
(0.21631635 -0.02638101 -2.1022051e-20)
(0.24823746 -0.030603687 -8.9732117e-21)
(0.28152457 -0.034672252 3.0440923e-20)
(0.31661363 -0.038366656 5.0472879e-20)
(0.3566575 -0.039966124 3.356032e-21)
(-0.0049617987 0.009314069 1.6783478e-20)
(-0.0091662932 0.019097827 1.4468091e-20)
(-0.0078593059 0.023563478 5.1146106e-20)
(-0.0018583336 0.024329012 2.3388283e-20)
(0.0082961332 0.022523779 1.8252011e-22)
(0.022222609 0.019014287 -3.9388944e-20)
(0.039598422 0.01444073 -2.4314166e-20)
(0.060149246 0.009266032 1.0465938e-20)
(0.083640869 0.0038227698 1.4401762e-20)
(0.1098689 -0.0016518967 -1.3113853e-20)
(0.13864835 -0.0069917535 -4.40393e-20)
(0.16980497 -0.012083744 2.9618905e-20)
(0.20316791 -0.016855216 2.0020805e-20)
(0.23856395 -0.021265218 -2.7551549e-20)
(0.27581745 -0.025297798 1.1650321e-20)
(0.31475395 -0.028958742 2.4197979e-20)
(0.355152 -0.032304811 8.072536e-21)
(0.39664113 -0.035508628 -1.1764439e-20)
(0.43958498 -0.038394798 -1.4190462e-20)
(0.4879938 -0.038636766 5.8730374e-21)
(-0.0047307943 0.0081237212 1.1093973e-20)
(-0.007058576 0.015671233 -2.3353037e-20)
(-0.002029205 0.018562056 8.6201211e-21)
(0.0090328949 0.018216183 3.358838e-20)
(0.025257018 0.015651017 5.2124955e-20)
(0.046067339 0.01169536 2.0276747e-20)
(0.070985929 0.006960586 -5.8640122e-21)
(0.099603813 0.0018824509 -1.2286412e-20)
(0.13157132 -0.0032278413 -6.2058346e-21)
(0.16657861 -0.0081504507 3.4241246e-20)
(0.20433779 -0.01273427 -4.5105253e-21)
(0.24456903 -0.0168803 -1.664353e-20)
(0.28698955 -0.020529967 -1.9693811e-20)
(0.33130554 -0.023657868 -4.744439e-20)
(0.37721085 -0.026267168 2.3239026e-20)
(0.42439468 -0.028389682 -1.4096196e-20)
(0.47250742 -0.030129631 2.599383e-20)
(0.52104455 -0.031785394 2.104116e-20)
(0.57022295 -0.033353088 -8.5571449e-20)
(0.62471877 -0.032061468 -1.0801021e-22)
(-0.0037710493 0.0063146602 2.1925283e-20)
(-0.0028656707 0.010735081 -2.6165853e-20)
(0.007142402 0.011564057 -4.50138e-20)
(0.02445082 0.0099248205 -2.7254096e-20)
(0.047871805 0.0066520279 -2.0440097e-21)
(0.076630093 0.002490216 1.3050218e-20)
(0.11007862 -0.0020159298 -2.8337832e-21)
(0.14765451 -0.00648858 1.8118726e-20)
(0.18886401 -0.010664327 8.8686438e-21)
(0.23325565 -0.014363399 -1.1380296e-20)
(0.28039588 -0.017470085 8.8780495e-21)
(0.32985113 -0.019918106 -2.3903555e-20)
(0.38117462 -0.021680167 8.0506083e-21)
(0.43389739 -0.02276152 1.6756622e-20)
(0.4875266 -0.023196127 -2.6395481e-21)
(0.54155508 -0.023048905 1.6619157e-21)
(0.59544401 -0.022471651 -3.1956004e-22)
(0.64852695 -0.021872505 1.9590718e-20)
(0.70083199 -0.021447664 4.0434583e-21)
(0.75746149 -0.018501903 -5.7365854e-22)
(-0.001910982 0.0040273396 2.3692379e-20)
(0.0038696219 0.0046764289 5.7160636e-20)
(0.020315782 0.0031877761 -4.9244761e-20)
(0.045179132 0.00029412708 -9.9455234e-21)
(0.076966457 -0.0034245736 2.0256547e-20)
(0.11469806 -0.0073541387 2.1433935e-21)
(0.15754126 -0.011055646 -2.981546e-20)
(0.20475139 -0.01424497 6.984866e-21)
(0.25565326 -0.016738904 7.1098845e-21)
(0.30960921 -0.018428082 -2.6254376e-20)
(0.3659917 -0.019261376 1.2927528e-21)
(0.42416554 -0.019233304 -3.7174571e-20)
(0.48347769 -0.018373804 -3.6341492e-20)
(0.54325302 -0.01674005 6.5684408e-20)
(0.60279612 -0.014409257 5.5628344e-21)
(0.66139742 -0.011478044 -1.5189082e-20)
(0.7183169 -0.0081043911 1.9364251e-20)
(0.77270845 -0.0045954195 -9.1889521e-22)
(0.82409806 -0.00097082032 2.0364722e-20)
(0.87622952 0.0043250638 -1.9554622e-20)
(-0.018835467 -0.0050998776 5.8353539e-20)
(-0.010223401 -0.0056351198 1.5784049e-20)
(-0.00021958859 -0.0060690911 -3.5140462e-20)
(0.010825229 -0.0063343364 1.679072e-20)
(0.022644908 -0.0065122885 0)
(0.035180809 -0.006630346 0)
(0.048373116 -0.0066912433 -2.2975629e-20)
(0.062142109 -0.0067028231 -1.6503361e-20)
(0.07641738 -0.0066744704 1.9123228e-20)
(0.091139421 -0.0066129741 1.8174637e-20)
(0.10625326 -0.0065235261 1.0524501e-21)
(0.1217071 -0.0064106899 -1.0317967e-20)
(0.13745263 -0.0062784243 8.3272247e-21)
(0.15344465 -0.0061300764 1.823433e-20)
(0.16964039 -0.0059685097 -5.227679e-21)
(0.1859992 -0.0057962097 -1.0175284e-20)
(0.20248235 -0.0056153476 -4.3197366e-21)
(0.21905279 -0.0054278323 -4.4258584e-21)
(0.23567512 -0.0052353562 7.3668462e-22)
(0.25231547 -0.0050394296 1.2286608e-21)
(0.2689415 -0.0048414077 2.5667952e-21)
(0.28552244 -0.0046425102 6.6542654e-21)
(0.30202911 -0.0044438366 2.488772e-22)
(0.31843398 -0.0042463763 -3.4516682e-21)
(0.33471121 -0.004051017 1.5557744e-22)
(0.35083674 -0.0038585505 -5.7713638e-22)
(0.36678833 -0.0036696768 1.2435272e-21)
(0.38254558 -0.0034850086 1.0522896e-21)
(0.39809 -0.0033050745 -1.2989867e-21)
(0.41340496 -0.0031303228 -1.2217893e-22)
(0.42847577 -0.0029611258 3.5640396e-23)
(0.44328958 -0.0027977837 -3.5192403e-22)
(0.45783544 -0.0026405299 -4.0577543e-22)
(0.47210417 -0.0024895359 5.5496125e-23)
(0.48608839 -0.0023449174 -1.3812211e-22)
(0.49978245 -0.0022067399 -2.2347782e-22)
(0.51318236 -0.002075026 2.5578724e-22)
(0.52628584 -0.0019497617 2.9511408e-22)
(0.53909212 -0.0018309054 -8.3371826e-24)
(0.55160239 -0.0017183921 -1.5534087e-22)
(0.56381868 -0.0016121613 3.0404968e-23)
(0.57574766 -0.0015121128 -4.0163754e-23)
(0.58738959 -0.0014183188 9.2340865e-23)
(0.59877366 -0.0013304428 2.1947895e-23)
(0.60985413 -0.0012497727 -1.1432966e-22)
(0.62082386 -0.0011730933 -6.7936448e-24)
(0.63120353 -0.0011126582 -5.5783807e-26)
(0.64250905 -0.001035461 -3.6125462e-24)
(0.65059639 -0.0010525053 2.9439053e-23)
(0.66721232 -0.0008774923 3.6097279e-22)
(0.010447514 -0.015018145 -1.2747187e-20)
(0.018181655 -0.016641602 -6.3303908e-20)
(0.027781541 -0.017916058 -3.0542802e-20)
(0.038387883 -0.018672763 3.8477083e-20)
(0.049624177 -0.019184323 1.4663034e-20)
(0.061510312 -0.01953021 -1.8205521e-20)
(0.074017043 -0.019710684 4.6724201e-21)
(0.087067477 -0.019747351 2.5447952e-20)
(0.10059858 -0.019668178 9.1921028e-23)
(0.11456014 -0.019492634 -7.6594085e-21)
(0.12890403 -0.019235328 -1.3021328e-20)
(0.14358366 -0.018909314 -8.524892e-21)
(0.15855514 -0.018526008 1.7772934e-20)
(0.17377695 -0.018095068 8.9301025e-21)
(0.18920936 -0.017624778 -1.6522891e-20)
(0.20481417 -0.017122361 -6.0392745e-21)
(0.22055465 -0.016594156 3.2145834e-21)
(0.23639544 -0.016045761 8.3718794e-21)
(0.25230247 -0.015482153 6.9835425e-21)
(0.26824301 -0.014907794 -6.9731576e-21)
(0.28418563 -0.014326698 -3.1688793e-21)
(0.30010032 -0.013742492 1.3607778e-21)
(0.31595849 -0.013158451 3.8707547e-22)
(0.3317331 -0.01257753 1.2115241e-21)
(0.3473987 -0.012002387 1.8375129e-22)
(0.3629315 -0.011435394 -3.266972e-22)
(0.37830946 -0.010878655 -7.2446063e-22)
(0.39351228 -0.010334015 9.7181177e-22)
(0.40852152 -0.0098030688 8.2501367e-22)
(0.42332053 -0.009287172 -1.5166286e-22)
(0.4378945 -0.0087874541 5.5323644e-22)
(0.45223045 -0.0083048303 -2.3884186e-22)
(0.46631721 -0.0078400158 -3.7087115e-22)
(0.48014535 -0.0073935417 -6.1020897e-22)
(0.49370718 -0.0069657717 4.4181897e-22)
(0.50699672 -0.0065569207 -1.5679287e-23)
(0.5200096 -0.0061670742 1.6146189e-22)
(0.53274311 -0.0057962082 -4.4208502e-22)
(0.54519608 -0.0054442172 3.7235993e-22)
(0.55736923 -0.005110924 6.7221407e-23)
(0.5692641 -0.0047961654 -1.0286215e-22)
(0.58088689 -0.0044996588 1.7647949e-22)
(0.59223739 -0.0042216368 2.3393824e-22)
(0.60334406 -0.0039611091 1.6975036e-22)
(0.61416134 -0.0037219345 1.682812e-22)
(0.62487919 -0.0034945392 -2.6214404e-23)
(0.63502473 -0.003315443 8.4647156e-23)
(0.64609087 -0.0030864011 7.689692e-23)
(0.65399868 -0.0031374533 -1.9553145e-22)
(0.6702955 -0.0026182293 -3.7922679e-23)
(0.067617587 -0.024030061 9.4530873e-21)
(0.073592893 -0.026750049 3.29524e-21)
(0.082269118 -0.028806654 -1.2162679e-20)
(0.091951865 -0.029969662 -1.2258924e-21)
(0.10198772 -0.030769091 1.4971083e-20)
(0.11255135 -0.031332186 -1.4887559e-20)
(0.12368153 -0.03163743 -2.9843252e-20)
(0.13530297 -0.031714428 1.4494055e-20)
(0.14736374 -0.031609119 1.8182632e-20)
(0.15983089 -0.031351597 -1.1598949e-20)
(0.17266879 -0.030963418 1.0190898e-21)
(0.1858398 -0.030464406 8.6861574e-21)
(0.19930766 -0.029872258 -1.5254184e-20)
(0.21303728 -0.029201997 2.9099702e-21)
(0.2269941 -0.02846657 7.5198195e-21)
(0.2411441 -0.027677365 3.1331518e-23)
(0.25545393 -0.026844469 2.6539668e-22)
(0.269891 -0.025976857 -7.4155387e-21)
(0.28442349 -0.025082576 3.8622165e-21)
(0.29902048 -0.024168883 8.4754803e-21)
(0.31365203 -0.023242351 -3.835446e-21)
(0.32828931 -0.022308946 -2.2131498e-21)
(0.3429047 -0.021374087 1.0124122e-21)
(0.35747189 -0.020442679 -1.7157259e-21)
(0.371966 -0.019519151 1.3533084e-21)
(0.38636364 -0.018607473 7.185076e-22)
(0.40064303 -0.017711176 1.5273231e-21)
(0.414784 -0.016833365 -1.9531878e-21)
(0.42876809 -0.015976737 2.2242207e-21)
(0.44257852 -0.015143596 5.5203679e-22)
(0.45620028 -0.014335871 4.0362155e-22)
(0.46962005 -0.013555138 3.2138838e-22)
(0.48282622 -0.012802642 8.7373432e-22)
(0.49580887 -0.012079322 -1.3716409e-21)
(0.50855973 -0.011385841 3.7091717e-22)
(0.52107215 -0.010722615 1.0969e-22)
(0.53334106 -0.010089843 -4.5270276e-23)
(0.54536297 -0.0094875444 8.6625193e-23)
(0.5571359 -0.0089156 -3.7220065e-22)
(0.56865971 -0.008373772 1.832014e-22)
(0.57993508 -0.0078618442 -3.5013956e-23)
(0.59096724 -0.0073794007 3.9095128e-22)
(0.60175519 -0.0069268764 -1.8591772e-22)
(0.61232599 -0.0065026825 4.7410479e-23)
(0.62263441 -0.0061132294 4.3775599e-23)
(0.63286501 -0.0057427992 -7.3909948e-23)
(0.64255705 -0.0054514497 -1.2163894e-22)
(0.65315944 -0.0050780439 3.9018374e-22)
(0.66071888 -0.0051627325 1.7348637e-22)
(0.67639722 -0.0043166388 -8.3146135e-22)
(0.15021981 -0.031461748 1.5010899e-21)
(0.15355176 -0.03525882 -1.1566814e-20)
(0.1606215 -0.038012455 6.6442828e-21)
(0.16881163 -0.039480727 -1.3325094e-20)
(0.17698845 -0.040522406 -1.9758857e-21)
(0.18553018 -0.041304085 9.1602926e-21)
(0.19459147 -0.041759128 -9.7666912e-21)
(0.20409478 -0.041915685 1.5661852e-21)
(0.21399618 -0.041835386 1.2904209e-20)
(0.22428516 -0.041556468 3.403412e-21)
(0.23494244 -0.041104254 -6.2099038e-21)
(0.24594088 -0.040502732 -2.8640171e-21)
(0.25725308 -0.039774104 -5.8409485e-21)
(0.26885149 -0.038937482 -6.4556528e-21)
(0.28070754 -0.038009471 3.2355866e-21)
(0.29279194 -0.037004868 8.4595845e-22)
(0.30507511 -0.03593696 1.3681217e-21)
(0.31752749 -0.034817726 -3.3851848e-21)
(0.33011966 -0.033658024 -4.2432986e-21)
(0.34282261 -0.032467742 2.3618813e-21)
(0.35560792 -0.031255918 3.2255326e-21)
(0.36844795 -0.030030815 -1.5639358e-21)
(0.38131597 -0.028799982 1.5869232e-21)
(0.39418637 -0.027570298 -3.9138089e-22)
(0.40703473 -0.026348 -3.9203707e-21)
(0.41983796 -0.025138707 -3.0336191e-21)
(0.4325744 -0.023947435 -1.9040275e-22)
(0.44522385 -0.022778621 4.2850263e-22)
(0.45776769 -0.021636135 -2.210929e-21)
(0.47018886 -0.020523304 -8.5542071e-22)
(0.48247189 -0.019442937 2.28403e-22)
(0.49460293 -0.018397351 -1.2503923e-21)
(0.50656974 -0.017388401 6.1443682e-24)
(0.51836163 -0.016417519 -4.245002e-22)
(0.52996949 -0.015485749 -4.7204551e-22)
(0.54138575 -0.014593789 -5.2053583e-22)
(0.55260435 -0.013742037 -8.4223382e-22)
(0.56362073 -0.012930636 -5.443369e-23)
(0.57443181 -0.012159534 -3.917962e-24)
(0.58503627 -0.011428513 -5.2042331e-22)
(0.59543361 -0.010737379 -9.1529667e-23)
(0.60562776 -0.010085659 -3.3305794e-22)
(0.61561664 -0.0094740551 -4.387435e-22)
(0.6254254 -0.008900467 3.7945783e-22)
(0.63500934 -0.0083738106 1.4863704e-23)
(0.64454533 -0.0078725971 1.8310483e-22)
(0.65359017 -0.0074791637 -1.333435e-22)
(0.66352952 -0.0069734753 -2.6828551e-22)
(0.67059101 -0.0070910012 -4.3920433e-23)
(0.6853823 -0.0059461031 4.6294828e-22)
(0.25469192 -0.036554493 -2.0900865e-20)
(0.25447682 -0.041395362 4.7586992e-20)
(0.25908035 -0.044747634 1.0348304e-20)
(0.26509162 -0.046444128 -1.5765723e-20)
(0.27071731 -0.047716504 -2.0229326e-21)
(0.27652844 -0.048750069 2.6232057e-21)
(0.28284454 -0.049416115 -1.6609637e-21)
(0.28958653 -0.049730596 -4.6862799e-21)
(0.29670683 -0.049764024 -4.0160415e-21)
(0.30421638 -0.049559741 -1.2208033e-20)
(0.3121138 -0.049144469 1.7898524e-20)
(0.32038175 -0.048543675 6.5223397e-21)
(0.32900017 -0.047781927 -1.6781119e-20)
(0.33794805 -0.046881069 1.0317709e-20)
(0.34720201 -0.045860438 8.3850452e-21)
(0.35673665 -0.044737538 -8.7900393e-22)
(0.36652538 -0.043528379 -3.1221591e-21)
(0.37654092 -0.042247648 -3.8201656e-21)
(0.38675561 -0.040908849 -1.3894574e-21)
(0.39714174 -0.039524434 -1.230609e-21)
(0.40767186 -0.038105898 -3.0261895e-21)
(0.41831898 -0.036663844 0)
(0.42905684 -0.035208034 -1.3454159e-21)
(0.43986006 -0.033747411 3.9313101e-21)
(0.4507043 -0.032290134 5.4060306e-21)
(0.46156641 -0.030843586 -9.4118272e-22)
(0.4724245 -0.029414394 -2.9282017e-21)
(0.48325805 -0.028008446 3.0267764e-21)
(0.49404795 -0.026630913 2.5422411e-22)
(0.50477658 -0.025286266 3.4363167e-21)
(0.51542779 -0.023978316 -5.3465842e-22)
(0.52598693 -0.022710237 1.7178699e-21)
(0.53644087 -0.021484615 -8.000417e-22)
(0.54677795 -0.020303487 2.9125866e-22)
(0.556988 -0.019168391 -4.3440166e-22)
(0.56706231 -0.018080421 5.6259933e-22)
(0.5769936 -0.017040278 4.5750227e-22)
(0.58677608 -0.016048335 3.8294083e-22)
(0.59640531 -0.015104712 -9.6041006e-22)
(0.60587863 -0.014209309 6.8441631e-22)
(0.61519414 -0.013362051 -3.7008318e-22)
(0.62435429 -0.012562504 -1.1053572e-21)
(0.63335571 -0.011811709 1.4108247e-21)
(0.6422213 -0.011107172 -6.2125109e-23)
(0.65090716 -0.010460237 -1.5864533e-22)
(0.65958056 -0.0098441478 -7.8553409e-24)
(0.66782058 -0.0093618038 -1.2704292e-22)
(0.67693302 -0.0087396629 -4.6798364e-22)
(0.68337431 -0.0088888126 8.7832353e-22)
(0.69705371 -0.0074820403 -4.4395269e-23)
(0.3763592 -0.038370313 -1.7495569e-20)
(0.37171803 -0.044272499 1.2832281e-20)
(0.37287557 -0.048164013 2.975649e-21)
(0.37591959 -0.050101371 -7.6355653e-21)
(0.3783149 -0.051672609 1.2056295e-20)
(0.38073307 -0.053045128 7.7916265e-21)
(0.38368669 -0.054032912 -1.2647956e-20)
(0.38711183 -0.05463609 -6.0681546e-21)
(0.3909411 -0.054921103 1.2697725e-20)
(0.39519494 -0.054930343 -1.5305673e-20)
(0.39988745 -0.054690832 -1.4063642e-20)
(0.40500901 -0.054228077 1.413039e-20)
(0.41054334 -0.053567189 6.8196327e-21)
(0.41647272 -0.052731582 -4.2043141e-21)
(0.42277657 -0.051742753 -1.8543772e-21)
(0.4294314 -0.05062059 -4.058071e-21)
(0.43641185 -0.049383647 5.3046844e-21)
(0.44369139 -0.048049278 3.6683629e-21)
(0.45124281 -0.046633707 -3.2408973e-21)
(0.45903857 -0.045152085 3.1380884e-21)
(0.46705114 -0.043618544 2.766967e-21)
(0.47525336 -0.042046231 -3.2114352e-21)
(0.48361861 -0.040447333 3.7058723e-22)
(0.49212106 -0.038833082 -3.257344e-21)
(0.50073583 -0.037213773 7.2469147e-21)
(0.50943914 -0.035598766 6.1090795e-21)
(0.51820839 -0.033996505 8.1008421e-22)
(0.52702228 -0.032414524 -1.7686265e-21)
(0.53586085 -0.030859477 3.7034389e-21)
(0.54470555 -0.02933716 7.1908986e-21)
(0.55353924 -0.027852549 2.3054999e-21)
(0.56234621 -0.026409837 3.3178217e-21)
(0.5711122 -0.025012492 1.9963663e-21)
(0.57982437 -0.023663299 7.4599072e-22)
(0.58847132 -0.022364431 -2.6380293e-22)
(0.59704303 -0.021117505 2.7221402e-21)
(0.60553089 -0.019923658 6.2037507e-22)
(0.61392772 -0.01878361 2.9509809e-22)
(0.62222766 -0.017697772 5.6273002e-23)
(0.63042659 -0.016666273 9.9096905e-22)
(0.63852116 -0.015689265 4.7058654e-23)
(0.6465122 -0.014766453 4.4329694e-22)
(0.65439506 -0.013899302 -1.2642043e-22)
(0.66219017 -0.013085047 -2.7807131e-22)
(0.66985474 -0.01233736 -1.5262351e-22)
(0.67754496 -0.011624806 -4.2353762e-22)
(0.68486621 -0.011068782 1.6234011e-22)
(0.69303084 -0.010348673 -1.2775684e-22)
(0.69876312 -0.010527873 -5.0092044e-22)
(0.71115897 -0.0089025502 2.4631835e-22)
(0.50928352 -0.035976797 3.6471072e-21)
(0.49953996 -0.042963307 -1.8958597e-20)
(0.49628552 -0.047386237 -2.3084591e-21)
(0.49556633 -0.049739669 5.4870624e-21)
(0.4941804 -0.051821063 3.0529483e-21)
(0.4927071 -0.053708559 -4.9759548e-23)
(0.49182418 -0.055190927 6.1899884e-21)
(0.49152695 -0.056268804 7.625362e-21)
(0.49172469 -0.056994064 9.8582865e-21)
(0.49242438 -0.057399228 -1.1250439e-20)
(0.49364536 -0.057510078 -2.1580305e-20)
(0.49538281 -0.057352315 -3.9356386e-21)
(0.49762046 -0.056951148 1.5938858e-20)
(0.5003396 -0.056331145 1.2809537e-20)
(0.50351909 -0.055515988 -5.9067861e-21)
(0.50713487 -0.05452822 1.3815103e-21)
(0.51116071 -0.053389278 -3.660489e-21)
(0.5155691 -0.052119554 2.2449485e-21)
(0.52033173 -0.050738387 -2.912434e-22)
(0.52541996 -0.049264034 -1.8655631e-21)
(0.53080512 -0.047713663 7.8274677e-21)
(0.53645886 -0.046103353 -2.9325758e-22)
(0.54235335 -0.04444808 4.1836054e-22)
(0.54846158 -0.04276171 -6.5633855e-22)
(0.55475743 -0.041056998 -4.3034826e-21)
(0.5612159 -0.039345581 4.2090974e-21)
(0.56781315 -0.037637995 1.9032524e-21)
(0.57452662 -0.035943679 -3.3087394e-21)
(0.5813351 -0.03427101 -4.112155e-21)