/*--------------------------------*- C++ -*----------------------------------*\
  =========                 |
  \\      /  F ield         | OpenFOAM: The Open Source CFD Toolbox
   \\    /   O peration     | Website:  https://openfoam.org
    \\  /    A nd           | Version:  6
     \\/     M anipulation  |
\*---------------------------------------------------------------------------*/
FoamFile
{
    version     2.0;
    format      ascii;
    class       volVectorField;
    location    "129";
    object      U_0;
}
// * * * * * * * * * * * * * * * * * * * * * * * * * * * * * * * * * * * * * //

dimensions      [0 1 -1 0 0 0 0];

internalField   nonuniform List<vector> 
9200
(
(0.0010394194 0.0014199435 -5.9202408e-20)
(0.013676386 -0.0020585354 4.6043042e-20)
(0.038313858 -0.0058668637 -3.8502137e-20)
(0.072275604 -0.0097639296 -6.0258355e-20)
(0.11376647 -0.013490585 1.8827181e-20)
(0.16158324 -0.016606348 3.274423e-20)
(0.21467452 -0.018818109 -1.226816e-20)
(0.27206985 -0.01997485 9.2689802e-21)
(0.33286075 -0.020012319 1.6803589e-20)
(0.39616876 -0.018930287 1.4848236e-21)
(0.4611216 -0.016781196 -2.1456594e-20)
(0.52684363 -0.013659262 2.0670263e-20)
(0.59245811 -0.0096896881 -4.0422624e-20)
(0.65709932 -0.0050176368 -2.1134195e-20)
(0.71993323 0.00020351764 5.90473e-21)
(0.78018392 0.0058218529 -2.5132071e-20)
(0.83717977 0.011710356 2.5217558e-20)
(0.89047808 0.017915822 2.2243782e-20)
(0.93968004 0.024570471 -2.9918436e-22)
(0.98206111 0.028290208 -1.6690441e-21)
(0.0052523048 -0.0013463401 -1.7059516e-20)
(0.026962974 -0.0089892651 3.9748121e-20)
(0.061671066 -0.014810152 2.3576539e-20)
(0.10629642 -0.019172796 -1.1569866e-19)
(0.15873784 -0.022214655 -1.2727225e-20)
(0.21753643 -0.023721471 7.3297751e-20)
(0.28137663 -0.023596004 -3.5476755e-20)
(0.34901047 -0.021869994 -8.3906395e-21)
(0.41924445 -0.018646674 3.4287907e-20)
(0.49091544 -0.014082116 -4.3260075e-20)
(0.56287904 -0.0083773584 -3.0338873e-20)
(0.63401583 -0.0017681448 7.1922463e-20)
(0.7032512 0.0054866877 3.8294587e-20)
(0.76958416 0.013116753 -6.7977642e-20)
(0.83212111 0.020850012 1.4623961e-20)
(0.8901092 0.028417425 -3.6734069e-20)
(0.94297804 0.035567165 -1.3777391e-20)
(0.99044109 0.042138132 7.0976355e-20)
(1.0323646 0.047712298 2.9642941e-20)
(1.0669431 0.049136452 -8.3479351e-20)
(0.010858613 -0.0040425074 3.6773779e-20)
(0.043954066 -0.015431373 2.5047571e-21)
(0.090516679 -0.022552741 2.2341949e-20)
(0.14711332 -0.026497955 9.8117683e-22)
(0.21134523 -0.027887017 -4.0774377e-20)
(0.28147115 -0.026795946 1.8576552e-20)
(0.3558747 -0.023383664 1.3420443e-20)
(0.43299518 -0.017922576 -5.032822e-20)
(0.51133065 -0.010736794 5.7262491e-20)
(0.58943273 -0.002185137 1.4256897e-20)
(0.66591638 0.0073465233 -5.4301471e-20)
(0.73948809 0.017458738 -1.8237724e-20)
(0.8089841 0.027754875 9.0591176e-21)
(0.87341101 0.037857399 2.3445155e-20)
(0.9319821 0.047421963 -1.1362756e-20)
(0.98414213 0.056146663 2.7878247e-20)
(1.0295823 0.063786616 -2.0188584e-20)
(1.0682726 0.070201573 -7.0125073e-20)
(1.1003398 0.075116292 -2.3796853e-20)
(1.1249185 0.076637912 4.8660528e-20)
(0.017957473 -0.0064222736 2.4508215e-20)
(0.064777851 -0.020695133 5.1039668e-20)
(0.12485385 -0.028061344 1.988186e-20)
(0.19447201 -0.030464689 1.2990174e-20)
(0.2709525 -0.02909557 1.7275835e-20)
(0.35225284 -0.024389797 -4.7720604e-20)
(0.43643627 -0.016826874 -2.5647109e-20)
(0.52162576 -0.0069776559 0)
(0.60603536 0.0045659547 1.3920892e-20)
(0.6879941 0.017210547 -5.8525217e-21)
(0.7659827 0.03037261 -9.7936295e-20)
(0.83868235 0.043498169 -1.5774966e-20)
(0.90502335 0.056084975 6.5104362e-20)
(0.96422385 0.067702288 4.8429113e-22)
(1.0158116 0.078005638 -1.5725859e-21)
(1.0596234 0.086744466 2.1957914e-20)
(1.0957848 0.093769638 -5.2648548e-21)
(1.1246872 0.099062472 -6.1030916e-20)
(1.1468715 0.10259395 -4.5852216e-20)
(1.162302 0.10341047 6.9521584e-20)
(0.02657976 -0.008205809 -3.9194421e-21)
(0.089345097 -0.024033854 -5.1256713e-21)
(0.16430944 -0.030265486 5.6599858e-20)
(0.24758398 -0.029810622 1.8539461e-20)
(0.33624529 -0.024513709 -3.1955336e-20)
(0.42795582 -0.015240605 1.2163944e-20)
(0.52047802 -0.0028521696 2.6403138e-21)
(0.61166972 0.01173622 3.3609593e-20)
(0.6995539 0.027639181 5.6600244e-21)
(0.78237565 0.044027698 -1.3204995e-20)
(0.85866168 0.060146514 6.0155125e-20)
(0.92727691 0.075339089 -5.8010169e-20)
(0.9874646 0.089071277 -1.3216834e-19)
(1.0388608 0.10094721 -5.5774019e-21)
(1.08148 0.11071502 8.3152326e-20)
(1.1156727 0.11826172 0)
(1.1420616 0.12360322 1.0119125e-20)
(1.1614733 0.12688768 -1.5460065e-20)
(1.1748239 0.12829557 -8.599633e-21)
(1.1826729 0.12744578 2.0992574e-20)
(0.036667336 -0.0090897011 -5.4309219e-21)
(0.11731642 -0.024685692 4.3579068e-21)
(0.20812093 -0.028140635 -8.7630486e-21)
(0.30516022 -0.023415484 2.8472614e-20)
(0.40533953 -0.013076168 -2.9392929e-20)
(0.5060765 0.0015219997 -1.692719e-20)
(0.60491072 0.019094481 3.7364525e-20)
(0.69955607 0.038364534 4.7595624e-21)
(0.78801092 0.058166835 -2.4436511e-20)
(0.8686414 0.077482069 6.9868551e-20)
(0.94024726 0.095457545 5.2381839e-22)
(1.0021031 0.11143027 -8.0445724e-20)
(1.0539643 0.12494138 0)
(1.0960345 0.13573572 3.9542872e-20)
(1.1288991 0.14374638 5.5237129e-21)
(1.1534343 0.14906661 -7.7567781e-20)
(1.1707052 0.15191655 -1.9587266e-20)
(1.181868 0.15262084 -1.2467852e-20)
(1.1880645 0.15152297 -1.4709657e-20)
(1.190151 0.14858162 4.0421218e-20)
(0.048059387 -0.0087675154 -1.7278052e-20)
(0.14808464 -0.021932283 -2.2199046e-21)
(0.25514327 -0.020798207 3.0380696e-20)
(0.36546743 -0.010413199 3.7484539e-20)
(0.47590875 0.0059011673 -1.9944897e-20)
(0.58374806 0.02626887 -6.916375e-20)
(0.68644797 0.048976739 -2.7996171e-20)
(0.7817687 0.072417253 7.8930184e-20)
(0.86790901 0.095211837 8.5780205e-21)
(0.94359642 0.11624882 -2.4873779e-20)
(1.0081331 0.13469729 1.3642309e-20)
(1.0613942 0.15001434 -4.3195604e-21)
(1.1037762 0.16193513 0)
(1.1361041 0.17044254 2.7203924e-20)
(1.1595109 0.17572108 -7.9323721e-20)
(1.175308 0.17810142 -3.1476049e-20)
(1.1848625 0.1780056 8.1055922e-20)
(1.1894973 0.17590668 -4.2970867e-21)
(1.1904077 0.1722526 3.5561568e-21)
(1.1885125 0.16718981 2.7112067e-20)
(0.060485859 -0.0069574504 -3.2414782e-20)
(0.18077948 -0.015170594 -8.1624892e-20)
(0.30389216 -0.0075837724 2.5797003e-21)
(0.42642948 0.0097031201 7.0162402e-20)
(0.54535635 0.032631333 6.2424944e-20)
(0.65798666 0.058819822 -7.1575133e-20)
(0.76191511 0.086176252 -2.8264703e-22)
(0.85518963 0.11285197 8.5523731e-20)
(0.93646043 0.13737791 4.8828714e-20)
(1.0050485 0.15869305 -5.4219226e-20)
(1.0609425 0.17613476 -9.2335593e-20)
(1.104731 0.18941242 -3.1590305e-21)
(1.1374823 0.19855804 4.212851e-20)
(1.1605935 0.2038569 -6.6057338e-21)
(1.1756305 0.20576825 -1.2868978e-20)
(1.184183 0.20484699 1.9691086e-20)
(1.1877478 0.20167654 4.3881303e-20)
(1.1876501 0.19682324 -4.3860095e-20)
(1.1849998 0.19077601 -1.0232367e-19)
(1.1806292 0.18377081 2.4567343e-20)
(0.073537909 -0.0034330233 -3.498001e-20)
(0.21422883 -0.003989132 -1.7388703e-19)
(0.3525197 0.011839295 8.2103988e-20)
(0.48563216 0.037018309 9.2768327e-20)
(0.61085888 0.066835565 5.7971077e-20)
(0.72577307 0.098481196 8.6108073e-21)
(0.82835435 0.12959693 -1.0624127e-19)
(0.91719662 0.15824256 0)
(0.99163421 0.18302785 -6.8749627e-20)
(1.0517588 0.20311156 -1.5202662e-20)
(1.0983449 0.21814785 5.4704248e-20)
(1.1327071 0.22820979 1.0973546e-20)
(1.1565169 0.23369129 -4.5614512e-20)
(1.1716124 0.23519788 -4.9082057e-20)
(1.1798256 0.23344151 2.4288056e-20)
(1.18285 0.22915115 4.4823586e-20)
(1.1821535 0.22300757 -5.5601259e-20)
(1.1789404 0.21560575 -1.0751283e-19)
(1.174151 0.20741961 -3.1513589e-21)
(1.1684607 0.19871603 2.7046804e-20)
(0.086651216 0.0019613848 -3.544984e-21)
(0.24696231 0.011816661 8.7913854e-20)
(0.39885072 0.037492426 -1.6478994e-20)
(0.54040902 0.071218591 -8.4310054e-20)
(0.66950424 0.1077892 4.5164836e-20)
(0.78422537 0.1441157 4.9175845e-20)
(0.88319566 0.17775689 5.5357472e-21)
(0.96578517 0.20688497 -9.9503715e-20)
(1.0321828 0.2303879 -2.5049115e-21)
(1.0833392 0.24781516 5.050425e-20)
(1.1208131 0.25926237 5.9855608e-21)
(1.1465616 0.26523527 -1.9717488e-20)
(1.1627162 0.26650412 -7.5705671e-20)
(1.1713817 0.26396475 -6.2554673e-21)
(1.1744811 0.25852258 4.3533941e-20)
(1.1736594 0.25100896 3.7022509e-20)
(1.1702426 0.24213183 1.979367e-20)
(1.1652444 0.23245647 -5.2995717e-20)
(1.1594053 0.22240176 1.2957479e-20)
(1.1532289 0.21223545 8.266022e-20)
(-0.0012932766 0.0014346768 -1.1234398e-21)
(-0.0047460138 0.0031874499 2.0647148e-21)
(-0.010771475 0.0041359471 8.795647e-22)
(-0.017754471 0.0045395804 -2.441103e-21)
(-0.024740564 0.004565458 -1.4115249e-21)
(-0.031299893 0.004326074 1.5460269e-21)
(-0.037161668 0.0039035656 -6.8702137e-21)
(-0.04214781 0.0033577396 -5.9573986e-21)
(-0.046158155 0.0027313885 1.1172202e-20)
(-0.049146563 0.0020548264 -9.7429303e-21)
(-0.051101006 0.001349284 -1.9832851e-22)
(-0.052030756 0.00062939259 3.6674224e-21)
(-0.051957992 -9.4932486e-05 -6.3296537e-22)
(-0.050912061 -0.00081698786 2.2819217e-20)
(-0.048925862 -0.0015319175 3.0401117e-22)
(-0.046035311 -0.002235263 -4.0883777e-20)
(-0.042281632 -0.0029223742 7.5387449e-21)
(-0.03770312 -0.0035911629 2.3864664e-20)
(-0.032308192 -0.0042401301 -4.3853428e-20)
(-0.026156258 -0.0048212759 -2.7739889e-20)
(-0.0016522184 0.0041809141 -5.3716859e-21)
(-0.0053975386 0.009268237 1.0865527e-20)
(-0.011218623 0.012007564 -1.0191692e-20)
(-0.017658195 0.013153888 3.9230834e-21)
(-0.023856651 0.013195528 4.8122586e-21)
(-0.029433571 0.012462821 7.1325605e-22)
(-0.034152594 0.011197086 -2.2509903e-20)
(-0.037860656 0.0095739405 -2.037062e-21)
(-0.040474561 0.0077189991 2.0163908e-20)
(-0.041959151 0.0057212079 -5.0474526e-21)
(-0.042309125 0.0036428053 -2.1763004e-20)
(-0.041537438 0.0015266147 4.8974112e-21)
(-0.039667718 -0.00059844454 2.2635848e-20)
(-0.036728969 -0.0027129435 1.0308601e-20)
(-0.032751781 -0.0048029177 2.185476e-20)
(-0.027768753 -0.0068557859 -1.9771155e-20)
(-0.021824188 -0.0088585488 -2.1673417e-20)
(-0.014965448 -0.010804609 2.1185129e-20)
(-0.0071279512 -0.012679443 2.6810986e-20)
(0.0018756418 -0.014317722 1.5855109e-20)
(-0.0023034533 0.006560305 -4.3569325e-21)
(-0.0065392873 0.014480344 -5.6387903e-21)
(-0.011892237 0.018710723 3.072349e-22)
(-0.017211239 0.020428363 1.0959652e-21)
(-0.021819301 0.020400489 6.6919501e-21)
(-0.025431202 0.0191518 1.0665341e-20)
(-0.027877373 0.017066381 -3.7228285e-21)
(-0.02905337 0.014423829 -1.889649e-20)
(-0.028909073 0.011424345 6.5414321e-21)
(-0.027430998 0.0082098404 1.2862797e-20)
(-0.024627549 0.0048796501 5.8342093e-21)
(-0.020519804 0.0015020478 1.8159424e-20)
(-0.015135514 -0.0018771227 1.7296244e-21)
(-0.008504732 -0.0052275798 -3.3865169e-20)
(-0.0006560013 -0.008528019 1.2020657e-21)
(0.008382164 -0.0117596 -2.2139612e-20)
(0.018558301 -0.014904673 -2.4466857e-20)
(0.029803934 -0.017954421 4.5820748e-20)
(0.042307074 -0.020855881 2.5349959e-20)
(0.056741092 -0.023248624 1.2244269e-22)
(-0.0031290579 0.0083690575 -5.2833867e-21)
(-0.0078964666 0.01833669 -8.4817306e-21)
(-0.012439076 0.023588021 4.3593585e-21)
(-0.016026627 0.025609869 4.1464096e-21)
(-0.018235094 0.025382928 2.0105976e-21)
(-0.018912673 0.02358946 7.3211184e-21)
(-0.017984664 0.020730353 9.3126284e-21)
(-0.015416554 0.017170391 -1.3511572e-21)
(-0.011206758 0.013171253 -1.1482132e-20)
(-0.0053747807 0.00891879 -2.9072365e-20)
(0.0020487596 0.00454321 6.1902423e-23)
(0.011027385 0.000133993 4.0698522e-20)
(0.021523364 -0.0042493648 -1.8383471e-20)
(0.033499287 -0.0085680999 -1.229631e-20)
(0.046922282 -0.012796168 5.5346871e-22)
(0.061762236 -0.01691259 3.2303279e-20)
(0.077955564 -0.020902524 -1.4829897e-20)
(0.095395262 -0.024764357 -5.334025e-20)
(0.11440194 -0.028380833 4.576593e-20)
(0.13634943 -0.031074339 3.3013854e-20)
(-0.0039704444 0.0094658242 -6.8788521e-22)
(-0.0090917237 0.020487973 -1.2534901e-20)
(-0.012364532 0.026159298 -3.4145045e-20)
(-0.013552562 0.028143539 -5.7242672e-21)
(-0.012533187 0.027555168 -3.6223055e-21)
(-0.0093165632 0.025188165 6.3051996e-21)
(-0.0039453392 0.021627437 -4.6462687e-21)
(0.0035266143 0.017298899 -8.8071557e-21)
(0.013037524 0.012508596 2.1900033e-20)
(0.024522201 0.0074741838 5.0567717e-21)
(0.037916792 0.002348536 -2.5290721e-20)
(0.053159032 -0.0027632675 1.1078441e-20)
(0.070188828 -0.0077914794 0)
(0.088948957 -0.012692036 1.2089778e-20)
(0.10938827 -0.017437786 -9.7017846e-21)
(0.13146074 -0.022010905 -1.4337391e-20)
(0.15507793 -0.026409804 -1.5738423e-21)
(0.18007204 -0.030660737 -2.2182287e-21)
(0.20685847 -0.034578017 4.614784e-20)
(0.23766934 -0.037021513 -1.0470442e-20)
(-0.0046451333 0.0097809481 -7.535752e-21)
(-0.0096773035 0.020748041 2.4516731e-20)
(-0.011064393 0.026161154 -1.0499504e-20)
(-0.0090967566 0.027724597 -2.7469648e-20)
(-0.0039795095 0.026601792 -2.7548488e-20)
(0.0040965743 0.023648429 -1.492177e-20)
(0.014954765 0.019496385 -6.9060712e-22)
(0.028437119 0.014604528 5.5500498e-21)
(0.044404344 0.0093031547 1.9616134e-20)
(0.06273205 0.0038280007 7.353187e-21)
(0.08330627 -0.0016553002 -7.1863165e-21)
(0.10602137 -0.0070329207 -2.0102388e-21)
(0.13077646 -0.012229923 -3.8192288e-20)
(0.15747285 -0.017200729 -1.2693841e-20)
(0.18601599 -0.021920868 1.875095e-20)
(0.21631637 -0.026381015 -2.1022053e-20)
(0.24823747 -0.030603692 -8.9732124e-21)
(0.28152459 -0.034672258 3.0440925e-20)
(0.31661365 -0.038366662 5.0472882e-20)
(0.35665753 -0.039966132 3.3560323e-21)
(-0.0049617987 0.0093140691 1.6783477e-20)
(-0.009166293 0.019097827 1.446809e-20)
(-0.0078593056 0.023563479 5.1146104e-20)
(-0.0018583328 0.024329012 2.3388287e-20)
(0.0082961346 0.022523779 1.8252019e-22)
(0.022222611 0.019014287 -3.9388959e-20)
(0.039598425 0.014440729 -2.431417e-20)
(0.060149251 0.0092660307 1.0465943e-20)
(0.083640875 0.003822768 1.4401766e-20)
(0.10986891 -0.0016518989 -1.3113858e-20)
(0.13864836 -0.0069917562 -4.4039307e-20)
(0.16980498 -0.012083748 2.961891e-20)
(0.20316792 -0.01685522 2.0020808e-20)
(0.23856396 -0.021265222 -2.7551552e-20)
(0.27581747 -0.025297803 1.1650322e-20)
(0.31475397 -0.028958747 2.4197981e-20)
(0.35515202 -0.032304817 8.0725367e-21)
(0.39664115 -0.035508635 -1.176444e-20)
(0.43958501 -0.038394806 -1.4190463e-20)
(0.48799383 -0.038636774 5.8730385e-21)
(-0.0047307942 0.0081237211 1.1093971e-20)
(-0.0070585756 0.015671233 -2.3353034e-20)
(-0.0020292042 0.018562056 8.6201179e-21)
(0.0090328964 0.018216182 3.3588382e-20)
(0.02525702 0.015651016 5.2124953e-20)
(0.046067343 0.011695359 2.0276751e-20)
(0.070985934 0.0069605845 -5.8640114e-21)
(0.09960382 0.001882449 -1.2286417e-20)
(0.13157133 -0.0032278437 -6.2058346e-21)
(0.16657862 -0.0081504536 3.4241252e-20)
(0.2043378 -0.012734274 -4.5105249e-21)
(0.24456904 -0.016880304 -1.6643532e-20)
(0.28698957 -0.020529972 -1.9693813e-20)
(0.33130556 -0.023657873 -4.7444395e-20)
(0.37721088 -0.026267174 2.3239028e-20)
(0.42439471 -0.028389689 -1.4096197e-20)
(0.47250745 -0.030129638 2.5993832e-20)
(0.52104458 -0.031785402 2.1041161e-20)
(0.57022299 -0.033353097 -8.5571453e-20)
(0.62471881 -0.032061478 -1.0800995e-22)
(-0.0037710491 0.0063146601 2.192528e-20)
(-0.0028656701 0.010735081 -2.6165851e-20)
(0.0071424034 0.011564056 -4.5013794e-20)
(0.024450823 0.0099248197 -2.7254095e-20)
(0.047871809 0.0066520267 -2.04401e-21)
(0.076630099 0.0024902144 1.3050224e-20)
(0.11007863 -0.0020159319 -2.8337856e-21)
(0.14765451 -0.0064885825 1.811873e-20)
(0.18886402 -0.01066433 8.8686459e-21)
(0.23325567 -0.014363402 -1.1380298e-20)
(0.28039589 -0.01747009 8.8780506e-21)
(0.32985115 -0.019918111 -2.3903558e-20)
(0.38117465 -0.021680173 8.0506099e-21)
(0.43389741 -0.022761526 1.6756624e-20)
(0.48752663 -0.023196134 -2.639549e-21)
(0.54155511 -0.023048912 1.6619163e-21)
(0.59544404 -0.022471659 -3.1956092e-22)
(0.64852699 -0.021872513 1.959072e-20)
(0.70083203 -0.021447674 4.0434577e-21)
(0.75746152 -0.018501913 -5.7365976e-22)
(-0.0019109817 0.0040273394 2.3692378e-20)
(0.0038696229 0.0046764285 5.7160632e-20)
(0.020315783 0.0031877752 -4.9244755e-20)
(0.045179135 0.00029412587 -9.9455231e-21)
(0.076966462 -0.0034245753 2.0256549e-20)
(0.11469807 -0.0073541408 2.1433937e-21)
(0.15754127 -0.011055649 -2.9815463e-20)
(0.2047514 -0.014244973 6.9848675e-21)
(0.25565328 -0.016738908 7.1098851e-21)
(0.30960923 -0.018428086 -2.625438e-20)
(0.36599172 -0.019261381 1.2927532e-21)
(0.42416556 -0.019233309 -3.7174574e-20)
(0.48347772 -0.01837381 -3.6341496e-20)
(0.54325304 -0.016740057 6.5684415e-20)
(0.60279615 -0.014409264 5.5628349e-21)
(0.66139745 -0.011478052 -1.5189082e-20)
(0.71831693 -0.0081043995 1.9364253e-20)
(0.77270848 -0.0045954287 -9.1889525e-22)
(0.82409809 -0.00097083034 2.0364723e-20)
(0.87622955 0.004325053 -1.9554625e-20)
(-0.018835464 -0.0050998782 5.835354e-20)
(-0.010223396 -0.0056351205 1.5784049e-20)
(-0.00021958267 -0.0060690919 -3.5140463e-20)
(0.010825236 -0.0063343372 1.6790721e-20)
(0.022644917 -0.0065122894 0)
(0.03518082 -0.0066303469 0)
(0.048373128 -0.0066912443 -2.2975631e-20)
(0.062142124 -0.0067028241 -1.6503362e-20)
(0.076417397 -0.0066744715 1.912323e-20)
(0.091139441 -0.0066129753 1.8174639e-20)
(0.10625328 -0.0065235273 1.0524501e-21)
(0.12170712 -0.0064106912 -1.0317968e-20)
(0.13745266 -0.0062784255 8.327226e-21)
(0.15344468 -0.0061300777 1.8234331e-20)
(0.16964042 -0.0059685111 -5.2276801e-21)
(0.18599924 -0.0057962111 -1.0175285e-20)
(0.20248239 -0.005615349 -4.3197369e-21)
(0.21905284 -0.0054278338 -4.4258583e-21)
(0.23567517 -0.0052353577 7.3668453e-22)
(0.25231553 -0.0050394312 1.2286609e-21)
(0.26894156 -0.0048414093 2.5667958e-21)
(0.28552251 -0.0046425118 6.6542661e-21)
(0.30202919 -0.0044438382 2.4887661e-22)
(0.31843406 -0.0042463779 -3.4516687e-21)
(0.33471129 -0.0040510187 1.5557731e-22)
(0.35083683 -0.0038585522 -5.7713647e-22)
(0.36678843 -0.0036696786 1.2435275e-21)
(0.38254569 -0.0034850104 1.0522896e-21)
(0.39809012 -0.0033050764 -1.2989875e-21)
(0.41340509 -0.0031303248 -1.2217882e-22)
(0.42847591 -0.0029611279 3.5639609e-23)
(0.44328973 -0.0027977859 -3.5192415e-22)
(0.4578356 -0.0026405322 -4.0577598e-22)
(0.47210434 -0.0024895383 5.5496631e-23)
(0.48608858 -0.0023449199 -1.3812219e-22)
(0.49978265 -0.0022067426 -2.2347785e-22)
(0.51318258 -0.0020750288 2.5578728e-22)
(0.52628608 -0.0019497646 2.9511412e-22)
(0.53909238 -0.0018309085 -8.3376295e-24)
(0.55160267 -0.0017183954 -1.5534155e-22)
(0.56381899 -0.0016121647 3.0404801e-23)
(0.575748 -0.0015121164 -4.0163616e-23)
(0.58738995 -0.0014183226 9.2341071e-23)
(0.59877406 -0.0013304469 2.1947331e-23)
(0.60985456 -0.0012497771 -1.1433083e-22)
(0.62082433 -0.0011730979 -6.7936093e-24)
(0.63120405 -0.0011126633 -5.5624811e-26)
(0.64250963 -0.0010354665 -3.6124898e-24)
(0.65059701 -0.0010525115 2.9438857e-23)
(0.66721306 -0.00087749934 3.6097231e-22)
(0.01044752 -0.015018146 -1.2747189e-20)
(0.018181662 -0.016641604 -6.330391e-20)
(0.027781549 -0.017916061 -3.0542804e-20)
(0.038387893 -0.018672765 3.8477085e-20)
(0.049624188 -0.019184326 1.4663034e-20)
(0.061510326 -0.019530213 -1.8205522e-20)
(0.074017058 -0.019710687 4.6724209e-21)
(0.087067495 -0.019747354 2.5447954e-20)
(0.1005986 -0.019668181 9.1920568e-23)
(0.11456016 -0.019492637 -7.6594093e-21)
(0.12890406 -0.019235331 -1.3021328e-20)
(0.14358369 -0.018909318 -8.5248933e-21)
(0.15855517 -0.018526012 1.7772935e-20)
(0.17377699 -0.018095072 8.9301049e-21)
(0.1892094 -0.017624782 -1.6522892e-20)
(0.20481421 -0.017122365 -6.039275e-21)
(0.22055469 -0.016594161 3.2145835e-21)
(0.23639548 -0.016045765 8.3718797e-21)
(0.25230253 -0.015482157 6.9835433e-21)
(0.26824307 -0.014907798 -6.9731591e-21)
(0.2841857 -0.014326703 -3.1688807e-21)
(0.30010039 -0.013742497 1.360779e-21)
(0.31595857 -0.013158456 3.8707682e-22)
(0.33173318 -0.012577535 1.2115246e-21)
(0.34739879 -0.012002392 1.8375164e-22)
(0.3629316 -0.011435399 -3.2669759e-22)
(0.37830956 -0.010878661 -7.2446109e-22)
(0.3935124 -0.010334021 9.7181294e-22)
(0.40852164 -0.0098030747 8.250145e-22)
(0.42332066 -0.0092871781 -1.5166393e-22)
(0.43789464 -0.0087874604 5.5323727e-22)
(0.45223061 -0.0083048368 -2.3884194e-22)
(0.46631737 -0.0078400226 -3.70872e-22)
(0.48014552 -0.0073935488 -6.102099e-22)
(0.49370737 -0.0069657792 4.418192e-22)
(0.50699692 -0.0065569285 -1.5680657e-23)
(0.52000982 -0.0061670824 1.6146314e-22)
(0.53274335 -0.0057962169 -4.4208648e-22)
(0.54519634 -0.0054442263 3.7236232e-22)
(0.55736951 -0.0051109336 6.7221507e-23)
(0.56926441 -0.0047961756 -1.0286171e-22)
(0.58088722 -0.0044996696 1.7648119e-22)
(0.59223775 -0.0042216483 2.3394085e-22)
(0.60334445 -0.0039611213 1.6975278e-22)
(0.61416177 -0.0037219476 1.682844e-22)
(0.62487967 -0.0034945533 -2.621456e-23)
(0.63502525 -0.0033154583 8.4649614e-23)
(0.64609145 -0.0030864175 7.6899161e-23)
(0.65399929 -0.0031374718 -1.9553398e-22)
(0.67029624 -0.0026182504 -3.7923628e-23)
(0.067617598 -0.024030064 9.4530882e-21)
(0.073592905 -0.026750053 3.2952411e-21)
(0.082269131 -0.028806658 -1.2162682e-20)
(0.091951879 -0.029969667 -1.2258931e-21)
(0.10198774 -0.030769095 1.4971085e-20)
(0.11255137 -0.03133219 -1.4887561e-20)
(0.12368155 -0.031637435 -2.9843255e-20)
(0.13530299 -0.031714433 1.4494057e-20)
(0.14736376 -0.031609124 1.8182633e-20)
(0.15983092 -0.031351603 -1.1598951e-20)
(0.17266882 -0.030963424 1.0190899e-21)
(0.18583983 -0.030464412 8.6861572e-21)
(0.19930769 -0.029872264 -1.5254186e-20)
(0.21303732 -0.029202004 2.9099725e-21)
(0.22699415 -0.028466576 7.5198208e-21)
(0.24114414 -0.027677371 3.1330088e-23)
(0.25545398 -0.026844476 2.6539577e-22)
(0.26989106 -0.025976864 -7.4155402e-21)
(0.28442355 -0.025082584 3.8622188e-21)
(0.29902054 -0.02416889 8.4754823e-21)
(0.3136521 -0.023242358 -3.8354468e-21)
(0.32828938 -0.022308954 -2.2131501e-21)
(0.34290478 -0.021374095 1.0124119e-21)
(0.35747197 -0.020442687 -1.7157266e-21)
(0.37196609 -0.019519159 1.3533086e-21)
(0.38636374 -0.018607482 7.1850771e-22)
(0.40064314 -0.017711185 1.5273253e-21)
(0.41478412 -0.016833374 -1.9531901e-21)
(0.42876821 -0.015976747 2.2242235e-21)
(0.44257866 -0.015143606 5.5203743e-22)
(0.45620043 -0.014335881 4.0362351e-22)
(0.4696202 -0.013555149 3.2138848e-22)
(0.48282639 -0.012802653 8.7373656e-22)
(0.49580905 -0.012079334 -1.3716445e-21)
(0.50855993 -0.011385853 3.7091838e-22)
(0.52107236 -0.010722628 1.0969153e-22)
(0.53334128 -0.010089857 -4.5270812e-23)
(0.54536322 -0.0094875587 8.6624361e-23)
(0.55713616 -0.0089156151 -3.72202e-22)
(0.56865999 -0.008373788 1.8320257e-22)
(0.57993539 -0.0078618611 -3.5013998e-23)
(0.59096758 -0.0073794186 3.9095582e-22)
(0.60175555 -0.0069268955 -1.8591997e-22)
(0.61232639 -0.0065027028 4.7410545e-23)
(0.62263484 -0.0061132512 4.3776596e-23)
(0.63286548 -0.0057428226 -7.3911074e-23)
(0.64255757 -0.0054514752 -1.2164162e-22)
(0.65316002 -0.0050780713 3.9019118e-22)
(0.66071949 -0.0051627633 1.7348864e-22)
(0.67639796 -0.0043166738 -8.3146331e-22)
(0.15021982 -0.031461753 1.5010909e-21)
(0.15355178 -0.035258825 -1.1566814e-20)
(0.16062152 -0.03801246 6.6442824e-21)
(0.16881165 -0.039480732 -1.3325095e-20)
(0.17698847 -0.040522412 -1.9758859e-21)
(0.18553021 -0.041304092 9.1602938e-21)
(0.1945915 -0.041759135 -9.7666928e-21)
(0.20409481 -0.041915692 1.5661845e-21)
(0.21399621 -0.041835393 1.290421e-20)
(0.2242852 -0.041556476 3.403413e-21)
(0.23494247 -0.041104262 -6.2099043e-21)
(0.24594092 -0.04050274 -2.864018e-21)
(0.25725312 -0.039774112 -5.8409482e-21)
(0.26885154 -0.03893749 -6.455654e-21)
(0.28070759 -0.03800948 3.2355858e-21)
(0.29279199 -0.037004877 8.4595711e-22)
(0.30507517 -0.035936969 1.3681224e-21)
(0.31752755 -0.034817736 -3.3851852e-21)
(0.33011972 -0.033658034 -4.2433002e-21)
(0.34282268 -0.032467753 2.3618822e-21)
(0.355608 -0.031255929 3.2255341e-21)
(0.36844803 -0.030030825 -1.5639372e-21)
(0.38131605 -0.028799993 1.5869239e-21)
(0.39418646 -0.027570309 -3.9138152e-22)
(0.40703482 -0.026348012 -3.9203736e-21)
(0.41983806 -0.025138719 -3.0336202e-21)
(0.43257451 -0.023947448 -1.904034e-22)
(0.44522397 -0.022778634 4.2850211e-22)
(0.45776782 -0.021636148 -2.2109301e-21)
(0.470189 -0.020523318 -8.5542275e-22)
(0.48247204 -0.019442952 2.2840306e-22)
(0.49460309 -0.018397366 -1.2503945e-21)
(0.50656991 -0.017388417 6.1437397e-24)
(0.51836181 -0.016417535 -4.2450154e-22)
(0.52996968 -0.015485766 -4.7204576e-22)
(0.54138596 -0.014593807 -5.2053864e-22)
(0.55260457 -0.013742056 -8.4223803e-22)
(0.56362098 -0.012930656 -5.4433221e-23)
(0.57443207 -0.012159555 -3.9179652e-24)
(0.58503655 -0.011428535 -5.2042619e-22)
(0.59543392 -0.010737402 -9.1528841e-23)
(0.6056281 -0.010085684 -3.3306092e-22)
(0.615617 -0.0094740816 -4.3874915e-22)
(0.6254258 -0.0089004954 3.7946241e-22)
(0.63500977 -0.008373841 1.4863796e-23)
(0.6445458 -0.0078726297 1.8310768e-22)
(0.65359069 -0.0074791992 -1.3334645e-22)
(0.6635301 -0.0069735134 -2.6829052e-22)
(0.67059162 -0.0070910442 -4.3918104e-23)
(0.68538304 -0.0059461518 4.6294935e-22)
(0.25469195 -0.0365545 -2.0900867e-20)
(0.25447684 -0.041395369 4.7586995e-20)
(0.25908038 -0.044747641 1.0348305e-20)
(0.26509165 -0.046444136 -1.5765724e-20)
(0.27071734 -0.047716512 -2.0229331e-21)
(0.27652847 -0.048750078 2.6232055e-21)
(0.28284457 -0.049416123 -1.6609643e-21)
(0.28958657 -0.049730605 -4.6862802e-21)
(0.29670686 -0.049764034 -4.0160418e-21)
(0.30421642 -0.049559751 -1.2208034e-20)
(0.31211384 -0.049144479 1.7898527e-20)
(0.32038179 -0.048543686 6.5223411e-21)
(0.32900022 -0.047781938 -1.6781121e-20)
(0.3379481 -0.046881081 1.0317709e-20)
(0.34720206 -0.04586045 8.3850448e-21)
(0.3567367 -0.044737549 -8.7900271e-22)
(0.36652544 -0.043528391 -3.1221586e-21)
(0.37654098 -0.04224766 -3.8201673e-21)
(0.38675568 -0.040908861 -1.3894583e-21)
(0.39714182 -0.039524447 -1.2306097e-21)
(0.40767194 -0.038105911 -3.0261912e-21)
(0.41831906 -0.036663858 0)
(0.42905693 -0.035208048 -1.3454168e-21)
(0.43986015 -0.033747426 3.9313113e-21)
(0.4507044 -0.032290149 5.4060335e-21)
(0.46156652 -0.030843601 -9.4118285e-22)
(0.47242462 -0.029414409 -2.9282049e-21)
(0.48325817 -0.028008463 3.0267804e-21)
(0.49404809 -0.02663093 2.5422283e-22)
(0.50477673 -0.025286284 3.4363212e-21)
(0.51542794 -0.023978334 -5.3465857e-22)
(0.5259871 -0.022710256 1.717872e-21)
(0.53644104 -0.021484635 -8.0004342e-22)
(0.54677814 -0.020303507 2.9126019e-22)
(0.5569882 -0.019168413 -4.3440332e-22)
(0.56706252 -0.018080443 5.6260039e-22)
(0.57699383 -0.017040302 4.5750401e-22)
(0.58677633 -0.01604836 3.8294247e-22)
(0.59640558 -0.015104739 -9.6041428e-22)
(0.60587892 -0.014209337 6.8441974e-22)
(0.61519446 -0.013362081 -3.7008511e-22)
(0.62435463 -0.012562536 -1.105366e-21)
(0.63335607 -0.011811743 1.4108373e-21)
(0.6422217 -0.011107208 -6.2125299e-23)
(0.65090759 -0.010460276 -1.5864722e-22)
(0.65958103 -0.0098441895 -7.8554036e-24)
(0.6678211 -0.0093618493 -1.2704632e-22)
(0.6769336 -0.0087397117 -4.6799135e-22)
(0.68337492 -0.0088888676 8.7832162e-22)
(0.69705445 -0.0074821025 -4.4395202e-23)
(0.37635923 -0.038370321 -1.7495571e-20)
(0.37171806 -0.044272507 1.2832281e-20)
(0.3728756 -0.048164021 2.9756497e-21)
(0.37591963 -0.05010138 -7.635566e-21)
(0.37831493 -0.051672618 1.2056296e-20)
(0.38073311 -0.053045138 7.791627e-21)
(0.38368673 -0.054032922 -1.2647956e-20)
(0.38711187 -0.0546361 -6.068155e-21)
(0.39094114 -0.054921114 1.2697726e-20)
(0.39519499 -0.054930355 -1.5305676e-20)
(0.3998875 -0.054690844 -1.4063644e-20)
(0.40500906 -0.054228089 1.4130393e-20)
(0.41054339 -0.053567202 6.8196334e-21)
(0.41647278 -0.052731595 -4.2043165e-21)
(0.42277663 -0.051742767 -1.8543761e-21)
(0.42943147 -0.050620604 -4.0580702e-21)
(0.43641191 -0.049383661 5.3046836e-21)
(0.44369146 -0.048049293 3.6683633e-21)
(0.45124289 -0.046633722 -3.2408973e-21)
(0.45903864 -0.0451521 3.1380887e-21)
(0.46705123 -0.04361856 2.7669681e-21)
(0.47525345 -0.042046248 -3.2114363e-21)
(0.4836187 -0.04044735 3.7058729e-22)
(0.49212116 -0.038833099 -3.2573444e-21)
(0.50073594 -0.037213791 7.2469208e-21)
(0.50943925 -0.035598785 6.1090834e-21)
(0.51820851 -0.033996524 8.1008575e-22)
(0.52702241 -0.032414544 -1.7686276e-21)
(0.53586099 -0.030859498 3.7034442e-21)
(0.5447057 -0.029337182 7.1909085e-21)
(0.55353939 -0.02785257 2.3055021e-21)
(0.56234637 -0.02640986 3.3178273e-21)
(0.57111237 -0.025012515 1.9963693e-21)
(0.57982456 -0.023663324 7.459925e-22)
(0.58847152 -0.022364457 -2.6380306e-22)
(0.59704324 -0.021117533 2.722148e-21)
(0.60553112 -0.019923686 6.2037692e-22)
(0.61392797 -0.018783641 2.9509893e-22)
(0.62222793 -0.017697805 5.6273129e-23)
(0.63042688 -0.016666307 9.9097451e-22)
(0.63852147 -0.015689301 4.7058735e-23)
(0.64651254 -0.014766492 4.433008e-22)
(0.65439543 -0.013899343 -1.2642098e-22)
(0.66219057 -0.013085091 -2.7807509e-22)
(0.66985517 -0.012337407 -1.5262537e-22)
(0.67754544 -0.011624857 -4.2354319e-22)
(0.68486673 -0.011068837 1.6234379e-22)
(0.69303141 -0.010348732 -1.2775892e-22)
(0.69876373 -0.01052794 -5.0091969e-22)
(0.7111597 -0.0089026257 2.4631787e-22)
(0.50928355 -0.035976806 3.6471069e-21)
(0.49954 -0.042963317 -1.8958598e-20)
(0.49628555 -0.047386247 -2.3084594e-21)
(0.49556636 -0.04973968 5.4870626e-21)
(0.49418044 -0.051821074 3.0529491e-21)
(0.49270714 -0.053708571 -4.9758086e-23)
(0.49182422 -0.055190939 6.1899905e-21)
(0.49152699 -0.056268816 7.6253629e-21)
(0.49172474 -0.056994077 9.8582867e-21)
(0.49242443 -0.057399242 -1.125044e-20)
(0.49364542 -0.057510092 -2.1580308e-20)
(0.49538286 -0.057352329 -3.9356399e-21)
(0.49762052 -0.056951163 1.5938861e-20)
(0.50033967 -0.05633116 1.2809539e-20)
(0.50351916 -0.055516003 -5.9067861e-21)
(0.50713494 -0.054528236 1.3815092e-21)
(0.51116078 -0.053389294 -3.6604907e-21)
(0.51556917 -0.052119571 2.2449511e-21)
(0.52033181 -0.050738405 -2.9124343e-22)
(0.52542004 -0.049264052 -1.8655636e-21)
(0.53080521 -0.047713682 7.8274711e-21)
(0.53645895 -0.046103372 -2.9325836e-22)
(0.54235345 -0.044448099 4.1836135e-22)
(0.54846168 -0.04276173 -6.5633784e-22)
(0.55475754 -0.041057018 -4.3034847e-21)
(0.56121602 -0.039345603 4.2090996e-21)
(0.56781327 -0.037638017 1.9032527e-21)
(0.57452675 -0.035943702 -3.3087414e-21)