/*--------------------------------*- C++ -*----------------------------------*\
  =========                 |
  \\      /  F ield         | OpenFOAM: The Open Source CFD Toolbox
   \\    /   O peration     | Website:  https://openfoam.org
    \\  /    A nd           | Version:  6
     \\/     M anipulation  |
\*---------------------------------------------------------------------------*/
FoamFile
{
    version     2.0;
    format      ascii;
    class       surfaceScalarField;
    location    "90";
    object      phi_0;
}
// * * * * * * * * * * * * * * * * * * * * * * * * * * * * * * * * * * * * * //

dimensions      [0 3 -1 0 0 0 0];

internalField   nonuniform List<scalar> 
18180
(
0.00031879355
-0.00016328736
-0.00015550614
0.0013094685
-0.0013674379
0.00037676296
0.0030334749
-0.0033346781
0.0016106718
0.005550835
-0.0059776887
0.0034603286
0.0089198835
-0.0092416114
0.0058725629
0.013195279
-0.013082989
0.0088075942
0.018425341
-0.017464348
0.012234285
0.024649085
-0.022351462
0.016127719
0.031893063
-0.027710231
0.020466253
0.040168296
-0.033504053
0.025228821
0.049467578
-0.039692074
0.030392791
0.059763561
-0.046228265
0.035932283
0.071007978
-0.053061331
0.041816914
0.083132509
-0.060135468
0.048010937
0.096051862
-0.067392069
0.054472716
0.10966962
-0.074772497
0.061154743
0.12388624
-0.08222175
0.068005129
0.13861431
-0.08969277
0.074964692
0.15385236
-0.097168407
0.081930364
-0.10464629
0.088699741
0.1697989
0.00039757031
-0.00056085764
0.0016098845
-0.002579752
0.0036899718
-0.0054147654
0.0066886121
-0.008976329
0.010652487
-0.013205486
0.015620516
-0.018051019
0.021619853
-0.023463684
0.028661914
-0.029393524
0.03673875
-0.035787066
0.045820143
-0.042585447
0.055851879
-0.049723809
0.066755525
-0.057131912
0.078429992
-0.064735798
0.090754933
-0.072460409
0.1035958
-0.080232935
0.11680993
-0.087986626
0.13025274
-0.095664562
0.14378452
-0.10322455
0.15726931
-0.1106532
-0.11788105
0.17050407
0.0004807052
-0.0010415628
0.0019190166
-0.0040180633
0.0043531876
-0.0078489364
0.0078178134
-0.012440955
0.012339599
-0.017727271
0.017931953
-0.023643373
0.02458991
-0.030121641
0.032285856
-0.03708947
0.040966498
-0.044467708
0.050551563
-0.052170512
0.06093461
-0.060106855
0.071986101
-0.068183403
0.083558642
-0.076308339
0.095493947
-0.084395714
0.10763082
-0.092369806
0.11981306
-0.10016886
0.13189614
-0.10774764
0.14375063
-0.11507903
0.15525457
-0.12215714
-0.1289319
0.16630542
0.000566259
-0.0016078218
0.0022282837
-0.0056800879
0.0050013592
-0.010622012
0.0088953088
-0.016334904
0.013907231
-0.022739194
0.020014629
-0.029750771
0.027170071
-0.037277083
0.035297851
-0.045217249
0.044293103
-0.05346296
0.054023736
-0.061901146
0.064335236
-0.070418355
0.075057992
-0.078906159
0.086016474
-0.087266821
0.097039249
-0.095418489
0.10796871
-0.10329927
0.11866941
-0.11086956
0.12903402
-0.11811226
0.13898602
-0.12503103
0.14847644
-0.13164756
-0.13796114
0.15750568
0.00065098136
-0.0022588031
0.0025246976
-0.0075538041
0.0056044008
-0.013701715
0.0098657703
-0.020596274
0.015266555
-0.028139978
0.021739053
-0.036223269
0.029185837
-0.044723867
0.037478919
-0.053510332
0.046462596
-0.062446637
0.055959843
-0.071398392
0.065781639
-0.080240151
0.075738176
-0.088862695
0.085650566
-0.097179211
0.095361653
-0.10512958
0.10474461
-0.11268223
0.1137085
-0.11983345
0.12220038
-0.12660414
0.13020414
-0.13303478
0.13773602
-0.13917944
-0.14508189
0.14485677
0.00073073429
-0.0029895373
0.0027924465
-0.0096155162
0.0061273342
-0.017036603
0.010667978
-0.025136918
0.016324489
-0.033796489
0.022977674
-0.042876453
0.030477413
-0.052223606
0.038645841
-0.06167876
0.047284939
-0.071085734
0.056187593
-0.080301046
0.065150623
-0.089203181
0.073987962
-0.097700035
0.082542223
-0.10573347
0.090693183
-0.11328054
0.098362278
-0.12035133
0.1055129
-0.12698407
0.11214705
-0.13323829
0.11829924
-0.13918697
0.124029
-0.1449092
-0.15047614
0.12942325
0.00080082999
-0.0037903672
0.0030142686
-0.011828955
0.0065336205
-0.020555955
0.011241231
-0.029844528
0.016994359
-0.039549618
0.023620664
-0.049502759
0.030920709
-0.059523651
0.03867605
-0.0694341
0.046661559
-0.079071243
0.054660022
-0.08829951
0.062476692
-0.097019851
0.069951571
-0.10517491
0.076967755
-0.11274965
0.083454893
-0.11976768
0.089387769
-0.1262842
0.094780746
-0.13237705
0.099679453
-0.138137
0.10415133
-0.14365886
0.10827663
-0.1490345
-0.15434509
0.11214558
0.00085615447
-0.0046465217
0.0031723928
-0.014145193
0.0067878913
-0.024171453
0.011530849
-0.034587485
0.017204855
-0.045223623
0.023588279
-0.055886183
0.030441796
-0.066377168
0.037521275
-0.076513579
0.044593575
-0.086143543
0.051452398
-0.095158333
0.057931439
-0.10349889
0.063912809
-0.11115628
0.06932975
-0.1181666
0.074163756
-0.12460168
0.078437199
-0.13055764
0.08220312
-0.13614297
0.08553411
-0.14146799
0.088511996
-0.14663674
0.091219629
-0.15174213
-0.15686242
0.093736958
0.0008903514
-0.005536873
0.0032485823
-0.016503424
0.0068582018
-0.027781072
0.01149334
-0.039222624
0.01690794
-0.050638223
0.022840184
-0.061818427
0.029024973
-0.072561958
0.035210392
-0.082698998
0.041174716
-0.092107867
0.046740641
-0.10072426
0.051784187
-0.10854244
0.056237086
-0.11560918
0.060082864
-0.12201237
0.063347953
-0.12786677
0.066089869
-0.13329956
0.068384651
-0.13843775
0.070315465
-0.1433988
0.071963736
-0.14828501
0.073403395
-0.15318179
-0.15815705
0.074698021
0.00089989716
-0.0064367701
0.003233636
-0.018837163
0.006729638
-0.031277074
0.011111854
-0.043604839
0.016093295
-0.055619664
0.021385446
-0.067110577
0.026714565
-0.077891077
0.03183948
-0.087823913
0.036566958
-0.096835346
0.040761496
-0.1049188
0.044347921
-0.11212886
0.047306926
-0.11856819
0.049665053
-0.1243705
0.051481504
-0.12968322
0.052834253
-0.13465231
0.053807594
-0.13941109
0.054482545
-0.14407375
0.054930726
-0.14873319
0.055211532
-0.15346259
0.055371044
-0.15831656
-0.0002024169
0.00020241661
2.8556918e-10
-0.00067787002
0.00047545288
2.3438328e-10
-0.0013426615
0.00066479135
1.5420974e-10
-0.0021326554
0.00078999376
1.1113309e-10
-0.002996262
0.00086360653
7.6389509e-11
-0.0038913497
0.00089508768
4.2140617e-11
-0.0047830104
0.00089166075
1.0484967e-11
-0.0056416901
0.00085867974
-1.983154e-11
-0.0064417177
0.00080002765
-4.5182506e-11
-0.0071601539
0.00071843625
-6.7337347e-11
-0.0077758724
0.00061571862
-8.2421716e-11
-0.0082688246
0.0004929523
-9.2871707e-11
-0.0086194594
0.00035063495
-9.5203327e-11
-0.00880829
0.00018883065
-9.2212288e-11
-0.0088156379
7.3480592e-06
-8.1603985e-11
-0.0086216574
-0.00019398041
-6.5605517e-11
-0.0082065988
-0.00041505859
-4.2572631e-11
-0.0075504031
-0.00065619571
-1.4974189e-11
-0.0066322961
-0.000918107
1.786994e-11
-0.0011871862
-0.0054451099
5.649564e-11
-0.00018800848
0.0003904251
-0.0006251144
0.00091255881
-0.001228955
0.001268632
-0.0019354978
0.0014965365
-0.0026925395
0.0016206483
-0.0034567669
0.001659315
-0.0041916089
0.0016265028
-0.0048654273
0.0015324981
-0.0054500781
0.0013846785
-0.0059197767
0.0011881348
-0.0062501813
0.00094612325
-0.0064176517
0.0006604227
-0.0063986437
0.000331627
-0.0061692301
-4.0582927e-05
-0.0057047752
-0.00045710681
-0.0049798546
-0.00091890103
-0.0039684708
-0.0014264424
-0.0026439742
-0.0019806923
-0.00097891295
-0.0025831683
-0.0032040497
0.0010379506
-0.00015895302
0.00054937813
-0.00051896782
0.0012725736
-0.0010009067
0.0017505709
-0.0015414517
0.0020370815
-0.0020875808
0.0021667775
-0.0025939768
0.002165711
-0.0030210816
0.0020536076
-0.0033334292
0.0018448457
-0.0034982991
0.0015495485
-0.0034846404
0.0011744761
-0.0032621875
0.00072367037
-0.00280074
0.00019897514
-0.0020695286
-0.0003995844
-0.0010367014
-0.0010734101
0.00033110564
-0.0018249139
0.002069046
-0.0026568413
0.0042140219
-0.0035714184
0.0068043788
-0.0045710491
0.0098798353
-0.0056586248
-0.0067839126
0.013459698
-0.00011758034
0.00066695848
-0.00036703326
0.0015220266
-0.00067356247
0.0020571001
-0.00097486772
0.0023383868
-0.0012168557
0.0024087654
-0.0013515091
0.0023003645
-0.0013352291
0.0020373277
-0.00112738
0.0016369966
-0.00068909272
0.0011112611
1.7688062e-05
0.00046769536
0.0010309878
-0.00028962936
0.0023894494
-0.0011594864
0.0041328784
-0.0021430134
0.0063027245
-0.0032432562
0.0089425881
-0.0044647774
0.012098777
-0.0058130298
0.01582068
-0.0072933212
0.020160468
-0.0089108373
0.025172881
-0.010671038
-0.012499352
0.030888321
-6.6907861e-05
0.00073386635
-0.00017915399
0.0016342727
-0.00026648218
0.0021444283
-0.000267561
0.0023394656
-0.00012693177
0.0022681362
0.00020662851
0.0019668042
0.00078143586
0.0014625204
0.001644069
0.00077436349
0.0028403394
-8.5009221e-05
0.0044160769
-0.0011080421
0.0064176934
-0.0022912459
0.0088925994
-0.0036343924
0.011889529
-0.0051399428
0.015458869
-0.0068125965
0.019653035
-0.0086589428
0.024527086
-0.010687081
0.030139608
-0.012905844
0.036553222
-0.015324451
0.043835347
-0.017953163
-0.020692344
0.052028338
-9.9716796e-06
0.00074383805
3.4595694e-05
0.0015897053
0.00020004544
0.0019789786
0.00054707536
0.0019924357
0.0011327848
0.0016824268
0.0020118353
0.0010877537
0.0032374147
0.00023694095
0.0048621203
-0.00085034209
0.0069386162
-0.0021615051
0.0095200075
-0.0036894333
0.012660049
-0.005431287
0.016413248
-0.0073875913
0.020834792
-0.0095614873
0.025980387
-0.011958192
0.031906158
-0.014584713
0.038668945
-0.017449869
0.046327492
-0.02056439
0.054944502
-0.023941461
0.064590474
-0.027599135
-0.031418674
0.075316804
5.0776473e-05
0.00069306159
0.00026576424
0.0013747176
0.00070850922
0.0015362336
0.0014395132
0.0012614317
0.0025176249
0.00060431516
0.0040008012
-0.00039542257
0.005946704
-0.0017089618
0.0084130884
-0.0033167264
0.011457933
-0.0052063495
0.015139408
-0.0073709083
0.019515607
-0.0098074861
0.024644019
-0.012516003
0.030580792
-0.01549826
0.037379833
-0.018757233
0.045091875
-0.022296755
0.053763927
-0.026121921
0.06344009
-0.030240554
0.074164945
-0.034666316
0.085992497
-0.039426686
-0.044404656
0.098978478
0.00011383236
0.00057922925
0.00050865162
0.00097989836
0.001246329
0.00079855628
0.002387421
0.00012033971
0.0039922928
-0.0010005566
0.0061214626
-0.0025245923
0.0088355817
-0.0044230809
0.012195258
-0.0066764025
0.016260649
-0.0092717404
0.021090716
-0.012200976
0.026742188
-0.015458958
0.033268229
-0.019042044
0.040716851
-0.022946883
0.04912911
-0.027169492
0.058537201
-0.031704846
0.068962838
-0.036547557
0.080417066
-0.041694782
0.09290338
-0.047152631
0.10642922
-0.052952531
-0.059014287
0.12103886
0.0001785415
0.00040068778
0.00076021555
0.00039822433
0.0018057683
-0.00024699649
0.0033755019
-0.0014493938
0.0055302694
-0.0031553241
0.0083312183
-0.0053255412
0.011839165
-0.0079310275
0.016113671
-0.010950908
0.02121176
-0.01436983
0.027186298
-0.018175514
0.034084059
-0.022356719
0.041943528
-0.026901513
0.050792466
-0.03179582
0.060645275
-0.037022301
0.071500144
-0.042559716
0.083336045
-0.048383458
0.096110519
-0.054469256
0.10976102
-0.060803133
0.12421839
-0.067409905
-0.0742948
0.13949891
0.00024518166
0.001020169
0.0023838443
0.0043947791
0.0071120179
0.010594071
0.014897328
0.020074139
0.026170562
0.033223869
0.041259941
0.050290711
0.060311804
0.07130044
0.08321344
0.095984726
0.1095206
0.12368216
0.13820262
0.15260756
-0.0035033358
-0.0019417743
1.4463224e-10
-0.0012802377
-0.0022230982
2.2428623e-10
0.0012018598
-0.0024820979
3.0453391e-10
0.0038860496
-0.0026841901
3.8488445e-10
0.0067455311
-0.0028594819
4.5897826e-10
0.0097630063
-0.0030174758
5.3291395e-10
0.012919547
-0.0031565415
5.9958583e-10
0.016197137
-0.0032775903
6.6114407e-10
0.01958008
-0.003382944
7.1673992e-10
0.023054165
-0.0034740858
7.6506428e-10
0.026606113
-0.0035519483
8.0922465e-10
0.030223506
-0.0036173937
8.4854153e-10
0.033894709
-0.0036712042
8.8366094e-10
0.037608735
-0.0037140274
9.1088667e-10
0.041355144
-0.0037464093
9.2695121e-10
0.045123973
-0.0037688303
9.2507815e-10
0.048905695
-0.003781723
8.9881382e-10
0.05269118
-0.0037854856
8.3983505e-10
0.056471675
-0.0037804963
7.4090602e-10
0.0602388
-0.0037671249
5.9527538e-10
0.063984541
-0.0037457416
3.9842435e-10
0.067701264
-0.0037167234
1.4918179e-10
0.071381722
-0.0036804576
-1.5027357e-10
0.075019067
-0.0036373446
-4.9143689e-10
0.078606865
-0.0035877978
-8.6248719e-10
0.082139109
-0.0035322423
-1.2431959e-09
0.085610224
-0.0034711134
-1.6123724e-09
0.089015079
-0.003404853
-1.9397303e-09
0.092348988
-0.0033339066
-2.1994172e-09
0.09560771
-0.0032587196
-2.3570958e-09
0.098787446
-0.0031797342
-2.3908017e-09
0.10188483
-0.0030973856
-2.2703565e-09
0.10489694
-0.0030121003
-1.9880186e-09
0.10782123
-0.0029242933
-1.5265916e-09
0.1106556
-0.0028343677
-9.0417079e-10
0.11339831
-0.0027427147
-1.2516778e-10
0.11604803
-0.0026497145
7.5120755e-10
0.11860377
-0.0025557398
1.6898916e-09
0.12106493
-0.0024611635
2.574236e-09
0.12343128
-0.0023663592
3.337697e-09
0.12570303
-0.0022717468
3.8129139e-09
0.12788073
-0.0021777125
3.9149924e-09
0.12996574
-0.0020850051
3.5190183e-09
0.13195937
-0.0019936381
2.6466197e-09
0.13386628
-0.0019069076
1.3517185e-09
0.13568534
-0.0018190665
-1.5956832e-10
0.13744228
-0.0017569344
-1.5874233e-09
0.13909267
-0.0016503837
-2.5824085e-09
0.14084113
-0.0017484577
-2.7583206e-09
-0.0014034447
-1.4616443e-09
0.0028597582
-0.0037635819
0.0049582491
-0.0043215892
0.0073026189
-0.0048264676
0.0098304165
-0.0052119878
0.012520584
-0.0055496494
0.015360805
-0.0058576968
0.018334346
-0.006130082
0.021424805
-0.0063680499
0.024618171
-0.0065763104
0.027901689
-0.0067576037
0.031263234
-0.0069134934
0.034691334
-0.0070454928
0.038175139
-0.0071550092
0.041704312
-0.0072432014
0.045268948
-0.0073110446
0.048859523
-0.0073594051
0.052466871
-0.0073890709
0.056082161
-0.007400776
0.05969689
-0.0073952255
0.063302883
-0.0073731175
0.066892299
-0.0073351581
0.070457648
-0.0072820725
0.073991802
-0.0072146116
0.077488013
-0.0071335551
0.080939927
-0.0070397118
0.0843416
-0.0069339158
0.08768751
-0.0068170227
0.09097256
-0.006689903
0.094192089
-0.0065534355
0.097341868
-0.0064084993
0.1004181
-0.0062559685
0.10341742
-0.0060967039
0.10633687
-0.0059315493
0.1091739
-0.0057613272
0.11192637
-0.0055868366
0.11459251
-0.0054088534
0.11717093
-0.0052281335
0.11966061
-0.0050454178
0.12206089
-0.004861449
0.12437151
-0.0046769713
0.12659258
-0.0044928238
0.12872465
-0.0043097775
0.13076897
-0.0041293278
0.13272684
-0.0039515058
0.1346028
-0.0037828727
0.13639577
-0.0036120304
0.13813098
-0.0034921503
0.13976505
-0.003284455
0.14149746
-0.0034808685
-0.0028044019
0.0150323
-0.0053361835
0.016864794
-0.0061540837
0.018919873
-0.0068815464
0.021127602
-0.007419716
0.023476349
-0.0078983972
0.025962474
-0.0083438215
0.028573365
-0.0087409732
0.031295549
-0.009090234
0.034117933
-0.009398694
0.037030294
-0.0096699649
0.040022521
-0.0099057197
0.04308476
-0.010107732
0.046207497
-0.010277747
0.049381487
-0.010417191
0.052597711
-0.010527268
0.05584737
-0.010609064
0.059121886
-0.010663587
0.062412913
-0.010691803
0.065712344
-0.010694657
0.069012332
-0.010673106
0.072305311
-0.010628137
0.075584017
-0.010560778
0.07884151
-0.010472105
0.082071199
-0.010363244
0.085266859
-0.010235372
0.088422652
-0.010089708
0.091533133
-0.0099275044
0.094593271
-0.009750041
0.097598445
-0.0095586098
0.10054445
-0.0093545084
0.10342751
-0.0091390247
0.10624424
-0.0089134313
0.10899166
-0.0086789761
0.11166721
-0.0084368762
0.11426869
-0.008188316
0.11679429
-0.0079344469
0.11924255
-0.0076763924
0.12161238
-0.0074152553
0.12390308
-0.007152143
0.12611427
-0.0068881675
0.12824603
-0.006624584
0.13029881
-0.0063625488
0.13227378
-0.006104298
0.13417217
-0.0058498968
0.13599838
-0.0056090891
0.13775142
-0.0053650714
0.13945559
-0.0051963127
0.1410698
-0.0048986653
0.14278298
-0.0051940502
-0.0042136225
0.032072946
-0.0065208081
0.033489576
-0.0075707144
0.035096634
-0.0084886043
0.036821144
-0.0091442258
0.038663798
-0.0097410512
0.040630904
-0.010310927
0.042715299
-0.010825368
0.044907467
-0.011282402
0.047199841
-0.011691068
0.0495852
-0.012055324
0.052055845
-0.012376365
0.054603831
-0.012655718
0.057221156
-0.012895071
0.059899788
-0.013095823
0.062631676
-0.013259157
0.065408789
-0.013386177
0.068223159
-0.013477958
0.071066925
-0.013535568
0.07393237
-0.013560101
0.076811961
-0.013552697
0.079698387
-0.013514564
0.082584593
-0.013446984
0.08546381
-0.013351321
0.088329586
-0.01322902
0.091175811
-0.013081597
0.093996736
-0.012910633
0.09678699
-0.012717759
0.099541594
-0.012504644
0.10225596
-0.012272979
0.10492592
-0.012024462
0.10754767
-0.011760781
0.11011785
-0.011483608
0.11263345
-0.01119458
0.11509188
-0.010895299
0.11749089
-0.010587325
0.11982861
-0.010272176
0.12210356
-0.0099513349
0.12431456
-0.0096262622
0.12646085
-0.009298425
0.12854198
-0.0089693016
0.13055796
-0.0086405616
0.13250916
-0.0083137481
0.13439669
-0.0079918308
0.13622173
-0.0076749345
0.1379885
-0.0073758634
0.13969621
-0.0070727778
0.14136778
-0.006867882
0.14296561
-0.0064964979
0.14466341
-0.0068918506
-0.0056470677
0.052669986
-0.0071624559
0.053512004
-0.0084127319
0.05450764
-0.0094842405
0.05559122
-0.010227806
0.056777572
-0.010927403
0.058080999
-0.011614354
0.05950002
-0.012244389
0.061029776
-0.012812159
0.062666065
-0.013327357
0.064404299
-0.013793558
0.066238966
-0.014211032
0.068163807
-0.014580559
0.070172067
-0.014903331
0.072256656
-0.015180412
0.074410239
-0.015412739
0.076625315
-0.015601253
0.078894307
-0.01574695
0.081209636
-0.015850898
0.083563792
-0.015914257
0.08594939
-0.015938296
0.088359226
-0.015924399
0.090786322
-0.01587408
0.093223966
-0.015788965
0.095665747
-0.015670801
0.098105585
-0.015521436
0.10053775
-0.0153428
0.10295689
-0.015136898
0.10535803
-0.014905782
0.10773659
-0.014651536
0.11008837
-0.014376251
0.11240961
-0.014082013
0.11469688
-0.013770884
0.11694719
-0.01344489
0.1191579
-0.013106011
0.12132676
-0.012756177
0.12345185
-0.012397272
0.12553165
-0.012031134
0.12756497
-0.011659581
0.12955098
-0.01128444
0.13148924
-0.010907556
0.13337969
-0.010531015
0.1352227
-0.010156752
0.13701933
-0.0097884625
0.13877076
-0.0094263651
0.14048107
-0.0090861698
0.14214975
-0.0087414673
0.1437981
-0.0085162233
0.14539292
-0.0080913229
0.14708909
-0.0085880155
-0.0071280427
0.07524708
-0.0070927322
0.075353402
-0.0085190535
0.0755792
-0.0097100386
0.075881012
-0.010529618
0.076286888
-0.011333279
0.076813687
-0.012141153
0.077464453
-0.012895156
0.078239127
-0.013586832
0.079136025
-0.014224255
0.080152009
-0.014809542
0.081282845
-0.015341868
0.082523247
-0.01582096
0.083867041
-0.016247125
0.085307459
-0.01662083
0.086837336
-0.016942616
0.088449233
-0.01721315
0.090135546
-0.017433263
0.091888613
-0.017603964
0.093700806
-0.01772645
0.095564608
-0.017802098
0.097472674
-0.017832466
0.099417887
-0.017819292
0.1013934
-0.017764483
0.1033927
-0.017670092
0.10540957
-0.017538312
0.10743821
-0.017371441
0.10947318
-0.017171868
0.11150944
-0.016942041
0.11354236
-0.016684449
0.11556769
-0.016401589
0.11758164
-0.016095954
0.11958076
-0.015770007
0.12156204
-0.015426168
0.12352283
-0.015066802
0.12546087
-0.014694219
0.12737427
-0.014310671
0.1292615
-0.013918363
0.13112139
-0.013519472
0.13295314
-0.013116193
0.13475633
-0.012710746
0.13653095
-0.012305638
0.13827741
-0.011903208
0.13999682
-0.011507869
0.14169043
-0.011119978
0.14336223
-0.010757971
0.14501217
-0.010391403
0.14665967
-0.010163731
0.14827675
-0.0097083968
0.14999696
-0.010308226
-0.0086887159
0.098052628
-0.0061668818
0.097286577
-0.0077530031
0.096611574
-0.0090350357
0.096028512
-0.0099465556
0.095573533
-0.0108783
0.095257876
-0.011825496
0.095086916
-0.012724196
0.095064665
-0.013564581
0.095190666
-0.014350256
0.095461662
-0.015080538
0.095873303
-0.015753509
0.09642019
-0.016367847
0.097095848
-0.016922783
0.097893055
-0.017418038
0.098804141
-0.017853702
0.099821146
-0.018230156
0.10093595
-0.018548066
0.10214038
-0.018808397
0.10342633
-0.019012403
0.10478584
-0.019161598
0.10621112
-0.019257753
0.1076947
-0.01930287
0.10922939
-0.019299169
0.11080835
-0.019249058
0.11242515
-0.019155108
0.11407374
-0.019020029
0.11574849
-0.018846625
0.11744423
-0.01863778
0.1191562
-0.018396419
0.12088009
-0.018125476
0.12261201
-0.017827879
0.12434852
-0.017506515
0.12608658
-0.017164224
0.12782356
-0.016803781
0.12955723
-0.016427891
0.13128575
-0.016039196
0.13300767
-0.015640282
0.1347219
-0.015233703
0.13642775
-0.014822038
0.1381249
-0.014407894
0.13981348
-0.013994217
0.14149403
-0.013583762
0.14316782
-0.013181661
0.14483629
-0.012788447
0.14650343
-0.012425111
0.14816975
-0.012057722
0.14985281
-0.011846793
0.15153024
-0.01138583
0.15331315
-0.012091131
-0.010370868
0.11921615
-0.0043441775
0.11752458
-0.0060614329
0.11588618
-0.0073966314
0.11438485
-0.008445231
0.11305685
-0.0095503009
0.1118997
-0.010668339
0.11091885
-0.011743354
0.11012062
-0.012766344
0.1095044
-0.013734044
0.10906563
-0.014641766
0.1087985
-0.015486377
0.10869635
-0.016265701
0.10875161
-0.016978038
0.10895597
-0.017622395
0.10930071
-0.018198449
0.10977692
-0.018706363
0.11037558
-0.01914672
0.11108769
-0.019520508
0.11190439
-0.019829103
0.11281702
-0.020074228
0.11381719
-0.020257926
0.11489685
-0.02038253
0.11604832
-0.020450637
0.11726433
-0.020465066
0.11853805
-0.020428834
0.11986313
-0.020345106
0.12123368
-0.020217171
0.12264429
-0.020048394
0.12409005
-0.019842183
0.12556654
-0.019601963
0.1270698
-0.019331135
0.12859634
-0.019033057
0.13014314
-0.018711025
0.13170762
-0.018368258
0.13328762
-0.018007892
0.13488141
-0.017632988
0.13648767
-0.017246541
0.13810548
-0.016851511
0.13973432
-0.016450884
0.14137411
-0.01604768
0.14302519
-0.015645302
0.14468837
-0.015246943
0.14636517
-0.014858461
0.14805734
-0.01448061
0.14976898
-0.014136758
0.1515013
-0.013790043
0.15327005
-0.013615537
0.15505872
-0.013174505
0.15695584
-0.013988249
-0.012225813
0.13692065
-0.0017659232
0.13440351
-0.0035442887
0.13184587
-0.0048389978
0.12948984
-0.0060891975
0.12736261
-0.0074230701
0.12544556
-0.0087512922
0.12374154
-0.01003933
0.12225563
-0.011280437
0.1209863
-0.012464712
0.11992778
-0.013583247
0.11907258
-0.014631174
0.11841235
-0.015605477
0.11793812
-0.016503809
0.11764037
-0.017324643
0.11750924
-0.01806732
0.11753474
-0.018731858
0.11770685
-0.019318835
0.11801568
-0.01982934
0.11845152
-0.020264937
0.11900492
-0.020627626
0.11966678
-0.02091979
0.12042841
-0.021144159
0.12128155
-0.021303774
0.12221841
-0.021401934
0.12323174
-0.021442163
0.1243148
-0.021428159
0.12546137
-0.021363746
0.12666582
-0.02125284
0.12792303
-0.021099399
0.12922846
-0.020907389
0.13057807
-0.020680745
0.13196836
-0.02042335
0.13339634
-0.020139006
0.13485951
-0.019831422
0.13635583
-0.019504213
0.13788374
-0.019160896
0.13944212
-0.01880492
0.14103029
-0.01843968
0.14264801
-0.018068608
0.1442955
-0.017695167
0.14597344
-0.017323245
0.147683
-0.016956502
0.14942607
-0.016601533
0.15120482
-0.016259359
0.15302362
-0.01595556
0.15488445
-0.015650876
0.15680137
-0.015532449
0.15876386
-0.015137001
0.16083828
-0.016062669
-0.014313473
0.15007251
0.00076912574
0.14678423
-0.00025601238
0.14348769
-0.0015424526
0.14044079
-0.0030422972
0.13764686
-0.0046291376
0.13509964
-0.0062040792
0.13280099
-0.0077406814
0.130751
-0.0092304451
0.12894724
-0.010660945
0.1273845
-0.012020512
0.12605498
-0.013301655
0.12494928
-0.014499779
0.12405724
-0.015611766
0.1233682
-0.016635606
0.1228712
-0.017570318
0.12255514
-0.018415794
0.12240895
-0.019172648
0.12242174
-0.019842133
0.12258288
-0.020426068
0.12288204
-0.020926793
0.12330935
-0.021347101
0.12385539
-0.021690196
0.12451125
-0.021959632
0.12526858
-0.022159269
0.12611963
-0.022293213
0.12705724
-0.022365765
0.12807486
-0.022381372
0.12916659
-0.022344568
0.13032713
-0.022259935
0.13155179
-0.02213205
0.1328365
-0.021965453
0.13417776
-0.02176461
0.13557264
-0.021533893
0.13701878
-0.021277561
0.13851432
-0.020999755
0.14005793
-0.020704505
0.14164876
-0.020395752
0.14328646
-0.020077379
0.14497115
-0.019753293
0.14670342
-0.01942744
0.14848441
-0.01910423
0.15031572
-0.01878781
0.15219973
-0.018485545
0.1541391
-0.018198728
0.15613862
-0.017955084
0.15820096
-0.017713219
0.16033912
-0.017670608
0.16254691
-0.017344785
0.16487386
-0.018389617
-0.016698442
0.18893942
0.0053699326
-0.19354023
0.18513063
0.0035527748
0.18173988
0.0018482989
0.1785961
0.00010148296
0.17566195
-0.0016949841
0.17291239
-0.0034545241
0.17032922
-0.0051575089
0.16790344
-0.0068046699
0.16563119
-0.0083886939
0.16351032
-0.009899637
0.16153897
-0.011330305
0.15971504
-0.012675853
0.15803591
-0.013932632
0.15649828
-0.015097984
0.15509827
-0.016170299
0.15383139
-0.01714892
0.15269275
-0.018034009
0.15167707
-0.018826447
0.15077877
-0.019527776
0.14999212
-0.020140136
0.14931122
-0.020666201
0.14873014
-0.021109122
0.14824298
-0.021472466
0.14784387
-0.021760158
0.14752707
-0.021976416
0.147287
-0.0221257
0.14711828
-0.022212644
0.14701571
-0.022242002
0.14697437
-0.022218598
0.1469896
-0.022147271
0.14705698
-0.022032835
0.14717241
-0.021880041
0.14733207
-0.021693552
0.14753243
-0.021477921
0.14777026
-0.021237588
0.14804264
-0.020976883
0.14834693
-0.020700046
0.14868082
-0.020411266
0.14904229
-0.020114765
0.14942966
-0.019814807
0.14984159
-0.019516161
0.1502771
-0.019223322
0.15073574
-0.01894418
0.15121729
-0.018680284
0.15172287
-0.018460667
0.15225258
-0.018242925
0.15281215
-0.01823018
0.15339608
-0.017928716
0.1540331
-0.019026633
-0.017345801
0.21688728
0.0087669807
-0.22028433
0.21341473
0.0070253188
0.21020328
0.0050597524
0.20709938
0.0032053813
0.20405426
0.0013501392
0.20109887
-0.0004991372
0.19825011
-0.0023087493
0.1955125
-0.0040670582
0.19289195
-0.0057681383
0.19039529
-0.0074029777
0.18802773
-0.0089627518
0.18579269
-0.010440813
0.18369217
-0.011832111
0.18172688
-0.013132693
0.1798963
-0.014339716
0.17819881
-0.015451433
0.17663189
-0.016467087
0.17519223
-0.01738679
0.17387591
-0.018211452
0.17267848
-0.018942708
0.17159512
-0.019582844
0.17062073
-0.020134729
0.16975
-0.020601739
0.16897754
-0.020987692
0.1682979
-0.021296775
0.16770567
-0.021533478
0.16719555
-0.021702521
0.16676234
-0.021808794
0.16640104
-0.021857295
0.16610684
-0.02185307
0.16587517
-0.021801167
0.16570172
-0.021706593
0.16558245
-0.021574282
0.1655136
-0.021409071
0.16549171
-0.021215692
0.1655136
-0.020998776
0.16557642
-0.020762869
0.16567763
-0.020512474
0.165815
-0.020252135
0.16598665
-0.019986457
0.16619106
-0.019720568
0.16642709
-0.019459356
0.16669406
-0.019211149
0.16699181
-0.018978038
0.16732066
-0.018789517
0.16768219
-0.018604453
0.16807664
-0.018624631
0.16851168
-0.018363758
0.16897373
-0.019488677
-0.01787599
0.24379419
0.011489723
-0.24651693
0.24094503
0.0098744762
0.23809313
0.0079116554
0.23524754
0.0060509737
0.23237118
0.0042264963
0.22948488
0.0023871657
0.22661985
0.00055627839
0.2237954
-0.0012426098
0.22102746
-0.0030001946
0.21833196
-0.0047074821
0.21572278
-0.0063535713
0.21321092
-0.0079289563
0.21080501
-0.0094262001
0.20851162
-0.010839299
0.20633539
-0.012163483
0.20427921
-0.013395259
0.20234447
-0.014532342
0.20053121
-0.015573531
0.19883837
-0.016518613
0.19726394
-0.017368277
0.19580512
-0.01812403
0.1944585
-0.018788106
0.19322015
-0.019363385
0.19208577
-0.01985331
0.19105079
-0.020261799
0.19011048
-0.020593171
0.18926002
-0.020852061
0.18849458
-0.021043348
0.18780936
-0.021172081
0.18719971
-0.021243416
0.1866611
-0.021262553
0.1861892
-0.021234693
0.18577991
-0.021164992
0.18542937
-0.021058539
0.18513401
-0.020920333
0.18489053
-0.020755292
0.18469592
-0.020568262
0.18454751
-0.02036406
0.18444293
-0.020147558
0.18438019
-0.019923708
0.18435762
-0.019697999
0.18437402
-0.019475754
0.18442851
-0.019265643
0.18452106
-0.019070585
0.18465118
-0.01891964
0.18482207
-0.01877534
0.18502803
-0.018830593
0.18529107
-0.018626802
0.18554986
-0.019747462
-0.018266267
0.26929925
0.013521635
-0.27133116
0.26713232
0.01204141
0.26479172
0.010252257
0.26235371
0.008488977
0.25982627
0.0067539424
0.25721956
0.0049938741
0.25455971
0.0032161258
0.2518709
0.0014462005
0.24917313
-0.0003024243
0.24648621
-0.0020205664
0.24382945
-0.0036968073
0.24121998
-0.0053194875
0.23867254
-0.0068787634
0.23619964
-0.0083663955
0.23381158
-0.0097754207
0.23151653
-0.011100213
0.2293207
-0.01233651
0.22722849
-0.013481326
0.22524274
-0.014532855
0.22336484
-0.015490382
0.22159501
-0.016354194
0.21993239
-0.017125486
0.21837527
-0.017806267
0.21692122
-0.01839926
0.21556723
-0.01890781
0.21430985
-0.01933579
0.2131453
-0.019687509
0.21206957
-0.019967623
0.21107854
-0.020181054
0.21016804
-0.02033291
0.20933391
-0.02042842
0.20857208
-0.02047287
0.20787865
-0.020471555
0.20724986
-0.020429747
0.20668219
-0.020352665
0.20617237
-0.020245473
0.2057174
-0.020113296
0.20531459
-0.019961248
0.20496155
-0.01979452
0.20465626
-0.019618414
0.20439703
-0.019438771
0.20418265
-0.019261375
0.20401217
-0.01909516
0.20388567
-0.018944086
0.20380207
-0.018836038
0.20376585
-0.018739124
0.20376624
-0.018830987
0.20383727
-0.01869783
0.20387445
-0.019784639
-0.018493793
0.29300713
0.014851981
-0.29433747
0.29152874
0.013519801
0.28980716
0.011973832
0.28790951
0.010386628
0.28587066
0.0087927914
0.28370144
0.0071630994
0.28142025
0.0054973126
0.27905035
0.0038160991
0.27661305
0.0021348776
0.27412851
0.00046397718
0.27161693
-0.0011852312
0.26909806
-0.0028006169
0.26659023
-0.0043709316
0.26411004
-0.0058862045
0.26167224
-0.0073376222
0.25928961
-0.0087175847
0.25697293
-0.010019828
0.25473103
-0.011239426
0.25257091
-0.012372735
0.25049786
-0.013417338
0.24851564
-0.014371969
0.24662659
-0.015236435
0.24483184
-0.016011519
0.24313146
-0.016698885
0.24152463
-0.017300976
0.24000975
-0.017820917
0.23858465
-0.018262406
0.23724665
-0.018629626
0.23599274
-0.018927142
0.23481965
-0.019159818
0.23372396
-0.019332733
0.23270221
-0.019451114
0.23175093
-0.019520272
0.23086673
-0.019545557
0.2300464
-0.019532326
0.22928685
-0.019485931
0.22858528
-0.019411722
0.22793911
-0.019315077
0.22734607
-0.019201483
0.22680423
-0.019076576
0.226312
-0.018946536
0.22586824
-0.018817617
0.22547203
-0.018698951
0.22512361
-0.018595667
0.22482151
-0.018533933
0.22457112
-0.018488734
0.22435775
-0.018617617
0.22422433
-0.01856441
0.22403103