/*--------------------------------*- C++ -*----------------------------------*\
  =========                 |
  \\      /  F ield         | OpenFOAM: The Open Source CFD Toolbox
   \\    /   O peration     | Website:  https://openfoam.org
    \\  /    A nd           | Version:  6
     \\/     M anipulation  |
\*---------------------------------------------------------------------------*/
FoamFile
{
    version     2.0;
    format      ascii;
    class       volSymmTensorField;
    location    "90";
    object      UPrime2Mean;
}
// * * * * * * * * * * * * * * * * * * * * * * * * * * * * * * * * * * * * * //

dimensions      [0 2 -2 0 0 0 0];

internalField   nonuniform List<symmTensor> 
9200
(
(0.00021894059 -0.00016996161 8.024126e-22 0.00013643795 -4.2983479e-22 1.2915192e-38)
(0.0013435092 -0.0010767598 2.0326891e-21 0.00086622969 -1.5171994e-21 1.404384e-38)
(0.0027008167 -0.002100302 2.6561846e-22 0.0016422427 -1.9928901e-22 7.7029472e-39)
(0.0042334016 -0.0030793846 -3.0370562e-21 0.0022637514 2.140593e-21 1.5341996e-38)
(0.0057247969 -0.0039398072 1.2925394e-22 0.0027559679 -1.1217806e-22 2.2513746e-39)
(0.0070695313 -0.0046432692 1.2564012e-21 0.0031192644 -8.4023231e-22 3.4683797e-40)
(0.0081971738 -0.0051776468 -2.6301157e-22 0.0033674552 1.8544679e-22 1.020038e-39)
(0.0090533124 -0.0055457574 2.3945748e-22 0.0035229558 -1.6417444e-22 6.8707697e-40)
(0.0096030576 -0.0057575354 1.2178154e-21 0.0036071402 -7.4527658e-22 1.9584153e-39)
(0.0098319744 -0.0058265462 9.3937043e-23 0.0036380874 -5.7974995e-23 5.5683186e-42)
(0.0097455737 -0.0057683369 -1.2947711e-21 0.0036306423 8.0649803e-22 1.0472455e-39)
(0.0093684334 -0.0055994099 1.0766197e-21 0.0035966249 -6.9799879e-22 1.392662e-40)
(0.008742159 -0.0053365719 -1.9110948e-21 0.0035451346 1.3133596e-21 2.2364137e-39)
(0.0079218122 -0.0049965351 -9.628533e-22 0.0034829537 6.7607373e-22 1.38488e-40)
(0.0069709887 -0.0045956583 2.4889254e-22 0.0034149796 -1.8895483e-22 1.7957431e-41)
(0.005956024 -0.004149723 -9.2923889e-22 0.0033446388 7.467433e-22 1.8459609e-40)
(0.0049398479 -0.0036737279 8.093513e-22 0.0032744342 -7.0735951e-22 2.2525294e-40)
(0.0039761796 -0.0031818974 5.9084414e-22 0.0032076347 -5.421829e-22 9.4798744e-40)
(0.0031085948 -0.0026870915 -2.3968301e-23 0.003148674 4.94805e-23 1.7627939e-40)
(0.0023828104 -0.0021991032 -1.5045525e-23 0.0030674641 4.4977982e-23 2.184926e-40)
(0.00028846354 -0.00019283182 8.4669618e-23 0.00013240465 -3.2828162e-23 2.2656091e-40)
(0.0017099726 -0.0011866651 2.154525e-21 0.00082599167 -1.4017367e-21 1.4988031e-38)
(0.0033787449 -0.0022798034 -7.1232467e-22 0.0015464944 4.7689799e-22 8.1455599e-39)
(0.005147742 -0.0032807504 -5.4425209e-21 0.0021130013 3.4114983e-21 3.5487479e-38)
(0.0067681834 -0.0041214411 -1.7974504e-22 0.0025520611 1.1579099e-22 4.4798097e-40)
(0.0081202921 -0.0047690741 4.1783743e-21 0.002868518 -2.4793876e-21 1.1728963e-38)
(0.0091340956 -0.0052201124 -1.702412e-21 0.0030799534 1.0033027e-21 3.9444456e-40)
(0.0097688042 -0.0054868702 -5.1423813e-22 0.0032104298 3.0070813e-22 1.4397688e-40)
(0.010013113 -0.0055880191 1.9418048e-21 0.0032816995 -1.145917e-21 1.0933774e-39)
(0.0098834331 -0.0055446068 -2.3432733e-21 0.0033113959 1.4097531e-21 1.2487985e-39)
(0.0094205087 -0.0053782409 -1.6548281e-21 0.0033132414 1.0234093e-21 1.5551865e-39)
(0.0086849521 -0.0051100559 3.5528643e-21 0.0032973849 -2.2935475e-21 7.8999833e-39)
(0.007751189 -0.0047601992 1.6476415e-21 0.0032708279 -1.1361251e-21 5.4008137e-40)
(0.0067000512 -0.0043476593 -2.5781183e-21 0.0032379151 1.9059609e-21 2.6972042e-39)
(0.0056108879 -0.0038902534 4.583707e-22 0.0032008061 -3.6708798e-22 2.2701967e-40)
(0.0045542843 -0.0034046418 -1.0144863e-21 0.0031598881 9.1435467e-22 5.948618e-40)
(0.0035863097 -0.0029063107 -4.2144527e-22 0.0031142149 4.4900013e-22 1.8943417e-40)
(0.0027449014 -0.0024092724 1.2603885e-21 0.0030620515 -1.474436e-21 3.0531669e-39)
(0.0020506585 -0.0019246725 5.9211001e-22 0.0029982161 -8.3233529e-22 5.7055396e-40)
(0.0015149622 -0.0014638007 -2.4447004e-22 0.002895833 3.1690497e-22 4.4560273e-39)
(0.00036677109 -0.00020892108 -7.0225286e-22 0.00012170308 2.9932365e-22 5.8429176e-39)
(0.0020992684 -0.0012493514 -1.1650099e-21 0.00074544907 6.472265e-22 6.0926882e-39)
(0.0040719456 -0.0023631966 -1.336547e-21 0.0013789371 7.7814252e-22 1.5229077e-38)
(0.0060370636 -0.0033412871 4.3519115e-23 0.0018696543 -2.4003169e-23 1.6486088e-42)
(0.0077201242 -0.0041255174 8.6513162e-23 0.0022445242 -3.922007e-23 1.0938115e-38)
(0.0089969511 -0.0046922644 1.4688117e-21 0.0025125375 -7.876513e-22 3.0567846e-39)
(0.0098115967 -0.0050484419 1.2983431e-22 0.0026934359 -6.6577199e-23 1.2662675e-39)
(0.010151885 -0.0052158905 -2.4494674e-21 0.0028108066 1.3320686e-21 7.883675e-40)
(0.01004417 -0.0052208034 2.8889115e-21 0.0028846781 -1.6146152e-21 1.4964057e-39)
(0.0095466677 -0.0050896501 9.4778574e-22 0.0029302947 -5.574892e-22 1.6723621e-39)
(0.0087411289 -0.0048475867 -2.5886495e-21 0.0029585372 1.5963215e-21 3.4265119e-39)
(0.0077233372 -0.0045178422 -8.0466042e-22 0.002976446 5.3425979e-22 1.1265599e-39)
(0.0065927106 -0.0041217229 3.0099234e-22 0.0029878184 -2.1223593e-22 3.0645724e-39)
(0.0054421329 -0.0036789154 6.8727202e-22 0.0029938542 -5.4992643e-22 4.3435606e-40)
(0.0043494705 -0.0032077999 -2.3574191e-22 0.0029937951 2.127048e-22 3.3581907e-40)
(0.0033719767 -0.002725592 5.5189647e-22 0.0029855448 -5.7490629e-22 2.5864573e-40)
(0.002544171 -0.0022482481 -3.8051553e-22 0.002966253 4.6790056e-22 9.7451931e-41)
(0.0018790233 -0.0017900591 -7.5290152e-22 0.0029326574 1.1038907e-21 2.4558253e-39)
(0.0013719716 -0.0013627196 -1.4212244e-23 0.0028806323 1.5960176e-23 2.2474846e-39)
(0.0010077073 -0.00097683273 2.5636967e-22 0.0028017492 -5.9929086e-22 2.4414832e-40)
(0.00045117847 -0.00021584716 -5.5733595e-22 0.000105306 2.0555368e-22 2.9024186e-39)
(0.0024910726 -0.0012542685 8.3612208e-22 0.00063302595 -4.1062693e-22 5.3608269e-40)
(0.004738096 -0.0023360375 7.4373727e-22 0.0011584009 -3.6766723e-22 6.2578873e-40)
(0.0068400692 -0.0032495339 1.6301986e-21 0.0015623938 -7.8006936e-22 6.7617205e-39)
(0.0085078918 -0.0039496509 1.4226871e-21 0.0018709201 -6.790691e-22 3.0062494e-39)
(0.0096275425 -0.0044241786 -2.4728261e-21 0.0020957329 1.1856625e-21 2.2835845e-39)
(0.010173558 -0.0046900825 -1.3761442e-21 0.0022564085 6.735402e-22 6.4903042e-40)
(0.010177466 -0.0047763107 0 0.0023736888 0 0)
(0.0097142155 -0.0047131868 1.4902458e-21 0.0024638298 -8.2424834e-22 8.421903e-39)
(0.0088884208 -0.0045289688 -6.3998896e-22 0.0025380095 3.8670059e-22 3.1911247e-39)
(0.0078198332 -0.00424908 -3.7313991e-21 0.0026029686 2.2831355e-21 2.7335638e-39)
(0.0066290349 -0.003896345 -4.7889008e-22 0.002661715 3.0900471e-22 5.6902522e-40)
(0.0054246021 -0.0034916636 1.8028899e-21 0.0027142986 -1.3914774e-21 3.7957332e-39)
(0.0042933944 -0.003054637 1.1154233e-22 0.0027586405 -7.2950121e-23 1.5885487e-39)
(0.0032952162 -0.0026038179 -2.7368086e-23 0.0027913807 2.8065613e-23 1.0935841e-42)
(0.0024621575 -0.0021564913 2.9076492e-22 0.0028087177 -3.5480136e-22 1.9244844e-40)
(0.0018019565 -0.0017280867 5.6792063e-24 0.0028071226 3.8769591e-24 2.2994226e-40)
(0.0013039836 -0.0013314535 -5.0584417e-22 0.0027836491 9.1063735e-22 5.7051885e-40)
(0.0009459438 -0.00097614809 -2.7517329e-22 0.0027372781 6.2773541e-22 4.0142123e-40)
(0.00070047132 -0.00066865151 1.2797877e-22 0.0026729337 -4.516833e-22 2.6061478e-39)
(0.00053778354 -0.00021160132 4.1975977e-22 8.4763727e-05 -1.3371217e-22 1.1419437e-39)
(0.0028604322 -0.001194791 1.7462174e-21 0.00050024191 -6.9657518e-22 1.0288546e-38)
(0.0053299527 -0.0021928338 1.3484517e-21 0.00090805892 -5.5764836e-22 6.4489333e-40)
(0.0074950096 -0.0030076035 1.5107715e-21 0.0012237665 -6.1946404e-22 3.6167701e-39)
(0.0090675771 -0.0036084653 -2.309147e-21 0.0014706747 9.6027596e-22 5.6947853e-39)
(0.0099615118 -0.0039943392 8.0793301e-23 0.0016612244 -2.6236902e-23 5.42375e-40)
(0.010198201 -0.004188937 1.3001914e-22 0.0018123638 -5.7420026e-23 4.5166131e-42)
(0.009864157 -0.0042234689 1.8405468e-21 0.001939974 -8.7202902e-22 2.0267648e-39)
(0.0090867979 -0.0041274767 2.4653949e-22 0.0020550586 -1.2450009e-22 1.808493e-41)
(0.0080126144 -0.0039269226 -6.559816e-22 0.0021636972 3.8231939e-22 1.1000014e-39)
(0.0067872454 -0.0036447311 2.1135253e-21 0.0022678373 -1.3547185e-21 7.6481543e-39)
(0.0055390177 -0.0033019307 -1.5382041e-21 0.0023661509 1.0451552e-21 6.3650396e-40)
(0.0043675771 -0.002918639 -2.8597883e-21 0.0024550004 2.3217548e-21 4.5585975e-39)
(0.003338692 -0.0025144083 -9.3576475e-23 0.002529491 9.0102896e-23 9.7120676e-42)
(0.0024850879 -0.0021078179 9.9034794e-22 0.0025845309 -1.1727326e-21 3.7675621e-39)
(0.0018119322 -0.0017155347 0 0.0026158069 0 0)
(0.001304893 -0.0013512294 1.2629795e-22 0.002620454 -1.9049636e-22 9.8193884e-41)
(0.00093862533 -0.001024785 -5.8113884e-23 0.0025971362 1.4220413e-22 1.4669781e-40)
(0.0006837101 -0.00074204639 -6.2579561e-23 0.0025478121 1.4552641e-22 3.8014706e-41)
(0.00051153385 -0.00050480616 2.4619499e-23 0.0024839798 -1.3210564e-22 2.6454611e-40)
(0.00062187049 -0.00019501664 9.1723625e-22 6.2216324e-05 -2.3621921e-22 4.6178465e-39)
(0.0031812502 -0.0010704007 8.9009981e-23 0.00036110504 -2.9251889e-23 8.5200775e-42)
(0.0058029736 -0.0019400686 -2.541319e-22 0.00065374745 8.6153047e-23 3.7682797e-41)
(0.0079509391 -0.0026336642 2.4960141e-22 0.00088749457 -8.1480681e-23 7.4676559e-40)
(0.0093571809 -0.0031340642 -1.5820043e-21 0.0010815765 5.598383e-22 1.3977322e-39)
(0.0099813952 -0.0034478178 -7.5406733e-22 0.0012469965 2.7815639e-22 1.2514863e-40)
(0.0099041762 -0.0035993267 5.1942746e-22 0.0013962245 -1.6128481e-22 3.9940925e-39)
(0.009270839 -0.0036157413 -2.0792126e-23 0.001539197 2.3155457e-23 3.1262037e-40)
(0.0082559096 -0.0035208048 -1.2442987e-21 0.0016810994 6.3554349e-22 3.2965312e-39)
(0.0070345793 -0.003335109 2.1421831e-21 0.0018226601 -1.1459204e-21 9.3555868e-40)
(0.0057606307 -0.0030778872 -5.0665101e-23 0.0019610233 8.344587e-23 1.717008e-39)
(0.0045522371 -0.0027684657 -1.6627437e-21 0.0020907855 1.2608136e-21 4.6853345e-39)
(0.003486284 -0.002426709 0 0.0022052265 0 0)
(0.0026004196 -0.0020723447 3.8852317e-22 0.0022976205 -4.7357587e-22 2.5320177e-39)
(0.0019006151 -0.0017235453 1.7013115e-23 0.0023624371 -4.3973824e-23 1.3897909e-40)
(0.0013713065 -0.0013953809 -4.6359059e-22 0.0023962442 7.8949623e-22 2.925759e-39)
(0.00098543047 -0.0010986893 -1.0514223e-22 0.0023980689 2.0295975e-22 5.9821182e-41)
(0.0007125268 -0.00083972039 -2.9798627e-23 0.0023690447 9.3588436e-23 9.8634214e-41)
(0.00052387871 -0.00062066054 -4.026978e-23 0.0023137455 1.2603781e-22 3.7670363e-41)
(0.00039493533 -0.0004401341 6.947003e-23 0.0022457227 -3.0722379e-22 3.6283053e-40)
(0.00069844483 -0.00016606543 3.5443844e-22 4.0178063e-05 -6.8208219e-23 7.3135866e-40)
(0.0034296805 -0.00088736261 -2.5284664e-21 0.00023034964 6.3657682e-22 1.5901296e-38)
(0.0061213986 -0.0015958778 -2.3243034e-22 0.0004204649 6.5427436e-23 1.4847211e-39)
(0.0081748742 -0.0021594511 -6.8324502e-22 0.00058382079 2.0083678e-22 7.4688634e-39)
(0.0093621502 -0.0025705578 -4.8844677e-22 0.00073473958 1.3742283e-22 1.0234284e-40)
(0.0097032564 -0.0028368102 -2.7662987e-21 0.0008814197 8.7138417e-22 1.3426095e-39)
(0.0093428641 -0.0029756661 -1.3487471e-21 0.0010312666 4.850427e-22 1.0960809e-39)
(0.0084796602 -0.0030040941 2.5844045e-21 0.0011884079 -9.9712963e-22 8.5344179e-40)
(0.0073215605 -0.0029365049 4.3840725e-22 0.0013525569 -2.3376237e-22 1.1304076e-39)
(0.0060542662 -0.0027870505 -5.614843e-22 0.0015194632 2.6116454e-22 3.8432493e-40)
(0.0048218467 -0.0025718201 2.6518443e-22 0.0016819217 -9.7717586e-23 1.4520562e-39)
(0.0037191596 -0.0023094763 -4.5936581e-23 0.0018311376 6.8188887e-23 3.6804407e-40)
(0.0027943918 -0.0020202426 0 0.0019583223 0 0)
(0.0020584479 -0.0017238274 2.6819157e-22 0.0020562142 -2.9239173e-22 8.5445052e-41)
(0.0014972642 -0.0014371864 -5.6179229e-22 0.0021202041 7.7725576e-22 1.1873488e-39)
(0.0010836372 -0.0011729072 -1.8120136e-22 0.0021488606 2.9433589e-22 1.0057587e-40)
(0.00078644573 -0.00093859336 3.0535835e-22 0.0021437281 -6.6221211e-22 1.4275093e-39)
(0.00057655581 -0.00073725421 -7.2368537e-23 0.0021084629 9.6950557e-23 3.1106813e-40)
(0.00042957442 -0.00056854531 -5.4388123e-24 0.0020494187 -8.4181072e-24 3.4944345e-41)
(0.00032626068 -0.00042975602 6.8916996e-23 0.0019793834 -2.2069748e-22 2.8420106e-41)
(0.00076279692 -0.00012594818 2.5864567e-22 2.1198786e-05 -3.3969943e-23 4.5792447e-40)
(0.0035871731 -0.00065813878 -2.3287383e-21 0.00012136577 4.2022221e-22 7.2854509e-39)
(0.0062626018 -0.0011875873 -1.8209219e-21 0.00022892434 3.6230581e-22 8.7271334e-39)
(0.0081553022 -0.0016253599 2.5613566e-21 0.00033562304 -5.4011862e-22 2.1244509e-39)
(0.0090952676 -0.0019667596 1.9143371e-21 0.00045126239 -4.3689976e-22 4.3329029e-40)
(0.0091703772 -0.0022120038 -1.3824473e-21 0.0005813218 3.1011719e-22 4.6249843e-39)
(0.008584976 -0.0023642835 4.5515356e-22 0.00072907781 -1.7744045e-22 1.9620598e-39)
(0.0075773472 -0.0024261722 2.624104e-21 0.0008940441 -9.5463767e-22 2.1612518e-39)
(0.0063702151 -0.0024016519 1.1419005e-21 0.0010713908 -4.6066133e-22 2.6698765e-40)
(0.0051416397 -0.0022993814 -1.1119693e-21 0.0012525788 5.8626973e-22 7.0360231e-40)
(0.0040128056 -0.0021338769 -1.4972821e-21 0.001426769 9.2184982e-22 8.1998582e-40)
(0.0030495502 -0.0019241939 -4.0480277e-23 0.0015827333 3.0308176e-23 8.5334896e-43)
(0.0022729763 -0.001690998 4.2345818e-22 0.0017108315 -3.848712e-22 1.3231036e-40)
(0.0016739264 -0.0014533196 -1.1897946e-23 0.0018045347 5.0756383e-23 2.1209627e-40)
(0.0012269434 -0.0012261117 -1.082996e-23 0.0018611538 8.2009587e-23 5.7402417e-40)
(0.00090107674 -0.0010191588 4.7881379e-24 0.001881713 -1.0640867e-22 1.0369311e-39)
(0.00066672047 -0.00083726396 1.4139121e-22 0.0018700992 -3.0143344e-22 2.9910482e-40)
(0.00049897609 -0.00068131047 -7.5547461e-23 0.001831801 2.5258538e-22 7.8904145e-40)
(0.00037850903 -0.00054984726 -1.9911144e-22 0.0017738273 6.0744166e-22 1.5124557e-39)
(0.00029082211 -0.00044016376 6.8941394e-23 0.0017066689 -1.764298e-22 3.2081027e-41)
(0.00081128145 -7.6991688e-05 -6.6507653e-22 7.5023753e-06 5.5375013e-23 1.3667841e-39)
(0.0036430569 -0.00039979483 -4.9890986e-22 4.437737e-05 5.3985296e-23 1.4690531e-39)
(0.0062193736 -0.00074795189 3.9680814e-21 9.3019165e-05 -5.0679498e-22 1.8012221e-38)
(0.0079026207 -0.0010747017 2.9189463e-21 0.00015620216 -4.2763385e-22 1.9473199e-39)
(0.0085932497 -0.001369409 1.290317e-21 0.00024125362 -2.057687e-22 9.6053674e-40)
(0.0084450112 -0.0016164978 2.5957874e-22 0.0003527284 -5.4186042e-23 9.0212518e-42)
(0.0077086543 -0.0017997476 -2.4119494e-21 0.00049193653 5.4568531e-22 4.0090807e-39)
(0.0066430416 -0.0019059998 0 0.00065550571 0 0)
(0.005466867 -0.0019300756 -1.4554815e-21 0.00083512832 6.5051467e-22 3.3263106e-39)
(0.0043367528 -0.0018772878 -2.4651514e-22 0.0010187307 1.6999302e-22 7.5785122e-40)
(0.0033448356 -0.0017621898 7.0294442e-22 0.0011926844 -4.2000582e-22 1.7432037e-40)
(0.0025291993 -0.0016046884 7.2152003e-23 0.0013444105 -1.0053833e-22 4.1726202e-40)
(0.0018901776 -0.0014254155 -3.2740548e-22 0.0014645755 3.3605454e-22 4.8022507e-40)
(0.0014067192 -0.0012419893 -2.4194699e-22 0.001548287 3.3790387e-22 1.0338767e-39)
(0.0010493137 -0.0010670148 1.6012079e-22 0.0015951365 -1.6579959e-22 1.2563176e-40)
(0.00078832379 -0.00090781479 2.189816e-22 0.0016083293 -2.9080018e-22 1.1185972e-40)
(0.00059821787 -0.00076733077 -1.9161107e-22 0.0015933151 3.3217295e-22 1.0175935e-40)
(0.00045895374 -0.00064553584 -2.5020489e-22 0.001556388 5.7779898e-22 1.2617444e-39)
(0.00035572414 -0.00054095846 2.1896381e-23 0.0015041903 -3.5013957e-24 1.5105565e-40)
(0.00027777958 -0.00045149799 3.1993298e-23 0.0014443523 -1.220188e-22 1.7706847e-40)
(0.00084117462 -2.2273094e-05 -4.3943662e-22 6.7748564e-07 1.1209904e-23 6.68995e-40)
(0.003594491 -0.00013184923 1.8582201e-21 5.259001e-06 -6.7062185e-23 3.7040211e-39)
(0.0059994486 -0.00031133506 2.8423488e-21 1.8651634e-05 -1.7677113e-22 2.6922354e-38)
(0.0074467431 -0.00054897042 -3.2782075e-21 4.9034196e-05 2.8900186e-22 7.3858332e-39)
(0.0079102558 -0.00081877432 1.1693225e-21 0.0001050285 -1.3190369e-22 1.8085471e-40)
(0.0075978691 -0.0010831547 4.6462841e-22 0.00019337171 5.1917562e-24 6.8455558e-39)
(0.0067875816 -0.0013047157 1.2432569e-22 0.00031604884 -2.5982682e-23 2.3552474e-42)
(0.0057390369 -0.001456175 -1.7541193e-21 0.00046844755 4.1537212e-22 2.2787384e-39)
(0.0046518947 -0.0015260809 -3.9552972e-23 0.00063968325 1.4117415e-23 3.4880157e-43)
(0.0036540625 -0.0015187763 6.4364088e-22 0.00081489796 -3.4899381e-22 8.7201338e-40)
(0.0028090072 -0.0014498504 4.9242627e-23 0.00097862373 -5.4201719e-23 1.2582976e-40)
(0.0021327276 -0.0013398292 -2.339414e-22 0.0011180043 5.9526371e-23 1.6278179e-39)
(0.0016124898 -0.0012085932 -5.071186e-22 0.0012248806 4.2657857e-22 1.6799226e-40)
(0.001222339 -0.0010718832 -8.6999439e-25 0.0012963461 4.232378e-23 2.1217795e-40)
(0.00093353618 -0.00094010701 1.6771272e-22 0.001333991 -2.3182177e-22 2.035886e-40)
(0.00072020753 -0.00081883234 1.1025068e-22 0.0013424199 -1.860083e-22 1.9865834e-40)
(0.00056152665 -0.00071008954 2.2738089e-23 0.001327647 -8.8943238e-23 3.2529811e-40)
(0.0004418934 -0.00061380852 -1.7909105e-22 0.001295822 2.5722889e-22 2.5427264e-40)
(0.00035017845 -0.00052902628 -4.1025608e-23 0.0012525547 -2.8086811e-23 1.1170536e-39)
(0.00027845146 -0.00045429957 9.0101422e-23 0.0012027087 -3.1493489e-22 1.8346871e-39)
(5.7236371e-06 -7.1357461e-07 5.725908e-23 8.7283157e-07 -1.1468307e-23 6.5397904e-40)
(2.69938e-05 -1.1298768e-05 -8.1674839e-23 5.8040779e-06 2.2631061e-23 6.2970164e-40)
(6.0464457e-05 -2.6114899e-05 1.8146319e-22 1.1566967e-05 -6.787685e-23 3.6149793e-39)
(0.00019383524 -5.5082522e-05 5.060641e-22 1.6570827e-05 -1.0768951e-22 1.2160484e-38)
(0.0004252 -9.0780269e-05 -3.610709e-22 2.1043199e-05 6.1266574e-23 3.1615276e-39)
(0.00075939135 -0.0001306248 4.5462846e-22 2.4984622e-05 -6.1396999e-23 3.4935391e-39)
(0.0012068936 -0.00017319589 -6.2249826e-22 2.8400918e-05 7.8452342e-23 3.8337574e-39)
(0.0017700614 -0.00021708193 -6.4128584e-22 3.136696e-05 6.6443459e-23 4.0555279e-39)
(0.0024455889 -0.00026113818 8.0355884e-22 3.3963865e-05 -8.2435942e-23 4.283822e-39)
(0.0032282724 -0.00030451944 -6.2158701e-22 3.6255629e-05 5.9992036e-23 2.1810901e-39)
(0.0041117439 -0.00034658934 -3.1494587e-23 3.8291408e-05 5.1949867e-25 2.5418661e-41)
(0.0050885797 -0.00038685587 1.7667826e-22 4.0109198e-05 -1.8631099e-23 7.9831923e-41)
(0.0061506298 -0.00042493284 -3.0740744e-23 4.1738352e-05 1.4340663e-24 1.2753584e-41)
(0.007289322 -0.00046051566 9.5259622e-22 4.3202537e-05 -8.4416042e-23 3.813841e-39)
(0.0084958464 -0.00049337333 1.8254816e-24 4.4523429e-05 1.8134594e-24 8.2674641e-42)
(0.0097613404 -0.00052336178 -1.3763358e-21 4.5724511e-05 1.2813751e-22 7.8351753e-39)
(0.011077137 -0.00055043635 2.5181276e-22 4.683076e-05 -2.6664546e-23 1.6469552e-40)
(0.012434801 -0.00057459807 6.0416127e-22 4.7861105e-05 -6.0364079e-23 1.9922457e-39)
(0.013825927 -0.00059597158 -9.6341888e-22 4.8834277e-05 1.0447454e-22 5.643912e-39)
(0.015241175 -0.00061544317 -5.2140689e-22 4.9748233e-05 6.1301219e-23 2.1195095e-39)
(6.4829952e-06 -2.9881969e-06 1.8825042e-23 7.6829019e-06 -6.9243902e-24 6.4485116e-41)
(3.4413212e-05 -3.8717327e-05 -5.1717477e-22 5.1146594e-05 3.8994679e-22 2.1058747e-38)
(7.7221802e-05 -8.7889868e-05 1.0266689e-22 0.0001018872 -8.4988325e-23 1.9007196e-39)
(0.00022796641 -0.00017823124 5.438085e-22 0.00014595707 -3.3328305e-22 1.0159071e-38)
(0.00047929061 -0.00028791205 7.5459752e-22 0.00018525878 -3.6141284e-22 1.1487617e-38)
(0.00083428861 -0.00040933338 9.1099058e-23 0.00021974542 -3.6354849e-23 1.0789584e-40)
(0.0013020383 -0.00053825588 -2.4174545e-21 0.00024947938 8.3205283e-22 5.7439326e-38)
(0.001883236 -0.0006705105 -8.4475347e-23 0.00027512608 3.4773769e-23 1.6409422e-41)
(0.0025730933 -0.00080274176 1.3585923e-21 0.00029739955 -4.0961521e-22 9.7905611e-39)
(0.0033650577 -0.0009324749 -3.269759e-22 0.00031686409 8.9253383e-23 5.4449552e-40)
(0.0042514397 -0.0010578439 -1.2349397e-21 0.00033395338 3.3447884e-22 6.0341415e-39)
(0.0052234969 -0.0011774036 2.58839e-22 0.00034900081 -6.5328109e-23 2.7481221e-40)
(0.0062717521 -0.0012900153 1.0896171e-21 0.00036226068 -2.3968281e-22 6.4803587e-39)
(0.0073862714 -0.0013947743 4.462568e-22 0.00037393343 -1.0972007e-22 7.3880808e-40)
(0.0085568062 -0.0014909811 8.8438221e-22 0.00038419727 -2.3423389e-22 2.1317288e-39)
(0.0097729797 -0.0015781772 -6.9427938e-22 0.0003932403 1.7385763e-22 1.8063371e-39)
(0.011024748 -0.001656195 -6.5731793e-22 0.00040126509 1.6345155e-22 1.9766352e-39)
(0.012302259 -0.001724992 6.5479364e-22 0.00040843758 -1.8806226e-22 1.1373353e-39)
(0.013593018 -0.001784927 5.8764082e-22 0.00041494607 -1.6561338e-22 1.9961899e-39)
(0.014881893 -0.0018393015 2.2132592e-22 0.0004208375 -6.0358609e-23 8.5010605e-40)
(8.3348894e-06 -7.6570679e-06 1.4485492e-23 2.0498977e-05 -7.211119e-24 3.3906428e-41)
(5.201067e-05 -8.0006998e-05 3.9268518e-22 0.0001365272 -4.2034602e-22 8.9745577e-39)
(0.00011617108 -0.00017668759 -8.584964e-23 0.00027169888 1.1060348e-22 4.6991116e-40)
(0.00030314724 -0.00033798937 -5.9039611e-22 0.00038900428 4.9656382e-22 1.1125984e-38)
(0.00059553037 -0.00052883853 2.1613052e-22 0.00049323136 -1.8111243e-22 3.1334835e-40)
(0.00099292119 -0.00073694465 2.8465853e-22 0.00058404418 -2.3100283e-22 1.6197302e-40)
(0.0015015837 -0.00095531766 -3.5638629e-22 0.0006616036 1.8805475e-22 9.9041503e-40)
(0.0021190971 -0.0011772289 -9.2400194e-22 0.00072768724 5.3693569e-22 1.96525e-39)
(0.0028378661 -0.0013973168 4.0413486e-22 0.00078419675 -1.9521733e-22 5.5191683e-40)
(0.0036487594 -0.001611622 8.5699043e-22 0.00083264623 -3.5336945e-22 3.1389715e-39)
(0.0045415735 -0.0018171448 2.3264198e-22 0.00087420615 -1.6275103e-22 1.1637133e-40)
(0.0055050746 -0.0020115469 1.0418027e-21 0.00090977437 -3.4141778e-22 5.8294284e-39)
(0.0065272927 -0.0021929675 8.7524189e-23 0.00094002699 -3.2134046e-23 2.4126086e-41)
(0.0075957596 -0.0023598992 -1.5266698e-21 0.00096547998 5.0961744e-22 9.3631056e-39)
(0.0086975949 -0.0025111367 1.0856371e-22 0.00098657307 -7.3667267e-23 5.1743254e-41)
(0.0098197043 -0.0026458363 -7.0564704e-22 0.0010037579 1.9251871e-22 3.6523223e-39)
(0.010949645 -0.002763628 -9.7813991e-22 0.0010175206 3.8938632e-22 1.4893378e-39)
(0.012075276 -0.002864356 1.5728239e-21 0.0010283428 -6.1811098e-22 4.9508278e-39)
(0.013177527 -0.0029485797 8.195858e-22 0.0010370019 -3.4549267e-22 1.0031584e-39)
(0.014232628 -0.0030232206 1.6486027e-22 0.0010441131 -7.6988476e-23 2.1443298e-41)
(1.2281172e-05 -1.584591e-05 -2.1733054e-23 3.7763254e-05 2.7404632e-23 4.9403729e-41)
(8.52309e-05 -0.00014202249 -9.090825e-22 0.00025182873 1.1499341e-21 2.9764923e-38)
(0.00018831643 -0.00030584669 -6.6241843e-23 0.00050058292 8.5121477e-23 4.07019e-40)
(0.00043493317 -0.00055198914 1.5150485e-22 0.00071601925 -1.6774091e-22 2.5877279e-40)
(0.00079366322 -0.0008339251 -2.4943861e-23 0.00090643296 6.6749404e-24 6.6996151e-41)
(0.0012589554 -0.0011349606 7.7047029e-22 0.0010707067 -5.6377941e-22 4.8866587e-39)
(0.0018327938 -0.0014453787 8.4959533e-22 0.0012090734 -5.5334682e-22 4.4382243e-39)
(0.0025081993 -0.0017561753 -2.5801978e-22 0.0013248229 1.2411493e-22 7.0008777e-40)
(0.0032734574 -0.0020602733 -9.3906165e-22 0.0014214894 4.8790589e-22 4.4472072e-39)
(0.0041156256 -0.0023524307 -1.8800206e-21 0.0015019266 1.0096083e-21 9.4122305e-39)
(0.0050208055 -0.0026286463 -4.365015e-23 0.0015683712 -2.1652016e-23 2.1553053e-40)
(0.0059741563 -0.0028857774 2.3740146e-21 0.0016225538 -1.0992658e-21 1.5387437e-38)
(0.0069601554 -0.0031212882 -9.614194e-22 0.0016657774 3.6238851e-22 4.5561132e-39)
(0.0079628468 -0.0033330998 -6.1465406e-22 0.0016990293 2.6779673e-22 8.9707424e-40)
(0.008965892 -0.0035195056 -7.0277559e-23 0.0017231188 8.3463792e-23 1.9416311e-40)
(0.0099528053 -0.0036792412 1.4348575e-21 0.0017388289 -6.2909527e-22 3.672916e-39)
(0.010908308 -0.0038117009 -8.0414917e-22 0.0017469771 4.0763706e-22 2.4060971e-40)
(0.011818054 -0.0039167284 -1.8341282e-21 0.0017485636 7.7568773e-22 7.9124889e-39)
(0.012656176 -0.0039952186 1.2122402e-21 0.0017459181 -5.3393433e-22 3.976844e-39)
(0.013390004 -0.0040582597 1.0463941e-21 0.0017418835 -4.2313763e-22 3.7051166e-39)
(1.9641955e-05 -2.8227412e-05 9.7475447e-23 5.7578068e-05 -9.4746855e-23 6.4130256e-40)
(0.00014131186 -0.00022872057 3.2052486e-23 0.00038421756 -8.6688297e-24 2.8834561e-40)
(0.00030814223 -0.0004829106 -1.2472344e-21 0.00076221572 1.7880453e-21 2.4386726e-38)
(0.00064332653 -0.00082966646 -7.1642771e-22 0.0010883606 7.6125533e-22 7.5536186e-39)
(0.0010980197 -0.0012129678 4.7952507e-22 0.0013745073 -3.8166537e-22 4.5681206e-39)
(0.0016597306 -0.0016117657 5.9145885e-22 0.0016181837 -4.7644645e-22 2.1496344e-39)
(0.0023244451 -0.0020135674 -7.703248e-22 0.0018196968 5.0212637e-22 5.0336161e-39)
(0.0030790504 -0.0024074458 -1.1723982e-21 0.0019841645 6.7063126e-22 1.1045974e-38)
(0.0039062928 -0.0027849952 1.7220961e-21 0.0021171191 -1.0260409e-21 1.1323002e-38)
(0.0047881062 -0.0031399977 4.9666958e-22 0.0022231169 -1.9922043e-22 2.6388831e-39)
(0.0057056925 -0.0034677017 -1.529319e-21 0.002305814 1.0166186e-21 8.5432789e-40)
(0.0066395651 -0.003764386 6.753804e-22 0.0023681033 -3.0469499e-22 2.0301759e-39)
(0.0075698813 -0.0040270789 0 0.0024122182 0 0)
(0.0084767276 -0.0042533685 6.4834191e-22 0.002439873 -3.15452e-22 7.9276127e-40)
(0.0093402495 -0.0044413016 -4.8363293e-22 0.0024524497 2.2970642e-22 4.2320733e-40)
(0.010141003 -0.0045894501 -7.3514304e-22 0.0024511973 3.688604e-22 5.1180858e-40)
(0.01086191 -0.0046972302 2.6598099e-22 0.0024372896 -2.2592515e-22 7.2460958e-40)
(0.01148846 -0.0047649231 -2.1718321e-22 0.0024122751 1.3291526e-22 2.5815215e-41)
(0.01199095 -0.0047943457 1.0277785e-21 0.0023811216 -4.4668225e-22 4.2924045e-39)
(0.012328615 -0.0048002449 -8.4131037e-22 0.002352101 4.1864604e-22 2.4540763e-40)
(3.1939815e-05 -4.500349e-05 9.3538846e-23 7.8048007e-05 -7.8648905e-23 5.1483127e-40)
(0.00022837912 -0.00034073828 4.4828322e-22 0.00052017514 -5.9743553e-22 1.9121117e-39)
(0.00049154118 -0.00070843652 -6.013088e-22 0.0010284112 7.9893771e-22 4.5805393e-39)
(0.00094924025 -0.0011701862 -9.8140408e-22 0.0014642714 1.106731e-21 3.8222105e-39)
(0.0015320408 -0.0016622938 -2.7894532e-22 0.0018428526 4.1776279e-22 3.0212986e-39)
(0.0022182869 -0.002159163 -8.8364761e-22 0.0021599972 7.7787265e-22 1.8804591e-39)
(0.0029958555 -0.0026454952 -4.1524396e-22 0.0024162998 2.5536055e-22 2.1798743e-39)
(0.0038437664 -0.0031089311 7.1489717e-22 0.0026190247 -4.292462e-22 4.0201518e-39)
(0.0047377526 -0.0035403094 1.6981543e-21 0.0027760487 -1.0106557e-21 1.3759167e-38)
(0.0056533734 -0.0039329895 5.1888187e-22 0.0028940241 -3.1960405e-22 5.7622714e-40)
(0.0065660753 -0.004282045 -4.9266818e-22 0.0029784357 2.6096162e-22 9.151249e-40)
(0.0074513123 -0.0045837763 -9.6074727e-23 0.0030337514 -1.9909369e-23 7.9779696e-40)
(0.0082850643 -0.004835416 -2.3142814e-21 0.003063536 1.268912e-21 7.5694479e-39)
(0.0090443411 -0.0050349342 -7.1500148e-22 0.0030706108 3.7465592e-22 7.8308739e-40)
(0.0097075328 -0.0051809257 1.1862955e-21 0.0030572613 -6.9273185e-22 3.6441129e-40)
(0.010254951 -0.0052726323 -1.1776387e-21 0.0030254402 6.4178227e-22 7.6870433e-40)
(0.010671297 -0.0053102506 -4.1350304e-22 0.002976707 2.0459907e-22 2.4745099e-40)
(0.010946776 -0.0052952493 9.2024187e-22 0.0029128216 -3.8641271e-22 3.8572791e-39)
(0.011054929 -0.0052313159 1.3776417e-21 0.0028416243 -6.9653689e-22 2.9126901e-39)
(0.010949428 -0.0051354914 1.6868181e-22 0.0027806024 -7.9352043e-23 5.6835356e-41)
(5.0784246e-05 -6.5919694e-05 -2.6389329e-22 9.7442762e-05 2.1431981e-22 3.0464713e-39)
(0.00035445026 -0.00047533239 -2.9295081e-22 0.00064689571 2.9724669e-22 2.4281454e-39)
(0.00075335052 -0.00097558841 7.2620511e-22 0.0012723673 -9.2154329e-22 1.0835934e-39)
(0.0013704096 -0.0015616034 1.1142213e-21 0.0018040612 -1.1564984e-21 5.0827092e-39)
(0.0021124072 -0.0021636545 1.4557573e-23 0.0022598565 -1.3128268e-23 1.0104196e-42)
(0.0029457184 -0.0027513944 -3.0159675e-21 0.0026341005 2.4930529e-21 2.9712852e-38)
(0.0038477108 -0.0033069413 -1.1679216e-21 0.0029282398 1.0052336e-21 4.1488638e-40)
(0.0047878667 -0.0038172962 9.1523418e-22 0.0031521052 -6.1790036e-22 3.26237e-39)
(0.0057338615 -0.0042735015 1.0420848e-21 0.0033162799 -7.0159309e-22 1.9926805e-39)
(0.0066544479 -0.0046695029 -1.0239965e-21 0.0034298988 5.6971752e-22 5.478149e-39)
(0.0075195621 -0.0050012515 -2.9715731e-21 0.0035006843 1.8836778e-21 7.9520029e-39)
(0.0083007632 -0.0052661972 1.9459572e-21 0.0035350821 -1.1850632e-21 3.26817e-39)
(0.0089720778 -0.0054629847 1.1576083e-21 0.0035383815 -6.042079e-22 3.9294967e-39)
(0.0095108478 -0.0055912593 -1.5917526e-21 0.0035148824 8.8256689e-22 3.2353618e-39)
(0.0098983904 -0.0056515326 6.9444554e-22 0.0034680961 -4.0443766e-22 2.1525302e-40)
(0.010120677 -0.0056451083 1.1479093e-21 0.0034009049 -5.9404975e-22 2.4111089e-39)
(0.010170871 -0.0055741839 4.3431955e-22 0.0033152624 -2.476536e-22 8.123327e-41)
(0.010051224 -0.0054422601 -7.4056183e-22 0.0032124954 4.6597215e-22 1.0081881e-40)
(0.0097486127 -0.0052555051 -1.6755456e-22 0.003102028 5.2115985e-23 5.9857438e-40)
(0.0092173111 -0.0050309989 9.645613e-22 0.0030127615 -5.6612586e-22 2.3671572e-40)
(7.7746188e-05 -9.0275841e-05 -8.152852e-24 0.00011423148 -7.9705175e-24 5.5981949e-41)
(0.00052635182 -0.00062650206 -1.05728e-21 0.00075307193 1.1188902e-21 7.9724527e-39)
(0.0011047082 -0.0012704666 -8.467407e-22 0.0014709173 9.0876321e-22 1.2076143e-38)
(0.0019171952 -0.001981493 1.5722421e-21 0.0020740662 -1.510203e-21 7.0439719e-39)
(0.0028435142 -0.0026854457 1.2943953e-21 0.0025827232 -1.2782395e-21 2.9759424e-39)
(0.0038348813 -0.0033474057 1.102741e-21 0.0029905746 -9.1500809e-22 1.1685526e-39)