/*--------------------------------*- C++ -*----------------------------------*\
  =========                 |
  \\      /  F ield         | OpenFOAM: The Open Source CFD Toolbox
   \\    /   O peration     | Website:  https://openfoam.org
    \\  /    A nd           | Version:  6
     \\/     M anipulation  |
\*---------------------------------------------------------------------------*/
FoamFile
{
    version     2.0;
    format      ascii;
    class       surfaceScalarField;
    location    "159";
    object      phi;
}
// * * * * * * * * * * * * * * * * * * * * * * * * * * * * * * * * * * * * * //

dimensions      [0 3 -1 0 0 0 0];

internalField   nonuniform List<scalar> 
18180
(
0.00031872958
-0.0001631608
-0.00015556879
0.0013092123
-0.001366919
0.00037643626
0.0030328905
-0.0033336261
0.0016099479
0.0055497787
-0.0059759693
0.0034590811
0.0089182052
-0.0092390946
0.0058706682
0.013192824
-0.01307955
0.008804931
0.018421958
-0.017459868
0.012230734
0.024644625
-0.022345834
0.016123166
0.031887396
-0.027703358
0.020460587
0.040161313
-0.033495857
0.02522194
0.049459205
-0.039682497
0.030384605
0.059753766
-0.046217276
0.035922716
0.070996782
-0.053048925
0.041805909
0.083119993
-0.060121669
0.047998458
0.096038172
-0.06737693
0.054458751
0.10965496
-0.074756098
0.061139307
0.1238709
-0.082204197
0.067988261
0.13859863
-0.089674187
0.074946457
0.15383673
-0.097148938
0.081910841
-0.10462608
0.088679003
0.1697838
0.00039749743
-0.00056065823
0.0016095961
-0.0025790177
0.0036893212
-0.0054133512
0.0066874491
-0.0089740973
0.010650661
-0.013202306
0.015617882
-0.018046771
0.021616275
-0.023458261
0.028657279
-0.029386837
0.036732971
-0.03577905
0.045813176
-0.042576062
0.055843725
-0.049713047
0.066746246
-0.057119797
0.078419708
-0.064722387
0.090743827
-0.072445788
0.10358412
-0.080217218
0.11679796
-0.087969946
0.13024083
-0.095647066
0.14377303
-0.10320639
0.15725862
-0.11063453
-0.117862
0.17049455
0.00048062383
-0.0010412821
0.0019186998
-0.0040170936
0.0043524822
-0.0078471336
0.0078165692
-0.012438184
0.012337673
-0.017723411
0.017929219
-0.023638317
0.024586265
-0.030115307
0.032281231
-0.037081802
0.040960866
-0.044458685
0.050544951
-0.052160147
0.060927101
-0.060095197
0.071977842
-0.068170538
0.083549836
-0.076294381
0.095484851
-0.084380803
0.10762173
-0.092354095
0.1198043
-0.10015251
0.13188804
-0.10773081
0.14374351
-0.11506186
0.15524873
-0.12213975
-0.12891439
0.16630112
0.00056617011
-0.0016074522
0.002227944
-0.0056788675
0.0050006147
-0.010619804
0.0088940167
-0.016331586
0.013905267
-0.022734661
0.020011894
-0.029744945
0.027166504
-0.037269917
0.035293437
-0.045208735
0.044287881
-0.053453129
0.054017804
-0.06189007
0.064328749
-0.070406143
0.075051162
-0.078892951
0.086009556
-0.087252775
0.097032529
-0.095403776
0.10796249
-0.10328406
0.11866399
-0.11085401
0.12902967
-0.1180965
0.13898299
-0.12501517
0.14847492
-0.13163169
-0.13794529
0.15750582
0.00065088671
-0.0022583389
0.0025243434
-0.0075523242
0.0056036382
-0.013699099
0.0098644712
-0.020592419
0.015264621
-0.02813481
0.021736423
-0.036216747
0.029182498
-0.044715992
0.037474914
-0.053501151
0.046458024
-0.06243624
0.055954862
-0.071386907
0.065776457
-0.080227738
0.075733037
-0.088849531
0.085645741
-0.097165478
0.095357416
-0.10511545
0.10474123
-0.11266787
0.1137062
-0.11981898
0.12219937
-0.12658966
0.13020456
-0.13302036
0.13773799
-0.13916511
-0.14506765
0.14486036
0.00073063631
-0.0029889752
0.002792088
-0.0096137759
0.0061265781
-0.017033589
0.010666718
-0.02513256
0.016322659
-0.033790751
0.022975255
-0.042869343
0.030474444
-0.05221518
0.038642415
-0.061669122
0.047281206
-0.071075031
0.056183751
-0.080289453
0.065146903
-0.08919089
0.073984614
-0.097687242
0.082539495
-0.10572036
0.090691308
-0.11326726
0.098361456
-0.12033802
0.1055133
-0.12697082
0.11214878
-0.13322515
0.11830238
-0.13917397
0.1240336
-0.14489633
-0.15046337
0.12942931
0.00080073168
-0.0037897069
0.0030139178
-0.011826962
0.0065328979
-0.020552569
0.011240057
-0.029839719
0.016992705
-0.039543399
0.023618555
-0.049495193
0.030918227
-0.059514852
0.038673331
-0.069424226
0.046658786
-0.079060486
0.054657409
-0.088288076
0.062474469
-0.097007949
0.069949962
-0.10516274
0.076966966
-0.11273736
0.083455098
-0.1197554
0.089389103
-0.12627202
0.094783301
-0.13236502
0.099683285
-0.13812513
0.10415647
-0.14364715
0.10828307
-0.14902293
-0.15433363
0.11215333
0.00085605918
-0.0046457661
0.0031720623
-0.014142965
0.006787229
-0.024167736
0.011529807
-0.034582297
0.01720344
-0.045217032
0.023586556
-0.055878309
0.030439884
-0.066368179
0.037519337
-0.076503679
0.044591807
-0.086132955
0.05145101
-0.095147279
0.057930636
-0.10348757
0.063912776
-0.11114488
0.069330639
-0.11815523
0.074165683
-0.12459044
0.078440239
-0.13054658
0.082207314
-0.1361321
0.085539472
-0.14145729
0.088518525
-0.1466262
0.091227316
-0.15173172
-0.15685211
0.093745794
0.00089026279
-0.0055360289
0.0032482847
-0.016500987
0.0068576249
-0.027777076
0.011492468
-0.039217141
0.016906815
-0.050631378
0.022838901
-0.061810395
0.029023676
-0.072552954
0.035209256
-0.082689259
0.041173932
-0.092097632
0.046740398
-0.10071374
0.051784653
-0.10853183
0.0562384
-0.11559862
0.060085127
-0.12200195
0.063351229
-0.12785654
0.06609419
-0.13328954
0.068390026
-0.13842793
0.070321888
-0.14338915
0.071971194
-0.14827551
0.073411878
-0.1531724
-0.15814775
0.074707524
0.00089981861
-0.0064358475
0.0032333817
-0.01883455
0.0067291662
-0.031272861
0.01111118
-0.043599154
0.016092489
-0.055612687
0.021384627
-0.067102533
0.026713888
-0.077882215
0.031839118
-0.087814489
0.036567085
-0.096825599
0.040762267
-0.10490893
0.044349466
-0.11211903
0.047309336
-0.11855849
0.049668387
-0.124361
0.05148579
-0.12967395
0.052839495
-0.13464324
0.053813784
-0.13940222
0.054489669
-0.14406504
0.054938772
-0.14872461
0.055220494
-0.15345413
0.055380923
-0.15830818
-0.00020237846
0.00020237843
4.5287323e-11
-0.00067774707
0.00047536859
2.3475508e-11
-0.0013424269
0.00066467982
1.600265e-11
-0.0021322958
0.00078986892
2.2485644e-11
-0.0029957753
0.00086347949
2.8293687e-11
-0.003890743
0.0008949677
2.895707e-11
-0.0047822989
0.00089155591
2.7508391e-11
-0.0056408964
0.00085859746
2.3581471e-11
-0.0064408716
0.00079997516
2.0104607e-11
-0.0071592925
0.0007184209
1.6082021e-11
-0.0077750407
0.00061574817
1.3114876e-11
-0.0082680759
0.00049303518
1.0306747e-11
-0.0086188564
0.00035078049
8.2717279e-12
-0.0088079057
0.00018904928
6.5347976e-12
-0.0088155572
7.6515322e-06
5.1919823e-12
-0.0086219782
-0.00019357896
4.1812575e-12
-0.0082074336
-0.00041454467
3.3880744e-12
-0.0075518803
-0.00065555332
3.0033491e-12
-0.0066345619
-0.00091731831
2.9166495e-12
-0.0011862361
-0.0054483259
3.2615081e-12
-0.00018797466
0.00039035309
-0.00062500761
0.00091240155
-0.0012287543
0.0012684266
-0.0019351962
0.0014963108
-0.0026921415
0.0016204248
-0.0034562868
0.001659113
-0.0041910702
0.0016263394
-0.0048648621
0.0015323893
-0.0054495272
0.0013846403
-0.0059192897
0.0011881834
-0.0062498178
0.00094627623
-0.0064174816
0.00066069901
-0.0063987488
0.00033204767
-0.0061697052
-3.9994369e-05
-0.0057057297
-0.00045632394
-0.0049814143
-0.00091789433
-0.0039707799
-0.0014251791
-0.0026471968
-0.0019791364
-0.00098323502
-0.0025812801
-0.0032017941
0.001032323
-0.000158928
0.00054928109
-0.00051889187
0.0012723654
-0.0010007708
0.0017503055
-0.0015412605
0.0020368005
-0.0020873512
0.0021665155
-0.0025937366
0.0021654985
-0.0030208695
0.0020534723
-0.0033332945
0.0018448144
-0.0034983024
0.0015496481
-0.0034848539
0.001174735
-0.0032626964
0.00072411868
-0.0028016433
0.00019964592
-0.002070941
-0.00039865462
-0.0010387546
-0.0010721807
0.00032826111
-0.0018233397
0.0020652387
-0.0026548719
0.0042090574
-0.0035689978
0.0067980369
-0.004568116
0.0098718689
-0.0056551121
-0.0067797592
0.013449834
-0.00011756703
0.00066684812
-0.00036699871
0.0015217971
-0.00067351386
0.0020568206
-0.00097482579
0.0023381124
-0.0012168539
0.0024085436
-0.0013515936
0.0023002382
-0.0013354586
0.0020373373
-0.0011278263
0.0016371821
-0.00068984149
0.0011116633
1.6536069e-05
0.00046835744
0.0010293157
-0.00028866098
0.0023871228
-0.0011581612
0.004129744
-0.0021412758
0.0062986085
-0.0032410452
0.0089372947
-0.0044620259
0.012092086
-0.0058096637
0.015812348
-0.007289259
0.020150222
-0.0089059903
0.02516042
-0.01066531
-0.012492651
0.030873312
-6.6907639e-05
0.00073375576
-0.00017916642
0.0016340559
-0.0002665335
0.0021441877
-0.00026769071
0.0023392696
-0.00012719279
0.0022680457
0.00020616942
0.0019668759
0.00078069754
0.0014628092
0.001642955
0.00077492459
0.002838737
-8.411865e-05
0.0044138559
-0.0011067615
0.0064147052
-0.0022895103
0.0088886757
-0.0036321316
0.011884481
-0.0051370809
0.015452487
-0.0068090512
0.019645086
-0.0086546253
0.024517318
-0.010681896
0.030127746
-0.012899687
0.036538969
-0.015317213
0.043818383
-0.017944725
-0.020682586
0.052008318
-9.9845528e-06
0.00074374031
3.4535325e-05
0.001589536
0.00019989106
0.001978832
0.00054676748
0.0019923932
0.0011322501
0.0016825631
0.0020109858
0.0010881403
0.0032361468
0.00023764818
0.0048603137
-0.00084924239
0.0069361333
-0.0021599383
0.0095166925
-0.0036873206
0.012655727
-0.0054285447
0.016407725
-0.0073841302
0.020827857
-0.0095572126
0.025971809
-0.011953003
0.031895691
-0.014578506
0.038656329
-0.017442534
0.046312457
-0.020555815
0.054926774
-0.02393153
0.064569775
-0.027587726
-0.031405658
0.075292847
5.0751441e-05
0.00069298887
0.00026565832
0.0013746292
0.00070825569
0.0015362346
0.0014390328
0.0012616161
0.0025168244
0.00060477153
0.0039995726
-0.0003946079
0.0059449233
-0.0017077025
0.0084106152
-0.0033149343
0.01145461
-0.0052039332
0.015135062
-0.0073677724
0.019510048
-0.0098035311
0.024637043
-0.012511125
0.030572183
-0.015492352
0.037369365
-0.018750186
0.045079317
-0.022288459
0.053749052
-0.026112269
0.063422679
-0.030229442
0.074144798
-0.034653648
0.085969442
-0.03941237
-0.044388582
0.098952366
0.00011379649
0.00057919238
0.00050850416
0.00097992148
0.0012459841
0.00079875469
0.0023867808
0.0001208194
0.003991246
-0.00099969369
0.0061198836
-0.0025232456
0.0088333306
-0.0044211495
0.01219218
-0.0066737837
0.016256576
-0.0092683295
0.02108547
-0.012196666
0.026735578
-0.015453639
0.03326006
-0.019035608
0.04070693
-0.022939222
0.049117246
-0.027160502
0.058523218
-0.031694431
0.06894658
-0.036535631
0.080398411
-0.041681273
0.09288225
-0.047137487
0.1064056
-0.052935719
-0.058995762
0.12101278
0.00017849605
0.00040069633
0.00076003082
0.0003983867
0.001805341
-0.00024655554
0.0033747176
-0.0014485571
0.0055290017
-0.0031539778
0.0083293286
-0.0053235724
0.011836503
-0.0079283238
0.016110076
-0.010947357
0.021207065
-0.014365319
0.027180332
-0.018169932
0.034076654
-0.022349961
0.041934521
-0.026893476
0.050781713
-0.031786413
0.060632654
-0.037011444
0.07148557
-0.042547346
0.08331947
-0.048369532
0.096091951
-0.054453754
0.10974053
-0.060786062
0.12419611
-0.067391303
-0.074274719
0.13947507
0.00024512754
0.0010199505
0.0023833429
0.0043938669
0.0071105573
0.010591916
0.014894326
0.020070135
0.026165403
0.033217411
0.041252055
0.050281296
0.060300791
0.071287805
0.08319921
0.095968986
0.10950349
0.12366389
0.13818343
0.15258771
-0.0035076939
-0.001940632
4.9766714e-12
-0.0012859014
-0.0022217925
6.0400109e-12
0.0011947163
-0.0024806178
6.8896254e-12
0.0038772602
-0.0026825439
8.1136512e-12
0.0067349265
-0.0028576663
9.0595414e-12
0.0097504094
-0.0030154829
1.2227774e-11
0.012904774
-0.0031543648
1.4671085e-11
0.016179998
-0.0032752242
1.7770391e-11
0.01956038
-0.0033803821
2.0698111e-11
0.023031701
-0.0034713212
2.3403194e-11
0.026580675
-0.0035489738
2.558094e-11
0.030194877
-0.0036142016
2.7139156e-11
0.033862663
-0.0036677863
2.7775342e-11
0.037573038
-0.0037103747
2.7330591e-11
0.041315549
-0.0037425117
2.5494649e-11
0.045080226
-0.0037646767
2.2084619e-11
0.048857527
-0.0037773011
1.6809343e-11
0.052638309
-0.0037807815
9.5447521e-12
0.056413803
-0.0037754944
1.5933806e-13
0.060175611
-0.0037618076
-1.1197566e-11
0.0639157
-0.003740089
-2.4252597e-11
0.067626413
-0.0037107128
-3.830559e-11
0.071300476
-0.0036740636
-5.2420979e-11
0.074931014
-0.0036305382
-6.5124787e-11
0.078511561
-0.0035805461
-7.4723804e-11
0.082036069
-0.0035245083
-7.9014024e-11
0.085498924
-0.0034628548
-7.5840346e-11
0.088894946
-0.0033960221
-6.27991e-11
0.092219395
-0.0033244494
-3.8165873e-11
0.09546797
-0.0032485748
-5.2712951e-13
0.098636803
-0.0031688325
4.982846e-11
0.10172245
-0.0030856486
1.1150739e-10
0.10472189
-0.002999439
1.8015222e-10
0.1076325
-0.002910607
2.4962106e-10
0.11045204
-0.0028195421
3.0989418e-10
0.11317866
-0.0027266199
3.4953972e-10
0.11581086
-0.0026322031
3.5389334e-10
0.1183475
-0.0025366438
3.0992152e-10
0.1207878
-0.0024402911
2.0508363e-10
0.12313129
-0.0023434916
3.4998561e-11
0.12537792
-0.0022466313
-1.9707656e-10
0.12752798
-0.0021500616
-4.7196838e-10
0.12958245
-0.0020544725
-7.550643e-10
0.13154231
-0.0019598529
-9.9379841e-10
0.13341163
-0.0018693244
-1.1241627e-09
0.13518894
-0.0017773074
-1.0844069e-09
0.13689869
-0.0017097456
-8.1457305e-10
0.13849673
-0.0015980386
-3.2966267e-10
0.14018389
-0.0016871668
4.1029081e-10
-0.0013314346
1.2073365e-09
0.0028529423
-0.0037612513
0.0049500933
-0.0043189434
0.0072929573
-0.0048234818
0.0098190923
-0.0052086789
0.012507437
-0.0055460111
0.015345666
-0.0058537121
0.018317039
-0.0061257375
0.021405149
-0.0063633338
0.024595976
-0.0065712098
0.02787676
-0.0067521044
0.031235367
-0.0069075807
0.034660316
-0.007039151
0.038140751
-0.0071482214
0.041666325
-0.007235949
0.045227121
-0.0073033073
0.048813605
-0.0073511604
0.052416597
-0.0073802937
0.056027254
-0.0073914382
0.059637055
-0.0073852955
0.063237807
-0.0073625598
0.066821651
-0.0073239325
0.070381072
-0.0072701335
0.073908916
-0.0072019078
0.077398406
-0.0071200284
0.080843156
-0.0070252962
0.084237184
-0.0069185366
0.087574925
-0.0068005953
0.090851234
-0.0066723318
0.094061397
-0.006534612
0.097201123
-0.0063883011
0.10026655
-0.0062342566
0.10325422
-0.0060733212
0.1061611
-0.0059063178
0.10898454
-0.0057340452
0.11172227
-0.0055572751
0.1143724
-0.0053767524
0.1169334
-0.0051931974
0.11940406
-0.0050073101
0.12178356
-0.0048197853
0.12407138
-0.0046313127
0.12626741
-0.0044426634
0.12837189
-0.0042545383
0.13038573
-0.004068315
0.13230985
-0.003883975
0.13414826
-0.003707729
0.13589947
-0.0035285176
0.13758747
-0.0033977505
0.13916917
-0.0031797355
0.14084019
-0.0033581865
-0.0026604137
0.015021175
-0.0053325919
0.016852279
-0.006150048
0.018905821
-0.0068770235
0.021111872
-0.0074147296
0.023458797
-0.0078929365
0.025942944
-0.0083378593
0.028551695
-0.0087344883
0.031271569
-0.0090832081
0.034091466
-0.009391107
0.037001157
-0.0096617947
0.039990519
-0.0098969433
0.043049694
-0.010098325
0.046169155
-0.010267683
0.049339649
-0.010406443
0.052552145
-0.010515803
0.055797832
-0.010596847
0.05906812
-0.010650582
0.062354647
-0.010677965
0.06564929
-0.010679939
0.068944185
-0.010657454
0.072231742
-0.01061149
0.075504676
-0.010543067
0.07875602
-0.010453252
0.081979154
-0.010343162
0.08516782
-0.010213962
0.088316139
-0.010066856
0.091418626
-0.0099030829
0.094470201
-0.0097239062
0.097466187
-0.0095305987
0.10040232
-0.0093244362
0.10327475
-0.0091066826
0.10608001
-0.0088785828
0.10881505
-0.0086413532
0.11147718
-0.0083961752
0.11406409
-0.0081441924
0.11657385
-0.0078865094
0.11900485
-0.0076241958
0.12135583
-0.0073582927
0.12362588
-0.0070898353
0.12581442
-0.0068198531
0.12792126
-0.0065494991
0.12994654
-0.0062798233
0.13189111
-0.0060128841
0.13375581
-0.0057486716
0.13554448
-0.0054964025
0.13725575
-0.0052397826
0.13891263
-0.0050546299
0.14047435
-0.0047414587
0.14212593
-0.0050097684
-0.0039976304
0.032056607
-0.006515887
0.033471808
-0.0075652492
0.035077316
-0.0084825316
0.036800155
-0.0091375681
0.038641009
-0.0097337911
0.040606177
-0.010303027
0.042688487
-0.010816798
0.044878415
-0.011273136
0.047168386
-0.011681078
0.049551171
-0.01204458
0.052019062
-0.012364835
0.054564105
-0.012643368
0.057178287
-0.012881865
0.059853566
-0.013081722
0.062581881
-0.013244118
0.065355186
-0.013370152
0.0681655
-0.013460896
0.071004947
-0.013517412
0.073865793
-0.013540785
0.076740486
-0.013532148
0.079621695
-0.013492699
0.082502338
-0.013423711
0.085375622
-0.013326536
0.088235065
-0.013202605
0.091074521
-0.013053418
0.093888204
-0.012880538
0.096670699
-0.012685578
0.099416976
-0.012470184
0.1021224
-0.012236021
0.10478272
-0.011984758
0.10739409
-0.011718052
0.10995304
-0.011437537
0.1124565
-0.011144808
0.11490174
-0.010841419
0.11728643
-0.010528875
0.11960855
-0.010208632
0.12186645
-0.0098821
0.12405882
-0.0095506564
0.12618465
-0.0092156714
0.12824331
-0.0088785122
0.13023452
-0.0085407108
0.13215837
-0.0082036673
0.1340156
-0.0078701128
0.13580699
-0.0075400701
0.13753623
-0.0072256386
0.1392021
-0.0069056565
0.14082626
-0.0066787873
0.14237141
-0.0062866036
0.14400728
-0.006645643
-0.005358979
0.052648614
-0.0071561829
0.053489203
-0.0084058383
0.05448332
-0.0094766485
0.055565277
-0.010219525
0.056749891
-0.010918405
0.058051457
-0.011604592
0.059468483
-0.012233825
0.060996104
-0.012800757
0.062630108
-0.013315082
0.064365898
-0.01378037
0.066197953
-0.01419689
0.068120003
-0.014565418
0.070125284
-0.014887146
0.072206694
-0.015163132
0.074356886
-0.015394309
0.076568347
-0.015581613
0.078833484
-0.015726034
0.081144705
-0.015828632
0.08349448
-0.01589056
0.085875407
-0.015913074
0.088280259
-0.01589755
0.090702034
-0.015845486
0.093133993
-0.015758495
0.095569694
-0.015638306
0.098003023
-0.015486747
0.10042821
-0.015305728
0.10283986
-0.015097228
0.10523295
-0.01486327
0.10760284
-0.014605908
0.10994527
-0.014327196
0.1122564
-0.01402918
0.11453274
-0.013713873
0.11677118
-0.013383251
0.11896899
-0.013039232
0.1211238
-0.012683677
0.12323355
-0.012318391
0.12529658
-0.011945122
0.1273115
-0.01156558
0.1292773
-0.011181472
0.13119329
-0.010794501
0.13305916
-0.010406581
0.13487496
-0.010019463
0.13664139
-0.0096365447
0.13835923
-0.0092579117
0.14003198
-0.0088983918
0.14165875
-0.0085324194
0.14325949
-0.0082795298
0.14480134
-0.007828457
0.14643514
-0.0082794419
-0.006767699
0.075221832
-0.0070851677
0.075326792
-0.0085107987
0.075551159
-0.0097010156
0.075851449
-0.010519815
0.076255697
-0.011322653
0.076780754
-0.01212965
0.077429658
-0.012882729
0.078202338
-0.013573437
0.079097102
-0.014209846
0.080110802
-0.014794069
0.081239194
-0.015325282
0.082476983
-0.015803207
0.083817984
-0.016228147
0.085255418
-0.016600566
0.086782108
-0.016920999
0.088390601
-0.017190106
0.090073279
-0.017408712
0.091822463
-0.017577817
0.09363051
-0.017698607
0.095489882
-0.017772446
0.097393214
-0.017800881
0.099333361
-0.017785634
0.10130346
-0.017728591
0.10329694
-0.017631787
0.10530758
-0.017497391
0.10732953
-0.017327674
0.1093573
-0.017124996
0.1113858
-0.016891771
0.11341034
-0.016630449
0.11542663
-0.016343485
0.11743077
-0.016033321
0.11941926
-0.015702363
0.12138898
-0.015352968
0.12333717
-0.014987429
0.12526147
-0.01460797
0.12715982
-0.014216748
0.12903056
-0.013815858
0.13087233
-0.013407348
0.13268412
-0.012993265
0.13446527
-0.012575656
0.13621551
-0.012156819
0.13793492
-0.01173887
0.13962423
-0.01132586
0.1412843
-0.01091798
0.14291852
-0.010532608
0.1445264
-0.010140302
0.14612608
-0.0098792027
0.14768983
-0.0093922074
0.14934713
-0.0099367488
-0.0082559041
0.098025372
-0.0061581739
0.0972581
-0.007743526
0.096581809
-0.0090247252
0.095997373
-0.0099353786
0.095540919
-0.010866199
0.09522368
-0.011812411
0.095051022
-0.012710071
0.09502695
-0.013549364
0.095150995
-0.014333891
0.095419892
-0.015062967
0.095829281
-0.015734672
0.096373753
-0.016347679
0.097046822
-0.016901217
0.097841256
-0.017395
0.098749371
-0.017829114
0.099763196
-0.018203931
0.10087459
-0.01852011
0.10207538
-0.018778605
0.10335743
-0.018980657
0.10471275
-0.019127768
0.10613356
-0.019221691
0.10761234
-0.019264411
0.10914188
-0.019258127
0.11071531
-0.019205221
0.11232616
-0.01910824
0.11396834
-0.01896986
0.1156362
-0.018792851
0.11732448
-0.018580057
0.11902839
-0.018334359
0.12074355
-0.018058638
0.12246599
-0.017755765
0.12419219
-0.017428561
0.12591901
-0.017079789
0.12764372
-0.016712138
0.12936397
-0.016328217
0.13107777
-0.01593055
0.1327835
-0.015521594
0.13447991
-0.015103752
0.13616607
-0.014679427
0.13784144
-0.014251021
0.13950585
-0.013821232
0.14115953
-0.013392551
0.14280335
-0.01296968
0.14443833
-0.012552958
0.14606785
-0.01216213
0.14769198
-0.011764433
0.14932695
-0.011514171
0.15095067
-0.011015931
0.15267008
-0.011656153
-0.0098653538
0.11918914
-0.0043345327
0.11749654
-0.006050925
0.11585702
-0.0073852104
0.1143545
-0.0084328532
0.1130252
-0.0095369016
0.11186664
-0.010653851
0.11088429
-0.011727716
0.11008442
-0.012749495
0.10946644
-0.013715918
0.10902577
-0.014622296
0.10875659
-0.015465492
0.10865224
-0.016243328
0.10870513
-0.016954099
0.10890693
-0.017596806
0.10924894
-0.018171118
0.1097222
-0.018677192
0.11031769
-0.0191156
0.1110264
-0.019487318
0.11183945
-0.019793708
0.11274816
-0.020036479
0.11374412
-0.020217654
0.11481926
-0.020339545
0.11596586
-0.020404727
0.11717663
-0.020415989
0.1184447
-0.020376316
0.11976368
-0.020288841
0.12112764
-0.020156808
0.12253112
-0.019983539
0.12396915
-0.019772391
0.12543724
-0.019526727
0.12693136
-0.019249882
0.12844794
-0.018945138
0.12998385
-0.018615705
0.13153641
-0.018264699
0.13310334
-0.017895144
0.13468276
-0.017509967
0.13627318
-0.017112013
0.13787349
-0.016704066
0.13948297
-0.016288905
0.14110126
-0.015869316
0.14272844
-0.01544841
0.14436497
-0.015029075
0.14601195
-0.014616669
0.14767071
-0.014211718
0.14934474
-0.013836159
0.15103477
-0.013454459
0.15275518
-0.013234585
0.15448978
-0.012750531
0.15632281
-0.013489181
-0.011647396
0.1368961
-0.0017555657
0.13437814
-0.0035329677
0.13181958
-0.0048266459
0.12946252
-0.0060757917
0.12733417
-0.0074085504
0.1254159
-0.0087355844
0.12371055
-0.010022365
0.1222232
-0.011262147
0.1209523
-0.012445023
0.11989209
-0.013562082
0.11903505
-0.014608453
0.11837284
-0.015581117
0.11789646
-0.016477722
0.11759639
-0.017296734
0.11746276
-0.018037485
0.11748555
-0.018699986
0.11765475
-0.019284802
0.11796045
-0.019793011
0.1183929
-0.02022616
0.11894265
-0.020586233
0.11960059
-0.020875591
0.12035799
-0.021096941
0.12120656
-0.021253296
0.12213849
-0.021347925
0.12314649
-0.021384315
0.12422378
-0.021366125
0.1253641
-0.021297132
0.12656176
-0.021181202
0.1278116
-0.021022232
0.129109
-0.020824121
0.13044984
-0.02059073
0.13183056
-0.020325852
0.13324805
-0.020033192
0.13469969
-0.019716343
0.13618334
-0.01937879
0.13769727
-0.019023901
0.13924021
-0.018654949
0.14081127
-0.018275131
0.14241001
-0.017887639
0.14403636
-0.017495669
0.14569073
-0.017102775
0.14737392
-0.016712266
0.14908742
-0.016330168
0.15083293
-0.015957234
0.1526142
-0.015617426
0.15443272
-0.015272978
0.15630115
-0.015103016
0.15820929
-0.014658677
0.16021914
-0.015499026
-0.01366207
0.15005221
0.00077993302
0.14676327
-0.00024402614
0.14346594
-0.0015293122
0.14041816
-0.0030280183
0.13762328
-0.0046136626
0.13507502
-0.0061873265
0.13277522
-0.0077225727
0.13072398
-0.0092109042
0.12891885
-0.010639892
0.12735463
-0.01199786
0.12602349
-0.013277316
0.12491603
-0.014473659
0.12402208
-0.015583765
0.12333096
-0.016605619
0.12283171
-0.01753823
0.1225132
-0.01838148
0.12236437
-0.019135972
0.1223743
-0.019802942
0.12253234
-0.020384196
0.12282816
-0.020882052
0.12325185
-0.021299281
0.12379397
-0.021639059
0.12444558
-0.021904913
0.12519832
-0.022100665
0.12604439
-0.022230383
0.12697659
-0.022298323
0.12798834
-0.02230888
0.12907367
-0.022266532
0.13022722
-0.022175791
0.13144427
-0.022041163
0.13272063
-0.021867099
0.13405275
-0.02165797
0.13543759
-0.021418033
0.13687267
-0.021151421
0.13835601
-0.020862128
0.13988612
-0.020554012
0.14146199
-0.020230819
0.14308306
-0.019896204
0.14474923
-0.019553809
0.14646083
-0.019207271
0.14821868
-0.018860623
0.15002403
-0.018517617
0.15187884
-0.018184972
0.15378528
-0.01786368
0.1557475
-0.017579643
0.15776768
-0.017293154
0.15985735
-0.017192693
0.16201077
-0.016812096
0.1642727
-0.017760953
-0.015974341
0.18890896
0.0053820274
-0.19351105
0.18509893
0.0035660043
0.1817069
0.0018627147
0.17856179
0.00011709951
0.17562623
-0.0016781117
0.17287522
-0.0034363099
0.17029051
-0.0051378659
0.16786312
-0.0067835141
0.16558917
-0.0083659374
0.16346649
-0.0098751864
0.16149324
-0.011304062
0.15966729
-0.012647715
0.15798602
-0.013902488
0.15644612
-0.015065718
0.15504367
-0.016135784
0.15377421
-0.01711202
0.15263281
-0.017994572
0.15161417
-0.018784307
0.15071273
-0.019482749
0.14992269
-0.020092016
0.14923817
-0.020614759
0.14865321
-0.0210541
0.14816187
-0.021413572
0.14775827
-0.021697063
0.14743664
-0.02190875
0.14719136
-0.022053043
0.147017
-0.02213452
0.14690834
-0.022157874
0.1468604
-0.022127857
0.14686847
-0.022049226
0.14692807
-0.021926702
0.14703503
-0.021764933
0.14718546
-0.021568458
0.14737573
-0.021341693
0.14760252
-0.021088919
0.14786279
-0.020814281
0.14815378
-0.020521807
0.14847301
-0.020215441
0.14881832
-0.019899116
0.14918782
-0.019576767
0.14957995
-0.019252752
0.14999347
-0.01893114
0.15042762
-0.018619124
0.15088188
-0.018317939
0.15135687
-0.018054627
0.15185243
-0.017788715
0.15237305
-0.017713315
0.15291442
-0.017353468
0.15349954
-0.018346073
-0.016567275
0.21685784
0.0087803515
-0.22025617
0.21338396
0.0070398844
0.21017116
0.0050755198
0.20706585
0.0032224051
0.20401927
0.0013684764
0.20106235
-0.00047939743
0.198212
-0.0022875123
0.19547272
-0.0040442319
0.19285041
-0.0057436273
0.1903519
-0.00737668
0.1879824
-0.0089345594
0.1857453
-0.010410612
0.18364259
-0.011799781
0.18167498
-0.013098107
0.17984193
-0.014302732
0.17814181
-0.015411902
0.17657208
-0.016424842
0.17512942
-0.017341649
0.17380988
-0.018163214
0.17260901
-0.018891147
0.17152197
-0.019527711
0.17054361
-0.020075741
0.16966861
-0.02053858
0.16889156
-0.020920005
0.16820696
-0.021224158
0.1676094
-0.021455475
0.1670935
-0.021618619
0.16665403
-0.021718411
0.16628595
-0.021759772
0.16598438
-0.02174766
0.16574471
-0.021687025
0.16556253
-0.02158276
0.16543374
-0.021439667
0.16535448
-0.021262435
0.16532119
-0.021055624
0.16533057
-0.020823666
0.16537965
-0.02057088
0.16546571
-0.020301503
0.16558636
-0.02001977
0.16573952
-0.019729928
0.16592344
-0.019436667
0.16613671
-0.019144413
0.16637833
-0.01886075
0.16664782
-0.018587423
0.16694501
-0.01835182
0.16727115
-0.01811485
0.16762545
-0.018067616
0.16801621
-0.017744236
0.16842543
-0.018755285
-0.017041415
0.24376675
0.011504298
-0.2464907
0.24091632
0.0098903153
0.23806312
0.007928723
0.23521617
0.0060693598
0.23233837
0.0042462715
0.22945056
0.0024084147
0.22658395
0.00057909679
0.22375784
-0.0012181227
0.22098815
-0.0029739356
0.21829081
-0.0046793418
0.21567968
-0.0063234331
0.21316577
-0.007896697
0.21075768
-0.0093916886
0.20846196
-0.010802395
0.20628326
-0.012124033
0.20422446
-0.013353098
0.20228691
-0.014487288
0.20047064
-0.015525385
0.19877459
-0.016467156
0.1971967
-0.017313264
0.19573418
-0.018065187
0.19438357
-0.018725129
0.19314092
-0.01929593
0.1920019
-0.019780991
0.19096193
-0.020184181
0.19001621
-0.020509762
0.1891599
-0.020762307
0.18838811
-0.020946621
0.18769601
-0.021067671
0.18707887
-0.021130519
0.1865321
-0.02114026
0.18605131
-0.02110197
0.18563231
-0.021020667
0.18527116
-0.020901279
0.18496415
-0.02074862
0.18470788
-0.020567395
0.18449921
-0.020362206
0.18433529
-0.020137584
0.18421359
-0.01989807
0.18413189
-0.019648231
0.18408831
-0.019393087
0.18408136
-0.019137462
0.18410986
-0.018889244
0.18417338
-0.01865095
0.18427104
-0.018449479
0.18440555
-0.018249358
0.18457051
-0.018232579
0.18478782
-0.017961543
0.18499358
-0.018961047
-0.017374307
0.26927451
0.013537245
-0.27130745
0.26710647
0.012058353
0.26476471
0.010270478
0.2623255
0.0085085787
0.25979675
0.0067750144
0.25718867
0.0050165021
0.25452736
0.0032404064
0.251837
0.0014722366
0.24913759
-0.00027452436
0.24644893
-0.0019906837
0.24379031
-0.0036648182
0.24117888
-0.0052852607
0.23862935
-0.0068421578
0.23615421
-0.0083272586
0.23376376
-0.0097335873
0.23146617
-0.011055503
0.22926761
-0.012288727
0.22717248
-0.013430254
0.22518357
-0.014478255
0.2233023
-0.015431988
0.22152882
-0.016291711
0.21986228
-0.017058585
0.21830092
-0.017734576
0.2168423
-0.018322363
0.21548336
-0.018825239
0.21422061
-0.019247016
0.21305024
-0.019591935
0.21196819
-0.019864575
0.21097029
-0.020069771
0.2100523
-0.02021253
0.20921001
-0.020297965
0.20843927
-0.020331233
0.20773608
-0.02031748
0.20709661
-0.020261804
0.20651721
-0.020169227
0.20599451
-0.020044687
0.20552535
-0.019893045
0.20510687
-0.01971911
0.20473652
-0.019527719
0.20441205
-0.019323762
0.20413154
-0.01911258
0.2038935
-0.018899421
0.20369666
-0.0186924
0.20354071
-0.018495006
0.2034242
-0.01833296
0.20335102
-0.018176178
0.20331
-0.018191559
0.20333436
-0.017985906
0.2033189
-0.018945592
-0.017543765
0.29298526
0.014868381
-0.2943164
0.29150603
0.01353759
0.28978354
0.011992965
0.28788491
0.010407207
0.28584501
0.0088149188
0.28367464
0.0071868673
0.28139223
0.005522821
0.279021
0.0038434576
0.27658228
0.0021642005
0.27409621
0.00049538301
0.27158301
-0.0011516103
0.26906238
-0.0027646362
0.26655266
-0.0043324402
0.26407044
-0.0058450397
0.26163046
-0.0072936063
0.25924548
-0.0086705244
0.25692627
-0.0099695117
0.25468164
-0.011185621
0.25251857
-0.012315185
0.25044233
-0.013355756
0.24845666
-0.014306038
0.24656388
-0.0151658
0.24476508
-0.015935782
0.24306032
-0.016617599
0.24144872
-0.01721364
0.23992867
-0.017726963
0.23849793
-0.018161198
0.2371538
-0.018520442
0.23589319
-0.018809168
0.23471279
-0.019032132
0.23360912
-0.019194292
0.23257862
-0.019300735
0.23161776
-0.019356612
0.23072304
-0.019367091
0.22989113
-0.019337318
0.22911885
-0.019272402
0.22840322
-0.019177413
0.22774151
-0.019057404
0.22713128
-0.018917484
0.22657037
-0.018762851
0.22605694
-0.018599154
0.22558959
-0.01843207
0.22516707
-0.018269885
0.22478924
-0.018117171
0.22445426
-0.017997976
0.22416687
-0.017888796
0.22391226
-0.017936946
0.22373197
-0.017805618
0.22348717
-0.018700784