/*--------------------------------*- C++ -*----------------------------------*\
  =========                 |
  \\      /  F ield         | OpenFOAM: The Open Source CFD Toolbox
   \\    /   O peration     | Website:  https://openfoam.org
    \\  /    A nd           | Version:  6
     \\/     M anipulation  |
\*---------------------------------------------------------------------------*/
FoamFile
{
    version     2.0;
    format      ascii;
    class       volVectorField;
    location    "159";
    object      U;
}
// * * * * * * * * * * * * * * * * * * * * * * * * * * * * * * * * * * * * * //

dimensions      [0 1 -1 0 0 0 0];

internalField   nonuniform List<vector> 
9200
(
(0.0010393544 0.0014199778 -5.9201906e-20)
(0.013676103 -0.0020583857 4.6042585e-20)
(0.038313245 -0.0058666013 -3.8501782e-20)
(0.072274569 -0.0097635529 -6.0257815e-20)
(0.11376494 -0.013490091 1.8826989e-20)
(0.16158115 -0.016605735 3.274392e-20)
(0.21467182 -0.018817378 -1.2268025e-20)
(0.2720665 -0.019973998 9.268875e-21)
(0.33285673 -0.020011345 1.6803447e-20)
(0.39616407 -0.018929189 1.4848093e-21)
(0.46111624 -0.016779969 -2.1456368e-20)
(0.52683763 -0.013657901 2.0670034e-20)
(0.59245152 -0.0096881848 -4.0422202e-20)
(0.65709221 -0.005015981 -2.1133935e-20)
(0.71992567 0.00020533764 5.9046614e-21)
(0.78017602 0.0058238504 -2.5131718e-20)
(0.83717162 0.011712545 2.5217162e-20)
(0.89046981 0.01791822 2.2243253e-20)
(0.93967176 0.024573092 -2.99286e-22)
(0.9820529 0.028293037 -1.6691738e-21)
(0.0052521944 -0.0013462805 -1.705937e-20)
(0.026962554 -0.008989053 3.9747753e-20)
(0.061670223 -0.014809807 2.3576319e-20)
(0.10629506 -0.019172327 -1.156977e-19)
(0.1587359 -0.022214069 -1.2727102e-20)
(0.21753384 -0.023720771 7.329716e-20)
(0.28137337 -0.023595195 -3.547644e-20)
(0.34900651 -0.021869077 -8.390567e-21)
(0.41923979 -0.018645648 3.4287584e-20)
(0.49091011 -0.014080979 -4.3259637e-20)
(0.56287307 -0.0083761025 -3.0338527e-20)
(0.63400929 -0.0017667612 7.1921553e-20)
(0.70324418 0.0054882109 3.8294109e-20)
(0.76957675 0.01311843 -6.7976679e-20)
(0.83211343 0.020851859 1.4623721e-20)
(0.89010136 0.028419459 -3.6733474e-20)
(0.94297016 0.035569401 -1.3777216e-20)
(0.99043329 0.042140586 7.0974946e-20)
(1.032357 0.047714979 2.9642084e-20)
(1.0669357 0.049139334 -8.3478443e-20)
(0.010858448 -0.0040424261 3.6773489e-20)
(0.043953487 -0.01543111 2.504736e-21)
(0.090515575 -0.022552333 2.2341729e-20)
(0.14711161 -0.026497424 9.8116919e-22)
(0.21134284 -0.027886376 -4.0773973e-20)
(0.28146806 -0.026795206 1.8576424e-20)
(0.35587088 -0.023382831 1.3420311e-20)
(0.43299064 -0.017921651 -5.0327761e-20)
(0.51132543 -0.010735776 5.726193e-20)
(0.58942687 -0.002184018 1.4256714e-20)
(0.66590997 0.0073477539 -5.4300797e-20)
(0.73948122 0.017460095 -1.8237439e-20)
(0.80897689 0.027756376 9.0591552e-21)
(0.87340358 0.037859064 2.3444784e-20)
(0.93197457 0.047423812 -1.1362533e-20)
(0.98413462 0.056148715 2.7877785e-20)
(1.0295749 0.063788887 -2.0188278e-20)
(1.0682654 0.070204075 -7.0123754e-20)
(1.100333 0.07511903 -2.3796338e-20)
(1.124912 0.076640862 4.8659908e-20)
(0.017957243 -0.0064221757 2.4508034e-20)
(0.064777091 -0.020694837 5.1039271e-20)
(0.12485246 -0.028060902 1.9881713e-20)
(0.19446992 -0.030464135 1.2990112e-20)
(0.27094967 -0.029094922 1.7275723e-20)
(0.35224925 -0.024389069 -4.7720222e-20)
(0.43643193 -0.016826072 -2.5646885e-20)
(0.52162071 -0.0069767791 0)
(0.60602967 0.004566913 1.3920654e-20)
(0.68798785 0.0172116 -5.8523634e-21)
(0.76597602 0.030373776 -9.7935093e-20)
(0.83867535 0.043499469 -1.5774832e-20)
(0.90501616 0.056086433 6.5103327e-20)
(0.96421661 0.067703928 4.8441098e-22)
(1.0158044 0.078007482 -1.5725598e-21)
(1.0596164 0.086746531 2.195754e-20)
(1.0957781 0.093771937 -5.2647349e-21)
(1.1246808 0.099065012 -6.1029863e-20)
(1.1468655 0.10259673 -4.5851339e-20)
(1.1622964 0.10341347 6.9520636e-20)
(0.026579458 -0.0082057016 -3.919421e-21)
(0.089344141 -0.024033545 -5.1256293e-21)
(0.16430775 -0.030265043 5.6599459e-20)
(0.24758151 -0.029810086 1.8539345e-20)
(0.33624202 -0.024513102 -3.1955103e-20)
(0.42795177 -0.015239942 1.2163848e-20)
(0.52047322 -0.0028514517 2.6402893e-21)
(0.61166426 0.011736999 3.3609218e-20)
(0.69954788 0.027640036 5.6599585e-21)
(0.78236919 0.04402865 -1.3204769e-20)
(0.85865491 0.06014759 6.0154159e-20)
(0.92726998 0.075340317 -5.8009444e-20)
(0.98745764 0.089072685 -1.3216637e-19)
(1.0388539 0.10094882 -5.5773142e-21)
(1.0814733 0.11071685 8.3150942e-20)
(1.1156663 0.11826379 0)
(1.1420556 0.12360554 1.0118976e-20)
(1.1614676 0.12689024 -1.5459803e-20)
(1.1748186 0.12829835 -8.5994782e-21)
(1.1826679 0.12744878 2.0992267e-20)
(0.036666957 -0.0090895932 -5.4309107e-21)
(0.11731526 -0.024685394 4.3578784e-21)
(0.20811893 -0.028140229 -8.7629917e-21)
(0.30515738 -0.023415013 2.8472417e-20)
(0.40533586 -0.013075655 -2.9392696e-20)
(0.50607204 0.0015225477 -1.6927042e-20)
(0.60490555 0.019095068 3.7364259e-20)
(0.69955032 0.038365175 4.7595459e-21)
(0.78800471 0.058167556 -2.4436108e-20)
(0.86863488 0.077482901 6.9867665e-20)
(0.94024058 0.095458521 5.2392404e-22)
(1.0020964 0.11143142 -8.044447e-20)
(1.0539577 0.12494274 0)
(1.0960281 0.1357373 3.95422e-20)
(1.1288929 0.1437482 5.5236128e-21)
(1.1534285 0.14906867 -7.7566552e-20)
(1.1706997 0.15191885 -1.9586959e-20)
(1.181863 0.15262336 -1.2467656e-20)
(1.1880598 0.15152571 -1.4709417e-20)
(1.1901466 0.14858456 4.0420596e-20)
(0.048058927 -0.0087674174 -1.7277969e-20)
(0.14808328 -0.021932025 -2.2198405e-21)
(0.25514099 -0.020797876 3.0380525e-20)
(0.36546424 -0.010412838 3.7484332e-20)
(0.47590472 0.0059015422 -1.9944752e-20)
(0.58374327 0.026269259 -6.916311e-20)
(0.68644254 0.048977158 -2.7995838e-20)
(0.78176278 0.07241773 7.8929314e-20)
(0.86790275 0.095212408 8.5778368e-21)
(0.94358998 0.11624953 -2.4873513e-20)
(1.0081266 0.13469816 1.3642221e-20)
(1.0613878 0.15001542 -4.3194616e-21)
(1.1037701 0.16193643 0)
(1.1360982 0.17044408 2.7203531e-20)
(1.1595053 0.17572287 -7.9322556e-20)
(1.1753027 0.17810344 -3.1475585e-20)
(1.1848576 0.17800785 8.1054724e-20)
(1.1894927 0.17590914 -4.2969955e-21)
(1.1904035 0.17225525 3.5561126e-21)
(1.1885085 0.16719263 2.7111623e-20)
(0.060485319 -0.0069573736 -3.2414635e-20)
(0.18077792 -0.015170404 -8.1624389e-20)
(0.30388961 -0.007583554 2.5797669e-21)
(0.426426 0.0097033305 7.0161881e-20)
(0.54535204 0.03263153 6.2424441e-20)
(0.65798164 0.058820019 -7.1574589e-20)
(0.76190954 0.08617648 -2.8273971e-22)
(0.85518367 0.11285227 8.5522675e-20)
(0.93645425 0.13737832 4.8828138e-20)
(1.0050423 0.15869363 -5.4218496e-20)
(1.0609364 0.17613554 -9.2334364e-20)
(1.104725 0.18941342 -3.1589878e-21)
(1.1374766 0.19855928 4.2127936e-20)
(1.160588 0.20385838 -6.6056396e-21)
(1.1756254 0.20576998 -1.2868808e-20)
(1.1841782 0.20484895 1.9690839e-20)
(1.1877433 0.2016787 4.3880693e-20)
(1.1876459 0.19682559 -4.3859505e-20)
(1.1849959 0.19077852 -1.023222e-19)
(1.1806255 0.18377347 2.456693e-20)
(0.073537294 -0.003432979 -3.497978e-20)
(0.21422709 -0.0039890375 -1.7388623e-19)
(0.35251692 0.011839367 8.2103326e-20)
(0.48562845 0.037018334 9.2767611e-20)
(0.61085437 0.066835554 5.7970627e-20)
(0.72576792 0.09848118 8.6107204e-21)
(0.82834874 0.12959696 -1.0624022e-19)
(0.91719072 0.15824267 0)
(0.9916282 0.18302811 -6.8748702e-20)
(1.0517528 0.20311201 -1.5202437e-20)
(1.0983391 0.21814852 5.470355e-20)
(1.1327015 0.22821071 1.0973398e-20)
(1.1565116 0.23369246 -4.5613926e-20)
(1.1716074 0.23519929 -4.9081438e-20)
(1.179821 0.23344315 2.4287721e-20)
(1.1828456 0.229153 4.4822967e-20)
(1.1821494 0.2230096 -5.5600502e-20)
(1.1789365 0.21560795 -1.075114e-19)
(1.1741473 0.20742195 -3.1513619e-21)
(1.1684572 0.1987185 2.7046445e-20)
(0.086650533 0.0019613859 -3.5449075e-21)
(0.24696043 0.011816637 8.7913311e-20)
(0.39884777 0.037492323 -1.647923e-20)
(0.54040514 0.071218405 -8.4309249e-20)
(0.66949961 0.10778896 4.5164425e-20)
(0.78422018 0.14411546 4.9175503e-20)
(0.8831901 0.17775671 5.5356859e-21)
(0.96577943 0.20688491 -9.9502626e-20)
(1.032177 0.23038801 -2.5048817e-21)
(1.0833335 0.24781549 5.050362e-20)
(1.1208077 0.25926294 5.9854853e-21)
(1.1465564 0.26523609 -1.9717236e-20)
(1.1627113 0.2665052 -7.5704741e-20)
(1.1713771 0.26396606 -6.2554094e-21)
(1.1744768 0.2585241 4.3533418e-20)
(1.1736553 0.25101067 3.7022067e-20)
(1.1702388 0.24213372 1.9793466e-20)
(1.1652407 0.2324585 -5.299494e-20)
(1.1594018 0.22240391 1.2957452e-20)
(1.1532256 0.21223771 8.2659222e-20)
(-0.0012932632 0.0014346611 -1.1234625e-21)
(-0.0047459663 0.0031874184 2.0646982e-21)
(-0.010771372 0.0041359087 8.7944283e-22)
(-0.017754307 0.0045395406 -2.4410707e-21)
(-0.024740345 0.0045654208 -1.4114879e-21)
(-0.031299626 0.0043260421 1.5460449e-21)
(-0.037161364 0.0039035408 -6.8700801e-21)
(-0.042147482 0.0033577234 -5.9573527e-21)
(-0.046157817 0.0027313818 1.1172019e-20)
(-0.04914623 0.0020548299 -9.7427682e-21)
(-0.051100692 0.0013492984 -1.9833853e-22)
(-0.052030477 0.00062941847 3.667345e-21)
(-0.051957765 -9.4894427e-05 -6.3295978e-22)
(-0.050911901 -0.00081693693 2.2818797e-20)
(-0.048925787 -0.0015318529 3.0401406e-22)
(-0.046035338 -0.002235184 -4.0882972e-20)
(-0.042281779 -0.0029222799 7.5385795e-21)
(-0.037703407 -0.0035910524 2.3864174e-20)
(-0.032308639 -0.0042400026 -4.3852494e-20)
(-0.026156886 -0.0048211313 -2.7739282e-20)
(-0.0016522019 0.0041808712 -5.3715992e-21)
(-0.0053974875 0.0092681489 1.0865441e-20)
(-0.011218522 0.012007457 -1.0191522e-20)
(-0.017658044 0.013153777 3.9229694e-21)
(-0.023856456 0.013195425 4.8121476e-21)
(-0.029433345 0.012462735 7.132427e-22)
(-0.03415235 0.011197021 -2.2509523e-20)
(-0.037860408 0.0095739014 -2.0370226e-21)
(-0.040474327 0.0077189883 2.0163563e-20)
(-0.041958946 0.0057212277 -5.0473681e-21)
(-0.042308968 0.0036428577 -2.1762625e-20)
(-0.041537347 0.0015267017 4.8973263e-21)
(-0.039667713 -0.000598321 2.2635471e-20)
(-0.036729069 -0.0027127813 1.0308413e-20)
(-0.032752006 -0.0048027145 2.1854334e-20)
(-0.027769125 -0.0068555392 -1.9770775e-20)
(-0.021824729 -0.0088582561 -2.1672996e-20)
(-0.014966181 -0.010804267 2.1184673e-20)
(-0.0071289021 -0.01267905 2.6810434e-20)
(0.0018744406 -0.014317278 1.5854805e-20)
(-0.0023034318 0.0065602405 -4.3568728e-21)
(-0.0065392309 0.014480212 -5.6387519e-21)
(-0.011892143 0.018710563 3.0723787e-22)
(-0.017211114 0.0204282 1.0959808e-21)
(-0.021819159 0.020400341 6.6918438e-21)
(-0.025431058 0.01915168 1.0665173e-20)
(-0.027877247 0.017066297 -3.7227663e-21)
(-0.029053279 0.014423787 -1.889618e-20)
(-0.02890904 0.011424351 6.5413242e-21)
(-0.027431044 0.0082098976 1.2862587e-20)
(-0.024627695 0.0048797618 5.834094e-21)
(-0.020520075 0.0015022172 1.8159137e-20)
(-0.015135934 -0.0018768923 1.7295947e-21)
(-0.0085053262 -0.0052272847 -3.3864595e-20)
(-0.00065679611 -0.0085276555 1.2020213e-21)
(0.0083811411 -0.011759164 -2.2139255e-20)
(0.018557022 -0.01490416 -2.4466361e-20)
(0.029802369 -0.017953826 4.5819822e-20)
(0.042305191 -0.020855201 2.5349413e-20)
(0.056738842 -0.02324786 1.2239792e-22)
(-0.003129031 0.0083689797 -5.2833167e-21)
(-0.0078964064 0.018336532 -8.481563e-21)
(-0.012438996 0.023587832 4.3593101e-21)
(-0.016026545 0.025609681 4.1463527e-21)
(-0.018235031 0.025382765 2.0105741e-21)
(-0.018912653 0.023589336 7.3210007e-21)
(-0.017984711 0.020730281 9.3124839e-21)
(-0.015416693 0.017170379 -1.3511341e-21)
(-0.011207016 0.013171307 -1.1481956e-20)
(-0.0053751845 0.0089189155 -2.9071916e-20)
(0.0020481811 0.0045434117 6.1894315e-23)
(0.011026602 0.00013427551 4.0697886e-20)
(0.021522346 -0.004248997 -1.83832e-20)
(0.033498003 -0.0085676421 -1.229611e-20)
(0.046920699 -0.012795615 5.5348735e-22)
(0.061760322 -0.016911936 3.2302711e-20)
(0.077953283 -0.020901764 -1.4829581e-20)
(0.095392581 -0.024763484 -5.3339298e-20)
(0.11439882 -0.02837984 4.5765108e-20)
(0.13634581 -0.031073232 3.3013243e-20)
(-0.0039704135 0.0094657425 -6.8788797e-22)
(-0.0090916653 0.020487812 -1.2534763e-20)
(-0.012364478 0.02615911 -3.4144616e-20)
(-0.013552542 0.02814336 -5.7241744e-21)
(-0.012533234 0.027555024 -3.6222863e-21)
(-0.0093167066 0.025188075 6.3051091e-21)
(-0.0039456113 0.021627414 -4.6461918e-21)
(0.0035261813 0.017298953 -8.8070229e-21)
(0.013036898 0.012508734 2.1899729e-20)
(0.024521346 0.0074744138 5.0567073e-21)
(0.037915675 0.0023488631 -2.5290339e-20)
(0.053157618 -0.0027628378 1.1078292e-20)
(0.07018708 -0.0077909417 0)
(0.088946839 -0.012691384 1.2089596e-20)
(0.10938575 -0.017437015 -9.701635e-21)
(0.13145777 -0.022010008 -1.4337148e-20)
(0.15507449 -0.026408774 -1.573889e-21)
(0.18006808 -0.030659566 -2.2181632e-21)
(0.20685397 -0.034576698 4.6147147e-20)
(0.23766422 -0.03702005 -1.0470161e-20)
(-0.0046451019 0.009780872 -7.5356796e-21)
(-0.0096772567 0.020747898 2.4516451e-20)
(-0.011064382 0.026160997 -1.049937e-20)
(-0.0090968242 0.027724462 -2.7469337e-20)
(-0.0039796975 0.026601705 -2.7548208e-20)
(0.0040962259 0.02364841 -1.4921592e-20)
(0.014954217 0.019496449 -6.905884e-22)
(0.028436332 0.014604686 5.5499758e-21)
(0.044403278 0.0093034142 1.9615891e-20)
(0.062730667 0.0038283695 7.3530944e-21)
(0.08330453 -0.0016548155 -7.1862289e-21)
(0.10601924 -0.0070323142 -2.0102292e-21)
(0.13077389 -0.012229189 -3.8191769e-20)
(0.15746981 -0.017199861 -1.2693665e-20)
(0.18601243 -0.02191986 1.8750644e-20)
(0.21631228 -0.026379861 -2.1021715e-20)
(0.24823281 -0.030602386 -8.9730744e-21)
(0.28151932 -0.03467079 3.0440515e-20)
(0.31660777 -0.038365023 5.0472157e-20)
(0.35665097 -0.039964324 3.3559735e-21)
(-0.0049617719 0.0093140067 1.678333e-20)
(-0.0091662719 0.019097723 1.4467963e-20)
(-0.0078593583 0.023563379 5.1145585e-20)
(-0.0018585166 0.024328951 2.3388023e-20)
(0.0082957684 0.022523783 1.8251798e-22)
(0.022222014 0.019014374 -3.9388503e-20)
(0.03959755 0.014440913 -2.4313903e-20)
(0.060148052 0.0092663231 1.0465825e-20)
(0.083639309 0.0038231772 1.4401604e-20)
(0.10986694 -0.0016513656 -1.3113721e-20)
(0.13864593 -0.0069910922 -4.4038779e-20)
(0.16980206 -0.012082947 2.9618543e-20)
(0.20316447 -0.016854276 2.0020577e-20)
(0.23855995 -0.021264131 -2.7551198e-20)
(0.27581287 -0.025296557 1.1650156e-20)
(0.31474875 -0.028957342 2.4197652e-20)
(0.35514618 -0.032303247 8.0724099e-21)
(0.39663468 -0.035506892 -1.1764236e-20)
(0.4395779 -0.03839288 -1.4190316e-20)
(0.48798606 -0.038634663 5.8727914e-21)
(-0.0047307783 0.0081236787 1.1093862e-20)
(-0.0070585977 0.015671182 -2.3352757e-20)
(-0.002029348 0.018562035 8.6200732e-21)
(0.0090325618 0.01821622 3.3588019e-20)
(0.025256434 0.015651135 5.2124435e-20)
(0.046066449 0.011695576 2.0276541e-20)
(0.070984679 0.0069609117 -5.8639495e-21)
(0.099602155 0.0018828958 -1.2286296e-20)
(0.13156921 -0.0032272694 -6.2057603e-21)
(0.166576 -0.0081497453 3.4240883e-20)
(0.20433464 -0.012733425 -4.5104517e-21)
(0.24456531 -0.01687931 -1.6643328e-20)
(0.28698523 -0.020528827 -1.9693598e-20)
(0.33130059 -0.023656572 -4.744381e-20)
(0.37720528 -0.026265712 2.3238738e-20)
(0.42438847 -0.02838806 -1.4096007e-20)
(0.47250058 -0.030127839 2.5993446e-20)
(0.5210371 -0.031783429 2.104086e-20)
(0.57021495 -0.033350939 -8.5570505e-20)
(0.62471023 -0.032059124 -1.0806513e-22)
(-0.0037710518 0.0063146419 2.1925085e-20)
(-0.0028657557 0.010735094 -2.6165566e-20)
(0.0071421378 0.011564128 -4.5013363e-20)
(0.024450298 0.0099249711 -2.725382e-20)
(0.047870957 0.0066522754 -2.0439894e-21)
(0.076628857 0.002490573 1.3050103e-20)
(0.11007694 -0.0020154541 -2.8337681e-21)
(0.14765233 -0.0064879784 1.811856e-20)
(0.1888613 -0.010663594 8.8685704e-21)
(0.23325236 -0.014362528 -1.1380187e-20)
(0.28039198 -0.017469073 8.8779319e-21)
(0.3298466 -0.019916947 -2.3903301e-20)
(0.38116945 -0.021678857 8.0504955e-21)
(0.43389157 -0.022760053 1.6756417e-20)
(0.48752016 -0.023194498 -2.6395182e-21)
(0.54154804 -0.023047109 1.6619005e-21)
(0.59543641 -0.022469683 -3.1957516e-22)
(0.64851885 -0.021870363 1.9590454e-20)
(0.70082346 -0.021445342 4.0434063e-21)
(0.75745261 -0.018499384 -5.7337996e-22)
(-0.0019110108 0.0040273473 2.3692141e-20)
(0.0038694513 0.0046765104 5.7160029e-20)
(0.020315363 0.0031879439 -4.924429e-20)
(0.045178379 0.00029439355 -9.9454263e-21)
(0.076965296 -0.0034241979 2.0256366e-20)
(0.11469643 -0.0073536463 2.1433744e-21)
(0.1575391 -0.011055032 -2.9815199e-20)
(0.20474865 -0.01424423 6.9848172e-21)
(0.25564991 -0.016738034 7.1098001e-21)
(0.30960523 -0.018427079 -2.6254115e-20)
(0.36598706 -0.019260236 1.2927353e-21)
(0.42416024 -0.019232022 -3.7174167e-20)
(0.48347176 -0.018372376 -3.6341071e-20)
(0.54324647 -0.016738468 6.5683585e-20)
(0.60278901 -0.014407513 5.5627579e-21)
(0.6613898 -0.011476129 -1.5188826e-20)
(0.71830885 -0.0081022979 1.9363997e-20)
(0.77270006 -0.0045931408 -9.1888286e-22)
(0.82408943 -0.00096834683 2.0364594e-20)
(0.87622077 0.004327745 -1.9554199e-20)
(-0.018836316 -0.005099722 5.8352206e-20)
(-0.010224522 -0.0056349472 1.5783709e-20)
(-0.00022102418 -0.006068902 -3.5139656e-20)
(0.010823438 -0.0063341331 1.6790285e-20)
(0.022642724 -0.0065120719 0)
(0.035178193 -0.0066301163 0)
(0.048370025 -0.006691001 -2.2975019e-20)
(0.062138501 -0.0067025687 -1.6502922e-20)
(0.076413209 -0.0066742045 1.9122659e-20)
(0.091134642 -0.0066126971 1.8174096e-20)
(0.10624782 -0.0065232384 1.0524278e-21)
(0.12170095 -0.0064103918 -1.031767e-20)
(0.13744573 -0.0062781161 8.3269155e-21)
(0.15343693 -0.0061297584 1.8233779e-20)
(0.1696318 -0.0059681822 -5.2274448e-21)
(0.18598969 -0.0057958728 -1.0174971e-20)
(0.20247184 -0.0056150013 -4.3196025e-21)
(0.21904123 -0.0054274768 -4.4257504e-21)
(0.23566243 -0.0052349913 7.36673e-22)
(0.25230158 -0.0050390553 1.2286099e-21)
(0.26892633 -0.0048410238 2.5666487e-21)
(0.28550591 -0.0046421164 6.6539796e-21)
(0.30201113 -0.0044434325 2.489364e-22)
(0.31841444 -0.0042459615 -3.4514911e-21)
(0.33469002 -0.0040505909 1.555864e-22)
(0.35081378 -0.0038581125 -5.7710194e-22)
(0.36676348 -0.003669226 1.243446e-21)
(0.38251871 -0.0034845441 1.0522482e-21)
(0.39806094 -0.0033045951 -1.2988146e-21)
(0.41337357 -0.0031298272 -1.2218633e-22)
(0.42844185 -0.0029606124 3.5737283e-23)
(0.44325295 -0.0027972508 -3.5188106e-22)
(0.45779586 -0.0026399754 -4.0566764e-22)
(0.47206141 -0.0024889575 5.5422472e-23)
(0.48604217 -0.0023443124 -1.3809379e-22)
(0.49973247 -0.0022061057 -2.234366e-22)
(0.51312828 -0.0020743593 2.5572659e-22)
(0.52622727 -0.0019490591 2.9502995e-22)
(0.53902863 -0.0018301633 -8.278563e-24)
(0.55153351 -0.0017176065 -1.5519238e-22)
(0.56374385 -0.0016113279 3.0406395e-23)
(0.57566626 -0.0015112271 -4.0146817e-23)
(0.58730094 -0.0014173755 9.2218836e-23)
(0.5986769 -0.0013294366 2.1973705e-23)
(0.60974851 -0.0012486945 -1.1398859e-22)
(0.62070786 -0.0011719394 -6.7647481e-24)
(0.63107717 -0.0011114039 -7.0333546e-26)
(0.6423676 -0.0010341192 -3.567131e-24)
(0.65044661 -0.0010509986 2.9451936e-23)
(0.66703145 -0.00087577965 3.6056005e-22)
(0.010446052 -0.015017669 -1.2746856e-20)
(0.018179916 -0.016641077 -6.3302505e-20)
(0.027779475 -0.017915485 -3.0542034e-20)
(0.038385451 -0.018672148 3.8476129e-20)
(0.049621343 -0.01918367 1.4662657e-20)
(0.06150704 -0.019529519 -1.8204993e-20)
(0.074013291 -0.019709957 4.6722252e-21)
(0.087063205 -0.019746588 2.5447273e-20)
(0.10059375 -0.019667381 9.1985417e-23)
(0.11455469 -0.019491804 -7.6591559e-21)
(0.12889793 -0.019234467 -1.302105e-20)
(0.14357686 -0.018908423 -8.5245699e-21)
(0.15854758 -0.018525088 1.7772399e-20)
(0.17376859 -0.018094119 8.9296064e-21)
(0.18920013 -0.017623801 -1.6522486e-20)
(0.20480402 -0.017121357 -6.0390817e-21)
(0.22054352 -0.016593125 3.2145131e-21)
(0.23638326 -0.016044702 8.3716589e-21)
(0.25228918 -0.015481067 6.9832615e-21)
(0.26822853 -0.014906679 -6.9727647e-21)
(0.28416988 -0.014325555 -3.1685833e-21)
(0.30008322 -0.01374132 1.3605613e-21)
(0.31593995 -0.013157248 3.8685595e-22)
(0.33171303 -0.012576294 1.2114096e-21)
(0.34737698 -0.012001116 1.8369119e-22)
(0.36290803 -0.011434087 -3.2662534e-22)
(0.37828411 -0.010877309 -7.2436112e-22)
(0.39348493 -0.010332627 9.7159332e-22)
(0.408492 -0.0098016341 8.2485001e-22)
(0.42328869 -0.0092856874 -1.5149481e-22)
(0.43786015 -0.008785915 5.5308036e-22)
(0.4521934 -0.0083032315 -2.3881277e-22)
(0.46627723 -0.0078383516 -3.7071813e-22)
(0.4801022 -0.0073918056 -6.1001517e-22)
(0.4936606 -0.0069639566 4.4172863e-22)
(0.50694639 -0.0065550186 -1.549969e-23)
(0.51995518 -0.0061650763 1.6127121e-22)
(0.53268423 -0.0057941049 -4.4178524e-22)
(0.5451323 -0.0054419978 3.7194696e-22)
(0.55730006 -0.0051085767 6.7180405e-23)
(0.56918901 -0.0047936771 -1.0285494e-22)
(0.58080524 -0.0044970153 1.7617519e-22)
(0.59214851 -0.0042188207 2.3345708e-22)
(0.60324709 -0.0039581036 1.6931918e-22)
(0.61405552 -0.003718711 1.6774036e-22)
(0.62476303 -0.0034910855 -2.6111066e-23)
(0.63489822 -0.0033116842 8.4111733e-23)
(0.64594931 -0.0030823765 7.6359985e-23)
(0.65384878 -0.0031329295 -1.9476256e-22)
(0.67011462 -0.0026130918 -3.8014708e-23)
(0.067615007 -0.024029247 9.4528577e-21)
(0.073590025 -0.02674916 3.2951137e-21)
(0.082265904 -0.028805688 -1.2162252e-20)
(0.091948265 -0.029968632 -1.2258017e-21)
(0.10198371 -0.030767999 1.4970642e-20)
(0.11254689 -0.031331034 -1.488717e-20)
(0.12367658 -0.03163622 -2.9842379e-20)
(0.13529749 -0.031713162 1.449358e-20)
(0.1473577 -0.031607799 1.8182038e-20)
(0.15982425 -0.031350225 -1.1598563e-20)
(0.1726615 -0.030961995 1.019059e-21)
(0.18583181 -0.030462935 8.6860303e-21)
(0.19929892 -0.029870739 -1.5253611e-20)
(0.21302775 -0.029200432 2.9095653e-21)
(0.22698372 -0.028464959 7.5194774e-21)
(0.24113281 -0.027675709 3.1568304e-23)
(0.25544168 -0.026842768 2.6554528e-22)
(0.26987772 -0.025975112 -7.4151353e-21)
(0.28440912 -0.025080786 3.861742e-21)
(0.29900494 -0.024167046 8.4749679e-21)
(0.31363524 -0.023240466 -3.8352057e-21)
(0.32827119 -0.022307013 -2.2130489e-21)
(0.34288517 -0.021372101 1.0124402e-21)
(0.35745085 -0.020440639 -1.7155539e-21)
(0.37194334 -0.019517054 1.3532345e-21)
(0.38633926 -0.018605314 7.184645e-22)
(0.4006168 -0.017708951 1.526893e-21)
(0.41475579 -0.016831069 -1.9527204e-21)
(0.42873774 -0.015974364 2.2236409e-21)
(0.44254588 -0.015141139 5.5190222e-22)
(0.45616517 -0.014333323 4.0326998e-22)
(0.46958226 -0.01355249 3.2134954e-22)
(0.48278554 -0.012799884 8.7330406e-22)
(0.49576505 -0.012076445 -1.3709475e-21)
(0.5085125 -0.011382832 3.7068479e-22)
(0.5210212 -0.010719461 1.0944378e-22)
(0.53328605 -0.01008653 -4.5183185e-23)
(0.54530353 -0.0094840565 8.6720754e-23)
(0.55707159 -0.0089119193 -3.7188881e-22)
(0.56859005 -0.0083698789 1.8296473e-22)
(0.57985953 -0.0078577167 -3.4990126e-23)
(0.59088518 -0.0073750147 3.9014359e-22)
(0.60166592 -0.0069222028 -1.8549733e-22)
(0.61222867 -0.0064976926 4.7333211e-23)
(0.62252829 -0.0061078753 4.36229e-23)
(0.63274858 -0.00573706 -7.3634338e-23)
(0.6424303 -0.0054452003 -1.2091643e-22)
(0.65301772 -0.0050713511 3.8832725e-22)
(0.66056881 -0.0051552036 1.7279337e-22)
(0.67621636 -0.0043080998 -8.3051798e-22)
(0.15021578 -0.031460574 1.5010205e-21)
(0.15354743 -0.035257552 -1.1566632e-20)
(0.16061681 -0.038011089 6.644205e-21)
(0.16880653 -0.039479277 -1.3324779e-20)
(0.17698293 -0.040520878 -1.9758368e-21)
(0.1855242 -0.041302479 9.1599784e-21)
(0.194585 -0.041757445 -9.7662681e-21)
(0.20408779 -0.041913927 1.5662679e-21)
(0.21398862 -0.041833557 1.2903844e-20)
(0.224277 -0.04155457 3.4032226e-21)
(0.23493363 -0.041102288 -6.2097184e-21)
(0.24593139 -0.040500701 -2.8638322e-21)
(0.25724286 -0.039772008 -5.8409103e-21)
(0.26884049 -0.038935323 -6.4553507e-21)
(0.28069571 -0.038007251 3.2356803e-21)
(0.29277922 -0.037002586 8.4618246e-22)
(0.30506145 -0.035934616 1.367976e-21)
(0.31751282 -0.034815321 -3.3850574e-21)
(0.33010392 -0.033655556 -4.2429314e-21)
(0.34280574 -0.032465211 2.3616763e-21)
(0.35558983 -0.03125332 3.2251795e-21)
(0.36842856 -0.030028148 -1.5636546e-21)
(0.3812952 -0.028797243 1.5867485e-21)
(0.39416412 -0.027567483 -3.912556e-22)
(0.4070109 -0.026345105 -3.9197218e-21)
(0.41981244 -0.025135725 -3.0333189e-21)
(0.43254706 -0.023944361 -1.9027847e-22)
(0.44519457 -0.022775447 4.2857957e-22)
(0.45773632 -0.021632852 -2.2106396e-21)
(0.47015523 -0.020519904 -8.550218e-22)
(0.48243582 -0.019439409 2.2837948e-22)
(0.49456423 -0.018393682 -1.2499268e-21)
(0.50652818 -0.017384579 6.2497568e-24)
(0.51831698 -0.016413528 -4.242413e-22)
(0.52992147 -0.015481574 -4.7194833e-22)
(0.54133406 -0.014589411 -5.2002146e-22)
(0.55254864 -0.013737437 -8.414318e-22)
(0.56356064 -0.01292579 -5.4489321e-23)
(0.57436689 -0.012154419 -3.9162588e-24)
(0.58496604 -0.0114231 -5.1980159e-22)
(0.59535754 -0.010731638 -9.1598437e-23)
(0.60554523 -0.010079557 -3.3246801e-22)
(0.61552695 -0.0094675495 -4.3772749e-22)
(0.62532771 -0.008893518 3.7853401e-22)
(0.6349029 -0.0083663505 1.4825772e-23)
(0.64442865 -0.0078645967 1.8245777e-22)
(0.65346321 -0.007470447 -1.3256554e-22)
(0.66338769 -0.0069641381 -2.6706543e-22)
(0.67044083 -0.0070804886 -4.4605122e-23)
(0.68520161 -0.0059342007 4.6236915e-22)
(0.25468634 -0.036552946 -2.0900371e-20)
(0.25447092 -0.04139371 4.7586064e-20)
(0.25907409 -0.044745871 1.0348118e-20)
(0.26508493 -0.046442268 -1.5765362e-20)
(0.27071018 -0.047714551 -2.0228087e-21)
(0.27652086 -0.048748023 2.6232247e-21)
(0.28283646 -0.049413977 -1.660835e-21)
(0.28957793 -0.049728369 -4.6861568e-21)
(0.29669767 -0.049761711 -4.0159301e-21)
(0.30420664 -0.049557343 -1.2207681e-20)
(0.31210342 -0.049141988 1.7897838e-20)
(0.3203707 -0.048541113 6.5220282e-21)
(0.32898841 -0.047779286 -1.6780589e-20)
(0.33793553 -0.04687835 1.0317588e-20)
(0.34718868 -0.045857641 8.3849968e-21)
(0.35672245 -0.044734663 -8.7921113e-22)
(0.36651026 -0.043525427 -3.1222159e-21)
(0.37652483 -0.042244618 -3.8197793e-21)
(0.38673848 -0.04090574 -1.3892798e-21)
(0.3971235 -0.039521243 -1.2304401e-21)
(0.40765244 -0.038102623 -3.0258078e-21)
(0.4182983 -0.036660482 0)
(0.42903481 -0.035204579 -1.345216e-21)
(0.43983659 -0.033743859 3.9309905e-21)
(0.45067929 -0.032286478 5.4053508e-21)
(0.46153975 -0.030839818 -9.4113186e-22)
(0.47239606 -0.029410507 -2.9275275e-21)
(0.48322771 -0.028004431 3.0259423e-21)
(0.49401556 -0.026626757 2.5444671e-22)
(0.50474198 -0.02528196 3.4353639e-21)
(0.51539079 -0.023973843 -5.3460418e-22)
(0.52594735 -0.022705584 1.7174047e-21)
(0.53639848 -0.021479764 -7.9968782e-22)
(0.54673251 -0.02029842 2.9097656e-22)
(0.55693924 -0.019163087 -4.3407957e-22)
(0.56700992 -0.018074856 5.6234772e-22)
(0.57693725 -0.017034427 4.571435e-22)
(0.58671539 -0.016042169 3.8259863e-22)
(0.59633985 -0.015098199 -9.5947844e-22)
(0.60580792 -0.014202414 6.8365011e-22)
(0.61511765 -0.013354734 -3.6963028e-22)
(0.62427138 -0.012554721 -1.1035455e-21)
(0.63326571 -0.011803408 1.4081521e-21)
(0.64212338 -0.011098299 -6.20191e-23)
(0.65080054 -0.010450706 -1.5821407e-22)
(0.65946378 -0.0098339199 -7.8279113e-24)
(0.66769359 -0.0093506531 -1.2630839e-22)
(0.6767913 -0.0087277148 -4.6606644e-22)
(0.68322421 -0.0088753471 8.7877173e-22)
(0.69687348 -0.0074668266 -4.432469e-23)
(0.37635215 -0.038368399 -1.749515e-20)
(0.37171066 -0.044270474 1.2832072e-20)
(0.37286784 -0.048161872 2.9754793e-21)
(0.37591145 -0.050099123 -7.6353946e-21)
(0.37830631 -0.051670256 1.2056017e-20)
(0.38072403 -0.05304267 7.791435e-21)
(0.38367717 -0.054030349 -1.2647719e-20)
(0.3871018 -0.054633425 -6.0679959e-21)
(0.39093052 -0.054918338 1.2697382e-20)
(0.39518379 -0.05492748 -1.530505e-20)
(0.39987568 -0.054687873 -1.406324e-20)
(0.40499658 -0.054225022 1.4129717e-20)
(0.41053022 -0.05356404 6.819411e-21)
(0.41645887 -0.052728341 -4.2038271e-21)
(0.42276193 -0.05173942 -1.8545403e-21)
(0.42941592 -0.050617165 -4.0581602e-21)
(0.43639548 -0.049380128 5.3047511e-21)
(0.44367408 -0.048045666 3.6682259e-21)
(0.45122449 -0.046629999 -3.240837e-21)
(0.45901916 -0.045148278 3.1379642e-21)
(0.46703059 -0.043614634 2.7667119e-21)
(0.47523158 -0.042042215 -3.2111489e-21)
(0.48359552 -0.040443205 3.7056802e-22)
(0.49209657 -0.038828835 -3.2571843e-21)
(0.50070984 -0.037209399 7.2455817e-21)
(0.50941153 -0.035594257 6.1081734e-21)
(0.51817905 -0.03399185 8.0977112e-22)
(0.52699108 -0.032409712 -1.7683569e-21)
(0.53582765 -0.030854494 3.702318e-21)
(0.54467018 -0.029331992 7.1887851e-21)
(0.55350152 -0.027847177 2.3049944e-21)
(0.56230595 -0.026404245 3.3166357e-21)
(0.57106918 -0.025006658 1.9957042e-21)
(0.57977835 -0.023657201 7.4562534e-22)
(0.58842203 -0.022358043 -2.6375195e-22)
(0.59699017 -0.021110799 2.7205168e-21)
(0.60547413 -0.019916601 6.1997256e-22)
(0.61386667 -0.018776169 2.9490238e-22)
(0.62216191 -0.017689907 5.6237015e-23)
(0.63035565 -0.016657941 9.8981139e-22)
(0.63844449 -0.015680417 4.7024403e-23)
(0.64642919 -0.014757035 4.4256648e-22)
(0.65430504 -0.013889249 -1.2624065e-22)
(0.6620923 -0.013074294 -2.7742938e-22)
(0.66974825 -0.0123258 -1.5223537e-22)
(0.67742842 -0.011612394 -4.222426e-22)
(0.68473951 -0.011055239 1.6149935e-22)
(0.69288958 -0.010334157 -1.2729459e-22)
(0.69861348 -0.010511494 -5.0122504e-22)
(0.71097965 -0.008884091 2.4592027e-22)
(0.5092753 -0.035974549 3.6471403e-21)
(0.49953142 -0.042960944 -1.8958333e-20)
(0.49627663 -0.047383755 -2.3083929e-21)
(0.49555703 -0.049737073 5.4869636e-21)
(0.49417069 -0.051818351 3.052825e-21)
(0.49269694 -0.05370573 -4.987284e-23)
(0.49181355 -0.055187982 6.1897024e-21)
(0.49151583 -0.056265745 7.6251302e-21)
(0.49171305 -0.056990891 9.8580678e-21)
(0.49241217 -0.057395945 -1.1250085e-20)
(0.49363256 -0.057506684 -2.1579518e-20)
(0.49536937 -0.057348812 -3.9353792e-21)
(0.49760636 -0.056947538 1.5938221e-20)
(0.50032479 -0.056327428 1.2809022e-20)
(0.50350352 -0.055512164 -5.906705e-21)
(0.50711848 -0.054524289 1.3816831e-21)
(0.51114346 -0.053385239 -3.6601286e-21)
(0.51555093 -0.052115406 2.2444388e-21)
(0.52031259 -0.050734127 -2.9123166e-22)
(0.52539977 -0.049259658 -1.8654265e-21)
(0.53078382 -0.047709167 7.8266859e-21)
(0.53643636 -0.046098732 -2.9310682e-22)
(0.54232958 -0.044443326 4.1820127e-22)
(0.54843644 -0.042756817 -6.5645205e-22)
(0.55473083 -0.041051955 -4.3029984e-21)
(0.56118773 -0.039340379 4.2085802e-21)
(0.56778329 -0.03763262 1.9031361e-21)
(0.57449494 -0.035938119 -3.3082526e-21)