/*--------------------------------*- C++ -*----------------------------------*\
  =========                 |
  \\      /  F ield         | OpenFOAM: The Open Source CFD Toolbox
   \\    /   O peration     | Website:  https://openfoam.org
    \\  /    A nd           | Version:  6
     \\/     M anipulation  |
\*---------------------------------------------------------------------------*/
FoamFile
{
    version     2.0;
    format      ascii;
    class       volSymmTensorField;
    location    "159";
    object      UPrime2Mean;
}
// * * * * * * * * * * * * * * * * * * * * * * * * * * * * * * * * * * * * * //

dimensions      [0 2 -2 0 0 0 0];

internalField   nonuniform List<symmTensor> 
9200
(
(0.00012450507 -9.6645711e-05 4.526755e-22 7.7566452e-05 -2.4213955e-22 7.3144956e-39)
(0.00076684686 -0.00061410603 1.1572475e-21 0.00049366854 -8.636281e-22 7.9563249e-39)
(0.0015485518 -0.0012017516 1.4330192e-22 0.00093798298 -1.0820975e-22 4.3626693e-39)
(0.0024383417 -0.0017678646 -1.7408253e-21 0.0012960056 1.2244768e-21 8.695378e-39)
(0.0033132937 -0.0022697913 8.0892011e-23 0.0015816316 -6.7710871e-23 1.2751831e-39)
(0.0041124986 -0.0026850125 7.3046059e-22 0.0017946644 -4.8547588e-22 1.9967943e-40)
(0.0047941018 -0.0030057697 -1.5707226e-22 0.0019426127 1.0895873e-22 5.7781583e-40)
(0.0053246381 -0.003232788 1.4280084e-22 0.0020379791 -9.6326922e-23 3.8917479e-40)
(0.0056812659 -0.0033708746 7.0889253e-22 0.0020927598 -4.3076835e-22 1.1100954e-39)
(0.0058525704 -0.003426965 5.5049595e-23 0.0021171446 -3.3658601e-23 3.1641502e-42)
(0.0058385689 -0.0034092079 -7.6278637e-22 0.0021195366 4.6988024e-22 5.9555457e-40)
(0.0056505182 -0.0033263951 6.3816419e-22 0.0021066567 -4.0807422e-22 8.1208748e-41)
(0.0053100442 -0.0031876002 -1.1371831e-21 0.0020837023 7.6899212e-22 1.2743906e-39)
(0.0048473358 -0.0030019586 -5.7662601e-22 0.0020545641 3.9780187e-22 8.114064e-41)
(0.0042984689 -0.0027785255 1.496082e-22 0.0020220626 -1.1134056e-22 1.0380496e-41)
(0.0037021048 -0.0025261505 -5.6333156e-22 0.0019881755 4.4269826e-22 1.0870524e-40)
(0.0030958387 -0.0022533641 4.945855e-22 0.0019543536 -4.2154879e-22 1.3193775e-40)
(0.0025125999 -0.0019684063 3.6712175e-22 0.0019225405 -3.2777429e-22 5.4067441e-40)
(0.0019800166 -0.0016788591 -1.2905823e-23 0.0018953224 2.7534358e-23 9.978277e-41)
(0.0015281762 -0.0013901451 -7.3489134e-24 0.0018540848 2.4513347e-23 1.2368265e-40)
(0.0001642444 -0.00010979161 4.7364405e-23 7.5373332e-05 -1.8207784e-23 1.2856971e-40)
(0.00097762048 -0.00067786047 1.2259578e-21 0.00047145384 -7.9750723e-22 8.4880288e-39)
(0.0019410241 -0.0013068232 -3.9938119e-22 0.00088476619 2.6774955e-22 4.6112062e-39)
(0.0029716358 -0.0018872357 -3.1235834e-21 0.0012118198 1.9534552e-21 2.0119099e-38)
(0.0039271248 -0.0023795458 -1.0708793e-22 0.0014672181 6.813779e-23 2.5387154e-40)
(0.004737241 -0.0027640706 2.4134846e-21 0.0016533131 -1.4256085e-21 6.655645e-39)
(0.0053591327 -0.0030377508 -9.9065856e-22 0.0017798146 5.7977978e-22 2.2713822e-40)
(0.00576593 -0.00320663 -2.993902e-22 0.0018602483 1.73758e-22 8.178858e-41)
(0.0059473283 -0.0032804844 1.1369821e-21 0.0019069188 -6.6453527e-22 6.2401725e-40)
(0.0059090081 -0.0032705685 -1.3790896e-21 0.0019298514 8.2010678e-22 7.1569758e-40)
(0.0056711169 -0.0031885858 -9.7888484e-22 0.0019368864 5.972598e-22 8.8554869e-40)
(0.0052660776 -0.0030460963 2.1151761e-21 0.0019338502 -1.3439234e-21 4.5026574e-39)
(0.0047353771 -0.0028542175 9.8593484e-22 0.0019247781 -6.6756913e-22 3.1387431e-40)
(0.0041254236 -0.002623524 -1.5544743e-21 0.0019121769 1.1253161e-21 1.5539188e-39)
(0.0034829508 -0.0023640406 2.7910837e-22 0.0018972799 -2.1815789e-22 1.2975994e-40)
(0.002850606 -0.0020852541 -6.208683e-22 0.0018802707 5.4459264e-22 3.4468767e-40)
(0.0022632851 -0.001796109 -2.5735661e-22 0.001860532 2.6632309e-22 1.0874229e-40)
(0.0017456188 -0.0015048298 7.8782613e-22 0.0018369705 -8.8928635e-22 1.7570515e-39)
(0.0013121575 -0.0012180271 3.7371165e-22 0.0018063146 -5.0387791e-22 3.327729e-40)
(0.00097237505 -0.00094229916 -1.5988962e-22 0.0017517779 2.0068141e-22 2.5263083e-39)
(0.00020909675 -0.00011910953 -3.9647638e-22 6.9375922e-05 1.688422e-22 3.3080171e-39)
(0.001202223 -0.00071481777 -6.6021248e-22 0.00042613166 3.6677757e-22 3.4487342e-39)
(0.002343919 -0.0013570686 -7.5392998e-22 0.00079017988 4.3916248e-22 8.6204061e-39)
(0.0034929769 -0.0019258042 2.5007352e-23 0.0010740121 -1.3756986e-23 9.3501976e-43)
(0.0044909896 -0.0023867914 3.4521696e-23 0.0012924644 -1.6045077e-23 6.1931093e-39)
(0.0052637174 -0.0027253703 8.465446e-22 0.0014503167 -4.5197936e-22 1.7315954e-39)
(0.0057749432 -0.0029443683 8.0132584e-23 0.001558614 -4.0290033e-23 7.169546e-40)
(0.0060130862 -0.0030552994 -1.4330511e-21 0.0016307254 7.7196428e-22 4.5437305e-40)
(0.0059888143 -0.0030723368 1.6971817e-21 0.0016780775 -9.3785338e-22 8.5966946e-40)
(0.0057317894 -0.0030099697 5.589993e-22 0.0017094179 -3.2441766e-22 9.4816575e-40)
(0.0052863477 -0.0028820738 -1.5380085e-21 0.0017310251 9.3326128e-22 1.9551622e-39)
(0.0047063274 -0.0027015402 -4.8226591e-22 0.0017469818 3.1396477e-22 6.3982144e-40)
(0.0040491578 -0.0024802681 1.7595996e-22 0.0017594932 -1.2272461e-22 1.7347619e-39)
(0.003369845 -0.0022293412 4.1767388e-22 0.00176924 -3.2582689e-22 2.4869868e-40)
(0.0027157322 -0.001959222 -1.4589909e-22 0.0017757315 1.2744428e-22 1.9069808e-40)
(0.0021228098 -0.0016798486 3.4044894e-22 0.0017776555 -3.4337482e-22 1.5007866e-40)
(0.0016140087 -0.0014005918 -2.3501578e-22 0.0017732176 2.7929672e-22 5.7377092e-41)
(0.0011994666 -0.0011300098 -4.7684512e-22 0.0017603489 6.6839474e-22 1.4089897e-39)
(0.00087861107 -0.00087525087 -1.4660733e-23 0.0017363583 1.5771834e-23 1.2725901e-39)
(0.00064419792 -0.00064290423 1.6519575e-22 0.001695607 -3.6370551e-22 1.4366132e-40)
(0.00025754873 -0.00012322277 -3.1487054e-22 6.0111775e-05 1.1606018e-22 1.6430462e-39)
(0.0014290792 -0.00071878789 4.800023e-22 0.00036240696 -2.3554782e-22 3.0581902e-40)
(0.0027329082 -0.0013438336 4.261792e-22 0.00066480891 -2.1031026e-22 3.5474972e-40)
(0.0039667433 -0.0018763833 9.3102854e-22 0.00089880253 -4.4477336e-22 3.8281097e-39)
(0.0049620587 -0.0022893757 8.1757408e-22 0.0010787439 -3.888889e-22 1.7026815e-39)
(0.0056487697 -0.0025746003 -1.4339632e-21 0.0012111055 6.8322427e-22 1.2984834e-39)
(0.006006809 -0.0027407004 -8.0171452e-22 0.0013069682 3.891316e-22 3.6946379e-40)
(0.0060489136 -0.0028034065 0 0.0013781946 0 0)
(0.0058136234 -0.0027794292 8.751617e-22 0.0014341488 -4.777588e-22 4.7702901e-39)
(0.0053579707 -0.0026844366 -3.7945819e-22 0.0014813151 2.2524899e-22 1.8072024e-39)
(0.0047494629 -0.0025325733 -2.2253029e-21 0.0015236329 1.3369783e-21 1.5869485e-39)
(0.0040578756 -0.0023365779 -2.8546469e-22 0.0015628732 1.8108374e-22 3.2276781e-40)
(0.0033475904 -0.0021081783 1.0940891e-21 0.0015990603 -8.2262457e-22 2.168072e-39)
(0.0026715086 -0.00185848 6.3010479e-23 0.0016309343 -4.1224562e-23 8.9917855e-40)
(0.0020673814 -0.0015981429 -1.6886804e-23 0.001656432 1.674406e-23 6.2864183e-43)
(0.0015568699 -0.0013372748 1.8130493e-22 0.0016731762 -2.1277976e-22 1.1064631e-40)
(0.0011470609 -0.0010850891 1.5185693e-24 0.0016789032 3.6215433e-24 1.3017863e-40)
(0.00083368628 -0.00084945036 -3.2105838e-22 0.0016716636 5.5026481e-22 3.355555e-40)
(0.00060494949 -0.00063640505 -1.7780444e-22 0.0016505962 3.8192204e-22 2.3421177e-40)
(0.00044549991 -0.00045029684 8.8369483e-23 0.0016182197 -2.7901184e-22 1.4803553e-39)
(0.00030737932 -0.0001209595 2.3775795e-22 4.845184e-05 -7.5749142e-23 6.4639166e-40)
(0.0016438551 -0.00068578619 9.9022449e-22 0.00028679522 -3.9497802e-22 5.823836e-39)
(0.003080575 -0.0012635521 7.7660249e-22 0.00052182989 -3.2032697e-22 3.6782603e-40)
(0.0043566334 -0.0017395888 8.6573319e-22 0.00070479996 -3.5408438e-22 2.0482087e-39)
(0.0053020851 -0.0020950428 -1.3306588e-21 0.0008487285 5.5086284e-22 3.2267479e-39)
(0.0058611847 -0.0023281802 4.9995318e-23 0.00096062329 -1.6138778e-23 3.0708637e-40)
(0.0060397538 -0.0024517167 7.5964258e-23 0.0010501924 -3.321657e-23 2.5775695e-42)
(0.0058819475 -0.0024829031 1.0804767e-21 0.0011266179 -5.0555118e-22 1.1522325e-39)
(0.0054571507 -0.0024381747 1.4575554e-22 0.0011963219 -7.2486778e-23 1.0359491e-41)
(0.0048478532 -0.0023319796 -3.9092762e-22 0.0012628992 2.2326379e-22 6.2387416e-40)
(0.0041381893 -0.0021770616 1.2696801e-21 0.0013275396 -7.9503753e-22 4.3472963e-39)
(0.0034040851 -0.0019851336 -9.2548508e-22 0.0013894921 6.1527204e-22 3.7145906e-40)
(0.0027060735 -0.0017674938 -1.7398262e-21 0.0014466015 1.3739654e-21 2.643025e-39)
(0.0020855754 -0.0015352825 -5.7487965e-23 0.0014959065 5.3588637e-23 5.6017737e-42)
(0.001564737 -0.0012992826 6.1728911e-22 0.0015342576 -7.0190394e-22 2.1529296e-39)
(0.0011491483 -0.0010693771 0 0.0015589022 0 0)
(0.0008322899 -0.00085388152 7.8033545e-23 0.0015679036 -1.1404835e-22 5.6038637e-41)
(0.00060044487 -0.00065901666 -3.8366535e-23 0.0015602186 8.6740474e-23 8.3469504e-41)
(0.00043685174 -0.00048869596 -3.9528164e-23 0.0015367599 8.8029714e-23 2.1855947e-41)
(0.00032473933 -0.00034449679 1.7997007e-23 0.0015041298 -8.15579e-23 1.5021181e-40)
(0.0003558855 -0.00011162313 5.1986289e-22 3.5610406e-05 -1.3392311e-22 2.6139919e-39)
(0.0018314386 -0.00061531395 5.0956454e-23 0.00020729075 -1.6733578e-23 4.833386e-42)
(0.0033608046 -0.0011195624 -1.4605331e-22 0.00037606921 4.9386238e-23 2.1393777e-41)
(0.0046322528 -0.0015254027 1.4868461e-22 0.00051146995 -4.8067923e-23 4.2311332e-40)
(0.0054852307 -0.0018218816 -9.1531842e-22 0.00062436268 3.2192477e-22 7.9325592e-40)
(0.0058889245 -0.0020119192 -4.3946465e-22 0.00072106809 1.6063485e-22 7.1506498e-41)
(0.0058827302 -0.0021089242 3.0955472e-22 0.00080883466 -9.5314113e-23 2.2616801e-39)
(0.005545153 -0.0021280316 -1.1601965e-23 0.00089350724 1.3061134e-23 1.7695502e-40)
(0.0049740147 -0.0020824384 -7.3840089e-22 0.00097820821 3.6988346e-22 1.8698217e-39)
(0.0042700757 -0.0019834966 1.2794605e-21 0.0010634678 -6.7084724e-22 5.4509082e-40)
(0.0035238706 -0.0018417723 -3.3167248e-23 0.0011476917 4.8932129e-23 9.7196791e-40)
(0.0028067506 -0.0016679622 -1.0113494e-21 0.0012277309 7.4445321e-22 2.6734852e-39)
(0.0021667397 -0.0014732419 0 0.0012995766 0 0)
(0.0016289702 -0.0012689397 2.441577e-22 0.001359123 -2.8286659e-22 1.436959e-39)
(0.0011995549 -0.0010657265 1.196194e-23 0.0014028873 -2.6589499e-23 7.8711356e-41)
(0.00087124407 -0.00087267611 -2.9558059e-22 0.0014285726 4.7579891e-22 1.6676682e-39)
(0.00062926661 -0.00069652979 -6.6984758e-23 0.0014353214 1.2268286e-22 3.4641804e-41)
(0.0004562051 -0.00054139872 -2.0168743e-23 0.0014235445 5.7100039e-23 5.6036793e-41)
(0.00033519944 -0.00040900643 -2.6582401e-23 0.0013957426 7.6994333e-23 2.1694e-41)
(0.00025154739 -0.00029896686 4.7451477e-23 0.001359862 -1.8836842e-22 2.0773577e-40)
(0.00040018615 -9.5167601e-05 2.0055266e-22 2.3024307e-05 -3.8590835e-23 4.139777e-40)
(0.0019778937 -0.00051078511 -1.4374357e-21 0.00013236455 3.6177509e-22 9.0017946e-39)
(0.0035523442 -0.00092200271 -1.2837397e-22 0.00024198955 3.6352691e-23 8.4052465e-40)
(0.0047734128 -0.0012518427 -3.8433431e-22 0.0003364249 1.1319484e-22 4.2276982e-39)
(0.0055015682 -0.0014952531 -2.8542804e-22 0.0004238892 7.9566197e-23 5.8325881e-41)
(0.0057397763 -0.0016561674 -1.616781e-21 0.0005091961 5.0362279e-22 7.7046242e-40)
(0.0055645239 -0.0017443033 -7.9185533e-22 0.00059675845 2.8072316e-22 6.2334711e-40)
(0.0050862187 -0.0017690639 1.5294618e-21 0.00068913043 -5.8037041e-22 4.9856291e-40)
(0.0044236288 -0.0017382412 2.6140459e-22 0.00078631223 -1.3592626e-22 6.4048179e-40)
(0.0036853079 -0.0016593662 -3.356824e-22 0.00088596591 1.5348327e-22 2.1877717e-40)
(0.002957501 -0.0015410937 1.5739892e-22 0.00098395707 -5.8040536e-23 8.221518e-40)
(0.0022987392 -0.0013937122 -2.9528852e-23 0.0010751157 4.0173012e-23 2.083911e-40)
(0.0017404176 -0.0012286658 0 0.0011541562 0 0)
(0.0012916401 -0.0010573863 1.6579838e-22 0.0012165847 -1.7453555e-22 4.9912959e-41)
(0.00094610648 -0.00088995579 -3.5176701e-22 0.0012593987 4.6614272e-22 6.8365142e-40)
(0.00068900136 -0.00073407982 -1.1411582e-22 0.0012814476 1.7732165e-22 5.8693511e-41)
(0.00050253847 -0.00059462518 1.9645665e-22 0.0012833626 -4.0090415e-22 8.1774068e-40)
(0.00036963629 -0.00047375934 -4.390981e-23 0.0012670792 5.8720129e-23 1.7627688e-40)
(0.0002757344 -0.00037163082 -2.7864732e-24 0.0012362111 -5.2115805e-24 1.9782437e-41)
(0.0002091728 -0.00028694866 4.4755247e-23 0.0011983284 -1.351705e-22 1.7434461e-41)
(0.00043754583 -7.2254553e-05 1.4600257e-22 1.2159969e-05 -1.9161441e-23 2.5923033e-40)
(0.002072238 -0.00037922854 -1.331071e-21 6.9771577e-05 2.3993307e-22 4.1278355e-39)
(0.0036414101 -0.00068645706 -1.0401629e-21 0.0001316796 2.0647279e-22 4.9408123e-39)
(0.0047723509 -0.0009421857 1.4822136e-21 0.00019312332 -3.1032645e-22 1.209238e-39)
(0.0053572818 -0.0011435693 1.1169699e-21 0.00025982662 -2.5214254e-22 2.5059035e-40)
(0.0054379441 -0.0012907294 -8.161504e-22 0.00033509449 1.8079761e-22 2.6224923e-39)
(0.0051260702 -0.0013853858 2.6653589e-22 0.0004210094 -1.0201078e-22 1.1108971e-39)
(0.0045564885 -0.001428631 1.5575432e-21 0.00051750882 -5.5529832e-22 1.2428436e-39)
(0.0038582608 -0.0014220896 6.8213566e-22 0.00062200056 -2.6963136e-22 1.5619477e-40)
(0.0031369218 -0.0013699568 -6.6943059e-22 0.00072966948 3.4393486e-22 4.0533255e-40)
(0.0024662236 -0.0012798935 -9.0688002e-22 0.00083424227 5.4375156e-22 4.8223013e-40)
(0.0018879421 -0.0011624396 -2.4690482e-23 0.00092907331 1.7960454e-23 5.0254877e-43)
(0.0014172919 -0.0010293967 2.6011791e-22 0.0010083097 -2.2913863e-22 7.8084388e-41)
(0.0010509896 -0.00089192277 -8.7467587e-24 0.0010678281 3.0077236e-23 1.2009362e-40)
(0.00077535694 -0.00075901972 -9.1491117e-24 0.0011057244 4.8847091e-23 3.2503205e-40)
(0.00057279021 -0.0006367813 6.3345795e-24 0.0011223011 -6.3691143e-23 5.8715149e-40)
(0.00042599057 -0.00052839982 9.0659027e-23 0.001119609 -1.8253353e-22 1.7162795e-40)
(0.00032015076 -0.0004347194 -5.0797554e-23 0.0011007234 1.5342818e-22 4.4833915e-40)
(0.00024361824 -0.00035514414 -1.3095445e-22 0.0010697058 3.7112153e-22 8.6744788e-40)
(0.00018755456 -0.00028828224 4.3993255e-23 0.0010328004 -1.0834451e-22 1.9235839e-41)
(0.00046582133 -4.4200647e-05 -3.785964e-22 4.304906e-06 3.1545168e-23 7.7434337e-40)
(0.0021079559 -0.00023040076 -2.9433145e-22 2.5486231e-05 3.1624995e-23 8.3464356e-40)
(0.0036230925 -0.00043181555 2.2805192e-21 5.3347095e-05 -2.8969742e-22 1.0207144e-38)
(0.0046341273 -0.00062163763 1.6937796e-21 8.9518018e-05 -2.4549421e-22 1.112981e-39)
(0.0050728405 -0.00079429245 7.5686806e-22 0.00013831649 -1.1890469e-22 5.4706431e-40)
(0.0050193103 -0.00094119085 1.5265017e-22 0.00020252661 -3.1297769e-23 5.2431432e-42)
(0.0046133858 -0.0010529311 -1.4299009e-21 0.00028313492 3.1772381e-22 2.2860079e-39)
(0.0040034922 -0.0011213682 0 0.00037846568 0 0)
(0.0033178501 -0.0011426081 -8.7321185e-22 0.0004839554 3.7928704e-22 1.893721e-39)
(0.0026504702 -0.001118754 -1.4968757e-22 0.00059274342 9.913422e-23 4.2949888e-40)
(0.0020584533 -0.0010574593 4.2676944e-22 0.00069689787 -2.4822894e-22 1.0372093e-40)
(0.0015670946 -0.00096983485 4.5424708e-23 0.00078892483 -5.8990149e-23 2.3634116e-40)
(0.0011788703 -0.00086778312 -2.0260785e-22 0.00086309318 1.9988707e-22 2.7456726e-40)
(0.00088286738 -0.00076173879 -1.5202995e-22 0.00091620749 2.014904e-22 5.8783844e-40)
(0.00066246786 -0.00065937524 9.8589886e-23 0.00094770932 -1.0028186e-22 7.203603e-41)
(0.00050045467 -0.00056532751 1.3619386e-22 0.00095922249 -1.7622208e-22 6.6080179e-41)
(0.00038171748 -0.00048163548 -1.2087293e-22 0.00095377558 2.0164405e-22 6.1174814e-41)
(0.00029423607 -0.00040853097 -1.6106338e-22 0.0009349783 3.5139282e-22 7.2516226e-40)
(0.00022903998 -0.00034532944 1.2815813e-23 0.00090672174 -2.577774e-24 8.5509617e-41)
(0.00017956124 -0.00029092568 2.1610144e-23 0.00087355999 -7.4611469e-23 1.0077632e-40)
(0.00048338813 -1.2766367e-05 -2.4991873e-22 3.8696675e-07 6.371117e-24 3.7886876e-40)
(0.0020830383 -7.555699e-05 1.0653602e-21 2.994477e-06 -3.8218436e-23 2.1004005e-39)
(0.0035012203 -0.0001780571 1.6288815e-21 1.058932e-05 -1.0040672e-22 1.5242869e-38)
(0.0043754075 -0.00031454224 -1.9022482e-21 2.7845506e-05 1.6469349e-22 4.1942441e-39)
(0.0046793549 -0.00047128737 6.8559594e-22 5.9753845e-05 -7.5582427e-23 1.0515687e-40)
(0.004525306 -0.0006272559 2.794145e-22 0.00011034699 1.9045803e-24 3.8760428e-39)
(0.0040704304 -0.00076072506 7.3817387e-23 0.00018105465 -1.5042059e-23 1.3851003e-42)
(0.0034651637 -0.00085512578 -1.0486557e-21 0.0002695592 2.4306254e-22 1.3042019e-39)
(0.002827757 -0.00090270075 -2.3777298e-23 0.00036985306 8.2684657e-24 2.0734616e-43)
(0.0022359329 -0.00090489212 3.8998503e-22 0.00047345731 -2.0446522e-22 4.9752119e-40)
(0.0017299114 -0.00086999324 3.0431524e-23 0.0005713265 -3.1582141e-23 7.1271174e-41)
(0.0013215659 -0.00080958878 -1.408827e-22 0.00065575046 3.7482725e-23 9.2203265e-40)
(0.0010051007 -0.00073525647 -3.1183157e-22 0.00072164967 2.551825e-22 1.017394e-40)
(0.000766183 -0.00065639919 -1.5156747e-24 0.00076699251 2.4640993e-23 1.2011482e-40)
(0.00058826664 -0.00057940865 1.050689e-22 0.00079242766 -1.3922674e-22 1.1695583e-40)
(0.00045613486 -0.00050784816 6.976457e-23 0.00080045532 -1.1202197e-22 1.1356526e-40)
(0.00035736598 -0.00044315831 1.5562797e-23 0.00079449242 -5.3153225e-23 1.843144e-40)
(0.00028255901 -0.00038548155 -1.1189145e-22 0.00077811026 1.5794076e-22 1.4733989e-40)
(0.00022495653 -0.00033437829 -2.3560919e-23 0.00075461637 -1.5455569e-23 6.3229876e-40)
(0.00017971375 -0.00028908111 6.0374416e-23 0.00072691268 -1.9180835e-22 1.042478e-39)
(3.2411968e-06 -4.0473549e-07 3.239947e-23 4.9454139e-07 -6.4848256e-24 3.7026836e-40)
(1.5279859e-05 -6.3956244e-06 -4.6227207e-23 3.2853531e-06 1.2808989e-23 3.5647694e-40)
(3.4225936e-05 -1.4780872e-05 1.0268642e-22 6.5490416e-06 -3.8463304e-23 2.0472734e-39)
(0.00010972739 -3.1188627e-05 2.8659226e-22 9.390094e-06 -6.1104935e-23 6.8854203e-39)
(0.00024078384 -5.1440448e-05 -2.0470925e-22 1.1940578e-05 3.4853688e-23 1.7905819e-39)
(0.00043026793 -7.4097949e-05 2.57998e-22 1.4202184e-05 -3.5001677e-23 1.9785065e-39)
(0.00068431795 -9.8381034e-05 -3.541201e-22 1.6178039e-05 4.4927398e-23 2.1727053e-39)
(0.0010045227 -0.00012351097 -3.6520591e-22 1.7909608e-05 3.8149458e-23 2.2974661e-39)
(0.0013893021 -0.00014885585 4.592422e-22 1.9441611e-05 -4.757693e-23 2.4286676e-39)
(0.0018360256 -0.0001739497 -3.5635776e-22 2.0809018e-05 3.4777869e-23 1.2369231e-39)
(0.0023414187 -0.00019844169 -1.7847735e-23 2.2038474e-05 2.9737765e-25 1.4387952e-41)
(0.0029016161 -0.00022206018 1.0246211e-22 2.3150438e-05 -1.0901776e-23 4.5471126e-41)
(0.0035123418 -0.00024459139 -1.767308e-23 2.4160626e-05 8.4764471e-25 7.2214194e-42)
(0.0041690782 -0.00026586619 5.5663666e-22 2.5081681e-05 -4.9887097e-23 2.1658365e-39)
(0.0048671671 -0.00028575595 7.7391311e-25 2.5925246e-05 1.0554027e-24 4.6808527e-42)
(0.0056019127 -0.00030418025 -8.1691711e-22 2.6704077e-05 7.6452531e-23 4.4537103e-39)
(0.0063687184 -0.00032111372 1.5121661e-22 2.7431787e-05 -1.593325e-23 9.3987877e-41)
(0.0071631083 -0.00033655552 3.6657582e-22 2.8118527e-05 -3.6402402e-23 1.1325444e-39)
(0.0079806299 -0.00035057467 -5.9380757e-22 2.8774353e-05 6.3284722e-23 3.209864e-39)
(0.0088162525 -0.00036365056 -3.2741713e-22 2.9394639e-05 3.7307358e-23 1.2052309e-39)
(3.6710059e-06 -1.6936236e-06 1.0668881e-23 4.352277e-06 -3.9403301e-24 3.6626653e-41)
(1.9479193e-05 -2.1915466e-05 -2.9274561e-22 2.8950903e-05 2.2072388e-22 1.192161e-38)
(4.3712138e-05 -4.9754762e-05 5.809901e-23 5.7691843e-05 -4.8057431e-23 1.0760009e-39)
(0.00012908714 -0.0001009574 3.0824734e-22 8.2721237e-05 -1.8927555e-22 5.75417e-39)
(0.00027155937 -0.00016324022 4.2821466e-22 0.00010514318 -2.0569164e-22 6.5068961e-39)
(0.00047306194 -0.00023237565 5.176982e-23 0.00012494187 -2.0746392e-23 6.1123833e-41)
(0.00073898369 -0.00030603439 -1.376162e-21 0.00014215017 4.7632754e-22 3.2543473e-38)
(0.001070017 -0.00038191452 -4.8441662e-23 0.0001571361 2.0052267e-23 9.3853086e-42)
(0.0014637789 -0.00045816131 7.7802234e-22 0.00017029289 -2.3651396e-22 5.5529255e-39)
(0.0019169067 -0.00053340729 -1.8773362e-22 0.0001819286 5.1740921e-23 3.0878393e-40)
(0.0024254035 -0.00060662013 -7.1228313e-22 0.00019227798 1.9482058e-22 3.4248419e-39)
(0.0029846763 -0.00067699763 1.4982467e-22 0.00020152014 -3.8226145e-23 1.5594613e-40)
(0.0035897099 -0.00074390473 6.3227808e-22 0.00020979061 -1.4103118e-22 3.6741957e-39)
(0.0042352185 -0.00080683318 2.6113629e-22 0.00021719559 -6.4831447e-23 4.1953553e-40)
(0.004915722 -0.00086538659 5.219284e-22 0.00022382973 -1.3891504e-22 1.2129391e-39)
(0.0056256473 -0.00091930094 -4.1225401e-22 0.00022979401 1.0375032e-22 1.0264131e-39)
(0.006359582 -0.00096847212 -3.936773e-22 0.00023519774 9.8142474e-23 1.1227694e-39)
(0.0071121821 -0.0010128596 3.9712396e-22 0.00024012905 -1.129452e-22 6.4849423e-40)
(0.0078766348 -0.0010526507 3.6189051e-22 0.00024468769 -1.0052951e-22 1.1346119e-39)
(0.0086448352 -0.0010896644 1.3968107e-22 0.00024886976 -3.7327453e-23 4.8213016e-40)
(4.7189617e-06 -4.3366845e-06 8.2091156e-24 1.1608855e-05 -4.1039547e-24 1.9279297e-41)
(2.9443114e-05 -4.5289458e-05 2.2232455e-22 7.7281521e-05 -2.3797145e-22 5.0807391e-39)
(6.5790348e-05 -0.00010006402 -4.8645747e-23 0.00015387397 6.2687009e-23 2.6606784e-40)
(0.00017181607 -0.00019159242 -3.3483249e-22 0.00022053641 2.8187721e-22 6.2995955e-39)
(0.00033787045 -0.00030015833 1.2319115e-22 0.00028004314 -1.0341124e-22 1.7830275e-40)
(0.00056399628 -0.00041893096 1.6304757e-22 0.00033222581 -1.3250748e-22 9.3558678e-41)
(0.00085407541 -0.00054406469 -2.0328919e-22 0.00037716457 1.077029e-22 5.6120345e-40)
(0.0012071083 -0.00067183625 -5.3074296e-22 0.00041584012 3.0948063e-22 1.1202337e-39)
(0.0016191812 -0.00079927166 2.322796e-22 0.00044929816 -1.1278835e-22 3.1337279e-40)
(0.0020855159 -0.00092417087 4.9318811e-22 0.00047836417 -2.0480922e-22 1.7800268e-39)
(0.0026007208 -0.0010448599 1.3686863e-22 0.00050367071 -9.4936186e-23 6.6765969e-41)
(0.0031588038 -0.0011600245 6.0255134e-22 0.00052569877 -1.9969659e-22 3.3035423e-39)
(0.0037533298 -0.0012686081 5.1033374e-23 0.00054480655 -1.8883593e-23 1.3694208e-41)
(0.0043775458 -0.0013697424 -8.9345566e-22 0.00056126415 3.0120744e-22 5.3108712e-39)
(0.0050244216 -0.0014627197 6.5424176e-23 0.00057530075 -4.3319825e-23 2.9444527e-41)
(0.0056867541 -0.001547028 -4.1698858e-22 0.00058715455 1.1572731e-22 2.0697547e-39)
(0.0063576504 -0.0016224143 -5.8665294e-22 0.00059708474 2.3240538e-22 8.4983419e-40)
(0.0070302854 -0.0016887302 9.5129879e-22 0.00060534802 -3.7094032e-22 2.8214288e-39)
(0.0076939307 -0.0017462307 5.0143786e-22 0.00061236363 -2.0789425e-22 5.7381759e-40)
(0.0083358698 -0.0017987845 1.0015663e-22 0.00061840115 -4.5718959e-23 1.2304983e-41)
(6.9519841e-06 -8.9705923e-06 -1.2291643e-23 2.1379304e-05 1.5479723e-23 2.8233996e-41)
(4.8265218e-05 -8.0411565e-05 -5.1502946e-22 0.0001425662 6.5136401e-22 1.685776e-38)
(0.00010675508 -0.00017332045 -3.7439193e-23 0.00028359668 4.8112224e-23 2.3040774e-40)
(0.0002469016 -0.00031321931 8.6270467e-23 0.00040613114 -9.5503577e-23 1.4684426e-40)
(0.00045125638 -0.00047398212 -1.3948995e-23 0.00051496234 3.6135067e-24 3.7936735e-41)
(0.00071706833 -0.00064633275 4.3935858e-22 0.00060948069 -3.2196317e-22 2.768396e-39)
(0.0010459047 -0.00082490716 4.8564755e-22 0.00068978691 -3.170046e-22 2.5148588e-39)
(0.0014342643 -0.0010047003 -1.471674e-22 0.00075769009 7.1072735e-23 3.963622e-40)
(0.0018759508 -0.0011817598 -5.3922567e-22 0.00081513027 2.8136082e-22 2.5198468e-39)
(0.0023640485 -0.0013531413 -1.0861341e-21 0.00086366153 5.8523802e-22 5.341691e-39)
(0.002891061 -0.0015165765 -2.3902393e-23 0.00090449182 -1.272598e-23 1.2201162e-40)
(0.0034489069 -0.0016702597 1.3806539e-21 0.00093854733 -6.4238554e-22 8.7300686e-39)
(0.0040290505 -0.001812707 -5.5939431e-22 0.00096651608 2.1293893e-22 2.5815163e-39)
(0.0046226307 -0.0019426724 -3.6095402e-22 0.00098891116 1.5791295e-22 5.0925113e-40)
(0.005220476 -0.0020591014 -4.3266251e-23 0.0010061486 4.8848038e-23 1.0998722e-40)
(0.0058132295 -0.0021611739 8.5319821e-22 0.0010186342 -3.7404117e-22 2.0883773e-39)
(0.00639211 -0.00224843 -4.8265176e-22 0.0010267976 2.4221009e-22 1.3966283e-40)
(0.0069486886 -0.0023206432 -1.1060446e-21 0.0010311789 4.6619573e-22 4.4965312e-39)
(0.0074679123 -0.0023781791 7.4080393e-22 0.0010330754 -3.2320204e-22 2.2608598e-39)
(0.0079321206 -0.0024272895 6.3889244e-22 0.0010339833 -2.5669856e-22 2.1033881e-39)
(1.1118204e-05 -1.59776e-05 5.5177577e-23 3.259164e-05 -5.3625957e-23 3.6306857e-40)
(8.0069664e-05 -0.00012955413 1.7898519e-23 0.00021757988 -4.6390772e-24 1.6394454e-40)
(0.00017491717 -0.00027389607 -7.0938623e-22 0.00043205245 1.0158714e-21 1.3827126e-38)
(0.00036593056 -0.00047137115 -4.0748432e-22 0.00061776763 4.3282017e-22 4.2777854e-39)
(0.00062596379 -0.00069054201 2.7204583e-22 0.00078154605 -2.1658601e-22 2.5858142e-39)
(0.00094847388 -0.00091969377 3.3791005e-22 0.00092199156 -2.7224343e-22 1.2178567e-39)
(0.0013317303 -0.0011518858 -4.3971866e-22 0.0010392103 2.8701573e-22 2.8500654e-39)
(0.0017688041 -0.0013809966 -6.7040329e-22 0.0011360074 3.8438366e-22 6.2542109e-39)
(0.0022503548 -0.0016022775 9.9138662e-22 0.0012154159 -5.9172828e-22 6.4162809e-39)
(0.0027665063 -0.0018121754 2.8445752e-22 0.0012799173 -1.148234e-22 1.4939038e-39)
(0.0033068738 -0.0020079296 -8.9357224e-22 0.0013314887 5.9174013e-22 4.9367452e-40)
(0.0038605703 -0.0021873292 3.9207082e-22 0.001371682 -1.7787324e-22 1.1500909e-39)
(0.0044163789 -0.0023485557 0 0.0014016816 0 0)
(0.004962898 -0.0024900771 3.8136128e-22 0.0014223828 -1.8575715e-22 4.4998711e-40)
(0.0054885991 -0.0026105922 -2.8595287e-22 0.0014344974 1.3586856e-22 2.4028918e-40)
(0.0059820223 -0.0027090737 -4.3773776e-22 0.0014386686 2.1873629e-22 2.9163565e-40)
(0.0064329028 -0.0027849606 1.6116868e-22 0.0014355051 -1.3258577e-22 4.1055209e-40)
(0.0068322121 -0.0028381712 -1.3112734e-22 0.0014258488 7.8744344e-23 1.4816244e-41)
(0.0071619823 -0.0028695082 6.2758831e-22 0.0014125343 -2.7188738e-22 2.4352684e-39)
(0.0073995442 -0.0028873447 -5.1015376e-22 0.0014001921 2.5069001e-22 1.4164566e-40)
(1.8083205e-05 -2.5477418e-05 5.2926907e-23 4.4181567e-05 -4.4500181e-23 2.9150855e-40)
(0.00012950787 -0.00019313223 2.5489329e-22 0.00029472772 -3.3943963e-22 1.0878966e-39)
(0.00027944092 -0.00040224203 -3.4207107e-22 0.00058339069 4.5397904e-22 2.5951678e-39)
(0.00054107973 -0.0006657904 -5.6115598e-22 0.00083193373 6.3156771e-22 2.1719568e-39)
(0.000875797 -0.00094802736 -1.6423361e-22 0.0010489934 2.4170587e-22 1.7148408e-39)
(0.0012719747 -0.0012346487 -5.0708773e-22 0.0012321729 4.4558301e-22 1.0673328e-39)
(0.0017233322 -0.0015170744 -2.3631796e-22 0.001381688 1.4545085e-22 1.23395e-39)
(0.0022184421 -0.0017882976 4.0904535e-22 0.0015015116 -2.4589822e-22 2.276008e-39)
(0.0027438708 -0.0020430518 9.7711561e-22 0.0015959613 -5.8207489e-22 7.7922753e-39)
(0.0032859312 -0.0022774419 3.0065622e-22 0.0016686667 -1.8505147e-22 3.2672848e-40)
(0.0038307015 -0.0024884963 -2.8560811e-22 0.0017226063 1.5153698e-22 5.1839344e-40)
(0.0043640758 -0.0026738965 -5.3645649e-23 0.0017601927 -1.166843e-23 4.5158689e-40)
(0.0048720452 -0.002831813 -1.3580013e-21 0.0017833362 7.432134e-22 4.2972419e-39)
(0.0053409749 -0.0029607976 -4.2132731e-22 0.0017935323 2.2037913e-22 4.4450229e-40)
(0.0057577976 -0.003059723 7.0472188e-22 0.0017919792 -4.0817824e-22 2.1047064e-40)
(0.0061103339 -0.0031278032 -7.0213093e-22 0.0017796936 3.7993648e-22 4.392489e-40)
(0.0063887593 -0.0031647861 -2.4752698e-22 0.0017574764 1.2195685e-22 1.4058727e-40)
(0.0065862052 -0.0031711548 5.5420359e-22 0.001726275 -2.3357626e-22 2.1862115e-39)
(0.0066857924 -0.0031487207 8.3869244e-22 0.0016906388 -4.2006358e-22 1.6567914e-39)
(0.0066607017 -0.0031072576 1.0224621e-22 0.0016606603 -4.784495e-23 3.2269848e-41)
(2.8766555e-05 -3.7335658e-05 -1.4928454e-22 5.5180941e-05 1.2121606e-22 1.7247996e-39)
(0.00020120248 -0.00026966298 -1.6537857e-22 0.0003668133 1.6778176e-22 1.3747655e-39)
(0.00042895412 -0.00055463341 4.1723211e-22 0.00072251103 -5.2751843e-22 6.2841868e-40)
(0.00078279086 -0.00088990715 6.3694455e-22 0.0010262136 -6.598986e-22 2.8825225e-39)
(0.0012107565 -0.0012362936 8.3215302e-24 0.0012880769 -7.4937235e-24 5.7237571e-43)
(0.0016944939 -0.0015767234 -1.7289395e-21 0.0015047855 1.4266999e-21 1.6836109e-38)
(0.002221699 -0.0019010451 -6.7621135e-22 0.001676972 5.7909132e-22 2.4006941e-40)
(0.002775355 -0.0022017622 5.262727e-22 0.001810012 -3.5492147e-22 1.8476591e-39)
(0.0033371698 -0.0024735856 6.0291692e-22 0.0019097161 -4.0491563e-22 1.1297939e-39)
(0.0038892124 -0.0027128076 -5.9115448e-22 0.0019810876 3.2904111e-22 3.1019246e-39)
(0.0044139631 -0.002916806 -1.7345211e-21 0.0020283469 1.0948488e-21 4.5186209e-39)
(0.0048945593 -0.0030837653 1.1402652e-21 0.0020550074 -6.9114834e-22 1.8575799e-39)
(0.0053152821 -0.0032125113 6.7871755e-22 0.0020639414 -3.5392482e-22 2.2265696e-39)
(0.0056620567 -0.0033024069 -9.4002288e-22 0.0020574705 5.1883836e-22 1.8368058e-39)
(0.0059228555 -0.0033532824 4.1270087e-22 0.002037478 -2.3838708e-22 1.2304412e-40)
(0.0060881348 -0.0033654035 6.8470067e-22 0.0020054972 -3.5278535e-22 1.3681751e-39)
(0.0061524088 -0.0033395468 2.6062598e-22 0.001962532 -1.4707595e-22 4.6534048e-41)
(0.0061153905 -0.0032772673 -4.4630696e-22 0.0019092529 2.7628278e-22 5.8793821e-41)
(0.0059674406 -0.0031817843 -1.032013e-22 0.0018511934 3.3349738e-23 3.3897119e-40)
(0.0056809116 -0.0030630527 5.8498688e-22 0.0018053477 -3.3856745e-22 1.372726e-40)
(4.4071905e-05 -5.1167783e-05 -4.4514025e-24 6.4731402e-05 -4.68419e-24 3.2101116e-41)
(0.00029913592 -0.00035581826 -6.0091748e-22 0.00042745514 6.3577792e-22 4.5177363e-39)
(0.00063004505 -0.00072331702 -4.7961886e-22 0.00083629085 5.146872e-22 6.8355757e-39)
(0.0010973744 -0.0011311359 8.9989399e-22 0.0011814722 -8.6262529e-22 3.995282e-39)