/*--------------------------------*- C++ -*----------------------------------*\
  =========                 |
  \\      /  F ield         | OpenFOAM: The Open Source CFD Toolbox
   \\    /   O peration     | Website:  https://openfoam.org
    \\  /    A nd           | Version:  6
     \\/     M anipulation  |
\*---------------------------------------------------------------------------*/
FoamFile
{
    version     2.0;
    format      ascii;
    class       surfaceScalarField;
    location    "140";
    object      phi;
}
// * * * * * * * * * * * * * * * * * * * * * * * * * * * * * * * * * * * * * //

dimensions      [0 3 -1 0 0 0 0];

internalField   nonuniform List<scalar> 
18180
(
0.00031873088
-0.00016316335
-0.00015556753
0.0013092175
-0.0013669294
0.00037644285
0.0030329023
-0.0033336474
0.0016099625
0.0055498001
-0.0059760041
0.0034591063
0.0089182391
-0.0092391455
0.0058707065
0.013192874
-0.013079619
0.0088049848
0.018422026
-0.017459958
0.012230806
0.024644716
-0.022345947
0.016123258
0.031887511
-0.027703497
0.020460701
0.040161454
-0.033496022
0.025222079
0.049459374
-0.039682691
0.03038477
0.059753964
-0.046217498
0.035922909
0.070997008
-0.053049176
0.041806131
0.083120246
-0.060121948
0.04799871
0.096038449
-0.067377236
0.054459033
0.10965526
-0.07475643
0.061139619
0.12387121
-0.082204552
0.067988602
0.13859895
-0.089674563
0.074946826
0.15383704
-0.097149332
0.081911236
-0.10462649
0.088679422
0.16978411
0.00039749891
-0.00056066226
0.001609602
-0.0025790325
0.0036893343
-0.0054133798
0.0066874726
-0.0089741424
0.010650698
-0.01320237
0.015617935
-0.018046857
0.021616348
-0.023458371
0.028657372
-0.029386972
0.036733088
-0.035779212
0.045813317
-0.042576251
0.05584389
-0.049713264
0.066746433
-0.057120042
0.078419915
-0.064722658
0.090744052
-0.072446084
0.10358435
-0.080217536
0.11679821
-0.087970283
0.13024107
-0.095647419
0.14377326
-0.10320675
0.15725884
-0.11063491
-0.11786239
0.17049474
0.00048062547
-0.0010412877
0.0019187062
-0.0040171132
0.0043524964
-0.00784717
0.0078165943
-0.01243824
0.012337712
-0.017723489
0.017929275
-0.023638419
0.024586339
-0.030115435
0.032281324
-0.037081957
0.040960979
-0.044458867
0.050545084
-0.052160356
0.060927253
-0.060095433
0.071978009
-0.068170798
0.083550014
-0.076294663
0.095485035
-0.084381104
0.10762191
-0.092354413
0.11980447
-0.10015284
0.1318882
-0.10773115
0.14374366
-0.11506221
0.15524885
-0.1221401
-0.12891474
0.1663012
0.00056617191
-0.0016074596
0.0022279509
-0.0056788922
0.0050006298
-0.010619849
0.0088940428
-0.016331653
0.013905307
-0.022734752
0.020011949
-0.029745062
0.027166576
-0.037270062
0.035293526
-0.045208907
0.044287986
-0.053453328
0.054017924
-0.061890294
0.06432888
-0.07040639
0.0750513
-0.078893218
0.086009696
-0.087253059
0.097032665
-0.095404073
0.10796262
-0.10328437
0.11866409
-0.11085432
0.12902976
-0.11809681
0.13898305
-0.12501549
0.14847495
-0.13163201
-0.13794561
0.15750582
0.00065088862
-0.0022583483
0.0025243505
-0.0075523541
0.0056036536
-0.013699152
0.0098644975
-0.020592497
0.01526466
-0.028134915
0.021736476
-0.036216878
0.029182565
-0.044716151
0.037474994
-0.053501336
0.046458117
-0.06243645
0.055954962
-0.071387139
0.065776562
-0.080227989
0.075733141
-0.088849797
0.085645838
-0.097165756
0.095357502
-0.10511574
0.1047413
-0.11266816
0.11370625
-0.11981927
0.12219939
-0.12658996
0.13020455
-0.13302066
0.13773795
-0.1391654
-0.14506794
0.14486028
0.00073063829
-0.0029889866
0.0027920953
-0.0096138111
0.0061265933
-0.01703365
0.010666744
-0.025132648
0.016322696
-0.033790867
0.022975304
-0.042869487
0.030474504
-0.05221535
0.038642484
-0.061669317
0.047281281
-0.071075247
0.056183829
-0.080289687
0.065146978
-0.089191138
0.073984682
-0.0976875
0.08253955
-0.10572062
0.090691346
-0.11326753
0.098361473
-0.12033829
0.10551329
-0.12697109
0.11214875
-0.13322541
0.11830232
-0.13917423
0.1240335
-0.14489659
-0.15046363
0.12942919
0.00080073366
-0.0037897202
0.0030139249
-0.011827002
0.0065329125
-0.020552638
0.011240081
-0.029839816
0.016992739
-0.039543524
0.023618598
-0.049495346
0.030918277
-0.05951503
0.038673386
-0.069424426
0.046658842
-0.079060703
0.054657462
-0.088288307
0.062474514
-0.09700819
0.069949995
-0.10516298
0.076966982
-0.11273761
0.083455094
-0.11975564
0.089389076
-0.12627227
0.094783249
-0.13236526
0.099683207
-0.13812537
0.10415637
-0.14364739
0.10828294
-0.14902316
-0.15433386
0.11215317
0.0008560611
-0.0046457813
0.0031720689
-0.01414301
0.0067872424
-0.024167811
0.011529828
-0.034582402
0.017203469
-0.045217165
0.023586591
-0.055878468
0.030439923
-0.066368361
0.037519376
-0.076503879
0.044591843
-0.086133169
0.051451038
-0.095147503
0.057930652
-0.1034878
0.063912777
-0.11114511
0.069330621
-0.11815546
0.074165644
-0.12459067
0.078440177
-0.1305468
0.082207229
-0.13613232
0.085539364
-0.14145751
0.088518393
-0.14662642
0.09122716
-0.15173193
-0.15685232
0.093745615
0.00089026458
-0.0055360459
0.0032482907
-0.016501036
0.0068576365
-0.027777157
0.011492486
-0.039217252
0.016906837
-0.050631517
0.022838927
-0.061810557
0.029023702
-0.072553136
0.035209279
-0.082689456
0.041173948
-0.092097839
0.046740402
-0.10071396
0.051784644
-0.10853205
0.056238374
-0.11559884
0.060085081
-0.12200216
0.063351163
-0.12785675
0.066094103
-0.13328974
0.068389917
-0.13842813
0.070321758
-0.14338935
0.071971044
-0.1482757
0.073411706
-0.15317259
-0.15814794
0.074707332
0.00089982019
-0.0064358661
0.0032333868
-0.018834603
0.0067291758
-0.031272946
0.011111193
-0.043599269
0.016092505
-0.055612828
0.021384643
-0.067102695
0.026713901
-0.077882394
0.031839125
-0.08781468
0.036567082
-0.096825796
0.040762252
-0.10490913
0.044349434
-0.11211923
0.047309287
-0.11855869
0.04966832
-0.1243612
0.051485703
-0.12967413
0.052839389
-0.13464343
0.053813659
-0.1394024
0.054489525
-0.14406521
0.054938609
-0.14872479
0.055220313
-0.1534543
0.055380723
-0.15830835
-0.00020237925
0.00020237921
4.4631027e-11
-0.00067774957
0.00047537029
5.4383022e-11
-0.0013424316
0.00066468205
6.2888415e-11
-0.0021323031
0.00078987143
6.8239606e-11
-0.0029957852
0.00086348205
6.4963592e-11
-0.0038907553
0.00089497013
5.6967754e-11
-0.0047823134
0.00089155803
4.5672315e-11
-0.0056409126
0.00085859914
3.5714759e-11
-0.0064408888
0.00079997624
2.6098612e-11
-0.0071593101
0.00071842123
1.9488143e-11
-0.0077750577
0.00061574759
1.4030486e-11
-0.0082680912
0.00049303353
1.0778572e-11
-0.0086188688
0.00035077757
8.336085e-12
-0.0088079137
0.00018904489
6.9762267e-12
-0.0088155591
7.6454243e-06
6.0876848e-12
-0.0086219721
-0.00019358705
5.6252265e-12
-0.0082074171
-0.00041455504
5.571292e-12
-0.0075518508
-0.00065556628
5.8377159e-12
-0.0066345166
-0.00091733424
6.6054042e-12
-0.0011862553
-0.0054482613
8.1234227e-12
-0.00018797536
0.00039035457
-0.00062500979
0.00091240475
-0.0012287584
0.0012684307
-0.0019352023
0.0014963153
-0.0026921495
0.0016204293
-0.0034562965
0.0016591171
-0.0041910812
0.0016263427
-0.0048648736
0.0015323916
-0.0054495385
0.0013846411
-0.0059192997
0.0011881825
-0.0062498253
0.00094627319
-0.0064174853
0.00066069348
-0.0063987469
0.00033203922
-0.0061696958
-4.0006211e-05
-0.0057057107
-0.00045633972
-0.0049813831
-0.00091791462
-0.0039707335
-0.0014252046
-0.002647132
-0.0019791679
-0.00098314802
-0.0025813182
-0.0032018397
0.0010324364
-0.00015892852
0.00054928308
-0.00051889343
0.0012723697
-0.0010007735
0.0017503109
-0.0015412644
0.0020368062
-0.0020873558
0.0021665209
-0.0025937415
0.0021655028
-0.0030208739
0.0020534751
-0.0033332973
0.0018448151
-0.0034983024
0.0015496462
-0.0034848497
0.0011747298
-0.0032626862
0.00072410969
-0.0028016252
0.00019963244
-0.0020709126
-0.00039867334
-0.0010387133
-0.0010722055
0.00032831839
-0.0018233715
0.0020653154
-0.0026549117
0.0042091575
-0.0035690466
0.0067981648
-0.0045681752
0.0098720297
-0.0056551831
-0.0067798431
0.013450033
-0.00011756731
0.00066685037
-0.00036699944
0.0015218018
-0.00067351487
0.0020568263
-0.00097482667
0.002338118
-0.001216854
0.0024085482
-0.0013515919
0.0023002408
-0.001335454
0.0020373372
-0.0011278173
0.0016371784
-0.00068982643
0.0011116553
1.655927e-05
0.00046834414
0.0010293494
-0.00028868047
0.0023871697
-0.0011581879
0.0041298072
-0.0021413108
0.0062986916
-0.0032410899
0.0089374016
-0.0044620815
0.012092222
-0.0058097316
0.015812516
-0.0072893411
0.020150429
-0.0089060882
0.025160672
-0.010665426
-0.012492786
0.030873615
-6.6907655e-05
0.00073375801
-0.00017916619
0.0016340603
-0.00026653248
0.0021441926
-0.00026768811
0.0023392737
-0.00012718753
0.0022680476
0.00020617868
0.0019668746
0.00078071244
0.0014628034
0.0016429775
0.00077491333
0.0028387694
-8.4136563e-05
0.0044139008
-0.0011067873
0.0064147656
-0.0022895453
0.0088887549
-0.0036321773
0.011884583
-0.0051371387
0.015452616
-0.0068091228
0.019645247
-0.0086547125
0.024517515
-0.010682
0.030127986
-0.012899812
0.036539257
-0.015317359
0.043818726
-0.017944895
-0.020682783
0.052008723
-9.9843003e-06
0.0007437423
3.4536532e-05
0.0015895395
0.00019989416
0.001978835
0.00054677369
0.0019923941
0.0011322609
0.0016825604
0.0020110029
0.0010881325
0.0032361724
0.00023763397
0.0048603502
-0.00084926453
0.0069361835
-0.0021599698
0.0095167595
-0.0036873632
0.012655814
-0.0054286
0.016407837
-0.0073842001
0.020827997
-0.0095572989
0.025971983
-0.011953108
0.031895902
-0.014578632
0.038656584
-0.017442682
0.046312761
-0.020555989
0.054927132
-0.02393173
0.064570194
-0.027587956
-0.031405921
0.075293331
5.0751943e-05
0.00069299035
0.00026566045
0.001374631
0.00070826081
0.0015362346
0.0014390425
0.0012616124
0.0025168406
0.00060476237
0.0039995974
-0.0003946243
0.0059449593
-0.0017077279
0.0084106652
-0.0033149704
0.011454677
-0.0052039819
0.01513515
-0.0073678357
0.019510161
-0.0098036109
0.024637184
-0.012511224
0.030572357
-0.015492471
0.037369577
-0.018750328
0.045079571
-0.022288627
0.053749353
-0.026112464
0.063423031
-0.030229667
0.074145205
-0.034653904
0.085969908
-0.039412659
-0.044388907
0.098952894
0.00011379721
0.00057919313
0.00050850714
0.00097992104
0.001245991
0.00079875072
0.0023867937
0.00012080976
0.0039912671
-0.00099971107
0.0061199155
-0.0025232727
0.0088333761
-0.0044211884
0.012192242
-0.0066738366
0.016256659
-0.0092683984
0.021085576
-0.012196753
0.026735711
-0.015453747
0.033260226
-0.019035738
0.04070713
-0.022939376
0.049117486
-0.027160684
0.058523501
-0.031694641
0.068946909
-0.036535872
0.080398788
-0.041681546
0.092882677
-0.047137794
0.10640608
-0.052936059
-0.058996137
0.12101331
0.00017849697
0.00040069616
0.00076003456
0.00039838344
0.0018053497
-0.00024656441
0.0033747334
-0.001448574
0.0055290273
-0.003154005
0.0083293668
-0.0053236122
0.011836557
-0.0079283784
0.016110149
-0.010947429
0.02120716
-0.01436541
0.027180453
-0.018170045
0.034076803
-0.022350097
0.041934703
-0.026893638
0.05078193
-0.031786603
0.06063291
-0.037011663
0.071485864
-0.042547596
0.083319805
-0.048369813
0.096092326
-0.054454067
0.10974094
-0.060786407
0.12419656
-0.067391679
-0.074275125
0.13947555
0.00024512863
0.0010199549
0.002383353
0.0043938853
0.0071105868
0.010591959
0.014894387
0.020070216
0.026165508
0.033217541
0.041252215
0.050281486
0.060301014
0.071288061
0.083199498
0.095969304
0.10950384
0.12366426
0.13818381
0.15258811
-0.0035076062
-0.0019406551
1.5396e-11
-0.0012857874
-0.0022218189
2.1266021e-11
0.0011948604
-0.0024806477
2.6802832e-11
0.0038774376
-0.0026825772
3.1742598e-11
0.0067351406
-0.0028577031
3.6496763e-11
0.0097506638
-0.0030155232
3.9222264e-11
0.012905073
-0.0031544089
4.3096657e-11
0.016180345
-0.0032752721
4.5690031e-11
0.019560779
-0.0033804339
4.6678404e-11
0.023032156
-0.0034713771
4.5014125e-11
0.02658119
-0.003549034
3.9773973e-11
0.030195456
-0.0036142662
3.0054206e-11
0.033863311
-0.0036678554
1.4975746e-11
0.03757376
-0.0037104485
-6.1515415e-12
0.04131635
-0.0037425904
-3.3954017e-11
0.045081111
-0.0037647606
-6.8603997e-11
0.048858501
-0.0037773903
-1.1004552e-10
0.052639378
-0.0037808763
-1.5743181e-10
0.056414973
-0.0037755951
-2.0944193e-10
0.060176888
-0.0037619146
-2.6363802e-10
0.063917091
-0.0037402027
-3.1693432e-10
0.067627925
-0.0037108337
-3.6490973e-10
0.071302117
-0.0036741921
-4.0252652e-10
0.074932793
-0.003630675
-4.2345947e-10
0.078513485
-0.0035806919
-4.2127932e-10
0.082038149
-0.0035246638
-3.8887219e-10
0.085501171
-0.0034630209
-3.2033374e-10
0.08889737
-0.0033961997
-2.1045862e-10
0.09222201
-0.0033246397
-5.7602339e-11
0.095470789
-0.003248779
1.3704969e-10
0.098639841
-0.0031690521
3.656355e-10
0.10172573
-0.0030858852
6.1544824e-10
0.10472542
-0.0029996943
8.6440789e-10
0.1076363
-0.002910883
1.0856919e-09
0.11045614
-0.002819841
1.2432427e-09
0.11318308
-0.0027269443
1.3017582e-09
0.11581564
-0.0026325557
1.2224464e-09
0.11835266
-0.0025370279
9.8088002e-10
0.12079337
-0.0024407104
5.6121543e-10
0.12313733
-0.0023439504
-1.8353959e-11
0.12538446
-0.0022471346
-7.1628305e-10
0.12753508
-0.0021506151
-1.4465306e-09
0.12959016
-0.0020550832
-2.0930873e-09
0.13155069
-0.0019605284
-2.5120007e-09
0.13342077
-0.0018700757
-2.5641846e-09
0.13519892
-0.0017781424
-2.1522145e-09
0.13690961
-0.0017106894
-1.2283384e-09
0.13850869
-0.001599086
5.5808129e-11
0.14019708
-0.0016883923
1.6716851e-09
-0.0013328746
2.8276567e-09
0.0028530797
-0.0037612984
0.0049502578
-0.004318997
0.0072931523
-0.0048235422
0.0098193209
-0.0052087459
0.012507703
-0.0055460848
0.015345972
-0.0058537928
0.018317389
-0.0061258255
0.021405546
-0.0063634293
0.024596425
-0.006571313
0.027877264
-0.0067522157
0.03123593
-0.0069077003
0.034660943
-0.0070392793
0.038141446
-0.0071483586
0.041667094
-0.0072360956
0.045227967
-0.0073034637
0.048814533
-0.0073513269
0.052417614
-0.0073804709
0.056028364
-0.0073916266
0.059638265
-0.0073854957
0.063239122
-0.0073627726
0.066823078
-0.0073241586
0.070382619
-0.0072703739
0.07391059
-0.0072021636
0.077400216
-0.0071203006
0.08084511
-0.0070255862
0.084239292
-0.006918846
0.087577197
-0.0068009259
0.090853683
-0.0066726854
0.094064034
-0.0065349908
0.097203963
-0.0063887076
0.1002696
-0.0062346936
0.10325751
-0.006073792
0.10616464
-0.0059068258
0.10898835
-0.0057345945
0.11172638
-0.0055578701
0.11437684
-0.0053773983
0.11693818
-0.0051939
0.11940923
-0.005008076
0.12178914
-0.004820622
0.12407742
-0.0046322289
0.12627395
-0.0044436691
0.12837898
-0.0042556451
0.13039344
-0.0040695368
0.13231824
-0.0038853267
0.13415739
-0.0037092328
0.13590944
-0.0035301887
0.13759839
-0.0033996391
0.13918113
-0.0031818306
0.14085338
-0.0033606384
-0.0026632914
0.015021399
-0.0053326645
0.016852532
-0.0061501296
0.018906105
-0.006877115
0.021112189
-0.0074148305
0.023459152
-0.007893047
0.025943339
-0.00833798
0.028552133
-0.0087346196
0.031272054
-0.0090833503
0.034092001
-0.0093912606
0.037001746
-0.00966196
0.039991166
-0.0098971209
0.043050403
-0.010098516
0.046169931
-0.010267887
0.049340495
-0.01040666
0.052553066
-0.010516035
0.055798834
-0.010597094
0.059069207
-0.010650844
0.062355825
-0.010678244
0.065650565
-0.010680236
0.068945562
-0.01065777
0.072233229
-0.010611826
0.075506279
-0.010543424
0.078757747
-0.010453632
0.081981013
-0.010343567
0.08516982
-0.010214393
0.088318289
-0.010067316
0.091420938
-0.0099035744
0.094472685
-0.0097244322
0.097468856
-0.0095311624
0.10040519
-0.0093250414
0.10327783
-0.0091073335
0.10608332
-0.0088792841
0.10881861
-0.0086421103
0.11148101
-0.0083969942
0.11406822
-0.0081450801
0.11657829
-0.0078874735
0.11900964
-0.0076252451
0.121361
-0.0073594372
0.12363146
-0.0070910865
0.12582046
-0.0068212241
0.12792779
-0.006551005
0.12995363
-0.0062814814
0.13189881
-0.0060147155
0.13376418
-0.0057506988
0.13555361
-0.0054986585
0.13726571
-0.0052422904
0.13892353
-0.0050574649
0.14048631
-0.0047446038
0.14213912
-0.0050134511
-0.0040019467
0.032056937
-0.0065159865
0.033472167
-0.0075653598
0.035077706
-0.0084826545
0.036800579
-0.0091377028
0.03864147
-0.009733938
0.040606677
-0.010303187
0.042689029
-0.010816971
0.044879002
-0.011273324
0.047169022
-0.01168128
0.049551859
-0.012044797
0.052019806
-0.012365068
0.054564908
-0.012643618
0.057179154
-0.012882132
0.059854501
-0.013082007
0.062582887
-0.013244421
0.065356269
-0.013370476
0.068166666
-0.013461241
0.071006199
-0.013517778
0.073867138
-0.013541174
0.076741931
-0.013532562
0.079623244
-0.013493139
0.082504
-0.01342418
0.085377404
-0.013327036
0.088236974
-0.013203137
0.091076566
-0.013053985
0.093890395
-0.012881144
0.096673046
-0.012686226
0.099419491
-0.012470877
0.10212509
-0.012236765
0.10478561
-0.011985557
0.10739719
-0.011718912
0.10995637
-0.011438464
0.11246007
-0.011145809
0.11490557
-0.010842503
0.11729055
-0.010530051
0.11961298
-0.01020991
0.12187123
-0.0098834916
0.12406397
-0.0095521754
0.12619021
-0.0092173331
0.12824932
-0.0088803344
0.13024103
-0.0085427137
0.13216543
-0.0082058744
0.13402326
-0.007872552
0.13581533
-0.0075427717
0.13754532
-0.0072286469
0.13921204
-0.0069090023
0.14083714
-0.0066825715
0.14238334
-0.0062908032
0.14402045
-0.0066505635
-0.0053647362
0.052649046
-0.0071563098
0.053489664
-0.0084059777
0.054483812
-0.0094768021
0.055565802
-0.010219693
0.056750451
-0.010918587
0.058052054
-0.01160479
0.059469121
-0.012234039
0.060996785
-0.012800988
0.062630835
-0.01331533
0.064366675
-0.013780636
0.066198782
-0.014197176
0.068120888
-0.014565724
0.070126229
-0.014887473
0.072207704
-0.015163481
0.074357964
-0.015394682
0.076569498
-0.01558201
0.078834714
-0.015726456
0.081146017
-0.015829082
0.083495881
-0.015891038
0.085876902
-0.015913583
0.088281854
-0.015898092
0.090703737
-0.015846062
0.09313581
-0.015759109
0.095571634
-0.015638961
0.098005094
-0.015487446
0.10043042
-0.015306474
0.10284223
-0.015098026
0.10523547
-0.014864126
0.10760554
-0.014606826
0.10994816
-0.014328183
0.11225949
-0.014030243
0.11453605
-0.01371502
0.11677473
-0.013384491
0.1189728
-0.013040575
0.12112789
-0.012685135
0.12323795
-0.012319977
0.12530131
-0.01194685
0.12731661
-0.011567469
0.12928281
-0.01118354
0.13119925
-0.010796771
0.13306561
-0.010409077
0.13488195
-0.010022217
0.13664899
-0.0096395898
0.13836751
-0.009261287
0.14004101
-0.0089021531
0.14166862
-0.0085366055
0.14327031
-0.0082842674
0.14481323
-0.0078337172
0.14644827
-0.0082856096
-0.0067749009
0.075222342
-0.0070853206
0.07532733
-0.0085109656
0.075551726
-0.0097011981
0.075852047
-0.010520013
0.076256327
-0.011322868
0.07678142
-0.012129883
0.077430362
-0.01288298
0.078203082
-0.013573708
0.079097889
-0.014210137
0.080111635
-0.014794382
0.081240077
-0.015325618
0.082477919
-0.015803566
0.083818976
-0.016228531
0.08525647
-0.016600976
0.086783224
-0.016921436
0.088391786
-0.017190572
0.090074538
-0.017409208
0.0918238
-0.017578344
0.093631931
-0.017699169
0.095491392
-0.017773044
0.097394819
-0.017801518
0.099335069
-0.017786312
0.10130527
-0.017729314
0.10329887
-0.017632559
0.10530964
-0.017498215
0.10733172
-0.017328556
0.10935964
-0.01712594
0.11138829
-0.016892783
0.113413
-0.016631536
0.11542947
-0.016344654
0.11743381
-0.016034581
0.11942252
-0.015703724
0.12139247
-0.01535444
0.12334092
-0.014989025
0.12526548
-0.014609704
0.12716414
-0.014218637
0.12903521
-0.013817918
0.13087734
-0.013409601
0.13268954
-0.012995733
0.13447114
-0.012578368
0.13622186
-0.012159805
0.13794181
-0.011742166
0.13963173
-0.011329509
0.14129247
-0.010922029
0.14292744
-0.010537123
0.14453617
-0.010145331
0.1461368
-0.0098848988
0.14770162
-0.0093985357
0.14936019
-0.0099441753
-0.0082645557
0.098025923
-0.00615835
0.097258675
-0.0077437176
0.096582411
-0.0090249338
0.095998002
-0.0099356047
0.095541578
-0.010866444
0.095224371
-0.011812675
0.095051748
-0.012710357
0.095027712
-0.013549672
0.095151797
-0.014334222
0.095420737
-0.015063322
0.095830171
-0.015735053
0.096374692
-0.016348086
0.097047813
-0.016901653
0.097842303
-0.017395465
0.098750478
-0.017829611
0.099764367
-0.018204461
0.10087583
-0.018520674
0.1020767
-0.018779206
0.10335882
-0.018981297
0.10471423
-0.01912845
0.10613513
-0.019222418
0.107614
-0.019265186
0.10914364
-0.019258954
0.11071719
-0.019206104
0.11232816
-0.019109184
0.11397047
-0.01897087
0.11563847
-0.018793933
0.1173269
-0.018581219
0.11903097
-0.018335608
0.1207463
-0.018059983
0.12246894
-0.017757216
0.12419534
-0.017430129
0.12592239
-0.017081487
0.12764735
-0.016713981
0.12936786
-0.016330221
0.13108196
-0.015932734
0.13278802
-0.015523979
0.13448478
-0.015106363
0.13617134
-0.014682291
0.13784714
-0.014254171
0.13951204
-0.013824704
0.14116626
-0.013396387
0.14281069
-0.012973931
0.14444634
-0.012557679
0.14607661
-0.0121674
0.14770159
-0.011770308
0.14933752
-0.011520832
0.15096232
-0.011023336
0.152683
-0.011664851
-0.009875461
0.11918968
-0.0043347278
0.1174971
-0.0060511376
0.11585761
-0.0073854414
0.11435511
-0.0084331036
0.11302584
-0.0095371727
0.11186731
-0.010654144
0.11088498
-0.011728033
0.11008515
-0.012749836
0.10946721
-0.013716285
0.10902658
-0.01462269
0.10875744
-0.015465914
0.10865313
-0.01624378
0.10870607
-0.016954583
0.10890792
-0.017597323
0.10924998
-0.01817167
0.1097233
-0.018677781
0.11031886
-0.019116228
0.11102764
-0.019487988
0.11184076
-0.019794422
0.11274955
-0.02003724
0.1137456
-0.020218466
0.11482083
-0.020340412
0.11596752
-0.020405652
0.1171784
-0.020416978
0.11844659
-0.020377374
0.11976569
-0.020289973
0.12112978
-0.020158024
0.12253341
-0.019984845
0.12397159
-0.019773795
0.12543985
-0.019528241
0.12693415
-0.019251517
0.12845093
-0.018946907
0.12998707
-0.018617622
0.13153987
-0.018266781
0.13310706
-0.017897411
0.13468676
-0.01751244
0.1362775
-0.017114717
0.13787817
-0.016707028
0.13948803
-0.016292158
0.14110676
-0.015872897
0.14273442
-0.015452362
0.14437148
-0.015033446
0.14601907
-0.014621519
0.1476785
-0.01421711
0.14935328
-0.013842185
0.15104416
-0.013461184
0.15276554
-0.013242215
0.15450122
-0.012759021
0.15633554
-0.013499163
-0.011658963
0.1368966
-0.0017557752
0.13437866
-0.0035331967
0.13182011
-0.0048268957
0.12946307
-0.0060760629
0.12733474
-0.0074088441
0.1254165
-0.0087359022
0.12371117
-0.010022708
0.12222385
-0.011262517
0.12095299
-0.012445421
0.11989281
-0.01356251
0.11903581
-0.014608913
0.11837364
-0.01558161
0.11789731
-0.016478249
0.11759728
-0.017297298
0.1174637
-0.018038088
0.11748655
-0.018700629
0.11765581
-0.019285489
0.11796156
-0.019793744
0.11839408
-0.020226943
0.11894391
-0.020587068
0.11960193
-0.020876482
0.12035941
-0.021097893
0.12120807
-0.021254314
0.12214011
-0.021349013
0.12314821
-0.021385481
0.12422561
-0.021367374
0.12536606
-0.021298473
0.12656386
-0.021182644
0.12781385
-0.021023785
0.12911141
-0.020825797
0.13045243
-0.020592541
0.13183334
-0.020327814
0.13325104
-0.02003532
0.13470291
-0.019718658
0.13618682
-0.019381313
0.13770103
-0.019026655
0.13924428
-0.018657964
0.14081569
-0.018278437
0.1424148
-0.017891275
0.14404158
-0.017499676
0.14569642
-0.017107201
0.14738014
-0.016717168
0.14909423
-0.016335612
0.15084042
-0.015963294
0.15262244
-0.015624206
0.15444181
-0.015280552
0.15631121
-0.01511162
0.15822045
-0.014668257
0.16023159
-0.015510304
-0.013675101
0.15005262
0.00077971444
0.14676369
-0.00024426858
0.14346638
-0.001529578
0.14041862
-0.0030283071
0.13762375
-0.0046139757
0.13507552
-0.0061876655
0.13277575
-0.0077229391
0.13072453
-0.0092112996
0.12891943
-0.010640318
0.12735523
-0.011998319
0.12602413
-0.013277809
0.12491671
-0.014474187
0.12402279
-0.015584331
0.12333172
-0.016606225
0.12283251
-0.017538879
0.12251405
-0.018382173
0.12236527
-0.019136712
0.12237526
-0.019803733
0.12253336
-0.020385041
0.12282925
-0.020882954
0.12325301
-0.021300245
0.12379521
-0.02164009
0.12444691
-0.021906015
0.12519974
-0.022101846
0.12604591
-0.022231648
0.12697822
-0.022299681
0.12799008
-0.02231034
0.12907554
-0.022268103
0.13022924
-0.022177485
0.13144644
-0.022042992
0.13272297
-0.021869078
0.13405527
-0.021660115
0.13544032
-0.021420364
0.13687562
-0.021153959
0.1383592
-0.020864895
0.13988958
-0.020557038
0.14146575
-0.020234135
0.14308716
-0.019899845
0.1447537
-0.019557816
0.14646572
-0.019211693
0.14822404
-0.018865515
0.15002991
-0.018523041
0.1518853
-0.018191003
0.15379241
-0.017870401
0.15575537
-0.017587172
0.1577764
-0.017301576
0.15986705
-0.01720227
0.16202156
-0.016822768
0.16428479
-0.017773536
-0.015988831
0.18890958
0.0053817827
-0.19351164
0.18509957
0.0035657367
0.18170757
0.0018624231
0.17856248
0.00011678359
0.17562696
-0.001678453
0.17287597
-0.0034366784
0.17029129
-0.0051382633
0.16786394
-0.006783942
0.16559002
-0.0083663978
0.16346738
-0.009875681
0.16149416
-0.011304593
0.15966826
-0.012648283
0.15798703
-0.013903097
0.15644717
-0.01506637
0.15504477
-0.016136481
0.15377536
-0.017112765
0.15263402
-0.017995368
0.15161545
-0.018785158
0.15071406
-0.019483658
0.14992409
-0.020092987
0.14923965
-0.020615797
0.14865476
-0.021055209
0.14816351
-0.021414759
0.14776
-0.021698334
0.14743846
-0.021910113
0.14719329
-0.022054506
0.14701904
-0.022136093
0.14691051
-0.022159568
0.1468627
-0.022129683
0.14687091
-0.022051199
0.14693067
-0.021928838
0.1470378
-0.021767249
0.14718841
-0.021570974
0.14737889
-0.021344434
0.1476059
-0.021091909
0.14786641
-0.02081755
0.14815767
-0.020525391
0.1484772
-0.020219377
0.14882284
-0.019903449
0.14919269
-0.019581548
0.14958522
-0.019258042
0.14999918
-0.018937006
0.15043383
-0.018625648
0.15088864
-0.018325209
0.15136424
-0.018062772
0.15186048
-0.017797824
0.15238189
-0.017723676
0.15292412
-0.017364996
0.15351028
-0.018359699
-0.016582858
0.21685844
0.008780081
-0.22025674
0.21338459
0.0070395898
0.21017181
0.0050752008
0.20706653
0.0032220607
0.20401997
0.0013681054
0.20106309
-0.00047979677
0.19821277
-0.0022879419
0.19547352
-0.0040446937
0.19285125
-0.0057441231
0.19035278
-0.0073772119
0.18798331
-0.0089351295
0.18574625
-0.010411223
0.18364359
-0.011800435
0.18167603
-0.013098806
0.17984302
-0.014303479
0.17814296
-0.0154127
0.17657329
-0.016425695
0.17513069
-0.01734256
0.17381122
-0.018164187
0.17261042
-0.018892187
0.17152344
-0.019528822
0.17054517
-0.02007693
0.16967026
-0.020539853
0.16889329
-0.020921369
0.1682088
-0.021225621
0.16761134
-0.021457046
0.16709556
-0.021620308
0.16665622
-0.02172023
0.16628827
-0.021761735
0.16598685
-0.021749782
0.16574734
-0.021689322
0.16556534
-0.021585252
0.16543674
-0.021442375
0.16535769
-0.021265385
0.16532463
-0.021058843
0.16533426
-0.020827187
0.16538361
-0.02057474
0.16546998
-0.020305743
0.16559097
-0.02002444
0.1657445
-0.019735082
0.16592883
-0.019442369
0.16614256
-0.019150737
0.1663847
-0.018867784
0.16665475
-0.018595263
0.16695258
-0.018360602
0.16727943
-0.018124671
0.16763454
-0.018078785
0.16802619
-0.017756654
0.16843647
-0.018769974
-0.017058125
0.24376731
0.011504004
-0.24649123
0.2409169
0.0098899949
0.23806373
0.0079283778
0.2352168
0.0060689879
0.23233903
0.0042458715
0.22945125
0.0024079849
0.22658467
0.0005786352
0.2237586
-0.0012186181
0.22098894
-0.0029744667
0.21829164
-0.0046799109
0.21568055
-0.0063240425
0.21316668
-0.0078973492
0.21075863
-0.0093923862
0.20846297
-0.01080314
0.20628432
-0.01212483
0.20422557
-0.013353949
0.20228807
-0.014488197
0.20047187
-0.015526357
0.19877587
-0.016468194
0.19719806
-0.017314374
0.19573561
-0.018066374
0.19438508
-0.018726398
0.19314252
-0.01929729
0.1920036
-0.019782448
0.19096372
-0.020185744
0.19001812
-0.020511442
0.18916192
-0.020764114
0.18839026
-0.020948568
0.1876983
-0.021069773
0.18708131
-0.021132792
0.18653471
-0.021142721
0.1860541
-0.021104641
0.18563529
-0.021023571
0.18527435
-0.020904442
0.18496758
-0.020752074
0.18471157
-0.020571174
0.18450318
-0.020366349
0.18433957
-0.020142137
0.18421821
-0.019903084
0.1841369
-0.019653766
0.18409374
-0.019399212
0.18408726
-0.019144256
0.18411628
-0.018896802
0.18418039
-0.018659374
0.1842787
-0.018458915
0.18441394
-0.018259911
0.18457973
-0.018244573
0.18479796
-0.017974882
0.18500479
-0.018976804
-0.017392172
0.26927501
0.013536929
-0.27130793
0.26710699
0.01205801
0.26476526
0.010270109
0.26232607
0.0085081822
0.25979735
0.0067745882
0.25718929
0.0050160443
0.25452801
0.0032399153
0.25183768
0.0014717099
0.2491383
-0.00027508865
0.24644968
-0.001991288
0.2437911
-0.003665465
0.24117971
-0.0052859527
0.23863022
-0.0068428977
0.23615513
-0.0083280495
0.23376473
-0.0097344324
0.23146719
-0.011056406
0.22926868
-0.012289691
0.22717361
-0.013431285
0.22518477
-0.014479357
0.22330356
-0.015433166
0.22153016
-0.016292971
0.21986369
-0.017059934
0.21830243
-0.017736021
0.21684389
-0.018323913
0.21548505
-0.018826902
0.21422241
-0.019248804
0.21305216
-0.01959386
0.21197024
-0.01986665
0.21097248
-0.020072011
0.21005464
-0.020214953
0.20921251
-0.020300591
0.20844195
-0.020334084
0.20773896
-0.02032058
0.2070997
-0.020265182
0.20652054
-0.020172917
0.20599809
-0.020048725
0.20552922
-0.019897474
0.20511106
-0.019723979
0.20474106
-0.019533082
0.20441698
-0.019329683
0.2041369
-0.019119134
0.20389933
-0.018906692
0.20370302
-0.018700489
0.20354767
-0.018504023
0.20343181
-0.018343059
0.20335938
-0.018187476
0.20331919
-0.018204388
0.2033445
-0.018000185
0.2033301
-0.018962411
-0.017562801
0.2929857
0.014868049
-0.29431682
0.29150648
0.01353723
0.28978402
0.011992578
0.28788541
0.01040679
0.28584552
0.0088144712
0.28367518
0.0071863865
0.28139279
0.0055223051
0.2790216
0.0038429043
0.2765829
0.0021636075
0.27409687
0.00049474794
0.27158369
-0.0011522901
0.2690631
-0.0027653636
0.26655342
-0.0043332182
0.26407124
-0.0058458715
0.26163131
-0.0072944955
0.25924638
-0.0086714748
0.25692721
-0.0099705275
0.25468263
-0.011186707
0.25251962
-0.012316346
0.25044346
-0.013356998
0.24845785
-0.014307368
0.24656514
-0.015167224
0.24476643
-0.015937309
0.24306175
-0.016619237
0.24145025
-0.0172154
0.2399303
-0.017728856
0.23849968
-0.018163236
0.23715567
-0.01852264
0.2358952
-0.018811543
0.23471495
-0.019034702
0.23361144
-0.019197079
0.23258112
-0.019303762
0.23162044
-0.019359906
0.23072594
-0.019370682
0.22989427
-0.019341242
0.22912224
-0.019276697
0.22840689
-0.019182126
0.2277455
-0.019062586
0.22713561
-0.018923194
0.22657508
-0.018769157
0.22606209
-0.018606135
0.22559521
-0.018439816
0.22517323
-0.018278505
0.22479599
-0.018126782
0.22446166
-0.018008739
0.22417503
-0.017900841
0.22392125
-0.017950608
0.22374191