/*--------------------------------*- C++ -*----------------------------------*\
  =========                 |
  \\      /  F ield         | OpenFOAM: The Open Source CFD Toolbox
   \\    /   O peration     | Website:  https://openfoam.org
    \\  /    A nd           | Version:  6
     \\/     M anipulation  |
\*---------------------------------------------------------------------------*/
FoamFile
{
    version     2.0;
    format      ascii;
    class       volScalarField;
    location    "140";
    object      pMean;
}
// * * * * * * * * * * * * * * * * * * * * * * * * * * * * * * * * * * * * * //

dimensions      [0 2 -2 0 0 0 0];

internalField   nonuniform List<scalar> 
9200
(
-0.40079016
-0.38858461
-0.37767421
-0.36804081
-0.35861116
-0.34938487
-0.34044671
-0.33176034
-0.32325334
-0.314851
-0.30647964
-0.29807144
-0.28957157
-0.28094523
-0.27218761
-0.26334082
-0.25448808
-0.24572243
-0.23804362
-0.23563298
-0.41936189
-0.40470779
-0.39186268
-0.38069852
-0.36987152
-0.35935119
-0.34921264
-0.33938972
-0.32977984
-0.32028463
-0.31081354
-0.30128941
-0.29165591
-0.28188298
-0.27197158
-0.26195681
-0.25187875
-0.24174622
-0.2322307
-0.22546282
-0.43824299
-0.42113467
-0.40641186
-0.39379137
-0.38162068
-0.36982141
-0.35844837
-0.34739968
-0.33654264
-0.3257612
-0.31495893
-0.30406408
-0.29303574
-0.28186599
-0.27057867
-0.25922414
-0.24785145
-0.23647737
-0.22549959
-0.2160311
-0.45697043
-0.43744161
-0.42091355
-0.4068983
-0.39339883
-0.38027365
-0.36755136
-0.35509622
-0.34275582
-0.33041387
-0.31799026
-0.3054429
-0.29276962
-0.28000466
-0.26721083
-0.2544687
-0.24185245
-0.22940504
-0.21739518
-0.20657124
-0.47488424
-0.45305214
-0.43484085
-0.41950618
-0.40468142
-0.39015311
-0.37592601
-0.36184396
-0.34775762
-0.33357896
-0.31927423
-0.3048584
-0.29038934
-0.27595668
-0.26166762
-0.24763253
-0.23394489
-0.22066265
-0.20797497
-0.19639876
-0.49113172
-0.46721845
-0.44750327
-0.43093583
-0.41477335
-0.3987331
-0.38281144
-0.36686
-0.35076817
-0.33451282
-0.31813836
-0.30173941
-0.28544498
-0.26939962
-0.25374525
-0.23860669
-0.22407725
-0.21020816
-0.19712458
-0.18517121
-0.5046833
-0.47902857
-0.45804922
-0.44034642
-0.42282212
-0.40514317
-0.38732826
-0.36927938
-0.35096957
-0.33247885
-0.31395573
-0.2955855
-0.27756476
-0.26007812
-0.24328067
-0.22728821
-0.21217095
-0.1979524
-0.18469667
-0.17260944
-0.51435613
-0.48743178
-0.46550079
-0.44678498
-0.42788477
-0.40845354
-0.38857723
-0.36826126
-0.34760987
-0.32683888
-0.30621533
-0.28601201
-0.2664763
-0.24780843
-0.23015056
-0.21358613
-0.1981438
-0.18380625
-0.17057793
-0.15854658
-0.51879413
-0.49113464
-0.46855147
-0.4488964
-0.42857102
-0.40727983
-0.38523684
-0.36260705
-0.33966261
-0.31676729
-0.29429682
-0.27258655
-0.25190282
-0.23243021
-0.2142725
-0.19746338
-0.18198056
-0.16776275
-0.15475905
-0.14295575
-0.51664266
-0.48870911
-0.46563981
-0.44500411
-0.42315516
-0.39993311
-0.37574395
-0.35095438
-0.32601379
-0.30141289
-0.27759606
-0.25491461
-0.23361138
-0.21382357
-0.19559783
-0.17891108
-0.16369176
-0.14984114
-0.13726038
-0.12584697
-0.28052417
-0.284818
-0.2867337
-0.28696098
-0.28619192
-0.28459139
-0.28225762
-0.2792875
-0.27575683
-0.27172388
-0.26723657
-0.2623361
-0.25705914
-0.25143924
-0.24550819
-0.23929846
-0.23284471
-0.22617114
-0.21927978
-0.21226301
-0.28350032
-0.2873501
-0.28894451
-0.28894747
-0.28799294
-0.28623713
-0.28377611
-0.2807023
-0.27708742
-0.27298654
-0.26844488
-0.26350128
-0.25819028
-0.25254324
-0.24658912
-0.24035912
-0.23389526
-0.22722007
-0.22022572
-0.21288529
-0.28929428
-0.29227997
-0.29325067
-0.29281512
-0.29149739
-0.28943798
-0.28672865
-0.28345319
-0.27967541
-0.27544407
-0.27079894
-0.26577414
-0.26039995
-0.2547035
-0.24870852
-0.24244291
-0.23595971
-0.22928057
-0.22210255
-0.21415399
-0.29762748
-0.29938265
-0.299454
-0.29837408
-0.29651621
-0.29400094
-0.29091483
-0.28733003
-0.28329943
-0.27886294
-0.27405262
-0.26889569
-0.26341628
-0.25763531
-0.25156928
-0.24524032
-0.23871254
-0.23201282
-0.22459311
-0.21579937
-0.30814959
-0.30837594
-0.30730797
-0.30539103
-0.30282026
-0.29969525
-0.29609795
-0.29208729
-0.2877033
-0.28297547
-0.27792648
-0.27257439
-0.26693505
-0.26102184
-0.25484275
-0.2484111
-0.24179789
-0.23504373
-0.22734909
-0.21753987
-0.3204979
-0.31896745
-0.31655925
-0.31363053
-0.3101833
-0.30629809
-0.30205445
-0.29749841
-0.29265648
-0.28754519
-0.28217536
-0.27655478
-0.27068969
-0.2645845
-0.25823775
-0.25165134
-0.24489538
-0.23802996
-0.23003715
-0.21911468
-0.33435036
-0.33089599
-0.32698505
-0.32289279
-0.31842227
-0.3136388
-0.30862354
-0.30340923
-0.29800632
-0.29241775
-0.28664172
-0.28067385
-0.27450913
-0.26814194
-0.26156173
-0.25475896
-0.24779639
-0.24075659
-0.23246825
-0.220447
-0.34945639
-0.34395678
-0.33841722
-0.33304019
-0.32742863
-0.32163603
-0.3157455
-0.30977617
-0.30372261
-0.29757225
-0.29130806
-0.28491067
-0.27836099
-0.2716412
-0.2647313
-0.25761365
-0.25034907
-0.24306618
-0.23455801
-0.22166546
-0.36563542
-0.35799149
-0.35072062
-0.34396234
-0.3371147
-0.3302185
-0.32336101
-0.31654743
-0.30975394
-0.30294972
-0.29609931
-0.28916474
-0.28210804
-0.27489167
-0.26747414
-0.2598119
-0.25193223
-0.24394708
-0.23465147
-0.2206133
-0.38276704
-0.37286838
-0.3637568
-0.35551372
-0.34732114
-0.33920708
-0.33126307
-0.32347864
-0.31580967
-0.30820614
-0.30061471
-0.29298145
-0.28525501
-0.27738678
-0.26932578
-0.26101426
-0.25240251
-0.24329649
-0.23210283
-0.21587262
-0.20432527
-0.19448164
-0.1846839
-0.17501368
-0.16541154
-0.15591746
-0.1465888
-0.13746237
-0.12856667
-0.11992915
-0.1115743
-0.10352236
-0.095789844
-0.088390059
-0.081333203
-0.07462646
-0.068274177
-0.062278049
-0.056637285
-0.05134878
-0.046407297
-0.041805663
-0.037534973
-0.033584792
-0.029943374
-0.02659788
-0.023534589
-0.020739113
-0.018196599
-0.015891928
-0.013809893
-0.011935371
-0.010253478
-0.0087497066
-0.0074100592
-0.0062211569
-0.0051703548
-0.0042458261
-0.0034367372
-0.0027331355
-0.0021268728
-0.0016093069
-0.0011795727
-0.00082025041
-0.00057435312
-0.00031697963
-0.00044300295
0.00014123985
-0.0018585534
0.0028835469
-0.20568714
-0.19540139
-0.18547079
-0.17580234
-0.16616502
-0.15662164
-0.14725106
-0.13808609
-0.12915211
-0.12047724
-0.11208648
-0.10399993
-0.096234045
-0.088802206
-0.081714664
-0.074978639
-0.068598509
-0.062575996
-0.056910321
-0.051598382
-0.046634933
-0.042012781
-0.037722991
-0.033755091
-0.030097289
-0.026736694
-0.023659529
-0.020851344
-0.018297225
-0.015981986
-0.013890354
-0.01200714
-0.010317394
-0.0088065446
-0.0074605303
-0.0062659112
-0.0052099838
-0.0042808645
-0.0034676655
-0.002760382
-0.0021508145
-0.0016302723
-0.0011978252
-0.0008360404
-0.00058766543
-0.00032835357
-0.00045040165
0.0001323577
-0.001847105
0.0028540681
-0.20844805
-0.19723326
-0.18704376
-0.17742378
-0.16773353
-0.15809536
-0.14864555
-0.13940696
-0.13039705
-0.12164643
-0.11318176
-0.10502307
-0.097186886
-0.089686956
-0.082533816
-0.075734881
-0.069294692
-0.063215103
-0.057495429
-0.052132619
-0.047121444
-0.042454699
-0.038123404
-0.034117019
-0.030423664
-0.027030343
-0.023923156
-0.021087523
-0.01850839
-0.016170427
-0.014058212
-0.012156408
-0.010449915
-0.0089240176
-0.0075645116
-0.0063578196
-0.005291106
-0.0043523604
-0.0035305744
-0.002815627
-0.0021992069
-0.0016725149
-0.0012344889
-0.00086764807
-0.00061424
-0.00035093496
-0.00046508252
0.00011492831
-0.0018243979
0.002795674
-0.21232326
-0.19964376
-0.18908589
-0.1796446
-0.16993304
-0.16017789
-0.1506355
-0.14131156
-0.1322065
-0.12335643
-0.11479243
-0.10653478
-0.098600352
-0.091003828
-0.083756526
-0.076866401
-0.070338441
-0.06417487
-0.058375286
-0.052936834
-0.04785441
-0.043120867
-0.038727227
-0.034662902
-0.030915924
-0.027473169
-0.024320584
-0.021443414
-0.018826409
-0.016454031
-0.014310644
-0.012380691
-0.010648852
-0.0091001917
-0.007720292
-0.0064953665
-0.0054123783
-0.0044591238
-0.0036244098
-0.0028979377
-0.0022712253
-0.0017353071
-0.0012889219
-0.00091451041
-0.00065358122
-0.00038429553
-0.00048669625
8.9308811e-05
-0.0017907242
0.0027095639
-0.21694984
-0.20225968
-0.19123775
-0.18217948
-0.17253756
-0.16267147
-0.15304808
-0.14365462
-0.13445875
-0.12550386
-0.11683046
-0.10846043
-0.10041131
-0.09269939
-0.085337568
-0.078334942
-0.0716974
-0.065427924
-0.059526717
-0.053991384
-0.048817152
-0.043997094
-0.039522353
-0.03538238
-0.031565168
-0.028057499
-0.024845172
-0.021913243
-0.019246241
-0.016828383
-0.014643769
-0.012676568
-0.01091118
-0.009332389
-0.0079254966
-0.006676444
-0.0055719294
-0.0045994933
-0.0037476981
-0.0030060082
-0.0023657139
-0.0018176278
-0.0013602233
-0.00097583612
-0.00070499704
-0.00042782938
-0.00051477854
5.6047928e-05
-0.0017466532
0.0025976214
-0.22186563
-0.20471947
-0.19316062
-0.18472204
-0.17530507
-0.16537127
-0.15569609
-0.14627182
-0.13701547
-0.1279718
-0.11919578
-0.11071457
-0.10254717
-0.094712075
-0.087224697
-0.08009616
-0.073333929
-0.066942288
-0.060922518
-0.055273083
-0.049989863
-0.045066411
-0.040494199
-0.036262872
-0.032360509
-0.028773872
-0.025488668
-0.022489787
-0.019761543
-0.017287893
-0.01505265
-0.013039669
-0.011233025
-0.0096171692
-0.0081770695
-0.0068983373
-0.0057673479
-0.0047713291
-0.0038985417
-0.0031381585
-0.0024811879
-0.0019181677
-0.0014472414
-0.0010506167
-0.00076761014
-0.00048077358
-0.00054875583
1.5824765e-05
-0.0016929465
0.0024622944
-0.22660191
-0.206795
-0.19460648
-0.18695162
-0.17798761
-0.16810584
-0.15842445
-0.14901384
-0.13974604
-0.13065023
-0.12179395
-0.1132151
-0.1049368
-0.096980384
-0.089364619
-0.082103739
-0.075207691
-0.068682767
-0.062531919
-0.056754971
-0.051348876
-0.046308007
-0.041624434
-0.037288213
-0.033287667
-0.029609666
-0.026239903
-0.023163159
-0.02036356
-0.017824811
-0.015530424
-0.01346392
-0.011609015
-0.0099497864
-0.0084708223
-0.0071573547
-0.0059953856
-0.0049717778
-0.0040744398
-0.0032922015
-0.0026157396
-0.0020352683
-0.0015485391
-0.0011376158
-0.00084036441
-0.0005422353
-0.00058797119
-3.0629095e-05
-0.0016304934
0.0023064375
-0.23085659
-0.20885009
-0.1957896
-0.18867921
-0.18036077
-0.17076961
-0.16116974
-0.15180484
-0.14256846
-0.13346319
-0.12455581
-0.11589752
-0.10752005
-0.09944893
-0.091706764
-0.084311727
-0.077277123
-0.070611942
-0.064321366
-0.058407063
-0.052867474
-0.04769813
-0.042891987
-0.038439738
-0.034330134
-0.030550292
-0.027085996
-0.023921995
-0.021042272
-0.018430306
-0.016069318
-0.013942484
-0.012033143
-0.010324969
-0.0088021365
-0.0074494581
-0.0062525193
-0.005197774
-0.0042727333
-0.0034658386
-0.0027673894
-0.002167233
-0.0016626686
-0.0012356096
-0.00092223293
-0.0006113676
-0.00063182682
-8.2656271e-05
-0.0015603137
0.0021332562
-0.2322947
-0.21104872
-0.19733446
-0.18982216
-0.18199024
-0.17298015
-0.16365487
-0.15441105
-0.14526778
-0.13622146
-0.12732262
-0.11863084
-0.11018974
-0.10203148
-0.094183249
-0.086667898
-0.079503049
-0.07270134
-0.066271014
-0.060216331
-0.054537891
-0.049232981
-0.044295947
-0.039718556
-0.035490345
-0.031598973
-0.028030554
-0.024769982
-0.021801234
-0.019107662
-0.016672255
-0.014477883
-0.012507517
-0.010744424
-0.0091723452
-0.0077756427
-0.0065394482
-0.0054497631
-0.0044936549
-0.0036591281
-0.0029360552
-0.0023138675
-0.0017893486
-0.0013442451
-0.0010128269
-0.00068770274
-0.00068004331
-0.00013943646
-0.0014839217
0.0019469528
-0.22278395
-0.21048711
-0.19868498
-0.18982411
-0.18196944
-0.17376092
-0.16505921
-0.15619232
-0.14733883
-0.13852839
-0.12979357
-0.12119506
-0.11278996
-0.1046218
-0.096726132
-0.089133325
-0.081868044
-0.074949061
-0.06838982
-0.062198979
-0.056380823
-0.050935674
-0.045860325
-0.041148477
-0.036791153
-0.032777105
-0.029093206
-0.025724825
-0.02265618
-0.019870665
-0.017351157
-0.015080285
-0.01304069
-0.011215234
-0.0095872054
-0.0081404858
-0.0068597079
-0.0057303693
-0.0047390378
-0.0038732218
-0.0031223087
-0.0024752519
-0.0019282586
-0.0014628566
-0.0011112772
-0.00077003747
-0.00073182405
-0.00019865706
-0.001403617
0.0017533098
-0.20124608
-0.20446853
-0.19823108
-0.18865713
-0.18043266
-0.17266242
-0.16442987
-0.15588479
-0.14728876
-0.13870772
-0.13016712
-0.12172377
-0.11343897
-0.10536114
-0.09752952
-0.089977933
-0.082734468
-0.07582111
-0.069254191
-0.063044954
-0.057199982
-0.051721607
-0.04660837
-0.041855462
-0.037455168
-0.033397291
-0.029669566
-0.026258054
-0.023147512
-0.020321746
-0.017763926
-0.015456882
-0.013383369
-0.011526299
-0.0098689494
-0.008395147
-0.0070894331
-0.0059371837
-0.004924819
-0.0040396854
-0.0032709569
-0.0026074387
-0.0020448255
-0.0015650631
-0.001197454
-0.00084501285
-0.00077673847
-0.00025718488
-0.0013187348
0.0015609876
-0.19011934
-0.19444332
-0.19007465
-0.18082201
-0.17301187
-0.16607125
-0.15870964
-0.15094391
-0.14306122
-0.13513927
-0.12719522
-0.11928231
-0.11146471
-0.10379512
-0.096317037
-0.089068782
-0.082083161
-0.075386819
-0.069000553
-0.062939827
-0.057215167
-0.051832559
-0.046793886
-0.04209738
-0.037738069
-0.033708215
-0.029997736
-0.026594623
-0.023485323
-0.020655106
-0.018088406
-0.015769128
-0.013680934
-0.01180749
-0.010132696
-0.008640877
-0.0073169689
-0.0061466502
-0.0051165532
-0.0042141832
-0.0034287315
-0.0027491529
-0.0021705878
-0.0016760878
-0.0012907245
-0.00092751699
-0.00082342426
-0.00032556347
-0.001218507
0.0013517715
-0.18067184
-0.18259917
-0.17950257
-0.17204286
-0.16516954
-0.15899538
-0.15246351
-0.14548658
-0.1383207
-0.1310622
-0.12373086
-0.11637433
-0.10905583
-0.10183025
-0.094743671
-0.087837316
-0.081147452
-0.074704493
-0.068533082
-0.062652496
-0.057076981
-0.051816085
-0.046875051
-0.042255243
-0.037954582
-0.033967965
-0.030287702
-0.026903924
-0.02380498
-0.020977818
-0.018408332
-0.016081692
-0.013982635
-0.012095742
-0.010405669
-0.0088973667
-0.0075562694
-0.0063684501
-0.0053208288
-0.0044011344
-0.0035986165
-0.0029024345
-0.002307133
-0.00179704
-0.0013924965
-0.0010177842
-0.00087409039
-0.00040079182
-0.0011066938
0.0011209377
-0.1702825
-0.16985962
-0.16730286
-0.16194752
-0.15636638
-0.15100588
-0.14532575
-0.13921428
-0.13284086
-0.12630635
-0.11964561
-0.1129046
-0.10614348
-0.099418
-0.092776481
-0.086262603
-0.079915607
-0.073769372
-0.067852242
-0.062187279
-0.05679251
-0.051681187
-0.046862111
-0.042340019
-0.038115981
-0.034187812
-0.030550489
-0.027196556
-0.024116531
-0.021299286
-0.018732408
-0.01640254
-0.014295693
-0.012397528
-0.010693612
-0.0091696499
-0.0078116904
-0.0066062959
-0.0055407532
-0.0046030784
-0.0037826276
-0.0030687999
-0.0024555553
-0.0019285181
-0.0015032051
-0.0011153319
-0.00092952469
-0.00047942628
-0.00099109837
0.00087896081
-0.15903234
-0.15698563
-0.15456609
-0.1509453
-0.1467037
-0.14221364
-0.13738831
-0.13217008
-0.12663853
-0.12087673
-0.11493429
-0.1088596
-0.10270875
-0.096536486
-0.090392323
-0.084321602
-0.078365744
-0.072561472
-0.066940424
-0.061529204
-0.056349511
-0.051418304
-0.046748045
-0.042347012
-0.038219646
-0.034366932
-0.030786784
-0.027474443
-0.024422871
-0.021623134
-0.019064768
-0.016736129
-0.014624716
-0.012717471
-0.011001046
-0.0094620562
-0.0080872967
-0.0068639332
-0.0057797143
-0.0048230187
-0.0039833716
-0.0032504447
-0.0026176613
-0.0020718881
-0.0016239518
-0.0012206003
-0.00099074647
-0.00056019846
-0.00087753432
0.00063403253
-0.14665704
-0.14402379
-0.14182962
-0.13950692
-0.13647348
-0.13287661
-0.12889173
-0.12454331
-0.11985381
-0.11487934
-0.10967596
-0.1042939
-0.098785077
-0.093201812
-0.087593467
-0.082005902
-0.076481572
-0.071059018
-0.065772369
-0.06065116
-0.055720318
-0.051000213
-0.046506805
-0.042251857
-0.038243223
-0.034485159
-0.030978674
-0.027721896
-0.024710445
-0.021937805
-0.019395688
-0.017074386
-0.014963097
-0.013050242
-0.011323744
-0.0097712908
-0.008380571
-0.0071394815
-0.0060363427
-0.005059985
-0.0042001812
-0.0034469153
-0.0027931541
-0.0022269096
-0.0017546331
-0.0013332781
-0.0010582368
-0.00064202199
-0.0007717296
0.00039467281
-0.13348829
-0.13112332
-0.12936787
-0.12798814
-0.12595296
-0.12321492
-0.12003857
-0.11651061
-0.11263074
-0.10842979
-0.10396173
-0.099277561
-0.094424178
-0.089449394
-0.084401113
-0.079324717
-0.074262586
-0.069253906
-0.064334263
-0.059535284
-0.054884441
-0.050404988
-0.046115989
-0.042032437
-0.038165444
-0.034522483
-0.031107677
-0.027922121
-0.024964213
-0.022230011
-0.019713576
-0.017407318
-0.015302324
-0.013388676
-0.011655741
-0.010092446
-0.0086875225
-0.007429733
-0.0063080887
-0.0053119704
-0.0044314901
-0.0036569898
-0.0029810888
-0.0023928161
-0.0018947208
-0.0014527777
-0.0011322835
-0.00072388743
-0.00067949563
0.00016994986
-0.12022295
-0.11852549
-0.11732803
-0.11664006
-0.11539526
-0.11343534
-0.11101292
-0.10824097
-0.10511638
-0.10165298
-0.097896373
-0.093894911
-0.089691796
-0.085329422
-0.080851553
-0.076301889
-0.071721882
-0.067150312
-0.062623113
-0.058173011
-0.053829185
-0.049617064
-0.045558246
-0.04167051
-0.037967902
-0.034460897
-0.03115661
-0.028059053
-0.025169425
-0.022486421
-0.020006555
-0.017724486
-0.015633337
-0.013725003
-0.011990454
-0.010420007
-0.0090035824
-0.0077309429
-0.0065919135
-0.0055765309
-0.0046753468
-0.0038791153
-0.0031802387
-0.002568622
-0.0020435025
-0.001578458
-0.0012130559
-0.00080514182
-0.00060600501
-3.154584e-05
-0.10737823
-0.10640401
-0.10577489
-0.10561743
-0.10499503
-0.10371044
-0.10196811
-0.099879282
-0.09744385
-0.094666399
-0.091582384
-0.088234319
-0.08466074
-0.080899375
-0.076989329
-0.072970422
-0.068881954
-0.064761461
-0.06064427
-0.056563209
-0.052548244
-0.048626179
-0.044820454
-0.041151051
-0.037634491
-0.034283893
-0.031109103
-0.028116884
-0.025311139
-0.022693174
-0.020261979
-0.018014522
-0.015946052
-0.014050395
-0.012320246
-0.010747442
-0.0093232283
-0.0080384912
-0.0068839911
-0.0058505276
-0.0049291984
-0.0041112317
-0.0033889574
-0.0027530245
-0.002200012
-0.0017096014
-0.0013005318
-0.00088556882
-0.00055507601
-0.0002028126
-0.095221561
-0.094874263
-0.094754088
-0.09501765
-0.094888752
-0.094172935
-0.09302552
-0.091542196
-0.089724516
-0.087572194
-0.085111278
-0.082376823
-0.079401835
-0.076218827
-0.072862221
-0.069367629
-0.06577073
-0.062106684
-0.058409376
-0.054710868
-0.051041031
-0.047427207
-0.04389393
-0.040462736
-0.037152056
-0.033977193
-0.03095036
-0.028080793
-0.025374906
-0.022836491
-0.02046695
-0.018265553
-0.016229705
-0.014355224
-0.012636615
-0.011067337
-0.0096400634
-0.0083469212
-0.0071797161
-0.0061301141
-0.0051898648
-0.0043507399
-0.0036051474
-0.0029443739
-0.0023630058
-0.0018453897
-0.0013944462
-0.00096533221
-0.00052864676
-0.00033938998
-0.083882156
-0.084023527
-0.084318296
-0.084913321
-0.085174045
-0.084925434
-0.084283779
-0.083325761
-0.082051937
-0.080458805
-0.078564408
-0.076396043
-0.073980632
-0.071345221
-0.068519013
-0.065533113
-0.062419285
-0.059209312
-0.055934658
-0.052625824
-0.049311793
-0.046019652
-0.042774274
-0.039598058
-0.036510738
-0.033529268
-0.030667786
-0.027937642
-0.025347478
-0.022903367
-0.020608984
-0.018465818
-0.016473399
-0.014629542
-0.012930603
-0.011371726
-0.0099470939
-0.0086501615
-0.007473877
-0.0064108674
-0.005453636
-0.0045945712
-0.0038263091
-0.0031407038
-0.002530983
-0.0019848932
-0.0014942619
-0.0010448393
-0.00052649718
-0.00044002272
-0.073413523
-0.073910595
-0.074518804
-0.075363384
-0.075924383
-0.0760494
-0.075825671
-0.075312419
-0.074507648
-0.0734051
-0.072016116
-0.070360685
-0.068459535
-0.066334148
-0.064008369
-0.061508339
-0.058861549
-0.056096083
-0.053240233
-0.050322118
-0.047369096
-0.044407273
-0.041461139
-0.038553267
-0.035704057
-0.032931548
-0.030251305
-0.027676365
-0.025217254
-0.022882046
-0.020676485
-0.01860413
-0.016666541
-0.014863486
-0.013193162
-0.011652422
-0.010237004
-0.0089417565
-0.007760845
-0.0066879396
-0.0057163893
-0.0048392752
-0.0040496043
-0.0033397689
-0.0027022083
-0.0021270459
-0.0015991468
-0.0011245501
-0.00054629413
-0.00050685562
-0.063822807
-0.064564685
-0.065393676
-0.066413164
-0.067195611
-0.067609744
-0.067721047
-0.067574273
-0.067164613
-0.066483354
-0.065536252
-0.064336799
-0.062899828
-0.061241389
-0.059380034
-0.057336841
-0.055134682
-0.052797603
-0.050350379
-0.047818135
-0.045225912
-0.042598163
-0.039958329
-0.037328492
-0.034729084
-0.032178641
-0.029693619
-0.027288277
-0.024974617
-0.022762386
-0.020659122
-0.018670249
-0.016799209
-0.015047623
-0.013415474
-0.011901303
-0.010502418
-0.0092150932
-0.0080347669
-0.0069562171
-0.0059737185
-0.0050811191
-0.0042719293
-0.0035390889
-0.0028747357
-0.0022706141
-0.0017079637
-0.0012047773
-0.00058398466
-0.00054504066
-0.055091386
-0.055990762
-0.056962873
-0.058092397
-0.059027686
-0.059656267
-0.060027027
-0.060173204
-0.060087656
-0.059759718
-0.059190606
-0.058388275
-0.057362275
-0.056123604
-0.054685789
-0.053064973
-0.051279363
-0.049348727
-0.047294031
-0.045137061
-0.042900022
-0.040605124
-0.03827415
-0.03592808
-0.033586766
-0.03126865
-0.028990532
-0.026767389
-0.02461226
-0.022536175
-0.020548147
-0.018655202
-0.016862462
-0.015173249
-0.013589229
-0.012110575
-0.010736135
-0.0094636143
-0.0082897528
-0.0072104822
-0.0062210684
-0.0053161958
-0.004489997
-0.0037360005
-0.0030464383
-0.0024141732
-0.0018192847
-0.0012855289
-0.00063447937
-0.00056177705
-0.047185152
-0.048174987
-0.04922835
-0.050414532
-0.051444958
-0.052223825
-0.052787316
-0.053159697
-0.05333224
-0.053292994
-0.053039664
-0.052575704
-0.051906167
-0.051037594
-0.049978953
-0.048741779
-0.047339781
-0.045788462
-0.044104832
-0.042307101
-0.040414323
-0.038446017
-0.036421797
-0.034360997
-0.032282326
-0.030203572
-0.028141329
-0.026110781
-0.024125526
-0.02219746
-0.0203367
-0.018551566
-0.016848603
-0.015232636
-0.013706866
-0.012272988
-0.010931331
-0.009681003
-0.0085200423
-0.0074455605
-0.0064538621
-0.0055405293
-0.0047004207
-0.0039277154
-0.0032150462
-0.002556104
-0.0019314394
-0.0013664313
-0.00069248275
-0.0005649732
-0.040059839
-0.041089941
-0.042177196
-0.043378294
-0.044457221
-0.04533297
-0.046032105
-0.046572045
-0.046943233
-0.047133123
-0.047136914
-0.046954586
-0.046587571
-0.046038685
-0.045312953
-0.044417799
-0.043362789
-0.04215937
-0.040820657
-0.039361214
-0.037796762
-0.036143857
-0.034419567
-0.03264113
-0.030825632
-0.028989694
-0.027149189
-0.025318999
-0.023512803
-0.021742912
-0.020020151
-0.01835378
-0.016751466
-0.015219291
-0.013761792
-0.012382043
-0.011081746
-0.009861345
-0.0087201494
-0.0076564486
-0.0066676134
-0.0057501715
-0.0048997936
-0.0041113807
-0.003378192
-0.0026946146
-0.0020425937
-0.0014467429
-0.0007532719
-0.00056185663
-0.033665498
-0.034699488
-0.035785739
-0.036970605
-0.038061825
-0.038991463
-0.039778908
-0.04043647
-0.040954409
-0.041320213
-0.041527484
-0.041573697
-0.041457542
-0.041178897
-0.040739548
-0.040143425
-0.039396452
-0.038506385
-0.037482689
-0.036336387
-0.035079852
-0.033726555
-0.032290789
-0.030787385
-0.029231418
-0.027637913
-0.026021562
-0.024396475
-0.022775942
-0.021172244
-0.019596491
-0.018058505
-0.016566738
-0.015128238
-0.013748643
-0.012432209
-0.011181865
-0.009999292
-0.0088850027
-0.0078384354
-0.0068580298
-0.0059412894
-0.0050847612
-0.0042841385
-0.0035334615
-0.0028277857
-0.0021508469
-0.001525438
-0.00081323002
-0.00055789552
-0.027949858
-0.02896245
-0.030023094
-0.031169654
-0.032246231
-0.033196342
-0.034034085
-0.034768035
-0.035388772
-0.035884323
-0.036247458
-0.036474004
-0.036560732
-0.036505349
-0.036307138
-0.035967202
-0.035488413
-0.034875326
-0.034134133
-0.033272579
-0.032299834
-0.031226311
-0.030063455
-0.028823515
-0.027519293
-0.026163891
-0.024770446
-0.023351881
-0.021920674
-0.020488646
-0.019066775
-0.017665052
-0.016292359
-0.014956388
-0.013663599
-0.012419201
-0.011227166
-0.010090263
-0.0090101132
-0.0079872396
-0.0070211257
-0.0061102569
-0.0052520968
-0.0044431877
-0.0036784492
-0.0029536323
-0.0022543239
-0.0016013249
-0.00087001953
-0.00055629841
-0.022860605
-0.023835242
-0.02485397
-0.025947638
-0.026990549
-0.02793617
-0.028794715
-0.029572073
-0.030259497
-0.030845907
-0.031323849
-0.031688214
-0.031934563
-0.032059139
-0.032059415
-0.031934343
-0.031684364
-0.031311389
-0.030818806
-0.030211464
-0.029495604
-0.028678751
-0.027769567
-0.026777686
-0.025713513
-0.024588015
-0.023412498
-0.022198376
-0.020956948
-0.019699191
-0.018435565
-0.017175846
-0.015928979
-0.014702968
-0.013504791
-0.012340346
-0.011214427
-0.010130716
-0.0090918002
-0.008099196
-0.0071533723
-0.0062537751
-0.0053987959
-0.0045858615
-0.0038108239
-0.0030701766
-0.0023512491
-0.001673159
-0.00092240975
-0.00055814992
-0.018347223
-0.019274067
-0.020241077
-0.021273267
-0.022270019
-0.023193381
-0.024050717
-0.024845998
-0.025571356
-0.026216833
-0.026775187
-0.027240925
-0.027608983
-0.027874735
-0.028034465
-0.028085598
-0.028026755
-0.027857771
-0.027579752
-0.027195097
-0.02670749
-0.026121851
-0.025444248
-0.024681792
-0.023842494
-0.022935105
-0.021968934
-0.020953658
-0.019899121
-0.01881514
-0.017711314
-0.016596853
-0.015480418
-0.014369987
-0.013272747
-0.012195002
-0.01114212
-0.010118487
-0.0091274906
-0.0081715086
-0.0072519073
-0.0063690412
-0.0055222105
-0.0047097355
-0.0039284169
-0.0031755347
-0.0024399992
-0.0017397319
-0.00096989837
-0.0005630133
-0.014362081
-0.015236365
-0.016146868
-0.017113687
-0.01805705
-0.018946361
-0.019786871
-0.020581179
-0.021322392
-0.022001776
-0.022612591
-0.023149365
-0.023606845
-0.023980017
-0.024264489
-0.024456709
-0.024554024
-0.024554744
-0.024458206
-0.024264842
-0.023976203
-0.02359496
-0.023124871
-0.022570725
-0.021938254
-0.021234026
-0.020465307
-0.019639917
-0.018766062
-0.017852164
-0.016906691
-0.015937986
-0.014954115
-0.013962717
-0.012970881
-0.011985035
-0.011010858
-0.010053212
-0.0091160892
-0.0082025744
-0.0073148112
-0.0064539793
-0.0056202383
-0.0048127808
-0.0040293437
-0.0032680207
-0.002519152
-0.0017999375
-0.0010123173
-0.00056969411
-0.010861826
-0.011682457
-0.012535364
-0.013436444
-0.014323265
-0.015171508
-0.015984836
-0.016764848
-0.017505635
-0.018199698
-0.018840966
-0.019424249
-0.019944421
-0.020396433
-0.020775624
-0.021077901
-0.021299816
-0.021438632
-0.021492406
-0.021460068
-0.021341474
-0.021137444
-0.020849766
-0.020481182
-0.020035355
-0.019516801
-0.018930804
-0.018283308
-0.017580801
-0.016830169
-0.016038556
-0.01521321
-0.014361343
-0.013489983
-0.012605842
-0.011715198
-0.010823785
-0.0099367047
-0.0090583463
-0.0081923223
-0.0073414106
-0.006507506
-0.0056915487
-0.0048935545
-0.0041121578
-0.0033462714
-0.0025875448
-0.001852831
-0.0010495696
-0.00057688048
-0.0078075064
-0.0085761387
-0.0093731604
-0.01021086
-0.011041222
-0.011845255
-0.012625401
-0.013382518
-0.014111621
-0.01480639
-0.015461493
-0.016072175
-0.016633636
-0.017141034
-0.017589726
-0.017975424
-0.01829426
-0.018542854
-0.018718404
-0.018818764
-0.018842517
-0.018789028
-0.018658481
-0.018451896
-0.018171135
-0.01781887
-0.017398549
-0.016914325
-0.016370976
-0.015773807
-0.015128534
-0.014441165
-0.013717866
-0.012964839
-0.012188187
-0.011393796
-0.010587217
-0.0097735633
-0.0089574101
-0.0081427114
-0.0073327188
-0.0065299115
-0.0057359068
-0.004951468
-0.0041760669
-0.0034094152
-0.0026443744
-0.0018977077
-0.0010815476
-0.0005835187
-0.0051656575
-0.0058856068
-0.0066302328
-0.0074086644
-0.0081848616
-0.0089443338
-0.0096885697
-0.010417852
-0.01112803
-0.011813858
-0.012470741
-0.013094432
-0.01368056
-0.014224635
-0.014722228
-0.01516909
-0.015561214
-0.015894897
-0.01616682
-0.016374126
-0.016514495
-0.01658621
-0.016588208
-0.016520123
-0.016382315
-0.016175873
-0.015902614
-0.015565055
-0.015166363
-0.0147103
-0.014201139
-0.013643575
-0.013042625
-0.012403512
-0.011731557
-0.011032059
-0.010310184
-0.0095708492
-0.0088186219
-0.008057613
-0.0072913829
-0.0065228519
-0.0057541947
-0.004986826
-0.0042209751
-0.0034571086
-0.0026892126
-0.0019341144
-0.0011081238
-0.00058890602
-0.0029103601
-0.0035866054
-0.0042840049
-0.0050090112
-0.0057354579
-0.006452602
-0.00716117
-0.0078609873
-0.0085486232
-0.0092197791
-0.0098705456
-0.010497186
-0.011095799
-0.011662312
-0.012192617
-0.012682657
-0.013128479
-0.013526286
-0.013872504
-0.014163855
-0.014397433
-0.01457076
-0.014681858
-0.014729295
-0.014712235
-0.014630469
-0.014484432
-0.014275212
-0.014004531
-0.01367472
-0.013288676
-0.012849803
-0.012361933
-0.011829247
-0.011256178
-0.010647309
-0.010007267
-0.0093406156
-0.0086517422
-0.0079447518
-0.0072233571
-0.0064907761
-0.0057496124
-0.0050018221
-0.0042482953
-0.0034901858
-0.0027225115
-0.0019622385
-0.0011294827
-0.0005928063
-0.0010157995
-0.0016534814
-0.002309205
-0.0029870311
-0.0036688752
-0.0043471083
-0.005021847
-0.0056925397
-0.0063563549
-0.0070097983
-0.0076495662
-0.0082723988
-0.0088748459
-0.0094532642
-0.010003907
-0.010522988
-0.011006722
-0.011451366
-0.011853276
-0.01220897
-0.012515192
-0.012768972
-0.012967691
-0.013109141
-0.013191576
-0.013213764
-0.013175018
-0.013075233
-0.012914889
-0.012695058
-0.012417391
-0.01208408
-0.011697823
-0.011261758
-0.010779396
-0.010254537
-0.0096911767
-0.0090934092
-0.0084653177
-0.0078108649
-0.0071337794
-0.0064374436
-0.0057247638
-0.0049981212
-0.0042589597
-0.0035090345
-0.0027442899
-0.0019818485
-0.0011453195
-0.00059483593
0.00051415053
-9.2043972e-05
-0.00071339752
-0.0013522204
-0.0019968197
-0.0026420018
-0.0032873885
-0.0039321292
-0.0045738737
-0.0052097791
-0.0058370448
-0.00645282
-0.0070540556
-0.0076375005
-0.008199759
-0.0087373337
-0.0092466555
-0.0097241173
-0.010166119
-0.010569118
-0.010929684
-0.011244557
-0.011510706
-0.011725386
-0.011886202
-0.011991159
-0.012038714
-0.012027817
-0.011957948
-0.011829136
-0.011641967
-0.011397587
-0.011097677
-0.010744426
-0.010340475
-0.0098888616
-0.0093929393
-0.0088562922
-0.0082826359
-0.0076757102
-0.0070391643
-0.0063764407
-0.0056906391
-0.0049844552
-0.0042597746
-0.0035188521
-0.0027584346
-0.0019957735
-0.0011576178
-0.00059603525
0.0017232664
0.0011430326
0.00054985515
-5.6969319e-05
-0.00067071543
-0.0012881267
-0.0019084468
-0.0025305784
-0.003152536
-0.0037719842
-0.0043865219
-0.0049936298
-0.0055905898
-0.0061744826
-0.00674222
-0.007290572
-0.0078161889
-0.0083156272