/*--------------------------------*- C++ -*----------------------------------*\
  =========                 |
  \\      /  F ield         | OpenFOAM: The Open Source CFD Toolbox
   \\    /   O peration     | Website:  https://openfoam.org
    \\  /    A nd           | Version:  6
     \\/     M anipulation  |
\*---------------------------------------------------------------------------*/
FoamFile
{
    version     2.0;
    format      ascii;
    class       volVectorField;
    location    "140";
    object      U;
}
// * * * * * * * * * * * * * * * * * * * * * * * * * * * * * * * * * * * * * //

dimensions      [0 1 -1 0 0 0 0];

internalField   nonuniform List<vector> 
9200
(
(0.0010393791 0.0014199648 -5.9202097e-20)
(0.01367621 -0.0020584424 4.6042758e-20)
(0.038313477 -0.0058667008 -3.8501918e-20)
(0.072274961 -0.0097636958 -6.025802e-20)
(0.11376552 -0.013490279 1.8827062e-20)
(0.16158195 -0.016605968 3.2744039e-20)
(0.21467285 -0.018817655 -1.2268077e-20)
(0.27206777 -0.019974321 9.2689151e-21)
(0.33285826 -0.020011715 1.6803501e-20)
(0.39616585 -0.018929606 1.4848147e-21)
(0.46111827 -0.016780434 -2.1456454e-20)
(0.5268399 -0.013658417 2.0670121e-20)
(0.59245401 -0.0096887551 -4.0422363e-20)
(0.65709491 -0.0050166091 -2.1134034e-20)
(0.71992854 0.00020464726 5.9046875e-21)
(0.78017901 0.0058230927 -2.5131852e-20)
(0.83717471 0.011711715 2.5217312e-20)
(0.89047294 0.01791731 2.2243454e-20)
(0.9396749 0.024572098 -2.9924758e-22)
(0.98205601 0.028291964 -1.6691248e-21)
(0.0052522363 -0.0013463032 -1.7059425e-20)
(0.026962713 -0.0089891334 3.9747892e-20)
(0.061670543 -0.014809938 2.3576403e-20)
(0.10629558 -0.019172505 -1.1569806e-19)
(0.15873664 -0.022214291 -1.2727149e-20)
(0.21753482 -0.023721036 7.3297385e-20)
(0.28137461 -0.023595502 -3.547656e-20)
(0.34900801 -0.021869425 -8.3905947e-21)
(0.41924156 -0.018646037 3.4287707e-20)
(0.49091213 -0.01408141 -4.3259804e-20)
(0.56287533 -0.0083765789 -3.0338659e-20)
(0.63401177 -0.0017672861 7.1921899e-20)
(0.70324685 0.0054876331 3.8294291e-20)
(0.76957956 0.013117794 -6.7977045e-20)
(0.83211634 0.020851159 1.4623812e-20)
(0.89010433 0.028418687 -3.67337e-20)
(0.94297315 0.035568553 -1.3777282e-20)
(0.99043625 0.042139655 7.097548e-20)
(1.0323599 0.047713962 2.9642409e-20)
(1.0669385 0.049138241 -8.3478787e-20)
(0.01085851 -0.004042457 3.6773599e-20)
(0.043953706 -0.015431209 2.504744e-21)
(0.090515994 -0.022552488 2.2341812e-20)
(0.14711226 -0.026497625 9.811721e-22)
(0.21134375 -0.027886619 -4.0774125e-20)
(0.28146923 -0.026795487 1.8576474e-20)
(0.35587233 -0.023383147 1.3420361e-20)
(0.43299236 -0.017922002 -5.0327935e-20)
(0.51132741 -0.010736162 5.7262143e-20)
(0.58942909 -0.0021844425 1.4256784e-20)
(0.6659124 0.007347287 -5.4301053e-20)
(0.73948383 0.017459581 -1.8237547e-20)
(0.80897962 0.027755807 9.0591412e-21)
(0.8734064 0.037858432 2.3444925e-20)
(0.93197743 0.04742311 -1.1362617e-20)
(0.98413747 0.056147937 2.787796e-20)
(1.0295777 0.063788026 -2.0188394e-20)
(1.0682681 0.070203126 -7.0124254e-20)
(1.1003356 0.075117992 -2.3796533e-20)
(1.1249145 0.076639743 4.8660143e-20)
(0.01795733 -0.0064222129 2.4508102e-20)
(0.06477738 -0.020694949 5.1039421e-20)
(0.12485299 -0.02806107 1.9881769e-20)
(0.19447071 -0.030464345 1.2990137e-20)
(0.27095074 -0.029095168 1.7275766e-20)
(0.35225061 -0.024389345 -4.7720367e-20)
(0.43643358 -0.016826376 -2.564697e-20)
(0.52162263 -0.0069771117 0)
(0.60603183 0.0045665494 1.3920745e-20)
(0.68799022 0.017211201 -5.8524239e-21)
(0.76597855 0.030373334 -9.793555e-20)
(0.838678 0.043498976 -1.5774883e-20)
(0.90501889 0.05608588 6.510372e-20)
(0.96421935 0.067703306 4.8436567e-22)
(1.0158071 0.078006783 -1.5725697e-21)
(1.0596191 0.086745748 2.1957682e-20)
(1.0957807 0.093771065 -5.2647803e-21)
(1.1246832 0.099064049 -6.1030263e-20)
(1.1468678 0.10259567 -4.5851672e-20)
(1.1622986 0.10341234 6.9520995e-20)
(0.026579573 -0.0082057424 -3.9194287e-21)
(0.089344504 -0.024033662 -5.1256441e-21)
(0.16430839 -0.030265211 5.6599611e-20)
(0.24758245 -0.029810289 1.853939e-20)
(0.33624326 -0.024513332 -3.1955193e-20)
(0.42795331 -0.015240194 1.2163884e-20)
(0.52047504 -0.002851724 2.6402986e-21)
(0.61166633 0.011736703 3.360936e-20)
(0.69955016 0.027639712 5.6599835e-21)
(0.78237164 0.044028289 -1.3204855e-20)
(0.85865748 0.060147181 6.0154525e-20)
(0.92727261 0.075339851 -5.8009719e-20)
(0.98746028 0.089072151 -1.3216712e-19)
(1.0388565 0.10094821 -5.5773475e-21)
(1.0814759 0.11071616 8.3151467e-20)
(1.1156688 0.118263 0)
(1.1420579 0.12360466 1.0119033e-20)
(1.1614697 0.12688927 -1.5459902e-20)
(1.1748206 0.1282973 -8.5995369e-21)
(1.1826698 0.12744764 2.0992383e-20)
(0.036667101 -0.0090896342 -5.4309143e-21)
(0.1173157 -0.024685507 4.3578892e-21)
(0.20811969 -0.028140383 -8.7630134e-21)
(0.30515846 -0.023415192 2.8472491e-20)
(0.40533725 -0.01307585 -2.9392785e-20)
(0.50607373 0.0015223398 -1.6927098e-20)
(0.60490751 0.019094845 3.7364359e-20)
(0.6995525 0.038364932 4.759552e-21)
(0.78800706 0.058167283 -2.4436261e-20)
(0.86863735 0.077482586 6.9868e-20)
(0.94024311 0.095458151 5.2388384e-22)
(1.002099 0.11143098 -8.0444945e-20)
(1.0539602 0.12494222 0)
(1.0960305 0.1357367 3.9542455e-20)
(1.1288953 0.14374751 5.5236508e-21)
(1.1534307 0.14906789 -7.7567018e-20)
(1.1707018 0.15191798 -1.9587076e-20)
(1.1818649 0.1526224 -1.2467731e-20)
(1.1880616 0.15152467 -1.4709508e-20)
(1.1901483 0.14858345 4.0420832e-20)
(0.048059101 -0.0087674546 -1.7278e-20)
(0.14808379 -0.021932123 -2.2198658e-21)
(0.25514185 -0.020798001 3.038059e-20)
(0.36546545 -0.010412975 3.748441e-20)
(0.47590625 0.0059014 -1.9944807e-20)
(0.58374508 0.026269111 -6.9163352e-20)
(0.6864446 0.048976999 -2.7995964e-20)
(0.78176503 0.072417549 7.8929643e-20)
(0.86790512 0.095212191 8.5779064e-21)
(0.94359242 0.11624926 -2.4873614e-20)
(1.0081291 0.13469783 1.3642255e-20)
(1.0613902 0.15001501 -4.3194991e-21)
(1.1037724 0.16193593 0)
(1.1361005 0.1704435 2.720368e-20)
(1.1595074 0.17572219 -7.9322998e-20)
(1.1753047 0.17810267 -3.1475761e-20)
(1.1848594 0.17800699 8.1055178e-20)
(1.1894944 0.17590821 -4.2970301e-21)
(1.1904051 0.17225425 3.5561293e-21)
(1.18851 0.16719156 2.7111791e-20)
(0.060485524 -0.0069574028 -3.2414691e-20)
(0.18077851 -0.015170476 -8.162458e-20)
(0.30389058 -0.0075836369 2.5797416e-21)
(0.42642732 0.0097032507 7.0162079e-20)
(0.54535367 0.032631455 6.2424631e-20)
(0.65798355 0.058819944 -7.1574795e-20)
(0.76191165 0.086176394 -2.8270475e-22)
(0.85518593 0.11285216 8.5523075e-20)
(0.93645659 0.13737817 4.8828356e-20)
(1.0050446 0.15869341 -5.4218772e-20)
(1.0609387 0.17613524 -9.2334829e-20)
(1.1047273 0.18941304 -3.159004e-21)
(1.1374788 0.19855881 4.2128154e-20)
(1.1605901 0.20385782 -6.6056753e-21)
(1.1756273 0.20576933 -1.2868873e-20)
(1.1841801 0.20484821 1.9690932e-20)
(1.187745 0.20167788 4.3880924e-20)
(1.1876475 0.1968247 -4.3859729e-20)
(1.1849974 0.19077757 -1.0232276e-19)
(1.1806269 0.18377246 2.4567087e-20)
(0.073537527 -0.0034329959 -3.4979867e-20)
(0.21422775 -0.0039890734 -1.7388653e-19)
(0.35251798 0.01183934 8.2103577e-20)
(0.48562986 0.037018324 9.2767882e-20)
(0.61085608 0.066835558 5.7970798e-20)
(0.72576987 0.098481186 8.6107533e-21)
(0.82835087 0.12959695 -1.0624062e-19)
(0.91719296 0.15824263 0)
(0.99163048 0.18302801 -6.8749053e-20)
(1.0517551 0.20311184 -1.5202523e-20)
(1.0983413 0.21814826 5.4703815e-20)
(1.1327036 0.22821036 1.0973454e-20)
(1.1565136 0.23369201 -4.5614148e-20)
(1.1716093 0.23519876 -4.9081673e-20)
(1.1798227 0.23344253 2.4287848e-20)
(1.1828472 0.2291523 4.4823202e-20)
(1.1821509 0.22300883 -5.5600789e-20)
(1.178938 0.21560711 -1.0751194e-19)
(1.1741487 0.20742106 -3.1513607e-21)
(1.1684585 0.19871756 2.7046581e-20)
(0.086650792 0.0019613854 -3.5449364e-21)
(0.24696114 0.011816646 8.7913517e-20)
(0.39884889 0.037492362 -1.6479142e-20)
(0.54040661 0.071218476 -8.4309553e-20)
(0.66950137 0.10778905 4.5164581e-20)
(0.78422215 0.14411556 4.9175633e-20)
(0.88319221 0.17775678 5.5357092e-21)
(0.9657816 0.20688493 -9.9503039e-20)
(1.0321792 0.23038797 -2.504893e-21)
(1.0833357 0.24781537 5.0503859e-20)
(1.1208097 0.25926272 5.985514e-21)
(1.1465584 0.26523578 -1.9717332e-20)
(1.1627132 0.26650479 -7.5705093e-20)
(1.1713788 0.26396556 -6.2554314e-21)
(1.1744784 0.25852353 4.3533616e-20)
(1.1736569 0.25101002 3.7022234e-20)
(1.1702402 0.242133 1.9793543e-20)
(1.1652421 0.23245773 -5.2995235e-20)
(1.1594032 0.22240309 1.2957462e-20)
(1.1532268 0.21223685 8.26596e-20)
(-0.0012932682 0.0014346667 -1.1234576e-21)
(-0.0047459843 0.0031874297 2.0647044e-21)
(-0.010771411 0.0041359224 8.794747e-22)
(-0.017754369 0.0045395548 -2.4410759e-21)
(-0.024740428 0.0045654341 -1.4115023e-21)
(-0.031299727 0.0043260536 1.5460473e-21)
(-0.03716148 0.0039035497 -6.8701281e-21)
(-0.042147606 0.0033577291 -5.9573785e-21)
(-0.046157945 0.002731384 1.1172089e-20)
(-0.049146357 0.0020548283 -9.7428298e-21)
(-0.051100811 0.0013492927 -1.9833629e-22)
(-0.052030583 0.00062940844 3.6673731e-21)
(-0.051957851 -9.4909063e-05 -6.3296239e-22)
(-0.050911961 -0.00081695644 2.2818957e-20)
(-0.048925815 -0.0015318776 3.040134e-22)
(-0.046035327 -0.0022352142 -4.0883278e-20)
(-0.042281723 -0.0029223159 7.5386421e-21)
(-0.037703298 -0.0035910945 2.386436e-20)
(-0.032308469 -0.0042400512 -4.385285e-20)
(-0.026156648 -0.0048211864 -2.7739513e-20)
(-0.0016522082 0.0041808873 -5.3716296e-21)
(-0.005397507 0.0092681819 1.0865472e-20)
(-0.01121856 0.012007497 -1.0191579e-20)
(-0.017658101 0.013153819 3.923009e-21)
(-0.02385653 0.013195464 4.812188e-21)
(-0.029433431 0.012462767 7.1324766e-22)
(-0.034152442 0.011197046 -2.2509666e-20)
(-0.037860502 0.009573916 -2.0370365e-21)
(-0.040474415 0.0077189922 2.0163691e-20)
(-0.041959024 0.00572122 -5.0473998e-21)
(-0.042309028 0.0036428377 -2.1762767e-20)
(-0.041537382 0.0015266685 4.8973584e-21)
(-0.039667715 -0.00059836802 2.2635615e-20)
(-0.036729031 -0.002712843 1.0308484e-20)
(-0.032751921 -0.0048027918 2.1854495e-20)
(-0.027768984 -0.0068556329 -1.9770919e-20)
(-0.021824524 -0.0088583673 -2.1673156e-20)
(-0.014965903 -0.010804397 2.1184846e-20)
(-0.0071285414 -0.012679199 2.6810644e-20)
(0.0018748963 -0.014317447 1.5854921e-20)
(-0.00230344 0.0065602649 -4.3568949e-21)
(-0.0065392525 0.014480262 -5.6387649e-21)
(-0.011892179 0.018710624 3.0723652e-22)
(-0.017211162 0.020428262 1.0959741e-21)
(-0.021819213 0.020400397 6.6918825e-21)
(-0.025431113 0.019151726 1.0665235e-20)
(-0.027877294 0.017066329 -3.7227891e-21)
(-0.029053313 0.014423803 -1.8896294e-20)
(-0.028909052 0.011424348 6.5413642e-21)
(-0.027431026 0.0082098758 1.2862665e-20)
(-0.02462764 0.0048797194 5.8341369e-21)
(-0.020519972 0.0015021529 1.8159245e-20)
(-0.015135775 -0.0018769798 1.7296059e-21)
(-0.0085051008 -0.0052273968 -3.3864813e-20)
(-0.00065649462 -0.0085277935 1.202038e-21)
(0.0083815291 -0.011759329 -2.2139391e-20)
(0.018557507 -0.014904355 -2.4466549e-20)
(0.029802963 -0.017954052 4.5820174e-20)
(0.042305905 -0.020855459 2.5349621e-20)
(0.056739695 -0.02324815 1.2241486e-22)
(-0.0031290413 0.0083690093 -5.2833435e-21)
(-0.0078964295 0.018336592 -8.48163e-21)
(-0.012439026 0.023587904 4.3593284e-21)
(-0.016026576 0.025609753 4.1463744e-21)
(-0.018235055 0.025382827 2.0105832e-21)
(-0.018912661 0.023589383 7.3210437e-21)
(-0.017984693 0.020730309 9.3125368e-21)
(-0.01541664 0.017170384 -1.3511421e-21)
(-0.011206918 0.013171286 -1.1482021e-20)
(-0.0053750313 0.008918868 -2.9072084e-20)
(0.0020484005 0.0045433352 6.1897524e-23)
(0.011026899 0.00013416831 4.0698125e-20)
(0.021522732 -0.0042491366 -1.8383303e-20)
(0.03349849 -0.0085678158 -1.2296186e-20)
(0.0469213 -0.012795825 5.5348037e-22)
(0.061761048 -0.016912184 3.2302926e-20)
(0.077954148 -0.020902052 -1.4829701e-20)
(0.095393598 -0.024763815 -5.333966e-20)
(0.1144 -0.028380217 4.576542e-20)
(0.13634718 -0.031073652 3.3013476e-20)
(-0.0039704253 0.0094657736 -6.8788657e-22)
(-0.0090916877 0.020487873 -1.2534816e-20)
(-0.012364498 0.026159182 -3.4144784e-20)
(-0.01355255 0.028143428 -5.7242095e-21)
(-0.012533216 0.027555079 -3.6222955e-21)
(-0.0093166522 0.025188109 6.3051424e-21)
(-0.0039455081 0.021627423 -4.6462189e-21)
(0.0035263456 0.017298932 -8.8070703e-21)
(0.013037135 0.012508682 2.1899842e-20)
(0.02452167 0.0074743266 5.0567307e-21)
(0.037916098 0.0023487391 -2.5290484e-20)
(0.053158154 -0.0027630008 1.1078348e-20)
(0.070187743 -0.0077911457 0)
(0.088947642 -0.012691631 1.2089665e-20)
(0.1093867 -0.017437308 -9.7016917e-21)
(0.1314589 -0.022010348 -1.433724e-20)
(0.1550758 -0.026409165 -1.5738713e-21)
(0.18006959 -0.03066001 -2.218188e-21)
(0.20685567 -0.034577198 4.614741e-20)
(0.23766616 -0.037020605 -1.0470268e-20)
(-0.0046451139 0.009780901 -7.5357074e-21)
(-0.0096772747 0.020747952 2.451656e-20)
(-0.011064386 0.026161057 -1.0499422e-20)
(-0.0090967988 0.027724513 -2.7469457e-20)
(-0.0039796264 0.026601738 -2.7548318e-20)
(0.004096358 0.023648418 -1.4921659e-20)
(0.014954425 0.019496425 -6.9059412e-22)
(0.028436631 0.014604626 5.5500024e-21)
(0.044403682 0.0093033159 1.9615981e-20)
(0.062731191 0.0038282297 7.3531293e-21)
(0.08330519 -0.0016549993 -7.1862619e-21)
(0.10602005 -0.0070325442 -2.0102325e-21)
(0.13077486 -0.012229468 -3.8191966e-20)
(0.15747097 -0.01720019 -1.2693732e-20)
(0.18601378 -0.021920242 1.875076e-20)
(0.21631383 -0.026380299 -2.1021843e-20)
(0.24823458 -0.030602881 -8.9731268e-21)
(0.28152132 -0.034671347 3.044067e-20)
(0.31661 -0.038365645 5.0472432e-20)
(0.35665345 -0.03996501 3.3559958e-21)
(-0.0049617821 0.0093140305 1.6783386e-20)
(-0.0091662801 0.019097762 1.4468012e-20)
(-0.0078593385 0.023563417 5.1145786e-20)
(-0.0018584471 0.024328974 2.3388124e-20)
(0.0082959071 0.022523782 1.8251881e-22)
(0.02222224 0.019014341 -3.9388675e-20)
(0.039597882 0.014440843 -2.4314006e-20)
(0.060148507 0.0092662123 1.0465869e-20)
(0.083639903 0.0038230221 1.4401665e-20)
(0.10986768 -0.0016515678 -1.3113772e-20)
(0.13864685 -0.0069913441 -4.403898e-20)
(0.16980317 -0.012083251 2.9618682e-20)
(0.20316578 -0.016854634 2.0020665e-20)
(0.23856147 -0.021264545 -2.7551333e-20)
(0.27581462 -0.02529703 1.1650219e-20)
(0.31475073 -0.028957875 2.4197777e-20)
(0.3551484 -0.032303842 8.072458e-21)
(0.39663713 -0.035507553 -1.1764314e-20)
(0.43958059 -0.038393611 -1.4190371e-20)
(0.48798901 -0.038635464 5.8728853e-21)
(-0.0047307844 0.0081236949 1.1093904e-20)
(-0.0070585895 0.015671202 -2.3352863e-20)
(-0.0020292937 0.018562043 8.6200916e-21)
(0.0090326885 0.018216206 3.3588157e-20)
(0.025256656 0.01565109 5.2124636e-20)
(0.046066788 0.011695494 2.0276621e-20)
(0.070985155 0.0069607878 -5.8639737e-21)
(0.099602786 0.0018827264 -1.2286341e-20)
(0.13157001 -0.0032274871 -6.205789e-21)
(0.16657699 -0.0081500139 3.4241024e-20)
(0.20433584 -0.012733747 -4.5104799e-21)
(0.24456672 -0.016879687 -1.6643406e-20)
(0.28698688 -0.020529261 -1.9693679e-20)
(0.33130248 -0.023657065 -4.7444032e-20)
(0.3772074 -0.026266267 2.3238848e-20)
(0.42439084 -0.028388678 -1.4096079e-20)
(0.47250319 -0.030128522 2.5993593e-20)
(0.52103994 -0.031784177 2.1040975e-20)
(0.57021799 -0.033351758 -8.5570865e-20)
(0.62471348 -0.032060017 -1.0804414e-22)
(-0.0037710508 0.0063146488 2.192516e-20)
(-0.0028657233 0.010735089 -2.6165675e-20)
(0.0071422384 0.011564101 -4.5013529e-20)
(0.024450497 0.0099249138 -2.7253926e-20)
(0.04787128 0.0066521812 -2.0439972e-21)
(0.076629328 0.0024904371 1.3050148e-20)
(0.11007758 -0.0020156352 -2.8337742e-21)
(0.14765316 -0.0064882075 1.8118625e-20)
(0.18886233 -0.010663873 8.868599e-21)
(0.23325361 -0.01436286 -1.1380229e-20)
(0.28039346 -0.017469459 8.8779775e-21)
(0.32984832 -0.019917389 -2.3903399e-20)
(0.38117142 -0.021679356 8.0505394e-21)
(0.43389378 -0.022760612 1.6756496e-20)
(0.48752261 -0.023195119 -2.63953e-21)
(0.54155072 -0.023047793 1.6619065e-21)
(0.5954393 -0.022470432 -3.1956989e-22)
(0.64852193 -0.021871178 1.9590555e-20)
(0.70082671 -0.021446226 4.0434258e-21)
(0.75745599 -0.018500343 -5.734863e-22)
(-0.0019109998 0.0040273443 2.3692231e-20)
(0.0038695164 0.0046764794 5.7160257e-20)
(0.020315522 0.00318788 -4.9244468e-20)
(0.045178665 0.00029429208 -9.945463e-21)
(0.076965738 -0.003424341 2.0256436e-20)
(0.11469705 -0.0073538338 2.1433817e-21)
(0.15753992 -0.011055266 -2.98153e-20)
(0.20474969 -0.014244512 6.9848363e-21)
(0.25565119 -0.016738366 7.1098326e-21)
(0.30960674 -0.018427461 -2.6254216e-20)
(0.36598882 -0.01926067 1.2927421e-21)
(0.42416226 -0.01923251 -3.7174322e-20)
(0.48347402 -0.01837292 -3.6341233e-20)
(0.54324896 -0.01673907 6.5683901e-20)
(0.60279172 -0.014408177 5.5627871e-21)
(0.6613927 -0.011476859 -1.5188923e-20)
(0.71831192 -0.0081030951 1.9364094e-20)
(0.77270326 -0.0045940087 -9.1888756e-22)
(0.82409272 -0.0009692889 2.0364643e-20)
(0.8762241 0.0043267238 -1.9554361e-20)
(-0.018835992 -0.0050997815 5.8352714e-20)
(-0.010224095 -0.0056350133 1.5783838e-20)
(-0.00022047733 -0.0060689744 -3.5139963e-20)
(0.01082412 -0.0063342109 1.6790451e-20)
(0.022643556 -0.0065121548 0)
(0.03517919 -0.0066302041 0)
(0.048371202 -0.0066910936 -2.2975251e-20)
(0.062139875 -0.0067026659 -1.6503089e-20)
(0.076414798 -0.006674306 1.9122876e-20)
(0.091136462 -0.0066128028 1.8174302e-20)
(0.1062499 -0.0065233481 1.0524363e-21)
(0.12170329 -0.0064105053 -1.0317783e-20)
(0.13744836 -0.0062782333 8.3270334e-21)
(0.15343987 -0.0061298792 1.8233989e-20)
(0.16963507 -0.0059683065 -5.2275341e-21)
(0.18599331 -0.0057960005 -1.017509e-20)
(0.20247584 -0.0056151323 -4.3196535e-21)
(0.21904564 -0.0054276112 -4.4257914e-21)
(0.23566727 -0.0052351292 7.3667738e-22)
(0.25230687 -0.0050391966 1.2286293e-21)
(0.26893211 -0.0048411686 2.5667046e-21)
(0.28551221 -0.0046422649 6.6540883e-21)
(0.30201798 -0.0044435849 2.4891347e-22)
(0.31842188 -0.0042461181 -3.4515585e-21)
(0.33469809 -0.004050752 1.5558286e-22)
(0.35082253 -0.0038582783 -5.7711506e-22)
(0.36677294 -0.0036693971 1.243477e-21)
(0.38252894 -0.0034847208 1.0522637e-21)
(0.39807201 -0.003304778 -1.2988807e-21)
(0.41338552 -0.0031300168 -1.2218337e-22)
(0.42845477 -0.0029608093 3.5699686e-23)
(0.4432669 -0.0027974556 -3.5189744e-22)
(0.45781093 -0.0026401888 -4.0570889e-22)
(0.47207769 -0.0024891802 5.5450591e-23)
(0.48605977 -0.0023445452 -1.3810459e-22)
(0.4997515 -0.0022063494 -2.2345238e-22)
(0.51314887 -0.0020746149 2.557498e-22)
(0.52624957 -0.0019493276 2.950622e-22)
(0.53905281 -0.001830446 -8.3004447e-24)
(0.55155974 -0.0017179047 -1.5524846e-22)
(0.56377234 -0.0016116433 3.0405995e-23)
(0.57569726 -0.0015115616 -4.0153322e-23)
(0.5873347 -0.0014177315 9.2265244e-23)
(0.59871374 -0.0013298165 2.1963408e-23)
(0.60978873 -0.0012491024 -1.1411935e-22)
(0.62075203 -0.0011723771 -6.7755203e-24)
(0.63112529 -0.0011118813 -6.4528709e-26)
(0.64242147 -0.0010346314 -3.5845188e-24)
(0.65050365 -0.001051575 2.9446879e-23)
(0.66710033 -0.00087643472 3.6071704e-22)
(0.010446609 -0.01501785 -1.2746982e-20)
(0.018180578 -0.016641278 -6.3303039e-20)
(0.027780262 -0.017915704 -3.0542327e-20)
(0.038386377 -0.018672383 3.8476493e-20)
(0.049622422 -0.019183919 1.4662801e-20)
(0.061508286 -0.019529783 -1.8205194e-20)
(0.07401472 -0.019710234 4.6722996e-21)
(0.087064832 -0.019746879 2.5447532e-20)
(0.10059559 -0.019667685 9.1960764e-23)
(0.11455677 -0.01949212 -7.6592522e-21)
(0.12890026 -0.019234795 -1.3021156e-20)
(0.14357945 -0.018908762 -8.5246927e-21)
(0.15855046 -0.018525438 1.7772603e-20)
(0.17377177 -0.01809448 8.9297956e-21)
(0.18920364 -0.017624172 -1.652264e-20)
(0.20480788 -0.017121738 -6.0391551e-21)
(0.22054776 -0.016593517 3.2145399e-21)
(0.2363879 -0.016045104 8.3717428e-21)
(0.25229424 -0.015481479 6.9833685e-21)
(0.26823404 -0.014907102 -6.9729144e-21)
(0.28417588 -0.014325989 -3.1686962e-21)
(0.30008973 -0.013741765 1.360644e-21)
(0.31594701 -0.013157705 3.8693994e-22)
(0.33172067 -0.012576764 1.2114533e-21)
(0.34738525 -0.012001599 1.8371421e-22)
(0.36291697 -0.011434583 -3.2665286e-22)
(0.37829376 -0.010877821 -7.2439918e-22)
(0.39349535 -0.010333155 9.7167699e-22)
(0.40850324 -0.0098021808 8.2491266e-22)
(0.42330081 -0.0092862536 -1.5155926e-22)
(0.43787323 -0.0087865024 5.5314008e-22)
(0.45220751 -0.0083038421 -2.3882386e-22)
(0.46629246 -0.0078389875 -3.7077658e-22)
(0.48011863 -0.0073924691 -6.100891e-22)
(0.49367834 -0.0069646502 4.4176309e-22)
(0.50696555 -0.0065557451 -1.556797e-23)
(0.5199759 -0.0061658388 1.6134366e-22)
(0.53270665 -0.0057949068 -4.4189917e-22)
(0.54515658 -0.005442843 3.7210369e-22)
(0.5573264 -0.0051094696 6.7196004e-23)
(0.5692176 -0.0047946227 -1.0285782e-22)
(0.58083633 -0.0044980192 1.7629079e-22)
(0.59218235 -0.0042198899 2.3364011e-22)
(0.60328401 -0.0039592449 1.6948347e-22)
(0.61409581 -0.0037199359 1.6794678e-22)
(0.62480727 -0.0034923991 -2.6150399e-23)
(0.63494639 -0.0033131154 8.4316226e-23)
(0.64600322 -0.0030839105 7.6564976e-23)
(0.65390586 -0.0031346551 -1.950551e-22)
(0.67018351 -0.0026150512 -3.7980289e-23)
(0.06761599 -0.024029557 9.4529453e-21)
(0.073591117 -0.026749499 3.2951621e-21)
(0.082267128 -0.028806056 -1.2162415e-20)
(0.091949636 -0.029969025 -1.2258364e-21)
(0.10198523 -0.030768415 1.497081e-20)
(0.11254859 -0.031331473 -1.4887319e-20)
(0.12367846 -0.031636681 -2.9842712e-20)
(0.13529958 -0.031713644 1.4493761e-20)
(0.14736 -0.031608302 1.8182264e-20)
(0.15982678 -0.031350748 -1.159871e-20)
(0.17266428 -0.030962537 1.0190707e-21)
(0.18583485 -0.030463495 8.6860786e-21)
(0.19930225 -0.029871317 -1.5253829e-20)
(0.21303138 -0.029201028 2.9097197e-21)
(0.22698768 -0.028465572 7.5196078e-21)
(0.24113711 -0.027676339 3.1477977e-23)
(0.25544635 -0.026843415 2.6548859e-22)
(0.26988278 -0.025975776 -7.415289e-21)
(0.28441459 -0.025081466 3.8619229e-21)
(0.29901085 -0.024167744 8.4751631e-21)
(0.31364163 -0.023241183 -3.8352972e-21)
(0.32827809 -0.022307748 -2.2130873e-21)
(0.3428926 -0.021372856 1.0124294e-21)
(0.35745886 -0.020441414 -1.7156195e-21)
(0.37195197 -0.019517851 1.3532626e-21)
(0.38634855 -0.018606135 7.1848092e-22)
(0.40062679 -0.017709798 1.5270574e-21)
(0.41476653 -0.016831943 -1.9528991e-21)
(0.4287493 -0.015975268 2.2238625e-21)
(0.44255831 -0.015142076 5.5195364e-22)
(0.45617854 -0.014334295 4.0340437e-22)
(0.46959665 -0.0135535 3.2136435e-22)
(0.48280103 -0.012800936 8.7346827e-22)
(0.49578174 -0.012077543 -1.371212e-21)
(0.50853049 -0.01138398 3.7077334e-22)
(0.5210406 -0.010720664 1.0953749e-22)
(0.533307 -0.010087794 -4.5216305e-23)
(0.54532617 -0.0094853856 8.6684492e-23)
(0.55709608 -0.0089133209 -3.7200735e-22)
(0.56861658 -0.0083713604 1.8305463e-22)
(0.5798883 -0.0078592866 -3.4999193e-23)
(0.59091643 -0.0073766822 3.9045052e-22)
(0.60169991 -0.0069239794 -1.8565722e-22)
(0.61226573 -0.0064995897 4.7362595e-23)
(0.6225687 -0.0061099116 4.3681134e-23)
(0.63279292 -0.0057392441 -7.3739386e-23)
(0.64247857 -0.0054475801 -1.2119182e-22)
(0.65307169 -0.0050739013 3.8903528e-22)
(0.66062596 -0.0051580738 1.7305704e-22)
(0.67628523 -0.0043113546 -8.3087663e-22)
(0.15021732 -0.031461021 1.5010472e-21)
(0.15354908 -0.035258035 -1.1566702e-20)
(0.16061859 -0.038011609 6.6442344e-21)
(0.16880848 -0.039479829 -1.3324899e-20)
(0.17698503 -0.04052146 -1.9758555e-21)
(0.18552648 -0.041303091 9.1600983e-21)
(0.19458747 -0.041758086 -9.7664295e-21)
(0.20409045 -0.041914597 1.5662363e-21)
(0.2139915 -0.041834253 1.2903983e-20)
(0.22428011 -0.041555293 3.4032949e-21)
(0.23493699 -0.041103037 -6.209789e-21)
(0.24593501 -0.040501474 -2.8639028e-21)
(0.25724675 -0.039772806 -5.8409247e-21)
(0.26884468 -0.038936145 -6.4554659e-21)
(0.28070021 -0.038008096 3.2356445e-21)
(0.29278406 -0.037003454 8.4609699e-22)
(0.30506665 -0.035935508 1.3680316e-21)
(0.31751841 -0.034816236 -3.3851059e-21)
(0.33010992 -0.033656495 -4.2430714e-21)
(0.34281216 -0.032466174 2.3617544e-21)
(0.35559672 -0.031254308 3.2253141e-21)
(0.36843594 -0.030029162 -1.5637619e-21)
(0.38130311 -0.028798285 1.5868151e-21)
(0.39417259 -0.027568554 -3.9130344e-22)
(0.40701997 -0.026346206 -3.9199694e-21)
(0.41982216 -0.02513686 -3.0334334e-21)
(0.43255747 -0.023945531 -1.9032596e-22)
(0.44520572 -0.022776655 4.2855012e-22)
(0.45774827 -0.021634102 -2.21075e-21)
(0.47016804 -0.020521199 -8.5517418e-22)
(0.48244956 -0.019440754 2.2838845e-22)
(0.49457897 -0.018395081 -1.2501045e-21)
(0.50654401 -0.017386036 6.2095461e-24)
(0.51833398 -0.01641505 -4.2434003e-22)
(0.52993976 -0.015483166 -4.719854e-22)
(0.54135374 -0.01459108 -5.2021738e-22)
(0.55256985 -0.01373919 -8.4173713e-22)
(0.56358352 -0.012927636 -5.4468181e-23)
(0.57439161 -0.012156367 -3.9169072e-24)
(0.58499278 -0.01142516 -5.2003794e-22)
(0.5953865 -0.010733823 -9.1572365e-23)
(0.60557666 -0.010081878 -3.3269231e-22)
(0.6155611 -0.0094700238 -4.3811401e-22)
(0.62536491 -0.0088961612 3.7888569e-22)
(0.63494343 -0.0083691889 1.4840208e-23)
(0.64447308 -0.007867642 1.8270435e-22)
(0.65351156 -0.0074737665 -1.32862e-22)
(0.6634417 -0.0069676954 -2.6753063e-22)
(0.67049802 -0.0070844952 -4.4344475e-23)
(0.68527043 -0.0059387364 4.6258921e-22)
(0.25468847 -0.036553535 -2.0900559e-20)
(0.25447316 -0.041394339 4.7586417e-20)
(0.25907647 -0.044746543 1.0348189e-20)
(0.26508748 -0.046442977 -1.57655e-20)
(0.2707129 -0.047715295 -2.022856e-21)
(0.27652374 -0.048748803 2.6232174e-21)
(0.28283954 -0.049414791 -1.6608841e-21)
(0.28958121 -0.049729217 -4.6862037e-21)
(0.29670116 -0.049762592 -4.0159726e-21)
(0.30421035 -0.049558257 -1.2207815e-20)
(0.31210737 -0.049142933 1.7898099e-20)
(0.3203749 -0.048542089 6.522147e-21)
(0.32899288 -0.047780292 -1.6780791e-20)
(0.3379403 -0.046879385 1.0317634e-20)
(0.34719375 -0.045858706 8.3850151e-21)
(0.35672786 -0.044735757 -8.7913204e-22)
(0.36651602 -0.043526551 -3.1221941e-21)
(0.37653095 -0.042245771 -3.8199266e-21)
(0.386745 -0.040906923 -1.3893475e-21)
(0.39713045 -0.039522457 -1.2305045e-21)
(0.40765983 -0.038103868 -3.0259533e-21)
(0.41830617 -0.036661761 0)
(0.4290432 -0.035205893 -1.3452922e-21)
(0.43984552 -0.03374521 3.9311123e-21)
(0.45068881 -0.032287869 5.4056101e-21)
(0.4615499 -0.030841252 -9.4115122e-22)
(0.47240689 -0.029411986 -2.9277849e-21)
(0.48323926 -0.02800596 3.0262607e-21)
(0.4940279 -0.02662834 2.5436165e-22)
(0.50475516 -0.0252836 3.4357276e-21)
(0.51540488 -0.023975548 -5.3462487e-22)
(0.52596242 -0.022707357 1.7175822e-21)
(0.53641462 -0.021481613 -7.9982283e-22)
(0.54674981 -0.020300351 2.9108413e-22)
(0.55695781 -0.019165109 -4.3420234e-22)
(0.56702987 -0.018076977 5.6244362e-22)
(0.57695871 -0.017036656 4.5728014e-22)
(0.5867385 -0.016044518 3.827289e-22)
(0.59636478 -0.015100679 -9.598329e-22)
(0.60583484 -0.014205038 6.8394154e-22)
(0.61514677 -0.013357519 -3.6980249e-22)
(0.62430295 -0.012557683 -1.1042346e-21)
(0.63329998 -0.011806566 1.4091689e-21)
(0.64216067 -0.011101675 -6.2059418e-23)
(0.65084114 -0.010454333 -1.583783e-22)
(0.65950825 -0.0098378136 -7.8383522e-24)
(0.66774195 -0.0093548997 -1.2658853e-22)
(0.67684527 -0.0087322665 -4.6679723e-22)
(0.68328137 -0.0088804783 8.7860047e-22)
(0.69694212 -0.0074726232 -4.4351404e-23)
(0.37635484 -0.038369128 -1.749531e-20)
(0.37171347 -0.044271246 1.2832151e-20)
(0.37287078 -0.048162687 2.9755441e-21)
(0.37591455 -0.050099979 -7.6354598e-21)
(0.37830958 -0.051671152 1.2056123e-20)
(0.38072748 -0.053043607 7.791508e-21)
(0.38368079 -0.054031325 -1.2647809e-20)
(0.38710562 -0.05463444 -6.0680564e-21)
(0.39093455 -0.054919391 1.2697513e-20)
(0.39518804 -0.05492857 -1.5305288e-20)
(0.39988016 -0.054689 -1.4063393e-20)
(0.40500131 -0.054226185 1.4129974e-20)
(0.41053521 -0.053565239 6.8194955e-21)
(0.41646414 -0.052729575 -4.2040129e-21)
(0.42276751 -0.051740689 -1.854478e-21)
(0.42942182 -0.050618469 -4.058126e-21)
(0.43640171 -0.049381467 5.3047255e-21)
(0.44368067 -0.04804704 3.6682781e-21)
(0.45123146 -0.04663141 -3.2408599e-21)
(0.45902655 -0.045149727 3.1380114e-21)
(0.46703842 -0.043616122 2.7668092e-21)
(0.47523987 -0.042043744 -3.211258e-21)
(0.48360431 -0.040444775 3.7057534e-22)
(0.49210589 -0.038830451 -3.2572451e-21)
(0.50071974 -0.037211063 7.2460904e-21)
(0.50942205 -0.035595973 6.1085191e-21)
(0.51819022 -0.033993622 8.0989066e-22)
(0.52700296 -0.032411544 -1.7684598e-21)
(0.53584029 -0.030856392 3.7027459e-21)
(0.54468365 -0.029333961 7.1895918e-21)
(0.55351588 -0.027849224 2.3051873e-21)
(0.56232128 -0.026406376 3.3170883e-21)
(0.57108556 -0.025008881 1.9959568e-21)
(0.57979588 -0.023659525 7.4576471e-22)
(0.5884408 -0.022360478 -2.6377141e-22)
(0.5970103 -0.021113354 2.7211357e-21)
(0.60549575 -0.019919289 6.2012594e-22)
(0.61388992 -0.018779003 2.9497693e-22)
(0.62218695 -0.017692902 5.6250716e-23)
(0.63038267 -0.016661113 9.9025196e-22)
(0.63847368 -0.015683784 4.7037431e-23)
(0.6464608 -0.014760619 4.4284449e-22)
(0.65433932 -0.013893074 -1.2630903e-22)
(0.66212957 -0.013078386 -2.7767391e-22)
(0.6697888 -0.0123302 -1.5238323e-22)
(0.6774728 -0.01161712 -4.2273606e-22)
(0.68478776 -0.011060397 1.6181995e-22)
(0.69294337 -0.010339687 -1.2747087e-22)
(0.69867047 -0.010517735 -5.0110884e-22)
(0.71104794 -0.0088911235 2.4607088e-22)
(0.50927843 -0.035975405 3.6471277e-21)
(0.49953467 -0.042961844 -1.8958434e-20)
(0.49628001 -0.0473847 -2.3084182e-21)
(0.49556057 -0.049738062 5.4870012e-21)
(0.49417439 -0.051819384 3.0528723e-21)
(0.49270081 -0.053706808 -4.9829148e-23)
(0.4918176 -0.055189104 6.189812e-21)
(0.49152006 -0.05626691 7.6252186e-21)
(0.49171748 -0.0569921 9.858151e-21)
(0.49241682 -0.057397195 -1.125022e-20)
(0.49363744 -0.057507977 -2.1579818e-20)
(0.49537449 -0.057350146 -3.9354783e-21)
(0.49761173 -0.056948913 1.5938464e-20)
(0.50033043 -0.056328844 1.2809218e-20)
(0.50350945 -0.05551362 -5.9067358e-21)
(0.50712472 -0.054525786 1.381617e-21)
(0.51115003 -0.053386776 -3.6602661e-21)
(0.51555785 -0.052116985 2.2446334e-21)
(0.52031988 -0.050735749 -2.9123613e-22)
(0.52540746 -0.049261323 -1.8654786e-21)
(0.53079193 -0.047710878 7.8269841e-21)
(0.53644493 -0.04610049 -2.931644e-22)
(0.54233863 -0.044445135 4.1826209e-22)
(0.54844601 -0.042758679 -6.5640864e-22)
(0.55474096 -0.041053874 -4.3031831e-21)
(0.56119846 -0.039342359 4.2087775e-21)
(0.56779466 -0.037634666 1.9031804e-21)
(0.57450701 -0.035940236 -3.3084383e-21)
(0.58131427 -0.034267442 -4.1118735e-21)