/*--------------------------------*- C++ -*----------------------------------*\
  =========                 |
  \\      /  F ield         | OpenFOAM: The Open Source CFD Toolbox
   \\    /   O peration     | Website:  https://openfoam.org
    \\  /    A nd           | Version:  6
     \\/     M anipulation  |
\*---------------------------------------------------------------------------*/
FoamFile
{
    version     2.0;
    format      ascii;
    class       volSymmTensorField;
    location    "140";
    object      UPrime2Mean;
}
// * * * * * * * * * * * * * * * * * * * * * * * * * * * * * * * * * * * * * //

dimensions      [0 2 -2 0 0 0 0];

internalField   nonuniform List<symmTensor> 
9200
(
(0.00014128624 -0.00010967321 5.14416e-22 8.8025467e-05 -2.7523541e-22 8.3063698e-39)
(0.00086963742 -0.00069651975 1.3129606e-21 0.00055999261 -9.7986178e-22 9.0347068e-39)
(0.0017547309 -0.0013622509 1.6416858e-22 0.0010635886 -1.2382011e-22 4.9542404e-39)
(0.0027607921 -0.0020027959 -1.9727059e-21 0.0014689477 1.3880763e-21 9.8732052e-39)
(0.0037482946 -0.0025698438 9.0314416e-23 0.0017919263 -7.6052215e-23 1.4480786e-39)
(0.0046483055 -0.0030379876 8.2571204e-22 0.0020323831 -5.4937535e-22 2.2610337e-40)
(0.0054136898 -0.0033985966 -1.7673899e-22 0.0021989083 1.2294326e-22 6.5614596e-40)
(0.0060069768 -0.003652669 1.6071965e-22 0.0023057387 -1.0871603e-22 4.4193837e-40)
(0.0064028473 -0.0038058284 8.0116192e-22 0.0023665191 -4.8743637e-22 1.2604377e-39)
(0.0065889907 -0.0038661016 6.2142649e-23 0.0023928309 -3.8057021e-23 3.5911015e-42)
(0.0065660514 -0.0038428738 -8.6028883e-22 0.0023942175 5.30959e-22 6.7582166e-40)
(0.0063473489 -0.0037462409 7.1898258e-22 0.0023783061 -4.6084362e-22 9.1751258e-41)
(0.0059578325 -0.0035865965 -1.2803544e-21 0.0023509896 8.6820752e-22 1.4456341e-39)
(0.005431986 -0.0033743811 -6.4851624e-22 0.0023166766 4.4874665e-22 9.1598944e-41)
(0.0048107664 -0.0031199201 1.6815501e-22 0.0022785605 -1.2556858e-22 1.1745831e-41)
(0.0041378589 -0.002833281 -6.3226146e-22 0.0022388798 4.9875059e-22 1.2260943e-40)
(0.0034555639 -0.0025241443 5.543627e-22 0.0021992752 -4.7450035e-22 1.4895072e-40)
(0.0028007726 -0.0022018303 4.1035956e-22 0.0021619354 -3.680542e-22 6.1323054e-40)
(0.0022042662 -0.0018748894 -1.4791397e-23 0.002129782 3.1367087e-23 1.1332431e-40)
(0.0016993672 -0.0015495046 -8.5824707e-24 0.0020819934 2.8031337e-23 1.4046661e-40)
(0.00018634094 -0.00012456285 5.3905502e-23 8.5516616e-05 -2.0754148e-23 1.4595248e-40)
(0.0011083435 -0.00076861584 1.3910468e-21 0.00053464999 -9.0492112e-22 9.6391227e-39)
(0.0021987082 -0.0014808843 -4.5435227e-22 0.0010029521 3.0452838e-22 5.2369096e-39)
(0.0033632924 -0.0021372821 -3.5388621e-21 0.0013731061 2.214056e-21 2.2843139e-38)
(0.0044407528 -0.0026930955 -1.2054525e-22 0.0016617824 7.6862661e-23 2.8826566e-40)
(0.0053517982 -0.0031261946 2.7312944e-21 0.0018717311 -1.6146208e-21 7.555569e-39)
(0.0060484139 -0.0034333177 -1.1196645e-21 0.002014028 6.5607515e-22 2.5718579e-40)
(0.0065008447 -0.003621515 -3.3834866e-22 0.0021040536 1.9662597e-22 9.2829659e-41)
(0.0066981735 -0.0037020491 1.2836681e-21 0.0021557841 -7.5152221e-22 7.0767418e-40)
(0.006647579 -0.0036878347 -1.5556406e-21 0.0021805964 9.2695317e-22 8.1105106e-40)
(0.0063725306 -0.0035922697 -1.1032393e-21 0.0021873801 6.7470002e-22 1.004673e-39)
(0.0059102319 -0.003428564 2.3812703e-21 0.0021827359 -1.5171183e-21 5.1075001e-39)
(0.0053079304 -0.0032094019 1.1090055e-21 0.0021712324 -7.5324121e-22 3.5482777e-40)
(0.0046182019 -0.0029468282 -1.7462727e-21 0.0021557066 1.2686844e-21 1.7593333e-39)
(0.0038937572 -0.0026522405 3.1302837e-22 0.0021375573 -2.4567714e-22 1.4711693e-40)
(0.0031824896 -0.002336402 -6.9573468e-22 0.002117 6.1305978e-22 3.8986165e-40)
(0.0025233952 -0.0020094352 -2.8849588e-22 0.0020933501 3.0001709e-22 1.2319525e-40)
(0.0019438119 -0.0016806222 8.7975053e-22 0.0020653882 -9.9896134e-22 1.9897004e-39)
(0.0014596822 -0.00135741 4.1665742e-22 0.002029467 -5.6566764e-22 3.7595785e-40)
(0.0010811544 -0.001047251 -1.7724944e-22 0.001966839 2.2362485e-22 2.8683522e-39)
(0.00023717427 -0.00013510291 -4.504903e-22 7.8693171e-05 1.9187453e-22 3.7568202e-39)
(0.0013625731 -0.00081029192 -7.4965732e-22 0.00048312293 4.1646949e-22 3.9167681e-39)
(0.0026541643 -0.0015373363 -8.5677406e-22 0.00089547709 4.9902406e-22 9.7902833e-39)
(0.0039517723 -0.0021802184 2.8325953e-23 0.0012166085 -1.5589739e-23 1.061544e-42)
(0.0050761012 -0.0027003296 4.2115987e-23 0.0014634479 -1.9461665e-23 7.0332556e-39)
(0.0059436305 -0.0030812794 9.5838542e-22 0.0016414862 -5.1208426e-22 1.9663281e-39)
(0.0065141437 -0.0033264976 8.96703e-23 0.0017632933 -4.5233602e-23 8.1421542e-40)
(0.006775432 -0.0034492315 -1.6181635e-21 0.001844049 8.7311612e-22 5.1440243e-40)
(0.0067404675 -0.0034657093 1.9150418e-21 0.0018967129 -1.06032e-21 9.7379379e-40)
(0.0064436005 -0.0033924861 6.3033015e-22 0.0019311955 -3.6666333e-22 1.0765344e-39)
(0.0059355758 -0.0032453937 -1.7320923e-21 0.0019546036 1.0539445e-21 2.2173607e-39)
(0.0052776154 -0.003039125 -5.4231945e-22 0.001971554 3.5424893e-22 7.262224e-40)
(0.0045347115 -0.0027872262 1.9871608e-22 0.0019845402 -1.3885909e-22 1.9701742e-39)
(0.0037688464 -0.0025022977 4.685864e-22 0.0019943347 -3.6711786e-22 2.8187957e-40)
(0.0030331311 -0.0021962101 -1.6318886e-22 0.0020003926 1.4332176e-22 2.1645532e-40)
(0.0023677192 -0.0018802118 3.809996e-22 0.0020012489 -3.8636068e-22 1.6970648e-40)
(0.0017979703 -0.001564877 -2.6295522e-22 0.0019949022 3.1429286e-22 6.4717991e-41)
(0.0013348343 -0.0012598313 -5.3134372e-22 0.0019790473 7.5033512e-22 1.596403e-39)
(0.00097725592 -0.00097308681 -1.5314377e-23 0.0019506998 1.6553378e-23 1.4452121e-39)
(0.0007167205 -0.00071200887 1.8356558e-22 0.0019036307 -4.0813496e-22 1.620579e-40)
(0.00029206617 -0.00013973556 -3.5772435e-22 6.816827e-05 1.318698e-22 1.8659973e-39)
(0.0016191942 -0.00081456183 5.4379156e-22 0.00041076769 -2.6688751e-22 3.4684461e-40)
(0.0030935442 -0.0015218744 4.8297196e-22 0.00075319979 -2.3841026e-22 4.0278771e-40)
(0.0044859619 -0.0021235837 1.0557174e-21 0.0010178795 -5.0448671e-22 4.3474939e-39)
(0.0056060324 -0.0025892633 9.2605924e-22 0.0012211742 -4.4075923e-22 1.9335523e-39)
(0.0063752754 -0.0029098502 -1.6216781e-21 0.0013704712 7.7351379e-22 1.4735212e-39)
(0.0067720383 -0.0030953535 -9.0593591e-22 0.0014783549 4.4035615e-22 4.1918512e-40)
(0.0068118158 -0.0031637706 0 0.0015582735 0 0)
(0.0065391613 -0.0031341713 9.8756654e-22 0.001620829 -5.403432e-22 5.4170477e-39)
(0.0060192875 -0.003024416 -4.2749267e-22 0.0016733543 2.5453821e-22 2.0522833e-39)
(0.0053289208 -0.0028506183 -2.5045134e-21 0.0017202983 1.5094417e-21 1.7943399e-39)
(0.0045470009 -0.0026272823 -3.2130742e-22 0.0017636585 2.0441661e-22 3.6643556e-40)
(0.0037460592 -0.0023677483 1.2277489e-21 0.0018034632 -9.2722186e-22 2.4583756e-39)
(0.0029854246 -0.0020846269 7.1588562e-23 0.0018382984 -4.6833615e-23 1.0212099e-39)
(0.0023071864 -0.0017899931 -1.8897387e-23 0.0018658531 1.8843752e-23 7.1201795e-43)
(0.0017352411 -0.0014952616 2.0254046e-22 0.001883473 -2.3925106e-22 1.2531756e-40)
(0.0012770913 -0.0012107996 2.0670911e-24 0.0018886407 3.8252344e-24 1.4784116e-40)
(0.00092753693 -0.00094542011 -3.576279e-22 0.0018791991 6.1793355e-22 3.7855338e-40)
(0.00067301406 -0.00070586204 -1.9748866e-22 0.0018542273 4.2839667e-22 2.6458908e-40)
(0.00049605999 -0.00049692258 9.7148248e-23 0.0018166403 -3.1217487e-22 1.6802171e-39)
(0.00034849664 -0.00013713692 2.6999332e-22 5.493239e-05 -8.6016718e-23 7.3411455e-40)
(0.0018619696 -0.00077694735 1.1242502e-21 0.00032498502 -4.4844339e-22 6.6141875e-39)
(0.0034858461 -0.0014305407 8.7931539e-22 0.00059107312 -3.6285851e-22 4.1718314e-40)
(0.0049249045 -0.001968194 9.8109632e-22 0.0007980161 -4.0144564e-22 2.3259826e-39)
(0.0059875262 -0.0023687994 -1.5064992e-21 0.00096063891 6.2415183e-22 3.6640028e-39)
(0.0066118066 -0.0026306135 5.5921749e-23 0.0010869073 -1.8069788e-23 3.4874593e-40)
(0.0068056228 -0.0027682199 8.5796851e-23 0.0011878236 -3.7580717e-23 2.923157e-42)
(0.006620093 -0.0028012943 1.2193296e-21 0.0012737774 -5.7175698e-22 1.3075992e-39)
(0.0061345707 -0.0027485598 1.6428721e-22 0.0013520231 -8.1918749e-23 1.1740719e-41)
(0.0054428287 -0.0026264754 -4.4003134e-22 0.0014266127 2.5218391e-22 7.0829483e-40)
(0.0046400791 -0.0024495612 1.4272206e-21 0.0014988796 -8.972562e-22 4.9336321e-39)
(0.0038118906 -0.002231158 -1.0400474e-21 0.0015679708 6.9400799e-22 4.19622e-40)
(0.0030261805 -0.0019841156 -1.9515516e-21 0.0016314579 1.548401e-21 2.9890994e-39)
(0.0023291464 -0.0017210716 -6.4379057e-23 0.0016860159 6.0340537e-23 6.3409956e-42)
(0.0017452103 -0.0014542191 6.8963296e-22 0.0017281219 -7.894918e-22 2.4410146e-39)
(0.0012801834 -0.0011946918 0 0.0017547122 0 0)
(0.00092634007 -0.000951818 8.7304785e-23 0.0017636508 -1.2827403e-22 6.3551842e-41)
(0.00066797446 -0.00073253645 -4.2469723e-23 0.0017538107 9.7253821e-23 9.4710244e-41)
(0.0004860718 -0.0005411699 -4.4064712e-23 0.001726268 9.8837543e-23 2.4754011e-41)
(0.00036170022 -0.0003793964 1.9619754e-23 0.0016885025 -9.1260062e-23 1.705032e-40)
(0.00040340261 -0.00012652314 5.9028043e-22 4.036403e-05 -1.5205533e-22 2.9687245e-39)
(0.0020738049 -0.00069692346 5.7756515e-23 0.0002348411 -1.8969151e-23 5.4871906e-42)
(0.0038015927 -0.0012671934 -1.6543091e-22 0.00042589497 5.5963788e-23 2.4284355e-41)
(0.0052343942 -0.0017254471 1.6737289e-22 0.00057904958 -5.4199498e-23 4.8045209e-40)
(0.0061916538 -0.0020594983 -1.0355454e-21 0.00070665285 3.6460132e-22 9.0049215e-40)
(0.0066399866 -0.0022728219 -4.9656267e-22 0.00081586465 1.8179377e-22 8.1076577e-41)
(0.0066253889 -0.0023807273 3.4843611e-22 0.00091487891 -1.0744023e-22 2.5684466e-39)
(0.0062377764 -0.0024004506 -1.3210314e-23 0.0010102893 1.4842956e-23 2.0097033e-40)
(0.0055884427 -0.0023470285 -8.3174899e-22 0.0011056042 4.1804084e-22 2.1228061e-39)
(0.0047915025 -0.0022334147 1.4396261e-21 0.0012014021 -7.5741999e-22 6.1594114e-40)
(0.0039490762 -0.0020716742 -3.6763857e-23 0.0012958676 5.5230852e-23 1.1038624e-39)
(0.0031413002 -0.0018740042 -1.1344655e-21 0.0013854425 8.3928868e-22 3.0320041e-39)
(0.0024218092 -0.001653111 0 0.0014656152 0 0)
(0.0018183762 -0.001421828 2.7240762e-22 0.001531783 -3.1827422e-22 1.631221e-39)
(0.0013373926 -0.0011921972 1.3115074e-23 0.001580061 -2.9855841e-23 8.9384751e-41)
(0.00097030978 -0.00097441448 -3.29007e-22 0.001607912 5.3454795e-22 1.8916618e-39)
(0.00070024129 -0.00077601383 -7.4569183e-23 0.0016144242 1.3776165e-22 3.9185894e-41)
(0.00050744081 -0.00060154891 -2.2239889e-23 0.0016001105 6.4018149e-23 6.3600242e-41)
(0.0003728817 -0.00045287927 -2.9425753e-23 0.0015678289 8.6304854e-23 2.4563389e-41)
(0.00028002846 -0.00032948726 5.2250932e-23 0.0015265488 -2.1101765e-22 2.3545285e-40)
(0.00045352284 -0.00010784805 2.2778529e-22 2.6092276e-05 -4.3831728e-23 4.7016016e-40)
(0.0022389609 -0.00057839408 -1.6312629e-21 0.00014993022 4.1058169e-22 1.0223253e-38)
(0.0040168505 -0.0010433724 -1.46439e-22 0.00027402791 4.1423599e-23 9.5457236e-40)
(0.0053918086 -0.0014157951 -4.3698e-22 0.00038088321 1.2865512e-22 4.8014492e-39)
(0.0062074812 -0.0016900841 -3.2236281e-22 0.00047980761 9.0006278e-23 6.6161817e-41)
(0.0064689227 -0.0018707821 -1.8259423e-21 0.00057623319 5.6988145e-22 8.7291276e-40)
(0.0062640893 -0.0019689587 -8.9360004e-22 0.00067512714 3.1757956e-22 7.0735569e-40)
(0.005718788 -0.0019953333 1.7236207e-21 0.00077934641 -6.5592356e-22 5.6310819e-40)
(0.0049676895 -0.0019588291 2.942123e-22 0.00088885847 -1.5364726e-22 7.272778e-40)
(0.0041333881 -0.0018680956 -3.776415e-22 0.0010009943 1.7317509e-22 2.4821976e-40)
(0.0033128881 -0.0017330535 1.7729099e-22 0.0011110696 -6.5368329e-23 9.3368261e-40)
(0.0025716899 -0.0015654431 -3.2825427e-23 0.0012132513 4.5307772e-23 2.366598e-40)
(0.0019446194 -0.0013782626 0 0.001301599 0 0)
(0.0014414249 -0.0011844398 1.8547945e-22 0.001371086 -1.9640403e-22 5.6375083e-41)
(0.0010546164 -0.00099532791 -3.9269868e-22 0.0014183819 5.2413113e-22 7.7410235e-40)
(0.00076724978 -0.00081956118 -1.2727441e-22 0.0014422483 1.9922834e-22 6.6303712e-41)
(0.00055915881 -0.00066255362 2.1835666e-22 0.001443451 -4.5006157e-22 9.2676177e-40)
(0.00041106249 -0.00052667339 -4.9275011e-23 0.0014242155 6.5915643e-23 2.001598e-40)
(0.00030657587 -0.0004120199 -3.2236503e-24 0.0013886424 -5.828759e-24 2.2466667e-41)
(0.00023261136 -0.00031707789 4.9669873e-23 0.0013452625 -1.5145051e-22 1.952901e-41)
(0.00049576464 -8.1866653e-05 1.6589802e-22 1.3777914e-05 -2.1775402e-23 2.9440597e-40)
(0.0023450619 -0.00042934712 -1.5091155e-21 7.9024424e-05 2.7207841e-22 4.6872372e-39)
(0.004116162 -0.0007767531 -1.1794256e-21 0.00014912787 2.3421366e-22 5.611165e-39)
(0.0053885827 -0.0010655911 1.67685e-21 0.00021869957 -3.515167e-22 1.3719965e-39)
(0.0060422439 -0.0012926673 1.2618368e-21 0.0002942047 -2.8538776e-22 2.8352573e-40)
(0.0061261638 -0.0014581198 -9.201402e-22 0.00037935582 2.0427595e-22 2.9774804e-39)
(0.005768032 -0.0015639188 3.0091621e-22 0.00047647214 -1.1553866e-22 1.2616019e-39)
(0.0051209863 -0.0016113785 1.754382e-21 0.00058543977 -6.2765421e-22 1.4075905e-39)
(0.0043310029 -0.0016024705 7.6750446e-22 0.00070328612 -3.0443704e-22 1.7637183e-40)
(0.003516984 -0.0015421015 -7.5222054e-22 0.0008245388 3.8817937e-22 4.5891882e-40)
(0.0027616522 -0.0014390845 -1.0179959e-21 0.00094210079 6.1312771e-22 5.4403298e-40)
(0.0021115448 -0.0013054394 -2.7683215e-23 0.0010484829 2.0235894e-23 5.6681998e-43)
(0.001583282 -0.0011545489 2.9130316e-22 0.0011371177 -2.5796329e-22 8.8038631e-41)
(0.0011727518 -0.00099900759 -9.5280642e-24 0.0012034082 3.3887728e-23 1.3638415e-40)
(0.00086427147 -0.00084893093 -9.7818545e-24 0.0012452691 5.4987387e-23 3.6912082e-40)
(0.00063786499 -0.00071112785 6.4630966e-24 0.0012630996 -7.163768e-23 6.6679411e-40)
(0.00047399447 -0.00058912851 1.0081966e-22 0.0012592592 -2.0490643e-22 1.9445209e-40)
(0.00035598671 -0.0004838222 -5.6070596e-23 0.0012372468 1.7214386e-22 5.0884007e-40)
(0.00027075043 -0.00039448671 -1.4504485e-22 0.0012016564 4.1598979e-22 9.8288688e-40)
(0.0002083751 -0.00031951256 4.8961061e-23 0.0011595177 -1.2134011e-22 2.1629418e-41)
(0.00052771003 -5.0074409e-05 -4.2954684e-22 4.8774138e-06 3.5785868e-23 8.7929347e-40)
(0.0023848039 -0.00026084376 -3.3187286e-22 2.8871231e-05 3.5701989e-23 9.4729083e-40)
(0.004094118 -0.00048871911 2.5830854e-21 6.0447313e-05 -3.284436e-22 1.1590075e-38)
(0.0052306301 -0.00070332309 1.9152842e-21 0.00010144537 -2.7811973e-22 1.2618695e-39)
(0.0057192527 -0.0008982347 8.542492e-22 0.00015673463 -1.3455249e-22 6.2063138e-40)
(0.0056523328 -0.001063653 1.7221528e-22 0.0002294356 -3.5419299e-23 5.9271759e-42)
(0.0051891198 -0.0011889444 -1.610938e-21 0.00032061938 3.5906374e-22 2.5928858e-39)
(0.0044978013 -0.0012649986 0 0.00042833581 0 0)
(0.0037231077 -0.0012875869 -9.8177631e-22 0.00054737403 4.2853352e-22 2.1485302e-39)
(0.0029707299 -0.0012592803 -1.6795703e-22 0.0006699475 1.1200202e-22 4.8768197e-40)
(0.0023045213 -0.0011888885 4.7886932e-22 0.00078709162 -2.7980535e-22 1.1678036e-40)
(0.0017524567 -0.0010890625 5.0665526e-23 0.00089037061 -6.6576755e-23 2.6838477e-40)
(0.0013168871 -0.000973275 -2.2662072e-22 0.00097336578 2.2506775e-22 3.1127757e-40)
(0.00098521579 -0.00085328396 -1.6962264e-22 0.0010325338 2.2677628e-22 6.6708751e-40)
(0.00073855204 -0.00073769575 1.1036611e-22 0.0010673065 -1.125959e-22 8.1626251e-41)
(0.00055743067 -0.00063167576 1.522089e-22 0.0010795665 -1.9779766e-22 7.4491396e-41)
(0.00042482319 -0.00053746518 -1.347736e-22 0.0010727647 2.2626583e-22 6.8756599e-41)
(0.00032721407 -0.00045527747 -1.7900111e-22 0.0010509914 3.9417824e-22 8.2136644e-40)
(0.00025453411 -0.00038430524 1.4470145e-23 0.0010186393 -2.807695e-24 9.7113202e-41)
(0.00019942134 -0.00032327637 2.3836538e-23 0.00098083321 -8.3619929e-23 1.1434243e-40)
(0.00054753069 -1.4466962e-05 -2.8359853e-22 4.387831e-07 7.230561e-24 4.3024795e-40)
(0.0023559857 -8.5625067e-05 1.2072186e-21 3.397319e-06 -4.3353197e-23 2.3846927e-39)
(0.0039551779 -0.00020185446 1.8459173e-21 1.2020073e-05 -1.1396356e-22 1.7310779e-38)
(0.0049369318 -0.00035646602 -2.1510151e-21 3.1606453e-05 1.8682236e-22 4.7607284e-39)
(0.0052737491 -0.00053367409 7.7386504e-22 6.7802388e-05 -8.5655193e-23 1.1886716e-40)
(0.0050942004 -0.00070953804 3.1402778e-22 0.00012514374 2.3710097e-24 4.4018355e-39)
(0.0045768246 -0.00085949851 8.3141658e-23 0.00020519261 -1.7016127e-23 1.5626187e-42)
(0.0038917765 -0.00096496443 -1.1797404e-21 0.00030525776 2.744508e-22 1.4783107e-39)
(0.0031723012 -0.0010173826 -2.6724399e-23 0.00041848529 9.3347724e-24 2.3348976e-43)
(0.0025055978 -0.0010185956 4.37741e-22 0.00053525925 -2.3082081e-22 5.6425056e-40)
(0.0019364791 -0.00097812969 3.4045917e-23 0.00064536492 -3.5686696e-23 8.0934266e-41)
(0.001477862 -0.00090914864 -1.5829692e-22 0.00074013287 4.1806873e-23 1.0470395e-39)
(0.0011228792 -0.00082473629 -3.4915589e-22 0.00081388713 2.8705081e-22 1.1420714e-40)
(0.00085518033 -0.00073547244 -1.5150214e-24 0.00086439816 2.7847288e-23 1.3641328e-40)
(0.00065602944 -0.00064851547 1.1728431e-22 0.00089245342 -1.565089e-22 1.3248238e-40)
(0.00050825954 -0.00056782934 7.7748726e-23 0.00090091388 -1.2586826e-22 1.2875252e-40)
(0.00039789067 -0.0004949914 1.7131857e-23 0.00089365768 -5.9801043e-23 2.0929152e-40)
(0.00031436092 -0.00043012673 -1.249551e-22 0.00087472268 1.7688936e-22 1.6664831e-40)
(0.00025008806 -0.00037271478 -2.6690287e-23 0.00084783866 -1.7642075e-23 7.1810987e-40)
(0.00019964151 -0.00032187397 6.6676701e-23 0.00081627142 -2.1510981e-22 1.1831554e-39)
(3.680791e-06 -4.5949744e-07 3.6798821e-23 5.6155966e-07 -7.3662524e-24 4.2050066e-40)
(1.7353483e-05 -7.2635824e-06 -5.2501676e-23 3.731217e-06 1.4547566e-23 4.048475e-40)
(3.8870726e-05 -1.678708e-05 1.1662825e-22 7.4374998e-06 -4.3674813e-23 2.3249048e-39)
(0.00012461711 -3.5419403e-05 3.2545875e-22 1.0662382e-05 -6.9367905e-23 7.8194425e-39)
(0.00027344071 -5.8410546e-05 -2.324251e-22 1.3555195e-05 3.9548768e-23 2.0333807e-39)
(0.00048857645 -8.4122108e-05 2.9287925e-22 1.6117581e-05 -3.9701926e-23 2.2468106e-39)
(0.00077695473 -0.00011166334 -4.0182512e-22 1.8353123e-05 5.0920063e-23 2.4670386e-39)
(0.0011403285 -0.00014014573 -4.1432464e-22 2.0309099e-05 4.3218318e-23 2.6088861e-39)
(0.0015768446 -0.00016884837 5.2068397e-22 2.2036536e-05 -5.3849783e-23 2.7574955e-39)
(0.0020834523 -0.00019723957 -4.0381269e-22 2.3575404e-05 3.9332787e-23 1.4043197e-39)
(0.0026563662 -0.00022491898 -2.0265781e-23 2.4956201e-05 3.3706751e-25 1.6340596e-41)
(0.0032911286 -0.00025157671 1.1587391e-22 2.6202371e-05 -1.2309721e-23 5.1585219e-41)
(0.0039828155 -0.00027696899 -2.0016727e-23 2.7331947e-05 9.5545755e-25 8.2009842e-42)
(0.0047262287 -0.00030090309 6.2867434e-22 2.8359436e-05 -5.623412e-23 2.458351e-39)
(0.0055160118 -0.00032323248 9.3108445e-25 2.9298189e-05 1.1928217e-24 5.3158789e-42)
(0.0063467669 -0.00034386559 -9.2016875e-22 3.01628e-05 8.6039112e-23 5.0543775e-39)
(0.0072132116 -0.00036277363 1.6999253e-22 3.0968836e-05 -1.7926576e-23 1.065896e-40)
(0.0081102023 -0.00037995592 4.1137645e-22 3.1727937e-05 -4.0893133e-23 1.2852689e-39)
(0.0090326207 -0.00039549115 -6.6464179e-22 3.2451635e-05 7.1038485e-23 3.6424287e-39)
(0.0099747017 -0.00040992825 -3.6535641e-22 3.3135374e-05 4.1845448e-23 1.3676888e-39)
(4.1689345e-06 -1.9230304e-06 1.2114142e-23 4.9422436e-06 -4.4708832e-24 4.1572124e-41)
(2.2122795e-05 -2.4889708e-05 -3.3247437e-22 3.2879954e-05 2.5067948e-22 1.3539229e-38)
(4.9644166e-05 -5.6506044e-05 6.5986737e-23 6.551748e-05 -5.4589383e-23 1.222005e-39)
(0.00014659619 -0.00011464438 3.4999438e-22 9.392682e-05 -2.1483745e-22 6.5343385e-39)
(0.00030836115 -0.00018533983 4.861118e-22 0.00011935645 -2.333822e-22 7.3890757e-39)
(0.00053709797 -0.00026377629 5.8754671e-23 0.00014178623 -2.3528169e-23 6.940901e-41)
(0.00083887651 -0.00034729415 -1.5613609e-21 0.000161254 5.3989555e-22 3.6953923e-38)
(0.0012144231 -0.00043326747 -5.4890158e-23 0.00017817943 2.2699446e-23 1.0639525e-41)
(0.0016609656 -0.00051958078 8.8180007e-22 0.00019301135 -2.676759e-22 6.3043042e-39)
(0.0021746151 -0.00060467435 -2.1267832e-22 0.00020610187 5.8517512e-23 3.5057386e-40)
(0.0027507608 -0.0006873709 -8.0628347e-22 0.00021771979 2.2015569e-22 3.8877728e-39)
(0.0033841149 -0.00076675616 1.6949192e-22 0.00022807044 -4.3162948e-23 1.7703136e-40)
(0.0040689112 -0.00084210699 7.1496686e-22 0.00023730945 -1.5909251e-22 4.1716155e-39)
(0.0047990786 -0.00091284536 2.9485878e-22 0.00024555887 -7.3081624e-23 4.7620237e-40)
(0.0055683287 -0.00097852116 5.8846981e-22 0.00025292745 -1.5649427e-22 1.3762844e-39)
(0.0063702714 -0.0010388354 -4.6432684e-22 0.00025953098 1.1675616e-22 1.1649154e-39)
(0.007198705 -0.0010936718 -4.4275682e-22 0.0002654947 1.1033031e-22 1.2743563e-39)
(0.008047513 -0.0011429875 4.4569016e-22 0.00027091983 -1.2696645e-22 7.3555412e-40)
(0.008908906 -0.0011869983 4.0511516e-22 0.00027592106 -1.1280693e-22 1.28765e-39)
(0.009773586 -0.0012277803 1.5573883e-22 0.00028050009 -4.175671e-23 5.4737316e-40)
(5.3591703e-06 -4.9247306e-06 9.3212386e-24 1.3183199e-05 -4.656445e-24 2.1878267e-41)
(3.3438344e-05 -5.1435392e-05 2.5248716e-22 8.7769338e-05 -2.7025966e-22 5.770107e-39)
(7.4712397e-05 -0.00011363368 -5.5237309e-23 0.00017474041 7.1178221e-23 3.0216088e-40)
(0.00019508915 -0.00021753851 -3.8014427e-22 0.00025039704 3.1997059e-22 7.1541649e-39)
(0.00038356808 -0.00034073026 1.3973847e-22 0.00031787716 -1.1726577e-22 2.0231274e-40)
(0.00064014374 -0.00047542573 1.8478943e-22 0.00037698512 -1.5013856e-22 1.0587856e-40)
(0.00096915719 -0.00061723504 -2.3056457e-22 0.00042781417 1.2206703e-22 6.3724787e-40)
(0.0013693987 -0.00076191244 -6.0121938e-22 0.00047148322 3.5036456e-22 1.2706907e-39)
(0.0018363456 -0.00090606805 2.6309458e-22 0.00050918604 -1.2763521e-22 3.5570742e-40)
(0.0023644929 -0.001047195 5.5849189e-22 0.00054186648 -2.3164161e-22 2.020948e-39)
(0.0029476397 -0.0011833872 1.5440091e-22 0.00057024899 -1.072546e-22 7.5646926e-41)
(0.0035789071 -0.0013131503 6.8174095e-22 0.0005948853 -2.2550253e-22 3.7511023e-39)
(0.004250918 -0.0014352847 5.7659313e-23 0.00061618716 -2.1306648e-23 1.5545074e-41)
(0.0049559416 -0.0015488075 -1.0088149e-21 0.00063446572 3.3952142e-22 6.0294185e-39)
(0.0056859411 -0.0016529201 7.3503971e-23 0.00064998524 -4.8872784e-23 3.3409209e-41)
(0.0064326936 -0.0017470476 -4.7004498e-22 0.00066301975 1.3007386e-22 2.3501663e-39)
(0.0071883405 -0.0018309117 -6.5963212e-22 0.00067386682 2.6153179e-22 9.6379759e-40)
(0.0079451205 -0.0019043558 1.0681237e-21 0.0006828212 -4.1704271e-22 3.2004975e-39)
(0.0086908362 -0.0019676818 5.6193882e-22 0.00069036319 -2.3362644e-22 6.5048654e-40)
(0.0094108959 -0.0020252935 1.1237327e-22 0.00069681484 -5.1492995e-23 1.3941295e-41)
(7.8953911e-06 -1.0187785e-05 -1.3961831e-23 2.4279996e-05 1.758707e-23 3.2011504e-41)
(5.4811223e-05 -9.1320266e-05 -5.8483504e-22 0.00016191015 7.3967163e-22 1.9143651e-38)
(0.00012121097 -0.00019680244 -4.2531527e-23 0.00032203508 5.4655759e-23 2.6167341e-40)
(0.00028026641 -0.00035557245 9.7875469e-23 0.00046108083 -1.0835306e-22 1.6669888e-40)
(0.00051209371 -0.00053791661 -1.58763e-23 0.00058447098 4.1370422e-24 4.3082396e-41)
(0.00081348974 -0.000733265 4.9833364e-22 0.00069150858 -3.6508665e-22 3.1436316e-39)
(0.001186145 -0.0009354982 5.5060272e-22 0.00078231427 -3.592647e-22 2.8556267e-39)
(0.0016259929 -0.0011389134 -1.6691518e-22 0.00085895331 8.0553632e-23 4.501369e-40)
(0.0021259085 -0.0013390111 -6.1086128e-22 0.00092364119 3.1850218e-22 2.8613111e-39)
(0.002677955 -0.0015324427 -1.2291183e-21 0.0009781552 6.6189524e-22 6.0638155e-39)
(0.003273544 -0.0017166327 -2.7308252e-23 0.0010238789 -1.4358528e-23 1.3856768e-40)
(0.003903433 -0.0018895357 1.5606102e-21 0.001061875 -7.2551101e-22 9.9107994e-39)
(0.0045578773 -0.0020494762 -6.322548e-22 0.0010929347 2.4026581e-22 2.9313448e-39)
(0.0052267788 -0.0021950528 -4.0731747e-22 0.00111765 1.7807044e-22 5.780673e-40)
(0.0058997057 -0.0023250859 -4.8436752e-23 0.0011365018 5.5154707e-23 1.2489725e-40)
(0.006566036 -0.002438665 9.6073548e-22 0.0011499586 -4.2119204e-22 2.3699144e-39)
(0.0072158235 -0.0025352912 -5.4262583e-22 0.0011585149 2.7277302e-22 1.5791901e-40)
(0.0078395571 -0.002614735 -1.2424919e-21 0.0011627893 5.2400544e-22 5.1031985e-39)
(0.0084202235 -0.00267744 8.3034389e-22 0.0011642596 -3.6284303e-22 2.5657142e-39)
(0.0089375971 -0.0027305113 7.1621942e-22 0.0011646478 -2.880767e-22 2.3876092e-39)
(1.262708e-05 -1.8146025e-05 6.2665405e-23 3.7014733e-05 -6.0904651e-23 4.1232866e-40)
(9.0919833e-05 -0.00014711849 2.0376732e-23 0.00024708889 -5.3224497e-24 1.8604724e-40)
(0.00019855605 -0.00031095712 -8.049756e-22 0.00049056577 1.152982e-21 1.5698974e-38)
(0.00041523405 -0.00053499156 -4.6239182e-22 0.00070126313 4.9117395e-22 4.8579092e-39)
(0.00071002263 -0.00078346314 3.0884241e-22 0.00088690505 -2.458695e-22 2.9367289e-39)
(0.0010753847 -0.0010430269 3.8314136e-22 0.0010459053 -3.0867666e-22 1.3829195e-39)
(0.0015092458 -0.001305774 -4.9865346e-22 0.0011783979 3.2540619e-22 3.2366892e-39)
(0.0020036372 -0.0015647391 -7.6002247e-22 0.0012875871 4.3558852e-22 7.1026401e-39)
(0.0025478652 -0.0018145273 1.1225895e-21 0.0013769374 -6.6983181e-22 7.2856468e-39)
(0.0031306428 -0.00205111 3.2239375e-22 0.0014492867 -1.2999278e-22 1.6966083e-39)
(0.003740124 -0.0022713662 -1.0092254e-21 0.0015068991 6.6876977e-22 5.5864267e-40)
(0.0043639155 -0.0024728056 4.433125e-22 0.0015515541 -2.0092592e-22 1.3059866e-39)
(0.0049892749 -0.0026533906 0 0.001584613 0 0)
(0.0056032791 -0.0028114147 4.3022455e-22 0.0016071077 -2.0951851e-22 5.1080437e-40)
(0.0061928933 -0.0029454393 -3.2230575e-22 0.0016198608 1.5313154e-22 2.7275136e-40)
(0.0067451934 -0.0030543419 -4.9279385e-22 0.0016236156 2.4642026e-22 3.3082581e-40)
(0.0072486414 -0.0031375314 1.8090602e-22 0.0016190745 -1.4963332e-22 4.6619028e-40)
(0.0076931479 -0.0031949637 -1.4727415e-22 0.0016072008 8.8724926e-23 1.6786e-41)
(0.0080585381 -0.0032275958 7.0353316e-22 0.001591209 -3.0495153e-22 2.7646402e-39)
(0.0083189841 -0.0032449319 -5.7255676e-22 0.0015763688 2.819509e-22 1.6031844e-40)
(2.0536539e-05 -2.8934318e-05 6.0113783e-23 5.0176948e-05 -5.0543112e-23 3.3105137e-40)
(0.00014703638 -0.00021929052 2.8925512e-22 0.00033466848 -3.8525151e-22 1.2344192e-39)
(0.00031712179 -0.00045658279 -3.8815161e-22 0.00066230981 5.1523868e-22 2.9468844e-39)
(0.0006137531 -0.00075546002 -6.3617763e-22 0.00094421591 7.1625178e-22 2.4650242e-39)
(0.00099292469 -0.0010752594 -1.8524705e-22 0.001190177 2.7345575e-22 1.9466291e-39)
(0.001441313 -0.0013996983 -5.7451681e-22 0.0013974799 5.0499362e-22 1.2115973e-39)
(0.0019516678 -0.0017190163 -2.681334e-22 0.0015663937 1.650082e-22 1.4014028e-39)
(0.0025109205 -0.0020252576 4.6367619e-22 0.0017014585 -2.786811e-22 2.5848042e-39)
(0.0031037534 -0.0023124573 1.1065259e-21 0.0018076062 -6.590582e-22 8.8489801e-39)
(0.0037145921 -0.0025762188 3.4006127e-22 0.0018889863 -2.093321e-22 3.709571e-40)
(0.0043276298 -0.0028132043 -3.230131e-22 0.0019490069 1.7133366e-22 5.8866671e-40)
(0.0049268887 -0.0030208255 -6.1074181e-23 0.0019904314 -1.3171796e-23 5.1287294e-40)
(0.0054965415 -0.0031970575 -1.5326355e-21 0.0020154509 8.3905599e-22 4.8778938e-39)
(0.0060212279 -0.0033403159 -4.7516457e-22 0.0020257844 2.4861572e-22 5.0457701e-40)
(0.0064862749 -0.0034493869 7.9367381e-22 0.0020228119 -4.6034121e-22 2.3818934e-40)
(0.0068780585 -0.0035234497 -7.9026579e-22 0.0020077058 4.2814609e-22 4.9802945e-40)
(0.0071856551 -0.0035622911 -2.7840853e-22 0.0019813922 1.3727122e-22 1.5956218e-40)
(0.0074015304 -0.0035665298 6.2270945e-22 0.0019449569 -2.6228628e-22 2.4823386e-39)
(0.0075068976 -0.0035382785 9.4065515e-22 0.0019035444 -4.7187898e-22 1.8800109e-39)
(0.0074714167 -0.0034886117 1.1476021e-22 0.0018685778 -5.3748719e-23 3.6629423e-41)
(3.2666419e-05 -4.23981e-05 -1.6956248e-22 6.2664837e-05 1.3768631e-22 1.9588026e-39)
(0.00022839391 -0.00030613814 -1.8791185e-22 0.00041646535 1.9064688e-22 1.5612716e-39)
(0.00048666072 -0.00062941991 4.7261485e-22 0.00082010326 -5.9792578e-22 7.1067298e-40)
(0.00088760131 -0.0010094777 7.2212915e-22 0.001164471 -7.4839511e-22 3.272612e-39)
(0.0013720452 -0.0014017468 9.4345072e-24 0.0014610954 -8.4981338e-24 6.4996675e-43)
(0.0019190076 -0.0017868194 -1.959198e-21 0.0017062346 1.6171984e-21 1.9117486e-38)
(0.0025144127 -0.0021531722 -7.6494005e-22 0.0019006442 6.5565254e-22 2.7159843e-40)
(0.0031388822 -0.0024923192 5.9604245e-22 0.0020504675 -4.0205016e-22 2.0982047e-39)
(0.0037716401 -0.0027982972 6.8211399e-22 0.0021623398 -4.5830195e-22 1.2827486e-39)
(0.0043923709 -0.0030669519 -6.6906167e-22 0.002241977 3.7237712e-22 3.5226817e-39)
(0.004981278 -0.0032953717 -1.9593557e-21 0.0022942026 1.2376784e-21 5.128344e-39)
(0.0055193638 -0.0034815692 1.287211e-21 0.0023230342 -7.8085125e-22 2.1081364e-39)
(0.0059889807 -0.0036242931 7.6610589e-22 0.0023317583 -3.9955901e-22 2.5282788e-39)
(0.0063743949 -0.0037229073 -1.0597412e-21 0.002323034 5.8537427e-22 2.0849861e-39)
(0.0066622388 -0.0037773117 4.6476122e-22 0.0022990213 -2.6883601e-22 1.3950093e-40)
(0.0068419963 -0.0037879029 7.7059011e-22 0.0022614812 -3.9733659e-22 1.5531724e-39)
(0.0069077622 -0.003755657 2.930201e-22 0.0022115746 -1.656487e-22 5.2738101e-41)
(0.0068595252 -0.0036824259 -5.0141693e-22 0.0021500789 3.1125766e-22 6.642554e-41)
(0.0066867834 -0.0035719207 -1.1552304e-22 0.0020832387 3.7100395e-23 3.8494309e-40)
(0.0063584919 -0.0034353896 6.5652369e-22 0.0020302269 -3.8086939e-22 1.5524197e-40)
(5.0040104e-05 -5.809827e-05 -5.0883869e-24 7.3501902e-05 -5.2852045e-24 3.6374533e-41)
(0.00033949147 -0.00040386777 -6.8197637e-22 0.00048522814 7.2157063e-22 5.1298462e-39)
(0.00071459814 -0.00082063997 -5.4464337e-22 0.00094904443 5.8447878e-22 7.7632563e-39)
(0.0012438557 -0.0012827294 1.0200216e-21 0.0013403125 -9.7812838e-22 4.5358635e-39)
(0.0018507177 -0.0017426348 8.4958293e-22 0.0016719705 -8.3422887e-22 1.9265272e-39)