/*--------------------------------*- C++ -*----------------------------------*\
  =========                 |
  \\      /  F ield         | OpenFOAM: The Open Source CFD Toolbox
   \\    /   O peration     | Website:  https://openfoam.org
    \\  /    A nd           | Version:  6
     \\/     M anipulation  |
\*---------------------------------------------------------------------------*/
FoamFile
{
    version     2.0;
    format      ascii;
    class       surfaceScalarField;
    location    "143";
    object      phi;
}
// * * * * * * * * * * * * * * * * * * * * * * * * * * * * * * * * * * * * * //

dimensions      [0 3 -1 0 0 0 0];

internalField   nonuniform List<scalar> 
18180
(
0.00031873053
-0.00016316268
-0.00015556785
0.0013092161
-0.0013669267
0.00037644114
0.0030328992
-0.0033336418
0.0016099587
0.0055497945
-0.005975995
0.0034590997
0.0089182302
-0.0092391322
0.0058706965
0.013192861
-0.013079601
0.0088049707
0.018422008
-0.017459935
0.012230787
0.024644692
-0.022345918
0.016123234
0.031887481
-0.02770346
0.020460672
0.040161417
-0.033495979
0.025222043
0.04945933
-0.03968264
0.030384727
0.059753912
-0.04621744
0.035922859
0.070996949
-0.05304911
0.041806073
0.08312018
-0.060121875
0.047998644
0.096038376
-0.067377156
0.05445896
0.10965518
-0.074756343
0.061139538
0.12387113
-0.082204459
0.067988513
0.13859886
-0.089674465
0.07494673
0.15383696
-0.097149229
0.081911133
-0.10462638
0.088679313
0.16978403
0.00039749851
-0.0005606612
0.0016096004
-0.0025790286
0.0036893309
-0.0054133723
0.0066874665
-0.0089741306
0.010650688
-0.013202354
0.015617921
-0.018046835
0.021616329
-0.023458342
0.028657348
-0.029386937
0.036733057
-0.03577917
0.04581328
-0.042576202
0.055843847
-0.049713208
0.066746384
-0.057119978
0.078419861
-0.064722587
0.090743993
-0.072446007
0.10358429
-0.080217453
0.11679814
-0.087970195
0.13024101
-0.095647327
0.1437732
-0.10320666
0.15725878
-0.11063481
-0.11786229
0.17049469
0.00048062503
-0.0010412862
0.0019187045
-0.0040171081
0.0043524927
-0.0078471605
0.0078165878
-0.012438226
0.012337702
-0.017723468
0.01792926
-0.023638393
0.02458632
-0.030115402
0.0322813
-0.037081917
0.04096095
-0.04445882
0.05054505
-0.052160302
0.060927213
-0.060095371
0.071977966
-0.06817073
0.083549968
-0.076294589
0.095484987
-0.084381026
0.10762186
-0.09235433
0.11980443
-0.10015276
0.13188816
-0.10773106
0.14374362
-0.11506212
0.15524882
-0.12214001
-0.12891465
0.16630118
0.00056617144
-0.0016074577
0.0022279491
-0.0056788857
0.0050006258
-0.010619837
0.008894036
-0.016331636
0.013905296
-0.022734728
0.020011935
-0.029745032
0.027166557
-0.037270024
0.035293503
-0.045208862
0.044287959
-0.053453276
0.054017893
-0.061890235
0.064328846
-0.070406325
0.075051264
-0.078893148
0.086009659
-0.087252985
0.09703263
-0.095403996
0.10796259
-0.10328429
0.11866407
-0.11085424
0.12902974
-0.11809673
0.13898303
-0.12501541
0.14847494
-0.13163192
-0.13794552
0.15750582
0.00065088812
-0.0022583458
0.0025243487
-0.0075523463
0.0056036496
-0.013699138
0.0098644906
-0.020592477
0.01526465
-0.028134887
0.021736462
-0.036216844
0.029182548
-0.044716109
0.037474973
-0.053501288
0.046458093
-0.062436395
0.055954936
-0.071387079
0.065776534
-0.080227923
0.075733114
-0.088849728
0.085645813
-0.097165683
0.095357479
-0.10511566
0.10474128
-0.11266808
0.11370624
-0.1198192
0.12219939
-0.12658988
0.13020456
-0.13302058
0.13773796
-0.13916533
-0.14506787
0.1448603
0.00073063779
-0.0029889836
0.0027920934
-0.0096138019
0.0061265894
-0.017033634
0.010666737
-0.025132625
0.016322686
-0.033790837
0.022975291
-0.042869449
0.030474488
-0.052215306
0.038642466
-0.061669266
0.047281261
-0.071075191
0.056183809
-0.080289626
0.065146959
-0.089191073
0.073984664
-0.097687433
0.082539536
-0.10572056
0.090691336
-0.11326746
0.098361468
-0.12033822
0.10551329
-0.12697102
0.11214876
-0.13322534
0.11830234
-0.13917416
0.12403353
-0.14489652
-0.15046356
0.12942922
0.00080073316
-0.0037897167
0.0030139231
-0.011826992
0.0065329087
-0.02055262
0.011240075
-0.029839791
0.01699273
-0.039543491
0.023618586
-0.049495306
0.030918264
-0.059514983
0.038673371
-0.069424373
0.046658827
-0.079060646
0.054657448
-0.088288247
0.062474502
-0.097008127
0.069949986
-0.10516292
0.076966978
-0.11273755
0.083455095
-0.11975558
0.089389083
-0.1262722
0.094783262
-0.1323652
0.099683227
-0.13812531
0.10415639
-0.14364733
0.10828297
-0.1490231
-0.1543338
0.11215322
0.00085606062
-0.0046457773
0.0031720672
-0.014142998
0.0067872389
-0.024167791
0.011529823
-0.034582375
0.017203462
-0.04521713
0.023586582
-0.055878426
0.030439912
-0.066368314
0.037519366
-0.076503827
0.044591834
-0.086133114
0.051451031
-0.095147444
0.057930648
-0.10348774
0.063912777
-0.11114505
0.069330626
-0.1181554
0.074165654
-0.12459061
0.078440193
-0.13054674
0.082207251
-0.13613226
0.085539392
-0.14145745
0.088518427
-0.14662636
0.091227201
-0.15173187
-0.15685226
0.093745662
0.00089026412
-0.0055360415
0.0032482891
-0.016501023
0.0068576335
-0.027777136
0.011492481
-0.039217223
0.016906831
-0.05063148
0.02283892
-0.061810515
0.029023695
-0.072553089
0.035209273
-0.082689405
0.041173944
-0.092097785
0.046740401
-0.1007139
0.051784646
-0.10853199
0.056238381
-0.11559878
0.060085093
-0.12200211
0.06335118
-0.1278567
0.066094126
-0.13328969
0.068389946
-0.13842808
0.070321792
-0.1433893
0.071971083
-0.14827565
0.073411751
-0.15317254
-0.15814789
0.074707382
0.0008998198
-0.0064358613
0.0032333855
-0.018834589
0.0067291733
-0.031272924
0.01111119
-0.043599239
0.016092501
-0.055612792
0.021384639
-0.067102653
0.026713898
-0.077882348
0.031839123
-0.08781463
0.036567083
-0.096825744
0.040762256
-0.10490907
0.044349443
-0.11211918
0.0473093
-0.11855864
0.049668337
-0.12436115
0.051485726
-0.12967408
0.052839417
-0.13464338
0.053813691
-0.13940235
0.054489562
-0.14406517
0.054938652
-0.14872474
0.05522036
-0.15345425
0.055380775
-0.15830831
-0.00020237903
0.00020237909
-7.6822833e-11
-0.0006777489
0.00047536993
-9.649982e-11
-0.0013424304
0.00066468157
-1.1172195e-10
-0.0021323012
0.00078987088
-1.2460048e-10
-0.0029957826
0.0008634815
-1.2705429e-10
-0.0038907522
0.0008949696
-1.2047792e-10
-0.0047823097
0.00089155757
-1.0816064e-10
-0.0056409084
0.00085859878
-9.4334321e-11
-0.0064408844
0.00079997603
-8.030664e-11
-0.0071593055
0.0007184212
-6.8270428e-11
-0.0077750533
0.00061574779
-5.7912682e-11
-0.0082680872
0.000493034
-4.9631059e-11
-0.0086188656
0.00035077837
-4.2894769e-11
-0.0088079116
0.00018904607
-3.7233982e-11
-0.0088155586
7.6470475e-06
-3.2601386e-11
-0.0086219737
-0.00019358492
-2.8195175e-11
-0.0082074214
-0.00041455231
-2.442535e-11
-0.0075518585
-0.00065556288
-2.0594387e-11
-0.0066345284
-0.00091733006
-1.7231122e-11
-0.0011862502
-0.0054482782
-1.4328617e-11
-0.00018797514
0.00039035422
-0.00062500919
0.00091240395
-0.0012287574
0.0012684297
-0.0019352007
0.0014963142
-0.0026921475
0.0016204282
-0.003456294
0.0016591161
-0.0041910784
0.0016263419
-0.0048648707
0.001532391
-0.0054495356
0.0013846409
-0.0059192972
0.0011881828
-0.0062498234
0.00094627401
-0.0064174843
0.00066069495
-0.0063987474
0.00033204145
-0.0061696983
-4.0003102e-05
-0.0057057156
-0.00045633558
-0.0049813913
-0.00091790931
-0.0039707456
-0.0014251979
-0.0026471489
-0.0019791596
-0.00098317071
-0.0025813082
-0.0032018278
0.0010324068
-0.00015892834
0.00054928256
-0.00051889298
0.0012723686
-0.0010007728
0.0017503094
-0.0015412634
0.0020368047
-0.0020873546
0.0021665194
-0.0025937403
0.0021655017
-0.0030208728
0.0020534744
-0.0033332967
0.0018448149
-0.0034983024
0.0015496467
-0.0034848509
0.0011747312
-0.0032626889
0.00072411203
-0.0028016299
0.00019963596
-0.00207092
-0.00039866845
-0.0010387241
-0.001072199
0.00032830344
-0.0018233632
0.0020652954
-0.0026549013
0.0042091313
-0.0035690339
0.0067981315
-0.0045681598
0.0098719878
-0.0056551645
-0.0067798212
0.013449981
-0.0001175672
0.00066684976
-0.00036699921
0.0015218005
-0.00067351459
0.0020568248
-0.00097482645
0.0023381165
-0.001216854
0.002408547
-0.0013515924
0.0023002401
-0.0013354552
0.0020373372
-0.0011278197
0.0016371793
-0.00068983041
0.0011116574
1.6553174e-05
0.00046834759
0.0010293406
-0.0002886754
0.0023871575
-0.0011581809
0.0041297907
-0.0021413017
0.0062986699
-0.0032410782
0.0089373737
-0.004462067
0.012092186
-0.0058097139
0.015812472
-0.0072893196
0.020150375
-0.0089060626
0.025160606
-0.010665396
-0.012492751
0.030873536
-6.690762e-05
0.00073375739
-0.00017916622
0.0016340591
-0.00026653273
0.0021441913
-0.0002676888
0.0023392725
-0.00012718893
0.0022680471
0.00020617622
0.0019668749
0.0007807085
0.0014628049
0.0016429716
0.00077491623
0.0028387609
-8.4131924e-05
0.004413889
-0.0011067806
0.0064147498
-0.0022895362
0.0088887342
-0.0036321654
0.011884556
-0.0051371236
0.015452582
-0.0068091041
0.019645205
-0.0086546897
0.024517464
-0.010681973
0.030127923
-0.012899779
0.036539181
-0.015317321
0.043818636
-0.017944851
-0.020682732
0.052008618
-9.9843464e-06
0.00074374174
3.453624e-05
0.0015895385
0.00019989336
0.0019788341
0.00054677206
0.0019923938
0.0011322581
0.0016825611
0.0020109984
0.0010881345
0.0032361657
0.00023763762
0.0048603407
-0.0008492588
0.0069361704
-0.0021599616
0.009516742
-0.0036873521
0.012655791
-0.0054285856
0.016407808
-0.0073841818
0.020827961
-0.0095572764
0.025971938
-0.011953081
0.031895847
-0.014578599
0.038656517
-0.017442643
0.046312682
-0.020555943
0.054927039
-0.023931678
0.064570085
-0.027587896
-0.031405852
0.075293205
5.0751821e-05
0.00069298993
0.00026565991
0.0013746305
0.00070825948
0.0015362346
0.00143904
0.0012616133
0.0025168363
0.0006047647
0.0039995909
-0.00039462007
0.0059449499
-0.0017077213
0.0084106521
-0.003314961
0.01145466
-0.0052039692
0.015135127
-0.0073678192
0.019510131
-0.0098035901
0.024637148
-0.012511198
0.030572311
-0.01549244
0.037369521
-0.018750291
0.045079505
-0.022288583
0.053749274
-0.026112413
0.063422939
-0.030229608
0.074145099
-0.034653838
0.085969786
-0.039412584
-0.044388822
0.098952756
0.00011379702
0.00057919291
0.00050850636
0.00097992112
0.0012459892
0.00079875171
0.0023867903
0.00012081223
0.0039912616
-0.00099970658
0.0061199072
-0.0025232657
0.0088333642
-0.0044211783
0.012192226
-0.0066738228
0.016256637
-0.0092683804
0.021085548
-0.01219673
0.026735677
-0.015453719
0.033260182
-0.019035704
0.040707078
-0.022939336
0.049117423
-0.027160636
0.058523427
-0.031694586
0.068946823
-0.036535809
0.08039869
-0.041681475
0.092882566
-0.047137714
0.10640595
-0.05293597
-0.058996039
0.12101317
0.00017849672
0.00040069618
0.00076003358
0.00039838427
0.0018053474
-0.00024656212
0.0033747293
-0.0014485696
0.0055290206
-0.0031539979
0.0083293568
-0.0053236018
0.011836543
-0.0079283642
0.01611013
-0.01094741
0.021207135
-0.014365386
0.027180421
-0.018170016
0.034076764
-0.022350062
0.041934656
-0.026893596
0.050781873
-0.031786554
0.060632843
-0.037011606
0.071485787
-0.042547531
0.083319718
-0.04836974
0.096092228
-0.054453985
0.10974083
-0.060786317
0.12419644
-0.067391581
-0.074275019
0.13947542
0.00024512833
0.0010199538
0.0023833504
0.0043938805
0.0071105791
0.010591948
0.014894371
0.020070195
0.02616548
0.033217507
0.041252173
0.050281436
0.060300956
0.071287994
0.083199423
0.095969221
0.10950375
0.12366416
0.13818371
0.15258801
-0.0035076291
-0.001940649
-1.6597688e-11
-0.0012858171
-0.002221812
-1.1833433e-11
0.0011948228
-0.0024806399
-5.589252e-12
0.0038773913
-0.0026825685
1.6272202e-12
0.0067350848
-0.0028576935
9.6830406e-12
0.0097505974
-0.0030155127
1.9774931e-11
0.012904995
-0.0031543974
2.902563e-11
0.016180254
-0.0032752596
3.9323385e-11
0.019560675
-0.0033804204
5.039463e-11
0.023032037
-0.0034713625
6.213828e-11
0.026581055
-0.0035490183
7.3622037e-11
0.030195305
-0.0036142494
8.4164431e-11
0.033863142
-0.0036678375
9.2549004e-11
0.037573571
-0.0037104294
9.7836177e-11
0.041316141
-0.00374257
9.8600458e-11
0.04508088
-0.0037647388
9.3665782e-11
0.048858247
-0.0037773672
8.1439733e-11
0.052639099
-0.0037808518
6.0713357e-11
0.056414668
-0.003775569
3.0120839e-11
0.060176555
-0.0037618868
-1.098826e-11
0.063916728
-0.0037401732
-6.3051874e-11
0.06762753
-0.0037108023
-1.2529662e-10
0.071301689
-0.0036741587
-1.9628704e-10
0.074932329
-0.0036306394
-2.7275893e-10
0.078512983
-0.0035806538
-3.5043003e-10
0.082037606
-0.0035246231
-4.2267506e-10
0.085500584
-0.0034629773
-4.8193965e-10
0.088896738
-0.003396153
-5.1829431e-10
0.092221328
-0.0033245896
-5.2196117e-10
0.095470053
-0.0032487251
-4.8176306e-10
0.098639048
-0.0031689941
-3.8932912e-10
0.10172487
-0.0030858227
-2.3726038e-10
0.1047245
-0.0029996269
-2.5460333e-11
0.10763531
-0.0029108103
2.4170099e-10
0.11045507
-0.0028197625
5.4717241e-10
0.11318193
-0.0027268594
8.668143e-10
0.11581439
-0.0026324638
1.1606727e-09
0.11835132
-0.0025369282
1.3841083e-09
0.12079192
-0.002440602
1.4813582e-09
0.12313575
-0.002343832
1.4039742e-09
0.12538275
-0.0022470049
1.1110271e-09
0.12753322
-0.0021504724
5.9211895e-10
0.12958815
-0.0020549254
-1.272779e-10
0.1315485
-0.0019603532
-9.6736287e-10
0.13341839
-0.00186988
-1.7978948e-09
0.13519631
-0.0017779239
-2.4513831e-09
0.13690676
-0.0017104414
-2.7203457e-09
0.13850557
-0.0015988101
-2.472358e-09
0.14019364
-0.0016880695
-1.6023909e-09
-0.0013324968
4.1158256e-10
0.0028530439
-0.0037612861
0.0049502149
-0.004318983
0.0072931014
-0.0048235264
0.0098192613
-0.0052087284
0.012507633
-0.0055460655
0.015345892
-0.0058537717
0.018317298
-0.0061258025
0.021405442
-0.0063634044
0.024596308
-0.0065712861
0.027877132
-0.0067521867
0.031235783
-0.0069076691
0.03466078
-0.0070392459
0.038141265
-0.0071483229
0.041666893
-0.0072360574
0.045227746
-0.007303423
0.048814291
-0.0073512836
0.052417348
-0.0073804248
0.056028074
-0.0073915776
0.059637949
-0.0073854437
0.063238779
-0.0073627172
0.066822706
-0.0073240998
0.070382215
-0.0072703113
0.073910153
-0.0072020969
0.077399743
-0.0071202296
0.0808446
-0.0070255105
0.084238742
-0.0069187652
0.087576604
-0.0068008394
0.090853044
-0.0066725927
0.094063346
-0.0065348915
0.097203222
-0.0063886009
0.10026881
-0.0062345789
0.10325665
-0.0060736684
0.10616372
-0.0059066925
0.10898736
-0.0057344505
0.11172531
-0.0055577143
0.11437568
-0.0053772295
0.11693693
-0.0051937168
0.11940788
-0.0050078766
0.12178768
-0.0048204046
0.12407584
-0.0046319911
0.12627225
-0.0044434083
0.12837713
-0.004255358
0.13039143
-0.0040692195
0.13231605
-0.003884975
0.13415501
-0.0037088407
0.13590684
-0.0035297519
0.13759554
-0.0033991445
0.13917801
-0.0031812813
0.14084994
-0.0033599955
-0.0026625383
0.015021341
-0.0053326455
0.016852466
-0.0061501083
0.018906031
-0.0068770911
0.021112106
-0.0074148042
0.023459059
-0.0078930182
0.025943236
-0.0083379485
0.028552019
-0.0087345853
0.031271927
-0.0090833132
0.034091862
-0.0093912205
0.037001592
-0.0096619169
0.039990997
-0.0098970746
0.043050218
-0.010098466
0.046169728
-0.010267834
0.049340274
-0.010406603
0.052552826
-0.010515975
0.055798572
-0.01059703
0.059068923
-0.010650776
0.062355517
-0.010678172
0.065650232
-0.010680158
0.068945202
-0.010657687
0.072232841
-0.010611738
0.07550586
-0.010543331
0.078757296
-0.010453533
0.081980528
-0.010343461
0.085169298
-0.01021428
0.088317728
-0.010067195
0.091420334
-0.0099034459
0.094472036
-0.0097242946
0.09746816
-0.0095310148
0.10040444
-0.0093248829
0.10327703
-0.009107163
0.10608246
-0.0088791004
0.10881768
-0.008641912
0.11148001
-0.0083967798
0.11406714
-0.008144848
0.11657713
-0.0078872217
0.11900839
-0.0076249713
0.12135965
-0.007359139
0.12363001
-0.0070907609
0.12581888
-0.0068208676
0.12792609
-0.0065506135
0.12995178
-0.0062810503
0.1318968
-0.006014239
0.13376199
-0.0057501707
0.13555122
-0.00549807
0.13726311
-0.0052416352
0.13892069
-0.0050567233
0.14048319
-0.0047437805
0.14213568
-0.005012487
-0.0040008182
0.032056851
-0.0065159605
0.033472073
-0.0075653309
0.035077605
-0.0084826224
0.036800468
-0.0091376677
0.03864135
-0.0097338997
0.040606546
-0.010303145
0.042688887
-0.010816926
0.044878849
-0.011273275
0.047168856
-0.011681227
0.049551679
-0.01204474
0.052019612
-0.012365008
0.054564699
-0.012643553
0.057178928
-0.012882063
0.059854257
-0.013081933
0.062582625
-0.013244342
0.065355986
-0.013370392
0.068166361
-0.013461151
0.071005872
-0.013517683
0.073866787
-0.013541073
0.076741554
-0.013532454
0.07962284
-0.013493025
0.082503566
-0.013424058
0.085376939
-0.013326905
0.088236475
-0.013202998
0.091076033
-0.013053837
0.093889823
-0.012880986
0.096672433
-0.012686057
0.099418835
-0.012470696
0.10212439
-0.01223657
0.10478486
-0.011985348
0.10739638
-0.011718687
0.1099555
-0.011438221
0.11245913
-0.011145547
0.11490457
-0.01084222
0.11728947
-0.010529744
0.11961182
-0.010209576
0.12186998
-0.0098831285
0.12406262
-0.0095517794
0.12618876
-0.0092169004
0.12824775
-0.0088798601
0.13023933
-0.0085421925
0.13216358
-0.0082053
0.13402126
-0.0078719169
0.13581316
-0.0075420676
0.13754295
-0.007227862
0.13920944
-0.0069081284
0.1408343
-0.0066815822
0.14238023
-0.0062897047
0.14401702
-0.0066492764
-0.0053632317
0.052648934
-0.0071562767
0.053489544
-0.0084059413
0.054483684
-0.009476762
0.055565665
-0.010219649
0.056750305
-0.01091854
0.058051898
-0.011604738
0.059468955
-0.012233983
0.060996607
-0.012800928
0.062630646
-0.013315265
0.064366472
-0.013780567
0.066198565
-0.014197101
0.068120657
-0.014565644
0.070125983
-0.014887388
0.07220744
-0.01516339
0.074357683
-0.015394585
0.076569198
-0.015581907
0.078834393
-0.015726346
0.081145675
-0.015828965
0.083495515
-0.015890913
0.085876512
-0.01591345
0.088281438
-0.01589795
0.090703292
-0.015845912
0.093135336
-0.015758949
0.095571128
-0.01563879
0.098004554
-0.015487263
0.10042985
-0.015306279
0.10284161
-0.015097818
0.10523481
-0.014863902
0.10760483
-0.014606586
0.10994741
-0.014327925
0.11225869
-0.014029965
0.11453518
-0.01371472
0.1167738
-0.013384167
0.11897181
-0.013040224
0.12112682
-0.012684754
0.12323681
-0.012319563
0.12530008
-0.011946399
0.12731527
-0.011566976
0.12928137
-0.011183001
0.13119769
-0.01079618
0.13306393
-0.010408427
0.13488013
-0.0100215
0.13664701
-0.0096387964
0.13836535
-0.009260407
0.14003866
-0.0089011717
0.14166604
-0.0085355122
0.14326749
-0.0082830293
0.14481012
-0.0078323419
0.14644484
-0.0082839971
-0.0067730194
0.075222209
-0.0070852807
0.07532719
-0.0085109221
0.075551578
-0.0097011505
0.075851891
-0.010519961
0.076256163
-0.011322812
0.076781246
-0.012129822
0.077430178
-0.012882914
0.078202887
-0.013573637
0.079097683
-0.014210061
0.080111417
-0.014794301
0.081239846
-0.01532553
0.082477674
-0.015803472
0.083818717
-0.016228431
0.085256196
-0.016600869
0.086782933
-0.016921322
0.088391477
-0.01719045
0.090074209
-0.017409078
0.091823451
-0.017578207
0.09363156
-0.017699022
0.095490998
-0.017772888
0.0973944
-0.017801352
0.099334623
-0.017786135
0.1013048
-0.017729125
0.10329837
-0.017632357
0.1053091
-0.017498
0.10733115
-0.017328325
0.10935903
-0.017125693
0.11138764
-0.016892519
0.11341231
-0.016631252
0.11542873
-0.016344349
0.11743302
-0.016034251
0.11942167
-0.015703368
0.12139155
-0.015354055
0.12333994
-0.014988608
0.12526444
-0.014609251
0.12716302
-0.014218144
0.129034
-0.013817381
0.13087604
-0.013409013
0.13268812
-0.01299509
0.13446961
-0.012577661
0.13622021
-0.012159027
0.13794001
-0.011741308
0.13962977
-0.011328558
0.14129034
-0.010920973
0.14292511
-0.010535945
0.14453362
-0.010144018
0.146134
-0.0098834105
0.14769854
-0.0093968817
0.14935678
-0.0099422342
-0.0082622959
0.09802578
-0.006158304
0.097258525
-0.0077436676
0.096582254
-0.0090248793
0.095997838
-0.0099355456
0.095541406
-0.01086638
0.095224191
-0.011812606
0.095051559
-0.012710282
0.095027513
-0.013549592
0.095151588
-0.014334135
0.095420516
-0.015063229
0.095829939
-0.015734953
0.096374447
-0.01634798
0.097047554
-0.016901539
0.09784203
-0.017395344
0.098750189
-0.017829482
0.099764061
-0.018204323
0.10087551
-0.018520527
0.10207635
-0.018779049
0.10335846
-0.01898113
0.10471384
-0.019128272
0.10613472
-0.019222228
0.10761357
-0.019264984
0.10914318
-0.019258738
0.1107167
-0.019205874
0.11232764
-0.019108938
0.11396992
-0.018970606
0.11563787
-0.018793651
0.11732627
-0.018580916
0.1190303
-0.018335282
0.12074558
-0.018059632
0.12246817
-0.017756837
0.12419452
-0.017429719
0.12592151
-0.017081043
0.1276464
-0.0167135
0.12936685
-0.016329697
0.13108087
-0.015932164
0.13278684
-0.015523357
0.13448351
-0.015105682
0.13616996
-0.014681544
0.13784565
-0.01425335
0.13951043
-0.013823799
0.1411645
-0.013395387
0.14280877
-0.012972823
0.14444425
-0.012556448
0.14607433
-0.012166025
0.14769908
-0.011768774
0.14933476
-0.011519092
0.15095928
-0.011021401
0.15267963
-0.011662578
-0.0098728214
0.11918954
-0.0043346769
0.11749696
-0.0060510821
0.11585746
-0.0073853811
0.11435495
-0.0084330383
0.11302567
-0.0095371019
0.11186713
-0.010654068
0.1108848
-0.01172795
0.11008496
-0.012749747
0.10946701
-0.013716189
0.10902637
-0.014622587
0.10875722
-0.015465804
0.1086529
-0.016243662
0.10870582
-0.016954457
0.10890766
-0.017597188
0.10924971
-0.018171526
0.10972301
-0.018677628
0.11031855
-0.019116064
0.11102731
-0.019487813
0.11184042
-0.019794236
0.11274919
-0.020037041
0.11374522
-0.020218254
0.11482042
-0.020340186
0.11596709
-0.02040541
0.11717794
-0.02041672
0.1184461
-0.020377098
0.11976517
-0.020289678
0.12112922
-0.020157706
0.12253281
-0.019984504
0.12397096
-0.019773428
0.12543917
-0.019527846
0.12693342
-0.01925109
0.12845015
-0.018946445
0.12998623
-0.018617121
0.13153897
-0.018266237
0.13310609
-0.017896819
0.13468572
-0.017511794
0.13627637
-0.017114011
0.13787695
-0.016706255
0.13948671
-0.01629131
0.14110533
-0.015871963
0.14273286
-0.015451331
0.14436978
-0.015032307
0.14601721
-0.014620254
0.14767646
-0.014215703
0.14935105
-0.013840612
0.15104171
-0.013459428
0.15276284
-0.013240222
0.15449824
-0.012756803
0.15633221
-0.013496555
-0.011655943
0.13689647
-0.0017557205
0.13437852
-0.0035331369
0.13181997
-0.0048268305
0.12946292
-0.0060759922
0.12733459
-0.0074087674
0.12541634
-0.0087358192
0.12371101
-0.010022619
0.12222368
-0.01126242
0.12095281
-0.012445318
0.11989262
-0.013562398
0.11903561
-0.014608793
0.11837343
-0.015581481
0.11789709
-0.016478112
0.11759705
-0.01729715
0.11746345
-0.018037931
0.11748629
-0.018700461
0.11765553
-0.01928531
0.11796127
-0.019793553
0.11839377
-0.020226739
0.11894358
-0.02058685
0.11960158
-0.02087625
0.12035904
-0.021097644
0.12120768
-0.021254048
0.12213969
-0.021348729
0.12314776
-0.021385176
0.12422513
-0.021367048
0.12536555
-0.021298123
0.12656331
-0.021182267
0.12781327
-0.021023379
0.12911078
-0.020825359
0.13045176
-0.020592068
0.13183261
-0.020327301
0.13325026
-0.020034764
0.13470207
-0.019718053
0.13618591
-0.019380654
0.13770005
-0.019025936
0.13924322
-0.018657177
0.14081453
-0.018277575
0.14241355
-0.017890326
0.14404022
-0.017498631
0.14569493
-0.017106047
0.14737852
-0.016715889
0.14909245
-0.016334192
0.15083846
-0.015961713
0.15262029
-0.015622436
0.15443943
-0.015278574
0.15630859
-0.015109372
0.15821754
-0.014665755
0.16022834
-0.015507358
-0.013671698
0.15005251
0.0007797715
0.14676358
-0.0002442053
0.14346626
-0.0015295086
0.1404185
-0.0030282317
0.13762363
-0.0046138939
0.13507539
-0.006187577
0.13277561
-0.0077228434
0.13072439
-0.0092111964
0.12891928
-0.010640207
0.12735508
-0.011998199
0.12602396
-0.01327768
0.12491653
-0.014474049
0.1240226
-0.015584184
0.12333152
-0.016606067
0.1228323
-0.017538709
0.12251383
-0.018381992
0.12236504
-0.019136519
0.12237501
-0.019803527
0.12253309
-0.020384821
0.12282896
-0.020882719
0.12325271
-0.021299993
0.12379488
-0.021639821
0.12444656
-0.021905728
0.12519937
-0.022101537
0.12604551
-0.022231318
0.12697779
-0.022299327
0.12798963
-0.022309959
0.12907505
-0.022267692
0.13022872
-0.022177043
0.13144587
-0.022042514
0.13272236
-0.021868561
0.13405462
-0.021659555
0.13543961
-0.021419755
0.13687485
-0.021153296
0.13835837
-0.020864173
0.13988868
-0.020556248
0.14146477
-0.020233269
0.14308609
-0.019898895
0.14475254
-0.019556771
0.14646445
-0.01921054
0.14822264
-0.018864239
0.15002837
-0.018521626
0.15188361
-0.01818943
0.15379055
-0.017868648
0.15575332
-0.017585207
0.15777412
-0.017299377
0.15986452
-0.017199769
0.16201874
-0.01681998
0.16428164
-0.01777025
-0.015985048
0.18890942
0.0053818466
-0.19351149
0.1850994
0.0035658065
0.1817074
0.0018624992
0.1785623
0.00011686604
0.17562677
-0.0016783639
0.17287577
-0.0034365822
0.17029109
-0.0051381596
0.16786372
-0.0067838303
0.16558979
-0.0083662776
0.16346715
-0.0098755519
0.16149392
-0.011304455
0.15966801
-0.012648135
0.15798676
-0.013902938
0.15644689
-0.0150662
0.15504448
-0.016136299
0.15377506
-0.01711257
0.1526337
-0.01799516
0.15161511
-0.018784936
0.15071371
-0.019483421
0.14992373
-0.020092734
0.14923926
-0.020615526
0.14865436
-0.021054919
0.14816308
-0.021414449
0.14775955
-0.021698003
0.14743799
-0.021909758
0.14719278
-0.022054124
0.14701851
-0.022135682
0.14690994
-0.022159125
0.1468621
-0.022129206
0.14687027
-0.022050683
0.14692999
-0.02192828
0.14703708
-0.021766644
0.14718764
-0.021570317
0.14737806
-0.021343718
0.14760502
-0.021091128
0.14786547
-0.020816697
0.14815665
-0.020524456
0.14847611
-0.02021835
0.14882166
-0.019902319
0.14919142
-0.019580301
0.14958384
-0.019256662
0.14999769
-0.018935476
0.15043221
-0.018623946
0.15088687
-0.018323312
0.15136231
-0.018060646
0.15185838
-0.017795446
0.15237958
-0.01772097
0.15292159
-0.017361985
0.15350748
-0.01835614
-0.016578789
0.21685828
0.0087801516
-0.22025659
0.21338442
0.0070396667
0.21017164
0.005075284
0.20706635
0.0032221506
0.20401979
0.0013682022
0.2010629
-0.00047969254
0.19821257
-0.0022878298
0.19547331
-0.0040445732
0.19285103
-0.0057439937
0.19035255
-0.0073770731
0.18798307
-0.0089349807
0.185746
-0.010411063
0.18364333
-0.011800264
0.18167575
-0.013098623
0.17984274
-0.014303284
0.17814266
-0.015412492
0.17657297
-0.016425472
0.17513036
-0.017342323
0.17381087
-0.018163933
0.17261005
-0.018891916
0.17152306
-0.019528532
0.17054476
-0.02007662
0.16966983
-0.020539521
0.16889284
-0.020921013
0.16820832
-0.021225239
0.16761083
-0.021456636
0.16709502
-0.021619867
0.16665565
-0.021719755
0.16628766
-0.021761222
0.16598621
-0.021749228
0.16574665
-0.021688723
0.16556461
-0.021584601
0.16543596
-0.021441668
0.16535685
-0.021264614
0.16532373
-0.021058003
0.1653333
-0.020826268
0.16538258
-0.020573733
0.16546886
-0.020304637
0.16558977
-0.020023221
0.1657432
-0.019733737
0.16592742
-0.019440882
0.16614103
-0.019149087
0.16638304
-0.018865949
0.16665294
-0.018593217
0.1669506
-0.01835831
0.16727726
-0.018122107
0.16763216
-0.018075868
0.16802359
-0.017753411
0.16843359
-0.018766138
-0.017053763
0.24376716
0.01150408
-0.24649109
0.24091675
0.0098900785
0.23806357
0.0079284679
0.23521663
0.006069085
0.23233886
0.0042459759
0.22945107
0.0024080971
0.22658449
0.00057875567
0.2237584
-0.0012184888
0.22098874
-0.0029743281
0.21829142
-0.0046797624
0.21568033
-0.0063238835
0.21316644
-0.007897179
0.21075838
-0.0093922041
0.20846271
-0.010802946
0.20628404
-0.012124622
0.20422528
-0.013353727
0.20228777
-0.01448796
0.20047155
-0.015526104
0.19877554
-0.016467923
0.19719771
-0.017314084
0.19573524
-0.018066064
0.19438469
-0.018726067
0.1931421
-0.019296935
0.19200315
-0.019782067
0.19096325
-0.020185336
0.19001762
-0.020511003
0.18916139
-0.020763642
0.1883897
-0.02094806
0.1876977
-0.021069224
0.18708067
-0.021132198
0.18653403
-0.021142079
0.18605337
-0.021103944
0.18563451
-0.021022813
0.18527352
-0.020903616
0.18496669
-0.020751172
0.18471061
-0.020570187
0.18450214
-0.020365268
0.18433845
-0.020140949
0.18421701
-0.019901776
0.18413559
-0.019652322
0.18409232
-0.019397614
0.18408572
-0.019142484
0.1841146
-0.01889483
0.18417856
-0.018657176
0.1842767
-0.018456452
0.18441175
-0.018257156
0.18457733
-0.018241441
0.18479531
-0.017971399
0.18500186
-0.018972689
-0.017387508
0.26927488
0.013537011
-0.27130781
0.26710686
0.0120581
0.26476512
0.010270205
0.26232592
0.0085082857
0.25979719
0.0067746994
0.25718913
0.0050161638
0.25452784
0.0032400434
0.2518375
0.0014718474
0.24913812
-0.00027494138
0.24644948
-0.0019911303
0.2437909
-0.0036652962
0.24117949
-0.0052857721
0.23862999
-0.0068427046
0.23615489
-0.0083278431
0.23376448
-0.0097342119
0.23146692
-0.01105617
0.2292684
-0.01228944
0.22717331
-0.013431016
0.22518446
-0.014479069
0.22330323
-0.015432859
0.22152981
-0.016292642
0.21986333
-0.017059582
0.21830203
-0.017735644
0.21684347
-0.018323508
0.21548461
-0.018826468
0.21422194
-0.019248337
0.21305166
-0.019593357
0.2119697
-0.019866108
0.21097191
-0.020071426
0.21005403
-0.02021432
0.20921185
-0.020299906
0.20844125
-0.020333339
0.20773821
-0.020319771
0.20709889
-0.0202643
0.20651967
-0.020171954
0.20599716
-0.020047671
0.20552821
-0.019896318
0.20510997
-0.019722708
0.20473987
-0.019531683
0.20441569
-0.019328138
0.2041355
-0.019117424
0.20389781
-0.018904795
0.20370136
-0.018698378
0.20354585
-0.01850167
0.20342983
-0.018340423
0.2033572
-0.018184526
0.20331679
-0.018201038
0.20334185
-0.017996456
0.20332718
-0.018958019
-0.017557831
0.29298559
0.014868136
-0.29431671
0.29150636
0.013537324
0.28978389
0.011992679
0.28788528
0.010406899
0.28584539
0.008814588
0.28367504
0.007186512
0.28139264
0.0055224397
0.27902144
0.0038430487
0.27658274
0.0021637623
0.2740967
0.00049491368
0.27158351
-0.0011521127
0.26906291
-0.0027651738
0.26655322
-0.0043330152
0.26407104
-0.0058456544
0.26163109
-0.0072942635
0.25924614
-0.0086712268
0.25692697
-0.0099702624
0.25468237
-0.011186423
0.25251935
-0.012316043
0.25044316
-0.013356674
0.24845754
-0.014307021
0.24656481
-0.015166852
0.24476608
-0.01593691
0.24306138
-0.01661881
0.24144985
-0.01721494
0.23992988
-0.017728362
0.23849922
-0.018162704
0.23715518
-0.018522066
0.23589468
-0.018810923
0.23471439
-0.019034031
0.23361083
-0.019196351
0.23258047
-0.019302972
0.23161974
-0.019359046
0.23072519
-0.019369745
0.22989345
-0.019340218
0.22912136
-0.019275576
0.22840593
-0.019180896
0.22774446
-0.019061234
0.22713448
-0.018921704
0.22657385
-0.018767512
0.22606074
-0.018604314
0.22559374
-0.018437795
0.22517162
-0.018276255
0.22479422
-0.018124274
0.22445973
-0.018005929
0.2241729
-0.017897697
0.2239189
-0.017947041
0.22373932