/*--------------------------------*- C++ -*----------------------------------*\
  =========                 |
  \\      /  F ield         | OpenFOAM: The Open Source CFD Toolbox
   \\    /   O peration     | Website:  https://openfoam.org
    \\  /    A nd           | Version:  6
     \\/     M anipulation  |
\*---------------------------------------------------------------------------*/
FoamFile
{
    version     2.0;
    format      ascii;
    class       volVectorField;
    location    "143";
    object      U;
}
// * * * * * * * * * * * * * * * * * * * * * * * * * * * * * * * * * * * * * //

dimensions      [0 1 -1 0 0 0 0];

internalField   nonuniform List<vector> 
9200
(
(0.0010393727 0.0014199682 -5.9202043e-20)
(0.013676182 -0.0020584278 4.604272e-20)
(0.038313416 -0.0058666749 -3.8501878e-20)
(0.072274859 -0.0097636585 -6.0257968e-20)
(0.11376537 -0.01349023 1.8827041e-20)
(0.16158174 -0.016605907 3.2744003e-20)
(0.21467258 -0.018817583 -1.2268062e-20)
(0.27206744 -0.019974237 9.2689034e-21)
(0.33285786 -0.020011618 1.6803482e-20)
(0.39616539 -0.018929497 1.4848129e-21)
(0.46111774 -0.016780313 -2.1456426e-20)
(0.52683931 -0.013658282 2.0670094e-20)
(0.59245336 -0.0096886061 -4.0422313e-20)
(0.6570942 -0.0050164451 -2.1134004e-20)
(0.71992779 0.00020482751 5.9046797e-21)
(0.78017823 0.0058232905 -2.5131814e-20)
(0.83717391 0.011711931 2.521727e-20)
(0.89047212 0.017917548 2.2243399e-20)
(0.93967408 0.024572358 -2.9925695e-22)
(0.9820552 0.028292244 -1.6691367e-21)
(0.0052522253 -0.0013462973 -1.7059412e-20)
(0.026962672 -0.0089891125 3.9747861e-20)
(0.061670459 -0.014809904 2.3576384e-20)
(0.10629544 -0.019172459 -1.1569797e-19)
(0.15873644 -0.022214233 -1.2727138e-20)
(0.21753457 -0.023720967 7.3297315e-20)
(0.28137428 -0.023595421 -3.5476525e-20)
(0.34900762 -0.021869333 -8.3905855e-21)
(0.41924109 -0.018645936 3.4287668e-20)
(0.49091161 -0.014081297 -4.3259753e-20)
(0.56287474 -0.0083764544 -3.0338619e-20)
(0.63401113 -0.0017671489 7.1921796e-20)
(0.70324615 0.005487784 3.8294238e-20)
(0.76957883 0.01311796 -6.7976941e-20)
(0.83211558 0.020851342 1.4623787e-20)
(0.89010356 0.028418889 -3.6733637e-20)
(0.94297237 0.035568775 -1.3777263e-20)
(0.99043547 0.042139898 7.0975336e-20)
(1.0323591 0.047714228 2.9642321e-20)
(1.0669378 0.049138526 -8.3478696e-20)
(0.010858494 -0.0040424488 3.6773575e-20)
(0.043953649 -0.015431183 2.5047451e-21)
(0.090515884 -0.022552447 2.2341801e-20)
(0.14711209 -0.026497573 9.8117132e-22)
(0.21134351 -0.027886556 -4.0774103e-20)
(0.28146893 -0.026795413 1.8576453e-20)
(0.35587195 -0.023383064 1.3420354e-20)
(0.43299191 -0.01792191 -5.0327887e-20)
(0.51132689 -0.010736061 5.7262083e-20)
(0.58942851 -0.0021843315 1.4256761e-20)
(0.66591176 0.0073474091 -5.4300979e-20)
(0.73948315 0.017459715 -1.8237516e-20)
(0.80897891 0.027755955 9.0591465e-21)
(0.87340566 0.037858597 2.3444886e-20)
(0.93197668 0.047423294 -1.1362594e-20)
(0.98413672 0.05614814 2.7877913e-20)
(1.029577 0.063788251 -2.0188363e-20)
(1.0682674 0.070203374 -7.012412e-20)
(1.1003349 0.075118263 -2.3796483e-20)
(1.1249138 0.076640035 4.8660079e-20)
(0.017957308 -0.0064222031 2.4508089e-20)
(0.064777304 -0.02069492 5.1039385e-20)
(0.12485285 -0.028061026 1.9881754e-20)
(0.19447051 -0.03046429 1.2990119e-20)
(0.27095046 -0.029095103 1.7275747e-20)
(0.35225025 -0.024389273 -4.7720325e-20)
(0.43643315 -0.016826297 -2.5646946e-20)
(0.52162213 -0.0069770247 0)
(0.60603127 0.0045666445 1.3920709e-20)
(0.6879896 0.017211305 -5.8524016e-21)
(0.76597789 0.030373449 -9.7935429e-20)
(0.83867731 0.043499105 -1.5774871e-20)
(0.90501818 0.056086024 6.5103613e-20)
(0.96421864 0.067703468 4.8437877e-22)
(1.0158064 0.078006965 -1.5725671e-21)
(1.0596184 0.086745952 2.1957644e-20)
(1.09578 0.093771293 -5.2647683e-21)
(1.1246826 0.0990643 -6.1030157e-20)
(1.1468672 0.10259595 -4.5851584e-20)
(1.162298 0.10341263 6.9520901e-20)
(0.026579543 -0.0082057317 -3.9194292e-21)
(0.089344409 -0.024033632 -5.1256506e-21)
(0.16430822 -0.030265167 5.659957e-20)
(0.2475822 -0.029810236 1.8539369e-20)
(0.33624294 -0.024513272 -3.1955158e-20)
(0.4279529 -0.015240128 1.2163879e-20)
(0.52047457 -0.0028516528 2.6402961e-21)
(0.61166579 0.01173678 3.360932e-20)
(0.69954956 0.027639796 5.659977e-21)
(0.782371 0.044028384 -1.320483e-20)
(0.85865681 0.060147288 6.0154426e-20)
(0.92727193 0.075339973 -5.800965e-20)
(0.98745959 0.08907229 -1.3216692e-19)
(1.0388559 0.10094837 -5.5773387e-21)
(1.0814752 0.11071634 8.3151328e-20)
(1.1156681 0.11826321 0)
(1.1420573 0.12360489 1.0119018e-20)
(1.1614692 0.12688952 -1.5459876e-20)
(1.1748201 0.12829757 -8.5995216e-21)
(1.1826693 0.12744794 2.0992353e-20)
(0.036667063 -0.0090896234 -5.4309179e-21)
(0.11731558 -0.024685478 4.3578859e-21)
(0.20811949 -0.028140343 -8.7630066e-21)
(0.30515818 -0.023415145 2.8472474e-20)
(0.40533689 -0.013075799 -2.9392757e-20)
(0.50607329 0.0015223942 -1.6927083e-20)
(0.604907 0.019094903 3.7364342e-20)
(0.69955193 0.038364995 4.7595525e-21)
(0.78800645 0.058167354 -2.4436219e-20)
(0.86863671 0.077482668 6.9867917e-20)
(0.94024245 0.095458248 5.2389692e-22)
(1.0020983 0.1114311 -8.0444822e-20)
(1.0539596 0.12494236 0)
(1.0960299 0.13573686 3.9542387e-20)
(1.1288947 0.14374769 5.5236407e-21)
(1.1534302 0.14906809 -7.7566895e-20)
(1.1707013 0.1519182 -1.9587045e-20)
(1.1818644 0.15262266 -1.2467711e-20)
(1.1880611 0.15152495 -1.4709484e-20)
(1.1901478 0.14858374 4.0420771e-20)
(0.048059056 -0.0087674449 -1.7277992e-20)
(0.14808366 -0.021932097 -2.2198522e-21)
(0.25514163 -0.020797968 3.0380572e-20)
(0.36546514 -0.010412939 3.7484392e-20)
(0.47590585 0.0059014372 -1.9944792e-20)
(0.58374461 0.02626915 -6.9163289e-20)
(0.68644406 0.04897704 -2.7995931e-20)
(0.78176444 0.072417596 7.8929563e-20)
(0.86790451 0.095212248 8.5778874e-21)
(0.94359178 0.11624933 -2.487359e-20)
(1.0081285 0.13469792 1.3642249e-20)
(1.0613896 0.15001512 -4.3194888e-21)
(1.1037718 0.16193606 0)
(1.1360999 0.17044365 2.7203641e-20)
(1.1595069 0.17572237 -7.9322883e-20)
(1.1753042 0.17810287 -3.1475715e-20)
(1.184859 0.17800722 8.1055059e-20)
(1.189494 0.17590845 -4.297021e-21)
(1.1904047 0.17225451 3.556125e-21)
(1.1885096 0.16719184 2.7111747e-20)
(0.060485471 -0.0069573951 -3.2414673e-20)
(0.18077836 -0.015170457 -8.1624521e-20)
(0.30389033 -0.007583615 2.5797481e-21)
(0.42642698 0.0097032716 7.0162019e-20)
(0.54535325 0.032631475 6.2424578e-20)
(0.65798305 0.058819964 -7.157474e-20)
(0.7619111 0.086176416 -2.8271384e-22)
(0.85518534 0.11285219 8.5522975e-20)
(0.93645598 0.13737821 4.8828303e-20)
(1.005044 0.15869347 -5.4218703e-20)
(1.0609381 0.17613532 -9.2334713e-20)
(1.1047267 0.18941314 -3.1589999e-21)
(1.1374782 0.19855894 4.2128099e-20)
(1.1605895 0.20385796 -6.6056659e-21)
(1.1756268 0.2057695 -1.2868856e-20)
(1.1841796 0.2048484 1.9690908e-20)
(1.1877445 0.2016781 4.3880864e-20)
(1.187647 0.19682493 -4.385967e-20)
(1.184997 0.19077782 -1.0232261e-19)
(1.1806265 0.18377272 2.4567046e-20)
(0.073537466 -0.0034329915 -3.4979843e-20)
(0.21422758 -0.0039890638 -1.7388643e-19)
(0.3525177 0.011839347 8.2103509e-20)
(0.48562949 0.037018327 9.2767802e-20)
(0.61085563 0.066835557 5.7970747e-20)
(0.72576936 0.098481185 8.6107445e-21)
(0.82835031 0.12959695 -1.0624052e-19)
(0.91719238 0.15824264 0)
(0.99162988 0.18302804 -6.8748963e-20)
(1.0517545 0.20311188 -1.52025e-20)
(1.0983407 0.21814833 5.4703748e-20)
(1.132703 0.22821045 1.097344e-20)
(1.1565131 0.23369213 -4.5614091e-20)
(1.1716088 0.2351989 -4.9081613e-20)
(1.1798223 0.23344269 2.4287815e-20)
(1.1828468 0.22915248 4.4823141e-20)
(1.1821505 0.22300903 -5.5600714e-20)
(1.1789376 0.21560733 -1.075118e-19)
(1.1741483 0.20742129 -3.1513613e-21)
(1.1684581 0.19871781 2.7046546e-20)
(0.086650724 0.0019613856 -3.5449308e-21)
(0.24696095 0.011816644 8.7913461e-20)
(0.3988486 0.037492352 -1.6479144e-20)
(0.54040623 0.071218457 -8.4309474e-20)
(0.66950091 0.10778903 4.5164536e-20)
(0.78422164 0.14411553 4.9175589e-20)
(0.88319166 0.17775676 5.5357029e-21)
(0.96578103 0.20688493 -9.9502929e-20)
(1.0321786 0.23038798 -2.5048901e-21)
(1.0833351 0.2478154 5.0503798e-20)
(1.1208092 0.25926278 5.9855063e-21)
(1.1465579 0.26523586 -1.9717309e-20)
(1.1627127 0.2665049 -7.5705005e-20)
(1.1713784 0.26396569 -6.2554257e-21)
(1.174478 0.25852368 4.3533566e-20)
(1.1736565 0.25101019 3.7022192e-20)
(1.1702398 0.24213319 1.9793524e-20)
(1.1652417 0.23245793 -5.2995157e-20)
(1.1594028 0.22240331 1.2957461e-20)
(1.1532265 0.21223708 8.2659502e-20)
(-0.0012932669 0.0014346667 -1.1234292e-21)
(-0.0047459795 0.0031874283 2.0647041e-21)
(-0.010771401 0.0041359205 8.7957225e-22)
(-0.017754353 0.004539553 -2.4411275e-21)
(-0.024740406 0.0045654325 -1.4114973e-21)
(-0.031299701 0.0043260522 1.5459796e-21)
(-0.03716145 0.0039035487 -6.8701411e-21)
(-0.042147574 0.0033577288 -5.9573092e-21)
(-0.046157912 0.0027313843 1.1172072e-20)
(-0.049146324 0.0020548294 -9.7428145e-21)
(-0.05110078 0.0013492948 -1.98323e-22)
(-0.052030555 0.00062941154 3.6673783e-21)
(-0.051957828 -9.4904838e-05 -6.3295693e-22)
(-0.050911945 -0.000816951 2.2818913e-20)
(-0.048925808 -0.0015318709 3.0400857e-22)
(-0.04603533 -0.0022352061 -4.0883196e-20)
(-0.042281737 -0.0029223063 7.5386298e-21)
(-0.037703326 -0.0035910834 2.3864308e-20)
(-0.032308513 -0.0042400383 -4.3852752e-20)
(-0.02615671 -0.0048211719 -2.7739449e-20)
(-0.0016522065 0.0041808839 -5.3716421e-21)
(-0.0053975016 0.0092681742 1.0865479e-20)
(-0.01121855 0.012007488 -1.0191624e-20)
(-0.017658087 0.013153809 3.9230249e-21)
(-0.023856511 0.013195455 4.8121921e-21)
(-0.029433409 0.012462759 7.1324757e-22)
(-0.034152419 0.01119704 -2.250965e-20)
(-0.037860478 0.0095739127 -2.0370419e-21)
(-0.040474393 0.0077189916 2.0163686e-20)
(-0.041959004 0.0057212224 -5.0473949e-21)
(-0.042309013 0.0036428432 -2.1762746e-20)
(-0.041537373 0.0015266775 4.8973515e-21)
(-0.039667714 -0.0005983555 2.2635572e-20)
(-0.036729041 -0.0027128267 1.0308466e-20)
(-0.032751943 -0.0048027714 2.1854458e-20)
(-0.027769021 -0.0068556083 -1.9770882e-20)
(-0.021824577 -0.0088583381 -2.1673113e-20)
(-0.014965976 -0.010804363 2.1184802e-20)
(-0.0071286355 -0.01267916 2.6810588e-20)
(0.0018747774 -0.014317403 1.5854888e-20)
(-0.0023034378 0.0065602588 -4.3568939e-21)
(-0.0065392464 0.014480249 -5.6387735e-21)
(-0.011892169 0.018710608 3.072388e-22)
(-0.017211149 0.020428246 1.0959832e-21)
(-0.021819199 0.020400383 6.6918852e-21)
(-0.025431099 0.019151714 1.066524e-20)
(-0.027877282 0.017066321 -3.7227906e-21)
(-0.029053305 0.014423799 -1.8896296e-20)
(-0.028909049 0.011424349 6.5413626e-21)
(-0.027431031 0.0082098815 1.2862657e-20)
(-0.024627654 0.0048797305 5.8341332e-21)
(-0.020519999 0.0015021697 1.8159222e-20)
(-0.015135817 -0.0018769569 1.7296035e-21)
(-0.0085051597 -0.0052273675 -3.386476e-20)
(-0.00065657337 -0.0085277574 1.2020357e-21)
(0.0083814278 -0.011759286 -2.2139353e-20)
(0.01855738 -0.014904304 -2.4466503e-20)
(0.029802808 -0.017953993 4.5820084e-20)
(0.042305719 -0.020855392 2.5349568e-20)
(0.056739472 -0.023248074 1.2241123e-22)
(-0.0031290384 0.0083690014 -5.2833347e-21)
(-0.0078964229 0.018336576 -8.4815873e-21)
(-0.012439018 0.023587885 4.3593241e-21)
(-0.016026567 0.025609734 4.1463673e-21)
(-0.018235049 0.025382811 2.0105797e-21)
(-0.018912659 0.023589371 7.3210462e-21)
(-0.017984698 0.020730301 9.3125399e-21)
(-0.015416654 0.017170382 -1.3511464e-21)
(-0.011206944 0.013171291 -1.148202e-20)
(-0.0053750715 0.0089188802 -2.9072063e-20)
(0.002048343 0.004543355 6.1895369e-23)
(0.011026821 0.00013419621 4.069808e-20)
(0.021522631 -0.0042491002 -1.8383281e-20)
(0.033498363 -0.0085677705 -1.2296169e-20)
(0.046921143 -0.01279577 5.5348165e-22)
(0.061760858 -0.01691212 3.2302873e-20)
(0.077953922 -0.020901977 -1.4829671e-20)
(0.095393332 -0.024763729 -5.3339567e-20)
(0.11439969 -0.028380119 4.5765339e-20)
(0.13634682 -0.031073542 3.3013415e-20)
(-0.003970422 0.0094657652 -6.8788936e-22)
(-0.0090916813 0.020487857 -1.2534793e-20)
(-0.012364493 0.026159162 -3.4144697e-20)
(-0.013552547 0.02814341 -5.724199e-21)
(-0.012533221 0.027555064 -3.6222778e-21)
(-0.0093166665 0.0251881 6.3051417e-21)
(-0.0039455352 0.02162742 -4.6462314e-21)
(0.0035263025 0.017298937 -8.8070869e-21)
(0.013037073 0.012508695 2.1899836e-20)
(0.024521586 0.0074743491 5.0567354e-21)
(0.037915988 0.0023487712 -2.5290447e-20)
(0.053158014 -0.0027629584 1.1078339e-20)
(0.07018757 -0.0077910926 0)
(0.088947433 -0.012691567 1.2089649e-20)
(0.10938645 -0.017437231 -9.7016779e-21)
(0.13145861 -0.02201026 -1.4337217e-20)
(0.15507545 -0.026409063 -1.5738759e-21)
(0.18006919 -0.030659894 -2.2181817e-21)
(0.20685523 -0.034577068 4.6147342e-20)
(0.23766565 -0.03702046 -1.047024e-20)
(-0.0046451105 0.009780893 -7.5356961e-21)
(-0.0096772695 0.020747937 2.4516508e-20)
(-0.011064385 0.02616104 -1.0499398e-20)
(-0.009096805 0.027724499 -2.7469401e-20)
(-0.0039796447 0.026601729 -2.754825e-20)
(0.0040963236 0.023648415 -1.492164e-20)
(0.014954371 0.019496431 -6.9060663e-22)
(0.028436553 0.014604641 5.5500113e-21)
(0.044403577 0.0093033411 1.9615981e-20)
(0.062731054 0.0038282658 7.353123e-21)
(0.083305018 -0.0016549516 -7.186257e-21)
(0.10601984 -0.0070324844 -2.0102355e-21)
(0.13077461 -0.012229395 -3.8191919e-20)
(0.15747066 -0.017200104 -1.2693715e-20)
(0.18601343 -0.021920142 1.8750729e-20)
(0.21631342 -0.026380185 -2.102181e-20)
(0.24823412 -0.030602752 -8.9731133e-21)
(0.2815208 -0.034671202 3.044063e-20)
(0.31660942 -0.038365483 5.0472361e-20)
(0.3566528 -0.039964831 3.3559901e-21)
(-0.0049617792 0.0093140238 1.6783361e-20)
(-0.0091662775 0.019097752 1.4467987e-20)
(-0.0078593432 0.023563406 5.1145685e-20)
(-0.0018584648 0.024328968 2.3388085e-20)
(0.0082958713 0.022523781 1.8251864e-22)
(0.022222182 0.019014349 -3.938864e-20)
(0.039597796 0.014440861 -2.4313963e-20)
(0.060148388 0.0092662408 1.0465866e-20)
(0.083639748 0.0038230622 1.4401652e-20)
(0.10986749 -0.0016515153 -1.3113768e-20)
(0.13864661 -0.0069912785 -4.4038926e-20)
(0.16980288 -0.012083171 2.9618645e-20)
(0.20316544 -0.016854541 2.0020644e-20)
(0.23856108 -0.021264437 -2.7551298e-20)
(0.27581416 -0.025296907 1.1650202e-20)
(0.31475021 -0.028957736 2.4197745e-20)
(0.35514782 -0.032303687 8.0724451e-21)
(0.39663649 -0.035507381 -1.1764292e-20)
(0.43957989 -0.03839342 -1.4190357e-20)
(0.48798824 -0.038635255 5.8728605e-21)
(-0.0047307826 0.0081236903 1.1093888e-20)
(-0.0070585913 0.015671196 -2.335283e-20)
(-0.0020293075 0.018562041 8.6200689e-21)
(0.0090326558 0.018216209 3.358811e-20)
(0.025256599 0.015651101 5.2124536e-20)
(0.0460667 0.011695515 2.0276592e-20)
(0.070985031 0.0069608197 -5.8639586e-21)
(0.099602622 0.0018827703 -1.2286333e-20)
(0.1315698 -0.0032274306 -6.2057752e-21)
(0.16657673 -0.008149944 3.424098e-20)
(0.20433552 -0.012733663 -4.5104664e-21)
(0.24456635 -0.016879588 -1.6643381e-20)
(0.28698645 -0.020529148 -1.9693659e-20)
(0.33130198 -0.023656937 -4.7443971e-20)
(0.37720685 -0.026266122 2.3238819e-20)
(0.42439022 -0.028388517 -1.409606e-20)
(0.47250251 -0.030128343 2.5993553e-20)
(0.5210392 -0.031783982 2.1040944e-20)
(0.5702172 -0.033351544 -8.5570768e-20)
(0.62471263 -0.032059784 -1.0804985e-22)
(-0.0037710508 0.0063146467 2.1925132e-20)
(-0.0028657316 0.01073509 -2.6165644e-20)
(0.0071422124 0.011564108 -4.5013463e-20)
(0.024450445 0.0099249284 -2.725389e-20)
(0.047871196 0.0066522054 -2.0439951e-21)
(0.076629205 0.0024904723 1.3050145e-20)
(0.11007741 -0.0020155882 -2.8337778e-21)
(0.14765294 -0.0064881478 1.8118604e-20)
(0.18886206 -0.0106638 8.8685918e-21)
(0.23325328 -0.014362773 -1.1380216e-20)
(0.28039307 -0.017469358 8.8779588e-21)
(0.32984787 -0.019917273 -2.3903369e-20)
(0.38117091 -0.021679226 8.0505217e-21)
(0.43389321 -0.022760466 1.6756473e-20)
(0.48752197 -0.023194957 -2.6395248e-21)
(0.54155002 -0.023047614 1.6619039e-21)
(0.59543855 -0.022470237 -3.1956993e-22)
(0.64852113 -0.021870965 1.9590526e-20)
(0.70082586 -0.021445995 4.0434209e-21)
(0.75745511 -0.018500093 -5.7345666e-22)
(-0.0019110026 0.0040273449 2.3692208e-20)
(0.0038694994 0.0046764872 5.7160204e-20)
(0.020315481 0.0031878965 -4.9244409e-20)
(0.045178591 0.00029431839 -9.9454538e-21)
(0.076965623 -0.0034243037 2.0256419e-20)
(0.11469689 -0.007353785 2.1433794e-21)
(0.15753971 -0.011055205 -2.9815266e-20)
(0.20474942 -0.014244438 6.9848303e-21)
(0.25565086 -0.016738279 7.1098208e-21)
(0.30960635 -0.018427361 -2.6254182e-20)
(0.36598836 -0.019260557 1.2927396e-21)
(0.42416173 -0.019232383 -3.7174274e-20)
(0.48347343 -0.018372778 -3.6341183e-20)
(0.54324831 -0.016738913 6.5683807e-20)
(0.60279101 -0.014408004 5.5627788e-21)
(0.66139194 -0.011476668 -1.5188896e-20)
(0.71831112 -0.008102887 1.9364067e-20)
(0.77270242 -0.0045937821 -9.1888626e-22)
(0.82409186 -0.00096904298 2.0364628e-20)
(0.87622323 0.0043269904 -1.9554314e-20)
(-0.018836077 -0.0050997658 5.8352577e-20)
(-0.010224206 -0.0056349959 1.5783801e-20)
(-0.00022061997 -0.0060689553 -3.5139877e-20)
(0.010823942 -0.0063341905 1.6790406e-20)
(0.022643339 -0.0065121331 0)
(0.03517893 -0.0066301811 0)
(0.048370895 -0.0066910694 -2.2975188e-20)
(0.062139517 -0.0067026405 -1.6503044e-20)
(0.076414383 -0.0066742796 1.9122817e-20)
(0.091135987 -0.0066127753 1.8174247e-20)
(0.10624935 -0.0065233196 1.0524342e-21)
(0.12170268 -0.0064104759 -1.0317754e-20)
(0.13744767 -0.0062782029 8.3270017e-21)
(0.1534391 -0.006129848 1.8233934e-20)
(0.16963422 -0.0059682744 -5.2275098e-21)
(0.18599237 -0.0057959675 -1.0175059e-20)
(0.2024748 -0.0056150986 -4.3196405e-21)
(0.21904449 -0.0054275766 -4.4257815e-21)
(0.23566601 -0.0052350937 7.3667648e-22)
(0.25230549 -0.0050391602 1.2286242e-21)
(0.2689306 -0.0048411312 2.5666895e-21)
(0.28551056 -0.0046422265 6.65406e-21)
(0.30201619 -0.0044435454 2.4892041e-22)
(0.31841994 -0.0042460773 -3.4515408e-21)
(0.33469598 -0.0040507099 1.55584e-22)
(0.35082024 -0.0038582348 -5.7711161e-22)
(0.36677047 -0.003669352 1.2434688e-21)
(0.38252627 -0.003484674 1.05226e-21)
(0.39806912 -0.0033047294 -1.2988628e-21)
(0.4133824 -0.0031299663 -1.2218429e-22)
(0.4284514 -0.0029607568 3.5710214e-23)
(0.44326326 -0.0027974009 -3.5189314e-22)
(0.457807 -0.0026401319 -4.0569788e-22)
(0.47207344 -0.0024891211 5.5443063e-23)
(0.48605518 -0.0023444838 -1.3810175e-22)
(0.49974653 -0.0022062855 -2.2344824e-22)
(0.5131435 -0.0020745484 2.557437e-22)
(0.52624375 -0.0019492583 2.9505377e-22)
(0.5390465 -0.0018303735 -8.2946408e-24)
(0.55155289 -0.0017178287 -1.5523368e-22)
(0.56376491 -0.001611563 3.0406236e-23)
(0.57568917 -0.0015114764 -4.0151798e-23)
(0.58732588 -0.0014176404 9.2253165e-23)
(0.59870413 -0.0013297186 2.1966935e-23)
(0.60977823 -0.0012489963 -1.1408401e-22)
(0.6207405 -0.0011722623 -6.7729195e-24)
(0.63111273 -0.0011117551 -6.6234511e-26)
(0.64240741 -0.0010344954 -3.5798163e-24)
(0.65048876 -0.0010514219 2.9448228e-23)
(0.66708235 -0.00087626202 3.6067554e-22)
(0.010446464 -0.015017803 -1.274695e-20)
(0.018180406 -0.016641225 -6.3302895e-20)
(0.027780057 -0.017915647 -3.0542249e-20)
(0.038386135 -0.018672321 3.8476395e-20)
(0.049622141 -0.019183854 1.4662762e-20)
(0.061507961 -0.019529714 -1.820514e-20)
(0.074014347 -0.019710162 4.67228e-21)
(0.087064407 -0.019746803 2.5447462e-20)
(0.10059511 -0.019667605 9.1967192e-23)
(0.11455623 -0.019492038 -7.6592265e-21)
(0.12889965 -0.01923471 -1.3021128e-20)
(0.14357877 -0.018908674 -8.5246601e-21)
(0.15854971 -0.018525347 1.7772549e-20)
(0.17377094 -0.018094386 8.9297451e-21)
(0.18920273 -0.017624076 -1.65226e-20)
(0.20480687 -0.017121639 -6.0391359e-21)
(0.22054665 -0.016593415 3.214533e-21)
(0.23638668 -0.016045 8.3717211e-21)
(0.25229292 -0.015481372 6.9833404e-21)
(0.2682326 -0.014906992 -6.9728748e-21)
(0.28417432 -0.014325876 -3.1686661e-21)
(0.30008803 -0.013741649 1.3606218e-21)
(0.31594517 -0.013157586 3.8691732e-22)
(0.33171868 -0.012576641 1.2114417e-21)
(0.34738309 -0.012001473 1.8370804e-22)
(0.36291464 -0.011434453 -3.2664551e-22)
(0.37829124 -0.010877687 -7.2438907e-22)
(0.39349263 -0.010333017 9.7165475e-22)
(0.40850031 -0.0098020372 8.2489607e-22)
(0.42329765 -0.0092861047 -1.515422e-22)
(0.43786982 -0.0087863479 5.5312435e-22)
(0.45220383 -0.0083036816 -2.3882094e-22)
(0.46628848 -0.0078388204 -3.7076131e-22)
(0.48011434 -0.0073922949 -6.100698e-22)
(0.49367371 -0.0069644685 4.4175403e-22)
(0.50696055 -0.0065555552 -1.555043e-23)
(0.51997049 -0.00616564 1.6132498e-22)
(0.5327008 -0.0057946983 -4.418696e-22)
(0.54515025 -0.0054426237 3.7206309e-22)
(0.55731952 -0.0051092383 6.7191948e-23)
(0.56921014 -0.0047943779 -1.0285706e-22)
(0.58082822 -0.0044977593 1.7626087e-22)
(0.59217352 -0.0042196126 2.335927e-22)
(0.60327437 -0.0039589483 1.6944094e-22)
(0.6140853 -0.0037196166 1.6789339e-22)
(0.62479572 -0.0034920557 -2.6140087e-23)
(0.63493382 -0.0033127403 8.4263353e-23)
(0.64598914 -0.0030835078 7.6512176e-23)
(0.65389096 -0.003134202 -1.9497851e-22)
(0.67016553 -0.0026145381 -3.7989246e-23)
(0.067615734 -0.024029476 9.4529225e-21)
(0.073590832 -0.02674941 3.2951501e-21)
(0.082266809 -0.02880596 -1.2162374e-20)
(0.091949278 -0.029968922 -1.2258279e-21)
(0.10198484 -0.030768306 1.4970766e-20)
(0.11254814 -0.031331358 -1.4887279e-20)
(0.12367797 -0.031636561 -2.9842622e-20)
(0.13529903 -0.031713518 1.4493713e-20)
(0.1473594 -0.031608171 1.8182204e-20)
(0.15982612 -0.031350611 -1.1598671e-20)
(0.17266355 -0.030962396 1.0190676e-21)
(0.18583406 -0.030463349 8.6860658e-21)
(0.19930138 -0.029871166 -1.5253772e-20)
(0.21303043 -0.029200873 2.9096789e-21)
(0.22698664 -0.028465412 7.5195734e-21)
(0.24113599 -0.027676175 3.1501937e-23)
(0.25544513 -0.026843246 2.6550364e-22)
(0.26988146 -0.025975603 -7.4152485e-21)
(0.28441316 -0.025081289 3.861875e-21)
(0.29900931 -0.024167563 8.4751117e-21)
(0.31363997 -0.023240996 -3.8352731e-21)
(0.32827629 -0.022307556 -2.2130772e-21)
(0.34289066 -0.021372659 1.0124323e-21)
(0.35745677 -0.020441212 -1.7156022e-21)
(0.37194972 -0.019517643 1.3532552e-21)
(0.38634612 -0.018605921 7.184766e-22)
(0.40062418 -0.017709576 1.527014e-21)
(0.41476373 -0.016831714 -1.952852e-21)
(0.42874628 -0.015975031 2.2238043e-21)
(0.44255507 -0.01514183 5.5194015e-22)
(0.45617505 -0.01433404 4.0336924e-22)
(0.46959289 -0.013553235 3.2136045e-22)
(0.48279699 -0.012800661 8.7342552e-22)
(0.49577738 -0.012077255 -1.3711432e-21)
(0.50852579 -0.01138368 3.7075038e-22)
(0.52103554 -0.01072035 1.0951336e-22)
(0.53330153 -0.010087464 -4.5207777e-23)
(0.54532026 -0.0094850394 8.6693744e-23)
(0.55708969 -0.0089129563 -3.7197661e-22)
(0.56860965 -0.0083709754 1.8303137e-22)
(0.57988079 -0.0078588788 -3.4996838e-23)
(0.59090827 -0.007376249 3.9037147e-22)
(0.60169104 -0.0069235175 -1.8561603e-22)
(0.61225606 -0.0064990957 4.7354915e-23)
(0.62255815 -0.0061093805 4.3666239e-23)
(0.63278134 -0.0057386734 -7.3712258e-23)
(0.64246597 -0.0054469574 -1.2112051e-22)
(0.6530576 -0.0050732334 3.8885299e-22)
(0.66061104 -0.005157322 1.7298801e-22)
(0.67626726 -0.0043105034 -8.3078311e-22)
(0.15021692 -0.031460905 1.5010407e-21)
(0.15354865 -0.035257909 -1.1566683e-20)
(0.16061813 -0.038011473 6.6442259e-21)
(0.16880797 -0.039479685 -1.3324867e-20)
(0.17698448 -0.040521308 -1.9758505e-21)
(0.18552589 -0.041302931 9.1600668e-21)
(0.19458682 -0.041757919 -9.7663875e-21)
(0.20408976 -0.041914422 1.5662439e-21)
(0.21399075 -0.041834072 1.2903946e-20)
(0.2242793 -0.041555104 3.4032759e-21)
(0.23493611 -0.041102841 -6.2097703e-21)
(0.24593406 -0.040501272 -2.8638842e-21)
(0.25724574 -0.039772598 -5.8409208e-21)
(0.26884359 -0.038935931 -6.4554356e-21)
(0.28069904 -0.038007876 3.2356539e-21)
(0.2927828 -0.037003228 8.4611945e-22)
(0.3050653 -0.035935276 1.3680169e-21)
(0.31751695 -0.034815998 -3.3850932e-21)
(0.33010835 -0.03365625 -4.2430345e-21)
(0.34281049 -0.032465923 2.3617339e-21)
(0.35559492 -0.031254051 3.2252787e-21)
(0.36843402 -0.030028898 -1.5637337e-21)
(0.38130104 -0.028798013 1.5867976e-21)
(0.39417038 -0.027568275 -3.9129086e-22)
(0.4070176 -0.026345919 -3.9199043e-21)
(0.41981962 -0.025136563 -3.0334033e-21)
(0.43255476 -0.023945225 -1.903135e-22)
(0.44520281 -0.022776339 4.2855781e-22)
(0.45774515 -0.021633775 -2.210721e-21)
(0.47016469 -0.02052086 -8.5513438e-22)
(0.48244597 -0.019440401 2.2838609e-22)
(0.49457513 -0.018394714 -1.2500582e-21)
(0.50653988 -0.017385655 6.2199444e-24)
(0.51832954 -0.016414652 -4.2431443e-22)
(0.52993498 -0.01548275 -4.7197566e-22)
(0.54134861 -0.014590644 -5.2016679e-22)
(0.55256432 -0.013738733 -8.4165824e-22)
(0.56357755 -0.012927155 -5.4473567e-23)
(0.57438516 -0.012155859 -3.9167379e-24)
(0.5849858 -0.011424624 -5.1997685e-22)
(0.59537894 -0.010733254 -9.157896e-23)
(0.60556845 -0.010081274 -3.3263461e-22)
(0.61555219 -0.0094693797 -4.3801484e-22)
(0.6253552 -0.0088954724 3.7879534e-22)
(0.63493285 -0.0083684484 1.4836447e-23)
(0.64446148 -0.0078668465 1.8264098e-22)
(0.65349894 -0.0074728986 -1.3278547e-22)
(0.6634276 -0.0069667647 -2.6741094e-22)
(0.67048309 -0.0070834469 -4.4412306e-23)
(0.68525246 -0.0059375509 4.6253185e-22)
(0.25468791 -0.036553382 -2.090051e-20)
(0.25447258 -0.041394175 4.7586324e-20)
(0.25907585 -0.044746367 1.0348169e-20)
(0.26508681 -0.046442792 -1.5765463e-20)
(0.27071219 -0.047715101 -2.0228441e-21)
(0.27652299 -0.048748599 2.6232185e-21)
(0.28283873 -0.049414579 -1.6608716e-21)
(0.28958035 -0.049728996 -4.6861911e-21)
(0.29670025 -0.049762362 -4.0159612e-21)
(0.30420938 -0.049558018 -1.220778e-20)
(0.31210634 -0.049142686 1.7898031e-20)
(0.32037381 -0.048541834 6.5221158e-21)
(0.32899172 -0.04778003 -1.6780737e-20)
(0.33793905 -0.046879115 1.0317622e-20)
(0.34719243 -0.045858428 8.3850101e-21)
(0.35672645 -0.044735472 -8.7915271e-22)
(0.36651452 -0.043526258 -3.1221998e-21)
(0.37652935 -0.04224547 -3.8198879e-21)
(0.3867433 -0.040906614 -1.3893298e-21)
(0.39712864 -0.03952214 -1.2304876e-21)
(0.4076579 -0.038103544 -3.0259152e-21)
(0.41830412 -0.036661427 0)
(0.42904101 -0.03520555 -1.3452722e-21)
(0.43984319 -0.033744858 3.9310803e-21)
(0.45068633 -0.032287506 5.4055421e-21)
(0.46154725 -0.030840878 -9.4114613e-22)
(0.47240406 -0.0294116 -2.9277175e-21)
(0.48323624 -0.02800556 3.0261775e-21)
(0.49402468 -0.026627926 2.5438379e-22)
(0.50475172 -0.025283171 3.4356326e-21)
(0.5154012 -0.023975102 -5.3461941e-22)
(0.52595849 -0.022706893 1.7175359e-21)
(0.53641041 -0.02148113 -7.9978774e-22)
(0.54674529 -0.020299846 2.9105631e-22)
(0.55695296 -0.019164581 -4.3417057e-22)
(0.56702466 -0.018076423 5.6241869e-22)
(0.57695311 -0.017036075 4.5724479e-22)
(0.58673247 -0.016043905 3.8269521e-22)
(0.59635827 -0.015100033 -9.5974121e-22)
(0.60582782 -0.014204355 6.8386625e-22)
(0.61513917 -0.013356794 -3.6975806e-22)
(0.62429471 -0.012556911 -1.1040575e-21)
(0.63329104 -0.011805743 1.4089076e-21)
(0.64215093 -0.011100795 -6.2048917e-23)
(0.65083054 -0.010453387 -1.583361e-22)
(0.65949664 -0.0098367967 -7.8356313e-24)
(0.66772932 -0.0093537898 -1.2651677e-22)
(0.67683118 -0.0087310763 -4.6660923e-22)
(0.68326645 -0.0088791365 8.7864358e-22)
(0.6969242 -0.0074711087 -4.4344436e-23)
(0.37635414 -0.038368938 -1.7495268e-20)
(0.37171274 -0.044271044 1.283213e-20)
(0.37287002 -0.048162474 2.9755278e-21)
(0.37591374 -0.050099756 -7.6354423e-21)
(0.37830873 -0.051670918 1.2056095e-20)
(0.38072658 -0.053043362 7.7914885e-21)
(0.38367985 -0.054031071 -1.2647784e-20)
(0.38710462 -0.054634175 -6.0680402e-21)
(0.3909335 -0.054919116 1.2697478e-20)
(0.39518693 -0.054928286 -1.5305225e-20)
(0.399879 -0.054688706 -1.4063353e-20)
(0.40500008 -0.054225882 1.4129907e-20)
(0.41053391 -0.053564927 6.8194732e-21)
(0.41646277 -0.052729253 -4.2039645e-21)
(0.42276605 -0.051740358 -1.8544941e-21)
(0.42942028 -0.050618129 -4.0581348e-21)
(0.43640009 -0.049381118 5.304732e-21)
(0.44367895 -0.048046682 3.6682644e-21)
(0.45122964 -0.046631042 -3.2408538e-21)
(0.45902462 -0.045149349 3.137999e-21)
(0.46703637 -0.043615734 2.7667837e-21)
(0.47523771 -0.042043345 -3.2112294e-21)
(0.48360201 -0.040444366 3.7057342e-22)
(0.49210346 -0.038830029 -3.2572291e-21)
(0.50071715 -0.037210629 7.2459574e-21)
(0.5094193 -0.035595525 6.1084286e-21)
(0.51818731 -0.033993159 8.0985947e-22)
(0.52699986 -0.032411065 -1.7684329e-21)
(0.53583699 -0.030855896 3.7026343e-21)
(0.54468013 -0.029333446 7.1893816e-21)
(0.55351213 -0.027848689 2.305137e-21)
(0.56231728 -0.026405819 3.3169706e-21)
(0.57108128 -0.0250083 1.9958911e-21)
(0.5797913 -0.023658918 7.4572857e-22)
(0.5884359 -0.022359842 -2.6376628e-22)
(0.59700505 -0.021112687 2.7209754e-21)
(0.6054901 -0.019918588 6.2008622e-22)
(0.61388385 -0.018778264 2.9495761e-22)
(0.62218041 -0.017692122 5.6247161e-23)
(0.63037562 -0.016660286 9.9013841e-22)
(0.63846607 -0.015682907 4.7034047e-23)
(0.64645255 -0.014759685 4.4277328e-22)
(0.65433037 -0.013892077 -1.2629134e-22)
(0.66211984 -0.013077319 -2.776117e-22)
(0.66977821 -0.012329052 -1.5234543e-22)
(0.67746121 -0.011615886 -4.2260967e-22)
(0.68477517 -0.011059049 1.6173786e-22)
(0.69292933 -0.010338241 -1.2742561e-22)
(0.69865559 -0.010516104 -5.0113824e-22)
(0.71103011 -0.0088892865 2.4603159e-22)
(0.50927761 -0.035975182 3.6471313e-21)
(0.49953382 -0.042961609 -1.8958406e-20)
(0.49627913 -0.047384454 -2.3084116e-21)
(0.49555965 -0.049737804 5.4869908e-21)
(0.49417342 -0.051819114 3.0528602e-21)
(0.4926998 -0.053706527 -4.9839863e-23)
(0.49181654 -0.055188811 6.1897836e-21)
(0.49151896 -0.056266606 7.6251952e-21)
(0.49171633 -0.056991784 9.8581287e-21)
(0.49241561 -0.057396869 -1.1250184e-20)
(0.49363617 -0.05750764 -2.157974e-20)
(0.49537315 -0.057349798 -3.9354525e-21)
(0.49761032 -0.056948554 1.5938401e-20)
(0.50032896 -0.056328474 1.2809167e-20)
(0.5035079 -0.05551324 -5.9067275e-21)
(0.50712309 -0.054525395 1.3816341e-21)
(0.51114832 -0.053386376 -3.6602302e-21)
(0.51555604 -0.052116573 2.2445826e-21)
(0.52031797 -0.050735326 -2.9123496e-22)
(0.52540545 -0.049260889 -1.865465e-21)
(0.53078982 -0.047710432 7.8269061e-21)
(0.53644269 -0.046100032 -2.9314938e-22)
(0.54233627 -0.044444663 4.1824623e-22)
(0.54844352 -0.042758193 -6.5641992e-22)
(0.55473832 -0.041053373 -4.3031348e-21)
(0.56119566 -0.039341842 4.2087259e-21)
(0.56779169 -0.037634132 1.9031687e-21)
(0.57450386 -0.035939683 -3.3083898e-21)