/*--------------------------------*- C++ -*----------------------------------*\
  =========                 |
  \\      /  F ield         | OpenFOAM: The Open Source CFD Toolbox
   \\    /   O peration     | Website:  https://openfoam.org
    \\  /    A nd           | Version:  6
     \\/     M anipulation  |
\*---------------------------------------------------------------------------*/
FoamFile
{
    version     2.0;
    format      ascii;
    class       surfaceScalarField;
    location    "39";
    object      phi;
}
// * * * * * * * * * * * * * * * * * * * * * * * * * * * * * * * * * * * * * //

dimensions      [0 3 -1 0 0 0 0];

internalField   nonuniform List<scalar> 
18180
(
0.00032143591
-0.00016844947
-0.00015298641
0.0013200465
-0.0013886541
0.00039004354
0.0030575905
-0.0033777394
0.0016401954
0.0055944074
-0.0060481325
0.0035113157
0.0089890977
-0.009344812
0.0059501217
0.01329647
-0.013224123
0.0089167511
0.018564809
-0.017648312
0.012379973
0.024832838
-0.022582762
0.016314734
0.032126497
-0.027992833
0.020699174
0.040455819
-0.033841223
0.0255119
0.049812208
-0.040086206
0.030729818
0.060166505
-0.046680732
0.036326434
0.071468263
-0.053572363
0.042270605
0.083646662
-0.060704086
0.048525687
0.096613708
-0.068016086
0.055049041
0.1102702
-0.075448586
0.061792096
0.12451391
-0.082945582
0.068701868
0.13925494
-0.090459191
0.075718161
0.1544891
-0.097971468
0.082737311
-0.10547983
0.089557196
0.17041173
0.00040057371
-0.00056902316
0.0016217624
-0.0026098427
0.003716763
-0.00547274
0.006736486
-0.0090678555
0.010727622
-0.013335948
0.015728899
-0.018225399
0.021766987
-0.0236864
0.028852476
-0.029668251
0.036976187
-0.036116544
0.046106266
-0.042971301
0.056186468
-0.050166408
0.067136018
-0.057630282
0.078851274
-0.065287618
0.091209282
-0.073062094
0.10407301
-0.080879811
0.1172976
-0.08867318
0.13073677
-0.096384746
0.14424964
-0.10397207
0.15769985
-0.11142167
-0.11866485
0.17088488
0.00048405142
-0.0010530746
0.0019320403
-0.0040578316
0.0043821778
-0.0079228775
0.0078689263
-0.012554604
0.012418656
-0.017885678
0.018044149
-0.023850892
0.024739443
-0.030381694
0.032475521
-0.037404329
0.041197284
-0.044838307
0.050822298
-0.052596315
0.061241708
-0.060585818
0.072323467
-0.068712041
0.08391775
-0.076881901
0.09586412
-0.085008465
0.10799969
-0.093015383
0.12016719
-0.10084068
0.13222173
-0.10843928
0.14403426
-0.1157846
0.15548405
-0.12287145
-0.12965119
0.16647038
0.00056990677
-0.0016229813
0.0022422166
-0.0057301414
0.0050318907
-0.010712552
0.008948281
-0.016470994
0.013987737
-0.022925135
0.020126647
-0.029989801
0.027316059
-0.037571106
0.035478355
-0.045566625
0.044506437
-0.053866389
0.054265794
-0.062355672
0.06459948
-0.070919505
0.075335651
-0.079448212
0.086296939
-0.087843188
0.097310643
-0.096022169
0.10821858
-0.10392332
0.11888543
-0.11150753
0.12920471
-0.11875856
0.13910131
-0.1256812
0.14852819
-0.13229833
-0.13861084
0.15748783
0.00065485873
-0.00227784
0.0025392025
-0.0076144852
0.0056356169
-0.013808966
0.0099189153
-0.020754293
0.015345646
-0.028351866
0.021846515
-0.03649067
0.029322124
-0.045046715
0.037642225
-0.053886726
0.046648712
-0.062872876
0.056162218
-0.071869178
0.065991662
-0.080748948
0.075945653
-0.089402203
0.085844369
-0.097741904
0.095530434
-0.10570823
0.10487752
-0.1132704
0.1137958
-0.12042581
0.1222339
-0.12719666
0.13017752
-0.13362483
0.13764483
-0.13976564
-0.14566422
0.14469821
0.00073474053
-0.0030125805
0.0028070964
-0.009686841
0.0061582187
-0.017160088
0.010719405
-0.025315479
0.01639913
-0.03403159
0.023076205
-0.043167745
0.030598245
-0.052568754
0.038785007
-0.062073488
0.0474362
-0.07152407
0.056342776
-0.080775755
0.065300157
-0.089706329
0.074121563
-0.09822361
0.082649631
-0.10626997
0.090764856
-0.11382346
0.098389941
-0.12089549
0.10548991
-0.12752578
0.11206853
-0.13377528
0.11816199
-0.13971829
0.12383127
-0.14543491
-0.15099719
0.12916424
0.0008048424
-0.0038174229
0.0030285763
-0.011910575
0.0065630743
-0.020694586
0.011289002
-0.030041407
0.017061618
-0.039804206
0.023706322
-0.049812449
0.031021322
-0.059883754
0.038785941
-0.069838107
0.046773182
-0.079511312
0.054764536
-0.088767108
0.062564663
-0.097506456
0.070013722
-0.10567267
0.076995631
-0.11325188
0.083441377
-0.1202692
0.089327368
-0.12678148
0.094669647
-0.13286806
0.099515374
-0.13862101
0.10393322
-0.14413613
0.10800424
-0.14950594
-0.15481201
0.11181906
0.00086003574
-0.0046774586
0.0031858438
-0.014236383
0.0068148167
-0.024323559
0.011573145
-0.034799735
0.017262172
-0.045493233
0.023657924
-0.056208201
0.030518851
-0.066744681
0.037598962
-0.076918217
0.044663835
-0.086576185
0.051506613
-0.095609886
0.057961174
-0.10396102
0.063910479
-0.11162197
0.069289099
-0.1186305
0.074080109
-0.12506022
0.078307474
-0.13100885
0.082025639
-0.13658622
0.085308269
-0.14190364
0.088237877
-0.14706574
0.090897619
-0.15216568
-0.15728177
0.093367374
0.00089395161
-0.0055714102
0.0032606659
-0.016603097
0.0068815883
-0.027944481
0.011528616
-0.039446763
0.016953354
-0.050917971
0.022891739
-0.062146586
0.029076769
-0.072929711
0.035255194
-0.083096642
0.041204673
-0.092525663
0.046748033
-0.10115325
0.051762096
-0.10897508
0.056179869
-0.11603975
0.059986393
-0.12243703
0.063209614
-0.12828344
0.065908353
-0.13370759
0.068159627
-0.1388375
0.070047196
-0.14379121
0.071652721
-0.14867126
0.073050079
-0.15356304
-0.15853426
0.074302569
0.00090308141
-0.0064744916
0.0032439224
-0.018943938
0.0067486885
-0.031449248
0.011138997
-0.043837072
0.016125586
-0.05590456
0.021417962
-0.067438962
0.026740941
-0.078252691
0.031852611
-0.088208312
0.036559749
-0.097232802
0.040727541
-0.10532104
0.044281998
-0.11252954
0.047205244
-0.11896299
0.049525262
-0.12475704
0.051302495
-0.13006067
0.052615833
-0.13502092
0.053550121
-0.13977178
0.054186583
-0.14442767
0.05459678
-0.14908146
0.054839871
-0.15380613
0.054961595
-0.15865598
-0.00020404609
0.00020404614
-1.6795357e-11
-0.00068309674
0.00047905074
-4.3799171e-11
-0.0013526671
0.00066957045
-7.5174965e-11
-0.0021480451
0.00079537822
-1.0662419e-10
-0.0030171835
0.0008691386
-1.3804972e-10
-0.0039175708
0.0009003875
-1.7213877e-10
-0.0048139688
0.00089639828
-2.0852949e-10
-0.0056765204
0.00086255183
-2.5030774e-10
-0.0064792601
0.00080274005
-2.9502444e-10
-0.0071989489
0.00071968921
-3.4664119e-10
-0.0078141432
0.00061519482
-3.9968191e-10
-0.0083044488
0.00049030605
-4.6005768e-10
-0.0086499306
0.00034548238
-5.1895707e-10
-0.0088306704
0.00018074046
-5.8560189e-10
-0.0088265027
-4.1669778e-06
-6.4587728e-10
-0.0086170347
-0.00020946722
-7.1405411e-10
-0.00818191
-0.00043512385
-7.6912027e-10
-0.0075003969
-0.00068151221
-8.2965831e-10
-0.0065509683
-0.0009494277
-8.6536733e-10
-0.0012251574
-0.00532581
-8.9023282e-10
-0.00018944168
0.00039348784
-0.00062965547
0.00091926457
-0.001237521
0.001277436
-0.0019484302
0.0015062874
-0.0027097055
0.0016304139
-0.0034776235
0.0016683056
-0.0042152417
0.0016340165
-0.0048905663
0.0015378764
-0.0054750966
0.0013872704
-0.0059426755
0.0011872682
-0.0062685614
0.00094108071
-0.0064286748
0.00065041946
-0.0063989835
0.00031579114
-0.0061550129
-6.32301e-05
-0.0056715114
-0.00048766839
-0.0049223638
-0.00095861475
-0.0038808023
-0.0014766853
-0.0025193286
-0.0020429859
-0.00080955365
-0.0026592027
-0.0032953238
0.0012606127
-0.00016001281
0.00055350068
-0.00052220107
0.0012814529
-0.0010067286
0.0017619636
-0.0015497073
0.0020492662
-0.0020976146
0.0021783212
-0.0026046722
0.0021753633
-0.0030308793
0.0020602236
-0.0033403245
0.0018473217
-0.0034998248
0.0015467708
-0.0034778349
0.0011652783
-0.0032435528
0.00070679864
-0.0027661882
0.0001730549
-0.0020143199
-0.00043607709
-0.00095537532
-0.0011221747
0.00044480733
-0.001887851
0.0022222689
-0.0027360762
0.0044149007
-0.0036693172
0.0070621297
-0.0046902149
0.010204839
-0.0058019117
-0.0069539501
0.013863465
-0.00011814417
0.00067164487
-0.00036851443
0.0015318232
-0.00067569073
0.0020691399
-0.00097681208
0.0023503876
-0.0012172544
0.0024187635
-0.0013484798
0.0023065887
-0.0013263627
0.0020381065
-0.0011097186
0.0016306776
-0.00065909525
0.0010961475
6.419028e-05
0.00044199278
0.0010988451
-0.00032785621
0.0024842526
-0.0012123525
0.0042610201
-0.0022128446
0.0064714641
-0.0033326186
0.009160119
-0.004576506
0.0123743
-0.0059502574
0.016164486
-0.007459503
0.02058402
-0.0091097486
0.025688892
-0.010906784
-0.012775897
0.031510839
-6.6918644e-05
0.00073856354
-0.00017865284
0.0016435574
-0.00026439732
0.0021548844
-0.00026227158
0.0023482619
-0.00011625967
0.0022727517
0.00022543679
0.0019648923
0.00081173679
0.0014518066
0.0016898582
0.00075255618
0.0029062968
-0.00012029099
0.0045076147
-0.0011593252
0.0065410057
-0.0023612472
0.0090547079
-0.0037260546
0.012098326
-0.0052564623
0.015723149
-0.0069574417
0.019982511
-0.0088358684
0.024932397
-0.010900143
0.030632313
-0.013159419
0.037145804
-0.01562324
0.044541237
-0.018302217
-0.021096802
0.052862142
-9.4317839e-06
0.00074799534
3.7110432e-05
0.0015970152
0.00020645701
0.0019855379
0.00055984125
0.0019948777
0.0011549365
0.0016776564
0.0020470162
0.0010728126
0.0032899205
0.00020890232
0.0049369408
-0.00089446407
0.007041474
-0.0022248242
0.00965739
-0.0037752411
0.012839234
-0.0055430909
0.016642315
-0.0075291359
0.021122614
-0.0097367615
0.026336593
-0.01217142
0.032341058
-0.014840333
0.039193416
-0.017752501
0.046952818
-0.020918821
0.055682207
-0.024352628
0.065452181
-0.028072191
-0.031959187
0.076314566
5.1824434e-05
0.00069617093
0.00027018124
0.0013786584
0.00071905898
0.0015366602
0.0014594784
0.0012544583
0.0025508623
0.00058627265
0.0040517891
-0.00042811423
0.0060205817
-0.0017598902
0.0085156812
-0.0033895635
0.011595765
-0.0053049078
0.015319699
-0.0074991754
0.019746247
-0.0099696383
0.024933508
-0.012716397
0.030938149
-0.015741403
0.037814458
-0.01904773
0.045613357
-0.022639232
0.054381783
-0.026520928
0.064163429
-0.030700467
0.075002072
-0.035191271
0.086950514
-0.040020634
-0.045072227
0.10006355
0.00011532935
0.0005808416
0.00051478969
0.00097919812
0.0012606648
0.00079078511
0.0024140063
0.00010111676
0.0040357324
-0.0010354534
0.0061869517
-0.0025793335
0.0089289217
-0.0045018601
0.012322849
-0.0067834909
0.016429456
-0.0094115142
0.021308196
-0.012377916
0.027016181
-0.015677623
0.033606801
-0.019307017
0.04112809
-0.023262692
0.049620868
-0.027540507
0.059116784
-0.032135147
0.069636635
-0.037040779
0.081190115
-0.042253947
0.093778848
-0.047780004
0.10740779
-0.053649575
-0.059782944
0.12211851
0.00018043106
0.00040041056
0.00076788391
0.0003917453
0.0018234897
-0.00026482065
0.0034080065
-0.0014834
0.0055827829
-0.0032102298
0.0084094707
-0.0054060213
0.011949366
-0.008041755
0.016262442
-0.011096567
0.021406027
-0.014555099
0.027433122
-0.018405012
0.034390426
-0.022634926
0.042316072
-0.027232663
0.051237156
-0.032183776
0.061167055
-0.037470406
0.07210256
-0.043070652
0.084020862
-0.048959081
0.096877354
-0.055110439
0.11060697
-0.061509618
0.12513752
-0.068180129
-0.07512666
0.14048124
0.00024742417
0.001029213
0.0024045878
0.0044325035
0.0071723955
0.010683125
0.015021343
0.020239509
0.026383584
0.033490473
0.041585364
0.050679135
0.060765964
0.071821245
0.083799634
0.096632649
0.11022408
0.12443262
0.1389898
0.15342034
-0.0033377716
-0.0019880373
-1.1856932e-09
-0.0010614588
-0.0022763118
-1.1073998e-09
0.0014812913
-0.0025427493
-9.5337332e-10
0.0042332685
-0.0027519766
-7.1387531e-10
0.0071678495
-0.0029345808
-3.7458016e-10
0.01026812
-0.0031002704
7.3406008e-11
0.013515477
-0.0032473585
6.3372538e-10
0.016892205
-0.0033767297
1.3291859e-09
0.02038294
-0.003490737
2.1517732e-09
0.02397383
-0.0035908931
3.0891682e-09
0.027651977
-0.0036781515
4.1186382e-09
0.031405374
-0.0037534015
5.2179438e-09
0.03522283
-0.0038174624
6.3633867e-09
0.039093847
-0.0038710255
7.5245878e-09
0.043008526
-0.0039146876
8.6624658e-09
0.046957506
-0.0039489896
9.7231996e-09
0.05093193
-0.0039744346
1.0642158e-08
0.054923421
-0.0039915028
1.1337978e-08
0.058924078
-0.0040006683
1.1722123e-08
0.062926478
-0.0040024117
1.1691815e-08
0.066923699
-0.0039972325
1.1147214e-08
0.070909347
-0.0039856573
9.9832225e-09
0.074877586
-0.0039682479
8.1176963e-09
0.078823188
-0.0039456072
5.4802152e-09
0.08274157
-0.0039183838
2.0543154e-09
0.086628848
-0.0038872765
-2.1411457e-09
0.090481893
-0.0038530377
-6.9955165e-09
0.094298382
-0.003816477
-1.2341008e-08
0.098076864
-0.0037784644
-1.7885422e-08
0.10181682
-0.0037399333
-2.3275284e-08
0.10551873
-0.0037018841
-2.8026287e-08
0.10918415
-0.0036653857
-3.1631498e-08
0.11281576
-0.0036315774
-3.3497114e-08
0.11641746
-0.003601667
-3.3110248e-08
0.11999441
-0.0035769238
-2.9976227e-08
0.1235531
-0.0035586641
-2.3851034e-08
0.12710134
-0.0035482202
-1.4640955e-08
0.13064823
-0.0035468882
-2.6879789e-09
0.13420406
-0.0035558482
1.1462361e-08
0.13778006
-0.0035760243
2.6757578e-08
0.141388
-0.0036079796
4.2059249e-08
0.14503947
-0.0036515319
5.5939683e-08
0.14874567
-0.003706265
6.6970165e-08
0.15251483
-0.0037692347
7.3954265e-08
0.15635738
-0.0038426276
7.6082356e-08
0.16026739
-0.0039100745
7.3070286e-08
0.16428538
-0.0040180633
6.5301864e-08
0.1683089
-0.0040235739
5.3299413e-08
0.17271373
-0.0044048662
3.9878218e-08
-0.0039681146
1.439795e-08
0.0031309311
-0.0038583558
0.005284388
-0.0044297688
0.0076907979
-0.0049491594
0.010287382
-0.0053485604
0.013053255
-0.0057004542
0.015976529
-0.0060235445
0.019040816
-0.0063116462
0.022230024
-0.0065659374
0.025530482
-0.0067911952
0.02892981
-0.0069902212
0.032416278
-0.0071646198
0.035978835
-0.0073159582
0.039607089
-0.0074457169
0.043291206
-0.0075551421
0.047021829
-0.0076453106
0.050790047
-0.0077172081
0.054587376
-0.007771763
0.058405745
-0.0078098726
0.062237509
-0.0078324324
0.066075459
-0.0078403613
0.069912848
-0.0078346221
0.073743429
-0.0078162382
0.077561488
-0.0077863069
0.081361891
-0.0077460104
0.085140132
-0.0076966252
0.088892384
-0.0076395286
0.092615553
-0.0075762062
0.096307334
-0.0075082583
0.099966276
-0.007437406
0.10359184
-0.0073654972
0.10718447
-0.0072945131
0.11074565
-0.0072265721
0.11427801
-0.0071639328
0.11778533
-0.0071089908
0.12127268
-0.0070642655
0.12474638
-0.0070323715
0.12821412
-0.0070159598
0.13168485
-0.0070176136
0.13516869
-0.0070396932
0.13867672
-0.0070840573
0.1422206
-0.0071518595
0.14581184
-0.0072427715
0.1494616
-0.0073560224
0.15317813
-0.0074857671
0.15697199
-0.0076364831
0.16083733
-0.0077754172
0.16481477
-0.0079955067
0.16880255
-0.0080113453
0.17317174
-0.0087740602
-0.0079150483
0.015488167
-0.0054830575
0.017378245
-0.0063198471
0.019497192
-0.0070681072
0.021774837
-0.0076262055
0.024199775
-0.0081253915
0.026768835
-0.0085926054
0.029469786
-0.0090125973
0.032289478
-0.0093856293
0.035217178
-0.0097188955
0.038243061
-0.010016104
0.04135743
-0.010278989
0.044550876
-0.010509403
0.047814359
-0.0107092
0.051139154
-0.010879937
0.054516811
-0.011022968
0.057939158
-0.011139555
0.061398312
-0.011230918
0.064886701
-0.011298261
0.068397085
-0.011342816
0.071922591
-0.011365868
0.075456752
-0.011368783
0.078993549
-0.011353034
0.082527454
-0.011320212
0.086053484
-0.011272041
0.08956725
-0.011210391
0.093065008
-0.011137287
0.096543719
-0.011054917
0.1000011
-0.010965643
0.1034357
-0.010872004
0.10684694
-0.010776736
0.11023519
-0.010682766
0.11360185
-0.010593231
0.11694939
-0.010511476
0.12028145
-0.01044105
0.12360288
-0.010385693
0.1269198
-0.010349287
0.13023961
-0.010335778
0.13357102
-0.010349024
0.1369239
-0.010392568
0.14030907
-0.010469229
0.14373801
-0.010580802
0.14722213
-0.010726892
0.15077259
-0.010906479
0.15439777
-0.011110944
0.15810842
-0.011347135
0.16189923
-0.011566224
0.16581028
-0.011906557
0.16974327
-0.011944335
0.17405498
-0.013085778
-0.011838104
0.032751053
-0.0067232709
0.034227522
-0.0077963162
0.035899559
-0.0087401445
0.037694293
-0.0094209393
0.039612735
-0.010043834
0.041661666
-0.010641537
0.043834331
-0.011185262
0.04612157
-0.011672868
0.048516198
-0.012113524
0.051011412
-0.012511318
0.05359995
-0.012867528
0.05627433
-0.013183783
0.059027046
-0.013461916
0.061850603
-0.013703494
0.064737535
-0.0139099
0.067680451
-0.014082471
0.070672089
-0.014222556
0.073705371
-0.014331544
0.076773455
-0.0144109
0.079869785
-0.014462198
0.08298815
-0.014487148
0.086122734
-0.014487619
0.089268174
-0.014465652
0.09241961
-0.014423477
0.095572744
-0.014363525
0.098723892
-0.014288435
0.10187004
-0.014201069
0.10500892
-0.014104515
0.10813902
-0.014002103
0.1112597
-0.013897417
0.11437123
-0.013794298
0.11747486
-0.013696863
0.12057289
-0.013609503
0.12366872
-0.013536883
0.12676695
-0.013483919
0.12987338
-0.013455724
0.13299512
-0.013457513
0.1361405
-0.013494401
0.13931905
-0.013571122
0.14254131
-0.013691492
0.14581853
-0.013858021
0.149162
-0.014070366
0.15258293
-0.014327403
0.15608992
-0.014617931
0.15969402
-0.014951237
0.16339078
-0.015262991
0.16721926
-0.015735033
0.17108701
-0.015812086
0.17532814
-0.017326907
-0.015740734
0.053560859
-0.0074219886
0.054463214
-0.0086986715
0.05552308
-0.0098000103
0.056675375
-0.010573234
0.057935415
-0.011303873
0.059317918
-0.01202404
0.06082181
-0.012689154
0.062442637
-0.013293696
0.064176604
-0.013847491
0.066019548
-0.014354262
0.067966409
-0.014814389
0.070011406
-0.01522878
0.072148291
-0.015598802
0.074370521
-0.015925724
0.076671351
-0.01621073
0.079043927
-0.016455047
0.081481379
-0.016660008
0.083976913
-0.016827078
0.086523889
-0.016957876
0.089115895
-0.017054204
0.091746816
-0.01711807
0.094410904
-0.017151706
0.097102828
-0.017157576
0.099817746
-0.017138394
0.10255135
-0.017097133
0.10529994
-0.017037026
0.10806046
-0.016961586
0.11083055
-0.016874608
0.11360864
-0.01678019
0.11639396
-0.016682733
0.11918662
-0.016586965
0.1219877
-0.016497944
0.12479928
-0.016421075
0.12762448
-0.016362091
0.13046761
-0.016327048
0.13333414
-0.016322252
0.13623078
-0.016354148
0.13916547
-0.016429098
0.14214738
-0.016553034
0.14518671
-0.016730817
0.14829446
-0.016965771
0.15148183
-0.017257741
0.15476012
-0.017605684
0.15813824
-0.01799606
0.16162765
-0.018440641
0.16522504
-0.01886038
0.16896797
-0.019477965
0.17277184
-0.019615956
0.17694123
-0.021496302
-0.019634875
0.076299748
-0.0074071706
0.076463948
-0.0088628719
0.076750622
-0.010086684
0.077117247
-0.010939859
0.077592516
-0.011779142
0.078193626
-0.012625151
0.078923994
-0.013419522
0.079783998
-0.014153699
0.080772385
-0.014835879
0.081886443
-0.01546832
0.083122389
-0.016050335
0.084475415
-0.016581807
0.085939858
-0.017063244
0.087509489
-0.017495356
0.08917773
-0.017878972
0.090937781
-0.018215098
0.092782737
-0.018504964
0.094705706
-0.018750047
0.09669992
-0.018952089
0.098758814
-0.019113099
0.10087612
-0.019235371
0.10304591
-0.019321496
0.1052627
-0.019374368
0.10752149
-0.019397185
0.10981782
-0.019393464
0.11214783
-0.019367038
0.11450831
-0.019322071
0.11689677
-0.019263062
0.11931144
-0.019194865
0.1217514
-0.01912269
0.12421656
-0.019052129
0.12670779
-0.018989165
0.12922689
-0.018940178
0.13177674
-0.018911944
0.13436131
-0.018911615
0.13698571
-0.018946654
0.13965627
-0.019024709
0.14238054
-0.019153368
0.14516729
-0.019339779
0.14802637
-0.019589902
0.15096857
-0.019907975
0.15400503
-0.020294203
0.15714717
-0.020747821
0.16040434
-0.021253229
0.16378842
-0.02182472
0.16729748
-0.02236944
0.17096725
-0.023147734
0.17472238
-0.023371091
0.1788329
-0.025606819
-0.02354239
0.099186538
-0.0065301534
0.098472679
-0.0081490126
0.097852667
-0.0094666714
0.097328316
-0.010415507
0.096936392
-0.011387218
0.09668842
-0.012377178
0.096590104
-0.013321206
0.096645892
-0.014209487
0.096855767
-0.015045754
0.097216897
-0.015829451
0.097725371
-0.016558808
0.098376254
-0.017232691
0.099163571
-0.01785056
0.10008063
-0.018412411
0.10112032
-0.018918664
0.10227531
-0.019370088
0.10353815
-0.01976781
0.10490144
-0.020113332
0.10635788
-0.020408533
0.10790044
-0.020655659
0.10952239
-0.020857323
0.11121741
-0.02101651
0.11297961
-0.021136574
0.11480366
-0.021221233
0.11668478
-0.021274578
0.11861881
-0.021301072
0.12060229
-0.021305548
0.12263246
-0.021293232
0.12470733
-0.021269742
0.12682575
-0.021241104
0.1289874
-0.021213777
0.13119288
-0.021194653
0.13344378
-0.021191076
0.13574268
-0.02121084
0.13809323
-0.021262164
0.14050021
-0.021353635
0.14296958
-0.021494076
0.1455085
-0.021692289
0.14812537
-0.021956649
0.15082973
-0.022294268
0.15363218
-0.02271042
0.15654382
-0.02320584
0.15957626
-0.023780262
0.16273934
-0.024416311
0.16604546
-0.025130839
0.16949415
-0.025818132
0.17311908
-0.026772667
0.17685503
-0.027107037
0.18093424
-0.029686027
-0.027495515
0.12033591
-0.0047475556
0.11868841
-0.0065015154
0.1170975
-0.0078757545
0.1156475
-0.0089655111
0.11437499
-0.010114705
0.11327775
-0.011279939
0.11236157
-0.01240503
0.11163313
-0.013481048
0.11109227
-0.014504892
0.11073483
-0.015472005
0.11055542
-0.016379405
0.11054786
-0.017225125
0.11070502
-0.018007725
0.11101913
-0.018726516
0.11148201
-0.019381544
0.11208533
-0.019973413
0.11282074
-0.020503219
0.11367997
-0.020972558
0.11465495
-0.021383511
0.11573791
-0.021738621
0.11692147
-0.022040886
0.1181987
-0.02229374
0.11956318
-0.022501054
0.12100907
-0.022667122
0.12253115
-0.02279666
0.12412488
-0.0228948
0.12578643
-0.022967097
0.12751273
-0.023019529
0.1293015
-0.023058514
0.13115131
-0.023090919
0.13306161
-0.023124076
0.13503276
-0.023165799
0.13706608
-0.023224396
0.1391639
-0.023308661
0.1413296
-0.023427864
0.14356765
-0.023591688
0.14588368
-0.023810106
0.14828451
-0.024093118
0.1507782
-0.024450335
0.15337401
-0.024890083
0.15608237
-0.025418777
0.15891439
-0.026037866
0.16188194
-0.026747809
0.16499537
-0.027529738
0.16826764
-0.028403111
0.17169977
-0.029250265
0.17532325
-0.030396144
0.17908327
-0.030867058
0.18317276
-0.033775514
-0.031536334
0.13793347
-0.002199782
0.13545103
-0.0040190803
0.1329331
-0.0053578223
0.13062088
-0.0066532857
0.12854135
-0.0080351775
0.12667622
-0.0094148114
0.12502866
-0.010757469
0.12360406
-0.012056449
0.12240125
-0.013302077
0.12141486
-0.014485623
0.12063784
-0.015602387
0.12006229
-0.016649573
0.11967968
-0.017625116
0.119481
-0.018527828
0.11945691
-0.019357456
0.11959799
-0.0201145
0.11989488
-0.020800109
0.12033837
-0.021416043
0.1209195
-0.021964646
0.12162971
-0.022448828
0.12246085
-0.022872025
0.1234053
-0.023238189
0.12445601
-0.023551768
0.12560658
-0.023817688
0.12685127
-0.02404135
0.12818508
-0.024228614
0.12960379
-0.024385802
0.13110396
-0.024519699
0.132683
-0.024637563
0.13433922
-0.024747133
0.1360718
-0.024856652
0.13788087
-0.024974871
0.13976754
-0.025111068
0.14173392
-0.025275042
0.14378316
-0.0254771
0.14591947
-0.025728001
0.14814821
-0.026038845
0.1504759
-0.02642081
0.15291031
-0.026884748
0.15546047
-0.027440242
0.15813665
-0.028094959
0.16095002
-0.028851233
0.1639127
-0.02971049
0.16703559
-0.030652628
0.17033226
-0.031699774
0.17380513
-0.032723144
0.17748344
-0.03407445
0.18132283
-0.034706443
0.1854761
-0.037928792
-0.035715473
0.15090441
0.00031614874
0.14764435
-0.00075902094
0.14438118
-0.0020946522
0.14137123
-0.0036433332
0.13861764
-0.0052815875
0.13611452
-0.0069116905
0.13386413
-0.0085070797
0.13186688
-0.010059197
0.13012065
-0.011555844
0.12862062
-0.012985598
0.12735941
-0.014341177
0.12632806
-0.015618223
0.12551686
-0.016813918
0.12491566
-0.017926622
0.12451399
-0.018955791
0.12430133
-0.019901839
0.12426723
-0.020766002
0.12440144
-0.021550259
0.12469408
-0.022257283
0.12513566
-0.022890404
0.1257172
-0.023453567
0.12643031
-0.023951304
0.12726726
-0.024388708
0.12822098
-0.024771411
0.12928519
-0.025105561
0.13045439
-0.025397815
0.13172392
-0.025655327
0.13308996
-0.025885747
0.13454963
-0.026097228
0.13610093
-0.026298435
0.13774284
-0.026498556
0.13947528
-0.026707316
0.1412992
-0.026934983
0.14321653
-0.027192373
0.14523025
-0.027490824
0.14734441
-0.027842157
0.14956413
-0.02825857
0.15189572
-0.028752395
0.15434669
-0.029335719
0.15692585
-0.030019408
0.15964338
-0.03081248
0.16251045
-0.031718303
0.16553948
-0.032739528
0.16874186
-0.033855005
0.17213187
-0.035089782
0.17571285
-0.036304127
0.17951307
-0.037874666
0.18349384
-0.03868722
0.18778075
-0.042215701
-0.040084376
0.19019286
0.004862451
-0.19473916
0.18643682
0.0029970098
0.18310032
0.0012418498
0.18001342
-0.00055643045
0.17713877
-0.002406935
0.1744515
-0.004224419
0.17193378
-0.0059893586
0.16957695
-0.0077023731
0.16737747
-0.0093563578
0.16533351
-0.010941643
0.16344362
-0.012451279
0.16170608
-0.013880688
0.16011871
-0.015226551
0.1586787
-0.016486612
0.15738265
-0.017659736
0.15622664
-0.018745832
0.15520637
-0.019745724
0.15431718
-0.020661076
0.15355424
-0.021494342
0.15291256
-0.022248718
0.1523871
-0.022928106
0.15197287
-0.023537074
0.15166498
-0.024080819
0.15145872
-0.024565147
0.1513496
-0.02499644
0.15133342
-0.025381642
0.15140634
-0.025728241
0.15156486
-0.026044266
0.15180591
-0.026338285
0.15212688
-0.026619405
0.15252561
-0.026897283
0.15300042
-0.027182126
0.15355013
-0.027484695
0.15417405
-0.027816296
0.15487199
-0.028188757
0.15564421
-0.028614382
0.1564915
-0.029105855
0.15741512
-0.029676018
0.15841691
-0.030337512
0.1594993
-0.031101797
0.16066538
-0.031978561
0.16191872
-0.032971641
0.16326357
-0.034084374
0.16470325
-0.035294686
0.16624322
-0.036629751
0.16788065
-0.03794156
0.16963213
-0.039626148
0.17145705
-0.040512135
0.17346302
-0.044221673
-0.042052789
0.21809524
0.0082059889
-0.22143878
0.21467884
0.0064134065
0.21152423
0.0043964608
0.20847963
0.0024881775
0.20549636
0.00057632785
0.20260548
-0.0013335402
0.19982416
-0.0032080388
0.19715728
-0.0050354863
0.19461106
-0.0068101388
0.1921927
-0.0085232856
0.18990782
-0.010166392
0.18776024
-0.011733112
0.18575244
-0.013218756
0.18388564
-0.014619805
0.18215983
-0.015933931
0.180574
-0.017159996
0.17912623
-0.018297952
0.17781389
-0.019348744
0.1766338
-0.020314252
0.17558232
-0.021197234
0.17465549
-0.022001278
0.17384917
-0.022730747
0.17315909
-0.023390746
0.17258102
-0.023987072
0.17211077
-0.024526191
0.17174432
-0.025015199
0.17147789
-0.02546181
0.17130796
-0.02587433
0.17123133
-0.026261657
0.17124519
-0.026633268
0.17134713
-0.026999216
0.17153513
-0.027370125
0.17180761
-0.027757182
0.17216343
-0.028172112
0.17260183
-0.028627155
0.17312246
-0.029135014
0.17372538
-0.029708775
0.17441107
-0.03036171
0.17518051
-0.031106955
0.17603528
-0.031956558
0.17697761
-0.032920897
0.17801044
-0.03400447
0.1791373
-0.035211234
0.18036165
-0.036519034
0.18168725
-0.037955353
0.18311503
-0.03936934
0.18464948
-0.041160602
0.18627987
-0.042142524
0.18802451
-0.045966312
-0.043851665
0.24491653
0.01087861
-0.24758915
0.24212041
0.0092095234
0.23932273
0.0071941421
0.23653402
0.0052768918
0.23371774
0.0033926039
0.23089456
0.0014896447
0.22809572
-0.00040920851
0.22534087
-0.0022806281
0.22264621
-0.0041154773
0.22002797
-0.0059050474
0.21750037
-0.0076387982
0.21507484
-0.0093075778
0.21276043
-0.01090435
0.21056422
-0.01242359
0.20849138
-0.013861089
0.20654539
-0.015214008
0.20472826
-0.016480824
0.20304074
-0.017661223
0.20148251
-0.01875602
0.20005237
-0.019767093
0.19874841
-0.020697318
0.19756817
-0.021550507
0.19650878
-0.022331354
0.19556708
-0.023045378
0.19473977
-0.023698882
0.19402348
-0.024298907
0.19341487
-0.024853202
0.19291074
-0.025370196
0.19250805
-0.025858971
0.19220403
-0.026329248
0.19199618
-0.026791364
0.19188231
-0.027256258
0.19186057
-0.027735436
0.1919294
-0.028240943
0.19208757
-0.028785324
0.19233413
-0.029381572
0.19266842
-0.030043064
0.19309011
-0.0307834
0.19359929
-0.031616137
0.19419663
-0.032553897
0.19488351
-0.03360778
0.19566221
-0.034783168
0.19653558
-0.036084604
0.19750733
-0.037490788
0.19857954
-0.03902756
0.19975742
-0.040547221
0.20103193
-0.042435114
0.20242641
-0.043537006
0.20385521
-0.047395109
-0.045441351
0.27030751
0.012867872
-0.27229677
0.2681861
0.011330933
0.26589308
0.0094871594
0.26350527
0.0076646977
0.2610314
0.0058664738
0.25848171
0.0040393402
0.25588235
0.0021901536
0.25325758
0.00034413673
0.25062765
-0.0014855515
0.24801277
-0.0032901586
0.2454325
-0.005058537
0.24290436
-0.0067794285
0.24044346
-0.0084434499
0.23806275
-0.010042889
0.23577306
-0.011571399
0.23358312
-0.013024062
0.23149973
-0.014397434
0.22952798
-0.015689475
0.22767143
-0.016899465
0.22593228
-0.018027944
0.2243116
-0.019076642
0.2228095
-0.020048407
0.22142529
-0.020947143
0.22015765
-0.021777743
0.2190048
-0.022546032
0.21796461
-0.023258713
0.21703473
-0.023923317
0.21621269
-0.024548161
0.21549604
-0.025142316
0.21488235
-0.025715561
0.21436934
-0.026278358
0.21395489
-0.026841801
0.21363703
-0.027417578
0.213414
-0.028017912
0.21328419
-0.028655513
0.21324613
-0.029343521
0.21329853
-0.030095461
0.21344027
-0.030925136
0.21367056
-0.031846425
0.21398916
-0.032872505
0.21439662
-0.034015237
0.21489457
-0.035281118
0.21548531
-0.036675344
0.21617285
-0.038178323
0.21695798
-0.039812694
0.21784972
-0.041438957
0.21882731
-0.043412701
0.21994343
-0.044653132
0.22101885
-0.048470527
-0.046776046
0.29389388
0.014166056
-0.29519207
0.29244994
0.012774877
0.2907655
0.011171598
0.28890764
0.0095225636
0.28691173
0.0078623756
0.28478889
0.006162185
0.28255764
0.0044214032
0.28024151
0.002660272
0.27786194
0.00089401466
0.27543919
-0.00086741181
0.27299391
-0.0026132518
0.27054624
-0.0043317615
0.26811489
-0.0060120958
0.26571686
-0.0076448596
0.26336736
-0.0092219062
0.2610797
-0.010736398
0.25886521
-0.012182943
0.25673335
-0.013557619
0.25469182
-0.014857933
0.25274666
-0.016082785
0.25090244
-0.017232422
0.24916241
-0.018308378
0.24752868
-0.019313411
0.24600238
-0.020251439
0.24458382
-0.021127474
0.24327267
-0.021947562
0.24206807
-0.022718721
0.2409688
-0.02344889
0.23997335
-0.024146871
0.23908007
-0.024822277
0.23828719
-0.025485479
0.23759293
-0.026147538
0.23699549
-0.026820135
0.23649307
-0.027515494
0.23608387
-0.028246312
0.23576605
-0.029025701
0.23553775
-0.029867163
0.23539716
-0.030784543
0.23534266
-0.031791926
0.23537315
-0.032903001
0.23548836
-0.034130443
0.23568935
-0.035482107
0.23597801
-0.036964005
0.23635869
-0.038559008
0.23683149
-0.040285491
0.23740852
-0.042015987
0.2380599
-0.04406408
0.23886135
-0.045454584
0.23955625
-0.049165421
-0.047813897