/*--------------------------------*- C++ -*----------------------------------*\
  =========                 |
  \\      /  F ield         | OpenFOAM: The Open Source CFD Toolbox
   \\    /   O peration     | Website:  https://openfoam.org
    \\  /    A nd           | Version:  6
     \\/     M anipulation  |
\*---------------------------------------------------------------------------*/
FoamFile
{
    version     2.0;
    format      ascii;
    class       volScalarField;
    location    "121";
    object      p;
}
// * * * * * * * * * * * * * * * * * * * * * * * * * * * * * * * * * * * * * //

dimensions      [0 2 -2 0 0 0 0];

internalField   nonuniform List<scalar> 
9200
(
-0.37799663
-0.36664991
-0.35655605
-0.34760659
-0.33886674
-0.33035035
-0.32213572
-0.31419033
-0.30644686
-0.29883338
-0.29127692
-0.28370845
-0.27606979
-0.26832095
-0.26045067
-0.25249425
-0.24452801
-0.23663979
-0.22985448
-0.22845406
-0.39585763
-0.38205971
-0.3700222
-0.35955294
-0.34944104
-0.33966796
-0.33030245
-0.32128123
-0.3125048
-0.30387481
-0.29529808
-0.28669238
-0.27799404
-0.26916386
-0.26019275
-0.25110568
-0.24193249
-0.23267292
-0.22400987
-0.21810927
-0.4141356
-0.39786365
-0.38392841
-0.37200978
-0.36058117
-0.34957338
-0.33903391
-0.32886101
-0.31892102
-0.30909306
-0.29927284
-0.28937828
-0.27935631
-0.26918598
-0.25887832
-0.248472
-0.2380058
-0.22748866
-0.21731985
-0.2086144
-0.43239647
-0.41366961
-0.39790201
-0.38459563
-0.37187054
-0.3595906
-0.34777413
-0.33628046
-0.32494966
-0.31365371
-0.30229797
-0.29082421
-0.27921374
-0.26748522
-0.25568794
-0.24389171
-0.2321631
-0.220541
-0.20929285
-0.19915977
-0.4500103
-0.42893156
-0.41144835
-0.3968313
-0.38281943
-0.36919883
-0.35595858
-0.34292968
-0.32994649
-0.31690093
-0.30373774
-0.29045073
-0.27707868
-0.26369544
-0.25039651
-0.2372848
-0.22445039
-0.21195181
-0.19997725
-0.18903414
-0.46615258
-0.44293049
-0.42390731
-0.40806902
-0.3927638
-0.37770007
-0.36285005
-0.34804208
-0.33313895
-0.31808889
-0.30290886
-0.28766942
-0.2724805
-0.25747325
-0.24278184
-0.22852828
-0.21480723
-0.20167459
-0.18925632
-0.17788923
-0.47981815
-0.45478006
-0.43445423
-0.4174948
-0.40087594
-0.38424422
-0.36758284
-0.35075821
-0.33370602
-0.3164702
-0.29916813
-0.28196096
-0.26502886
-0.2485475
-0.23266931
-0.2175122
-0.20315183
-0.18961934
-0.17698158
-0.16543973
-0.48984319
-0.46345011
-0.44213231
-0.4241753
-0.40622898
-0.38791195
-0.36926108
-0.35023305
-0.3308849
-0.31139122
-0.29198711
-0.27292391
-0.25443744
-0.23672454
-0.21992998
-0.20414358
-0.18940253
-0.17569867
-0.16304091
-0.1515165
-0.49488548
-0.46766537
-0.44565554
-0.42677473
-0.40744695
-0.38732494
-0.36655919
-0.34525394
-0.32362712
-0.30199951
-0.28071741
-0.26009967
-0.24040697
-0.22182607
-0.20446775
-0.18837514
-0.17353614
-0.15989909
-0.14741892
-0.13608536
-0.49359455
-0.46600892
-0.44347633
-0.42362775
-0.40280805
-0.38078773
-0.35789633
-0.33443142
-0.31078564
-0.28740911
-0.26472198
-0.24306525
-0.22268165
-0.20371485
-0.18622127
-0.17018872
-0.15555622
-0.14223429
-0.13013109
-0.1191515
-0.2651123
-0.26978667
-0.27229511
-0.27304625
-0.27283211
-0.27183956
-0.27015005
-0.26785114
-0.26501502
-0.26169642
-0.2579394
-0.25378146
-0.24925571
-0.24439223
-0.23921927
-0.23376573
-0.22806248
-0.22213006
-0.21596748
-0.20966029
-0.26784501
-0.27210411
-0.2743058
-0.27483826
-0.27444104
-0.27329227
-0.27147149
-0.26906256
-0.26613411
-0.26273803
-0.25891596
-0.2547033
-0.25013127
-0.24522793
-0.24001896
-0.23453221
-0.22880604
-0.22285933
-0.21658479
-0.20995646
-0.27317462
-0.27662163
-0.27822532
-0.27833004
-0.27757389
-0.27611956
-0.27404309
-0.27142105
-0.26831515
-0.26477166
-0.26082738
-0.25651349
-0.25185744
-0.24688346
-0.24161236
-0.23606916
-0.23030361
-0.22433347
-0.21785961
-0.21062428
-0.28086122
-0.28314569
-0.28388382
-0.28335981
-0.28207074
-0.28015974
-0.27769886
-0.27475483
-0.27137969
-0.26761187
-0.26348131
-0.2590131
-0.25422915
-0.24914797
-0.2437836
-0.23815585
-0.23232645
-0.22631777
-0.21958428
-0.21149842
-0.29060254
-0.29143325
-0.2910698
-0.28972851
-0.28773755
-0.28521927
-0.28224255
-0.27886281
-0.27512069
-0.27104537
-0.26665855
-0.26197704
-0.25701522
-0.25178469
-0.24629136
-0.24054669
-0.23462037
-0.22854796
-0.22152479
-0.21240847
-0.30208476
-0.30123211
-0.29956582
-0.2972352
-0.29438269
-0.29111122
-0.28748872
-0.28355959
-0.27935246
-0.27488488
-0.27016773
-0.26520856
-0.26001295
-0.25458408
-0.2489187
-0.24301696
-0.23694859
-0.23076854
-0.223441
-0.21318745
-0.31502894
-0.31231723
-0.30918117
-0.3057102
-0.30185234
-0.29769429
-0.29330688
-0.2887231
-0.28395693
-0.27901338
-0.27389186
-0.26858866
-0.26309875
-0.25741575
-0.25152734
-0.24542187
-0.23916186
-0.23282489
-0.2252072
-0.21382504
-0.32921906
-0.32451356
-0.31977397
-0.31503961
-0.31005986
-0.30490811
-0.29965844
-0.29433164
-0.28892691
-0.28343486
-0.27784055
-0.27212599
-0.26627254
-0.26026173
-0.25407158
-0.24768152
-0.24115131
-0.2346045
-0.22678858
-0.21450942
-0.34450206
-0.3376887
-0.33123384
-0.32513678
-0.31894089
-0.31270497
-0.30650821
-0.30035871
-0.29423802
-0.28811916
-0.28196924
-0.27575185
-0.26942922
-0.26296261
-0.25630757
-0.24941623
-0.2423129
-0.23510376
-0.22653149
-0.21309373
-0.36077905
-0.35173491
-0.34344856
-0.33588423
-0.32836582
-0.32093735
-0.31368306
-0.306596
-0.29963763
-0.29276169
-0.28591703
-0.27905048
-0.27210972
-0.26504329
-0.25779537
-0.25030152
-0.24250463
-0.23419808
-0.22373102
-0.20806201
-0.20250926
-0.19356056
-0.18460688
-0.17571224
-0.16682292
-0.15798062
-0.14923884
-0.14063263
-0.1321913
-0.12394344
-0.11591485
-0.10812773
-0.10060122
-0.093351666
-0.086392666
-0.079735104
-0.073387274
-0.06735498
-0.061641634
-0.056248365
-0.051174147
-0.046415931
-0.041968803
-0.037826144
-0.033979811
-0.03042032
-0.027137042
-0.024118397
-0.021352047
-0.018825093
-0.016524252
-0.014436042
-0.012546938
-0.010843534
-0.0093126805
-0.0079416192
-0.0067181079
-0.0056305226
-0.0046680358
-0.0038205378
-0.0030794626
-0.0024357806
-0.001887238
-0.0014170771
-0.0010611485
-0.00070906134
-0.00070165849
-8.8382935e-05
-0.0017211947
0.0024635932
-0.20351938
-0.1941734
-0.18511069
-0.17623038
-0.16732305
-0.15845055
-0.14968434
-0.14105588
-0.13259197
-0.12432179
-0.11627141
-0.1084629
-0.1009154
-0.093645325
-0.086666341
-0.079989392
-0.073622837
-0.067572539
-0.061841962
-0.056432277
-0.05134249
-0.046569575
-0.042108627
-0.037953031
-0.034094635
-0.030523944
-0.027230307
-0.024202116
-0.021427004
-0.018892034
-0.016583888
-0.01448904
-0.012593926
-0.010885096
-0.0093493575
-0.0079739095
-0.0067464674
-0.0056553658
-0.0046897369
-0.0038394312
-0.0030958429
-0.0024499058
-0.0018993091
-0.0014273033
-0.0010694589
-0.00071603695
-0.00070511081
-9.425269e-05
-0.0017066599
0.0024349436
-0.20563823
-0.1954416
-0.18616144
-0.17734983
-0.1684189
-0.15948573
-0.1506719
-0.14199942
-0.13348849
-0.12517039
-0.11707247
-0.10921666
-0.10162221
-0.094305875
-0.087281606
-0.080560566
-0.074151321
-0.06805992
-0.062289982
-0.056842799
-0.051717466
-0.04691102
-0.042418589
-0.038233568
-0.034347793
-0.030751733
-0.027434688
-0.024384985
-0.021590182
-0.019037256
-0.016712795
-0.014603177
-0.012694735
-0.010973917
-0.0094274292
-0.0080423663
-0.0068063448
-0.0057076016
-0.0047351746
-0.0038788225
-0.0031298489
-0.0024791027
-0.0019241547
-0.0014482495
-0.0010864289
-0.00073015693
-0.0007121994
-0.00010584844
-0.0016781277
0.0023782573
-0.20870705
-0.19713369
-0.18753256
-0.17891992
-0.16999961
-0.16098975
-0.15212179
-0.14340037
-0.1348304
-0.12644828
-0.11828504
-0.11036267
-0.10270071
-0.095316776
-0.088225503
-0.081438585
-0.074965049
-0.06881135
-0.062981441
-0.057476882
-0.052296972
-0.047438896
-0.042897879
-0.038667364
-0.034739193
-0.031103809
-0.027750451
-0.02466736
-0.021841986
-0.019261182
-0.016911395
-0.014778856
-0.012849743
-0.011110345
-0.0095472083
-0.0081472691
-0.0068979871
-0.005787447
-0.0048045384
-0.0039388762
-0.0031816228
-0.0025234934
-0.001961879
-0.0014800047
-0.0011121338
-0.00075147944
-0.00072301832
-0.00012311802
-0.0016363404
0.0022947604
-0.21249917
-0.19897913
-0.18895479
-0.18074296
-0.17191865
-0.16283477
-0.15392376
-0.14516972
-0.13654616
-0.12809668
-0.11986081
-0.11186168
-0.10411925
-0.096652595
-0.08947774
-0.082607407
-0.076051469
-0.069817122
-0.063908938
-0.058328978
-0.053076935
-0.048150291
-0.043544485
-0.039253096
-0.035268036
-0.031579756
-0.028177455
-0.025049291
-0.022182593
-0.019564064
-0.017179983
-0.015016389
-0.013059261
-0.011294678
-0.0097089747
-0.0082888746
-0.0070216272
-0.0058951107
-0.0048980144
-0.0040197574
-0.0032513104
-0.0025832064
-0.0020125943
-0.0015226668
-0.0011466623
-0.00078006963
-0.00073770659
-0.00014595458
-0.001582434
0.0021863388
-0.21666726
-0.20069742
-0.19015898
-0.18258575
-0.17400366
-0.1648774
-0.1559457
-0.14719348
-0.13854304
-0.13003958
-0.12173643
-0.11366121
-0.10583488
-0.098278371
-0.091009965
-0.084044166
-0.077392261
-0.071062652
-0.065060938
-0.059390026
-0.054050286
-0.049039732
-0.044354201
-0.039987557
-0.035931893
-0.03217775
-0.028714341
-0.025529772
-0.022611264
-0.019945367
-0.017518172
-0.0153155
-0.013323093
-0.011526781
-0.0099126371
-0.0084671247
-0.0071772317
-0.0060305785
-0.0050156028
-0.0041214778
-0.0033389323
-0.0026582694
-0.0020763336
-0.0015762727
-0.00119006
-0.0008159617
-0.00075641059
-0.00017420905
-0.0015178479
0.0020554498
-0.22081373
-0.20210698
-0.19093341
-0.18417055
-0.17605411
-0.16699063
-0.15807252
-0.1493594
-0.14072514
-0.13219909
-0.12384699
-0.11570635
-0.10780144
-0.10015557
-0.092789947
-0.085721846
-0.078964762
-0.072528913
-0.066421447
-0.060646559
-0.055205671
-0.050097628
-0.045318916
-0.040863876
-0.036724935
-0.03289284
-0.0293569
-0.026105223
-0.023124954
-0.020402502
-0.017923762
-0.015674324
-0.013639665
-0.011805327
-0.010157085
-0.0086810954
-0.0073640379
-0.0061932271
-0.005156801
-0.0042436384
-0.0034441784
-0.0027484483
-0.0021529275
-0.0016407097
-0.0012422667
-0.00085912542
-0.00077925751
-0.00020772255
-0.0014442199
0.001904983
-0.22467771
-0.2036034
-0.1915024
-0.18530994
-0.17785575
-0.16908708
-0.16026059
-0.15161128
-0.1430305
-0.13451958
-0.12614333
-0.11795188
-0.10997727
-0.10224634
-0.094783635
-0.087609952
-0.080741792
-0.074191815
-0.067969216
-0.062079918
-0.056526765
-0.05130975
-0.046426262
-0.041871334
-0.037637896
-0.033717034
-0.030098253
-0.026769736
-0.023718598
-0.020931137
-0.018393062
-0.016089725
-0.01400632
-0.01212808
-0.010440446
-0.0089292319
-0.0075807671
-0.006382018
-0.0053207789
-0.0043855897
-0.0035665545
-0.0028533827
-0.0022421282
-0.0017158269
-0.0013032173
-0.00090955277
-0.0008064261
-0.00024639421
-0.0013633389
0.0017382312
-0.2259169
-0.20543131
-0.19256147
-0.18594019
-0.17897343
-0.17078642
-0.16223641
-0.15371624
-0.14524248
-0.13680862
-0.1284623
-0.12026139
-0.11224903
-0.10445788
-0.09691647
-0.089649686
-0.082677896
-0.076017034
-0.069679075
-0.063672334
-0.058001679
-0.052668787
-0.047672417
-0.043008694
-0.038671388
-0.034652206
-0.030941075
-0.027526434
-0.024395506
-0.021534574
-0.018929234
-0.016564641
-0.014425728
-0.012497417
-0.010764806
-0.0092133382
-0.0078289642
-0.0065982626
-0.0055086415
-0.0045482569
-0.0037068308
-0.0029737083
-0.0023444566
-0.0018020391
-0.0013732544
-0.00096745336
-0.00083829068
-0.00028992101
-0.0012773507
0.0015594664
-0.21605604
-0.20467724
-0.19367908
-0.18559141
-0.17853533
-0.1711226
-0.16317886
-0.15502461
-0.14683877
-0.13864739
-0.1304782
-0.12238869
-0.11443434
-0.10665811
-0.099095815
-0.091779019
-0.084734388
-0.07798339
-0.071542726
-0.065424749
-0.059637761
-0.054186308
-0.04907151
-0.044291401
-0.039841264
-0.035713962
-0.031900277
-0.028389236
-0.025168428
-0.022224311
-0.0195425
-0.01710804
-0.014905654
-0.012919977
-0.011135761
-0.0095380634
-0.0081124215
-0.0068449867
-0.0057227351
-0.0047333875
-0.0038662319
-0.0031101941
-0.0024602971
-0.0018993861
-0.0014521969
-0.0010322904
-0.00087465156
-0.00033662906
-0.0011888163
0.001374201
-0.1939181
-0.19862468
-0.1933512
-0.18444673
-0.17694392
-0.16993591
-0.16243546
-0.15457807
-0.14662962
-0.13865329
-0.13066865
-0.12272861
-0.11489244
-0.10720749
-0.099712762
-0.092442749
-0.085427088
-0.078690042
-0.072250826
-0.06612406
-0.060320068
-0.054845188
-0.049702105
-0.044890207
-0.040405936
-0.036243136
-0.032393407
-0.028846444
-0.025590375
-0.022612075
-0.019897478
-0.017431856
-0.015200081
-0.013186873
-0.011377014
-0.0097555441
-0.0083079475
-0.0070202914
-0.0058794395
-0.0048729851
-0.0039900379
-0.003219409
-0.0025556571
-0.0019820675
-0.0015206032
-0.0010911673
-0.00090595506
-0.00038328952
-0.0010982882
0.0011903482
-0.18336881
-0.18918918
-0.18571599
-0.17697721
-0.16977423
-0.16351799
-0.15681804
-0.14967458
-0.14238351
-0.1350199
-0.12759347
-0.12015281
-0.11275964
-0.105465
-0.098311472
-0.091337355
-0.084576332
-0.078056672
-0.071801429
-0.065828861
-0.060152709
-0.054782484
-0.0497238
-0.044978724
-0.040546138
-0.036422092
-0.032600168
-0.02907183
-0.025826775
-0.022853261
-0.020138427
-0.017668589
-0.015429517
-0.01340669
-0.011585528
-0.0099515992
-0.0084908166
-0.0071895889
-0.0060350354
-0.0050149518
-0.0041185189
-0.0033347303
-0.0026576988
-0.0020717347
-0.0015950635
-0.0011566186
-0.00093961761
-0.000438058
-0.0009971402
0.00099208373
-0.17463015
-0.17785106
-0.1755738
-0.16855312
-0.1622006
-0.1566383
-0.15070516
-0.14429177
-0.13766478
-0.13091929
-0.1240672
-0.11715089
-0.11023086
-0.10336
-0.09658299
-0.089940517
-0.083469172
-0.077200438
-0.071160665
-0.065371392
-0.059849582
-0.054607848
-0.04965475
-0.044995124
-0.040630424
-0.036559072
-0.032776816
-0.029277085
-0.026051339
-0.023089409
-0.020379822
-0.017910111
-0.015667101
-0.013637174
-0.011806519
-0.010161346
-0.0086880964
-0.0073736072
-0.006205325
-0.0051713093
-0.0042608525
-0.0034631806
-0.0027719336
-0.0021725782
-0.0016792273
-0.0012307659
-0.00097869068
-0.00049971607
-0.00088838763
0.00077486722
-0.16495145
-0.16556372
-0.16373207
-0.15878749
-0.15366494
-0.14884531
-0.14370331
-0.13810167
-0.13221774
-0.12615238
-0.11993324
-0.11360076
-0.10721208
-0.10082073
-0.094473218
-0.088212238
-0.082076869
-0.07610156
-0.070315855
-0.064744574
-0.059407982
-0.054321946
-0.049498178
-0.044944515
-0.040665244
-0.036661427
-0.032931248
-0.029470364
-0.026272254
-0.023328562
-0.020629428
-0.018163805
-0.015919761
-0.013884749
-0.012045874
-0.01039012
-0.0089045667
-0.0075765753
-0.0063939995
-0.0053452267
-0.0044197118
-0.003606948
-0.0029001233
-0.0022858646
-0.0017741492
-0.0013137964
-0.0010244059
-0.00056571224
-0.00077961068
0.00054878978
-0.15438165
-0.15311413
-0.15130456
-0.14807486
-0.14424556
-0.1402308
-0.13588586
-0.1311282
-0.12604127
-0.12070812
-0.11517189
-0.10947561
-0.10367225
-0.097814217
-0.091948952
-0.086120401
-0.080369393
-0.074732774
-0.069242917
-0.063927713
-0.058810639
-0.053910837
-0.049243274
-0.044818962
-0.040645236
-0.036726046
-0.033062278
-0.029652089
-0.026491247
-0.023573473
-0.020890769
-0.018433745
-0.016191923
-0.014154026
-0.012308247
-0.010642499
-0.0091446373
-0.0078026607
-0.0066049278
-0.0055402325
-0.0045982577
-0.0037688008
-0.0030446522
-0.0024135414
-0.0018814877
-0.0014067274
-0.0010782496
-0.00063539585
-0.00067684921
0.00032197488
-0.14259447
-0.14053525
-0.13884026
-0.13688488
-0.13422644
-0.1310477
-0.1274899
-0.1235569
-0.1192708
-0.11468743
-0.1098577
-0.1048263
-0.099641671
-0.09435383
-0.089010057
-0.083654526
-0.078328703
-0.073070839
-0.067915376
-0.062892702
-0.058029088
-0.053346669
-0.048863514
-0.044593763
-0.040547834
-0.036732666
-0.033151998
-0.029806674
-0.026694957
-0.02381286
-0.021154472
-0.018712274
-0.016477455
-0.014440201
-0.012589981
-0.010915796
-0.0094064259
-0.0080506388
-0.00683741
-0.0057560321
-0.0047964987
-0.0039489553
-0.0032058792
-0.0025560116
-0.0020017451
-0.0015098599
-0.0011411927
-0.00070830628
-0.00058610183
0.00010309823
-0.12989987
-0.12796989
-0.12662302
-0.12557973
-0.12388493
-0.12151586
-0.11871838
-0.11556406
-0.11204972
-0.10820493
-0.10407962
-0.099720183
-0.095169569
-0.090472702
-0.085675494
-0.080821589
-0.075952098
-0.071105537
-0.066317405
-0.061619777
-0.057041059
-0.052605866
-0.048334983
-0.044245423
-0.040350535
-0.036660187
-0.033180983
-0.029916523
-0.02686768
-0.02403291
-0.021408548
-0.01898913
-0.016767692
-0.014736065
-0.012885162
-0.011205243
-0.0096861615
-0.0083175892
-0.0070892407
-0.0059910104
-0.0050132964
-0.0041466458
-0.003383332
-0.002712995
-0.0021348642
-0.0016231077
-0.0012139003
-0.00078401051
-0.00051327773
-9.8509184e-05
-0.11701357
-0.11566382
-0.11480564
-0.11441816
-0.11347891
-0.11184508
-0.10975839
-0.10732124
-0.1045269
-0.10138719
-0.097944205
-0.09424228
-0.09032125
-0.086220423
-0.081980877
-0.077644526
-0.073251501
-0.068839648
-0.064444447
-0.060098682
-0.055832075
-0.051671025
-0.047638475
-0.04375386
-0.040033138
-0.036488878
-0.033130417
-0.029964051
-0.026993273
-0.024219029
-0.021640003
-0.0192529
-0.017052743
-0.015033158
-0.013186655
-0.011504902
-0.0099789703
-0.0085995722
-0.007357286
-0.0062427159
-0.005246769
-0.0043604541
-0.0035759701
-0.0028837386
-0.0022803804
-0.0017461314
-0.0012967404
-0.00086228319
-0.0004634121
-0.00027397113
-0.10447872
-0.10379553
-0.10345324
-0.10355979
-0.1032086
-0.10221207
-0.10076699
-0.098977065
-0.096838835
-0.094354606
-0.091556705
-0.088484107
-0.085172154
-0.081655812
-0.077971574
-0.074156979
-0.070249756
-0.066286379
-0.062301475
-0.058327586
-0.054394852
-0.050530669
-0.046759453
-0.043102487
-0.039577864
-0.036200492
-0.032982166
-0.029931697
-0.027055083
-0.024355721
-0.021834644
-0.019490778
-0.017321212
-0.015321469
-0.013485776
-0.011807331
-0.010278552
-0.0088913188
-0.0076371925
-0.0065075963
-0.0054940537
-0.004588104
-0.0037820115
-0.0030668761
-0.0024373085
-0.0018782652
-0.0013896701
-0.00094312006
-0.00043988517
-0.00041612377
-0.092580919
-0.092483812
-0.092609956
-0.09310415
-0.093214316
-0.092752647
-0.091868217
-0.090650981
-0.08909976
-0.087212101
-0.085011248
-0.082529155
-0.079795894
-0.076841339
-0.073697523
-0.070397857
-0.066976108
-0.063466082
-0.05990079
-0.056311767
-0.052728729
-0.049179262
-0.04568852
-0.04227899
-0.03897034
-0.035779347
-0.032719888
-0.029802994
-0.027036957
-0.024427479
-0.021977864
-0.019689228
-0.01756074
-0.015589865
-0.013772621
-0.012103826
-0.010577347
-0.0091863341
-0.0079234417
-0.006781014
-0.0057512959
-0.0048264311
-0.0039988931
-0.003260383
-0.0026040987
-0.0020184659
-0.0014921593
-0.0010266308
-0.00044384493
-0.00052063709
-0.08146051
-0.081819412
-0.082327989
-0.08312478
-0.083595789
-0.083571233
-0.083162114
-0.082440546
-0.081404931
-0.080049902
-0.078391055
-0.076452978
-0.074259983
-0.071836669
-0.069209964
-0.066408901
-0.063463389
-0.060403626
-0.057259928
-0.054062074
-0.050838646
-0.047616668
-0.044421306
-0.041275578
-0.038200128
-0.035213071
-0.032329916
-0.029563541
-0.026924233
-0.024419777
-0.022055583
-0.019834857
-0.017758794
-0.015826792
-0.014036678
-0.012384941
-0.010866964
-0.009477249
-0.0082096309
-0.0070574654
-0.0060138163
-0.0050715068
-0.0042233597
-0.0034616343
-0.0027786739
-0.002165309
-0.0016031625
-0.001112887
-0.00047391299
-0.00058685747
-0.071177954
-0.071864804
-0.072659753
-0.073681583
-0.074427761
-0.07475034
-0.074732198
-0.074428862
-0.073836643
-0.072947755
-0.071771468
-0.070325446
-0.06862813
-0.066698801
-0.0645592
-0.062233493
-0.059747394
-0.057127418
-0.054400543
-0.051593932
-0.048734338
-0.045847566
-0.042958111
-0.040088862
-0.037260822
-0.034492887
-0.031801701
-0.02920156
-0.026704388
-0.024319757
-0.022054961
-0.019915124
-0.017903355
-0.016020915
-0.014267414
-0.012641017
-0.011138653
-0.0097562269
-0.0084888196
-0.0073308712
-0.006276349
-0.0053188293
-0.0044516149
-0.0036675154
-0.0029585111
-0.0023170104
-0.0017211325
-0.0012017525
-0.00052628853
-0.00061809257
-0.061745171
-0.062652778
-0.06364542
-0.064821276
-0.065767193
-0.066355707
-0.066648834
-0.066688365
-0.066468155
-0.065978275
-0.065222769
-0.064213171
-0.062962349
-0.061484414
-0.059796022
-0.057916422
-0.055866787
-0.053669641
-0.051348431
-0.048927186
-0.046430151
-0.04388128
-0.041303787
-0.038719806
-0.036150091
-0.033613754
-0.031128048
-0.028708224
-0.026367434
-0.024116695
-0.021964898
-0.019918864
-0.017983444
-0.016161644
-0.014454782
-0.01286266
-0.011383746
-0.010015367
-0.0087538893
-0.0075948916
-0.0065333138
-0.0055635533
-0.0046795107
-0.003874569
-0.0031407549
-0.0024714759
-0.0018440772
-0.001292752
-0.00059528101
-0.00062117571
-0.053147365
-0.054191582
-0.055307411
-0.056575336
-0.057655303
-0.058438028
-0.058969715
-0.059281264
-0.059364489
-0.059207766
-0.058810925
-0.058180305
-0.057323793
-0.056250715
-0.054972925
-0.053504912
-0.051863306
-0.050066414
-0.048133897
-0.046086413
-0.043945249
-0.04173195
-0.039467886
-0.03717387
-0.034869833
-0.032574537
-0.030305318
-0.028077889
-0.025906192
-0.023802299
-0.021776368
-0.019836645
-0.017989502
-0.016239522
-0.014589608
-0.01304112
-0.011594023
-0.010247051
-0.0089978684
-0.0078432243
-0.0067790834
-0.0058007244
-0.0049027484
-0.0040791583
-0.0033223486
-0.0026263725
-0.0019696632
-0.0013850091
-0.00067421171
-0.00060527436
-0.045353749
-0.04647029
-0.047650067
-0.048959052
-0.050117818
-0.051033162
-0.051739226
-0.052258467
-0.052581349
-0.05269517
-0.052596535
-0.052287579
-0.051771976
-0.051054851
-0.050143721
-0.049048658
-0.047781943
-0.046357716
-0.04479173
-0.043101073
-0.041303836
-0.039418764
-0.037464911
-0.035461268
-0.033426423
-0.031378257
-0.029333667
-0.027308333
-0.025316522
-0.023370947
-0.021482662
-0.019661016
-0.01791364
-0.016246477
-0.014663852
-0.013168558
-0.011761976
-0.010444201
-0.0092141799
-0.0080698397
-0.007008204
-0.0060254812
-0.0051170585
-0.00427762
-0.003500164
-0.0027792188
-0.0020953583
-0.0014772816
-0.00075649066
-0.00058018341
-0.038322938
-0.039464005
-0.040662623
-0.041972909
-0.043165921
-0.044162707
-0.044988305
-0.045658764
-0.046163905
-0.046490603
-0.04663319
-0.046590591
-0.046363108
-0.045952378
-0.045362188
-0.044598697
-0.043670201
-0.042586907
-0.041360754
-0.04000522
-0.038535058
-0.036965999
-0.035314449
-0.033597173
-0.03183097
-0.030032367
-0.028217337
-0.02640104
-0.024597606
-0.022819949
-0.021079625
-0.01938673
-0.017749847
-0.016176024
-0.014670793
-0.013238221
-0.011880982
-0.01060045
-0.0093968069
-0.0082691423
-0.0072155497
-0.0062332012
-0.0053183367
-0.0044663861
-0.0036711121
-0.0029274777
-0.0022185934
-0.0015680707
-0.00083660797
-0.00055451837
-0.032007501
-0.033138798
-0.034323313
-0.035605454
-0.036798288
-0.037835457
-0.038735234
-0.039508909
-0.040146277
-0.040634376
-0.040966134
-0.041138192
-0.041148332
-0.04099546
-0.040680329
-0.040205787
-0.039576652
-0.038799579
-0.037882957
-0.036836788
-0.035672504
-0.034402738
-0.03304107
-0.031601761
-0.030099478
-0.028549001
-0.02696495
-0.025361525
-0.023752269
-0.022149866
-0.02056596
-0.019011019
-0.017494239
-0.016023475
-0.014605221
-0.013244609
-0.011945445
-0.010710267
-0.0095404086
-0.0084360768
-0.0073964216
-0.0064195938
-0.0055027306
-0.0046420662
-0.0038322252
-0.0030686448
-0.0023369141
-0.0016557738
-0.0009107694
-0.00053432839
-0.026357382
-0.027455446
-0.028602959
-0.029836352
-0.031003617
-0.032049439
-0.032987124
-0.03382451
-0.034551831
-0.035156767
-0.035631571
-0.035971418
-0.036172356
-0.036231307
-0.036146701
-0.035918733
-0.035549328
-0.035042081
-0.034402221
-0.033636558
-0.032753373
-0.031762257
-0.030673929
-0.029500013
-0.028252817
-0.026945085
-0.02558974
-0.024199639
-0.022787341
-0.021364887
-0.019943606
-0.018533957
-0.017145389
-0.015786245
-0.014463693
-0.013183693
-0.011950986
-0.010769112
-0.0096404436
-0.0085662282
-0.0075466302
-0.0065807687
-0.0056666992
-0.0048015025
-0.0039807141
-0.0032003219
-0.0024480943
-0.0017388275
-0.00097702245
-0.00052250832
-0.021322204
-0.022372084
-0.023467773
-0.024639119
-0.025763139
-0.026794129
-0.027741766
-0.028611425
-0.029394101
-0.030078454
-0.030656631
-0.031123024
-0.031472627
-0.031701052
-0.031805081
-0.031782914
-0.031634196
-0.031360012
-0.030962908
-0.030446894
-0.029817391
-0.029081147
-0.028246107
-0.027321264
-0.026316475
-0.025242268
-0.024109631
-0.022929784
-0.021713961
-0.020473202
-0.019218152
-0.017958886
-0.016704752
-0.015464244
-0.014244903
-0.013053244
-0.011894713
-0.010773665
-0.0096933591
-0.0086559726
-0.0076626113
-0.0067133253
-0.0058070807
-0.0049418248
-0.0041140181
-0.0033202818
-0.0025501981
-0.00181581
-0.0010349031
-0.00051910661
-0.016853153
-0.01784643
-0.018881815
-0.019983653
-0.021053117
-0.022052812
-0.022989753
-0.023867573
-0.024678219
-0.025411531
-0.02605997
-0.026617662
-0.027079102
-0.02743917
-0.02769359
-0.027839178
-0.027873892
-0.02779687
-0.027608493
-0.027310421
-0.026905603
-0.026398237
-0.02579371
-0.025098497
-0.024320042
-0.023466608
-0.02254711
-0.021570935
-0.020547744
-0.019487283
-0.018399191
-0.017292826
-0.016177098
-0.015060324
-0.013950106
-0.012853232
-0.011775598
-0.010722155
-0.0096968706
-0.0087027095
-0.0077416155
-0.0068145012
-0.0059212069
-0.0050605406
-0.0042298755
-0.0034265362
-0.0026416008
-0.0018854934
-0.0010848163
-0.00052227687
-0.012904036
-0.013837209
-0.014808668
-0.015838107
-0.016846835
-0.017804598
-0.018716443
-0.019584762
-0.020402532
-0.021160865
-0.0218528
-0.022472578
-0.023014611
-0.023473499
-0.023844407
-0.024123288
-0.024306951
-0.024393122
-0.024380526
-0.024268955
-0.02405931
-0.023753613
-0.023354985
-0.022867607
-0.02229665
-0.021648169
-0.020928993
-0.020146578
-0.019308861
-0.018424085
-0.017500635
-0.01654687
-0.015570965
-0.014580757
-0.013583612
-0.012586305
-0.011594921
-0.010614773
-0.0096503332
-0.0087051865
-0.0077819823
-0.0068823995
-0.0060070875
-0.005155681
-0.0043264351
-0.0035174253
-0.0027209992
-0.0019468661
-0.0011274339
-0.0005294207
-0.0094328418
-0.010305944
-0.01121343
-0.012170996
-0.013116769
-0.014026614
-0.014904092
-0.015750694
-0.01656042
-0.017325656
-0.018040169
-0.018698557
-0.019295443
-0.019825477
-0.020283651
-0.020665481
-0.020967082
-0.021185237
-0.02131749
-0.021362227
-0.021318739
-0.021187271
-0.020969031
-0.020666197
-0.020281886
-0.019820107
-0.01928568
-0.018684147
-0.018021658
-0.017304838
-0.016540651
-0.01573625
-0.014898833
-0.014035497
-0.013153105
-0.012258152
-0.011356656
-0.010454053
-0.0095551072
-0.0086638382
-0.0077834472
-0.006916258
-0.0060636387
-0.0052259917
-0.0044024062
-0.0035917296
-0.0027874399
-0.0019991547
-0.0011633191
-0.00053809707
-0.0064015704
-0.007217267
-0.0080634339
-0.0089522963
-0.0098360468
-0.010695764
-0.011533862
-0.012351155
-0.0131426
-0.013901792
-0.014623281
-0.01530216
-0.015933441
-0.016512053
-0.017033085
-0.017491938
-0.017884394
-0.018206687
-0.018455587
-0.018628492
-0.018723501
-0.018739475
-0.018676082
-0.018533827
-0.018314058
-0.018018957
-0.017651506
-0.017215432
-0.016715134
-0.016155598
-0.015542284
-0.014881012
-0.014177835
-0.013438912
-0.012670379
-0.011878222
-0.011068159
-0.010245523
-0.0094151593
-0.0085813304
-0.0077476236
-0.0069168687
-0.0060910413
-0.0052712295
-0.0044572936
-0.0036488459
-0.0028404104
-0.0020418877
-0.0011928408
-0.00054650316
-0.0037780136
-0.0045405107
-0.0053296818
-0.0061546825
-0.0069794632
-0.0077895352
-0.0085864037
-0.0093703508
-0.010137191
-0.01088162
-0.011598958
-0.012284849
-0.012934786
-0.013544107
-0.014108175
-0.014622499
-0.015082796
-0.01548505
-0.01582559
-0.016101181
-0.016309093
-0.016447173
-0.016513905
-0.016508458
-0.01643072
-0.016281316
-0.016061609
-0.015773686
-0.015420313
-0.015004891
-0.014531385
-0.014004234
-0.013428255
-0.012808537
-0.012150332
-0.011458934
-0.010739564
-0.0099972565
-0.0092367425
-0.0084623441
-0.0076778669
-0.0068865001
-0.0060907024
-0.0052921496
-0.0044913949
-0.003688781
-0.0028798169
-0.0020748736
-0.0012161953
-0.00055351785
-0.0015365074
-0.0022516076
-0.0029897356
-0.0037574211
-0.0045283791
-0.0052918348
-0.0060485545
-0.0067983883
-0.0075378891
-0.0082627168
-0.0089689056
-0.0096526445
-0.010309931
-0.010936565
-0.011528281
-0.012080835
-0.012590054
-0.01305189
-0.013462483
-0.013818244
-0.014115916
-0.014352652
-0.014526078
-0.014634348
-0.014676198
-0.014650987
-0.014558717
-0.014400051
-0.014176306
-0.013889432
-0.013541976
-0.013137032
-0.012678175
-0.012169374
-0.011614908
-0.011019262
-0.010387024
-0.0097227755
-0.0090309727
-0.0083158376
-0.0075812402
-0.006830586
-0.0060666893
-0.005291704
-0.0045067848
-0.0037129447
-0.0029066117
-0.0020986894
-0.0012338872
-0.00055877024
0.00034705688
-0.00032646722
-0.0010197615
-0.0017369787
-0.002459889
-0.0031808257
-0.0038999541
-0.0046167579
-0.0053284022
-0.0060313674
-0.0067223137
-0.0073979307
-0.0080546972
-0.0086888753
-0.0092965989
-0.0098739369
-0.01041693
-0.010921635
-0.011384175
-0.011800809
-0.012167988
-0.012482426
-0.012741159
-0.012941612
-0.013081655
-0.013159657
-0.013174525
-0.013125743
-0.013013391
-0.01283815
-0.012601297
-0.012304687
-0.011950707
-0.011542228
-0.011082536
-0.010575259
-0.010024271
-0.0094335972
-0.0088073026
-0.0081493815
-0.0074636371
-0.0067535623
-0.0060222039
-0.0052720816
-0.00450485
-0.0037221117
-0.0029211309
-0.0021133258
-0.0012457317
-0.00056176447
0.0018698461
0.0012301005
0.00057362181
-0.00010199208
-0.00078492949
-0.0014699686
-0.0021567783
-0.0028445454
-0.0035309249
-0.0042130617
-0.004888134
-0.005553258
-0.0062053344
-0.0068410421
-0.0074568947
-0.0080492816
-0.0086144962
-0.0091487682
-0.009648307
-0.010109352
-0.010528228
-0.0109014
-0.011225537
-0.011497571
-0.011714757
-0.011874734
-0.011975579
-0.012015853
-0.011994641
-0.011911582
-0.011766881
-0.011561315
-0.011296227
-0.010973491
-0.010595477
-0.010164987
-0.009685187
-0.009159521
-0.0085916139
-0.007985163
-0.0073438209
-0.0066710728
-0.0059700972
-0.0052436765
-0.004493862
-0.0037227479
-0.0029283305
-0.0021224702
-0.0012543331
-0.00056381493
0.003072637
0.0024606678
0.0018343223
0.0011928247
0.00054296194
-0.00011200264
-0.00077135283
-0.0014340249
-0.0020980448
-0.0027610752
-0.0034207047
-0.0040743932
-0.0047193873
-0.0053527158
-0.0059712206
-0.0065715821
-0.0071503392
-0.0077039143
-0.0082286464
-0.0087208314
-0.0091767673
-0.0095928042
-0.0099653985