/*--------------------------------*- C++ -*----------------------------------*\
  =========                 |
  \\      /  F ield         | OpenFOAM: The Open Source CFD Toolbox
   \\    /   O peration     | Website:  https://openfoam.org
    \\  /    A nd           | Version:  6
     \\/     M anipulation  |
\*---------------------------------------------------------------------------*/
FoamFile
{
    version     2.0;
    format      ascii;
    class       volVectorField;
    location    "119";
    object      U;
}
// * * * * * * * * * * * * * * * * * * * * * * * * * * * * * * * * * * * * * //

dimensions      [0 1 -1 0 0 0 0];

internalField   nonuniform List<vector> 
9200
(
(0.0010394965 0.0014199027 -5.9203008e-20)
(0.013676721 -0.0020587132 4.6043579e-20)
(0.038314587 -0.0058671755 -3.8502563e-20)
(0.072276833 -0.009764377 -6.0258994e-20)
(0.11376829 -0.013491172 1.882741e-20)
(0.16158573 -0.016607076 3.2744601e-20)
(0.21467773 -0.018818979 -1.2268321e-20)
(0.27207382 -0.019975862 9.269105e-21)
(0.33286552 -0.020013476 1.680376e-20)
(0.39617434 -0.018931592 1.4848408e-21)
(0.46112797 -0.016782652 -2.1456865e-20)
(0.52685075 -0.013660878 2.0670534e-20)
(0.59246593 -0.0096914739 -4.0423122e-20)
(0.65710777 -0.0050196036 -2.1134504e-20)
(0.7199422 0.00020135582 5.9048114e-21)
(0.78019331 0.0058194803 -2.5132489e-20)
(0.83718944 0.011707755 2.521803e-20)
(0.8904879 0.017912973 2.2244414e-20)
(0.93968988 0.024567357 -2.9906216e-22)
(0.98207085 0.028286848 -1.6688884e-21)
(0.0052524361 -0.001346411 -1.7059687e-20)
(0.026963472 -0.0089895172 3.9748555e-20)
(0.061672068 -0.014810563 2.3576796e-20)
(0.10629803 -0.019173352 -1.1569981e-19)
(0.15874015 -0.022215352 -1.2727369e-20)
(0.21753949 -0.023722302 7.3298461e-20)
(0.2813805 -0.023596965 -3.5477128e-20)
(0.34901517 -0.021871083 -8.3907267e-21)
(0.41924998 -0.018647892 3.4288293e-20)
(0.49092178 -0.014083468 -4.3260597e-20)
(0.56288612 -0.0083788503 -3.0339287e-20)
(0.63402359 -0.0017697883 7.192355e-20)
(0.70325955 0.0054848783 3.8295155e-20)
(0.76959296 0.01311476 -6.7978787e-20)
(0.83213024 0.020847818 1.4624247e-20)
(0.89011852 0.028415009 -3.6734777e-20)
(0.94298741 0.035564509 -1.3777598e-20)
(0.99045037 0.042135216 7.0978035e-20)
(1.0323737 0.047709114 2.9643962e-20)
(1.0669518 0.049133029 -8.3480435e-20)
(0.01085881 -0.0040426043 3.6774116e-20)
(0.043954754 -0.015431685 2.5047765e-21)
(0.090517991 -0.022553225 2.2342193e-20)
(0.14711536 -0.026498585 9.8118594e-22)
(0.21134806 -0.027887777 -4.0774832e-20)
(0.28147482 -0.026796825 1.8576713e-20)
(0.35587923 -0.023384655 1.3420592e-20)
(0.43300057 -0.017923674 -5.0328762e-20)
(0.51133686 -0.010738004 5.7263155e-20)
(0.58943969 -0.002186466 1.4257119e-20)
(0.665924 0.0073450617 -5.4302273e-20)
(0.73949626 0.017457126 -1.8238063e-20)
(0.80899267 0.027753091 9.059067e-21)
(0.87341985 0.03785542 2.3445597e-20)
(0.93199105 0.047419766 -1.1363021e-20)
(0.98415105 0.056144226 2.7878797e-20)
(1.0295911 0.063783919 -2.0188948e-20)
(1.068281 0.070198601 -7.0126646e-20)
(1.1003479 0.07511304 -2.3797468e-20)
(1.1249262 0.076634407 4.8661267e-20)
(0.017957746 -0.0064223902 2.4508422e-20)
(0.064778754 -0.020695486 5.1040136e-20)
(0.1248555 -0.028061869 1.9882036e-20)
(0.19447449 -0.030465348 1.2990264e-20)
(0.27095587 -0.02909634 1.7275978e-20)
(0.3522571 -0.024390663 -4.772106e-20)
(0.43644142 -0.016827828 -2.5647376e-20)
(0.52163176 -0.0069786976 0)
(0.60604212 0.0045648165 1.3921188e-20)
(0.68800151 0.017209297 -5.8527183e-21)
(0.76599064 0.030371226 -9.7937711e-20)
(0.83869066 0.043496624 -1.577512e-20)
(0.90503188 0.056083242 6.5105593e-20)
(0.96423244 0.067700339 4.8414415e-22)
(1.0158201 0.078003447 -1.5726169e-21)
(1.0596317 0.086742013 2.1958358e-20)
(1.0957928 0.093766907 -5.2649984e-21)
(1.1246948 0.099059455 -6.1032169e-20)
(1.1468787 0.10259065 -4.585326e-20)
(1.1623087 0.10340691 6.9522712e-20)
(0.026580119 -0.0082059368 -3.9194625e-21)
(0.089346233 -0.024034222 -5.1257039e-21)
(0.16431145 -0.030266013 5.6600332e-20)
(0.24758692 -0.029811259 1.8539612e-20)
(0.33624917 -0.024514429 -3.1955626e-20)
(0.42796064 -0.015241394 1.2164051e-20)
(0.52048371 -0.0028530225 2.6403429e-21)
(0.61167621 0.011735294 3.3610041e-20)
(0.69956105 0.027638166 5.660102e-21)
(0.78238333 0.044026567 -1.3205267e-20)
(0.85866972 0.060145235 6.0156275e-20)
(0.92728515 0.07533763 -5.801102e-20)
(0.98747287 0.089069604 -1.3217067e-19)
(1.038869 0.10094529 -5.5775057e-21)
(1.0814879 0.11071284 8.3153971e-20)
(1.1156803 0.11825926 0)
(1.1420688 0.12360048 1.01193e-20)
(1.16148 0.12688465 -1.5460376e-20)
(1.1748302 0.12829226 -8.5998164e-21)
(1.1826787 0.12744222 2.0992939e-20)
(0.036667787 -0.0090898294 -5.4309259e-21)
(0.11731779 -0.024686045 4.3579411e-21)
(0.20812329 -0.028141119 -8.7631174e-21)
(0.3051636 -0.023416044 2.8472841e-20)
(0.4053439 -0.013076779 -2.9393211e-20)
(0.5060818 0.0015213487 -1.6927365e-20)
(0.60491685 0.019093784 3.7364824e-20)
(0.69956291 0.038363772 4.7595781e-21)
(0.7880183 0.058165979 -2.4436993e-20)
(0.86864915 0.077481082 6.986959e-20)
(0.9402552 0.095456387 5.2368651e-22)
(1.0021111 0.1114289 -8.0447209e-20)
(1.0539722 0.12493977 0)
(1.0960421 0.13573384 3.9543674e-20)
(1.1289063 0.14374422 5.5238327e-21)
(1.1534412 0.14906416 -7.7569242e-20)
(1.1707116 0.15191382 -1.9587631e-20)
(1.1818741 0.15261783 -1.2468085e-20)
(1.1880701 0.15151972 -1.4709942e-20)
(1.1901562 0.14857813 4.0421957e-20)
(0.048059934 -0.0087676319 -1.7278149e-20)
(0.14808626 -0.021932589 -2.2199964e-21)
(0.25514598 -0.020798601 3.0380896e-20)
(0.36547121 -0.010413629 3.7484775e-20)
(0.47591354 0.0059007219 -1.994507e-20)
(0.58375374 0.026268408 -6.9164506e-20)
(0.68645441 0.048976241 -2.7996565e-20)
(0.78177574 0.072416686 7.8931204e-20)
(0.86791645 0.095211159 8.5782404e-21)
(0.94360407 0.11624799 -2.4874088e-20)
(1.0081408 0.13469625 1.3642407e-20)
(1.0614018 0.15001307 -4.3196795e-21)
(1.1037836 0.16193358 0)
(1.1361111 0.17044071 2.720439e-20)
(1.1595175 0.17571896 -7.9325101e-20)
(1.1753142 0.17809901 -3.1476599e-20)
(1.1848683 0.17800293 8.1057344e-20)
(1.1895027 0.17590376 -4.2971935e-21)
(1.1904128 0.17224946 3.5562095e-21)
(1.1885173 0.16718646 2.7112592e-20)
(0.060486501 -0.0069575417 -3.2414959e-20)
(0.18078134 -0.015170819 -8.1625502e-20)
(0.30389519 -0.0075840321 2.5796188e-21)
(0.42643361 0.0097028699 7.0163028e-20)
(0.54536148 0.032631099 6.2425542e-20)
(0.65799263 0.058819587 -7.1575776e-20)
(0.76192173 0.086175982 -2.825373e-22)
(0.85519672 0.11285162 8.5524975e-20)
(0.93646777 0.13737742 4.8829391e-20)
(1.0050559 0.15869237 -5.4220087e-20)
(1.0609499 0.17613385 -9.2337041e-20)
(1.1047381 0.18941124 -3.1590808e-21)
(1.1374891 0.19855657 4.2129188e-20)
(1.1605999 0.20385513 -6.6058465e-21)
(1.1756365 0.2057662 -1.2869182e-20)
(1.1841887 0.20484467 1.9691381e-20)
(1.1877531 0.20167398 4.3882026e-20)
(1.187655 0.19682045 -4.3860795e-20)
(1.1850045 0.19077303 -1.0232542e-19)
(1.1806336 0.18376765 2.4567831e-20)
(0.073538641 -0.003433076 -3.4980285e-20)
(0.21423089 -0.0039892445 -1.73888e-19)
(0.352523 0.01183921 8.2104771e-20)
(0.48563658 0.037018279 9.276918e-20)
(0.61086425 0.066835577 5.7971615e-20)
(0.7257792 0.098481215 8.6109102e-21)
(0.82836102 0.1295969 -1.0624251e-19)
(0.91720363 0.15824242 0)
(0.99164134 0.18302754 -6.8750719e-20)
(1.0517659 0.20311103 -1.5202928e-20)
(1.0983518 0.21814705 5.4705073e-20)
(1.1327137 0.22820871 1.0973722e-20)
(1.1565232 0.23368991 -4.5615206e-20)
(1.1716183 0.23519621 -4.908279e-20)
(1.1798312 0.23343956 2.4288451e-20)
(1.1828552 0.22914896 4.4824317e-20)
(1.1821584 0.22300515 -5.5602155e-20)
(1.178945 0.21560314 -1.0751452e-19)
(1.1741554 0.20741683 -3.1513557e-21)
(1.1684648 0.1987131 2.704723e-20)
(0.086652027 0.0019613835 -3.5450726e-21)
(0.24696455 0.01181669 8.7914494e-20)
(0.39885424 0.037492548 -1.6478743e-20)
(0.54041363 0.071218811 -8.4310994e-20)
(0.66950974 0.10778948 4.5165324e-20)
(0.78423154 0.14411599 4.9176268e-20)
(0.88320226 0.1777571 5.5358201e-21)
(0.96579198 0.20688504 -9.9505014e-20)
(1.0321896 0.23038776 -2.5049469e-21)
(1.0833459 0.24781477 5.0504995e-20)
(1.1208196 0.25926169 5.9856505e-21)
(1.1465678 0.26523429 -1.9717784e-20)
(1.1627221 0.26650284 -7.570677e-20)
(1.1713872 0.26396319 -6.2555367e-21)
(1.1744863 0.25852077 4.353456e-20)
(1.1736643 0.25100692 3.7023032e-20)
(1.1702472 0.2421296 1.9793911e-20)
(1.1652487 0.23245407 -5.2996636e-20)
(1.1594094 0.22239921 1.295751e-20)
(1.1532328 0.21223276 8.2661402e-20)
(-0.0012932924 0.0014346938 -1.1234485e-21)
(-0.00474607 0.0031874857 2.0647345e-21)
(-0.010771597 0.004135991 8.7958399e-22)
(-0.017754665 0.0045396256 -2.4410827e-21)
(-0.024740825 0.0045655002 -1.4115713e-21)
(-0.03130021 0.0043261099 1.5460861e-21)
(-0.037162029 0.003903593 -6.870347e-21)
(-0.042148199 0.0033577571 -5.9575298e-21)
(-0.046158556 0.0027313949 1.1172421e-20)
(-0.049146959 0.0020548207 -9.7431237e-21)
(-0.051101378 0.0013492654 -1.9833241e-22)
(-0.052031087 0.00062936032 3.6675004e-21)
(-0.051958263 -9.4979208e-05 -6.3297715e-22)
(-0.050912251 -0.00081704988 2.2819717e-20)
(-0.048925953 -0.0015319957 3.0401282e-22)
(-0.04603528 -0.0022353585 -4.0884732e-20)
(-0.042281458 -0.0029224879 7.538937e-21)
(-0.03770278 -0.0035912958 2.3865248e-20)
(-0.032307661 -0.0042402833 -4.3854539e-20)
(-0.026155512 -0.0048214497 -2.774061e-20)
(-0.0016522377 0.004180964 -5.3717634e-21)
(-0.0053975991 0.0092683405 1.0865622e-20)
(-0.011218742 0.012007691 -1.0191821e-20)
(-0.017658375 0.013154018 3.9231826e-21)
(-0.023856881 0.013195648 4.8123742e-21)
(-0.029433839 0.012462922 7.1327099e-22)
(-0.034152884 0.011197161 -2.2510345e-20)
(-0.03786095 0.0095739857 -2.0370983e-21)
(-0.04047484 0.0077190108 2.0164289e-20)
(-0.041959394 0.0057211832 -5.0475498e-21)
(-0.042309312 0.0036427419 -2.1763437e-20)
(-0.041537546 0.0015265102 4.8975104e-21)
(-0.039667725 -0.00059859254 2.2636301e-20)
(-0.036728852 -0.0027131375 1.0308822e-20)
(-0.032751515 -0.0048031605 2.185526e-20)
(-0.027768313 -0.0068560804 -1.9771605e-20)
(-0.021823547 -0.0088588981 -2.1673916e-20)
(-0.014964578 -0.010805016 2.1185668e-20)
(-0.0071268224 -0.012679911 2.6811642e-20)
(0.0018770679 -0.014318251 1.5855472e-20)
(-0.0023034787 0.006560381 -4.3569963e-21)
(-0.0065393542 0.0144805 -5.6388273e-21)
(-0.011892349 0.018710913 3.0723052e-22)
(-0.017211387 0.020428556 1.0959408e-21)
(-0.02181947 0.020400663 6.6920577e-21)
(-0.025431372 0.019151942 1.0665512e-20)
(-0.027877523 0.01706648 -3.7228949e-21)
(-0.029053476 0.014423877 -1.8896821e-20)
(-0.028909112 0.011424337 6.5415506e-21)
(-0.027430944 0.0082097718 1.2863032e-20)
(-0.024627374 0.0048795167 5.8343377e-21)
(-0.020519482 0.0015018457 1.8159759e-20)
(-0.015135016 -0.0018773975 1.729659e-21)
(-0.0085040264 -0.0052279314 -3.3865842e-20)
(-0.00065505756 -0.008528452 1.2021167e-21)
(0.0083833785 -0.011760119 -2.2140035e-20)
(0.01855982 -0.014905284 -2.4467441e-20)
(0.029805792 -0.017955128 4.5821842e-20)
(0.04230931 -0.02085669 2.5350606e-20)
(0.056743765 -0.023249533 1.2249542e-22)
(-0.0031290899 0.0083691498 -5.2834699e-21)
(-0.0078965381 0.018336877 -8.4819438e-21)
(-0.012439171 0.023588245 4.3594141e-21)
(-0.016026724 0.025610091 4.1464759e-21)
(-0.018235168 0.025383122 2.0106257e-21)
(-0.018912697 0.023589606 7.3212423e-21)
(-0.017984608 0.020730439 9.3127812e-21)
(-0.015416388 0.017170405 -1.3511783e-21)
(-0.011206452 0.013171188 -1.1482321e-20)
(-0.0053743008 0.0089186405 -2.9072872e-20)
(0.0020494469 0.0045429698 6.1913846e-23)
(0.011028314 0.00013365682 4.0699255e-20)
(0.021524572 -0.0042498024 -1.8383783e-20)
(0.033500812 -0.0085686446 -1.2296544e-20)
(0.046924162 -0.012796826 5.5344625e-22)
(0.06176451 -0.016913368 3.2303949e-20)
(0.077958273 -0.020903429 -1.4830271e-20)
(0.095398445 -0.024765396 -5.3341375e-20)
(0.11440564 -0.028382013 4.5766902e-20)
(0.13635373 -0.031075655 3.3014576e-20)
(-0.0039704812 0.0094659214 -6.8787983e-22)
(-0.0090917932 0.020488165 -1.2535072e-20)
(-0.012364596 0.026159522 -3.4145586e-20)
(-0.013552584 0.028143751 -5.7243741e-21)
(-0.012533132 0.027555338 -3.6223448e-21)
(-0.0093163926 0.025188272 6.3052966e-21)
(-0.0039450158 0.021627464 -4.6463378e-21)
(0.0035271289 0.017298835 -8.8072798e-21)
(0.013038269 0.012508431 2.1900363e-20)
(0.024523216 0.0074739105 5.0568345e-21)
(0.037918118 0.0023481473 -2.5291173e-20)
(0.053160712 -0.0027637782 1.107861e-20)
(0.070190904 -0.0077921187 0)
(0.088951472 -0.01269281 1.208999e-20)
(0.10939127 -0.017438703 -9.7019604e-21)
(0.13146427 -0.022011971 -1.4337679e-20)
(0.15508203 -0.026411028 -1.5737848e-21)
(0.18007674 -0.030662129 -2.2183069e-21)
(0.20686382 -0.034579586 4.6148659e-20)
(0.23767542 -0.037023253 -1.0470776e-20)
(-0.0046451708 0.0097810389 -7.5358425e-21)
(-0.0096773592 0.02074821 2.4517087e-20)
(-0.011064407 0.026161342 -1.0499671e-20)
(-0.0090966763 0.027724758 -2.7470039e-20)
(-0.0039792862 0.026601895 -2.7548862e-20)
(0.0040969881 0.023648451 -1.4921981e-20)
(0.014955416 0.019496309 -6.9061245e-22)
(0.028438054 0.014604341 5.5501175e-21)
(0.044405609 0.0093028465 1.9616391e-20)
(0.062733692 0.0038275626 7.3532924e-21)
(0.083308337 -0.0016558759 -7.1864148e-21)
(0.10602391 -0.0070336414 -2.0102442e-21)
(0.13077951 -0.012230796 -3.8192895e-20)
(0.15747647 -0.01720176 -1.2694046e-20)
(0.18602021 -0.021922066 1.8751314e-20)
(0.21632123 -0.026382386 -2.1022454e-20)
(0.24824302 -0.030605246 -8.9733756e-21)
(0.28153084 -0.034674003 3.0441407e-20)
(0.31662064 -0.038368611 5.047374e-20)
(0.35666532 -0.03996828 3.3561016e-21)
(-0.0049618309 0.0093141437 1.6783665e-20)
(-0.0091663183 0.019097952 1.4468256e-20)
(-0.0078592431 0.023563598 5.1146771e-20)
(-0.0018581146 0.024329085 2.3388609e-20)
(0.0082965696 0.022523775 1.8252269e-22)
(0.022223321 0.019014184 -3.9389478e-20)
(0.039599465 0.01444051 -2.4314501e-20)
(0.060150674 0.0092656836 1.046607e-20)
(0.083642735 0.0038222822 1.4401953e-20)
(0.10987126 -0.0016525323 -1.3114005e-20)
(0.13865124 -0.006992545 -4.403993e-20)
(0.16980845 -0.012084699 2.9619342e-20)
(0.20317202 -0.016856341 2.0021075e-20)
(0.23856873 -0.02126652 -2.7551969e-20)
(0.27582294 -0.025299284 1.1650521e-20)
(0.31476016 -0.028960417 2.4198369e-20)
(0.35515896 -0.032306683 8.0726876e-21)
(0.39664885 -0.035510705 -1.1764684e-20)
(0.43959345 -0.038397094 -1.4190636e-20)
(0.48800305 -0.038639283 5.8733322e-21)
(-0.0047308132 0.0081237718 1.1094107e-20)
(-0.0070585496 0.015671293 -2.3353369e-20)
(-0.0020290336 0.018562081 8.6201938e-21)
(0.0090332938 0.018216138 3.358882e-20)
(0.025257716 0.015650875 5.2125617e-20)
(0.046068405 0.011695102 2.0277005e-20)
(0.070987424 0.0069601962 -5.864095e-21)
(0.099605798 0.0018819184 -1.2286553e-20)
(0.13157385 -0.0032285257 -6.2059298e-21)
(0.16658174 -0.008151295 3.4241691e-20)
(0.20434156 -0.012735281 -4.5106196e-21)
(0.24457348 -0.016881484 -1.6643777e-20)
(0.28699473 -0.020531332 -1.9694065e-20)
(0.33131145 -0.023659419 -4.7445087e-20)
(0.37721753 -0.026268912 2.3239369e-20)
(0.42440212 -0.028391623 -1.4096422e-20)
(0.47251561 -0.030131775 2.5994291e-20)
(0.52105345 -0.031787746 2.1041519e-20)
(0.57023254 -0.03335566 -8.5572581e-20)
(0.62472899 -0.032064273 -1.0794414e-22)
(-0.0037710463 0.006314682 2.1925523e-20)
(-0.0028655684 0.010735065 -2.6166192e-20)
(0.0071427187 0.011563971 -4.501433e-20)
(0.024451446 0.00992464 -2.7254428e-20)
(0.047872821 0.0066517316 -2.0440341e-21)
(0.076631573 0.0024897887 1.3050354e-20)
(0.11008063 -0.0020164992 -2.8337996e-21)
(0.14765711 -0.0064893 1.8118932e-20)
(0.18886726 -0.010665205 8.8687334e-21)
(0.23325959 -0.01436444 -1.138043e-20)
(0.28040055 -0.017471296 8.8781976e-21)
(0.32985656 -0.019919492 -2.3903864e-20)
(0.38118082 -0.021681735 8.0507518e-21)
(0.43390435 -0.022763275 1.6756869e-20)
(0.48753432 -0.023198077 -2.6395878e-21)
(0.54156352 -0.023051055 1.6619362e-21)
(0.59545311 -0.022474006 -3.1954551e-22)
(0.64853666 -0.021875068 1.9591039e-20)
(0.70084221 -0.021450444 4.0435186e-21)
(0.75747211 -0.018504918 -5.7399395e-22)
(-0.0019109472 0.0040273301 2.3692659e-20)
(0.0038698265 0.0046763312 5.7161344e-20)
(0.020316283 0.003187575 -4.9245321e-20)
(0.045180033 0.00029380803 -9.9456372e-21)
(0.076967846 -0.0034250234 2.0256763e-20)
(0.11470002 -0.0073547282 2.1434168e-21)
(0.15754384 -0.011056382 -2.9815781e-20)
(0.20475466 -0.014245856 6.9849272e-21)
(0.25565727 -0.016739945 7.1099877e-21)
(0.30961399 -0.018429282 -2.6254697e-20)
(0.36599725 -0.01926274 1.2927747e-21)
(0.42417188 -0.019234837 -3.7175061e-20)
(0.4834848 -0.018375514 -3.6342003e-20)
(0.54326085 -0.016741944 6.5685403e-20)
(0.60280464 -0.014411345 5.5629265e-21)
(0.66140653 -0.011480335 -1.5189387e-20)
(0.71832652 -0.008106896 1.9364557e-20)
(0.77271848 -0.0045981465 -9.1891002e-22)
(0.82410838 -0.00097378035 2.0364877e-20)
(0.87623999 0.0043218552 -1.9555134e-20)
(-0.018834452 -0.0051000657 5.8355124e-20)
(-0.01022206 -0.0056353283 1.5784454e-20)
(-0.00021787112 -0.0060693194 -3.5141425e-20)
(0.010827371 -0.0063345816 1.6791238e-20)
(0.02264752 -0.0065125497 0)
(0.03518394 -0.0066306226 0)
(0.048376814 -0.0066915348 -2.297636e-20)
(0.062146427 -0.0067031286 -1.6503887e-20)
(0.07642237 -0.0066747894 1.9123909e-20)
(0.09114514 -0.006613306 1.8175284e-20)
(0.10625977 -0.0065238702 1.0524769e-21)
(0.12171445 -0.0064110458 -1.0318323e-20)
(0.13746089 -0.0062787914 8.327594e-21)
(0.15345388 -0.0061304545 1.8234989e-20)
(0.16965066 -0.0059688985 -5.2279586e-21)
(0.18601059 -0.005796609 -1.017566e-20)
(0.20249492 -0.0056157573 -4.3198969e-21)
(0.21906663 -0.0054282527 -4.4259873e-21)
(0.23569031 -0.0052357873 7.3669838e-22)
(0.25233209 -0.0050398718 1.2287216e-21)
(0.26895965 -0.0048418615 2.5669708e-21)
(0.28554223 -0.0046429762 6.6546066e-21)
(0.30205064 -0.0044443155 2.4880479e-22)
(0.31845735 -0.004246869 -3.4518799e-21)
(0.33473656 -0.0040515246 1.5556621e-22)
(0.35086421 -0.003859074 -5.7717757e-22)
(0.36681807 -0.0036702175 1.2436244e-21)
(0.38257775 -0.0034855678 1.0523382e-21)
(0.39812477 -0.0033056535 -1.299194e-21)
(0.41344254 -0.0031309232 -1.2216978e-22)
(0.42851636 -0.0029617489 3.5523587e-23)
(0.44333343 -0.0027984313 -3.5197544e-22)
(0.4578828 -0.0026412036 -4.059039e-22)
(0.47215534 -0.0024902376 5.5582953e-23)
(0.4861437 -0.0023456492 -1.3815596e-22)
(0.49984226 -0.0022075044 -2.2352756e-22)
(0.51324709 -0.0020758262 2.558603e-22)
(0.52635593 -0.001950601 2.9521548e-22)
(0.5391681 -0.0018317882 -8.4052306e-24)
(0.55168483 -0.0017193233 -1.5551642e-22)
(0.56390823 -0.0016131468 3.0403617e-23)
(0.57584507 -0.0015131595 -4.0183821e-23)
(0.58749567 -0.0014194349 9.2486185e-23)
(0.59888944 -0.0013316364 2.1913163e-23)
(0.60998051 -0.0012510564 -1.1474183e-22)
(0.62096265 -0.0011744729 -6.8261634e-24)
(0.63135474 -0.0011141641 -3.6787481e-26)
(0.64267834 -0.0010370773 -3.6677435e-24)
(0.65077565 -0.0010543246 2.9423678e-23)
(0.6674289 -0.00087955862 3.6147062e-22)
(0.010449262 -0.015018716 -1.2747584e-20)
(0.018183736 -0.016642232 -6.3305578e-20)
(0.027784012 -0.017916746 -3.0543719e-20)
(0.038390794 -0.0186735 3.847822e-20)
(0.049627568 -0.019185107 1.4663483e-20)
(0.061514228 -0.019531039 -1.8206151e-20)
(0.074021532 -0.019711557 4.6726526e-21)
(0.087072589 -0.019748265 2.5448765e-20)
(0.10060437 -0.019669132 9.1844569e-23)
(0.11456665 -0.019493626 -7.6597103e-21)
(0.12891133 -0.019236358 -1.3021661e-20)
(0.1435918 -0.018910379 -8.5252768e-21)
(0.15856418 -0.018527107 1.7773573e-20)
(0.17378696 -0.018096201 8.9306946e-21)
(0.1892204 -0.017625943 -1.6523376e-20)
(0.20482631 -0.017123559 -6.039505e-21)
(0.22056797 -0.016595386 3.2146676e-21)
(0.23641001 -0.016047023 8.3721431e-21)
(0.25231838 -0.015483447 6.983878e-21)
(0.26826034 -0.014909121 -6.9736271e-21)
(0.28420448 -0.01432806 -3.1692332e-21)
(0.30012078 -0.01374389 1.3610369e-21)
(0.31598068 -0.013159887 3.8733851e-22)
(0.33175712 -0.012579006 1.2116611e-21)
(0.34742469 -0.012003905 1.8382338e-22)
(0.36295959 -0.011436957 -3.2678338e-22)
(0.37833979 -0.010880268 -7.2457986e-22)
(0.39354503 -0.010335681 9.7207357e-22)
(0.40855685 -0.0098047913 8.2520964e-22)
(0.42335864 -0.0092889561 -1.5186382e-22)
(0.43793561 -0.008789305 5.534229e-22)
(0.4522748 -0.0083067535 -2.3887667e-22)
(0.46636505 -0.0078420175 -3.7105326e-22)
(0.48019698 -0.0073956287 -6.1043964e-22)
(0.49376293 -0.0069679517 4.4192698e-22)
(0.50705695 -0.0065592023 -1.5890913e-23)
(0.52007473 -0.006169467 1.6168708e-22)
(0.53281359 -0.0057987234 -4.4244038e-22)
(0.54527242 -0.0054468673 3.7284865e-22)
(0.557452 -0.0051137233 6.7270264e-23)
(0.56935397 -0.0047991305 -1.0287162e-22)
(0.58098459 -0.0045028082 1.7684145e-22)
(0.59234374 -0.0042249929 2.3451216e-22)
(0.60346009 -0.0039646943 1.702663e-22)
(0.61428794 -0.003725785 1.6892969e-22)
(0.62501819 -0.0034986717 -2.6337097e-23)
(0.63517612 -0.0033199485 8.5287682e-23)
(0.64626029 -0.0030912325 7.7541559e-23)
(0.65417808 -0.0031428919 -1.9645275e-22)
(0.6705121 -0.0026244074 -3.7813713e-23)
(0.067620674 -0.024031036 9.4533613e-21)
(0.073596325 -0.026751116 3.2953922e-21)
(0.082272962 -0.028807812 -1.2163192e-20)
(0.091956171 -0.029970898 -1.2260013e-21)
(0.10199252 -0.030770399 1.4971611e-20)
(0.11255669 -0.031333566 -1.4888025e-20)
(0.12368744 -0.03163888 -2.9844297e-20)
(0.13530951 -0.031715945 1.4494623e-20)
(0.14737096 -0.0316107 1.818334e-20)
(0.15983884 -0.03135324 -1.1599411e-20)
(0.17267752 -0.030965121 1.0191266e-21)
(0.18584936 -0.030466167 8.6863095e-21)
(0.19931811 -0.029874074 -1.5254869e-20)
(0.21304869 -0.029203869 2.9104531e-21)
(0.22700652 -0.028468495 7.5202279e-21)
(0.2411576 -0.027679343 3.1049359e-23)
(0.25546859 -0.026846499 2.6521959e-22)
(0.26990689 -0.025978941 -7.4160201e-21)
(0.2844407 -0.025084714 3.8627829e-21)
(0.29903908 -0.024171076 8.4760922e-21)
(0.31367212 -0.023244601 -3.8357329e-21)
(0.32831099 -0.022311256 -2.2132704e-21)
(0.34292807 -0.021376458 1.0123787e-21)
(0.35749707 -0.020445116 -1.7159315e-21)
(0.37199311 -0.019521658 1.3533967e-21)
(0.38639282 -0.018610056 7.1855913e-22)
(0.40067443 -0.017713839 1.5278378e-21)
(0.41481777 -0.016836116 -1.953747e-21)
(0.42880441 -0.015979582 2.2249139e-21)
(0.44261759 -0.015146543 5.5219763e-22)
(0.45624231 -0.014338929 4.0404098e-22)
(0.46966528 -0.013558316 3.2143488e-22)
(0.48287491 -0.012805951 8.7424681e-22)
(0.49586132 -0.012082774 -1.3724661e-21)
(0.50861626 -0.011389449 3.7119336e-22)
(0.52113312 -0.010726394 1.0998173e-22)
(0.53340688 -0.010093809 -4.5373434e-23)
(0.54543411 -0.0094917161 8.6512504e-23)
(0.55721286 -0.0089199984 -3.7257108e-22)
(0.56874307 -0.0083784207 1.8348232e-22)
(0.58002549 -0.0078667703 -3.504238e-23)
(0.59106544 -0.0073846344 3.9191246e-22)
(0.601862 -0.0069324546 -1.8641922e-22)
(0.61244243 -0.0065086417 4.7502252e-23)
(0.62276139 -0.0061196296 4.3958835e-23)
(0.63300432 -0.0057496675 -7.4239575e-23)
(0.64270872 -0.0054589385 -1.2250247e-22)
(0.65332905 -0.005086073 3.9241001e-22)
(0.66089848 -0.0051717758 1.7431665e-22)
(0.67661379 -0.0043269004 -8.3260388e-22)
(0.15022462 -0.031463154 1.5011748e-21)
(0.15355693 -0.035260339 -1.156703e-20)
(0.16062711 -0.038014091 6.6443747e-21)
(0.16881773 -0.039482463 -1.332547e-20)
(0.17699506 -0.040524236 -1.9759442e-21)
(0.18553734 -0.041306009 9.1606682e-21)
(0.19459921 -0.041761144 -9.7671962e-21)
(0.20410316 -0.041917789 1.566087e-21)
(0.21400523 -0.041837575 1.2904646e-20)
(0.22429493 -0.041558741 3.4036383e-21)
(0.23495297 -0.041106606 -6.2101253e-21)
(0.24595224 -0.040505163 -2.8642379e-21)
(0.25726531 -0.039776611 -5.8409946e-21)
(0.26886466 -0.038940063 -6.4560134e-21)
(0.2807217 -0.038012126 3.2354752e-21)
(0.29280716 -0.037007595 8.4569153e-22)
(0.30509146 -0.03593976 1.3682954e-21)
(0.31754504 -0.0348206 -3.3853369e-21)
(0.33013849 -0.033660972 -4.2437368e-21)
(0.34284281 -0.032470767 2.3621261e-21)
(0.35562957 -0.031259022 3.2259542e-21)
(0.36847115 -0.030034001 -1.5642716e-21)
(0.38134083 -0.028803255 1.587132e-21)
(0.39421299 -0.027573663 -3.915306e-22)
(0.40706324 -0.026351463 -3.9211462e-21)
(0.4198685 -0.025142275 -3.0339779e-21)
(0.43260711 -0.023951116 -1.9055128e-22)
(0.4452589 -0.022782423 4.2841078e-22)
(0.45780525 -0.021640068 -2.2112752e-21)
(0.47022911 -0.020527381 -8.5589695e-22)
(0.48251506 -0.019447169 2.2843116e-22)
(0.49464925 -0.018401751 -1.2509475e-21)
(0.50661947 -0.017392985 6.0190458e-24)
(0.51841506 -0.016422303 -4.2480838e-22)
(0.53002696 -0.015490752 -4.7216171e-22)
(0.54144761 -0.014599032 -5.2114693e-22)
(0.55267101 -0.013747544 -8.4318657e-22)
(0.56369265 -0.012936432 -5.4367906e-23)
(0.57450949 -0.012165649 -3.9199925e-24)
(0.5851203 -0.011434979 -5.2116199e-22)
(0.59552463 -0.010744235 -9.1448616e-23)
(0.60572653 -0.010092947 -3.337602e-22)
(0.61572395 -0.0094818249 -4.3995551e-22)
(0.62554229 -0.0089087703 3.8056161e-22)
(0.6351367 -0.008382731 1.490887e-23)
(0.64468495 -0.0078821725 1.8387888e-22)
(0.65374209 -0.0074896075 -1.3427286e-22)
(0.66369926 -0.0069846734 -2.6974751e-22)
(0.67077076 -0.0071036233 -4.310164e-23)
(0.68559867 -0.0059604023 4.6364884e-22)
(0.25469861 -0.036556347 -2.0901453e-20)
(0.25448387 -0.041397341 4.7588101e-20)
(0.25908786 -0.044749746 1.0348528e-20)
(0.26509962 -0.046446356 -1.5766155e-20)
(0.27072583 -0.047718843 -2.0230804e-21)
(0.27653751 -0.048752519 2.6231836e-21)
(0.2828542 -0.049418675 -1.6611173e-21)
(0.28959682 -0.049733262 -4.6864271e-21)
(0.29671778 -0.049766794 -4.0161747e-21)
(0.30422804 -0.049562612 -1.2208454e-20)
(0.31212622 -0.049147438 1.7899343e-20)
(0.32039496 -0.048546741 6.5227118e-21)
(0.32901424 -0.047785087 -1.6781753e-20)
(0.33796304 -0.046884322 1.0317855e-20)
(0.34721796 -0.045863783 8.3851038e-21)
(0.35675363 -0.044740974 -8.7875702e-22)
(0.36654346 -0.043531908 -3.1220918e-21)
(0.37656017 -0.042251269 -3.8206265e-21)
(0.38677611 -0.040912565 -1.3896694e-21)
(0.39716357 -0.039528248 -1.2308105e-21)
(0.4076951 -0.038109812 -3.026645e-21)
(0.41834373 -0.036667865 0)
(0.4290832 -0.035212165 -1.3456545e-21)
(0.43988815 -0.03375166 3.9316918e-21)
(0.45073424 -0.032294508 5.4068427e-21)
(0.46159832 -0.030848094 -9.4124355e-22)
(0.47245854 -0.029419047 -2.9290071e-21)
(0.48329437 -0.028013255 3.0277727e-21)
(0.49408673 -0.02663589 2.5395865e-22)
(0.50481801 -0.025291428 3.4374545e-21)
(0.51547208 -0.023983676 -5.3472341e-22)
(0.52603431 -0.022715814 1.7184253e-21)
(0.53649161 -0.021490428 -8.0046353e-22)
(0.54683234 -0.020309559 2.9159434e-22)
(0.55704636 -0.019174746 -4.3478492e-22)
(0.567125 -0.018087084 5.628991e-22)
(0.57706104 -0.017047281 4.5792897e-22)
(0.58684871 -0.016055711 3.8334771e-22)
(0.59648364 -0.015112499 -9.6151765e-22)
(0.60596324 -0.014217549 6.8532715e-22)
(0.61528568 -0.013370794 -3.7062185e-22)
(0.62445349 -0.012571802 -1.1075142e-21)
(0.63346339 -0.011821629 1.4140109e-21)
(0.64233848 -0.011117778 -6.2251157e-23)
(0.65103474 -0.010471637 -1.5916034e-22)
(0.6597203 -0.0098563899 -7.88797e-24)
(0.66797256 -0.0093751633 -1.2792029e-22)
(0.67710266 -0.00875399 -4.7028065e-22)
(0.68355396 -0.0089049763 8.7779442e-22)
(0.69726954 -0.0075003141 -4.4480722e-23)
(0.37636763 -0.038372605 -1.7496072e-20)
(0.37172684 -0.044274923 1.283253e-20)
(0.37288482 -0.048166576 2.9758522e-21)
(0.37592935 -0.050104063 -7.6357701e-21)
(0.37832517 -0.051675425 1.2056629e-20)
(0.38074389 -0.053048071 7.7918557e-21)
(0.38369808 -0.054035979 -1.2648239e-20)
(0.38712384 -0.054639279 -6.0683444e-21)
(0.39095376 -0.054924412 1.2698136e-20)
(0.39520829 -0.05493377 -1.5306418e-20)
(0.39990154 -0.054694374 -1.4064123e-20)
(0.40502387 -0.054231732 1.4131194e-20)
(0.41055903 -0.053570955 6.8198976e-21)
(0.4164893 -0.052735459 -4.2048949e-21)
(0.42279409 -0.05174674 -1.8541829e-21)
(0.42944992 -0.050624687 -4.0579651e-21)
(0.43643143 -0.049387854 5.3046053e-21)
(0.44371211 -0.048053597 3.6685266e-21)
(0.45126474 -0.046638141 -3.2409693e-21)
(0.45906178 -0.045156637 3.1382367e-21)
(0.46707573 -0.043623218 2.7672715e-21)
(0.47527942 -0.042051034 -3.2117769e-21)
(0.48364624 -0.04045227 3.7061017e-22)
(0.49215037 -0.038838162 -3.2575348e-21)
(0.50076694 -0.037219006 7.2485063e-21)
(0.50947218 -0.035604163 6.1101616e-21)
(0.5182435 -0.034002077 8.1045792e-22)
(0.52705962 -0.032420287 -1.7689485e-21)
(0.5359006 -0.030865446 3.7047767e-21)
(0.54474789 -0.029343353 7.1934212e-21)
(0.55358438 -0.027858984 2.3061036e-21)
(0.56239439 -0.026416538 3.3192363e-21)
(0.57116368 -0.025019481 1.9971562e-21)
(0.57987944 -0.023670605 7.4642609e-22)
(0.5885303 -0.022372082 -2.6386394e-22)
(0.59710628 -0.021125535 2.7240734e-21)
(0.60559882 -0.019932103 6.2085419e-22)
(0.61400077 -0.018792513 2.9533105e-22)
(0.62230634 -0.017707178 5.6315839e-23)
(0.63051148 -0.016676233 9.9234537e-22)
(0.63861289 -0.01569984 4.7099455e-23)
(0.64661152 -0.014777708 4.4416684e-22)
(0.65450277 -0.013911318 -1.2663449e-22)
(0.66230729 -0.013097902 -2.7883899e-22)
(0.66998216 -0.012351187 -1.5308713e-22)
(0.67768444 -0.011639664 -4.2508528e-22)
(0.68501783 -0.011085006 1.6334379e-22)
(0.69319991 -0.010366078 -1.2831102e-22)
(0.69894223 -0.01054753 -5.0056118e-22)
(0.71137371 -0.0089247194 2.4680054e-22)
(0.50929336 -0.035979487 3.6470677e-21)
(0.49955018 -0.042966137 -1.8958914e-20)
(0.49629616 -0.047389208 -2.3085386e-21)
(0.49557744 -0.049742777 5.4871809e-21)
(0.49419203 -0.05182431 3.0530961e-21)
(0.49271925 -0.053711946 -4.9623248e-23)
(0.49183689 -0.055194452 6.1903315e-21)
(0.49154025 -0.056272466 7.6256394e-21)
(0.49173863 -0.056997861 9.8585476e-21)
(0.49243898 -0.057403159 -1.1250862e-20)
(0.49366068 -0.057514139 -2.1581245e-20)
(0.49539888 -0.057356506 -3.9359483e-21)
(0.49763733 -0.056955467 1.5939619e-20)
(0.50035733 -0.056335592 1.2810152e-20)
(0.50353773 -0.055520562 -5.9068833e-21)
(0.50715448 -0.054532921 1.3813044e-21)
(0.51118135 -0.053394108 -3.660919e-21)
(0.51559083 -0.052124515 2.2455564e-21)
(0.52035464 -0.050743482 -2.9125741e-22)
(0.52544412 -0.049269267 -1.865726e-21)
(0.53083062 -0.04771904 7.8284007e-21)
(0.53648578 -0.04610888 -2.9343744e-22)
(0.5423818 -0.044453766 4.1855058e-22)
(0.54849166 -0.042767564 -6.5620316e-22)
(0.55478927 -0.041063031 -4.3040608e-21)
(0.56124962 -0.039351808 4.209715e-21)
(0.56784889 -0.037644428 1.9033914e-21)
(0.57456454 -0.035950337 -3.3093209e-21)