/*--------------------------------*- C++ -*----------------------------------*\
  =========                 |
  \\      /  F ield         | OpenFOAM: The Open Source CFD Toolbox
   \\    /   O peration     | Website:  https://openfoam.org
    \\  /    A nd           | Version:  6
     \\/     M anipulation  |
\*---------------------------------------------------------------------------*/
FoamFile
{
    version     2.0;
    format      ascii;
    class       volVectorField;
    location    "119";
    object      U_0;
}
// * * * * * * * * * * * * * * * * * * * * * * * * * * * * * * * * * * * * * //

dimensions      [0 1 -1 0 0 0 0];

internalField   nonuniform List<vector> 
9200
(
(0.0010394969 0.0014199025 -5.9203013e-20)
(0.013676723 -0.0020587144 4.6043593e-20)
(0.038314592 -0.0058671776 -3.850257e-20)
(0.072276842 -0.00976438 -6.0259007e-20)
(0.1137683 -0.013491176 1.8827416e-20)
(0.16158574 -0.016607081 3.2744605e-20)
(0.21467775 -0.018818985 -1.2268324e-20)
(0.27207385 -0.019975869 9.2691072e-21)
(0.33286556 -0.020013484 1.6803757e-20)
(0.39617438 -0.018931601 1.4848407e-21)
(0.46112801 -0.016782662 -2.1456865e-20)
(0.5268508 -0.01366089 2.0670535e-20)
(0.59246599 -0.0096914864 -4.0423122e-20)
(0.65710783 -0.0050196174 -2.1134505e-20)
(0.71994227 0.0002013406 5.9048114e-21)
(0.78019337 0.0058194636 -2.5132491e-20)
(0.83718951 0.011707737 2.5218032e-20)
(0.89048797 0.017912953 2.224442e-20)
(0.93968995 0.024567335 -2.9905973e-22)
(0.98207092 0.028286824 -1.6688852e-21)
(0.005252437 -0.0013464114 -1.705969e-20)
(0.026963475 -0.008989519 3.9748565e-20)
(0.061672075 -0.014810566 2.3576801e-20)
(0.10629804 -0.019173356 -1.1569982e-19)
(0.15874017 -0.022215357 -1.2727373e-20)
(0.21753951 -0.023722307 7.329846e-20)
(0.28138053 -0.023596972 -3.5477131e-20)
(0.3490152 -0.021871091 -8.3907263e-21)
(0.41925002 -0.018647901 3.4288293e-20)
(0.49092182 -0.014083477 -4.3260599e-20)
(0.56288617 -0.0083788608 -3.0339289e-20)
(0.63402365 -0.0017697998 7.1923556e-20)
(0.7032596 0.0054848656 3.8295159e-20)
(0.76959302 0.013114746 -6.7978797e-20)
(0.83213031 0.020847803 1.462425e-20)
(0.89011859 0.028414992 -3.6734783e-20)
(0.94298748 0.03556449 -1.37776e-20)
(0.99045043 0.042135196 7.0978051e-20)
(1.0323737 0.047709091 2.9643972e-20)
(1.0669519 0.049133005 -8.3480448e-20)
(0.010858811 -0.0040426049 3.677412e-20)
(0.043954759 -0.015431687 2.5047777e-21)
(0.090518001 -0.022553228 2.2342202e-20)
(0.14711537 -0.026498589 9.8118603e-22)
(0.21134808 -0.027887783 -4.0774851e-20)
(0.28147485 -0.026796831 1.8576708e-20)
(0.35587927 -0.023384662 1.3420599e-20)
(0.4330006 -0.017923682 -5.0328767e-20)
(0.51133691 -0.010738012 5.7263161e-20)
(0.58943974 -0.0021864754 1.4257118e-20)
(0.66592405 0.0073450514 -5.4302279e-20)
(0.73949632 0.017457115 -1.8238065e-20)
(0.80899274 0.027753079 9.0590696e-21)
(0.87341991 0.037855406 2.3445601e-20)
(0.93199112 0.047419751 -1.1363024e-20)
(0.98415111 0.056144209 2.7878802e-20)
(1.0295911 0.063783901 -2.0188952e-20)
(1.0682811 0.070198581 -7.0126661e-20)
(1.100348 0.075113017 -2.3797473e-20)
(1.1249262 0.076634382 4.8661278e-20)
(0.017957748 -0.006422391 2.4508425e-20)
(0.06477876 -0.020695489 5.1040141e-20)
(0.12485551 -0.028061873 1.9882037e-20)
(0.19447451 -0.030465353 1.2990257e-20)
(0.27095589 -0.029096346 1.7275974e-20)
(0.35225713 -0.024390669 -4.7721061e-20)
(0.43644146 -0.016827834 -2.5647377e-20)
(0.5216318 -0.0069787049 0)
(0.60604217 0.0045648085 1.3921182e-20)
(0.68800156 0.017209288 -5.8527155e-21)
(0.7659907 0.030371216 -9.7937729e-20)
(0.83869072 0.043496613 -1.5775124e-20)
(0.90503194 0.05608323 6.5105605e-20)
(0.9642325 0.067700325 4.8414497e-22)
(1.0158201 0.078003432 -1.5726172e-21)
(1.0596318 0.086741995 2.1958362e-20)
(1.0957929 0.093766888 -5.2649992e-21)
(1.1246948 0.099059434 -6.1032182e-20)
(1.1468787 0.10259062 -4.5853273e-20)
(1.1623088 0.10340688 6.9522727e-20)
(0.026580121 -0.0082059377 -3.9194635e-21)
(0.089346241 -0.024034225 -5.1257092e-21)
(0.16431146 -0.030266017 5.6600333e-20)
(0.24758694 -0.029811263 1.8539606e-20)
(0.3362492 -0.024514434 -3.1955618e-20)
(0.42796067 -0.015241399 1.2164056e-20)
(0.52048375 -0.0028530285 2.6403431e-21)
(0.61167626 0.011735288 3.3610043e-20)
(0.6995611 0.027638159 5.660103e-21)
(0.78238338 0.044026559 -1.3205267e-20)
(0.85866978 0.060145226 6.0156284e-20)
(0.92728521 0.07533762 -5.8011033e-20)
(0.98747292 0.089069593 -1.321707e-19)
(1.038869 0.10094528 -5.5775068e-21)
(1.081488 0.11071282 8.3153987e-20)
(1.1156804 0.11825924 0)
(1.1420689 0.12360046 1.0119302e-20)
(1.1614801 0.12688463 -1.5460379e-20)
(1.1748302 0.12829224 -8.5998191e-21)
(1.1826788 0.12744219 2.0992943e-20)
(0.036667791 -0.0090898303 -5.4309284e-21)
(0.1173178 -0.024686047 4.3579409e-21)
(0.20812331 -0.028141122 -8.7631166e-21)
(0.30516362 -0.023416048 2.8472844e-20)
(0.40534393 -0.013076783 -2.9393207e-20)
(0.50608183 0.0015213442 -1.6927366e-20)
(0.60491689 0.019093779 3.7364838e-20)
(0.69956296 0.038363767 4.759581e-21)
(0.78801835 0.058165972 -2.4436994e-20)
(0.8686492 0.077481075 6.9869608e-20)
(0.94025526 0.095456378 5.2368886e-22)
(1.0021111 0.11142889 -8.0447226e-20)
(1.0539722 0.12493976 0)
(1.0960422 0.13573383 3.954368e-20)
(1.1289064 0.14374421 5.5238335e-21)
(1.1534413 0.14906415 -7.7569255e-20)
(1.1707117 0.1519138 -1.9587634e-20)
(1.1818741 0.15261781 -1.2468088e-20)
(1.1880702 0.15151969 -1.4709945e-20)
(1.1901563 0.14857811 4.0421966e-20)
(0.048059937 -0.0087676327 -1.727815e-20)
(0.14808627 -0.021932591 -2.219987e-21)
(0.255146 -0.020798604 3.0380898e-20)
(0.36547124 -0.010413631 3.7484785e-20)
(0.47591357 0.0059007189 -1.9945071e-20)
(0.58375378 0.026268404 -6.9164509e-20)
(0.68645446 0.048976237 -2.7996567e-20)
(0.78177579 0.072416682 7.8931223e-20)
(0.8679165 0.095211154 8.5782401e-21)
(0.94360412 0.11624798 -2.4874097e-20)
(1.0081409 0.13469625 1.3642413e-20)
(1.0614018 0.15001306 -4.3196796e-21)
(1.1037836 0.16193357 0)
(1.1361112 0.1704407 2.7204395e-20)
(1.1595176 0.17571895 -7.9325116e-20)
(1.1753142 0.178099 -3.1476605e-20)
(1.1848684 0.17800291 8.1057359e-20)
(1.1895027 0.17590374 -4.2971952e-21)
(1.1904129 0.17224944 3.55621e-21)
(1.1885173 0.16718643 2.7112599e-20)
(0.060486506 -0.0069575424 -3.2414957e-20)
(0.18078135 -0.01517082 -8.1625488e-20)
(0.30389521 -0.0075840337 2.5796277e-21)
(0.42643364 0.0097028684 7.0163014e-20)
(0.54536151 0.032631097 6.242554e-20)
(0.65799267 0.058819586 -7.1575788e-20)
(0.76192178 0.08617598 -2.8254089e-22)
(0.85519677 0.11285162 8.5524994e-20)
(0.93646783 0.13737741 4.8829406e-20)
(1.005056 0.15869237 -5.4220102e-20)
(1.0609499 0.17613384 -9.2337066e-20)
(1.1047382 0.18941123 -3.1590816e-21)
(1.1374892 0.19855656 4.2129197e-20)
(1.1605999 0.20385512 -6.6058472e-21)
(1.1756366 0.20576619 -1.2869184e-20)
(1.1841887 0.20484466 1.9691383e-20)
(1.1877531 0.20167396 4.3882034e-20)
(1.1876551 0.19682043 -4.3860803e-20)
(1.1850045 0.19077301 -1.0232544e-19)
(1.1806336 0.18376763 2.4567838e-20)
(0.073538646 -0.0034330763 -3.4980281e-20)
(0.21423091 -0.003989245 -1.7388797e-19)
(0.35252302 0.01183921 8.210475e-20)
(0.48563661 0.037018279 9.2769165e-20)
(0.61086428 0.066835577 5.7971613e-20)
(0.72577924 0.098481215 8.6109109e-21)
(0.82836107 0.1295969 -1.0624253e-19)
(0.91720367 0.15824242 0)
(0.99164139 0.18302754 -6.8750734e-20)
(1.0517659 0.20311102 -1.520293e-20)
(1.0983519 0.21814704 5.4705088e-20)
(1.1327137 0.2282087 1.0973723e-20)
(1.1565233 0.2336899 -4.5615216e-20)
(1.1716183 0.2351962 -4.9082799e-20)
(1.1798312 0.23343955 2.4288456e-20)
(1.1828552 0.22914894 4.4824326e-20)
(1.1821584 0.22300514 -5.5602166e-20)
(1.1789451 0.21560312 -1.0751454e-19)
(1.1741554 0.20741681 -3.1513556e-21)
(1.1684648 0.19871308 2.7047235e-20)
(0.086652032 0.0019613836 -3.5450731e-21)
(0.24696456 0.01181669 8.7914483e-20)
(0.39885426 0.037492549 -1.6478729e-20)
(0.54041366 0.071218812 -8.431099e-20)
(0.66950978 0.10778948 4.5165324e-20)
(0.78423158 0.14411599 4.9176265e-20)
(0.88320231 0.17775711 5.535821e-21)
(0.96579203 0.20688504 -9.9505035e-20)
(1.0321897 0.23038776 -2.5049476e-21)
(1.0833459 0.24781477 5.0505007e-20)
(1.1208196 0.25926168 5.9856511e-21)
(1.1465678 0.26523428 -1.9717792e-20)
(1.1627221 0.26650284 -7.5706788e-20)
(1.1713872 0.26396318 -6.2555371e-21)
(1.1744863 0.25852075 4.3534568e-20)
(1.1736643 0.2510069 3.7023038e-20)
(1.1702472 0.24212958 1.9793914e-20)
(1.1652487 0.23245405 -5.2996647e-20)
(1.1594095 0.22239919 1.2957511e-20)
(1.1532328 0.21223275 8.2661417e-20)
(-0.0012932923 0.0014346934 -1.1234573e-21)
(-0.0047460698 0.0031874851 2.0647382e-21)
(-0.010771597 0.0041359905 8.7955746e-22)
(-0.017754666 0.0045396251 -2.4410674e-21)
(-0.024740828 0.0045654996 -1.4115842e-21)
(-0.031300213 0.0043261094 1.5461223e-21)
(-0.037162033 0.0039035926 -6.8703687e-21)
(-0.042148203 0.0033577567 -5.9575752e-21)
(-0.04615856 0.0027313945 1.1172451e-20)
(-0.049146963 0.0020548203 -9.7431429e-21)
(-0.051101381 0.001349265 -1.9833749e-22)
(-0.05203109 0.00062935992 3.6675007e-21)
(-0.051958265 -9.4979649e-05 -6.3297892e-22)
(-0.050912253 -0.00081705039 2.2819734e-20)
(-0.048925953 -0.0015319963 3.0401373e-22)
(-0.04603528 -0.0022353592 -4.0884753e-20)
(-0.042281456 -0.0029224887 7.5389404e-21)
(-0.037702778 -0.0035912967 2.3865258e-20)
(-0.032307658 -0.0042402844 -4.3854557e-20)
(-0.026155506 -0.0048214509 -2.7740621e-20)
(-0.0016522377 0.0041809635 -5.3717523e-21)
(-0.0053975991 0.0092683404 1.0865639e-20)
(-0.011218743 0.012007691 -1.0191789e-20)
(-0.017658376 0.013154018 3.9231707e-21)
(-0.023856883 0.013195648 4.812392e-21)
(-0.029433842 0.012462922 7.1327452e-22)
(-0.034152887 0.011197161 -2.251045e-20)
(-0.037860952 0.0095739855 -2.0370959e-21)
(-0.040474842 0.0077190104 2.0164323e-20)
(-0.041959396 0.0057211827 -5.0475581e-21)
(-0.042309313 0.0036427412 -2.1763459e-20)
(-0.041537547 0.0015265092 4.8975151e-21)
(-0.039667725 -0.00059859373 2.2636324e-20)
(-0.036728851 -0.002713139 1.0308828e-20)
(-0.032751513 -0.0048031623 2.185527e-20)
(-0.027768309 -0.0068560825 -1.9771615e-20)
(-0.021823542 -0.0088589006 -2.1673927e-20)
(-0.014964572 -0.010805019 2.1185676e-20)
(-0.0071268145 -0.012679914 2.6811653e-20)
(0.0018770779 -0.014318255 1.5855479e-20)
(-0.0023034787 0.0065603807 -4.356989e-21)
(-0.0065393543 0.014480501 -5.6388358e-21)
(-0.011892349 0.018710914 3.0723235e-22)
(-0.017211388 0.020428556 1.0959292e-21)
(-0.021819471 0.020400664 6.6920442e-21)
(-0.025431373 0.019151942 1.066549e-20)
(-0.027877524 0.01706648 -3.7229057e-21)
(-0.029053477 0.014423877 -1.8896815e-20)
(-0.028909113 0.011424336 6.5415554e-21)
(-0.027430944 0.008209771 1.2863049e-20)
(-0.024627373 0.0048795155 5.8343292e-21)
(-0.020519479 0.0015018441 1.815978e-20)
(-0.015135012 -0.0018773996 1.7296601e-21)
(-0.0085040215 -0.0052279341 -3.3865864e-20)
(-0.00065505095 -0.0085284552 1.2021146e-21)
(0.0083833871 -0.011760123 -2.2140048e-20)
(0.018559831 -0.014905288 -2.4467449e-20)
(0.029805805 -0.017955133 4.5821858e-20)
(0.042309326 -0.020856696 2.5350614e-20)
(0.056743783 -0.023249539 1.2249481e-22)
(-0.0031290899 0.0083691498 -5.2834614e-21)
(-0.0078965383 0.018336878 -8.4819058e-21)
(-0.012439171 0.023588246 4.3594056e-21)
(-0.016026724 0.025610092 4.1464684e-21)
(-0.018235168 0.025383123 2.0106193e-21)
(-0.018912697 0.023589607 7.3212576e-21)
(-0.017984608 0.020730439 9.3127987e-21)
(-0.015416387 0.017170405 -1.3511895e-21)
(-0.01120645 0.013171187 -1.1482341e-20)
(-0.0053742975 0.0089186392 -2.907289e-20)
(0.0020494517 0.0045429679 6.1908256e-23)
(0.011028321 0.00013365426 4.0699278e-20)
(0.021524581 -0.0042498056 -1.8383798e-20)
(0.033500822 -0.0085686485 -1.2296549e-20)
(0.046924175 -0.01279683 5.5344977e-22)
(0.061764526 -0.016913373 3.2303959e-20)
(0.077958292 -0.020903435 -1.4830273e-20)
(0.095398468 -0.024765404 -5.3341393e-20)
(0.11440567 -0.028382021 4.5766917e-20)
(0.13635376 -0.031075665 3.301459e-20)
(-0.0039704813 0.0094659216 -6.8788036e-22)
(-0.0090917935 0.020488166 -1.2535056e-20)
(-0.012364597 0.026159523 -3.4145536e-20)
(-0.013552584 0.028143752 -5.7243763e-21)
(-0.012533131 0.027555339 -3.6223222e-21)
(-0.0093163913 0.025188272 6.3053036e-21)
(-0.0039450135 0.021627464 -4.6463595e-21)
(0.0035271325 0.017298834 -8.807312e-21)
(0.013038275 0.01250843 2.1900385e-20)
(0.024523223 0.0074739084 5.0568487e-21)
(0.037918128 0.0023481444 -2.5291166e-20)
(0.053160724 -0.002763782 1.1078618e-20)
(0.070190919 -0.0077921233 0)
(0.08895149 -0.012692816 1.2089994e-20)
(0.10939129 -0.017438709 -9.7019634e-21)
(0.13146429 -0.022011979 -1.4337682e-20)
(0.15508206 -0.026411037 -1.57379e-21)
(0.18007678 -0.030662139 -2.2183061e-21)
(0.20686386 -0.034579597 4.6148673e-20)
(0.23767546 -0.037023265 -1.0470779e-20)
(-0.0046451709 0.0097810392 -7.5358372e-21)
(-0.0096773595 0.020748211 2.4517068e-20)
(-0.011064407 0.026161343 -1.0499665e-20)
(-0.0090966756 0.027724759 -2.7470016e-20)
(-0.0039792845 0.026601895 -2.7548818e-20)
(0.0040969912 0.023648451 -1.4921977e-20)
(0.014955421 0.019496308 -6.9062596e-22)
(0.028438061 0.01460434 5.5501322e-21)
(0.044405618 0.0093028442 1.9616412e-20)
(0.062733704 0.0038275593 7.3532948e-21)
(0.083308351 -0.0016558802 -7.1864191e-21)
(0.10602393 -0.0070336467 -2.01025e-21)
(0.13077953 -0.012230802 -3.8192903e-20)
(0.1574765 -0.017201768 -1.2694049e-20)
(0.18602024 -0.021922074 1.8751314e-20)
(0.21632127 -0.026382396 -2.1022456e-20)
(0.24824306 -0.030605257 -8.9733777e-21)
(0.28153089 -0.034674015 3.0441417e-20)
(0.31662069 -0.038368624 5.047375e-20)
(0.35666537 -0.039968295 3.3561028e-21)
(-0.004961831 0.009314144 1.6783656e-20)
(-0.0091663185 0.019097952 1.4468245e-20)
(-0.0078592426 0.023563598 5.1146736e-20)
(-0.001858113 0.024329085 2.3388603e-20)
(0.0082965728 0.022523775 1.8252275e-22)
(0.022223326 0.019014183 -3.9389484e-20)
(0.039599472 0.014440508 -2.4314485e-20)
(0.060150684 0.009265681 1.0466075e-20)
(0.083642748 0.0038222786 1.4401954e-20)
(0.10987128 -0.0016525369 -1.3114014e-20)
(0.13865126 -0.0069925507 -4.403993e-20)
(0.16980848 -0.012084706 2.9619344e-20)
(0.20317205 -0.016856349 2.002108e-20)
(0.23856876 -0.021266529 -2.7551974e-20)
(0.27582297 -0.025299294 1.1650521e-20)
(0.3147602 -0.028960429 2.4198374e-20)
(0.35515901 -0.032306696 8.0726884e-21)
(0.39664891 -0.03551072 -1.1764684e-20)
(0.43959351 -0.03839711 -1.4190639e-20)
(0.48800311 -0.038639301 5.8733344e-21)
(-0.0047308133 0.0081237721 1.1094105e-20)
(-0.0070585496 0.015671294 -2.3353374e-20)
(-0.0020290325 0.018562081 8.6201758e-21)
(0.0090332966 0.018216137 3.358882e-20)
(0.025257721 0.015650874 5.2125583e-20)
(0.046068413 0.0116951 2.0276999e-20)
(0.070987435 0.0069601934 -5.8640884e-21)
(0.099605812 0.0018819146 -1.2286555e-20)
(0.13157387 -0.0032285306 -6.2059249e-21)
(0.16658176 -0.008151301 3.4241686e-20)
(0.20434158 -0.012735289 -4.5106145e-21)
(0.24457351 -0.016881493 -1.6643774e-20)
(0.28699476 -0.020531342 -1.9694068e-20)
(0.33131149 -0.02365943 -4.7445091e-20)
(0.37721757 -0.026268924 2.3239373e-20)
(0.42440217 -0.028391637 -1.4096424e-20)
(0.47251566 -0.03013179 2.5994295e-20)
(0.52105352 -0.031787762 2.1041521e-20)
(0.5702326 -0.033355678 -8.557259e-20)
(0.62472907 -0.032064293 -1.0794385e-22)
(-0.0037710463 0.0063146821 2.192552e-20)
(-0.002865568 0.010735065 -2.6166199e-20)
(0.0071427207 0.011563971 -4.5014324e-20)
(0.02445145 0.0099246387 -2.7254429e-20)
(0.047872828 0.0066517295 -2.0440343e-21)
(0.076631584 0.0024897858 1.3050358e-20)
(0.11008065 -0.0020165031 -2.8338016e-21)
(0.14765713 -0.006489305 1.8118928e-20)
(0.18886728 -0.010665211 8.8687327e-21)
(0.23325962 -0.014364447 -1.1380428e-20)
(0.28040058 -0.017471305 8.878193e-21)
(0.3298566 -0.019919502 -2.3903864e-20)
(0.38118086 -0.021681746 8.0507463e-21)
(0.4339044 -0.022763288 1.675687e-20)
(0.48753437 -0.02319809 -2.6395851e-21)
(0.54156358 -0.02305107 1.6619346e-21)
(0.59545318 -0.022474023 -3.1954269e-22)
(0.64853673 -0.021875086 1.9591039e-20)
(0.70084228 -0.021450464 4.0435205e-21)
(0.75747218 -0.018504939 -5.739956e-22)
(-0.001910947 0.0040273301 2.3692664e-20)
(0.0038698277 0.0046763306 5.7161365e-20)
(0.020316286 0.0031875736 -4.9245326e-20)
(0.045180039 0.00029380587 -9.9456401e-21)
(0.076967855 -0.0034250265 2.0256765e-20)
(0.11470003 -0.0073547322 2.1434166e-21)
(0.15754386 -0.011056387 -2.9815775e-20)
(0.20475468 -0.014245862 6.9849249e-21)
(0.2556573 -0.016739952 7.1099873e-21)
(0.30961402 -0.01842929 -2.6254694e-20)
(0.36599729 -0.019262749 1.2927744e-21)
(0.42417192 -0.019234848 -3.717506e-20)
(0.48348485 -0.018375526 -3.6342003e-20)
(0.54326091 -0.016741957 6.5685405e-20)
(0.6028047 -0.014411359 5.562927e-21)
(0.66140659 -0.011480351 -1.5189391e-20)
(0.71832659 -0.0081069136 1.9364557e-20)
(0.77271855 -0.0045981656 -9.1891013e-22)
(0.82410846 -0.00097380115 2.0364877e-20)
(0.87624006 0.0043218327 -1.9555135e-20)
(-0.018834445 -0.005100067 5.8355147e-20)
(-0.010222051 -0.0056353297 1.578446e-20)
(-0.00021785906 -0.006069321 -3.5141436e-20)
(0.010827386 -0.0063345833 1.6791245e-20)
(0.022647539 -0.0065125515 0)
(0.035183962 -0.0066306245 0)
(0.04837684 -0.0066915368 -2.2976367e-20)
(0.062146457 -0.0067031307 -1.6503892e-20)
(0.076422406 -0.0066747916 1.9123915e-20)
(0.091145181 -0.0066133083 1.8175291e-20)
(0.10625981 -0.0065238726 1.0524773e-21)
(0.1217145 -0.0064110482 -1.0318327e-20)
(0.13746095 -0.006278794 8.3275972e-21)
(0.15345394 -0.0061304571 1.8234996e-20)
(0.16965073 -0.0059689012 -5.2279608e-21)
(0.18601067 -0.0057966118 -1.0175664e-20)
(0.20249501 -0.0056157602 -4.3198987e-21)
(0.21906673 -0.0054282556 -4.4259889e-21)
(0.23569042 -0.0052357904 7.3669861e-22)
(0.25233221 -0.005039875 1.2287222e-21)
(0.26895978 -0.0048418647 2.5669724e-21)
(0.28554237 -0.0046429795 6.6546099e-21)
(0.30205079 -0.0044443189 2.488042e-22)
(0.31845752 -0.0042468725 -3.4518819e-21)
(0.33473674 -0.0040515282 1.5556611e-22)
(0.35086441 -0.0038590778 -5.7717796e-22)
(0.36681828 -0.0036702214 1.2436253e-21)
(0.38257798 -0.0034855718 1.0523386e-21)
(0.39812501 -0.0033056576 -1.2991961e-21)
(0.4134428 -0.0031309274 -1.2216964e-22)
(0.42851664 -0.0029617533 3.5522151e-23)
(0.44333374 -0.0027984358 -3.5197593e-22)
(0.45788313 -0.0026412082 -4.0590536e-22)
(0.4721557 -0.0024902424 5.5584125e-23)
(0.48614409 -0.0023456542 -1.3815631e-22)
(0.49984268 -0.0022075097 -2.2352798e-22)
(0.51324755 -0.0020758317 2.5586093e-22)
(0.52635643 -0.0019506068 2.952163e-22)
(0.53916863 -0.0018317943 -8.4062994e-24)
(0.55168541 -0.0017193299 -1.5551844e-22)
(0.56390886 -0.0016131538 3.0403395e-23)
(0.57584576 -0.0015131669 -4.0183886e-23)
(0.58749642 -0.0014194428 9.2487522e-23)
(0.59889026 -0.0013316449 2.1913367e-23)
(0.6099814 -0.0012510655 -1.1474522e-22)
(0.62096363 -0.0011744827 -6.8269953e-24)
(0.6313558 -0.0011141748 -3.7140543e-26)
(0.64267953 -0.0010370887 -3.6680756e-24)
(0.65077692 -0.0010543374 2.9423401e-23)
(0.66743042 -0.00087957312 3.614752e-22)
(0.010449274 -0.01501872 -1.2747587e-20)
(0.018183751 -0.016642236 -6.3305601e-20)
(0.02778403 -0.017916751 -3.054373e-20)
(0.038390814 -0.018673505 3.8478234e-20)
(0.049627591 -0.019185112 1.4663488e-20)
(0.061514256 -0.019531045 -1.8206157e-20)
(0.074021563 -0.019711563 4.6726548e-21)
(0.087072625 -0.019748272 2.5448773e-20)
(0.10060441 -0.019669139 9.1843981e-23)
(0.1145667 -0.019493633 -7.6597132e-21)
(0.12891138 -0.019236365 -1.3021664e-20)
(0.14359186 -0.018910387 -8.5252804e-21)
(0.15856425 -0.018527115 1.7773579e-20)
(0.17378703 -0.018096209 8.9307e-21)
(0.18922048 -0.017625951 -1.6523381e-20)
(0.2048264 -0.017123567 -6.0395073e-21)
(0.22056806 -0.016595395 3.2146684e-21)
(0.23641011 -0.016047032 8.3721456e-21)
(0.25231849 -0.015483456 6.9838813e-21)
(0.26826046 -0.014909131 -6.9736318e-21)
(0.28420461 -0.01432807 -3.1692369e-21)
(0.30012093 -0.0137439 1.3610398e-21)
(0.31598083 -0.013159897 3.8734162e-22)
(0.33175729 -0.012579016 1.2116626e-21)
(0.34742487 -0.012003915 1.8382424e-22)
(0.36295979 -0.011436968 -3.267844e-22)
(0.37834 -0.010880279 -7.2458122e-22)
(0.39354526 -0.010335692 9.7207674e-22)
(0.4085571 -0.0098048034 8.2521197e-22)
(0.42335891 -0.0092889686 -1.5186654e-22)
(0.4379359 -0.0087893179 5.5342522e-22)
(0.45227511 -0.0083067669 -2.3887701e-22)
(0.46636539 -0.0078420315 -3.7105565e-22)
(0.48019734 -0.0073956433 -6.1044251e-22)
(0.49376333 -0.0069679669 4.4192807e-22)
(0.50705738 -0.0065592182 -1.5894375e-23)
(0.52007518 -0.0061694838 1.6169054e-22)
(0.53281408 -0.005798741 -4.4244519e-22)
(0.54527295 -0.0054468859 3.7285593e-22)
(0.55745258 -0.005113743 6.7270692e-23)
(0.5693546 -0.0047991513 -1.0287048e-22)
(0.58098528 -0.0045028304 1.7684635e-22)
(0.59234449 -0.0042250166 2.3451956e-22)
(0.6034609 -0.0039647197 1.7027255e-22)
(0.61428884 -0.0037258122 1.6893799e-22)
(0.62501916 -0.0034987009 -2.6338604e-23)
(0.63517718 -0.0033199803 8.5296791e-23)
(0.64626148 -0.0030912665 7.7549749e-23)
(0.65417934 -0.0031429301 -1.9646039e-22)
(0.67051363 -0.0026244509 -3.7813187e-23)
(0.067620696 -0.024031043 9.4533643e-21)
(0.073596349 -0.026751123 3.2953925e-21)
(0.082272989 -0.02880782 -1.2163195e-20)
(0.091956201 -0.029970906 -1.2260016e-21)
(0.10199256 -0.030770408 1.4971616e-20)
(0.11255673 -0.031333576 -1.4888029e-20)
(0.12368749 -0.03163889 -2.9844307e-20)
(0.13530956 -0.031715955 1.4494629e-20)
(0.14737101 -0.031610711 1.8183347e-20)
(0.15983889 -0.031353252 -1.1599416e-20)
(0.17267758 -0.030965133 1.0191269e-21)
(0.18584942 -0.030466179 8.6863114e-21)
(0.19931818 -0.029874087 -1.5254876e-20)
(0.21304877 -0.029203882 2.9104576e-21)
(0.22700661 -0.028468508 7.5202319e-21)
(0.2411577 -0.027679357 3.1046571e-23)
(0.2554687 -0.026846514 2.6521778e-22)
(0.26990701 -0.025978956 -7.416025e-21)
(0.28444082 -0.025084729 3.8627888e-21)
(0.29903921 -0.024171091 8.4760984e-21)
(0.31367226 -0.023244616 -3.8357359e-21)
(0.32831114 -0.022311272 -2.2132716e-21)
(0.34292823 -0.021376475 1.0123782e-21)
(0.35749724 -0.020445133 -1.7159337e-21)
(0.3719933 -0.019521676 1.3533975e-21)
(0.38639303 -0.018610074 7.1855962e-22)
(0.40067465 -0.017713858 1.5278438e-21)
(0.41481801 -0.016836135 -1.9537534e-21)
(0.42880466 -0.015979602 2.2249219e-21)
(0.44261787 -0.015146564 5.5219947e-22)
(0.45624261 -0.01433895 4.0404623e-22)
(0.4696656 -0.013558339 3.2143532e-22)
(0.48287525 -0.012805974 8.7425311e-22)
(0.49586169 -0.012082798 -1.3724763e-21)
(0.50861666 -0.011389475 3.7119687e-22)
(0.52113355 -0.01072642 1.0998581e-22)
(0.53340735 -0.010093837 -4.5374903e-23)
(0.54543461 -0.0094917453 8.6510519e-23)
(0.5572134 -0.0089200292 -3.7257573e-22)
(0.56874365 -0.0083784533 1.8348621e-22)
(0.58002612 -0.0078668049 -3.5042566e-23)
(0.59106614 -0.0073846713 3.9192559e-22)
(0.60186275 -0.0069324939 -1.8642557e-22)
(0.61244325 -0.0065086837 4.7503206e-23)
(0.62276229 -0.0061196747 4.396117e-23)
(0.6330053 -0.0057497159 -7.4243622e-23)
(0.64270979 -0.0054589913 -1.2251328e-22)
(0.65333025 -0.0050861296 3.9243702e-22)
(0.66089975 -0.0051718395 1.743236e-22)
(0.67661531 -0.0043269727 -8.3260746e-22)
(0.15022466 -0.031463164 1.5011734e-21)
(0.15355697 -0.03526035 -1.1567034e-20)
(0.16062715 -0.038014103 6.6443769e-21)
(0.16881777 -0.039482475 -1.3325474e-20)
(0.17699511 -0.040524249 -1.9759448e-21)
(0.18553739 -0.041306023 9.1606716e-21)
(0.19459927 -0.041761158 -9.7672009e-21)
(0.20410322 -0.041917804 1.5660862e-21)
(0.21400529 -0.04183759 1.2904651e-20)
(0.224295 -0.041558757 3.4036403e-21)
(0.23495305 -0.041106623 -6.2101275e-21)
(0.24595232 -0.04050518 -2.8642399e-21)
(0.2572654 -0.039776628 -5.8409952e-21)
(0.26886475 -0.038940081 -6.4560169e-21)
(0.2807218 -0.038012145 3.2354741e-21)
(0.29280726 -0.037007614 8.456888e-22)
(0.30509158 -0.03593978 1.3682972e-21)
(0.31754516 -0.03482062 -3.3853384e-21)
(0.33013862 -0.033660993 -4.2437414e-21)
(0.34284295 -0.032470789 2.3621286e-21)
(0.35562973 -0.031259044 3.2259586e-21)
(0.36847131 -0.030034024 -1.5642753e-21)
(0.381341 -0.028803278 1.5871342e-21)
(0.39421318 -0.027573687 -3.9153229e-22)
(0.40706344 -0.026351488 -3.9211548e-21)
(0.41986872 -0.0251423 -3.0339816e-21)
(0.43260734 -0.023951142 -1.9055303e-22)
(0.44525914 -0.02278245 4.2840957e-22)
(0.45780551 -0.021640096 -2.2112788e-21)
(0.47022939 -0.020527409 -8.5590259e-22)
(0.48251536 -0.019447198 2.2843143e-22)
(0.49464958 -0.018401782 -1.250954e-21)
(0.50661982 -0.017393017 6.0174158e-24)
(0.51841544 -0.016422337 -4.2481217e-22)
(0.53002736 -0.015490787 -4.7216288e-22)
(0.54144805 -0.014599069 -5.2115487e-22)
(0.55267148 -0.013747583 -8.4319904e-22)
(0.56369316 -0.012936472 -5.436679e-23)
(0.57451004 -0.012165692 -3.9200106e-24)
(0.58512089 -0.011435024 -5.2117187e-22)
(0.59552527 -0.010744283 -9.1446068e-23)
(0.60572722 -0.010092998 -3.3376927e-22)
(0.61572471 -0.0094818796 -4.399711e-22)
(0.62554311 -0.0089088288 3.8057441e-22)
(0.6351376 -0.0083827939 1.4909371e-23)
(0.64468593 -0.00788224 1.8388839e-22)
(0.65374316 -0.0074896811 -1.3428475e-22)
(0.66370046 -0.0069847523 -2.6976512e-22)
(0.67077202 -0.0071037122 -4.3093008e-23)
(0.68560019 -0.0059605031 4.6365101e-22)
(0.25469865 -0.03655636 -2.0901463e-20)
(0.25448392 -0.041397355 4.7588112e-20)
(0.25908791 -0.044749761 1.034853e-20)
(0.26509968 -0.046446372 -1.5766159e-20)
(0.27072589 -0.047718859 -2.0230815e-21)
(0.27653758 -0.048752537 2.6231836e-21)
(0.28285426 -0.049418693 -1.6611186e-21)
(0.28959689 -0.049733281 -4.6864285e-21)
(0.29671785 -0.049766814 -4.016176e-21)
(0.30422812 -0.049562632 -1.2208458e-20)
(0.3121263 -0.049147459 1.7899351e-20)
(0.32039506 -0.048546762 6.5227153e-21)
(0.32901434 -0.04778511 -1.6781759e-20)
(0.33796314 -0.046884345 1.0317856e-20)
(0.34721808 -0.045863807 8.3851042e-21)
(0.35675375 -0.044740999 -8.7875442e-22)
(0.36654359 -0.043531933 -3.1220909e-21)
(0.3765603 -0.042251295 -3.8206313e-21)
(0.38677625 -0.040912591 -1.3896716e-21)
(0.39716372 -0.039528274 -1.2308127e-21)
(0.40769526 -0.03810984 -3.0266499e-21)
(0.4183439 -0.036667893 0)
(0.42908339 -0.035212194 -1.3456571e-21)
(0.43988834 -0.03375169 3.9316958e-21)
(0.45073445 -0.032294539 5.4068514e-21)
(0.46159855 -0.030848126 -9.4124411e-22)
(0.47245878 -0.029419079 -2.9290161e-21)
(0.48329462 -0.028013289 3.027784e-21)
(0.494087 -0.026635925 2.5395534e-22)
(0.5048183 -0.025291464 3.4374674e-21)
(0.51547239 -0.023983714 -5.3472402e-22)
(0.52603465 -0.022715853 1.7184315e-21)
(0.53649196 -0.021490469 -8.0046851e-22)
(0.54683272 -0.020309601 2.9159853e-22)
(0.55704677 -0.01917479 -4.3478967e-22)
(0.56712544 -0.018087131 5.629026e-22)
(0.57706151 -0.01704733 4.5793437e-22)
(0.58684922 -0.016055763 3.8335295e-22)
(0.59648419 -0.015112554 -9.6153204e-22)
(0.60596383 -0.014217607 6.8533914e-22)
(0.61528632 -0.013370855 -3.7062866e-22)
(0.62445419 -0.012571867 -1.1075417e-21)
(0.63346415 -0.011821698 1.4140497e-21)
(0.64233931 -0.011117853 -6.2252504e-23)
(0.65103563 -0.010471717 -1.5916657e-22)
(0.65972128 -0.0098564762 -7.8883631e-24)
(0.66797363 -0.0093752574 -1.2793234e-22)
(0.67710385 -0.008754091 -4.7030759e-22)
(0.68355522 -0.0089050902 8.7778179e-22)
(0.69727106 -0.0075004429 -4.4480706e-23)
(0.37636769 -0.038372621 -1.7496076e-20)
(0.3717269 -0.04427494 1.2832533e-20)
(0.37288489 -0.048166594 2.9758531e-21)
(0.37592941 -0.050104081 -7.6357718e-21)
(0.37832524 -0.051675445 1.2056632e-20)
(0.38074396 -0.053048092 7.7918577e-21)
(0.38369816 -0.054036001 -1.2648242e-20)
(0.38712392 -0.054639302 -6.0683463e-21)
(0.39095385 -0.054924435 1.269814e-20)
(0.39520839 -0.054933794 -1.5306425e-20)
(0.39990164 -0.054694399 -1.4064128e-20)
(0.40502397 -0.054231757 1.4131201e-20)
(0.41055914 -0.053570982 6.8199001e-21)
(0.41648942 -0.052735486 -4.2049008e-21)
(0.42279422 -0.051746768 -1.8541808e-21)
(0.42945005 -0.050624716 -4.0579638e-21)
(0.43643157 -0.049387883 5.3046042e-21)
(0.44371226 -0.048053627 3.6685281e-21)
(0.45126489 -0.046638172 -3.2409699e-21)
(0.45906195 -0.045156669 3.1382381e-21)
(0.46707591 -0.043623251 2.7672747e-21)
(0.4752796 -0.042051067 -3.2117805e-21)
(0.48364643 -0.040452305 3.706104e-22)
(0.49215057 -0.038838198 -3.2575366e-21)
(0.50076716 -0.037219042 7.2485239e-21)
(0.50947241 -0.035604201 6.1101733e-21)
(0.51824375 -0.034002117 8.1046221e-22)
(0.52705989 -0.032420328 -1.768952e-21)
(0.53590088 -0.030865488 3.704792e-21)
(0.54474819 -0.029343396 7.19345e-21)
(0.5535847 -0.027859029 2.3061102e-21)
(0.56239473 -0.026416585 3.3192526e-21)
(0.57116404 -0.02501953 1.9971652e-21)
(0.57987983 -0.023670656 7.4643126e-22)
(0.58853071 -0.022372136 -2.6386454e-22)
(0.59710672 -0.021125592 2.7240969e-21)
(0.60559929 -0.019932162 6.2086011e-22)
(0.61400128 -0.018792575 2.953339e-22)
(0.62230689 -0.017707244 5.631633e-23)
(0.63051207 -0.016676303 9.9236427e-22)
(0.63861353 -0.015699914 4.7099792e-23)
(0.64661221 -0.014777787 4.441783e-22)
(0.65450353 -0.013911402 -1.2663678e-22)
(0.66230812 -0.013097993 -2.788481e-22)
(0.66998306 -0.012351284 -1.5309287e-22)
(0.67768542 -0.011639768 -4.251043e-22)
(0.6850189 -0.01108512 1.6335741e-22)
(0.6932011 -0.0103662 -1.283171e-22)
(0.69894349 -0.010547669 -5.0055266e-22)
(0.71137522 -0.0089248757 2.4680011e-22)
(0.50929343 -0.035979506 3.6470667e-21)
(0.49955025 -0.042966157 -1.8958917e-20)
(0.49629623 -0.047389229 -2.308539e-21)
(0.49557752 -0.049742799 5.4871823e-21)
(0.49419211 -0.051824332 3.0530967e-21)
(0.49271934 -0.05371197 -4.9623306e-23)
(0.49183698 -0.055194477 6.1903333e-21)
(0.49154035 -0.056272492 7.6256418e-21)
(0.49173873 -0.056997887 9.8585505e-21)
(0.49243908 -0.057403186 -1.1250866e-20)
(0.49366079 -0.057514168 -2.1581253e-20)
(0.49539899 -0.057356535 -3.9359513e-21)
(0.49763745 -0.056955498 1.5939626e-20)
(0.50035746 -0.056335623 1.2810158e-20)
(0.50353786 -0.055520594 -5.9068841e-21)
(0.50715461 -0.054532954 1.3813021e-21)
(0.5111815 -0.053394142 -3.6609234e-21)
(0.51559099 -0.05212455 2.245563e-21)
(0.5203548 -0.050743518 -2.9125755e-22)
(0.52544429 -0.049269304 -1.8657277e-21)
(0.5308308 -0.047719078 7.8284105e-21)
(0.53648597 -0.046108919 -2.9343946e-22)
(0.542382 -0.044453806 4.1855272e-22)
(0.54849187 -0.042767606 -6.5620151e-22)
(0.55478949 -0.041063074 -4.3040669e-21)
(0.56124986 -0.039351851 4.2097216e-21)
(0.56784914 -0.037644473 1.9033927e-21)
(0.57456481 -0.035950384 -3.3093271e-21)
(0.58137565 -0.034277959 -4.1127047e-21)