/*--------------------------------*- C++ -*----------------------------------*\
  =========                 |
  \\      /  F ield         | OpenFOAM: The Open Source CFD Toolbox
   \\    /   O peration     | Website:  https://openfoam.org
    \\  /    A nd           | Version:  6
     \\/     M anipulation  |
\*---------------------------------------------------------------------------*/
FoamFile
{
    version     2.0;
    format      ascii;
    class       volScalarField;
    location    "171";
    object      pMean;
}
// * * * * * * * * * * * * * * * * * * * * * * * * * * * * * * * * * * * * * //

dimensions      [0 2 -2 0 0 0 0];

internalField   nonuniform List<scalar> 
9200
(
-0.39665023
-0.38460042
-0.37383807
-0.36432869
-0.35502412
-0.34592655
-0.33711958
-0.32856756
-0.32019901
-0.31193971
-0.3037161
-0.29546016
-0.28711645
-0.27864923
-0.27005252
-0.26136718
-0.2526752
-0.24406867
-0.2365519
-0.23432448
-0.41509307
-0.40059423
-0.38789555
-0.3768574
-0.36616007
-0.35577524
-0.34577685
-0.33609929
-0.32664054
-0.31730221
-0.30799329
-0.2986357
-0.28917177
-0.2795698
-0.26982891
-0.25998237
-0.25006842
-0.2400942
-0.23073328
-0.22412271
-0.43386478
-0.41690813
-0.40232813
-0.38983492
-0.37779878
-0.36614303
-0.35492114
-0.34403125
-0.33334049
-0.32273194
-0.31210774
-0.30139428
-0.29054843
-0.27955992
-0.26845026
-0.25726769
-0.24605939
-0.23484073
-0.22400967
-0.21467959
-0.45250759
-0.43312421
-0.41673405
-0.40284734
-0.38948829
-0.37651637
-0.36395833
-0.35167753
-0.3395202
-0.32736792
-0.31513795
-0.30278528
-0.29030474
-0.27772773
-0.26511463
-0.25254404
-0.24008878
-0.22779106
-0.21591936
-0.20522073
-0.47036698
-0.44867151
-0.43059225
-0.41538771
-0.40071036
-0.38634664
-0.37229848
-0.3584074
-0.34452109
-0.3305479
-0.31645019
-0.30223906
-0.28796895
-0.27372661
-0.25961711
-0.24574949
-0.2322166
-0.2190765
-0.20651817
-0.1950568
-0.48659536
-0.46280745
-0.44321776
-0.42678254
-0.41077551
-0.39491233
-0.379185
-0.3634409
-0.34756463
-0.33152785
-0.31537
-0.29918133
-0.28308739
-0.2672303
-0.25175057
-0.23677253
-0.22238972
-0.2086542
-0.1956913
-0.18384427
-0.50016758
-0.47462469
-0.45376386
-0.43619587
-0.41883575
-0.40134671
-0.38374097
-0.36591409
-0.34783235
-0.3295692
-0.31126752
-0.29310822
-0.27528492
-0.2579806
-0.24134988
-0.22550893
-0.21052896
-0.19643485
-0.18329122
-0.17130292
-0.50990426
-0.48307627
-0.46125649
-0.44267828
-0.42395104
-0.40472187
-0.38506778
-0.36498537
-0.34457032
-0.32403098
-0.30362859
-0.28363204
-0.26428663
-0.24579196
-0.22829067
-0.21186736
-0.19655224
-0.18232963
-0.16920481
-0.15726542
-0.51445182
-0.48687203
-0.46439284
-0.44487818
-0.4247337
-0.40365454
-0.38184318
-0.35945359
-0.33674811
-0.3140827
-0.29182776
-0.27031563
-0.24981165
-0.23050078
-0.21248806
-0.19580891
-0.18044287
-0.1663304
-0.15342167
-0.14170359
-0.51245639
-0.48458595
-0.461614
-0.44112103
-0.41945873
-0.39645461
-0.37250081
-0.34795148
-0.32324572
-0.29886688
-0.27525494
-0.25275934
-0.23162291
-0.21198402
-0.19389108
-0.177323
-0.16221012
-0.1484554
-0.13596127
-0.12462656
-0.27772282
-0.28208563
-0.28410877
-0.28443102
-0.28376257
-0.28227226
-0.2800553
-0.27720687
-0.27380213
-0.2698987
-0.2655438
-0.26077797
-0.25563721
-0.25015448
-0.24436089
-0.23828828
-0.23197062
-0.22543145
-0.21867226
-0.21178417
-0.28065483
-0.2845788
-0.2862833
-0.28638225
-0.28552876
-0.283883
-0.28153806
-0.27858479
-0.27509437
-0.27112128
-0.26671009
-0.26189903
-0.25672202
-0.25120983
-0.24539082
-0.2392956
-0.23296551
-0.22642242
-0.21955861
-0.21234732
-0.28636459
-0.2894339
-0.29051935
-0.29018175
-0.28896583
-0.28701612
-0.28442153
-0.28126454
-0.27760858
-0.27350195
-0.2689839
-0.264088
-0.25884402
-0.25327857
-0.24741486
-0.24128024
-0.23492717
-0.22837661
-0.22132628
-0.21350707
-0.29458054
-0.29643165
-0.29662389
-0.29564475
-0.29389001
-0.29148429
-0.28851154
-0.28504292
-0.28113116
-0.2768159
-0.27212883
-0.26709678
-0.26174347
-0.2560894
-0.2501506
-0.24394879
-0.23754765
-0.23097324
-0.22367797
-0.21501261
-0.30496106
-0.30529698
-0.30435673
-0.30254416
-0.30007851
-0.29706351
-0.29357872
-0.28968245
-0.28541484
-0.28080532
-0.27587639
-0.27064589
-0.2651294
-0.25933997
-0.25328523
-0.24697815
-0.2404895
-0.23385897
-0.22628609
-0.21660254
-0.31715232
-0.31574475
-0.31347106
-0.31065078
-0.30731138
-0.30353745
-0.29940643
-0.29496405
-0.29023721
-0.28524264
-0.27999115
-0.27449049
-0.2687468
-0.26276424
-0.25654104
-0.25007878
-0.2434475
-0.23670637
-0.2288342
-0.21803305
-0.33084008
-0.32752035
-0.3237499
-0.31977029
-0.31541086
-0.31074078
-0.30583936
-0.30073937
-0.29545191
-0.28998029
-0.28432293
-0.27847558
-0.27243321
-0.26619009
-0.25973532
-0.25305899
-0.24622382
-0.23931146
-0.23114474
-0.21923939
-0.34578001
-0.34042439
-0.33502987
-0.32976937
-0.32427237
-0.31859596
-0.31282163
-0.3069688
-0.30103288
-0.29500189
-0.28885916
-0.28258558
-0.27616213
-0.26957089
-0.26279151
-0.25580579
-0.24867438
-0.24152496
-0.23314232
-0.22036102
-0.36179656
-0.35430322
-0.34718031
-0.34054192
-0.33381246
-0.32703598
-0.32029829
-0.31360512
-0.30693362
-0.30025367
-0.29353027
-0.28672574
-0.27980214
-0.27272172
-0.26544245
-0.25792
-0.25018111
-0.24233667
-0.23317224
-0.21924296
-0.3787732
-0.36902948
-0.36006754
-0.35194753
-0.34387719
-0.33588744
-0.32806849
-0.32041051
-0.31287038
-0.30539878
-0.29794275
-0.29044851
-0.28286453
-0.27514169
-0.26722812
-0.25906488
-0.25060089
-0.24163985
-0.23057796
-0.21444954
-0.2039891
-0.19430777
-0.18466312
-0.17513358
-0.16566073
-0.15628489
-0.1470627
-0.13803066
-0.12921742
-0.12065062
-0.11235499
-0.10435115
-0.096656059
-0.08928359
-0.082244555
-0.075546806
-0.069195408
-0.063192801
-0.057538954
-0.052231529
-0.047266056
-0.042636107
-0.038333501
-0.034348495
-0.030669997
-0.027285777
-0.024182673
-0.021346809
-0.018763787
-0.016418892
-0.014297265
-0.012384083
-0.010664708
-0.0091248345
-0.0077506188
-0.0065287959
-0.0054467955
-0.004492829
-0.0036560656
-0.0029265265
-0.0022959892
-0.0017557457
-0.0013046763
-0.0009255002
-0.0006598882
-0.00038570441
-0.0004876551
0.0001009579
-0.001831184
0.0028055785
-0.20528719
-0.19517188
-0.18539868
-0.17587318
-0.16636827
-0.1569466
-0.14768566
-0.13861803
-0.12976934
-0.12116793
-0.11283895
-0.10480289
-0.097076677
-0.089674245
-0.082606464
-0.075881227
-0.069503637
-0.063476163
-0.057798798
-0.052469212
-0.047482932
-0.04283352
-0.038512772
-0.034510913
-0.030816815
-0.027418201
-0.024301861
-0.021453862
-0.01885975
-0.016504749
-0.014373942
-0.01245244
-0.010725546
-0.009178894
-0.0077985801
-0.0065712816
-0.0054843725
-0.0045260102
-0.0036853122
-0.0029522497
-0.0023185512
-0.001775462
-0.0013217993
-0.00094027252
-0.00067228482
-0.00039627209
-0.00049433025
9.2630616e-05
-0.0018191722
0.0027762601
-0.20793167
-0.19690153
-0.18687696
-0.17740359
-0.16785108
-0.15834079
-0.14900635
-0.13987047
-0.1309511
-0.12227897
-0.11388088
-0.10577717
-0.097984892
-0.090518328
-0.083388631
-0.076603897
-0.070169396
-0.064087743
-0.058359032
-0.052981
-0.047949203
-0.043257203
-0.038896766
-0.034858067
-0.031129898
-0.027699891
-0.024554728
-0.021680357
-0.019062197
-0.016685337
-0.01453472
-0.01259532
-0.0108523
-0.0092911549
-0.0078978463
-0.0066589207
-0.0055616254
-0.0045939966
-0.0037450359
-0.0030046027
-0.0023643176
-0.0018153217
-0.0013563026
-0.00096992955
-0.00069710056
-0.00041730193
-0.00050761868
7.6276076e-05
-0.0017954019
0.0027181961
-0.21166066
-0.19918177
-0.18879741
-0.17950642
-0.16993837
-0.16031841
-0.15089837
-0.14168373
-0.13267576
-0.12391061
-0.11541934
-0.10722255
-0.099337602
-0.091779699
-0.084560764
-0.077689428
-0.071171413
-0.06500971
-0.059204704
-0.053754342
-0.048654319
-0.043898271
-0.039477984
-0.035383601
-0.031603845
-0.028126237
-0.024937325
-0.022022894
-0.019368185
-0.016958095
-0.014777366
-0.012810766
-0.011043247
-0.0094600976
-0.0080470743
-0.0067905238
-0.0056775004
-0.0046958543
-0.0038344092
-0.0030828527
-0.0024326401
-0.0018747521
-0.0014076806
-0.0010140273
-0.00073394411
-0.00044845465
-0.00052725226
5.2195417e-05
-0.0017602475
0.0026325902
-0.21613593
-0.20165798
-0.19081697
-0.18191222
-0.17241859
-0.16269438
-0.15320021
-0.14392275
-0.13483071
-0.12596753
-0.11737352
-0.10907082
-0.10107738
-0.093410004
-0.086082158
-0.079103595
-0.072480926
-0.066217896
-0.0603155
-0.054772152
-0.049583888
-0.04474458
-0.04024615
-0.036078797
-0.032231226
-0.028690884
-0.025444188
-0.022476754
-0.019773621
-0.017319457
-0.015098759
-0.013096034
-0.011295969
-0.0096835852
-0.0082443718
-0.0069644132
-0.005830509
-0.0048302624
-0.0039522604
-0.0031859616
-0.0025226
-0.0019529416
-0.0014752173
-0.0010719367
-0.00078226611
-0.00048924707
-0.0005528772
2.0856307e-05
-0.0017143824
0.0025213265
-0.22091613
-0.20398332
-0.19260953
-0.18432788
-0.17506233
-0.165275
-0.15573469
-0.14643232
-0.13728589
-0.12834024
-0.11965002
-0.1112425
-0.10313701
-0.095352504
-0.087904903
-0.080805949
-0.074063798
-0.06768348
-0.061667061
-0.056013807
-0.050720415
-0.045781246
-0.041188562
-0.036932775
-0.033002691
-0.029385757
-0.026068317
-0.023035844
-0.020273179
-0.017764752
-0.015494786
-0.013447497
-0.01160726
-0.0099587783
-0.0084872219
-0.0071783573
-0.0060186724
-0.0049954677
-0.0040970378
-0.0033125577
-0.0026329869
-0.0020488248
-0.0015579771
-0.0011428404
-0.00084135796
-0.00053906218
-0.00058405182
-1.7159502e-05
-0.0016586923
0.0023868538
-0.22554546
-0.2059381
-0.19393365
-0.18644055
-0.17763025
-0.1678969
-0.15835395
-0.14906986
-0.139917
-0.13092455
-0.12215975
-0.11366043
-0.1054499
-0.097549864
-0.089979528
-0.082753676
-0.0758829
-0.069374203
-0.063231296
-0.057454797
-0.052042469
-0.046989495
-0.042288747
-0.037931058
-0.033905493
-0.030199627
-0.026799809
-0.023691423
-0.020859143
-0.018287165
-0.015959434
-0.013859846
-0.011972438
-0.010281553
-0.008771996
-0.0074291679
-0.0062391948
-0.005189023
-0.0042666043
-0.0034607796
-0.0027621843
-0.0021610031
-0.0016547543
-0.0012257073
-0.00091034567
-0.000597165
-0.00062026292
-6.1225555e-05
-0.0015942043
0.0022320333
-0.22972931
-0.20789189
-0.19500541
-0.18806149
-0.17989978
-0.17045779
-0.1609982
-0.1517631
-0.14264565
-0.1336482
-0.12483718
-0.11626361
-0.10795925
-0.099949881
-0.092258458
-0.084903629
-0.077899278
-0.07125506
-0.064976884
-0.059067191
-0.053525217
-0.048347305
-0.043527213
-0.039056422
-0.034924439
-0.031119102
-0.027626872
-0.024433117
-0.021522391
-0.018878685
-0.01648567
-0.014326918
-0.012386105
-0.010647189
-0.0090945754
-0.0077132589
-0.0064889618
-0.0054082321
-0.0044586342
-0.0036286295
-0.0029084839
-0.0022880239
-0.0017643206
-0.0013195096
-0.00098837841
-0.00066286238
-0.00066105517
-0.00011078685
-0.0015220793
0.0020600856
-0.23113138
-0.21002331
-0.1964622
-0.18911148
-0.18143646
-0.17257564
-0.16339098
-0.15427842
-0.14525659
-0.13632138
-0.12752277
-0.11892006
-0.11055677
-0.10246513
-0.094672604
-0.087202394
-0.080072622
-0.073296524
-0.06688302
-0.060837104
-0.05516015
-0.049850241
-0.044902523
-0.040309553
-0.036061636
-0.032147165
-0.028552945
-0.025264514
-0.022266438
-0.0195426
-0.017076463
-0.014851312
-0.012850474
-0.011057518
-0.0094564318
-0.0080317747
-0.0067688281
-0.0056536999
-0.0046735209
-0.0038163254
-0.0030719603
-0.0024298456
-0.0018865423
-0.0014240361
-0.0010752022
-0.00073581155
-0.00070626981
-0.00016511878
-0.0014439482
0.0018752253
-0.2215572
-0.20942684
-0.19777051
-0.18904986
-0.18134002
-0.17327581
-0.16471158
-0.15597394
-0.14724155
-0.13854341
-0.12991121
-0.12140505
-0.11308174
-0.10498471
-0.097149551
-0.089606858
-0.082381655
-0.075493202
-0.068955533
-0.062777977
-0.056965546
-0.051519328
-0.0464369
-0.041712749
-0.037338671
-0.033304162
-0.029596806
-0.026202634
-0.023106477
-0.020292284
-0.017743429
-0.015442981
-0.013373957
-0.011519544
-0.0098632954
-0.0083893073
-0.007082378
-0.0059281252
-0.0049131923
-0.0040251287
-0.0032533054
-0.0025866753
-0.0020212286
-0.0015387507
-0.0011700746
-0.00081493205
-0.00075521999
-0.00022202717
-0.0013621576
0.0016831842
-0.19991053
-0.20340213
-0.19733949
-0.18788695
-0.17979335
-0.17216135
-0.16406157
-0.15564122
-0.14716265
-0.1386913
-0.13025156
-0.12189952
-0.11369612
-0.10568959
-0.09791912
-0.090418653
-0.083216562
-0.076335242
-0.069791548
-0.063597337
-0.057759867
-0.052282198
-0.047163622
-0.042400092
-0.037984644
-0.033907817
-0.030158046
-0.026722049
-0.023585198
-0.020731853
-0.018145688
-0.015809976
-0.013707855
-0.011822567
-0.010137664
-0.0086371933
-0.007305868
-0.0061291915
-0.0050936662
-0.0041866852
-0.003397413
-0.0027146601
-0.0021339132
-0.0016373793
-0.0012529928
-0.00088695018
-0.000797638
-0.00027836119
-0.0012762682
0.0014924857
-0.18888856
-0.19348392
-0.18927764
-0.18011817
-0.17241815
-0.16560164
-0.15836004
-0.15070717
-0.14293178
-0.13511111
-0.12726097
-0.11943373
-0.11169315
-0.1040916
-0.096672422
-0.089473936
-0.082529103
-0.075864863
-0.069502421
-0.063457748
-0.057741953
-0.05236166
-0.047319429
-0.042614188
-0.038241663
-0.034194802
-0.03046419
-0.027038446
-0.023904607
-0.021048486
-0.018455007
-0.016108513
-0.01399305
-0.012092613
-0.010391378
-0.0088738973
-0.0075252853
-0.0063313544
-0.0052788269
-0.004355263
-0.0035498539
-0.0028515656
-0.002255351
-0.0017445066
-0.0013428294
-0.00096633417
-0.00084194885
-0.00034423071
-0.0011759198
0.0012853576
-0.17956966
-0.18173159
-0.17878358
-0.17140347
-0.1646246
-0.1585614
-0.15213813
-0.14526341
-0.13819527
-0.13102983
-0.12378542
-0.11650876
-0.10926256
-0.10210135
-0.095070956
-0.088212506
-0.081562324
-0.075151018
-0.069003539
-0.063139575
-0.057573865
-0.05231651
-0.047373357
-0.042746399
-0.038434195
-0.034432286
-0.030733601
-0.027328872
-0.024207011
-0.02135549
-0.018760681
-0.016408182
-0.014283111
-0.012370375
-0.01065491
-0.0091218952
-0.0077569496
-0.0065462861
-0.0054769219
-0.0045366478
-0.0037147234
-0.0030003242
-0.0023878298
-0.0018617902
-0.0014413882
-0.0010536525
-0.00089050443
-0.00041695586
-0.0010647269
0.0010571137
-0.16930925
-0.16907412
-0.16664885
-0.161368
-0.15587002
-0.15060761
-0.14502507
-0.13900607
-0.13272143
-0.12627202
-0.11969139
-0.1130245
-0.10633095
-0.099666104
-0.093077946
-0.086609978
-0.08030141
-0.074186226
-0.068292986
-0.062645071
-0.057260914
-0.05215424
-0.047334379
-0.04280663
-0.038572645
-0.034630828
-0.030976738
-0.027603485
-0.024502123
-0.021662026
-0.019071246
-0.016716846
-0.014585208
-0.012662321
-0.010934032
-0.0093862776
-0.0080052957
-0.0067777948
-0.0056911662
-0.0047334955
-0.0038941588
-0.003162576
-0.0025325672
-0.0019899519
-0.0015492188
-0.0011485465
-0.00094417426
-0.00049325952
-0.00095044891
0.00081815402
-0.15818255
-0.15627716
-0.15396824
-0.15041836
-0.14625153
-0.14184766
-0.13710946
-0.13197476
-0.12652386
-0.12083981
-0.11497106
-0.10896502
-0.10287721
-0.096761972
-0.090668426
-0.084641665
-0.078723002
-0.072949183
-0.06735198
-0.061958228
-0.056789949
-0.051864498
-0.047194791
-0.042789601
-0.038653895
-0.034789194
-0.031193952
-0.02786394
-0.024792627
-0.021971562
-0.019390729
-0.017038892
-0.014903919
-0.012973074
-0.011233292
-0.0096714217
-0.0082744535
-0.0070297052
-0.0059250377
-0.0049489073
-0.0040908697
-0.0033406232
-0.0026914768
-0.0021304658
-0.0016675262
-0.001251564
-0.0010040645
-0.00057198876
-0.00083893999
0.00057665478
-0.14591398
-0.14338484
-0.1412812
-0.1390251
-0.13605967
-0.13253862
-0.1286312
-0.12435812
-0.11974179
-0.11483826
-0.10970266
-0.10438422
-0.098934215
-0.093404556
-0.087844226
-0.08229878
-0.076810492
-0.071417851
-0.066155041
-0.061051754
-0.056133158
-0.051419946
-0.046928456
-0.042670887
-0.038655553
-0.0348872
-0.031367331
-0.028094566
-0.025065006
-0.022272593
-0.01970947
-0.017366327
-0.015232724
-0.013297403
-0.011548567
-0.0099741442
-0.0085620223
-0.0073002573
-0.0061772901
-0.0051820373
-0.0043043135
-0.0035341357
-0.002864383
-0.0022832105
-0.001796319
-0.0013625071
-0.0010707468
-0.00065217381
-0.00073597619
0.00034116037
-0.13283129
-0.13054521
-0.12886386
-0.12754514
-0.12557168
-0.12290055
-0.11979292
-0.11633273
-0.11251915
-0.1083828
-0.10397692
-0.099351664
-0.094553213
-0.089628859
-0.084626142
-0.079590131
-0.074562975
-0.069583738
-0.06468799
-0.05990744
-0.055269729
-0.050798357
-0.046512701
-0.042428119
-0.038556129
-0.034904639
-0.031478222
-0.028278425
-0.025304099
-0.022551734
-0.020015805
-0.017689108
-0.015563084
-0.013628133
-0.011873904
-0.010289564
-0.0088640527
-0.007586297
-0.0064454378
-0.0054309512
-0.004533003
-0.003741976
-0.0030504285
-0.0024475095
-0.0019351563
-0.0014808815
-0.0011445791
-0.0007329126
-0.0006473852
0.00012078323
-0.11963475
-0.11800036
-0.11686443
-0.11623095
-0.11504156
-0.11314078
-0.11077925
-0.10806802
-0.10500333
-0.10159865
-0.097898931
-0.09395181
-0.089799874
-0.085484958
-0.08105034
-0.076539393
-0.071993332
-0.067450767
-0.062947549
-0.058516415
-0.054186642
-0.049983835
-0.045929835
-0.042042722
-0.038336889
-0.034823191
-0.031509145
-0.028399177
-0.025494903
-0.022795427
-0.020297656
-0.017996621
-0.015885789
-0.013957372
-0.012202618
-0.010612091
-0.0091759213
-0.0078840451
-0.0067264258
-0.0056932049
-0.0047750008
-0.0039626172
-0.0032484217
-0.0026224211
-0.0020833723
-0.0016061026
-0.0012257678
-0.00081363219
-0.00057831223
-7.5838692e-05
-0.10684631
-0.10592487
-0.10534777
-0.10523818
-0.10466497
-0.10343262
-0.1017442
-0.099709585
-0.09732806
-0.094603797
-0.091571684
-0.088273593
-0.084747482
-0.081030577
-0.077161509
-0.073179686
-0.069124121
-0.065032159
-0.060939
-0.056877418
-0.052877413
-0.048965895
-0.04516648
-0.041499388
-0.037981424
-0.034626031
-0.03144341
-0.028440694
-0.025622166
-0.022989513
-0.020542095
-0.018277235
-0.016190517
-0.014276076
-0.012526884
-0.010935028
-0.0094919652
-0.0081887643
-0.0070163328
-0.0059655851
-0.0050276985
-0.0041939608
-0.0034566927
-0.0028066321
-0.0022399984
-0.0017374633
-0.0013142878
-0.00089415604
-0.0005324934
-0.00024167776
-0.094736649
-0.09443473
-0.094359228
-0.094664614
-0.094579071
-0.093909346
-0.092809629
-0.091374567
-0.089605219
-0.087500906
-0.085087167
-0.082398496
-0.079467366
-0.076325812
-0.073007821
-0.069548609
-0.065983507
-0.062347429
-0.058674101
-0.05499549
-0.051341439
-0.047739334
-0.044213822
-0.040786611
-0.037476356
-0.034298627
-0.031265939
-0.028387856
-0.02567113
-0.0231199
-0.020735914
-0.018518777
-0.016466215
-0.014574344
-0.012837945
-0.011250726
-0.0098055758
-0.0084948093
-0.0073103877
-0.0062441018
-0.0052877936
-0.0044333052
-0.0036730596
-0.0029984249
-0.0024037357
-0.0018741049
-0.0014098255
-0.0009746384
-0.00051172001
-0.00037230097
-0.083437026
-0.083617853
-0.0839514
-0.084583016
-0.084881876
-0.084673902
-0.084074423
-0.083159294
-0.081928679
-0.080378739
-0.078527073
-0.076400488
-0.074025433
-0.071428507
-0.068638505
-0.065686154
-0.062602882
-0.059420184
-0.056169317
-0.05288065
-0.049583094
-0.046303723
-0.043067465
-0.039896831
-0.036811719
-0.033829294
-0.030963944
-0.028227295
-0.025628287
-0.023173304
-0.020866338
-0.018709188
-0.016701686
-0.014841936
-0.013126561
-0.01155095
-0.010109505
-0.0087958723
-0.0076031619
-0.0065241351
-0.0055513994
-0.0046774249
-0.0038948849
-0.0031957128
-0.002572978
-0.0020150071
-0.0015117506
-0.0010554244
-0.00051555821
-0.00046656488
-0.073002203
-0.073533698
-0.074175778
-0.075052504
-0.075647088
-0.075807938
-0.075621499
-0.075146324
-0.07438011
-0.073316321
-0.071965924
-0.070348487
-0.068484322
-0.066394512
-0.064102522
-0.061634133
-0.059016514
-0.056277467
-0.053445043
-0.050547188
-0.047611153
-0.044662986
-0.041727179
-0.038826363
-0.035981047
-0.033209426
-0.030527259
-0.027947814
-0.025481869
-0.023137771
-0.020921544
-0.018837032
-0.016886078
-0.01506872
-0.013383411
-0.011827245
-0.010396176
-0.0090852458
-0.0078887873
-0.0068006123
-0.0058141843
-0.0049226773
-0.0041191551
-0.0033960913
-0.0027458454
-0.0021589715
-0.0016190991
-0.0011368636
-0.00054140448
-0.00052682798
-0.063440192
-0.064212133
-0.065070809
-0.066118657
-0.066930753
-0.067376517
-0.067520801
-0.067407823
-0.06703253
-0.06638599
-0.06547365
-0.064308643
-0.062905451
-0.061279768
-0.059449804
-0.057436305
-0.055261837
-0.052950167
-0.050525832
-0.048013756
-0.045438837
-0.042825438
-0.040196957
-0.037575487
-0.034981518
-0.032433691
-0.029948606
-0.027540702
-0.025222191
-0.023003049
-0.020891061
-0.018891904
-0.017009277
-0.015245052
-0.013599454
-0.012071257
-0.010657977
-0.0093560816
-0.0081611795
-0.0070681956
-0.0060715275
-0.0051651258
-0.0043425751
-0.0035969007
-0.0029202247
-0.0023046059
-0.0017305758
-0.0012191222
-0.00058490497
-0.0005585491
-0.054733064
-0.055658716
-0.056656898
-0.057811526
-0.058773057
-0.059429599
-0.059829552
-0.06000573
-0.0599508
-0.059653925
-0.059116069
-0.058344896
-0.057349652
-0.056141033
-0.054732263
-0.053139185
-0.051379719
-0.04947337
-0.047440866
-0.045303789
-0.043084178
-0.040804123
-0.03848533
-0.036148751
-0.033814251
-0.031500331
-0.029223887
-0.027000032
-0.024841967
-0.022760913
-0.020766089
-0.018864745
-0.017062227
-0.01536209
-0.013766223
-0.012275016
-0.010887519
-0.0096016283
-0.0084142507
-0.0073214687
-0.0063186772
-0.0054006713
-0.004561672
-0.0037952985
-0.0030938177
-0.0024503178
-0.0018445854
-0.0013020442
-0.00064067845
-0.00056928619
-0.046847314
-0.047860138
-0.048936434
-0.050144892
-0.051198599
-0.052002224
-0.052591581
-0.052990606
-0.053190425
-0.053178952
-0.052953692
-0.05251786
-0.051876258
-0.051035172
-0.050003306
-0.048791931
-0.047414496
-0.045886257
-0.044223997
-0.042445721
-0.04057031
-0.038617142
-0.036605731
-0.034555346
-0.032484677
-0.030411527
-0.028352547
-0.026323009
-0.024336635
-0.022405468
-0.020539795
-0.018748125
-0.017037198
-0.015412044
-0.013876067
-0.012431165
-0.011077856
-0.00981543
-0.0086420909
-0.0075551004
-0.0065508957
-0.0056251751
-0.0047728967
-0.0039883355
-0.0032641959
-0.0025943285
-0.0019592982
-0.0013850945
-0.00070319212
-0.00056729056
-0.039739199
-0.040789435
-0.041896895
-0.043117801
-0.044217425
-0.045115133
-0.045837213
-0.046400835
-0.046796329
-0.047011043
-0.047040022
-0.046883052
-0.046541362
-0.046017553
-0.045316426
-0.044445175
-0.043413138
-0.042231535
-0.04091327
-0.039472708
-0.037925396
-0.036287741
-0.034576688
-0.032809393
-0.031002889
-0.029173779
-0.027337955
-0.02551035
-0.023704725
-0.021933501
-0.020207635
-0.018536539
-0.016928048
-0.015388419
-0.013922371
-0.012533158
-0.011222658
-0.0099914886
-0.0088391165
-0.0077639787
-0.0067635791
-0.0058345652
-0.0049727139
-0.0041730266
-0.0034288588
-0.0027347082
-0.0020727439
-0.0014673909
-0.00076757909
-0.0005600414
-0.033359225
-0.034410873
-0.035514954
-0.036717469
-0.037827126
-0.038776275
-0.039584103
-0.040262735
-0.040802347
-0.041190345
-0.041420209
-0.041489263
-0.041396032
-0.041140218
-0.040723422
-0.040149375
-0.039423801
-0.038554258
-0.037550014
-0.036421909
-0.035182144
-0.033844039
-0.032421758
-0.030930028
-0.029383851
-0.027798206
-0.026187775
-0.024566682
-0.022948265
-0.021344878
-0.019767728
-0.018226753
-0.016730544
-0.015286293
-0.013899796
-0.012575467
-0.011316397
-0.010124422
-0.0090002062
-0.0079433286
-0.00695236
-0.0060249238
-0.0051576772
-0.0043464154
-0.0035852897
-0.0028694291
-0.0021829194
-0.0015478008
-0.00083019054
-0.00055311085
-0.027655524
-0.028683629
-0.029760037
-0.030922353
-0.032015386
-0.032982866
-0.033838746
-0.034591468
-0.03523155
-0.035746954
-0.036130358
-0.036377471
-0.036484932
-0.036450308
-0.036272724
-0.035953121
-0.035494199
-0.034900339
-0.034177557
-0.033333431
-0.032376968
-0.031318434
-0.030169141
-0.028941225
-0.027647399
-0.0263007
-0.024914227
-0.023500891
-0.022073185
-0.020642969
-0.019221288
-0.017818216
-0.016442738
-0.015102667
-0.013804591
-0.012553856
-0.011354574
-0.010209657
-0.0091208606
-0.0080888438
-0.0071132147
-0.006192576
-0.0053245016
-0.0045056349
-0.0037310118
-0.0029964297
-0.0022878845
-0.0016250634
-0.00088876014
-0.000549648
-0.022576133
-0.023564428
-0.024597124
-0.025704889
-0.026762521
-0.027723635
-0.028598351
-0.029392463
-0.030097177
-0.030701366
-0.031197504
-0.031580393
-0.031845489
-0.031988922
-0.03200804
-0.031901658
-0.031670073
-0.031315046
-0.030839814
-0.030249073
-0.029548915
-0.028746725
-0.027851035
-0.026871362
-0.025818013
-0.024701876
-0.023534198
-0.022326359
-0.021089647
-0.01983505
-0.018573064
-0.017313516
-0.016065428
-0.014836892
-0.013634988
-0.012465729
-0.011334027
-0.010243688
-0.0091974213
-0.0081968655
-0.0072426068
-0.0063342031
-0.0054701527
-0.0046479799
-0.0038636512
-0.0031136856
-0.0023858336
-0.0016979012
-0.00094219845
-0.00055054608
-0.018070844
-0.019009749
-0.019989171
-0.021034003
-0.022043953
-0.022981171
-0.023852958
-0.024663223
-0.025404065
-0.026065489
-0.026640199
-0.027122635
-0.027507651
-0.027790532
-0.02796746
-0.028035752
-0.027993906
-0.027841633
-0.027579907
-0.027210992
-0.026738441
-0.026167042
-0.025502739
-0.02475253
-0.023924321
-0.023026776
-0.022069133
-0.021061017
-0.020012238
-0.018932601
-0.017831714
-0.016718812
-0.015602603
-0.014491127
-0.013391647
-0.012310556
-0.011253318
-0.010224424
-0.0092273666
-0.0082646323
-0.0073376937
-0.0064470087
-0.0055919779
-0.0047710127
-0.0039810212
-0.003219293
-0.002475143
-0.0017651019
-0.00099017004
-0.00055510898
-0.014092288
-0.014977264
-0.015898835
-0.016877022
-0.017832251
-0.01873399
-0.019587453
-0.020395199
-0.021150313
-0.021844033
-0.02246958
-0.023021429
-0.023494266
-0.023883008
-0.024183183
-0.024391148
-0.024504155
-0.024520405
-0.024439127
-0.024260635
-0.023986364
-0.023618867
-0.023161787
-0.022619802
-0.021998543
-0.021304484
-0.020544815
-0.019727288
-0.018860061
-0.017951525
-0.017010131
-0.016044228
-0.015061901
-0.014070827
-0.013078143
-0.012090343
-0.01111318
-0.0101516
-0.009209682
-0.0082906036
-0.0073966016
-0.0065289483
-0.0056878942
-0.0048727144
-0.0040812426
-0.0033115702
-0.0025544118
-0.0018255766
-0.0010326613
-0.00056188432
-0.010597353
-0.011427513
-0.012290331
-0.013201668
-0.014099194
-0.014958623
-0.0157836
-0.016575706
-0.017329014
-0.018036003
-0.018690575
-0.019287502
-0.01982161
-0.020287798
-0.020681341
-0.020998075
-0.021234473
-0.021387713
-0.021455756
-0.021437435
-0.021332506
-0.021141681
-0.020866645
-0.020510038
-0.020075425
-0.019567228
-0.018990648
-0.018351559
-0.017656385
-0.016911966
-0.016125413
-0.01530396
-0.014454814
-0.013585018
-0.012701311
-0.011810012
-0.010916907
-0.010027159
-0.0091452273
-0.008274799
-0.0074187303
-0.0065789957
-0.0057566148
-0.0049516751
-0.0041628964
-0.0033891797
-0.0026225152
-0.0018784119
-0.0010696965
-0.00056935287
-0.0075472612
-0.0083244422
-0.00913039
-0.0099773814
-0.01081744
-0.011631586
-0.012422259
-0.013190307
-0.013930735
-0.014637207
-0.015304371
-0.015927444
-0.016501592
-0.017021932
-0.017483772
-0.017882768
-0.018214987
-0.018476983
-0.018665873
-0.01877943
-0.018816149
-0.018775304
-0.018656986
-0.018462122
-0.018192479
-0.017850643
-0.017439977
-0.016964556
-0.016429091
-0.015838829
-0.015199441
-0.0145169
-0.013797352
-0.013046993
-0.012271932
-0.011478073
-0.010671001
-0.009855867
-0.0090372979
-0.0082193046
-0.0074052009
-0.0065975311
-0.005797979
-0.0050073684
-0.0042252436
-0.0034512981
-0.0026787029
-0.0019229452
-0.0011012553
-0.00057632347
-0.0049087746
-0.0056364538
-0.006389172
-0.007176063
-0.0079610859
-0.0087297506
-0.0094835488
-0.010222763
-0.010943236
-0.011639713
-0.012307582
-0.012942577
-0.013540303
-0.014096238
-0.014605915
-0.015065043
-0.015469564
-0.015815719
-0.016100125
-0.016319856
-0.016472518
-0.016556316
-0.016570105
-0.016513435
-0.016386579
-0.016190544
-0.015927065
-0.01559858
-0.015208184
-0.014759575
-0.014256969
-0.013705018
-0.013108699
-0.012473215
-0.011803873
-0.011105973
-0.010384691
-0.0096449676
-0.0088913995
-0.0081281375
-0.0073587878
-0.0065863206
-0.0058129634
-0.0050401797
-0.0042682591
-0.0034976451
-0.0027226074
-0.0019587714
-0.0011272699
-0.00058201662
-0.0026560196
-0.0033393253
-0.0040441252
-0.004776886
-0.0055114205
-0.00623698
-0.0069542981
-0.007663205
-0.008360267
-0.009041178
-0.0097020184
-0.010339039
-0.010948319
-0.011525763
-0.012067235
-0.012568644
-0.013025998
-0.013435453
-0.013793385
-0.014096459
-0.014341706
-0.014526581
-0.014649034
-0.014707558
-0.014701242
-0.014629796
-0.014493578
-0.0142936
-0.014031509
-0.013709569
-0.013330614
-0.012897991
-0.012415488
-0.011887246
-0.011317672
-0.010711331
-0.010072844
-0.0094067791
-0.008717537
-0.0080092449
-0.0072856451
-0.0065499906
-0.0058049244
-0.0050524395
-0.0042934753
-0.003529159
-0.0027547713
-0.0019861484
-0.0011479828
-0.00058617145
-0.00076349107
-0.0014076871
-0.0020702387
-0.0027552236
-0.0034445311
-0.0041305258
-0.004813333
-0.0054924074
-0.0061649172
-0.0068273636
-0.0074764364
-0.0081088667
-0.0087211916
-0.0093097507
-0.0098707758
-0.010400455
-0.01089497
-0.011350544
-0.011763489
-0.012130278
-0.0124476
-0.01271243
-0.012922085
-0.013074292
-0.013167235
-0.013199609
-0.013170656
-0.013080194
-0.012928633
-0.012716974
-0.0124468
-0.012120244
-0.011739946
-0.011308997
-0.010830868
-0.010309328
-0.0097483526
-0.0091520231
-0.0085244203
-0.0078695139
-0.0071910468
-0.0064924224
-0.0057765734
-0.005045907
-0.0043019062
-0.0035462976
-0.0027752711
-0.0020048852
-0.0011631113
-0.00058838395
0.00076512854
0.00015283527
-0.00047490309
-0.0011204135
-0.0017719819
-0.0024244098
-0.0030773273
-0.0037298909
-0.0043797512
-0.0050240633
-0.0056600228
-0.0062847731
-0.0068952561
-0.0074882082
-0.0080602172
-0.0086077654
-0.009127259
-0.0096150614
-0.010067538
-0.010481107
-0.010852294
-0.01117779
-0.011454508
-0.011679647
-0.011850746
-0.011965747
-0.012023036
-0.012021494
-0.011960529
-0.0118401
-0.011660726
-0.011423484
-0.011129996
-0.010782393
-0.010383268
-0.0099356171
-0.00944276
-0.0089082563
-0.0083358058
-0.0077291414
-0.0070919138
-0.0064275741
-0.0057392371
-0.0050296147
-0.0043006234
-0.0035544878
-0.0027881873
-0.0020179666
-0.0011747515
-0.00058974415
0.0019730695
0.0013870662
0.00078785863
0.00017473041
-0.00044558231
-0.0010698218
-0.0016972391
-0.002326743
-0.0029563502
-0.003583725
-0.0042064644
-0.0048220458
-0.0054277446
-0.0060206321
-0.0065976078
-0.0071554255
-0.0076907154
-0.0082000098
-0.0086797783
-0.0091264683
-0.0095365512