/*--------------------------------*- C++ -*----------------------------------*\
  =========                 |
  \\      /  F ield         | OpenFOAM: The Open Source CFD Toolbox
   \\    /   O peration     | Website:  https://openfoam.org
    \\  /    A nd           | Version:  6
     \\/     M anipulation  |
\*---------------------------------------------------------------------------*/
FoamFile
{
    version     2.0;
    format      ascii;
    class       volVectorField;
    location    "308";
    object      UMean;
}
// * * * * * * * * * * * * * * * * * * * * * * * * * * * * * * * * * * * * * //

dimensions      [0 1 -1 0 0 0 0];

internalField   nonuniform List<vector> 
9200
(
(0.0014871017 0.0010774404 -6.0383407e-20)
(0.015164645 -0.0031377414 4.7601228e-20)
(0.040937003 -0.0075770266 -3.943659e-20)
(0.076100845 -0.012019862 -6.2234492e-20)
(0.11879965 -0.016234265 1.9361283e-20)
(0.16779311 -0.019784189 3.3824568e-20)
(0.22199777 -0.022380958 -1.2657503e-20)
(0.28041302 -0.023879842 9.5715938e-21)
(0.34210318 -0.024222827 1.7539725e-20)
(0.40616594 -0.023415472 1.5501477e-21)
(0.47170897 -0.021515607 -2.2438764e-20)
(0.53784114 -0.018622353 2.1579783e-20)
(0.60367558 -0.014865205 -4.2141475e-20)
(0.6683426 -0.010392928 -2.211233e-20)
(0.73101069 -0.0053617736 6.1787425e-21)
(0.79091307 7.4208805e-05 -2.6343062e-20)
(0.84739306 0.0057862975 2.6459655e-20)
(0.90002673 0.011818112 2.3434778e-20)
(0.94844026 0.018299521 -2.728468e-22)
(0.98996494 0.021889288 -1.6175522e-21)
(0.0058310091 -0.0017317876 -1.7397133e-20)
(0.028800639 -0.010155463 4.096214e-20)
(0.064820737 -0.016617283 2.3998553e-20)
(0.11078064 -0.02151533 -1.1902662e-19)
(0.16451844 -0.025021384 -1.3048851e-20)
(0.22453565 -0.026930987 7.5701025e-20)
(0.2894823 -0.02715593 -3.6636509e-20)
(0.358079 -0.025737946 -8.7094183e-21)
(0.42910547 -0.022789412 3.5622812e-20)
(0.50137733 -0.018474378 -4.5012439e-20)
(0.57373525 -0.013000729 -3.1690629e-20)
(0.64505222 -0.0066097868 7.5204197e-20)
(0.71425397 0.00043546126 3.9979966e-20)
(0.78034805 0.007862013 -7.1053266e-20)
(0.84245722 0.015396798 1.5285497e-20)
(0.89985183 0.022771339 -3.8399368e-20)
(0.95198974 0.029735694 -1.4503317e-20)
(0.99861477 0.03613128 7.4143932e-20)
(1.0396254 0.041548768 3.1490995e-20)
(1.0732674 0.04287714 -8.4663477e-20)
(0.011578536 -0.0044541783 3.7269126e-20)
(0.046157224 -0.016636892 2.3827943e-21)
(0.094201585 -0.024384518 2.2588011e-20)
(0.15224681 -0.028835777 1.0065073e-21)
(0.21783543 -0.03065159 -4.1548735e-20)
(0.28918575 -0.029923308 1.9259139e-20)
(0.36464668 -0.026823555 1.3683819e-20)
(0.44262792 -0.021638279 -5.200939e-20)
(0.52160502 -0.014703215 5.9359677e-20)
(0.60011548 -0.006386591 1.4990046e-20)
(0.67676951 0.0029185112 -5.6632706e-20)
(0.75027874 0.012807759 -1.9101651e-20)
(0.81949432 0.022882022 9.2439642e-21)
(0.8834467 0.032763577 2.4438469e-20)
(0.94138027 0.042109969 -1.1824098e-20)
(0.99277592 0.050622912 2.900893e-20)
(1.0373634 0.058062308 -2.1066421e-20)
(1.0751506 0.064293312 -7.2689291e-20)
(1.1063005 0.069049369 -2.4183455e-20)
(1.1299885 0.070460072 5.0039209e-20)
(0.018825103 -0.0068411639 2.4749846e-20)
(0.067350966 -0.021887783 5.1948782e-20)
(0.12906406 -0.029841248 2.0311076e-20)
(0.20022041 -0.032704668 1.3490745e-20)
(0.27808533 -0.031715088 1.7874542e-20)
(0.36057734 -0.027328939 -4.9151597e-20)
(0.44572808 -0.020043621 -2.6499247e-20)
(0.53163682 -0.010446242 0)
(0.61650416 0.00085840309 1.4971673e-20)
(0.69865718 0.013267614 -6.4136316e-21)
(0.7765865 0.026192108 -1.0164967e-19)
(0.84899458 0.039075575 -1.626056e-20)
(0.91484281 0.051416605 6.771164e-20)
(0.97338787 0.062787957 4.7938342e-22)
(1.0242003 0.072850616 -1.6304699e-21)
(1.0671608 0.081360598 2.2729922e-20)
(1.1024368 0.088175585 -5.3536558e-21)
(1.1304565 0.093283334 -6.312626e-20)
(1.1517918 0.096660814 -4.7411945e-20)
(1.166434 0.097359789 7.0863869e-20)
(0.027596674 -0.0086111109 -3.8654074e-21)
(0.092278556 -0.025158863 -4.9123952e-21)
(0.16901346 -0.031916068 5.758534e-20)
(0.25388582 -0.031862078 1.9123308e-20)
(0.34392368 -0.026892417 -3.3024036e-20)
(0.43675539 -0.017898026 1.2332491e-20)
(0.53011911 -0.0057606511 2.7257639e-21)
(0.62185978 0.00858702 3.4929174e-20)
(0.71000085 0.024247444 5.8666315e-21)
(0.79280181 0.040384628 -1.3859543e-20)
(0.86881672 0.05624112 6.2667851e-20)
(0.93694862 0.071162409 -5.9981556e-20)
(0.99648638 0.084619736 -1.3683794e-19)
(1.0471152 0.096224869 -5.7679511e-21)
(1.0888983 0.10573461 8.5812928e-20)
(1.1222306 0.11304444 0)
(1.1477727 0.1181776 1.0517896e-20)
(1.1663805 0.12128797 -1.5848242e-20)
(1.1789907 0.12255884 -8.9426236e-21)
(1.1861744 0.12160372 2.1396471e-20)
(0.037829482 -0.0094596857 -5.2297037e-21)
(0.12058572 -0.025688509 4.4189185e-21)
(0.21326585 -0.029587959 -8.9121222e-21)
(0.31192913 -0.025195826 2.8852953e-20)
(0.41344175 -0.015131638 -3.0244801e-20)
(0.51519629 -0.00077864095 -1.7409054e-20)
(0.61472025 0.01655683 3.7915605e-20)
(0.70973007 0.035582117 4.7652879e-21)
(0.79824238 0.055123048 -2.5595278e-20)
(0.87865633 0.074158055 7.2192637e-20)
(0.94981654 0.091837742 3.6057791e-22)
(1.0110502 0.10750664 -8.3174723e-20)
(1.0621683 0.12071602 0)
(1.1034279 0.13122181 4.0683823e-20)
(1.1354623 0.13896754 5.6473898e-21)
(1.1591865 0.14405497 -7.9574924e-20)
(1.1756941 0.14671019 -2.0108471e-20)
(1.1861598 0.1472612 -1.2735674e-20)
(1.1917344 0.14605082 -1.5069038e-20)
(1.1932743 0.14302659 4.1327454e-20)
(0.049356839 -0.0090806879 -1.7297648e-20)
(0.15165088 -0.022761679 -2.8272305e-21)
(0.26065704 -0.021976243 3.0582031e-20)
(0.372597 -0.011852878 3.7602155e-20)
(0.48429646 0.0042333959 -2.0316015e-20)
(0.5930248 0.024378281 -7.1074248e-20)
(0.69624916 0.046848787 -2.9004594e-20)
(0.79175137 0.070025848 8.1250765e-20)
(0.87776817 0.092528041 9.04555e-21)
(0.95307839 0.1132482 -2.5529133e-20)
(1.0170438 0.13136527 1.3927104e-20)
(1.0696018 0.1463494 -4.4691094e-21)
(1.1112082 0.15794963 0)
(1.1427395 0.16616166 2.7937752e-20)
(1.1653697 0.17118013 -8.132986e-20)
(1.1804392 0.17334236 -3.225943e-20)
(1.1893325 0.1730734 8.2894697e-20)
(1.1933798 0.17084633 -4.561209e-21)
(1.1937764 0.16710512 3.5863647e-21)
(1.1914338 0.16198307 2.7796849e-20)
(0.061903007 -0.0071938278 -3.2513203e-20)
(0.18459086 -0.015781744 -8.2803773e-20)
(0.30968717 -0.0084382899 2.0124587e-21)
(0.43379951 0.0086568772 7.1691028e-20)
(0.55388366 0.031395151 6.3786719e-20)
(0.6672598 0.057370156 -7.283687e-20)
(0.77154713 0.084475064 3.8829375e-23)
(0.86483593 0.11085706 8.8127668e-20)
(0.94583362 0.13505243 5.0156676e-20)
(1.0139279 0.15601258 -5.5787158e-20)
(1.0691769 0.17309124 -9.4844016e-20)
(1.1122349 0.18601517 -3.2414398e-21)
(1.1442273 0.19483219 4.3182284e-20)
(1.1665955 0.1998399 -6.7224243e-21)
(1.1809363 0.20150548 -1.3067056e-20)
(1.1888571 0.20038714 1.9961044e-20)
(1.1918616 0.19706767 4.4780463e-20)
(1.191274 0.19211005 -4.463198e-20)
(1.188198 0.18599683 -1.0431035e-19)
(1.1834559 0.17895134 2.5179469e-20)
(0.075053689 -0.0035753895 -3.5470649e-20)
(0.21822236 -0.0043463627 -1.7492642e-19)
(0.35849659 0.011347817 8.4107962e-20)
(0.49311485 0.036399453 9.4699673e-20)
(0.61938064 0.066053888 5.9052847e-20)
(0.73489414 0.097482567 8.8289219e-21)
(0.83768092 0.12832142 -1.086527e-19)
(0.92639734 0.15663596 0)
(1.0004512 0.1810509 -7.0697213e-20)
(1.0600115 0.20074526 -1.5630641e-20)
(1.1059264 0.21539493 5.6029602e-20)
(1.1395739 0.22509275 1.1205863e-20)
(1.1626754 0.23024808 -4.6591227e-20)
(1.1771034 0.23147637 -5.0037822e-20)
(1.1847097 0.22949387 2.4854971e-20)
(1.1871954 0.22502903 4.5804166e-20)
(1.1860276 0.21875853 -5.6716659e-20)
(1.1824041 0.2112713 -1.094665e-19)
(1.1772562 0.20303362 -3.1041128e-21)
(1.1712494 0.19430194 2.7483894e-20)
(0.088239433 0.0019265821 -3.8036179e-21)
(0.25106643 0.011738278 8.9061286e-20)
(0.40490332 0.037387386 -1.5329472e-20)
(0.54787612 0.071041571 -8.6483658e-20)
(0.67788442 0.10746445 4.6149303e-20)
(0.79306592 0.14355928 4.9821958e-20)
(0.89211049 0.17689072 5.6701663e-21)
(0.97446791 0.20564828 -1.0173802e-19)
(1.0404122 0.22874456 -2.5636318e-21)
(1.0909764 0.24575606 5.1673367e-20)
(1.1277912 0.25680338 6.1131426e-21)
(1.1528708 0.26241213 -2.0184276e-20)
(1.1683867 0.26336565 -7.7226747e-20)
(1.1764672 0.26056596 -6.3255052e-21)
(1.1790458 0.2549187 4.4306917e-20)
(1.1777674 0.2472511 3.7646022e-20)
(1.1739522 0.23826444 2.004632e-20)
(1.1686048 0.22851627 -5.4085391e-20)
(1.162457 0.2184177 1.2918865e-20)
(1.1560032 0.20822906 8.3836619e-20)
(-0.0013153648 0.0014476828 -9.450654e-22)
(-0.0047570759 0.0031904796 1.9438334e-21)
(-0.01078794 0.0041116558 1.4862089e-21)
(-0.017697657 0.0044795414 -1.5811346e-21)
(-0.024550068 0.0044645089 -2.0122417e-21)
(-0.030916308 0.0041817476 2.1448706e-21)
(-0.036524019 0.0037152435 -7.8307957e-21)
(-0.041197185 0.0031258395 -6.7668268e-21)
(-0.04483923 0.0024568853 1.2331112e-20)
(-0.047407659 0.0017389897 -1.0645685e-20)
(-0.048893947 0.00099351812 -2.0157954e-22)
(-0.049310723 0.00023513648 3.9812546e-21)
(-0.048683307 -0.00052626321 -6.6191515e-22)
(-0.047043942 -0.0012840339 2.4385956e-20)
(-0.044428173 -0.0020333931 2.8396694e-22)
(-0.04087433 -0.0027699569 -4.3434352e-20)
(-0.036425899 -0.0034891268 8.05421e-21)
(-0.031123269 -0.0041888376 2.5164578e-20)
(-0.024976293 -0.0048676071 -4.6152556e-20)
(-0.018046662 -0.0054766676 -2.9124151e-20)
(-0.001674181 0.0042156509 -5.5807176e-21)
(-0.00539514 0.0092686437 1.0128131e-20)
(-0.011194511 0.011924602 -1.0397559e-20)
(-0.017527073 0.012963818 5.0652036e-21)
(-0.023554562 0.012883787 6.0590174e-21)
(-0.028898857 0.012022606 8.4604256e-22)
(-0.033322992 0.010626908 -2.5774132e-20)
(-0.036676638 0.0088752852 -2.220668e-21)
(-0.038880592 0.0068949592 2.2128327e-20)
(-0.039903624 0.004775733 -5.4961156e-21)
(-0.039744192 0.002580246 -2.3560334e-20)
(-0.038418862 0.00035144129 5.2666406e-21)
(-0.035954697 -0.0018818009 2.4088522e-20)
(-0.032383948 -0.0041001777 1.0991821e-20)
(-0.027740272 -0.0062898993 2.3334961e-20)
(-0.022059192 -0.0084385635 -2.0944445e-20)
(-0.015387897 -0.010533296 -2.2840962e-20)
(-0.0077768202 -0.012567522 2.2466334e-20)
(0.00083703971 -0.014526622 2.8088673e-20)
(0.010643786 -0.01624303 1.6426386e-20)
(-0.0023230229 0.006604715 -4.5308531e-21)
(-0.0065064424 0.014454268 -5.111215e-21)
(-0.011784992 0.018541867 1.4006943e-22)
(-0.016932738 0.020082039 2.8992672e-22)
(-0.02129945 0.019855259 7.2623438e-21)
(-0.024604765 0.018398072 1.1472943e-20)
(-0.026680415 0.016102712 -4.1761929e-21)
(-0.027426008 0.013253328 -2.0546272e-20)
(-0.026796296 0.010052602 7.1212974e-21)
(-0.024782409 0.0066437952 1.3925929e-20)
(-0.021397153 0.0031269033 6.3921888e-21)
(-0.016665879 -0.00042955336 1.9318889e-20)
(-0.010620516 -0.003979709 1.8444768e-21)
(-0.0032952387 -0.0074933786 -3.5821063e-20)
(0.0052773215 -0.010949414 1.4348852e-21)
(0.015064556 -0.014329179 -2.3053753e-20)
(0.026010898 -0.017615218 -2.6006141e-20)
(0.038042968 -0.020798808 4.8396377e-20)
(0.051345794 -0.023826738 2.6793617e-20)
(0.066602585 -0.026335049 3.6360669e-22)
(-0.0031405317 0.0084058322 -5.5895797e-21)
(-0.007810444 0.018250094 -1.031722e-20)
(-0.012202662 0.02329465 4.4419876e-21)
(-0.01552885 0.025070554 4.5046421e-21)
(-0.017398636 0.024573147 2.0813279e-21)
(-0.017668675 0.022499188 8.2274624e-21)
(-0.016268327 0.019359619 1.0273658e-20)
(-0.013169153 0.01552481 -1.5241772e-21)
(-0.0083759194 0.01125951 -1.2425546e-20)
(-0.001914008 0.006751274 -3.1279774e-20)
(0.0061803199 0.0021311956 1.2966393e-22)
(0.01586506 -0.0025108608 4.3348772e-20)
(0.02709689 -0.0071152439 -1.9331476e-20)
(0.039832733 -0.011643149 -1.3012092e-20)
(0.054033886 -0.016068571 3.8300869e-22)
(0.069664302 -0.020370667 3.4108295e-20)
(0.086654397 -0.024534815 -1.5928205e-20)
(0.10488993 -0.028559781 -5.5825939e-20)
(0.12468481 -0.032328737 4.7613784e-20)
(0.14742759 -0.035160458 3.4476738e-20)
(-0.0039641067 0.0094757626 -5.3513408e-22)
(-0.0089231296 0.020303309 -1.3038765e-20)
(-0.011948916 0.025699127 -3.6992473e-20)
(-0.012765211 0.027371702 -6.5892873e-21)
(-0.011290381 0.026448652 -3.4498766e-21)
(-0.007547339 0.023739437 6.9187008e-21)
(-0.0015863035 0.019839826 -5.1894719e-21)
(0.0065300868 0.01518166 -9.5922151e-21)
(0.016731539 0.010074249 2.3463969e-20)
(0.028945043 0.004737096 5.3180873e-21)
(0.043099186 -0.00067593752 -2.7164064e-20)
(0.059124156 -0.0060592717 1.1648579e-20)
(0.076952208 -0.01134289 0)
(0.096518239 -0.016482545 1.2750232e-20)
(0.11776289 -0.021450955 -1.0208347e-20)
(0.14063168 -0.026230264 -1.5157228e-20)
(0.16502791 -0.030818997 -1.2029187e-21)
(0.19077431 -0.03524414 -2.4844812e-21)
(0.218274 -0.039322542 4.7544285e-20)
(0.24977185 -0.041913526 -1.1445829e-20)
(-0.0046075733 0.0097463813 -7.7171704e-21)
(-0.009390518 0.020431229 2.5908337e-20)
(-0.010415846 0.025496561 -1.141483e-20)
(-0.0079513468 0.026686501 -2.9182883e-20)
(-0.0022499545 0.025173511 -2.8823057e-20)
(0.0064801497 0.021828087 -1.5929718e-20)
(0.018050643 0.017292597 -8.3370288e-22)
(0.032291524 0.012031451 5.9457643e-21)
(0.049052211 0.0063779516 2.0805382e-20)
(0.068197806 0.00056950862 7.7953166e-21)
(0.089604198 -0.0052273675 -7.5584358e-21)
(0.11315561 -0.010898426 -1.9743618e-21)
(0.13874085 -0.016368488 -4.0289549e-20)
(0.1662507 -0.021591761 -1.3351907e-20)
(0.19557967 -0.026543557 1.9959492e-20)
(0.22662714 -0.031214362 -2.2220965e-20)
(0.25924609 -0.035626508 -9.3987527e-21)
(0.2931709 -0.039864034 3.1435876e-20)
(0.32881982 -0.043712475 5.2151332e-20)
(0.36934789 -0.045458437 3.5414851e-21)
(-0.0048768815 0.0092215349 1.7147921e-20)
(-0.0087210849 0.018624074 1.4813789e-20)
(-0.006921608 0.022668811 5.3434846e-20)
(-0.00028860084 0.023004551 2.4773368e-20)
(0.010584002 0.020763621 1.9489013e-22)
(0.02529266 0.016825198 -4.1856649e-20)
(0.043498821 0.011838542 -2.5662462e-20)
(0.064912404 0.0062710048 1.1065711e-20)
(0.089284521 0.00045735461 1.520632e-20)
(0.11639714 -0.0053641362 -1.3728247e-20)
(0.14605202 -0.011026828 -4.6505219e-20)
(0.17806177 -0.016417615 3.1252286e-20)
(0.21224235 -0.021463923 2.0920216e-20)
(0.24840734 -0.026124855 -2.8930611e-20)
(0.28636782 -0.030384429 1.2297062e-20)
(0.32593614 -0.034248285 2.528481e-20)
(0.36687906 -0.037772632 8.5110559e-21)
(0.40881546 -0.041129934 -1.2539309e-20)
(0.45208872 -0.044152814 -1.4423073e-20)
(0.50069412 -0.044534613 6.9414326e-21)
(-0.0045809229 0.0079654729 1.1473059e-20)
(-0.0064124559 0.015028654 -2.4675196e-20)
(-0.00074568079 0.017428581 8.5303333e-21)
(0.011089912 0.016604486 3.5269562e-20)
(0.028166092 0.01356951 5.435975e-20)
(0.049880626 0.0091618943 2.1278364e-20)
(0.075735252 0.0039996824 -6.1402141e-21)
(0.10530131 -0.0014787584 -1.2899297e-20)
(0.13821083 -0.0069613564 -6.5602309e-21)
(0.17413685 -0.012228197 3.6015382e-20)
(0.21277496 -0.017128613 -4.8643896e-21)
(0.25382919 -0.021564324 -1.7575616e-20)
(0.29700106 -0.025477561 -2.0579194e-20)
(0.34198159 -0.028843645 -4.9780644e-20)
(0.38845031 -0.031666309 2.4260338e-20)
(0.43608309 -0.033977621 -1.4717495e-20)
(0.48451945 -0.035881005 2.7236224e-20)
(0.53324733 -0.037672918 2.2022388e-20)
(0.58246589 -0.039357054 -8.8049946e-20)
(0.63681808 -0.038195272 1.6526264e-22)
(-0.0035385594 0.0060891813 2.2495391e-20)
(-0.0019769176 0.0099263574 -2.7314099e-20)
(0.0088255582 0.010202655 -4.6567639e-20)
(0.027051814 0.0080477045 -2.8361967e-20)
(0.051454008 0.0042841907 -2.1354369e-21)
(0.081226409 -0.00033802872 1.3700253e-20)
(0.11569737 -0.0052707091 -2.9733729e-21)
(0.15428038 -0.01013586 1.8941718e-20)
(0.19645977 -0.014671099 9.2626412e-21)
(0.24176356 -0.018698123 -1.1916114e-20)
(0.2897388 -0.022103009 9.4050652e-21)
(0.33993361 -0.024821422 -2.5062347e-20)
(0.3918843 -0.026828025 8.6299672e-21)
(0.44510685 -0.028129894 1.7574052e-20)
(0.49909576 -0.028762579 -2.8854133e-21)
(0.553334 -0.028792082 1.8226752e-21)
(0.60727694 -0.028369624 -4.9056416e-22)
(0.66025785 -0.027899615 2.0573154e-20)
(0.71229571 -0.027581825 4.0072081e-21)
(0.7684442 -0.024757781 -1.6163181e-21)
(-0.0015794182 0.0037392544 2.4461404e-20)
(0.0050388669 0.0037191273 5.9392947e-20)
(0.022445383 0.0016300986 -5.0757329e-20)
(0.0483698 -0.0018020959 -1.0324948e-20)
(0.081257697 -0.0060172627 2.1083866e-20)
(0.1200954 -0.010400603 2.2273191e-21)
(0.16402168 -0.014513409 -3.1013779e-20)
(0.21226466 -0.018074411 7.2842228e-21)
(0.26412399 -0.02090385 7.4046791e-21)
(0.31893895 -0.022895857 -2.7419148e-20)
(0.37606098 -0.024002842 1.3480708e-21)
(0.43483631 -0.024222811 -3.8929263e-20)
(0.49459639 -0.023589019 -3.8072902e-20)
(0.55465442 -0.022161684 6.8829794e-20)
(0.61430794 -0.020020707 5.8257502e-21)
(0.67284554 -0.017264824 -1.5880834e-20)
(0.72953164 -0.014052624 2.0207349e-20)
(0.78353248 -0.010689094 -9.5122339e-22)
(0.83438533 -0.0071970185 2.0769915e-20)
(0.88579674 -0.0020450319 -2.0771593e-20)
(-0.0098030808 -0.0057592861 6.1220678e-20)
(-0.00012425134 -0.0062840784 1.6324521e-20)
(0.010968583 -0.0067056206 -3.6369016e-20)
(0.02312082 -0.0069542392 1.7497447e-20)
(0.036057943 -0.0071130046 0)
(0.049715914 -0.0072105371 0)
(0.064031913 -0.007249738 -2.3565884e-20)
(0.078922695 -0.0072385809 -1.6837864e-20)
(0.094313986 -0.0071867647 1.9590725e-20)
(0.11014281 -0.0071013653 1.8519012e-20)
(0.12635113 -0.0069877882 1.043955e-21)
(0.14288427 -0.0068507879 -1.0387177e-20)
(0.15969127 -0.0066945052 8.4971045e-21)
(0.17672451 -0.0065224494 1.8250218e-20)
(0.19393912 -0.0063376241 -5.3516401e-21)
(0.21129261 -0.0061426362 -1.010904e-20)
(0.22874463 -0.005939761 -4.2750229e-21)
(0.24625683 -0.0057309947 -4.3185874e-21)
(0.26379275 -0.0055181002 7.0770125e-22)
(0.28131771 -0.0053026436 1.2167314e-21)
(0.29879882 -0.0050860215 2.5753607e-21)
(0.316205 -0.0048694822 6.5317482e-21)
(0.33350696 -0.0046541412 1.7334479e-22)
(0.35067728 -0.0044409932 -3.3771467e-21)
(0.36769046 -0.0042309212 1.3676788e-22)
(0.38452292 -0.0040247034 -5.6118181e-22)
(0.40115305 -0.0038230185 1.2053588e-21)
(0.41756125 -0.0036264514 9.9316982e-22)
(0.43372992 -0.0034354972 -1.2933227e-21)
(0.44964345 -0.0032505666 -1.0641714e-22)
(0.46528822 -0.0030719906 -2.0524325e-23)
(0.48065254 -0.0029000258 -3.3561233e-22)
(0.49572663 -0.0027348603 -4.0890424e-22)
(0.51050255 -0.0025766196 8.0632911e-23)
(0.52497414 -0.0024253733 -1.3033241e-22)
(0.53913696 -0.0022811415 -2.045279e-22)
(0.55298826 -0.0021439021 2.3312232e-22)
(0.56652691 -0.0020135981 2.6556961e-22)
(0.57975331 -0.0018901471 -2.5804119e-23)
(0.59266977 -0.001773445 -1.6112476e-22)
(0.60527931 -0.0016633954 1.9988113e-23)
(0.61758977 -0.0015598648 -2.9159934e-23)
(0.62960199 -0.0014628967 8.3190895e-23)
(0.64134719 -0.0013721297 -5.499377e-24)
(0.65277742 -0.0012888284 -1.2848984e-22)
(0.66409567 -0.0012097984 2.3927248e-24)
(0.67479773 -0.0011471478 4.5018019e-24)
(0.68647375 -0.0010684779 -4.8014529e-24)
(0.69478016 -0.0010825548 2.6876327e-23)
(0.71198299 -0.00091071597 3.6859882e-22)
(0.020118498 -0.016955116 -1.362132e-20)
(0.028853085 -0.018547543 -6.5855052e-20)
(0.039479954 -0.019786037 -3.1996664e-20)
(0.051134557 -0.020494794 3.9963651e-20)
(0.063428217 -0.020950879 1.518579e-20)
(0.076376697 -0.021237329 -1.8963749e-20)
(0.089948978 -0.021354877 5.0375434e-21)
(0.10406477 -0.021325485 2.6001314e-20)
(0.11865723 -0.021178035 -1.0095862e-22)
(0.13367288 -0.020932839 -7.8788495e-21)
(0.14906076 -0.020605136 -1.2940512e-20)
(0.16477149 -0.020208541 -8.7678352e-21)
(0.18075863 -0.019755009 1.7879813e-20)
(0.19697835 -0.019254678 9.3939974e-21)
(0.21338884 -0.018716248 -1.6310679e-20)
(0.22995008 -0.018147306 -6.0167175e-21)
(0.24662378 -0.017554503 3.1381712e-21)
(0.26337323 -0.016943696 8.2013205e-21)
(0.28016329 -0.016320078 6.9457774e-21)
(0.29696038 -0.015688279 -7.0393657e-21)
(0.31373247 -0.015052443 -3.3128176e-21)
(0.33044917 -0.014416283 1.5043806e-21)
(0.34708173 -0.013783128 5.7739935e-22)
(0.36360315 -0.013155952 1.2337638e-21)
(0.3799882 -0.012537403 2.2147153e-22)
(0.39621349 -0.011929819 -3.587874e-22)
(0.41225754 -0.011335243 -7.4051139e-22)
(0.42810075 -0.01075544 1.039262e-21)
(0.44372546 -0.01019191 8.55632e-22)
(0.45911593 -0.0096459004 -2.3505322e-22)
(0.47425835 -0.0091184205 5.8255304e-22)
(0.48914077 -0.0086102591 -2.2791661e-22)
(0.50375312 -0.0081219996 -3.9949928e-22)
(0.51808708 -0.0076540389 -6.1768031e-22)
(0.53213612 -0.0072066059 4.1719053e-22)
(0.54589536 -0.0067797821 -8.262368e-23)
(0.55936157 -0.0063735226 2.0297603e-22)
(0.57253313 -0.0059876771 -4.5863788e-22)
(0.58540994 -0.0056220194 4.2496635e-22)
(0.59799375 -0.0052762581 6.2351717e-23)
(0.61028707 -0.0049501239 -7.135687e-23)
(0.62229712 -0.0046432358 2.0308561e-22)
(0.63402427 -0.0043557419 2.7174513e-22)
(0.64549891 -0.0040865775 2.0382877e-22)
(0.65667321 -0.0038395378 2.1381729e-22)
(0.66774726 -0.003605099 -2.0034335e-23)
(0.67822303 -0.0034193867 1.0883855e-22)
(0.68966818 -0.0031858612 9.6448321e-23)
(0.69780247 -0.0032282065 -2.0148078e-22)
(0.71469791 -0.0027180682 -1.7606605e-23)
(0.078333559 -0.02713494 1.0046403e-20)
(0.085194052 -0.029804434 3.6991642e-21)
(0.094784899 -0.031804398 -1.3328578e-20)
(0.10540868 -0.032893398 -1.5247051e-21)
(0.1163941 -0.033606895 1.5759634e-20)
(0.12791292 -0.034077439 -1.5388878e-20)
(0.14000436 -0.034284343 -3.0979039e-20)
(0.1525901 -0.034257755 1.5109971e-20)
(0.16561445 -0.034045023 1.8827375e-20)
(0.17904155 -0.03367759 -1.1960188e-20)
(0.19283327 -0.033178033 1.0372867e-21)
(0.2069494 -0.032567093 8.4940311e-21)
(0.22135129 -0.031863337 -1.5612794e-20)
(0.23600165 -0.031082578 3.5312734e-21)
(0.25086392 -0.030238448 7.7195218e-21)
(0.26590232 -0.029342936 -3.6182632e-22)
(0.28108193 -0.028406647 2.3139121e-23)
(0.29636881 -0.027438997 -7.5724356e-21)
(0.31173001 -0.026448393 4.2662213e-21)
(0.32713369 -0.025442384 8.6072351e-21)
(0.34254924 -0.024427764 -3.8782919e-21)
(0.35794734 -0.023410659 -2.1831233e-21)
(0.37330008 -0.022396586 9.2111533e-22)
(0.38858106 -0.021390497 -1.7575801e-21)
(0.40376548 -0.020396816 1.3220679e-21)
(0.4188302 -0.019419466 7.0021253e-22)
(0.43375382 -0.018461892 1.7211169e-21)
(0.4485167 -0.017527081 -2.1091511e-21)
(0.463101 -0.016617582 2.3951507e-21)
(0.4774907 -0.01573553 5.7965689e-22)
(0.49167157 -0.014882669 5.5354622e-22)
(0.50563116 -0.014060373 3.0701534e-22)
(0.5193588 -0.013269681 9.7557167e-22)
(0.5328455 -0.012511318 -1.5044356e-21)
(0.54608397 -0.011785733 4.1555569e-22)
(0.5590685 -0.011093128 1.8870491e-22)
(0.57179501 -0.010433495 -6.958015e-23)
(0.58426096 -0.0098066509 3.5776896e-23)
(0.59646526 -0.0092122831 -3.9266195e-22)
(0.60840869 -0.0086499701 2.118453e-22)
(0.62009273 -0.0081193258 -3.1274479e-23)
(0.63152354 -0.0076197753 4.9889323e-22)
(0.64270054 -0.0071516199 -2.3260947e-22)
(0.65365264 -0.0067131469 4.0297298e-23)
(0.66433217 -0.006310677 6.5708368e-23)
(0.67493381 -0.0059285424 -8.7765251e-23)
(0.68497126 -0.0056262597 -1.4667895e-22)
(0.69596911 -0.0052452065 4.7741605e-22)
(0.70376936 -0.0053159393 1.7897461e-22)
(0.72006875 -0.0044836438 -8.4618344e-22)
(0.16206311 -0.035575764 1.7302008e-21)
(0.1661399 -0.039305294 -1.1743387e-20)
(0.17397945 -0.04198518 6.6074899e-21)
(0.18297174 -0.043361049 -1.3868207e-20)
(0.19196075 -0.044295136 -2.0512577e-21)
(0.20132132 -0.044959644 9.7496993e-21)
(0.21121103 -0.045289357 -1.0595519e-20)
(0.22155017 -0.045313245 1.2446975e-21)
(0.23229107 -0.045094638 1.3240946e-20)
(0.24342071 -0.044673507 3.7092146e-21)
(0.25491766 -0.044076575 -6.3307053e-21)
(0.26675253 -0.043329081 -3.1221078e-21)
(0.27889565 -0.042454407 -5.6229325e-21)
(0.2913174 -0.041472742 -6.6950735e-21)
(0.30398734 -0.040401646 2.9070633e-21)
(0.3168744 -0.03925675 4.4013383e-22)
(0.32994748 -0.038052072 1.5152547e-21)
(0.34317559 -0.036800216 -3.3828833e-21)
(0.35652816 -0.035512558 -4.488105e-21)
(0.36997517 -0.034199413 2.4768449e-21)
(0.38348739 -0.032870145 3.4347182e-21)
(0.39703657 -0.031533263 -1.7625543e-21)
(0.41059556 -0.030196477 1.6577656e-21)
(0.42413848 -0.028866753 -4.7823573e-22)
(0.43764082 -0.027550346 -4.1974133e-21)
(0.45107954 -0.026252832 -3.0529392e-21)
(0.46443318 -0.024979133 -2.6543024e-22)
(0.47768186 -0.02373354 3.4373148e-22)
(0.49080736 -0.022519742 -2.2068564e-21)
(0.50379315 -0.021340854 -1.0102333e-21)
(0.51662436 -0.020199443 2.1924209e-22)
(0.52928779 -0.019097569 -1.3559104e-21)
(0.54177188 -0.018036817 -4.4393615e-23)
(0.5540667 -0.017018338 -4.8690158e-22)
(0.56616389 -0.016042897 -4.4804137e-22)
(0.57805664 -0.015110911 -6.443943e-22)
(0.58973964 -0.014222502 -9.9849147e-22)
(0.60120911 -0.013377545 -2.3635009e-23)
(0.61246267 -0.012575734 -3.6103089e-24)
(0.62349974 -0.011816605 -5.9049905e-22)
(0.63432045 -0.011099739 -3.7328776e-23)
(0.64492949 -0.010424451 -3.9839722e-22)
(0.65532503 -0.0097912663 -5.7169317e-22)
(0.66553393 -0.0091979154 4.6247421e-22)
(0.67550887 -0.0086532152 1.3997754e-23)
(0.68543681 -0.0081356918 2.2718164e-22)
(0.69484841 -0.0077271225 -1.6629116e-22)
(0.70520633 -0.0072104263 -3.2498444e-22)
(0.71252877 -0.0073094099 -2.378279e-23)
(0.72797248 -0.006181243 4.7927164e-22)
(0.2674215 -0.041490853 -2.2391955e-20)
(0.26780713 -0.046253045 4.9316817e-20)
(0.27302346 -0.049519572 1.0629191e-20)
(0.27968378 -0.051114421 -1.6439685e-20)
(0.28597355 -0.052268158 -2.3701435e-21)
(0.2924575 -0.053170067 2.4377632e-21)
(0.29945937 -0.053693609 -1.9820231e-21)
(0.30689938 -0.053856136 -4.8219915e-21)
(0.3147265 -0.053729983 -4.126844e-21)
(0.32294934 -0.053360415 -1.2514434e-20)
(0.33156473 -0.052775892 1.8647526e-20)
(0.34055334 -0.052003462 6.8853685e-21)
(0.34989304 -0.051069165 -1.7049732e-20)
(0.35956084 -0.049996197 1.0054603e-20)
(0.36953152 -0.048805111 8.0681383e-21)
(0.37977797 -0.047514493 -5.0587595e-22)
(0.39027203 -0.046141303 -2.8844834e-21)
(0.40098498 -0.044701049 -4.1606118e-21)
(0.41188792 -0.043207931 -1.5454408e-21)
(0.42295202 -0.041674973 -1.3665314e-21)
(0.43414892 -0.040114126 -3.2833087e-21)
(0.44545088 -0.038536342 0)
(0.45683106 -0.036951622 -1.4575667e-21)
(0.46826363 -0.035369058 3.9745962e-21)
(0.479724 -0.033796867 5.6214042e-21)
(0.49118887 -0.032242414 -9.1671348e-22)
(0.50263633 -0.030712236 -3.2029034e-21)
(0.51404597 -0.029212073 3.3552956e-21)
(0.52539889 -0.027746894 9.4572876e-23)
(0.53667777 -0.026320929 3.6935538e-21)
(0.54786681 -0.024937712 -5.1414327e-22)
(0.5589518 -0.023600117 1.7810519e-21)
(0.56992008 -0.02231041 -8.8109013e-22)
(0.58076052 -0.021070299 3.8317534e-22)
(0.59146347 -0.019880987 -5.1307284e-22)
(0.60202077 -0.01874323 5.7917665e-22)
(0.6124257 -0.017657403 5.1760594e-22)
(0.62267301 -0.016623554 4.3461315e-22)
(0.63275879 -0.015641497 -1.0755158e-21)
(0.6426809 -0.014710834 7.6872206e-22)
(0.65243791 -0.013831222 -4.0679606e-22)
(0.66203283 -0.013001966 -1.2989712e-21)
(0.67146238 -0.012223899 1.6580181e-21)
(0.680751 -0.011494311 -5.6850279e-23)
(0.68985195 -0.010824461 -1.8808774e-22)
(0.6989426 -0.010187528 -7.2503256e-24)
(0.70757518 -0.0096859849 -1.776428e-22)
(0.71713406 -0.009049246 -5.6042193e-22)
(0.72386062 -0.0091760586 8.0958704e-22)
(0.73823009 -0.007786722 -4.8596938e-23)
(0.38949222 -0.043932161 -1.8774781e-20)
(0.38532015 -0.049754713 1.3134777e-20)
(0.38694015 -0.053556867 3.6035301e-21)
(0.39048219 -0.055393496 -7.9866049e-21)
(0.39339878 -0.056846362 1.2542551e-20)
(0.39635098 -0.058083795 8.0919311e-21)
(0.39985424 -0.058922335 -1.2823834e-20)
(0.40384561 -0.059364365 -6.2629096e-21)
(0.4082551 -0.059478361 1.3067053e-20)
(0.41310089 -0.059308694 -1.6197003e-20)
(0.41839551 -0.058884361 -1.4380104e-20)
(0.42412761 -0.058232764 1.4959301e-20)
(0.43027899 -0.057380782 6.9608759e-21)
(0.43683007 -0.056353454 -4.9202774e-21)
(0.44375847 -0.055173761 -1.4897236e-21)
(0.45103901 -0.053862931 -3.7295998e-21)
(0.45864472 -0.052440708 4.9581184e-21)
(0.46654763 -0.050925485 3.6823296e-21)
(0.47471917 -0.049334377 -3.1594786e-21)
(0.48313061 -0.04768328 3.1278239e-21)
(0.49175342 -0.04598693 2.9053387e-21)
(0.50055952 -0.044258948 -3.3327046e-21)
(0.50952158 -0.042511863 3.6810472e-22)
(0.51861317 -0.040757135 -3.2077078e-21)
(0.52780898 -0.039005179 7.9072179e-21)
(0.53708488 -0.037265379 6.4125747e-21)
(0.5464181 -0.035546113 9.8065058e-22)
(0.55578724 -0.033854778 -1.8203805e-21)
(0.56517234 -0.032197826 4.1196751e-21)
(0.57455494 -0.030580797 7.8313285e-21)
(0.58391806 -0.029008369 2.3744431e-21)
(0.59324623 -0.027484408 3.6048005e-21)
(0.60252544 -0.026012025 2.1031997e-21)
(0.61174318 -0.02459364 8.2540552e-22)
(0.62088836 -0.023231047 -2.5082584e-22)
(0.62995132 -0.021925486 2.9913963e-21)
(0.6389238 -0.020677718 6.7554076e-22)
(0.64779898 -0.019488101 3.1262029e-22)
(0.65657134 -0.018356692 5.6814629e-23)
(0.6652371 -0.017283283 1.150587e-21)
(0.67379317 -0.016267717 4.3683681e-23)
(0.68224082 -0.015309403 5.3887773e-22)
(0.69057529 -0.014409571 -1.2649355e-22)
(0.6988184 -0.013565196 -3.6440662e-22)
(0.70692429 -0.012789897 -1.8606437e-22)
(0.71505926 -0.012052052 -5.1132759e-22)
(0.72280107 -0.011472928 2.1486569e-22)
(0.73144237 -0.010734379 -1.5154581e-22)
(0.73748634 -0.010888332 -4.6254622e-22)
(0.75061288 -0.0092786298 2.7155437e-22)
(0.52221099 -0.0419763 3.5019652e-21)
(0.51283003 -0.048896387 -1.9235128e-20)
(0.50991116 -0.053238533 -2.5067217e-21)
(0.50955537 -0.055501677 5.6415553e-21)
(0.50856482 -0.057474505 3.436797e-21)
(0.50750592 -0.059233838 4.139852e-22)
(0.50705519 -0.060570351 6.9012887e-21)
(0.5072095 -0.061487331 8.005085e-21)
(0.50787696 -0.0620391 1.0038464e-20)
(0.50906263 -0.06226033 -1.1688785e-20)
(0.51078439 -0.062178933 -2.255187e-20)
(0.51303589 -0.061822776 -4.348005e-21)
(0.51579916 -0.061219134 1.6565676e-20)
(0.51905377 -0.060394491 1.3237764e-20)
(0.52277684 -0.059374291 -5.7917765e-21)
(0.52694268 -0.058182695 1.038277e-21)
(0.53152348 -0.056842586 -4.0411249e-21)
(0.53649023 -0.055375638 2.8565622e-21)
(0.54181324 -0.053802297 -2.9281287e-22)
(0.54746262 -0.05214176 -1.9401273e-21)
(0.55340857 -0.050411971 8.3128258e-21)
(0.55962174 -0.048629625 -4.3547686e-22)
(0.56607346 -0.046810166 5.505189e-22)
(0.57273597 -0.044967787 -5.1600995e-22)
(0.57958258 -0.043115441 -4.4543483e-21)
(0.58658778 -0.041264848 4.3499663e-21)
(0.59372739 -0.03942652 1.8607007e-21)
(0.6009786 -0.037609786 -3.4065717e-21)