/*--------------------------------*- C++ -*----------------------------------*\
  =========                 |
  \\      /  F ield         | OpenFOAM: The Open Source CFD Toolbox
   \\    /   O peration     | Website:  https://openfoam.org
    \\  /    A nd           | Version:  6
     \\/     M anipulation  |
\*---------------------------------------------------------------------------*/
FoamFile
{
    version     2.0;
    format      ascii;
    class       volSymmTensorField;
    location    "262";
    object      UPrime2Mean;
}
// * * * * * * * * * * * * * * * * * * * * * * * * * * * * * * * * * * * * * //

dimensions      [0 2 -2 0 0 0 0];

internalField   nonuniform List<symmTensor> 
9200
(
(7.5737903e-05 -5.8788711e-05 2.7424166e-22 4.7177813e-05 -1.4658495e-22 4.4401995e-39)
(0.00046736024 -0.00037412107 7.0437619e-22 0.00030063573 -5.2561634e-22 4.8306317e-39)
(0.00094593323 -0.00073332504 8.4769749e-23 0.00057185311 -6.4237769e-23 2.6483565e-39)
(0.0014928644 -0.0010805936 -1.0632265e-21 0.00079106499 7.4709146e-22 5.2804641e-39)
(0.0020334337 -0.0013898382 5.1499352e-23 0.00096658701 -4.2404392e-23 7.7412628e-40)
(0.0025303015 -0.0016471312 4.4930491e-22 0.001098173 -2.9769599e-22 1.2222503e-40)
(0.0029574488 -0.0018474853 -9.7877072e-23 0.0011902831 6.7366421e-23 3.5079504e-40)
(0.0032937363 -0.0019910698 8.892373e-23 0.0012504469 -5.9516517e-23 2.3626064e-40)
(0.0035243387 -0.0020805478 4.3630098e-22 0.0012859129 -2.6419661e-22 6.7416921e-40)
(0.0036413177 -0.0021198968 3.3993053e-23 0.0013028513 -2.0688837e-23 1.9240507e-42)
(0.0036437163 -0.0021138589 -4.7222924e-22 0.0013063617 2.8932147e-22 3.6228839e-40)
(0.0035375377 -0.0020675983 3.9624541e-22 0.0013005325 -2.5169161e-22 5.0024157e-41)
(0.0033353046 -0.0019864847 -7.0739987e-22 0.0012885323 4.7464719e-22 7.7603613e-40)
(0.0030550316 -0.0018759606 -3.5979237e-22 0.0012727384 2.4612408e-22 5.0098867e-41)
(0.0027186346 -0.0017414573 9.3512964e-23 0.0012548775 -6.8935356e-23 6.3668691e-42)
(0.0023499215 -0.0015883192 -3.5351425e-22 0.001236162 2.7489601e-22 6.7283697e-41)
(0.0019723217 -0.0014217356 3.1152026e-22 0.0012174828 -2.6241787e-22 8.1451258e-41)
(0.0016066045 -0.0012467655 2.3299115e-22 0.0012000486 -2.0542407e-22 3.2939033e-40)
(0.0012704599 -0.0010681042 -7.6245029e-24 0.0011854526 1.656122e-23 6.0555819e-41)
(0.00098346014 -0.00088900409 -4.0940465e-24 0.0011619045 1.4580381e-23 7.5061706e-41)
(9.9974977e-05 -6.6829029e-05 2.8569014e-23 4.5874882e-05 -1.0933185e-23 7.8127274e-41)
(0.00059631353 -0.00041329278 7.4599571e-22 0.00028732933 -4.8525154e-22 5.1524523e-39)
(0.0011868362 -0.00079817027 -2.4118156e-22 0.0005398631 1.6180596e-22 2.7985634e-39)
(0.0018214111 -0.0011547164 -1.9089785e-21 0.00074033217 1.1924768e-21 1.2219604e-38)
(0.0024131921 -0.0014586092 -6.665422e-23 0.00089746669 4.2159472e-23 1.5415976e-40)
(0.0029187836 -0.0016975561 1.4797412e-21 0.0010125729 -8.7206825e-22 4.0442863e-39)
(0.0033111697 -0.0018693713 -6.0962329e-22 0.0010914677 3.5554927e-22 1.3904828e-40)
(0.0035728658 -0.0019774339 -1.8428093e-22 0.0011423301 1.0655298e-22 4.9726075e-41)
(0.003696401 -0.0020274296 7.0179449e-22 0.0011726251 -4.082402e-22 3.8029365e-40)
(0.0036840972 -0.0020259833 -8.5335477e-22 0.0011884503 5.0459282e-22 4.3708618e-40)
(0.0035472716 -0.001980033 -6.0720547e-22 0.0011945865 3.6805744e-22 5.390499e-40)
(0.0033050113 -0.0018964683 1.3160931e-21 0.0011945952 -8.2982049e-22 2.7421763e-39)
(0.0029822918 -0.0017819468 6.1495273e-22 0.0011909478 -4.1275418e-22 1.9302552e-40)
(0.0026074793 -0.0016428314 -9.7303477e-22 0.0011851804 6.9739954e-22 9.5150145e-40)
(0.0022095005 -0.0014851868 1.755115e-22 0.001178045 -1.3562563e-22 7.9139547e-41)
(0.0018150753 -0.0013147876 -3.9133001e-22 0.0011696419 3.3892122e-22 2.1166536e-40)
(0.0014463649 -0.0011371171 -1.6204585e-22 0.001159571 1.6541593e-22 6.6464476e-41)
(0.0011193013 -0.00095725766 5.0132279e-22 0.0011471344 -5.5673148e-22 1.0752936e-39)
(0.00084361617 -0.0007793146 2.3882739e-22 0.0011302408 -3.1599597e-22 2.0501065e-40)
(0.0006260055 -0.00060735639 -1.0375097e-22 0.0010982124 1.2843201e-22 1.5343987e-39)
(0.00012735882 -7.2549476e-05 -2.4029017e-22 4.2253967e-05 1.0228259e-22 2.007757e-39)
(0.00073394132 -0.00043618061 -4.0090389e-22 0.00025990828 2.2271802e-22 2.0929474e-39)
(0.0014346188 -0.00082961086 -4.5672489e-22 0.00048254203 2.6611064e-22 5.2315221e-39)
(0.0021433931 -0.0011794638 1.5292711e-23 0.00065668131 -8.4017511e-24 5.6801046e-43)
(0.0027631887 -0.0014645463 1.6446574e-23 0.00079120387 -7.8192052e-24 3.7589511e-39)
(0.0032477211 -0.0016755602 5.1846007e-22 0.00088891445 -2.762048e-22 1.051271e-39)
(0.0035735944 -0.0018138834 5.0700499e-23 0.00095647541 -2.5262552e-23 4.3516057e-40)
(0.003732319 -0.0018862387 -8.8418579e-22 0.0010020056 4.7407771e-22 2.7827726e-40)
(0.0037290438 -0.001901024 1.0492757e-21 0.0010324677 -5.7660654e-22 5.2564759e-40)
(0.0035807428 -0.0018668785 3.4625786e-22 0.0010532071 -1.9963862e-22 5.7589504e-40)
(0.0033137165 -0.0017921096 -9.5604447e-22 0.0010680717 5.7561566e-22 1.1913982e-39)
(0.0029605177 -0.0016844602 -3.0102754e-22 0.0010795693 1.9413554e-22 3.8895726e-40)
(0.0025563569 -0.0015511011 1.0852503e-22 0.0010890558 -7.5284366e-23 1.0528059e-39)
(0.0021353714 -0.0013987398 2.6240921e-22 0.0010969448 -2.0226788e-22 1.5181187e-40)
(0.0017273106 -0.0012337437 -9.2428929e-23 0.0011029194 7.9538089e-23 1.1591973e-40)
(0.0013551326 -0.0010622039 2.1536017e-22 0.0011061441 -2.1398013e-22 9.2223828e-41)
(0.0010338109 -0.00088991234 -1.4874787e-22 0.0011054738 1.7399919e-22 3.5510856e-41)
(0.00077037038 -0.00072220876 -3.0519965e-22 0.0010995834 4.1920598e-22 8.6096704e-40)
(0.00056509152 -0.00056359572 -1.0965854e-23 0.0010867288 1.1675399e-23 7.7243126e-40)
(0.00041402238 -0.00041825479 1.0652212e-22 0.0010632172 -2.2835493e-22 8.8887122e-41)
(0.00015697298 -7.5105781e-05 -1.9089767e-22 3.6637215e-05 7.0342757e-23 9.971682e-40)
(0.00087319684 -0.00043895997 2.93395e-22 0.0002212081 -1.4391837e-22 1.8633308e-40)
(0.0016744012 -0.00082224564 2.6025446e-22 0.00040629047 -1.2831542e-22 2.154521e-40)
(0.0024369047 -0.0011502564 5.6759097e-22 0.00054995084 -2.7092394e-22 2.3233902e-39)
(0.0030569132 -0.0014060931 4.9998699e-22 0.00066080395 -2.3740982e-22 1.0336277e-39)
(0.0034901674 -0.0015843686 -8.8090223e-22 0.00074272173 4.1839591e-22 7.8984525e-40)
(0.0037227268 -0.001690029 -4.9363086e-22 0.00080242868 2.3860774e-22 2.2486703e-40)
(0.0037607283 -0.0017324166 0 0.00084716206 0 0)
(0.0036263482 -0.0017215313 5.409661e-22 0.00088265518 -2.934272e-22 2.895936e-39)
(0.0033535154 -0.0016667796 -2.3564346e-22 0.00091289232 1.3867878e-22 1.0970193e-39)
(0.0029831101 -0.0015766687 -1.3857583e-21 0.00094030289 8.2527913e-22 9.7542529e-40)
(0.0025579493 -0.0014588727 -1.7772773e-22 0.00096598296 1.1181815e-22 1.960894e-40)
(0.0021180142 -0.0013204769 6.8691892e-22 0.00098994622 -5.101316e-22 1.3218295e-39)
(0.0016965728 -0.0011682237 3.8197778e-23 0.0010114021 -2.4995766e-23 5.4568472e-40)
(0.0013177507 -0.0010086314 -1.0683435e-23 0.0010290486 1.0428846e-23 3.8450658e-43)
(0.00099578425 -0.00084793462 1.1524612e-22 0.0010413724 -1.3285426e-22 6.7682087e-41)
(0.00073581881 -0.00069187392 3.9136678e-25 0.0010469171 2.6433977e-24 7.9008618e-41)
(0.00053581063 -0.00054540616 -2.0568241e-22 0.0010444117 3.4479141e-22 2.0757356e-40)
(0.0003888585 -0.00041239931 -1.1478832e-22 0.0010332448 2.4007124e-22 1.4431677e-40)
(0.00028569116 -0.00029569984 5.8605428e-23 0.001014861 -1.7660462e-22 8.9999907e-40)
(0.00018746575 -7.3775929e-05 1.4433741e-22 2.9551127e-05 -4.5989503e-23 3.9227846e-40)
(0.001005316 -0.00041913964 6.0149796e-22 0.00017518123 -2.3991523e-22 3.5343534e-39)
(0.0018893347 -0.00077376794 4.7545054e-22 0.00031912349 -1.958542e-22 2.2409288e-40)
(0.0026794949 -0.0010672867 5.2868376e-22 0.00043149189 -2.1595609e-22 1.2433022e-39)
(0.0032705089 -0.0012877827 -8.148888e-22 0.00052013642 3.3657928e-22 1.9592402e-39)
(0.0036263701 -0.0014338542 3.1669932e-23 0.00058929927 -1.019548e-23 1.8638704e-40)
(0.0037486519 -0.001512998 4.6838618e-23 0.00064490775 -2.0380774e-23 1.5707911e-42)
(0.0036626488 -0.0015355537 6.677581e-22 0.00069259425 -3.1052645e-22 7.0081545e-40)
(0.0034096129 -0.0015114061 9.0388922e-23 0.00073631662 -4.4617811e-23 6.3251087e-42)
(0.0030394688 -0.0014492464 -2.433584e-22 0.00077830445 1.3762835e-22 3.789945e-40)
(0.0026038023 -0.0013567358 7.9340147e-22 0.00081930688 -4.9127622e-22 2.6439019e-39)
(0.002149714 -0.0012409229 -5.7873918e-22 0.00085886873 3.8076698e-22 2.2890952e-40)
(0.0017152264 -0.0011086364 -1.0936136e-21 0.00089565213 8.5244324e-22 1.6235123e-39)
(0.001326784 -0.00096665931 -3.6297855e-23 0.00092780052 3.3327637e-23 3.4320882e-42)
(0.00099895649 -0.0008216181 3.9231169e-22 0.00095331939 -4.3783906e-22 1.3128935e-39)
(0.00073596821 -0.00067964993 0 0.00097044124 0 0)
(0.00053436047 -0.00054598122 4.9398318e-23 0.00097789252 -7.1151194e-23 3.4150658e-41)
(0.00038600616 -0.0004245823 -2.4992318e-23 0.00097495052 5.4588625e-23 5.0790256e-41)
(0.00028070004 -0.00031801675 -2.5270386e-23 0.00096210802 5.518596e-23 1.3369148e-41)
(0.00020808556 -0.00022741735 1.2191018e-23 0.00094340075 -5.1610457e-23 9.1305364e-41)
(0.00021718629 -6.8125948e-05 3.1569873e-22 2.1733523e-05 -8.1340618e-23 1.5863901e-39)
(0.0011210218 -0.00037635291 3.1102688e-23 0.00012669947 -1.0209931e-23 2.936574e-42)
(0.0020632898 -0.0006861003 -8.9322621e-23 0.00023010168 3.0164336e-23 1.3003158e-41)
(0.0028522329 -0.0009365182 9.2539432e-23 0.00031323512 -2.9777712e-23 2.5690453e-40)
(0.0033876514 -0.0011205666 -5.6166351e-22 0.00038269157 1.9693504e-22 4.8205347e-40)
(0.0036483517 -0.0012397724 -2.7063564e-22 0.00044233572 9.8477567e-23 4.3603175e-41)
(0.003656301 -0.0013021475 1.9270444e-22 0.00049662569 -5.9096223e-23 1.3728185e-39)
(0.0034579713 -0.0013168042 -6.9885522e-24 0.0005491773 7.9121058e-24 1.0738876e-40)
(0.0031124242 -0.001291676 -4.5873865e-22 0.00060194388 2.2763086e-22 1.1359421e-39)
(0.0026813035 -0.0012335572 7.9732758e-22 0.00065528402 -4.1403806e-22 3.3563901e-40)
(0.0022206377 -0.0011487603 -2.1528777e-23 0.00070823728 3.0224994e-23 5.8988228e-40)
(0.0017751175 -0.0010437006 -6.3564602e-22 0.00075886444 4.6138038e-22 1.6291326e-39)
(0.0013752915 -0.0009251386 0 0.00080466901 0 0)
(0.001037604 -0.00079999912 1.557361e-22 0.00084306632 -1.7627875e-22 8.7321453e-40)
(0.00076661748 -0.00067487756 7.9874389e-24 0.00087183279 -1.6666193e-23 4.7781297e-41)
(0.00055841992 -0.00055544979 -1.8973366e-22 0.00088946408 2.9776375e-22 1.0156697e-39)
(0.000404219 -0.00044599579 -4.2983245e-23 0.00089534416 7.6884663e-23 2.1266594e-41)
(0.00029339048 -0.00034918933 -1.3271022e-23 0.00088965017 3.5939089e-23 3.407138e-41)
(0.00021551425 -0.00026622797 -1.7315357e-23 0.00087387202 4.8488429e-23 1.3281239e-41)
(0.00016141704 -0.00019699997 3.1336719e-23 0.0008529179 -1.1882807e-22 1.26805e-40)
(0.00024436928 -5.8118413e-05 1.2168656e-22 1.406063e-05 -2.3414107e-23 2.5123109e-40)
(0.0012117202 -0.00031263028 -8.7427696e-22 8.0944366e-05 2.2000169e-22 5.4632515e-39)
(0.0021830538 -0.00056535545 -7.6911126e-23 0.00014809941 2.1848766e-23 5.1012574e-40)
(0.002942393 -0.00076890218 -2.3248852e-22 0.00020602283 6.8542651e-23 2.5656766e-39)
(0.0034017887 -0.0009199577 -1.7600721e-22 0.00025973705 4.8840835e-23 3.5519648e-41)
(0.0035604304 -0.0010207925 -9.9705779e-22 0.0003122173 3.0886919e-22 4.7084077e-40)
(0.0034630496 -0.0010772529 -4.8941046e-22 0.00036621051 1.7228473e-22 3.7920186e-40)
(0.0031760063 -0.0010949827 9.4894586e-22 0.00042333472 -3.5718078e-22 3.0738795e-40)
(0.0027717117 -0.0010785972 1.6276995e-22 0.00048364073 -8.3613665e-23 3.8888519e-40)
(0.0023171143 -0.0010325171 -2.0928541e-22 0.00054573105 9.4906137e-23 1.3315419e-40)
(0.001866017 -0.00096185336 9.7795184e-23 0.00060707929 -3.6073134e-23 4.9901211e-40)
(0.0014554488 -0.00087276379 -1.9020799e-23 0.00066448822 2.4870998e-23 1.2648641e-40)
(0.0011057473 -0.00077219198 0 0.0007146535 0 0)
(0.00082335229 -0.00066716128 1.0498417e-22 0.00075472828 -1.0873556e-22 3.0773353e-41)
(0.0006049593 -0.00056394104 -2.2401726e-22 0.00078276779 2.9105241e-22 4.1849533e-40)
(0.00044175978 -0.00046738823 -7.2858598e-23 0.00079796755 1.109526e-22 3.6169464e-41)
(0.00032290734 -0.00038063188 1.2659635e-22 0.00080063473 -2.5142592e-22 4.9929376e-40)
(0.00023785201 -0.00030513208 -2.7567164e-23 0.00079190202 3.683314e-23 1.0703969e-40)
(0.00017752292 -0.00024108618 -1.5996496e-24 0.00077396768 -3.3022654e-24 1.2006192e-41)
(0.00013460426 -0.00018778676 2.8955565e-23 0.00075152908 -8.5227139e-23 1.1000863e-41)
(0.00026733298 -4.4149262e-05 8.8479485e-23 7.42958e-06 -1.1607638e-23 1.5732787e-40)
(0.0012705962 -0.00023222948 -8.1181358e-22 4.26769e-05 1.4625376e-22 2.5063058e-39)
(0.0022399569 -0.00042102695 -6.3418851e-22 8.0566506e-05 1.2573631e-22 2.99872e-39)
(0.0029448758 -0.00057869267 9.0960624e-22 0.00011818118 -1.8976052e-22 7.3594403e-40)
(0.0033163454 -0.00070344216 6.8826171e-22 0.00015904958 -1.5452574e-22 1.5373736e-40)
(0.0033772018 -0.000795349 -5.0578325e-22 0.00020524081 1.113592e-22 1.5929391e-39)
(0.0031940229 -0.00085543029 1.6452745e-22 0.0002580897 -6.2397132e-23 6.7426293e-40)
(0.0028486148 -0.00088423594 9.6773916e-22 0.00031762466 -3.4164733e-22 7.603204e-40)
(0.0024202319 -0.00088255571 4.2512463e-22 0.00038231685 -1.6639775e-22 9.6370213e-41)
(0.0019743984 -0.00085271521 -4.1873743e-22 0.00044924998 2.1248918e-22 2.481874e-40)
(0.0015574799 -0.00079919021 -5.688753e-22 0.00051457411 3.3682694e-22 2.9829026e-40)
(0.0011962354 -0.00072829978 -1.5538339e-23 0.00057416591 1.1150527e-23 3.1106872e-43)
(0.00090091826 -0.00064723797 1.6423079e-22 0.00062435005 -1.4257574e-22 4.8382404e-41)
(0.00067012958 -0.00056289627 -5.9363501e-24 0.00066249076 1.8673168e-23 7.2893452e-41)
(0.00049579725 -0.00048090521 -6.4950909e-24 0.00068731348 3.0400814e-23 1.9728747e-40)
(0.00036721241 -0.00040513597 4.976332e-24 0.00069891505 -3.9731729e-23 3.5639014e-40)
(0.00027370871 -0.00033767356 5.8336298e-23 0.00069849362 -1.1448888e-22 1.0488078e-40)
(0.00020607772 -0.00027913762 -3.333714e-23 0.00068790529 9.6372493e-23 2.7261798e-40)
(0.00015702702 -0.00022923694 -8.5173129e-23 0.00066964437 2.3373465e-22 5.2996756e-40)
(0.00012099558 -0.00018717143 2.8250677e-23 0.00064759533 -6.8395732e-23 1.2009607e-41)
(0.00028475184 -2.7017399e-05 -2.3042532e-22 2.6306767e-06 1.920641e-23 4.7014167e-40)
(0.0012935471 -0.00014110151 -1.8234203e-22 1.5581147e-05 1.952506e-23 5.0748917e-40)
(0.0022307609 -0.00026468757 1.3947115e-21 3.259108e-05 -1.7669094e-22 6.1980095e-39)
(0.0028624943 -0.00038140143 1.0408546e-21 5.4668712e-05 -1.5005363e-22 6.7877714e-40)
(0.0031436451 -0.00048799928 4.6758225e-22 8.4487148e-05 -7.2917065e-23 3.3304565e-40)
(0.0031206421 -0.00057934003 9.442178e-23 0.00012380012 -1.9188765e-23 3.2245354e-42)
(0.0028777032 -0.00064964983 -8.8792179e-22 0.00017328272 1.955721e-22 1.392521e-39)
(0.0025054932 -0.00069376878 0 0.00023199069 0 0)
(0.0020832056 -0.00070903373 -5.45319e-22 0.00029719806 2.3362727e-22 1.1526422e-39)
(0.0016695623 -0.00069643888 -9.4007309e-23 0.00036473321 6.1068958e-23 2.6081425e-40)
(0.0013007588 -0.00066044619 2.6800207e-22 0.00042971486 -1.5391191e-22 6.4519525e-41)
(0.00099331267 -0.00060774928 2.8997363e-23 0.00048747876 -3.6448317e-23 1.434768e-40)
(0.00074944041 -0.0005456407 -1.283504e-22 0.00053440725 1.2431938e-22 1.6748187e-40)
(0.00056283283 -0.00048059682 -9.6968883e-23 0.00056842826 1.2546643e-22 3.5756061e-40)
(0.00042343254 -0.00041744219 6.2314314e-23 0.00058910072 -6.286384e-23 4.4004624e-41)
(0.0003206538 -0.00035914244 8.6473636e-23 0.0005973506 -1.105669e-22 4.0964108e-41)
(0.00024512151 -0.00030705248 -7.7230224e-23 0.00059499822 1.2662013e-22 3.824064e-41)
(0.00018933033 -0.0002613901 -1.0381511e-22 0.00058424876 2.2084128e-22 4.4350194e-40)
(0.0001476527 -0.00022178624 7.9090594e-24 0.00056750447 -1.7500102e-24 5.1895239e-41)
(0.00011595195 -0.0001875964 1.4208293e-23 0.00054760231 -4.700937e-23 6.1329492e-41)
(0.00029561421 -7.797037e-06 -1.5203626e-22 2.3592301e-07 3.8745023e-24 2.2998409e-40)
(0.0012792285 -4.6141332e-05 6.507556e-22 1.8227556e-06 -2.3274164e-23 1.2758504e-39)
(0.0021576181 -0.00010862639 9.9475314e-22 6.4361988e-06 -6.1041849e-23 9.2516267e-39)
(0.0027052786 -0.00019206897 -1.1689624e-21 1.6926597e-05 1.0029178e-22 2.549595e-39)
(0.0029027089 -0.00028844612 4.234615e-22 3.6357088e-05 -4.6154835e-23 6.4685026e-41)
(0.0028163326 -0.00038506744 1.7468835e-22 6.7243206e-05 8.3394598e-25 2.3526292e-39)
(0.0025414702 -0.0004685774 4.5871651e-23 0.00011054802 -9.2328393e-24 8.5676821e-43)
(0.0021704962 -0.00052856989 -6.5378764e-22 0.00016495648 1.499823e-22 7.9595528e-40)
(0.001776805 -0.00055993958 -1.4862927e-23 0.00022687083 5.1043293e-24 1.2892255e-43)
(0.0014092237 -0.00056324452 2.4467508e-22 0.00029112422 -1.2624067e-22 3.0315591e-40)
(0.0010935003 -0.0005433518 1.9266218e-23 0.00035213701 -1.9447375e-23 4.3266945e-41)
(0.00083771983 -0.00050728084 -8.8138025e-23 0.00040509525 2.3927993e-23 5.5974946e-40)
(0.00063880613 -0.00046215869 -1.9697551e-22 0.00044677253 1.5914093e-22 6.3816715e-41)
(0.00048817366 -0.00041384529 -1.2392999e-24 0.00047581538 1.5167279e-23 7.2898508e-41)
(0.00037569439 -0.00036637551 6.6927652e-23 0.000492539 -8.698949e-23 7.1512713e-41)
(0.00029195591 -0.0003220403 4.4635449e-23 0.00049842743 -7.0083129e-23 6.9267962e-41)
(0.0002292225 -0.00028180479 1.0285356e-23 0.00049555817 -3.3133103e-23 1.1191217e-40)
(0.00018161104 -0.00024581231 -7.1188399e-23 0.0004861266 9.9698537e-23 9.0480881e-41)
(0.00014487784 -0.00021382903 -1.4403969e-23 0.00047218115 -9.2418206e-24 3.8372463e-40)
(0.00011597171 -0.00018540473 3.9567867e-23 0.00045552933 -1.2062878e-22 6.3389013e-40)
(1.9674232e-06 -2.4587961e-07 1.9658744e-23 3.0027427e-07 -3.933368e-24 2.2473333e-40)
(9.2730021e-06 -3.8813445e-06 -2.8052713e-23 1.9937914e-06 7.7730626e-24 2.1634832e-40)
(2.0770948e-05 -8.9697112e-06 6.2308328e-23 3.9749448e-06 -2.3355405e-23 1.2427588e-39)
(6.6593158e-05 -1.8930491e-05 1.7396791e-22 5.7017908e-06 -3.7128955e-23 4.1792187e-39)
(0.00014615695 -3.1234863e-05 -1.2433427e-22 7.255497e-06 2.1205936e-23 1.086974e-39)
(0.00026124831 -4.501735e-05 1.567768e-22 8.6375214e-06 -2.1318835e-23 1.2010177e-39)
(0.00041565581 -5.9811952e-05 -2.1545308e-22 9.8497107e-06 2.7427047e-23 1.3193764e-39)
(0.00061042334 -7.5152396e-05 -2.2232126e-22 1.0916944e-05 2.3319819e-23 1.3948505e-39)
(0.00084468252 -9.0660202e-05 2.8006865e-22 1.1865989e-05 -2.9157862e-23 1.4750889e-39)
(0.0011169351 -0.00010605647 -2.1766825e-22 1.2717679e-05 2.1360961e-23 7.5138169e-40)
(0.0014252968 -0.00012113122 -1.0837678e-23 1.3487814e-05 1.8150454e-25 8.731629e-42)
(0.0017675264 -0.00013572172 6.2945513e-23 1.4188486e-05 -6.7267671e-24 2.7683289e-41)
(0.0021411344 -0.00014969976 -1.0810157e-23 1.4828953e-05 5.2559386e-25 4.3832152e-42)
(0.0025434831 -0.00016296373 3.4323304e-22 1.5416653e-05 -3.0930351e-23 1.3165805e-39)
(0.0029718481 -0.00017543623 3.8895859e-25 1.5958457e-05 6.4949239e-25 2.8410298e-42)
(0.0034234796 -0.00018706881 -5.0755134e-22 1.646194e-05 4.7618301e-23 2.7086522e-39)
(0.0038956847 -0.00019784607 9.4472099e-23 1.69352e-05 -9.9310918e-24 5.727648e-41)
(0.0043858398 -0.00020776705 2.3012475e-22 1.7384221e-05 -2.2787505e-23 6.8882153e-40)
(0.0048913384 -0.00021687318 -3.7546302e-22 1.7814938e-05 3.9698008e-23 1.9527074e-39)
(0.0054092072 -0.00022544844 -2.0875527e-22 1.822346e-05 2.3453513e-23 7.331359e-40)
(2.2282568e-06 -1.0284942e-06 6.478741e-24 2.6423505e-06 -2.3977809e-24 2.2266773e-41)
(1.1821348e-05 -1.3299843e-05 -1.7766014e-22 1.7569441e-05 1.3395042e-22 7.235357e-39)
(2.6528111e-05 -3.0196464e-05 3.5254133e-23 3.5017606e-05 -2.9149345e-23 6.5303089e-40)
(7.8354497e-05 -6.1290312e-05 1.8720004e-22 5.0233356e-05 -1.1505993e-22 3.4932025e-39)
(0.00016488288 -9.9149845e-05 2.602077e-22 6.3895206e-05 -1.2517599e-22 3.9502333e-39)
(0.00028734293 -0.00014123245 3.1481104e-23 7.5996913e-05 -1.2642693e-23 3.7110023e-41)
(0.00044908294 -0.00018614643 -8.3757557e-22 8.6557681e-05 2.9073522e-22 1.9759206e-38)
(0.00065061592 -0.00023251289 -2.9592416e-23 9.5798151e-05 1.2283979e-23 5.7258563e-42)
(0.00089059766 -0.00027922014 4.7496185e-22 0.00010395357 -1.449827e-22 3.3733611e-39)
(0.0011670953 -0.0003254487 -1.1475565e-22 0.00011120736 3.1779871e-23 1.8757206e-40)
(0.001477794 -0.00037057955 -4.3639117e-22 0.00011769865 1.1994099e-22 2.0813279e-39)
(0.0018200173 -0.00041413081 9.1955203e-23 0.00012353313 -2.3586892e-23 9.4761174e-41)
(0.0021908303 -0.00045572001 3.8854089e-22 0.00012879045 -8.7257284e-23 2.2316503e-39)
(0.0025871303 -0.00049503999 1.6113433e-22 0.0001335328 -4.019314e-23 2.5502177e-40)
(0.0030056917 -0.00053185005 3.2338617e-22 0.00013781568 -8.6274777e-23 7.3805936e-40)
(0.0034432261 -0.00056598861 -2.5618447e-22 0.00014169866 6.4626382e-23 6.2413285e-40)
(0.003896534 -0.0005973896 -2.4564178e-22 0.00014524643 6.1311288e-23 6.8259666e-40)
(0.0043624448 -0.0006260234 2.4925215e-22 0.00014851065 -7.0566348e-23 3.9502253e-40)
(0.0048369052 -0.0006519987 2.2873681e-22 0.00015154974 -6.3122753e-23 6.9002505e-40)
(0.0053151404 -0.00067640393 8.9255923e-23 0.00015435183 -2.3638418e-23 2.9288296e-40)
(2.8641411e-06 -2.6325849e-06 4.9849197e-24 7.0468398e-06 -2.4974963e-24 1.1727131e-41)
(1.7869112e-05 -2.7485584e-05 1.3493763e-22 4.6900456e-05 -1.4443004e-22 3.0835985e-39)
(3.993648e-05 -6.0742053e-05 -2.953769e-23 9.3407003e-05 3.8068124e-23 1.6149367e-40)
(0.00010433943 -0.00011635799 -2.0340074e-22 0.00013394424 1.7131267e-22 3.8236187e-39)
(0.00020528531 -0.00018241075 7.502647e-23 0.00017021582 -6.3035589e-23 1.08498e-40)
(0.00034288376 -0.00025479417 9.9546239e-23 0.00020212636 -8.0959805e-23 5.7362118e-41)
(0.00051959526 -0.00033120908 -1.2385598e-22 0.00022972116 6.5752826e-23 3.4076173e-40)
(0.00073492869 -0.00040942252 -3.2449595e-22 0.00025358744 1.8954362e-22 6.8227407e-40)
(0.00098662895 -0.00048764871 1.4206055e-22 0.00027435025 -6.916013e-23 1.9047776e-40)
(0.0012719179 -0.00056456529 3.0182258e-22 0.00029250072 -1.2578349e-22 1.0812576e-39)
(0.0015876432 -0.00063916387 8.4675601e-23 0.00030841343 -5.8489741e-23 4.0797127e-41)
(0.0019302828 -0.0007106499 3.6967224e-22 0.0003223718 -1.2319566e-22 2.0060257e-39)
(0.0022960375 -0.00077838106 3.1435049e-23 0.00033458558 -1.1676167e-23 8.322423e-42)
(0.0026809041 -0.00084182584 -5.5133755e-22 0.00034521186 1.8676309e-22 3.2264366e-39)
(0.0030806976 -0.00090054696 4.0941101e-23 0.00035438358 -2.679439e-23 1.7917553e-41)
(0.0034911117 -0.00095422286 -2.5852997e-22 0.00036223988 7.2335651e-23 1.2568213e-39)
(0.0039080104 -0.0010026866 -3.6629772e-22 0.0003689331 1.4477723e-22 5.1786176e-40)
(0.0043272669 -0.0010458293 5.9632412e-22 0.00037461403 -2.3167538e-22 1.7181848e-39)
(0.004742391 -0.0010837867 3.1599714e-22 0.00037953066 -1.3000702e-22 3.5010019e-40)
(0.0051458966 -0.0011188914 6.2912146e-23 0.00038382202 -2.8412152e-23 7.5196161e-42)
(4.2190706e-06 -5.444365e-06 -7.4562779e-24 1.297568e-05 9.3840764e-24 1.7218347e-41)
(2.9297338e-05 -4.8806035e-05 -3.126973e-22 8.6525869e-05 3.9543544e-22 1.023349e-38)
(6.4836479e-05 -0.00010524505 -2.2703239e-23 0.00017218332 2.9176177e-23 1.3983372e-40)
(0.00015005897 -0.00019032367 5.2514616e-23 0.00024672909 -5.8131202e-23 8.9230339e-41)
(0.00027448032 -0.00028825184 -8.4122493e-24 0.0003131021 2.141646e-24 2.3027157e-41)
(0.00043655278 -0.00039345414 2.6764313e-22 0.00037093958 -1.9627451e-22 1.6807927e-39)
(0.00063736578 -0.00050271772 2.9620197e-22 0.00042029302 -1.9356008e-22 1.52702e-39)
(0.00087493462 -0.00061303376 -8.9659689e-23 0.00046224377 4.3386847e-23 2.4056723e-40)
(0.0011456343 -0.00072202039 -3.2963158e-22 0.00049795038 1.723645e-22 1.5300171e-39)
(0.0014453956 -0.00082789794 -6.6598388e-22 0.00052833696 3.594481e-22 3.2460773e-39)
(0.0017697852 -0.00092928873 -1.4254943e-23 0.00055411846 -7.8693731e-24 7.4049332e-41)
(0.0021139978 -0.0010250888 8.4936075e-22 0.00057584034 -3.9612225e-22 5.30431e-39)
(0.002472932 -0.0011143826 -3.442124e-22 0.00059390477 1.3165965e-22 1.5674504e-39)
(0.0028412634 -0.0011963922 -2.2311286e-22 0.00060860886 9.7804078e-23 3.095083e-40)
(0.0032134505 -0.0012704504 -2.7342647e-23 0.00062019205 3.0143951e-23 6.6773991e-41)
(0.0035838072 -0.0013360271 5.3055762e-22 0.00062888879 -2.3258556e-22 1.2702928e-39)
(0.0039469633 -0.0013928067 -3.0146533e-22 0.00063494974 1.5056351e-22 8.5837812e-41)
(0.0042977077 -0.0014406088 -6.9236955e-22 0.0006386945 2.9137197e-22 2.734347e-39)
(0.0046267779 -0.0014796115 4.6659667e-22 0.00064090364 -2.0267766e-22 1.3751084e-39)
(0.0049237165 -0.0015136012 4.0224511e-22 0.00064244993 -1.6113812e-22 1.2784013e-39)
(6.7473427e-06 -9.6962729e-06 3.3486491e-23 1.9778986e-05 -3.2542625e-23 2.203564e-40)
(4.8617322e-05 -7.8650379e-05 1.0786034e-23 0.00013207322 -2.7320741e-24 9.9720489e-41)
(0.00010630662 -0.00016639049 -4.3156488e-22 0.00026238917 6.1767482e-22 8.3985323e-39)
(0.00022262731 -0.000286605 -2.4789988e-22 0.00037543783 2.632633e-22 2.5967307e-39)
(0.00038126166 -0.00042030038 1.6528833e-22 0.00047539282 -1.3161035e-22 1.5692803e-39)
(0.00057840331 -0.00056042942 2.060395e-22 0.00056140791 -1.6601218e-22 7.3941804e-40)
(0.00081317082 -0.00070282091 -2.6799966e-22 0.00063352651 1.7505071e-22 1.729884e-39)
(0.0010815129 -0.00084377968 -4.0895937e-22 0.0006934224 2.3475931e-22 3.7960463e-39)
(0.0013778941 -0.00098042698 6.0681704e-22 0.00074290563 -3.6251151e-22 3.8960404e-39)
(0.0016964301 -0.0011105961 1.7366395e-22 0.00078345177 -7.0323435e-23 9.0666688e-40)
(0.0020308984 -0.0012325897 -5.5097778e-22 0.00081623197 3.6418354e-22 3.0273955e-40)
(0.002374737 -0.0013450335 2.4098243e-22 0.00084216136 -1.0962901e-22 6.9824712e-40)
(0.0027211436 -0.0014467816 0 0.00086193387 0 0)
(0.0030631589 -0.0015368523 2.3591501e-22 0.00087606946 -1.1497279e-22 2.7347452e-40)
(0.0033936964 -0.0016143951 -1.7733664e-22 0.00088497824 8.427552e-23 1.4605422e-40)
(0.0037056605 -0.0016787185 -2.7238566e-22 0.00088903064 1.3584309e-22 1.7758711e-40)
(0.003992636 -0.0017294104 1.0111425e-22 0.00088857866 -8.1927084e-23 2.4927505e-40)
(0.0042488899 -0.0017663461 -8.2130017e-23 0.00088412272 4.8880706e-23 9.055036e-42)
(0.0044631587 -0.0017899427 3.9514995e-22 0.00087738982 -1.7093684e-22 1.4796396e-39)
(0.0046218131 -0.0018052894 -3.2017348e-22 0.00087117387 1.5641083e-22 8.6812792e-41)
(1.0975419e-05 -1.5462645e-05 3.2113667e-23 2.6813542e-05 -2.7000232e-23 1.7693735e-40)
(7.8668073e-05 -0.00011728749 1.5504445e-22 0.00017895124 -2.0639039e-22 6.6194658e-40)
(0.00016996091 -0.00024449447 -2.0812427e-22 0.00035443765 2.7605091e-22 1.5756804e-39)
(0.00032953985 -0.00040511277 -3.4230612e-22 0.00050584028 3.8487193e-22 1.3207247e-39)
(0.00053417375 -0.0005775412 -1.0164275e-22 0.00063842887 1.4831415e-22 1.0421409e-39)
(0.0007770115 -0.00075315649 -3.0988806e-22 0.00075073546 2.7205396e-22 6.4864236e-40)
(0.0010544228 -0.00092677661 -1.4381104e-22 0.0008428535 8.8552138e-23 7.4886587e-40)
(0.0013596126 -0.0010941459 2.4960346e-22 0.00091715062 -1.5014007e-22 1.3813817e-39)
(0.0016845229 -0.0012520433 5.979331e-22 0.00097620328 -3.5635924e-22 4.7301666e-39)
(0.0020208937 -0.0013980625 1.8462382e-22 0.001022172 -1.1359243e-22 1.9845687e-40)
(0.0023602692 -0.0015303434 -1.754263e-22 0.0010568249 9.3153748e-23 3.1472158e-40)
(0.0026940234 -0.0016474091 -3.232678e-23 0.00108159 -7.2053719e-24 2.7405579e-40)
(0.0030135264 -0.0017480675 -8.3909359e-22 0.0010975931 4.5880811e-22 2.611808e-39)
(0.0033103105 -0.0018313467 -2.6086578e-22 0.0011057102 1.3632974e-22 2.7014312e-40)
(0.0035761858 -0.0018964592 4.380292e-22 0.0011066387 -2.5271529e-22 1.2903666e-40)
(0.0038034386 -0.001942817 -4.3717742e-22 0.0011009681 2.3576284e-22 2.678547e-40)
(0.003985744 -0.0019701538 -1.544141e-22 0.0010891589 7.5926718e-23 8.5480462e-41)
(0.0041185212 -0.0019786544 3.4671322e-22 0.0010717708 -1.4637846e-22 1.3276337e-39)
(0.0041909337 -0.0019693322 5.2733728e-22 0.0010515997 -2.6296338e-22 1.0079819e-39)
(0.0041865216 -0.0019481585 6.4159048e-23 0.0010348304 -2.9948189e-23 1.9614421e-41)
(1.7464017e-05 -2.2664926e-05 -9.0568632e-23 3.3495324e-05 7.3532237e-23 1.0468485e-39)
(0.00012228122 -0.0001638392 -1.0022549e-22 0.0002228089 1.0167511e-22 8.3441134e-40)
(0.00026110675 -0.0003373415 2.551277e-22 0.00043918683 -3.2196864e-22 3.8606067e-40)
(0.00047725897 -0.00054191955 3.884898e-22 0.00062434877 -4.021154e-22 1.7510353e-39)
(0.00073945975 -0.00075387555 5.0754344e-24 0.00078446911 -4.5672137e-24 3.4749482e-43)
(0.0010367793 -0.00096288461 -1.056027e-21 0.00091749997 8.7065895e-22 1.0222787e-38)
(0.0013619091 -0.0011627769 -4.1508274e-22 0.0010237674 3.545752e-22 1.4731917e-40)
(0.0017046026 -0.0013489602 3.2193799e-22 0.0011064746 -2.1699992e-22 1.1216115e-39)
(0.0020537607 -0.0015181565 3.6995942e-22 0.0011690921 -2.481561e-22 6.8621806e-40)
(0.0023984261 -0.0016680285 -3.6234681e-22 0.0012146041 2.0172789e-22 1.8828038e-39)
(0.0027278105 -0.001796882 -1.0689833e-21 0.0012455248 6.7334262e-22 2.7476628e-39)
(0.0030314429 -0.0019034996 7.0407439e-22 0.0012639445 -4.2577749e-22 1.1296996e-39)
(0.0032994676 -0.001987042 4.1920523e-22 0.0012715683 -2.1849919e-22 1.3519634e-39)
(0.0035229539 -0.0020469865 -5.826334e-22 0.0012697702 3.2087041e-22 1.1164063e-39)
(0.0036941503 -0.0020830873 2.565691e-22 0.0012596606 -1.4761676e-22 7.5046484e-41)
(0.0038067656 -0.0020953584 4.264137e-22 0.0012421394 -2.1924475e-22 8.3136288e-40)
(0.0038569666 -0.0020841256 1.6277398e-22 0.0012177843 -9.1403944e-23 2.8412393e-41)
(0.0038440925 -0.0020501995 -2.7930312e-22 0.0011869769 1.7156974e-22 3.6218056e-41)
(0.0037616036 -0.0019954491 -6.5237074e-23 0.0011531376 2.143931e-23 2.0576003e-40)
(0.0035921724 -0.0019260051 3.6716994e-22 0.001126777 -2.1111131e-22 8.4329064e-41)
(2.6766031e-05 -3.1073427e-05 -2.6505505e-24 3.9305966e-05 -2.8964024e-24 1.9609949e-41)
(0.00018191045 -0.00021630718 -3.6544392e-22 0.00025977939 3.865954e-22 2.7432454e-39)