/*--------------------------------*- C++ -*----------------------------------*\
  =========                 |
  \\      /  F ield         | OpenFOAM: The Open Source CFD Toolbox
   \\    /   O peration     | Website:  https://openfoam.org
    \\  /    A nd           | Version:  6
     \\/     M anipulation  |
\*---------------------------------------------------------------------------*/
FoamFile
{
    version     2.0;
    format      ascii;
    class       volVectorField;
    location    "134";
    object      U_0;
}
// * * * * * * * * * * * * * * * * * * * * * * * * * * * * * * * * * * * * * //

dimensions      [0 1 -1 0 0 0 0];

internalField   nonuniform List<vector> 
9200
(
(0.0010393971 0.0014199553 -5.9202238e-20)
(0.013676289 -0.0020584842 4.6042891e-20)
(0.038313648 -0.0058667739 -3.8502018e-20)
(0.072275249 -0.0097638006 -6.0258174e-20)
(0.11376594 -0.013490416 1.8827117e-20)
(0.16158253 -0.016606138 3.2744124e-20)
(0.2146736 -0.018817859 -1.2268115e-20)
(0.2720687 -0.019974558 9.2689443e-21)
(0.33285938 -0.020011986 1.6803536e-20)
(0.39616716 -0.018929912 1.4848184e-21)
(0.46111976 -0.016780776 -2.1456513e-20)
(0.52684157 -0.013658796 2.0670182e-20)
(0.59245585 -0.0096891738 -4.0422474e-20)
(0.65709689 -0.0050170703 -2.1134103e-20)
(0.71993064 0.00020414036 5.9047057e-21)
(0.78018121 0.0058225364 -2.5131947e-20)
(0.83717698 0.011711105 2.521742e-20)
(0.89047525 0.017916642 2.22436e-20)
(0.9396772 0.024571368 -2.9921822e-22)
(0.9820583 0.028291176 -1.6690872e-21)
(0.005252267 -0.0013463197 -1.7059467e-20)
(0.02696283 -0.0089891926 3.9747998e-20)
(0.061670777 -0.014810034 2.3576467e-20)
(0.10629596 -0.019172635 -1.1569834e-19)
(0.15873718 -0.022214454 -1.2727184e-20)
(0.21753554 -0.023721231 7.3297544e-20)
(0.28137551 -0.023595727 -3.5476646e-20)
(0.34900911 -0.02186968 -8.3906136e-21)
(0.41924285 -0.018646323 3.4287793e-20)
(0.49091362 -0.014081727 -4.3259921e-20)
(0.56287699 -0.0083769286 -3.0338751e-20)
(0.63401359 -0.0017676714 7.1922144e-20)
(0.7032488 0.0054872089 3.829442e-20)
(0.76958162 0.013117327 -6.7977306e-20)
(0.83211848 0.020850644 1.4623878e-20)
(0.89010652 0.028418121 -3.6733863e-20)
(0.94297535 0.03556793 -1.3777329e-20)
(0.99043842 0.042138971 7.097587e-20)
(1.032362 0.047713216 2.9642646e-20)
(1.0669406 0.049137438 -8.347904e-20)
(0.010858556 -0.0040424796 3.6773681e-20)
(0.043953868 -0.015431283 2.5047507e-21)
(0.090516301 -0.022552601 2.2341877e-20)
(0.14711274 -0.026497773 9.8117425e-22)
(0.21134441 -0.027886798 -4.0774246e-20)
(0.28147009 -0.026795693 1.8576506e-20)
(0.35587339 -0.023383379 1.3420401e-20)
(0.43299363 -0.017922259 -5.0328061e-20)
(0.51132887 -0.010736446 5.7262295e-20)
(0.58943073 -0.002184754 1.4256832e-20)
(0.66591418 0.0073469444 -5.4301236e-20)
(0.73948574 0.017459203 -1.8237625e-20)
(0.80898163 0.027755389 9.0591304e-21)
(0.87340847 0.037857968 2.3445026e-20)
(0.93197953 0.047422595 -1.1362679e-20)
(0.98413956 0.056147365 2.7878088e-20)
(1.0295798 0.063787393 -2.0188478e-20)
(1.0682701 0.070202429 -7.012462e-20)
(1.1003375 0.075117229 -2.3796678e-20)
(1.1249163 0.076638921 4.8660315e-20)
(0.017957394 -0.0064222401 2.4508153e-20)
(0.064777591 -0.020695032 5.1039533e-20)
(0.12485337 -0.028061193 1.988181e-20)
(0.1944713 -0.030464499 1.299015e-20)
(0.27095153 -0.029095348 1.7275794e-20)
(0.35225161 -0.024389548 -4.7720472e-20)
(0.43643479 -0.0168266 -2.5647032e-20)
(0.52162403 -0.0069773558 0)
(0.60603341 0.0045662827 1.3920806e-20)
(0.68799196 0.017210908 -5.8524655e-21)
(0.76598041 0.030373009 -9.793588e-20)
(0.83867995 0.043498614 -1.577492e-20)
(0.90502089 0.056085474 6.5104005e-20)
(0.96422137 0.067702849 4.8433202e-22)
(1.0158091 0.078006269 -1.5725769e-21)
(1.059621 0.086745173 2.1957785e-20)
(1.0957825 0.093770425 -5.2648138e-21)
(1.124685 0.099063342 -6.1030555e-20)
(1.1468694 0.1025949 -4.5851917e-20)
(1.1623001 0.1034115 6.9521261e-20)
(0.026579657 -0.0082057723 -3.9194348e-21)
(0.08934477 -0.024033749 -5.1256576e-21)
(0.16430886 -0.030265335 5.6599721e-20)
(0.24758314 -0.029810438 1.853942e-20)
(0.33624417 -0.024513501 -3.1955253e-20)
(0.42795443 -0.015240378 1.2163912e-20)
(0.52047638 -0.0028519239 2.6403054e-21)
(0.61166786 0.011736486 3.3609464e-20)
(0.69955184 0.027639474 5.6600017e-21)
(0.78237344 0.044028024 -1.3204917e-20)
(0.85865936 0.060146882 6.0154792e-20)
(0.92727454 0.075339509 -5.8009919e-20)
(0.98746222 0.089071759 -1.3216766e-19)
(1.0388584 0.10094776 -5.5773717e-21)
(1.0814777 0.11071565 8.315185e-20)
(1.1156705 0.11826243 0)
(1.1420596 0.12360402 1.0119074e-20)
(1.1614713 0.12688856 -1.5459975e-20)
(1.1748221 0.12829652 -8.59958e-21)
(1.1826712 0.12744681 2.0992469e-20)
(0.036667207 -0.0090896642 -5.4309174e-21)
(0.11731602 -0.02468559 4.3578969e-21)
(0.20812024 -0.028140496 -8.7630287e-21)
(0.30515925 -0.023415323 2.8472546e-20)
(0.40533828 -0.013075993 -2.9392848e-20)
(0.50607497 0.0015221873 -1.6927139e-20)
(0.60490895 0.019094682 3.7364436e-20)
(0.6995541 0.038364753 4.7595573e-21)
(0.78800879 0.058167082 -2.4436372e-20)
(0.86863917 0.077482354 6.9868247e-20)
(0.94024497 0.095457879 5.238549e-22)
(1.0021008 0.11143066 -8.0445293e-20)
(1.0539621 0.12494184 0)
(1.0960323 0.13573626 3.9542641e-20)
(1.128897 0.14374701 5.5236787e-21)
(1.1534324 0.14906732 -7.7567359e-20)
(1.1707033 0.15191734 -1.9587161e-20)
(1.1818663 0.1526217 -1.2467785e-20)
(1.1880629 0.15152391 -1.4709575e-20)
(1.1901495 0.14858263 4.0421005e-20)
(0.048059229 -0.0087674819 -1.7278023e-20)
(0.14808417 -0.021932195 -2.2198826e-21)
(0.25514249 -0.020798094 3.0380636e-20)
(0.36546634 -0.010413075 3.7484469e-20)
(0.47590737 0.0059012957 -1.9944847e-20)
(0.58374642 0.026269003 -6.916353e-20)
(0.68644611 0.048976882 -2.7996056e-20)
(0.78176668 0.072417416 7.8929888e-20)
(0.86790687 0.095212032 8.5779566e-21)
(0.94359421 0.11624906 -2.4873689e-20)
(1.0081309 0.13469759 1.364228e-20)
(1.061392 0.15001471 -4.3195264e-21)
(1.1037741 0.16193557 0)
(1.1361021 0.17044307 2.7203789e-20)
(1.159509 0.17572169 -7.9323321e-20)
(1.1753062 0.17810211 -3.147589e-20)
(1.1848608 0.17800637 8.1055511e-20)
(1.1894957 0.17590753 -4.2970549e-21)
(1.1904063 0.17225351 3.5561417e-21)
(1.1885111 0.16719077 2.7111914e-20)
(0.060485675 -0.0069574242 -3.241473e-20)
(0.18077895 -0.015170529 -8.1624713e-20)
(0.30389129 -0.0075836976 2.5797253e-21)
(0.42642829 0.0097031922 7.0162216e-20)
(0.54535487 0.0326314 6.2424768e-20)
(0.65798495 0.05881989 -7.157495e-20)
(0.7619132 0.08617633 -2.8268171e-22)
(0.85518759 0.11285208 8.552337e-20)
(0.93645831 0.13737805 4.8828519e-20)
(1.0050464 0.15869325 -5.4218977e-20)
(1.0609404 0.17613503 -9.2335174e-20)
(1.1047289 0.18941276 -3.1590159e-21)
(1.1374804 0.19855847 4.2128314e-20)
(1.1605916 0.2038574 -6.6057016e-21)
(1.1756287 0.20576884 -1.286892e-20)
(1.1841814 0.20484766 1.9691001e-20)
(1.1877462 0.20167728 4.3881093e-20)
(1.1876486 0.19682404 -4.3859893e-20)
(1.1849984 0.19077687 -1.0232317e-19)
(1.1806279 0.18377172 2.4567201e-20)
(0.073537699 -0.0034330082 -3.4979929e-20)
(0.21422823 -0.0039890995 -1.7388674e-19)
(0.35251875 0.01183932 8.2103747e-20)
(0.48563089 0.037018317 9.2768069e-20)
(0.61085734 0.066835561 5.7970919e-20)
(0.72577131 0.098481191 8.6107772e-21)
(0.82835243 0.12959694 -1.0624092e-19)
(0.9171946 0.1582426 0)
(0.99163215 0.18302794 -6.8749308e-20)
(1.0517568 0.20311171 -1.5202583e-20)
(1.0983429 0.21814808 5.4704012e-20)
(1.1327051 0.22821011 1.0973495e-20)
(1.1565151 0.23369169 -4.5614312e-20)
(1.1716107 0.23519836 -4.9081845e-20)
(1.179824 0.23344207 2.4287941e-20)
(1.1828485 0.22915179 4.4823373e-20)
(1.1821521 0.22300827 -5.5600999e-20)
(1.1789391 0.2156065 -1.0751234e-19)
(1.1741497 0.20742041 -3.1513603e-21)
(1.1684595 0.19871688 2.7046681e-20)
(0.086650982 0.0019613852 -3.5449582e-21)
(0.24696166 0.011816653 8.7913657e-20)
(0.39884971 0.037492391 -1.6479073e-20)
(0.54040769 0.071218527 -8.4309762e-20)
(0.66950266 0.10778912 4.516469e-20)
(0.7842236 0.14411562 4.9175731e-20)
(0.88319376 0.17775683 5.5357262e-21)
(0.9657832 0.20688495 -9.950335e-20)
(1.0321808 0.23038793 -2.5049014e-21)
(1.0833372 0.24781527 5.0504035e-20)
(1.1208113 0.25926256 5.9855344e-21)
(1.1465598 0.26523555 -1.9717406e-20)
(1.1627146 0.26650449 -7.5705356e-20)
(1.1713801 0.26396519 -6.2554475e-21)
(1.1744796 0.2585231 4.3533762e-20)
(1.173658 0.25100954 3.7022358e-20)
(1.1702413 0.24213248 1.9793601e-20)
(1.1652431 0.23245717 -5.299545e-20)
(1.1594041 0.2224025 1.2957471e-20)
(1.1532277 0.21223622 8.2659878e-20)
(-0.0012932719 0.0014346711 -1.1234474e-21)
(-0.0047459971 0.0031874384 2.0647115e-21)
(-0.010771439 0.004135933 8.7952595e-22)
(-0.017754415 0.0045395658 -2.4410954e-21)
(-0.024740489 0.0045654443 -1.4115171e-21)
(-0.031299802 0.0043260622 1.5460385e-21)
(-0.037161565 0.0039035563 -6.8701816e-21)
(-0.042147698 0.0033577334 -5.9573931e-21)
(-0.04615804 0.0027313856 1.1172152e-20)
(-0.04914645 0.0020548271 -9.7428826e-21)
(-0.051100898 0.0013492885 -1.9833172e-22)
(-0.052030661 0.00062940104 3.6673979e-21)
(-0.051957914 -9.4919835e-05 -6.3296317e-22)
(-0.050912006 -0.00081697078 2.2819077e-20)
(-0.048925836 -0.0015318957 3.0401133e-22)
(-0.04603532 -0.0022352363 -4.0883504e-20)
(-0.042281682 -0.0029223423 7.5386896e-21)
(-0.037703218 -0.0035911254 2.3864496e-20)
(-0.032308345 -0.0042400868 -4.3853108e-20)
(-0.026156473 -0.0048212268 -2.773968e-20)
(-0.0016522126 0.004180899 -5.3716536e-21)
(-0.0053975207 0.0092682061 1.0865511e-20)
(-0.011218588 0.012007527 -1.0191627e-20)
(-0.017658144 0.013153849 3.9230395e-21)
(-0.023856584 0.013195492 4.8122288e-21)
(-0.029433494 0.01246279 7.1325316e-22)
(-0.034152511 0.011197063 -2.2509822e-20)
(-0.037860571 0.0095739265 -2.0370487e-21)
(-0.040474481 0.0077189948 2.0163808e-20)
(-0.041959081 0.0057212142 -5.0474274e-21)
(-0.042309072 0.0036428228 -2.1762884e-20)
(-0.041537407 0.001526644 4.8973837e-21)
(-0.039667716 -0.00059840264 2.2635724e-20)
(-0.036729003 -0.0027128884 1.0308538e-20)
(-0.032751858 -0.0048028485 2.1854616e-20)
(-0.02776888 -0.0068557018 -1.9771026e-20)
(-0.021824373 -0.008858449 -2.1673273e-20)
(-0.014965699 -0.010804492 2.1184973e-20)
(-0.0071282766 -0.012679308 2.6810797e-20)
(0.0018752308 -0.014317571 1.5855005e-20)
(-0.0023034458 0.0065602824 -4.3569088e-21)
(-0.0065392676 0.014480298 -5.6387846e-21)
(-0.011892205 0.018710668 3.0723767e-22)
(-0.017211196 0.020428306 1.0959689e-21)
(-0.021819253 0.020400438 6.6919076e-21)
(-0.025431153 0.019151758 1.0665275e-20)
(-0.02787733 0.017066352 -3.7228127e-21)
(-0.029053339 0.014423814 -1.8896384e-20)
(-0.028909062 0.011424346 6.541398e-21)
(-0.027431014 0.0082098595 1.2862732e-20)
(-0.024627599 0.0048796879 5.8341672e-21)
(-0.020519897 0.0015021054 1.8159332e-20)
(-0.015135658 -0.0018770443 1.7296145e-21)
(-0.0085049353 -0.0052274792 -3.3864976e-20)
(-0.00065627331 -0.008527895 1.2020503e-21)
(0.0083818139 -0.011759451 -2.2139491e-20)
(0.018557863 -0.014904498 -2.4466688e-20)
(0.029803399 -0.017954218 4.5820431e-20)
(0.042306429 -0.020855649 2.5349773e-20)
(0.056740322 -0.023248363 1.2242739e-22)
(-0.0031290485 0.0083690304 -5.2833577e-21)
(-0.0078964456 0.018336636 -8.4816464e-21)
(-0.012439048 0.023587956 4.3593377e-21)
(-0.016026598 0.025609804 4.1463851e-21)
(-0.018235072 0.025382872 2.0105862e-21)
(-0.018912666 0.023589417 7.321085e-21)
(-0.01798468 0.020730328 9.3125876e-21)
(-0.015416601 0.017170386 -1.3511549e-21)
(-0.011206846 0.013171271 -1.1482081e-20)
(-0.0053749189 0.0089188325 -2.9072219e-20)
(0.0020485616 0.0045432786 6.1897442e-23)
(0.011027117 0.00013408929 4.069831e-20)
(0.021523015 -0.0042492393 -1.8383382e-20)
(0.033498848 -0.0085679436 -1.2296242e-20)
(0.04692174 -0.012795979 5.534758e-22)
(0.061761581 -0.016912367 3.2303085e-20)
(0.077954783 -0.020902264 -1.4829789e-20)
(0.095394344 -0.024764059 -5.3339924e-20)
(0.11440087 -0.028380493 4.5765648e-20)
(0.13634819 -0.03107396 3.3013645e-20)
(-0.0039704337 0.0094657959 -6.8788701e-22)
(-0.0090917035 0.020487918 -1.2534844e-20)
(-0.012364513 0.026159233 -3.4144861e-20)
(-0.013552555 0.028143477 -5.7242327e-21)
(-0.012533203 0.027555118 -3.6222876e-21)
(-0.0093166122 0.025188133 6.3051711e-21)
(-0.0039454323 0.021627429 -4.6462532e-21)
(0.0035264662 0.017298917 -8.807126e-21)
(0.01303731 0.012508643 2.1899938e-20)
(0.024521908 0.0074742622 5.0567557e-21)
(0.037916409 0.0023486476 -2.5290586e-20)
(0.053158548 -0.0027631208 1.1078392e-20)
(0.07018823 -0.0077912958 0)
(0.088948232 -0.012691813 1.2089716e-20)
(0.10938741 -0.017437523 -9.7017334e-21)
(0.13145973 -0.022010598 -1.4337308e-20)
(0.15507676 -0.026409452 -1.5738592e-21)
(0.18007069 -0.030660337 -2.218206e-21)
(0.20685693 -0.034577566 4.6147603e-20)
(0.23766758 -0.037021013 -1.0470346e-20)
(-0.0046451224 0.0097809219 -7.5357242e-21)
(-0.0096772873 0.020747991 2.4516621e-20)
(-0.011064389 0.0261611 -1.0499451e-20)
(-0.0090967795 0.02772455 -2.7469523e-20)
(-0.0039795737 0.026601762 -2.7548366e-20)
(0.0040964552 0.023648422 -1.4921704e-20)
(0.014954578 0.019496407 -6.9060726e-22)
(0.02843685 0.014604582 5.5500309e-21)
(0.044403979 0.0093032432 1.9616058e-20)
(0.062731577 0.0038281266 7.3531555e-21)
(0.083305675 -0.0016551346 -7.1862874e-21)
(0.10602064 -0.0070327135 -2.0102373e-21)
(0.13077558 -0.012229672 -3.8192109e-20)
(0.15747181 -0.017200432 -1.269378e-20)
(0.18601477 -0.021920523 1.8750843e-20)
(0.21631497 -0.02638062 -2.1021936e-20)
(0.24823588 -0.030603246 -8.9731649e-21)
(0.28152279 -0.034671756 3.0440784e-20)
(0.31661164 -0.038366102 5.0472633e-20)
(0.35665528 -0.039965513 3.3560122e-21)
(-0.0049617895 0.0093140476 1.6783422e-20)
(-0.0091662858 0.019097791 1.446804e-20)
(-0.0078593235 0.023563444 5.1145903e-20)
(-0.0018583956 0.024328991 2.3388188e-20)
(0.0082960095 0.02252378 1.8251941e-22)
(0.022222407 0.019014316 -3.9388798e-20)
(0.039598126 0.014440792 -2.4314067e-20)
(0.060148841 0.0092661305 1.0465903e-20)
(0.083640339 0.0038229079 1.4401709e-20)
(0.10986824 -0.0016517166 -1.3113812e-20)
(0.13864752 -0.0069915292 -4.403912e-20)
(0.16980399 -0.012083474 2.961878e-20)
(0.20316674 -0.016854897 2.0020728e-20)
(0.23856259 -0.021264849 -2.7551429e-20)
(0.2758159 -0.025297377 1.1650264e-20)
(0.31475218 -0.028958267 2.4197867e-20)
(0.35515002 -0.03230428 8.0724927e-21)
(0.39663894 -0.035508039 -1.1764369e-20)
(0.43958257 -0.038394147 -1.4190412e-20)
(0.48799117 -0.038636052 5.8729535e-21)
(-0.0047307887 0.0081237066 1.1093933e-20)
(-0.0070585832 0.015671216 -2.3352939e-20)
(-0.0020292535 0.018562049 8.6200956e-21)
(0.009032782 0.018216195 3.3588252e-20)
(0.02525682 0.015651057 5.2124754e-20)
(0.046067037 0.011695433 2.0276673e-20)
(0.070985504 0.0069606964 -5.8639866e-21)
(0.09960325 0.0018826018 -1.2286374e-20)
(0.1315706 -0.0032276473 -6.2058062e-21)
(0.16657772 -0.0081502114 3.4241118e-20)
(0.20433672 -0.012733984 -4.5104971e-21)
(0.24456777 -0.016879964 -1.6643458e-20)
(0.28698809 -0.02052958 -1.9693738e-20)
(0.33130386 -0.023657428 -4.744419e-20)
(0.37720896 -0.026266674 2.3238927e-20)
(0.42439257 -0.028389132 -1.4096131e-20)
(0.4725051 -0.030129023 2.5993698e-20)
(0.52104202 -0.031784727 2.1041057e-20)
(0.57022023 -0.033352359 -8.5571125e-20)
(0.62471587 -0.032060672 -1.0802906e-22)
(-0.0037710501 0.0063146539 2.1925212e-20)
(-0.0028656995 0.010735085 -2.6165755e-20)
(0.0071423124 0.011564081 -4.5013642e-20)
(0.024450643 0.0099248715 -2.7253999e-20)
(0.047871517 0.0066521118 -2.0440027e-21)
(0.076629674 0.0024903371 1.3050182e-20)
(0.11007805 -0.0020157684 -2.83378e-21)
(0.14765377 -0.0064883758 1.8118667e-20)
(0.18886309 -0.010664078 8.8686184e-21)
(0.23325453 -0.014363103 -1.1380257e-20)
(0.28039455 -0.017469742 8.8780066e-21)
(0.32984959 -0.019917713 -2.3903466e-20)
(0.38117287 -0.021679723 8.0505672e-21)
(0.43389541 -0.022761022 1.6756551e-20)
(0.48752442 -0.023195574 -2.6395369e-21)
(0.54155269 -0.023048295 1.66191e-21)
(0.59544143 -0.022470983 -3.1956459e-22)
(0.6485242 -0.021871777 1.9590627e-20)
(0.7008291 -0.021446876 4.0434406e-21)
(0.75745847 -0.018501048 -5.735624e-22)
(-0.0019109917 0.0040273421 2.3692299e-20)
(0.003869564 0.0046764565 5.7160433e-20)
(0.020315639 0.003187833 -4.9244597e-20)
(0.045178876 0.00029421751 -9.9454905e-21)
(0.076966063 -0.0034244461 2.0256486e-20)
(0.11469751 -0.0073539715 2.1433868e-21)
(0.15754052 -0.011055438 -2.9815367e-20)
(0.20475046 -0.014244719 6.9848484e-21)
(0.25565212 -0.016738609 7.1098547e-21)
(0.30960786 -0.018427741 -2.6254284e-20)
(0.36599012 -0.019260989 1.2927467e-21)
(0.42416374 -0.019232869 -3.7174429e-20)
(0.48347568 -0.018373319 -3.6341345e-20)
(0.54325079 -0.016739513 6.5684123e-20)
(0.60279371 -0.014408665 5.562808e-21)
(0.66139483 -0.011477394 -1.5188993e-20)
(0.71831417 -0.0081036805 1.9364163e-20)
(0.7727056 -0.0045946459 -9.1889095e-22)
(0.82409513 -0.00096998058 2.0364677e-20)
(0.87622654 0.0043259741 -1.9554475e-20)
(-0.018835755 -0.005099825 5.8353083e-20)
(-0.010223781 -0.0056350615 1.5783931e-20)
(-0.00022007585 -0.0060690271 -3.5140185e-20)
(0.010824621 -0.0063342675 1.6790571e-20)
(0.022644167 -0.0065122151 0)
(0.035179921 -0.006630268 0)
(0.048372067 -0.0066911609 -2.297542e-20)
(0.062140884 -0.0067027365 -1.6503211e-20)
(0.076415964 -0.0066743797 1.9123033e-20)
(0.091137799 -0.0066128795 1.8174452e-20)
(0.10625142 -0.0065234277 1.0524426e-21)
(0.12170501 -0.0064105879 -1.0317866e-20)
(0.13745029 -0.0062783186 8.327119e-21)
(0.15344203 -0.0061299673 1.8234143e-20)
(0.16963747 -0.0059683973 -5.2275988e-21)
(0.18599597 -0.005796094 -1.0175178e-20)
(0.20247878 -0.0056152286 -4.3196912e-21)
(0.21904887 -0.0054277103 -4.4258219e-21)
(0.23567081 -0.0052352311 7.3668072e-22)
(0.25231075 -0.0050393014 1.2286435e-21)
(0.26893635 -0.0048412765 2.5667454e-21)
(0.28551683 -0.004642376 6.6541682e-21)
(0.30202301 -0.0044436992 2.4889723e-22)
(0.31842734 -0.0042462357 -3.451608e-21)
(0.33470401 -0.0040508731 1.5558046e-22)
(0.35082895 -0.003858403 -5.7712469e-22)
(0.36677989 -0.0036695255 1.2434997e-21)
(0.38253646 -0.0034848531 1.0522757e-21)
(0.39808013 -0.0033049142 -1.298928e-21)
(0.4133943 -0.0031301572 -1.2218156e-22)
(0.42846425 -0.0029609542 3.5674143e-23)
(0.44327715 -0.0027976052 -3.5190947e-22)
(0.457822 -0.0026403436 -4.0573824e-22)
(0.47208965 -0.0024893408 5.5470189e-23)
(0.48607269 -0.0023447122 -1.3811251e-22)
(0.49976547 -0.0022065237 -2.2346406e-22)
(0.513164 -0.0020747977 2.5576689e-22)
(0.52626595 -0.0019495202 2.9508583e-22)
(0.53907056 -0.0018306497 -8.3168893e-24)
(0.551579 -0.0017181213 -1.5529033e-22)
(0.56379327 -0.0016118744 3.0405351e-23)
(0.57572002 -0.0015118089 -4.0157733e-23)
(0.58735949 -0.0014179966 9.2299346e-23)
(0.5987408 -0.001330101 2.1955074e-23)
(0.60981827 -0.0012494083 -1.1421542e-22)
(0.62078447 -0.0011727048 -6.7834991e-24)
(0.63116062 -0.0011122368 -6.0552913e-26)
(0.64246102 -0.0010350101 -3.596925e-24)
(0.65054554 -0.0010519978 2.9443484e-23)
(0.66715091 -0.0008769119 3.6083097e-22)
(0.010447018 -0.015017983 -1.2747075e-20)
(0.018181065 -0.016641424 -6.3303428e-20)
(0.027780839 -0.017915864 -3.054254e-20)
(0.038387057 -0.018672554 3.8476757e-20)
(0.049623215 -0.019184102 1.4662905e-20)
(0.061509201 -0.019529976 -1.820534e-20)
(0.074015769 -0.019710437 4.6723537e-21)
(0.087066027 -0.019747092 2.544772e-20)
(0.10059694 -0.019667907 9.1942971e-23)
(0.11455829 -0.019492351 -7.6593222e-21)
(0.12890196 -0.019235035 -1.3021233e-20)
(0.14358135 -0.018909011 -8.5247821e-21)
(0.15855257 -0.018525694 1.7772752e-20)
(0.17377411 -0.018094745 8.9299332e-21)
(0.18920622 -0.017624445 -1.6522754e-20)
(0.20481072 -0.017122018 -6.0392089e-21)
(0.22055087 -0.016593805 3.2145595e-21)
(0.2363913 -0.0160454 8.3718044e-21)
(0.25229796 -0.015481783 6.9834469e-21)
(0.26823809 -0.014907414 -6.973024e-21)
(0.28418029 -0.014326309 -3.1687788e-21)
(0.30009451 -0.013742094 1.3607043e-21)
(0.3159522 -0.013158042 3.8700109e-22)
(0.33172628 -0.012577111 1.2114852e-21)
(0.34739132 -0.012001956 1.8373093e-22)
(0.36292353 -0.011434951 -3.2667284e-22)
(0.37830085 -0.0108782 -7.2442688e-22)
(0.393503 -0.010333546 9.7173763e-22)
(0.4085115 -0.0098025842 8.2495809e-22)
(0.42330972 -0.0092866706 -1.5160561e-22)
(0.43788284 -0.0087869342 5.531833e-22)
(0.45221787 -0.0083042898 -2.38832e-22)
(0.46630363 -0.0078394526 -3.7081891e-22)
(0.4801307 -0.0073929533 -6.1014291e-22)
(0.49369136 -0.0069651556 4.4178835e-22)
(0.50697963 -0.006556274 -1.5617687e-23)
(0.51999112 -0.0061663939 1.6139673e-22)
(0.53272312 -0.0057954911 -4.4198293e-22)
(0.54517442 -0.0054434599 3.722194e-22)
(0.55734574 -0.0051101229 6.7207485e-23)
(0.5692386 -0.0047953166 -1.0285955e-22)
(0.58085916 -0.0044987581 1.7637682e-22)
(0.59220721 -0.0042206788 2.3377614e-22)
(0.60331113 -0.0039600885 1.6960531e-22)
(0.61412541 -0.0037208417 1.6809937e-22)
(0.62483975 -0.00349337 -2.6179191e-23)
(0.63498177 -0.0033141713 8.4465905e-23)
(0.6460428 -0.0030850395 7.671445e-23)
(0.65394778 -0.0031359215 -1.9526985e-22)
(0.67023409 -0.002616486 -3.7954427e-23)
(0.067616711 -0.024029785 9.4530093e-21)
(0.073591919 -0.026749747 3.2951974e-21)
(0.082268027 -0.028806326 -1.2162535e-20)
(0.091950642 -0.029969313 -1.2258618e-21)
(0.10198636 -0.03076872 1.4970933e-20)
(0.11254984 -0.031331795 -1.4887426e-20)
(0.12367984 -0.031637019 -2.9842954e-20)
(0.13530111 -0.031713998 1.4493893e-20)
(0.14736169 -0.03160867 1.8182429e-20)
(0.15982863 -0.031351131 -1.1598818e-20)
(0.17266631 -0.030962934 1.0190793e-21)
(0.18583708 -0.030463906 8.686114e-21)
(0.19930469 -0.029871741 -1.5253989e-20)
(0.21303405 -0.029201465 2.9098323e-21)
(0.22699058 -0.028466021 7.519703e-21)
(0.24114027 -0.027676801 3.1412086e-23)
(0.25544977 -0.02684389 2.6544721e-22)
(0.26988649 -0.025976263 -7.4154014e-21)
(0.28441861 -0.025081967 3.8620552e-21)
(0.2990152 -0.024168258 8.4753061e-21)
(0.31364633 -0.02324171 -3.8353643e-21)
(0.32828316 -0.022308289 -2.2131155e-21)
(0.34289807 -0.021373412 1.0124216e-21)
(0.35746474 -0.020441986 -1.7156675e-21)
(0.3719583 -0.019518439 1.3532833e-21)
(0.38635536 -0.018606741 7.1849297e-22)
(0.40063412 -0.017710422 1.5271772e-21)
(0.41477442 -0.016832587 -1.9530292e-21)
(0.42875778 -0.015975934 2.2240239e-21)
(0.44256744 -0.015142764 5.5199109e-22)
(0.45618836 -0.014335008 4.0350189e-22)
(0.46960722 -0.013554241 3.2137523e-22)
(0.4828124 -0.012801707 8.7358781e-22)
(0.49579399 -0.012078346 -1.3714048e-21)
(0.50854369 -0.01138482 3.70838e-22)
(0.52105485 -0.010721543 1.0960602e-22)
(0.53332238 -0.010088716 -4.5240599e-23)
(0.54534279 -0.0094863571 8.6657766e-23)
(0.55711406 -0.0089143466 -3.7209466e-22)
(0.56863606 -0.0083724461 1.8312106e-22)
(0.57990943 -0.0078604389 -3.5005857e-23)
(0.59093938 -0.0073779084 3.9067855e-22)
(0.60172488 -0.0069252878 -1.8577589e-22)
(0.61229295 -0.0065009881 4.7384135e-23)
(0.62259838 -0.0061114132 4.372428e-23)
(0.63282547 -0.005740854 -7.3816648e-23)
(0.64251401 -0.0054493324 -1.2139378e-22)
(0.65311132 -0.0050757764 3.8955339e-22)
(0.66066792 -0.0051601805 1.7325059e-22)
(0.67633581 -0.0043137404 -8.3113964e-22)
(0.15021844 -0.03146135 1.5010666e-21)
(0.15355029 -0.03525839 -1.1566752e-20)
(0.1606199 -0.038011991 6.644256e-21)
(0.1688099 -0.039480235 -1.3324987e-20)
(0.17698657 -0.040521887 -1.9758691e-21)
(0.18552815 -0.04130354 9.1601857e-21)
(0.19458927 -0.041758556 -9.7665473e-21)
(0.20409241 -0.041915088 1.566213e-21)
(0.21399361 -0.041834764 1.2904085e-20)
(0.22428239 -0.041555823 3.4033476e-21)
(0.23493945 -0.041103586 -6.2098405e-21)
(0.24593766 -0.040502042 -2.8639542e-21)
(0.25724961 -0.039773391 -5.8409353e-21)
(0.26884776 -0.038936748 -6.4555499e-21)
(0.28070352 -0.038008716 3.2356183e-21)
(0.29278762 -0.037004092 8.4603451e-22)
(0.30507047 -0.035936163 1.3680722e-21)
(0.31752251 -0.034816908 -3.3851414e-21)
(0.33011432 -0.033657185 -4.2431738e-21)
(0.34281688 -0.032466882 2.3618117e-21)
(0.35560178 -0.031255035 3.2254127e-21)
(0.36844136 -0.030029909 -1.5638404e-21)
(0.38130892 -0.028799052 1.5868639e-21)
(0.39417881 -0.027569342 -3.9133841e-22)
(0.40702664 -0.026347018 -3.9201506e-21)
(0.4198293 -0.025137695 -3.0335173e-21)
(0.43256512 -0.023946393 -1.903606e-22)
(0.44521391 -0.022777545 4.2852875e-22)
(0.45775704 -0.021635022 -2.2108309e-21)
(0.47017744 -0.020522152 -8.5528524e-22)
(0.48245964 -0.019441742 2.2839504e-22)
(0.49458979 -0.018396107 -1.2502341e-21)
(0.50655563 -0.017387105 6.1802607e-24)
(0.51834646 -0.016416165 -4.2441214e-22)
(0.52995318 -0.015484331 -4.7201256e-22)
(0.5413682 -0.014592301 -5.2036086e-22)
(0.55258543 -0.013740473 -8.4196112e-22)
(0.56360033 -0.012928988 -5.4452605e-23)
(0.57440976 -0.012157794 -3.9173832e-24)
(0.58501242 -0.011426671 -5.2021231e-22)
(0.59540778 -0.010735426 -9.1552804e-23)
(0.60559974 -0.010083584 -3.3285842e-22)
(0.61558618 -0.0094718444 -4.3840055e-22)
(0.62539223 -0.0088981075 3.7914575e-22)
(0.6349732 -0.0083712794 1.4850809e-23)
(0.64450571 -0.0078698842 1.8288585e-22)
(0.65354706 -0.0074762087 -1.3307957e-22)
(0.66348136 -0.00697031 -2.6787141e-22)
(0.67054002 -0.0070874362 -4.4153389e-23)
(0.68532095 -0.0059420626 4.6275082e-22)
(0.25469003 -0.036553968 -2.0900697e-20)
(0.25447481 -0.041394801 4.7586676e-20)
(0.25907823 -0.044747036 1.0348241e-20)
(0.26508935 -0.046443497 -1.57656e-20)
(0.27071489 -0.047715841 -2.0228907e-21)
(0.27652586 -0.048749375 2.6232117e-21)
(0.28284179 -0.049415389 -1.6609201e-21)
(0.28958361 -0.049729839 -4.6862378e-21)
(0.29670372 -0.049763238 -4.0160035e-21)
(0.30421307 -0.049558927 -1.2207913e-20)
(0.31211028 -0.049143626 1.789829e-20)
(0.32037799 -0.048542804 6.5222337e-21)
(0.32899617 -0.04778103 -1.6780938e-20)
(0.3379438 -0.046880145 1.0317667e-20)
(0.34719748 -0.045859487 8.3850284e-21)
(0.35673183 -0.044736561 -8.7907418e-22)
(0.36652025 -0.043527376 -3.1221782e-21)
(0.37653545 -0.042246618 -3.8200344e-21)
(0.38674979 -0.040907792 -1.3893971e-21)
(0.39713555 -0.039523349 -1.2305516e-21)
(0.40766526 -0.038104785 -3.0260599e-21)
(0.41831196 -0.036662702 0)
(0.42904936 -0.03520686 -1.345348e-21)
(0.43985209 -0.033746205 3.9312016e-21)
(0.45069581 -0.032288893 5.4058e-21)
(0.46155736 -0.030842307 -9.4116546e-22)
(0.47241484 -0.029413075 -2.9279731e-21)
(0.48324775 -0.028007085 3.0264935e-21)
(0.49403696 -0.026629504 2.542997e-22)
(0.50476483 -0.025284806 3.4359934e-21)
(0.51541523 -0.023976799 -5.3464006e-22)
(0.52597349 -0.022708659 1.717712e-21)
(0.53642647 -0.021482969 -7.999215e-22)
(0.54676252 -0.020301767 2.9116277e-22)
(0.55697144 -0.01916659 -4.342922e-22)
(0.56704452 -0.01807853 5.6251388e-22)
(0.57697447 -0.017038289 4.5738039e-22)
(0.58675547 -0.016046238 3.8282461e-22)
(0.59638308 -0.015102497 -9.600937e-22)
(0.60585462 -0.014206964 6.8415633e-22)
(0.61516817 -0.013359563 -3.699296e-22)
(0.62432614 -0.012559859 -1.1047441e-21)
(0.63332515 -0.011808889 1.4099206e-21)
(0.64218805 -0.011104159 -6.2089044e-23)
(0.65087096 -0.010457003 -1.5849939e-22)
(0.65954091 -0.0098406786 -7.8460117e-24)
(0.66777746 -0.0093580224 -1.2679426e-22)
(0.6768849 -0.0087356111 -4.6733297e-22)
(0.68332334 -0.008884245 8.7847569e-22)
(0.69699252 -0.0074768753 -4.4371094e-23)
(0.37635681 -0.038369663 -1.7495427e-20)
(0.37171553 -0.044271812 1.2832209e-20)
(0.37287295 -0.048163286 2.9755916e-21)
(0.37591683 -0.050100608 -7.635507e-21)
(0.37831198 -0.05167181 1.20562e-20)
(0.38073 -0.053044294 7.7915611e-21)
(0.38368346 -0.054032042 -1.2647874e-20)
(0.38710842 -0.054635185 -6.0681004e-21)
(0.39093751 -0.054920164 1.2697608e-20)
(0.39519116 -0.05492937 -1.5305461e-20)
(0.39988346 -0.054689827 -1.4063505e-20)
(0.40500479 -0.054227039 1.4130161e-20)
(0.41053888 -0.053566119 6.8195572e-21)
(0.41646802 -0.052730481 -4.2041488e-21)
(0.4227716 -0.051741621 -1.8544323e-21)
(0.42942615 -0.050619426 -4.058101e-21)
(0.43640629 -0.049382451 5.3047067e-21)
(0.44368551 -0.04804805 3.6683163e-21)
(0.45123659 -0.046632447 -3.2408766e-21)
(0.45903198 -0.045150791 3.1380461e-21)
(0.46704416 -0.043617216 2.7668804e-21)
(0.47524596 -0.042044867 -3.2113379e-21)
(0.48361077 -0.040445931 3.705807e-22)
(0.49211274 -0.03883164 -3.2572897e-21)
(0.500727 -0.037212288 7.2464626e-21)
(0.50942977 -0.035597236 6.1087721e-21)
(0.51819843 -0.033994926 8.0997802e-22)
(0.52701169 -0.032412892 -1.7685351e-21)
(0.53584958 -0.030857787 3.7030586e-21)
(0.54469354 -0.029335408 7.1901816e-21)
(0.55352643 -0.027850727 2.3053285e-21)
(0.56233254 -0.02640794 3.3174192e-21)
(0.57109759 -0.025010512 1.9961416e-21)
(0.57980874 -0.02366123 7.4586669e-22)
(0.58845458 -0.022362262 -2.6378565e-22)
(0.59702508 -0.021115227 2.7215891e-21)
(0.60551162 -0.01992126 6.2023842e-22)
(0.61390699 -0.018781081 2.9503165e-22)
(0.62220533 -0.017695098 5.626078e-23)
(0.6304025 -0.01666344 9.9057648e-22)
(0.63849512 -0.015686257 4.7047012e-23)
(0.64648401 -0.014763252 4.4304994e-22)
(0.65436449 -0.013895887 -1.263594e-22)
(0.66215694 -0.013081396 -2.7785472e-22)
(0.66981858 -0.012333437 -1.5249227e-22)
(0.67750539 -0.011620595 -4.2309917e-22)
(0.68482319 -0.011064188 1.6205534e-22)
(0.69298287 -0.010343749 -1.2760012e-22)
(0.69871231 -0.010522316 -5.0102408e-22)
(0.71109808 -0.008896283 2.4618194e-22)
(0.50928073 -0.035976034 3.6471185e-21)
(0.49953706 -0.042962505 -1.8958507e-20)
(0.4962825 -0.047385394 -2.3084366e-21)
(0.49556317 -0.049738788 5.4870283e-21)
(0.4941771 -0.051820142 3.0529068e-21)
(0.49270365 -0.053707599 -4.9797173e-23)
(0.49182057 -0.055189927 6.1898918e-21)
(0.49152317 -0.056267765 7.6252831e-21)
(0.49172074 -0.056992986 9.8582116e-21)
(0.49242023 -0.057398113 -1.1250318e-20)
(0.49364102 -0.057508925 -2.1580037e-20)
(0.49537824 -0.057351125 -3.9355507e-21)
(0.49761567 -0.056949922 1.5938642e-20)
(0.50033457 -0.056329882 1.2809362e-20)
(0.50351381 -0.055514689 -5.9067582e-21)
(0.5071293 -0.054526884 1.3815687e-21)
(0.51115485 -0.053387905 -3.6603667e-21)
(0.51556293 -0.052118145 2.2447757e-21)
(0.52032523 -0.05073694 -2.912394e-22)
(0.52541311 -0.049262547 -1.8655167e-21)
(0.53079789 -0.047712136 7.8272023e-21)
(0.53645122 -0.046101783 -2.9320648e-22)
(0.54234528 -0.044446466 4.1830655e-22)
(0.54845304 -0.042760049 -6.5637699e-22)
(0.5547484 -0.041055286 -4.3033184e-21)
(0.56120634 -0.039343816 4.208922e-21)
(0.56780301 -0.037636171 1.9032129e-21)
(0.57451587 -0.035941793 -3.3085743e-21)
(0.58132368 -0.034269055 -4.1120008e-21)