/*--------------------------------*- C++ -*----------------------------------*\
  =========                 |
  \\      /  F ield         | OpenFOAM: The Open Source CFD Toolbox
   \\    /   O peration     | Website:  https://openfoam.org
    \\  /    A nd           | Version:  6
     \\/     M anipulation  |
\*---------------------------------------------------------------------------*/
FoamFile
{
    version     2.0;
    format      ascii;
    class       surfaceScalarField;
    location    "189";
    object      phi;
}
// * * * * * * * * * * * * * * * * * * * * * * * * * * * * * * * * * * * * * //

dimensions      [0 3 -1 0 0 0 0];

internalField   nonuniform List<scalar> 
18180
(
0.0003187292
-0.00016316004
-0.00015556917
0.0013092108
-0.0013669159
0.00037643428
0.003032887
-0.0033336198
0.0016099436
0.0055497725
-0.0059759591
0.0034590736
0.0089181952
-0.0092390796
0.0058706569
0.01319281
-0.01307953
0.0088049151
0.018421938
-0.017459841
0.012230713
0.024644599
-0.0223458
0.016123139
0.031887363
-0.027703317
0.020460553
0.040161271
-0.033495808
0.025221899
0.049459156
-0.03968244
0.030384556
0.059753708
-0.046217211
0.035922659
0.070996716
-0.053048851
0.041805843
0.083119919
-0.060121587
0.047998384
0.096038091
-0.06737684
0.054458668
0.10965488
-0.074756001
0.061139215
0.12387081
-0.082204093
0.06798816
0.13859854
-0.089674076
0.074946349
0.15383663
-0.097148823
0.081910725
-0.10462596
0.08867888
0.16978371
0.000397497
-0.00056065703
0.0016095944
-0.0025790133
0.0036893173
-0.0054133427
0.0066874423
-0.008974084
0.01065065
-0.013202287
0.015617866
-0.018046746
0.021616254
-0.023458229
0.028657251
-0.029386797
0.036732937
-0.035779002
0.045813135
-0.042576006
0.055843677
-0.049712983
0.066746191
-0.057119725
0.078419647
-0.064722307
0.090743762
-0.072445702
0.10358405
-0.080217125
0.11679789
-0.087969847
0.13024076
-0.095646962
0.14377296
-0.10320628
0.15725856
-0.11063442
-0.11786189
0.17049449
0.00048062334
-0.0010412804
0.0019186979
-0.0040170878
0.004352478
-0.0078471228
0.0078165618
-0.012438168
0.012337662
-0.017723388
0.017929203
-0.023638287
0.024586244
-0.030115269
0.032281203
-0.037081757
0.040960832
-0.044458631
0.050544912
-0.052160085
0.060927057
-0.060095128
0.071977793
-0.068170461
0.083549784
-0.076294298
0.095484797
-0.084380714
0.10762167
-0.092354002
0.11980424
-0.10015242
0.13188799
-0.10773071
0.14374347
-0.11506176
0.1552487
-0.12213965
-0.12891428
0.16630109
0.00056616959
-0.00160745
0.002227942
-0.0056788602
0.0050006103
-0.010619791
0.008894009
-0.016331567
0.013905255
-0.022734634
0.020011878
-0.02974491
0.027166483
-0.037269874
0.035293411
-0.045208684
0.04428785
-0.053453071
0.054017769
-0.061890004
0.064328711
-0.07040607
0.075051122
-0.078892872
0.086009515
-0.087252691
0.09703249
-0.095403689
0.10796246
-0.10328397
0.11866395
-0.11085391
0.12902965
-0.1180964
0.13898297
-0.12501508
0.14847491
-0.13163159
-0.13794519
0.15750582
0.00065088615
-0.0022583361
0.0025243413
-0.0075523154
0.0056036337
-0.013699084
0.0098644635
-0.020592396
0.015264609
-0.028134779
0.021736407
-0.036216708
0.029182478
-0.044715945
0.03747489
-0.053501096
0.046457997
-0.062436178
0.055954832
-0.071386839
0.065776426
-0.080227664
0.075733007
-0.088849453
0.085645712
-0.097165397
0.095357391
-0.10511537
0.10474121
-0.11266778
0.11370619
-0.1198189
0.12219937
-0.12658958
0.13020456
-0.13302028
0.137738
-0.13916503
-0.14506757
0.14486038
0.00073063574
-0.0029889718
0.0027920859
-0.0096137655
0.0061265736
-0.017033571
0.010666711
-0.025132534
0.016322648
-0.033790717
0.022975241
-0.042869301
0.030474426
-0.05221513
0.038642395
-0.061669065
0.047281184
-0.071074967
0.056183729
-0.080289384
0.065146881
-0.089190817
0.073984594
-0.097687166
0.082539479
-0.10572028
0.090691297
-0.11326719
0.098361451
-0.12033794
0.1055133
-0.12697074
0.11214879
-0.13322507
0.1183024
-0.13917389
0.12403362
-0.14489625
-0.15046329
0.12942935
0.00080073109
-0.0037897029
0.0030139157
-0.01182695
0.0065328936
-0.020552549
0.011240051
-0.029839691
0.016992695
-0.039543362
0.023618543
-0.049495148
0.030918212
-0.0595148
0.038673315
-0.069424167
0.046658769
-0.079060422
0.054657394
-0.088288008
0.062474456
-0.097007879
0.069949953
-0.10516266
0.076966962
-0.11273729
0.0834551
-0.11975532
0.089389111
-0.12627195
0.094783316
-0.13236495
0.099683308
-0.13812506
0.1041565
-0.14364708
0.10828311
-0.14902286
-0.15433356
0.11215338
0.00085605861
-0.0046457615
0.0031720603
-0.014142952
0.0067872251
-0.024167714
0.011529801
-0.034582267
0.017203432
-0.045216993
0.023586546
-0.055878262
0.030439873
-0.066368126
0.037519326
-0.076503621
0.044591797
-0.086132893
0.051451002
-0.095147214
0.057930631
-0.10348751
0.063912776
-0.11114481
0.069330645
-0.11815516
0.074165694
-0.12459037
0.078440257
-0.13054651
0.082207339
-0.13613203
0.085539504
-0.14145723
0.088518564
-0.14662614
0.091227361
-0.15173166
-0.15685205
0.093745846
0.00089026224
-0.0055360238
0.0032482829
-0.016500973
0.0068576214
-0.027777052
0.011492463
-0.039217108
0.016906808
-0.050631338
0.022838893
-0.061810348
0.029023668
-0.072552901
0.035209249
-0.082689202
0.041173928
-0.092097571
0.046740396
-0.10071368
0.051784656
-0.10853177
0.056238408
-0.11559856
0.06008514
-0.12200189
0.063351249
-0.12785648
0.066094216
-0.13328948
0.068390058
-0.13842787
0.070321926
-0.1433891
0.071971239
-0.14827545
0.073411928
-0.15317235
-0.1581477
0.074707581
0.00089981813
-0.006435842
0.0032333802
-0.018834535
0.0067291634
-0.031272836
0.011111176
-0.04359912
0.016092484
-0.055612646
0.021384622
-0.067102485
0.026713884
-0.077882163
0.031839116
-0.087814434
0.036567086
-0.096825541
0.040762272
-0.10490887
0.044349475
-0.11211897
0.04730935
-0.11855844
0.049668407
-0.12436095
0.051485815
-0.12967389
0.052839526
-0.13464319
0.05381382
-0.13940217
0.054489711
-0.14406499
0.05493882
-0.14872456
0.055220547
-0.15345407
0.055380981
-0.15830813
-0.00020237823
0.00020237824
-6.7765569e-13
-0.00067774634
0.00047536811
-1.0710459e-12
-0.0013424255
0.00066467917
7.1160638e-14
-0.0021322937
0.0007898682
1.4815597e-12
-0.0029957725
0.00086347877
2.9636692e-12
-0.0038907395
0.00089496703
4.4173825e-12
-0.0047822948
0.00089155532
6.0291337e-12
-0.0056408919
0.00085859701
7.5919988e-12
-0.0064408668
0.00079997488
9.2651301e-12
-0.0071592876
0.00071842084
1.0713698e-11
-0.007775036
0.00061574837
1.2102293e-11
-0.0082680717
0.0004930357
1.3065362e-11
-0.0086188531
0.00035078138
1.3786704e-11
-0.0088079037
0.00018905061
1.3943398e-11
-0.0088155571
7.6533609e-06
1.370712e-11
-0.0086219805
-0.00019357655
1.283895e-11
-0.008207439
-0.00041454159
1.1499119e-11
-0.0075518895
-0.00065554947
9.51023e-12
-0.0066345759
-0.00091731359
7.038054e-12
-0.0011862304
-0.0054483456
4.0847876e-12
-0.00018797445
0.00039035269
-0.00062500698
0.00091240065
-0.0012287532
0.0012684254
-0.0019351944
0.0014963095
-0.0026921392
0.0016204235
-0.003456284
0.0016591119
-0.0041910671
0.0016263385
-0.0048648589
0.0015323887
-0.0054495241
0.0013846401
-0.0059192871
0.0011881838
-0.0062498159
0.0009462772
-0.0064174809
0.00066070071
-0.0063987497
0.00033205023
-0.0061697083
-3.9990815e-05
-0.0057057357
-0.00045631924
-0.004981424
-0.00091788828
-0.003970794
-0.0014251715
-0.0026472164
-0.0019791271
-0.0009832612
-0.0025812688
-0.0032017806
0.001032289
-0.00015892784
0.00054928053
-0.00051889142
0.0012723642
-0.00100077
0.0017503039
-0.0015412594
0.0020367989
-0.0020873499
0.002166514
-0.0025937352
0.0021654973
-0.0030208684
0.0020534716
-0.0033332939
0.0018448142
-0.0034983025
0.0015496488
-0.0034848554
0.0011747366
-0.0032626996
0.00072412142
-0.0028016489
0.00019964999
-0.0020709496
-0.00039864902
-0.0010387671
-0.0010721733
0.0003282439
-0.0018233303
0.0020652157
-0.0026548601
0.0042090275
-0.0035689833
0.0067979988
-0.0045680985
0.0098718211
-0.0056550911
-0.0067797343
0.013449775
-0.00011756694
0.00066684747
-0.00036699851
0.0015217958
-0.00067351359
0.002056819
-0.00097482558
0.0023381108
-0.001216854
0.0024085424
-0.0013515942
0.0023002375
-0.00133546
0.0020373374
-0.0011278291
0.0016371833
-0.00068984608
0.0011116658
1.6529071e-05
0.00046836146
0.0010293056
-0.00028865513
0.0023871088
-0.0011581532
0.0041297251
-0.0021412653
0.0062985838
-0.003241032
0.008937263
-0.0044620095
0.012092046
-0.0058096436
0.015812298
-0.0072892347
0.020150161
-0.0089059613
0.025160346
-0.010665276
-0.012492611
0.030873222
-6.6907632e-05
0.00073375511
-0.0001791665
0.0016340547
-0.00026653382
0.0021441863
-0.00026769151
0.0023392685
-0.00012719439
0.0022680453
0.00020616664
0.0019668765
0.00078069308
0.001462811
0.0016429483
0.00077492802
0.0028387274
-8.4113261e-05
0.0044138426
-0.0011067538
0.0064146874
-0.0022894999
0.0088886522
-0.0036321181
0.011884451
-0.0051370638
0.015452449
-0.00680903
0.019645039
-0.0086545995
0.02451726
-0.010681865
0.030127675
-0.01289965
0.036538884
-0.01531717
0.043818282
-0.017944674
-0.020682528
0.052008199
-9.9846258e-06
0.00074373973
3.4534966e-05
0.0015895351
0.00019989013
0.0019788312
0.00054676563
0.001992393
0.0011322469
0.001682564
0.0020109807
0.0010881427
0.0032361392
0.00023765248
0.004860303
-0.00084923576
0.0069361185
-0.0021599288
0.0095166727
-0.003687308
0.012655701
-0.0054285283
0.016407693
-0.0073841095
0.020827816
-0.0095571871
0.025971758
-0.011952973
0.031895628
-0.014578469
0.038656254
-0.01744249
0.046312368
-0.020555764
0.054926669
-0.02393147
0.064569652
-0.027587658
-0.03140558
0.075292704
5.0751294e-05
0.00069298844
0.00026565769
0.0013746287
0.00070825418
0.0015362347
0.0014390299
0.0012616173
0.0025168196
0.00060477432
0.0039995653
-0.00039460298
0.0059449127
-0.0017076949
0.0084106005
-0.0033149235
0.01145459
-0.0052039187
0.015135036
-0.0073677537
0.019510015
-0.0098035075
0.024637002
-0.012511096
0.030572132
-0.015492317
0.037369303
-0.018750144
0.045079243
-0.022288409
0.053748964
-0.026112211
0.063422576
-0.030229376
0.074144678
-0.034653573
0.085969305
-0.039412284
-0.044388486
0.098952211
0.00011379627
0.00057919216
0.00050850328
0.00097992165
0.001245982
0.00079875592
0.002386777
0.00012082233
0.0039912398
-0.00099968848
0.0061198743
-0.0025232375
0.0088333172
-0.0044211379
0.012192162
-0.0066737681
0.016256552
-0.0092683091
0.021085438
-0.01219664
0.026735539
-0.015453608
0.033260012
-0.01903557
0.040706871
-0.022939176
0.049117176
-0.027160448
0.058523135
-0.031694369
0.068946484
-0.03653556
0.080398301
-0.041681193
0.092882125
-0.047137397
0.10640546
-0.052935619
-0.058995652
0.12101262
0.00017849578
0.00040069638
0.00076002973
0.0003983877
0.0018053385
-0.00024655286
0.0033747129
-0.0014485521
0.0055289942
-0.0031539697
0.0083293174
-0.0053235607
0.011836487
-0.0079283077
0.016110055
-0.010947336
0.021207037
-0.014365292
0.027180297
-0.018169899
0.03407661
-0.022349921
0.041934468
-0.026893428
0.050781649
-0.031786357
0.06063258
-0.037011379
0.071485483
-0.042547273
0.083319372
-0.048369449
0.096091841
-0.054453661
0.1097404
-0.06078596
0.12419598
-0.067391193
-0.0742746
0.13947493
0.00024512721
0.0010199492
0.0023833399
0.0043938615
0.0071105486
0.010591903
0.014894309
0.020070112
0.026165373
0.033217373
0.041252008
0.05028124
0.060300726
0.07128773
0.083199126
0.095968892
0.10950339
0.12366378
0.13818331
0.15258759
-0.0035077204
-0.0019406252
4.593023e-13
-0.0012859357
-0.0022217847
-6.5224228e-12
0.0011946732
-0.0024806089
-1.452901e-11
0.0038772072
-0.002682534
-2.3033298e-11
0.0067348627
-0.0028576554
-3.2484843e-11
0.0097503337
-0.0030154709
-4.1637625e-11
0.012904685
-0.0031543517
-5.1070431e-11
0.016179895
-0.0032752099
-6.0053655e-11
0.019560262
-0.0033803666
-6.8443867e-11
0.023031567
-0.0034713045
-7.6041887e-11
0.026580523
-0.0035489559
-8.2397536e-11
0.030194705
-0.0036141824
-8.7205949e-11
0.033862471
-0.0036677658
-8.9998876e-11
0.037572824
-0.0037103527
-9.0482842e-11
0.041315312
-0.0037424883
-8.8246683e-11
0.045079964
-0.0037646518
-8.3096642e-11
0.048857239
-0.0037772745
-7.4801676e-11
0.052637992
-0.0037807533
-6.3417432e-11
0.056413456
-0.0037754644
-4.9032984e-11
0.060175232
-0.0037617757
-3.2073094e-11
0.063915287
-0.0037400551
-1.3031912e-11
0.067625964
-0.0037106768
7.2421819e-12
0.071299989
-0.0036740252
2.7853778e-11
0.074930487
-0.0036304974
4.7593978e-11
0.078510989
-0.0035805027
6.5327394e-11
0.082035451
-0.0035244619
7.9729469e-11
0.085498256
-0.0034628053
8.9772609e-11
0.088894225
-0.0033959691
9.4413895e-11
0.092218618
-0.0033243925
9.3180916e-11
0.095467131
-0.0032485137
8.5726196e-11
0.098635898
-0.0031687668
7.2505252e-11
0.10172148
-0.0030855778
5.4089354e-11
0.10472084
-0.0029993625
3.1948941e-11
0.10763136
-0.0029105242
7.4268768e-12
0.11045081
-0.0028194524
-1.7301183e-11
0.11317734
-0.0027265225
-4.061849e-11
0.11580943
-0.0026320972
-6.0208865e-11
0.11834596
-0.0025365284
-7.4653272e-11
0.12078613
-0.0024401652
-8.2028811e-11
0.12312948
-0.0023433539
-8.1615693e-11
0.12537596
-0.0022464804
-7.2458749e-11
0.12752586
-0.0021498959
-5.4513238e-11
0.12958015
-0.0020542898
-2.7056681e-11
0.1315398
-0.001959651
7.5796428e-12
0.1334089
-0.0018691
4.6198854e-11
0.13518596
-0.0017770581
8.2526316e-11
0.13689542
-0.0017094636
1.0877572e-10
0.13849315
-0.0015977253
1.1613235e-10
0.14017995
-0.0016867996
9.5048225e-11
-0.0013310023
7.2764383e-12
0.0028529012
-0.0037612374
0.0049500442
-0.0043189276
0.0072928992
-0.0048234639
0.0098190243
-0.0052086591
0.012507358
-0.0055459893
0.015345576
-0.0058536883
0.018316935
-0.0061257115
0.021405031
-0.0063633055
0.024595843
-0.0065711792
0.02787661
-0.0067520714
0.0312352
-0.0069075452
0.03466013
-0.007039113
0.038140545
-0.0071481806
0.041666098
-0.0072359055
0.04522687
-0.0073032609
0.04881333
-0.0073511109
0.052416296
-0.007380241
0.056026925
-0.0073913822
0.059636697
-0.0073852359
0.063237417
-0.0073624965
0.066821227
-0.0073238652
0.070380613
-0.0072700619
0.073908419
-0.0072018316
0.077397869
-0.0071199472
0.080842576
-0.0070252096
0.084236558
-0.0069184442
0.087574249
-0.0068004966
0.090850506
-0.0066722261
0.094060613
-0.0065344987
0.097200278
-0.0063881794
0.10026564
-0.0062341257
0.10325324
-0.0060731802
0.10616004
-0.0059061655
0.1089834
-0.0057338805
0.11172104
-0.0055570965
0.11437108
-0.0053765585
0.11693197
-0.0051929865
0.11940252
-0.0050070802
0.12178189
-0.0048195342
0.12406957
-0.0046310378
0.12626545
-0.0044423618
0.12836977
-0.0042542067
0.13038342
-0.0040679492
0.13230734
-0.0038835704
0.13414552
-0.0037072791
0.13589648
-0.0035280177
0.1375842
-0.0033971854
0.13916559
-0.0031791083
0.14083624
-0.0033574518
-0.0026595503
0.015021108
-0.0053325704
0.016852204
-0.0061500238
0.018905737
-0.0068769964
0.021111777
-0.0074146997
0.023458692
-0.0078929038
0.025942827
-0.0083378236
0.028551565
-0.0087344494
0.031271426
-0.009083166
0.034091308
-0.0093910616
0.037000982
-0.0096617457
0.039990328
-0.0098968907
0.043049484
-0.010098269
0.046168926
-0.010267623
0.049339399
-0.010406378
0.052551872
-0.010515735
0.055797536
-0.010596774
0.059067798
-0.010650504
0.062354298
-0.010677882
0.065648913
-0.01067985
0.068943776
-0.01065736
0.072231301
-0.01061139
0.0755042
-0.010542961
0.078755508
-0.010453139
0.081978603
-0.010343042
0.085167226
-0.010213833
0.0883155
-0.010066718
0.091417939
-0.0099029361
0.094469462
-0.009723749
0.097465394
-0.0095304301
0.10040147
-0.0093242551
0.10327383
-0.0091064877
0.10607902
-0.0088783726
0.10881398
-0.0086411262
0.11147603
-0.0083959295
0.11406286
-0.0081439261
0.11657252
-0.00788622
0.11900342
-0.0076238808
0.12135429
-0.0073579492
0.12362421
-0.0070894599
0.12581262
-0.0068194419
0.1279193
-0.0065490476
0.12994442
-0.0062793264
0.13188881
-0.0060123355
0.1337533
-0.0057480646
0.13554175
-0.0054957272
0.13725277
-0.005239032
0.13890936
-0.0050537812
0.14047077
-0.0047405167
0.14212198
-0.0050086648
-0.0039963357
0.032056509
-0.0065158575
0.033471702
-0.0075652166
0.035077201
-0.0084824953
0.036800029
-0.0091375283
0.038640873
-0.0097337476
0.040606029
-0.01030298
0.042688326
-0.010816747
0.044878241
-0.011273081
0.047168198
-0.011681018
0.049550967
-0.012044515
0.052018842
-0.012364766
0.054563867
-0.012643294
0.057178031
-0.012881786
0.05985329
-0.013081637
0.062581583
-0.013244027
0.065354865
-0.013370056
0.068165155
-0.013460794
0.071004576
-0.013517303
0.073865394
-0.013540669
0.076740058
-0.013532024
0.079621235
-0.013492567
0.082501846
-0.013423571
0.085375094
-0.013326388
0.088234498
-0.013202446
0.091073914
-0.013053249
0.093887553
-0.012880357
0.096670001
-0.012685385
0.099416229
-0.012469977
0.1021216
-0.012235798
0.10478186
-0.011984519
0.10739317
-0.011717795
0.10995205
-0.011437259
0.11245544
-0.011144507
0.1149006
-0.010841094
0.1172852
-0.010528523
0.11960722
-0.010208248
0.12186503
-0.0098816824
0.12405728
-0.0095502006
0.12618299
-0.0092151729
0.12824151
-0.0088779657
0.13023258
-0.0085401103
0.13215626
-0.0082030059
0.1340133
-0.0078693821
0.1358045
-0.007539261
0.13753351
-0.0072247378
0.13919913
-0.0069046548
0.14082301
-0.0066776541
0.14236783
-0.0062853456
0.14400334
-0.0066441685
-0.0053572523
0.052648487
-0.0071561454
0.053489068
-0.008405797
0.054483175
-0.009476603
0.055565123
-0.010219476
0.056749726
-0.010918351
0.05805128
-0.011604534
0.059468295
-0.012233761
0.060995903
-0.012800689
0.062629894
-0.013315008
0.064365669
-0.013780291
0.066197708
-0.014196805
0.068119741
-0.014565327
0.070125004
-0.014887049
0.072206395
-0.015163028
0.074356567
-0.015394199
0.076568006
-0.015581496
0.07883312
-0.015725909
0.081144317
-0.015828499
0.083494065
-0.015890418
0.085874964
-0.015912923
0.088279786
-0.015897389
0.090701529
-0.015845314
0.093133454
-0.015758312
0.095569119
-0.015638111
0.098002409
-0.015486539
0.10042756
-0.015305505
0.10283916
-0.015096989
0.1052322
-0.014863014
0.10760203
-0.014605633
0.10994442
-0.0143269
0.11225548
-0.014028861
0.11453175
-0.013713529
0.11677012
-0.013382879
0.11896786
-0.013038829
0.12112258
-0.01268324
0.12323224
-0.012317915
0.12529516
-0.011944603
0.12730998
-0.011565014
0.12927565
-0.011180852
0.13119151
-0.010793821
0.13305723
-0.010405832
0.13487286
-0.010018638
0.13663911
-0.0096356323
0.13835675
-0.0092569007
0.14002928
-0.0088972654
0.14165579
-0.0085311658
0.14325625
-0.0082781109
0.14479779
-0.0078268811
0.14643121
-0.0082775936
-0.0067655392
0.075221681
-0.0070851224
0.075326634
-0.0085107493
0.075550992
-0.0097009616
0.075851273
-0.010519756
0.076255511
-0.011322589
0.076780558
-0.012129581
0.077429451
-0.012882654
0.078202118
-0.013573357
0.07909687
-0.014209759
0.080110556
-0.014793977
0.081238934
-0.015325183
0.082476707
-0.015803101
0.083817691
-0.016228034
0.085255107
-0.016600444
0.086781778
-0.016920869
0.088390251
-0.017189968
0.090072907
-0.017408565
0.091822068
-0.01757766
0.09363009
-0.01769844
0.095489435
-0.017772268
0.097392738
-0.017800692
0.099332855
-0.017785432
0.10130292
-0.017728375
0.10329636
-0.017631557
0.10530697
-0.017497145
0.10732888
-0.017327411
0.1093566
-0.017124714
0.11138506
-0.016891469
0.11340955
-0.016630124
0.11542578
-0.016343135
0.11742986
-0.016032943
0.11941829
-0.015701955
0.12138794
-0.015352526
0.12333606
-0.01498695
0.12526027
-0.01460745
0.12715853
-0.014216182
0.12902917
-0.01381524
0.13087083
-0.013406672
0.1326825
-0.012992524
0.13446352
-0.012574843
0.13621362
-0.012155924
0.13793286
-0.011737883
0.13962199
-0.011324766
0.14128186
-0.010916767
0.14291585
-0.010531256
0.14452348
-0.010138796
0.14612287
-0.0098774965
0.1476863
-0.0093903114
0.14934323
-0.0099345232
-0.0082533096
0.09802521
-0.0061581217
0.09725793
-0.0077434692
0.096581632
-0.0090246635
0.095997188
-0.0099353116
0.095540725
-0.010866127
0.095223476
-0.011812332
0.095050809
-0.012709987
0.095026725
-0.013549273
0.095150758
-0.014333793
0.095419643
-0.015062861
0.095829019
-0.015734559
0.096373476
-0.016347558
0.097046529
-0.016901087
0.097840946
-0.017394862
0.098749044
-0.017828967
0.099762849
-0.018203774
0.10087423
-0.018519942
0.10207499
-0.018778426
0.10335702
-0.018980466
0.10471232
-0.019127565
0.1061331
-0.019221474
0.10761185
-0.01926418
0.10914135
-0.01925788
0.11071475
-0.019204958
0.11232557
-0.019107958
0.11396771
-0.018969558
0.11563553
-0.018792527
0.11732377
-0.01857971
0.11902763
-0.018333985
0.12074273
-0.018058235
0.12246512
-0.01775533
0.12419125
-0.017428091
0.125918
-0.017079279
0.12764264
-0.016711585
0.12936281
-0.016327615
0.13107652
-0.015929894
0.13278216
-0.015520878
0.13447845
-0.015102968
0.1361645
-0.014678567
0.13783973
-0.014250077
0.139504
-0.013820191
0.14115752
-0.013391401
0.14280116
-0.012968407
0.14443593
-0.012551544
0.14606523
-0.012160552
0.14768911
-0.011762673
0.14932379
-0.011512176
0.15094719
-0.011013713
0.15266621
-0.011653546
-0.0098623229
0.11918898
-0.004334475
0.11749637
-0.0060508621
0.11585685
-0.007385142
0.11435432
-0.0084327791
0.11302501
-0.0095368213
0.11186644
-0.010653764
0.11088408
-0.011727623
0.1100842
-0.012749394
0.10946622
-0.013715809
0.10902554
-0.014622179
0.10875634
-0.015465367
0.10865198
-0.016243194
0.10870485
-0.016953956
0.10890664
-0.017596653
0.10924863
-0.018170954
0.10972187
-0.018677017
0.11031734
-0.019115413
0.11102603
-0.019487119
0.11183906
-0.019793496
0.11274775
-0.020036252
0.11374369
-0.020217412
0.11481879
-0.020339287
0.11596537
-0.020404451
0.1171761
-0.020415694
0.11844414
-0.020376001
0.11976309
-0.020288502
0.12112701
-0.020156445
0.12253044
-0.019983149
0.12396843
-0.01977197
0.12543647
-0.019526274
0.12693053
-0.019249392
0.12844705
-0.018944608
0.1299829
-0.01861513
0.13153539
-0.018264074
0.13310223
-0.017894464
0.13468157
-0.017509225
0.13627189
-0.017111201
0.1378721
-0.016703177
0.13948146
-0.016287929
0.14109962
-0.015868242
0.14272666
-0.015447225
0.14436302
-0.015027765
0.14600983
-0.014615216
0.14766839
-0.014210103
0.14934219
-0.013834354
0.15103196
-0.013452445
0.15275209
-0.013232299
0.15448636
-0.012747987
0.156319
-0.013486189
-0.011643927
0.13689595
-0.0017555037
0.13437799
-0.0035328999
0.13181942
-0.0048265719
0.12946235
-0.0060757115
0.127334
-0.0074084634
0.12541572
-0.0087354902
0.12371036
-0.010022263
0.12222301
-0.011262037
0.1209521
-0.012444905
0.11989188
-0.013561955
0.11903483
-0.014608317
0.1183726
-0.015580971
0.11789621
-0.016477565
0.11759613
-0.017296566
0.11746248
-0.018037306
0.11748526
-0.018699794
0.11765444
-0.019284598
0.11796012
-0.019792793
0.11839255
-0.020225928
0.11894228
-0.020585985
0.11960019
-0.020875326
0.12035756
-0.021096657
0.12120611
-0.021252993
0.12213801
-0.021347601
0.12314598
-0.021383968
0.12422323
-0.021365751
0.12536352
-0.021296731
0.12656114
-0.02118077
0.12781093
-0.021021767
0.12910828
-0.020823619
0.13044908
-0.020590187
0.13182973
-0.020325264
0.13324716
-0.020032554
0.13469873
-0.019715649
0.1361823
-0.019378034
0.13769615
-0.019023075
0.13923899
-0.018654045
0.14080996
-0.018274139
0.14240858
-0.017886549
0.1440348
-0.017494468
0.14568902
-0.017101448
0.14737206
-0.016710797
0.14908538
-0.016328536
0.15083069
-0.015955419
0.15261173
-0.015615395
0.15443
-0.015270708
0.15629814
-0.015100438
0.15820596
-0.014655806
0.16021541
-0.015495646
-0.013658162
0.15005209
0.00077999771
0.14676315
-0.00024395438
0.14346581
-0.0015292335
0.14041803
-0.0030279327
0.13762314
-0.0046135699
0.13507487
-0.0061872262
0.13277507
-0.0077224642
0.13072382
-0.0092107871
0.12891868
-0.010639766
0.12735445
-0.011997725
0.12602331
-0.01327717
0.12491584
-0.014473502
0.12402187
-0.015583597
0.12333074
-0.016605439
0.12283147
-0.017538038
0.12251295
-0.018381274
0.12236411
-0.019135751
0.12237402
-0.019802707
0.12253204
-0.020383945
0.12282784
-0.020881783
0.1232515
-0.021298994
0.1237936
-0.021638752
0.12444519
-0.021904584
0.1251979
-0.022100312
0.12604394
-0.022230005
0.1269761
-0.022297917
0.12798782
-0.022308444
0.12907311
-0.022266062
0.13022663
-0.022175284
0.13144362
-0.022040615
0.13271994
-0.021866506
0.134052
-0.021657326
0.13543678
-0.021417334
0.13687179
-0.02115066
0.13835506
-0.020861297
0.13988509
-0.020553104
0.14146087
-0.020229824
0.14308184
-0.019895111
0.1447479
-0.019552606
0.14645937
-0.019205945
0.14821708
-0.018859157
0.15002228
-0.018515991
0.1518769
-0.018183164
0.15378315
-0.017861666
0.15574514
-0.017577387
0.15776507
-0.017290631
0.15985445
-0.017189823
0.16200754
-0.016808898
0.16426908
-0.017757181
-0.015969996
0.18890878
0.0053820997
-0.19351088
0.18509874
0.0035660835
0.18170671
0.001862801
0.17856158
0.00011719304
0.17562602
-0.0016780106
0.172875
-0.0034362007
0.17029028
-0.0051377481
0.16786288
-0.0067833872
0.16558892
-0.008365801
0.16346623
-0.0098750397
0.16149297
-0.011303905
0.15966701
-0.012647546
0.15798572
-0.013902307
0.1564458
-0.015065524
0.15504334
-0.016135577
0.15377387
-0.017111798
0.15263245
-0.017994335
0.1516138
-0.018784054
0.15071233
-0.019482479
0.14992228
-0.020091727
0.14923773
-0.02061445
0.14865275
-0.021053769
0.14816138
-0.021413218
0.14775776
-0.021696684
0.14743609
-0.021908343
0.14719078
-0.022052606
0.14701639
-0.02213405
0.14690769
-0.022157367
0.14685972
-0.02212731
0.14686774
-0.022048635
0.1469273
-0.021926062
0.14703421
-0.021764238
0.14718458
-0.021567703
0.14737479
-0.021340872
0.14760151
-0.021088022
0.14786171
-0.0208133
0.14815262
-0.020520732
0.14847176
-0.02021426
0.14881697
-0.019897816
0.14918636
-0.019575332
0.14957837
-0.019251166
0.14999176
-0.018929382
0.15042577
-0.018617169
0.15087986
-0.01831576
0.15135466
-0.018052187
0.15185002
-0.017785986
0.1523704
-0.017710211
0.15291152
-0.017350013
0.15349633
-0.018341988
-0.016562601
0.21685767
0.0087804315
-0.220256
0.21338378
0.0070399716
0.21017097
0.0050756141
0.20706565
0.0032225071
0.20401906
0.0013685862
0.20106214
-0.00047927914
0.19821177
-0.002287385
0.19547248
-0.0040440951
0.19285016
-0.0057434803
0.19035164
-0.0073765223
0.18798213
-0.0089343902
0.18574501
-0.010410431
0.18364229
-0.011799587
0.18167467
-0.013097899
0.1798416
-0.01430251
0.17814147
-0.015411664
0.17657172
-0.016424588
0.17512904
-0.017341378
0.17380949
-0.018162924
0.1726086
-0.018890837
0.17152153
-0.019527379
0.17054315
-0.020075386
0.16966813
-0.0205382
0.16889104
-0.020919598
0.16820642
-0.021223721
0.16760882
-0.021455006
0.16709288
-0.021618114
0.16665338
-0.021717866
0.16628526
-0.021759184
0.16598365
-0.021747025
0.16574392
-0.021686337
0.1655617
-0.021582013
0.16543285
-0.021438855
0.16535353
-0.02126155
0.16532016
-0.021054658
0.16532947
-0.020822609
0.16537846
-0.020569722
0.16546443
-0.020300231
0.16558498
-0.020018369
0.16573803
-0.019728382
0.16592182
-0.019434957
0.16613496
-0.019142517
0.16637643
-0.018858642
0.16664575
-0.018585074
0.16694275
-0.018349188
0.16726867
-0.018111907
0.16762273
-0.018064269
0.16801323
-0.017740514
0.16842212
-0.018750882
-0.017036404
0.24376659
0.011504386
-0.24649054
0.24091615
0.00989041
0.23806294
0.0079288252
0.23521598
0.0060694699
0.23233817
0.00424639
0.22945035
0.002408542
0.22658374
0.00057923355
0.22375762
-0.0012179759
0.22098791
-0.0029737781
0.21829056
-0.004679173
0.21567943
-0.0063232523
0.2131655
-0.0078965034
0.21075739
-0.0093914814
0.20846167
-0.010802173
0.20628295
-0.012123797
0.20422413
-0.013352845
0.20228656
-0.014487017
0.20047028
-0.015525096
0.1987742
-0.016466847
0.1971963
-0.017312933
0.19573375
-0.018064834
0.19438312
-0.01872475
0.19314044
-0.019295525
0.1920014
-0.019780556
0.19096139
-0.020183713
0.19001565
-0.02050926
0.1891593
-0.020761766
0.18838747
-0.020946038
0.18769533
-0.021067042
0.18707814
-0.021129839
0.18653133
-0.021139523
0.18605048
-0.02110117
0.18563143
-0.021019797
0.18527021
-0.02090033
0.18496313
-0.020747584
0.18470678
-0.020566261
0.18449803
-0.020360963
0.18433401
-0.020136218
0.18421221
-0.019896565
0.1841304
-0.01964657
0.18408669
-0.01939125
0.1840796
-0.019135425
0.18410794
-0.018886978
0.18417129
-0.018648426
0.18426875
-0.018446651
0.18440304
-0.018246195
0.18456775
-0.018228985
0.18478478
-0.017957545
0.18499023
-0.018956323
-0.017368949
0.26927436
0.013537338
-0.27130731
0.26710632
0.012058455
0.26476455
0.010270587
0.26232533
0.008508696
0.25979658
0.0067751406
0.25718848
0.0050166376
0.25452716
0.0032405519
0.25183679
0.0014723926
0.24913737
-0.00027435707
0.24644871
-0.0019905045
0.24379008
-0.0036646262
0.24117863
-0.0052850553
0.23862909
-0.0068419381
0.23615394
-0.0083270237
0.23376348
-0.0097333361
0.23146587
-0.011055234
0.22926729
-0.01228844
0.22717214
-0.013429947
0.22518322
-0.014477927
0.22330192
-0.015431637
0.22152843
-0.016291336
0.21986186
-0.017058182
0.21830048
-0.017734145
0.21684182
-0.0183219
0.21548285
-0.018824742
0.21422007
-0.019246481
0.21304967
-0.019591359
0.21196758
-0.019863954
0.21096964
-0.0200691
0.21005161
-0.020211804
0.20920926
-0.020297179
0.20843847
-0.020330379
0.20773523
-0.02031655
0.20709569
-0.02026079
0.20651622
-0.02016812
0.20599344
-0.020043475
0.20552419
-0.019891716
0.20510562
-0.01971765
0.20473516
-0.01952611
0.20441058
-0.019321985
0.20412994
-0.019110614
0.20389176
-0.018897241
0.20369476
-0.018689975
0.20353863
-0.018492303
0.20342192
-0.018329933
0.20334851
-0.018172792
0.20330724
-0.018187713
0.20333132
-0.017981625
0.20331555
-0.018940549
-0.017538055
0.29298513
0.014868479
-0.29431627
0.29150589
0.013537697
0.2897834
0.011993079
0.28788476
0.01040733
0.28584485
0.0088150512
0.28367448
0.0071870096
0.28139206
0.0055229738
0.27902083
0.0038436216
0.2765821
0.0021643763
0.27409602
0.00049557136
0.2715828
-0.0011514086
0.26906217
-0.0027644203
0.26655244
-0.0043322092
0.26407021
-0.0058447925
0.26163021
-0.007293342
0.25924522
-0.0086702418
0.25692599
-0.0099692094
0.25468134
-0.011185298
0.25251825
-0.012314839
0.250442
-0.013355386
0.24845631
-0.014305642
0.2465635
-0.015165375
0.24476468
-0.015935326
0.24305989
-0.01661711
0.24144826
-0.017213114
0.23992818
-0.017726398
0.23849741
-0.018160588
0.23715324
-0.018519784
0.2358926
-0.018808456
0.23471215
-0.019031362
0.23360843
-0.019193457
0.23257788
-0.019299828
0.23161695
-0.019355625
0.23072218
-0.019366014
0.2298902
-0.019336141
0.22911784
-0.019271113
0.22840212
-0.019175999
0.22774032
-0.01905585
0.22712998
-0.018915771
0.22656896
-0.018760959
0.2260554
-0.01859706
0.22558791
-0.018429747
0.22516523
-0.018267301
0.22478722
-0.01811429
0.22445204
-0.01799475
0.22416443
-0.017885186
0.22390957
-0.017932851
0.223729
-0.017801053
0.22348388