/*--------------------------------*- C++ -*----------------------------------*\
  =========                 |
  \\      /  F ield         | OpenFOAM: The Open Source CFD Toolbox
   \\    /   O peration     | Website:  https://openfoam.org
    \\  /    A nd           | Version:  6
     \\/     M anipulation  |
\*---------------------------------------------------------------------------*/
FoamFile
{
    version     2.0;
    format      ascii;
    class       surfaceScalarField;
    location    "189";
    object      phi_0;
}
// * * * * * * * * * * * * * * * * * * * * * * * * * * * * * * * * * * * * * //

dimensions      [0 3 -1 0 0 0 0];

internalField   nonuniform List<scalar> 
18180
(
0.00031872921
-0.00016316001
-0.00015556919
0.0013092108
-0.0013669158
0.00037643427
0.003032887
-0.0033336198
0.0016099436
0.0055497725
-0.0059759591
0.0034590736
0.0089181952
-0.0092390796
0.0058706569
0.01319281
-0.01307953
0.0088049151
0.018421938
-0.017459841
0.012230713
0.024644599
-0.0223458
0.016123139
0.031887363
-0.027703317
0.020460553
0.040161271
-0.033495808
0.025221899
0.049459156
-0.03968244
0.030384556
0.059753708
-0.046217211
0.035922659
0.070996716
-0.053048851
0.041805843
0.083119919
-0.060121587
0.047998384
0.096038091
-0.06737684
0.054458668
0.10965488
-0.074756001
0.061139215
0.12387081
-0.082204093
0.067988161
0.13859854
-0.089674076
0.074946349
0.15383663
-0.097148823
0.081910725
-0.10462596
0.08867888
0.16978371
0.000397497
-0.00056065702
0.0016095944
-0.0025790133
0.0036893173
-0.0054133427
0.0066874423
-0.008974084
0.01065065
-0.013202287
0.015617866
-0.018046746
0.021616254
-0.023458229
0.028657251
-0.029386797
0.036732937
-0.035779002
0.045813135
-0.042576006
0.055843677
-0.049712983
0.066746191
-0.057119725
0.078419647
-0.064722307
0.090743762
-0.072445702
0.10358405
-0.080217125
0.11679789
-0.087969847
0.13024076
-0.095646962
0.14377296
-0.10320628
0.15725856
-0.11063442
-0.11786189
0.17049449
0.00048062334
-0.0010412804
0.0019186979
-0.0040170878
0.004352478
-0.0078471229
0.0078165618
-0.012438168
0.012337662
-0.017723388
0.017929203
-0.023638287
0.024586244
-0.030115269
0.032281203
-0.037081757
0.040960832
-0.044458631
0.050544912
-0.052160085
0.060927057
-0.060095128
0.071977793
-0.068170461
0.083549784
-0.076294298
0.095484797
-0.084380714
0.10762167
-0.092354002
0.11980424
-0.10015242
0.13188799
-0.10773071
0.14374347
-0.11506176
0.1552487
-0.12213965
-0.12891428
0.16630109
0.00056616958
-0.00160745
0.002227942
-0.0056788603
0.0050006103
-0.010619791
0.008894009
-0.016331567
0.013905255
-0.022734634
0.020011878
-0.02974491
0.027166483
-0.037269874
0.035293411
-0.045208684
0.04428785
-0.053453071
0.054017769
-0.061890004
0.064328711
-0.07040607
0.075051122
-0.078892872
0.086009515
-0.087252692
0.09703249
-0.095403689
0.10796246
-0.10328397
0.11866395
-0.11085391
0.12902965
-0.1180964
0.13898297
-0.12501508
0.14847491
-0.13163159
-0.13794519
0.15750582
0.00065088613
-0.0022583361
0.0025243413
-0.0075523154
0.0056036337
-0.013699084
0.0098644635
-0.020592396
0.015264609
-0.028134779
0.021736407
-0.036216708
0.029182478
-0.044715945
0.03747489
-0.053501096
0.046457997
-0.062436178
0.055954832
-0.071386839
0.065776426
-0.080227664
0.075733007
-0.088849453
0.085645712
-0.097165397
0.095357391
-0.10511537
0.10474121
-0.11266778
0.11370619
-0.1198189
0.12219937
-0.12658958
0.13020456
-0.13302028
0.137738
-0.13916503
-0.14506757
0.14486038
0.00073063572
-0.0029889719
0.0027920859
-0.0096137656
0.0061265736
-0.017033571
0.010666711
-0.025132534
0.016322648
-0.033790717
0.022975241
-0.042869301
0.030474426
-0.05221513
0.038642395
-0.061669065
0.047281184
-0.071074967
0.056183728
-0.080289384
0.065146881
-0.089190817
0.073984594
-0.097687166
0.082539479
-0.10572028
0.090691297
-0.11326719
0.098361451
-0.12033794
0.1055133
-0.12697074
0.11214879
-0.13322507
0.1183024
-0.13917389
0.12403362
-0.14489625
-0.15046329
0.12942935
0.00080073109
-0.003789703
0.0030139157
-0.01182695
0.0065328936
-0.020552549
0.011240051
-0.029839691
0.016992695
-0.039543362
0.023618543
-0.049495148
0.030918212
-0.0595148
0.038673315
-0.069424167
0.046658769
-0.079060422
0.054657394
-0.088288009
0.062474456
-0.097007879
0.069949953
-0.10516266
0.076966962
-0.11273729
0.0834551
-0.11975532
0.089389111
-0.12627195
0.094783316
-0.13236495
0.099683308
-0.13812506
0.1041565
-0.14364708
0.10828311
-0.14902286
-0.15433356
0.11215338
0.00085605863
-0.0046457616
0.0031720603
-0.014142952
0.0067872251
-0.024167714
0.011529801
-0.034582267
0.017203432
-0.045216993
0.023586546
-0.055878262
0.030439873
-0.066368126
0.037519326
-0.076503621
0.044591797
-0.086132893
0.051451002
-0.095147214
0.057930631
-0.10348751
0.063912776
-0.11114481
0.069330645
-0.11815516
0.074165694
-0.12459037
0.078440257
-0.13054651
0.082207339
-0.13613203
0.085539504
-0.14145723
0.088518564
-0.14662614
0.091227361
-0.15173166
-0.15685205
0.093745846
0.00089026226
-0.005536024
0.003248283
-0.016500973
0.0068576215
-0.027777052
0.011492463
-0.039217108
0.016906808
-0.050631337
0.022838893
-0.061810347
0.029023668
-0.072552901
0.035209249
-0.082689202
0.041173928
-0.092097571
0.046740396
-0.10071368
0.051784656
-0.10853177
0.056238408
-0.11559856
0.06008514
-0.12200189
0.063351249
-0.12785648
0.066094216
-0.13328948
0.068390058
-0.13842787
0.070321926
-0.1433891
0.071971239
-0.14827545
0.073411928
-0.15317235
-0.1581477
0.074707581
0.00089981829
-0.0064358421
0.0032333804
-0.018834535
0.0067291635
-0.031272835
0.011111176
-0.04359912
0.016092484
-0.055612646
0.021384622
-0.067102485
0.026713884
-0.077882163
0.031839116
-0.087814434
0.036567086
-0.096825541
0.040762272
-0.10490887
0.044349475
-0.11211897
0.04730935
-0.11855844
0.049668407
-0.12436095
0.051485815
-0.12967389
0.052839526
-0.13464319
0.05381382
-0.13940217
0.054489711
-0.14406499
0.05493882
-0.14872456
0.055220547
-0.15345407
0.055380981
-0.15830813
-0.00020237823
0.00020237823
1.5694969e-12
-0.00067774634
0.00047536811
1.9727437e-12
-0.0013424255
0.00066467917
3.8545516e-12
-0.0021322937
0.0007898682
6.0055734e-12
-0.0029957725
0.00086347876
7.9328406e-12
-0.0038907395
0.00089496702
9.4992724e-12
-0.0047822949
0.00089155531
1.1091116e-11
-0.0056408919
0.000858597
1.2386532e-11
-0.0064408668
0.00079997488
1.3747924e-11
-0.0071592876
0.00071842083
1.4737327e-11
-0.007775036
0.00061574836
1.5703696e-11
-0.0082680717
0.00049303569
1.6189661e-11
-0.0086188531
0.00035078137
1.6505928e-11
-0.0088079037
0.0001890506
1.6267766e-11
-0.0088155571
7.6533556e-06
1.5677881e-11
-0.0086219806
-0.00019357656
1.4492198e-11
-0.008207439
-0.0004145416
1.2868219e-11
-0.0075518895
-0.00065554947
1.0579281e-11
-0.0066345759
-0.00091731359
7.8354963e-12
-0.0011862304
-0.0054483456
4.6848327e-12
-0.00018797445
0.00039035268
-0.00062500698
0.00091240064
-0.0012287532
0.0012684254
-0.0019351944
0.0014963094
-0.0026921392
0.0016204235
-0.003456284
0.0016591119
-0.0041910672
0.0016263384
-0.0048648589
0.0015323887
-0.0054495241
0.0013846401
-0.0059192871
0.0011881838
-0.0062498159
0.00094627719
-0.0064174809
0.0006607007
-0.0063987497
0.00033205022
-0.0061697083
-3.9990823e-05
-0.0057057357
-0.00045631924
-0.004981424
-0.00091788829
-0.003970794
-0.0014251716
-0.0026472164
-0.0019791271
-0.0009832612
-0.0025812688
-0.0032017806
0.001032289
-0.00015892785
0.00054928052
-0.00051889142
0.0012723642
-0.00100077
0.0017503039
-0.0015412594
0.0020367988
-0.0020873499
0.002166514
-0.0025937353
0.0021654973
-0.0030208684
0.0020534716
-0.0033332939
0.0018448142
-0.0034983025
0.0015496488
-0.0034848554
0.0011747366
-0.0032626996
0.00072412141
-0.0028016489
0.00019964998
-0.0020709496
-0.00039864903
-0.0010387671
-0.0010721733
0.0003282439
-0.0018233303
0.0020652158
-0.0026548601
0.0042090275
-0.0035689833
0.0067979988
-0.0045680985
0.0098718212
-0.0056550911
-0.0067797344
0.013449775
-0.00011756695
0.00066684747
-0.00036699851
0.0015217958
-0.0006735136
0.002056819
-0.00097482558
0.0023381108
-0.001216854
0.0024085424
-0.0013515942
0.0023002375
-0.00133546
0.0020373374
-0.0011278291
0.0016371833
-0.00068984607
0.0011116658
1.6529077e-05
0.00046836146
0.0010293056
-0.00028865514
0.0023871088
-0.0011581532
0.0041297251
-0.0021412654
0.0062985838
-0.003241032
0.008937263
-0.0044620095
0.012092046
-0.0058096436
0.015812298
-0.0072892348
0.020150161
-0.0089059613
0.025160346
-0.010665276
-0.012492611
0.030873222
-6.6907637e-05
0.0007337551
-0.0001791665
0.0016340546
-0.00026653382
0.0021441863
-0.00026769151
0.0023392685
-0.00012719438
0.0022680453
0.00020616664
0.0019668765
0.00078069309
0.001462811
0.0016429483
0.00077492802
0.0028387274
-8.4113257e-05
0.0044138426
-0.0011067538
0.0064146874
-0.0022894999
0.0088886523
-0.0036321181
0.011884451
-0.0051370638
0.015452449
-0.00680903
0.019645039
-0.0086545995
0.02451726
-0.010681865
0.030127675
-0.01289965
0.036538884
-0.01531717
0.043818282
-0.017944674
-0.020682528
0.052008199
-9.9846314e-06
0.00074373973
3.4534961e-05
0.0015895351
0.00019989013
0.0019788312
0.00054676563
0.001992393
0.0011322469
0.001682564
0.0020109807
0.0010881427
0.0032361392
0.00023765249
0.004860303
-0.00084923575
0.0069361186
-0.0021599288
0.0095166728
-0.003687308
0.012655701
-0.0054285283
0.016407693
-0.0073841095
0.020827816
-0.0095571871
0.025971758
-0.011952973
0.031895628
-0.014578469
0.038656254
-0.01744249
0.046312368
-0.020555764
0.054926669
-0.02393147
0.064569652
-0.027587658
-0.03140558
0.075292705
5.075129e-05
0.00069298844
0.00026565769
0.0013746287
0.00070825418
0.0015362347
0.0014390299
0.0012616173
0.0025168196
0.00060477433
0.0039995653
-0.00039460296
0.0059449127
-0.0017076949
0.0084106005
-0.0033149235
0.01145459
-0.0052039187
0.015135036
-0.0073677537
0.019510015
-0.0098035075
0.024637002
-0.012511096
0.030572132
-0.015492317
0.037369303
-0.018750144
0.045079243
-0.022288409
0.053748964
-0.026112211
0.063422576
-0.030229376
0.074144678
-0.034653573
0.085969305
-0.039412285
-0.044388486
0.098952211
0.00011379627
0.00057919217
0.00050850328
0.00097992166
0.001245982
0.00079875594
0.002386777
0.00012082234
0.0039912398
-0.00099968847
0.0061198743
-0.0025232375
0.0088333172
-0.0044211379
0.012192162
-0.0066737681
0.016256552
-0.0092683091
0.021085438
-0.01219664
0.026735539
-0.015453608
0.033260012
-0.01903557
0.040706871
-0.022939176
0.049117176
-0.027160448
0.058523135
-0.031694369
0.068946484
-0.03653556
0.080398301
-0.041681193
0.092882125
-0.047137397
0.10640546
-0.052935619
-0.058995652
0.12101262
0.00017849578
0.0004006964
0.00076002973
0.00039838772
0.0018053385
-0.00024655284
0.0033747129
-0.0014485521
0.0055289942
-0.0031539697
0.0083293174
-0.0053235607
0.011836487
-0.0079283077
0.016110055
-0.010947336
0.021207037
-0.014365292
0.027180297
-0.018169899
0.03407661
-0.022349921
0.041934468
-0.026893428
0.050781649
-0.031786357
0.06063258
-0.037011379
0.071485483
-0.042547273
0.083319372
-0.048369449
0.096091841
-0.054453661
0.1097404
-0.06078596
0.12419598
-0.067391193
-0.0742746
0.13947493
0.00024512722
0.0010199492
0.0023833399
0.0043938615
0.0071105486
0.010591903
0.014894309
0.020070112
0.026165373
0.033217373
0.041252008
0.05028124
0.060300726
0.07128773
0.083199126
0.095968892
0.10950339
0.12366378
0.13818331
0.15258759
-0.0035077204
-0.0019406252
1.0416479e-12
-0.0012859357
-0.0022217847
-6.0277349e-12
0.0011946732
-0.0024806089
-1.4533279e-11
0.0038772073
-0.002682534
-2.3115157e-11
0.0067348627
-0.0028576554
-3.3305113e-11
0.0097503337
-0.0030154709
-4.1526113e-11
0.012904685
-0.0031543517
-5.0735459e-11
0.016179895
-0.0032752099
-5.9215096e-11
0.019560262
-0.0033803666
-6.7254852e-11
0.023031567
-0.0034713045
-7.4723146e-11
0.026580523
-0.0035489559
-8.0968789e-11
0.030194705
-0.0036141824
-8.5689049e-11
0.033862471
-0.0036677658
-8.8310462e-11
0.037572824
-0.0037103528
-8.8626721e-11
0.041315312
-0.0037424883
-8.6177276e-11
0.045079964
-0.0037646518
-8.0844012e-11
0.048857239
-0.0037772746
-7.2348308e-11
0.052637992
-0.0037807533
-6.0804309e-11
0.056413457
-0.0037754644
-4.6272391e-11
0.060175232
-0.0037617757
-2.9226148e-11
0.063915287
-0.0037400551
-1.0146788e-11
0.067625964
-0.0037106768
1.0087909e-11
0.071299989
-0.0036740253
3.0584345e-11
0.074930487
-0.0036304974
5.0134576e-11
0.078510989
-0.0035805027
6.7589969e-11
0.082035451
-0.0035244619
8.1674745e-11
0.085498256
-0.0034628053
9.1319497e-11
0.088894225
-0.0033959691
9.5598644e-11
0.092218618
-0.0033243925
9.3941582e-11
0.095467132
-0.0032485137
8.6210848e-11
0.098635898
-0.0031687668
7.2665718e-11
0.10172148
-0.0030855778
5.4205893e-11
0.10472084
-0.0029993625
3.1954761e-11
0.10763136
-0.0029105243
7.7246057e-12
0.11045082
-0.0028194524
-1.6853682e-11
0.11317734
-0.0027265226
-3.957812e-11
0.11580944
-0.0026320972
-5.8893263e-11
0.11834596
-0.0025365285
-7.2749158e-11
0.12078613
-0.0024401652
-7.987105e-11
0.12312948
-0.002343354
-7.844315e-11
0.12537596
-0.0022464805
-6.7836763e-11
0.12752586
-0.0021498959
-4.7629316e-11
0.12958015
-0.0020542899
-1.8776165e-11
0.1315398
-0.0019596511
1.7436222e-11
0.1334089
-0.0018691001
5.7030021e-11
0.13518596
-0.0017770582
9.4036335e-11
0.13689542
-0.0017094637
1.174869e-10
0.13849315
-0.0015977254
1.2154119e-10
0.14017995
-0.0016867997
9.3899397e-11
-0.0013310025
4.125056e-12
0.0028529012
-0.0037612374
0.0049500442
-0.0043189276
0.0072928992
-0.0048234639
0.0098190243
-0.0052086591
0.012507358
-0.0055459893
0.015345576
-0.0058536883
0.018316935
-0.0061257115
0.021405031
-0.0063633056
0.024595843
-0.0065711792
0.02787661
-0.0067520714
0.0312352
-0.0069075452
0.03466013
-0.007039113
0.038140545
-0.0071481806
0.041666098
-0.0072359055
0.045226871
-0.0073032609
0.04881333
-0.007351111
0.052416296
-0.0073802411
0.056026925
-0.0073913822
0.059636697
-0.007385236
0.063237418
-0.0073624965
0.066821228
-0.0073238652
0.070380613
-0.0072700619
0.073908419
-0.0072018316
0.077397869
-0.0071199473
0.080842576
-0.0070252097
0.084236558
-0.0069184443
0.08757425
-0.0068004967
0.090850507
-0.0066722262
0.094060613
-0.0065344988
0.097200279
-0.0063881795
0.10026564
-0.0062341258
0.10325324
-0.0060731802
0.10616004
-0.0059061656
0.1089834
-0.0057338805
0.11172104
-0.0055570966
0.11437108
-0.0053765586
0.11693197
-0.0051929866
0.11940252
-0.0050070803
0.12178189
-0.0048195343
0.12406957
-0.0046310379
0.12626546
-0.004442362
0.12836977
-0.0042542068
0.13038343
-0.0040679493
0.13230735
-0.0038835706
0.13414552
-0.0037072793
0.13589648
-0.0035280179
0.13758421
-0.0033971857
0.13916559
-0.0031791086
0.14083624
-0.0033574522
-0.0026595507
0.015021108
-0.0053325704
0.016852204
-0.0061500239
0.018905737
-0.0068769965
0.021111777
-0.0074146998
0.023458692
-0.0078929038
0.025942827
-0.0083378236
0.028551565
-0.0087344495
0.031271426
-0.009083166
0.034091308
-0.0093910616
0.037000982
-0.0096617457
0.039990328
-0.0098968907
0.043049484
-0.010098269
0.046168926
-0.010267623
0.049339399
-0.010406378
0.052551872
-0.010515735
0.055797536
-0.010596774
0.059067798
-0.010650504
0.062354298
-0.010677882
0.065648913
-0.01067985
0.068943777
-0.01065736
0.072231302
-0.01061139
0.075504201
-0.010542961
0.078755508
-0.010453139
0.081978603
-0.010343042
0.085167226
-0.010213833
0.0883155
-0.010066718
0.09141794
-0.0099029361
0.094469463
-0.0097237491
0.097465394
-0.0095304301
0.10040147
-0.0093242552
0.10327383
-0.0091064878
0.10607902
-0.0088783727
0.10881398
-0.0086411263
0.11147603
-0.0083959296
0.11406286
-0.0081439262
0.11657253
-0.0078862202
0.11900342
-0.007623881
0.12135429
-0.0073579494
0.12362421
-0.0070894601
0.12581262
-0.0068194421
0.1279193
-0.0065490478
0.12994442
-0.0062793266
0.13188881
-0.0060123358
0.1337533
-0.0057480649
0.13554175
-0.0054957275
0.13725277
-0.0052390323
0.13890936
-0.0050537816
0.14047077
-0.0047405172
0.14212198
-0.0050086654
-0.0039963363
0.032056509
-0.0065158576
0.033471702
-0.0075652166
0.035077201
-0.0084824953
0.036800029
-0.0091375283
0.038640873
-0.0097337477
0.040606029
-0.01030298
0.042688326
-0.010816747
0.044878241
-0.011273081
0.047168198
-0.011681018
0.049550967
-0.012044515
0.052018843
-0.012364766
0.054563868
-0.012643294
0.057178031
-0.012881786
0.05985329
-0.013081637
0.062581583
-0.013244027
0.065354865
-0.013370056
0.068165155
-0.013460794
0.071004576
-0.013517303
0.073865394
-0.013540669
0.076740058
-0.013532024
0.079621236
-0.013492567
0.082501846
-0.013423571
0.085375094
-0.013326388
0.088234499
-0.013202446
0.091073914
-0.013053249
0.093887553
-0.012880357
0.096670002
-0.012685385
0.099416229
-0.012469977
0.1021216
-0.012235798
0.10478186
-0.011984519
0.10739317
-0.011717795
0.10995205
-0.011437259
0.11245544
-0.011144508
0.1149006
-0.010841094
0.1172852
-0.010528523
0.11960723
-0.010208249
0.12186503
-0.0098816826
0.12405728
-0.0095502008
0.12618299
-0.0092151731
0.12824152
-0.008877966
0.13023258
-0.0085401106
0.13215626
-0.0082030062
0.1340133
-0.0078693824
0.1358045
-0.0075392613
0.13753351
-0.0072247382
0.13919913
-0.0069046552
0.14082301
-0.0066776547
0.14236784
-0.0062853462
0.14400334
-0.0066441692
-0.0053572532
0.052648487
-0.0071561454
0.053489068
-0.0084057971
0.054483175
-0.0094766031
0.055565123
-0.010219476
0.056749726
-0.010918351
0.05805128
-0.011604534
0.059468295
-0.012233762
0.060995903
-0.012800689
0.062629894
-0.013315008
0.064365669
-0.013780291
0.066197708
-0.014196805
0.068119741
-0.014565327
0.070125004
-0.014887049
0.072206395
-0.015163029
0.074356567
-0.015394199
0.076568006
-0.015581496
0.078833121
-0.015725909
0.081144317
-0.015828499
0.083494066
-0.015890418
0.085874964
-0.015912923
0.088279786
-0.015897389
0.090701529
-0.015845314
0.093133454
-0.015758312
0.095569119
-0.015638111
0.098002409
-0.015486539
0.10042756
-0.015305505
0.10283916
-0.015096989
0.1052322
-0.014863015
0.10760203
-0.014605633
0.10994442
-0.0143269
0.11225548
-0.014028861
0.11453175
-0.013713529
0.11677012
-0.01338288
0.11896786
-0.013038829
0.12112258
-0.01268324
0.12323224
-0.012317915
0.12529516
-0.011944603
0.12730998
-0.011565014
0.12927566
-0.011180852
0.13119151
-0.010793821
0.13305723
-0.010405833
0.13487287
-0.010018639
0.13663912
-0.0096356328
0.13835676
-0.0092569012
0.14002928
-0.008897266
0.14165579
-0.0085311664
0.14325625
-0.0082781115
0.14479779
-0.0078268819
0.14643121
-0.0082775945
-0.0067655402
0.075221682
-0.0070851224
0.075326634
-0.0085107493
0.075550992
-0.0097009616
0.075851273
-0.010519756
0.076255511
-0.011322589
0.076780558
-0.012129581
0.077429451
-0.012882654
0.078202118
-0.013573357
0.07909687
-0.014209759
0.080110556
-0.014793977
0.081238934
-0.015325183
0.082476707
-0.015803101
0.083817692
-0.016228034
0.085255108
-0.016600445
0.086781778
-0.016920869
0.088390251
-0.017189968
0.090072907
-0.017408565
0.091822068
-0.01757766
0.09363009
-0.01769844
0.095489436
-0.017772268
0.097392738
-0.017800692
0.099332855
-0.017785432
0.10130292
-0.017728375
0.10329636
-0.017631557
0.10530697
-0.017497145
0.10732888
-0.017327411
0.1093566
-0.017124715
0.11138506
-0.016891469
0.11340955
-0.016630124
0.11542578
-0.016343135
0.11742986
-0.016032943
0.11941829
-0.015701955
0.12138794
-0.015352526
0.12333606
-0.01498695
0.12526027
-0.01460745
0.12715853
-0.014216182
0.12902917
-0.01381524
0.13087083
-0.013406673
0.1326825
-0.012992524
0.13446352
-0.012574843
0.13621362
-0.012155924
0.13793286
-0.011737883
0.13962199
-0.011324767
0.14128186
-0.010916768
0.14291585
-0.010531256
0.14452348
-0.010138797
0.14612287
-0.0098774973
0.1476863
-0.0093903123
0.14934323
-0.0099345242
-0.0082533108
0.09802521
-0.0061581218
0.09725793
-0.0077434693
0.096581632
-0.0090246635
0.095997188
-0.0099353117
0.095540725
-0.010866127
0.095223476
-0.011812332
0.095050809
-0.012709987
0.095026725
-0.013549273
0.095150758
-0.014333793
0.095419643
-0.015062861
0.095829019
-0.015734559
0.096373476
-0.016347558
0.097046529
-0.016901087
0.097840947
-0.017394862
0.098749044
-0.017828967
0.09976285
-0.018203774
0.10087423
-0.018519942
0.10207499
-0.018778426
0.10335702
-0.018980466
0.10471232
-0.019127565
0.1061331
-0.019221475
0.10761185
-0.01926418
0.10914135
-0.01925788
0.11071475
-0.019204958
0.11232557
-0.019107959
0.11396771
-0.018969558
0.11563553
-0.018792527
0.11732377
-0.01857971
0.11902763
-0.018333985
0.12074273
-0.018058236
0.12246512
-0.01775533
0.12419125
-0.017428091
0.125918
-0.01707928
0.12764264
-0.016711586
0.12936281
-0.016327615
0.13107652
-0.015929895
0.13278216
-0.015520878
0.13447845
-0.015102969
0.1361645
-0.014678568
0.13783973
-0.014250077
0.139504
-0.013820192
0.14115752
-0.013391402
0.14280116
-0.012968407
0.14443593
-0.012551545
0.14606523
-0.012160553
0.14768911
-0.011762674
0.14932379
-0.011512177
0.15094719
-0.011013714
0.15266621
-0.011653548
-0.0098623244
0.11918898
-0.004334475
0.11749637
-0.0060508622
0.11585685
-0.0073851421
0.11435432
-0.0084327791
0.11302501
-0.0095368214
0.11186644
-0.010653764
0.11088408
-0.011727623
0.1100842
-0.012749394
0.10946622
-0.013715809
0.10902554
-0.014622179
0.10875634
-0.015465367
0.10865198
-0.016243194
0.10870485
-0.016953956
0.10890664
-0.017596653
0.10924863
-0.018170954
0.10972187
-0.018677017
0.11031734
-0.019115413
0.11102603
-0.019487119
0.11183906
-0.019793496
0.11274775
-0.020036252
0.11374369
-0.020217412
0.1148188
-0.020339287
0.11596537
-0.020404451
0.1171761
-0.020415694
0.11844414
-0.020376001
0.11976309
-0.020288502
0.12112701
-0.020156445
0.12253044
-0.019983149
0.12396843
-0.019771971
0.12543647
-0.019526274
0.12693053
-0.019249392
0.12844705
-0.018944608
0.1299829
-0.01861513
0.13153539
-0.018264074
0.13310224
-0.017894464
0.13468157
-0.017509225
0.13627189
-0.017111202
0.1378721
-0.016703177
0.13948146
-0.016287929
0.14109962
-0.015868242
0.14272666
-0.015447225
0.14436302
-0.015027765
0.14600983
-0.014615217
0.14766839
-0.014210104
0.14934219
-0.013834355
0.15103196
-0.013452446
0.15275209
-0.0132323
0.15448636
-0.012747989
0.156319
-0.01348619
-0.011643929
0.13689595
-0.0017555037
0.13437799
-0.0035329
0.13181942
-0.0048265719
0.12946235
-0.0060757115
0.127334
-0.0074084634
0.12541572
-0.0087354903
0.12371036
-0.010022263
0.12222301
-0.011262037
0.1209521
-0.012444905
0.11989188
-0.013561955
0.11903483
-0.014608317
0.1183726
-0.015580971
0.11789621
-0.016477565
0.11759613
-0.017296566
0.11746248
-0.018037306
0.11748526
-0.018699794
0.11765444
-0.019284598
0.11796012
-0.019792793
0.11839255
-0.020225928
0.11894228
-0.020585985
0.11960019
-0.020875326
0.12035756
-0.021096657
0.12120611
-0.021252993
0.12213801
-0.021347601
0.12314598
-0.021383968
0.12422323
-0.021365751
0.12536352
-0.021296732
0.12656114
-0.02118077
0.12781094
-0.021021767
0.12910828
-0.02082362
0.13044908
-0.020590187
0.13182973
-0.020325265
0.13324716
-0.020032554
0.13469873
-0.019715649
0.1361823
-0.019378034
0.13769615
-0.019023075
0.13923899
-0.018654045
0.14080996
-0.018274139
0.14240858
-0.017886549
0.1440348
-0.017494468
0.14568903
-0.017101449
0.14737206
-0.016710798
0.14908538
-0.016328537
0.15083069
-0.01595542
0.15261174
-0.015615396
0.15443
-0.015270709
0.15629814
-0.01510044
0.15820596
-0.014655808
0.16021541
-0.015495647
-0.013658164
0.15005209
0.00077999767
0.14676315
-0.00024395442
0.14346581
-0.0015292336
0.14041803
-0.0030279328
0.13762314
-0.0046135699
0.13507487
-0.0061872262
0.13277507
-0.0077224642
0.13072382
-0.0092107872
0.12891868
-0.010639766
0.12735445
-0.011997725
0.12602331
-0.01327717
0.12491584
-0.014473502
0.12402187
-0.015583597
0.12333074
-0.016605439
0.12283147
-0.017538038
0.12251295
-0.018381274
0.12236411
-0.019135751
0.12237402
-0.019802707
0.12253204
-0.020383945
0.12282784
-0.020881783
0.1232515
-0.021298994
0.1237936
-0.021638752
0.12444519
-0.021904584
0.1251979
-0.022100313
0.12604394
-0.022230005
0.1269761
-0.022297918
0.12798782
-0.022308444
0.12907311
-0.022266062
0.13022663
-0.022175285
0.13144362
-0.022040615
0.13271994
-0.021866506
0.134052
-0.021657327
0.13543678
-0.021417335
0.13687179
-0.021150661
0.13835506
-0.020861298
0.13988509
-0.020553105
0.14146087
-0.020229825
0.14308184
-0.019895112
0.1447479
-0.019552607
0.14645937
-0.019205945
0.14821708
-0.018859158
0.15002228
-0.018515992
0.15187691
-0.018183165
0.15378315
-0.017861667
0.15574514
-0.017577388
0.15776507
-0.017290632
0.15985445
-0.017189824
0.16200754
-0.016808899
0.16426908
-0.017757183
-0.015969998
0.18890878
0.0053820997
-0.19351088
0.18509874
0.0035660835
0.18170671
0.001862801
0.17856158
0.00011719299
0.17562602
-0.0016780107
0.172875
-0.0034362008
0.17029028
-0.0051377482
0.16786288
-0.0067833873
0.16558892
-0.008365801
0.16346623
-0.0098750398
0.16149297
-0.011303905
0.15966701
-0.012647546
0.15798572
-0.013902307
0.1564458
-0.015065524
0.15504334
-0.016135577
0.15377387
-0.017111798
0.15263245
-0.017994335
0.1516138
-0.018784054
0.15071233
-0.019482479
0.14992228
-0.020091728
0.14923773
-0.02061445
0.14865275
-0.021053769
0.14816138
-0.021413218
0.14775776
-0.021696684
0.14743609
-0.021908344
0.14719078
-0.022052606
0.14701639
-0.02213405
0.14690769
-0.022157367
0.14685972
-0.02212731
0.14686774
-0.022048635
0.1469273
-0.021926063
0.14703421
-0.021764239
0.14718458
-0.021567703
0.14737479
-0.021340872
0.14760151
-0.021088023
0.14786171
-0.0208133
0.14815262
-0.020520733
0.14847177
-0.020214261
0.14881698
-0.019897817
0.14918636
-0.019575333
0.14957837
-0.019251167
0.14999176
-0.018929383
0.15042577
-0.01861717
0.15087986
-0.018315761
0.15135466
-0.018052188
0.15185002
-0.017785987
0.15237041
-0.017710212
0.15291152
-0.017350015
0.15349633
-0.01834199
-0.016562604
0.21685767
0.0087804314
-0.220256
0.21338378
0.0070399715
0.21017097
0.0050756141
0.20706565
0.003222507
0.20401906
0.0013685862
0.20106214
-0.0004792792
0.19821177
-0.002287385
0.19547248
-0.0040440951
0.19285016
-0.0057434804
0.19035164
-0.0073765224
0.18798213
-0.0089343903
0.18574501
-0.010410431
0.18364229
-0.011799587
0.18167467
-0.013097899
0.1798416
-0.01430251
0.17814147
-0.015411664
0.17657172
-0.016424588
0.17512904
-0.017341378
0.17380949
-0.018162924
0.1726086
-0.018890838
0.17152153
-0.019527379
0.17054315
-0.020075386
0.16966813
-0.0205382
0.16889104
-0.020919598
0.16820642
-0.021223721
0.16760882
-0.021455006
0.16709288
-0.021618114
0.16665338
-0.021717866
0.16628526
-0.021759184
0.16598365
-0.021747025
0.16574392
-0.021686337
0.1655617
-0.021582013
0.16543285
-0.021438855
0.16535353
-0.02126155
0.16532016
-0.021054659
0.16532947
-0.02082261
0.16537846
-0.020569722
0.16546443
-0.020300231
0.16558499
-0.02001837
0.16573804
-0.019728383
0.16592183
-0.019434958
0.16613496
-0.019142518
0.16637643
-0.018858643
0.16664575
-0.018585075
0.16694275
-0.01834919
0.16726867
-0.018111909
0.16762273
-0.018064271
0.16801323
-0.017740515
0.16842212
-0.018750884
-0.017036406
0.24376659
0.011504385
-0.24649054
0.24091615
0.00989041
0.23806294
0.0079288251
0.23521598
0.0060694699
0.23233817
0.0042463899
0.22945035
0.002408542
0.22658374
0.00057923348
0.22375762
-0.001217976
0.22098791
-0.0029737782
0.21829056
-0.0046791731
0.21567943
-0.0063232523
0.2131655
-0.0078965035
0.21075739
-0.0093914815
0.20846167
-0.010802173
0.20628295
-0.012123797
0.20422413
-0.013352845
0.20228656
-0.014487017
0.20047028
-0.015525096
0.1987742
-0.016466847
0.1971963
-0.017312934
0.19573375
-0.018064834
0.19438312
-0.01872475
0.19314044
-0.019295525
0.1920014
-0.019780556
0.19096139
-0.020183714
0.19001565
-0.02050926
0.1891593
-0.020761766
0.18838747
-0.020946038
0.18769533
-0.021067042
0.18707814
-0.021129839
0.18653133
-0.021139523
0.18605049
-0.02110117
0.18563143
-0.021019797
0.18527021
-0.02090033
0.18496313
-0.020747584
0.18470678
-0.020566262
0.18449803
-0.020360964
0.18433401
-0.020136219
0.18421221
-0.019896566
0.1841304
-0.019646571
0.18408669
-0.019391251
0.1840796
-0.019135426
0.18410794
-0.018886979
0.18417129
-0.018648427
0.18426875
-0.018446653
0.18440304
-0.018246197
0.18456775
-0.018228986
0.18478479
-0.017957547
0.18499023
-0.018956325
-0.017368951
0.26927436
0.013537338
-0.27130731
0.26710632
0.012058454
0.26476455
0.010270586
0.26232533
0.0085086959
0.25979658
0.0067751406
0.25718848
0.0050166375
0.25452716
0.0032405518
0.25183679
0.0014723926
0.24913737
-0.00027435715
0.24644871
-0.0019905046
0.24379008
-0.0036646263
0.24117863
-0.0052850554
0.23862909
-0.0068419382
0.23615394
-0.0083270238
0.23376348
-0.0097333363
0.23146587
-0.011055234
0.22926729
-0.01228844
0.22717214
-0.013429947
0.22518322
-0.014477927
0.22330192
-0.015431637
0.22152843
-0.016291336
0.21986186
-0.017058183
0.21830048
-0.017734145
0.21684182
-0.018321901
0.21548285
-0.018824742
0.21422007
-0.019246481
0.21304967
-0.019591359
0.21196758
-0.019863955
0.21096964
-0.0200691
0.21005161
-0.020211804
0.20920926
-0.020297179
0.20843847
-0.020330379
0.20773523
-0.020316551
0.20709569
-0.020260791
0.20651622
-0.02016812
0.20599344
-0.020043476
0.20552419
-0.019891717
0.20510562
-0.01971765
0.20473517
-0.019526111
0.20441058
-0.019321986
0.20412995
-0.019110615
0.20389176
-0.018897242
0.20369476
-0.018689976
0.20353863
-0.018492304
0.20342192
-0.018329934
0.20334851
-0.018172793
0.20330724
-0.018187715
0.20333132
-0.017981627
0.20331555
-0.018940552
-0.017538058
0.29298513
0.014868479
-0.29431627
0.29150589
0.013537696
0.2897834
0.011993079
0.28788476
0.01040733
0.28584485
0.0088150512
0.28367448
0.0071870095
0.28139206
0.0055229738
0.27902083
0.0038436215
0.2765821
0.0021643762
0.27409602
0.00049557127
0.2715828
-0.0011514087
0.26906217
-0.0027644204
0.26655244
-0.0043322093
0.26407021
-0.0058447927
0.26163021
-0.0072933422
0.25924522
-0.0086702419
0.25692599
-0.0099692096
0.25468134
-0.011185298
0.25251825
-0.012314839
0.250442
-0.013355386
0.24845631
-0.014305642
0.2465635
-0.015165375
0.24476468
-0.015935327
0.24305989
-0.01661711
0.24144826
-0.017213115
0.23992818
-0.017726398
0.23849741
-0.018160588
0.23715324
-0.018519784
0.2358926
-0.018808457
0.23471215
-0.019031362
0.23360843
-0.019193458
0.23257788
-0.019299828
0.23161696
-0.019355625
0.23072218
-0.019366014
0.2298902
-0.019336142
0.22911784
-0.019271114
0.22840212
-0.019176
0.22774032
-0.019055851
0.22712998
-0.018915772
0.22656896
-0.01876096
0.2260554
-0.018597061
0.22558791
-0.018429748
0.22516523
-0.018267302
0.22478722
-0.018114292
0.22445204
-0.017994752
0.22416443
-0.017885188
0.22390957
-0.017932853
0.223729
-0.017801056
0.22348388