/*--------------------------------*- C++ -*----------------------------------*\
  =========                 |
  \\      /  F ield         | OpenFOAM: The Open Source CFD Toolbox
   \\    /   O peration     | Website:  https://openfoam.org
    \\  /    A nd           | Version:  6
     \\/     M anipulation  |
\*---------------------------------------------------------------------------*/
FoamFile
{
    version     2.0;
    format      ascii;
    class       volVectorField;
    location    "189";
    object      U;
}
// * * * * * * * * * * * * * * * * * * * * * * * * * * * * * * * * * * * * * //

dimensions      [0 1 -1 0 0 0 0];

internalField   nonuniform List<vector> 
9200
(
(0.0010393471 0.0014199818 -5.9201842e-20)
(0.013676071 -0.0020583687 4.6042541e-20)
(0.038313176 -0.0058665715 -3.8501738e-20)
(0.072274453 -0.0097635101 -6.0257754e-20)
(0.11376477 -0.013490035 1.8826967e-20)
(0.16158092 -0.016605666 3.2743882e-20)
(0.21467152 -0.018817295 -1.2268011e-20)
(0.27206613 -0.019973902 9.2688636e-21)
(0.33285629 -0.020011236 1.6803426e-20)
(0.39616355 -0.018929066 1.4848073e-21)
(0.46111564 -0.016779831 -2.1456338e-20)
(0.52683696 -0.013657748 2.0670006e-20)
(0.59245078 -0.0096880159 -4.042215e-20)
(0.65709142 -0.005015795 -2.1133903e-20)
(0.71992483 0.000205542 5.904653e-21)
(0.78017514 0.0058240746 -2.5131676e-20)
(0.83717072 0.011712791 2.5217115e-20)
(0.89046888 0.017918489 2.2243192e-20)
(0.93967083 0.024573387 -2.9929731e-22)
(0.98205199 0.028293354 -1.6691882e-21)
(0.0052521819 -0.0013462738 -1.7059354e-20)
(0.026962507 -0.008989029 3.9747715e-20)
(0.061670128 -0.014809768 2.3576298e-20)
(0.10629491 -0.019172274 -1.1569758e-19)
(0.15873568 -0.022214002 -1.272709e-20)
(0.21753355 -0.023720692 7.3297079e-20)
(0.28137301 -0.023595104 -3.5476402e-20)
(0.34900607 -0.021868973 -8.3905573e-21)
(0.41923927 -0.018645533 3.4287544e-20)
(0.49090952 -0.014080851 -4.3259584e-20)
(0.56287241 -0.0083759613 -3.0338485e-20)
(0.63400857 -0.0017666058 7.1921442e-20)
(0.7032434 0.005488382 3.8294052e-20)
(0.76957592 0.013118618 -6.7976564e-20)
(0.83211257 0.020852067 1.4623692e-20)
(0.89010049 0.028419687 -3.6733404e-20)
(0.94296928 0.035569652 -1.3777195e-20)
(0.99043242 0.042140861 7.0974782e-20)
(1.0323562 0.04771528 2.9641985e-20)
(1.0669349 0.049139657 -8.3478337e-20)
(0.010858429 -0.0040424169 3.677346e-20)
(0.043953422 -0.01543108 2.5047378e-21)
(0.090515451 -0.022552287 2.2341718e-20)
(0.14711142 -0.026497364 9.8116823e-22)
(0.21134258 -0.027886304 -4.0773946e-20)
(0.28146772 -0.026795123 1.8576403e-20)
(0.35587046 -0.023382737 1.3420301e-20)
(0.43299014 -0.017921547 -5.0327709e-20)
(0.51132485 -0.010735661 5.7261865e-20)
(0.58942622 -0.0021838923 1.4256691e-20)
(0.66590925 0.007347892 -5.4300717e-20)
(0.73948046 0.017460248 -1.8237405e-20)
(0.80897608 0.027756545 9.0591604e-21)
(0.87340275 0.037859251 2.344474e-20)
(0.93197373 0.047424019 -1.1362507e-20)
(0.98413378 0.056148945 2.7877731e-20)
(1.0295741 0.063789142 -2.0188243e-20)
(1.0682646 0.070204356 -7.0123602e-20)
(1.1003323 0.075119337 -2.3796279e-20)
(1.1249113 0.076641193 4.8659836e-20)
(0.017957217 -0.0064221646 2.4508018e-20)
(0.064777006 -0.020694803 5.1039227e-20)
(0.1248523 -0.028060853 1.9881694e-20)
(0.19446969 -0.030464072 1.2990092e-20)
(0.27094936 -0.029094849 1.7275703e-20)
(0.35224885 -0.024388987 -4.7720177e-20)
(0.43643145 -0.016825982 -2.564686e-20)
(0.52162015 -0.0069766806 0)
(0.60602904 0.0045670206 1.3920624e-20)
(0.68798716 0.017211719 -5.852343e-21)
(0.76597527 0.030373907 -9.7934955e-20)
(0.83867457 0.043499615 -1.5774818e-20)
(0.90501536 0.056086597 6.5103205e-20)
(0.9642158 0.067704112 4.8442611e-22)
(1.0158036 0.078007689 -1.5725568e-21)
(1.0596156 0.086746763 2.1957497e-20)
(1.0957774 0.093772195 -5.2647209e-21)
(1.1246801 0.099065297 -6.1029743e-20)
(1.1468648 0.10259704 -4.5851239e-20)
(1.1622958 0.10341381 6.9520527e-20)
(0.026579424 -0.0082056895 -3.9194223e-21)
(0.089344034 -0.02403351 -5.1256379e-21)
(0.16430756 -0.030264994 5.6599412e-20)
(0.24758123 -0.029810026 1.8539325e-20)
(0.33624165 -0.024513035 -3.1955072e-20)
(0.42795132 -0.015239867 1.2163839e-20)
(0.52047269 -0.002851371 2.6402867e-21)
(0.61166366 0.011737086 3.3609177e-20)
(0.69954721 0.027640132 5.6599512e-21)
(0.78236847 0.044028757 -1.3204742e-20)
(0.85865416 0.06014771 6.0154044e-20)
(0.92726921 0.075340455 -5.8009361e-20)
(0.98745686 0.089072842 -1.3216614e-19)
(1.0388532 0.100949 -5.5773041e-21)
(1.0814726 0.11071706 8.3150782e-20)
(1.1156656 0.11826402 0)
(1.1420549 0.1236058 1.011896e-20)
(1.1614669 0.12689052 -1.5459773e-20)
(1.174818 0.12829867 -8.5994608e-21)
(1.1826674 0.12744912 2.0992232e-20)
(0.036666914 -0.0090895811 -5.4309179e-21)
(0.11731513 -0.024685361 4.3578748e-21)
(0.20811871 -0.028140183 -8.7629848e-21)
(0.30515706 -0.02341496 2.8472397e-20)
(0.40533545 -0.013075597 -2.9392672e-20)
(0.50607154 0.0015226092 -1.6927027e-20)
(0.60490498 0.019095134 3.736423e-20)
(0.69954968 0.038365247 4.7595444e-21)
(0.78800402 0.058167637 -2.4436061e-20)
(0.86863415 0.077482995 6.9867562e-20)
(0.94023983 0.09545863 5.2393892e-22)
(1.0020957 0.11143155 -8.0444323e-20)
(1.053957 0.12494289 0)
(1.0960274 0.13573748 3.9542122e-20)
(1.1288923 0.14374841 5.5236012e-21)
(1.1534279 0.1490689 -7.7566412e-20)
(1.1706991 0.1519191 -1.9586925e-20)
(1.1818624 0.15262365 -1.2467634e-20)
(1.1880592 0.15152602 -1.4709389e-20)
(1.1901461 0.14858489 4.0420525e-20)
(0.048058875 -0.0087674064 -1.7277963e-20)
(0.14808312 -0.021931997 -2.2198242e-21)
(0.25514073 -0.020797839 3.0380508e-20)
(0.36546389 -0.010412797 3.7484305e-20)
(0.47590427 0.0059015843 -1.9944736e-20)
(0.58374274 0.026269303 -6.9163044e-20)
(0.68644194 0.048977205 -2.7995802e-20)
(0.78176213 0.072417784 7.8929212e-20)
(0.86790205 0.095212472 8.5778135e-21)
(0.94358926 0.1162496 -2.4873484e-20)
(1.0081259 0.13469826 1.3642214e-20)
(1.0613871 0.15001554 -4.3194492e-21)
(1.1037694 0.16193657 0)
(1.1360976 0.17044426 2.7203487e-20)
(1.1595047 0.17572306 -7.9322425e-20)
(1.1753021 0.17810367 -3.1475533e-20)
(1.184857 0.1780081 8.1054588e-20)
(1.1894922 0.17590942 -4.2969849e-21)
(1.190403 0.17225555 3.5561075e-21)
(1.188508 0.16719294 2.7111572e-20)
(0.060485259 -0.0069573649 -3.2414624e-20)
(0.18077775 -0.015170383 -8.1624343e-20)
(0.30388933 -0.0075835297 2.5797636e-21)
(0.42642561 0.0097033541 7.0161841e-20)
(0.54535156 0.032631552 6.2424388e-20)
(0.65798109 0.058820042 -7.1574515e-20)
(0.76190891 0.086176506 -2.8274821e-22)
(0.855183 0.11285231 8.5522542e-20)
(0.93645356 0.13737837 4.8828069e-20)
(1.0050416 0.15869369 -5.4218408e-20)
(1.0609357 0.17613562 -9.2334226e-20)
(1.1047243 0.18941353 -3.1589832e-21)
(1.137476 0.19855942 4.2127874e-20)
(1.1605874 0.20385855 -6.6056291e-21)
(1.1756248 0.20577017 -1.2868789e-20)
(1.1841777 0.20484916 1.9690811e-20)
(1.1877428 0.20167894 4.3880623e-20)
(1.1876454 0.19682585 -4.3859438e-20)
(1.1849954 0.19077881 -1.0232203e-19)
(1.180625 0.18377376 2.4566883e-20)
(0.073537225 -0.003432974 -3.497976e-20)
(0.2142269 -0.0039890272 -1.738862e-19)
(0.35251661 0.011839375 8.2103314e-20)
(0.48562804 0.037018337 9.2767563e-20)
(0.61085387 0.066835553 5.7970567e-20)
(0.72576735 0.098481179 8.6107088e-21)
(0.82834811 0.12959696 -1.0624007e-19)
(0.91719007 0.15824269 0)
(0.99162753 0.18302814 -6.874858e-20)
(1.0517522 0.20311206 -1.5202407e-20)
(1.0983385 0.21814859 5.4703476e-20)
(1.1327009 0.22821081 1.097338e-20)
(1.156511 0.23369259 -4.5613864e-20)
(1.1716068 0.23519945 -4.9081372e-20)
(1.1798204 0.23344333 2.4287684e-20)
(1.1828451 0.22915321 4.4822896e-20)
(1.1821489 0.22300983 -5.5600414e-20)
(1.1789361 0.21560819 -1.0751123e-19)
(1.1741469 0.20742221 -3.1513628e-21)
(1.1684568 0.19871877 2.7046404e-20)
(0.086650457 0.0019613862 -3.5448969e-21)
(0.24696022 0.011816634 8.7913308e-20)
(0.39884744 0.037492311 -1.6479229e-20)
(0.54040471 0.071218385 -8.430922e-20)
(0.6694991 0.10778894 4.5164371e-20)
(0.78421961 0.14411544 4.9175412e-20)
(0.88318948 0.17775669 5.535676e-21)
(0.96577879 0.2068849 -9.9502457e-20)
(1.0321764 0.23038802 -2.5048778e-21)
(1.0833329 0.24781553 5.0503544e-20)
(1.1208071 0.259263 5.9854748e-21)
(1.1465559 0.26523619 -1.9717222e-20)
(1.1627108 0.26650532 -7.5704651e-20)
(1.1713765 0.2639662 -6.2554027e-21)
(1.1744763 0.25852427 4.3533361e-20)
(1.1736549 0.25101086 3.7022017e-20)
(1.1702383 0.24213392 1.9793444e-20)
(1.1652403 0.23245872 -5.2994847e-20)
(1.1594014 0.22240415 1.2957452e-20)
(1.1532252 0.21223796 8.2659108e-20)
(-0.0012932617 0.00143466 -1.1234445e-21)
(-0.0047459611 0.0031874153 2.0646971e-21)
(-0.01077136 0.0041359047 8.7950193e-22)
(-0.01775429 0.0045395366 -2.4411033e-21)
(-0.024740321 0.0045654171 -1.4114826e-21)
(-0.031299597 0.004326039 1.5459997e-21)
(-0.037161332 0.0039035385 -6.8700821e-21)
(-0.042147447 0.0033577219 -5.9573025e-21)
(-0.046157781 0.0027313813 1.1171999e-20)
(-0.049146195 0.0020548305 -9.74275e-21)
(-0.051100659 0.0013493002 -1.9832965e-22)
(-0.052030448 0.0006294215 3.6673453e-21)
(-0.051957742 -9.4890078e-05 -6.3295568e-22)
(-0.050911885 -0.00081693117 2.2818748e-20)
(-0.048925781 -0.0015318457 3.0401072e-22)
(-0.046035343 -0.0022351751 -4.0882881e-20)
(-0.042281798 -0.0029222694 7.538564e-21)
(-0.037703441 -0.0035910401 2.3864117e-20)
(-0.032308691 -0.0042399883 -4.3852387e-20)
(-0.026156959 -0.0048211151 -2.7739212e-20)
(-0.0016522002 0.004180867 -5.3716044e-21)
(-0.0053974819 0.0092681395 1.086544e-20)
(-0.011218511 0.012007445 -1.0191547e-20)
(-0.017658028 0.013153766 3.922976e-21)
(-0.023856435 0.013195415 4.8121447e-21)
(-0.029433321 0.012462726 7.1324189e-22)
(-0.034152324 0.011197015 -2.250949e-20)
(-0.037860382 0.0095738975 -2.037025e-21)
(-0.040474302 0.0077189875 2.0163544e-20)
(-0.041958925 0.0057212303 -5.0473607e-21)
(-0.042308953 0.003642864 -2.1762594e-20)
(-0.041537339 0.0015267117 4.8973177e-21)
(-0.039667714 -0.00059830693 2.2635424e-20)
(-0.036729082 -0.0027127629 1.0308393e-20)
(-0.032752033 -0.0048026916 2.185429e-20)
(-0.027769169 -0.0068555115 -1.9770732e-20)
(-0.021824792 -0.0088582232 -2.1672948e-20)
(-0.014966266 -0.010804229 2.1184623e-20)
(-0.0071290109 -0.012679006 2.6810371e-20)
(0.0018743039 -0.014317229 1.5854769e-20)
(-0.0023034295 0.0065602337 -4.3568701e-21)
(-0.0065392247 0.014480198 -5.6387556e-21)
(-0.011892133 0.018710546 3.0723949e-22)
(-0.017211101 0.020428183 1.0959892e-21)
(-0.021819144 0.020400326 6.6918428e-21)
(-0.025431043 0.019151668 1.0665173e-20)
(-0.027877234 0.017066289 -3.7227642e-21)
(-0.029053271 0.014423784 -1.8896171e-20)
(-0.028909038 0.011424352 6.5413187e-21)
(-0.02743105 0.0082099045 1.2862572e-20)
(-0.024627713 0.0048797748 5.8340876e-21)
(-0.020520107 0.0015022366 1.8159108e-20)
(-0.015135983 -0.0018768661 1.7295918e-21)
(-0.0085053945 -0.0052272514 -3.3864534e-20)
(-0.00065688685 -0.0085276145 1.202018e-21)
(0.0083810249 -0.011759115 -2.2139214e-20)
(0.018556877 -0.014904103 -2.4466308e-20)
(0.029802193 -0.017953759 4.5819721e-20)
(0.042304978 -0.020855125 2.5349353e-20)
(0.056738588 -0.023247775 1.2239345e-22)
(-0.003129028 0.0083689712 -5.2833084e-21)
(-0.0078963998 0.018336515 -8.4815293e-21)
(-0.012438987 0.023587811 4.3593061e-21)
(-0.016026536 0.025609661 4.1463461e-21)
(-0.018235025 0.025382748 2.0105714e-21)
(-0.018912652 0.023589324 7.3209966e-21)
(-0.017984717 0.020730274 9.3124794e-21)
(-0.015416709 0.017170378 -1.3511355e-21)
(-0.011207046 0.013171314 -1.1481948e-20)
(-0.005375231 0.0089189303 -2.9071883e-20)
(0.002048115 0.004543435 6.1892535e-23)
(0.011026513 0.0001343077 4.0697828e-20)
(0.021522231 -0.0042489553 -1.8383175e-20)
(0.033497858 -0.0085675904 -1.229609e-20)
(0.046920521 -0.012795553 5.5348924e-22)
(0.061760106 -0.016911863 3.230265e-20)
(0.077953027 -0.020901679 -1.4829547e-20)
(0.09539228 -0.024763386 -5.3339194e-20)
(0.11439847 -0.028379729 4.5765017e-20)
(0.1363454 -0.031073108 3.3013176e-20)
(-0.0039704101 0.0094657336 -6.8789011e-22)
(-0.0090916589 0.020487794 -1.2534742e-20)
(-0.012364472 0.02615909 -3.414454e-20)
(-0.013552541 0.028143341 -5.7241626e-21)
(-0.01253324 0.027555009 -3.6222746e-21)
(-0.0093167235 0.025188066 6.3051048e-21)
(-0.0039456427 0.021627412 -4.6461975e-21)
(0.0035261319 0.01729896 -8.8070301e-21)
(0.013036826 0.012508751 2.1899714e-20)
(0.02452125 0.0074744403 5.0567091e-21)
(0.037915549 0.0023489004 -2.5290297e-20)
(0.053157459 -0.002762789 1.1078281e-20)
(0.070186884 -0.0077908809 0)
(0.088946602 -0.012691311 1.2089577e-20)
(0.10938546 -0.017436928 -9.7016192e-21)
(0.13145744 -0.022009907 -1.4337122e-20)
(0.1550741 -0.026408658 -1.5738949e-21)
(0.18006764 -0.030659435 -2.2181558e-21)
(0.20685346 -0.03457655 4.6147071e-20)
(0.23766364 -0.037019886 -1.0470129e-20)
(-0.0046450984 0.0097808636 -7.535669e-21)
(-0.0096772517 0.020747882 2.4516403e-20)
(-0.011064381 0.02616098 -1.0499348e-20)
(-0.0090968323 0.027724447 -2.7469284e-20)
(-0.0039797192 0.026601697 -2.7548147e-20)
(0.0040961862 0.023648409 -1.4921571e-20)
(0.014954155 0.019496457 -6.9059798e-22)
(0.028436244 0.014604704 5.5499813e-21)
(0.044403159 0.0093034441 1.9615884e-20)
(0.062730512 0.0038284116 7.3530866e-21)
(0.083304335 -0.0016547605 -7.1862226e-21)
(0.106019 -0.0070322455 -2.010232e-21)
(0.1307736 -0.012229106 -3.8191715e-20)
(0.15746947 -0.017199763 -1.2693646e-20)
(0.18601204 -0.021919746 1.8750609e-20)
(0.21631182 -0.026379731 -2.1021677e-20)
(0.24823229 -0.030602239 -8.9730591e-21)
(0.28151874 -0.034670625 3.044047e-20)
(0.31660711 -0.038364839 5.0472077e-20)
(0.35665023 -0.039964121 3.3559671e-21)
(-0.0049617689 0.0093139998 1.6783305e-20)
(-0.0091662698 0.019097711 1.4467939e-20)
(-0.0078593646 0.023563368 5.1145489e-20)
(-0.0018585377 0.024328945 2.3387984e-20)
(0.0082957269 0.022523784 1.8251779e-22)
(0.022221947 0.019014384 -3.9388464e-20)
(0.039597452 0.014440935 -2.431386e-20)
(0.060147918 0.0092663568 1.046582e-20)
(0.083639134 0.0038232239 1.4401588e-20)
(0.10986671 -0.001651305 -1.3113714e-20)
(0.13864566 -0.0069910171 -4.4038719e-20)
(0.16980174 -0.012082856 2.9618501e-20)
(0.20316409 -0.01685417 2.0020554e-20)
(0.23855951 -0.021264008 -2.7551159e-20)
(0.27581236 -0.025296417 1.1650136e-20)
(0.31474817 -0.028957184 2.4197616e-20)
(0.35514553 -0.03230307 8.0723954e-21)
(0.39663395 -0.035506697 -1.1764212e-20)
(0.4395771 -0.038392664 -1.41903e-20)
(0.4879852 -0.038634426 5.8727637e-21)
(-0.0047307766 0.008123674 1.1093846e-20)
(-0.0070586005 0.015671177 -2.3352722e-20)
(-0.0020293646 0.018562034 8.6200511e-21)
(0.0090325239 0.018216225 3.3587971e-20)
(0.025256368 0.015651149 5.2124337e-20)
(0.046066349 0.011695601 2.0276511e-20)
(0.070984538 0.0069609493 -5.8639345e-21)
(0.099601969 0.0018829468 -1.2286286e-20)
(0.13156897 -0.0032272042 -6.2057466e-21)
(0.1665757 -0.0081496651 3.4240837e-20)
(0.20433428 -0.01273333 -4.5104386e-21)
(0.24456489 -0.016879198 -1.6643302e-20)
(0.28698475 -0.020528698 -1.9693574e-20)
(0.33130004 -0.023656425 -4.7443742e-20)
(0.37720465 -0.026265547 2.3238705e-20)
(0.42438778 -0.028387877 -1.4095985e-20)
(0.47249982 -0.030127637 2.5993402e-20)
(0.52103627 -0.031783207 2.1040826e-20)
(0.57021405 -0.033350697 -8.5570397e-20)
(0.62470927 -0.03205886 -1.0807143e-22)
(-0.0037710521 0.0063146399 2.1925055e-20)
(-0.0028657656 0.010735096 -2.6165533e-20)
(0.0071421076 0.011564137 -4.5013295e-20)
(0.024450239 0.0099249889 -2.7253784e-20)
(0.047870861 0.0066523041 -2.0439872e-21)
(0.076628718 0.002490614 1.3050099e-20)
(0.11007675 -0.0020153997 -2.8337704e-21)
(0.14765209 -0.0064879098 1.8118538e-20)
(0.18886099 -0.010663511 8.8685615e-21)
(0.23325199 -0.01436243 -1.1380172e-20)
(0.28039154 -0.017468959 8.8779144e-21)
(0.32984609 -0.019916816 -2.3903268e-20)
(0.38116887 -0.021678709 8.050479e-21)
(0.43389092 -0.022759888 1.6756393e-20)
(0.48751944 -0.023194315 -2.6395135e-21)
(0.54154725 -0.023046906 1.6618981e-21)
(0.59543555 -0.022469461 -3.1957609e-22)
(0.64851794 -0.021870121 1.9590423e-20)
(0.70082251 -0.02144508 4.0434004e-21)
(0.75745162 -0.0184991 -5.7334709e-22)
(-0.0019110141 0.0040273483 2.3692115e-20)
(0.0038694318 0.0046765199 5.7159968e-20)
(0.020315315 0.0031879634 -4.9244226e-20)
(0.045178294 0.00029442423 -9.9454162e-21)
(0.076965166 -0.0034241548 2.0256347e-20)
(0.11469625 -0.0073535901 2.1433719e-21)
(0.15753886 -0.011054962 -2.9815162e-20)
(0.20474834 -0.014244146 6.9848097e-21)
(0.25564954 -0.016737936 7.109789e-21)
(0.30960478 -0.018426966 -2.6254079e-20)
(0.36598654 -0.019260108 1.292733e-21)
(0.42415965 -0.019231878 -3.7174115e-20)
(0.48347109 -0.018372214 -3.6341018e-20)
(0.54324574 -0.016738289 6.5683485e-20)
(0.60278822 -0.014407316 5.5627487e-21)
(0.66138895 -0.011475913 -1.5188796e-20)
(0.71830795 -0.0081020619 1.9363967e-20)
(0.77269913 -0.0045928839 -9.1888141e-22)
(0.82408847 -0.00096806799 2.0364578e-20)
(0.87621979 0.0043280473 -1.9554148e-20)
(-0.018836414 -0.0050997044 5.8352054e-20)
(-0.01022465 -0.0056349277 1.5783668e-20)
(-0.00022118818 -0.0060688806 -3.5139561e-20)
(0.010823234 -0.0063341101 1.6790236e-20)
(0.022642476 -0.0065120473 0)
(0.035177897 -0.0066300902 0)
(0.048369675 -0.0066909734 -2.2974948e-20)
(0.062138093 -0.0067025398 -1.6502871e-20)
(0.076412738 -0.0066741742 1.9122594e-20)
(0.091134102 -0.0066126655 1.8174034e-20)
(0.10624721 -0.0065232056 1.0524253e-21)
(0.12170026 -0.0064103578 -1.0317636e-20)
(0.13744495 -0.006278081 8.3268803e-21)
(0.15343606 -0.0061297222 1.8233717e-20)
(0.16963083 -0.005968145 -5.227418e-21)
(0.18598862 -0.0057958345 -1.0174935e-20)
(0.20247066 -0.005614962 -4.3195874e-21)
(0.21903993 -0.0054274365 -4.4257384e-21)
(0.235661 -0.0052349501 7.3667176e-22)
(0.25230001 -0.0050390131 1.2286041e-21)
(0.26892462 -0.0048409805 2.5666319e-21)
(0.28550404 -0.0046420721 6.6539471e-21)
(0.3020091 -0.004443387 2.4894344e-22)
(0.31841224 -0.0042459148 -3.4514708e-21)
(0.33468762 -0.004050543 1.555875e-22)
(0.35081119 -0.0038580631 -5.7709798e-22)
(0.36676067 -0.0036691751 1.2434367e-21)
(0.38251566 -0.0034844914 1.0522436e-21)
(0.39805765 -0.0033045406 -1.2987944e-21)
(0.41337001 -0.0031297707 -1.2218727e-22)
(0.42843801 -0.0029605536 3.5748931e-23)
(0.4432488 -0.0027971896 -3.5187609e-22)
(0.45779137 -0.0026399115 -4.05655e-22)
(0.47205655 -0.0024888907 5.5413768e-23)
(0.48603692 -0.0023442426 -1.3809053e-22)
(0.49972679 -0.0022060324 -2.2343188e-22)
(0.51312213 -0.0020742824 2.5571962e-22)
(0.52622061 -0.0019489783 2.950203e-22)
(0.53902141 -0.0018300783 -8.2718106e-24)
(0.55152567 -0.001717517 -1.5517535e-22)
(0.56373533 -0.0016112333 3.0406587e-23)
(0.575657 -0.001511127 -4.0144932e-23)
(0.58729084 -0.0014172692 9.2205028e-23)
(0.59866588 -0.0013293234 2.1976905e-23)
(0.60973647 -0.0012485731 -1.1394953e-22)
(0.62069465 -0.0011718091 -6.7617551e-24)
(0.63106277 -0.0011112617 -7.2237394e-26)
(0.64235148 -0.0010339663 -3.5617491e-24)
(0.65042954 -0.0010508259 2.9453546e-23)
(0.66701083 -0.00087558267 3.6051231e-22)
(0.010445886 -0.015017615 -1.2746819e-20)
(0.018179718 -0.016641018 -6.3302345e-20)
(0.02777924 -0.017915421 -3.0541947e-20)
(0.038385175 -0.018672079 3.8476021e-20)
(0.049621022 -0.019183597 1.4662615e-20)
(0.061506669 -0.019529441 -1.8204933e-20)
(0.074012867 -0.019709874 4.6722033e-21)
(0.087062722 -0.019746502 2.5447195e-20)
(0.1005932 -0.019667291 9.1992526e-23)
(0.11455408 -0.019491711 -7.6591271e-21)
(0.12889725 -0.01923437 -1.3021019e-20)
(0.14357609 -0.018908322 -8.5245334e-21)
(0.15854673 -0.018524984 1.7772339e-20)
(0.17376764 -0.018094012 8.92955e-21)
(0.18919909 -0.01762369 -1.652244e-20)
(0.20480287 -0.017121243 -6.0390599e-21)
(0.22054226 -0.016593008 3.2145052e-21)
(0.23638188 -0.016044582 8.371634e-21)
(0.25228768 -0.015480944 6.9832296e-21)
(0.26822689 -0.014906553 -6.9727199e-21)
(0.28416811 -0.014325426 -3.1685495e-21)
(0.30008129 -0.013741187 1.3605364e-21)
(0.31593786 -0.013157112 3.8683074e-22)
(0.33171076 -0.012576155 1.2113965e-21)
(0.34737453 -0.012000972 1.8368427e-22)
(0.36290538 -0.011433938 -3.2661706e-22)
(0.37828124 -0.010877156 -7.2434965e-22)
(0.39348183 -0.010332469 9.7156809e-22)
(0.40848866 -0.0098014708 8.248311e-22)
(0.42328508 -0.0092855181 -1.5147536e-22)
(0.43785626 -0.0087857392 5.530623e-22)
(0.4521892 -0.0083030486 -2.388094e-22)
(0.4662727 -0.007838161 -3.7070046e-22)
(0.48009731 -0.0073916066 -6.0999281e-22)
(0.49365531 -0.0069637485 4.4171821e-22)
(0.50694067 -0.0065548005 -1.5479102e-23)
(0.51994899 -0.0061648474 1.6124936e-22)
(0.53267753 -0.0057938642 -4.4175086e-22)
(0.54512504 -0.0054417441 3.7189959e-22)
(0.55729219 -0.0051083089 6.7175715e-23)
(0.56918046 -0.0047933936 -1.0285427e-22)
(0.58079595 -0.0044967146 1.7614018e-22)
(0.59213839 -0.0042185007 2.3340176e-22)
(0.60323604 -0.0039577622 1.6926958e-22)
(0.61404347 -0.0037183448 1.6767787e-22)
(0.6247498 -0.0034906928 -2.6099481e-23)
(0.6348838 -0.0033112562 8.4050373e-23)
(0.64593318 -0.0030819174 7.6298367e-23)
(0.6538317 -0.0031324124 -1.9467462e-22)
(0.670094 -0.0026125038 -3.8024631e-23)
(0.067614716 -0.024029155 9.4528321e-21)
(0.073589701 -0.026749059 3.2950998e-21)
(0.082265542 -0.028805579 -1.2162204e-20)
(0.091947859 -0.029968516 -1.2257917e-21)
(0.10198325 -0.030767876 1.4970592e-20)
(0.11254638 -0.031330904 -1.4887126e-20)
(0.12367602 -0.031636084 -2.9842279e-20)
(0.13529688 -0.031713019 1.4493526e-20)
(0.14735702 -0.03160765 1.8181971e-20)
(0.1598235 -0.03135007 -1.1598519e-20)
(0.17266068 -0.030961835 1.0190555e-21)
(0.18583091 -0.030462769 8.6860159e-21)
(0.19929794 -0.029870567 -1.5253546e-20)
(0.21302668 -0.029200255 2.9095194e-21)
(0.22698255 -0.028464777 7.5194387e-21)
(0.24113154 -0.027675522 3.1595138e-23)
(0.2554403 -0.026842576 2.6556214e-22)
(0.26987622 -0.025974915 -7.4150896e-21)
(0.28440749 -0.025080583 3.861688e-21)
(0.29900318 -0.024166838 8.4749096e-21)
(0.31363335 -0.023240253 -3.8351783e-21)
(0.32826915 -0.022306794 -2.2130374e-21)
(0.34288296 -0.021371877 1.0124434e-21)
(0.35744847 -0.020440408 -1.7155342e-21)
(0.37194078 -0.019516816 1.353226e-21)
(0.3863365 -0.018605069 7.1845956e-22)
(0.40061383 -0.017708698 1.5268436e-21)
(0.41475259 -0.016830808 -1.9526667e-21)
(0.4287343 -0.015974094 2.2235743e-21)
(0.44254218 -0.015140859 5.5188674e-22)
(0.45616118 -0.014333032 4.0322958e-22)
(0.46957797 -0.013552188 3.2134505e-22)
(0.48278092 -0.012799569 8.7325462e-22)
(0.49576008 -0.012076115 -1.3708679e-21)
(0.50850714 -0.011382488 3.7065814e-22)
(0.52101542 -0.0107191 1.0941565e-22)
(0.5332798 -0.010086151 -4.5173239e-23)
(0.54529677 -0.0094836576 8.6731638e-23)
(0.55706428 -0.0089114988 -3.718531e-22)
(0.56858213 -0.0083694346 1.829376e-22)
(0.57985093 -0.0078572461 -3.4987415e-23)
(0.59087584 -0.0073745151 3.9005066e-22)
(0.60165576 -0.0069216708 -1.8544898e-22)
(0.61221759 -0.0064971248 4.7324532e-23)
(0.6225162 -0.0061072659 4.3605192e-23)
(0.63273532 -0.0057364065 -7.3602826e-23)
(0.64241586 -0.005444488 -1.2083406e-22)
(0.65300157 -0.0050705874 3.8811519e-22)
(0.66055171 -0.0051543436 1.7271412e-22)
(0.67619574 -0.0043071235 -8.3041005e-22)
(0.15021533 -0.031460442 1.5010127e-21)
(0.15354694 -0.035257409 -1.1566612e-20)
(0.16061628 -0.038010935 6.644196e-21)
(0.16880596 -0.039479114 -1.3324743e-20)
(0.1769823 -0.040520706 -1.9758313e-21)
(0.18552353 -0.041302298 9.1599431e-21)
(0.19458427 -0.041757255 -9.7662209e-21)
(0.204087 -0.041913729 1.5662767e-21)
(0.21398777 -0.04183335 1.2903802e-20)
(0.22427608 -0.041554356 3.4032013e-21)
(0.23493264 -0.041102066 -6.2096974e-21)
(0.24593032 -0.040500471 -2.8638114e-21)
(0.25724171 -0.039771772 -5.8409058e-21)
(0.26883925 -0.038935079 -6.4553166e-21)
(0.28069438 -0.038007 3.2356909e-21)
(0.29277778 -0.037002328 8.4620775e-22)
(0.30505991 -0.035934351 1.3679595e-21)
(0.31751117 -0.034815049 -3.385043e-21)
(0.33010215 -0.033655277 -4.2428897e-21)
(0.34280383 -0.032464924 2.361653e-21)
(0.35558779 -0.031253026 3.2251394e-21)
(0.36842637 -0.030027846 -1.5636226e-21)
(0.38129285 -0.028796933 1.5867285e-21)
(0.39416161 -0.027567164 -3.9124132e-22)
(0.40700821 -0.026344776 -3.9196477e-21)
(0.41980956 -0.025135386 -3.0332846e-21)
(0.43254397 -0.023944011 -1.9026426e-22)
(0.44519126 -0.022775085 4.2858834e-22)
(0.45773277 -0.021632478 -2.2106063e-21)
(0.47015142 -0.020519516 -8.549761e-22)
(0.48243174 -0.019439006 2.2837676e-22)
(0.49455985 -0.018393263 -1.2498734e-21)
(0.50652347 -0.017384142 6.2617934e-24)
(0.51831191 -0.016413072 -4.2421166e-22)
(0.52991602 -0.015481096 -4.7193712e-22)
(0.54132819 -0.01458891 -5.1996271e-22)
(0.55254231 -0.013736911 -8.4134019e-22)
(0.5635538 -0.012925236 -5.4495642e-23)
(0.5743595 -0.012153834 -3.9160636e-24)
(0.58495805 -0.011422482 -5.1973041e-22)
(0.59534888 -0.010730984 -9.160646e-23)
(0.60553583 -0.010078862 -3.3240033e-22)
(0.61551674 -0.0094668084 -4.3761064e-22)
(0.62531659 -0.0088927265 3.7842813e-22)
(0.63489077 -0.0083655008 1.4821486e-23)
(0.64441535 -0.0078636851 1.8238379e-22)
(0.65344874 -0.0074694531 -1.3247698e-22)
(0.66337153 -0.0069630726 -2.6692647e-22)
(0.67042371 -0.007079288 -4.4683314e-23)
(0.68518102 -0.0059328404 4.6230313e-22)
(0.25468571 -0.036552772 -2.0900316e-20)
(0.25447026 -0.041393523 4.7585959e-20)
(0.25907338 -0.044745672 1.0348096e-20)
(0.26508418 -0.046442058 -1.5765321e-20)
(0.27070938 -0.047714331 -2.0227954e-21)
(0.27652 -0.048747793 2.623226e-21)
(0.28283555 -0.049413736 -1.6608208e-21)
(0.28957697 -0.049728117 -4.6861428e-21)
(0.29669664 -0.04976145 -4.0159175e-21)
(0.30420554 -0.049557072 -1.2207641e-20)
(0.31210226 -0.049141708 1.789776e-20)
(0.32036945 -0.048540824 6.5219931e-21)
(0.32898708 -0.047778988 -1.6780529e-20)
(0.33793412 -0.046878043 1.0317574e-20)
(0.34718718 -0.045857325 8.3849911e-21)
(0.35672085 -0.044734339 -8.7923446e-22)
(0.36650856 -0.043525094 -3.1222222e-21)
(0.37652301 -0.042244275 -3.8197355e-21)
(0.38673655 -0.040905388 -1.3892597e-21)
(0.39712145 -0.039520882 -1.2304209e-21)
(0.40765025 -0.038102252 -3.0257645e-21)
(0.41829596 -0.036660101 0)
(0.42903232 -0.035204187 -1.3451932e-21)
(0.43983393 -0.033743456 3.930954e-21)
(0.45067646 -0.032286063 5.4052732e-21)
(0.46153673 -0.03083939 -9.4112602e-22)
(0.47239285 -0.029410065 -2.9274505e-21)
(0.48322427 -0.028003974 3.0258469e-21)
(0.49401189 -0.026626284 2.5447208e-22)
(0.50473805 -0.025281468 3.4352547e-21)
(0.5153866 -0.023973333 -5.345979e-22)
(0.52594286 -0.022705052 1.7173513e-21)
(0.53639367 -0.02147921 -7.9964729e-22)
(0.54672735 -0.020297841 2.9094434e-22)
(0.5569337 -0.019162481 -4.3404276e-22)
(0.56700397 -0.018074219 5.6231889e-22)
(0.57693085 -0.017033758 4.5710251e-22)
(0.58670849 -0.016041464 3.8255953e-22)
(0.59633241 -0.015097455 -9.5937191e-22)
(0.60579988 -0.014201627 6.8356244e-22)
(0.61510894 -0.0133539 -3.6957843e-22)
(0.62426195 -0.012553834 -1.1033379e-21)
(0.63325547 -0.011802461 1.4078459e-21)
(0.64211222 -0.011097288 -6.2007136e-23)
(0.6507884 -0.010449619 -1.581648e-22)
(0.65945048 -0.009832754 -7.8248206e-24)
(0.66767912 -0.0093493814 -1.2622476e-22)
(0.67677514 -0.0087263513 -4.6584836e-22)
(0.68320711 -0.0088738095 8.7882238e-22)
(0.69685293 -0.0074650883 -4.4316687e-23)
(0.37635136 -0.038368183 -1.7495102e-20)
(0.37170984 -0.044270246 1.2832048e-20)
(0.37286697 -0.04816163 2.975461e-21)
(0.37591053 -0.05009887 -7.6353749e-21)
(0.37830535 -0.051669991 1.2055985e-20)
(0.38072302 -0.053042393 7.7914132e-21)
(0.3836761 -0.05403006 -1.2647692e-20)
(0.38710067 -0.054633124 -6.0679779e-21)
(0.39092933 -0.054918026 1.2697343e-20)
(0.39518253 -0.054927157 -1.530498e-20)
(0.39987436 -0.054687539 -1.4063194e-20)
(0.40499519 -0.054224677 1.4129641e-20)
(0.41052874 -0.053563685 6.8193859e-21)
(0.41645731 -0.052727975 -4.2037725e-21)
(0.42276028 -0.051739043 -1.8545585e-21)
(0.42941418 -0.050616777 -4.0581701e-21)
(0.43639364 -0.04937973 5.3047585e-21)
(0.44367212 -0.048045257 3.6682104e-21)
(0.45122242 -0.046629579 -3.2408301e-21)
(0.45901698 -0.045147847 3.1379501e-21)
(0.46702827 -0.043614192 2.766683e-21)
(0.47522912 -0.04204176 -3.2111164e-21)
(0.48359291 -0.040442736 3.7056584e-22)
(0.4920938 -0.038828353 -3.257166e-21)
(0.5007069 -0.037208902 7.24543e-21)
(0.50940841 -0.035593745 6.1080701e-21)
(0.51817573 -0.03399132 8.0973546e-22)
(0.52698755 -0.032409164 -1.7683261e-21)
(0.53582388 -0.030853926 3.70219e-21)
(0.54466617 -0.029331402 7.1885435e-21)
(0.55349724 -0.027846564 2.3049365e-21)
(0.56230138 -0.026403607 3.3165001e-21)
(0.5710643 -0.025005992 1.9956283e-21)
(0.57977313 -0.023656504 7.4558358e-22)
(0.58841643 -0.022357313 -2.6374606e-22)
(0.59698417 -0.021110032 2.7203313e-21)
(0.60546768 -0.019915794 6.1992658e-22)
(0.61385973 -0.018775319 2.9488001e-22)
(0.62215443 -0.017689009 5.6232899e-23)
(0.63034758 -0.016656989 9.8967908e-22)
(0.63843577 -0.015679407 4.70205e-23)
(0.64641975 -0.014755961 4.4248279e-22)
(0.65429479 -0.013888103 -1.262202e-22)
(0.66208116 -0.013073068 -2.773557e-22)
(0.66973612 -0.012324483 -1.5219103e-22)
(0.67741514 -0.011610979 -4.2209519e-22)
(0.68472508 -0.011053695 1.6140393e-22)
(0.69287348 -0.0103325 -1.2724211e-22)
(0.69859643 -0.010509624 -5.0125937e-22)
(0.71095921 -0.0088819821 2.4587516e-22)
(0.50927437 -0.035974296 3.6471445e-21)
(0.49953046 -0.042960677 -1.8958302e-20)
(0.49627563 -0.047383475 -2.3083855e-21)
(0.49555599 -0.04973678 5.4869518e-21)
(0.4941696 -0.051818045 3.0528116e-21)
(0.4926958 -0.053705412 -4.9885069e-23)
(0.49181236 -0.05518765 6.1896705e-21)
(0.49151458 -0.056265399 7.625104e-21)
(0.49171174 -0.056990533 9.8580429e-21)
(0.4924108 -0.057395574 -1.1250045e-20)
(0.49363113 -0.057506301 -2.157943e-20)
(0.49536786 -0.057348417 -3.9353502e-21)
(0.49760477 -0.05694713 1.593815e-20)
(0.50032312 -0.056327008 1.2808964e-20)
(0.50350176 -0.055511732 -5.9066957e-21)
(0.50711664 -0.054523845 1.3817024e-21)
(0.51114152 -0.053384782 -3.660088e-21)
(0.51554888 -0.052114937 2.2443814e-21)
(0.52031043 -0.050733645 -2.9123033e-22)
(0.5253975 -0.049259162 -1.8654111e-21)
(0.53078142 -0.047708658 7.8265974e-21)
(0.53643382 -0.046098208 -2.9308978e-22)
(0.5423269 -0.044442787 4.1818324e-22)
(0.5484336 -0.042756261 -6.5646488e-22)
(0.55472783 -0.041051382 -4.3029433e-21)
(0.56118455 -0.039339787 4.2085213e-21)
(0.56777991 -0.037632008 1.9031228e-21)
(0.57449136 -0.035937486 -3.308197e-21)
(0.58129765 -0.034264591 -4.1116478e-21)