/*--------------------------------*- C++ -*----------------------------------*\
  =========                 |
  \\      /  F ield         | OpenFOAM: The Open Source CFD Toolbox
   \\    /   O peration     | Website:  https://openfoam.org
    \\  /    A nd           | Version:  6
     \\/     M anipulation  |
\*---------------------------------------------------------------------------*/
FoamFile
{
    version     2.0;
    format      ascii;
    class       volVectorField;
    location    "189";
    object      U_0;
}
// * * * * * * * * * * * * * * * * * * * * * * * * * * * * * * * * * * * * * //

dimensions      [0 1 -1 0 0 0 0];

internalField   nonuniform List<vector> 
9200
(
(0.0010393469 0.001419982 -5.9201857e-20)
(0.013676071 -0.0020583684 4.6042536e-20)
(0.038313176 -0.0058665713 -3.8501745e-20)
(0.072274453 -0.0097635101 -6.0257759e-20)
(0.11376477 -0.013490035 1.8826966e-20)
(0.16158092 -0.016605666 3.2743884e-20)
(0.21467152 -0.018817295 -1.2268008e-20)
(0.27206613 -0.019973902 9.2688614e-21)
(0.33285629 -0.020011236 1.680343e-20)
(0.39616355 -0.018929066 1.4848075e-21)
(0.46111564 -0.016779831 -2.1456339e-20)
(0.52683696 -0.013657748 2.0670006e-20)
(0.59245078 -0.009688016 -4.0422152e-20)
(0.65709142 -0.0050157951 -2.1133904e-20)
(0.71992483 0.00020554189 5.9046533e-21)
(0.78017514 0.0058240745 -2.5131677e-20)
(0.83717072 0.011712791 2.5217116e-20)
(0.89046889 0.017918489 2.2243193e-20)
(0.93967083 0.024573387 -2.9929719e-22)
(0.98205199 0.028293354 -1.669188e-21)
(0.0052521817 -0.0013462736 -1.7059356e-20)
(0.026962507 -0.0089890289 3.9747714e-20)
(0.061670128 -0.014809768 2.3576298e-20)
(0.10629491 -0.019172275 -1.156976e-19)
(0.15873568 -0.022214003 -1.2727089e-20)
(0.21753356 -0.023720692 7.3297098e-20)
(0.28137301 -0.023595104 -3.5476405e-20)
(0.34900607 -0.021868973 -8.3905582e-21)
(0.41923927 -0.018645533 3.4287545e-20)
(0.49090952 -0.014080851 -4.3259584e-20)
(0.56287241 -0.0083759614 -3.0338484e-20)
(0.63400857 -0.0017666059 7.1921441e-20)
(0.7032434 0.0054883819 3.8294054e-20)
(0.76957592 0.013118618 -6.7976568e-20)
(0.83211257 0.020852067 1.4623693e-20)
(0.89010049 0.028419687 -3.6733406e-20)
(0.94296928 0.035569652 -1.3777196e-20)
(0.99043242 0.042140861 7.0974787e-20)
(1.0323562 0.04771528 2.9641988e-20)
(1.0669349 0.049139657 -8.347834e-20)
(0.010858429 -0.0040424167 3.6773463e-20)
(0.043953422 -0.01543108 2.5047352e-21)
(0.090515451 -0.022552287 2.2341708e-20)
(0.14711142 -0.026497365 9.811685e-22)
(0.21134258 -0.027886305 -4.0773935e-20)
(0.28146772 -0.026795123 1.8576408e-20)
(0.35587046 -0.023382737 1.3420301e-20)
(0.43299014 -0.017921547 -5.0327709e-20)
(0.51132485 -0.010735661 5.7261864e-20)
(0.58942622 -0.0021838923 1.4256688e-20)
(0.66590925 0.007347892 -5.4300716e-20)
(0.73948046 0.017460248 -1.8237405e-20)
(0.80897608 0.027756545 9.0591642e-21)
(0.87340275 0.037859251 2.3444741e-20)
(0.93197373 0.047424019 -1.1362507e-20)
(0.98413378 0.056148945 2.7877733e-20)
(1.0295741 0.063789141 -2.0188244e-20)
(1.0682646 0.070204356 -7.0123606e-20)
(1.1003323 0.075119337 -2.379628e-20)
(1.1249113 0.076641193 4.8659838e-20)
(0.017957217 -0.0064221646 2.4508016e-20)
(0.064777006 -0.020694803 5.1039233e-20)
(0.1248523 -0.028060853 1.98817e-20)
(0.19446969 -0.030464072 1.2990105e-20)
(0.27094936 -0.029094849 1.7275708e-20)
(0.35224885 -0.024388987 -4.7720176e-20)
(0.43643145 -0.016825982 -2.5646857e-20)
(0.52162015 -0.0069766805 0)
(0.60602904 0.0045670207 1.3920611e-20)
(0.68798716 0.017211719 -5.8523365e-21)
(0.76597527 0.030373907 -9.7934963e-20)
(0.83867457 0.043499615 -1.5774821e-20)
(0.90501536 0.056086597 6.5103212e-20)
(0.96421581 0.067704112 4.8442663e-22)
(1.0158036 0.078007689 -1.572557e-21)
(1.0596156 0.086746763 2.1957499e-20)
(1.0957774 0.093772194 -5.264721e-21)
(1.1246801 0.099065297 -6.1029746e-20)
(1.1468648 0.10259704 -4.5851242e-20)
(1.1622958 0.10341381 6.9520529e-20)
(0.026579425 -0.0082056896 -3.9194179e-21)
(0.089344034 -0.02403351 -5.1256227e-21)
(0.16430756 -0.030264994 5.659942e-20)
(0.24758123 -0.029810026 1.853933e-20)
(0.33624165 -0.024513035 -3.1955068e-20)
(0.42795132 -0.015239867 1.2163842e-20)
(0.52047269 -0.0028513709 2.6402862e-21)
(0.61166366 0.011737086 3.3609168e-20)
(0.69954721 0.027640132 5.659951e-21)
(0.78236847 0.044028757 -1.3204741e-20)
(0.85865416 0.06014771 6.0154051e-20)
(0.92726921 0.075340455 -5.8009371e-20)
(0.98745686 0.089072842 -1.3216616e-19)
(1.0388532 0.100949 -5.5773047e-21)
(1.0814726 0.11071706 8.3150788e-20)
(1.1156656 0.11826402 0)
(1.1420549 0.1236058 1.011896e-20)
(1.1614669 0.12689052 -1.5459773e-20)
(1.174818 0.12829867 -8.5994615e-21)
(1.1826674 0.12744912 2.0992232e-20)
(0.036666915 -0.0090895813 -5.4309047e-21)
(0.11731513 -0.024685361 4.3578753e-21)
(0.20811871 -0.028140183 -8.7629852e-21)
(0.30515706 -0.02341496 2.8472396e-20)
(0.40533545 -0.013075597 -2.939266e-20)
(0.50607154 0.0015226095 -1.6927022e-20)
(0.60490498 0.019095134 3.7364243e-20)
(0.69954968 0.038365247 4.7595476e-21)
(0.78800402 0.058167637 -2.443606e-20)
(0.86863415 0.077482994 6.9867577e-20)
(0.94023983 0.09545863 5.239379e-22)
(1.0020957 0.11143155 -8.0444338e-20)
(1.053957 0.12494289 0)
(1.0960274 0.13573748 3.9542124e-20)
(1.1288923 0.14374841 5.5236013e-21)
(1.1534279 0.1490689 -7.7566413e-20)
(1.1706991 0.1519191 -1.9586925e-20)
(1.1818624 0.15262365 -1.2467634e-20)
(1.1880592 0.15152602 -1.470939e-20)
(1.1901461 0.14858489 4.0420527e-20)
(0.048058876 -0.0087674068 -1.7277954e-20)
(0.14808312 -0.021931997 -2.2198422e-21)
(0.25514073 -0.020797839 3.0380502e-20)
(0.36546389 -0.010412797 3.7484314e-20)
(0.47590427 0.0059015847 -1.9944733e-20)
(0.58374274 0.026269303 -6.9163026e-20)
(0.68644194 0.048977205 -2.7995796e-20)
(0.78176213 0.072417784 7.8929227e-20)
(0.86790205 0.095212472 8.5778168e-21)
(0.94358926 0.1162496 -2.4873489e-20)
(1.0081259 0.13469826 1.3642214e-20)
(1.0613871 0.15001554 -4.3194508e-21)
(1.1037694 0.16193657 0)
(1.1360976 0.17044426 2.7203487e-20)
(1.1595047 0.17572306 -7.9322425e-20)
(1.1753021 0.17810367 -3.1475533e-20)
(1.184857 0.1780081 8.105459e-20)
(1.1894922 0.17590942 -4.2969864e-21)
(1.190403 0.17225555 3.5561074e-21)
(1.188508 0.16719294 2.7111574e-20)
(0.06048526 -0.0069573653 -3.2414607e-20)
(0.18077775 -0.015170383 -8.1624316e-20)
(0.30388933 -0.0075835293 2.579781e-21)
(0.42642561 0.0097033546 7.0161783e-20)
(0.54535156 0.032631552 6.2424367e-20)
(0.65798108 0.058820042 -7.1574536e-20)
(0.76190891 0.086176506 -2.8275349e-22)
(0.855183 0.11285231 8.5522577e-20)
(0.93645356 0.13737837 4.8828085e-20)
(1.0050416 0.15869369 -5.4218426e-20)
(1.0609357 0.17613562 -9.2334237e-20)
(1.1047243 0.18941353 -3.1589832e-21)
(1.137476 0.19855942 4.2127872e-20)
(1.1605874 0.20385855 -6.6056284e-21)
(1.1756248 0.20577017 -1.2868787e-20)
(1.1841777 0.20484916 1.9690809e-20)
(1.1877428 0.20167894 4.3880625e-20)
(1.1876454 0.19682585 -4.3859439e-20)
(1.1849954 0.1907788 -1.0232204e-19)
(1.180625 0.18377376 2.4566885e-20)
(0.073537226 -0.0034329745 -3.4979755e-20)
(0.2142269 -0.0039890266 -1.7388606e-19)
(0.35251661 0.011839376 8.2103171e-20)
(0.48562803 0.037018338 9.2767469e-20)
(0.61085386 0.066835553 5.797057e-20)
(0.72576735 0.098481179 8.6107113e-21)
(0.82834811 0.12959696 -1.0624015e-19)
(0.91719007 0.15824269 0)
(0.99162753 0.18302814 -6.8748626e-20)
(1.0517522 0.20311206 -1.5202419e-20)
(1.0983385 0.21814859 5.4703473e-20)
(1.1327009 0.22821081 1.0973383e-20)
(1.156511 0.23369259 -4.5613857e-20)
(1.1716068 0.23519945 -4.9081366e-20)
(1.1798204 0.23344333 2.4287684e-20)
(1.1828451 0.22915321 4.4822901e-20)
(1.1821489 0.22300983 -5.560042e-20)
(1.1789361 0.21560819 -1.0751124e-19)
(1.1741469 0.20742221 -3.1513616e-21)
(1.1684568 0.19871877 2.7046405e-20)
(0.086650458 0.0019613861 -3.5449089e-21)
(0.24696022 0.011816636 8.7913163e-20)
(0.39884744 0.037492313 -1.6479288e-20)
(0.54040471 0.071218385 -8.4309058e-20)
(0.66949909 0.10778894 4.5164378e-20)
(0.78421961 0.14411544 4.917551e-20)
(0.88318948 0.17775669 5.5356823e-21)
(0.96577879 0.2068849 -9.9502553e-20)
(1.0321764 0.23038802 -2.504879e-21)
(1.0833329 0.24781553 5.050356e-20)
(1.1208071 0.259263 5.9854794e-21)
(1.1465559 0.26523619 -1.9717196e-20)
(1.1627108 0.26650532 -7.5704623e-20)
(1.1713765 0.2639662 -6.2554025e-21)
(1.1744763 0.25852427 4.3533358e-20)
(1.1736549 0.25101086 3.7022019e-20)
(1.1702383 0.24213392 1.9793443e-20)
(1.1652403 0.23245872 -5.2994859e-20)
(1.1594014 0.22240415 1.2957448e-20)
(1.1532252 0.21223796 8.2659112e-20)
(-0.0012932617 0.00143466 -1.1234464e-21)
(-0.004745961 0.0031874153 2.0646972e-21)
(-0.01077136 0.0041359046 8.7949477e-22)
(-0.01775429 0.0045395365 -2.4411001e-21)
(-0.024740321 0.0045654171 -1.4114827e-21)
(-0.031299597 0.0043260389 1.5460056e-21)
(-0.037161332 0.0039035384 -6.8700805e-21)
(-0.042147447 0.0033577219 -5.9573101e-21)
(-0.046157781 0.0027313812 1.1172e-20)
(-0.049146195 0.0020548304 -9.7427509e-21)
(-0.051100659 0.0013493001 -1.9833182e-22)
(-0.052030448 0.00062942145 3.6673435e-21)
(-0.051957742 -9.4890123e-05 -6.329566e-22)
(-0.050911885 -0.00081693121 2.2818749e-20)
(-0.048925781 -0.0015318457 3.0401181e-22)
(-0.046035343 -0.0022351752 -4.0882881e-20)
(-0.042281798 -0.0029222694 7.538563e-21)
(-0.037703441 -0.0035910401 2.3864117e-20)
(-0.032308691 -0.0042399883 -4.3852388e-20)
(-0.026156959 -0.0048211151 -2.7739213e-20)
(-0.0016522002 0.0041808669 -5.3716022e-21)
(-0.0053974819 0.0092681395 1.086544e-20)
(-0.011218511 0.012007445 -1.0191539e-20)
(-0.017658028 0.013153766 3.9229724e-21)
(-0.023856435 0.013195415 4.8121441e-21)
(-0.029433321 0.012462726 7.1324198e-22)
(-0.034152324 0.011197015 -2.2509496e-20)
(-0.037860382 0.0095738974 -2.0370232e-21)
(-0.040474302 0.0077189874 2.0163542e-20)
(-0.041958925 0.0057212302 -5.0473609e-21)
(-0.042308953 0.0036428639 -2.1762592e-20)
(-0.041537339 0.0015267116 4.8973178e-21)
(-0.039667714 -0.000598307 2.2635427e-20)
(-0.036729082 -0.002712763 1.0308393e-20)
(-0.032752033 -0.0048026917 2.1854289e-20)
(-0.027769169 -0.0068555115 -1.9770733e-20)
(-0.021824792 -0.0088582233 -2.1672949e-20)
(-0.014966266 -0.010804229 2.1184622e-20)
(-0.0071290108 -0.012679006 2.6810372e-20)
(0.0018743039 -0.014317229 1.585477e-20)
(-0.0023034295 0.0065602336 -4.3568688e-21)
(-0.0065392247 0.014480197 -5.6387545e-21)
(-0.011892133 0.018710545 3.072393e-22)
(-0.017211101 0.020428183 1.095986e-21)
(-0.021819144 0.020400326 6.6918388e-21)
(-0.025431043 0.019151667 1.0665166e-20)
(-0.027877234 0.017066289 -3.7227643e-21)
(-0.029053271 0.014423783 -1.8896162e-20)
(-0.028909038 0.011424352 6.5413172e-21)
(-0.02743105 0.0082099044 1.2862571e-20)
(-0.024627713 0.0048797747 5.8340838e-21)
(-0.020520107 0.0015022365 1.8159109e-20)
(-0.015135983 -0.0018768661 1.7295917e-21)
(-0.0085053944 -0.0052272514 -3.3864534e-20)
(-0.00065688682 -0.0085276146 1.2020171e-21)
(0.0083810249 -0.011759115 -2.2139215e-20)
(0.018556877 -0.014904103 -2.4466307e-20)
(0.029802193 -0.01795376 4.581972e-20)
(0.042304978 -0.020855125 2.5349353e-20)
(0.056738588 -0.023247775 1.2239311e-22)
(-0.003129028 0.0083689711 -5.2833073e-21)
(-0.0078963998 0.018336515 -8.4815283e-21)
(-0.012438987 0.023587811 4.3593042e-21)
(-0.016026536 0.025609661 4.1463451e-21)
(-0.018235025 0.025382748 2.0105703e-21)
(-0.018912652 0.023589323 7.3209967e-21)
(-0.017984717 0.020730274 9.3124788e-21)
(-0.015416709 0.017170378 -1.3511361e-21)
(-0.011207046 0.013171313 -1.1481948e-20)
(-0.005375231 0.0089189303 -2.9071879e-20)
(0.0020481151 0.0045434349 6.1892208e-23)
(0.011026513 0.00013430767 4.0697825e-20)
(0.021522231 -0.0042489554 -1.8383174e-20)
(0.033497858 -0.0085675904 -1.2296089e-20)
(0.046920521 -0.012795553 5.5348933e-22)
(0.061760106 -0.016911863 3.2302649e-20)
(0.077953027 -0.020901679 -1.4829546e-20)
(0.09539228 -0.024763386 -5.3339193e-20)
(0.11439847 -0.028379729 4.5765016e-20)
(0.13634541 -0.031073108 3.3013175e-20)
(-0.0039704101 0.0094657334 -6.878895e-22)
(-0.0090916589 0.020487794 -1.253474e-20)
(-0.012364472 0.026159089 -3.4144539e-20)
(-0.013552541 0.028143341 -5.7241638e-21)
(-0.01253324 0.027555009 -3.6222735e-21)
(-0.0093167235 0.025188066 6.305104e-21)
(-0.0039456426 0.021627412 -4.6461957e-21)
(0.0035261319 0.01729896 -8.8070261e-21)
(0.013036826 0.012508751 2.189971e-20)
(0.02452125 0.0074744404 5.0567064e-21)
(0.037915549 0.0023489005 -2.5290297e-20)
(0.053157459 -0.002762789 1.1078279e-20)
(0.070186884 -0.0077908809 0)
(0.088946602 -0.012691311 1.2089577e-20)
(0.10938546 -0.017436928 -9.7016188e-21)
(0.13145744 -0.022009907 -1.4337121e-20)
(0.1550741 -0.026408658 -1.5738942e-21)
(0.18006764 -0.030659435 -2.2181559e-21)
(0.20685346 -0.03457655 4.614707e-20)
(0.23766364 -0.037019886 -1.0470129e-20)
(-0.0046450984 0.0097808635 -7.5356683e-21)
(-0.0096772517 0.020747882 2.4516404e-20)
(-0.011064381 0.02616098 -1.0499349e-20)
(-0.0090968323 0.027724447 -2.7469285e-20)
(-0.0039797192 0.026601697 -2.7548152e-20)
(0.0040961863 0.023648409 -1.492157e-20)
(0.014954155 0.019496457 -6.9059394e-22)
(0.028436244 0.014604704 5.5499759e-21)
(0.044403159 0.0093034442 1.9615876e-20)
(0.062730512 0.0038284117 7.3530857e-21)
(0.083304335 -0.0016547604 -7.186221e-21)
(0.106019 -0.0070322455 -2.0102298e-21)
(0.1307736 -0.012229106 -3.8191714e-20)
(0.15746947 -0.017199763 -1.2693646e-20)
(0.18601204 -0.021919746 1.875061e-20)
(0.21631182 -0.026379731 -2.1021677e-20)
(0.24823229 -0.030602239 -8.9730591e-21)
(0.28151874 -0.034670625 3.044047e-20)
(0.31660711 -0.038364839 5.0472077e-20)
(0.35665023 -0.039964121 3.3559669e-21)
(-0.0049617689 0.0093139998 1.6783306e-20)
(-0.0091662699 0.019097711 1.4467941e-20)
(-0.0078593647 0.023563368 5.1145497e-20)
(-0.0018585377 0.024328945 2.3387984e-20)
(0.0082957269 0.022523784 1.8251773e-22)
(0.022221947 0.019014385 -3.9388454e-20)
(0.039597452 0.014440935 -2.4313865e-20)
(0.060147918 0.0092663569 1.0465816e-20)
(0.083639134 0.003823224 1.4401587e-20)
(0.10986671 -0.001651305 -1.311371e-20)
(0.13864566 -0.006991017 -4.4038721e-20)
(0.16980174 -0.012082856 2.9618502e-20)
(0.20316409 -0.01685417 2.0020553e-20)
(0.23855951 -0.021264008 -2.755116e-20)
(0.27581236 -0.025296417 1.1650137e-20)
(0.31474817 -0.028957184 2.4197616e-20)
(0.35514553 -0.03230307 8.0723956e-21)
(0.39663395 -0.035506697 -1.1764213e-20)
(0.4395771 -0.038392664 -1.4190299e-20)
(0.4879852 -0.038634426 5.8727631e-21)
(-0.0047307767 0.0081236741 1.1093847e-20)
(-0.0070586006 0.015671177 -2.3352722e-20)
(-0.0020293646 0.018562034 8.6200612e-21)
(0.0090325238 0.018216226 3.3587969e-20)
(0.025256368 0.01565115 5.2124355e-20)
(0.046066349 0.011695602 2.0276512e-20)
(0.070984538 0.0069609494 -5.8639386e-21)
(0.099601969 0.0018829469 -1.2286284e-20)
(0.13156897 -0.0032272041 -6.2057488e-21)
(0.1665757 -0.0081496651 3.424084e-20)
(0.20433429 -0.01273333 -4.5104397e-21)
(0.24456489 -0.016879198 -1.6643303e-20)
(0.28698475 -0.020528698 -1.9693575e-20)
(0.33130004 -0.023656426 -4.7443745e-20)
(0.37720465 -0.026265548 2.3238707e-20)
(0.42438778 -0.028387877 -1.4095986e-20)
(0.47249982 -0.030127637 2.5993402e-20)
(0.52103627 -0.031783207 2.1040826e-20)
(0.57021405 -0.033350697 -8.5570396e-20)
(0.62470927 -0.03205886 -1.0807154e-22)
(-0.0037710522 0.0063146401 2.192506e-20)
(-0.0028657657 0.010735096 -2.6165532e-20)
(0.0071421076 0.011564137 -4.5013307e-20)
(0.024450239 0.0099249891 -2.7253785e-20)
(0.047870861 0.0066523042 -2.0439869e-21)
(0.076628718 0.0024906141 1.3050092e-20)
(0.11007675 -0.0020153997 -2.8337689e-21)
(0.14765209 -0.0064879099 1.811854e-20)
(0.18886099 -0.010663511 8.8685633e-21)
(0.23325199 -0.01436243 -1.1380174e-20)
(0.28039154 -0.017468959 8.8779133e-21)
(0.32984609 -0.019916817 -2.3903271e-20)
(0.38116887 -0.021678709 8.0504775e-21)
(0.43389092 -0.022759888 1.6756394e-20)
(0.48751944 -0.023194315 -2.639513e-21)
(0.54154725 -0.023046906 1.6618978e-21)
(0.59543556 -0.022469461 -3.1957561e-22)
(0.64851794 -0.021870121 1.9590423e-20)
(0.70082251 -0.02144508 4.0434009e-21)
(0.75745162 -0.0184991 -5.7334764e-22)
(-0.0019110143 0.0040273485 2.3692115e-20)
(0.0038694317 0.0046765202 5.7159962e-20)
(0.020315315 0.0031879636 -4.9244236e-20)
(0.045178294 0.00029442435 -9.9454151e-21)
(0.076965166 -0.0034241548 2.0256347e-20)
(0.11469625 -0.0073535902 2.1433722e-21)
(0.15753886 -0.011054962 -2.9815168e-20)
(0.20474834 -0.014244146 6.9848129e-21)
(0.25564954 -0.016737936 7.1097877e-21)
(0.30960478 -0.018426966 -2.6254081e-20)
(0.36598654 -0.019260108 1.2927325e-21)
(0.42415965 -0.019231878 -3.7174118e-20)
(0.48347109 -0.018372214 -3.6341019e-20)
(0.54324574 -0.016738289 6.5683486e-20)
(0.60278822 -0.014407316 5.5627489e-21)
(0.66138895 -0.011475914 -1.5188796e-20)
(0.71830796 -0.008102062 1.9363968e-20)
(0.77269913 -0.004592884 -9.1888144e-22)
(0.82408847 -0.00096806815 2.0364578e-20)
(0.87621979 0.0043280471 -1.9554149e-20)
(-0.018836414 -0.0050997044 5.8352056e-20)
(-0.01022465 -0.0056349277 1.578367e-20)
(-0.00022118812 -0.0060688806 -3.5139564e-20)
(0.010823234 -0.0063341101 1.6790236e-20)
(0.022642476 -0.0065120473 0)
(0.035177897 -0.0066300902 0)
(0.048369675 -0.0066909735 -2.2974949e-20)
(0.062138093 -0.0067025398 -1.6502872e-20)
(0.076412738 -0.0066741742 1.9122594e-20)
(0.091134102 -0.0066126655 1.8174035e-20)
(0.10624721 -0.0065232056 1.0524255e-21)
(0.12170026 -0.0064103578 -1.0317637e-20)
(0.13744495 -0.006278081 8.32688e-21)
(0.15343606 -0.0061297223 1.8233718e-20)
(0.16963083 -0.005968145 -5.2274176e-21)
(0.18598862 -0.0057958345 -1.0174936e-20)
(0.20247066 -0.0056149621 -4.3195877e-21)
(0.21903993 -0.0054274366 -4.4257389e-21)
(0.235661 -0.0052349501 7.3667187e-22)
(0.25230001 -0.0050390131 1.2286041e-21)
(0.26892462 -0.0048409805 2.5666318e-21)
(0.28550405 -0.0046420721 6.6539472e-21)
(0.3020091 -0.004443387 2.4894364e-22)
(0.31841224 -0.0042459148 -3.4514708e-21)
(0.33468762 -0.004050543 1.5558753e-22)
(0.35081119 -0.0038580631 -5.7709799e-22)
(0.36676067 -0.0036691751 1.2434367e-21)
(0.38251567 -0.0034844915 1.0522437e-21)
(0.39805766 -0.0033045406 -1.2987944e-21)
(0.41337001 -0.0031297707 -1.2218727e-22)
(0.42843801 -0.0029605537 3.5748905e-23)
(0.4432488 -0.0027971896 -3.5187609e-22)
(0.45779138 -0.0026399115 -4.0565503e-22)
(0.47205656 -0.0024888908 5.5413816e-23)
(0.48603692 -0.0023442426 -1.3809053e-22)
(0.49972679 -0.0022060324 -2.2343186e-22)
(0.51312213 -0.0020742825 2.557196e-22)
(0.52622061 -0.0019489783 2.9502028e-22)
(0.53902142 -0.0018300783 -8.2718778e-24)
(0.55152567 -0.001717517 -1.5517542e-22)
(0.56373533 -0.0016112334 3.0406563e-23)
(0.575657 -0.0015111271 -4.0144899e-23)
(0.58729085 -0.0014172692 9.2204918e-23)
(0.59866588 -0.0013293234 2.1976958e-23)
(0.60973648 -0.0012485732 -1.1394914e-22)
(0.62069465 -0.0011718091 -6.7617157e-24)
(0.63106277 -0.0011112617 -7.2259552e-26)
(0.64235149 -0.0010339664 -3.561761e-24)
(0.65042955 -0.001050826 2.9453602e-23)
(0.66701084 -0.00087558276 3.6051214e-22)
(0.010445886 -0.015017615 -1.2746819e-20)
(0.018179718 -0.016641018 -6.3302347e-20)
(0.027779241 -0.017915421 -3.0541947e-20)
(0.038385175 -0.018672079 3.8476022e-20)
(0.049621022 -0.019183597 1.4662615e-20)
(0.06150667 -0.019529441 -1.8204933e-20)
(0.074012867 -0.019709874 4.672203e-21)
(0.087062722 -0.019746502 2.5447196e-20)
(0.1005932 -0.019667291 9.1992983e-23)
(0.11455408 -0.019491711 -7.6591271e-21)
(0.12889725 -0.01923437 -1.3021019e-20)
(0.14357609 -0.018908322 -8.5245332e-21)
(0.15854673 -0.018524984 1.7772339e-20)
(0.17376764 -0.018094012 8.9295494e-21)
(0.18919909 -0.017623691 -1.6522441e-20)
(0.20480287 -0.017121243 -6.03906e-21)
(0.22054226 -0.016593008 3.2145054e-21)
(0.23638188 -0.016044582 8.3716343e-21)
(0.25228768 -0.015480944 6.9832297e-21)
(0.26822689 -0.014906553 -6.9727199e-21)
(0.28416811 -0.014325426 -3.1685493e-21)
(0.30008129 -0.013741187 1.3605363e-21)
(0.31593786 -0.013157112 3.868306e-22)
(0.33171076 -0.012576155 1.2113965e-21)
(0.34737453 -0.012000972 1.8368426e-22)
(0.36290538 -0.011433938 -3.2661705e-22)
(0.37828124 -0.010877156 -7.2434965e-22)
(0.39348183 -0.010332469 9.7156811e-22)
(0.40848866 -0.0098014708 8.2483113e-22)
(0.42328508 -0.0092855181 -1.5147541e-22)
(0.43785626 -0.0087857392 5.5306235e-22)
(0.4521892 -0.0083030487 -2.3880941e-22)
(0.4662727 -0.0078381611 -3.7070053e-22)
(0.48009731 -0.0073916067 -6.0999287e-22)
(0.49365531 -0.0069637486 4.4171821e-22)
(0.50694067 -0.0065548006 -1.5479242e-23)
(0.519949 -0.0061648475 1.612495e-22)
(0.53267753 -0.0057938643 -4.4175102e-22)
(0.54512504 -0.0054417442 3.7189996e-22)
(0.55729219 -0.005108309 6.7175721e-23)
(0.56918047 -0.0047933938 -1.0285404e-22)
(0.58079595 -0.0044967147 1.761406e-22)
(0.59213839 -0.0042185009 2.3340228e-22)
(0.60323605 -0.0039577624 1.6926993e-22)
(0.61404347 -0.003718345 1.6767835e-22)
(0.62474981 -0.003490693 -2.6099383e-23)
(0.63488381 -0.0033112564 8.4050345e-23)
(0.64593318 -0.0030819176 7.6298328e-23)
(0.6538317 -0.0031324127 -1.9467525e-22)
(0.67009401 -0.0026125041 -3.8025651e-23)
(0.067614716 -0.024029155 9.452832e-21)
(0.073589701 -0.026749059 3.2950997e-21)
(0.082265542 -0.028805579 -1.2162204e-20)
(0.091947859 -0.029968516 -1.2257918e-21)
(0.10198325 -0.030767876 1.4970592e-20)
(0.11254638 -0.031330904 -1.4887126e-20)
(0.12367602 -0.031636084 -2.9842279e-20)
(0.13529688 -0.031713019 1.4493526e-20)
(0.14735702 -0.03160765 1.8181971e-20)
(0.1598235 -0.03135007 -1.1598519e-20)
(0.17266068 -0.030961835 1.0190555e-21)
(0.18583091 -0.030462769 8.6860164e-21)
(0.19929794 -0.029870567 -1.5253546e-20)
(0.21302668 -0.029200255 2.9095186e-21)
(0.22698255 -0.028464777 7.5194386e-21)
(0.24113154 -0.027675522 3.1595645e-23)
(0.2554403 -0.026842576 2.6556243e-22)
(0.26987622 -0.025974915 -7.4150895e-21)
(0.28440749 -0.025080583 3.8616877e-21)
(0.29900318 -0.024166838 8.4749096e-21)
(0.31363335 -0.023240253 -3.8351783e-21)
(0.32826915 -0.022306794 -2.2130374e-21)
(0.34288296 -0.021371877 1.0124434e-21)
(0.35744847 -0.020440408 -1.7155342e-21)
(0.37194078 -0.019516816 1.3532261e-21)
(0.38633651 -0.018605069 7.1845956e-22)
(0.40061383 -0.017708698 1.5268436e-21)
(0.41475259 -0.016830808 -1.9526667e-21)
(0.4287343 -0.015974094 2.2235743e-21)
(0.44254218 -0.015140859 5.5188675e-22)
(0.45616119 -0.014333032 4.0322962e-22)
(0.46957797 -0.013552188 3.2134505e-22)
(0.48278092 -0.012799569 8.7325469e-22)
(0.49576008 -0.012076116 -1.370868e-21)
(0.50850714 -0.011382488 3.7065818e-22)
(0.52101542 -0.0107191 1.0941571e-22)
(0.53327981 -0.010086152 -4.5173265e-23)
(0.54529678 -0.0094836578 8.673158e-23)
(0.55706428 -0.008911499 -3.7185322e-22)
(0.56858213 -0.0083694348 1.8293777e-22)
(0.57985094 -0.0078572464 -3.4987404e-23)
(0.59087584 -0.0073745153 3.9005163e-22)
(0.60165576 -0.0069216711 -1.8544935e-22)
(0.6122176 -0.006497125 4.7324426e-23)
(0.6225162 -0.0061072662 4.360531e-23)
(0.63273532 -0.0057364068 -7.3602755e-23)
(0.64241587 -0.0054444883 -1.2083382e-22)
(0.65300157 -0.0050705878 3.8811411e-22)
(0.66055172 -0.005154344 1.7271468e-22)
(0.67619575 -0.004307124 -8.3040973e-22)
(0.15021533 -0.031460442 1.501013e-21)
(0.15354694 -0.035257409 -1.1566611e-20)
(0.16061628 -0.038010935 6.6441958e-21)
(0.16880596 -0.039479114 -1.3324744e-20)
(0.1769823 -0.040520706 -1.9758313e-21)
(0.18552353 -0.041302298 9.1599429e-21)
(0.19458427 -0.041757255 -9.7662202e-21)
(0.204087 -0.041913729 1.5662773e-21)
(0.21398777 -0.041833351 1.2903802e-20)
(0.22427608 -0.041554356 3.4032011e-21)
(0.23493264 -0.041102066 -6.2096975e-21)
(0.24593033 -0.040500471 -2.8638112e-21)
(0.25724171 -0.039771772 -5.8409063e-21)
(0.26883925 -0.038935079 -6.4553165e-21)
(0.28069438 -0.038007 3.2356913e-21)
(0.29277779 -0.037002328 8.462082e-22)
(0.30505991 -0.035934352 1.3679594e-21)
(0.31751117 -0.034815049 -3.385043e-21)
(0.33010215 -0.033655277 -4.2428896e-21)
(0.34280383 -0.032464924 2.3616529e-21)
(0.35558779 -0.031253026 3.2251392e-21)
(0.36842637 -0.030027846 -1.5636225e-21)
(0.38129286 -0.028796933 1.5867285e-21)
(0.39416161 -0.027567164 -3.9124128e-22)
(0.40700821 -0.026344776 -3.9196475e-21)
(0.41980956 -0.025135387 -3.0332845e-21)
(0.43254397 -0.023944012 -1.9026424e-22)
(0.44519126 -0.022775086 4.2858836e-22)
(0.45773277 -0.021632478 -2.2106063e-21)
(0.47015142 -0.020519516 -8.5497608e-22)
(0.48243174 -0.019439006 2.2837676e-22)
(0.49455985 -0.018393263 -1.2498734e-21)
(0.50652347 -0.017384142 6.261791e-24)
(0.51831191 -0.016413072 -4.2421166e-22)
(0.52991602 -0.015481096 -4.7193711e-22)
(0.54132819 -0.014588911 -5.1996273e-22)
(0.55254231 -0.013736911 -8.4134024e-22)
(0.56355381 -0.012925237 -5.4495627e-23)
(0.57435951 -0.012153835 -3.9160637e-24)
(0.58495806 -0.011422483 -5.1973072e-22)
(0.59534888 -0.010730984 -9.1606219e-23)
(0.60553584 -0.010078862 -3.3240078e-22)
(0.61551674 -0.0094668088 -4.3761143e-22)
(0.62531659 -0.0088927269 3.7842829e-22)
(0.63489078 -0.0083655012 1.4821456e-23)
(0.64441536 -0.0078636855 1.8238351e-22)
(0.65344875 -0.0074694536 -1.3247655e-22)
(0.66337154 -0.0069630731 -2.6692555e-22)
(0.67042372 -0.0070792886 -4.4683071e-23)
(0.68518103 -0.0059328411 4.6230255e-22)
(0.25468571 -0.036552772 -2.0900314e-20)
(0.25447026 -0.041393524 4.7585959e-20)
(0.25907338 -0.044745672 1.0348097e-20)
(0.26508418 -0.046442059 -1.5765322e-20)
(0.27070938 -0.047714331 -2.0227947e-21)
(0.27652 -0.048747793 2.623227e-21)
(0.28283556 -0.049413736 -1.6608204e-21)
(0.28957697 -0.049728118 -4.6861428e-21)
(0.29669664 -0.04976145 -4.0159175e-21)
(0.30420554 -0.049557073 -1.2207641e-20)
(0.31210226 -0.049141708 1.789776e-20)
(0.32036945 -0.048540824 6.5219929e-21)
(0.32898708 -0.047778988 -1.6780529e-20)
(0.33793412 -0.046878043 1.0317575e-20)
(0.34718718 -0.045857325 8.3849916e-21)
(0.35672085 -0.044734339 -8.7923483e-22)
(0.36650856 -0.043525094 -3.1222224e-21)
(0.37652301 -0.042244276 -3.8197353e-21)
(0.38673655 -0.040905388 -1.3892596e-21)
(0.39712145 -0.039520882 -1.2304208e-21)
(0.40765025 -0.038102252 -3.0257643e-21)
(0.41829596 -0.036660101 0)
(0.42903232 -0.035204187 -1.3451932e-21)
(0.43983394 -0.033743456 3.930954e-21)
(0.45067646 -0.032286063 5.4052731e-21)
(0.46153673 -0.03083939 -9.4112603e-22)
(0.47239285 -0.029410065 -2.9274504e-21)
(0.48322427 -0.028003974 3.0258468e-21)
(0.49401189 -0.026626284 2.5447212e-22)
(0.50473806 -0.025281469 3.4352546e-21)
(0.5153866 -0.023973333 -5.3459791e-22)
(0.52594286 -0.022705053 1.7173513e-21)
(0.53639367 -0.02147921 -7.9964727e-22)
(0.54672735 -0.020297841 2.9094432e-22)
(0.5569337 -0.019162481 -4.3404273e-22)
(0.56700397 -0.01807422 5.6231887e-22)
(0.57693085 -0.017033758 4.5710248e-22)
(0.58670849 -0.016041464 3.8255953e-22)
(0.59633241 -0.015097456 -9.5937204e-22)
(0.60579988 -0.014201627 6.8356269e-22)
(0.61510895 -0.0133539 -3.6957862e-22)
(0.62426195 -0.012553834 -1.1033388e-21)
(0.63325547 -0.011802462 1.4078467e-21)
(0.64211223 -0.011097288 -6.2007034e-23)
(0.6507884 -0.01044962 -1.5816466e-22)
(0.65945048 -0.0098327546 -7.8247974e-24)
(0.66767912 -0.009349382 -1.2622398e-22)
(0.67677515 -0.0087263519 -4.6584651e-22)
(0.68320711 -0.0088738102 8.7882369e-22)
(0.69685294 -0.0074650891 -4.4316502e-23)
(0.37635136 -0.038368183 -1.7495102e-20)
(0.37170984 -0.044270246 1.2832048e-20)
(0.37286697 -0.04816163 2.9754599e-21)
(0.37591053 -0.05009887 -7.6353756e-21)
(0.37830535 -0.051669991 1.2055986e-20)
(0.38072302 -0.053042393 7.7914134e-21)
(0.3836761 -0.054030061 -1.2647692e-20)
(0.38710067 -0.054633125 -6.0679779e-21)
(0.39092933 -0.054918026 1.2697343e-20)
(0.39518253 -0.054927157 -1.530498e-20)
(0.39987436 -0.054687539 -1.4063195e-20)
(0.40499519 -0.054224677 1.4129641e-20)
(0.41052874 -0.053563685 6.819386e-21)
(0.41645731 -0.052727975 -4.2037717e-21)
(0.42276028 -0.051739044 -1.8545589e-21)
(0.42941418 -0.050616778 -4.0581704e-21)
(0.43639364 -0.049379731 5.3047588e-21)
(0.44367213 -0.048045257 3.6682104e-21)
(0.45122242 -0.046629579 -3.2408302e-21)
(0.45901698 -0.045147847 3.1379501e-21)
(0.46702827 -0.043614192 2.7666829e-21)
(0.47522912 -0.04204176 -3.2111163e-21)
(0.48359291 -0.040442737 3.7056584e-22)
(0.4920938 -0.038828353 -3.2571661e-21)
(0.5007069 -0.037208902 7.2454296e-21)
(0.50940841 -0.035593745 6.1080699e-21)
(0.51817574 -0.03399132 8.0973538e-22)
(0.52698755 -0.032409164 -1.7683261e-21)
(0.53582389 -0.030853926 3.7021898e-21)
(0.54466617 -0.029331402 7.1885431e-21)
(0.55349724 -0.027846565 2.3049364e-21)
(0.56230138 -0.026403607 3.3164999e-21)
(0.5710643 -0.025005992 1.9956282e-21)
(0.57977313 -0.023656504 7.4558352e-22)
(0.58841644 -0.022357313 -2.6374606e-22)
(0.59698417 -0.021110032 2.720331e-21)
(0.60546768 -0.019915795 6.1992651e-22)
(0.61385974 -0.018775319 2.9487999e-22)
(0.62215443 -0.017689009 5.6232899e-23)
(0.63034759 -0.01665699 9.896793e-22)
(0.63843577 -0.015679407 4.7020493e-23)
(0.64641975 -0.014755961 4.4248311e-22)
(0.6542948 -0.013888103 -1.2622014e-22)
(0.66208116 -0.013073069 -2.7735572e-22)
(0.66973613 -0.012324483 -1.5219084e-22)
(0.67741515 -0.011610979 -4.2209396e-22)
(0.68472509 -0.011053695 1.614029e-22)
(0.69287349 -0.010332501 -1.2724155e-22)
(0.69859644 -0.010509625 -5.0126011e-22)
(0.71095921 -0.0088819831 2.4587403e-22)
(0.50927438 -0.035974296 3.6471441e-21)
(0.49953046 -0.042960677 -1.8958304e-20)
(0.49627563 -0.047383475 -2.3083853e-21)
(0.49555599 -0.04973678 5.4869528e-21)
(0.4941696 -0.051818046 3.0528109e-21)
(0.4926958 -0.053705412 -4.9885641e-23)
(0.49181236 -0.05518765 6.1896702e-21)
(0.49151458 -0.0562654 7.6251039e-21)
(0.49171174 -0.056990534 9.8580431e-21)
(0.4924108 -0.057395574 -1.1250045e-20)
(0.49363113 -0.057506301 -2.157943e-20)
(0.49536786 -0.057348417 -3.9353498e-21)
(0.49760477 -0.05694713 1.5938149e-20)
(0.50032312 -0.056327009 1.2808963e-20)
(0.50350177 -0.055511732 -5.9066959e-21)
(0.50711664 -0.054523845 1.3817027e-21)
(0.51114152 -0.053384783 -3.6600877e-21)
(0.51554888 -0.052114937 2.2443809e-21)
(0.52031043 -0.050733645 -2.9123033e-22)
(0.5253975 -0.049259162 -1.865411e-21)
(0.53078142 -0.047708658 7.8265971e-21)
(0.53643382 -0.046098208 -2.930897e-22)
(0.5423269 -0.044442787 4.1818316e-22)
(0.54843361 -0.042756261 -6.5646496e-22)
(0.55472783 -0.041051382 -4.3029432e-21)
(0.56118455 -0.039339787 4.2085212e-21)
(0.56777991 -0.037632009 1.9031228e-21)
(0.57449136 -0.035937486 -3.3081969e-21)