/*--------------------------------*- C++ -*----------------------------------*\
  =========                 |
  \\      /  F ield         | OpenFOAM: The Open Source CFD Toolbox
   \\    /   O peration     | Website:  https://openfoam.org
    \\  /    A nd           | Version:  6
     \\/     M anipulation  |
\*---------------------------------------------------------------------------*/
FoamFile
{
    version     2.0;
    format      ascii;
    class       volVectorField;
    location    "162";
    object      U;
}
// * * * * * * * * * * * * * * * * * * * * * * * * * * * * * * * * * * * * * //

dimensions      [0 1 -1 0 0 0 0];

internalField   nonuniform List<vector> 
9200
(
(0.0010393529 0.0014199786 -5.9201886e-20)
(0.013676096 -0.002058382 4.6042581e-20)
(0.038313229 -0.0058665948 -3.8501767e-20)
(0.072274543 -0.0097635435 -6.0257803e-20)
(0.1137649 -0.013490079 1.882698e-20)
(0.1615811 -0.01660572 3.2743906e-20)
(0.21467176 -0.018817359 -1.2268019e-20)
(0.27206642 -0.019973976 9.2688705e-21)
(0.33285663 -0.020011321 1.6803438e-20)
(0.39616395 -0.018929162 1.4848084e-21)
(0.4611161 -0.016779938 -2.1456356e-20)
(0.52683748 -0.013657867 2.0670024e-20)
(0.59245135 -0.009688147 -4.0422182e-20)
(0.65709203 -0.0050159394 -2.1133924e-20)
(0.71992548 0.00020538331 5.9046585e-21)
(0.78017582 0.0058239005 -2.5131705e-20)
(0.83717142 0.0117126 2.5217148e-20)
(0.8904696 0.01791828 2.2243237e-20)
(0.93967155 0.024573158 -2.9928809e-22)
(0.9820527 0.028293108 -1.6691765e-21)
(0.0052521916 -0.0013462791 -1.7059367e-20)
(0.026962544 -0.0089890477 3.9747749e-20)
(0.061670202 -0.014809798 2.3576317e-20)
(0.10629503 -0.019172315 -1.1569767e-19)
(0.15873585 -0.022214054 -1.27271e-20)
(0.21753378 -0.023720753 7.3297132e-20)
(0.28137329 -0.023595174 -3.5476428e-20)
(0.34900641 -0.021869053 -8.390563e-21)
(0.41923967 -0.018645623 3.4287569e-20)
(0.49090998 -0.01408095 -4.3259618e-20)
(0.56287292 -0.0083760709 -3.0338512e-20)
(0.63400913 -0.0017667265 7.1921515e-20)
(0.70324401 0.0054882492 3.8294091e-20)
(0.76957656 0.013118472 -6.7976644e-20)
(0.83211323 0.020851906 1.4623713e-20)
(0.89010116 0.02841951 -3.6733454e-20)
(0.94296996 0.035569457 -1.3777209e-20)
(0.99043309 0.042140648 7.0974903e-20)
(1.0323568 0.047715047 2.9642058e-20)
(1.0669355 0.049139406 -8.3478417e-20)
(0.010858443 -0.004042424 3.6773488e-20)
(0.043953472 -0.015431103 2.5047398e-21)
(0.090515547 -0.022552323 2.2341737e-20)
(0.14711157 -0.026497411 9.8116898e-22)
(0.21134279 -0.02788636 -4.0773984e-20)
(0.28146798 -0.026795187 1.8576412e-20)
(0.35587079 -0.02338281 1.3420315e-20)
(0.43299053 -0.017921627 -5.0327747e-20)
(0.5113253 -0.01073575 5.726191e-20)
(0.58942672 -0.0021839899 1.4256703e-20)
(0.6659098 0.0073477848 -5.4300771e-20)
(0.73948105 0.01746013 -1.8237428e-20)
(0.80897671 0.027756414 9.0591588e-21)
(0.87340339 0.037859106 2.3444772e-20)
(0.93197438 0.047423858 -1.1362526e-20)
(0.98413443 0.056148766 2.7877771e-20)
(1.0295747 0.063788944 -2.0188269e-20)
(1.0682652 0.070204138 -7.0123716e-20)
(1.1003328 0.075119099 -2.3796325e-20)
(1.1249119 0.076640936 4.8659889e-20)
(0.017957237 -0.0064221732 2.4508035e-20)
(0.064777072 -0.020694829 5.1039265e-20)
(0.12485242 -0.028060891 1.9881709e-20)
(0.19446987 -0.030464121 1.2990097e-20)
(0.2709496 -0.029094906 1.727571e-20)
(0.35224916 -0.02438905 -4.7720207e-20)
(0.43643182 -0.016826052 -2.5646877e-20)
(0.52162059 -0.006976757 0)
(0.60602953 0.0045669371 1.3920633e-20)
(0.6879877 0.017211627 -5.8523513e-21)
(0.76597585 0.030373805 -9.7935062e-20)
(0.83867518 0.043499502 -1.5774831e-20)
(0.90501598 0.05608647 6.5103295e-20)
(0.96421643 0.067703969 4.8441611e-22)
(1.0158042 0.078007528 -1.5725591e-21)
(1.0596162 0.086746583 2.195753e-20)
(1.0957779 0.093771995 -5.2647315e-21)
(1.1246806 0.099065076 -6.1029834e-20)
(1.1468653 0.1025968 -4.5851315e-20)
(1.1622963 0.10341355 6.952061e-20)
(0.026579451 -0.0082056989 -3.9194237e-21)
(0.089344117 -0.024033537 -5.1256412e-21)
(0.16430771 -0.030265032 5.6599448e-20)
(0.24758145 -0.029810072 1.8539331e-20)
(0.33624194 -0.024513087 -3.1955084e-20)
(0.42795167 -0.015239925 1.2163851e-20)
(0.5204731 -0.0028514336 2.6402886e-21)
(0.61166413 0.011737018 3.3609205e-20)
(0.69954773 0.027640057 5.6599569e-21)
(0.78236903 0.044028674 -1.320476e-20)
(0.85865474 0.060147617 6.0154129e-20)
(0.92726981 0.075340348 -5.8009429e-20)
(0.98745746 0.08907272 -1.3216632e-19)
(1.0388538 0.10094886 -5.5773119e-21)
(1.0814732 0.1107169 8.3150904e-20)
(1.1156662 0.11826384 0)
(1.1420554 0.1236056 1.0118972e-20)
(1.1614674 0.1268903 -1.5459796e-20)
(1.1748184 0.12829842 -8.5994742e-21)
(1.1826678 0.12744885 2.0992259e-20)
(0.036666947 -0.0090895905 -5.4309162e-21)
(0.11731523 -0.024685387 4.3578772e-21)
(0.20811888 -0.028140218 -8.7629891e-21)
(0.30515731 -0.023415001 2.8472416e-20)
(0.40533576 -0.013075642 -2.9392685e-20)
(0.50607192 0.0015225615 -1.6927038e-20)
(0.60490542 0.019095083 3.7364263e-20)
(0.69955018 0.038365191 4.7595481e-21)
(0.78800455 0.058167574 -2.4436095e-20)
(0.86863472 0.077482922 6.9867648e-20)
(0.94024041 0.095458545 5.2393026e-22)
(1.0020962 0.11143145 -8.0444438e-20)
(1.0539576 0.12494277 0)
(1.0960279 0.13573734 3.9542181e-20)
(1.1288928 0.14374825 5.5236099e-21)
(1.1534284 0.14906872 -7.7566519e-20)
(1.1706996 0.15191891 -1.9586951e-20)
(1.1818628 0.15262343 -1.2467651e-20)
(1.1880596 0.15152578 -1.470941e-20)
(1.1901465 0.14858463 4.042058e-20)
(0.048058915 -0.008767415 -1.7277967e-20)
(0.14808324 -0.021932019 -2.2198304e-21)
(0.25514093 -0.020797867 3.0380521e-20)
(0.36546416 -0.010412829 3.748433e-20)
(0.47590462 0.0059015517 -1.9944748e-20)
(0.58374315 0.026269269 -6.9163094e-20)
(0.6864424 0.048977168 -2.7995829e-20)
(0.78176264 0.072417742 7.8929298e-20)
(0.86790259 0.095212422 8.5778311e-21)
(0.94358981 0.11624954 -2.487351e-20)
(1.0081265 0.13469819 1.3642222e-20)
(1.0613877 0.15001545 -4.3194584e-21)
(1.1037699 0.16193646 0)
(1.1360981 0.17044412 2.7203521e-20)
(1.1595052 0.17572291 -7.9322527e-20)
(1.1753026 0.17810349 -3.1475573e-20)
(1.1848575 0.1780079 8.1054692e-20)
(1.1894926 0.1759092 -4.2969931e-21)
(1.1904034 0.17225532 3.5561114e-21)
(1.1885084 0.1671927 2.7111611e-20)
(0.060485306 -0.0069573717 -3.2414628e-20)
(0.18077788 -0.0151704 -8.1624366e-20)
(0.30388955 -0.0075835484 2.5797676e-21)
(0.42642591 0.0097033359 7.0161859e-20)
(0.54535193 0.032631535 6.2424424e-20)
(0.65798152 0.058820024 -7.1574573e-20)
(0.7619094 0.086176486 -2.827415e-22)
(0.85518352 0.11285228 8.5522653e-20)
(0.93645409 0.13737833 4.8828127e-20)
(1.0050421 0.15869364 -5.421848e-20)
(1.0609362 0.17613555 -9.2334338e-20)
(1.1047249 0.18941344 -3.1589869e-21)
(1.1374765 0.19855931 4.2127924e-20)
(1.1605879 0.20385842 -6.6056371e-21)
(1.1756252 0.20577002 -1.2868803e-20)
(1.1841781 0.204849 1.9690832e-20)
(1.1877432 0.20167876 4.3880677e-20)
(1.1876458 0.19682564 -4.385949e-20)
(1.1849958 0.19077859 -1.0232216e-19)
(1.1806254 0.18377353 2.4566919e-20)
(0.073537278 -0.003432978 -3.4979773e-20)
(0.21422705 -0.003989035 -1.7388619e-19)
(0.35251685 0.011839369 8.210331e-20)
(0.48562836 0.037018335 9.2767584e-20)
(0.61085425 0.066835554 5.7970608e-20)
(0.72576779 0.09848118 8.6107179e-21)
(0.8283486 0.12959696 -1.0624019e-19)
(0.91719058 0.15824268 0)
(0.99162805 0.18302812 -6.8748681e-20)
(1.0517527 0.20311202 -1.5202432e-20)
(1.098339 0.21814854 5.4703535e-20)
(1.1327013 0.22821073 1.0973395e-20)
(1.1565115 0.23369248 -4.5613913e-20)
(1.1716073 0.23519933 -4.9081424e-20)
(1.1798208 0.23344319 2.4287713e-20)
(1.1828455 0.22915305 4.4822952e-20)
(1.1821493 0.22300966 -5.5600483e-20)
(1.1789364 0.215608 -1.0751136e-19)
(1.1741472 0.20742201 -3.1513623e-21)
(1.1684571 0.19871856 2.7046436e-20)
(0.086650516 0.0019613859 -3.5449082e-21)
(0.24696038 0.011816637 8.7913298e-20)
(0.3988477 0.03749232 -1.6479209e-20)
(0.54040505 0.071218401 -8.4309233e-20)
(0.66949949 0.10778896 4.516441e-20)
(0.78422005 0.14411546 4.9175479e-20)
(0.88318996 0.1777567 5.5356841e-21)
(0.96577928 0.20688491 -9.9502593e-20)
(1.0321769 0.23038801 -2.5048809e-21)
(1.0833334 0.2478155 5.0503606e-20)
(1.1208075 0.25926295 5.9854835e-21)
(1.1465563 0.26523611 -1.9717232e-20)
(1.1627112 0.26650522 -7.5704721e-20)
(1.1713769 0.26396609 -6.255408e-21)
(1.1744766 0.25852414 4.3533406e-20)
(1.1736552 0.25101071 3.7022057e-20)
(1.1702387 0.24213376 1.9793462e-20)
(1.1652406 0.23245855 -5.2994919e-20)
(1.1594018 0.22240396 1.2957453e-20)
(1.1532255 0.21223777 8.2659197e-20)
(-0.0012932628 0.0014346619 -1.1234243e-21)
(-0.004745965 0.0031874182 2.0646985e-21)
(-0.010771369 0.004135908 8.7957627e-22)
(-0.017754303 0.0045395401 -2.4411377e-21)
(-0.024740339 0.0045654205 -1.4114832e-21)
(-0.031299619 0.004326042 1.5459545e-21)
(-0.037161357 0.0039035408 -6.8701045e-21)
(-0.042147474 0.0033577235 -5.9572638e-21)
(-0.046157809 0.002731382 1.1172011e-20)
(-0.049146222 0.0020548303 -9.7427616e-21)
(-0.051100684 0.001349299 -1.9832024e-22)
(-0.05203047 0.00062941934 3.6673591e-21)
(-0.051957759 -9.4893301e-05 -6.3295333e-22)
(-0.050911896 -0.00081693551 2.2818782e-20)
(-0.048925785 -0.0015318512 3.0400775e-22)
(-0.046035338 -0.0022351819 -4.0882949e-20)
(-0.042281782 -0.0029222775 7.5385803e-21)
(-0.037703414 -0.0035910496 2.3864157e-20)
(-0.03230865 -0.0042399993 -4.3852465e-20)
(-0.026156902 -0.0048211276 -2.7739263e-20)
(-0.0016522016 0.004180871 -5.3716255e-21)
(-0.0053974861 0.0092681471 1.0865452e-20)
(-0.011218519 0.012007454 -1.01916e-20)
(-0.01765804 0.013153775 3.9230029e-21)
(-0.023856452 0.013195423 4.8121599e-21)
(-0.02943334 0.012462733 7.1324317e-22)
(-0.034152344 0.01119702 -2.2509519e-20)
(-0.037860402 0.0095739007 -2.0370336e-21)
(-0.040474321 0.0077189883 2.0163584e-20)
(-0.041958941 0.0057212284 -5.0473688e-21)
(-0.042308965 0.0036428592 -2.1762632e-20)
(-0.041537345 0.001526704 4.8973254e-21)
(-0.039667713 -0.00059831777 2.2635452e-20)
(-0.036729071 -0.0027127771 1.0308409e-20)
(-0.032752012 -0.0048027093 2.1854329e-20)
(-0.027769134 -0.0068555329 -1.9770765e-20)
(-0.021824742 -0.0088582487 -2.1672984e-20)
(-0.0149662 -0.010804259 2.1184663e-20)
(-0.007128926 -0.01267904 2.6810418e-20)
(0.0018744105 -0.014317267 1.5854794e-20)
(-0.0023034313 0.0065602393 -4.3568792e-21)
(-0.0065392293 0.014480209 -5.6387632e-21)
(-0.01189214 0.018710559 3.0723978e-22)
(-0.017211111 0.020428196 1.0959925e-21)
(-0.021819156 0.020400338 6.691861e-21)
(-0.025431055 0.019151677 1.0665202e-20)
(-0.027877244 0.017066295 -3.7227721e-21)
(-0.029053277 0.014423787 -1.8896215e-20)
(-0.028909039 0.011424351 6.541332e-21)
(-0.027431045 0.0082098991 1.2862595e-20)
(-0.024627699 0.0048797647 5.8341022e-21)
(-0.020520082 0.0015022215 1.8159134e-20)
(-0.015135945 -0.0018768864 1.7295946e-21)
(-0.0085053412 -0.0052272773 -3.3864585e-20)
(-0.00065681611 -0.0085276463 1.2020229e-21)
(0.0083811154 -0.011759153 -2.2139244e-20)
(0.01855699 -0.014904147 -2.4466352e-20)
(0.02980233 -0.017953811 4.5819802e-20)
(0.042305143 -0.020855184 2.5349401e-20)
(0.056738785 -0.023247841 1.2239776e-22)
(-0.0031290303 0.0083689778 -5.2833149e-21)
(-0.0078964047 0.018336528 -8.4815381e-21)
(-0.012438994 0.023587827 4.3593115e-21)
(-0.016026543 0.025609677 4.1463515e-21)
(-0.01823503 0.025382761 2.0105737e-21)
(-0.018912653 0.023589333 7.3210125e-21)
(-0.017984712 0.02073028 9.3124988e-21)
(-0.015416696 0.017170378 -1.3511395e-21)
(-0.011207023 0.013171308 -1.148197e-20)
(-0.0053751949 0.0089189187 -2.9071932e-20)
(0.0020481664 0.0045434168 6.1893146e-23)
(0.011026582 0.00013428259 4.0697891e-20)
(0.02152232 -0.0042489878 -1.83832e-20)
(0.033497971 -0.0085676306 -1.2296108e-20)
(0.04692066 -0.012795601 5.5348706e-22)
(0.061760273 -0.01691192 3.23027e-20)
(0.077953226 -0.020901745 -1.4829576e-20)
(0.095392514 -0.024763462 -5.3339277e-20)
(0.11439874 -0.028379815 4.5765088e-20)
(0.13634572 -0.031073204 3.3013228e-20)
(-0.0039704126 0.0094657403 -6.8789076e-22)
(-0.0090916636 0.020487808 -1.2534752e-20)
(-0.012364476 0.026159105 -3.4144563e-20)
(-0.013552542 0.028143355 -5.7241707e-21)
(-0.012533235 0.027555021 -3.6222709e-21)
(-0.0093167104 0.025188072 6.3051161e-21)
(-0.0039456183 0.021627413 -4.6462115e-21)
(0.0035261702 0.017298954 -8.8070522e-21)
(0.013036882 0.012508738 2.189975e-20)
(0.024521325 0.0074744194 5.0567182e-21)
(0.037915647 0.0023488712 -2.5290333e-20)
(0.053157582 -0.0027628271 1.1078295e-20)
(0.070187036 -0.0077909282 0)
(0.088946786 -0.012691368 1.2089594e-20)
(0.10938568 -0.017436996 -9.7016327e-21)
(0.1314577 -0.022009986 -1.4337143e-20)
(0.1550744 -0.026408748 -1.5738901e-21)
(0.18006798 -0.030659537 -2.2181618e-21)
(0.20685385 -0.034576664 4.6147131e-20)
(0.23766409 -0.037020013 -1.0470154e-20)
(-0.0046451009 0.0097808697 -7.5356734e-21)
(-0.0096772553 0.020747894 2.4516418e-20)
(-0.011064381 0.026160992 -1.0499355e-20)
(-0.0090968258 0.027724458 -2.7469302e-20)
(-0.0039797022 0.026601703 -2.7548158e-20)
(0.0040962171 0.02364841 -1.4921586e-20)
(0.014954203 0.019496451 -6.9060431e-22)
(0.028436312 0.014604689 5.5499932e-21)
(0.044403252 0.0093034205 1.9615914e-20)
(0.062730632 0.0038283786 7.353096e-21)
(0.083304486 -0.0016548035 -7.1862317e-21)
(0.10601918 -0.0070322991 -2.0102337e-21)
(0.13077382 -0.012229171 -3.8191763e-20)
(0.15746973 -0.017199839 -1.2693662e-20)
(0.18601235 -0.021919835 1.8750636e-20)
(0.21631217 -0.026379832 -2.1021707e-20)
(0.24823269 -0.030602353 -8.9730713e-21)
(0.28151919 -0.034670753 3.0440506e-20)
(0.31660762 -0.038364982 5.047214e-20)
(0.3566508 -0.039964279 3.3559721e-21)
(-0.004961771 0.0093140047 1.6783313e-20)
(-0.0091662712 0.01909772 1.4467945e-20)
(-0.0078593595 0.023563376 5.1145515e-20)
(-0.0018585211 0.024328949 2.3388002e-20)
(0.0082957593 0.022523783 1.8251799e-22)
(0.022221999 0.019014376 -3.9388507e-20)
(0.039597528 0.014440917 -2.4313879e-20)
(0.060148022 0.0092663302 1.0465833e-20)
(0.08363927 0.0038231873 1.4401604e-20)
(0.10986689 -0.0016513524 -1.311373e-20)
(0.13864587 -0.0069910757 -4.4038767e-20)
(0.16980199 -0.012082927 2.9618534e-20)
(0.20316439 -0.016854252 2.0020576e-20)
(0.23855985 -0.021264103 -2.7551191e-20)
(0.27581276 -0.025296526 1.1650151e-20)
(0.31474862 -0.028957307 2.4197645e-20)
(0.35514603 -0.032303207 8.0724064e-21)
(0.39663451 -0.035506848 -1.176423e-20)
(0.43957772 -0.038392832 -1.4190312e-20)
(0.48798587 -0.03863461 5.8727849e-21)
(-0.0047307777 0.0081236773 1.1093853e-20)
(-0.0070585982 0.015671181 -2.3352742e-20)
(-0.0020293516 0.018562034 8.6200504e-21)
(0.0090325535 0.018216221 3.3587996e-20)
(0.02525642 0.015651138 5.2124366e-20)
(0.046066427 0.011695581 2.0276527e-20)
(0.070984647 0.0069609197 -5.8639371e-21)
(0.099602113 0.0018829069 -1.2286298e-20)
(0.13156915 -0.0032272551 -6.2057509e-21)
(0.16657593 -0.0081497276 3.4240868e-20)
(0.20433456 -0.012733404 -4.5104423e-21)
(0.24456521 -0.016879285 -1.6643318e-20)
(0.28698512 -0.020528798 -1.9693594e-20)
(0.33130047 -0.023656539 -4.7443793e-20)
(0.37720514 -0.026265675 2.3238731e-20)
(0.42438831 -0.028388019 -1.4096002e-20)
(0.47250041 -0.030127794 2.5993435e-20)
(0.52103692 -0.031783379 2.1040852e-20)
(0.57021474 -0.033350885 -8.5570478e-20)
(0.62471001 -0.032059065 -1.0806675e-22)
(-0.0037710516 0.0063146411 2.1925069e-20)
(-0.0028657578 0.010735094 -2.6165555e-20)
(0.0071421312 0.01156413 -4.5013324e-20)
(0.024450285 0.0099249748 -2.7253803e-20)
(0.047870935 0.0066522815 -2.0439888e-21)
(0.076628826 0.0024905818 1.3050112e-20)
(0.1100769 -0.0020154422 -2.8337748e-21)
(0.14765228 -0.0064879633 1.8118552e-20)
(0.18886123 -0.010663575 8.8685696e-21)
(0.23325228 -0.014362506 -1.1380182e-20)
(0.28039188 -0.017469048 8.8779206e-21)
(0.32984648 -0.019916918 -2.390329e-20)
(0.38116932 -0.021678824 8.0504851e-21)
(0.43389142 -0.022760016 1.675641e-20)
(0.48752 -0.023194457 -2.639515e-21)
(0.54154786 -0.023047063 1.6618989e-21)
(0.59543621 -0.022469633 -3.1957415e-22)
(0.64851864 -0.021870309 1.9590445e-20)
(0.70082325 -0.021445283 4.0434052e-21)
(0.75745239 -0.01849932 -5.7337089e-22)
(-0.0019110114 0.0040273473 2.3692134e-20)
(0.003869447 0.0046765123 5.7160018e-20)
(0.020315352 0.0031879481 -4.9244261e-20)
(0.04517836 0.00029440019 -9.9454241e-21)
(0.076965267 -0.0034241885 2.0256365e-20)
(0.11469639 -0.0073536339 2.1433735e-21)
(0.15753904 -0.011055017 -2.9815185e-20)
(0.20474858 -0.014244211 6.9848155e-21)
(0.25564983 -0.016738013 7.1097937e-21)
(0.30960513 -0.018427054 -2.6254099e-20)
(0.36598694 -0.019260208 1.2927338e-21)
(0.42416011 -0.01923199 -3.7174148e-20)
(0.48347161 -0.01837234 -3.6341051e-20)
(0.5432463 -0.016738428 6.5683552e-20)
(0.60278883 -0.014407469 5.5627551e-21)
(0.66138961 -0.011476081 -1.5188818e-20)
(0.71830865 -0.0081022451 1.9363988e-20)
(0.77269985 -0.0045930834 -9.1888246e-22)
(0.82408922 -0.00096828453 2.0364589e-20)
(0.87622055 0.0043278125 -1.9554184e-20)
(-0.018836337 -0.005099718 5.8352168e-20)
(-0.01022455 -0.0056349428 1.5783696e-20)
(-0.00022106035 -0.0060688972 -3.5139629e-20)
(0.010823393 -0.0063341279 1.6790273e-20)
(0.022642669 -0.0065120664 0)
(0.035178127 -0.0066301104 0)
(0.048369948 -0.0066909949 -2.2975e-20)
(0.06213841 -0.0067025623 -1.6502908e-20)
(0.076413104 -0.0066741977 1.9122642e-20)
(0.091134521 -0.0066126901 1.8174081e-20)
(0.10624769 -0.0065232311 1.0524273e-21)
(0.1217008 -0.0064103843 -1.0317662e-20)
(0.13744556 -0.0062781083 8.3269067e-21)
(0.15343674 -0.0061297504 1.8233765e-20)
(0.16963159 -0.005968174 -5.2274379e-21)
(0.18598945 -0.0057958643 -1.0174963e-20)
(0.20247158 -0.0056149926 -4.3195993e-21)
(0.21904094 -0.0054274679 -4.4257482e-21)
(0.23566211 -0.0052349823 7.3667287e-22)
(0.25230123 -0.0050390461 1.2286086e-21)
(0.26892595 -0.0048410143 2.5666445e-21)
(0.2855055 -0.0046421067 6.6539722e-21)
(0.30201068 -0.0044434225 2.4893851e-22)
(0.31841395 -0.0042459512 -3.4514864e-21)
(0.33468949 -0.0040505803 1.5558676e-22)
(0.35081321 -0.0038581015 -5.7710103e-22)
(0.36676285 -0.0036692147 1.2434439e-21)
(0.38251803 -0.0034845323 1.0522474e-21)
(0.39806021 -0.0033045829 -1.2988097e-21)
(0.41337278 -0.0031298145 -1.2218663e-22)
(0.428441 -0.0029605992 3.5740344e-23)
(0.44325203 -0.002797237 -3.5187994e-22)
(0.45779487 -0.002639961 -4.0566463e-22)
(0.47206033 -0.0024889425 5.5420319e-23)
(0.48604101 -0.0023442968 -1.3809306e-22)
(0.49973121 -0.0022060894 -2.2343558e-22)
(0.51312692 -0.0020743424 2.5572506e-22)
(0.52622579 -0.0019490414 2.9502785e-22)
(0.53902704 -0.0018301449 -8.2769217e-24)
(0.55153177 -0.0017175873 -1.5518842e-22)
(0.56374196 -0.0016113077 3.0406529e-23)
(0.57566421 -0.0015112058 -4.0146486e-23)
(0.58729871 -0.0014173527 9.2215754e-23)
(0.59867446 -0.0013294121 2.1974819e-23)
(0.60974585 -0.001248668 -1.1397926e-22)
(0.62070494 -0.0011719105 -6.7641987e-24)
(0.63107398 -0.001111372 -7.0897809e-26)
(0.64236404 -0.0010340846 -3.5658242e-24)
(0.65044284 -0.0010509593 2.9452356e-23)
(0.66702689 -0.00087573529 3.6054911e-22)
(0.010446016 -0.015017657 -1.2746849e-20)
(0.018179872 -0.016641064 -6.3302464e-20)
(0.027779423 -0.017915471 -3.0542013e-20)
(0.038385389 -0.018672133 3.8476102e-20)
(0.049621271 -0.019183654 1.4662647e-20)
(0.061506957 -0.019529502 -1.8204978e-20)
(0.074013197 -0.019709938 4.6722203e-21)
(0.087063097 -0.019746569 2.5447253e-20)
(0.10059362 -0.019667361 9.1986925e-23)
(0.11455456 -0.019491783 -7.6591488e-21)
(0.12889778 -0.019234446 -1.3021042e-20)
(0.14357669 -0.018908401 -8.5245611e-21)
(0.15854739 -0.018525064 1.7772385e-20)
(0.17376838 -0.018094095 8.9295928e-21)
(0.1891999 -0.017623776 -1.6522476e-20)
(0.20480376 -0.017121331 -6.0390766e-21)
(0.22054324 -0.016593099 3.2145114e-21)
(0.23638295 -0.016044675 8.3716532e-21)
(0.25228884 -0.015481039 6.9832541e-21)
(0.26822816 -0.014906651 -6.9727542e-21)
(0.28416949 -0.014325527 -3.1685753e-21)
(0.30008279 -0.01374129 1.3605553e-21)
(0.31593949 -0.013157218 3.8684992e-22)
(0.33171252 -0.012576263 1.2114065e-21)
(0.34737644 -0.012001084 1.8368955e-22)
(0.36290744 -0.011434054 -3.2662339e-22)
(0.37828347 -0.010877275 -7.2435845e-22)
(0.39348424 -0.010332592 9.7158745e-22)
(0.40849126 -0.0098015979 8.2484564e-22)
(0.42328788 -0.0092856498 -1.5149029e-22)
(0.43785929 -0.0087858759 5.5307622e-22)
(0.45219247 -0.0083031909 -2.3881201e-22)
(0.46627623 -0.0078383092 -3.7071411e-22)
(0.48010112 -0.0073917614 -6.1001012e-22)
(0.49365942 -0.0069639105 4.4172629e-22)
(0.50694512 -0.0065549704 -1.5495064e-23)
(0.51995381 -0.0061650258 1.6126631e-22)
(0.53268274 -0.005794052 -4.4177753e-22)
(0.54513069 -0.0054419422 3.719363e-22)
(0.55729832 -0.0051085181 6.7179363e-23)
(0.56918712 -0.0047936152 -1.0285484e-22)
(0.58080318 -0.0044969496 1.7616737e-22)
(0.59214627 -0.0042187508 2.3344467e-22)
(0.60324464 -0.0039580288 1.6930804e-22)
(0.61405286 -0.0037186304 1.6772628e-22)
(0.62476011 -0.0034909987 -2.6108457e-23)
(0.63489503 -0.0033115892 8.4097962e-23)
(0.64594574 -0.0030822743 7.6346136e-23)
(0.653845 -0.0031328142 -1.9474336e-22)
(0.67011007 -0.0026129612 -3.8017301e-23)
(0.067614942 -0.024029226 9.4528521e-21)
(0.073589953 -0.026749137 3.2951114e-21)
(0.082265824 -0.028805664 -1.2162243e-20)
(0.091948175 -0.029968606 -1.2258002e-21)
(0.1019836 -0.030767972 1.497063e-20)
(0.11254678 -0.031331005 -1.4887159e-20)
(0.12367645 -0.031636189 -2.9842354e-20)
(0.13529736 -0.03171313 1.4493567e-20)
(0.14735755 -0.031607765 1.8182022e-20)
(0.15982408 -0.03135019 -1.1598553e-20)
(0.17266131 -0.030961959 1.0190581e-21)
(0.18583161 -0.030462898 8.6860267e-21)
(0.1992987 -0.029870701 -1.5253595e-20)
(0.21302751 -0.029200392 2.9095546e-21)
(0.22698346 -0.028464918 7.5194683e-21)
(0.24113253 -0.027675667 3.1574558e-23)
(0.25544137 -0.026842725 2.6554921e-22)
(0.26987739 -0.025975068 -7.4151247e-21)
(0.28440875 -0.025080741 3.8617294e-21)
(0.29900454 -0.024167 8.4749544e-21)
(0.31363482 -0.023240419 -3.8351993e-21)
(0.32827074 -0.022306964 -2.2130462e-21)
(0.34288467 -0.021372052 1.0124409e-21)
(0.35745032 -0.020440588 -1.7155493e-21)
(0.37194277 -0.019517001 1.3532326e-21)
(0.38633865 -0.01860526 7.1846337e-22)
(0.40061614 -0.017708895 1.5268816e-21)
(0.41475508 -0.016831011 -1.9527082e-21)
(0.42873697 -0.015974304 2.2236257e-21)
(0.44254506 -0.015141077 5.518987e-22)
(0.45616428 -0.014333259 4.0326081e-22)
(0.46958131 -0.013552423 3.2134852e-22)
(0.48278451 -0.012799815 8.732929e-22)
(0.49576395 -0.012076372 -1.3709296e-21)
(0.50851131 -0.011382756 3.706788e-22)
(0.52101992 -0.010719382 1.0943747e-22)
(0.53328467 -0.010086447 -4.5180955e-23)
(0.54530203 -0.0094839687 8.6723208e-23)
(0.55706997 -0.0089118269 -3.718808e-22)
(0.5685883 -0.0083697814 1.8295863e-22)
(0.57985763 -0.0078576135 -3.4989526e-23)
(0.59088311 -0.0073749051 3.901228e-22)
(0.60166368 -0.006922086 -1.8548648e-22)
(0.61222622 -0.0064975678 4.7331272e-23)
(0.62252561 -0.006107741 4.36189e-23)
(0.63274565 -0.0057369156 -7.3627236e-23)
(0.64242711 -0.0054450425 -1.2089792e-22)
(0.65301415 -0.0050711817 3.8827942e-22)
(0.66056503 -0.0051550126 1.7277607e-22)
(0.6762118 -0.0043078835 -8.3049383e-22)
(0.15021568 -0.031460545 1.5010194e-21)
(0.15354732 -0.03525752 -1.1566627e-20)
(0.16061669 -0.038011054 6.6442019e-21)
(0.16880641 -0.039479241 -1.332477e-20)
(0.17698279 -0.04052084 -1.9758355e-21)
(0.18552405 -0.041302438 9.1599705e-21)
(0.19458484 -0.041757402 -9.7662578e-21)
(0.20408761 -0.041913883 1.5662692e-21)
(0.21398843 -0.041833511 1.2903833e-20)
(0.2242768 -0.041554522 3.4032178e-21)
(0.23493341 -0.041102238 -6.2097133e-21)
(0.24593115 -0.040500649 -2.8638275e-21)
(0.2572426 -0.039771955 -5.840909e-21)
(0.26884021 -0.038935269 -6.4553428e-21)
(0.28069541 -0.038007195 3.2356826e-21)
(0.2927789 -0.037002528 8.4618818e-22)
(0.30506111 -0.035934557 1.3679722e-21)
(0.31751245 -0.034815261 -3.385054e-21)
(0.33010353 -0.033655494 -4.2429218e-21)
(0.34280531 -0.032465147 2.3616709e-21)
(0.35558938 -0.031253255 3.2251703e-21)
(0.36842807 -0.030028081 -1.5636473e-21)
(0.38129468 -0.028797174 1.5867439e-21)
(0.39416356 -0.027567413 -3.9125235e-22)
(0.4070103 -0.026345032 -3.9197049e-21)
(0.4198118 -0.02513565 -3.0333111e-21)
(0.43254638 -0.023944284 -1.9027524e-22)
(0.44519384 -0.022775367 4.2858155e-22)
(0.45773553 -0.021632769 -2.210632e-21)
(0.47015438 -0.020519818 -8.5501148e-22)
(0.48243492 -0.019439319 2.2837887e-22)
(0.49456326 -0.018393589 -1.2499147e-21)
(0.50652714 -0.017384482 6.2524635e-24)
(0.51831585 -0.016413427 -4.2423464e-22)
(0.52992026 -0.015481468 -4.7194581e-22)
(0.54133276 -0.014589301 -5.2000829e-22)
(0.55254724 -0.013737321 -8.4141124e-22)
(0.56355912 -0.012925668 -5.4490749e-23)
(0.57436525 -0.01215429 -3.9162154e-24)
(0.58496428 -0.011422964 -5.197856e-22)
(0.59535562 -0.010731495 -9.1600296e-23)
(0.60554315 -0.010079404 -3.3245288e-22)
(0.61552469 -0.0094673866 -4.3770126e-22)
(0.62532525 -0.0088933438 3.7851025e-22)
(0.63490022 -0.0083661632 1.4824812e-23)
(0.64442571 -0.0078643953 1.824411e-22)
(0.65346001 -0.0074702271 -1.325456e-22)
(0.66338412 -0.0069639021 -2.6703405e-22)
(0.67043704 -0.0070802225 -4.462237e-23)
(0.68519706 -0.0059338997 4.6235424e-22)
(0.2546862 -0.036552907 -2.0900358e-20)
(0.25447077 -0.041393668 4.7586038e-20)
(0.25907393 -0.044745827 1.0348112e-20)
(0.26508476 -0.046442221 -1.5765352e-20)
(0.27071001 -0.047714502 -2.0228063e-21)
(0.27652067 -0.048747972 2.6232242e-21)
(0.28283626 -0.049413923 -1.6608322e-21)
(0.28957772 -0.049728312 -4.6861533e-21)
(0.29669744 -0.049761652 -4.015927e-21)
(0.30420639 -0.049557283 -1.2207672e-20)
(0.31210316 -0.049141926 1.789782e-20)
(0.32037042 -0.048541048 6.5220201e-21)
(0.32898811 -0.04777922 -1.6780574e-20)
(0.33793521 -0.046878281 1.0317584e-20)
(0.34718834 -0.045857571 8.3849951e-21)
(0.35672209 -0.044734591 -8.7921632e-22)
(0.36650988 -0.043525353 -3.1222172e-21)
(0.37652442 -0.042244542 -3.8197693e-21)
(0.38673805 -0.040905661 -1.3892752e-21)
(0.39712305 -0.039521163 -1.2304357e-21)
(0.40765195 -0.03810254 -3.0257979e-21)
(0.41829777 -0.036660397 0)
(0.42903425 -0.035204492 -1.3452108e-21)
(0.43983599 -0.033743769 3.9309821e-21)
(0.45067866 -0.032286386 5.4053332e-21)
(0.46153907 -0.030839723 -9.4113052e-22)
(0.47239535 -0.029410409 -2.9275101e-21)
(0.48322694 -0.028004329 3.0259207e-21)
(0.49401474 -0.026626653 2.5445242e-22)
(0.5047411 -0.025281851 3.4353392e-21)
(0.51538986 -0.02397373 -5.3460276e-22)
(0.52594635 -0.022705466 1.7173926e-21)
(0.53639741 -0.021479642 -7.996787e-22)
(0.54673136 -0.020298292 2.9096932e-22)
(0.55693801 -0.019162953 -4.3407129e-22)
(0.5670086 -0.018074715 5.6234124e-22)
(0.57693583 -0.017034279 4.5713427e-22)
(0.58671386 -0.016042014 3.8258983e-22)
(0.5963382 -0.015098035 -9.5945443e-22)
(0.60580614 -0.01420224 6.8363039e-22)
(0.61511572 -0.013354551 -3.6961864e-22)
(0.6242693 -0.012554526 -1.103499e-21)
(0.63326345 -0.011803199 1.4080833e-21)
(0.64212091 -0.011098076 -6.2016425e-23)
(0.65079785 -0.010450466 -1.5820297e-22)
(0.65946084 -0.0098336624 -7.8272147e-24)
(0.66769039 -0.0093503719 -1.262894e-22)
(0.67678773 -0.008727413 -4.6601704e-22)
(0.68322043 -0.0088750067 8.7878372e-22)
(0.69686894 -0.0074664422 -4.4322835e-23)
(0.37635197 -0.03836835 -1.7495139e-20)
(0.37171048 -0.044270423 1.2832066e-20)
(0.37286765 -0.048161818 2.975476e-21)
(0.37591124 -0.050099066 -7.6353898e-21)
(0.37830609 -0.051670197 1.2056009e-20)
(0.38072381 -0.053042608 7.7914297e-21)
(0.38367693 -0.054030285 -1.2647712e-20)
(0.38710155 -0.054633358 -6.0679915e-21)
(0.39093026 -0.054918268 1.2697372e-20)
(0.39518351 -0.054927408 -1.5305034e-20)
(0.39987539 -0.054687798 -1.4063229e-20)
(0.40499627 -0.054224945 1.41297e-20)
(0.41052989 -0.053563961 6.8194051e-21)
(0.41645852 -0.052728259 -4.2038149e-21)
(0.42276156 -0.051739336 -1.8545442e-21)
(0.42941554 -0.050617078 -4.0581622e-21)
(0.43639507 -0.04938004 5.3047525e-21)
(0.44367364 -0.048045575 3.6682223e-21)
(0.45122402 -0.046629905 -3.2408353e-21)
(0.45901867 -0.045148182 3.1379609e-21)
(0.46703007 -0.043614536 2.7667053e-21)
(0.47523103 -0.042042114 -3.2111414e-21)
(0.48359494 -0.040443101 3.7056752e-22)
(0.49209595 -0.038828728 -3.2571801e-21)
(0.50070918 -0.037209289 7.2455474e-21)
(0.50941084 -0.035594144 6.10815e-21)
(0.51817831 -0.033991733 8.0976308e-22)
(0.52699029 -0.032409591 -1.7683499e-21)
(0.53582681 -0.030854369 3.7022891e-21)
(0.54466928 -0.029331861 7.1887306e-21)
(0.55350057 -0.027847042 2.3049814e-21)
(0.56230493 -0.026404104 3.3166051e-21)
(0.57106809 -0.025006511 1.9956871e-21)
(0.57977719 -0.023657047 7.4561594e-22)
(0.58842079 -0.022357882 -2.6375062e-22)
(0.59698884 -0.02111063 2.720475e-21)
(0.6054727 -0.019916423 6.1996219e-22)
(0.61386514 -0.018775982 2.9489734e-22)
(0.62216025 -0.017689709 5.6236091e-23)
(0.63035387 -0.016657731 9.8978154e-22)
(0.63844256 -0.015680194 4.7023536e-23)
(0.6464271 -0.014756798 4.4254768e-22)
(0.65430277 -0.013888997 -1.2623607e-22)
(0.66208983 -0.013074024 -2.7741278e-22)
(0.66974557 -0.01232551 -1.5222536e-22)
(0.67742548 -0.011612082 -4.2220925e-22)
(0.68473632 -0.011054898 1.6147767e-22)
(0.69288602 -0.01033379 -1.2728269e-22)
(0.69860971 -0.010511081 -5.012331e-22)
(0.71097513 -0.0088836249 2.4590978e-22)
(0.50927509 -0.035974493 3.6471418e-21)
(0.49953121 -0.042960884 -1.8958325e-20)
(0.4962764 -0.047383692 -2.3083912e-21)
(0.4955568 -0.049737008 5.4869604e-21)
(0.49417044 -0.051818283 3.0528223e-21)
(0.49269669 -0.053705659 -4.9874827e-23)
(0.49181329 -0.055187908 6.1896956e-21)
(0.49151555 -0.056265668 7.625124e-21)
(0.49171276 -0.056990811 9.8580616e-21)
(0.49241186 -0.057395862 -1.1250075e-20)
(0.49363224 -0.057506599 -2.1579498e-20)
(0.49536904 -0.057348724 -3.9353727e-21)
(0.497606 -0.056947447 1.5938205e-20)
(0.50032441 -0.056327335 1.2809008e-20)
(0.50350313 -0.055512068 -5.9067026e-21)
(0.50711807 -0.05452419 1.3816873e-21)
(0.51114303 -0.053385137 -3.6601194e-21)
(0.51555047 -0.052115302 2.2444259e-21)
(0.5203121 -0.05073402 -2.9123135e-22)
(0.52539926 -0.049259548 -1.865423e-21)
(0.53078328 -0.047709054 7.8266658e-21)
(0.53643579 -0.046098615 -2.93103e-22)
(0.54232898 -0.044443207 4.1819721e-22)
(0.54843581 -0.042756694 -6.5645491e-22)
(0.55473016 -0.041051828 -4.3029859e-21)
(0.56118702 -0.039340248 4.2085668e-21)
(0.56778254 -0.037632485 1.9031331e-21)
(0.57449414 -0.035937979 -3.30824e-21)