/*--------------------------------*- C++ -*----------------------------------*\
  =========                 |
  \\      /  F ield         | OpenFOAM: The Open Source CFD Toolbox
   \\    /   O peration     | Website:  https://openfoam.org
    \\  /    A nd           | Version:  6
     \\/     M anipulation  |
\*---------------------------------------------------------------------------*/
FoamFile
{
    version     2.0;
    format      ascii;
    class       volVectorField;
    location    "162";
    object      UMean;
}
// * * * * * * * * * * * * * * * * * * * * * * * * * * * * * * * * * * * * * //

dimensions      [0 1 -1 0 0 0 0];

internalField   nonuniform List<vector> 
9200
(
(0.0018906341 0.00076873017 -6.1448272e-20)
(0.016506201 -0.0041105101 4.9005976e-20)
(0.04330169 -0.0091185491 -4.0279112e-20)
(0.079549328 -0.014053366 -6.4015998e-20)
(0.12333728 -0.018707463 1.984283e-20)
(0.17339177 -0.022648787 3.479852e-20)
(0.22860046 -0.025592657 -1.3008529e-20)
(0.28793555 -0.027400015 9.8444262e-21)
(0.35043683 -0.028018463 1.8203302e-20)
(0.41518048 -0.027458783 1.6090348e-21)
(0.48125608 -0.025783659 -2.3324161e-20)
(0.54775852 -0.023096634 2.2399708e-20)
(0.6137918 -0.019531074 -4.3690993e-20)
(0.6784826 -0.015238996 -2.2994122e-20)
(0.7410017 -0.010379241 6.4257618e-21)
(0.80059052 -0.0051077802 -2.7434807e-20)
(0.85660583 0.00044512461 2.7579478e-20)
(0.90864063 0.0063202286 2.450868e-20)
(0.95634363 0.012645282 -2.4900818e-22)
(0.99709642 0.016117706 -1.5710153e-21)
(0.0063526688 -0.0020792263 -1.7701552e-20)
(0.030457229 -0.011206695 4.2056625e-20)
(0.067660179 -0.018246279 2.4379105e-20)
(0.11482335 -0.023626974 -1.2202687e-19)
(0.16973006 -0.027551497 -1.3338834e-20)
(0.23084621 -0.02982422 7.7867542e-20)
(0.2967907 -0.030365074 -3.7682039e-20)
(0.36625587 -0.029224803 -8.996787e-21)
(0.43799727 -0.026524024 3.6826203e-20)
(0.51081132 -0.022433983 -4.6592175e-20)
(0.58352525 -0.017168736 -3.290923e-20)
(0.65500517 -0.010974637 7.8162735e-20)
(0.72417712 -0.0041184141 4.1499372e-20)
(0.7900563 0.003124569 -7.3826101e-20)
(0.85178023 0.010480311 1.588194e-20)
(0.90864013 0.017680842 -3.9900795e-20)
(0.96011933 0.024477916 -1.5157724e-20)
(1.005989 0.030715223 7.7000086e-20)
(1.0461768 0.035991278 3.3157391e-20)
(1.0789746 0.037233127 -8.573157e-20)
(0.012227523 -0.0048252724 3.7715838e-20)
(0.04814337 -0.017723613 2.2728957e-21)
(0.097523663 -0.026035789 2.2809983e-20)
(0.15687501 -0.030943237 1.0293437e-21)
(0.22368703 -0.033143764 -4.2247009e-20)
(0.29614153 -0.03274254 1.9874444e-20)
(0.37255614 -0.029924544 1.3921312e-20)
(0.45131384 -0.024987932 -5.3524983e-20)
(0.53086989 -0.018278917 6.1250302e-20)
(0.60974905 -0.010174215 1.5650974e-20)
(0.6865572 -0.0010734068 -5.8734379e-20)
(0.76001057 0.0086147676 -1.9880541e-20)
(0.82897377 0.018488926 9.4105147e-21)
(0.89249871 0.028171171 2.5334053e-20)
(0.94985781 0.037320753 -1.2240101e-20)
(1.0005646 0.045642649 3.0028407e-20)
(1.0443834 0.052901074 -2.1857868e-20)
(1.0813566 0.058966061 -7.5001585e-20)
(1.1116794 0.063578887 -2.4532394e-20)
(1.1345644 0.064889416 5.1282352e-20)
(0.019607273 -0.0072187811 2.4967791e-20)
(0.069670712 -0.022962939 5.2768505e-20)
(0.13285985 -0.031445804 2.0698049e-20)
(0.20540317 -0.034723973 1.3941946e-20)
(0.28451653 -0.034076542 1.8414236e-20)
(0.36808329 -0.029978529 -5.0441646e-20)
(0.45410655 -0.022943473 -2.726745e-20)
(0.54066422 -0.013573136 0)
(0.62594475 -0.0024839366 1.591892e-20)
(0.7082734 0.0097130451 -6.9194872e-21)
(0.78614975 0.022423319 -1.049975e-19)
(0.85829537 0.03508847 -1.6698328e-20)
(0.92369969 0.047207839 7.0062456e-20)
(0.98165409 0.058357339 4.7483833e-22)
(1.0317677 0.068202873 -1.6826633e-21)
(1.0739609 0.076506389 2.342606e-20)
(1.1084385 0.083131714 -5.4338075e-21)
(1.1356624 0.088072415 -6.501572e-20)
(1.1562323 0.091310867 -4.881851e-20)
(1.1701634 0.091903679 7.2074539e-20)
(0.028513457 -0.0089764913 -3.816729e-21)
(0.094923254 -0.026173072 -4.7202188e-21)
(0.17325458 -0.033404076 5.8473892e-20)
(0.25956774 -0.033711461 1.9649613e-20)
(0.35084701 -0.029036802 -3.3987427e-20)
(0.44468994 -0.020293655 1.2484485e-20)
(0.53881282 -0.0083825989 2.8027992e-21)
(0.6310489 0.0057480672 3.6118806e-20)
(0.71942206 0.021189833 6.0528994e-21)
(0.80220474 0.037100407 -1.4449674e-20)
(0.87797561 0.052720359 6.4933383e-20)
(0.94567209 0.067397002 -6.1758968e-20)
(1.0046241 0.080606435 -1.4104832e-19)
(1.0545613 0.091967311 -5.9397689e-21)
(1.0955906 0.10124425 8.821215e-20)
(1.1281473 0.10834037 0)
(1.1529258 0.11328552 1.0877432e-20)
(1.1708088 0.11623874 -1.6198344e-20)
(1.1827514 0.1173859 -9.2518945e-21)
(1.1893351 0.11633563 2.1760787e-20)
(0.03887723 -0.0097932373 -5.0483671e-21)
(0.1235333 -0.026592582 4.4739332e-21)
(0.21790464 -0.030892748 -9.0465304e-21)
(0.31803237 -0.026800807 2.9195924e-20)
(0.42074746 -0.016984615 -3.1012775e-20)
(0.52341986 -0.0028526102 -1.7843476e-20)
(0.62356615 0.014269219 3.8412519e-20)
(0.71890502 0.033073859 4.7704632e-21)
(0.80746958 0.052379156 -2.6640005e-20)
(0.88768871 0.0711615 7.4288074e-20)
(0.95844744 0.088574466 2.1335158e-22)
(1.0191204 0.10396936 -8.5635456e-20)
(1.0695686 0.11690662 0)
(1.1100976 0.12715213 4.1712767e-20)
(1.1413834 0.13465884 5.7589528e-21)
(1.1643764 0.13953623 -8.1385072e-20)
(1.1801957 0.14201573 -2.0578509e-20)
(1.1900328 0.14242836 -1.2977242e-20)
(1.1950466 0.14111635 -1.5393166e-20)
(1.1960935 0.13801725 4.2144812e-20)
(0.050526612 -0.0093630286 -1.7315392e-20)
(0.15486628 -0.023509419 -3.3746428e-21)
(0.26562854 -0.023038263 3.0763653e-20)
(0.37902562 -0.01315073 3.7708361e-20)
(0.49185981 0.0027299648 -2.0650625e-20)
(0.60139015 0.022674025 -7.2796699e-20)
(0.7050878 0.044930581 -2.9913756e-20)
(0.80075406 0.067870151 8.3343027e-20)
(0.8866599 0.090108735 9.4670895e-21)
(0.96163036 0.11054322 -2.6120027e-20)
(1.025081 0.12836147 1.4183857e-20)
(1.0770053 0.14304534 -4.6039881e-21)
(1.1179124 0.15435646 0)
(1.1487256 0.16230203 2.8599499e-20)
(1.1706556 0.16708587 -8.3139036e-20)
(1.185069 0.16905129 -3.2965907e-20)
(1.193366 0.16862607 8.4553074e-20)
(1.1968836 0.16628328 -4.7993371e-21)
(1.1968167 0.16246335 3.6136338e-21)
(1.1940707 0.15728774 2.8414446e-20)
(0.063180734 -0.0074069367 -3.2602052e-20)
(0.18802737 -0.016332725 -8.3866734e-20)
(0.31491241 -0.0092086308 1.5011735e-21)
(0.44044514 0.0077137549 7.306921e-20)
(0.56157311 0.030280862 6.5014507e-20)
(0.67562213 0.056063468 -7.3974539e-20)
(0.78023345 0.082941666 3.2864866e-22)
(0.87353552 0.10905887 9.0475488e-20)
(0.95428729 0.13295621 5.135406e-20)
(1.0219366 0.15359627 -5.7200966e-20)
(1.0766041 0.17034753 -9.710593e-20)
(1.1190037 0.18295245 -3.3157529e-21)
(1.1503119 0.19147308 4.413256e-20)
(1.1720102 0.19621815 -6.8276849e-21)
(1.1857232 0.19766199 -1.3245742e-20)
(1.1930744 0.19636579 2.0204589e-20)
(1.1955737 0.19291182 4.5591432e-20)
(1.1945443 0.18785999 -4.5328225e-20)
(1.1910844 0.18168713 -1.061023e-19)
(1.1860072 0.17460518 2.5731554e-20)
(0.076420382 -0.0037037394 -3.5913062e-20)
(0.22182322 -0.0046684066 -1.7586398e-19)
(0.36388598 0.010904807 8.5914682e-20)
(0.49986225 0.035841694 9.6440995e-20)
(0.62706529 0.065349424 6.0028233e-20)
(0.74311955 0.096582584 9.0255821e-21)
(0.84609201 0.12717185 -1.1082702e-19)
(0.93469528 0.15518791 0)
(1.0084035 0.17926893 -7.2453375e-20)
(1.0674552 0.19861223 -1.6016577e-20)
(1.1127649 0.21291324 5.7224758e-20)
(1.1457681 0.22228265 1.1415385e-20)
(1.168231 0.22714376 -4.7472067e-20)
(1.182057 0.22812099 -5.0899813e-20)
(1.1891161 0.22593448 2.5366232e-20)
(1.1911161 0.22131216 4.6688522e-20)
(1.1895233 0.21492709 -5.772266e-20)
(1.1855296 0.20736273 -1.1122866e-19)
(1.1800585 0.19907847 -3.0615298e-21)
(1.1737662 0.19032132 2.7878177e-20)
(0.089671477 0.0018952157 -4.0367836e-21)
(0.2547671 0.01166766 9.009594e-20)
(0.4103611 0.037292825 -1.4293258e-20)
(0.55460963 0.070882222 -8.8443397e-20)
(0.6854416 0.10717202 4.7036955e-20)
(0.80103855 0.14305806 5.0404608e-20)
(0.90015045 0.17611028 5.7913713e-21)
(0.98229888 0.20453379 -1.0375274e-19)
(1.0478347 0.22726341 -2.6165827e-21)
(1.097865 0.2439 5.272765e-20)
(1.1340856 0.25458668 6.2282e-21)
(1.1585621 0.25986698 -2.0605214e-20)
(1.173502 0.26053607 -7.8598528e-20)
(1.1810551 0.25750153 -6.3886841e-21)
(1.183164 0.25166923 4.5004076e-20)
(1.1814738 0.24386267 3.8208399e-20)
(1.1772992 0.23477711 2.0274221e-20)
(1.1716371 0.22496319 -5.5068227e-20)
(1.1652108 0.21482497 1.2884091e-20)
(1.1585068 0.20461609 8.4897837e-20)
(-0.001335285 0.0014594196 -7.8430351e-22)
(-0.0047670933 0.0031932416 1.8349069e-21)
(-0.010802882 0.0040898021 2.0329965e-21)
(-0.017646618 0.004425472 -8.0610213e-22)
(-0.024378608 0.0043735672 -2.5536668e-21)
(-0.030570877 0.0040517074 2.6845922e-21)
(-0.035949653 0.0035455457 -8.6966252e-21)
(-0.040340779 0.0029168592 -7.4963962e-21)
(-0.043650909 0.0022095 1.3375745e-20)
(-0.045840834 0.0014543431 -1.1459442e-20)
(-0.046905186 0.00067287495 -2.0450781e-22)
(-0.046859615 -0.00012020699 4.2641613e-21)
(-0.045732276 -0.00091503185 -6.880142e-22)
(-0.04355802 -0.0017050033 2.579838e-20)
(-0.040374776 -0.0024854055 2.659025e-22)
(-0.036223048 -0.0032519211 -4.5733831e-20)
(-0.031148361 -0.003999999 8.5189292e-21)
(-0.02519299 -0.0047275941 2.6336602e-20)
(-0.018368081 -0.0054332397 -4.8225553e-20)
(-0.01073738 -0.0060674751 -3.037231e-20)
(-0.001693991 0.0042469997 -5.7691788e-21)
(-0.0053930298 0.0092690987 9.4636439e-21)
(-0.011172882 0.011849942 -1.0583228e-20)
(-0.017409053 0.012792632 6.0946202e-21)
(-0.023282505 0.012602939 7.1827428e-21)
(-0.028417181 0.011625955 9.6572714e-22)
(-0.032575572 0.010113108 -2.8716339e-20)
(-0.03560981 0.0082456721 -2.3861743e-21)
(-0.037444288 0.0061523167 2.389906e-20)
(-0.038051318 0.0039236183 -5.9005494e-21)
(-0.037432744 0.0016225778 -2.5180523e-20)
(-0.035608384 -0.00070775342 5.5994876e-21)
(-0.032608398 -0.0030385307 2.5398104e-20)
(-0.028467963 -0.0053505647 1.1607751e-20)
(-0.0232235 -0.0076302233 2.4669396e-20)
(-0.016913162 -0.0098652661 -2.2002238e-20)
(-0.0095867428 -0.01204293 -2.3893618e-20)
(-0.0012974408 -0.014156665 2.3621459e-20)
(0.0080163238 -0.016191761 2.9240725e-20)
(0.018547153 -0.017978632 1.6941548e-20)
(-0.0023406812 0.0066448036 -4.6876535e-21)
(-0.0064768984 0.0144309 -4.6357779e-21)
(-0.011688434 0.018389849 -1.0589938e-23)
(-0.016681868 0.019770084 -4.3652352e-22)
(-0.020831084 0.019364026 7.776501e-21)
(-0.023860097 0.017718906 1.2200937e-20)
(-0.025601803 0.015234303 -4.5848389e-21)
(-0.025959464 0.012198473 -2.2033405e-20)
(-0.02489222 0.0088163341 7.6439954e-21)
(-0.022395363 0.0052323633 1.4884264e-20)
(-0.01848566 0.0015471546 6.8951707e-21)
(-0.013192315 -0.00217055 2.0364125e-20)
(-0.0065510201 -0.0058748649 1.9480154e-21)
(0.0014003362 -0.0095356923 -3.7584358e-20)
(0.010625439 -0.013132026 1.6447537e-21)
(0.021087989 -0.016645412 -2.3877969e-20)
(0.032728726 -0.020058573 -2.7393895e-20)
(0.045469847 -0.023362867 5.0718555e-20)
(0.059493699 -0.026504863 2.8095241e-20)
(0.075492371 -0.029117413 5.8099668e-22)
(-0.0031508995 0.0084390532 -5.8656028e-21)
(-0.0077329783 0.01817221 -1.1971609e-20)
(-0.011989679 0.023030445 4.516504e-21)
(-0.015080319 0.024584694 4.8275516e-21)
(-0.016644855 0.023843509 2.1450966e-21)
(-0.01654756 0.021516721 9.0444015e-21)
(-0.014721458 0.018124339 1.1139907e-20)
(-0.011143577 0.014041768 -1.6801284e-21)
(-0.0058244096 0.0095365263 -1.3275949e-20)
(0.0012053673 0.0047977069 -3.3269606e-20)
(0.0099044084 -4.2798576e-05 1.9074197e-22)
(0.02022573 -0.0048947794 4.57379e-20)
(0.032120971 -0.009698444 -2.018612e-20)
(0.045541947 -0.014414951 -1.3657379e-20)
(0.060444706 -0.019018332 2.2936565e-22)
(0.076787847 -0.023487865 3.573561e-20)
(0.094496385 -0.027809127 -1.6918355e-20)
(0.11344956 -0.031981229 -5.8067085e-20)
(0.13395524 -0.035887726 4.9279961e-20)
(0.15741525 -0.038844126 3.5795754e-20)
(-0.0039584262 0.0094848018 -3.9746525e-22)
(-0.0087712457 0.020137045 -1.349301e-20)
(-0.011574403 0.025284595 -3.9559133e-20)
(-0.012055643 0.026676276 -7.3689679e-21)
(-0.010170273 0.025451565 -3.294506e-21)
(-0.0059527081 0.022433885 7.4716955e-21)
(0.00054001554 0.018228791 -5.6790908e-21)
(0.0092373568 0.013273476 -1.0299853e-20)
(0.020061344 0.0078801921 2.4873732e-20)
(0.032931923 0.0022701059 5.5536517e-21)
(0.047770865 -0.0034020274 -2.885277e-20)
(0.064501557 -0.0090301778 1.2162553e-20)
(0.083049361 -0.014544086 0)
(0.10334207 -0.019899339 1.3345637e-20)
(0.12531292 -0.025068539 -1.0665029e-20)
(0.14889983 -0.030033801 -1.5896337e-20)
(0.17399865 -0.034793753 -8.6858232e-22)
(0.20042354 -0.039376041 -2.7245032e-21)
(0.2285666 -0.043599803 4.8803507e-20)
(0.26068422 -0.046323853 -1.2325165e-20)
(-0.0045737546 0.0097153052 -7.8807466e-21)
(-0.0091321042 0.020145851 2.7162797e-20)
(-0.0098313647 0.024897766 -1.2239895e-20)
(-0.0069189957 0.025751069 -3.0727239e-20)
(-0.00069103011 0.023886382 -2.997205e-20)
(0.0086286615 0.020187549 -1.6838297e-20)
(0.020841308 0.015306403 -9.6267555e-22)
(0.035766041 0.0097123465 6.30246e-21)
(0.053242103 0.0037413957 2.1877403e-20)
(0.073125128 -0.002367529 8.1938704e-21)
(0.095281863 -0.0084471268 -7.8938883e-21)
(0.11958739 -0.014382764 -1.9420352e-21)
(0.14592123 -0.020099045 -4.2180192e-20)
(0.17416466 -0.025549986 -1.3945155e-20)
(0.20420236 -0.030710701 2.104898e-20)
(0.23592369 -0.035571504 -2.3301808e-20)
(0.26917214 -0.040154561 -9.7824033e-21)
(0.30367226 -0.044544522 3.2332972e-20)
(0.33982637 -0.048531959 5.3664739e-20)
(0.3807915 -0.050410115 3.7086807e-21)
(-0.0048003784 0.0091382029 1.7476526e-20)
(-0.0083198692 0.018197216 1.512548e-20)
(-0.0060764693 0.021862607 5.5498094e-20)
(0.0011262812 0.021810961 2.6021925e-20)
(0.012646276 0.019177301 2.0604056e-22)
(0.028060095 0.014852228 -4.408107e-20)
(0.047014875 0.0094931756 -2.6877869e-20)
(0.069206331 0.0035714891 1.1606357e-20)
(0.094372348 -0.0025760849 1.5931573e-20)
(0.1222826 -0.0087102705 -1.4282088e-20)
(0.1527269 -0.014664044 -4.8728116e-20)
(0.18550602 -0.020324253 3.2724711e-20)
(0.22042402 -0.025618396 2.1731024e-20)
(0.25728258 -0.030505625 -3.0173823e-20)
(0.29588079 -0.034969928 1.2880094e-20)
(0.33601916 -0.039016816 2.6264629e-20)
(0.37745376 -0.042701998 8.9063925e-21)
(0.4197939 -0.0461978 -1.3237853e-20)
(0.46336467 -0.04934407 -1.4632857e-20)
(0.51214788 -0.049852078 7.9045555e-21)
(-0.0044458697 0.007822897 1.1814819e-20)
(-0.0058301282 0.014449591 -2.5867057e-20)
(0.00041121993 0.016407076 8.449473e-21)
(0.012944104 0.015151931 3.6785074e-20)
(0.030788438 0.011693464 5.6374379e-20)
(0.05331819 0.0068784293 2.218127e-20)
(0.080016767 0.0013308851 -6.3892057e-21)
(0.11043776 -0.0045084452 -1.3451766e-20)
(0.14419671 -0.010326706 -6.879704e-21)
(0.18095123 -0.015903915 3.7614665e-20)
(0.220382 -0.021089798 -5.1833825e-21)
(0.26217853 -0.025786728 -1.8415851e-20)
(0.30602813 -0.029937654 -2.1377347e-20)
(0.3516082 -0.033518554 -5.1886743e-20)
(0.39858532 -0.03653367 2.518107e-20)
(0.44662335 -0.039015301 -1.5277623e-20)
(0.49535199 -0.041066148 2.8356301e-20)
(0.54425241 -0.04298094 2.2907008e-20)
(0.59350772 -0.044770203 -9.0284606e-20)
(0.64773102 -0.043725631 4.1160109e-22)
(-0.003329029 0.0058859904 2.3009397e-20)
(-0.0011758567 0.0091974943 -2.8349228e-20)
(0.010342743 0.008975641 -4.7968466e-20)
(0.029396446 0.0063558305 -2.9360701e-20)
(0.05468327 0.0021499642 -2.2178547e-21)
(0.085370015 -0.0028873008 1.4286197e-20)
(0.12076287 -0.0082045086 -3.099188e-21)
(0.16025405 -0.013423522 1.9683598e-20)
(0.20330807 -0.01828288 9.6177993e-21)
(0.2494345 -0.022605605 -1.2399123e-20)
(0.2981629 -0.02627938 9.8801528e-21)
(0.34902485 -0.029241628 -2.6106949e-20)
(0.40154144 -0.031468773 9.1522232e-21)
(0.45521507 -0.032969538 1.8310956e-20)
(0.50952879 -0.0337809 -3.1070271e-21)
(0.56395667 -0.033969843 1.9675732e-21)
(0.61794886 -0.033687066 -6.4466462e-22)
(0.67083831 -0.033333616 2.1458827e-20)
(0.72263581 -0.033112486 3.9745904e-21)
(0.77835115 -0.030398335 -2.556281e-21)
(-0.0012805723 0.0034796143 2.5154715e-20)
(0.006092803 0.0028562917 6.1405392e-20)
(0.024365075 0.00022609636 -5.2120989e-20)
(0.0512461 -0.0036915534 -1.0666997e-20)
(0.08512628 -0.0083542628 2.1829655e-20)
(0.12496131 -0.013146678 2.3029752e-21)
(0.16986424 -0.017630284 -3.2094013e-20)
(0.21903864 -0.021526383 7.5540635e-21)
(0.27176148 -0.02465832 7.6704453e-21)
(0.32735126 -0.026923381 -2.8469149e-20)
(0.38514044 -0.028277165 1.3979434e-21)
(0.44445851 -0.02872082 -4.0511064e-20)
(0.50462293 -0.028290592 -3.9633739e-20)
(0.56493636 -0.027049443 7.1665362e-20)
(0.62468996 -0.025079699 6.0627765e-21)
(0.68317066 -0.022482001 -1.6504524e-20)
(0.73964687 -0.019415489 2.0967436e-20)
(0.79329592 -0.016183222 -9.8037116e-22)
(0.84366527 -0.012810778 2.113522e-20)
(0.89442787 -0.0077886862 -2.1868798e-20)
(-0.0016619258 -0.0063537249 6.3805989e-20)
(0.0089785819 -0.0068691164 1.6811958e-20)
(0.021053198 -0.0072794737 -3.7477048e-20)
(0.034203837 -0.007513122 1.8134812e-20)
(0.048148436 -0.0076546093 0)
(0.062818091 -0.0077336572 0)
(0.078147279 -0.0077533171 -2.409846e-20)
(0.094049578 -0.007721681 -1.7139773e-20)
(0.11044723 -0.0076487304 2.0012625e-20)
(0.12727415 -0.0075417998 1.882992e-20)
(0.14446952 -0.0074064874 1.0363214e-21)
(0.16197607 -0.0072477202 -1.044985e-20)
(0.17974045 -0.0070698026 8.6505183e-21)
(0.1977129 -0.0068763903 1.8265093e-20)
(0.21584664 -0.0066706131 -5.4635948e-21)
(0.23409749 -0.0064551876 -1.0049655e-20)
(0.25242369 -0.0062324828 -4.2348604e-21)
(0.27078571 -0.0060045736 -4.2220197e-21)
(0.28914612 -0.0057732867 6.8159206e-22)
(0.30746954 -0.0055402384 1.2060316e-21)
(0.32572257 -0.005306863 2.5832282e-21)
(0.34387385 -0.0050744341 6.4216199e-21)
(0.36189401 -0.0048440822 1.052123e-22)
(0.37975577 -0.0046168068 -3.3101641e-21)
(0.39743388 -0.0043934866 1.1980693e-22)
(0.41490522 -0.0041748877 -5.4683775e-22)
(0.43214878 -0.0039616699 1.1710421e-21)
(0.44914568 -0.003754393 9.399306e-22)
(0.46587914 -0.0035535223 -1.2883922e-21)
(0.48233449 -0.0033594346 -9.2204524e-23)
(0.49849907 -0.0031724239 -7.1240112e-23)
(0.51436227 -0.0029927079 -3.2095503e-22)
(0.5299154 -0.002820434 -4.1183296e-22)
(0.54515162 -0.0026556866 1.0336155e-22)
(0.56006593 -0.0024984939 -1.2334063e-22)
(0.57465502 -0.0023488353 -1.8749115e-22)
(0.58891726 -0.0022066488 2.1275711e-22)
(0.60285263 -0.0020718389 2.3902799e-22)
(0.61646262 -0.0019442864 -4.1605056e-23)
(0.62975058 -0.0018238527 -1.6648717e-22)
(0.64272055 -0.0017104093 1.0598642e-23)
(0.65538143 -0.001603793 -1.9259981e-23)
(0.66773469 -0.0015040222 7.5067684e-23)
(0.67981353 -0.0014107129 -3.0262058e-23)
(0.69156792 -0.0013251129 -1.4159594e-22)
(0.70321073 -0.0012440412 1.0642828e-23)
(0.7142138 -0.0011794955 8.624144e-24)
(0.72623894 -0.0010995874 -5.9189466e-24)
(0.73475118 -0.0011111572 2.4553581e-23)
(0.7525143 -0.00094238729 3.7588869e-22)
(0.028835798 -0.018701261 -1.4409453e-20)
(0.0384723 -0.020265772 -6.8155647e-20)
(0.050025053 -0.021471905 -3.3307709e-20)
(0.062624753 -0.022137491 4.130436e-20)
(0.075871753 -0.022543618 1.5657296e-20)
(0.089778098 -0.02277654 -1.9647623e-20)
(0.10431117 -0.022837414 5.3668016e-21)
(0.11938763 -0.022748524 2.6500709e-20)
(0.13493718 -0.022539574 -2.7485328e-22)
(0.15090344 -0.022231639 -8.0768724e-21)
(0.16723284 -0.021840522 -1.2867959e-20)
(0.18387355 -0.021380348 -8.9871092e-21)
(0.2007768 -0.020863555 1.7976676e-20)
(0.21789668 -0.020300715 9.8125764e-21)
(0.23518952 -0.019700904 -1.6119834e-20)
(0.25261367 -0.019072035 -5.9965828e-21)
(0.27012941 -0.018421041 3.0693767e-21)
(0.28769883 -0.017754013 8.0478292e-21)
(0.30528583 -0.01707634 6.9120258e-21)
(0.32285607 -0.016392803 -7.0994314e-21)
(0.34037699 -0.015707662 -3.4428385e-21)
(0.35781785 -0.015024709 1.6340191e-21)
(0.37514977 -0.014347322 7.4914746e-22)
(0.39234578 -0.013678493 1.2539225e-21)
(0.40938088 -0.01302086 2.5552699e-22)
(0.42623204 -0.01237673 -3.8778075e-22)
(0.44287829 -0.011748093 -7.5507733e-22)
(0.45930066 -0.011136643 1.100271e-21)
(0.47548223 -0.010543795 8.8339149e-22)
(0.4914081 -0.0099706964 -3.1037714e-22)
(0.50706534 -0.0094182518 6.0913171e-22)
(0.522443 -0.0088871353 -2.1809975e-22)
(0.53753197 -0.0083778125 -4.2545433e-22)
(0.552325 -0.0078905599 -6.2460927e-22)
(0.56681659 -0.0074254857 3.9508569e-22)
(0.58100292 -0.0069825519 -1.4313734e-22)
(0.59488181 -0.0065615969 2.4058225e-22)
(0.60845267 -0.0061623575 -4.738582e-22)
(0.62171639 -0.0057844999 4.7279347e-22)
(0.63467574 -0.0054276304 5.8004338e-23)
(0.64733412 -0.005091386 -4.2970533e-23)
(0.6596998 -0.0047752979 2.2737075e-22)
(0.6717737 -0.0044794415 3.0630315e-22)
(0.68358814 -0.0042026843 2.3497622e-22)
(0.69509311 -0.0039487762 2.5540151e-22)
(0.7064986 -0.003708222 -1.4568849e-23)
(0.71728243 -0.0035168554 1.3118072e-22)
(0.72908435 -0.0032795578 1.1461043e-22)
(0.73743117 -0.0033145606 -2.0761803e-22)
(0.75489736 -0.0028132303 7.9593715e-25)
(0.087993765 -0.029933984 1.0581351e-20)
(0.09565231 -0.032558048 4.0633217e-21)
(0.10606779 -0.034507042 -1.4379756e-20)
(0.11754005 -0.035529409 -1.7940965e-21)
(0.12938168 -0.036165524 1.6470749e-20)
(0.14176181 -0.036552718 -1.5841077e-20)
(0.15472005 -0.036671052 -3.2003532e-20)
(0.16817539 -0.036551166 1.5665535e-20)
(0.1820687 -0.036241676 1.940904e-20)
(0.19636156 -0.035775238 -1.2286138e-20)
(0.21101354 -0.035175355 1.0537175e-21)
(0.22598216 -0.03446359 8.3210085e-21)
(0.24122658 -0.033659298 -1.5936565e-20)
(0.25670754 -0.032779001 4.0916219e-21)
(0.2723867 -0.03183695 7.8998456e-21)
(0.28822667 -0.030845676 -7.1639269e-22)
(0.30419113 -0.029816251 -1.9534171e-22)
(0.32024491 -0.028758488 -7.7142435e-21)
(0.33635408 -0.02768112 4.6308033e-21)
(0.35248597 -0.026591959 8.7264942e-21)
(0.36860934 -0.025498 -3.9171486e-21)
(0.38469445 -0.024405511 -2.1561642e-21)
(0.40071314 -0.0233201 8.3880722e-22)
(0.41663894 -0.02224676 -1.7954742e-21)
(0.43244712 -0.021189913 1.2939874e-21)
(0.44811477 -0.020153439 6.8376788e-22)
(0.46362086 -0.019140707 1.8962046e-21)
(0.47894622 -0.018154597 -2.2501822e-21)
(0.49407362 -0.017197527 2.5497837e-21)
(0.50898768 -0.01627148 6.0468486e-22)
(0.52367493 -0.015378032 6.8901823e-22)
(0.53812374 -0.01451838 2.9410105e-22)
(0.55232426 -0.013693374 1.067785e-21)
(0.56626839 -0.012903551 -1.6248142e-21)
(0.57994974 -0.012149165 4.5601984e-22)
(0.59336352 -0.011430229 2.6016413e-22)
(0.60650652 -0.010746549 -9.1576858e-23)
(0.61937712 -0.010097759 -1.0145659e-23)
(0.6319751 -0.009483377 -4.1141687e-22)
(0.64430209 -0.0089028162 2.3789884e-22)
(0.65636039 -0.0083555399 -2.7928366e-23)
(0.66815705 -0.0078408325 5.9698864e-22)
(0.67969194 -0.0073588797 -2.7511363e-22)
(0.6909958 -0.0069078567 3.3964562e-23)
(0.70201868 -0.0064940232 8.5628978e-23)
(0.7129651 -0.0061017288 -1.0053013e-22)
(0.72332425 -0.0057901079 -1.6997465e-22)
(0.73469363 -0.0054026106 5.5790566e-22)
(0.74271932 -0.0054616102 1.8461976e-22)
(0.75960948 -0.0046427696 -8.6040364e-22)
(0.17274077 -0.039284641 1.9367532e-21)
(0.17748913 -0.042953396 -1.1902703e-20)
(0.18602283 -0.045566915 6.5744097e-21)
(0.19573846 -0.046859591 -1.4357997e-20)
(0.20545987 -0.047696791 -2.1192349e-21)
(0.21555887 -0.04825578 1.028121e-20)
(0.22619568 -0.04847262 -1.1342913e-20)
(0.23728862 -0.048377017 9.5487876e-22)
(0.24878669 -0.048033833 1.3544794e-20)
(0.26067455 -0.047484604 3.9850055e-21)
(0.27292889 -0.046757316 -6.4397629e-21)
(0.28551827 -0.045878333 -3.3548946e-21)
(0.29841098 -0.044872102 -5.4264876e-21)
(0.31157556 -0.043759784 -6.9111524e-21)
(0.32497982 -0.042559796 2.6108923e-21)
(0.33859118 -0.041288525 7.4164742e-23)
(0.35237709 -0.039960648 1.648003e-21)
(0.36630534 -0.03858933 -3.3809377e-21)
(0.38034428 -0.037186418 -4.7091034e-21)
(0.39446301 -0.035762607 2.580661e-21)
(0.40863158 -0.034327562 3.6235997e-21)
(0.42282118 -0.03289001 -1.9418399e-21)
(0.43700429 -0.031457809 1.7217876e-21)
(0.4511548 -0.030038002 -5.566387e-22)
(0.46524811 -0.028636862 -4.4477484e-21)
(0.47926127 -0.027259928 -3.0706541e-21)
(0.49317298 -0.025912035 -3.3317299e-22)
(0.50696366 -0.024597347 2.6725518e-22)
(0.5206155 -0.023319391 -2.2034781e-21)
(0.53411242 -0.022081088 -1.1501581e-21)
(0.54744013 -0.020884792 2.1100969e-22)
(0.56058601 -0.019732331 -1.4514766e-21)
(0.57353918 -0.018625047 -9.0046475e-23)
(0.58629038 -0.017563844 -5.4340099e-22)
(0.59883197 -0.016549231 -4.2650607e-22)
(0.61115785 -0.015581375 -7.5653851e-22)
(0.62326344 -0.014660155 -1.140125e-21)
(0.63514568 -0.013785204 4.1778974e-24)
(0.64680288 -0.012955988 -3.3347595e-24)
(0.65823518 -0.012171826 -6.5428068e-22)
(0.66944333 -0.0114321 1.1588263e-23)
(0.68043281 -0.010735936 -4.578781e-22)
(0.69120207 -0.010083709 -6.9253661e-22)
(0.70177966 -0.0094729944 5.382231e-22)
(0.71211581 -0.0089125483 1.325558e-23)
(0.72240732 -0.0083808711 2.6755782e-22)
(0.73215982 -0.0079593839 -1.9676938e-22)
(0.74290997 -0.0074333936 -3.7731417e-22)
(0.75047602 -0.0075168528 -4.9434682e-24)
(0.76653847 -0.0064051671 4.9456736e-22)
(0.27889946 -0.045941231 -2.3736274e-20)
(0.27982681 -0.050632624 5.0876731e-20)
(0.2855958 -0.053821985 1.0882524e-20)
(0.29284149 -0.055325326 -1.7047447e-20)
(0.29973019 -0.056372236 -2.6831864e-21)
(0.30682097 -0.057155586 2.2706174e-21)
(0.31444138 -0.05755079 -2.2715025e-21)
(0.32251099 -0.057576462 -4.9444239e-21)
(0.33097569 -0.057306575 -4.2268156e-21)
(0.33984195 -0.056788132 -1.2790928e-20)
(0.34910504 -0.056051158 1.9323244e-20)
(0.35874382 -0.055124125 7.2128568e-21)
(0.36873428 -0.054034401 -1.7292351e-20)
(0.37905166 -0.0528064 9.8176058e-21)
(0.38966909 -0.051461772 7.7825798e-21)
(0.40055793 -0.050020079 -1.6939122e-22)
(0.41168858 -0.048499137 -2.6702247e-21)
(0.42303105 -0.046915195 -4.4678234e-21)
(0.43455529 -0.045283079 -1.6861975e-21)
(0.44623153 -0.04361633 -1.4891998e-21)
(0.45803055 -0.041927314 -3.5154184e-21)
(0.46992395 -0.040227293 0)
(0.48188436 -0.038526488 -1.5588426e-21)
(0.49388559 -0.036834125 4.0139297e-21)
(0.50590279 -0.035158475 5.8161921e-21)
(0.51791254 -0.033506886 -8.9471228e-22)
(0.52989295 -0.031885817 -3.4511541e-21)
(0.54182371 -0.030300874 3.65221e-21)
(0.55368612 -0.028756846 -4.9534832e-23)
(0.56546312 -0.027257748 3.926346e-21)
(0.57713928 -0.025806864 -4.9570906e-22)
(0.5887008 -0.024406801 1.8384629e-21)
(0.60013546 -0.023059539 -9.5449071e-22)
(0.61143262 -0.021766488 4.6629831e-22)
(0.62258313 -0.020528553 -5.8429886e-22)
(0.63357938 -0.019346191 5.9437049e-22)
(0.64441517 -0.018219479 5.7213527e-22)
(0.65508577 -0.017148182 4.8152714e-22)
(0.66558782 -0.016131835 -1.1801926e-21)
(0.6759197 -0.015169782 8.45474e-22)
(0.68608044 -0.014261435 -4.4033971e-22)
(0.69607365 -0.013405873 -1.4752898e-21)
(0.7058962 -0.012603751 1.8834926e-21)
(0.71557408 -0.011852164 -5.220331e-23)
(0.72505789 -0.011162325 -2.150572e-22)
(0.73453483 -0.01050731 -6.7327262e-24)
(0.74353149 -0.0099893957 -2.2398598e-22)
(0.75350758 -0.0093403057 -6.4566439e-22)
(0.76049968 -0.0094485188 7.4718725e-22)
(0.77552146 -0.0080766599 -5.2454905e-23)
(0.40133526 -0.048946621 -1.9928073e-20)
(0.39758627 -0.054697516 1.3407609e-20)
(0.39962343 -0.058419253 4.169569e-21)
(0.40361471 -0.060165209 -8.3031464e-21)
(0.40700156 -0.061511499 1.2981063e-20)
(0.41043549 -0.062627295 8.3627693e-21)
(0.4144346 -0.063331435 -1.2982581e-20)
(0.41893678 -0.063628338 -6.4385898e-21)
(0.42386973 -0.063588307 1.3400251e-20)
(0.4292496 -0.063257503 -1.7000929e-20)
(0.43508748 -0.062666698 -1.4665716e-20)
(0.44137048 -0.061845007 1.5707023e-20)
(0.44807868 -0.0608209 7.0883928e-21)
(0.45519079 -0.059620879 -5.5660193e-21)
(0.46268285 -0.058269266 -1.1609209e-21)
(0.47052814 -0.056788496 -3.4334806e-21)
(0.47869827 -0.055199386 4.645714e-21)
(0.48716392 -0.053521266 3.695055e-21)
(0.49589535 -0.051772054 -3.0861621e-21)
(0.50486276 -0.049968319 3.1186986e-21)
(0.51403669 -0.048125345 3.0303014e-21)
(0.52338827 -0.046257175 -3.4422855e-21)
(0.53288951 -0.044376652 3.6588677e-22)
(0.54251348 -0.042495442 -3.1631351e-21)
(0.55223445 -0.040624068 8.5036505e-21)
(0.56202803 -0.038771936 6.687009e-21)
(0.57187126 -0.036947368 1.1346867e-21)
(0.58174268 -0.035157639 -1.8672949e-21)
(0.59162236 -0.033409018 4.4959322e-21)
(0.60149192 -0.031706818 8.4106378e-21)
(0.61133456 -0.030055452 2.4370869e-21)
(0.62113501 -0.028458489 3.8646319e-21)
(0.63087954 -0.026918724 2.2001495e-21)
(0.64055593 -0.025438247 8.9734537e-22)
(0.65015342 -0.024018516 -2.3918189e-22)
(0.65966271 -0.022660432 3.2356965e-21)
(0.66907589 -0.021364422 7.2566393e-22)
(0.67838649 -0.020130519 3.2860929e-22)
(0.68758936 -0.018958467 5.7339059e-23)
(0.69668108 -0.017847759 1.2956077e-21)
(0.70565886 -0.016797963 4.0676582e-23)
(0.71452442 -0.015808228 6.2575499e-22)
(0.72327297 -0.014879583 -1.2674075e-22)
(0.73192775 -0.014008769 -4.4286233e-22)
(0.74044006 -0.013209398 -2.1659385e-22)
(0.748986 -0.012449621 -5.9175291e-22)
(0.75711708 -0.011850818 2.630514e-22)
(0.76620265 -0.011096633 -1.7345148e-22)
(0.77253598 -0.011229712 -4.2765492e-22)
(0.78635099 -0.0096361879 2.947e-22)
(0.53386997 -0.047385526 3.3711245e-21)
(0.52481611 -0.054245867 -1.9484614e-20)
(0.52220002 -0.058515327 -2.6854697e-21)
(0.52217216 -0.060697216 5.7808896e-21)
(0.52153835 -0.062572317 3.7828588e-21)
(0.52085338 -0.064216263 8.3204176e-22)
(0.52079263 -0.065421444 7.5426253e-21)
(0.52135437 -0.066193533 8.3475384e-21)
(0.52244568 -0.066589061 1.0201067e-20)
(0.52406991 -0.066644634 -1.2084195e-20)
(0.52624359 -0.066390089 -2.3428271e-20)
(0.528959 -0.065855242 -4.7199053e-21)
(0.53219666 -0.065069232 1.7131229e-20)
(0.53593456 -0.064060267 1.3624218e-20)
(0.5401483 -0.062855384 -5.6882079e-21)
(0.54481069 -0.061480198 7.2876929e-22)
(0.54989251 -0.0599589 -4.3845306e-21)
(0.55536339 -0.058314317 3.4082834e-21)
(0.56119243 -0.056567895 -2.9423918e-22)
(0.56734859 -0.054739679 -2.0074649e-21)
(0.57380107 -0.052848313 8.7510358e-21)
(0.58051962 -0.050911049 -5.638018e-22)
(0.58747481 -0.048943753 6.6978518e-22)
(0.59463824 -0.046960915 -3.8942654e-22)
(0.60198268 -0.044975667 -4.5908021e-21)
(0.60948221 -0.042999804 4.4774439e-21)
(0.61711232 -0.041043821 1.822469e-21)
(0.62484998 -0.039116948 -3.4952325e-21)
(0.63267365 -0.0372272 -4.0690976e-21)