/*--------------------------------*- C++ -*----------------------------------*\
  =========                 |
  \\      /  F ield         | OpenFOAM: The Open Source CFD Toolbox
   \\    /   O peration     | Website:  https://openfoam.org
    \\  /    A nd           | Version:  6
     \\/     M anipulation  |
\*---------------------------------------------------------------------------*/
FoamFile
{
    version     2.0;
    format      ascii;
    class       volVectorField;
    location    "86";
    object      U_0;
}
// * * * * * * * * * * * * * * * * * * * * * * * * * * * * * * * * * * * * * //

dimensions      [0 1 -1 0 0 0 0];

internalField   nonuniform List<vector> 
9200
(
(0.0010409892 0.0014191101 -5.9214512e-20)
(0.013683202 -0.0020621528 4.6053961e-20)
(0.03832864 -0.0058732005 -3.8510721e-20)
(0.072300522 -0.009773019 -6.0271324e-20)
(0.11380331 -0.013502498 1.8831821e-20)
(0.16163352 -0.016621117 3.2751725e-20)
(0.21473945 -0.018835748 -1.2271416e-20)
(0.27215033 -0.019995376 9.2715101e-21)
(0.33295734 -0.020035768 1.6807025e-20)
(0.39628162 -0.018956723 1.4851702e-21)
(0.46125048 -0.01681072 -2.1462064e-20)
(0.52698784 -0.013692021 2.0675749e-20)
(0.59261651 -0.0097258743 -4.04327e-20)
(0.65727035 -0.0050574905 -2.1140438e-20)
(0.72011491 0.00015971214 5.9063711e-21)
(0.78037395 0.0057737756 -2.5140518e-20)
(0.8373756 0.011657656 2.5227071e-20)
(0.89067697 0.017858098 2.2256535e-20)
(0.93987927 0.024507358 -2.9671172e-22)
(0.98225848 0.028222099 -1.6658933e-21)
(0.0052549705 -0.0013477799 -1.7062997e-20)
(0.026973076 -0.0089943819 3.9756941e-20)
(0.061691375 -0.014818479 2.3581752e-20)
(0.10632909 -0.019184088 -1.1572185e-19)
(0.15878458 -0.022228786 -1.2730153e-20)
(0.21759854 -0.023738325 7.3312068e-20)
(0.28145505 -0.023615494 -3.5484315e-20)
(0.34910566 -0.021892077 -8.3923963e-21)
(0.4193564 -0.018671367 3.4295695e-20)
(0.49104364 -0.0141095 -4.3270621e-20)
(0.56302246 -0.008407587 -3.0347226e-20)
(0.63417294 -0.0018014424 7.1944415e-20)
(0.70342002 0.0054500303 3.8306066e-20)
(0.7697623 0.01307639 -6.8000795e-20)
(0.83230591 0.02080556 1.4629747e-20)
(0.89029784 0.028368487 -3.6748377e-20)
(0.94316764 0.03551335 -1.3781576e-20)
(0.99062884 0.042079063 7.1010285e-20)
(1.0325479 0.047647767 2.9663558e-20)
(1.0671201 0.049067083 -8.3501304e-20)
(0.010862604 -0.0040444714 3.6780631e-20)
(0.043968017 -0.015437706 2.5051788e-21)
(0.090543263 -0.022562558 2.2346988e-20)
(0.14715454 -0.026510729 9.8136082e-22)
(0.21140252 -0.027902434 -4.0783755e-20)
(0.28154547 -0.026813767 1.8579738e-20)
(0.35596648 -0.023403733 1.3423513e-20)
(0.43310426 -0.017944838 -5.0339209e-20)
(0.51145629 -0.010761306 5.7275948e-20)
(0.5895736 -0.0022120627 1.4261364e-20)
(0.6660706 0.0073169148 -5.4317704e-20)
(0.73965331 0.017426087 -1.8244588e-20)
(0.8091576 0.027718751 9.058121e-21)
(0.87358986 0.03781733 2.3454098e-20)
(0.93216328 0.047377471 -1.1368131e-20)
(0.98432272 0.056097298 2.7889363e-20)
(1.0297596 0.063731988 -2.0195928e-20)
(1.0684443 0.070141373 -7.0156858e-20)
(1.1005041 0.075050409 -2.3809312e-20)
(1.1250741 0.076566905 4.8675472e-20)
(0.017963008 -0.0064246354 2.4512457e-20)
(0.064796144 -0.020702283 5.1049157e-20)
(0.1248873 -0.028071987 1.9885411e-20)
(0.19452228 -0.030478045 1.2991878e-20)
(0.27102061 -0.029111174 1.7278665e-20)
(0.35233917 -0.024407336 -4.7729814e-20)
(0.43654059 -0.01684619 -2.56525e-20)
(0.52174712 -0.0069987562 0)
(0.60617217 0.0045428994 1.3926793e-20)
(0.68814417 0.01718522 -5.8564451e-21)
(0.76614338 0.030344572 -9.7965045e-20)
(0.83885063 0.043466893 -1.5778107e-20)
(0.90519606 0.056049891 6.512928e-20)
(0.96439785 0.067662827 4.8133572e-22)
(1.0159839 0.077961282 -1.5732126e-21)
(1.0597915 0.08669479 2.1966902e-20)
(1.0959467 0.093714337 -5.2677622e-21)
(1.1248411 0.099001377 -6.1056244e-20)
(1.1470165 0.10252708 -4.5873325e-20)
(1.1624378 0.10333829 6.9544463e-20)
(0.026587026 -0.0082083966 -3.9198875e-21)
(0.089368103 -0.024041308 -5.1264538e-21)
(0.16435011 -0.030276153 5.660944e-20)
(0.24764345 -0.029823521 1.8542411e-20)
(0.33632395 -0.024528295 -3.1961094e-20)
(0.42805335 -0.015256572 1.2166166e-20)
(0.52059332 -0.002869443 2.6409023e-21)
(0.611801 0.011717484 3.3618638e-20)
(0.69969871 0.027618624 5.6616007e-21)
(0.78253104 0.044004797 -1.3210468e-20)
(0.85882439 0.060120638 6.0178395e-20)
(0.92744358 0.075309558 -5.8027472e-20)
(0.98763197 0.089037427 -1.3221561e-19)
(1.0390259 0.10090845 -5.5795067e-21)
(1.0816404 0.11067089 8.3185644e-20)
(1.1158264 0.11821191 0)
(1.1422073 0.12354761 1.0122672e-20)
(1.1616102 0.12682629 -1.5466375e-20)
(1.1749518 0.12822859 -8.6033427e-21)
(1.182792 0.12737363 2.0999983e-20)
(0.036676472 -0.0090922991 -5.4310795e-21)
(0.11734434 -0.024692847 4.3585962e-21)
(0.20816887 -0.028150426 -8.7644296e-21)
(0.30522861 -0.023426825 2.8477266e-20)
(0.40542797 -0.013088529 -2.9398581e-20)
(0.50618378 0.0015088185 -1.693074e-20)
(0.60503487 0.019080372 3.7370725e-20)
(0.69969442 0.038349112 4.7599154e-21)
(0.78816026 0.058149499 -2.4446229e-20)
(0.86879824 0.077462077 6.9889714e-20)
(0.94040803 0.095434096 5.211976e-22)
(1.0022644 0.11140259 -8.0475851e-20)
(1.0541232 0.1249088 0)
(1.0961885 0.13569773 3.9559098e-20)
(1.1290463 0.14370267 5.5261371e-21)
(1.1535736 0.14901707 -7.7597382e-20)
(1.170836 0.15186126 -1.9594649e-20)
(1.1819903 0.15256005 -1.2472575e-20)
(1.1881784 0.15145704 -1.4715436e-20)
(1.1902572 0.14851097 4.0436202e-20)
(0.04807046 -0.0087698738 -1.728004e-20)
(0.14811748 -0.021938478 -2.2215942e-21)
(0.25519821 -0.020806184 3.0384787e-20)
(0.36554402 -0.010421895 3.748944e-20)
(0.47600567 0.0058921502 -1.9948392e-20)
(0.58386318 0.026259512 -6.9179069e-20)
(0.68657842 0.048966662 -2.8004151e-20)
(0.78191106 0.072405788 7.8950967e-20)
(0.86805952 0.095198126 8.5824533e-21)
(0.94375129 0.11623193 -2.4880104e-20)
(1.0082888 0.13467632 1.364435e-20)
(1.0615476 0.14998852 -4.3219596e-21)
(1.1039249 0.16190387 0)
(1.1362462 0.17040552 2.7213374e-20)
(1.1596453 0.1756782 -7.935172e-20)
(1.1754342 0.17805279 -3.1487201e-20)
(1.1849806 0.17795153 8.1084759e-20)
(1.1896076 0.17584758 -4.2992517e-21)
(1.1905109 0.17218894 3.5572281e-21)
(1.1886091 0.167122 2.7122727e-20)
(0.060498857 -0.0069592986 -3.241835e-20)
(0.18081701 -0.01517515 -8.1637094e-20)
(0.3039535 -0.0075890277 2.578134e-21)
(0.42651317 0.0096980587 7.0174973e-20)
(0.54546009 0.032626601 6.2437042e-20)
(0.6581074 0.05881508 -7.1588225e-20)
(0.76204918 0.086170785 -2.8044432e-22)
(0.85533304 0.11284481 8.5549029e-20)
(0.93660912 0.13736796 4.8842508e-20)
(1.0051987 0.15867927 -5.4236738e-20)
(1.061091 0.17611623 -9.2365057e-20)
(1.1048751 0.18938847 -3.1600539e-21)
(1.1376202 0.19852828 4.2142281e-20)
(1.160724 0.20382122 -6.6080135e-21)
(1.1757533 0.20572679 -1.2873106e-20)
(1.1842981 0.20480009 1.9697064e-20)
(1.1878556 0.20162464 4.3895976e-20)
(1.1877511 0.19676686 -4.3874304e-20)
(1.1850948 0.19071566 -1.0235915e-19)
(1.1807187 0.1837069 2.4577256e-20)
(0.073552724 -0.0034340886 -3.498553e-20)
(0.21427058 -0.0039914067 -1.7390645e-19)
(0.35258651 0.011837575 8.2119748e-20)
(0.48572151 0.037017704 9.2785537e-20)
(0.61096748 0.066835828 5.7981955e-20)
(0.72589703 0.098481589 8.6128943e-21)
(0.8284894 0.12959637 -1.0626649e-19)
(0.91733842 0.15823979 0)
(0.99177868 0.18302163 -6.8771817e-20)
(1.0519024 0.20310079 -1.5208053e-20)
(1.0984849 0.21813172 5.4721013e-20)
(1.1328414 0.22818782 1.0977109e-20)
(1.1566444 0.23366332 -4.562861e-20)
(1.1717325 0.23516404 -4.9096942e-20)
(1.1799385 0.23340215 2.4296087e-20)
(1.1829559 0.22910676 4.4838441e-20)
(1.1822531 0.22295869 -5.5619456e-20)
(1.1790343 0.21555293 -1.0754728e-19)
(1.1742397 0.20736335 -3.1512954e-21)
(1.1685448 0.19865672 2.705545e-20)
(0.086667636 0.0019613592 -3.5467775e-21)
(0.2470076 0.011817237 8.7926792e-20)
(0.39892181 0.037494908 -1.6473759e-20)
(0.54050231 0.071223052 -8.4329177e-20)
(0.66961558 0.10779491 4.5174732e-20)
(0.78435019 0.14412147 4.9184308e-20)
(0.88332928 0.17776127 5.5372251e-21)
(0.96592317 0.20688649 -9.953004e-20)
(1.0323213 0.23038523 -2.5056307e-21)
(1.0834751 0.2478073 5.0519392e-20)
(1.1209442 0.25924866 5.9873779e-21)
(1.1466864 0.26521547 -1.9723525e-20)
(1.1628342 0.26647832 -7.5728019e-20)
(1.1714927 0.26393328 -6.2568679e-21)
(1.1745856 0.25848596 4.3546514e-20)
(1.1737578 0.25096777 3.7033134e-20)
(1.1703356 0.24208665 1.9798573e-20)
(1.1653324 0.23240781 -5.3014391e-20)
(1.159489 0.22235008 1.2958125e-20)
(1.1533086 0.2121811 8.2684235e-20)
(-0.0012935956 0.0014350252 -1.1235782e-21)
(-0.0047471469 0.0031881791 2.065118e-21)
(-0.010773936 0.0041368422 8.8014467e-22)
(-0.01775838 0.0045405033 -2.4407063e-21)
(-0.024745814 0.0045663171 -1.4125391e-21)
(-0.031306279 0.0043268063 1.5472298e-21)
(-0.037168925 0.0039041273 -6.873082e-21)
(-0.04215563 0.0033580998 -5.9601333e-21)
(-0.046166208 0.002731524 1.1176794e-20)
(-0.0491545 0.0020547188 -9.7469491e-21)
(-0.051108465 0.0013489171 -1.9841671e-22)
(-0.052037367 0.00062875088 3.669013e-21)
(-0.051963374 -9.5864824e-05 -6.3321247e-22)
(-0.050915818 -0.00081822788 2.2829423e-20)
(-0.048927587 -0.0015334838 3.0405386e-22)
(-0.046034579 -0.0022371754 -4.0903183e-20)
(-0.042278002 -0.0029246532 7.5426347e-21)
(-0.037696132 -0.00359383 2.3876516e-20)
(-0.032297352 -0.0042432075 -4.3875955e-20)
(-0.026141055 -0.0048247658 -2.7754517e-20)
(-0.0016526089 0.0041819203 -5.3732339e-21)
(-0.0053987585 0.0092703272 1.0867472e-20)
(-0.01122103 0.012010119 -1.019426e-20)
(-0.017661807 0.013156508 3.9251518e-21)
(-0.023861286 0.013197945 4.8147576e-21)
(-0.029438962 0.012464851 7.1358081e-22)
(-0.034158417 0.0111986 -2.2519461e-20)
(-0.037866547 0.0095748466 -2.0377991e-21)
(-0.040480133 0.0077192281 2.0171865e-20)
(-0.041963993 0.0057207042 -5.0494749e-21)
(-0.042312814 0.0036415203 -2.1771916e-20)
(-0.041539533 0.0015245015 4.8994485e-21)
(-0.039667763 -0.00060143358 2.2645157e-20)
(-0.036726492 -0.0027168597 1.031311e-20)
(-0.032746287 -0.0048078172 2.1864915e-20)
(-0.027759728 -0.0068617287 -1.9780302e-20)
(-0.021811095 -0.0088655973 -2.1683559e-20)
(-0.014947734 -0.010812827 2.119606e-20)
(-0.0071049954 -0.012688894 2.6824285e-20)
(0.0019046159 -0.014328402 1.5862474e-20)
(-0.0023039645 0.0065618354 -4.3581873e-21)
(-0.0065406343 0.014483496 -5.6395625e-21)
(-0.011894486 0.018714548 3.0714749e-22)
(-0.017214214 0.020432239 1.0953624e-21)
(-0.021822683 0.020403995 6.6940885e-21)
(-0.025434603 0.019154643 1.0668703e-20)
(-0.027880361 0.017068354 -3.7242543e-21)
(-0.029055474 0.014424782 -1.8903184e-20)
(-0.0289098 0.011424165 6.54387e-21)
(-0.027429829 0.008208435 1.2867693e-20)
(-0.024623944 0.0048769376 5.8367377e-21)
(-0.020513202 0.00149795 1.8166355e-20)
(-0.015125331 -0.0018826855 1.7303311e-21)
(-0.0084903594 -0.0052346929 -3.3878935e-20)
(-0.00063680474 -0.0085367744 1.2030741e-21)
(0.0084068448 -0.011770097 -2.214824e-20)
(0.018589151 -0.014917018 -2.4478685e-20)
(0.029841645 -0.017968724 4.5842912e-20)
(0.042352446 -0.020872239 2.5363042e-20)
(0.056795299 -0.023266994 1.2350238e-22)
(-0.0031297007 0.0083709144 -5.2850093e-21)
(-0.0078979041 0.018340457 -8.4858313e-21)
(-0.012440984 0.023592528 4.3604222e-21)
(-0.01602857 0.025614334 4.1477144e-21)
(-0.01823656 0.025386812 2.0111202e-21)
(-0.01891311 0.02359238 7.3237695e-21)
(-0.017983488 0.020732039 9.3158762e-21)
(-0.015413154 0.017170642 -1.3516785e-21)
(-0.011200499 0.013169915 -1.1486141e-20)
(-0.0053650019 0.0089157358 -2.9082765e-20)
(0.0020627412 0.0045383265 6.2080073e-23)
(0.011046278 0.00012717192 4.0713517e-20)
(0.021547903 -0.0042582328 -1.8389905e-20)
(0.03353023 -0.0085791294 -1.2301069e-20)
(0.046960409 -0.012809482 5.5304764e-22)
(0.061808353 -0.016928323 3.2316849e-20)
(0.078010489 -0.020920821 -1.4837434e-20)
(0.095459799 -0.024785377 -5.3363036e-20)
(0.11447699 -0.028404708 4.5785622e-20)
(0.13643655 -0.031100977 3.3028483e-20)
(-0.0039711831 0.0094677782 -6.8777765e-22)
(-0.0090931176 0.020491829 -1.2538221e-20)
(-0.012365816 0.026163788 -3.4155642e-20)
(-0.013552996 0.028147793 -5.7264972e-21)
(-0.012532032 0.027558572 -3.6228821e-21)
(-0.0093130682 0.025190278 6.3072435e-21)
(-0.0039387451 0.021627942 -4.6478783e-21)
(0.0035370816 0.017297556 -8.8099831e-21)
(0.013052656 0.012505218 2.1906938e-20)
(0.024542807 0.0074686148 5.0581866e-21)
(0.037943704 0.0023406357 -2.5299761e-20)
(0.053193098 -0.0027736315 1.1081925e-20)
(0.070230912 -0.0078044386 0)
(0.088999932 -0.012707725 1.2094093e-20)
(0.10944902 -0.017456349 -9.7053483e-21)
(0.13153214 -0.022032495 -1.4343195e-20)
(0.15516084 -0.02643459 -1.5727243e-21)
(0.18016726 -0.030688917 -2.2197967e-21)
(0.20696683 -0.034609776 4.6164426e-20)
(0.2377925 -0.037056733 -1.0477182e-20)
(-0.0046458853 0.0097827718 -7.5375195e-21)
(-0.0096784156 0.020751452 2.4523728e-20)
(-0.011064652 0.026164908 -1.0502839e-20)
(-0.0090951003 0.027727812 -2.7477364e-20)
(-0.0039749515 0.026603828 -2.7555623e-20)
(0.0041049936 0.023648822 -1.4926016e-20)
(0.014967992 0.019494794 -6.9086243e-22)
(0.028456093 0.014600693 5.5515839e-21)
(0.044430007 0.0092968687 1.962157e-20)
(0.062765347 0.0038190887 7.3553437e-21)
(0.083348148 -0.0016669941 -7.1883472e-21)
(0.10607278 -0.0070475431 -2.0104122e-21)
(0.13083831 -0.012247617 -3.8204595e-20)
(0.15754607 -0.017221637 -1.269801e-20)
(0.18610143 -0.021945136 1.875827e-20)
(0.21641486 -0.026408796 -2.1030135e-20)
(0.24834975 -0.030635151 -8.976509e-21)
(0.28165125 -0.034707598 3.0450699e-20)
(0.31675519 -0.038406125 5.049021e-20)
(0.3568153 -0.040009646 3.3574326e-21)
(-0.0049624407 0.0093155641 1.6787149e-20)
(-0.0091667867 0.019100317 1.4471304e-20)
(-0.0078580138 0.023565846 5.1159199e-20)
(-0.0018538815 0.024330436 2.3394764e-20)
(0.0083049772 0.022523646 1.8257191e-22)
(0.022237012 0.019012146 -3.9399608e-20)
(0.039619507 0.014436247 -2.4320716e-20)
(0.060178104 0.0092589502 1.0468592e-20)
(0.08367856 0.0038128811 1.4405569e-20)
(0.10991646 -0.0016647686 -1.3116952e-20)
(0.13870677 -0.0070077665 -4.4051878e-20)
(0.16987521 -0.012103046 2.9627644e-20)
(0.20325085 -0.016877947 2.0026245e-20)
(0.2386604 -0.021291518 -2.7559984e-20)
(0.27592811 -0.025327802 1.1654314e-20)
(0.31487935 -0.028992584 2.4205814e-20)
(0.35529254 -0.032342626 8.075573e-21)
(0.39679697 -0.035550584 -1.1769339e-20)
(0.439756 -0.038441167 -1.4193974e-20)
(0.48818053 -0.038687622 5.8789447e-21)
(-0.0047311708 0.0081247349 1.1096669e-20)
(-0.0070580285 0.015672428 -2.3359801e-20)
(-0.0020257215 0.018562525 8.621445e-21)
(0.0090409748 0.01821523 3.3597235e-20)
(0.02527115 0.015648104 5.213801e-20)
(0.046088877 0.011690092 2.0281852e-20)
(0.071016141 0.0069526673 -5.865625e-21)
(0.099643895 0.0018716538 -1.2289216e-20)
(0.13162239 -0.0032417021 -6.2077016e-21)
(0.16664171 -0.0081675337 3.4250085e-20)
(0.20441387 -0.012754718 -4.5123725e-21)
(0.24465891 -0.016904248 -1.6648445e-20)
(0.28709393 -0.020557546 -1.9698919e-20)
(0.3314249 -0.023689205 -4.745836e-20)
(0.37734551 -0.026302387 2.3245929e-20)
(0.42454468 -0.028428899 -1.4100741e-20)
(0.47267254 -0.030172946 2.6003078e-20)
(0.52122427 -0.031832909 2.1048365e-20)
(0.57041632 -0.033405045 -8.5594173e-20)
(0.62492508 -0.03211815 -1.0669147e-22)
(-0.0037709813 0.0063150923 2.1930103e-20)
(-0.002863592 0.010734735 -2.6172757e-20)
(0.0071488159 0.011562301 -4.5024484e-20)
(0.02446347 0.0099211385 -2.7260808e-20)
(0.047892332 0.0066460034 -2.0445012e-21)
(0.076659986 0.0024815459 1.3052943e-20)
(0.11011924 -0.0020274676 -2.8341093e-21)
(0.14770707 -0.0065031572 1.8122802e-20)
(0.1889296 -0.010682085 8.8704219e-21)
(0.2333352 -0.01438446 -1.1382954e-20)
(0.28049013 -0.017494567 8.880972e-21)
(0.3299606 -0.019946125 -2.3909728e-20)
(0.3812996 -0.021711845 8.0534171e-21)
(0.43403786 -0.022796983 1.6761567e-20)
(0.48768225 -0.023235509 -2.6403038e-21)
(0.54172524 -0.023092334 1.6622988e-21)
(0.59562767 -0.022519232 -3.1921766e-22)
(0.64872276 -0.021924298 1.9597108e-20)
(0.7010381 -0.021503835 4.0447086e-21)
(0.75767581 -0.018562836 -5.8037799e-22)
(-0.0019102735 0.0040271421 2.3698074e-20)
(0.0038737679 0.0046744384 5.7175104e-20)
(0.020325927 0.0031836889 -4.9256133e-20)
(0.045197354 0.00028765299 -9.9478457e-21)
(0.076994513 -0.0034336906 2.0260902e-20)
(0.1147375 -0.0073660757 2.1438598e-21)
(0.15759344 -0.011070527 -2.9821855e-20)
(0.20481744 -0.01426289 6.9860671e-21)
(0.25573411 -0.016759948 7.1119523e-21)
(0.30970549 -0.018452336 -2.6260773e-20)
(0.36610376 -0.019288936 1.2931869e-21)
(0.42429341 -0.019264284 -3.7184379e-20)
(0.48362103 -0.018408342 -3.6351723e-20)
(0.5434111 -0.01677831 6.570434e-20)
(0.60296785 -0.014451427 5.5646838e-21)
(0.66158129 -0.01152433 -1.5195254e-20)
(0.71851111 -0.0081549959 1.9370379e-20)
(0.77291091 -0.004650514 -9.1919363e-22)
(0.82430639 -0.0010306299 2.0367835e-20)
(0.87644085 0.0042602244 -1.9564909e-20)
(-0.018814887 -0.0051036473 5.838565e-20)
(-0.010196256 -0.0056393002 1.5792277e-20)
(-0.00018483781 -0.0060736729 -3.5159956e-20)
(0.010868549 -0.0063392619 1.6801214e-20)
(0.022697723 -0.0065175384 0)
(0.035244078 -0.0066359132 0)
(0.048447851 -0.0066971159 -2.2990421e-20)
(0.062229362 -0.0067089873 -1.6514008e-20)
(0.076518234 -0.0066809141 1.9137013e-20)
(0.091255004 -0.0066196864 1.8187741e-20)
(0.10638474 -0.0065304966 1.0529902e-21)
(0.12185569 -0.0064179092 -1.0325171e-20)
(0.1376196 -0.006285884 8.3347231e-21)
(0.15363132 -0.0061377698 1.8247687e-20)
(0.16984813 -0.0059764314 -5.2333662e-21)
(0.18622947 -0.0058043558 -1.0182898e-20)
(0.20273666 -0.005623716 -4.322991e-21)
(0.21933274 -0.0054364231 -4.4284762e-21)
(0.23598241 -0.0052441711 7.3696499e-22)
(0.25265188 -0.0050484726 1.2298986e-21)
(0.26930896 -0.004850685 2.5703671e-21)
(0.285923 -0.0046520306 6.6612247e-21)
(0.30246496 -0.004453611 2.474216e-22)
(0.31890748 -0.0042564186 -3.455988e-21)
(0.33522494 -0.0040613437 1.553551e-22)
(0.35139347 -0.0038691811 -5.779774e-22)
(0.36739109 -0.0036806339 1.2455114e-21)
(0.38319767 -0.0034963179 1.0532933e-21)
(0.39879505 -0.0033167653 -1.3032047e-21)
(0.41416697 -0.0031424281 -1.2199517e-22)
(0.42929912 -0.0029736824 3.3260127e-23)
(0.44417916 -0.0028108327 -3.5297425e-22)
(0.45879662 -0.002654117 -4.0841026e-22)
(0.47314296 -0.0025037116 5.7292592e-23)
(0.48721148 -0.0023597378 -1.3881363e-22)
(0.50099729 -0.0022222674 -2.244856e-22)
(0.51449731 -0.0020913297 2.5726865e-22)
(0.52771025 -0.0019669183 2.9716651e-22)
(0.54063652 -0.0018490009 -9.7610348e-24)
(0.55327865 -0.0017375225 -1.5895245e-22)
(0.56564015 -0.0016324356 3.0363823e-23)
(0.57772967 -0.001533652 -4.0562058e-23)
(0.58954888 -0.0014412701 9.5289242e-23)
(0.6011313 -0.0013549526 2.1233019e-23)
(0.61242867 -0.0012760832 -1.2267963e-22)
(0.62365231 -0.0012013146 -7.4366828e-24)
(0.63428616 -0.0011434143 3.2849324e-25)
(0.64596163 -0.0010684309 -4.7243279e-24)
(0.65425349 -0.0010896384 2.913028e-23)
(0.67163374 -0.00091969021 3.7136741e-22)
(0.010482898 -0.01502964 -1.2755175e-20)
(0.018223747 -0.016654283 -6.3337717e-20)
(0.027831521 -0.017929913 -3.0561336e-20)
(0.038446727 -0.018687616 3.8500092e-20)
(0.049692721 -0.019200117 1.467212e-20)
(0.061589461 -0.019546929 -1.8218275e-20)
(0.074107772 -0.019728297 4.677133e-21)
(0.087170795 -0.019765817 2.5464405e-20)
(0.10071553 -0.019687464 9.0363041e-23)
(0.11469181 -0.019512709 -7.6655264e-21)
(0.12905156 -0.019256164 -1.3028051e-20)
(0.14374822 -0.018930885 -8.5326995e-21)
(0.15873797 -0.018548291 1.7785884e-20)
(0.17397934 -0.018118044 8.9421445e-21)
(0.18943265 -0.017648432 -1.6532716e-20)
(0.20505979 -0.017146684 -6.043954e-21)
(0.2208241 -0.016619143 3.2162892e-21)
(0.23669029 -0.016071412 8.3772349e-21)
(0.2526244 -0.015508474 6.9903728e-21)
(0.2685938 -0.014934798 -6.9827192e-21)
(0.28456717 -0.014354405 -3.1760876e-21)
(0.30051465 -0.013770927 1.3660546e-21)
(0.31640779 -0.013187648 3.9242795e-22)
(0.33221973 -0.01260753 1.2143166e-21)
(0.3479252 -0.012033239 1.8521807e-22)
(0.36350065 -0.011467157 -3.284517e-22)
(0.37892427 -0.010911397 -7.2689101e-22)
(0.39417606 -0.010367812 9.7714822e-22)
(0.40923789 -0.0098380085 8.2901214e-22)
(0.42409346 -0.0093233533 -1.5576709e-22)
(0.4387284 -0.0088249875 5.5704892e-22)
(0.45313018 -0.0083438392 -2.395529e-22)
(0.46728815 -0.0078806376 -3.746058e-22)
(0.48119349 -0.0074359288 -6.1493886e-22)
(0.49483921 -0.0070100934 4.4402506e-22)
(0.50822009 -0.0066033646 -2.0054882e-23)
(0.52133265 -0.0062158487 1.6610934e-22)
(0.53417521 -0.0058475452 -4.4939164e-22)
(0.54674774 -0.0054983753 3.8243197e-22)
(0.55905231 -0.0051681919 6.8217444e-23)
(0.57109195 -0.0048568708 -1.0301323e-22)
(0.58287481 -0.0045641644 1.8391092e-22)
(0.59440213 -0.0042903832 2.456976e-22)
(0.60570665 -0.0040345338 1.8030547e-22)
(0.61674034 -0.0038007624 1.8155331e-22)
(0.62771153 -0.0035790975 -2.8681017e-23)
(0.63811081 -0.0034076056 9.7710213e-23)
(0.64954591 -0.0031851886 9.0031023e-23)
(0.6576583 -0.0032487532 -2.1423377e-22)
(0.67471686 -0.0027446177 -3.5615374e-23)
(0.067679985 -0.02404972 9.4586163e-21)
(0.073662255 -0.026771548 3.2982939e-21)
(0.082346819 -0.028830004 -1.2173011e-20)
(0.092038906 -0.029994579 -1.2280873e-21)
(0.10208479 -0.030795483 1.4981748e-20)
(0.11265926 -0.031360043 -1.4896968e-20)
(0.12380118 -0.031666708 -2.9864397e-20)
(0.13543531 -0.031745068 1.4505563e-20)
(0.14750974 -0.031641071 1.8196994e-20)
(0.15999157 -0.031384818 -1.1608303e-20)
(0.17284522 -0.030997866 1.0198357e-21)
(0.1860331 -0.030500043 8.6892259e-21)
(0.19951901 -0.02990905 -1.5268089e-20)
(0.21326793 -0.029239919 2.9198023e-21)
(0.22724534 -0.0285056 7.5281206e-21)
(0.24141731 -0.027717491 2.5578253e-23)
(0.25575056 -0.026885686 2.617851e-22)
(0.27021259 -0.02601917 -7.4253396e-21)
(0.28477169 -0.025125997 3.8737561e-21)
(0.29939702 -0.024213435 8.4879449e-21)
(0.31405879 -0.023288068 -3.8412938e-21)
(0.32872829 -0.022355873 -2.2156085e-21)
(0.34337806 -0.021422281 1.011732e-21)
(0.35798196 -0.02049221 -1.7199183e-21)
(0.37251532 -0.019570103 1.3551107e-21)
(0.38695496 -0.018659943 7.1955962e-22)
(0.40127935 -0.017765277 1.537816e-21)
(0.4154686 -0.016889226 -1.9645931e-21)
(0.42950458 -0.016034504 2.2383701e-21)
(0.44337088 -0.015203434 5.5532181e-22)
(0.45705288 -0.014397965 4.1219909e-22)
(0.47053774 -0.013619693 3.2233785e-22)
(0.48381439 -0.012869887 8.8423371e-22)
(0.4968735 -0.012149512 -1.3885608e-21)
(0.50970748 -0.011459258 3.7658661e-22)
(0.52231047 -0.010799572 1.1569596e-22)
(0.53467828 -0.010170689 -4.739548e-23)
(0.54680844 -0.0095726646 8.4287727e-23)
(0.55870012 -0.0090054269 -3.7980609e-22)
(0.57035453 -0.0084687872 1.8898057e-22)
(0.58177382 -0.0079625945 -3.5590757e-23)
(0.59296519 -0.0074864907 4.1072674e-22)
(0.60392907 -0.007041041 -1.9621538e-22)
(0.61469678 -0.0066246505 4.926636e-23)
(0.62522068 -0.0062442099 4.7549777e-23)
(0.63570348 -0.0058833337 -8.0640471e-23)
(0.64564844 -0.0056046695 -1.3922097e-22)
(0.65661793 -0.0052422801 4.3579542e-22)
(0.66438208 -0.0053478848 1.9033948e-22)
(0.68081713 -0.0045266223 -8.5525083e-22)
(0.15031711 -0.031490107 1.5027793e-21)
(0.15365635 -0.035289472 -1.1571185e-20)
(0.16073485 -0.038045475 6.646146e-21)
(0.16893482 -0.039515766 -1.3332693e-20)
(0.17712201 -0.040559353 -1.9770672e-21)
(0.18567478 -0.041342943 9.1678905e-21)
(0.19474794 -0.041799854 -9.7769224e-21)
(0.204264 -0.04195821 1.5641855e-21)
(0.21417902 -0.041879652 1.2913058e-20)
(0.22448258 -0.041602426 3.4080016e-21)
(0.23515542 -0.041151856 -6.2143918e-21)
(0.24617049 -0.040551935 -2.8685002e-21)
(0.25750043 -0.039824871 -5.8418684e-21)
(0.26911776 -0.038989783 -6.4629779e-21)
(0.28099397 -0.038063286 3.2333071e-21)
(0.29309985 -0.037060184 8.4051691e-22)
(0.30540591 -0.035993776 1.3716594e-21)
(0.31788267 -0.034876054 -3.388279e-21)
(0.33050082 -0.033717885 -4.2522246e-21)
(0.34323145 -0.032529174 2.3668679e-21)
(0.35604628 -0.03131897 3.2341228e-21)
(0.36891778 -0.030095553 -1.5707792e-21)
(0.38181942 -0.028866489 1.5911784e-21)
(0.39472573 -0.027638674 -3.9443177e-22)
(0.40761251 -0.026418363 -3.9361825e-21)
(0.42045689 -0.025211195 -3.0409393e-21)
(0.43323745 -0.024022208 -1.934316e-22)
(0.4459343 -0.022855859 4.2662949e-22)
(0.45852912 -0.021716044 -2.2179957e-21)
(0.47100521 -0.020606116 -8.6514949e-22)
(0.48334754 -0.01952891 2.2897791e-22)
(0.49554271 -0.018486772 -1.2617501e-21)
(0.507579 -0.017481592 3.574959e-24)
(0.51944634 -0.016514837 -4.3081659e-22)
(0.5311363 -0.015587589 -4.7441848e-22)
(0.54264209 -0.01470059 -5.3308699e-22)
(0.55395853 -0.013854287 -8.6180872e-22)
(0.56508208 -0.013048876 -5.3071638e-23)
(0.57601079 -0.01228437 -3.9593628e-24)
(0.58674471 -0.01156062 -5.3560418e-22)
(0.59728479 -0.010877524 -8.9809887e-23)
(0.60763695 -0.01023469 -3.4748386e-22)
(0.6178005 -0.0096330013 -4.6366242e-22)
(0.62780485 -0.0090703506 4.0207803e-22)
(0.63760295 -0.0085563257 1.5779882e-23)
(0.64738954 -0.0080684994 1.9895507e-22)
(0.65668609 -0.0076928448 -1.5228884e-22)
(0.66698984 -0.0072025501 -2.9824577e-22)
(0.67425622 -0.0073494476 -2.7363823e-23)
(0.68979689 -0.006238713 4.7754858e-22)
(0.25482687 -0.0365919 -2.0912725e-20)
(0.25461934 -0.041435312 4.7609359e-20)
(0.25923186 -0.044790267 1.0352808e-20)
(0.26525327 -0.046489114 -1.5774436e-20)
(0.27088954 -0.047763739 -2.0259223e-21)
(0.27671178 -0.04879957 2.6227519e-21)
(0.28303975 -0.049467849 -1.6640757e-21)
(0.28979442 -0.049784498 -4.689258e-21)
(0.2969282 -0.049820037 -4.018737e-21)
(0.30445212 -0.049617815 -1.2216554e-20)
(0.31236483 -0.049204558 1.7915136e-20)
(0.32064905 -0.048605736 6.5298884e-21)
(0.32928481 -0.047845925 -1.6793966e-20)
(0.33825115 -0.046946977 1.0320641e-20)
(0.34752476 -0.045928238 8.3862148e-21)
(0.35708031 -0.044807224 -8.7397257e-22)
(0.36689131 -0.043599957 -3.1207804e-21)
(0.37693057 -0.042321138 -3.8295505e-21)
(0.38717053 -0.040984285 -1.3937744e-21)
(0.3975836 -0.039601869 -1.2347149e-21)
(0.40814245 -0.038185401 -3.0354717e-21)
(0.41882023 -0.036745504 0)
(0.42959084 -0.035291959 -1.3502811e-21)
(0.44042909 -0.033833733 3.9390957e-21)
(0.45131083 -0.032379007 5.4225922e-21)
(0.46221314 -0.030935189 -9.4242436e-22)
(0.47311438 -0.029508933 -2.9446312e-21)
(0.48399431 -0.028106156 3.0471081e-21)
(0.49483416 -0.026732057 2.4880348e-22)
(0.50561667 -0.025391144 3.4595559e-21)
(0.51632609 -0.024087259 -5.3598449e-22)
(0.52694825 -0.022823617 1.7292226e-21)
(0.53747054 -0.021602845 -8.0867465e-22)
(0.54788191 -0.020427025 2.9813893e-22)
(0.55817287 -0.019297747 -4.4225998e-22)
(0.56833549 -0.018216159 5.6873928e-22)
(0.57836337 -0.017183026 4.6625909e-22)
(0.58825172 -0.01619879 3.9129502e-22)
(0.59799725 -0.015263655 -9.8315495e-22)
(0.60759865 -0.014377608 7.0312393e-22)
(0.61705548 -0.013540696 -3.8113554e-22)
(0.62637214 -0.012752586 -1.1496455e-21)
(0.63554668 -0.012014555 1.4761712e-21)
(0.64460621 -0.011324099 -6.4682077e-23)
(0.65350455 -0.010693425 -1.6918555e-22)
(0.66242649 -0.010094568 -8.5148958e-24)
(0.67091668 -0.0096351085 -1.4499999e-22)
(0.68038999 -0.0090327268 -5.1509074e-22)
(0.68703636 -0.0092197534 8.6791347e-22)
(0.70145561 -0.0078559493 -4.6177773e-23)
(0.37652943 -0.038416597 -1.7505676e-20)
(0.37189596 -0.044321459 1.283731e-20)
(0.37306239 -0.048215796 2.9797407e-21)
(0.37611654 -0.050155747 -7.639689e-21)
(0.3785224 -0.051729524 1.2063022e-20)
(0.38095156 -0.053104605 7.7962546e-21)
(0.38391686 -0.054094926 -1.2653674e-20)
(0.38735444 -0.054700591 -6.0719932e-21)
(0.39119691 -0.054988042 1.2706036e-20)
(0.39546477 -0.054999677 -1.532076e-20)
(0.40017218 -0.05476252 -1.4073379e-20)
(0.40530958 -0.054302081 1.4146693e-20)
(0.41086076 -0.05364348 6.8250025e-21)
(0.41680808 -0.052810138 -4.2161228e-21)
(0.423131 -0.051823563 -1.850418e-21)
(0.42980613 -0.050703655 -4.0559053e-21)
(0.43680818 -0.049468982 5.3030641e-21)
(0.44411075 -0.048136914 3.6716905e-21)
(0.4516867 -0.046723694 -3.2423624e-21)
(0.45950861 -0.04524449 3.1411085e-21)
(0.46754911 -0.043713457 2.7731697e-21)
(0.47578114 -0.042143765 -3.2183995e-21)
(0.48417826 -0.040547623 3.7105501e-22)
(0.49271483 -0.038936291 -3.2612367e-21)
(0.50136616 -0.037320092 7.2793682e-21)
(0.51010869 -0.035708416 6.1311519e-21)
(0.51892008 -0.034109738 8.1770801e-22)
(0.52777932 -0.032531629 -1.7751985e-21)
(0.53666677 -0.030980777 3.7307531e-21)
(0.54556424 -0.029463019 7.2424211e-21)
(0.554455 -0.027983374 2.317831e-21)
(0.56332382 -0.026546083 3.3467431e-21)
(0.57215695 -0.025154662 2.01252e-21)
(0.58094218 -0.023811955 7.5490328e-22)
(0.58966874 -0.022520196 -2.6504784e-22)
(0.59832743 -0.021281069 2.7617565e-21)
(0.60691049 -0.020095789 6.3019811e-22)
(0.61541175 -0.018965163 2.9987368e-22)
(0.6238265 -0.017889702 5.7150123e-23)
(0.63215194 -0.016869645 1.0192506e-21)
(0.64038618 -0.015905289 4.7889053e-23)
(0.64853199 -0.014996469 4.6117334e-22)
(0.65658616 -0.014144937 -1.3078524e-22)
(0.66457322 -0.013347913 -2.9385169e-22)
(0.67244826 -0.012620127 -1.6212778e-22)
(0.68038454 -0.011928662 -4.5522935e-22)
(0.68795402 -0.011400637 1.8285419e-22)
(0.69647519 -0.010704637 -1.3913063e-22)
(0.70241268 -0.010930273 -4.9385203e-22)
(0.71553666 -0.0093560881 2.5637912e-22)
(0.50948211 -0.036031149 3.64631e-21)
(0.49974625 -0.043020476 -1.8964985e-20)
(0.49650031 -0.047446277 -2.3100555e-21)
(0.49579086 -0.049802483 5.4894528e-21)
(0.49441521 -0.051886686 3.0559187e-21)
(0.4929526 -0.053777026 -4.7026535e-23)
(0.49208099 -0.055262214 6.1969017e-21)
(0.4917958 -0.056342875 7.6309677e-21)
(0.49200633 -0.057070884 9.863571e-21)
(0.49271958 -0.057478764 -1.1259002e-20)
(0.49395499 -0.057592294 -2.1599336e-20)
(0.49570776 -0.057437181 -3.9419208e-21)
(0.49796171 -0.057038641 1.595428e-20)
(0.5006982 -0.05642125 1.2822024e-20)
(0.50389615 -0.055608699 -5.9087505e-21)
(0.50753157 -0.054623548 1.3773174e-21)
(0.51157834 -0.053487247 -3.6692347e-21)
(0.51600903 -0.052220208 2.2573221e-21)
(0.52079545 -0.050841788 -2.9152849e-22)
(0.52590906 -0.049370267 -1.8688811e-21)
(0.53132133 -0.047822838 7.8464705e-21)
(0.53700404 -0.046215605 -2.9692168e-22)
(0.54292953 -0.044563572 4.2223296e-22)
(0.54907096 -0.042880638 -6.535803e-22)
(0.55540243 -0.041179587 -4.3152729e-21)
(0.56189915 -0.039472094 4.2216951e-21)
(0.56853753 -0.037768731 1.9060904e-21)
(0.5752953 -0.036078979 -3.3206048e-21)