/*--------------------------------*- C++ -*----------------------------------*\
  =========                 |
  \\      /  F ield         | OpenFOAM: The Open Source CFD Toolbox
   \\    /   O peration     | Website:  https://openfoam.org
    \\  /    A nd           | Version:  6
     \\/     M anipulation  |
\*---------------------------------------------------------------------------*/
FoamFile
{
    version     2.0;
    format      ascii;
    class       volSymmTensorField;
    location    "86";
    object      UPrime2Mean;
}
// * * * * * * * * * * * * * * * * * * * * * * * * * * * * * * * * * * * * * //

dimensions      [0 2 -2 0 0 0 0];

internalField   nonuniform List<symmTensor> 
9200
(
(0.00022900982 -0.00017777953 8.4003446e-22 0.00014271711 -4.5005695e-22 1.3515107e-38)
(0.0014047382 -0.0011259279 2.1259147e-21 0.00090585662 -1.5868107e-21 1.4695663e-38)
(0.0028225247 -0.0021954392 2.793649e-22 0.001716962 -2.0946629e-22 8.0607283e-39)
(0.00442199 -0.0032177055 -3.1740197e-21 0.0023661469 2.2376209e-21 1.6053358e-38)
(0.0059766786 -0.0041152049 1.337395e-22 0.0028798705 -1.1656302e-22 2.3559278e-39)
(0.0073764536 -0.0048480218 1.3110286e-21 0.0032586031 -8.7736152e-22 3.6230697e-40)
(0.0085480022 -0.0054036456 -2.7362637e-22 0.0035168628 1.9328411e-22 1.0673956e-39)
(0.0094349088 -0.0057851969 2.4916232e-22 0.0036781445 -1.7113914e-22 7.1898206e-40)
(0.010001272 -0.0060032333 1.2705943e-21 0.0037648363 -7.7817828e-22 2.0491962e-39)
(0.010232626 -0.0060720982 9.7935488e-23 0.003795867 -6.0504957e-23 5.8248841e-42)
(0.010135349 -0.0060081901 -1.3490917e-21 0.0037867719 8.4136671e-22 1.0954062e-39)
(0.0097356845 -0.0058288875 1.1210206e-21 0.0037499147 -7.278988e-22 1.4527357e-40)
(0.0090775502 -0.0055518653 -1.9890471e-21 0.0036948089 1.3693914e-21 2.3387537e-39)
(0.0082187593 -0.0051946766 -1.0014022e-21 0.003628542 7.0453224e-22 1.4438566e-40)
(0.007225847 -0.0047744812 2.5874839e-22 0.0035562298 -1.9687716e-22 1.8749988e-41)
(0.006168012 -0.0043078105 -9.6509875e-22 0.0034814507 7.7752311e-22 1.9234892e-40)
(0.0051107193 -0.0038103521 8.3981283e-22 0.0034068172 -7.3608285e-22 2.3485374e-40)
(0.0041096874 -0.0032969545 6.1189389e-22 0.0033357321 -5.6328182e-22 9.9127564e-40)
(0.0032099344 -0.0027810152 -2.5210775e-23 0.0032728201 5.1873604e-23 1.8447805e-40)
(0.0024584745 -0.0022728055 -1.5972293e-23 0.0031869056 4.7254467e-23 2.2865358e-40)
(0.00030168998 -0.00020167385 8.8718699e-23 0.00013847847 -3.4428974e-23 2.3703399e-40)
(0.0017875864 -0.0012406402 2.2534678e-21 0.00086363631 -1.466129e-21 1.5684311e-38)
(0.003530259 -0.0023826051 -7.4621018e-22 0.001616567 4.9951218e-22 8.5243222e-39)
(0.0053757511 -0.0034273735 -5.6871848e-21 0.0022081599 3.5657418e-21 3.7131768e-38)
(0.0070640116 -0.0043039176 -1.8705003e-22 0.0026662822 1.2066386e-22 4.687586e-40)
(0.0084701784 -0.0049781312 4.3631642e-21 0.0029960808 -2.5903233e-21 1.2271214e-38)
(0.009521666 -0.0054465218 -1.776257e-21 0.0032160026 1.0476215e-21 4.120266e-40)
(0.010176535 -0.0057221594 -5.3651489e-22 0.003351248 3.1399365e-22 1.5061571e-40)
(0.010423724 -0.0058247408 2.0246499e-21 0.0034245826 -1.1960724e-21 1.1432193e-39)
(0.01028112 -0.0057764226 -2.4418601e-21 0.0034544514 1.4709489e-21 1.305137e-39)
(0.009791934 -0.0055999216 -1.7234723e-21 0.0034552005 1.0674585e-21 1.6264824e-39)
(0.0090199676 -0.0053174344 3.6975763e-21 0.0034374349 -2.3911976e-21 8.2613057e-39)
(0.0080432314 -0.0049501019 1.7137641e-21 0.0034084677 -1.1841323e-21 5.6358777e-40)
(0.0069461848 -0.0045178297 -2.6792734e-21 0.0033728361 1.9854326e-21 2.8172837e-39)
(0.0058115059 -0.0040392749 4.7581857e-22 0.0033327983 -3.8211413e-22 2.3733035e-40)
(0.0047125301 -0.0035318612 -1.0524881e-21 0.0032887665 9.5154622e-22 6.2095577e-40)
(0.0037073106 -0.003011759 -4.373434e-22 0.0032397668 4.6747982e-22 1.9794553e-40)
(0.0028349267 -0.0024935741 1.3043774e-21 0.0031840054 -1.532224e-21 3.1894859e-39)
(0.0021163668 -0.0019889103 6.1207097e-22 0.0031161262 -8.6459072e-22 5.9515541e-40)
(0.0015629458 -0.0015095402 -2.5162171e-22 0.0030083132 3.2745112e-22 4.6624925e-39)
(0.00038353558 -0.00021846983 -7.3511808e-22 0.00012726731 3.1336138e-22 6.1145423e-39)
(0.0021941506 -0.0013059511 -1.2190433e-21 0.00077929486 6.7724628e-22 6.3760605e-39)
(0.004253626 -0.0024692771 -1.3992252e-21 0.0014411661 8.1459046e-22 1.5937372e-38)
(0.0063028955 -0.0034898777 4.5469419e-23 0.0019535079 -2.5085946e-23 1.7249239e-42)
(0.0080552942 -0.0043072107 9.3386864e-23 0.0023445761 -4.2259177e-23 1.1446524e-38)
(0.0093816517 -0.004896809 1.5341375e-21 0.0026238403 -8.2307253e-22 3.1986957e-39)
(0.010224317 -0.0052661225 1.3456344e-22 0.0028119864 -6.9159628e-23 1.3251244e-39)
(0.010571472 -0.0054381754 -2.554206e-21 0.002933695 1.3904755e-21 8.2342991e-40)
(0.010451535 -0.005440508 3.0110542e-21 0.0030099087 -1.6849868e-21 1.5635069e-39)
(0.0099260756 -0.0053009185 9.8742581e-22 0.0030565572 -5.8166853e-22 1.7498409e-39)
(0.0090810266 -0.0050458044 -2.6947057e-21 0.0030850039 1.6647048e-21 3.5827974e-39)
(0.008016698 -0.004699526 -8.3680341e-22 0.0031025977 5.5682718e-22 1.1785343e-39)
(0.0068369009 -0.0042844116 3.1388761e-22 0.0031133014 -2.2159417e-22 3.2070911e-39)
(0.0056383575 -0.003821075 7.1359396e-22 0.0031183706 -5.7263233e-22 4.5399877e-40)
(0.0045019098 -0.0033287393 -2.4425429e-22 0.0031170238 2.212081e-22 3.5131795e-40)
(0.0034867671 -0.0028253817 5.7204429e-22 0.0031070921 -5.9810262e-22 2.699506e-40)
(0.0026283862 -0.0023276335 -3.9435074e-22 0.0030856285 4.8681178e-22 1.0154715e-40)
(0.0019397904 -0.0018503571 -7.7796086e-22 0.0030492628 1.1466472e-21 2.5663249e-39)
(0.0014158111 -0.0014056864 -1.357939e-23 0.0029937475 1.5379963e-23 2.3519349e-39)
(0.00104015 -0.0010046012 2.6435087e-22 0.0029104324 -6.2233687e-22 2.5442644e-40)
(0.00047173576 -0.00022568 -5.8337734e-22 0.00011010422 2.1517168e-22 3.0373819e-39)
(0.0026031756 -0.001310863 8.7368387e-22 0.00066166061 -4.2911033e-22 5.605481e-40)
(0.0049484082 -0.0024404336 7.7730377e-22 0.0012104795 -3.843341e-22 6.547906e-40)
(0.0071394579 -0.003393362 1.7043865e-21 0.0016322116 -8.1571398e-22 7.0760766e-39)
(0.0088747443 -0.0041227459 1.486433e-21 0.0019540397 -7.0976209e-22 3.1458711e-39)
(0.010036038 -0.0046160643 -2.5810794e-21 0.0021882992 1.2384195e-21 2.3886342e-39)
(0.010597808 -0.0048912612 -1.4356573e-21 0.002355477 7.0330992e-22 6.7880526e-40)
(0.010594053 -0.0049787607 0 0.0024772555 0 0)
(0.010103975 -0.0049103864 1.5533182e-21 0.0025706151 -8.6037127e-22 8.8129918e-39)
(0.0092374793 -0.004715775 -6.6636329e-22 0.0026472227 4.0342973e-22 3.3393703e-39)
(0.0081199384 -0.0044215807 -3.8826357e-21 0.0027141079 2.3805107e-21 2.8528765e-39)
(0.0068772396 -0.0040517252 -4.9832586e-22 0.0027744055 3.2215696e-22 5.9535753e-40)
(0.0056224303 -0.0036281 1.8722505e-21 0.0028281684 -1.4492886e-21 3.9684224e-39)
(0.0044456721 -0.0031712154 1.1675198e-22 0.0028732378 -7.6354788e-23 1.6624346e-39)
(0.0034087818 -0.0027004552 -2.8366405e-23 0.0029061291 2.9201723e-23 1.1425489e-42)
(0.0025446536 -0.0022338438 3.0100013e-22 0.0029229089 -3.6894684e-22 2.0106177e-40)
(0.0018608535 -0.0017874332 6.275253e-24 0.0029199362 3.7771424e-24 2.4063283e-40)
(0.0013459146 -0.0013745533 -5.2254794e-22 0.0028941835 9.4612905e-22 5.9456708e-40)
(0.00097634477 -0.0010050793 -2.8364461e-22 0.0028446401 6.5169005e-22 4.1871466e-40)
(0.00072347971 -0.00068566035 1.3080934e-22 0.0027765114 -4.6809577e-22 2.7263457e-39)
(0.00056220935 -0.00022120909 4.3925215e-22 8.8612884e-05 -1.3991885e-22 1.1950557e-39)
(0.0029885895 -0.0012484883 1.8270805e-21 0.00052278989 -7.2883736e-22 1.0767057e-38)
(0.0055652984 -0.0022904168 1.40854e-21 0.0009487462 -5.8266201e-22 6.7433746e-40)
(0.0078210836 -0.0031401516 1.5789502e-21 0.0012782944 -6.475955e-22 3.7847982e-39)
(0.0094558892 -0.003765932 -2.4118898e-21 0.0015358627 1.003495e-21 5.9590098e-39)
(0.010380944 -0.0041668496 8.3710825e-23 0.0017344771 -2.7203129e-23 5.6758565e-40)
(0.010619868 -0.0043678584 1.3559915e-22 0.001891852 -5.9949507e-23 4.7225402e-42)
(0.010264146 -0.0044017028 1.9185265e-21 0.0020245688 -9.1022722e-22 2.1200438e-39)
(0.0094476591 -0.0042993548 2.5678269e-22 0.0021441048 -1.298927e-22 1.8901849e-41)
(0.0083237917 -0.0040880332 -6.826249e-22 0.0022567925 3.9874738e-22 1.1509211e-39)
(0.007044619 -0.0037917744 2.1973756e-21 0.0023646525 -1.412157e-21 8.0003e-39)
(0.0057437852 -0.0034326221 -1.5989507e-21 0.0024662954 1.0890921e-21 6.6390317e-40)
(0.0045247555 -0.0030316466 -2.96896e-21 0.0025579334 2.4179467e-21 4.7582587e-39)
(0.0034555304 -0.0026092946 -9.7039264e-23 0.0026344818 9.3783261e-23 1.0143209e-41)
(0.0025696443 -0.0021849564 1.0252562e-21 0.0026906648 -1.2197653e-21 3.9387877e-39)
(0.0018719815 -0.001775985 0 0.00272203 0 0)
(0.0013472311 -0.0013965725 1.3088528e-22 0.0027256413 -1.9812925e-22 1.026708e-40)
(0.00096874735 -0.0010569381 -5.974304e-23 0.0027001568 1.4758766e-22 1.5343577e-40)
(0.00070576569 -0.00076307891 -6.4684046e-23 0.0026476648 1.5117978e-22 3.9716136e-41)
(0.0005284562 -0.00051676038 2.4969003e-23 0.0025801789 -1.3691539e-22 2.7675845e-40)
(0.00065002784 -0.00020384299 9.5976534e-22 6.5032349e-05 -2.4716378e-22 4.832607e-39)
(0.0033231486 -0.0011183252 9.3036842e-23 0.00037732941 -3.0577726e-23 8.9142502e-42)
(0.0060578607 -0.0020260767 -2.6551682e-22 0.00068296425 9.0037668e-23 3.9422877e-41)
(0.0082947643 -0.002749319 2.5975144e-22 0.00092697232 -8.4886284e-23 7.8141692e-40)
(0.0097551826 -0.0032703815 -1.6516688e-21 0.0011294813 5.848823e-22 1.4623307e-39)
(0.010398515 -0.0035962736 -7.8664721e-22 0.0013019878 2.9046402e-22 1.3083763e-40)
(0.010310331 -0.0037526119 5.4052381e-22 0.0014575045 -1.6799261e-22 4.1796921e-39)
(0.0096434386 -0.0037678558 -2.1791782e-23 0.0016063866 2.4241383e-23 3.2716083e-40)
(0.0085806693 -0.0036669011 -1.2954537e-21 0.0017540238 6.6310019e-22 3.449096e-39)
(0.0073050442 -0.003471357 2.2286341e-21 0.0019011555 -1.194832e-21 9.760081e-40)
(0.0059768082 -0.0032014144 -5.213851e-23 0.0020447886 8.6992142e-23 1.7968538e-39)
(0.0047187502 -0.0028773462 -1.7262638e-21 0.0021792866 1.3133801e-21 4.8990353e-39)
(0.0036104435 -0.0025199533 0 0.0022976571 0 0)
(0.0026905353 -0.0021498484 4.0182775e-22 0.0023929207 -4.9268353e-22 2.6490492e-39)
(0.0019647374 -0.0017859728 1.7346594e-23 0.0024593593 -4.5684637e-23 1.454346e-40)
(0.0014164563 -0.0014439899 -4.7863598e-22 0.0024934509 8.2051835e-22 3.0595614e-39)
(0.0010172634 -0.0011351219 -1.0856537e-22 0.0024942376 2.1086251e-22 6.2449811e-41)
(0.00073531788 -0.00086579598 -3.0536975e-23 0.0024629511 9.7129087e-23 1.0318133e-40)
(0.00054068747 -0.00063820473 -4.1399878e-23 0.0024043951 1.3078692e-22 3.9349445e-41)
(0.00040783861 -0.00045083136 7.110822e-23 0.0023326966 -3.1866467e-22 3.792421e-40)
(0.00072997514 -0.00017355872 3.7093804e-22 4.1991112e-05 -7.1384096e-23 7.6537513e-40)
(0.0035819841 -0.00092695624 -2.6448385e-21 0.00024067291 6.6589864e-22 1.6640681e-38)
(0.0063888712 -0.0016664175 -2.4386905e-22 0.00043923299 6.8604857e-23 1.5537551e-39)
(0.0085262814 -0.0022540642 -7.1549558e-22 0.0006097973 2.1027339e-22 7.8162446e-39)
(0.0097577271 -0.0026821784 -5.0940012e-22 0.00076733224 1.4346307e-22 1.0702484e-40)
(0.01010582 -0.0029588007 -2.8849126e-21 0.00092038348 9.0986137e-22 1.4029842e-39)
(0.0097230217 -0.0031022339 -1.4058754e-21 0.0010766573 5.0638345e-22 1.1464841e-39)
(0.0088176631 -0.003130276 2.691481e-21 0.0012404305 -1.0403552e-21 8.9008082e-40)
(0.0076071132 -0.0030580803 4.5618704e-22 0.0014113711 -2.4392239e-22 1.1828607e-39)
(0.0062850293 -0.0029005514 -5.840807e-22 0.0015850178 2.7219505e-22 4.0195687e-40)
(0.0050012541 -0.0026746157 2.7608093e-22 0.0017538417 -1.0172348e-22 1.5195476e-39)
(0.0038541032 -0.0023998575 -4.7379578e-23 0.0019086771 7.1049841e-23 3.8514976e-40)
(0.0028931938 -0.0020974406 0 0.002040388 0 0)
(0.0021293614 -0.0017879354 2.7791383e-22 0.0021414507 -3.0421027e-22 8.9114258e-41)
(0.0015475625 -0.0014889898 -5.8128419e-22 0.0022071195 8.0824474e-22 1.2402962e-39)
(0.0011192152 -0.0012136623 -1.8736027e-22 0.0022359631 3.0591378e-22 1.0490649e-40)
(0.00081178559 -0.00096979912 3.1492524e-22 0.0022296455 -6.8787745e-22 1.4919929e-39)
(0.00059490187 -0.00076045814 -7.5155334e-23 0.0021920193 1.007018e-22 3.2549682e-40)
(0.00044318522 -0.00058521137 -5.7488266e-24 0.0021297301 -8.7220731e-24 3.6569152e-41)
(0.00033665149 -0.00044117439 7.099602e-23 0.0020560949 -2.289446e-22 2.9476756e-41)
(0.00079713629 -0.00013161609 2.707543e-22 2.215305e-05 -3.5563056e-23 4.7921786e-40)
(0.0037457784 -0.00068742783 -2.4345034e-21 0.00012679857 4.3935857e-22 7.623521e-39)
(0.006534844 -0.0012400129 -1.9037483e-21 0.00023915701 3.7888155e-22 9.1328634e-39)
(0.0085038318 -0.0016965804 2.6740989e-21 0.00035061093 -5.6433172e-22 2.2219361e-39)
(0.0094771058 -0.0020522519 1.9967915e-21 0.00047138188 -4.5626412e-22 4.5239093e-40)
(0.0095482082 -0.0023072559 -1.4401167e-21 0.00060716401 3.2350215e-22 4.839197e-39)
(0.0089317608 -0.0024649496 4.7456758e-22 0.00076134131 -1.8538253e-22 2.0532597e-39)
(0.007877135 -0.0025280985 2.7319252e-21 0.000933363 -9.9608812e-22 2.2579288e-39)
(0.0066168212 -0.0025009942 1.1879635e-21 0.0011181468 -4.8033353e-22 2.7840567e-40)
(0.0053362238 -0.002392837 -1.1558086e-21 0.0013067531 6.1115212e-22 7.3493446e-40)
(0.0041611466 -0.0022189274 -1.5552369e-21 0.0014878661 9.6039408e-22 8.5455905e-40)
(0.0031596009 -0.0019992552 -4.2013371e-23 0.001649793 3.1559047e-23 8.8919244e-43)
(0.0023530284 -0.0017554257 4.3913633e-22 0.0017825234 -4.0054591e-22 1.3783549e-40)
(0.0017314725 -0.0015072779 -1.2056235e-23 0.0018793092 5.2851848e-23 2.2195353e-40)
(0.0012681497 -0.0012703538 -1.0741209e-23 0.0019374113 8.5346363e-23 6.0070083e-40)
(0.00093068746 -0.0010547834 4.3000046e-24 0.0019579561 -1.1067722e-22 1.0851194e-39)
(0.00068821029 -0.00086550001 1.4588147e-22 0.0019450403 -3.1310764e-22 3.1255958e-40)
(0.00051480256 -0.00070336016 -7.7485259e-23 0.0019044141 2.6227552e-22 8.2540456e-40)
(0.00039037016 -0.00056680107 -2.0479372e-22 0.0018433933 6.3032383e-22 1.5805728e-39)
(0.00029986622 -0.00045295823 7.1173479e-23 0.0017728964 -1.8296659e-22 3.3361314e-41)
(0.00084771217 -8.0450215e-05 -6.9558861e-22 7.8398126e-06 5.7910964e-23 1.430219e-39)
(0.0038034579 -0.00041758014 -5.197661e-22 4.636892e-05 5.6285911e-23 1.5367711e-39)
(0.0064883972 -0.000781072 4.1458483e-21 9.7208182e-05 -5.2980699e-22 1.8847718e-38)
(0.0082384587 -0.0011220566 3.0465163e-21 0.00016324916 -4.4684415e-22 2.0357761e-39)
(0.0089518039 -0.001429317 1.3451068e-21 0.00025212634 -2.1485848e-22 1.0045492e-39)
(0.008790702 -0.0016865086 2.705247e-22 0.00036856577 -5.6582444e-23 9.413856e-42)
(0.0080179719 -0.0018767008 -2.5113929e-21 0.00051389005 5.6931745e-22 4.1922522e-39)
(0.006904138 -0.0019862609 0 0.00068452421 0 0)
(0.0056771898 -0.0020099589 -1.513458e-21 0.00087174704 6.7858433e-22 3.4788729e-39)
(0.0044999775 -0.0019535329 -2.5598275e-22 0.0010629289 1.7732486e-22 7.9299636e-40)
(0.0034679482 -0.0018323274 7.2995644e-22 0.0012438506 -4.3747079e-22 1.8143335e-40)
(0.0026202215 -0.0016672054 7.460651e-23 0.0014014223 -1.0480406e-22 4.3663903e-40)
(0.0019566975 -0.0014797136 -3.3923505e-22 0.0015259646 3.4977876e-22 5.0202126e-40)
(0.0014551496 -0.0012881983 -2.5023687e-22 0.0016124414 3.5160531e-22 1.0814474e-39)
(0.0010846792 -0.0011057441 1.660047e-22 0.0016604899 -1.7224319e-22 1.312932e-40)
(0.00081435778 -0.00093991803 2.2676194e-22 0.0016735016 -3.0203661e-22 1.1651856e-40)
(0.00061759663 -0.00079372459 -1.9808595e-22 0.0016571904 3.4494008e-22 1.0578896e-40)
(0.00047355455 -0.00066708704 -2.5802824e-22 0.001618134 5.9988234e-22 1.3182737e-39)
(0.00036685162 -0.00055843632 2.2831816e-23 0.0015632574 -3.5465479e-24 1.5808022e-40)
(0.00028633348 -0.00046555772 3.2795239e-23 0.0015004996 -1.2660346e-22 1.8519639e-40)
(0.00087886858 -2.3277631e-05 -4.5964239e-22 7.0830638e-07 1.1726174e-23 7.0007305e-40)
(0.0037521281 -0.00013779854 1.9419796e-21 5.5000902e-06 -7.0130136e-23 3.8755549e-39)
(0.0062577329 -0.00032545226 2.9706012e-21 1.9512786e-05 -1.8492388e-22 2.8173805e-38)
(0.0077615185 -0.00057374801 -3.4214796e-21 5.1296764e-05 3.0222356e-22 7.726679e-39)
(0.0082384091 -0.00085530381 1.2190343e-21 0.00010985289 -1.3785615e-22 1.8871688e-40)
(0.0079070225 -0.0011307325 4.8300519e-22 0.00020218833 5.6380333e-24 7.1637174e-39)
(0.0070583205 -0.0013610094 1.2942964e-22 0.00033032 -2.7124906e-23 2.4545508e-42)
(0.0059633364 -0.0015178055 -1.8247244e-21 0.00048936341 4.3312081e-22 2.3818974e-39)
(0.0048299828 -0.001589388 -4.1119193e-23 0.00066789774 1.4719222e-23 3.6307145e-43)
(0.0037910673 -0.0015805013 6.685272e-22 0.00085038786 -3.6385957e-22 9.1179806e-40)
(0.0029121629 -0.0015075637 5.1029697e-23 0.0010207039 -5.6544784e-23 1.3167309e-40)
(0.0022094589 -0.0013920617 -2.4315739e-22 0.0011654771 6.1547591e-23 1.703407e-39)
(0.0016693521 -0.0012547361 -5.2583268e-22 0.00127626 4.437138e-22 1.744967e-40)
(0.0012646109 -0.0011119622 -7.0955731e-25 0.0013500869 4.4157632e-23 2.2204393e-40)
(0.0009652155 -0.00097453329 1.7352177e-22 0.0013886712 -2.4102674e-22 2.1272002e-40)
(0.00074420146 -0.00084819487 1.1393355e-22 0.0013968525 -1.933336e-22 2.0767855e-40)
(0.00057989867 -0.00073501444 2.3267389e-23 0.001380922 -9.2527499e-23 3.4039222e-40)
(0.00045609384 -0.00063488291 -1.8535619e-22 0.0013472977 2.6676366e-22 2.6542825e-40)
(0.00036123015 -0.0005467718 -4.2866785e-23 0.0013018239 -2.9480952e-23 1.1690087e-39)
(0.00028707844 -0.00046916107 9.24547e-23 0.0012495611 -3.2691929e-22 1.9192406e-39)
(5.9895767e-06 -7.4660207e-07 5.9924531e-23 9.1333326e-07 -1.200303e-23 6.8437853e-40)
(2.8249259e-05 -1.1824275e-05 -8.5474412e-23 6.0740303e-06 2.3683865e-23 6.5898175e-40)
(6.3276614e-05 -2.7329766e-05 1.8990882e-22 1.2104623e-05 -7.1025437e-23 3.7829082e-39)
(0.00020284893 -5.7642514e-05 5.2957364e-22 1.7339492e-05 -1.1266878e-22 1.2725667e-38)
(0.00044495577 -9.4991545e-05 -3.7779923e-22 2.2016118e-05 6.4081553e-23 3.3083698e-39)
(0.00079462729 -0.00013666864 4.7564254e-22 2.6134793e-05 -6.4203364e-23 3.6558251e-39)
(0.0012627951 -0.00018118281 -6.5110176e-22 2.9701643e-05 8.1998165e-23 4.0115464e-39)
(0.0018518725 -0.00022705279 -6.706739e-22 3.2795208e-05 6.9426895e-23 4.2437843e-39)
(0.0025583425 -0.0002730774 8.4006185e-22 3.5500614e-05 -8.608898e-23 4.4823054e-39)
(0.0033766969 -0.00031836972 -6.4960312e-22 3.7885081e-05 6.2620022e-23 2.2820726e-39)
(0.0043002062 -0.00036226189 -3.2955376e-23 4.0000289e-05 5.4300522e-25 2.6600919e-41)
(0.005321035 -0.00040423771 1.8440957e-22 4.1886206e-05 -1.9427249e-23 8.3489036e-41)
(0.0064305874 -0.00044389207 -3.2116591e-23 4.3573729e-05 1.4936671e-24 1.3346298e-41)
(0.0076198266 -0.00048090556 9.934531e-22 4.5087776e-05 -8.7926199e-23 3.9898342e-39)
(0.008879468 -0.00051503606 1.9618016e-24 4.6451155e-05 1.892079e-24 8.6517681e-42)
(0.010200173 -0.00054613256 -1.4328621e-21 4.7688548e-05 1.3332215e-22 8.1959078e-39)
(0.011572811 -0.00057414837 2.6180785e-22 4.8826198e-05 -2.7738707e-23 1.7220489e-40)
(0.012988497 -0.00059908487 6.2739846e-22 4.9884028e-05 -6.2730334e-23 2.0839494e-39)
(0.014438372 -0.0006210728 -9.9864692e-22 5.0881746e-05 1.0851447e-22 5.903421e-39)
(0.015912612 -0.00064104409 -5.3927907e-22 5.18179e-05 6.3637333e-23 2.2170048e-39)
(6.7842574e-06 -3.1267531e-06 1.9698025e-23 8.0395683e-06 -7.2423538e-24 6.7459611e-41)
(3.6013822e-05 -4.0518133e-05 -5.4122827e-22 5.3525505e-05 4.080838e-22 2.2037913e-38)
(8.0813165e-05 -9.1976591e-05 1.0744498e-22 0.00010662216 -8.895105e-23 1.9891012e-39)
(0.00023855956 -0.00018650671 5.6901599e-22 0.00015272504 -3.4866047e-22 1.0630843e-38)
(0.00050153076 -0.00030124931 7.8947965e-22 0.00019381985 -3.7800085e-22 1.202104e-38)
(0.0008729289 -0.00042823745 9.5295669e-23 0.0002298554 -3.8012431e-23 1.1290421e-40)
(0.0013622045 -0.00056302073 -2.5283489e-21 0.00026089749 8.6969204e-22 6.0104857e-38)
(0.0019700272 -0.00070122473 -8.8280478e-23 0.0002876442 3.631808e-23 1.7153473e-41)
(0.0026913211 -0.0008393291 1.4199979e-21 0.00031084494 -4.2774517e-22 1.0243741e-38)
(0.0035191605 -0.00097473743 -3.4165864e-22 0.0003310925 9.3163191e-23 5.697064e-40)
(0.004445428 -0.0011054923 -1.2897531e-21 0.00034884287 3.4894901e-22 6.3129623e-39)
(0.0054609042 -0.0012300779 2.7022241e-22 0.00036444685 -6.8119729e-23 2.8751667e-40)
(0.0065556023 -0.0013473012 1.1372271e-21 0.00037817223 -2.4977042e-22 6.7805716e-39)
(0.0077190597 -0.0014562144 4.653237e-22 0.00039023021 -1.1428431e-22 7.7290603e-40)
(0.0089404879 -0.0015560857 9.2129604e-22 0.00040080854 -2.4387699e-22 2.2296343e-39)
(0.010208968 -0.0016464361 -7.2276166e-22 0.00041010515 1.8088848e-22 1.8895711e-39)
(0.011513936 -0.0017270923 -6.8361864e-22 0.00041833309 1.6994291e-22 2.0677981e-39)
(0.012845035 -0.0017980129 6.8001343e-22 0.00042566717 -1.9552607e-22 1.1893029e-39)
(0.014189139 -0.0018595766 6.0919104e-22 0.00043230583 -1.7197619e-22 2.0881102e-39)
(0.015530321 -0.0019152485 2.2877637e-22 0.00043830414 -6.2541903e-23 8.8946104e-40)
(8.7223432e-06 -8.0127227e-06 1.5157312e-23 2.1451313e-05 -7.5421633e-24 3.5466291e-41)
(5.4429144e-05 -8.3727745e-05 4.1093962e-22 0.00014287689 -4.3988892e-22 9.3918202e-39)
(0.00012156776 -0.00018489518 -8.9832374e-23 0.0002843196 1.1573165e-22 4.9175157e-40)
(0.00031720265 -0.00035365451 -6.177281e-22 0.00040702874 5.1950026e-22 1.1643101e-38)
(0.00062307489 -0.00055327357 2.2601395e-22 0.00051600233 -1.8935886e-22 3.2773758e-40)
(0.0010387134 -0.00077086534 2.9751799e-22 0.00061088455 -2.4140018e-22 1.6913563e-40)
(0.0015706071 -0.00099909273 -3.726531e-22 0.00069184592 1.9655249e-22 1.0363639e-39)
(0.0022161491 -0.0012308973 -9.6544936e-22 0.00076075181 5.6080953e-22 2.0551086e-39)
(0.0029673147 -0.001460656 4.2223411e-22 0.00081959841 -2.0384427e-22 5.7739611e-40)
(0.0038144711 -0.0016842175 8.9524731e-22 0.00086997652 -3.6885746e-22 3.2843274e-39)
(0.004746864 -0.0018984377 2.4243649e-22 0.00091311697 -1.697642e-22 1.2160688e-40)
(0.005752665 -0.0021008677 1.0877162e-21 0.0009499648 -3.5602356e-22 6.0998005e-39)
(0.0068192801 -0.002289561 9.1300099e-23 0.00098123238 -3.3491296e-23 2.5240733e-41)
(0.0079336015 -0.0024629432 -1.5918836e-21 0.0010074641 5.3080075e-22 9.7964259e-39)
(0.0090820984 -0.0026197579 1.1282722e-22 0.0010291239 -7.677293e-23 5.4119085e-41)
(0.010251026 -0.0027591292 -7.3499706e-22 0.0010466881 2.0013859e-22 3.8217236e-39)
(0.011427336 -0.0028806785 -1.0171148e-21 0.0010606685 4.051262e-22 1.5572638e-39)
(0.012598309 -0.0029842549 1.6339217e-21 0.0010715723 -6.4269839e-22 5.1773336e-39)
(0.013743981 -0.0030704559 8.502939e-22 0.0010802172 -3.5912616e-22 1.0486343e-39)
(0.014839327 -0.0031465348 1.7117583e-22 0.0010872624 -8.0146127e-23 2.2407579e-41)
(1.2852316e-05 -1.6582695e-05 -2.2745866e-23 3.9518934e-05 2.8685595e-23 5.1648276e-41)
(8.9190874e-05 -0.00014862388 -9.5127507e-22 0.00026353733 1.2033279e-21 3.114742e-38)
(0.00019704334 -0.00032003235 -6.9333981e-23 0.0005238164 8.9094442e-23 4.2594625e-40)
(0.00045502109 -0.00057750954 1.5844993e-22 0.00074915596 -1.7543255e-22 2.7073572e-40)
(0.00083017859 -0.00087232554 -2.6137718e-23 0.00094821791 7.018031e-24 7.010941e-41)
(0.0013166291 -0.0011869757 8.056638e-22 0.0011198285 -5.8943843e-22 5.1134776e-39)
(0.0019163613 -0.0015112643 8.8817207e-22 0.0012642376 -5.7833334e-22 4.6441277e-39)
(0.0026219827 -0.0018357503 -2.6979928e-22 0.0013848987 1.2972552e-22 7.3263296e-40)
(0.003421148 -0.0021530171 -9.8121898e-22 0.0014855225 5.0957233e-22 4.6535478e-39)
(0.0043002322 -0.0024575744 -1.9631169e-21 0.0015691073 1.0538435e-21 9.8472376e-39)
(0.0052446171 -0.0027452358 -4.5839734e-23 0.0016380055 -2.256603e-23 2.2555259e-40)
(0.0062387091 -0.0030127176 2.4771428e-21 0.0016940389 -1.1464069e-21 1.6099139e-38)
(0.0072662144 -0.003257376 -1.003133e-21 0.0017385807 3.7769887e-22 4.7675149e-39)
(0.0083104015 -0.0034770491 -6.4066585e-22 0.0017726732 2.790009e-22 9.3850753e-40)
(0.0093541575 -0.0036699687 -7.2856604e-23 0.0017971718 8.702837e-23 2.0317741e-40)
(0.010380235 -0.003834832 1.4934915e-21 0.0018129034 -6.5480812e-22 3.8418991e-39)
(0.011372672 -0.0039710289 -8.3612323e-22 0.0018207298 4.2432958e-22 2.511156e-40)
(0.012316517 -0.0040784228 -1.9060368e-21 0.0018217032 8.0640812e-22 8.2770057e-39)
(0.013184781 -0.0041579786 1.2578407e-21 0.0018182658 -5.5462735e-22 4.1598774e-39)
(0.013943111 -0.0042213049 1.0858668e-21 0.0018134147 -4.3942512e-22 3.8762338e-39)
(2.055551e-05 -2.954035e-05 1.0200862e-22 6.0256067e-05 -9.9154508e-23 6.7111729e-40)
(0.00014786824 -0.00023934086 3.3591745e-23 0.0004020685 -9.1252635e-24 3.0161279e-40)
(0.0003223758 -0.00050526218 -1.3045708e-21 0.0007975463 1.8704621e-21 2.5516379e-38)
(0.0006728952 -0.00086790863 -7.4936187e-22 0.0011386415 7.9628167e-22 7.9045237e-39)
(0.0011482103 -0.0012686005 5.0170632e-22 0.0014377388 -3.993083e-22 4.7805744e-39)
(0.0017351448 -0.0016852706 6.1835064e-22 0.0016922507 -4.9810032e-22 2.2494031e-39)
(0.0024293909 -0.0021048193 -8.0542441e-22 0.001902512 5.249279e-22 5.2675698e-39)
(0.0032171287 -0.0025157987 -1.2255866e-21 0.0020738967 7.0087688e-22 1.155939e-38)
(0.0040802181 -0.0029094106 1.7989073e-21 0.0022122139 -1.0715966e-21 1.1848262e-38)
(0.0049996838 -0.0032791548 5.191133e-22 0.0023222514 -2.0807953e-22 2.761583e-39)
(0.0059558034 -0.0036200726 -1.5949298e-21 0.0024078534 1.0606793e-21 8.9206839e-40)
(0.0069281562 -0.0039282907 7.0486048e-22 0.0024720645 -3.1779811e-22 2.124418e-39)
(0.0078959742 -0.0042007264 0 0.0025172377 0 0)
(0.0088384439 -0.0044348886 6.7565708e-22 0.002545182 -3.2870091e-22 8.2938605e-40)
(0.0097348453 -0.0046287722 -5.0371787e-22 0.0025573574 2.3923497e-22 4.4274563e-40)
(0.010564921 -0.0047809259 -7.6506574e-22 0.0025550839 3.8405084e-22 5.3523184e-40)
(0.011310915 -0.0048907847 2.7625431e-22 0.0025396008 -2.3550301e-22 7.5823404e-40)
(0.011957807 -0.0049586905 -2.2566643e-22 0.0025125355 1.3840381e-22 2.6975631e-41)
(0.012474737 -0.0049865893 1.0665438e-21 0.0024790824 -4.6369897e-22 4.4909463e-39)
(0.01281897 -0.0049899092 -8.7374075e-22 0.002447908 4.3540754e-22 2.5628149e-40)
(3.3424576e-05 -4.7095921e-05 9.7893384e-23 8.1677447e-05 -8.2310607e-23 5.3875824e-40)
(0.00023895443 -0.00035653458 4.6890616e-22 0.00054431181 -6.2497154e-22 1.9999459e-39)
(0.00051416373 -0.00074114097 -6.2893852e-22 0.0010759918 8.3575065e-22 4.7931109e-39)
(0.0009926436 -0.0012239353 -1.0259338e-21 0.0015317618 1.1571933e-21 3.9983184e-39)
(0.0016015955 -0.001738202 -2.9066549e-22 0.0019274029 4.3615696e-22 3.1609007e-39)
(0.0023182301 -0.0022571178 -9.2338059e-22 0.002258573 8.1300788e-22 1.9673444e-39)
(0.0031297457 -0.002764657 -4.3430547e-22 0.0025259182 2.6705812e-22 2.2812522e-39)
(0.0040140982 -0.003247888 7.4728064e-22 0.0027370684 -4.4863148e-22 4.2070465e-39)
(0.0049458326 -0.0036972395 1.7739952e-21 0.0029002947 -1.0556831e-21 1.4398324e-38)
(0.0058993431 -0.004105789 5.4164214e-22 0.0030225854 -3.3364966e-22 6.0291725e-40)
(0.0068489391 -0.0044684175 -5.1425107e-22 0.0031097059 2.7234329e-22 9.5761012e-40)
(0.0077689759 -0.004781298 -1.0068913e-22 0.0031663544 -2.0756313e-23 8.3490306e-40)
(0.0086343981 -0.0050415863 -2.4124333e-21 0.0031962833 1.322996e-21 7.9190153e-39)
(0.0094212696 -0.0052472175 -7.4497668e-22 0.0032024649 3.9043915e-22 8.1926399e-40)
(0.010107141 -0.0053967868 1.2349082e-21 0.00318731 -7.2177628e-22 3.8053059e-40)
(0.010671613 -0.0054895714 -1.2253947e-21 0.0031528797 6.6833968e-22 8.0364141e-40)
(0.011098907 -0.0055258488 -4.3007734e-22 0.0031008221 2.1290117e-22 2.5885752e-40)
(0.011379031 -0.005507225 9.5647279e-22 0.0030329888 -4.014531e-22 4.0361259e-39)
(0.011484675 -0.0054376135 1.4301036e-21 0.0029575625 -7.2384187e-22 3.0465665e-39)
(0.011367474 -0.0053348225 1.7519263e-22 0.0028928054 -8.2464464e-23 5.945933e-41)
(5.3142177e-05 -6.898122e-05 -2.7618502e-22 0.00010197006 2.2430742e-22 3.1880923e-39)
(0.00037082327 -0.00049732044 -3.0666398e-22 0.0006768556 3.1116539e-22 2.5410146e-39)
(0.00078788919 -0.0010204862 7.5876086e-22 0.0013310903 -9.6323939e-22 1.1310156e-39)
(0.0014327469 -0.0016330514 1.1648085e-21 0.0018869705 -1.2092442e-21 5.3180233e-39)
(0.0022076806 -0.0022619962 1.5218569e-23 0.0023632 -1.3726486e-23 1.0573288e-42)
(0.0030773683 -0.0028755405 -3.1519361e-21 0.0027538864 2.6059335e-21 3.1091382e-38)
(0.0040180253 -0.0034549771 -1.2192534e-21 0.0030605802 1.049992e-21 4.3314967e-40)
(0.0049976644 -0.0039867298 9.5617897e-22 0.0032936072 -6.4561765e-22 3.4139035e-39)
(0.005982457 -0.004461468 1.0879729e-21 0.0034640786 -7.3268479e-22 2.0849952e-39)
(0.0069397517 -0.0048729115 -1.0693449e-21 0.0035815869 5.9491863e-22 5.7327319e-39)
(0.0078381862 -0.0052168887 -3.0994125e-21 0.0036542438 1.9656315e-21 8.3184061e-39)
(0.0086481484 -0.0054908043 2.0288056e-21 0.0036888215 -1.236157e-21 3.4186612e-39)
(0.0093426584 -0.0056933209 1.2068158e-21 0.0036908794 -6.2995419e-22 4.1118042e-39)
(0.0098982514 -0.0058241535 -1.6580804e-21 0.0036649395 9.1980727e-22 3.384763e-39)
(0.010295663 -0.0058839284 7.22872e-22 0.0036146972 -4.213791e-22 2.2502709e-40)
(0.010520528 -0.005874103 1.1944047e-21 0.0035431881 -6.1841407e-22 2.5225826e-39)
(0.010566012 -0.0057970695 4.5160291e-22 0.0034524769 -2.578103e-22 8.4902325e-41)
(0.010434777 -0.0056565755 -7.6965488e-22 0.0033439683 4.8517087e-22 1.0516688e-40)
(0.010113526 -0.0054591297 -1.7370184e-22 0.0032274849 5.3780933e-23 6.2638444e-40)
(0.0095547555 -0.0052225499 1.001729e-21 0.0031331469 -5.8887806e-22 2.4707687e-40)
(8.1349469e-05 -9.4461166e-05 -8.5644041e-24 0.00011953025 -8.3070477e-24 5.8504135e-41)
(0.00055059541 -0.00065540495 -1.1059696e-21 0.00078786292 1.1704477e-21 8.3422705e-39)
(0.0011551521 -0.0013287292 -8.8605808e-22 0.0015385995 9.5097302e-22 1.2637819e-38)
(0.0020039597 -0.0020717677 1.6434029e-21 0.0021690541 -1.5789027e-21 7.3699916e-39)
(0.0029709583 -0.0028069037 1.3509038e-21 0.0027003817 -1.3350456e-21 3.1115198e-39)
(0.0040049821 -0.0034976025 1.1518599e-21 0.003126016 -9.5612267e-22 1.2223335e-39)
(0.0050689597 -0.0041233217 -1.0535933e-22 0.0034493801 1.2950214e-22 5.7789055e-40)