/*--------------------------------*- C++ -*----------------------------------*\
  =========                 |
  \\      /  F ield         | OpenFOAM: The Open Source CFD Toolbox
   \\    /   O peration     | Website:  https://openfoam.org
    \\  /    A nd           | Version:  6
     \\/     M anipulation  |
\*---------------------------------------------------------------------------*/
FoamFile
{
    version     2.0;
    format      ascii;
    class       volScalarField;
    location    "271";
    object      pPrime2Mean;
}
// * * * * * * * * * * * * * * * * * * * * * * * * * * * * * * * * * * * * * //

dimensions      [0 4 -4 0 0 0 0];

internalField   nonuniform List<scalar> 
9200
(
0.041535592
0.034435239
0.028423666
0.024509561
0.021384896
0.018750911
0.016477776
0.014499265
0.012771292
0.011258561
0.009931848
0.0087666649
0.0077423454
0.0068413412
0.0060486761
0.0053515446
0.0047391062
0.0042023142
0.0037344078
0.0033265215
0.033695843
0.027883988
0.023023508
0.019828217
0.017264174
0.015096312
0.013222643
0.011591128
0.01016672
0.0089211814
0.007830944
0.0068760815
0.0060396021
0.0053069053
0.0046653635
0.004104024
0.0036134511
0.003185507
0.0028125781
0.0024838024
0.02634467
0.021772189
0.017992776
0.015474377
0.013437098
0.011706072
0.010205993
0.008898553
0.0077576024
0.0067617661
0.0058928567
0.0051351556
0.0044749409
0.0039001381
0.0034000714
0.0029652997
0.0025875234
0.0022594076
0.001973571
0.0017203388
0.019685922
0.016264504
0.013463563
0.011560775
0.010001912
0.0086668706
0.0075051214
0.0064912565
0.0056075353
0.0048389035
0.0041719624
0.0035945986
0.0030957987
0.0026655473
0.0022947837
0.0019753881
0.0017001645
0.0014627239
0.001256757
0.0010749407
0.013903234
0.011508913
0.0095574878
0.0081923702
0.007051095
0.0060613278
0.0051946938
0.0044374301
0.0037793129
0.003210709
0.0027221365
0.0023043122
0.001948311
0.0016457447
0.0013889223
0.0011709622
0.0009858292
0.00082826869
0.00069342098
0.00057637061
0.0091584328
0.0076343487
0.0063824037
0.0054630152
0.0046679728
0.0039645305
0.003343149
0.0027999664
0.0023309544
0.0019306803
0.0015925229
0.0013091994
0.0010732964
0.00087770633
0.00071593776
0.00058228858
0.00047188838
0.00038064283
0.00030508622
0.0002421791
0.0055868407
0.0047476198
0.004030025
0.0034534468
0.0029249271
0.0024422994
0.0020108651
0.0016344392
0.0013135074
0.0010454276
0.00082534521
0.00064721683
0.0005046692
0.00039161337
0.00030261404
0.00023305046
0.00017911957
0.00013776295
0.00010664074
8.397521e-05
0.0032938388
0.002931312
0.0025742538
0.0022297243
0.001881808
0.001549444
0.0012482096
0.00098699913
0.00076892916
0.0005927157
0.00045427126
0.00034816028
0.00026867932
0.00021053296
0.00016917088
0.00014088204
0.0001227384
0.00011249556
0.00010859824
0.0001100028
0.0023519415
0.0022414645
0.0020680843
0.0018398751
0.0015828498
0.0013271925
0.0010935459
0.00089293977
0.00072916368
0.00060099159
0.00050431431
0.00043385754
0.00038431771
0.00035098111
0.00032996372
0.00031821863
0.00031342655
0.00031387501
0.00031843376
0.00032636102
0.002797672
0.0027057078
0.0025403557
0.00231077
0.0020537099
0.0018001112
0.0015699371
0.0013732963
0.0012128473
0.0010863996
0.00098928201
0.00091608368
0.00086167479
0.00082167648
0.00079258369
0.00077169817
0.00075698901
0.00074695938
0.00074054904
0.00073694769
0.098521461
0.082861226
0.068483259
0.059391472
0.052172367
0.046112818
0.040895735
0.036350051
0.032369861
0.02887193
0.025788261
0.023062561
0.020647676
0.018503744
0.016596822
0.014897837
0.013381767
0.012026201
0.010810095
0.009721279
0.097267614
0.081726512
0.067513187
0.058525825
0.051397149
0.045414835
0.040264597
0.035778181
0.031850898
0.028400312
0.025359072
0.022671424
0.020290685
0.0181774
0.01629799
0.014623711
0.013129869
0.011794383
0.010596087
0.0095232297
0.094710044
0.079479953
0.065622379
0.056858485
0.049914951
0.044089204
0.039073723
0.034705525
0.030882665
0.027524692
0.024565824
0.021951593
0.01963639
0.017581677
0.015754668
0.014127322
0.012675615
0.011378119
0.010213738
0.009170929
0.090893431
0.076176103
0.06286546
0.054441206
0.047772627
0.042178349
0.03736195
0.033167893
0.029498352
0.026275968
0.023437426
0.02093026
0.018710517
0.016741064
0.01499031
0.013431246
0.012040783
0.010798443
0.0096835531
0.0086844281
0.085921971
0.071908702
0.059322283
0.051345406
0.04503425
0.039740034
0.035181733
0.031213188
0.027741906
0.024694618
0.022011287
0.019642114
0.017545349
0.015685703
0.014033151
0.012562006
0.011250311
0.010078758
0.0090276933
0.0080851331
0.079937284
0.066801911
0.055096411
0.047662342
0.041781117
0.036847093
0.032598613
0.028900577
0.02566689
0.022829243
0.0203316
0.018127414
0.016177623
0.014449187
0.012913972
0.011547873
0.010330218
0.0092429744
0.0082681791
0.0073939092
0.073111322
0.061004636
0.050310433
0.043499034
0.038108101
0.033584158
0.029688332
0.026297956
0.023334248
0.020734606
0.018447602
0.016430454
0.014647225
0.013067486
0.011665305
0.010418407
0.0093075593
0.0083160149
0.0074279899
0.0066324099
0.065640139
0.054685253
0.045102027
0.038974983
0.034120714
0.030045005
0.026534459
0.023479885
0.020810544
0.018470139
0.016412356
0.014598616
0.012996484
0.011578483
0.010321177
0.00920439
0.0082105577
0.0073242924
0.0065322732
0.005825057
0.057736796
0.048025325
0.039618971
0.034217777
0.029931184
0.026329082
0.023225329
0.020524856
0.01816552
0.016097797
0.01428089
0.012680778
0.011268846
0.010020856
0.008916135
0.0079368806
0.0070675156
0.0062943145
0.0056067405
0.0049970311
0.049623642
0.041214523
0.034013867
0.029357531
0.025653046
0.022536403
0.01984934
0.017511122
0.015468543
0.013679158
0.01210795
0.010725677
0.009507731
0.0084332817
0.0074845985
0.006646497
0.005905903
0.0052517973
0.0046773374
0.0041751132
0.0085727106
0.0074277353
0.0064570325
0.0056144274
0.0048947349
0.0042783792
0.0037483735
0.0032901451
0.0028918467
0.002543857
0.0022383847
0.001969188
0.0017312569
0.0015205178
0.0013336128
0.001167738
0.0010205199
0.00088992255
0.00077417813
0.00067173607
0.00058122369
0.00050141613
0.00043121306
0.00036962053
0.00031573693
0.00026874214
0.00022788888
0.00019249596
0.00016194277
0.00013566475
0.00011314946
9.3933176e-05
7.7597736e-05
6.3767519e-05
5.2106641e-05
4.231607e-05
3.4130978e-05
2.7317876e-05
2.1672264e-05
1.701538e-05
1.3193422e-05
1.0070655e-05
7.5391097e-06
5.486276e-06
3.8674904e-06
2.5348767e-06
1.6116371e-06
7.4223251e-07
9.7595392e-07
1.6210428e-06
0.0084064715
0.0072994378
0.0063564834
0.0055351948
0.0048330062
0.0042307812
0.0037117022
0.0032617461
0.002869671
0.0025263362
0.0022243509
0.0019578035
0.0017219277
0.0015128167
0.0013272256
0.001162427
0.0010161001
0.00088624534
0.00077112188
0.00066919964
0.00057912225
0.00049967821
0.00042977838
0.00036843829
0.00031476437
0.00026794336
0.00022723384
0.0001919596
0.00016150424
0.00013530673
0.00011285765
9.369575e-05
7.7404945e-05
6.3611336e-05
5.1980465e-05
4.2214474e-05
3.4049501e-05
2.7252854e-05
2.1620687e-05
1.6974779e-05
1.3161771e-05
1.0046303e-05
7.5207078e-06
5.4727526e-06
3.8579728e-06
2.5286768e-06
1.6083563e-06
7.402807e-07
9.7017439e-07
1.5898625e-06
0.0081139616
0.007075197
0.0061824657
0.005400281
0.0047295297
0.0041522263
0.0036520786
0.0032161602
0.0028344294
0.002498697
0.0022023261
0.0019399977
0.0017073702
0.0015008199
0.0013172887
0.0011541742
0.0010092395
0.00088054337
0.00076638733
0.00066527364
0.00057587163
0.00049699087
0.00042755991
0.00036660925
0.00031325811
0.00026670409
0.00022621505
0.00019112264
0.0001608171
0.00013474296
0.00011239545
9.3317188e-05
7.7095282e-05
6.3358463e-05
5.1774428e-05
4.2047085e-05
3.3914017e-05
2.7143713e-05
2.1533296e-05
1.6905343e-05
1.3107153e-05
1.0003917e-05
7.4884332e-06
5.4488705e-06
3.8410998e-06
2.5176571e-06
1.6026104e-06
7.3683756e-07
9.5862323e-07
1.528955e-06
0.007713166
0.0067688845
0.0059474957
0.0052218121
0.004595139
0.004051676
0.0035766267
0.0031588935
0.0027902975
0.0024641118
0.0021747694
0.0019177286
0.0016891832
0.0014858598
0.0013049283
0.0011439379
0.0010007554
0.00087351288
0.00076056589
0.00066045843
0.0005718933
0.00049370751
0.00042485256
0.00036437842
0.00031142075
0.00026519113
0.00022496925
0.00019009669
0.00015997205
0.00013404682
0.00011182198
9.2844914e-05
7.6706613e-05
6.303899e-05
5.1512324e-05
4.1832624e-05
3.3739173e-05
2.7001846e-05
2.1418894e-05
1.6813823e-05
1.3034701e-05
9.9473599e-06
7.4451497e-06
5.4167143e-06
3.8183281e-06
2.5028072e-06
1.5948929e-06
7.3232158e-07
9.4129319e-07
1.4414388e-06
0.0072217482
0.0063946114
0.0056644389
0.0050121193
0.0044406905
0.0039377681
0.0034918728
0.0030947902
0.0027408669
0.0024253031
0.0021438337
0.001892772
0.0016688767
0.0014692442
0.0012912866
0.0011327175
0.00099151997
0.00086591128
0.00075431147
0.00065531513
0.00056766575
0.00049023373
0.00042199823
0.00036203236
0.00030949125
0.00026360273
0.00022366007
0.00018901617
0.00015907899
0.00013330772
0.00011120966
9.233728e-05
7.6285732e-05
6.2690255e-05
5.1223793e-05
4.159449e-05
3.3543337e-05
2.6841581e-05
2.1288584e-05
1.6708758e-05
1.2950923e-05
9.8815347e-06
7.3944956e-06
5.3789301e-06
3.7915028e-06
2.4853762e-06
1.5858093e-06
7.2726883e-07
9.1834794e-07
1.3318947e-06
0.0066547756
0.0059651857
0.0053448843
0.004781222
0.0042741048
0.0038160339
0.0034014054
0.0030262465
0.0026878985
0.0023837079
0.0021107936
0.0018663117
0.0016475623
0.0014520094
0.0012773181
0.001121381
0.00098231293
0.00085843112
0.00074823309
0.0006503745
0.00056364785
0.00048696331
0.00041933254
0.00035985536
0.00030770891
0.00026213917
0.00022245422
0.0001880191
0.00015825158
0.0001326188
0.00011063437
9.1855836e-05
7.5882294e-05
6.2352104e-05
5.0940634e-05
4.1357921e-05
3.3346416e-05
2.6678523e-05
2.115451e-05
1.6599522e-05
1.2862983e-05
9.8118567e-06
7.3404961e-06
5.3384475e-06
3.7626574e-06
2.4667321e-06
1.5759938e-06
7.2225118e-07
8.9005199e-07
1.2058823e-06
0.0060269557
0.0054934152
0.0049991458
0.00453516
0.0040979611
0.0036869852
0.0033048214
0.0029528234
0.0026313553
0.0023397312
0.0020763748
0.0018392636
0.0016262422
0.0014351678
0.001263996
0.0011108339
0.00097395768
0.00085180865
0.00074298037
0.00064620358
0.00056033001
0.00048431698
0.00041721385
0.00035815064
0.00030632878
0.00026101369
0.00022152902
0.00018725212
0.00015761049
0.00013207881
0.00011017658
9.1465769e-05
7.5548855e-05
6.2066694e-05
5.0696484e-05
4.11496e-05
3.3169456e-05
2.6529158e-05
2.1029493e-05
1.6496e-05
1.2778427e-05
9.744009e-06
7.2873563e-06
5.2983054e-06
3.7338786e-06
2.4482601e-06
1.566056e-06
7.1781871e-07
8.5676278e-07
1.0694167e-06
0.0053566309
0.0049939291
0.0046351344
0.0042730608
0.0039067969
0.0035449157
0.003197905
0.0028720234
0.0025702144
0.0022934068
0.0020412445
0.0018126153
0.0016060286
0.0014198392
0.0012523801
0.0011020419
0.00096731269
0.00084679366
0.00073919963
0.00064335382
0.00055817888
0.0004826869
0.00041596969
0.00035719025
0.00030557566
0.0002604112
0.00022103584
0.00018683861
0.00015725579
0.00013176861
0.00010990128
9.1219117e-05
7.5326874e-05
6.1866889e-05
5.0517261e-05
4.0989858e-05
3.3028308e-05
2.6405769e-05
2.0922979e-05
1.6405398e-05
1.2702696e-05
9.6820475e-06
7.2380408e-06
5.2606217e-06
3.7065805e-06
2.4308824e-06
1.5563001e-06
7.1433479e-07
8.1888441e-07
9.2853646e-07
0.0046620072
0.0044730069
0.0042444984
0.0039759127
0.0036799595
0.0033729722
0.0030684266
0.0027751457
0.0024981877
0.0022401075
0.0020019191
0.0017836684
0.0015847755
0.0014042829
0.0012410383
0.0010938149
0.0009613838
0.00084255452
0.00073619614
0.0006412467
0.00055671484
0.00048167744
0.00041527543
0.00035670924
0.00030523437
0.00026015775
0.00022083464
0.00018666623
0.00015709769
0.00013161659
0.00010975153
9.1070699e-05
7.5180592e-05
6.1724471e-05
5.0380771e-05
4.0861313e-05
3.2909434e-05
2.6297885e-05
2.0826947e-05
1.6321641e-05
1.2631256e-05
9.6226537e-06
7.1901727e-06
5.2237417e-06
3.6796195e-06
2.4138588e-06
1.5460876e-06
7.1163141e-07
7.7700989e-07
7.8944011e-07
0.0039708548
0.0039146746
0.0037901427
0.0036093243
0.0033911564
0.0031512279
0.0029009497
0.0026498905
0.0024052174
0.0021715314
0.0019515637
0.0017468139
0.001557886
0.0013847348
0.0012268923
0.00108364
0.00095412385
0.00083742797
0.00073262322
0.00063879627
0.00055506612
0.00048059218
0.00041457761
0.00035627001
0.00030496079
0.00025998416
0.00022071599
0.0001865729
0.00015701142
0.00013152727
0.00010965467
9.096559e-05
7.5068794e-05
6.1608774e-05
5.0264429e-05
4.0747538e-05
3.2801073e-05
2.6197249e-05
2.0735749e-05
1.6240997e-05
1.2561757e-05
9.5644376e-06
7.1430127e-06
5.1873106e-06
3.6528723e-06
2.3970754e-06
1.5353372e-06
7.0954484e-07
7.3272412e-07
6.5865379e-07
0.0032190407
0.0032395198
0.0031996314
0.0031028242
0.0029669003
0.0028032309
0.0026196535
0.0024246925
0.0022262071
0.0020299821
0.0018400149
0.0016590682
0.0014889155
0.0013305212
0.0011842539
0.0010500748
0.00092767245
0.00081655916
0.00071614058
0.00062576437
0.00054475251
0.00047242242
0.00040810035
0.00035113009
0.00030087836
0.00025673854
0.00021813305
0.00018451518
0.00015537042
0.00013021733
0.00010860817
9.0129079e-05
7.4400029e-05
6.1074306e-05
4.9837718e-05
4.0407478e-05
3.2530826e-05
2.5983346e-05
2.0567369e-05
1.6109446e-05
1.2459992e-05
9.4868847e-06
7.0849229e-06
5.1455611e-06
3.6233567e-06
2.3799621e-06
1.5229502e-06
7.0829613e-07
6.865969e-07
5.4348328e-07
0.002495346
0.0025583384
0.0025714891
0.0025346083
0.0024618558
0.0023615602
0.0022383678
0.0020988296
0.0019499671
0.0017973169
0.0016450115
0.0014962326
0.0013533249
0.0012178665
0.0010908236
0.00097270995
0.00086370627
0.00076375185
0.00067261668
0.00058995607
0.00051535022
0.00044833253
0.00038840973
0.00033507647
0.00028782572
0.00024615662
0.00020958034
0.00017762468
0.00014983765
0.0001257903
0.00010507888
8.732634e-05
7.2183371e-05
5.9328837e-05
4.8469775e-05
3.9340961e-05
3.1704114e-05
2.5346724e-05
2.0080847e-05
1.5741027e-05
1.2184046e-05
9.2832898e-06
6.9371504e-06
5.0420073e-06
3.5517346e-06
2.3371857e-06
1.4925973e-06
7.0116229e-07
6.2761485e-07
4.338688e-07
0.0018728453
0.0019639092
0.0020141734
0.0020233687
0.0020001465
0.0019505743
0.0018775113
0.001785609
0.0016806385
0.0015675426
0.0014502479
0.0013320051
0.001215431
0.0011024883
0.00099457018
0.00089261908
0.00079722199
0.00070868808
0.00062711504
0.00055244348
0.00048449906
0.00042302473
0.0003677053
0.00031818627
0.00027408828
0.00023501844
0.00020057912
0.00017037517
0.00014401961
0.00012113828
0.00010137346
8.438679e-05
6.9861284e-05
5.7502788e-05
4.704077e-05
3.8228586e-05
3.0843286e-05
2.4684973e-05
1.9576013e-05
1.535942e-05
1.1898711e-05
9.073126e-06
6.7847887e-06
4.9354297e-06
3.4777852e-06
2.2933671e-06
1.4599779e-06
6.9496094e-07
5.6340445e-07
3.30817e-07
0.0013496434
0.0014553228
0.0015284446
0.0015696347
0.0015827435
0.0015717852
0.0015386292
0.0014863053
0.0014190904
0.0013410525
0.0012556548
0.0011659319
0.0010744955
0.00098346209
0.00089447004
0.00080875024
0.00072719219
0.00065040119
0.00057875213
0.00051243757
0.0004515078
0.00039590327
0.00034548076
0.00030003455
0.00025931341
0.00022303432
0.00019089372
0.00016257668
0.00013776451
0.00011614098
9.7397445e-05
8.1236855e-05
6.7376977e-05
5.5552728e-05
4.5517809e-05
3.7045693e-05
2.9930058e-05
2.3984695e-05
1.904317e-05
1.4957694e-05
1.1599106e-05
8.8529726e-06
6.625502e-06
4.8241237e-06
3.4004528e-06
2.2473912e-06
1.4248622e-06
6.8863383e-07
4.9860114e-07
2.4242976e-07
0.00092884198
0.0010353018
0.0011181292
0.0011778911
0.0012148975
0.0012311746
0.0012278298
0.0012066295
0.0011703894
0.0011221457
0.0010647183
0.001000721
0.00093253555
0.00086222197
0.00079148507
0.00072169768
0.00065393535
0.00058901065
0.00052751009
0.00046983115
0.00041621605
0.00036678084
0.00032154041
0.00028042964
0.00024332126
0.00021004075
0.00018037898
0.00015410282
0.00013096406
0.00011070695
9.3074474e-05
7.7813491e-05
6.46789e-05
5.3436882e-05
4.3867325e-05
3.576553e-05
2.8943273e-05
2.3229289e-05
1.8469397e-05
1.4525875e-05
1.1277604e-05
8.6170434e-06
6.4549711e-06
4.7048472e-06
3.3174552e-06
2.1974313e-06
1.3863677e-06
6.8101954e-07
4.3584423e-07
1.7295311e-07
0.00060656373
0.00070268788
0.00078414798
0.00085073822
0.00090052315
0.00093378199
0.00095082661
0.00095242792
0.00094014784
0.00091597985
0.00088200029
0.00084027309
0.00079279428
0.00074140046
0.00068770651
0.00063308985
0.0005786958
0.00052544973
0.00047407558
0.00042511917
0.00037897242
0.00033589642
0.00029604259
0.0002594718
0.00022617123
0.00019606917
0.00016904792
0.00014495501
0.0001236129
0.00010482729
8.8394309e-05
7.4106455e-05
6.1757588e-05
5.1146948e-05
4.2082308e-05
3.4382348e-05
2.7878332e-05
2.2415145e-05
1.78519e-05
1.4061817e-05
1.0932562e-05
8.3640644e-06
6.2722098e-06
4.5767656e-06
3.2281808e-06
2.1427842e-06
1.3443433e-06
6.7128006e-07
3.7730426e-07
1.2385587e-07
0.00037235729
0.00045131868
0.00052341917
0.00058762544
0.00064091621
0.00068231441
0.0007113613
0.00072802421
0.00073286872
0.00072694973
0.00071158903
0.00068824552
0.00065843855
0.00062366522
0.00058532797
0.00054469196
0.00050286624
0.00046079685
0.00041926847
0.00037891335
0.00034022442
0.00030357038
0.0002692111
0.00023731282
0.00020796253
0.00018118123
0.00015693606
0.0001351512
0.00011571762
9.8501701e-05
8.3352823e-05
7.0109841e-05
5.8606661e-05
4.8676849e-05
4.0157394e-05
3.2891663e-05
2.6731635e-05
2.1539471e-05
1.7188575e-05
1.3563967e-05
1.0562848e-05
8.093197e-06
6.076595e-06
4.4393504e-06
3.1322685e-06
2.0829578e-06
1.2988739e-06
6.5865612e-07
3.2465555e-07
9.3976216e-08
0.00021269808
0.00027159767
0.00032958971
0.00038511476
0.00043492671
0.00047735726
0.00051135563
0.00053627976
0.0005519578
0.00055867996
0.00055708115
0.00054802816
0.00053253958
0.00051171203
0.00048665204
0.00045842391
0.00042801343
0.00039630571
0.00036407347
0.00033197314
0.00030054709
0.00027022982
0.0002413566
0.00021417347
0.00018884782
0.00016547906
0.00014410883
0.00012473081
0.00010729978
9.1739911e-05
7.7952288e-05
6.5821563e-05
5.5221782e-05
4.602138e-05
3.8087359e-05
3.1288709e-05
2.5499107e-05
2.0598943e-05
1.6476809e-05
1.3030333e-05
1.0166978e-05
7.80335e-06
5.8673383e-06
4.2919977e-06
3.0293418e-06
2.0175372e-06
1.2501464e-06
6.4255376e-07
2.7887611e-07
7.9811997e-08
0.00011343695
0.00015223193
0.00019414586
0.00023744217
0.00027916555
0.00031743307
0.00035087257
0.00037845533
0.00039951866
0.00041379214
0.00042134986
0.00042253508
0.00041789427
0.00040811698
0.00039397702
0.00037628138
0.00035582937
0.0003333809
0.00030963442
0.00028521352
0.00026065979
0.00023643075
0.00021290146
0.00019036883
0.00016905766
0.00014912777
0.00013068164
0.00011377226
9.841083e-05
8.4574166e-05
7.2211664e-05
6.1251686e-05
5.160732e-05
4.3181466e-05
3.5871231e-05
2.9571634e-05
2.4178639e-05
1.9591557e-05
1.5714885e-05
1.2459543e-05
9.7439188e-06
7.4937807e-06
5.6439361e-06
4.1343728e-06
2.919258e-06
1.9464013e-06
1.1985386e-06
6.2274234e-07
2.4030662e-07
7.6413041e-08
6.1222348e-05
8.1684405e-05
0.00010761953
0.00013737519
0.00016852676
0.00019929976
0.00022826481
0.00025423088
0.00027626857
0.00029375113
0.00030634836
0.00031398869
0.0003168163
0.00031514838
0.00030943098
0.00030019513
0.00028801809
0.00027349061
0.00025718997
0.00023965985
0.0002213966
0.00020284045
0.00018437101
0.00016630593
0.00014890234
0.00013236002
0.0001168259
0.00010239948
8.9138544e-05
7.7065238e-05
6.6171954e-05
5.6427057e-05
4.7780229e-05
4.0167348e-05
3.3514846e-05
2.7743503e-05
2.2771654e-05
1.8517834e-05
1.4902889e-05
1.1851527e-05
9.2935916e-06
7.1644693e-06
5.4064472e-06
3.9666139e-06
2.8022521e-06
1.8698263e-06
1.1446321e-06
5.9941962e-07
2.0879523e-07
7.8597431e-08
4.4317531e-05
4.9178472e-05
6.057261e-05
7.7079205e-05
9.6865396e-05
0.00011843966
0.00014050883
0.00016190615
0.00018162321
0.00019885955
0.00021304038
0.00022380707
0.00023099758
0.00023462266
0.00023483758
0.00023191064
0.00022619127
0.00021808061
0.00020800547
0.00019639615
0.00018366863
0.00017021154
0.00015637687
0.00014247417
0.00012876759
0.0001154753
0.00010277071
9.0785045e-05
7.9610924e-05
6.9306536e-05
5.990018e-05
5.1394928e-05
4.3773222e-05
3.7001255e-05
3.1033035e-05
2.5814044e-05
2.1284449e-05
1.7381832e-05
1.4043458e-05
1.1208053e-05
8.8172469e-06
6.8163746e-06
5.1556632e-06
3.7894399e-06
2.6790011e-06
1.788514e-06
1.0891883e-06
5.7319237e-07
1.8386207e-07
8.2088103e-08
5.2924397e-05
4.524484e-05
4.4252876e-05
4.8812059e-05
5.7641181e-05
6.9593569e-05
8.3618485e-05
9.8699056e-05
0.00011388645
0.00012835253
0.00014141921
0.00015256684
0.00016143289
0.00016780485
0.00017160719
0.00017288308
0.00017177267
0.00016849036
0.00016330282
0.00015650871
0.00014842053
0.0001393496
0.0001295941
0.0001194301
0.00010910532
9.8835249e-05
8.8801351e-05
7.9150922e-05
6.9998278e-05
6.1426944e-05
5.3492538e-05
4.6226111e-05
3.9637714e-05
3.3720023e-05
2.8451857e-05
2.380149e-05
1.972967e-05
1.619228e-05
1.3142629e-05
1.0533337e-05
8.3178885e-06
6.4517093e-06
4.8932746e-06
3.6042302e-06
2.5506469e-06
1.7035502e-06
1.0330788e-06
5.4495064e-07
1.6478821e-07
8.4188167e-08
7.9172e-05
6.1929545e-05
5.0960097e-05
4.5401357e-05
4.4434893e-05
4.724909e-05
5.3068384e-05
6.1088799e-05
7.0506513e-05
8.0567519e-05
9.060012e-05
0.00010003191
0.00010839967
0.00011535447
0.00012066097
0.00012419087
0.00012591174
0.00012587276
0.00012418901
0.00012102532
0.00011658072
0.00011107406
0.00010473141
9.7775727e-05
9.0418522e-05
8.2853741e-05
7.5253499e-05
6.7765601e-05
6.0512504e-05
5.359152e-05
4.7075957e-05
4.1016987e-05
3.5445991e-05
3.0377217e-05
2.5810549e-05
2.1734278e-05
1.8127736e-05
1.4963734e-05
1.2210733e-05
9.8347097e-06
7.8007457e-06
6.074254e-06
4.6220607e-06
3.413114e-06
2.4188207e-06
1.6163548e-06
9.7723224e-07
5.1572204e-07
1.506651e-07
8.3840919e-08
0.00011692799
9.2785494e-05
7.4192864e-05
6.0520415e-05
5.130796e-05
4.6031227e-05
4.4173668e-05
4.5157026e-05
4.8360281e-05
5.3161909e-05
5.896976e-05
6.5239768e-05
7.1490642e-05
7.7315761e-05
8.2390704e-05
8.6475616e-05
8.9412901e-05
9.1121207e-05
9.1586698e-05
9.0852479e-05
8.9007107e-05
8.6172923e-05
8.2494867e-05
7.8130286e-05
7.3240147e-05
6.7981701e-05
6.2502747e-05
5.6937377e-05
5.1403171e-05
4.5999624e-05
4.0807659e-05
3.5890006e-05
3.1292265e-05
2.7044464e-05
2.3162946e-05
1.9652421e-05
1.6508078e-05
1.3717636e-05
1.1263261e-05
9.1232954e-06
7.2737753e-06
5.6897046e-06
4.3461095e-06
3.2190807e-06
2.2856773e-06
1.5286305e-06
9.2259497e-07
4.8652509e-07
1.4043094e-07
8.1181729e-08
0.00016153375
0.00013273814
0.00010864385
8.880319e-05
7.301385e-05
6.0977074e-05
5.2393395e-05
4.6890394e-05
4.4031774e-05
4.3350403e-05
4.4372503e-05
4.6633867e-05
4.9694544e-05
5.3152888e-05
5.665708e-05
5.9912905e-05
6.2687723e-05
6.4811009e-05
6.6171946e-05
6.6714539e-05
6.6430899e-05
6.5353339e-05
6.3545907e-05
6.1095899e-05
5.8105822e-05
5.468615e-05
5.0949042e-05
4.7003209e-05
4.2949896e-05
3.8880011e-05
3.4872268e-05
3.099225e-05
2.729224e-05
2.3811677e-05
2.0578078e-05
1.7608298e-05
1.4909985e-05
1.2483127e-05
1.0321596e-05
8.4146245e-06
6.7481518e-06
5.3060403e-06
4.0710729e-06
3.0261351e-06
2.1539771e-06
1.4423675e-06
8.7015632e-07
4.58296e-07
1.329794e-07
7.6907171e-08
0.000209528
0.00017789331
0.00015010331
0.00012584523
0.00010508889
8.7699861e-05
7.354518e-05
6.2421747e-05
5.4057444e-05
4.8135307e-05
4.4311176e-05
4.2225499e-05
4.1515233e-05
4.1826763e-05
4.2828005e-05
4.4218334e-05
4.5735961e-05
4.7162758e-05
4.8326557e-05
4.9101062e-05
4.9403644e-05
4.9191436e-05
4.8456206e-05
4.7218451e-05
4.5521166e-05
4.3423672e-05
4.0995815e-05
3.8312754e-05
3.5450514e-05
3.2482347e-05
2.9475971e-05
2.6491608e-05
2.3580785e-05
2.0785784e-05
1.8139648e-05
1.5666609e-05
1.3382845e-05
1.1297438e-05
9.4134555e-06
7.7290695e-06
6.2386553e-06
4.9338431e-06
3.8044127e-06
2.8394671e-06
2.0271961e-06
1.359892e-06
8.210172e-07
4.3188099e-07
1.2732767e-07
7.1772058e-08
0.00025839469
0.00022533216
0.00019531706
0.00016813321
0.00014385545
0.00012246078
0.0001039341
8.820039e-05
7.5120386e-05
6.4507456e-05
5.6139306e-05
4.9765128e-05
4.5113668e-05
4.1903248e-05
3.9852241e-05
3.8688677e-05
3.8158561e-05
3.8032675e-05
3.8111667e-05
3.8229264e-05
3.8253613e-05
3.8086897e-05
3.7663465e-05
3.6946796e-05
3.5925618e-05
3.4609511e-05
3.3024331e-05
3.1207712e-05
2.9204862e-05
2.7064826e-05
2.4837309e-05
2.257013e-05
2.0307282e-05
1.8087613e-05
1.5944029e-05
1.3903179e-05
1.1985511e-05
1.0205628e-05
8.5728552e-06
7.0919419e-06
5.7638309e-06
4.5864742e-06
3.5555642e-06
2.6655895e-06
1.9096365e-06
1.283949e-06
7.7649476e-07
4.0809465e-07
1.2280005e-07
6.6360323e-08
0.00030634872
0.00027291828
0.00024183041
0.00021293692
0.00018636858
0.00016217216
0.00014040912
0.00012109385
0.00010418635
8.9603578e-05
7.7226581e-05
6.6903668e-05
5.8454774e-05
5.1678106e-05
4.6357922e-05
4.2272354e-05
3.920092e-05
3.6931458e-05
3.5266204e-05
3.4026705e-05
3.3057395e-05
3.2227762e-05
3.1433152e-05
3.0594336e-05
2.9656013e-05
2.858449e-05
2.7364764e-05
2.5997277e-05
2.4494552e-05
2.2877912e-05
2.1174434e-05
1.941426e-05
1.7628327e-05
1.5846549e-05
1.409647e-05
1.240233e-05
1.0784535e-05
9.2594416e-06
7.8394166e-06
6.5330957e-06
5.3457876e-06
4.2799948e-06
3.3359279e-06
2.5123676e-06
1.8064762e-06
1.2177646e-06
7.3820825e-07
3.8779447e-07
1.1913013e-07
6.1068316e-08
0.00035216132
0.00031912908
0.00028783805
0.00025818789
0.00023033174
0.00020435546
0.00018036493
0.0001584316
0.00013858395
0.0001208151
0.00010508664
9.1329023e-05
7.9442971e-05
6.930302e-05
6.0762478e-05
5.3658883e-05
4.7819774e-05
4.3068543e-05
3.9230162e-05
3.6136405e-05
3.3630362e-05
3.1570027e-05
2.9830877e-05
2.8307409e-05
2.6913669e-05
2.5582872e-05
2.4266254e-05
2.2931326e-05
2.1559706e-05
2.014473e-05
1.8688984e-05
1.7201904e-05
1.5697565e-05
1.4192729e-05
1.2705202e-05
1.125253e-05
9.8510213e-06
8.5150798e-06
7.2568126e-06
6.0858753e-06
5.0095054e-06
4.0327249e-06
3.1586029e-06
2.3888727e-06
1.7237032e-06
1.1650448e-06
7.0811223e-07
3.7193866e-07
1.164451e-07
5.6164177e-08
0.00039502138
0.0003629148
0.00033204972
0.00030236015
0.00027400012
0.00024707346
0.00022170716
0.00019800474
0.00017603775
0.00015585087
0.00013746375
0.00012086962
0.00010603467
9.2899282e-05
8.1380491e-05
7.1375187e-05
6.276385e-05
5.5414771e-05
4.918861e-05
4.3942973e-05
3.9536809e-05
3.5834388e-05
3.2708711e-05
3.0044213e-05
2.7738699e-05
2.5704492e-05
2.3868822e-05
2.2173549e-05
2.0574304e-05
1.9039206e-05
1.7547267e-05
1.6086628e-05
1.4652748e-05
1.3246646e-05
1.1873274e-05
1.054009e-05
9.2558486e-06
8.0296398e-06
6.8701662e-06
5.7852457e-06
4.7815167e-06
3.8643354e-06
3.037778e-06
2.3049936e-06
1.6678845e-06
1.1298629e-06
6.8844125e-07
3.6159348e-07
1.151482e-07
5.1830816e-08
0.00043442695
0.00040358359
0.00037357511
0.00034436106
0.00031608373
0.00028885129
0.00026279604
0.00023803562
0.00021466522
0.0001927611
0.00017238121
0.00015356308
0.00013632192
0.00012065034
0.00010651897
9.3877816e-05
8.2658119e-05
7.277491e-05
6.4130074e-05
5.6615764e-05
5.0118021e-05
4.4520362e-05
3.9707215e-05
3.556702e-05
3.1994872e-05
2.8894619e-05
2.6180375e-05
2.3777419e-05
2.162253e-05
1.9663809e-05
1.7860073e-05
1.6179914e-05
1.4600537e-05
1.3106459e-05
1.1688175e-05
1.0340854e-05
9.063138e-06
7.856078e-06
6.722233e-06
5.6649517e-06
4.6878319e-06
3.7943644e-06
2.987699e-06
2.2707425e-06
1.6457201e-06
1.1164018e-06
6.8155296e-07
3.5787836e-07
1.1576545e-07
4.8182113e-08
0.00047009961
0.00044070852
0.00041182707
0.0003834349
0.00035565605
0.00032859488
0.00030237914
0.00027712856
0.0002529481
0.00022993048
0.00020815624
0.00018769132
0.00016858476
0.00015086745
0.00013455168
0.00011963101
0.00010608088
9.3859569e-05
8.2909894e-05
7.3161324e-05
6.4532497e-05
5.6933983e-05
5.0271186e-05
4.444722e-05
3.9365649e-05
3.4932952e-05
3.1060637e-05
2.7666913e-05
2.467792e-05
2.2028478e-05
1.9662398e-05
1.7532404e-05
1.5599715e-05
1.3833382e-05
1.220943e-05
1.0709909e-05
9.3219042e-06
8.0365682e-06
6.8482215e-06
5.7535581e-06
4.7509748e-06
3.8400486e-06
3.0211226e-06
2.2951911e-06
1.6633404e-06
1.1285209e-06
6.8966033e-07
3.6184526e-07
1.1880684e-07
4.5273107e-08
0.00050191816
0.00047405357
0.00044644245
0.00041908121
0.0003920731
0.00036551438
0.00033952274
0.00031421257
0.00028968946
0.00026605199
0.00024339154
0.00022179005
0.00020131763
0.00018203099
0.00016397229
0.00014716826
0.00013162978
0.0001173518
0.00010431387
9.2481059e-05
8.1805379e-05
7.222755e-05
6.3679087e-05
5.6084565e-05
4.9364e-05
4.3435194e-05
3.8215973e-05
3.3626195e-05
2.9589482e-05
2.6034615e-05
2.2896557e-05
2.0117116e-05
1.7645255e-05
1.5437101e-05
1.3455677e-05
1.1670441e-05
1.0056677e-05
8.5947939e-06
7.2696e-06
6.0695833e-06
4.9862452e-06
4.0135224e-06
3.1472769e-06
2.3850347e-06
1.7253362e-06
1.1691391e-06
7.1445697e-07
3.7429731e-07
1.2465928e-07
4.311361e-08
0.00052986162
0.00050350966
0.00047721226
0.00045098067
0.00042489723
0.00039904839
0.0003735393
0.00034847506
0.00032395634
0.00030008071
0.00027694233
0.00025463008
0.00023322536
0.00021280047
0.00019341722
0.00017512569
0.00015796317
0.00014195344
0.00012710644
0.00011341831
0.00010087181
8.9437207e-05
7.9073415e-05
6.9729539e-05
6.1346615e-05
5.3859512e-05
4.7198928e-05
4.1293344e-05
3.6070902e-05
3.1461096e-05
2.7396241e-05
2.3812665e-05
2.0651614e-05
1.7859859e-05
1.5390032e-05
1.3200693e-05
1.1256202e-05
9.5264135e-06
7.986248e-06
6.6151953e-06
5.3967821e-06
4.3180552e-06
3.3690775e-06
2.5426043e-06
1.8334e-06
1.2393599e-06
7.5659275e-07
3.9552649e-07
1.3348593e-07
4.1678881e-08
0.00055397168
0.00052905117
0.00050403286
0.00047894195
0.00045384105
0.00042880666
0.00040393096
0.00037930815
0.0003550312
0.00033119269
0.00030788455
0.00028519649
0.00026321424
0.00024201806
0.00022168127
0.00020226896
0.00018383663
0.00016642919
0.00015007999
0.00013481033
0.0001206291
0.00010753295
9.5506603e-05
8.4523669e-05
7.4547649e-05
6.5533256e-05
5.7427932e-05
5.0173489e-05
4.3707823e-05
3.7966614e-05
3.2884951e-05
2.8398808e-05
2.4446345e-05
2.0968975e-05
1.7912202e-05
1.5226204e-05
1.2866194e-05
1.079256e-05
8.9708332e-06
7.3715072e-06
5.9697495e-06
4.7450575e-06
3.6808569e-06
2.7642149e-06
1.9851792e-06
1.3377278e-06
8.1523618e-07
4.2510281e-07
1.4517124e-07
4.0917878e-08
0.00057429579
0.0005506726
0.00052683671
0.00050282683
0.00047868773
0.00045448683
0.00043030415
0.00040622307
0.0003823279
0.00035870443
0.00033543959
0.0003126204
0.00029033243
0.0002686586
0.0002476778