/*--------------------------------*- C++ -*----------------------------------*\
  =========                 |
  \\      /  F ield         | OpenFOAM: The Open Source CFD Toolbox
   \\    /   O peration     | Website:  https://openfoam.org
    \\  /    A nd           | Version:  6
     \\/     M anipulation  |
\*---------------------------------------------------------------------------*/
FoamFile
{
    version     2.0;
    format      ascii;
    class       volVectorField;
    location    "127";
    object      U;
}
// * * * * * * * * * * * * * * * * * * * * * * * * * * * * * * * * * * * * * //

dimensions      [0 1 -1 0 0 0 0];

internalField   nonuniform List<vector> 
9200
(
(0.0010394304 0.0014199377 -5.9202499e-20)
(0.013676434 -0.0020585609 4.604312e-20)
(0.038313963 -0.0058669085 -3.8502203e-20)
(0.07227578 -0.0097639938 -6.0258449e-20)
(0.11376673 -0.013490669 1.8827217e-20)
(0.1615836 -0.016606453 3.2744286e-20)
(0.21467498 -0.018818234 -1.2268185e-20)
(0.27207042 -0.019974995 9.2689988e-21)
(0.33286144 -0.020012485 1.6803612e-20)
(0.39616957 -0.018930475 1.484826e-21)
(0.46112251 -0.016781405 -2.1456632e-20)
(0.52684465 -0.013659494 2.0670301e-20)
(0.59245923 -0.0096899449 -4.0422692e-20)
(0.65710054 -0.0050179196 -2.1134239e-20)
(0.71993452 0.0002032068 5.9047413e-21)
(0.78018527 0.0058215118 -2.513213e-20)
(0.83718116 0.011709982 2.5217626e-20)
(0.89047949 0.017915412 2.2243874e-20)
(0.93968145 0.024570023 -2.991656e-22)
(0.98206251 0.028289724 -1.6690202e-21)
(0.0052523237 -0.0013463503 -1.705954e-20)
(0.026963045 -0.0089893013 3.9748184e-20)
(0.06167121 -0.014810211 2.3576576e-20)
(0.10629665 -0.019172876 -1.1569883e-19)
(0.15873817 -0.022214755 -1.2727246e-20)
(0.21753687 -0.02372159 7.3297854e-20)
(0.28137719 -0.023596142 -3.5476808e-20)
(0.34901115 -0.02187015 -8.3906519e-21)
(0.41924524 -0.018646849 3.4287961e-20)
(0.49091636 -0.01408231 -4.3260149e-20)
(0.56288005 -0.0083775729 -3.0338932e-20)
(0.63401695 -0.0017683811 7.1922618e-20)
(0.7032524 0.0054864275 3.8294668e-20)
(0.76958542 0.013116466 -6.7977806e-20)
(0.83212242 0.020849697 1.4624002e-20)
(0.89011054 0.028417078 -3.6734171e-20)
(0.94297939 0.035566783 -1.377742e-20)
(0.99044243 0.042137712 7.0976599e-20)
(1.0323659 0.04771184 2.9643089e-20)
(1.0669443 0.04913596 -8.3479509e-20)
(0.010858641 -0.0040425214 3.6773824e-20)
(0.043954165 -0.015431417 2.5047578e-21)
(0.090516868 -0.02255281 2.2341979e-20)
(0.14711362 -0.026498045 9.8117817e-22)
(0.21134563 -0.027887126 -4.0774437e-20)
(0.28147168 -0.026796072 1.8576577e-20)
(0.35587535 -0.023383807 1.3420463e-20)
(0.43299595 -0.017922733 -5.0328296e-20)
(0.51133155 -0.010736968 5.7262584e-20)
(0.58943373 -0.0021853281 1.425693e-20)
(0.66591748 0.0073463131 -5.4301585e-20)
(0.73948927 0.017458507 -1.8237773e-20)
(0.80898534 0.027754618 9.0591078e-21)
(0.87341228 0.037857114 2.3445219e-20)
(0.93198339 0.047421647 -1.1362794e-20)
(0.98414341 0.056146313 2.7878326e-20)
(1.0295836 0.063786229 -2.0188636e-20)
(1.0682738 0.070201146 -7.0125302e-20)
(1.100341 0.075115825 -2.3796943e-20)
(1.1249196 0.076637408 4.8660636e-20)
(0.017957512 -0.0064222904 2.4508241e-20)
(0.064777981 -0.020695184 5.1039734e-20)
(0.12485409 -0.02806142 1.9881886e-20)
(0.19447237 -0.030464784 1.2990192e-20)
(0.27095299 -0.029095681 1.7275858e-20)
(0.35225345 -0.024389922 -4.7720669e-20)
(0.43643701 -0.016827011 -2.5647147e-20)
(0.52162662 -0.0069778057 0)
(0.60603633 0.0045657911 1.3920939e-20)
(0.68799516 0.017210368 -5.8525527e-21)
(0.76598384 0.030372411 -9.7936493e-20)
(0.83868355 0.043497947 -1.5774986e-20)
(0.90502457 0.056084725 6.5104539e-20)
(0.96422508 0.067702007 4.8426791e-22)
(1.0158128 0.078005323 -1.5725903e-21)
(1.0596246 0.086744113 2.1957978e-20)
(1.095786 0.093769245 -5.2648759e-21)
(1.1246883 0.099062039 -6.1031097e-20)
(1.1468725 0.10259347 -4.5852368e-20)
(1.162303 0.10340996 6.9521748e-20)
(0.026579812 -0.0082058274 -3.9194428e-21)
(0.08934526 -0.024033907 -5.1256686e-21)
(0.16430973 -0.030265562 5.6599925e-20)
(0.2475844 -0.029810713 1.8539487e-20)
(0.33624585 -0.024513812 -3.1955381e-20)
(0.42795652 -0.015240719 1.2163957e-20)
(0.52047884 -0.0028522923 2.6403179e-21)
(0.61167066 0.011736087 3.3609658e-20)
(0.69955493 0.027639035 5.6600353e-21)
(0.78237676 0.044027536 -1.3205035e-20)
(0.85866284 0.06014633 6.0155291e-20)
(0.9272781 0.075338879 -5.8010286e-20)
(0.98746579 0.089071036 -1.3216867e-19)
(1.038862 0.10094693 -5.5774166e-21)
(1.0814811 0.11071471 8.3152562e-20)
(1.1156738 0.11826136 0)
(1.1420627 0.12360283 1.0119149e-20)
(1.1614742 0.12688725 -1.546011e-20)
(1.1748248 0.12829509 -8.5996594e-21)
(1.1826737 0.12744527 2.0992627e-20)
(0.036667401 -0.0090897196 -5.4309182e-21)
(0.11731661 -0.024685743 4.3579118e-21)
(0.20812127 -0.028140705 -8.7630585e-21)
(0.30516071 -0.023415565 2.8472644e-20)
(0.40534016 -0.013076256 -2.939297e-20)
(0.50607726 0.0015219061 -1.6927215e-20)
(0.6049116 0.019094381 3.7364563e-20)
(0.69955706 0.038364424 4.7595637e-21)
(0.78801198 0.058166712 -2.4436581e-20)
(0.86864252 0.077481927 6.9868696e-20)
(0.9402484 0.095457379 5.2379699e-22)
(1.0021043 0.11143007 -8.0445936e-20)
(1.0539655 0.12494115 0)
(1.0960356 0.13573545 3.9542988e-20)
(1.1289001 0.14374607 5.5237306e-21)
(1.1534353 0.14906626 -7.7567991e-20)
(1.1707061 0.15191616 -1.9587318e-20)
(1.1818689 0.1526204 -1.2467886e-20)
(1.1880653 0.1515225 -1.4709698e-20)
(1.1901517 0.14858112 4.0421324e-20)
(0.048059465 -0.0087675322 -1.7278065e-20)
(0.14808487 -0.021932327 -2.2199222e-21)
(0.25514366 -0.020798264 3.0380723e-20)
(0.36546797 -0.010413261 3.7484571e-20)
(0.47590944 0.0059011033 -1.9944921e-20)
(0.58374887 0.026268803 -6.9163856e-20)
(0.68644889 0.048976667 -2.7996226e-20)
(0.78176972 0.072417172 7.8930328e-20)
(0.86791008 0.09521174 8.578052e-21)
(0.94359752 0.1162487 -2.4873822e-20)
(1.0081342 0.13469714 1.3642322e-20)
(1.0613953 0.15001416 -4.3195782e-21)
(1.1037773 0.16193491 0)
(1.1361051 0.17044228 2.720399e-20)
(1.1595118 0.17572078 -7.9323917e-20)
(1.1753089 0.17810107 -3.1476127e-20)
(1.1848633 0.17800521 8.1056125e-20)
(1.189498 0.17590626 -4.2971011e-21)
(1.1904085 0.17225215 3.5561645e-21)
(1.1885132 0.16718933 2.7112141e-20)
(0.060485952 -0.0069574636 -3.2414807e-20)
(0.18077975 -0.015170626 -8.1624977e-20)
(0.3038926 -0.0075838097 2.5796922e-21)
(0.42643007 0.0097030841 7.0162486e-20)
(0.54535709 0.032631299 6.2425027e-20)
(0.65798752 0.058819788 -7.1575229e-20)
(0.76191606 0.086176213 -2.8263449e-22)
(0.85519065 0.11285192 8.5523908e-20)
(0.93646149 0.13737784 4.8828812e-20)
(1.0050496 0.15869296 -5.4219349e-20)
(1.0609436 0.17613463 -9.23358e-20)
(1.104732 0.18941225 -3.1590377e-21)
(1.1374833 0.19855783 4.2128606e-20)
(1.1605944 0.20385664 -6.6057504e-21)
(1.1756313 0.20576796 -1.2869008e-20)
(1.1841838 0.20484666 1.9691129e-20)
(1.1877485 0.20167617 4.3881406e-20)
(1.1876508 0.19682284 -4.3860195e-20)
(1.1850005 0.19077559 -1.0232392e-19)
(1.1806298 0.18377035 2.4567412e-20)
(0.073538015 -0.0034330309 -3.4980047e-20)
(0.21422913 -0.0039891482 -1.7388716e-19)
(0.35252017 0.011839283 8.2104083e-20)
(0.4856328 0.037018304 9.2768438e-20)
(0.61085965 0.066835566 5.7971154e-20)
(0.72577395 0.098481199 8.6108218e-21)
(0.82835531 0.12959693 -1.0624146e-19)
(0.91719763 0.15824254 0)
(0.99163523 0.18302781 -6.8749782e-20)
(1.0517598 0.20311148 -1.5202699e-20)
(1.0983459 0.21814773 5.4704368e-20)
(1.132708 0.22820964 1.0973571e-20)
(1.1565178 0.23369109 -4.5614612e-20)
(1.1716132 0.23519764 -4.9082162e-20)
(1.1798264 0.23344123 2.4288111e-20)
(1.1828507 0.22915084 4.4823689e-20)
(1.1821542 0.22300722 -5.5601386e-20)
(1.1789411 0.21560537 -1.0751307e-19)
(1.1741516 0.20741921 -3.1513589e-21)
(1.1684613 0.19871561 2.7046865e-20)
(0.086651332 0.0019613846 -3.5449955e-21)
(0.24696263 0.011816665 8.7913933e-20)
(0.39885123 0.037492443 -1.647897e-20)
(0.54040968 0.071218622 -8.4310169e-20)
(0.66950503 0.10778924 4.5164903e-20)
(0.78422626 0.14411574 4.9175916e-20)
(0.88319661 0.17775692 5.5357579e-21)
(0.96578615 0.20688498 -9.9503914e-20)
(1.0321838 0.23038788 -2.5049168e-21)
(1.0833401 0.24781511 5.0504358e-20)
(1.1208141 0.25926227 5.9855733e-21)
(1.1465625 0.26523513 -1.9717533e-20)
(1.1627171 0.26650394 -7.570583e-20)
(1.1713825 0.26396452 -6.2554775e-21)
(1.1744818 0.25852232 4.3534029e-20)
(1.1736601 0.25100866 3.7022583e-20)
(1.1702433 0.24213151 1.9793705e-20)
(1.165245 0.23245613 -5.2995846e-20)
(1.1594059 0.22240139 1.2957484e-20)
(1.1532294 0.21223506 8.2660389e-20)
(-0.0012932788 0.0014346783 -1.123466e-21)
(-0.0047460216 0.0031874542 2.0647197e-21)
(-0.010771492 0.0041359526 8.7947999e-22)
(-0.017754499 0.004539586 -2.441058e-21)
(-0.024740602 0.0045654632 -1.4115402e-21)
(-0.031299939 0.0043260783 1.5461033e-21)
(-0.037161721 0.0039035688 -6.8702309e-21)
(-0.042147866 0.0033577416 -5.957489e-21)
(-0.046158213 0.002731389 1.1172252e-20)
(-0.049146621 0.0020548253 -9.7429699e-21)
(-0.051101059 0.0013492812 -1.9834118e-22)
(-0.052030804 0.00062938789 3.6674257e-21)
(-0.051958031 -9.4939179e-05 -6.3297098e-22)
(-0.050912088 -0.00081699669 2.2819297e-20)
(-0.048925875 -0.0015319286 3.0401472e-22)
(-0.046035307 -0.0022352766 -4.0883921e-20)
(-0.042281607 -0.0029223904 7.5387712e-21)
(-0.037703071 -0.0035911818 2.3864751e-20)
(-0.032308115 -0.0042401519 -4.3853592e-20)
(-0.02615615 -0.0048213008 -2.7739995e-20)
(-0.001652221 0.0041809203 -5.3716745e-21)
(-0.0053975472 0.0092682511 1.0865545e-20)
(-0.01121864 0.012007582 -1.0191646e-20)
(-0.017658221 0.013153906 3.9230677e-21)
(-0.023856684 0.013195544 4.8122749e-21)
(-0.02943361 0.012462835 7.1325966e-22)
(-0.034152636 0.011197096 -2.2510023e-20)
(-0.037860698 0.0095739465 -2.0370592e-21)
(-0.040474601 0.0077190005 2.0163965e-20)
(-0.041959186 0.0057212041 -5.0474694e-21)
(-0.042309152 0.0036427961 -2.1763068e-20)
(-0.041537454 0.0015265996 4.8974269e-21)
(-0.039667719 -0.00059846577 2.2635927e-20)
(-0.036728952 -0.0027129713 1.0308634e-20)
(-0.032751743 -0.0048029525 2.1854832e-20)
(-0.02776869 -0.0068558281 -1.9771222e-20)
(-0.021824096 -0.0088585989 -2.1673492e-20)
(-0.014965323 -0.010804667 2.1185207e-20)
(-0.0071277889 -0.01267951 2.6811083e-20)
(0.0018758469 -0.014317798 1.5855163e-20)
(-0.0023034568 0.0065603152 -4.3569322e-21)
(-0.0065392969 0.014480366 -5.6387948e-21)
(-0.011892253 0.01871075 3.0723481e-22)
(-0.01721126 0.02042839 1.0959511e-21)
(-0.021819325 0.020400514 6.6919449e-21)
(-0.025431226 0.01915182 1.0665333e-20)
(-0.027877395 0.017066395 -3.7228397e-21)
(-0.029053385 0.014423835 -1.8896509e-20)
(-0.028909078 0.011424343 6.5414456e-21)
(-0.02743099 0.0082098305 1.2862832e-20)
(-0.024627524 0.004879631 5.834217e-21)
(-0.020519757 0.0015020188 1.8159479e-20)
(-0.015135443 -0.0018771622 1.7296294e-21)
(-0.0085046305 -0.0052276303 -3.386527e-20)
(-0.00065586557 -0.0085280811 1.2020708e-21)
(0.0083823387 -0.011759674 -2.2139677e-20)
(0.01855852 -0.014904761 -2.446694e-20)
(0.029804201 -0.017954522 4.5820905e-20)
(0.042307396 -0.020855997 2.5350052e-20)
(0.056741476 -0.023248754 1.2244965e-22)
(-0.0031290624 0.0083690703 -5.2833926e-21)
(-0.0078964768 0.018336717 -8.4817451e-21)
(-0.01243909 0.023588053 4.3593595e-21)
(-0.01602664 0.025609901 4.1464132e-21)
(-0.018235104 0.025382956 2.0105976e-21)
(-0.018912677 0.023589481 7.3211345e-21)
(-0.017984656 0.020730366 9.3126483e-21)
(-0.01541653 0.017170393 -1.351163e-21)
(-0.011206714 0.013171243 -1.1482159e-20)
(-0.0053747115 0.0089187686 -2.907243e-20)
(0.0020488585 0.0045431755 6.1901822e-23)
(0.011027518 0.00013394477 4.0698623e-20)
(0.021523537 -0.0042494276 -1.8383517e-20)
(0.033499506 -0.0085681781 -1.2296343e-20)
(0.046922552 -0.012796262 5.5346709e-22)
(0.061762563 -0.016912702 3.2303374e-20)
(0.077955954 -0.020902654 -1.4829949e-20)
(0.09539572 -0.024764507 -5.3340412e-20)
(0.11440247 -0.028381002 4.5766069e-20)
(0.13635005 -0.031074528 3.3013958e-20)
(-0.0039704497 0.009465838 -6.8788349e-22)
(-0.0090917338 0.020488001 -1.2534918e-20)
(-0.012364541 0.02615933 -3.4145107e-20)
(-0.013552565 0.028143569 -5.7242806e-21)
(-0.012533179 0.027555192 -3.6223077e-21)
(-0.0093165385 0.02518818 6.3052103e-21)
(-0.0039452925 0.021627441 -4.6462774e-21)
(0.0035266884 0.01729889 -8.8071714e-21)
(0.013037632 0.012508572 2.1900073e-20)
(0.024522347 0.0074741447 5.0567804e-21)
(0.037916982 0.0023484803 -2.5290778e-20)
(0.053159274 -0.0027633407 1.1078464e-20)
(0.070189127 -0.0077915712 0)
(0.088949319 -0.012692147 1.2089807e-20)
(0.1093887 -0.017437918 -9.7018094e-21)
(0.13146125 -0.022011058 -1.4337432e-20)
(0.15507852 -0.02640998 -1.5738355e-21)
(0.18007272 -0.030660937 -2.2182394e-21)
(0.20685924 -0.034578243 4.6147958e-20)
(0.23767021 -0.037021763 -1.047049e-20)
(-0.0046451387 0.0097809612 -7.5357638e-21)
(-0.0096773116 0.020748065 2.4516782e-20)
(-0.011064396 0.026161181 -1.0499528e-20)
(-0.009096745 0.02772462 -2.7469699e-20)
(-0.0039794774 0.026601807 -2.7548538e-20)
(0.0040966339 0.023648432 -1.4921795e-20)
(0.014954859 0.019496374 -6.9060536e-22)
(0.028437254 0.014604502 5.5500553e-21)
(0.044404526 0.0093031106 1.9616162e-20)
(0.062732286 0.0038279379 7.3532001e-21)
(0.083306567 -0.0016553828 -7.186329e-21)
(0.10602174 -0.0070330242 -2.0102391e-21)
(0.1307769 -0.012230049 -3.8192371e-20)
(0.15747337 -0.017200877 -1.2693869e-20)
(0.18601659 -0.02192104 1.8751001e-20)
(0.21631707 -0.026381212 -2.1022109e-20)
(0.24823827 -0.030603916 -8.9732356e-21)
(0.28152549 -0.034672509 3.0440994e-20)
(0.31661466 -0.038366942 5.0473004e-20)
(0.35665865 -0.039966441 3.3560422e-21)
(-0.0049618034 0.00931408 1.6783505e-20)
(-0.0091662968 0.019097845 1.4468115e-20)
(-0.0078592967 0.023563496 5.1146205e-20)
(-0.0018583015 0.024329023 2.3388332e-20)
(0.0082961972 0.022523779 1.8252048e-22)
(0.022222713 0.019014272 -3.9389018e-20)
(0.039598575 0.014440697 -2.4314214e-20)
(0.060149455 0.009265981 1.0465956e-20)
(0.083641142 0.0038226984 1.4401789e-20)
(0.10986925 -0.0016519898 -1.3113874e-20)
(0.13864877 -0.0069918695 -4.403939e-20)
(0.16980548 -0.012083884 2.9618968e-20)
(0.20316851 -0.016855381 2.0020844e-20)
(0.23856465 -0.021265409 -2.755161e-20)
(0.27581826 -0.025298016 1.165035e-20)
(0.31475486 -0.028958987 2.4198036e-20)
(0.35515302 -0.032305085 8.0725581e-21)
(0.39664226 -0.035508932 -1.1764475e-20)
(0.43958622 -0.038395135 -1.4190488e-20)
(0.48799515 -0.038637135 5.8730804e-21)
(-0.004730797 0.0081237286 1.1093993e-20)
(-0.0070585721 0.015671242 -2.3353086e-20)
(-0.0020291799 0.01856206 8.6201329e-21)
(0.0090329535 0.018216176 3.3588445e-20)
(0.02525712 0.015650996 5.2125055e-20)
(0.046067496 0.011695322 2.0276785e-20)
(0.070986148 0.0069605289 -5.8640252e-21)
(0.099604105 0.0018823729 -1.2286431e-20)
(0.13157169 -0.0032279416 -6.205849e-21)
(0.16657907 -0.0081505744 3.424131e-20)
(0.20433834 -0.012734418 -4.5105395e-21)
(0.24456968 -0.016880473 -1.6643566e-20)
(0.28699031 -0.020530167 -1.9693847e-20)
(0.3313064 -0.023658095 -4.7444491e-20)
(0.37721183 -0.026267424 2.3239076e-20)
(0.42439577 -0.028389967 -1.4096229e-20)
(0.47250862 -0.030129945 2.5993898e-20)
(0.52104585 -0.031785739 2.1041212e-20)
(0.57022436 -0.033353465 -8.5571615e-20)
(0.62472027 -0.032061879 -1.0800052e-22)
(-0.0037710489 0.0063146634 2.1925319e-20)
(-0.0028656556 0.010735079 -2.6165903e-20)
(0.0071424486 0.011564044 -4.501388e-20)
(0.024450912 0.009924794 -2.7254146e-20)
(0.047871954 0.0066519845 -2.0440132e-21)
(0.076630311 0.0024901534 1.3050236e-20)
(0.11007892 -0.0020160133 -2.8337843e-21)
(0.14765489 -0.0064886855 1.8118755e-20)
(0.18886449 -0.010664456 8.868656e-21)
(0.23325623 -0.014363551 -1.1380315e-20)
(0.28039656 -0.017470263 8.878072e-21)
(0.32985193 -0.019918309 -2.39036e-20)
(0.38117553 -0.021680397 8.0506301e-21)
(0.43389841 -0.022761777 1.6756658e-20)
(0.48752774 -0.023196413 -2.6395542e-21)
(0.54155632 -0.02304922 1.6619189e-21)
(0.59544535 -0.022471996 -3.1955816e-22)
(0.64852838 -0.021872881 1.9590766e-20)
(0.70083349 -0.021448072 4.0434669e-21)
(0.75746305 -0.018502345 -5.7370784e-22)
(-0.0019109768 0.0040273382 2.369242e-20)
(0.003869652 0.0046764146 5.7160739e-20)
(0.020315855 0.0031877466 -4.9244845e-20)
(0.045179264 0.0002940803 -9.9455398e-21)
(0.076966661 -0.0034246396 2.0256577e-20)
(0.11469835 -0.0073542252 2.1433969e-21)
(0.15754164 -0.011055754 -2.9815506e-20)
(0.20475187 -0.0142451 6.9848742e-21)
(0.25565385 -0.016739057 7.1099002e-21)
(0.30960991 -0.018428258 -2.6254423e-20)
(0.36599251 -0.019261576 1.2927563e-21)
(0.42416647 -0.019233529 -3.7174642e-20)
(0.48347874 -0.018374055 -3.6341567e-20)
(0.54325417 -0.016740328 6.5684554e-20)
(0.60279737 -0.014409563 5.5628479e-21)
(0.66139875 -0.01147838 -1.5189126e-20)
(0.71831831 -0.0081047585 1.9364296e-20)
(0.77270992 -0.0045958195 -9.1889738e-22)
(0.82409957 -0.00097125454 2.0364745e-20)
(0.87623105 0.0043245931 -1.9554697e-20)
(-0.018835318 -0.005099905 5.8353771e-20)
(-0.010223204 -0.0056351503 1.5784108e-20)
(-0.00021933667 -0.0060691246 -3.5140603e-20)
(0.010825543 -0.0063343724 1.6790796e-20)
(0.022645291 -0.006512327 0)
(0.035181268 -0.0066303868 0)
(0.048373658 -0.0066912864 -2.2975736e-20)
(0.062142743 -0.0067028683 -1.6503438e-20)
(0.076418112 -0.0066745177 1.9123328e-20)
(0.09114026 -0.0066130235 1.8174732e-20)
(0.10625422 -0.0065235774 1.052454e-21)
(0.12170817 -0.006410743 -1.0318019e-20)
(0.13745384 -0.006278479 8.3272785e-21)
(0.153446 -0.0061301328 1.8234426e-20)
(0.16964189 -0.0059685677 -5.2277196e-21)
(0.18600088 -0.0057962692 -1.0175339e-20)
(0.20248419 -0.0056154085 -4.3197602e-21)
(0.21905482 -0.0054278947 -4.4258777e-21)
(0.23567735 -0.00523542 7.3668678e-22)
(0.25231791 -0.0050394948 1.2286697e-21)
(0.26894416 -0.0048414743 2.5668206e-21)
(0.28552534 -0.0046425783 6.6543155e-21)
(0.30203227 -0.0044439062 2.4886732e-22)
(0.31843741 -0.0042464476 -3.4516993e-21)
(0.33471493 -0.0040510902 1.5557596e-22)
(0.35084077 -0.0038586258 -5.7714244e-22)
(0.36679269 -0.0036697544 1.2435415e-21)
(0.3825503 -0.0034850888 1.052297e-21)
(0.3980951 -0.0033051576 -1.299017e-21)
(0.41341047 -0.0031304092 -1.2217764e-22)
(0.42848172 -0.0029612158 3.5623249e-23)
(0.44329602 -0.0027978778 -3.5193165e-22)
(0.45784238 -0.0026406284 -4.0579454e-22)
(0.47211167 -0.0024896392 5.5509081e-23)
(0.4860965 -0.0023450258 -1.3812714e-22)
(0.49979122 -0.0022068538 -2.2348522e-22)
(0.51319186 -0.0020751457 2.557981e-22)
(0.52629612 -0.0019498874 2.9512917e-22)
(0.53910327 -0.0018310375 -8.3470201e-24)
(0.55161449 -0.0017185311 -1.5536637e-22)
(0.56383182 -0.0016123075 3.0404952e-23)
(0.57576196 -0.0015122671 -4.0166859e-23)
(0.58740516 -0.0014184822 9.2361952e-23)
(0.59879065 -0.0013306166 2.1943202e-23)
(0.60987268 -0.0012499588 -1.1438906e-22)
(0.62084422 -0.0011732929 -6.7980948e-24)
(0.63122572 -0.0011128762 -5.2765075e-26)
(0.64253388 -0.0010356956 -3.6206642e-24)
(0.65062269 -0.0010527705 2.9436807e-23)
(0.66724407 -0.00087779515 3.6104526e-22)
(0.01044777 -0.015018228 -1.2747245e-20)
(0.018181961 -0.016641694 -6.3304152e-20)
(0.027781903 -0.017916159 -3.0542936e-20)
(0.03838831 -0.018672871 3.8477249e-20)
(0.049624674 -0.019184438 1.4663099e-20)
(0.061510887 -0.019530332 -1.8205613e-20)
(0.074017701 -0.019710813 4.672454e-21)
(0.087068227 -0.019747485 2.5448071e-20)
(0.10059943 -0.019668318 9.1909927e-23)
(0.11456109 -0.01949278 -7.6594525e-21)
(0.1289051 -0.01923548 -1.3021377e-20)
(0.14358486 -0.018909471 -8.5249481e-21)
(0.15855647 -0.01852617 1.7773027e-20)
(0.17377842 -0.018095235 8.9301887e-21)
(0.18921098 -0.01762495 -1.6522963e-20)
(0.20481595 -0.017122537 -6.0393083e-21)
(0.2205566 -0.016594338 3.2145959e-21)
(0.23639757 -0.016045947 8.3719183e-21)
(0.25230481 -0.015482343 6.9835915e-21)
(0.26824555 -0.014907989 -6.9732259e-21)
(0.2841884 -0.014326898 -3.1689305e-21)
(0.30010332 -0.013742697 1.3608151e-21)
(0.31596174 -0.013158661 3.8711314e-22)
(0.33173662 -0.012577746 1.211544e-21)
(0.34740251 -0.012002608 1.8376166e-22)
(0.36293562 -0.011435622 -3.2670965e-22)
(0.37831391 -0.01087889 -7.2447798e-22)
(0.39351709 -0.010334258 9.7184983e-22)
(0.4085267 -0.0098033197 8.2504229e-22)
(0.42332612 -0.0092874321 -1.5169212e-22)
(0.43790053 -0.0087877243 5.532638e-22)
(0.45223696 -0.0083051116 -2.3884702e-22)
(0.46632423 -0.0078403091 -3.7089798e-22)
(0.48015292 -0.0073938482 -6.1024307e-22)
(0.49371536 -0.0069660926 4.4183503e-22)
(0.50700556 -0.0065572571 -1.5710416e-23)
(0.52001915 -0.0061674275 1.6149509e-22)
(0.53275345 -0.0057965798 -4.4213749e-22)
(0.54520728 -0.0054446087 3.724319e-22)
(0.55738137 -0.0051113371 6.722859e-23)
(0.56927729 -0.0047966022 -1.0286357e-22)
(0.58090122 -0.0045001218 1.7653234e-22)
(0.59225299 -0.004222129 2.3402197e-22)
(0.60336108 -0.0039616338 1.698258e-22)
(0.61417991 -0.0037224971 1.6837626e-22)
(0.62489959 -0.0034951425 -2.6231953e-23)
(0.63504694 -0.0033161006 8.4740607e-23)
(0.64611572 -0.0030871066 7.6991702e-23)
(0.65402499 -0.0031382482 -1.956655e-22)
(0.67032726 -0.0026191339 -3.7906746e-23)
(0.06761804 -0.024030204 9.4531273e-21)
(0.073593397 -0.026750206 3.2952622e-21)
(0.082269682 -0.028806824 -1.2162754e-20)
(0.091952497 -0.029969844 -1.2259081e-21)
(0.10198842 -0.030769283 1.497116e-20)
(0.11255213 -0.031332388 -1.4887627e-20)
(0.12368239 -0.031637643 -2.9843405e-20)
(0.13530393 -0.031714651 1.4494138e-20)
(0.1473648 -0.031609351 1.8182735e-20)
(0.15983206 -0.031351839 -1.1599017e-20)
(0.17267007 -0.030963669 1.0190951e-21)
(0.1858412 -0.030464665 8.6861797e-21)
(0.19930919 -0.029872525 -1.5254284e-20)
(0.21303896 -0.029202273 2.9100404e-21)
(0.22699593 -0.028466853 7.519879e-21)
(0.24114608 -0.027677656 3.1290684e-23)
(0.25545608 -0.026844767 2.653711e-22)
(0.26989333 -0.025977164 -7.4156088e-21)
(0.28442602 -0.02508289 3.8622986e-21)
(0.29902321 -0.024169205 8.4755694e-21)
(0.31365498 -0.023242681 -3.8354878e-21)
(0.32829249 -0.022309285 -2.2131675e-21)
(0.34290812 -0.021374434 1.0124075e-21)
(0.35747558 -0.020443035 -1.7157558e-21)
(0.37196997 -0.019519517 1.3533213e-21)
(0.38636792 -0.01860785 7.1851517e-22)
(0.40064764 -0.017711565 1.5273979e-21)
(0.41478896 -0.016833767 -1.9532693e-21)
(0.42877341 -0.015977153 2.2243219e-21)
(0.44258426 -0.015144027 5.5206035e-22)
(0.45620645 -0.014336318 4.0368288e-22)
(0.46962668 -0.013555603 3.2139527e-22)
(0.48283336 -0.012803127 8.7380968e-22)
(0.49581657 -0.012079829 -1.3717625e-21)
(0.50856803 -0.011386372 3.7095787e-22)
(0.5210811 -0.010723171 1.0973288e-22)
(0.53335072 -0.010090427 -4.5285451e-23)
(0.54537341 -0.009488159 8.6608674e-23)
(0.55714719 -0.008916248 -3.7225523e-22)
(0.56867194 -0.0083744565 1.832427e-22)
(0.57994835 -0.0078625688 -3.5018119e-23)
(0.59098165 -0.0073801696 3.910922e-22)
(0.60177086 -0.0069276948 -1.8599121e-22)
(0.61234308 -0.0065035556 4.7423688e-23)
(0.62265304 -0.006114166 4.380269e-23)
(0.63288545 -0.0057438036 -7.3958102e-23)
(0.6425793 -0.0054525445 -1.2176464e-22)
(0.65318432 -0.0050792178 3.9050996e-22)
(0.66074522 -0.0051640551 1.7360717e-22)
(0.67642897 -0.0043181411 -8.3163017e-22)
(0.15022052 -0.031461954 1.5011022e-21)
(0.15355252 -0.035259043 -1.1566846e-20)
(0.16062232 -0.038012695 6.6442966e-21)
(0.16881252 -0.039480981 -1.3325149e-20)
(0.17698942 -0.040522675 -1.9758943e-21)
(0.18553123 -0.041304368 9.1603473e-21)
(0.19459261 -0.041759424 -9.7667645e-21)
(0.20409601 -0.041915994 1.5661711e-21)
(0.21399751 -0.041835707 1.2904273e-20)
(0.2242866 -0.041556802 3.403445e-21)
(0.23494398 -0.0411046 -6.2099361e-21)
(0.24594255 -0.040503089 -2.8640493e-21)
(0.25725488 -0.039774472 -5.8409554e-21)
(0.26885342 -0.038937861 -6.4557053e-21)
(0.28070962 -0.038009862 3.2355706e-21)
(0.29279417 -0.037005269 8.459198e-22)
(0.30507751 -0.035937371 1.3681469e-21)
(0.31753006 -0.034818149 -3.385207e-21)
(0.33012242 -0.033658457 -4.2433623e-21)
(0.34282557 -0.032468187 2.3619169e-21)
(0.3556111 -0.031256374 3.2255939e-21)
(0.36845135 -0.030031282 -1.5639846e-21)
(0.38131962 -0.028800461 1.5869536e-21)
(0.39419027 -0.027570791 -3.914026e-22)
(0.40703891 -0.026348507 -3.9204835e-21)
(0.41984244 -0.025139229 -3.0336715e-21)
(0.43257919 -0.023947974 -1.9042434e-22)
(0.44522899 -0.022779177 4.2848935e-22)
(0.4577732 -0.02163671 -2.2109798e-21)
(0.47019476 -0.020523901 -8.5549032e-22)
(0.48247822 -0.019443557 2.2840716e-22)
(0.49460973 -0.018397996 -1.2504738e-21)
(0.50657703 -0.017389073 6.126029e-24)
(0.51836947 -0.016418221 -4.2454552e-22)
(0.52997792 -0.015486484 -4.7206277e-22)
(0.54139483 -0.01459456 -5.2062576e-22)
(0.55261413 -0.013742847 -8.4237417e-22)
(0.56363129 -0.012931489 -5.442405e-23)
(0.57444321 -0.012160434 -3.9182618e-24)
(0.5850486 -0.011429464 -5.2053198e-22)
(0.59544696 -0.010738387 -9.1517699e-23)
(0.60564226 -0.01008673 -3.3316103e-22)
(0.61563238 -0.009475195 -4.3892172e-22)
(0.62544255 -0.008901684 3.7961993e-22)
(0.63502802 -0.0083751169 1.4870235e-23)
(0.64456581 -0.0078739985 1.8321829e-22)
(0.65361246 -0.0074806916 -1.3347893e-22)
(0.66355442 -0.0069751134 -2.684995e-22)
(0.67061737 -0.0070928476 -4.3801271e-23)
(0.68541403 -0.0059481963 4.6305181e-22)
(0.2546929 -0.036554765 -2.0900952e-20)
(0.25447785 -0.041395652 4.7587155e-20)
(0.25908146 -0.044747944 1.0348338e-20)
(0.26509279 -0.046444455 -1.5765786e-20)
(0.27071856 -0.047716847 -2.0229538e-21)
(0.27652977 -0.048750429 2.6232028e-21)
(0.28284595 -0.04941649 -1.6609859e-21)
(0.28958804 -0.049730987 -4.6863014e-21)
(0.29670843 -0.049764431 -4.0160609e-21)
(0.30421809 -0.049560163 -1.2208095e-20)
(0.31211562 -0.049144905 1.7898643e-20)
(0.32038368 -0.048544125 6.5223939e-21)
(0.32900223 -0.047782392 -1.6781211e-20)
(0.33795025 -0.046881547 1.0317731e-20)
(0.34720435 -0.04586093 8.3850541e-21)
(0.35673914 -0.044738043 -8.7896815e-22)
(0.36652803 -0.043528897 -3.1221495e-21)
(0.37654374 -0.04224818 -3.8202326e-21)
(0.38675861 -0.040909394 -1.3894883e-21)
(0.39714494 -0.039524994 -1.2306383e-21)
(0.40767527 -0.038106472 -3.0262557e-21)
(0.41832261 -0.036664434 0)
(0.4290607 -0.035208639 -1.3454506e-21)
(0.43986418 -0.033748034 3.9313658e-21)
(0.45070869 -0.032290775 5.406149e-21)
(0.46157109 -0.030844246 -9.4119166e-22)
(0.47242949 -0.029415075 -2.9283191e-21)
(0.48326338 -0.02800915 3.0269218e-21)
(0.49405364 -0.026631641 2.5418549e-22)
(0.50478266 -0.025287022 3.4364833e-21)
(0.51543429 -0.023979101 -5.3466803e-22)
(0.52599389 -0.022711054 1.7179515e-21)
(0.53644831 -0.021485467 -8.0010366e-22)
(0.54678593 -0.020304378 2.9130791e-22)
(0.55699656 -0.019169325 -4.34458e-22)
(0.56707151 -0.0180814 5.6264359e-22)
(0.5770035 -0.017041308 4.5756513e-22)
(0.58678674 -0.01604942 3.8300079e-22)
(0.5964168 -0.015105857 -9.6057321e-22)
(0.60589104 -0.01421052 6.8455034e-22)
(0.61520757 -0.013363336 -3.701623e-22)
(0.62436884 -0.01256387 -1.1056742e-21)
(0.63337151 -0.011813165 1.4112925e-21)
(0.6422385 -0.011108727 -6.2143332e-23)
(0.65092588 -0.010461907 -1.587208e-22)
(0.65960106 -0.0098459402 -7.8600423e-24)
(0.66784288 -0.0093637591 -1.2717129e-22)
(0.67695791 -0.0087417594 -4.6831982e-22)
(0.68340066 -0.0088911775 8.782468e-22)
(0.69708536 -0.0074847153 -4.4408004e-23)
(0.37636044 -0.038370649 -1.7495643e-20)
(0.37171932 -0.044272855 1.2832317e-20)
(0.37287693 -0.048164389 2.9756781e-21)
(0.37592103 -0.050101766 -7.6355953e-21)
(0.3783164 -0.051673022 1.2056344e-20)
(0.38073466 -0.05304556 7.7916599e-21)
(0.38368836 -0.054033362 -1.2647997e-20)
(0.38711359 -0.054636558 -6.0681823e-21)
(0.39094296 -0.054921589 1.2697785e-20)
(0.3951969 -0.054930846 -1.5305782e-20)
(0.39988952 -0.054691352 -1.4063713e-20)
(0.40501119 -0.054228613 1.4130507e-20)
(0.41054564 -0.053567742 6.8196713e-21)
(0.41647516 -0.052732152 -4.2043985e-21)
(0.42277914 -0.051743339 -1.854349e-21)
(0.42943412 -0.050621192 -4.0580558e-21)
(0.43641472 -0.049384264 5.3046732e-21)
(0.44369443 -0.048049912 3.6683868e-21)
(0.45124603 -0.046634358 -3.2409079e-21)
(0.45904197 -0.045152753 3.1381101e-21)
(0.46705475 -0.043619229 2.7670114e-21)
(0.47525718 -0.042046936 -3.211485e-21)
(0.48362266 -0.040448057 3.7059059e-22)
(0.49212535 -0.038833827 -3.257372e-21)
(0.50074039 -0.037214539 7.2471467e-21)
(0.50944398 -0.035599557 6.1092374e-21)
(0.51821354 -0.033997321 8.1013867e-22)
(0.52702776 -0.032415368 -1.7686736e-21)
(0.53586668 -0.030860352 3.7036344e-21)
(0.54471176 -0.029338068 7.1912678e-21)
(0.55354586 -0.027853492 2.3055885e-21)
(0.56235328 -0.02641082 3.3180292e-21)
(0.57111975 -0.025013517 1.9964825e-21)
(0.57983245 -0.023664371 7.4605473e-22)
(0.58847997 -0.022365555 -2.6381199e-22)
(0.59705231 -0.021118685 2.7224251e-21)
(0.60554086 -0.019924899 6.2044571e-22)
(0.61393844 -0.018784919 2.9513247e-22)
(0.62223921 -0.017699155 5.627932e-23)
(0.63043905 -0.016667737 9.9117175e-22)
(0.63853461 -0.015690818 4.7064635e-23)
(0.64652677 -0.014768105 4.4342513e-22)
(0.65441086 -0.013901065 -1.2645167e-22)
(0.66220736 -0.013086932 -2.78185e-22)
(0.66987343 -0.012339386 -1.5269171e-22)
(0.67756543 -0.011626982 -4.2376472e-22)
(0.68488845 -0.011071157 1.6248694e-22)
(0.69305564 -0.01035122 -1.278382e-22)
(0.69878939 -0.010530749 -5.008686e-22)
(0.71119046 -0.0089057955 2.4639034e-22)
(0.50928496 -0.035977191 3.6471009e-21)
(0.49954146 -0.042963722 -1.8958644e-20)
(0.49628708 -0.047386673 -2.3084707e-21)
(0.49556796 -0.049740125 5.4870798e-21)
(0.49418211 -0.051821539 3.0529697e-21)
(0.49270888 -0.053709056 -4.9739837e-23)
(0.49182604 -0.055191444 6.1900383e-21)
(0.4915289 -0.056269341 7.6254024e-21)
(0.49172674 -0.056994621 9.8583246e-21)
(0.49242652 -0.057399805 -1.12505e-20)
(0.49364761 -0.057510674 -2.1580442e-20)
(0.49538516 -0.05735293 -3.9356837e-21)
(0.49762293 -0.056951782 1.5938969e-20)
(0.50034221 -0.056331798 1.2809627e-20)
(0.50352183 -0.055516659 -5.9068004e-21)
(0.50713775 -0.05452891 1.3814804e-21)
(0.51116374 -0.053389987 -3.6605516e-21)
(0.51557228 -0.052120283 2.2450369e-21)
(0.52033509 -0.050739135 -2.9124545e-22)
(0.52542351 -0.049264802 -1.8655868e-21)
(0.53080886 -0.047714452 7.8276037e-21)
(0.5364628 -0.046104164 -2.9328374e-22)
(0.54235753 -0.044448914 4.183882e-22)
(0.54846599 -0.042762568 -6.5631889e-22)
(0.5547621 -0.041057882 -4.3035671e-21)
(0.56122085 -0.039346494 4.2091876e-21)
(0.56781839 -0.037638937 1.9032728e-21)
(0.57453219 -0.035944655 -3.3088245e-21)