/*--------------------------------*- C++ -*----------------------------------*\
  =========                 |
  \\      /  F ield         | OpenFOAM: The Open Source CFD Toolbox
   \\    /   O peration     | Website:  https://openfoam.org
    \\  /    A nd           | Version:  6
     \\/     M anipulation  |
\*---------------------------------------------------------------------------*/
FoamFile
{
    version     2.0;
    format      ascii;
    class       volSymmTensorField;
    location    "127";
    object      UPrime2Mean;
}
// * * * * * * * * * * * * * * * * * * * * * * * * * * * * * * * * * * * * * //

dimensions      [0 2 -2 0 0 0 0];

internalField   nonuniform List<symmTensor> 
9200
(
(0.00015563913 -0.00012081585 5.6736162e-22 9.6971871e-05 -3.0363011e-22 9.1558659e-39)
(0.00095744542 -0.00076693966 1.4460912e-21 0.00061667847 -1.0792439e-21 9.9581928e-39)
(0.0019305898 -0.0014992432 1.8231256e-22 0.0011708623 -1.3736772e-22 5.4608902e-39)
(0.0030353983 -0.0022030921 -2.1705064e-21 0.0016165323 1.5277273e-21 1.0881715e-38)
(0.0041181367 -0.002825354 9.8090321e-23 0.0019712395 -8.3036447e-23 1.5961513e-39)
(0.0051030453 -0.003338181 9.0656812e-22 0.0022349054 -6.0373497e-22 2.4861012e-40)
(0.0059385416 -0.0037322286 -1.9327237e-22 0.0024170586 1.347701e-22 7.2322767e-40)
(0.0065838256 -0.0040087628 1.7579163e-22 0.0025334284 -1.1919879e-22 4.8712612e-40)
(0.0070115744 -0.0041741377 8.7945311e-22 0.0025990757 -5.3563812e-22 1.3891629e-39)
(0.0072088334 -0.0042373428 6.8146863e-23 0.0026267757 -4.1792551e-23 3.9563633e-42)
(0.0071769031 -0.0042088481 -9.4266768e-22 0.0026270487 5.8276865e-22 7.4447323e-40)
(0.0069309716 -0.0040998871 7.8711325e-22 0.0026082965 -5.0555032e-22 1.0069116e-40)
(0.0064989083 -0.003922001 -1.4008776e-21 0.0025770069 9.5221877e-22 1.5919982e-39)
(0.0059189137 -0.0036867608 -7.0888967e-22 0.0025380294 4.9180864e-22 1.0045249e-40)
(0.0052361231 -0.0034055878 1.8370885e-22 0.0024948755 -1.3758886e-22 1.2907139e-41)
(0.0044984827 -0.0030895961 -6.8987982e-22 0.0024500052 5.4600066e-22 1.3435874e-40)
(0.0037522481 -0.0027494493 6.0417453e-22 0.0024052209 -5.1905056e-22 1.6335466e-40)
(0.0030376076 -0.0023953862 4.4614798e-22 0.0023629174 -4.0176033e-22 6.7522698e-40)
(0.0023879303 -0.002036775 -1.6431922e-23 0.0023263011 3.4668371e-23 1.2492406e-40)
(0.0018391488 -0.0016804552 -9.683834e-24 0.00227272 3.1081077e-23 1.5484363e-40)
(0.00020523226 -0.00013719152 5.9530142e-23 9.4189126e-05 -2.294969e-23 1.6083021e-40)
(0.0012199511 -0.00084612226 1.5322185e-21 0.00058863498 -9.9677735e-22 1.0624999e-38)
(0.0024183527 -0.0016293613 -5.0158712e-22 0.0011038325 3.361173e-22 5.7728739e-39)
(0.0036965796 -0.00235032 -3.892954e-21 0.0015106624 2.4364324e-21 2.5175362e-38)
(0.0048770595 -0.0029599022 -1.3186862e-22 0.0018275825 8.4237268e-23 3.1771665e-40)
(0.0058728505 -0.0034339248 3.0016848e-21 0.002057698 -1.7756829e-21 8.3258181e-39)
(0.0066316392 -0.0037689931 -1.2291392e-21 0.0022132647 7.2097679e-22 2.8277702e-40)
(0.0071213429 -0.003973055 -3.7140318e-22 0.0023112554 2.160794e-22 1.0227639e-40)
(0.0073306698 -0.0040586764 1.4078743e-21 0.0023670784 -8.2542832e-22 7.7913971e-40)
(0.0072682194 -0.0040402194 -1.7048614e-21 0.0023932668 1.017633e-21 8.9239432e-40)
(0.0069604183 -0.0039325537 -1.20815e-21 0.0023996063 7.4034925e-22 1.1065152e-39)
(0.0064486376 -0.0037503179 2.6052293e-21 0.0023933578 -1.6637326e-21 5.6244308e-39)
(0.0057850838 -0.0035075493 1.2123913e-21 0.0023795435 -8.2569319e-22 3.8959675e-40)
(0.0050275909 -0.0032175587 -1.9069313e-21 0.0023612822 1.3897191e-21 1.934254e-39)
(0.0042339203 -0.0028929221 3.4133326e-22 0.0023401133 -2.6885396e-22 1.6193701e-40)
(0.0034563563 -0.0025454937 -7.5808326e-22 0.0023162815 6.7067616e-22 4.2825338e-40)
(0.0027372865 -0.0021863985 -3.1445127e-22 0.0022890474 3.284145e-22 1.3551788e-40)
(0.0021062468 -0.0018258132 9.5564926e-22 0.002257088 -1.0908192e-21 2.1878872e-39)
(0.0015802622 -0.0014718899 4.5197096e-22 0.002216447 -6.1734567e-22 4.1257521e-40)
(0.0011699425 -0.0011328047 -1.9129737e-22 0.0021467573 2.4246405e-22 3.1611965e-39)
(0.00026116879 -0.00014877043 -4.9679836e-22 8.6655794e-05 2.1162667e-22 4.1412424e-39)
(0.0014993971 -0.00089178415 -8.2624714e-22 0.0005317825 4.5901992e-22 4.317689e-39)
(0.0029184314 -0.0016910136 -9.4497096e-22 0.00098530696 5.5035163e-22 1.0792405e-38)
(0.0043418851 -0.0023968334 3.115441e-23 0.0013381573 -1.7153184e-23 1.1698554e-42)
(0.0055726846 -0.0029669377 4.9173601e-23 0.0016090741 -2.2623603e-23 7.7528674e-39)
(0.0065195109 -0.0033835033 1.0536107e-21 0.0018041689 -5.6333612e-22 2.1673512e-39)
(0.0071388946 -0.0036505173 9.7586529e-23 0.0019373231 -4.9368751e-23 8.975224e-40)
(0.0074182689 -0.0037827443 -1.7749531e-21 0.0020252669 9.5907729e-22 5.6551359e-40)
(0.0073727415 -0.0037981978 2.0992952e-21 0.0020822692 -1.1643119e-21 1.0710705e-39)
(0.0070408053 -0.0037152212 6.905722e-22 0.0021192326 -4.0251287e-22 1.1864371e-39)
(0.0064787685 -0.0035513362 -1.8955661e-21 0.0021439683 1.1561886e-21 2.4413652e-39)
(0.0057541929 -0.0033227886 -5.9273753e-22 0.0021615476 3.8831516e-22 8.001523e-40)
(0.0049385047 -0.0030445419 2.1799569e-22 0.0021747083 -1.5258105e-22 2.1718269e-39)
(0.0040995696 -0.0027304978 5.1110323e-22 0.0021843016 -4.0193207e-22 3.1019422e-40)
(0.0032953145 -0.0023937311 -1.7752307e-22 0.0021897387 1.5665327e-22 2.3849584e-40)
(0.0025693219 -0.0020466048 4.146631e-22 0.0021894282 -4.2249646e-22 1.8637938e-40)
(0.0019489025 -0.0017007115 -2.8613792e-22 0.0021811985 3.437187e-22 7.0921595e-41)
(0.0014455951 -0.0013665729 -5.7609009e-22 0.0021625506 8.1886129e-22 1.7562206e-39)
(0.0010578535 -0.001052921 -1.5621191e-23 0.0021302623 1.6965187e-23 1.5930654e-39)
(0.00077602077 -0.0007677636 1.9853343e-22 0.0020776321 -4.4525775e-22 1.7760773e-40)
(0.00032155142 -0.00015384063 -3.9445638e-22 7.505026e-05 1.454236e-22 2.0569729e-39)
(0.0017813209 -0.00089626549 5.9817701e-22 0.00045203765 -2.9361425e-22 3.8189673e-40)
(0.0034005206 -0.0016735624 5.3142262e-22 0.00082856814 -2.6239705e-22 4.4391728e-40)
(0.0049270985 -0.002333923 1.1622108e-21 0.0011193306 -5.5551453e-22 4.792376e-39)
(0.0061520759 -0.0028440967 1.0185194e-21 0.0013424274 -4.850195e-22 2.1312791e-39)
(0.0069899925 -0.0031943398 -1.7811674e-21 0.001506036 8.5039448e-22 1.6232353e-39)
(0.0074180542 -0.0033958683 -9.9434289e-22 0.0016240293 4.8393437e-22 4.616971e-40)
(0.0074543129 -0.0034686462 0 0.0017112087 0 0)
(0.0071486217 -0.0034337818 1.0826448e-21 0.0017792306 -5.9352548e-22 5.9709455e-39)
(0.0065732849 -0.0033110256 -4.6798201e-22 0.0018361485 2.7938451e-22 2.2621876e-39)
(0.0058129359 -0.0031181877 -2.7393611e-21 0.0018868431 1.6554695e-21 1.9704781e-39)
(0.0049543066 -0.0028712912 -3.5146042e-22 0.0019335036 2.2416777e-22 4.0381588e-40)
(0.0040767978 -0.0025850615 1.3394301e-21 0.0019761618 -1.0154834e-21 2.7063056e-39)
(0.0032451018 -0.0022733982 7.8941539e-23 0.0020132745 -5.1641016e-23 1.1257432e-39)
(0.0025048749 -0.0019495824 -2.056632e-23 0.002042325 2.0609577e-23 7.8307058e-43)
(0.0018817943 -0.0016261359 2.2009169e-22 0.0020604301 -2.614699e-22 1.3781962e-40)
(0.0013836159 -0.0013143961 2.6018418e-24 0.0020648652 3.9451452e-24 1.6297019e-40)
(0.0010042742 -0.0010239657 -3.8762563e-22 0.002053306 6.7456863e-22 4.1490335e-40)
(0.00072865974 -0.00076215241 -2.1350727e-22 0.0020247916 4.6719044e-22 2.9034328e-40)
(0.00053749522 -0.00053411618 1.0405899e-22 0.0019825864 -3.3969025e-22 1.8512229e-39)
(0.0003836045 -0.00015094937 2.9760043e-22 6.0465641e-05 -9.4809619e-23 8.0925854e-40)
(0.002047863 -0.00085467423 1.2389892e-21 0.0003575597 -4.94216e-22 7.2912055e-39)
(0.0038305738 -0.0015727316 9.6679087e-22 0.00065008816 -3.991127e-22 4.5935621e-40)
(0.0054073271 -0.0021625988 1.0795132e-21 0.00087740347 -4.4188414e-22 2.5638891e-39)
(0.0065682032 -0.0026012948 -1.6562241e-21 0.0010558807 6.8665254e-22 4.0384342e-39)
(0.0072462881 -0.0028871112 6.0835416e-23 0.0011943073 -1.967469e-23 3.844288e-40)
(0.0074514602 -0.0030362583 9.4129018e-23 0.0013047902 -4.1291776e-23 3.2183884e-42)
(0.007240986 -0.0030705049 1.3367947e-21 0.0013987457 -6.2801283e-22 1.4404966e-39)
(0.0067028634 -0.003010545 1.7992443e-22 0.0014841341 -8.9921259e-23 1.2919201e-41)
(0.0059405467 -0.0028745696 -4.8134417e-22 0.0015653928 2.7669511e-22 7.8056335e-40)
(0.0050586722 -0.0026786291 1.5593675e-21 0.001643975 -9.8373932e-22 5.4351993e-39)
(0.0041509435 -0.0024374662 -1.1360876e-21 0.0017189403 7.6054913e-22 4.6045178e-40)
(0.0032914451 -0.0021652631 -2.1282888e-21 0.00178763 1.69554e-21 3.2831542e-39)
(0.0025303063 -0.0018759374 -7.0109218e-23 0.0018464149 6.6025399e-23 6.9702306e-42)
(0.00189376 -0.0015828797 7.4943492e-22 0.0018914621 -8.6306434e-22 2.6870133e-39)
(0.001387705 -0.0012982785 0 0.0019194537 0 0)
(0.0010033216 -0.001032307 9.4996404e-23 0.0019280949 -1.4022212e-22 6.9970255e-41)
(0.0007231759 -0.00079249528 -4.5775292e-23 0.0019161979 1.0602082e-22 1.0432262e-40)
(0.00052632722 -0.00058349354 -4.7793754e-23 0.0018849863 1.0787942e-22 2.7223594e-41)
(0.00039201474 -0.00040704458 2.0854464e-23 0.0018426877 -9.9311772e-23 1.878671e-40)
(0.00044395783 -0.0001392394 6.505751e-22 4.4420988e-05 -1.6757938e-22 3.2725876e-39)
(0.0022802437 -0.00076647069 6.3559596e-23 0.00025833049 -2.0877441e-23 6.0468372e-42)
(0.0041762674 -0.0013928374 -1.8194566e-22 0.00046834602 6.1574473e-23 2.6758012e-41)
(0.0057451598 -0.0018954828 1.8309855e-22 0.00063659063 -5.9377455e-23 5.2955317e-40)
(0.0067895693 -0.002261213 -1.1377746e-21 0.00077667911 4.0096605e-22 9.9227202e-40)
(0.0072742147 -0.002494008 -5.4499049e-22 0.00089648663 1.9979689e-22 8.9248887e-41)
(0.0072509842 -0.002610821 3.8114829e-22 0.0010050097 -1.176739e-22 2.8311924e-39)
(0.006819711 -0.0026306966 -1.459444e-23 0.0011094752 1.6371033e-23 2.2154207e-40)
(0.0061032656 -0.0025702568 -9.1040913e-22 0.0012137147 4.5890533e-22 2.3393675e-39)
(0.0052271418 -0.002443839 1.5742681e-21 0.0013183436 -8.3073011e-22 6.7603866e-40)
(0.0043032505 -0.0022648042 -3.9673118e-23 0.0014213565 6.0561471e-23 1.2168416e-39)
(0.0034190838 -0.0020466444 -1.2372452e-21 0.001518848 9.1934902e-22 3.3382967e-39)
(0.0026329099 -0.0018033797 0 0.0016058836 0 0)
(0.001974618 -0.0015491268 2.9567998e-22 0.0016774461 -3.4803882e-22 1.7974849e-39)
(0.0014507335 -0.0012970872 1.4013685e-23 0.00172932 -3.2588882e-23 9.8526008e-41)
(0.0010515358 -0.0010583973 -3.5637197e-22 0.001758776 5.8376765e-22 2.0830943e-39)
(0.00075830497 -0.00084124698 -8.0780411e-23 0.0017648668 1.5038012e-22 4.3048559e-41)
(0.00054930668 -0.00065054707 -2.3887785e-23 0.0017482022 6.978655e-23 7.0071287e-41)
(0.00040368148 -0.00048825499 -3.1716515e-23 0.0017119494 9.4064254e-23 2.7007146e-41)
(0.00030335432 -0.0003537254 5.6051278e-23 0.0016659436 -2.2986607e-22 2.5910535e-40)
(0.00049902659 -0.00011866559 2.5111583e-22 2.870955e-05 -4.8321803e-23 5.1828658e-40)
(0.002461196 -0.00063598355 -1.7970593e-21 0.00016490154 4.5233455e-22 1.1269527e-38)
(0.0044114105 -0.001146625 -1.6203566e-22 0.00030131977 4.5793451e-23 1.0522623e-39)
(0.0059159471 -0.0015551103 -4.8216894e-22 0.00041873886 1.4191715e-22 5.2929286e-39)
(0.0068044425 -0.001855441 -3.5365945e-22 0.00052740219 9.8881336e-23 7.2859024e-41)
(0.0070840605 -0.0020526959 -2.0031643e-21 0.000633265 6.2624234e-22 9.6027163e-40)
(0.0068527885 -0.0021591087 -9.7966947e-22 0.00074176089 3.4891529e-22 7.7920653e-40)
(0.0062497036 -0.0021865346 1.8873937e-21 0.00085599782 -7.2003327e-22 6.1780654e-40)
(0.0054230573 -0.0021448793 3.2180921e-22 0.000975909 -1.6868935e-22 8.0160412e-40)
(0.0045073397 -0.0020437689 -4.1290128e-22 0.0010985392 1.898272e-22 2.7339339e-40)
(0.0036085926 -0.0018942256 1.9405189e-22 0.0012187353 -7.1541103e-23 1.0292121e-39)
(0.0027981011 -0.0017092442 -3.5514448e-23 0.0013301035 4.9646031e-23 2.6087259e-40)
(0.0021134725 -0.001503154 0 0.0014261543 0 0)
(0.0015648953 -0.0012901541 2.0180347e-22 0.0015014196 -2.1479158e-22 6.1851431e-41)
(0.0011437963 -0.0010826676 -4.2646981e-22 0.0015523025 5.7280357e-22 8.511413e-40)
(0.00083138582 -0.00089010236 -1.3810456e-22 0.0015775029 2.1758418e-22 7.2755257e-41)
(0.00060546553 -0.0007183196 2.3621345e-22 0.0015779112 -4.9117378e-22 1.0197788e-39)
(0.00044489281 -0.00056984161 -5.375823e-23 0.0015560062 7.193252e-23 2.2061048e-40)
(0.00033174859 -0.00044471263 -3.6093166e-24 0.0015163051 -6.3403589e-24 2.4765905e-41)
(0.00025175179 -0.00034121595 5.3660038e-23 0.0014681488 -1.6500437e-22 2.12717e-41)
(0.00054541477 -9.0063661e-05 1.8295599e-22 1.5157722e-05 -2.4017103e-23 3.2453671e-40)
(0.0025771693 -0.00047202322 -1.6611365e-21 8.6909458e-05 2.9953526e-22 5.1662737e-39)
(0.004519149 -0.00085355742 -1.2983582e-21 0.00016399399 2.5792348e-22 6.1853605e-39)
(0.0059104845 -0.0011704541 1.8423396e-21 0.00024048815 -3.8662492e-22 1.5111602e-39)
(0.0066209992 -0.0014192277 1.3846552e-21 0.00032348536 -3.1368094e-22 3.1153471e-40)
(0.0067062509 -0.0016000307 -1.0079332e-21 0.00041703955 2.2418672e-22 3.2813919e-39)
(0.0063077489 -0.0017150513 3.3002647e-22 0.000523664 -1.2706668e-22 1.3906857e-39)
(0.0055943168 -0.0017658071 1.9202359e-21 0.00064319271 -6.890641e-22 1.5479693e-39)
(0.0047263055 -0.0017545912 8.3926453e-22 0.00077232181 -3.3391256e-22 1.9346192e-40)
(0.0038338865 -0.001686947 -8.2160949e-22 0.00090501517 4.2561779e-22 5.0455121e-40)
(0.0030072699 -0.0015726952 -1.1109093e-21 0.0010334755 6.7171705e-22 5.9628251e-40)
(0.0022968988 -0.0014251333 -3.0178876e-23 0.001149502 2.2154293e-23 6.2112911e-43)
(0.0017204728 -0.0012589942 3.1723583e-22 0.0012459303 -2.8222333e-22 9.6443519e-41)
(0.0012730969 -0.0010880884 -1.0120394e-23 0.0013177743 3.7100329e-23 1.5033728e-40)
(0.00093734403 -0.00092346477 -1.0208414e-23 0.0013628076 6.0154452e-23 4.0688338e-40)
(0.00069120879 -0.00077252355 6.4345721e-24 0.0013815234 -7.831248e-23 7.3500878e-40)
(0.00051325607 -0.00063906623 1.0911698e-22 0.0013765508 -2.2361594e-22 2.1391464e-40)
(0.00038524158 -0.00052400766 -6.0280244e-23 0.0013517532 1.8777616e-22 5.606003e-40)
(0.00029286865 -0.00042650875 -1.5641684e-22 0.0013121768 4.5338116e-22 1.0813394e-39)
(0.00022533258 -0.00034476817 5.3026455e-23 0.0012655129 -1.3214812e-22 2.3638613e-41)
(0.00058047204 -5.5082219e-05 -4.7310977e-22 5.3656022e-06 3.9410818e-23 9.6916833e-40)
(0.0026202021 -0.00028676477 -3.6357513e-22 3.1756832e-05 3.9153584e-23 1.0436669e-39)
(0.0044936776 -0.00053714045 2.8409504e-21 6.6502883e-05 -3.6152572e-22 1.2774266e-38)
(0.0057354479 -0.00077278677 2.1034392e-21 0.00011162037 -3.0593571e-22 1.3889989e-39)
(0.0062649963 -0.0009865406 9.3665388e-22 0.00017244463 -1.4786363e-22 6.8352107e-40)
(0.0061854448 -0.0011675543 1.8875633e-22 0.00025237649 -3.8925905e-23 6.5078973e-42)
(0.0056727416 -0.0013041474 -1.763545e-21 0.00035255011 3.941379e-22 2.8551215e-39)
(0.0049119302 -0.0013864094 0 0.00047077136 0 0)
(0.0040617141 -0.0014098618 -1.0728869e-21 0.0006012695 4.7029541e-22 2.3663855e-39)
(0.0032375847 -0.0013775106 -1.8321875e-22 0.0007354659 1.2291341e-22 5.3750206e-40)
(0.0025089906 -0.0012991788 5.2239457e-22 0.0008635196 -3.0645307e-22 1.2777418e-40)
(0.0019060593 -0.0011888422 5.4979592e-23 0.00097620234 -7.2995944e-23 2.9582773e-40)
(0.0014309468 -0.0010613104 -2.4652951e-22 0.0010665235 2.4626823e-22 3.4261916e-40)
(0.0010695762 -0.00092945722 -1.8411614e-22 0.0011306582 2.4804557e-22 7.348727e-40)
(0.00080110609 -0.00080266752 1.2014954e-22 0.0011680422 -1.2289831e-22 8.9806016e-41)
(0.0006041626 -0.00068654233 1.6545942e-22 0.0011807872 -2.1583538e-22 8.159088e-41)
(0.00046009929 -0.00058348092 -1.4620632e-22 0.0011727081 2.4683633e-22 7.5114537e-41)
(0.00035414557 -0.00049367159 -1.9362337e-22 0.001148305 4.2989822e-22 9.0335656e-40)
(0.00027531352 -0.00041619606 1.5871143e-23 0.0011123952 -2.9818746e-24 1.070527e-40)
(0.00021557954 -0.00034963599 2.5609793e-23 0.0010705836 -9.1124685e-23 1.2594231e-40)
(0.00060219866 -1.5917634e-05 -3.1240384e-22 4.8303636e-07 7.9657801e-24 4.7425254e-40)
(0.0025879443 -9.4214125e-05 1.3282185e-21 3.741722e-06 -4.7741799e-23 2.6280755e-39)
(0.004340017 -0.00022216964 2.0310677e-21 1.3244457e-05 -1.2556322e-22 1.9082027e-38)
(0.0054118123 -0.00039223304 -2.3623278e-21 3.4824671e-05 2.0573587e-22 5.2454654e-39)
(0.0057751965 -0.00058681603 8.4857068e-22 7.4685254e-05 -9.4248483e-23 1.3050503e-40)
(0.0055729336 -0.00077948108 3.4305024e-22 0.00013778474 2.8100723e-24 4.8521889e-39)
(0.0050018747 -0.0009432602 9.099725e-23 0.00022578695 -1.8694336e-23 1.7126972e-42)
(0.0042489339 -0.0010578733 -1.2898973e-21 0.0003356694 3.0103464e-22 1.6269055e-39)
(0.0034600003 -0.001114134 -2.919582e-23 0.00045984731 1.0237577e-23 2.5550575e-43)
(0.0027301871 -0.0011142672 4.776682e-22 0.00058773343 -2.5313271e-22 6.2126142e-40)
(0.0021080772 -0.001068875 3.7044225e-23 0.00070812244 -3.9168224e-23 8.9209978e-41)
(0.0016073736 -0.00099247546 -1.7289053e-22 0.0008115398 4.5366169e-23 1.1540977e-39)
(0.0012202371 -0.00089943019 -3.8018066e-22 0.0008918162 3.1382494e-22 1.2463292e-40)
(0.00092857516 -0.00080130825 -1.475332e-24 0.00094656739 3.0567677e-23 1.5037416e-40)
(0.00071178678 -0.00070590564 1.2736051e-22 0.00097670927 -1.7100689e-22 1.4571693e-40)
(0.00055105625 -0.00061751374 8.4306637e-23 0.00098541594 -1.3747167e-22 1.4171937e-40)
(0.00043109292 -0.00053781597 1.837297e-23 0.00097696012 -6.5388273e-23 2.3068016e-40)
(0.00034036229 -0.00046691553 -1.3574326e-22 0.0009557759 1.9264916e-22 1.8305764e-40)
(0.00027059303 -0.00040421848 -2.9357985e-23 0.0009259497 -1.9531969e-23 7.9161637e-40)
(0.00021586642 -0.00034874358 7.1716785e-23 0.00089105333 -2.3455224e-22 1.303509e-39)
(4.0572982e-06 -5.0637551e-07 4.0567783e-23 6.189496e-07 -8.1215464e-24 4.6352666e-40)
(1.9129756e-05 -8.0070802e-06 -5.7876596e-23 4.1131475e-06 1.6036888e-23 4.4628061e-40)
(4.284947e-05 -1.8505661e-05 1.2857206e-22 8.1984972e-06 -4.8137424e-23 2.5626862e-39)
(0.00013737143 -3.9043153e-05 3.5874679e-22 1.175184e-05 -7.6440372e-23 8.619454e-39)
(0.00030141091 -6.4379087e-05 -2.561542e-22 1.4937172e-05 4.3563955e-23 2.241325e-39)
(0.00053850793 -9.2702818e-05 3.2273362e-22 1.7756039e-05 -4.3718707e-23 2.4766032e-39)
(0.00085626362 -0.00012302789 -4.4262239e-22 2.0212424e-05 5.6033557e-23 2.7190661e-39)
(0.0012565617 -0.00015437099 -4.5631567e-22 2.2358615e-05 4.7539724e-23 2.8755796e-39)
(0.0017373042 -0.00018593437 5.731476e-22 2.4251093e-05 -5.9188207e-23 3.0390251e-39)
(0.0022950681 -0.00021712954 -4.4429051e-22 2.5934154e-05 4.3203238e-23 1.5476238e-39)
(0.0029256179 -0.00024751338 -2.2336316e-23 2.7441643e-05 3.7093928e-25 1.801325e-41)
(0.0036239757 -0.00027674299 1.2726877e-22 2.8799604e-05 -1.3502183e-23 5.6811788e-41)
(0.0043846493 -0.00030454872 -2.2013901e-23 3.0028084e-05 1.0464388e-24 9.0399971e-42)
(0.0052018448 -0.00033071748 6.8971646e-22 3.114322e-05 -6.1590622e-23 2.7086521e-39)
(0.006069595 -0.00035508735 1.0756289e-24 3.2159847e-05 1.3094313e-24 5.8598045e-42)
(0.0069818889 -0.00037755715 -1.0071684e-21 3.3094156e-05 9.4101194e-23 5.5682002e-39)
(0.0079328441 -0.00039809516 1.8574443e-22 3.3963405e-05 -1.9601972e-23 1.1735517e-40)
(0.0089167339 -0.0004167009 4.488131e-22 3.4780535e-05 -4.4654556e-23 1.4159085e-39)
(0.009927858 -0.00043346141 -7.2346649e-22 3.555836e-05 7.7521895e-23 4.0123871e-39)
(0.010959812 -0.00044898604 -3.9662186e-22 3.6292519e-05 4.563312e-23 1.5066413e-39)
(4.5954121e-06 -2.1194587e-06 1.3351663e-23 5.4474823e-06 -4.9245624e-24 4.5803662e-41)
(2.438733e-05 -2.7437474e-05 -3.6650623e-22 3.6245618e-05 2.7633977e-22 1.4924837e-38)
(5.4725537e-05 -6.2289039e-05 7.2743989e-23 7.2220242e-05 -6.0186596e-23 1.347069e-39)
(0.00016159273 -0.00012636603 3.8573885e-22 0.00010352166 -2.3671017e-22 7.2024953e-39)
(0.00033987588 -0.00020426023 5.3566566e-22 0.00013152098 -2.5705949e-22 8.1445887e-39)
(0.00059192044 -0.00029064851 6.473016e-23 0.00015619397 -2.5904641e-23 7.6504239e-41)
(0.00092437004 -0.00038258569 -1.7197065e-21 0.00017758279 5.9414397e-22 4.0730788e-38)
(0.0013379688 -0.00047716598 -6.0390109e-23 0.00019615171 2.4952946e-23 1.1710193e-41)
(0.0018295983 -0.00057204894 9.7035293e-22 0.00021239756 -2.9419162e-22 6.9475186e-39)
(0.0023949063 -0.0006655088 -2.3394484e-22 0.00022671069 6.4275784e-23 3.863494e-40)
(0.003028742 -0.00075624325 -8.8629841e-22 0.00023938941 2.4164811e-22 4.283969e-39)
(0.003725209 -0.00084324139 1.8621253e-22 0.00025066191 -4.7344173e-23 1.950782e-40)
(0.0044778844 -0.00092570428 7.8520609e-22 0.00026070133 -1.7435912e-22 4.5974783e-39)
(0.0052800117 -0.001002994 3.2341953e-22 0.00026964362 -8.0044644e-23 5.2469246e-40)
(0.0061245976 -0.0010746143 6.4465457e-22 0.00027760982 -1.7131091e-22 1.5159668e-39)
(0.0070045409 -0.0011402366 -5.0819671e-22 0.00028472864 1.27693e-22 1.2834065e-39)
(0.0079129529 -0.0011997343 -4.8397296e-22 0.00029113911 1.2055565e-22 1.4040573e-39)
(0.0088430471 -0.0012530634 4.8628026e-22 0.00029695396 -1.3872896e-22 8.0995011e-40)
(0.0097861871 -0.0013004648 4.4102342e-22 0.00030230088 -1.2306452e-22 1.4185645e-39)
(0.010732036 -0.0013442364 1.689436e-22 0.00030718756 -4.5429989e-23 6.0322511e-40)
(5.9075373e-06 -5.4283614e-06 1.027352e-23 1.453158e-05 -5.1288652e-24 2.4101247e-41)
(3.6860578e-05 -5.6699967e-05 2.7832285e-22 9.6753232e-05 -2.9791655e-22 6.3605959e-39)
(8.235385e-05 -0.0001252556 -6.0881737e-23 0.00019261167 7.8448775e-23 3.3307547e-40)
(0.00021501657 -0.00023975359 -4.1893411e-22 0.00027596278 3.5257108e-22 7.8861261e-39)
(0.00042268342 -0.00037545342 1.5388048e-22 0.00035025347 -1.2909952e-22 2.2284419e-40)
(0.00070529734 -0.00052375123 2.0334036e-22 0.00041526395 -1.6517462e-22 1.1636022e-40)
(0.0010675799 -0.00067978671 -2.5386929e-22 0.00047109906 1.3432347e-22 7.0236569e-40)
(0.0015081271 -0.00083886323 -6.612951e-22 0.00051899706 3.8517389e-22 1.3992745e-39)
(0.0020218802 -0.00099723235 2.8935634e-22 0.00056027977 -1.4026575e-22 3.9193473e-40)
(0.0026026962 -0.0011521228 6.1412228e-22 0.00059599364 -2.5444353e-22 2.2271992e-39)
(0.0032436669 -0.0013014288 1.6922113e-22 0.00062694295 -1.1769918e-22 8.3220225e-41)
(0.0039371394 -0.0014435011 7.4908445e-22 0.0006537411 -2.4736201e-22 4.134339e-39)
(0.0046749166 -0.0015770182 6.3278167e-23 0.00067684661 -2.3355722e-23 1.7129096e-41)
(0.0054484185 -0.0017008992 -1.106513e-21 0.00069660667 3.718545e-22 6.6445129e-39)
(0.0062487361 -0.0018142686 8.0273381e-23 0.00071331632 -5.3567546e-23 3.6799437e-41)
(0.0070667651 -0.0019164992 -5.1482229e-22 0.00072728097 1.4210511e-22 2.5902779e-39)
(0.0078938137 -0.0020072924 -7.2088607e-22 0.00073883164 2.8602323e-22 1.0611594e-39)
(0.0087213171 -0.0020864872 1.165865e-21 0.00074829632 -4.5572936e-22 3.5244825e-39)
(0.0095358165 -0.0021544278 6.1233053e-22 0.0007562084 -2.5519756e-22 7.1593291e-40)
(0.010321086 -0.0022159783 1.225768e-22 0.00076293787 -5.6357289e-23 1.5336584e-41)
(8.7035086e-06 -1.1230398e-05 -1.5392918e-23 2.6764609e-05 1.9393482e-23 3.5237051e-41)
(6.0417784e-05 -0.00010066395 -6.4461385e-22 0.00017847954 8.1529935e-22 2.1101397e-38)
(0.00013358788 -0.00021690972 -4.6895819e-23 0.00035495234 6.0263682e-23 2.8845514e-40)
(0.00030881981 -0.00039182307 1.0779683e-22 0.0005081193 -1.1933881e-22 1.8369244e-40)
(0.00056413068 -0.00059260909 -1.7533751e-23 0.00064394069 4.5918034e-24 4.7489672e-41)
(0.00089591518 -0.00080758295 5.4872835e-22 0.00076164383 -4.0191804e-22 3.464972e-39)
(0.0013059526 -0.001029973 6.0606268e-22 0.0008613676 -3.9532033e-22 3.1474305e-39)
(0.0017896744 -0.0012534752 -1.837886e-22 0.00094539875 8.864377e-23 4.9619755e-40)
(0.002339144 -0.0014731194 -6.7193154e-22 0.001016191 3.5011961e-22 3.153715e-39)
(0.0029455341 -0.0016852096 -1.3507605e-21 0.0010757152 7.2703473e-22 6.6818591e-39)
(0.0035993067 -0.0018869075 -3.0256515e-23 0.0011255076 -1.5739021e-23 1.5274927e-40)
(0.0042902125 -0.0020759635 1.7133536e-21 0.0011667498 -7.9594674e-22 1.0921453e-38)
(0.0050074616 -0.0022505395 -6.9408713e-22 0.0012003234 2.633757e-22 3.2309127e-39)
(0.0057398896 -0.002409104 -4.4653464e-22 0.0012268896 1.9509565e-22 6.3695962e-40)
(0.0064759823 -0.0025503733 -5.2732623e-23 0.0012469868 6.0495754e-23 1.3766614e-40)
(0.0072040351 -0.0026733635 1.0512855e-21 0.0012611381 -4.6089596e-22 2.6107238e-39)
(0.0079131087 -0.0027775469 -5.9295025e-22 0.0012698952 2.985151e-22 1.7342487e-40)
(0.0085927769 -0.0028626966 -1.3567804e-21 0.001273945 5.7248903e-22 5.6221968e-39)
(0.0092243626 -0.0029293285 9.0495664e-22 0.0012749205 -3.9599822e-22 2.8264803e-39)
(0.0097854114 -0.0029852796 7.8067757e-22 0.0012747415 -3.1429864e-22 2.6308407e-39)
(1.3919594e-05 -2.0003526e-05 6.9079447e-23 4.0803588e-05 -6.7139819e-23 4.5452279e-40)
(0.00010021107 -0.00016216088 2.2508932e-23 0.00027236285 -5.9180625e-24 2.0495273e-40)
(0.00021878636 -0.00034268297 -8.8672833e-22 0.00054066558 1.2702883e-21 1.7301526e-38)
(0.00045739976 -0.00058942264 -5.0935128e-22 0.00077272072 5.4108699e-22 5.3547667e-39)
(0.00078185851 -0.00086290915 3.4033917e-22 0.00097702205 -2.7093307e-22 3.2373228e-39)
(0.0011837537 -0.0011483936 4.2176766e-22 0.0011518203 -3.3978805e-22 1.5242726e-39)
(0.0016606957 -0.0014371326 -5.4899675e-22 0.0012972761 3.5818512e-22 3.5678427e-39)
(0.0022038062 -0.0017214358 -8.3653202e-22 0.001416939 4.7926843e-22 7.8293453e-39)
(0.0028012159 -0.0019953543 1.2343442e-21 0.001514647 -7.3631764e-22 8.0300855e-39)
(0.0034404158 -0.0022544534 3.5476328e-22 0.0015935469 -1.4290842e-22 1.8702396e-39)
(0.0041082988 -0.0024953059 -1.1072282e-21 0.001656152 7.3413142e-22 6.1390934e-40)
(0.0047911755 -0.0027151867 4.8683287e-22 0.0017044403 -2.2046655e-22 1.4394927e-39)
(0.0054749962 -0.0029118755 0 0.0017399277 0 0)
(0.0061455395 -0.0030835225 4.7153191e-22 0.0017637659 -2.2959759e-22 5.6285311e-40)
(0.0067884912 -0.0032285791 -3.5297978e-22 0.0017768749 1.6769576e-22 3.0053058e-40)
(0.0073896905 -0.0033458494 -5.3912918e-22 0.0017800864 2.6975446e-22 3.6432263e-40)
(0.0079365316 -0.0034347258 1.9740761e-22 0.0017741853 -1.6405668e-22 5.1383539e-40)
(0.0084180472 -0.0034952051 -1.6079251e-22 0.0017602399 9.7140278e-23 1.8465521e-41)
(0.0088122166 -0.0035283853 7.6683655e-22 0.0017417897 -3.3254654e-22 3.0465691e-39)
(0.0090904901 -0.0035447384 -6.2471455e-22 0.0017246534 3.0820492e-22 1.7620918e-40)
(2.2637935e-05 -3.1895392e-05 6.6270883e-23 5.5312521e-05 -5.5720237e-23 3.6492053e-40)
(0.00016204244 -0.00024168798 3.1864595e-22 0.0003688711 -4.2444596e-22 1.3597191e-39)
(0.00034935336 -0.00050308426 -4.2755943e-22 0.00072986416 5.6764744e-22 3.2480763e-39)
(0.00067586163 -0.00083214121 -7.0022624e-22 0.0010402795 7.8859753e-22 2.715746e-39)
(0.0010929287 -0.0011839762 -2.030051e-22 0.0013108921 3.0045292e-22 2.1450029e-39)
(0.0015857454 -0.0015406046 -6.3201318e-22 0.0015387193 5.5568368e-22 1.335064e-39)
(0.0021462089 -0.0018912519 -2.9533813e-22 0.0017240807 1.8172657e-22 1.5448423e-39)
(0.0027598276 -0.0022271499 5.1030588e-22 0.0018720073 -3.0665134e-22 2.8493049e-39)
(0.0034096583 -0.0025417384 1.2167727e-21 0.0019879629 -7.2462053e-22 9.7540085e-39)
(0.0040785041 -0.0028301968 3.7355045e-22 0.0020765473 -2.299728e-22 4.088223e-40)
(0.0047489445 -0.00308888 -3.5479702e-22 0.0021415415 1.881456e-22 6.4884828e-40)
(0.0054034065 -0.0033149776 -6.7465669e-23 0.0021860139 -1.4444351e-23 5.6537104e-40)
(0.0060245206 -0.0035063073 -1.6803931e-21 0.0022124003 9.202018e-22 5.3748027e-39)
(0.006595472 -0.0036611791 -5.206473e-22 0.0022226148 2.7248591e-22 5.5599003e-40)
(0.0071002448 -0.0037783183 8.6860073e-22 0.0022181969 -5.0441054e-22 2.6177295e-40)
(0.0075240164 -0.0038568878 -8.6440451e-22 0.0022004559 4.6880608e-22 5.482235e-40)
(0.0078549667 -0.0038967213 -3.0434717e-22 0.0021704282 1.5015477e-22 1.7579637e-40)
(0.0080850415 -0.0038985673 6.8011894e-22 0.0021293199 -2.8631191e-22 2.7358953e-39)
(0.0081938927 -0.0038648071 1.0257461e-21 0.0020827809 -5.1527853e-22 2.0709135e-39)
(0.0081481873 -0.0038076243 1.252212e-22 0.0020433669 -5.8694011e-23 4.03601e-41)
(3.600629e-05 -4.6733775e-05 -1.8693617e-22 6.9074676e-05 1.517986e-22 2.1592374e-39)
(0.00025166457 -0.00033735995 -2.07231e-22 0.00045897312 2.1025137e-22 1.7210216e-39)
(0.00053599613 -0.00069339056 5.1982039e-22 0.00090361376 -6.5801235e-22 7.8055713e-40)
(0.00097711218 -0.0011116746 7.9486018e-22 0.0012827108 -8.2400048e-22 3.6065558e-39)
(0.0015096314 -0.0015430331 1.0384784e-23 0.0016089643 -9.3561287e-24 7.1641519e-43)
(0.0021102925 -0.0019660512 -2.1556071e-21 0.0018782711 1.7797877e-21 2.1071068e-38)
(0.0027634823 -0.0023680313 -8.4036799e-22 0.0020914998 7.2085003e-22 2.9840671e-40)
(0.0034477898 -0.0027396453 6.5549394e-22 0.0022554581 -4.4222364e-22 2.312785e-39)
(0.0041403113 -0.003074361 7.4945599e-22 0.0023774949 -5.0373563e-22 1.4136999e-39)
(0.0048186979 -0.0033676521 -7.3535695e-22 0.0024639428 4.0924851e-22 3.8830649e-39)
(0.0054612218 -0.0036163716 -2.1499449e-21 0.0025201479 1.3589342e-21 5.6499706e-39)
(0.0060470857 -0.0038183995 1.4116041e-21 0.0025505644 -8.5691368e-22 2.3224723e-39)
(0.0065570286 -0.0039724335 8.4006669e-22 0.0025588385 -4.3819416e-22 2.7866371e-39)
(0.0069739435 -0.0040778554 -1.1608014e-21 0.0025479229 6.4163307e-22 2.2973708e-39)
(0.0072833705 -0.0041346419 5.0860679e-22 0.0025202183 -2.9455734e-22 1.5355203e-40)
(0.0074740213 -0.0041433201 8.4282834e-22 0.0024776847 -4.3486785e-22 1.7115132e-39)
(0.0075396939 -0.0041050548 3.202041e-22 0.0024216213 -1.812948e-22 5.8031422e-41)
(0.0074806725 -0.0040219686 -5.4758804e-22 0.0023529003 3.407388e-22 7.2896962e-41)
(0.0072858008 -0.0038982041 -1.2575839e-22 0.0022783676 4.0166068e-23 4.2431713e-40)
(0.0069211913 -0.0037461063 7.1631177e-22 0.0022190381 -4.1641316e-22 1.7050926e-40)
(5.5150054e-05 -6.4032387e-05 -5.6402786e-24 8.1012047e-05 -5.7934458e-24 4.0019391e-41)
(0.00037401455 -0.00044498182 -7.5131833e-22 0.00053467168 7.9496814e-22 5.6539936e-39)
(0.00078684609 -0.00090384788 -6.0033135e-22 0.0010454891 6.4425176e-22 8.5579159e-39)
(0.0013688681 -0.0014122215 1.122544e-21 0.0014760911 -1.0767717e-21 4.9986204e-39)
(0.0020355381 -0.001917707 9.3299636e-22 0.0018407506 -9.1708129e-22 2.1210021e-39)