/*--------------------------------*- C++ -*----------------------------------*\
  =========                 |
  \\      /  F ield         | OpenFOAM: The Open Source CFD Toolbox
   \\    /   O peration     | Website:  https://openfoam.org
    \\  /    A nd           | Version:  6
     \\/     M anipulation  |
\*---------------------------------------------------------------------------*/
FoamFile
{
    version     2.0;
    format      ascii;
    class       surfaceScalarField;
    location    "169";
    object      phi_0;
}
// * * * * * * * * * * * * * * * * * * * * * * * * * * * * * * * * * * * * * //

dimensions      [0 3 -1 0 0 0 0];

internalField   nonuniform List<scalar> 
18180
(
0.00031872937
-0.00016316035
-0.00015556903
0.0013092114
-0.0013669172
0.0003764351
0.0030328885
-0.0033336225
0.0016099454
0.005549775
-0.0059759634
0.0034590768
0.0089181993
-0.0092390859
0.0058706616
0.013192816
-0.013079538
0.0088049217
0.018421946
-0.017459852
0.012230722
0.02464461
-0.022345814
0.01612315
0.031887376
-0.027703334
0.020460567
0.040161288
-0.033495828
0.025221916
0.049459176
-0.039682464
0.030384576
0.059753731
-0.046217238
0.035922682
0.070996743
-0.053048882
0.04180587
0.083119949
-0.06012162
0.047998414
0.096038124
-0.067376877
0.054458702
0.10965491
-0.074756041
0.061139253
0.12387085
-0.082204136
0.067988202
0.13859857
-0.089674122
0.074946394
0.15383667
-0.09714887
0.081910773
-0.10462601
0.08867893
0.16978375
0.00039749718
-0.00056065753
0.0016095951
-0.0025790151
0.0036893189
-0.0054133463
0.0066874451
-0.0089740895
0.010650654
-0.013202295
0.015617873
-0.018046756
0.021616263
-0.023458242
0.028657262
-0.029386813
0.036732951
-0.035779022
0.045813152
-0.042576029
0.055843697
-0.049713009
0.066746214
-0.057119754
0.078419672
-0.06472234
0.090743789
-0.072445737
0.10358407
-0.080217163
0.11679792
-0.087969888
0.13024079
-0.095647004
0.14377299
-0.10320632
0.15725859
-0.11063447
-0.11786194
0.17049451
0.00048062354
-0.0010412811
0.0019186987
-0.0040170902
0.0043524797
-0.0078471273
0.0078165649
-0.012438175
0.012337667
-0.017723397
0.01792921
-0.0236383
0.024586253
-0.030115285
0.032281215
-0.037081775
0.040960846
-0.044458653
0.050544928
-0.052160111
0.060927075
-0.060095157
0.071977813
-0.068170493
0.083549806
-0.076294332
0.095484819
-0.084380751
0.1076217
-0.09235404
0.11980427
-0.10015246
0.13188801
-0.10773075
0.14374349
-0.1150618
0.15524871
-0.12213969
-0.12891433
0.1663011
0.0005661698
-0.0016074509
0.0022279429
-0.0056788632
0.0050006121
-0.010619797
0.0088940122
-0.016331575
0.01390526
-0.022734645
0.020011885
-0.029744924
0.027166492
-0.037269892
0.035293422
-0.045208705
0.044287863
-0.053453095
0.054017783
-0.061890031
0.064328727
-0.0704061
0.075051139
-0.078892904
0.086009532
-0.087252726
0.097032506
-0.095403724
0.10796247
-0.10328401
0.11866397
-0.11085395
0.12902966
-0.11809644
0.13898297
-0.12501512
0.14847492
-0.13163163
-0.13794523
0.15750582
0.00065088638
-0.0022583372
0.0025243421
-0.007552319
0.0056036355
-0.01369909
0.0098644667
-0.020592406
0.015264614
-0.028134792
0.021736414
-0.036216724
0.029182486
-0.044715964
0.0374749
-0.053501119
0.046458008
-0.062436204
0.055954844
-0.071386867
0.065776439
-0.080227695
0.075733019
-0.088849485
0.085645724
-0.09716543
0.095357401
-0.1051154
0.10474121
-0.11266782
0.11370619
-0.11981893
0.12219937
-0.12658961
0.13020456
-0.13302031
0.137738
-0.13916506
-0.1450676
0.14486037
0.00073063597
-0.0029889732
0.0027920868
-0.0096137698
0.0061265754
-0.017033579
0.010666714
-0.025132544
0.016322653
-0.033790731
0.022975247
-0.042869318
0.030474433
-0.052215151
0.038642403
-0.061669088
0.047281193
-0.071074993
0.056183738
-0.080289412
0.06514689
-0.089190847
0.073984602
-0.097687197
0.082539485
-0.10572031
0.090691302
-0.11326722
0.098361453
-0.12033797
0.1055133
-0.12697078
0.11214879
-0.1332251
0.11830239
-0.13917392
0.12403361
-0.14489628
-0.15046332
0.12942933
0.00080073134
-0.0037897045
0.0030139166
-0.011826955
0.0065328954
-0.020552557
0.011240053
-0.029839702
0.016992699
-0.039543377
0.023618548
-0.049495166
0.030918218
-0.059514821
0.038673321
-0.069424192
0.046658776
-0.079060448
0.0546574
-0.088288036
0.062474461
-0.097007908
0.069949957
-0.10516269
0.076966964
-0.11273732
0.083455099
-0.11975535
0.089389108
-0.12627198
0.09478331
-0.13236498
0.099683298
-0.13812509
0.10415649
-0.14364711
0.10828309
-0.14902289
-0.15433359
0.11215336
0.00085605885
-0.0046457634
0.0031720611
-0.014142957
0.0067872267
-0.024167723
0.011529804
-0.034582279
0.017203436
-0.045217009
0.02358655
-0.055878281
0.030439877
-0.066368148
0.037519331
-0.076503645
0.044591801
-0.086132919
0.051451005
-0.095147241
0.057930633
-0.10348754
0.063912776
-0.11114484
0.069330643
-0.11815519
0.07416569
-0.1245904
0.078440249
-0.13054654
0.082207328
-0.13613206
0.085539491
-0.14145725
0.088518548
-0.14662617
0.091227343
-0.15173168
-0.15685207
0.093745825
0.00089026249
-0.0055360259
0.0032482836
-0.016500978
0.0068576229
-0.027777062
0.011492465
-0.039217122
0.016906811
-0.050631354
0.022838897
-0.061810367
0.029023671
-0.072552923
0.035209252
-0.082689226
0.041173929
-0.092097596
0.046740397
-0.10071371
0.051784655
-0.10853179
0.056238405
-0.11559859
0.060085135
-0.12200192
0.063351241
-0.12785651
0.066094205
-0.1332895
0.068390045
-0.1384279
0.07032191
-0.14338912
0.071971221
-0.14827548
0.073411908
-0.15317237
-0.15814772
0.074707558
0.00089981832
-0.0064358442
0.0032333808
-0.018834541
0.0067291646
-0.031272846
0.011111177
-0.043599134
0.016092486
-0.055612663
0.021384624
-0.067102505
0.026713885
-0.077882184
0.031839116
-0.087814457
0.036567085
-0.096825565
0.04076227
-0.10490889
0.044349471
-0.11211899
0.047309344
-0.11855846
0.049668399
-0.12436097
0.051485805
-0.12967391
0.052839513
-0.13464321
0.053813805
-0.13940219
0.054489694
-0.14406501
0.0549388
-0.14872458
0.055220525
-0.1534541
0.055380957
-0.15830815
-0.00020237835
0.00020237817
2.3457233e-10
-0.00067774665
0.00047536814
2.7833911e-10
-0.0013424261
0.00066467925
2.9829996e-10
-0.0021322945
0.00078986829
3.2530797e-10
-0.0029957736
0.00086347884
3.3882546e-10
-0.0038907409
0.00089496708
3.3777606e-10
-0.0047822964
0.00089155534
3.2202515e-10
-0.0056408936
0.00085859698
2.9961428e-10
-0.0064408686
0.0007999748
2.6888597e-10
-0.0071592895
0.00071842068
2.3788731e-10
-0.0077750378
0.00061574812
2.0398328e-10
-0.0082680732
0.00049303534
1.7359014e-10
-0.0086188542
0.00035078088
1.4378084e-10
-0.0088079043
0.00018904995
1.1880535e-10
-0.0088155569
7.6525135e-06
9.6010471e-11
-0.0086219793
-0.00019357763
7.7795691e-11
-0.0082074365
-0.00041454293
6.1891222e-11
-0.0075518854
-0.00065555111
4.9442887e-11
-0.0066345699
-0.00091731559
3.8425395e-11
-0.0011862328
-0.0054483371
3.0569592e-11
-0.00018797459
0.00039035278
-0.00062500728
0.00091240095
-0.0012287537
0.0012684258
-0.0019351951
0.0014963099
-0.00269214
0.001620424
-0.003456285
0.0016591123
-0.0041910683
0.0016263387
-0.0048648601
0.0015323889
-0.0054495252
0.0013846401
-0.005919288
0.0011881835
-0.0062498165
0.00094627671
-0.006417481
0.00066069993
-0.0063987491
0.0003320491
-0.0061697068
-3.9992352e-05
-0.005705733
-0.00045632124
-0.0049814198
-0.00091789084
-0.003970788
-0.0014251747
-0.002647208
-0.001979131
-0.00098325014
-0.0025812735
-0.0032017862
0.0010323033
-0.00015892796
0.00054928076
-0.00051889165
0.0012723647
-0.0010007703
0.0017503046
-0.0015412598
0.0020367995
-0.0020873503
0.0021665146
-0.0025937357
0.0021654978
-0.0030208687
0.0020534719
-0.003333294
0.0018448143
-0.0034983023
0.0015496485
-0.0034848546
0.001174736
-0.0032626981
0.00072412028
-0.0028016464
0.0001996483
-0.0020709459
-0.00039865135
-0.0010387618
-0.0010721764
0.00032825119
-0.0018233342
0.0020652254
-0.002654865
0.00420904
-0.0035689893
0.0067980147
-0.0045681057
0.009871841
-0.0056550998
-0.0067797446
0.013449799
-0.00011756702
0.00066684778
-0.00036699862
0.0015217964
-0.0006735137
0.0020568197
-0.00097482564
0.0023381116
-0.0012168539
0.002408543
-0.0013515939
0.0023002379
-0.0013354593
0.0020373375
-0.0011278278
0.0016371829
-0.00068984407
0.0011116648
1.6532069e-05
0.00046835986
0.0010293099
-0.0002886575
0.0023871147
-0.0011581565
0.004129733
-0.0021412696
0.0062985941
-0.0032410374
0.0089372762
-0.0044620163
0.012092063
-0.0058096519
0.015812319
-0.0072892448
0.020150186
-0.0089059733
0.025160376
-0.01066529
-0.012492627
0.030873259
-6.6907645e-05
0.00073375544
-0.00017916647
0.0016340553
-0.00026653367
0.002144187
-0.00026769115
0.0023392691
-0.00012719368
0.0022680456
0.00020616783
0.0019668763
0.00078069497
0.0014628103
0.0016429511
0.00077492669
0.0028387314
-8.411541e-05
0.0044138481
-0.0011067569
0.0064146948
-0.0022895041
0.0088886619
-0.0036321236
0.011884463
-0.0051370708
0.015452464
-0.0068090387
0.019645058
-0.0086546101
0.024517284
-0.010681877
0.030127705
-0.012899666
0.036538919
-0.015317187
0.043818324
-0.017944695
-0.020682552
0.052008248
-9.9845804e-06
0.00074374004
3.453514e-05
0.0015895355
0.00019989055
0.0019788316
0.00054676642
0.0019923932
0.0011322482
0.0016825637
0.0020109828
0.0010881417
0.0032361423
0.00023765076
0.0048603074
-0.00084923845
0.0069361246
-0.0021599327
0.0095166809
-0.0036873132
0.012655712
-0.005428535
0.016407706
-0.007384118
0.020827833
-0.0095571976
0.025971779
-0.011952985
0.031895654
-0.014578485
0.038656285
-0.017442508
0.046312404
-0.020555785
0.054926712
-0.023931495
0.064569703
-0.027587686
-0.031405612
0.075292763
5.0751388e-05
0.00069298868
0.00026565799
0.0013746289
0.00070825484
0.0015362347
0.0014390311
0.0012616168
0.0025168216
0.0006047732
0.0039995683
-0.00039460499
0.005944917
-0.0017076981
0.0084106065
-0.003314928
0.011454598
-0.0052039247
0.015135047
-0.0073677614
0.019510029
-0.0098035172
0.024637019
-0.012511108
0.030572153
-0.015492331
0.037369328
-0.018750161
0.045079273
-0.02228843
0.053749
-0.026112235
0.063422618
-0.030229403
0.074144727
-0.034653604
0.085969361
-0.03941232
-0.044388526
0.098952275
0.0001137964
0.0005791923
0.00050850369
0.00097992162
0.0012459829
0.00079875543
0.0023867786
0.00012082112
0.0039912423
-0.00099969065
0.0061198781
-0.0025232408
0.0088333227
-0.0044211427
0.012192169
-0.0066737746
0.016256562
-0.0092683176
0.021085451
-0.012196651
0.026735555
-0.015453621
0.033260032
-0.019035585
0.040706895
-0.022939195
0.049117205
-0.02716047
0.058523169
-0.031694394
0.068946523
-0.036535589
0.080398346
-0.041681226
0.092882176
-0.047137434
0.10640552
-0.05293566
-0.058995697
0.12101269
0.00017849593
0.00040069639
0.00076003023
0.00039838731
0.0018053396
-0.00024655397
0.0033747148
-0.0014485542
0.0055289972
-0.0031539731
0.0083293219
-0.0053235656
0.011836494
-0.0079283144
0.016110063
-0.010947344
0.021207049
-0.014365303
0.027180311
-0.018169913
0.034076628
-0.022349937
0.04193449
-0.026893447
0.050781675
-0.03178638
0.06063261
-0.037011406
0.071485519
-0.042547303
0.083319412
-0.048369483
0.096091886
-0.054453699
0.10974045
-0.060786002
0.12419603
-0.067391238
-0.074274649
0.13947498
0.00024512738
0.0010199498
0.0023833412
0.0043938637
0.0071105521
0.010591908
0.014894316
0.020070121
0.026165385
0.033217388
0.041252028
0.050281263
0.060300753
0.071287761
0.083199161
0.095968931
0.10950343
0.12366382
0.13818336
0.15258764
-0.0035077092
-0.001940628
3.3084467e-11
-0.0012859213
-0.0022217879
2.552787e-11
0.0011946913
-0.0024806126
1.988471e-11
0.0038772294
-0.0026825381
1.5944722e-11
0.0067348893
-0.0028576599
1.4967979e-11
0.0097503651
-0.0030154759
1.1305154e-11
0.012904722
-0.0031543572
9.270529e-12
0.016179938
-0.0032752158
6.7784485e-12
0.019560311
-0.003380373
5.6048628e-12
0.023031623
-0.0034713114
5.8360003e-12
0.026580586
-0.0035489633
6.5754771e-12
0.030194776
-0.0036141904
7.7230249e-12
0.03386255
-0.0036677743
8.8073326e-12
0.037572912
-0.0037103619
1.0225931e-11
0.04131541
-0.003742498
1.1770204e-11
0.045080072
-0.0037646621
1.3981701e-11
0.048857358
-0.0037772856
1.6644478e-11
0.052638123
-0.003780765
2.0298224e-11
0.0564136
-0.0037754769
2.4648322e-11
0.060175389
-0.0037617889
3.0214107e-11
0.063915458
-0.0037400692
3.652942e-11
0.06762615
-0.0037106918
4.4029536e-11
0.071300191
-0.0036740412
5.1898234e-11
0.074930705
-0.0036305145
6.0423483e-11
0.078511226
-0.0035805209
6.8217723e-11
0.082035707
-0.0035244813
7.5398053e-11
0.085498533
-0.003462826
7.9788107e-11
0.088894524
-0.0033959913
8.1540701e-11
0.092218941
-0.0033244164
7.7680162e-11
0.09546748
-0.0032485393
6.9018752e-11
0.098636274
-0.0031687943
5.2072097e-11
0.10172188
-0.0030856074
2.9547185e-11
0.10472128
-0.0029993945
-1.8434501e-12
0.10763184
-0.0029105589
-3.5645935e-11
0.11045133
-0.0028194899
-7.4090852e-11
0.11317789
-0.0027265632
-1.0528241e-10
0.11581003
-0.0026321414
-1.3012963e-10
0.11834661
-0.0025365766
-1.3220156e-10
0.12078682
-0.0024402179
-1.118227e-10
0.12313024
-0.0023434117
-5.5671034e-11
0.12537678
-0.0022465439
3.2526581e-11
0.12752675
-0.0021499658
1.4822839e-10
0.12958111
-0.0020543671
2.8659469e-10
0.13154085
-0.0019597366
4.2017533e-10
0.13341004
-0.0018691951
5.1820267e-10
0.13518721
-0.0017771636
5.483206e-10
0.13689679
-0.0017095826
4.5303315e-10
0.13849465
-0.001597857
2.4229836e-10
0.1401816
-0.0016869533
-1.423145e-10
-0.0013311826
-6.2498054e-10
0.0028529184
-0.0037612431
0.0049500647
-0.0043189342
0.0072929234
-0.0048234713
0.0098190526
-0.0052086673
0.012507391
-0.0055459983
0.015345613
-0.0058536981
0.018316978
-0.0061257222
0.02140508
-0.0063633172
0.024595898
-0.0065711918
0.027876672
-0.0067520851
0.031235269
-0.0069075599
0.034660207
-0.0070391287
0.03814063
-0.0071481975
0.041666192
-0.0072359235
0.045226974
-0.0073032801
0.048813443
-0.0073511314
0.052416421
-0.0073802629
0.056027061
-0.0073914054
0.059636845
-0.0073852607
0.063237579
-0.0073625228
0.066821403
-0.0073238932
0.070380803
-0.0072700917
0.073908625
-0.0072018634
0.077398091
-0.0071199811
0.080842816
-0.0070252458
0.084236818
-0.0069184829
0.08757453
-0.0068005379
0.090850809
-0.0066722704
0.094060939
-0.0065345462
0.09720063
-0.0063882304
0.10026602
-0.0062341806
0.10325365
-0.0060732393
0.10616048
-0.0059062294
0.10898387
-0.0057339495
0.11172155
-0.0055571713
0.11437163
-0.0053766398
0.11693256
-0.0051930749
0.11940316
-0.0050071766
0.12178259
-0.0048196395
0.12407033
-0.0046311532
0.12626627
-0.0044424885
0.12837065
-0.0042543462
0.13038439
-0.0040681033
0.13230839
-0.003883741
0.13414667
-0.0037074688
0.13589773
-0.0035282284
0.13758557
-0.0033974232
0.13916709
-0.0031793718
0.14083789
-0.0033577597
-0.0026599115
0.015021136
-0.0053325793
0.016852235
-0.0061500338
0.018905772
-0.0068770076
0.021111816
-0.007414712
0.023458735
-0.0078929173
0.025942876
-0.0083378383
0.028551619
-0.0087344655
0.031271485
-0.0090831834
0.034091373
-0.0093910803
0.037001054
-0.0096617659
0.039990407
-0.0098969125
0.043049571
-0.010098292
0.046169021
-0.010267648
0.049339502
-0.010406405
0.052551985
-0.010515763
0.055797658
-0.010596805
0.059067931
-0.010650536
0.062354442
-0.010677917
0.065649069
-0.010679887
0.068943945
-0.010657399
0.072231484
-0.010611432
0.075504397
-0.010543005
0.07875572
-0.010453186
0.081978831
-0.010343092
0.085167472
-0.010213887
0.088315765
-0.010066776
0.091418224
-0.0099029975
0.094469769
-0.0097238149
0.097465723
-0.0095305007
0.10040182
-0.0093243311
0.10327421
-0.0091065695
0.10607943
-0.0088784609
0.10881443
-0.0086412214
0.11147651
-0.0083960326
0.11406338
-0.0081440379
0.11657308
-0.0078863414
0.11900402
-0.0076240129
0.12135493
-0.0073580933
0.12362491
-0.0070896174
0.12581337
-0.0068196146
0.12792012
-0.0065492373
0.12994531
-0.0062795353
0.13188977
-0.0060125663
0.13375435
-0.0057483202
0.13554289
-0.0054960115
0.13725401
-0.0052393478
0.13891073
-0.005054138
0.14047227
-0.0047409123
0.14212364
-0.0050091274
-0.0039968779
0.032056549
-0.0065158697
0.033471746
-0.00756523
0.035077248
-0.0084825103
0.036800081
-0.0091375447
0.038640929
-0.0097337655
0.04060609
-0.010302999
0.042688392
-0.010816768
0.044878313
-0.011273104
0.047168275
-0.011681043
0.049551051
-0.012044542
0.052018933
-0.012364795
0.054563965
-0.012643325
0.057178137
-0.012881819
0.059853404
-0.013081672
0.062581706
-0.013244065
0.065354997
-0.013370096
0.068165298
-0.013460836
0.071004729
-0.013517348
0.073865559
-0.013540717
0.076740235
-0.013532076
0.079621425
-0.013492622
0.08250205
-0.013423629
0.085375313
-0.01332645
0.088234733
-0.013202512
0.091074166
-0.013053319
0.093887823
-0.012880433
0.096670291
-0.012685466
0.099416539
-0.012470063
0.10212193
-0.012235892
0.10478222
-0.011984619
0.10739355
-0.011717903
0.10995247
-0.011437375
0.11245588
-0.011144634
0.11490108
-0.010841231
0.11728571
-0.010528671
0.11960778
-0.010208409
0.12186562
-0.0098818577
0.12405792
-0.0095503919
0.12618368
-0.0092153822
0.12824227
-0.0088781952
0.13023339
-0.0085403626
0.13215714
-0.0082032839
0.13401426
-0.0078696893
0.13580554
-0.0075396013
0.13753465
-0.0072251167
0.13920038
-0.006905076
0.14082437
-0.0066781303
0.14236933
-0.0062858737
0.14400499
-0.0066447867
-0.0053579758
0.05264854
-0.0071561609
0.053489124
-0.008405814
0.054483235
-0.0094766218
0.055565186
-0.010219496
0.056749794
-0.010918374
0.058051353
-0.011604558
0.059468373
-0.012233788
0.060995986
-0.012800717
0.062629982
-0.013315039
0.064365763
-0.013780323
0.066197809
-0.01419684
0.068119849
-0.014565365
0.070125119
-0.014887089
0.072206518
-0.015163071
0.074356698
-0.015394245
0.076568146
-0.015581544
0.078833271
-0.015725961
0.081144477
-0.015828554
0.083494237
-0.015890477
0.085875147
-0.015912986
0.088279981
-0.015897456
0.090701738
-0.015845386
0.093133677
-0.015758389
0.095569357
-0.015638192
0.098002663
-0.015486626
0.10042783
-0.015305598
0.10283945
-0.015097089
0.10523251
-0.014863122
0.10760237
-0.014605748
0.10994477
-0.014327024
0.11225586
-0.014028995
0.11453216
-0.013713673
0.11677056
-0.013383036
0.11896833
-0.013038998
0.12112308
-0.012683423
0.12323279
-0.012318115
0.12529575
-0.011944821
0.12731061
-0.011565252
0.12927634
-0.011181112
0.13119225
-0.010794107
0.13305804
-0.010406147
0.13487374
-0.010018985
0.13664007
-0.0096360159
0.13835779
-0.0092573258
0.14003041
-0.008897739
0.14165703
-0.0085316927
0.14325761
-0.0082787069
0.14479927
-0.0078275426
0.14643286
-0.0082783687
-0.0067664444
0.075221743
-0.0070851411
0.075326699
-0.0085107696
0.075551061
-0.0097009838
0.075851345
-0.01051978
0.076255587
-0.011322616
0.076780639
-0.01212961
0.077429536
-0.012882685
0.078202209
-0.01357339
0.079096965
-0.014209795
0.080110657
-0.014794015
0.081239041
-0.015325224
0.082476821
-0.015803145
0.083817812
-0.016228081
0.085255236
-0.016600495
0.086781914
-0.016920923
0.088390395
-0.017190026
0.09007306
-0.017408626
0.091822231
-0.017577725
0.093630264
-0.017698509
0.09548962
-0.017772342
0.097392935
-0.017800771
0.099333064
-0.017785516
0.10130314
-0.017728465
0.1032966
-0.017631653
0.10530722
-0.017497248
0.10732915
-0.017327521
0.10935689
-0.017124832
0.11138536
-0.016891595
0.11340988
-0.01663026
0.11542613
-0.016343282
0.11743024
-0.016033101
0.11941869
-0.015702126
0.12138837
-0.015352712
0.12333652
-0.014987151
0.12526077
-0.014607668
0.12715907
-0.01421642
0.12902975
-0.0138155
0.13087146
-0.013406956
0.13268318
-0.012992835
0.13446426
-0.012575184
0.13621441
-0.0121563
0.13793372
-0.011738298
0.13962293
-0.011325226
0.14128288
-0.010917277
0.14291697
-0.010531824
0.1445247
-0.010139429
0.14612421
-0.009878213
0.14768777
-0.0093911072
0.14934486
-0.0099354566
-0.0082543972
0.098025277
-0.0061581432
0.097258
-0.0077434926
0.096581705
-0.0090246889
0.095997264
-0.0099353392
0.095540805
-0.010866157
0.09522356
-0.011812365
0.095050897
-0.012710022
0.095026818
-0.013549311
0.095150856
-0.014333833
0.095419745
-0.015062905
0.095829127
-0.015734605
0.09637359
-0.016347608
0.09704665
-0.016901141
0.097841074
-0.017394919
0.098749179
-0.017829028
0.099762992
-0.018203839
0.10087438
-0.018520012
0.10207515
-0.0187785
0.10335719
-0.018980545
0.1047125
-0.019127649
0.10613329
-0.019221565
0.10761205
-0.019264276
0.10914157
-0.019257983
0.11071498
-0.019205068
0.11232581
-0.019108076
0.11396797
-0.018969684
0.1156358
-0.018792663
0.11732406
-0.018579856
0.11902795
-0.018334142
0.12074307
-0.018058404
0.12246548
-0.017755513
0.12419164
-0.017428288
0.12591842
-0.017079493
0.12764309
-0.016711818
0.12936329
-0.016327868
0.13107704
-0.01593017
0.13278272
-0.015521179
0.13447906
-0.015103298
0.13616515
-0.014678928
0.13784044
-0.014250473
0.13950477
-0.013820629
0.14115836
-0.013391884
0.14280207
-0.012968942
0.14443694
-0.012552138
0.14606633
-0.012161215
0.14769031
-0.011763412
0.14932511
-0.011513014
0.15094865
-0.011014644
0.15266783
-0.01165464
-0.0098635938
0.11918904
-0.0043344988
0.11749644
-0.0060508881
0.11585692
-0.0073851702
0.11435439
-0.0084328097
0.11302509
-0.0095368545
0.11186652
-0.0106538
0.11088416
-0.011727661
0.11008429
-0.012749436
0.10946631
-0.013715854
0.10902563
-0.014622227
0.10875645
-0.015465419
0.10865209
-0.016243249
0.10870496
-0.016954015
0.10890676
-0.017596716
0.10924875
-0.018171022
0.109722
-0.01867709
0.11031748
-0.01911549
0.11102618
-0.019487201
0.11183922
-0.019793584
0.11274792
-0.020036346
0.11374387
-0.020217513
0.11481899
-0.020339395
0.11596557
-0.020404566
0.11717632
-0.020415817
0.11844437
-0.020376133
0.11976333
-0.020288644
0.12112727
-0.020156597
0.12253073
-0.019983312
0.12396873
-0.019772147
0.12543679
-0.019526464
0.12693088
-0.019249598
0.12844742
-0.018944831
0.1299833
-0.018615371
0.13153581
-0.018264336
0.1331027
-0.017894749
0.13468206
-0.017509537
0.13627243
-0.017111542
0.13787268
-0.01670355
0.13948209
-0.016288339
0.14110031
-0.015868693
0.1427274
-0.015447723
0.14436383
-0.015028315
0.14601072
-0.014615826
0.14766936
-0.014210782
0.14934326
-0.013835113
0.15103314
-0.013453291
0.15275338
-0.013233259
0.15448779
-0.012749055
0.1563206
-0.013487444
-0.011645382
0.13689601
-0.0017555293
0.13437805
-0.0035329279
0.13181949
-0.0048266024
0.12946242
-0.0060757446
0.12733407
-0.0074084993
0.12541579
-0.0087355291
0.12371044
-0.010022305
0.12222308
-0.011262082
0.12095218
-0.012444954
0.11989196
-0.013562008
0.11903492
-0.014608373
0.1183727
-0.015581032
0.11789632
-0.01647763
0.11759624
-0.017296636
0.11746259
-0.01803738
0.11748538
-0.018699874
0.11765457
-0.019284683
0.11796025
-0.019792883
0.11839269
-0.020226024
0.11894243
-0.020586088
0.11960036
-0.020875436
0.12035774
-0.021096776
0.12120629
-0.02125312
0.12213821
-0.021347736
0.12314619
-0.021384113
0.12422346
-0.021365907
0.12536376
-0.021296899
0.1265614
-0.021180951
0.12781121
-0.021021962
0.12910858
-0.02082383
0.1304494
-0.020590415
0.13183008
-0.020325511
0.13324753
-0.020032822
0.13469913
-0.019715941
0.13618273
-0.019378352
0.13769662
-0.019023422
0.1392395
-0.018654425
0.14081051
-0.018274555
0.14240917
-0.017887007
0.14403545
-0.017494973
0.14568974
-0.017102006
0.14737284
-0.016711414
0.14908623
-0.016329221
0.15083163
-0.015956182
0.15261277
-0.015616248
0.15443114
-0.015271661
0.1562994
-0.015101521
0.15820735
-0.014657011
0.16021697
-0.015497064
-0.013659801
0.15005214
0.00077997102
0.1467632
-0.00024398399
0.14346586
-0.001529266
0.14041808
-0.003027968
0.13762319
-0.0046136081
0.13507493
-0.0061872676
0.13277513
-0.007722509
0.13072389
-0.0092108355
0.12891875
-0.010639818
0.12735453
-0.011997781
0.12602338
-0.013277231
0.12491592
-0.014473567
0.12402195
-0.015583667
0.12333083
-0.016605514
0.12283157
-0.017538118
0.12251306
-0.018381359
0.12236422
-0.019135843
0.12237414
-0.019802805
0.12253216
-0.02038405
0.12282797
-0.020881895
0.12325165
-0.021299113
0.12379375
-0.02163888
0.12444535
-0.021904721
0.12519807
-0.02210046
0.12604412
-0.022230163
0.1269763
-0.022298087
0.12798803
-0.022308627
0.12907334
-0.022266258
0.13022687
-0.022175497
0.13144389
-0.022040845
0.13272023
-0.021866755
0.13405231
-0.021657596
0.13543712
-0.021417628
0.13687216
-0.02115098
0.13835545
-0.020861646
0.13988552
-0.020553486
0.14146133
-0.020230242
0.14308235
-0.01989557
0.14474845
-0.019553111
0.14645998
-0.019206502
0.14821775
-0.018859773
0.15002301
-0.018516674
0.15187771
-0.018183924
0.15378404
-0.017862512
0.15574613
-0.017578334
0.15776616
-0.017291691
0.15985567
-0.017191028
0.16200889
-0.01681024
0.16427059
-0.017758763
-0.015971819
0.18890885
0.0053820699
-0.19351095
0.18509882
0.0035660509
0.18170679
0.0018627654
0.17856166
0.00011715447
0.17562611
-0.0016780523
0.17287509
-0.0034362458
0.17029038
-0.0051377967
0.16786298
-0.0067834396
0.16558902
-0.0083658574
0.16346634
-0.0098751004
0.16149308
-0.01130397
0.15966713
-0.012647616
0.15798584
-0.013902382
0.15644593
-0.015065605
0.15504348
-0.016135663
0.15377401
-0.01711189
0.1526326
-0.017994433
0.15161395
-0.018784159
0.1507125
-0.019482591
0.14992245
-0.020091848
0.14923791
-0.020614579
0.14865294
-0.021053907
0.14816159
-0.021413366
0.14775797
-0.021696842
0.14743632
-0.021908513
0.14719102
-0.022052788
0.14701664
-0.022134246
0.14690796
-0.022157579
0.14686
-0.022127539
0.14686804
-0.022048882
0.14692762
-0.021926331
0.14703455
-0.02176453
0.14718494
-0.02156802
0.14737518
-0.021341217
0.14760193
-0.021088399
0.14786216
-0.020813712
0.1481531
-0.020521184
0.14847229
-0.020214757
0.14881754
-0.019898363
0.14918697
-0.019575935
0.14957903
-0.019251833
0.14999248
-0.018930121
0.15042654
-0.01861799
0.15088071
-0.018316675
0.15135558
-0.018053212
0.15185103
-0.017787132
0.15237151
-0.017711514
0.15291274
-0.017351463
0.15349767
-0.018343702
-0.016564562
0.21685774
0.0087803985
-0.22025607
0.21338386
0.0070399357
0.21017105
0.0050755753
0.20706574
0.003222465
0.20401914
0.0013685409
0.20106222
-0.00047932795
0.19821187
-0.0022874375
0.19547258
-0.0040441516
0.19285026
-0.0057435411
0.19035175
-0.0073765875
0.18798224
-0.0089344602
0.18574513
-0.010410506
0.18364241
-0.011799668
0.1816748
-0.013097985
0.17984173
-0.014302602
0.17814161
-0.015411763
0.17657187
-0.016424694
0.1751292
-0.017341491
0.17380965
-0.018163044
0.17260877
-0.018890966
0.17152171
-0.019527517
0.17054334
-0.020075534
0.16966833
-0.020538359
0.16889126
-0.020919768
0.16820665
-0.021223904
0.16760906
-0.021455202
0.16709314
-0.021618325
0.16665365
-0.021718094
0.16628554
-0.02175943
0.16598395
-0.021747291
0.16574425
-0.021686626
0.16556204
-0.021582327
0.16543322
-0.021439196
0.16535393
-0.021261922
0.16532059
-0.021055064
0.16532993
-0.020823053
0.16537896
-0.020570209
0.16546496
-0.020300765
0.16558556
-0.020018958
0.16573866
-0.019729032
0.1659225
-0.019435675
0.16613569
-0.019143313
0.16637723
-0.018859527
0.16664661
-0.018586061
0.1669437
-0.018350294
0.16726971
-0.018113143
0.16762387
-0.018065674
0.16801448
-0.017742076
0.16842351
-0.018752729
-0.017038506
0.24376666
0.01150435
-0.24649061
0.24091622
0.009890371
0.23806301
0.0079287831
0.23521606
0.0060694246
0.23233826
0.0042463412
0.22945044
0.0024084895
0.22658382
0.00057917709
0.22375771
-0.0012180366
0.22098801
-0.0029738432
0.21829067
-0.0046792428
0.21567953
-0.0063233271
0.21316561
-0.0078965836
0.21075751
-0.0093915673
0.20846179
-0.010802265
0.20628308
-0.012123895
0.20422427
-0.01335295
0.2022867
-0.01448713
0.20047043
-0.015525216
0.19877436
-0.016466975
0.19719647
-0.017313071
0.19573393
-0.018064981
0.1943833
-0.018724908
0.19314064
-0.019295694
0.19200161
-0.019780737
0.19096161
-0.020183909
0.19001588
-0.02050947
0.18915955
-0.020761992
0.18838774
-0.020946282
0.18769561
-0.021067306
0.18707844
-0.021130124
0.18653165
-0.021139832
0.18605083
-0.021101506
0.1856318
-0.021020162
0.1852706
-0.020900728
0.18496356
-0.020748019
0.18470724
-0.020566738
0.18449852
-0.020361486
0.18433455
-0.020136792
0.18421279
-0.019897197
0.18413102
-0.019647268
0.18408737
-0.019392022
0.18408034
-0.019136281
0.18410874
-0.01888793
0.18417216
-0.018649486
0.18426971
-0.018447839
0.18440409
-0.018247523
0.18456891
-0.018230494
0.18478606
-0.017959223
0.18499163
-0.018958305
-0.017371197
0.26927442
0.0135373
-0.27130737
0.26710638
0.012058413
0.26476462
0.010270542
0.2623254
0.0085086477
0.25979665
0.0067750886
0.25718856
0.0050165817
0.25452724
0.0032404918
0.25183688
0.0014723282
0.24913746
-0.00027442623
0.2464488
-0.0019905786
0.24379018
-0.0036647057
0.24117873
-0.0052851404
0.23862919
-0.0068420291
0.23615405
-0.0083271211
0.2337636
-0.0097334404
0.23146599
-0.011055346
0.22926742
-0.012288559
0.22717228
-0.013430075
0.22518337
-0.014478063
0.22330208
-0.015431783
0.22152859
-0.016291492
0.21986203
-0.01705835
0.21830066
-0.017734325
0.21684202
-0.018322094
0.21548306
-0.018824949
0.2142203
-0.019246705
0.2130499
-0.0195916
0.21196784
-0.019864214
0.21096991
-0.020069381
0.2100519
-0.020212108
0.20920957
-0.020297509
0.2084388
-0.020330738
0.20773558
-0.020316941
0.20709607
-0.020261216
0.20651664
-0.020168585
0.20599388
-0.020043984
0.20552467
-0.019892275
0.20510614
-0.019718264
0.20473573
-0.019526786
0.20441119
-0.019322732
0.20413061
-0.01911144
0.20389249
-0.018898156
0.20369555
-0.018690994
0.2035395
-0.018493438
0.20342287
-0.018331204
0.20334956
-0.018174214
0.20330839
-0.018189328
0.20333259
-0.017983422
0.20331695
-0.018942665
-0.017540451
0.29298519
0.014868439
-0.29431632
0.29150595
0.013537653
0.28978346
0.011993032
0.28788482
0.010407279
0.28584492
0.0088149966
0.28367455
0.0071869509
0.28139213
0.0055229107
0.2790209
0.0038435539
0.27658217
0.0021643037
0.2740961
0.00049549345
0.27158289
-0.0011514921
0.26906226
-0.0027645098
0.26655253
-0.0043323049
0.26407031
-0.005844895
0.26163032
-0.0072934517
0.25924533
-0.0086703592
0.25692611
-0.009969335
0.25468146
-0.011185432
0.25251838
-0.012314983
0.25044214
-0.01335554
0.24845645
-0.014305807
0.24656366
-0.015165552
0.24476485
-0.015935516
0.24306007
-0.016617314
0.24144845
-0.017213334
0.23992838
-0.017726634
0.23849763
-0.018160843
0.23715347
-0.018520059
0.23589284
-0.018808754
0.23471242
-0.019031685
0.23360872
-0.019193808
0.23257819
-0.019300209
0.23161729
-0.01935604
0.23072254
-0.019366467
0.22989059
-0.019336636
0.22911826
-0.019271655
0.22840258
-0.019176593
0.22774082
-0.019056503
0.22713052
-0.018916491
0.22656955
-0.018761754
0.22605605
-0.01859794
0.22558861
-0.018430723
0.225166
-0.018268386
0.22478807
-0.0181155
0.22445297
-0.017996105
0.22416546
-0.017886702
0.2239107
-0.017934571
0.22373025
-0.017802969