/*--------------------------------*- C++ -*----------------------------------*\
  =========                 |
  \\      /  F ield         | OpenFOAM: The Open Source CFD Toolbox
   \\    /   O peration     | Website:  https://openfoam.org
    \\  /    A nd           | Version:  6
     \\/     M anipulation  |
\*---------------------------------------------------------------------------*/
FoamFile
{
    version     2.0;
    format      ascii;
    class       volVectorField;
    location    "169";
    object      U;
}
// * * * * * * * * * * * * * * * * * * * * * * * * * * * * * * * * * * * * * //

dimensions      [0 1 -1 0 0 0 0];

internalField   nonuniform List<vector> 
9200
(
(0.0010393502 0.0014199801 -5.9201863e-20)
(0.013676084 -0.0020583758 4.6042566e-20)
(0.038313204 -0.0058665839 -3.8501758e-20)
(0.0722745 -0.0097635279 -6.0257778e-20)
(0.11376484 -0.013490058 1.8826981e-20)
(0.16158102 -0.016605695 3.2743898e-20)
(0.21467165 -0.018817329 -1.226802e-20)
(0.27206628 -0.019973942 9.268871e-21)
(0.33285647 -0.020011281 1.6803429e-20)
(0.39616376 -0.018929117 1.4848079e-21)
(0.46111589 -0.016779888 -2.1456348e-20)
(0.52683723 -0.013657811 2.0670017e-20)
(0.59245108 -0.0096880852 -4.042217e-20)
(0.65709174 -0.0050158713 -2.1133915e-20)
(0.71992517 0.00020545822 5.9046561e-21)
(0.7801755 0.0058239827 -2.5131692e-20)
(0.83717109 0.01171269 2.5217133e-20)
(0.89046926 0.017918379 2.2243217e-20)
(0.93967121 0.024573266 -2.9929191e-22)
(0.98205236 0.028293224 -1.6691814e-21)
(0.005252187 -0.0013462766 -1.7059361e-20)
(0.026962527 -0.0089890389 3.9747733e-20)
(0.061670167 -0.014809784 2.3576311e-20)
(0.10629497 -0.019172296 -1.1569762e-19)
(0.15873577 -0.02221403 -1.2727097e-20)
(0.21753367 -0.023720725 7.3297098e-20)
(0.28137316 -0.023595141 -3.5476414e-20)
(0.34900625 -0.021869016 -8.3905598e-21)
(0.41923948 -0.01864558 3.4287556e-20)
(0.49090976 -0.014080903 -4.3259602e-20)
(0.56287268 -0.0083760193 -3.0338501e-20)
(0.63400886 -0.0017666696 7.1921486e-20)
(0.70324372 0.0054883119 3.8294074e-20)
(0.76957626 0.013118541 -6.797661e-20)
(0.83211292 0.020851982 1.4623704e-20)
(0.89010084 0.028419593 -3.6733432e-20)
(0.94296964 0.03556955 -1.3777202e-20)
(0.99043277 0.042140749 7.0974849e-20)
(1.0323565 0.047715157 2.9642025e-20)
(1.0669352 0.049139525 -8.3478382e-20)
(0.010858437 -0.0040424206 3.6773474e-20)
(0.043953448 -0.015431092 2.5047383e-21)
(0.090515502 -0.022552306 2.2341727e-20)
(0.1471115 -0.026497389 9.8116856e-22)
(0.21134269 -0.027886334 -4.0773963e-20)
(0.28146786 -0.026795157 1.8576406e-20)
(0.35587063 -0.023382776 1.3420307e-20)
(0.43299034 -0.017921589 -5.0327726e-20)
(0.51132509 -0.010735708 5.7261888e-20)
(0.58942649 -0.0021839439 1.42567e-20)
(0.66590954 0.0073478354 -5.4300749e-20)
(0.73948077 0.017460185 -1.823742e-20)
(0.80897641 0.027756476 9.0591555e-21)
(0.87340309 0.037859175 2.3444758e-20)
(0.93197407 0.047423935 -1.1362518e-20)
(0.98413413 0.056148851 2.7877753e-20)
(1.0295744 0.063789038 -2.0188256e-20)
(1.068265 0.070204241 -7.0123663e-20)
(1.1003326 0.075119212 -2.3796305e-20)
(1.1249116 0.076641058 4.8659864e-20)
(0.017957228 -0.0064221692 2.4508025e-20)
(0.064777041 -0.020694817 5.1039246e-20)
(0.12485237 -0.028060873 1.9881702e-20)
(0.19446978 -0.030464098 1.2990097e-20)
(0.27094949 -0.029094879 1.7275707e-20)
(0.35224901 -0.024389021 -4.772019e-20)
(0.43643165 -0.016826019 -2.5646868e-20)
(0.52162038 -0.006976721 0)
(0.6060293 0.0045669765 1.3920635e-20)
(0.68798744 0.01721167 -5.8523518e-21)
(0.76597558 0.030373853 -9.7935013e-20)
(0.83867489 0.043499555 -1.5774823e-20)
(0.90501569 0.05608653 6.5103257e-20)
(0.96421614 0.067704037 4.8441807e-22)
(1.0158039 0.078007604 -1.572558e-21)
(1.0596159 0.086746668 2.1957515e-20)
(1.0957777 0.09377209 -5.2647271e-21)
(1.1246804 0.099065181 -6.102979e-20)
(1.1468651 0.10259691 -4.5851279e-20)
(1.162296 0.10341367 6.9520571e-20)
(0.026579438 -0.0082056945 -3.9194207e-21)
(0.089344078 -0.024033524 -5.1256319e-21)
(0.16430764 -0.030265014 5.6599429e-20)
(0.24758135 -0.02981005 1.853933e-20)
(0.3362418 -0.024513062 -3.1955079e-20)
(0.4279515 -0.015239898 1.2163843e-20)
(0.52047291 -0.0028514041 2.6402875e-21)
(0.61166391 0.01173705 3.3609192e-20)
(0.69954748 0.027640092 5.6599542e-21)
(0.78236877 0.044028714 -1.3204754e-20)
(0.85865447 0.060147661 6.0154095e-20)
(0.92726953 0.075340399 -5.8009396e-20)
(0.98745718 0.089072778 -1.3216624e-19)
(1.0388535 0.10094892 -5.5773083e-21)
(1.0814729 0.11071698 8.3150847e-20)
(1.1156659 0.11826393 0)
(1.1420552 0.12360569 1.0118966e-20)
(1.1614672 0.12689041 -1.5459785e-20)
(1.1748182 0.12829854 -8.5994674e-21)
(1.1826676 0.12744898 2.0992246e-20)
(0.036666932 -0.0090895861 -5.4309101e-21)
(0.11731518 -0.024685375 4.3578761e-21)
(0.2081188 -0.028140202 -8.7629869e-21)
(0.30515719 -0.023414982 2.8472403e-20)
(0.40533562 -0.013075621 -2.9392676e-20)
(0.50607174 0.001522584 -1.6927031e-20)
(0.60490522 0.019095107 3.7364244e-20)
(0.69954994 0.038365218 4.7595454e-21)
(0.7880043 0.058167604 -2.4436082e-20)
(0.86863445 0.077482956 6.9867609e-20)
(0.94024014 0.095458586 5.2393142e-22)
(1.002096 0.1114315 -8.0444387e-20)
(1.0539573 0.12494283 0)
(1.0960277 0.1357374 3.9542154e-20)
(1.1288925 0.14374832 5.5236061e-21)
(1.1534282 0.14906881 -7.7566467e-20)
(1.1706994 0.151919 -1.9586938e-20)
(1.1818626 0.15262353 -1.2467643e-20)
(1.1880595 0.1515259 -1.47094e-20)
(1.1901463 0.14858475 4.0420553e-20)
(0.048058897 -0.008767411 -1.7277961e-20)
(0.14808319 -0.021932008 -2.2198393e-21)
(0.25514084 -0.020797854 3.0380509e-20)
(0.36546404 -0.010412814 3.7484314e-20)
(0.47590446 0.0059015671 -1.994474e-20)
(0.58374295 0.026269285 -6.9163064e-20)
(0.68644218 0.048977186 -2.7995815e-20)
(0.7817624 0.072417762 7.8929258e-20)
(0.86790234 0.095212446 8.5778245e-21)
(0.94358955 0.11624957 -2.4873497e-20)
(1.0081262 0.13469822 1.3642216e-20)
(1.0613874 0.15001549 -4.3194553e-21)
(1.1037697 0.16193651 0)
(1.1360978 0.17044419 2.7203504e-20)
(1.1595049 0.17572298 -7.9322476e-20)
(1.1753024 0.17810357 -3.1475553e-20)
(1.1848573 0.178008 8.1054641e-20)
(1.1894924 0.17590931 -4.2969886e-21)
(1.1904032 0.17225543 3.5561096e-21)
(1.1885082 0.16719281 2.7111592e-20)
(0.060485284 -0.0069573687 -3.241462e-20)
(0.18077782 -0.015170392 -8.162435e-20)
(0.30388945 -0.0075835394 2.5797662e-21)
(0.42642577 0.0097033446 7.0161833e-20)
(0.54535175 0.032631543 6.2424398e-20)
(0.65798132 0.058820033 -7.1574548e-20)
(0.76190917 0.086176495 -2.8274686e-22)
(0.85518328 0.11285229 8.5522607e-20)
(0.93645384 0.13737835 4.8828103e-20)
(1.0050419 0.15869367 -5.421845e-20)
(1.060936 0.17613559 -9.2334286e-20)
(1.1047246 0.18941348 -3.1589851e-21)
(1.1374762 0.19855937 4.2127898e-20)
(1.1605877 0.20385848 -6.6056338e-21)
(1.175625 0.20577009 -1.2868797e-20)
(1.1841779 0.20484908 1.9690823e-20)
(1.187743 0.20167884 4.3880651e-20)
(1.1876456 0.19682574 -4.3859465e-20)
(1.1849956 0.19077869 -1.023221e-19)
(1.1806252 0.18377364 2.4566902e-20)
(0.073537254 -0.0034329762 -3.4979765e-20)
(0.21422698 -0.003989031 -1.7388614e-19)
(0.35251674 0.011839372 8.2103274e-20)
(0.48562821 0.037018336 9.276754e-20)
(0.61085407 0.066835553 5.7970585e-20)
(0.72576758 0.09848118 8.6107137e-21)
(0.82834837 0.12959696 -1.0624015e-19)
(0.91719034 0.15824268 0)
(0.99162781 0.18302813 -6.8748643e-20)
(1.0517524 0.20311204 -1.5202423e-20)
(1.0983387 0.21814856 5.4703507e-20)
(1.1327011 0.22821077 1.0973389e-20)
(1.1565113 0.23369253 -4.5613888e-20)
(1.1716071 0.23519938 -4.9081398e-20)
(1.1798206 0.23344326 2.4287697e-20)
(1.1828453 0.22915312 4.4822923e-20)
(1.1821491 0.22300974 -5.5600448e-20)
(1.1789363 0.21560809 -1.075113e-19)
(1.1741471 0.2074221 -3.1513627e-21)
(1.1684569 0.19871866 2.7046421e-20)
(0.086650489 0.0019613859 -3.5449079e-21)
(0.2469603 0.011816636 8.7913267e-20)
(0.39884758 0.037492316 -1.6479209e-20)
(0.54040489 0.071218394 -8.4309175e-20)
(0.66949931 0.10778895 4.5164385e-20)
(0.78421984 0.14411545 4.9175473e-20)
(0.88318974 0.1777567 5.5356816e-21)
(0.96577905 0.2068849 -9.9502563e-20)
(1.0321766 0.23038802 -2.5048799e-21)
(1.0833332 0.24781551 5.0503583e-20)
(1.1208073 0.25926297 5.9854805e-21)
(1.1465561 0.26523615 -1.971722e-20)
(1.162711 0.26650527 -7.570468e-20)
(1.1713768 0.26396614 -6.2554068e-21)
(1.1744765 0.2585242 4.3533382e-20)
(1.173655 0.25101078 3.7022036e-20)
(1.1702385 0.24213384 1.9793453e-20)
(1.1652405 0.23245863 -5.2994883e-20)
(1.1594016 0.22240405 1.2957453e-20)
(1.1532254 0.21223786 8.2659154e-20)
(-0.0012932623 0.0014346618 -1.1234114e-21)
(-0.0047459631 0.0031874172 2.0646988e-21)
(-0.010771365 0.0041359065 8.7961668e-22)
(-0.017754297 0.0045395384 -2.4411566e-21)
(-0.024740331 0.0045654189 -1.4114843e-21)
(-0.031299608 0.0043260406 1.5459277e-21)
(-0.037161345 0.0039035397 -6.8701195e-21)
(-0.042147461 0.0033577228 -5.9572283e-21)
(-0.046157795 0.0027313817 1.117201e-20)
(-0.049146209 0.0020548304 -9.7427596e-21)
(-0.051100672 0.0013492996 -1.9830866e-22)
(-0.052030459 0.00062942038 3.6673685e-21)
(-0.05195775 -9.4891767e-05 -6.3294882e-22)
(-0.05091189 -0.00081693346 2.281877e-20)
(-0.048925782 -0.0015318486 3.0400339e-22)
(-0.04603534 -0.0022351788 -4.0882925e-20)
(-0.042281789 -0.0029222737 7.5385787e-21)
(-0.037703426 -0.0035910451 2.3864139e-20)
(-0.032308668 -0.0042399941 -4.3852431e-20)
(-0.026156928 -0.0048211217 -2.773924e-20)
(-0.0016522009 0.0041808697 -5.3716314e-21)
(-0.005397484 0.0092681439 1.0865456e-20)
(-0.011218515 0.01200745 -1.0191614e-20)
(-0.017658034 0.013153771 3.9230079e-21)
(-0.023856444 0.013195419 4.8121631e-21)
(-0.029433331 0.012462729 7.1324346e-22)
(-0.034152335 0.011197017 -2.2509522e-20)
(-0.037860392 0.0095738991 -2.0370369e-21)
(-0.040474312 0.0077189878 2.0163592e-20)
(-0.041958933 0.0057212292 -5.047369e-21)
(-0.042308959 0.0036428613 -2.1762634e-20)
(-0.041537342 0.0015267075 4.8973246e-21)
(-0.039667713 -0.0005983128 2.2635441e-20)
(-0.036729076 -0.0027127706 1.0308405e-20)
(-0.032752021 -0.0048027011 2.185432e-20)
(-0.02776915 -0.0068555229 -1.9770755e-20)
(-0.021824765 -0.0088582368 -2.1672971e-20)
(-0.01496623 -0.010804245 2.1184649e-20)
(-0.0071289651 -0.012679024 2.6810399e-20)
(0.0018743611 -0.014317249 1.5854783e-20)
(-0.0023034304 0.006560237 -4.3568779e-21)
(-0.006539227 0.014480204 -5.6387643e-21)
(-0.011892137 0.018710553 3.0724021e-22)
(-0.017211106 0.02042819 1.0959901e-21)
(-0.02181915 0.020400332 6.6918537e-21)
(-0.02543105 0.019151672 1.0665189e-20)
(-0.027877239 0.017066292 -3.722773e-21)
(-0.029053274 0.014423785 -1.88962e-20)
(-0.028909038 0.011424351 6.54133e-21)
(-0.027431047 0.0082099013 1.2862595e-20)
(-0.024627706 0.0048797691 5.8340929e-21)
(-0.020520093 0.0015022283 1.8159137e-20)
(-0.015135963 -0.0018768772 1.7295942e-21)
(-0.0085053659 -0.0052272654 -3.3864579e-20)
(-0.00065684898 -0.0085276316 1.2020193e-21)
(0.0083810733 -0.011759135 -2.2139239e-20)
(0.018556937 -0.014904126 -2.4466336e-20)
(0.029802266 -0.017953787 4.5819771e-20)
(0.042305066 -0.020855156 2.5349381e-20)
(0.056738693 -0.02324781 1.2239541e-22)
(-0.0031290291 0.0083689747 -5.2833099e-21)
(-0.0078964022 0.018336522 -8.4815238e-21)
(-0.01243899 0.02358782 4.3593042e-21)
(-0.016026539 0.025609669 4.1463454e-21)
(-0.018235027 0.025382754 2.0105678e-21)
(-0.018912652 0.023589328 7.3210145e-21)
(-0.017984714 0.020730277 9.3125001e-21)
(-0.015416702 0.017170378 -1.3511478e-21)
(-0.011207033 0.01317131 -1.1481976e-20)
(-0.0053752118 0.0089189236 -2.9071918e-20)
(0.0020481424 0.0045434248 6.1884658e-23)
(0.01102655 0.00013429391 4.0697882e-20)
(0.021522279 -0.004248973 -1.8383205e-20)
(0.033497918 -0.0085676121 -1.2296104e-20)
(0.046920595 -0.012795579 5.5349368e-22)
(0.061760195 -0.016911893 3.2302681e-20)
(0.077953132 -0.020901714 -1.4829559e-20)
(0.095392404 -0.024763426 -5.3339245e-20)
(0.11439861 -0.028379775 4.5765059e-20)
(0.13634557 -0.031073159 3.3013207e-20)
(-0.0039704113 0.0094657369 -6.8788932e-22)
(-0.0090916613 0.020487801 -1.2534735e-20)
(-0.012364474 0.026159098 -3.4144529e-20)
(-0.013552541 0.028143348 -5.7241788e-21)
(-0.012533237 0.027555015 -3.6222446e-21)
(-0.0093167165 0.025188069 6.305118e-21)
(-0.0039456297 0.021627412 -4.6462294e-21)
(0.0035261523 0.017298956 -8.8070797e-21)
(0.013036856 0.012508743 2.1899753e-20)
(0.02452129 0.0074744287 5.0567345e-21)
(0.037915601 0.0023488844 -2.529029e-20)
(0.053157524 -0.0027628097 1.1078298e-20)
(0.070186965 -0.0077909065 0)
(0.0889467 -0.012691342 1.2089588e-20)
(0.10938558 -0.017436965 -9.7016273e-21)
(0.13145758 -0.022009949 -1.4337132e-20)
(0.15507426 -0.026408706 -1.5739005e-21)
(0.18006782 -0.030659489 -2.2181567e-21)
(0.20685367 -0.034576611 4.6147105e-20)
(0.23766388 -0.037019953 -1.047014e-20)
(-0.0046450995 0.0097808665 -7.5356646e-21)
(-0.0096772535 0.020747888 2.4516397e-20)
(-0.011064381 0.026160986 -1.0499356e-20)
(-0.0090968288 0.027724453 -2.7469282e-20)
(-0.0039797101 0.026601699 -2.7548102e-20)
(0.0040962028 0.023648409 -1.4921576e-20)
(0.014954181 0.019496453 -6.9061883e-22)
(0.02843628 0.014604696 5.5500056e-21)
(0.044403208 0.0093034311 1.9615922e-20)
(0.062730576 0.0038283936 7.3530922e-21)
(0.083304415 -0.0016547838 -7.186231e-21)
(0.1060191 -0.0070322744 -2.0102407e-21)
(0.13077372 -0.012229141 -3.8191737e-20)
(0.15746961 -0.017199804 -1.2693654e-20)
(0.1860122 -0.021919793 1.8750616e-20)
(0.21631201 -0.026379785 -2.1021689e-20)
(0.2482325 -0.030602299 -8.9730652e-21)
(0.28151898 -0.034670693 3.0440491e-20)
(0.31660738 -0.038364915 5.0472108e-20)
(0.35665053 -0.039964205 3.3559697e-21)
(-0.0049617697 0.009314002 1.6783294e-20)
(-0.0091662705 0.019097716 1.4467926e-20)
(-0.0078593619 0.023563372 5.1145475e-20)
(-0.0018585289 0.024328947 2.3388001e-20)
(0.0082957442 0.022523783 1.8251808e-22)
(0.022221975 0.019014379 -3.9388507e-20)
(0.039597493 0.014440925 -2.4313857e-20)
(0.060147974 0.0092663422 1.0465832e-20)
(0.083639206 0.003823204 1.4401596e-20)
(0.10986681 -0.0016513306 -1.3113726e-20)
(0.13864577 -0.0069910486 -4.4038733e-20)
(0.16980187 -0.012082894 2.9618512e-20)
(0.20316425 -0.016854214 2.0020564e-20)
(0.23855969 -0.021264059 -2.7551172e-20)
(0.27581257 -0.025296475 1.1650142e-20)
(0.31474841 -0.028957249 2.4197629e-20)
(0.3551458 -0.032303143 8.0724001e-21)
(0.39663425 -0.035506777 -1.1764219e-20)
(0.43957743 -0.038392753 -1.4190306e-20)
(0.48798555 -0.038634523 5.8727729e-21)
(-0.0047307769 0.0081236754 1.1093847e-20)
(-0.0070585992 0.015671179 -2.3352743e-20)
(-0.0020293577 0.018562034 8.6200271e-21)
(0.0090325396 0.018216223 3.3587998e-20)
(0.025256395 0.015651143 5.212434e-20)
(0.04606639 0.011695591 2.027652e-20)
(0.070984596 0.0069609333 -5.8639343e-21)
(0.099602045 0.0018829253 -1.2286291e-20)
(0.13156907 -0.0032272315 -6.205749e-21)
(0.16657582 -0.0081496986 3.4240847e-20)
(0.20433443 -0.012733369 -4.5104427e-21)
(0.24456506 -0.016879244 -1.6643309e-20)
(0.28698495 -0.020528752 -1.9693579e-20)
(0.33130027 -0.023656486 -4.7443762e-20)
(0.37720491 -0.026265615 2.3238715e-20)
(0.42438806 -0.028387952 -1.4095992e-20)
(0.47250013 -0.03012772 2.5993417e-20)
(0.52103661 -0.031783298 2.1040839e-20)
(0.57021442 -0.033350797 -8.5570437e-20)
(0.62470966 -0.032058969 -1.0806916e-22)
(-0.0037710516 0.0063146403 2.1925056e-20)
(-0.0028657615 0.010735095 -2.6165552e-20)
(0.00714212 0.011564133 -4.5013309e-20)
(0.024450263 0.0099249812 -2.72538e-20)
(0.0478709 0.0066522919 -2.0439885e-21)
(0.076628775 0.0024905967 1.3050102e-20)
(0.11007683 -0.0020154226 -2.833768e-21)
(0.14765219 -0.0064879385 1.8118541e-20)
(0.18886112 -0.010663545 8.8685607e-21)
(0.23325214 -0.014362471 -1.1380175e-20)
(0.28039172 -0.017469006 8.8779245e-21)
(0.3298463 -0.019916871 -2.3903276e-20)
(0.38116911 -0.02167877 8.0504893e-21)
(0.43389119 -0.022759956 1.67564e-20)
(0.48751973 -0.02319439 -2.6395164e-21)
(0.54154757 -0.023046989 1.6618994e-21)
(0.5954359 -0.022469552 -3.1957594e-22)
(0.64851831 -0.02187022 1.9590435e-20)
(0.7008229 -0.021445187 4.043403e-21)
(0.75745203 -0.018499216 -5.7336005e-22)
(-0.0019110126 0.0040273476 2.3692127e-20)
(0.0038694398 0.0046765157 5.7160008e-20)
(0.020315335 0.0031879552 -4.9244249e-20)
(0.045178329 0.00029441133 -9.9454218e-21)
(0.07696522 -0.0034241729 2.0256353e-20)
(0.11469632 -0.0073536136 2.1433724e-21)
(0.15753896 -0.011054991 -2.9815168e-20)
(0.20474847 -0.014244181 6.9848075e-21)
(0.25564969 -0.016737977 7.1097961e-21)
(0.30960496 -0.018427013 -2.625409e-20)
(0.36598675 -0.019260161 1.2927349e-21)
(0.42415989 -0.019231937 -3.717413e-20)
(0.48347136 -0.018372281 -3.6341037e-20)
(0.54324604 -0.016738362 6.5683522e-20)
(0.60278854 -0.014407397 5.5627522e-21)
(0.6613893 -0.011476002 -1.5188808e-20)
(0.71830832 -0.0081021587 1.9363979e-20)
(0.77269951 -0.0045929892 -9.1888199e-22)
(0.82408886 -0.00096818231 2.0364584e-20)
(0.87622019 0.0043279233 -1.9554167e-20)
(-0.018836372 -0.0050997116 5.8352117e-20)
(-0.010224596 -0.0056349358 1.5783681e-20)
(-0.00022111953 -0.0060688894 -3.5139595e-20)
(0.010823319 -0.0063341196 1.6790256e-20)
(0.022642579 -0.0065120575 0)
(0.03517802 -0.006630101 0)
(0.04836982 -0.0066909849 -2.2974976e-20)
(0.062138262 -0.0067025518 -1.6502891e-20)
(0.076412932 -0.0066741867 1.912262e-20)
(0.091134324 -0.0066126786 1.8174059e-20)
(0.10624746 -0.0065232192 1.0524264e-21)
(0.12170055 -0.0064103719 -1.031765e-20)
(0.13744527 -0.0062780955 8.3268942e-21)
(0.15343642 -0.0061297372 1.8233742e-20)
(0.16963123 -0.0059681604 -5.2274286e-21)
(0.18598906 -0.0057958504 -1.0174949e-20)
(0.20247115 -0.0056149783 -4.3195934e-21)
(0.21904046 -0.0054274532 -4.425743e-21)
(0.23566159 -0.0052349672 7.3667219e-22)
(0.25230066 -0.0050390306 1.2286064e-21)
(0.26892532 -0.0048409985 2.5666386e-21)
(0.28550481 -0.0046420905 6.6539596e-21)
(0.30200993 -0.004443406 2.489403e-22)
(0.31841315 -0.0042459343 -3.4514786e-21)
(0.33468861 -0.004050563 1.5558696e-22)
(0.35081226 -0.0038580837 -5.7709948e-22)
(0.36676183 -0.0036691964 1.2434402e-21)
(0.38251692 -0.0034845134 1.0522451e-21)
(0.39805901 -0.0033045633 -1.2988023e-21)
(0.41337148 -0.0031297943 -1.221868e-22)
(0.4284396 -0.0029605782 3.5744118e-23)
(0.44325052 -0.0027972151 -3.5187788e-22)
(0.45779323 -0.002639938 -4.0565971e-22)
(0.47205857 -0.0024889184 5.5417077e-23)
(0.4860391 -0.0023442715 -1.3809167e-22)
(0.49972915 -0.0022060627 -2.2343353e-22)
(0.51312469 -0.0020743142 2.5572216e-22)
(0.52622338 -0.0019490118 2.9502402e-22)
(0.53902442 -0.0018301136 -8.2738195e-24)
(0.55152893 -0.0017175543 -1.5518159e-22)
(0.56373888 -0.001611273 3.0407049e-23)
(0.57566085 -0.0015111693 -4.0146367e-23)
(0.58729505 -0.0014173142 9.2211858e-23)
(0.59867047 -0.0013293715 2.1976781e-23)
(0.60974149 -0.0012486248 -1.1396714e-22)
(0.62070016 -0.0011718644 -6.7639742e-24)
(0.63106877 -0.0011113218 -7.1699426e-26)
(0.6423582 -0.0010340304 -3.5640405e-24)
(0.65043666 -0.0010508977 2.945289e-23)
(0.66701943 -0.00087566396 3.6053198e-22)
(0.010445955 -0.015017637 -1.2746837e-20)
(0.018179801 -0.016641043 -6.3302411e-20)
(0.027779338 -0.017915447 -3.0541984e-20)
(0.038385289 -0.018672107 3.8476065e-20)
(0.049621155 -0.019183627 1.4662632e-20)
(0.061506822 -0.019529473 -1.8204958e-20)
(0.074013042 -0.019709908 4.6722122e-21)
(0.087062921 -0.019746537 2.5447226e-20)
(0.10059343 -0.019667328 9.1989812e-23)
(0.11455433 -0.019491749 -7.6591385e-21)
(0.12889753 -0.01923441 -1.3021031e-20)
(0.14357641 -0.018908364 -8.5245478e-21)
(0.15854708 -0.018525026 1.7772363e-20)
(0.17376803 -0.018094056 8.9295722e-21)
(0.18919952 -0.017623736 -1.6522459e-20)
(0.20480334 -0.01712129 -6.0390685e-21)
(0.22054278 -0.016593057 3.2145083e-21)
(0.23638245 -0.016044632 8.3716437e-21)
(0.2522883 -0.015480995 6.9832422e-21)
(0.26822756 -0.014906606 -6.9727376e-21)
(0.28416884 -0.01432548 -3.1685629e-21)
(0.30008208 -0.013741242 1.3605464e-21)
(0.31593872 -0.013157168 3.8684093e-22)
(0.33171169 -0.012576213 1.2114016e-21)
(0.34737554 -0.012001032 1.8368705e-22)
(0.36290647 -0.011434 -3.2662036e-22)
(0.37828243 -0.01087722 -7.2435413e-22)
(0.39348311 -0.010332534 9.7157802e-22)
(0.40849004 -0.0098015389 8.2483845e-22)
(0.42328657 -0.0092855887 -1.5148305e-22)
(0.43785787 -0.0087858125 5.5306923e-22)
(0.45219094 -0.0083031249 -2.3881062e-22)
(0.46627458 -0.0078382405 -3.707071e-22)
(0.48009934 -0.0073916896 -6.1000098e-22)
(0.4936575 -0.0069638352 4.4172188e-22)
(0.50694304 -0.0065548914 -1.5486436e-23)
(0.51995157 -0.0061649428 1.612569e-22)
(0.53268031 -0.0057939645 -4.4176276e-22)
(0.54512806 -0.00544185 3.7191511e-22)
(0.55729546 -0.0051084208 6.7177679e-23)
(0.56918402 -0.0047935123 -1.0285682e-22)
(0.58079982 -0.0044968407 1.7615222e-22)
(0.5921426 -0.0042186351 2.3342204e-22)
(0.60324064 -0.0039579057 1.6928816e-22)
(0.61404849 -0.0037184988 1.6770069e-22)
(0.62475531 -0.0034908578 -2.6105537e-23)
(0.63488981 -0.0033114356 8.4075266e-23)
(0.6459399 -0.0030821094 7.6323483e-23)
(0.65383882 -0.003132628 -1.9471112e-22)
(0.6701026 -0.0026127484 -3.8017898e-23)
(0.067614836 -0.024029193 9.4528433e-21)
(0.073589835 -0.0267491 3.2951057e-21)
(0.082265691 -0.028805624 -1.2162224e-20)
(0.091948026 -0.029968563 -1.2257958e-21)
(0.10198344 -0.030767927 1.4970612e-20)
(0.11254659 -0.031330957 -1.4887144e-20)
(0.12367625 -0.03163614 -2.9842319e-20)
(0.13529713 -0.031713078 1.4493547e-20)
(0.1473573 -0.031607711 1.8181998e-20)
(0.15982381 -0.031350134 -1.1598537e-20)
(0.17266101 -0.030961901 1.0190569e-21)
(0.18583128 -0.030462837 8.6860217e-21)
(0.19929834 -0.029870638 -1.5253572e-20)
(0.21302712 -0.029200328 2.9095376e-21)
(0.22698303 -0.028464852 7.519454e-21)
(0.24113206 -0.027675599 3.1584434e-23)
(0.25544087 -0.026842655 2.6555538e-22)
(0.26987684 -0.025974996 -7.4151077e-21)
(0.28440816 -0.025080667 3.8617096e-21)
(0.2990039 -0.024166924 8.4749327e-21)
(0.31363413 -0.023240341 -3.8351891e-21)
(0.32826999 -0.022306885 -2.2130418e-21)
(0.34288387 -0.02137197 1.0124419e-21)
(0.35744945 -0.020440504 -1.715542e-21)
(0.37194184 -0.019516915 1.3532293e-21)
(0.38633764 -0.018605171 7.1846143e-22)
(0.40061506 -0.017708804 1.5268634e-21)
(0.41475391 -0.016830917 -1.9526881e-21)
(0.42873572 -0.015974207 2.2236007e-21)
(0.44254371 -0.015140976 5.518928e-22)
(0.45616283 -0.014333154 4.0324569e-22)
(0.46957975 -0.013552314 3.2134668e-22)
(0.48278283 -0.012799701 8.7327373e-22)
(0.49576214 -0.012076253 -1.3708982e-21)
(0.50850936 -0.011382632 3.7066817e-22)
(0.52101782 -0.010719251 1.0942619e-22)
(0.5332824 -0.01008631 -4.5176868e-23)
(0.54529958 -0.0094838242 8.6727993e-23)
(0.55706732 -0.0089116744 -3.7186597e-22)
(0.56858543 -0.0083696203 1.8294688e-22)
(0.57985451 -0.007857443 -3.4988719e-23)
(0.59087973 -0.0073747243 3.9008199e-22)
(0.60165999 -0.0069218938 -1.8546645e-22)
(0.61222221 -0.0064973628 4.732909e-23)
(0.62252123 -0.0061075214 4.3611166e-23)
(0.63274084 -0.0057366803 -7.3615943e-23)
(0.64242188 -0.0054447861 -1.208695e-22)
(0.6530083 -0.0050709066 3.8820388e-22)
(0.66055884 -0.0051547023 1.72747e-22)
(0.67620434 -0.0043075303 -8.3045563e-22)
(0.15021552 -0.031460497 1.5010148e-21)
(0.15354714 -0.035257468 -1.1566622e-20)
(0.1606165 -0.038010998 6.6442008e-21)
(0.1688062 -0.039479181 -1.3324758e-20)
(0.17698256 -0.040520777 -1.9758336e-21)
(0.18552381 -0.041302372 9.1599568e-21)
(0.19458457 -0.041757333 -9.766239e-21)
(0.20408732 -0.041913811 1.5662736e-21)
(0.21398812 -0.041833435 1.2903819e-20)
(0.22427646 -0.041554444 3.4032097e-21)
(0.23493305 -0.041102157 -6.2097057e-21)
(0.24593076 -0.040500566 -2.8638197e-21)
(0.25724218 -0.039771869 -5.8409076e-21)
(0.26883976 -0.03893518 -6.4553302e-21)
(0.28069492 -0.038007103 3.2356866e-21)
(0.29277837 -0.037002434 8.4619762e-22)
(0.30506054 -0.035934461 1.3679661e-21)
(0.31751185 -0.034815161 -3.3850487e-21)
(0.33010288 -0.033655392 -4.2429063e-21)
(0.34280462 -0.032465043 2.3616623e-21)
(0.35558863 -0.031253148 3.2251554e-21)
(0.36842727 -0.030027971 -1.5636355e-21)
(0.38129382 -0.028797061 1.5867365e-21)
(0.39416264 -0.027567297 -3.9124709e-22)
(0.40700932 -0.026344913 -3.9196773e-21)
(0.41981075 -0.025135527 -3.033298e-21)
(0.43254525 -0.023944157 -1.9027002e-22)
(0.44519263 -0.022775236 4.2858464e-22)
(0.45773424 -0.021632634 -2.2106191e-21)
(0.47015299 -0.020519678 -8.5499436e-22)
(0.48243343 -0.019439174 2.2837776e-22)
(0.49456166 -0.018393438 -1.2498942e-21)
(0.50652542 -0.017384324 6.2569527e-24)
(0.51831401 -0.016413263 -4.2422311e-22)
(0.52991828 -0.015481296 -4.7194111e-22)
(0.54133062 -0.01458912 -5.1998489e-22)
(0.55254494 -0.01373713 -8.4137411e-22)
(0.56355664 -0.012925468 -5.4493444e-23)
(0.57436258 -0.012154079 -3.9161418e-24)
(0.58496138 -0.011422741 -5.1975561e-22)
(0.59535248 -0.010731258 -9.1606059e-23)
(0.60553974 -0.010079153 -3.324247e-22)
(0.61552099 -0.0094671187 -4.3765207e-22)
(0.62532122 -0.008893058 3.7846927e-22)
(0.63489582 -0.0083658567 1.4823532e-23)
(0.64442089 -0.0078640667 1.8241397e-22)
(0.65345477 -0.0074698689 -1.3251518e-22)
(0.66337827 -0.0069635178 -2.669857e-22)
(0.67043085 -0.007079789 -4.4650416e-23)
(0.6851896 -0.0059334075 4.62332e-22)
(0.25468597 -0.036552843 -2.0900341e-20)
(0.25447053 -0.0413936 4.7586004e-20)
(0.25907367 -0.044745754 1.0348106e-20)
(0.26508449 -0.046442144 -1.5765338e-20)
(0.27070971 -0.047714421 -2.0227997e-21)
(0.27652035 -0.048747887 2.6232263e-21)
(0.28283593 -0.049413835 -1.6608259e-21)
(0.28957736 -0.049728221 -4.6861483e-21)
(0.29669707 -0.049761557 -4.0159225e-21)
(0.30420599 -0.049557184 -1.2207657e-20)
(0.31210274 -0.049141823 1.7897791e-20)
(0.32036996 -0.048540943 6.522007e-21)
(0.32898762 -0.047779111 -1.6780552e-20)
(0.3379347 -0.046878169 1.0317579e-20)
(0.34718779 -0.045857455 8.3849933e-21)
(0.35672151 -0.044734473 -8.7922511e-22)
(0.36650926 -0.043525231 -3.1222196e-21)
(0.37652376 -0.042244417 -3.819753e-21)
(0.38673734 -0.040905533 -1.3892677e-21)
(0.39712229 -0.039521031 -1.2304286e-21)
(0.40765115 -0.038102405 -3.0257818e-21)
(0.41829692 -0.036660258 0)
(0.42903334 -0.035204349 -1.3452023e-21)
(0.43983503 -0.033743623 3.9309683e-21)
(0.45067763 -0.032286235 5.405304e-21)
(0.46153797 -0.030839568 -9.4112822e-22)
(0.47239417 -0.029410249 -2.9274813e-21)
(0.48322569 -0.028004164 3.0258851e-21)
(0.49401341 -0.026626481 2.5446162e-22)
(0.50473968 -0.025281673 3.4352979e-21)
(0.51538833 -0.023973546 -5.3460021e-22)
(0.52594472 -0.022705274 1.717372e-21)
(0.53639566 -0.021479442 -7.9966313e-22)
(0.54672949 -0.020298083 2.9095703e-22)
(0.556936 -0.019162734 -4.3405698e-22)
(0.56700644 -0.018074485 5.6232963e-22)
(0.57693351 -0.017034037 4.5711781e-22)
(0.58671136 -0.016041759 3.8257387e-22)
(0.5963355 -0.015097766 -9.5941065e-22)
(0.60580322 -0.014201956 6.8359406e-22)
(0.61511256 -0.013354249 -3.6959781e-22)
(0.62426588 -0.012554205 -1.1034142e-21)
(0.63325973 -0.011802857 1.4079633e-21)
(0.64211687 -0.011097711 -6.201302e-23)
(0.65079345 -0.010450074 -1.5818497e-22)
(0.65945602 -0.0098332418 -7.8263382e-24)
(0.66768515 -0.0093499131 -1.2626012e-22)
(0.67678188 -0.0087269209 -4.6594223e-22)
(0.68321424 -0.0088744512 8.7879856e-22)
(0.6968615 -0.0074658133 -4.4320475e-23)
(0.37635169 -0.038368272 -1.749512e-20)
(0.37171018 -0.04427034 1.2832059e-20)
(0.37286733 -0.048161729 2.9754659e-21)
(0.37591091 -0.050098973 -7.6353829e-21)
(0.37830574 -0.0516701 1.2055998e-20)
(0.38072343 -0.053042507 7.7914218e-21)
(0.38367654 -0.054030179 -1.2647703e-20)
(0.38710113 -0.054633248 -6.0679849e-21)
(0.39092982 -0.054918154 1.2697358e-20)
(0.39518305 -0.05492729 -1.5305008e-20)
(0.3998749 -0.054687676 -1.4063213e-20)
(0.40499576 -0.054224819 1.4129671e-20)
(0.41052935 -0.053563831 6.8193959e-21)
(0.41645795 -0.052728126 -4.2037942e-21)
(0.42276096 -0.051739199 -1.8545512e-21)
(0.4294149 -0.050616937 -4.058166e-21)
(0.43639439 -0.049379895 5.3047554e-21)
(0.44367293 -0.048045426 3.6682165e-21)
(0.45122327 -0.046629752 -3.2408327e-21)
(0.45901788 -0.045148025 3.1379556e-21)
(0.46702923 -0.043614375 2.7666945e-21)
(0.47523014 -0.042041949 -3.2111292e-21)
(0.48359398 -0.040442931 3.7056668e-22)
(0.49209494 -0.038828553 -3.257173e-21)
(0.50070811 -0.037209109 7.2454907e-21)
(0.5094097 -0.035593958 6.1081111e-21)
(0.5181771 -0.033991541 8.0974986e-22)
(0.52698901 -0.032409392 -1.7683382e-21)
(0.53582544 -0.030854163 3.7022412e-21)
(0.54466783 -0.029331648 7.1886395e-21)
(0.55349901 -0.02784682 2.3049591e-21)
(0.56230327 -0.026403874 3.3165535e-21)
(0.57106632 -0.02500627 1.9956578e-21)
(0.5797753 -0.023656796 7.4559981e-22)
(0.58841876 -0.022357618 -2.6374817e-22)
(0.59698666 -0.021110353 2.7204015e-21)
(0.60547036 -0.019916131 6.1994378e-22)
(0.61386262 -0.018775674 2.9488828e-22)
(0.62215754 -0.017689384 5.6234459e-23)
(0.63035094 -0.016657387 9.8972616e-22)
(0.6384394 -0.015679829 4.7022257e-23)
(0.64642368 -0.01475641 4.4251267e-22)
(0.65429906 -0.013888582 -1.2622924e-22)
(0.6620858 -0.013073581 -2.7738248e-22)
(0.66974117 -0.012325034 -1.5220871e-22)
(0.67742067 -0.011611571 -4.2215689e-22)
(0.68473109 -0.01105434 1.6144511e-22)
(0.69288019 -0.010333192 -1.2726479e-22)
(0.69860354 -0.010510405 -5.0124327e-22)
(0.71096773 -0.0088828619 2.4589671e-22)
(0.50927475 -0.0359744 3.6471418e-21)
(0.49953086 -0.042960787 -1.8958316e-20)
(0.49627604 -0.04738359 -2.3083881e-21)
(0.49555642 -0.0497369 5.4869568e-21)
(0.49417004 -0.051818171 3.0528164e-21)
(0.49269627 -0.053705543 -4.9880609e-23)
(0.49181285 -0.055187786 6.1896829e-21)
(0.49151509 -0.056265541 7.6251142e-21)
(0.49171228 -0.056990681 9.8580525e-21)
(0.49241136 -0.057395727 -1.1250061e-20)
(0.49363171 -0.057506459 -2.1579465e-20)
(0.49536848 -0.05734858 -3.9353617e-21)
(0.49760542 -0.056947298 1.5938178e-20)
(0.5003238 -0.056327181 1.2808987e-20)
(0.50350248 -0.05551191 -5.9066994e-21)
(0.5071174 -0.054524028 1.3816947e-21)
(0.51114232 -0.053384971 -3.6601041e-21)
(0.51554972 -0.052115131 2.2444043e-21)
(0.52031132 -0.050733844 -2.9123085e-22)
(0.52539843 -0.049259367 -1.8654172e-21)
(0.53078241 -0.047708869 7.8266326e-21)
(0.53643487 -0.046098425 -2.9309665e-22)
(0.542328 -0.044443011 4.1819051e-22)
(0.54843477 -0.042756492 -6.5645958e-22)
(0.55472907 -0.04105162 -4.3029651e-21)
(0.56118586 -0.039340033 4.2085446e-21)
(0.56778131 -0.037632263 1.9031278e-21)
(0.57449284 -0.03593775 -3.3082189e-21)
(0.58129922 -0.034264865 -4.1116679e-21)