/*--------------------------------*- C++ -*----------------------------------*\
  =========                 |
  \\      /  F ield         | OpenFOAM: The Open Source CFD Toolbox
   \\    /   O peration     | Website:  https://openfoam.org
    \\  /    A nd           | Version:  6
     \\/     M anipulation  |
\*---------------------------------------------------------------------------*/
FoamFile
{
    version     2.0;
    format      ascii;
    class       surfaceScalarField;
    location    "139";
    object      phi;
}
// * * * * * * * * * * * * * * * * * * * * * * * * * * * * * * * * * * * * * //

dimensions      [0 3 -1 0 0 0 0];

internalField   nonuniform List<scalar> 
18180
(
0.00031873099
-0.0001631636
-0.0001555674
0.001309218
-0.0013669305
0.0003764435
0.0030329035
-0.0033336495
0.001609964
0.0055498022
-0.0059760075
0.0034591088
0.0089182425
-0.0092391506
0.0058707103
0.013192879
-0.013079626
0.0088049902
0.018422033
-0.017459967
0.012230813
0.024644725
-0.022345959
0.016123267
0.031887522
-0.027703511
0.020460713
0.040161468
-0.033496039
0.025222093
0.049459391
-0.03968271
0.030384787
0.059753983
-0.046217521
0.035922929
0.070997031
-0.053049201
0.041806153
0.083120271
-0.060121976
0.047998735
0.096038476
-0.067377267
0.054459062
0.10965529
-0.074756463
0.06113965
0.12387124
-0.082204587
0.067988636
0.13859898
-0.0896746
0.074946863
0.15383707
-0.097149372
0.081911276
-0.10462653
0.088679465
0.16978414
0.00039749904
-0.00056066265
0.0016096025
-0.002579034
0.0036893356
-0.0054133826
0.006687475
-0.0089741469
0.010650701
-0.013202377
0.01561794
-0.018046866
0.021616355
-0.023458382
0.028657382
-0.029386985
0.036733099
-0.035779228
0.045813331
-0.04257627
0.055843907
-0.049713286
0.066746452
-0.057120066
0.078419936
-0.064722685
0.090744074
-0.072446114
0.10358438
-0.080217568
0.11679823
-0.087970317
0.1302411
-0.095647455
0.14377329
-0.10320679
0.15725886
-0.11063495
-0.11786243
0.17049476
0.00048062563
-0.0010412883
0.0019187068
-0.0040171151
0.0043524978
-0.0078471737
0.0078165969
-0.012438246
0.012337716
-0.017723496
0.01792928
-0.02363843
0.024586346
-0.030115448
0.032281334
-0.037081973
0.040960991
-0.044458886
0.050545098
-0.052160377
0.060927268
-0.060095457
0.071978026
-0.068170824
0.083550032
-0.076294691
0.095485053
-0.084381134
0.10762193
-0.092354444
0.11980449
-0.10015288
0.13188822
-0.10773118
0.14374367
-0.11506224
0.15524886
-0.12214014
-0.12891478
0.16630121
0.00056617209
-0.0016074604
0.0022279516
-0.0056788946
0.0050006313
-0.010619853
0.0088940454
-0.01633166
0.013905311
-0.022734761
0.020011955
-0.029745074
0.027166583
-0.037270076
0.035293535
-0.045208924
0.044287997
-0.053453348
0.054017936
-0.061890316
0.064328894
-0.070406414
0.075051314
-0.078893244
0.08600971
-0.087253087
0.097032679
-0.095404103
0.10796263
-0.1032844
0.11866411
-0.11085435
0.12902977
-0.11809685
0.13898305
-0.12501553
0.14847496
-0.13163204
-0.13794564
0.15750582
0.00065088882
-0.0022583492
0.0025243512
-0.0075523571
0.0056036551
-0.013699157
0.0098645001
-0.020592505
0.015264664
-0.028134925
0.021736481
-0.036216892
0.029182572
-0.044716167
0.037475003
-0.053501355
0.046458126
-0.062436471
0.055954972
-0.071387162
0.065776572
-0.080228014
0.075733152
-0.088849824
0.085645848
-0.097165784
0.09535751
-0.10511577
0.1047413
-0.11266819
0.11370625
-0.1198193
0.12219939
-0.12658999
0.13020455
-0.13302069
0.13773795
-0.13916543
-0.14506797
0.14486028
0.0007306385
-0.0029889877
0.002792096
-0.0096138146
0.0061265949
-0.017033656
0.010666746
-0.025132657
0.0163227
-0.033790878
0.022975309
-0.042869501
0.03047451
-0.052215367
0.038642491
-0.061669336
0.047281289
-0.071075269
0.056183837
-0.08028971
0.065146986
-0.089191163
0.073984688
-0.097687526
0.082539556
-0.10572065
0.09069135
-0.11326756
0.098361474
-0.12033831
0.10551329
-0.12697112
0.11214874
-0.13322544
0.11830231
-0.13917426
0.12403349
-0.14489661
-0.15046365
0.12942918
0.00080073388
-0.0037897216
0.0030139256
-0.011827006
0.006532914
-0.020552644
0.011240084
-0.029839826
0.016992742
-0.039543537
0.023618602
-0.049495361
0.030918282
-0.059515048
0.038673391
-0.069424446
0.046658847
-0.079060725
0.054657467
-0.088288331
0.062474518
-0.097008214
0.069949998
-0.10516301
0.076966984
-0.11273764
0.083455094
-0.11975567
0.089389073
-0.12627229
0.094783244
-0.13236529
0.099683199
-0.1381254
0.10415635
-0.14364741
0.10828293
-0.14902319
-0.15433389
0.11215316
0.00085606131
-0.0046457829
0.0031720696
-0.014143015
0.0067872438
-0.024167819
0.01152983
-0.034582413
0.017203472
-0.045217178
0.023586595
-0.055878484
0.030439926
-0.066368379
0.03751938
-0.0765039
0.044591847
-0.086133191
0.051451041
-0.095147525
0.057930654
-0.10348783
0.063912777
-0.11114513
0.06933062
-0.11815548
0.07416564
-0.12459069
0.078440171
-0.13054682
0.08220722
-0.13613234
0.085539353
-0.14145753
0.08851838
-0.14662644
0.091227145
-0.15173195
-0.15685234
0.093745597
0.00089026477
-0.0055360476
0.0032482913
-0.016501041
0.0068576377
-0.027777165
0.011492488
-0.039217263
0.01690684
-0.05063153
0.02283893
-0.061810574
0.029023705
-0.072553154
0.035209281
-0.082689476
0.04117395
-0.092097859
0.046740403
-0.10071398
0.051784643
-0.10853207
0.056238371
-0.11559886
0.060085077
-0.12200218
0.063351157
-0.12785677
0.066094094
-0.13328976
0.068389906
-0.13842815
0.070321745
-0.14338937
0.071971028
-0.14827572
0.073411689
-0.15317261
-0.15814796
0.074707313
0.00089982038
-0.006435868
0.0032333874
-0.018834608
0.0067291767
-0.031272954
0.011111195
-0.043599281
0.016092507
-0.055612842
0.021384645
-0.067102712
0.026713903
-0.077882412
0.031839126
-0.087814699
0.036567082
-0.096825816
0.04076225
-0.10490915
0.044349431
-0.11211925
0.047309282
-0.11855871
0.049668313
-0.12436122
0.051485694
-0.12967415
0.052839378
-0.13464345
0.053813646
-0.13940242
0.05448951
-0.14406523
0.054938593
-0.1487248
0.055220295
-0.15345431
0.055380703
-0.15830837
-0.00020237929
0.00020237933
-3.763989e-11
-0.00067774978
0.00047537049
-2.6848792e-11
-0.0013424321
0.00066468232
-2.2311253e-11
-0.0021323039
0.00078987173
-2.8860683e-11
-0.0029957862
0.00086348236
-3.4823042e-11
-0.0038907566
0.00089497043
-3.8704989e-11
-0.0047823149
0.0008915583
-3.7623274e-11
-0.0056409142
0.00085859935
-3.6176357e-11
-0.0064408906
0.00079997639
-3.2685048e-11
-0.0071593119
0.0007184213
-3.0554256e-11
-0.0077750594
0.00061574756
-2.7821009e-11
-0.0082680928
0.00049303339
-2.5838106e-11
-0.0086188701
0.0003507773
-2.3351289e-11
-0.0088079145
0.00018904447
-2.0647218e-11
-0.0088155593
7.6448282e-06
-1.7427439e-11
-0.0086219715
-0.00019358785
-1.3475184e-11
-0.0082074154
-0.00041455607
-9.2396536e-12
-0.0075518478
-0.00065556758
-4.2640826e-12
-0.006634512
-0.00091733583
6.371901e-13
-0.0011862572
-0.0054482548
5.2896257e-12
-0.00018797537
0.00039035471
-0.00062500996
0.00091240506
-0.0012287588
0.0012684311
-0.0019352029
0.0014963158
-0.0026921504
0.0016204298
-0.0034562976
0.0016591176
-0.0041910824
0.0016263431
-0.0048648748
0.0015323918
-0.0054495397
0.0013846412
-0.0059193008
0.0011881824
-0.0062498261
0.0009462729
-0.0064174857
0.00066069294
-0.0063987468
0.00033203838
-0.0061696949
-4.0007392e-05
-0.0057057088
-0.00045634129
-0.00498138
-0.00091791666
-0.0039707289
-0.0014252072
-0.0026471255
-0.001979171
-0.00098313929
-0.002581322
-0.0032018442
0.0010324478
-0.00015892852
0.00054928324
-0.00051889352
0.00127237
-0.0010007738
0.0017503114
-0.0015412648
0.0020368067
-0.0020873564
0.0021665213
-0.0025937421
0.0021655032
-0.0030208744
0.0020534754
-0.0033332977
0.0018448151
-0.0034983025
0.001549646
-0.0034848494
0.0011747293
-0.0032626852
0.00072410877
-0.0028016234
0.00019963108
-0.0020709098
-0.00039867523
-0.0010387092
-0.001072208
0.00032832413
-0.0018233746
0.0020653231
-0.0026549157
0.0042091675
-0.0035690515
0.0067981777
-0.0045681812
0.0098720458
-0.0056551902
-0.0067798515
0.013450053
-0.00011756729
0.00066685055
-0.00036699945
0.0015218022
-0.00067351494
0.0020568268
-0.00097482676
0.0023381185
-0.001216854
0.0024085486
-0.0013515918
0.002300241
-0.0013354536
0.0020373371
-0.0011278165
0.001637178
-0.00068982497
0.0011116544
1.6561553e-05
0.00046834278
0.0010293528
-0.00028868245
0.0023871744
-0.0011581906
0.0041298135
-0.0021413143
0.0062986999
-0.0032410943
0.0089374123
-0.0044620871
0.012092235
-0.0058097385
0.015812533
-0.0072893493
0.02015045
-0.008906098
0.025160697
-0.010665437
-0.0124928
0.030873645
-6.690762e-05
0.00073375819
-0.00017916612
0.0016340607
-0.00026653235
0.002144193
-0.00026768785
0.002339274
-0.00012718703
0.0022680477
0.00020617957
0.0019668744
0.00078071388
0.0014628028
0.0016429797
0.00077491215
0.0028387726
-8.4138404e-05
0.0044139052
-0.0011067899
0.0064147716
-0.0022895488
0.0088887629
-0.0036321819
0.011884593
-0.0051371445
0.015452629
-0.00680913
0.019645263
-0.0086547212
0.024517535
-0.010682011
0.03012801
-0.012899824
0.036539286
-0.015317374
0.04381876
-0.017944912
-0.020682803
0.052008764
-9.9842539e-06
0.00074374246
3.4536682e-05
0.0015895398
0.00019989449
0.0019788352
0.00054677431
0.0019923942
0.001132262
0.0016825601
0.0020110046
0.0010881317
0.0032361749
0.00023763248
0.0048603539
-0.00084926681
0.0069361885
-0.002159973
0.0095167662
-0.0036873676
0.012655823
-0.0054286056
0.016407848
-0.0073842071
0.020828011
-0.0095573076
0.025972
-0.011953119
0.031895923
-0.014578644
0.03865661
-0.017442697
0.046312792
-0.020556006
0.054927168
-0.02393175
0.064570236
-0.02758798
-0.031405947
0.07529338
5.0752e-05
0.00069299046
0.00026566068
0.0013746311
0.00070826133
0.0015362346
0.0014390435
0.001261612
0.0025168422
0.00060476139
0.0039995999
-0.000394626
0.0059449629
-0.0017077305
0.0084106702
-0.0033149741
0.011454684
-0.0052039869
0.015135159
-0.0073678421
0.019510172
-0.009803619
0.024637199
-0.012511234
0.030572374
-0.015492483
0.037369598
-0.018750342
0.045079597
-0.022288643
0.053749383
-0.026112483
0.063423067
-0.030229689
0.074145246
-0.03465393
0.085969955
-0.039412688
-0.04438894
0.098952947
0.00011379728
0.00057919319
0.00050850743
0.00097992097
0.0012459917
0.00079875029
0.002386795
0.00012080876
0.0039912693
-0.00099971286
0.0061199188
-0.0025232755
0.0088333807
-0.0044211924
0.012192248
-0.0066738419
0.016256667
-0.0092684053
0.021085586
-0.012196761
0.026735725
-0.015453758
0.033260242
-0.019035751
0.040707151
-0.022939392
0.04911751
-0.027160702
0.058523529
-0.031694662
0.068946942
-0.036535896
0.080398826
-0.041681574
0.09288272
-0.047137824
0.10640613
-0.052936093
-0.058996174
0.12101336
0.00017849705
0.00040069613
0.00076003492
0.00039838311
0.0018053505
-0.00024656532
0.003374735
-0.0014485757
0.0055290299
-0.0031540077
0.0083293706
-0.0053236162
0.011836562
-0.0079283839
0.016110156
-0.010947436
0.02120717
-0.014365419
0.027180465
-0.018170057
0.034076818
-0.022350111
0.041934722
-0.026893654
0.050781952
-0.031786622
0.060632935
-0.037011685
0.071485894
-0.042547621
0.083319839
-0.048369841
0.096092364
-0.054454098
0.10974098
-0.060786442
0.12419661
-0.067391717
-0.074275166
0.1394756
0.00024512872
0.0010199553
0.002383354
0.0043938871
0.0071105898
0.010591964
0.014894393
0.020070224
0.026165518
0.033217555
0.041252231
0.050281505
0.060301036
0.071288086
0.083199527
0.095969336
0.10950387
0.12366429
0.13818385
0.15258815
-0.0035075974
-0.0019406574
1.251165e-11
-0.0012857759
-0.0022218216
1.8286485e-11
0.0011948748
-0.0024806508
2.4005531e-11
0.0038774554
-0.0026825806
2.9712526e-11
0.0067351621
-0.0028577068
3.4486041e-11
0.0097506894
-0.0030155273
4.068756e-11
0.012905103
-0.0031544133
4.2379173e-11
0.016180379
-0.0032752769
4.1948494e-11
0.019560819
-0.0033804391
3.8224699e-11
0.023032201
-0.0034713827
3.1002891e-11
0.026581241
-0.00354904
1.913744e-11
0.030195514
-0.0036142726
2.2160522e-12
0.033863376
-0.0036678623
-2.0665473e-11
0.037573832
-0.0037104559
-4.9485549e-11
0.04131643
-0.0037425983
-8.4434856e-11
0.0450812
-0.0037647689
-1.2469536e-10
0.048858599
-0.0037773992
-1.6951095e-10
0.052639485
-0.0037808858
-2.1696654e-10
0.05641509
-0.0037756052
-2.6495303e-10
0.060177016
-0.0037619253
-3.099902e-10
0.06391723
-0.0037402141
-3.4832002e-10
0.067628077
-0.0037108458
-3.7478934e-10
0.071302282
-0.0036742051
-3.8425282e-10
0.074932971
-0.0036306888
-3.7047296e-10
0.078513678
-0.0035807067
-3.2812069e-10
0.082038358
-0.0035246795
-2.5161265e-10
0.085501396
-0.0034630377
-1.3803351e-10
0.088897614
-0.0033962178
1.4350597e-11
0.092222273
-0.0033246591
2.0198642e-10
0.095471072
-0.0032487998
4.1847242e-10
0.098640146
-0.0031690744
6.493122e-10
0.10172605
-0.0030859091
8.7647382e-10
0.10472577
-0.00299972
1.0723719e-09
0.10763668
-0.0029109107
1.2082976e-09
0.11045655
-0.0028198709
1.2483396e-09
0.11318353
-0.0027269766
1.1636131e-09
0.11581612
-0.0026325907
9.2609929e-10
0.11835318
-0.0025370659
5.2961987e-10
0.12079393
-0.0024407519
-1.8214985e-11
0.12313793
-0.0023439958
-6.718254e-10
0.12538512
-0.0022471845
-1.3626844e-09
0.12753579
-0.0021506702
-1.9836007e-09
0.12959094
-0.0020551443
-2.4123953e-09
0.13155153
-0.0019605963
-2.5144683e-09
0.13342169
-0.0018701516
-2.1885103e-09
0.13519992
-0.0017782271
-1.4022719e-09
0.1369107
-0.0017107852
-1.928947e-10
0.13850989
-0.0015991921
1.195717e-09
0.14019841
-0.0016885162
2.6837897e-09
-0.0013330192
3.1388635e-09
0.0028530935
-0.0037613032
0.0049502743
-0.0043190024
0.0072931719
-0.0048235483
0.0098193439
-0.0052087526
0.012507729
-0.0055460922
0.015346003
-0.0058538009
0.018317424
-0.0061258343
0.021405586
-0.0063634389
0.02459647
-0.0065713234
0.027877314
-0.0067522269
0.031235987
-0.0069077123
0.034661006
-0.0070392922
0.038141516
-0.0071483723
0.041667171
-0.0072361103
0.045228052
-0.0073034793
0.048814626
-0.0073513436
0.052417716
-0.0073804886
0.056028475
-0.0073916454
0.059638386
-0.0073855158
0.063239254
-0.0073627939
0.066823222
-0.0073241813
0.070382774
-0.0072703981
0.073910758
-0.0072021893
0.077400397
-0.007120328
0.080845306
-0.0070256155
0.084239504
-0.0069188773
0.087577425
-0.0068009592
0.090853929
-0.0066727211
0.094064299
-0.0065350291
0.097204248
-0.0063887487
0.10026991
-0.0062347378
0.10325784
-0.0060738394
0.106165
-0.005906877
0.10898874
-0.0057346496
0.1117268
-0.0055579297
0.11437728
-0.0053774629
0.11693866
-0.0051939702
0.11940975
-0.0050081523
0.1217897
-0.0048207054
0.12407803
-0.0046323202
0.12627461
-0.0044437695
0.1283797
-0.0042557558
0.13039421
-0.0040696592
0.13231908
-0.0038854626
0.13415831
-0.0037093842
0.13591044
-0.0035303572
0.13759948
-0.0033998296
0.13918233
-0.0031820419
0.1408547
-0.0033608853
-0.0026635803
0.015021422
-0.0053326718
0.016852557
-0.0061501378
0.018906133
-0.0068771242
0.021112221
-0.0074148406
0.023459187
-0.0078930581
0.025943378
-0.0083379921
0.028552177
-0.0087346327
0.031272102
-0.0090833646
0.034092055
-0.009391276
0.037001805
-0.0096619766
0.039991231
-0.0098971387
0.043050474
-0.010098535
0.046170009
-0.010267907
0.04934058
-0.010406682
0.052553159
-0.010516058
0.055798934
-0.010597119
0.059069316
-0.010650871
0.062355943
-0.010678272
0.065650693
-0.010680265
0.0689457
-0.010657801
0.072233378
-0.010611859
0.07550644
-0.01054346
0.078757921
-0.01045367
0.0819812
-0.010343607
0.08517002
-0.010214436
0.088318505
-0.010067362
0.09142117
-0.0099036239
0.094472934
-0.0097244852
0.097469124
-0.0095312192
0.10040548
-0.0093251024
0.10327814
-0.0091073991
0.10608365
-0.0088793547
0.10881896
-0.0086421864
0.11148139
-0.0083970764
0.11406863
-0.0081451691
0.11657874
-0.00788757
0.11901012
-0.00762535
0.12136152
-0.0073595516
0.12363202
-0.0070912115
0.12582106
-0.006821361
0.12792845
-0.0065511555
0.12995434
-0.0062816474
0.13189958
-0.0060148991
0.13376502
-0.0057509024
0.13555452
-0.0054988854
0.13726671
-0.0052425428
0.13892463
-0.0050577504
0.14048751
-0.0047449205
0.14214044
-0.0050138215
-0.0040023799
0.03205697
-0.0065159965
0.033472203
-0.0075653709
0.035077746
-0.0084826669
0.036800621
-0.0091377164
0.038641516
-0.0097339528
0.040606727
-0.010303203
0.042689083
-0.010816989
0.044879061
-0.011273343
0.047169085
-0.0116813
0.049551928
-0.012044819
0.052019881
-0.012365092
0.054564989
-0.012643643
0.057179241
-0.012882159
0.059854595
-0.013082036
0.062582988
-0.013244452
0.065356378
-0.013370508
0.068166783
-0.013461275
0.071006325
-0.013517815
0.073867273
-0.013541213
0.076742076
-0.013532604
0.0796234
-0.013493184
0.082504167
-0.013424227
0.085377583
-0.013327086
0.088237165
-0.01320319
0.091076772
-0.013054042
0.093890615
-0.012881205
0.096673282
-0.012686291
0.099419744
-0.012470947
0.10212536
-0.012236839
0.1047859
-0.011985638
0.1073975
-0.011718999
0.1099567
-0.011438557
0.11246042
-0.01114591
0.11490596
-0.010842612
0.11729096
-0.010530169
0.11961343
-0.010210038
0.12187171
-0.0098836309
0.12406448
-0.0095523273
0.12619077
-0.0092174993
0.12824993
-0.0088805166
0.13024169
-0.0085429142
0.13216613
-0.0082060954
0.13402403
-0.0078727967
0.13581617
-0.007543043
0.13754624
-0.0072289493
0.13921303
-0.0069093389
0.14083823
-0.0066829523
0.14238454
-0.0062912257
0.14402178
-0.0066510581
-0.005365314
0.05264909
-0.0071563225
0.053489711
-0.0084059917
0.054483861
-0.0094768175
0.055565854
-0.010219709
0.056750507
-0.010918606
0.058052114
-0.01160481
0.059469185
-0.01223406
0.060996853
-0.012801011
0.062630908
-0.013315355
0.064366752
-0.013780663
0.066198865
-0.014197204
0.068120977
-0.014565755
0.070126324
-0.014887506
0.072207805
-0.015163516
0.074358072
-0.015394719
0.076569614
-0.01558205
0.078834837
-0.015726499
0.081146149
-0.015829127
0.083496022
-0.015891086
0.085877052
-0.015913634
0.088282014
-0.015898146
0.090703907
-0.01584612
0.093135993
-0.015759171
0.095571829
-0.015639026
0.098005302
-0.015487516
0.10043065
-0.015306549
0.10284246
-0.015098107
0.10523573
-0.014864212
0.10760581
-0.014606918
0.10994845
-0.014328282
0.1122598
-0.01403035
0.11453638
-0.013715135
0.11677509
-0.013384616
0.11897318
-0.01304071
0.1211283
-0.012685281
0.12323839
-0.012320136
0.12530179
-0.011947023
0.12731712
-0.011567658
0.12928337
-0.011183747
0.13119985
-0.010796998
0.13306626
-0.010409327
0.13488266
-0.010022492
0.13664976
-0.0096398953
0.13836834
-0.0092616259
0.14004192
-0.0089025311
0.14166961
-0.0085370263
0.1432714
-0.0082847438
0.14481442
-0.007834246
0.14644959
-0.0082862293
-0.0067756237
0.075222393
-0.007085336
0.075327384
-0.0085109824
0.075551783
-0.0097012164
0.075852107
-0.010520033
0.076256391
-0.011322889
0.076781487
-0.012129906
0.077430432
-0.012883005
0.078203156
-0.013573735
0.079097968
-0.014210167
0.080111718
-0.014794414
0.081240165
-0.015325651
0.082478012
-0.015803602
0.083819076
-0.01622857
0.085256576
-0.016601017
0.086783337
-0.01692148
0.088391905
-0.017190619
0.090074664
-0.017409257
0.091823934
-0.017578397
0.093632074
-0.017699225
0.095491544
-0.017773104
0.09739498
-0.017801582
0.09933524
-0.01778638
0.10130546
-0.017729387
0.10329907
-0.017632636
0.10530985
-0.017498298
0.10733194
-0.017328644
0.10935987
-0.017126035
0.11138854
-0.016892885
0.11341327
-0.016631645
0.11542976
-0.016344772
0.11743412
-0.016034707
0.11942284
-0.01570386
0.12139282
-0.015354588
0.12334129
-0.014989185
0.12526589
-0.014609878
0.12716458
-0.014218826
0.12903568
-0.013818125
0.13087785
-0.013409826
0.13269008
-0.01299598
0.13447172
-0.012578639
0.1362225
-0.012160104
0.1379425
-0.011742497
0.13963248
-0.011329875
0.14129329
-0.010922435
0.14292834
-0.010537577
0.14453715
-0.010145837
0.14613788
-0.0098854714
0.1477028
-0.0093991717
0.14936149
-0.0099449212
-0.008265424
0.098025979
-0.0061583676
0.097258733
-0.0077437369
0.096582471
-0.0090249547
0.095998066
-0.0099356274
0.095541645
-0.010866469
0.095224441
-0.011812702
0.095051821
-0.012710386
0.095027789
-0.013549703
0.095151877
-0.014334255
0.095420821
-0.015063358
0.095830261
-0.015735091
0.096374786
-0.016348127
0.097047913
-0.016901696
0.097842408
-0.017395512
0.098750589
-0.017829661
0.099764485
-0.018204514
0.10087596
-0.018520731
0.10207683
-0.018779267
0.10335896
-0.018981361
0.10471438
-0.019128518
0.10613529
-0.019222491
0.10761417
-0.019265264
0.10914382
-0.019259037
0.11071738
-0.019206193
0.11232836
-0.019109279
0.11397069
-0.018970971
0.11563869
-0.018794042
0.11732714
-0.018581336
0.11903123
-0.018335733
0.12074658
-0.018060118
0.12246923
-0.017757362
0.12419566
-0.017430287
0.12592273
-0.017081658
0.12764771
-0.016714166
0.12936825
-0.016330422
0.13108238
-0.015932953
0.13278847
-0.015524218
0.13448527
-0.015106624
0.13617187
-0.014682578
0.13784772
-0.014254486
0.13951266
-0.013825052
0.14116694
-0.013396772
0.14281142
-0.012974358
0.14444714
-0.012558153
0.14607749
-0.01216793
0.14770255
-0.011770899
0.14933858
-0.011521501
0.15096349
-0.01102408
0.1526843
-0.011665725
-0.0098764753
0.11918974
-0.0043347474
0.11749716
-0.0060511589
0.11585767
-0.0073854646
0.11435517
-0.0084331288
0.1130259
-0.0095371999
0.11186738
-0.010654174
0.11088505
-0.011728065
0.11008522
-0.01274987
0.10946729
-0.013716322
0.10902666
-0.014622729
0.10875753
-0.015465957
0.10865322
-0.016243826
0.10870616
-0.016954632
0.10890802
-0.017597375
0.10925009
-0.018171726
0.10972341
-0.01867784
0.11031897
-0.019116291
0.11102776
-0.019488055
0.1118409
-0.019794494
0.11274969
-0.020037316
0.11374575
-0.020218547
0.11482098
-0.020340499
0.11596769
-0.020405744
0.11717858
-0.020417077
0.11844678
-0.02037748
0.11976589
-0.020290087
0.12113
-0.020158146
0.12253364
-0.019984976
0.12397184
-0.019773937
0.12544011
-0.019528393
0.12693443
-0.019251681
0.12845123
-0.018947085
0.12998739
-0.018617815
0.13154021
-0.01826699
0.13310743
-0.017897639
0.13468717
-0.017512688
0.13627793
-0.017114988
0.13787864
-0.016707325
0.13948854
-0.016292484
0.14110731
-0.015873256
0.14273502
-0.015452758
0.14437213
-0.015033885
0.14601978
-0.014622006
0.14767928
-0.014217651
0.14935414
-0.01384279
0.1510451
-0.013461859
0.15276658
-0.013242982
0.15450237
-0.012759873
0.15633681
-0.013500166
-0.011660124
0.13689665
-0.0017557962
0.13437871
-0.0035332196
0.13182016
-0.0048269208
0.12946312
-0.0060760901
0.1273348
-0.0074088736
0.12541656
-0.0087359341
0.12371124
-0.010022743
0.12222392
-0.011262554
0.12095306
-0.012445461
0.11989288
-0.013562553
0.11903589
-0.014608959
0.11837372
-0.015581659
0.11789739
-0.016478302
0.11759737
-0.017297354
0.11746379
-0.018038148
0.11748664
-0.018700694
0.11765591
-0.019285558
0.11796167
-0.019793818
0.1183942
-0.020227021
0.11894404
-0.020587152
0.11960206
-0.020876572
0.12035955
-0.021097988
0.12120822
-0.021254416
0.12214027
-0.021349123
0.12314839
-0.021385598
0.1242258
-0.021367499
0.12536626
-0.021298608
0.12656407
-0.021182789
0.12781408
-0.021023941
0.12911165
-0.020825965
0.13045269
-0.020592723
0.13183362
-0.020328011
0.13325134
-0.020035534
0.13470324
-0.01971889
0.13618716
-0.019381566
0.13770141
-0.019026931
0.13924469
-0.018658266
0.14081613
-0.018278769
0.14241528
-0.017891639
0.14404211
-0.017500077
0.14569699
-0.017107645
0.14738077
-0.016717659
0.14909492
-0.016336158
0.15084117
-0.015963902
0.15262327
-0.015624886
0.15444272
-0.015281313
0.15631222
-0.015112484
0.15822157
-0.014669219
0.16023284
-0.015511436
-0.013676408
0.15005266
0.00077969253
0.14676374
-0.0002442929
0.14346642
-0.0015296047
0.14041867
-0.0030283361
0.1376238
-0.0046140071
0.13507557
-0.0061876995
0.1327758
-0.0077229758
0.13072458
-0.0092113393
0.12891948
-0.010640361
0.12735529
-0.011998365
0.12602419
-0.013277858
0.12491677
-0.01447424
0.12402286
-0.015584388
0.12333179
-0.016606286
0.12283259
-0.017538944
0.12251414
-0.018382242
0.12236536
-0.019136786
0.12237536
-0.019803813
0.12253346
-0.020385126
0.12282936
-0.020883045
0.12325313
-0.021300342
0.12379533
-0.021640194
0.12444704
-0.021906126
0.12519988
-0.022101964
0.12604606
-0.022231775
0.12697838
-0.022299818
0.12799026
-0.022310487
0.12907573
-0.02226826
0.13022944
-0.022177655
0.13144665
-0.022043175
0.13272321
-0.021869277
0.13405553
-0.021660331
0.13544059
-0.021420598
0.13687591
-0.021154213
0.13835952
-0.020865173
0.13988993
-0.020557341
0.14146613
-0.020234467
0.14308757
-0.01990021
0.14475415
-0.019558218
0.14646621
-0.019212136
0.14822457
-0.018866005
0.1500305
-0.018523585
0.15188595
-0.018191609
0.15379312
-0.017871076
0.15575616
-0.017587928
0.15777727
-0.017302422
0.15986802
-0.017203232
0.16202264
-0.01682384
0.16428601
-0.017774799
-0.015990285
0.18890964
0.0053817582
-0.1935117
0.18509964
0.0035657099
0.18170764
0.0018623938
0.17856255
0.00011675188
0.17562703
-0.0016784873
0.17287604
-0.0034367154
0.17029137
-0.0051383032
0.16786402
-0.006783985
0.1655901
-0.008366444
0.16346747
-0.0098757306
0.16149426
-0.011304646
0.15966836
-0.012648341
0.15798713
-0.013903158
0.15644728
-0.015066435
0.15504488
-0.016136551
0.15377548
-0.01711284
0.15263414
-0.017995448
0.15161557
-0.018785243
0.1507142
-0.019483749
0.14992424
-0.020093084
0.14923979
-0.020615901
0.14865492
-0.02105532
0.14816367
-0.021414878
0.14776017
-0.021698462
0.14743865
-0.02191025
0.14719348
-0.022054653
0.14701925
-0.022136251
0.14691072
-0.022159738
0.14686293
-0.022129867
0.14687116
-0.022051397
0.14693093
-0.021929052
0.14703808
-0.021767481
0.14718871
-0.021571227
0.14737921
-0.021344709
0.14760624
-0.021092209
0.14786678
-0.020817878
0.14815806
-0.02052575
0.14847762
-0.020219772
0.14882329
-0.019903884
0.14919318
-0.019582028
0.14958575
-0.019258573
0.14999976
-0.018937595
0.15043445
-0.018626303
0.15088931
-0.018325939
0.15136498
-0.01806359
0.15186129
-0.017798738
0.15238278
-0.017724716
0.15292509
-0.017366153
0.15351136
-0.018361067
-0.016584422
0.2168585
0.0087800539
-0.22025679
0.21338465
0.0070395602
0.21017187
0.0050751688
0.2070666
0.0032220262
0.20402004
0.0013680682
0.20106317
-0.00047983685
0.19821285
-0.002287985
0.1954736
-0.00404474
0.19285133
-0.0057441729
0.19035287
-0.0073772653
0.18798341
-0.0089351867
0.18574635
-0.010411284
0.18364369
-0.0118005
0.18167613
-0.013098876
0.17984313
-0.014303554
0.17814307
-0.01541278
0.17657341
-0.01642578
0.17513082
-0.017342652
0.17381135
-0.018164285
0.17261056
-0.018892291
0.17152359
-0.019528934
0.17054532
-0.020077049
0.16967042
-0.020539981
0.16889347
-0.020921506
0.16820899
-0.021225768
0.16761154
-0.021457204
0.16709576
-0.021620478
0.16665644
-0.021720413
0.1662885
-0.021761932
0.1659871
-0.021749995
0.1657476
-0.021689553
0.16556562
-0.021585502
0.16543704
-0.021442647
0.16535801
-0.021265681
0.16532497
-0.021059166
0.16533463
-0.02082754
0.16538401
-0.020575127
0.16547041
-0.020306169
0.16559143
-0.020024908
0.165745
-0.019735598
0.16592937
-0.019442941
0.16614315
-0.019151371
0.16638533
-0.01886849
0.16665545
-0.01859605
0.16695334
-0.018361484
0.16728026
-0.018125657
0.16763545
-0.018079906
0.16802719
-0.017757901
0.16843758
-0.018771449
-0.017059802
0.24376736
0.011503974
-0.24649128
0.24091696
0.0098899627
0.23806379
0.0079283431
0.23521686
0.0060689506
0.2323391
0.0042458314
0.22945132
0.0024079417
0.22658475
0.00057858887
0.22375868
-0.0012186678
0.22098902
-0.00297452
0.21829173
-0.0046799681
0.21568064
-0.0063241037
0.21316677
-0.0078974146
0.21075873
-0.0093924562
0.20846307
-0.010803215
0.20628442
-0.01212491
0.20422568
-0.013354035
0.20228819
-0.014488289
0.20047199
-0.015526455
0.198776
-0.016468298
0.1971982
-0.017314485
0.19573576
-0.018066493
0.19438523
-0.018726526
0.19314268
-0.019297426
0.19200377
-0.019782594
0.1909639
-0.020185901
0.19001831
-0.02051161
0.18916212
-0.020764296
0.18839047
-0.020948764
0.18769853
-0.021069984
0.18708155
-0.02113302
0.18653497
-0.021142968
0.18605437
-0.021104909
0.18563559
-0.021023863
0.18527467
-0.02090476
0.18496792
-0.02075242
0.18471194
-0.020571553
0.18450357
-0.020366765
0.18434
-0.020142594
0.18421868
-0.019903587
0.1841374
-0.019654321
0.18409429
-0.019399826
0.18408785
-0.019144938
0.18411692
-0.01889756
0.18418109
-0.01866022
0.18427947
-0.018459862
0.18441479
-0.018260971
0.18458066
-0.018245778
0.18479898
-0.017976221
0.18500591
-0.018978385
-0.017393965
0.26927506
0.013536897
-0.27130798
0.26710704
0.012057976
0.26476532
0.010270072
0.26232612
0.0085081424
0.25979741
0.0067745454
0.25718935
0.0050159984
0.25452808
0.003239866
0.25183775
0.0014716571
0.24913838
-0.00027514528
0.24644976
-0.0019913487
0.24379118
-0.0036655299
0.24117979
-0.0052860221
0.23863031
-0.0068429719
0.23615522
-0.0083281288
0.23376483
-0.0097345172
0.23146729
-0.011056496
0.22926879
-0.012289788
0.22717372
-0.013431388
0.22518489
-0.014479467
0.22330369
-0.015433284
0.22153029
-0.016293098
0.21986384
-0.017060069
0.21830258
-0.017736166
0.21684405
-0.018324068
0.21548522
-0.018827069
0.21422259
-0.019248983
0.21305235
-0.019594053
0.21197044
-0.019866859
0.2109727
-0.020072236
0.21005487
-0.020215196
0.20921276
-0.020300855
0.20844222
-0.02033437
0.20773925
-0.020320891
0.20710001
-0.020265522
0.20652088
-0.020173287
0.20599845
-0.02004913
0.20552961
-0.019897918
0.20511148
-0.019724467
0.20474151
-0.01953362
0.20441747
-0.019330277
0.20413744
-0.019119791
0.20389992
-0.018907421
0.20370366
-0.018701301
0.20354837
-0.018504928
0.20343258
-0.018344073
0.20336022
-0.018188611
0.20332012
-0.018205676
0.20334551
-0.018001619
0.20333123
-0.018964099
-0.017564711
0.29298575
0.014868016
-0.29431687
0.29150653
0.013537194
0.28978406
0.011992539
0.28788546
0.010406749
0.28584558
0.0088144263
0.28367524
0.0071863383
0.28139285
0.0055222533
0.27902166
0.0038428488
0.27658296
0.002163548
0.27409693
0.0004946842
0.27158376
-0.0011523583
0.26906317
-0.0027654366
0.2665535
-0.0043332963
0.26407132
-0.0058459549
0.26163139
-0.0072945847
0.25924647
-0.0086715702
0.25692731
-0.0099706295
0.25468273
-0.011186816
0.25251973
-0.012316462
0.25044357
-0.013357123
0.24845797
-0.014307501
0.24656527
-0.015167367
0.24476657
-0.015937462
0.2430619
-0.016619402
0.24145041
-0.017215576
0.23993047
-0.017729046
0.23849986
-0.018163441
0.23715586
-0.018522861
0.2358954
-0.018811781
0.23471517
-0.01903496
0.23361167
-0.019197359
0.23258137
-0.019304066
0.23162071
-0.019360236
0.23072623
-0.019371042
0.22989458
-0.019341635
0.22912258
-0.019277128
0.22840726
-0.019182598
0.2277459
-0.019063106
0.22713605
-0.018923766
0.22657556
-0.01876979
0.2260626
-0.018606836
0.22559577
-0.018440594
0.22517384
-0.01827937
0.22479666
-0.018127747
0.22446241
-0.018009819
0.22417585
-0.017902051
0.22392215
-0.01795198
0.2237429
-0.017822372