/*--------------------------------*- C++ -*----------------------------------*\
  =========                 |
  \\      /  F ield         | OpenFOAM: The Open Source CFD Toolbox
   \\    /   O peration     | Website:  https://openfoam.org
    \\  /    A nd           | Version:  6
     \\/     M anipulation  |
\*---------------------------------------------------------------------------*/
FoamFile
{
    version     2.0;
    format      ascii;
    class       volVectorField;
    location    "139";
    object      U;
}
// * * * * * * * * * * * * * * * * * * * * * * * * * * * * * * * * * * * * * //

dimensions      [0 1 -1 0 0 0 0];

internalField   nonuniform List<vector> 
9200
(
(0.0010393815 0.0014199635 -5.9202115e-20)
(0.013676221 -0.0020584482 4.6042785e-20)
(0.0383135 -0.0058667109 -3.8501931e-20)
(0.072275 -0.00976371 -6.0258044e-20)
(0.11376558 -0.013490297 1.882707e-20)
(0.16158203 -0.016605991 3.2744047e-20)
(0.21467295 -0.018817683 -1.2268082e-20)
(0.2720679 -0.019974353 9.2689185e-21)
(0.33285841 -0.020011752 1.68035e-20)
(0.39616603 -0.018929648 1.4848148e-21)
(0.46111847 -0.016780481 -2.1456456e-20)
(0.52684013 -0.013658469 2.0670125e-20)
(0.59245427 -0.0096888122 -4.0422369e-20)
(0.65709518 -0.005016672 -2.1134039e-20)
(0.71992882 0.00020457805 5.9046888e-21)
(0.78017931 0.0058230167 -2.5131861e-20)
(0.83717502 0.011711631 2.5217323e-20)
(0.89047326 0.017917219 2.2243472e-20)
(0.93967521 0.024571998 -2.9924225e-22)
(0.98205632 0.028291856 -1.6691179e-21)
(0.0052522404 -0.0013463054 -1.7059432e-20)
(0.026962729 -0.0089891416 3.9747912e-20)
(0.061670575 -0.014809951 2.3576416e-20)
(0.10629563 -0.019172523 -1.156981e-19)
(0.15873671 -0.022214313 -1.2727156e-20)
(0.21753492 -0.023721063 7.3297395e-20)
(0.28137473 -0.023595532 -3.5476568e-20)
(0.34900816 -0.021869459 -8.3905952e-21)
(0.41924173 -0.018646076 3.4287712e-20)
(0.49091234 -0.014081453 -4.3259812e-20)
(0.56287556 -0.0083766265 -3.0338665e-20)
(0.63401202 -0.0017673386 7.1921919e-20)
(0.70324711 0.0054875753 3.8294303e-20)
(0.76957984 0.01311773 -6.7977071e-20)
(0.83211663 0.020851088 1.4623819e-20)
(0.89010463 0.02841861 -3.6733718e-20)
(0.94297345 0.035568468 -1.3777287e-20)
(0.99043654 0.042139562 7.097553e-20)
(1.0323602 0.04771386 2.964244e-20)
(1.0669388 0.049138131 -8.3478822e-20)
(0.010858517 -0.00404246 3.6773614e-20)
(0.043953728 -0.015431219 2.5047477e-21)
(0.090516036 -0.022552503 2.2341831e-20)
(0.14711233 -0.026497645 9.8117239e-22)
(0.21134384 -0.027886643 -4.0774159e-20)
(0.28146935 -0.026795515 1.8576471e-20)
(0.35587248 -0.023383179 1.3420372e-20)
(0.43299253 -0.017922036 -5.032795e-20)
(0.51132761 -0.010736201 5.7262159e-20)
(0.58942932 -0.0021844849 1.4256785e-20)
(0.66591264 0.0073472404 -5.430107e-20)
(0.73948409 0.017459529 -1.8237555e-20)
(0.8089799 0.02775575 9.059141e-21)
(0.87340668 0.037858369 2.3444936e-20)
(0.93197771 0.04742304 -1.1362625e-20)
(0.98413775 0.056147859 2.7877976e-20)
(1.029578 0.063787939 -2.0188404e-20)
(1.0682684 0.070203031 -7.0124302e-20)
(1.1003359 0.075117888 -2.3796554e-20)
(1.1249147 0.076639631 4.8660166e-20)
(0.017957339 -0.0064222165 2.4508113e-20)
(0.064777408 -0.02069496 5.1039439e-20)
(0.12485304 -0.028061087 1.9881774e-20)
(0.19447079 -0.030464366 1.2990128e-20)
(0.27095085 -0.029095192 1.7275763e-20)
(0.35225074 -0.024389373 -4.7720377e-20)
(0.43643374 -0.016826407 -2.5646977e-20)
(0.52162282 -0.0069771449 0)
(0.60603205 0.0045665132 1.3920743e-20)
(0.68799046 0.017211161 -5.8524239e-21)
(0.76597881 0.03037329 -9.7935591e-20)
(0.83867827 0.043498926 -1.5774889e-20)
(0.90501916 0.056085824 6.5103754e-20)
(0.96421963 0.067703244 4.8436176e-22)
(1.0158074 0.078006712 -1.5725706e-21)
(1.0596193 0.086745669 2.1957695e-20)
(1.0957809 0.093770978 -5.2647849e-21)
(1.1246834 0.099063952 -6.1030301e-20)
(1.146868 0.10259557 -4.5851706e-20)
(1.1622988 0.10341222 6.9521033e-20)
(0.026579584 -0.0082057464 -3.9194313e-21)
(0.08934454 -0.024033674 -5.1256537e-21)
(0.16430846 -0.030265228 5.6599624e-20)
(0.24758254 -0.029810309 1.8539386e-20)
(0.33624338 -0.024513355 -3.1955191e-20)
(0.42795346 -0.015240219 1.2163892e-20)
(0.52047522 -0.0028517512 2.6402995e-21)
(0.61166654 0.011736674 3.3609372e-20)
(0.69955039 0.027639679 5.659986e-21)
(0.78237189 0.044028253 -1.3204862e-20)
(0.85865774 0.060147141 6.0154558e-20)
(0.92727288 0.075339805 -5.8009747e-20)
(0.98746054 0.089072097 -1.3216719e-19)
(1.0388568 0.10094814 -5.5773506e-21)
(1.0814761 0.11071609 8.3151517e-20)
(1.115669 0.11826292 0)
(1.1420581 0.12360457 1.0119038e-20)
(1.1614699 0.12688917 -1.5459912e-20)
(1.1748208 0.12829719 -8.5995429e-21)
(1.18267 0.12744753 2.0992395e-20)
(0.036667115 -0.0090896382 -5.4309175e-21)
(0.11731574 -0.024685518 4.3578898e-21)
(0.20811977 -0.028140398 -8.7630144e-21)
(0.30515857 -0.023415209 2.84725e-20)
(0.40533739 -0.013075869 -2.9392789e-20)
(0.5060739 0.001522319 -1.6927103e-20)
(0.60490771 0.019094823 3.7364376e-20)
(0.69955272 0.038364908 4.7595542e-21)
(0.7880073 0.058167255 -2.4436275e-20)
(0.8686376 0.077482554 6.9868037e-20)
(0.94024337 0.095458114 5.2388113e-22)
(1.0020992 0.11143094 -8.0444992e-20)
(1.0539605 0.12494217 0)
(1.0960308 0.13573664 3.954248e-20)
(1.1288955 0.14374744 5.5236545e-21)
(1.153431 0.14906781 -7.7567063e-20)
(1.170702 0.15191789 -1.9587087e-20)
(1.1818651 0.15262231 -1.2467738e-20)
(1.1880617 0.15152457 -1.4709517e-20)
(1.1901484 0.14858333 4.0420856e-20)
(0.048059119 -0.0087674583 -1.7278003e-20)
(0.14808384 -0.021932133 -2.2198636e-21)
(0.25514194 -0.020798014 3.0380595e-20)
(0.36546557 -0.010412988 3.7484419e-20)
(0.4759064 0.0059013858 -1.9944812e-20)
(0.58374527 0.026269097 -6.9163376e-20)
(0.6864448 0.048976983 -2.7995977e-20)
(0.78176525 0.072417531 7.8929682e-20)
(0.86790536 0.09521217 8.5779128e-21)
(0.94359266 0.11624923 -2.4873626e-20)
(1.0081293 0.1346978 1.364226e-20)
(1.0613905 0.15001497 -4.3195027e-21)
(1.1037726 0.16193589 0)
(1.1361007 0.17044344 2.7203695e-20)
(1.1595076 0.17572212 -7.9323041e-20)
(1.1753049 0.1781026 -3.1475778e-20)
(1.1848596 0.17800691 8.1055222e-20)
(1.1894946 0.17590812 -4.297033e-21)
(1.1904052 0.17225415 3.556131e-21)
(1.1885101 0.16719145 2.7111808e-20)
(0.060485545 -0.0069574057 -3.2414693e-20)
(0.18077857 -0.015170483 -8.1624589e-20)
(0.30389068 -0.007583645 2.5797403e-21)
(0.42642745 0.0097032428 7.0162088e-20)
(0.54535384 0.032631448 6.2424646e-20)
(0.65798374 0.058819937 -7.1574817e-20)
(0.76191186 0.086176385 -2.8270272e-22)
(0.85518616 0.11285215 8.5523119e-20)
(0.93645683 0.13737815 4.8828382e-20)
(1.0050449 0.15869339 -5.4218802e-20)
(1.0609389 0.17613521 -9.233488e-20)
(1.1047275 0.189413 -3.1590057e-21)
(1.137479 0.19855877 4.2128176e-20)
(1.1605903 0.20385776 -6.6056789e-21)
(1.1756275 0.20576926 -1.2868879e-20)
(1.1841802 0.20484813 1.9690942e-20)
(1.1877451 0.2016778 4.3880947e-20)
(1.1876476 0.19682461 -4.3859751e-20)
(1.1849975 0.19077748 -1.0232281e-19)
(1.180627 0.18377236 2.4567102e-20)
(0.073537551 -0.0034329975 -3.4979874e-20)
(0.21422782 -0.0039890767 -1.7388654e-19)
(0.35251808 0.011839337 8.210359e-20)
(0.48563 0.037018324 9.2767895e-20)
(0.61085625 0.066835558 5.7970809e-20)
(0.72577007 0.098481187 8.6107563e-21)
(0.82835108 0.12959695 -1.0624066e-19)
(0.91719318 0.15824262 0)
(0.99163071 0.183028 -6.8749087e-20)
(1.0517553 0.20311182 -1.520253e-20)
(1.0983415 0.21814824 5.4703844e-20)
(1.1327038 0.22821033 1.097346e-20)
(1.1565138 0.23369197 -4.5614171e-20)
(1.1716095 0.2351987 -4.9081697e-20)
(1.1798229 0.23344246 2.4287861e-20)
(1.1828474 0.22915223 4.4823225e-20)
(1.1821511 0.22300876 -5.5600817e-20)
(1.1789381 0.21560703 -1.0751199e-19)
(1.1741488 0.20742097 -3.1513612e-21)
(1.1684586 0.19871747 2.7046595e-20)
(0.086650818 0.0019613855 -3.5449404e-21)
(0.24696121 0.011816648 8.7913527e-20)
(0.398849 0.037492366 -1.6479121e-20)
(0.54040676 0.071218483 -8.4309572e-20)
(0.66950154 0.10778906 4.5164591e-20)
(0.78422235 0.14411556 4.9175644e-20)
(0.88319242 0.17775678 5.5357114e-21)
(0.96578182 0.20688493 -9.9503086e-20)
(1.0321794 0.23038796 -2.5048943e-21)
(1.0833359 0.24781535 5.0503884e-20)
(1.1208099 0.2592627 5.9855163e-21)
(1.1465586 0.26523575 -1.9717346e-20)
(1.1627134 0.26650475 -7.5705133e-20)
(1.171379 0.26396551 -6.2554337e-21)
(1.1744786 0.25852347 4.3533637e-20)
(1.173657 0.25100996 3.7022252e-20)
(1.1702404 0.24213293 1.9793552e-20)
(1.1652422 0.23245765 -5.2995262e-20)
(1.1594033 0.22240301 1.2957465e-20)
(1.153227 0.21223677 8.2659639e-20)
(-0.0012932686 0.0014346681 -1.1234371e-21)
(-0.0047459857 0.0031874316 2.0647075e-21)
(-0.010771414 0.0041359246 8.7955524e-22)
(-0.017754376 0.0045395572 -2.4411157e-21)
(-0.024740437 0.0045654364 -1.4115069e-21)
(-0.031299738 0.0043260556 1.5460038e-21)
(-0.037161492 0.0039035513 -6.8701612e-21)
(-0.042147619 0.0033577303 -5.9573446e-21)
(-0.046157958 0.0027313847 1.1172106e-20)
(-0.04914637 0.0020548285 -9.7428426e-21)
(-0.051100823 0.0013492925 -1.9832639e-22)
(-0.052030594 0.00062940772 3.667386e-21)
(-0.05195786 -9.4910285e-05 -6.329592e-22)
(-0.050911967 -0.00081695819 2.2818974e-20)
(-0.048925818 -0.0015318799 3.0400938e-22)
(-0.046035326 -0.0022352171 -4.0883309e-20)
(-0.042281717 -0.0029223194 7.5386519e-21)
(-0.037703287 -0.0035910987 2.3864376e-20)
(-0.032308452 -0.004240056 -4.3852881e-20)
(-0.026156624 -0.0048211919 -2.7739533e-20)
(-0.0016522087 0.0041808892 -5.3716441e-21)
(-0.0053975083 0.0092681855 1.0865496e-20)
(-0.011218563 0.012007501 -1.0191622e-20)
(-0.017658107 0.013153823 3.9230286e-21)
(-0.023856538 0.013195468 4.8122094e-21)
(-0.02943344 0.01246277 7.1325034e-22)
(-0.034152452 0.011197048 -2.2509733e-20)
(-0.037860512 0.0095739176 -2.0370444e-21)
(-0.040474425 0.0077189927 2.0163738e-20)
(-0.041959032 0.0057212194 -5.0474083e-21)
(-0.042309034 0.0036428358 -2.17628e-20)
(-0.041537385 0.0015266653 4.8973639e-21)
(-0.039667715 -0.00059837261 2.263563e-20)
(-0.036729027 -0.0027128491 1.0308493e-20)
(-0.032751912 -0.0048027994 2.1854516e-20)
(-0.02776897 -0.0068556423 -1.9770934e-20)
(-0.021824503 -0.0088583784 -2.1673172e-20)
(-0.014965875 -0.01080441 2.1184864e-20)
(-0.0071285052 -0.012679214 2.6810664e-20)
(0.001874942 -0.014317464 1.585493e-20)
(-0.0023034406 0.0065602672 -4.3568975e-21)
(-0.0065392539 0.014480267 -5.6387812e-21)
(-0.011892182 0.018710629 3.0723924e-22)
(-0.017211166 0.020428268 1.0959774e-21)
(-0.021819219 0.020400403 6.6918909e-21)
(-0.025431119 0.01915173 1.0665249e-20)
(-0.0278773 0.017066332 -3.7228011e-21)
(-0.029053317 0.014423804 -1.8896328e-20)
(-0.028909054 0.011424348 6.5413767e-21)
(-0.027431025 0.0082098735 1.2862688e-20)
(-0.024627634 0.004879715 5.8341442e-21)
(-0.020519962 0.0015021463 1.8159265e-20)
(-0.015135759 -0.0018769886 1.7296076e-21)
(-0.0085050783 -0.0052274081 -3.386484e-20)
(-0.00065646445 -0.0085278074 1.2020408e-21)
(0.008381568 -0.011759346 -2.2139404e-20)
(0.018557556 -0.014904374 -2.446657e-20)
(0.029803022 -0.017954075 4.582021e-20)
(0.042305977 -0.020855485 2.5349642e-20)
(0.056739781 -0.023248179 1.2241705e-22)
(-0.003129042 0.0083690117 -5.2833405e-21)
(-0.0078964309 0.018336598 -8.481595e-21)
(-0.012439029 0.02358791 4.3593271e-21)
(-0.016026579 0.025609759 4.1463714e-21)
(-0.018235057 0.025382833 2.0105806e-21)
(-0.018912662 0.023589387 7.3210636e-21)
(-0.017984691 0.020730311 9.3125614e-21)
(-0.015416635 0.017170383 -1.3511521e-21)
(-0.011206909 0.013171284 -1.1482047e-20)
(-0.0053750162 0.0089188629 -2.9072123e-20)
(0.0020484224 0.0045433273 6.1894979e-23)
(0.011026928 0.00013415738 4.0698167e-20)
(0.021522771 -0.0042491507 -1.8383319e-20)
(0.033498539 -0.0085678333 -1.2296196e-20)
(0.04692136 -0.012795846 5.5348e-22)
(0.061761121 -0.016912209 3.230295e-20)
(0.077954235 -0.020902081 -1.4829714e-20)
(0.0953937 -0.024763849 -5.3339697e-20)
(0.11440012 -0.028380255 4.5765451e-20)
(0.13634732 -0.031073694 3.3013498e-20)
(-0.0039704262 0.0094657761 -6.8788907e-22)
(-0.0090916892 0.020487879 -1.2534807e-20)
(-0.0123645 0.026159188 -3.4144737e-20)
(-0.01355255 0.028143434 -5.7242096e-21)
(-0.012533214 0.027555084 -3.622276e-21)
(-0.0093166468 0.025188112 6.3051537e-21)
(-0.0039454978 0.021627423 -4.6462446e-21)
(0.0035263619 0.01729893 -8.8071089e-21)
(0.013037159 0.012508676 2.1899877e-20)
(0.024521703 0.0074743175 5.0567458e-21)
(0.037916141 0.0023487263 -2.5290495e-20)
(0.053158208 -0.0027630173 1.1078359e-20)
(0.07018781 -0.0077911663 0)
(0.088947723 -0.012691656 1.2089673e-20)
(0.1093868 -0.017437337 -9.701698e-21)
(0.13145901 -0.022010383 -1.433725e-20)
(0.15507593 -0.026409204 -1.5738704e-21)
(0.18006974 -0.030660055 -2.2181903e-21)
(0.20685585 -0.034577249 4.6147437e-20)
(0.23766635 -0.037020661 -1.0470278e-20)
(-0.0046451147 0.0097809033 -7.535705e-21)
(-0.0096772759 0.020747957 2.4516542e-20)
(-0.011064386 0.026161062 -1.0499414e-20)
(-0.0090967957 0.027724518 -2.7469436e-20)
(-0.0039796189 0.026601741 -2.7548279e-20)
(0.0040963714 0.023648418 -1.4921661e-20)
(0.014954446 0.019496422 -6.9061014e-22)
(0.028436661 0.01460462 5.5500217e-21)
(0.044403723 0.0093033056 1.9616012e-20)
(0.062731244 0.0038282153 7.3531349e-21)
(0.083305256 -0.001655018 -7.1862684e-21)
(0.10602013 -0.0070325675 -2.010237e-21)
(0.13077496 -0.012229496 -3.8191987e-20)
(0.15747108 -0.017200223 -1.2693739e-20)
(0.18601392 -0.021920281 1.875077e-20)
(0.21631399 -0.026380343 -2.1021855e-20)
(0.24823475 -0.030602931 -8.9731319e-21)
(0.28152152 -0.034671403 3.0440686e-20)
(0.31661022 -0.038365708 5.0472459e-20)
(0.3566537 -0.039965079 3.3559981e-21)
(-0.0049617829 0.0093140324 1.6783381e-20)
(-0.0091662805 0.019097766 1.4468004e-20)
(-0.0078593361 0.02356342 5.1145753e-20)
(-0.0018584397 0.024328976 2.3388118e-20)
(0.0082959215 0.022523781 1.8251891e-22)
(0.022222264 0.019014337 -3.9388696e-20)
(0.039597916 0.014440836 -2.4313995e-20)
(0.060148553 0.0092662008 1.046588e-20)
(0.083639963 0.0038230062 1.4401672e-20)
(0.10986776 -0.0016515884 -1.3113785e-20)
(0.13864694 -0.0069913695 -4.4038993e-20)
(0.16980328 -0.012083281 2.9618692e-20)
(0.20316591 -0.01685467 2.0020674e-20)
(0.23856163 -0.021264586 -2.7551345e-20)
(0.27581479 -0.025297077 1.1650224e-20)
(0.31475093 -0.028957929 2.4197789e-20)
(0.35514862 -0.032303902 8.0724621e-21)
(0.39663738 -0.03550762 -1.176432e-20)
(0.43958086 -0.038393684 -1.4190377e-20)
(0.4879893 -0.038635544 5.8728941e-21)
(-0.0047307848 0.0081236962 1.1093904e-20)
(-0.0070585884 0.015671203 -2.3352869e-20)
(-0.0020292879 0.018562044 8.6200755e-21)
(0.0090327016 0.018216204 3.3588158e-20)
(0.025256679 0.015651085 5.2124605e-20)
(0.046066822 0.011695485 2.0276619e-20)
(0.070985203 0.006960775 -5.863967e-21)
(0.09960285 0.0018827092 -1.2286347e-20)
(0.13157009 -0.0032275092 -6.2057852e-21)
(0.16657709 -0.008150041 3.4241027e-20)
(0.20433596 -0.012733779 -4.5104765e-21)
(0.24456687 -0.016879725 -1.6643408e-20)
(0.28698704 -0.020529305 -1.9693687e-20)
(0.33130266 -0.023657115 -4.7444048e-20)
(0.37720761 -0.026266322 2.3238858e-20)
(0.42439107 -0.02838874 -1.4096085e-20)
(0.47250345 -0.03012859 2.5993605e-20)
(0.52104022 -0.031784252 2.1040984e-20)
(0.5702183 -0.03335184 -8.5570897e-20)
(0.62471381 -0.032060107 -1.0804236e-22)
(-0.0037710506 0.0063146493 2.192516e-20)
(-0.00286572 0.010735088 -2.6165685e-20)
(0.0071422486 0.011564098 -4.5013526e-20)
(0.024450517 0.0099249078 -2.7253928e-20)
(0.047871312 0.0066521715 -2.0439978e-21)
(0.076629375 0.0024904233 1.3050158e-20)
(0.11007764 -0.0020156536 -2.8337788e-21)
(0.14765324 -0.0064882305 1.8118625e-20)
(0.18886243 -0.010663901 8.8686006e-21)
(0.23325374 -0.014362893 -1.138023e-20)
(0.28039361 -0.017469498 8.8779747e-21)
(0.3298485 -0.019917433 -2.3903402e-20)
(0.38117162 -0.021679406 8.0505368e-21)
(0.43389401 -0.022760668 1.6756501e-20)
(0.48752286 -0.023195181 -2.6395287e-21)
(0.54155099 -0.023047861 1.6619058e-21)
(0.59543959 -0.022470508 -3.1956757e-22)
(0.64852224 -0.02187126 1.9590562e-20)
(0.70082704 -0.021446315 4.0434282e-21)
(0.75745633 -0.01850044 -5.7349469e-22)
(-0.0019109987 0.0040273439 2.3692242e-20)
(0.0038695227 0.0046764761 5.7160291e-20)
(0.020315538 0.0031878735 -4.9244478e-20)
(0.045178694 0.00029428182 -9.9454674e-21)
(0.076965783 -0.0034243553 2.0256443e-20)
(0.11469711 -0.0073538526 2.1433819e-21)
(0.15754 -0.011055289 -2.98153e-20)
(0.2047498 -0.01424454 6.9848358e-21)
(0.25565132 -0.016738399 7.1098327e-21)
(0.3096069 -0.018427499 -2.6254216e-20)
(0.365989 -0.019260714 1.2927421e-21)
(0.42416246 -0.019232559 -3.7174327e-20)
(0.48347424 -0.018372974 -3.6341239e-20)
(0.54324921 -0.016739131 6.5683918e-20)
(0.60279199 -0.014408244 5.5627891e-21)
(0.66139299 -0.011476932 -1.5188931e-20)
(0.71831222 -0.0081031751 1.9364101e-20)
(0.77270358 -0.0045940957 -9.1888794e-22)
(0.82409305 -0.00096938342 2.0364645e-20)
(0.87622443 0.0043266214 -1.9554371e-20)
(-0.01883596 -0.0050997875 5.835276e-20)
(-0.010224052 -0.0056350199 1.5783848e-20)
(-0.00022042241 -0.0060689816 -3.5139988e-20)
(0.010824189 -0.0063342187 1.6790466e-20)
(0.022643639 -0.0065121631 0)
(0.03517929 -0.0066302129 0)
(0.048371321 -0.0066911029 -2.2975271e-20)
(0.062140013 -0.0067026756 -1.6503104e-20)
(0.076414957 -0.0066743162 1.9122895e-20)
(0.091136645 -0.0066128133 1.8174322e-20)
(0.1062501 -0.006523359 1.0524374e-21)
(0.12170353 -0.0064105166 -1.0317795e-20)
(0.13744862 -0.0062782449 8.3270437e-21)
(0.15344016 -0.0061298912 1.8234011e-20)
(0.1696354 -0.0059683188 -5.2275413e-21)
(0.18599368 -0.0057960131 -1.0175103e-20)
(0.20247625 -0.0056151454 -4.3196593e-21)
(0.21904608 -0.0054276246 -4.425797e-21)
(0.23566775 -0.0052351429 7.3667823e-22)
(0.2523074 -0.0050392107 1.2286312e-21)
(0.26893269 -0.0048411831 2.5667095e-21)
(0.28551284 -0.0046422799 6.6540995e-21)
(0.30201866 -0.0044436004 2.4891241e-22)
(0.31842263 -0.004246134 -3.4515652e-21)
(0.3346989 -0.0040507684 1.5558277e-22)
(0.3508234 -0.0038582953 -5.7711637e-22)
(0.36677389 -0.0036694147 1.24348e-21)
(0.38252997 -0.003484739 1.0522657e-21)
(0.39807312 -0.0033047968 -1.2988865e-21)
(0.41338672 -0.0031300363 -1.2218331e-22)
(0.42845606 -0.0029608295 3.5697177e-23)
(0.4432683 -0.0027974765 -3.5189908e-22)
(0.45781245 -0.0026402104 -4.0571243e-22)
(0.47207932 -0.0024892026 5.5452656e-23)
(0.48606154 -0.0023445685 -1.3810568e-22)
(0.49975341 -0.0022063735 -2.2345413e-22)
(0.51315094 -0.00207464 2.5575235e-22)
(0.52625181 -0.0019493539 2.950658e-22)
(0.53905523 -0.0018304735 -8.3021739e-24)
(0.55156237 -0.0017179338 -1.5525379e-22)
(0.5637752 -0.0016116743 3.040614e-23)
(0.57570037 -0.0015115947 -4.0154104e-23)
(0.58733808 -0.001417767 9.2269967e-23)
(0.59871744 -0.0013298548 2.1962477e-23)
(0.60979276 -0.0012491439 -1.1413234e-22)
(0.62075647 -0.0011724219 -6.7765736e-24)
(0.63113012 -0.0011119302 -6.399607e-26)
(0.64242688 -0.0010346838 -3.5862945e-24)
(0.65050938 -0.0010516336 2.9446533e-23)
(0.66710724 -0.00087650058 3.6073326e-22)
(0.010446665 -0.015017869 -1.2746995e-20)
(0.018180645 -0.016641298 -6.3303088e-20)
(0.027780341 -0.017915726 -3.0542355e-20)
(0.03838647 -0.018672406 3.8476527e-20)
(0.04962253 -0.019183944 1.4662814e-20)
(0.061508411 -0.019529809 -1.8205213e-20)
(0.074014863 -0.019710262 4.6723066e-21)
(0.087064995 -0.019746908 2.5447555e-20)
(0.10059577 -0.019667715 9.1958598e-23)
(0.11455697 -0.019492152 -7.659261e-21)
(0.12890049 -0.019234828 -1.3021167e-20)
(0.14357971 -0.018908796 -8.5247041e-21)
(0.15855075 -0.018525473 1.7772623e-20)
(0.17377209 -0.018094516 8.9298125e-21)
(0.189204 -0.01762421 -1.6522657e-20)
(0.20480827 -0.017121777 -6.0391625e-21)
(0.22054818 -0.016593556 3.2145428e-21)
(0.23638836 -0.016045144 8.3717517e-21)
(0.25229475 -0.01548152 6.983379e-21)
(0.2682346 -0.014907145 -6.9729287e-21)
(0.28417648 -0.014326033 -3.1687066e-21)
(0.30009038 -0.01374181 1.3606515e-21)
(0.31594772 -0.013157751 3.8694744e-22)
(0.33172144 -0.012576811 1.2114575e-21)
(0.34738608 -0.012001647 1.8371631e-22)
(0.36291787 -0.011434634 -3.2665541e-22)
(0.37829473 -0.010877873 -7.244028e-22)
(0.39349639 -0.010333209 9.7168486e-22)
(0.40850437 -0.0098022361 8.2491861e-22)
(0.42330203 -0.0092863109 -1.5156522e-22)
(0.43787455 -0.0087865618 5.5314575e-22)
(0.45220893 -0.0083039038 -2.3882497e-22)
(0.46629398 -0.0078390515 -3.7078215e-22)
(0.48012028 -0.0073925357 -6.1009626e-22)
(0.49368012 -0.0069647197 4.4176655e-22)
(0.50696748 -0.0065558176 -1.5574368e-23)
(0.51997798 -0.0061659148 1.6135062e-22)
(0.5327089 -0.0057949866 -4.4191045e-22)
(0.54515902 -0.005442927 3.7211918e-22)
(0.55732904 -0.0051095584 6.7197619e-23)
(0.56922047 -0.0047947169 -1.0285812e-22)
(0.58083945 -0.0044981195 1.7630288e-22)
(0.59218575 -0.004219997 2.3365929e-22)
(0.60328772 -0.0039593596 1.6950078e-22)
(0.61409986 -0.0037200593 1.6796861e-22)
(0.62481171 -0.0034925318 -2.6154323e-23)
(0.63495123 -0.0033132601 8.4337451e-23)
(0.64600863 -0.0030840654 7.6586647e-23)
(0.65391159 -0.003134829 -1.9508472e-22)
(0.67019042 -0.0026152479 -3.7976836e-23)
(0.067616089 -0.024029588 9.452954e-21)
(0.073591227 -0.026749533 3.2951672e-21)
(0.082267251 -0.028806093 -1.2162432e-20)
(0.091949774 -0.029969064 -1.2258401e-21)
(0.10198539 -0.030768457 1.4970826e-20)
(0.11254876 -0.031331517 -1.4887332e-20)
(0.12367865 -0.031636727 -2.9842742e-20)
(0.13529979 -0.031713693 1.4493778e-20)
(0.14736023 -0.031608352 1.8182285e-20)
(0.15982703 -0.0313508 -1.1598724e-20)
(0.17266455 -0.030962592 1.0190718e-21)
(0.18583515 -0.030463551 8.6860836e-21)
(0.19930258 -0.029871375 -1.525385e-20)
(0.21303175 -0.029201087 2.9097339e-21)
(0.22698807 -0.028465633 7.5196203e-21)
(0.24113754 -0.027676402 3.1469796e-23)
(0.25544681 -0.02684348 2.6548345e-22)
(0.26988329 -0.025975842 -7.4153038e-21)
(0.28441514 -0.025081535 3.86194e-21)
(0.29901145 -0.024167814 8.4751821e-21)
(0.31364228 -0.023241254 -3.8353061e-21)
(0.32827878 -0.022307822 -2.2130911e-21)
(0.34289335 -0.021372932 1.0124285e-21)
(0.35745966 -0.020441492 -1.7156259e-21)
(0.37195283 -0.019517931 1.3532654e-21)
(0.38634948 -0.018606218 7.1848255e-22)
(0.40062779 -0.017709883 1.5270733e-21)
(0.41476761 -0.016832031 -1.9529164e-21)
(0.42875045 -0.015975359 2.2238841e-21)
(0.44255956 -0.01514217 5.5195866e-22)
(0.45617988 -0.014334393 4.0341737e-22)
(0.46959809 -0.013553602 3.2136583e-22)
(0.48280258 -0.012801042 8.734843e-22)
(0.49578341 -0.012077653 -1.3712379e-21)
(0.50853229 -0.011384096 3.7078203e-22)
(0.52104255 -0.010720785 1.0954663e-22)
(0.5333091 -0.01008792 -4.5219549e-23)
(0.54532844 -0.0094855183 8.6681019e-23)
(0.55709854 -0.0089134608 -3.7201935e-22)
(0.56861924 -0.0083715083 1.8306382e-22)
(0.57989119 -0.0078594434 -3.5000125e-23)
(0.59091956 -0.007376849 3.9048281e-22)
(0.60170333 -0.0069241575 -1.8567405e-22)
(0.61226945 -0.0064997802 4.7365546e-23)
(0.62257275 -0.0061101165 4.3687382e-23)
(0.63279737 -0.0057394641 -7.3750343e-23)
(0.64248341 -0.0054478199 -1.2122016e-22)
(0.6530771 -0.0050741582 3.8910891e-22)
(0.6606317 -0.0051583626 1.7308374e-22)
(0.67629215 -0.0043116813 -8.3091371e-22)
(0.15021747 -0.031461066 1.50105e-21)
(0.15354924 -0.035258083 -1.1566708e-20)
(0.16061877 -0.038011662 6.644237e-21)
(0.16880867 -0.039479885 -1.332491e-20)
(0.17698524 -0.040521519 -1.9758572e-21)
(0.18552671 -0.041303152 9.1601099e-21)
(0.19458771 -0.04175815 -9.7664455e-21)
(0.20409072 -0.041914664 1.5662325e-21)
(0.21399179 -0.041834323 1.2903996e-20)
(0.22428042 -0.041555366 3.4033019e-21)
(0.23493732 -0.041103112 -6.2097958e-21)
(0.24593537 -0.040501552 -2.8639095e-21)
(0.25724714 -0.039772886 -5.8409263e-21)
(0.2688451 -0.038936227 -6.455477e-21)
(0.28070067 -0.038008181 3.2356412e-21)
(0.29278455 -0.037003541 8.4608889e-22)
(0.30506718 -0.035935597 1.3680369e-21)
(0.31751897 -0.034816328 -3.3851107e-21)
(0.33011052 -0.033656589 -4.2430849e-21)
(0.34281281 -0.03246627 2.361762e-21)
(0.35559741 -0.031254407 3.2253272e-21)
(0.36843668 -0.030029264 -1.5637723e-21)
(0.3813039 -0.028798389 1.5868216e-21)
(0.39417344 -0.027568661 -3.913081e-22)
(0.40702088 -0.026346317 -3.9199937e-21)
(0.41982313 -0.025136974 -3.0334447e-21)
(0.43255852 -0.023945649 -1.9033061e-22)
(0.44520684 -0.022776777 4.2854726e-22)
(0.45774947 -0.021634228 -2.2107609e-21)
(0.47016932 -0.02052133 -8.5518917e-22)
(0.48245094 -0.019440889 2.2838935e-22)
(0.49458045 -0.018395221 -1.250122e-21)
(0.5065456 -0.017386183 6.2055998e-24)
(0.51833568 -0.016415203 -4.2434979e-22)
(0.52994159 -0.015483325 -4.7198913e-22)
(0.54135572 -0.014591247 -5.202368e-22)
(0.55257198 -0.013739366 -8.4176753e-22)
(0.56358582 -0.012927821 -5.4466117e-23)
(0.57439409 -0.012156561 -3.9169742e-24)
(0.58499547 -0.011425366 -5.2006222e-22)
(0.59538941 -0.010734041 -9.1569558e-23)
(0.60557981 -0.010082111 -3.3271584e-22)
(0.61556453 -0.0094702719 -4.3815481e-22)
(0.62536864 -0.0088964266 3.7892265e-22)
(0.6349475 -0.0083694743 1.484167e-23)
(0.64447754 -0.0078679484 1.8273016e-22)
(0.65351641 -0.0074741006 -1.3289256e-22)
(0.66344712 -0.0069680534 -2.6757868e-22)
(0.67050376 -0.007084898 -4.4318011e-23)
(0.68527733 -0.0059391916 4.6261182e-22)
(0.25468868 -0.036553595 -2.0900578e-20)
(0.25447339 -0.041394402 4.7586452e-20)
(0.25907671 -0.04474661 1.0348195e-20)
(0.26508773 -0.046443048 -1.5765512e-20)
(0.27071317 -0.04771537 -2.0228611e-21)
(0.27652403 -0.048748881 2.6232158e-21)
(0.28283985 -0.049414873 -1.6608893e-21)
(0.28958154 -0.049729302 -4.686208e-21)
(0.29670151 -0.04976268 -4.0159765e-21)
(0.30421072 -0.049558348 -1.2207828e-20)
(0.31210777 -0.049143028 1.7898125e-20)
(0.32037533 -0.048542187 6.5221585e-21)
(0.32899333 -0.047780393 -1.678081e-20)
(0.33794078 -0.046879489 1.0317638e-20)
(0.34719426 -0.045858813 8.3850169e-21)
(0.3567284 -0.044735867 -8.7912433e-22)
(0.3665166 -0.043526663 -3.122192e-21)
(0.37653157 -0.042245887 -3.819941e-21)
(0.38674566 -0.040907041 -1.3893542e-21)
(0.39713115 -0.039522579 -1.2305108e-21)
(0.40766057 -0.038103993 -3.0259676e-21)
(0.41830696 -0.036661889 0)
(0.42904404 -0.035206025 -1.3452997e-21)
(0.43984642 -0.033745346 3.9311243e-21)
(0.45068977 -0.032288009 5.4056357e-21)
(0.46155092 -0.030841396 -9.4115314e-22)
(0.47240798 -0.029412135 -2.9278103e-21)
(0.48324042 -0.028006113 3.0262922e-21)
(0.49402914 -0.026628499 2.5435327e-22)
(0.50475648 -0.025283765 3.4357636e-21)
(0.5154063 -0.023975719 -5.3462693e-22)
(0.52596394 -0.022707536 1.7175998e-21)
(0.53641624 -0.021481799 -7.9983622e-22)
(0.54675155 -0.020300545 2.910948e-22)
(0.55695967 -0.019165312 -4.3421454e-22)
(0.56703187 -0.018077189 5.6245322e-22)
(0.57696086 -0.01703688 4.5729381e-22)
(0.58674082 -0.016044753 3.8274201e-22)
(0.59636728 -0.015100928 -9.5986891e-22)
(0.60583755 -0.014205301 6.839715e-22)
(0.6151497 -0.013357798 -3.6982036e-22)
(0.62430612 -0.012557979 -1.1043067e-21)
(0.63330342 -0.011806883 1.4092753e-21)
(0.64216441 -0.011102014 -6.206351e-23)
(0.65084521 -0.010454698 -1.5839542e-22)
(0.65951271 -0.0098382051 -7.8394075e-24)
(0.6677468 -0.0093553268 -1.2661748e-22)
(0.67685069 -0.0087327242 -4.6687246e-22)
(0.68328711 -0.0088809939 8.7858315e-22)
(0.69694901 -0.007473205 -4.4354192e-23)
(0.3763551 -0.038369201 -1.7495325e-20)
(0.37171375 -0.044271323 1.2832159e-20)
(0.37287108 -0.048162769 2.9755509e-21)
(0.37591486 -0.050100065 -7.6354656e-21)
(0.37830991 -0.051671242 1.2056133e-20)
(0.38072782 -0.0530437 7.7915147e-21)
(0.38368116 -0.054031423 -1.2647817e-20)
(0.387106 -0.054634542 -6.0680619e-21)
(0.39093495 -0.054919497 1.2697525e-20)
(0.39518846 -0.05492868 -1.5305311e-20)
(0.39988061 -0.054689113 -1.4063408e-20)
(0.40500179 -0.054226302 1.4129999e-20)
(0.41053571 -0.053565359 6.8195037e-21)
(0.41646467 -0.052729699 -4.2040313e-21)
(0.42276807 -0.051740816 -1.8544717e-21)
(0.42942241 -0.050618599 -4.0581225e-21)
(0.43640234 -0.049381602 5.3047229e-21)
(0.44368133 -0.048047178 3.6682832e-21)
(0.45123216 -0.046631551 -3.2408621e-21)
(0.45902729 -0.045149872 3.1380161e-21)
(0.4670392 -0.043616271 2.7668188e-21)
(0.47524071 -0.042043897 -3.2112688e-21)
(0.48360519 -0.040444933 3.7057606e-22)
(0.49210683 -0.038830613 -3.2572511e-21)
(0.50072073 -0.037211231 7.2461408e-21)
(0.5094231 -0.035596146 6.1085534e-21)
(0.51819135 -0.0339938 8.0990252e-22)
(0.52700415 -0.032411729 -1.76847e-21)
(0.53584156 -0.030856583 3.7027884e-21)
(0.544685 -0.029334159 7.189672e-21)
(0.55351732 -0.02784943 2.3052065e-21)
(0.56232282 -0.02640659 3.3171333e-21)
(0.5710872 -0.025009105 1.995982e-21)
(0.57979764 -0.023659759 7.457786e-22)
(0.58844268 -0.022360722 -2.6377336e-22)
(0.59701232 -0.021113611 2.7211976e-21)
(0.60549791 -0.019919559 6.2014134e-22)
(0.61389225 -0.018779287 2.9498447e-22)
(0.62218946 -0.017693202 5.6252115e-23)
(0.63038538 -0.01666143 9.9029734e-22)
(0.63847661 -0.015684122 4.7038766e-23)
(0.64646397 -0.014760978 4.4287367e-22)
(0.65434276 -0.013893458 -1.2631607e-22)
(0.66213331 -0.013078797 -2.7769985e-22)
(0.66979287 -0.012330642 -1.5239873e-22)
(0.67747725 -0.011617595 -4.2278749e-22)
(0.68479261 -0.011060915 1.6185304e-22)
(0.69294877 -0.010340242 -1.2748894e-22)
(0.69867619 -0.010518362 -5.0109685e-22)
(0.71105479 -0.0088918293 2.4608662e-22)
(0.50927874 -0.035975491 3.6471266e-21)
(0.499535 -0.042961934 -1.8958442e-20)
(0.49628035 -0.047384795 -2.3084206e-21)
(0.49556093 -0.049738161 5.4870042e-21)
(0.49417476 -0.051819488 3.0528772e-21)
(0.4927012 -0.053706916 -4.9824125e-23)
(0.491818 -0.055189216 6.189823e-21)
(0.49152049 -0.056267027 7.625227e-21)
(0.49171793 -0.056992221 9.8581587e-21)
(0.49241729 -0.057397321 -1.1250233e-20)
(0.49363793 -0.057508106 -2.1579848e-20)
(0.495375 -0.05735028 -3.9354881e-21)
(0.49761226 -0.05694905 1.5938488e-20)
(0.500331 -0.056328986 1.2809237e-20)
(0.50351004 -0.055513766 -5.9067386e-21)
(0.50712535 -0.054525936 1.3816103e-21)
(0.51115069 -0.053386931 -3.6602798e-21)
(0.51555854 -0.052117143 2.2446528e-21)
(0.52032061 -0.050735911 -2.9123657e-22)
(0.52540823 -0.04926149 -1.8654837e-21)
(0.53079275 -0.04771105 7.8270137e-21)
(0.53644579 -0.046100667 -2.9317013e-22)
(0.54233954 -0.044445317 4.1826814e-22)
(0.54844698 -0.042758866 -6.5640432e-22)
(0.55474198 -0.041054067 -4.3032014e-21)
(0.56119954 -0.039342558 4.2087971e-21)
(0.5677958 -0.037634872 1.9031848e-21)
(0.57450822 -0.035940449 -3.3084568e-21)
(0.58131555 -0.034267663 -4.1118908e-21)