/*--------------------------------*- C++ -*----------------------------------*\
  =========                 |
  \\      /  F ield         | OpenFOAM: The Open Source CFD Toolbox
   \\    /   O peration     | Website:  https://openfoam.org
    \\  /    A nd           | Version:  6
     \\/     M anipulation  |
\*---------------------------------------------------------------------------*/
FoamFile
{
    version     2.0;
    format      ascii;
    class       volVectorField;
    location    "139";
    object      U_0;
}
// * * * * * * * * * * * * * * * * * * * * * * * * * * * * * * * * * * * * * //

dimensions      [0 1 -1 0 0 0 0];

internalField   nonuniform List<vector> 
9200
(
(0.0010393817 0.0014199634 -5.9202118e-20)
(0.013676222 -0.0020584484 4.6042776e-20)
(0.038313502 -0.0058667113 -3.8501932e-20)
(0.072275003 -0.0097637108 -6.0258042e-20)
(0.11376558 -0.013490298 1.882707e-20)
(0.16158203 -0.016605992 3.2744051e-20)
(0.21467296 -0.018817684 -1.2268082e-20)
(0.2720679 -0.019974355 9.2689193e-21)
(0.33285842 -0.020011754 1.6803507e-20)
(0.39616604 -0.01892965 1.4848153e-21)
(0.46111849 -0.016780483 -2.1456463e-20)
(0.52684014 -0.013658472 2.0670131e-20)
(0.59245428 -0.0096888152 -4.042238e-20)
(0.65709519 -0.0050166754 -2.1134045e-20)
(0.71992884 0.0002045744 5.9046903e-21)
(0.78017933 0.0058230127 -2.5131866e-20)
(0.83717504 0.011711627 2.5217328e-20)
(0.89047327 0.017917214 2.2243475e-20)
(0.93967523 0.024571993 -2.9924347e-22)
(0.98205634 0.02829185 -1.6691195e-21)
(0.0052522408 -0.0013463056 -1.7059431e-20)
(0.02696273 -0.0089891419 3.9747906e-20)
(0.061670576 -0.014809952 2.3576412e-20)
(0.10629563 -0.019172524 -1.156981e-19)
(0.15873671 -0.022214315 -1.2727153e-20)
(0.21753493 -0.023721064 7.329741e-20)
(0.28137474 -0.023595534 -3.5476573e-20)
(0.34900817 -0.021869461 -8.3905977e-21)
(0.41924174 -0.018646079 3.4287721e-20)
(0.49091235 -0.014081456 -4.3259822e-20)
(0.56287557 -0.0083766292 -3.0338674e-20)
(0.63401203 -0.0017673415 7.1921936e-20)
(0.70324713 0.0054875721 3.829431e-20)
(0.76957986 0.013117727 -6.7977084e-20)
(0.83211665 0.020851085 1.4623822e-20)
(0.89010465 0.028418606 -3.6733724e-20)
(0.94297347 0.035568464 -1.3777289e-20)
(0.99043656 0.042139557 7.0975537e-20)
(1.0323602 0.047713855 2.9642444e-20)
(1.0669388 0.049138125 -8.3478824e-20)
(0.010858517 -0.0040424602 3.677361e-20)
(0.04395373 -0.01543122 2.5047444e-21)
(0.090516038 -0.022552504 2.2341819e-20)
(0.14711233 -0.026497647 9.8117241e-22)
(0.21134384 -0.027886645 -4.077414e-20)
(0.28146936 -0.026795516 1.8576479e-20)
(0.35587248 -0.02338318 1.3420366e-20)
(0.43299254 -0.017922039 -5.0327954e-20)
(0.51132762 -0.010736203 5.7262166e-20)
(0.58942933 -0.0021844873 1.4256791e-20)
(0.66591265 0.0073472378 -5.4301081e-20)
(0.7394841 0.017459526 -1.8237559e-20)
(0.80897991 0.027755747 9.0591393e-21)
(0.87340669 0.037858366 2.344494e-20)
(0.93197773 0.047423036 -1.1362626e-20)
(0.98413777 0.056147854 2.7877979e-20)
(1.029578 0.063787935 -2.0188407e-20)
(1.0682684 0.070203026 -7.0124307e-20)
(1.1003359 0.075117882 -2.3796554e-20)
(1.1249147 0.076639625 4.8660168e-20)
(0.01795734 -0.0064222168 2.4508109e-20)
(0.06477741 -0.020694961 5.1039437e-20)
(0.12485304 -0.028061088 1.9881775e-20)
(0.1944708 -0.030464367 1.299014e-20)
(0.27095086 -0.029095194 1.7275771e-20)
(0.35225075 -0.024389374 -4.7720383e-20)
(0.43643375 -0.016826408 -2.564698e-20)
(0.52162283 -0.0069771468 0)
(0.60603206 0.0045665111 1.3920756e-20)
(0.68799047 0.017211159 -5.8524307e-21)
(0.76597882 0.030373287 -9.7935598e-20)
(0.83867829 0.043498924 -1.5774888e-20)
(0.90501917 0.056085821 6.5103762e-20)
(0.96421964 0.06770324 4.8436061e-22)
(1.0158074 0.078006709 -1.5725708e-21)
(1.0596193 0.086745665 2.1957697e-20)
(1.0957809 0.093770973 -5.2647852e-21)
(1.1246835 0.099063947 -6.1030305e-20)
(1.146868 0.10259556 -4.5851707e-20)
(1.1622988 0.10341222 6.9521034e-20)
(0.026579585 -0.0082057467 -3.9194292e-21)
(0.089344542 -0.024033675 -5.1256447e-21)
(0.16430846 -0.030265229 5.6599626e-20)
(0.24758255 -0.029810311 1.8539395e-20)
(0.33624339 -0.024513357 -3.1955203e-20)
(0.42795347 -0.01524022 1.2163887e-20)
(0.52047523 -0.0028517528 2.6402996e-21)
(0.61166655 0.011736672 3.3609376e-20)
(0.6995504 0.027639677 5.6599861e-21)
(0.7823719 0.044028251 -1.3204864e-20)
(0.85865775 0.060147138 6.0154565e-20)
(0.92727289 0.075339802 -5.8009748e-20)
(0.98746056 0.089072094 -1.321672e-19)
(1.0388568 0.10094814 -5.577351e-21)
(1.0814761 0.11071609 8.3151523e-20)
(1.115669 0.11826292 0)
(1.1420581 0.12360457 1.0119039e-20)
(1.16147 0.12688917 -1.5459913e-20)
(1.1748208 0.12829719 -8.5995432e-21)
(1.18267 0.12744752 2.0992396e-20)
(0.036667116 -0.0090896385 -5.4309143e-21)
(0.11731574 -0.024685519 4.3578903e-21)
(0.20811977 -0.028140399 -8.7630157e-21)
(0.30515857 -0.023415211 2.8472499e-20)
(0.4053374 -0.01307587 -2.9392794e-20)
(0.50607391 0.0015223179 -1.6927104e-20)
(0.60490772 0.019094822 3.7364369e-20)
(0.69955273 0.038364906 4.7595525e-21)
(0.78800731 0.058167254 -2.4436278e-20)
(0.86863761 0.077482552 6.9868035e-20)
(0.94024338 0.095458112 5.2387929e-22)
(1.0020992 0.11143094 -8.0444995e-20)
(1.0539605 0.12494217 0)
(1.0960308 0.13573664 3.9542482e-20)
(1.1288955 0.14374744 5.5236548e-21)
(1.153431 0.14906781 -7.7567067e-20)
(1.170702 0.15191788 -1.9587088e-20)
(1.1818651 0.1526223 -1.2467739e-20)
(1.1880617 0.15152457 -1.4709517e-20)
(1.1901484 0.14858333 4.0420857e-20)
(0.04805912 -0.0087674586 -1.7278004e-20)
(0.14808385 -0.021932133 -2.219869e-21)
(0.25514194 -0.020798015 3.0380597e-20)
(0.36546558 -0.010412989 3.7484418e-20)
(0.47590641 0.005901385 -1.9944813e-20)
(0.58374528 0.026269096 -6.9163378e-20)
(0.68644481 0.048976982 -2.7995977e-20)
(0.78176527 0.07241753 7.8929677e-20)
(0.86790538 0.095212168 8.5779139e-21)
(0.94359268 0.11624923 -2.4873624e-20)
(1.0081294 0.1346978 1.3642258e-20)
(1.0613905 0.15001497 -4.3195032e-21)
(1.1037727 0.16193588 0)
(1.1361007 0.17044344 2.7203696e-20)
(1.1595076 0.17572212 -7.9323044e-20)
(1.1753049 0.17810259 -3.147578e-20)
(1.1848596 0.1780069 8.1055226e-20)
(1.1894946 0.17590811 -4.2970337e-21)
(1.1904053 0.17225414 3.5561311e-21)
(1.1885102 0.16719145 2.7111809e-20)
(0.060485546 -0.0069574059 -3.2414697e-20)
(0.18077858 -0.015170484 -8.1624601e-20)
(0.30389068 -0.0075836456 2.579739e-21)
(0.42642746 0.0097032422 7.01621e-20)
(0.54535385 0.032631447 6.2424651e-20)
(0.65798375 0.058819937 -7.1574817e-20)
(0.76191187 0.086176384 -2.8270101e-22)
(0.85518617 0.11285215 8.5523117e-20)
(0.93645684 0.13737815 4.8828379e-20)
(1.0050449 0.15869339 -5.4218802e-20)
(1.060939 0.17613521 -9.2334878e-20)
(1.1047275 0.189413 -3.1590057e-21)
(1.137479 0.19855876 4.2128177e-20)
(1.1605903 0.20385776 -6.6056792e-21)
(1.1756275 0.20576926 -1.2868879e-20)
(1.1841802 0.20484813 1.9690942e-20)
(1.1877452 0.2016778 4.3880949e-20)
(1.1876476 0.1968246 -4.3859752e-20)
(1.1849975 0.19077747 -1.0232282e-19)
(1.180627 0.18377235 2.4567103e-20)
(0.073537552 -0.0034329976 -3.4979876e-20)
(0.21422782 -0.0039890772 -1.7388657e-19)
(0.35251809 0.011839337 8.2103603e-20)
(0.48563001 0.037018323 9.2767911e-20)
(0.61085626 0.066835558 5.7970816e-20)
(0.72577008 0.098481187 8.6107568e-21)
(0.82835109 0.12959695 -1.0624066e-19)
(0.9171932 0.15824262 0)
(0.99163072 0.183028 -6.874909e-20)
(1.0517553 0.20311182 -1.5202532e-20)
(1.0983415 0.21814824 5.4703843e-20)
(1.1327038 0.22821033 1.097346e-20)
(1.1565138 0.23369197 -4.5614172e-20)
(1.1716095 0.2351987 -4.9081698e-20)
(1.1798229 0.23344246 2.4287861e-20)
(1.1828474 0.22915223 4.4823227e-20)
(1.1821511 0.22300875 -5.5600819e-20)
(1.1789381 0.21560703 -1.07512e-19)
(1.1741489 0.20742097 -3.1513606e-21)
(1.1684586 0.19871746 2.7046596e-20)
(0.086650819 0.0019613854 -3.5449393e-21)
(0.24696122 0.011816647 8.7913538e-20)
(0.39884901 0.037492366 -1.6479134e-20)
(0.54040677 0.071218483 -8.4309585e-20)
(0.66950155 0.10778906 4.5164597e-20)
(0.78422236 0.14411556 4.9175648e-20)
(0.88319243 0.17775678 5.5357116e-21)
(0.96578183 0.20688493 -9.9503084e-20)
(1.0321794 0.23038796 -2.5048942e-21)
(1.0833359 0.24781535 5.0503884e-20)
(1.12081 0.2592627 5.985517e-21)
(1.1465586 0.26523575 -1.9717341e-20)
(1.1627134 0.26650475 -7.570513e-20)
(1.171379 0.26396551 -6.2554337e-21)
(1.1744786 0.25852346 4.3533637e-20)
(1.173657 0.25100995 3.7022252e-20)
(1.1702404 0.24213293 1.9793552e-20)
(1.1652422 0.23245765 -5.2995266e-20)
(1.1594033 0.22240301 1.2957464e-20)
(1.153227 0.21223676 8.265964e-20)
(-0.0012932688 0.0014346672 -1.1234584e-21)
(-0.0047459862 0.0031874308 2.0647051e-21)
(-0.010771415 0.0041359238 8.7947295e-22)
(-0.017754376 0.0045395563 -2.4410744e-21)
(-0.024740437 0.0045654355 -1.4115038e-21)
(-0.031299738 0.0043260547 1.5460508e-21)
(-0.037161492 0.0039035506 -6.8701321e-21)
(-0.042147619 0.0033577297 -5.9573845e-21)
(-0.046157959 0.0027313842 1.1172097e-20)
(-0.04914637 0.0020548281 -9.7428365e-21)
(-0.051100823 0.001349292 -1.9833673e-22)
(-0.052030594 0.00062940734 3.6673755e-21)
(-0.05195786 -9.4910645e-05 -6.3296288e-22)
(-0.050911968 -0.00081695854 2.2818974e-20)
(-0.048925818 -0.0015318803 3.0401354e-22)
(-0.046035326 -0.0022352174 -4.088331e-20)
(-0.042281717 -0.0029223197 7.5386486e-21)
(-0.037703286 -0.003591099 2.386438e-20)
(-0.032308451 -0.0042400563 -4.3852887e-20)
(-0.026156623 -0.0048211923 -2.7739538e-20)
(-0.0016522088 0.004180889 -5.3716317e-21)
(-0.0053975091 0.0092681854 1.0865475e-20)
(-0.011218564 0.012007501 -1.0191582e-20)
(-0.017658108 0.013153823 3.9230114e-21)
(-0.023856538 0.013195468 4.8121914e-21)
(-0.02943344 0.01246277 7.1324814e-22)
(-0.034152452 0.011197048 -2.2509681e-20)
(-0.037860512 0.0095739175 -2.0370374e-21)
(-0.040474425 0.0077189926 2.0163703e-20)
(-0.041959032 0.0057212192 -5.0474031e-21)
(-0.042309034 0.0036428356 -2.1762782e-20)
(-0.041537385 0.001526665 4.8973617e-21)
(-0.039667715 -0.00059837302 2.263563e-20)
(-0.036729027 -0.0027128495 1.0308492e-20)
(-0.032751912 -0.0048028 2.1854512e-20)
(-0.027768969 -0.0068556429 -1.9770935e-20)
(-0.021824502 -0.0088583791 -2.1673173e-20)
(-0.014965874 -0.010804411 2.1184864e-20)
(-0.0071285034 -0.012679215 2.6810667e-20)
(0.0018749444 -0.014317465 1.5854933e-20)
(-0.0023034409 0.0065602675 -4.3568969e-21)
(-0.0065392548 0.014480267 -5.6387659e-21)
(-0.011892183 0.01871063 3.0723636e-22)
(-0.017211167 0.020428268 1.0959732e-21)
(-0.021819219 0.020400403 6.6918856e-21)
(-0.025431118 0.01915173 1.0665239e-20)
(-0.027877299 0.017066332 -3.7227912e-21)
(-0.029053317 0.014423805 -1.8896304e-20)
(-0.028909054 0.011424348 6.541368e-21)
(-0.027431024 0.0082098735 1.2862673e-20)
(-0.024627634 0.0048797149 5.834141e-21)
(-0.020519961 0.001502146 1.8159257e-20)
(-0.015135758 -0.0018769891 1.7296071e-21)
(-0.008505077 -0.0052274087 -3.3864835e-20)
(-0.00065646281 -0.0085278081 1.2020396e-21)
(0.00838157 -0.011759347 -2.2139405e-20)
(0.018557558 -0.014904376 -2.4466569e-20)
(0.029803025 -0.017954076 4.5820211e-20)
(0.04230598 -0.020855486 2.5349642e-20)
(0.056739785 -0.023248181 1.2241661e-22)
(-0.0031290424 0.0083690124 -5.2833463e-21)
(-0.0078964319 0.018336599 -8.4816375e-21)
(-0.01243903 0.023587911 4.3593302e-21)
(-0.016026579 0.02560976 4.1463766e-21)
(-0.018235057 0.025382834 2.0105841e-21)
(-0.018912662 0.023589388 7.3210475e-21)
(-0.017984691 0.020730312 9.3125416e-21)
(-0.015416634 0.017170384 -1.3511428e-21)
(-0.011206908 0.013171284 -1.1482027e-20)
(-0.0053750151 0.0089188629 -2.9072101e-20)
(0.0020484237 0.0045433271 6.1897886e-23)
(0.01102693 0.00013415697 4.069815e-20)
(0.021522773 -0.0042491513 -1.8383313e-20)
(0.033498541 -0.0085678342 -1.2296194e-20)
(0.046921363 -0.012795847 5.5347967e-22)
(0.061761124 -0.016912211 3.2302949e-20)
(0.077954239 -0.020902083 -1.4829713e-20)
(0.095393705 -0.02476385 -5.3339698e-20)
(0.11440013 -0.028380257 4.5765453e-20)
(0.13634733 -0.031073696 3.30135e-20)
(-0.0039704266 0.0094657769 -6.8788632e-22)
(-0.0090916901 0.02048788 -1.2534822e-20)
(-0.012364501 0.026159189 -3.4144803e-20)
(-0.013552551 0.028143435 -5.7242131e-21)
(-0.012533214 0.027555085 -3.6222971e-21)
(-0.0093166465 0.025188113 6.3051455e-21)
(-0.0039454972 0.021627424 -4.6462208e-21)
(0.0035263629 0.01729893 -8.8070739e-21)
(0.01303716 0.012508676 2.1899853e-20)
(0.024521705 0.0074743174 5.0567327e-21)
(0.037916143 0.002348726 -2.5290499e-20)
(0.053158211 -0.002763018 1.1078354e-20)
(0.070187813 -0.0077911673 0)
(0.088947727 -0.012691658 1.2089672e-20)
(0.1093868 -0.017437339 -9.7016977e-21)
(0.13145902 -0.022010384 -1.433725e-20)
(0.15507593 -0.026409206 -1.5738695e-21)
(0.18006974 -0.030660057 -2.2181906e-21)
(0.20685585 -0.034577251 4.6147438e-20)
(0.23766636 -0.037020664 -1.0470279e-20)
(-0.0046451152 0.0097809041 -7.5357106e-21)
(-0.0096772766 0.020747958 2.4516572e-20)
(-0.011064387 0.026161063 -1.0499428e-20)
(-0.0090967961 0.027724519 -2.7469471e-20)
(-0.0039796189 0.026601742 -2.7548332e-20)
(0.0040963719 0.023648418 -1.4921666e-20)
(0.014954447 0.019496423 -6.9059398e-22)
(0.028436662 0.01460462 5.5500043e-21)
(0.044403725 0.0093033055 1.961599e-20)
(0.062731247 0.0038282149 7.3531328e-21)
(0.08330526 -0.0016550187 -7.1862651e-21)
(0.10602013 -0.0070325685 -2.0102327e-21)
(0.13077496 -0.012229497 -3.8191986e-20)
(0.15747109 -0.017200225 -1.2693739e-20)
(0.18601392 -0.021920283 1.8750772e-20)
(0.21631399 -0.026380345 -2.1021857e-20)
(0.24823476 -0.030602934 -8.9731323e-21)
(0.28152153 -0.034671406 3.0440687e-20)
(0.31661023 -0.038365711 5.0472461e-20)
(0.35665372 -0.039965082 3.3559982e-21)
(-0.0049617832 0.009314033 1.6783393e-20)
(-0.009166281 0.019097767 1.4468018e-20)
(-0.0078593364 0.023563421 5.114581e-20)
(-0.0018584398 0.024328977 2.3388135e-20)
(0.0082959218 0.022523782 1.8251889e-22)
(0.022222264 0.019014337 -3.9388692e-20)
(0.039597917 0.014440836 -2.4314017e-20)
(0.060148555 0.0092662006 1.0465873e-20)
(0.083639965 0.0038230057 1.4401672e-20)
(0.10986776 -0.0016515892 -1.3113777e-20)
(0.13864695 -0.0069913706 -4.4039001e-20)
(0.16980329 -0.012083283 2.9618697e-20)
(0.20316592 -0.016854672 2.0020674e-20)
(0.23856163 -0.021264588 -2.7551347e-20)
(0.2758148 -0.02529708 1.1650226e-20)
(0.31475094 -0.028957931 2.419779e-20)
(0.35514863 -0.032303905 8.0724631e-21)
(0.39663739 -0.035507623 -1.1764322e-20)
(0.43958088 -0.038393688 -1.4190377e-20)
(0.48798932 -0.038635548 5.8728953e-21)
(-0.004730785 0.0081236966 1.1093909e-20)
(-0.0070585886 0.015671204 -2.3352875e-20)
(-0.0020292879 0.018562044 8.6200946e-21)
(0.0090327019 0.018216205 3.3588173e-20)
(0.02525668 0.015651085 5.2124659e-20)
(0.046066824 0.011695485 2.027663e-20)
(0.070985205 0.0069607747 -5.8639767e-21)
(0.099602853 0.0018827086 -1.2286346e-20)
(0.1315701 -0.0032275101 -6.2057923e-21)
(0.1665771 -0.0081500423 3.4241039e-20)
(0.20433596 -0.012733781 -4.5104832e-21)
(0.24456687 -0.016879727 -1.6643414e-20)
(0.28698705 -0.020529307 -1.9693688e-20)
(0.33130267 -0.023657118 -4.7444056e-20)
(0.37720762 -0.026266325 2.323886e-20)
(0.42439109 -0.028388743 -1.4096086e-20)
(0.47250346 -0.030128594 2.5993608e-20)
(0.52104024 -0.031784256 2.1040987e-20)
(0.57021832 -0.033351844 -8.5570903e-20)
(0.62471382 -0.032060111 -1.0804192e-22)
(-0.0037710507 0.0063146496 2.1925168e-20)
(-0.0028657199 0.010735089 -2.6165686e-20)
(0.007142249 0.011564098 -4.5013548e-20)
(0.024450518 0.0099249078 -2.7253937e-20)
(0.047871314 0.0066521713 -2.0439981e-21)
(0.076629377 0.0024904228 1.3050152e-20)
(0.11007765 -0.0020156543 -2.8337746e-21)
(0.14765325 -0.0064882316 1.8118631e-20)
(0.18886244 -0.010663903 8.868602e-21)
(0.23325374 -0.014362895 -1.1380234e-20)
(0.28039362 -0.017469499 8.8779825e-21)
(0.32984851 -0.019917435 -2.3903409e-20)
(0.38117163 -0.021679409 8.0505442e-21)
(0.43389402 -0.022760671 1.6756504e-20)
(0.48752287 -0.023195184 -2.6395313e-21)
(0.541551 -0.023047865 1.6619072e-21)
(0.59543961 -0.022470512 -3.1956932e-22)
(0.64852226 -0.021871265 1.9590566e-20)
(0.70082705 -0.02144632 4.0434279e-21)
(0.75745635 -0.018500445 -5.734976e-22)
(-0.0019109986 0.004027344 2.3692241e-20)
(0.0038695233 0.0046764761 5.7160281e-20)
(0.020315539 0.0031878733 -4.9244487e-20)
(0.045178696 0.00029428139 -9.9454669e-21)
(0.076965785 -0.0034243561 2.0256443e-20)
(0.11469712 -0.0073538536 2.1433825e-21)
(0.15754001 -0.011055291 -2.9815311e-20)
(0.2047498 -0.014244541 6.9848384e-21)
(0.25565132 -0.016738401 7.1098361e-21)
(0.30960691 -0.018427501 -2.6254227e-20)
(0.36598901 -0.019260716 1.2927429e-21)
(0.42416247 -0.019232562 -3.7174339e-20)
(0.48347426 -0.018372977 -3.634125e-20)
(0.54324923 -0.016739134 6.5683935e-20)
(0.60279201 -0.014408247 5.5627903e-21)
(0.66139301 -0.011476936 -1.5188933e-20)
(0.71831224 -0.0081031792 1.9364105e-20)
(0.77270359 -0.0045941003 -9.1888807e-22)
(0.82409306 -0.00096938835 2.0364648e-20)
(0.87622445 0.004326616 -1.9554378e-20)
(-0.018835958 -0.0050997878 5.8352767e-20)
(-0.01022405 -0.0056350202 1.5783852e-20)
(-0.00022041959 -0.006068982 -3.5139995e-20)
(0.010824192 -0.0063342191 1.6790468e-20)
(0.022643644 -0.0065121635 0)
(0.035179295 -0.0066302134 0)
(0.048371327 -0.0066911034 -2.2975276e-20)
(0.062140021 -0.0067026761 -1.6503107e-20)
(0.076414965 -0.0066743166 1.9122899e-20)
(0.091136654 -0.0066128138 1.8174324e-20)
(0.10625011 -0.0065233595 1.0524372e-21)
(0.12170354 -0.0064105172 -1.0317795e-20)
(0.13744864 -0.0062782455 8.3270458e-21)
(0.15344018 -0.0061298918 1.8234011e-20)
(0.16963542 -0.0059683194 -5.2275435e-21)
(0.1859937 -0.0057960138 -1.0175103e-20)
(0.20247627 -0.005615146 -4.319659e-21)
(0.2190461 -0.0054276252 -4.4257957e-21)
(0.23566778 -0.0052351436 7.3667785e-22)
(0.25230743 -0.0050392114 1.2286313e-21)
(0.26893272 -0.0048411838 2.5667105e-21)
(0.28551287 -0.0046422807 6.6540998e-21)
(0.3020187 -0.0044436011 2.4891103e-22)
(0.31842267 -0.0042461348 -3.4515656e-21)
(0.33469894 -0.0040507693 1.5558249e-22)
(0.35082345 -0.0038582962 -5.7711644e-22)
(0.36677394 -0.0036694156 1.2434802e-21)
(0.38253002 -0.00348474 1.0522654e-21)
(0.39807318 -0.0033047978 -1.2988876e-21)
(0.41338679 -0.0031300373 -1.2218309e-22)
(0.42845613 -0.0029608305 3.5695948e-23)
(0.44326837 -0.0027974776 -3.5189916e-22)
(0.45781252 -0.0026402115 -4.0571308e-22)
(0.47207941 -0.0024892038 5.5453341e-23)
(0.48606163 -0.0023445697 -1.3810573e-22)
(0.49975351 -0.0022063748 -2.2345408e-22)
(0.51315105 -0.0020746413 2.5575231e-22)
(0.52625192 -0.0019493552 2.950657e-22)
(0.53905536 -0.001830475 -8.3026693e-24)
(0.55156251 -0.0017179354 -1.5525445e-22)
(0.56377535 -0.0016116759 3.040595e-23)
(0.57570053 -0.0015115964 -4.0153983e-23)
(0.58733826 -0.0014177688 9.2270214e-23)
(0.59871763 -0.0013298568 2.1962029e-23)
(0.60979297 -0.001249146 -1.1413355e-22)
(0.6207567 -0.0011724242 -6.7765709e-24)
(0.63113037 -0.0011119327 -6.3856286e-26)
(0.64242716 -0.0010346865 -3.5863685e-24)
(0.65050967 -0.0010516367 2.9446363e-23)
(0.6671076 -0.00087650399 3.6073357e-22)
(0.010446668 -0.01501787 -1.2746996e-20)
(0.018180648 -0.016641299 -6.3303096e-20)
(0.027780345 -0.017915727 -3.0542358e-20)
(0.038386475 -0.018672407 3.8476531e-20)
(0.049622536 -0.019183946 1.4662816e-20)
(0.061508418 -0.01952981 -1.8205215e-20)
(0.074014871 -0.019710263 4.6723074e-21)
(0.087065004 -0.019746909 2.5447559e-20)
(0.10059578 -0.019667717 9.1958197e-23)
(0.11455699 -0.019492154 -7.6592623e-21)
(0.1289005 -0.01923483 -1.3021167e-20)
(0.14357972 -0.018908798 -8.5247056e-21)
(0.15855076 -0.018525475 1.7772624e-20)
(0.17377211 -0.018094518 8.9298155e-21)
(0.18920402 -0.017624211 -1.6522657e-20)
(0.20480829 -0.017121779 -6.0391629e-21)
(0.2205482 -0.016593558 3.2145427e-21)
(0.23638838 -0.016045147 8.3717517e-21)
(0.25229478 -0.015481523 6.9833798e-21)
(0.26823462 -0.014907147 -6.9729303e-21)
(0.28417651 -0.014326035 -3.1687082e-21)
(0.30009042 -0.013741812 1.3606527e-21)
(0.31594776 -0.013157753 3.8694883e-22)
(0.33172148 -0.012576813 1.2114579e-21)
(0.34738613 -0.01200165 1.8371664e-22)
(0.36291791 -0.011434636 -3.2665576e-22)
(0.37829478 -0.010877875 -7.2440319e-22)
(0.39349645 -0.010333212 9.716858e-22)
(0.40850443 -0.009802239 8.2491924e-22)
(0.42330209 -0.0092863138 -1.51566e-22)
(0.43787461 -0.0087865649 5.5314632e-22)
(0.452209 -0.008303907 -2.3882503e-22)
(0.46629406 -0.0078390549 -3.7078267e-22)
(0.48012037 -0.0073925392 -6.1009681e-22)
(0.49368021 -0.0069647233 4.417667e-22)
(0.50696758 -0.0065558214 -1.5575036e-23)
(0.51997809 -0.0061659187 1.613512e-22)
(0.53270902 -0.0057949907 -4.4191115e-22)
(0.54515915 -0.0054429314 3.7212022e-22)
(0.55732918 -0.005109563 6.7197688e-23)
(0.56922062 -0.0047947218 -1.0285812e-22)
(0.58083961 -0.0044981247 1.763035e-22)
(0.59218592 -0.0042200026 2.3366031e-22)
(0.60328791 -0.0039593656 1.6950166e-22)
(0.61410007 -0.0037200658 1.6796972e-22)
(0.62481194 -0.0034925387 -2.6154543e-23)
(0.63495148 -0.0033132676 8.4338428e-23)
(0.64600891 -0.0030840735 7.6587177e-23)
(0.65391189 -0.003134838 -1.9508591e-22)
(0.67019078 -0.0026152582 -3.7976625e-23)
(0.067616094 -0.02402959 9.4529545e-21)
(0.073591233 -0.026749534 3.2951671e-21)
(0.082267257 -0.028806095 -1.2162433e-20)
(0.091949781 -0.029969066 -1.2258401e-21)
(0.1019854 -0.030768459 1.4970828e-20)
(0.11254877 -0.031331519 -1.4887334e-20)
(0.12367866 -0.03163673 -2.9842747e-20)
(0.1352998 -0.031713695 1.449378e-20)
(0.14736024 -0.031608355 1.8182288e-20)
(0.15982704 -0.031350803 -1.1598726e-20)
(0.17266457 -0.030962594 1.0190719e-21)
(0.18583517 -0.030463554 8.6860837e-21)
(0.1993026 -0.029871378 -1.5253852e-20)
(0.21303177 -0.029201091 2.909736e-21)
(0.22698809 -0.028465636 7.5196215e-21)
(0.24113756 -0.027676405 3.1468477e-23)
(0.25544684 -0.026843483 2.6548262e-22)
(0.26988331 -0.025975846 -7.4153052e-21)
(0.28441517 -0.025081538 3.861942e-21)
(0.29901148 -0.024167818 8.4751838e-21)
(0.31364231 -0.023241258 -3.8353069e-21)
(0.32827882 -0.022307825 -2.2130914e-21)
(0.34289339 -0.021372936 1.0124283e-21)
(0.35745971 -0.020441496 -1.7156264e-21)
(0.37195288 -0.019517935 1.3532656e-21)
(0.38634953 -0.018606222 7.1848265e-22)
(0.40062784 -0.017709887 1.5270748e-21)
(0.41476767 -0.016832036 -1.9529179e-21)
(0.42875052 -0.015975364 2.2238859e-21)
(0.44255962 -0.015142175 5.5195905e-22)
(0.45617995 -0.014334398 4.0341847e-22)
(0.46959817 -0.013553607 3.2136591e-22)
(0.48280266 -0.012801048 8.7348548e-22)
(0.4957835 -0.012077659 -1.3712397e-21)
(0.50853239 -0.011384101 3.7078262e-22)
(0.52104265 -0.010720791 1.095473e-22)
(0.53330921 -0.010087926 -4.5219776e-23)
(0.54532855 -0.0094855252 8.6680713e-23)
(0.55709867 -0.0089134681 -3.7201994e-22)
(0.56861938 -0.008371516 1.8306424e-22)
(0.57989134 -0.0078594516 -3.5000174e-23)
(0.59091973 -0.0073768577 3.9048419e-22)
(0.6017035 -0.0069241668 -1.8567483e-22)
(0.61226964 -0.0064997901 4.7365704e-23)
(0.62257296 -0.0061101271 4.3687657e-23)
(0.6327976 -0.0057394755 -7.3750821e-23)
(0.64248366 -0.0054478324 -1.2122144e-22)
(0.65307738 -0.0050741716 3.8911158e-22)
(0.66063199 -0.0051583776 1.7308481e-22)
(0.67629251 -0.0043116983 -8.3091461e-22)
(0.15021748 -0.031461069 1.50105e-21)
(0.15354925 -0.035258086 -1.1566709e-20)
(0.16061878 -0.038011664 6.6442376e-21)
(0.16880868 -0.039479888 -1.3324912e-20)
(0.17698525 -0.040521522 -1.9758575e-21)
(0.18552672 -0.041303156 9.1601109e-21)
(0.19458773 -0.041758154 -9.7664464e-21)
(0.20409073 -0.041914668 1.566233e-21)
(0.2139918 -0.041834327 1.2903998e-20)
(0.22428044 -0.041555369 3.4033025e-21)
(0.23493734 -0.041103116 -6.2097965e-21)
(0.24593539 -0.040501556 -2.8639102e-21)
(0.25724716 -0.03977289 -5.8409263e-21)
(0.26884512 -0.038936231 -6.455478e-21)
(0.28070069 -0.038008185 3.2356408e-21)
(0.29278457 -0.037003546 8.46088e-22)
(0.3050672 -0.035935602 1.3680374e-21)
(0.317519 -0.034816333 -3.385111e-21)
(0.33011055 -0.033656594 -4.2430861e-21)
(0.34281284 -0.032466275 2.3617627e-21)
(0.35559745 -0.031254412 3.2253283e-21)
(0.36843672 -0.030029269 -1.5637732e-21)
(0.38130394 -0.028798395 1.5868221e-21)
(0.39417349 -0.027568667 -3.9130849e-22)
(0.40702093 -0.026346323 -3.9199956e-21)
(0.41982319 -0.02513698 -3.0334455e-21)
(0.43255857 -0.023945655 -1.9033097e-22)
(0.4452069 -0.022776783 4.2854701e-22)
(0.45774953 -0.021634235 -2.2107617e-21)
(0.47016939 -0.020521337 -8.5519023e-22)
(0.48245101 -0.019440896 2.2838939e-22)
(0.49458053 -0.018395229 -1.2501231e-21)
(0.50654568 -0.01738619 6.2053201e-24)
(0.51833577 -0.016415211 -4.2435041e-22)
(0.52994169 -0.015483334 -4.719893e-22)
(0.54135582 -0.014591256 -5.2023798e-22)
(0.55257209 -0.013739375 -8.4176927e-22)
(0.56358594 -0.01292783 -5.4465964e-23)
(0.57439422 -0.012156572 -3.9169767e-24)
(0.58499561 -0.011425377 -5.2006322e-22)
(0.59538956 -0.010734052 -9.1569544e-23)
(0.60557997 -0.010082123 -3.327168e-22)
(0.61556471 -0.0094702848 -4.3815655e-22)
(0.62536884 -0.0088964404 3.7892428e-22)
(0.63494771 -0.0083694891 1.4841746e-23)
(0.64447777 -0.0078679643 1.8273124e-22)
(0.65351666 -0.007474118 -1.3289393e-22)
(0.6634474 -0.006968072 -2.6758066e-22)
(0.67050406 -0.0070849189 -4.4316888e-23)
(0.68527769 -0.0059392152 4.6261252e-22)
(0.25468869 -0.036553598 -2.0900579e-20)
(0.2544734 -0.041394406 4.7586455e-20)
(0.25907672 -0.044746614 1.0348196e-20)
(0.26508775 -0.046443052 -1.5765514e-20)
(0.27071318 -0.047715374 -2.0228609e-21)
(0.27652405 -0.048748885 2.6232167e-21)
(0.28283986 -0.049414877 -1.6608892e-21)
(0.28958155 -0.049729307 -4.6862086e-21)
(0.29670153 -0.049762685 -4.015977e-21)
(0.30421074 -0.049558353 -1.220783e-20)
(0.31210779 -0.049143033 1.7898127e-20)
(0.32037535 -0.048542192 6.5221595e-21)
(0.32899336 -0.047780398 -1.6780812e-20)
(0.3379408 -0.046879494 1.0317639e-20)
(0.34719429 -0.045858818 8.3850171e-21)
(0.35672843 -0.044735873 -8.7912373e-22)
(0.36651663 -0.043526669 -3.1221919e-21)
(0.3765316 -0.042245893 -3.8199421e-21)
(0.38674569 -0.040907047 -1.3893547e-21)
(0.39713118 -0.039522585 -1.2305113e-21)
(0.40766061 -0.038104 -3.0259687e-21)
(0.418307 -0.036661896 0)
(0.42904408 -0.035206032 -1.3453003e-21)
(0.43984647 -0.033745353 3.9311252e-21)
(0.45068982 -0.032288016 5.4056375e-21)
(0.46155097 -0.030841404 -9.4115327e-22)
(0.47240804 -0.029412143 -2.9278121e-21)
(0.48324048 -0.028006121 3.0262943e-21)
(0.4940292 -0.026628508 2.5435269e-22)
(0.50475655 -0.025283774 3.435766e-21)
(0.51540637 -0.023975728 -5.3462705e-22)
(0.52596401 -0.022707545 1.7176009e-21)
(0.53641632 -0.021481809 -7.9983704e-22)
(0.54675164 -0.020300555 2.9109546e-22)
(0.55695977 -0.019165322 -4.3421527e-22)
(0.56703198 -0.0180772 5.6245372e-22)
(0.57696098 -0.017036891 4.5729455e-22)
(0.58674094 -0.016044765 3.8274267e-22)
(0.59636741 -0.01510094 -9.5987056e-22)
(0.60583769 -0.014205315 6.8397272e-22)
(0.61514985 -0.013357812 -3.6982108e-22)
(0.62430629 -0.012557995 -1.1043096e-21)
(0.6333036 -0.011806899 1.40928e-21)
(0.6421646 -0.011102032 -6.206372e-23)
(0.65084543 -0.010454717 -1.5839621e-22)
(0.65951295 -0.0098382255 -7.8394631e-24)
(0.66774705 -0.009355349 -1.2661893e-22)
(0.67685097 -0.008732748 -4.6687573e-22)
(0.68328741 -0.0088810207 8.7858186e-22)
(0.69694936 -0.0074732352 -4.4354239e-23)
(0.37635512 -0.038369205 -1.7495327e-20)
(0.37171377 -0.044271327 1.283216e-20)
(0.3728711 -0.048162773 2.9755509e-21)
(0.37591488 -0.05010007 -7.6354667e-21)
(0.37830992 -0.051671247 1.2056135e-20)
(0.38072784 -0.053043705 7.7915157e-21)
(0.38368118 -0.054031428 -1.2647819e-20)
(0.38710602 -0.054634547 -6.0680627e-21)
(0.39093498 -0.054919502 1.2697527e-20)
(0.39518848 -0.054928685 -1.5305313e-20)
(0.39988064 -0.054689119 -1.406341e-20)
(0.40500181 -0.054226308 1.4130001e-20)
(0.41053574 -0.053565366 6.8195044e-21)
(0.4164647 -0.052729705 -4.2040325e-21)
(0.4227681 -0.051740823 -1.8544714e-21)
(0.42942244 -0.050618606 -4.0581224e-21)
(0.43640237 -0.049381609 5.3047228e-21)
(0.44368137 -0.048047185 3.6682836e-21)
(0.4512322 -0.046631559 -3.2408623e-21)
(0.45902733 -0.045149879 3.1380164e-21)
(0.46703924 -0.043616279 2.7668195e-21)
(0.47524075 -0.042043905 -3.2112695e-21)
(0.48360524 -0.040444941 3.7057611e-22)
(0.49210688 -0.038830622 -3.2572515e-21)
(0.50072078 -0.037211239 7.2461441e-21)
(0.50942316 -0.035596155 6.1085555e-21)
(0.5181914 -0.033993809 8.0990327e-22)
(0.52700422 -0.032411738 -1.7684706e-21)
(0.53584163 -0.030856593 3.702791e-21)
(0.54468507 -0.029334169 7.1896769e-21)
(0.5535174 -0.02784944 2.3052077e-21)
(0.5623229 -0.026406602 3.317136e-21)
(0.57108729 -0.025009116 1.9959834e-21)
(0.57979773 -0.023659771 7.4577939e-22)
(0.58844278 -0.022360735 -2.6377345e-22)
(0.59701242 -0.021113624 2.7212009e-21)
(0.60549803 -0.019919573 6.2014213e-22)
(0.61389237 -0.018779302 2.9498482e-22)
(0.62218959 -0.017693218 5.6252174e-23)
(0.63038552 -0.016661447 9.9029908e-22)
(0.63847677 -0.015684139 4.7038833e-23)
(0.64646414 -0.014760997 4.4287477e-22)
(0.65434294 -0.013893478 -1.263164e-22)
(0.66213351 -0.013078818 -2.7770088e-22)
(0.66979308 -0.012330665 -1.5239941e-22)
(0.67747748 -0.011617619 -4.2278971e-22)
(0.68479286 -0.011060942 1.6185464e-22)
(0.69294905 -0.010340271 -1.2748979e-22)
(0.69867648 -0.010518395 -5.0109628e-22)
(0.71105515 -0.0088918659 2.4608686e-22)
(0.50927876 -0.035975496 3.6471263e-21)
(0.49953502 -0.042961939 -1.8958444e-20)
(0.49628037 -0.0473848 -2.3084208e-21)
(0.49556094 -0.049738166 5.4870052e-21)
(0.49417478 -0.051819493 3.0528772e-21)
(0.49270122 -0.053706922 -4.9824622e-23)
(0.49181802 -0.055189222 6.1898234e-21)
(0.49152051 -0.056267033 7.625228e-21)
(0.49171795 -0.056992227 9.8581598e-21)
(0.49241731 -0.057397327 -1.1250234e-20)
(0.49363795 -0.057508113 -2.157985e-20)
(0.49537503 -0.057350287 -3.9354887e-21)
(0.49761229 -0.056949058 1.593849e-20)
(0.50033103 -0.056328993 1.2809239e-20)
(0.50351008 -0.055513773 -5.9067391e-21)
(0.50712538 -0.054525943 1.3816101e-21)
(0.51115072 -0.053386939 -3.6602806e-21)
(0.51555858 -0.052117152 2.2446538e-21)
(0.52032065 -0.05073592 -2.912366e-22)
(0.52540827 -0.049261499 -1.8654841e-21)
(0.53079279 -0.047711059 7.8270156e-21)
(0.53644583 -0.046100676 -2.9317046e-22)
(0.54233959 -0.044445326 4.182685e-22)
(0.54844703 -0.042758876 -6.5640407e-22)
(0.55474203 -0.041054077 -4.3032026e-21)
(0.56119959 -0.039342568 4.2087983e-21)
(0.56779586 -0.037634883 1.9031851e-21)
(0.57450828 -0.03594046 -3.3084579e-21)
(0.58131562 -0.034267674 -4.1118918e-21)