/*--------------------------------*- C++ -*----------------------------------*\
  =========                 |
  \\      /  F ield         | OpenFOAM: The Open Source CFD Toolbox
   \\    /   O peration     | Website:  https://openfoam.org
    \\  /    A nd           | Version:  6
     \\/     M anipulation  |
\*---------------------------------------------------------------------------*/
FoamFile
{
    version     2.0;
    format      ascii;
    class       surfaceScalarField;
    location    "180";
    object      phi_0;
}
// * * * * * * * * * * * * * * * * * * * * * * * * * * * * * * * * * * * * * //

dimensions      [0 3 -1 0 0 0 0];

internalField   nonuniform List<scalar> 
18180
(
0.00031872925
-0.00016316012
-0.00015556913
0.001309211
-0.0013669162
0.0003764345
0.0030328875
-0.0033336206
0.0016099441
0.0055497733
-0.0059759603
0.0034590745
0.0089181965
-0.0092390815
0.0058706583
0.013192812
-0.013079532
0.0088049171
0.01842194
-0.017459844
0.012230716
0.024644603
-0.022345804
0.016123142
0.031887367
-0.027703322
0.020460558
0.040161277
-0.033495814
0.025221904
0.049459162
-0.039682448
0.030384563
0.059753715
-0.046217219
0.035922666
0.070996724
-0.053048861
0.041805852
0.083119928
-0.060121597
0.047998393
0.096038102
-0.067376852
0.054458679
0.10965489
-0.074756013
0.061139227
0.12387082
-0.082204106
0.067988173
0.13859855
-0.089674091
0.074946363
0.15383665
-0.097148837
0.08191074
-0.10462597
0.088678895
0.16978372
0.00039749706
-0.00056065717
0.0016095946
-0.0025790138
0.0036893178
-0.0054133438
0.0066874432
-0.0089740857
0.010650651
-0.01320229
0.015617868
-0.018046749
0.021616257
-0.023458233
0.028657255
-0.029386802
0.036732941
-0.035779009
0.04581314
-0.042576013
0.055843684
-0.049712991
0.066746198
-0.057119734
0.078419655
-0.064722317
0.09074377
-0.072445713
0.10358406
-0.080217137
0.1167979
-0.08796986
0.13024077
-0.095646975
0.14377297
-0.10320629
0.15725857
-0.11063444
-0.1178619
0.1704945
0.00048062341
-0.0010412806
0.0019186981
-0.0040170885
0.0043524785
-0.0078471242
0.0078165628
-0.01243817
0.012337664
-0.01772339
0.017929205
-0.023638291
0.024586247
-0.030115274
0.032281207
-0.037081762
0.040960837
-0.044458638
0.050544917
-0.052160093
0.060927063
-0.060095137
0.0719778
-0.068170471
0.083549791
-0.076294309
0.095484804
-0.084380726
0.10762168
-0.092354014
0.11980425
-0.10015243
0.131888
-0.10773072
0.14374348
-0.11506177
0.1552487
-0.12213966
-0.1289143
0.16630109
0.00056616966
-0.0016074502
0.0022279423
-0.0056788612
0.0050006109
-0.010619793
0.00889401
-0.016331569
0.013905257
-0.022734637
0.02001188
-0.029744914
0.027166486
-0.03726988
0.035293414
-0.045208691
0.044287854
-0.053453078
0.054017774
-0.061890013
0.064328716
-0.07040608
0.075051127
-0.078892882
0.086009521
-0.087252702
0.097032495
-0.0954037
0.10796246
-0.10328398
0.11866396
-0.11085393
0.12902965
-0.11809641
0.13898297
-0.12501509
0.14847491
-0.1316316
-0.1379452
0.15750582
0.00065088622
-0.0022583364
0.0025243415
-0.0075523165
0.0056036343
-0.013699086
0.0098644646
-0.020592399
0.015264611
-0.028134783
0.021736409
-0.036216713
0.029182481
-0.044715951
0.037474893
-0.053501103
0.046458001
-0.062436186
0.055954836
-0.071386848
0.06577643
-0.080227674
0.075733011
-0.088849463
0.085645716
-0.097165407
0.095357394
-0.10511538
0.10474121
-0.1126678
0.11370619
-0.11981891
0.12219937
-0.12658959
0.13020456
-0.13302029
0.137738
-0.13916504
-0.14506758
0.14486038
0.00073063581
-0.0029889722
0.0027920862
-0.0096137668
0.0061265742
-0.017033574
0.010666712
-0.025132537
0.01632265
-0.033790721
0.022975243
-0.042869306
0.030474428
-0.052215137
0.038642397
-0.061669072
0.047281187
-0.071074975
0.056183732
-0.080289393
0.065146884
-0.089190826
0.073984597
-0.097687176
0.082539481
-0.10572029
0.090691299
-0.1132672
0.098361452
-0.12033795
0.1055133
-0.12697075
0.11214879
-0.13322508
0.1183024
-0.1391739
0.12403362
-0.14489626
-0.1504633
0.12942934
0.00080073116
-0.0037897034
0.003013916
-0.011826952
0.0065328942
-0.020552552
0.011240051
-0.029839694
0.016992697
-0.039543366
0.023618544
-0.049495154
0.030918214
-0.059514807
0.038673317
-0.069424175
0.046658771
-0.07906043
0.054657396
-0.088288017
0.062474457
-0.097007888
0.069949954
-0.10516267
0.076966962
-0.1127373
0.0834551
-0.11975533
0.08938911
-0.12627196
0.094783314
-0.13236496
0.099683305
-0.13812507
0.1041565
-0.14364709
0.1082831
-0.14902287
-0.15433357
0.11215337
0.00085605868
-0.0046457621
0.0031720605
-0.014142954
0.0067872256
-0.024167717
0.011529802
-0.034582271
0.017203433
-0.045216998
0.023586548
-0.055878268
0.030439874
-0.066368133
0.037519327
-0.076503628
0.044591798
-0.086132901
0.051451003
-0.095147222
0.057930632
-0.10348752
0.063912776
-0.11114482
0.069330644
-0.11815517
0.074165693
-0.12459038
0.078440255
-0.13054652
0.082207336
-0.13613204
0.0855395
-0.14145724
0.088518559
-0.14662615
0.091227356
-0.15173167
-0.15685205
0.093745839
0.0008902623
-0.0055360244
0.0032482831
-0.016500974
0.0068576219
-0.027777056
0.011492464
-0.039217113
0.016906809
-0.050631343
0.022838894
-0.061810354
0.029023669
-0.072552908
0.03520925
-0.082689209
0.041173928
-0.092097579
0.046740396
-0.10071369
0.051784656
-0.10853178
0.056238407
-0.11559857
0.060085139
-0.1220019
0.063351246
-0.12785649
0.066094213
-0.13328949
0.068390054
-0.13842788
0.070321921
-0.1433891
0.071971233
-0.14827546
0.073411922
-0.15317235
-0.15814771
0.074707574
0.00089981818
-0.0064358426
0.0032333804
-0.018834537
0.0067291638
-0.031272839
0.011111176
-0.043599125
0.016092485
-0.055612651
0.021384622
-0.067102491
0.026713884
-0.07788217
0.031839116
-0.087814441
0.036567085
-0.096825549
0.040762271
-0.10490888
0.044349474
-0.11211898
0.047309348
-0.11855844
0.049668404
-0.12436095
0.051485812
-0.1296739
0.052839522
-0.1346432
0.053813816
-0.13940217
0.054489706
-0.14406499
0.054938814
-0.14872457
0.05522054
-0.15345408
0.055380974
-0.15830814
-0.00020237826
0.00020237827
-1.1155776e-12
-0.00067774645
0.00047536818
5.9011726e-13
-0.0013424257
0.00066467927
-3.8513842e-13
-0.002132294
0.00078986832
-3.1537131e-12
-0.0029957729
0.00086347889
-6.0042615e-12
-0.0038907401
0.00089496715
-8.5707064e-12
-0.0047822955
0.00089155543
-1.0685539e-11
-0.0056408926
0.0008585971
-1.2493626e-11
-0.0064408675
0.00079997496
-1.3876242e-11
-0.0071592884
0.00071842089
-1.4998196e-11
-0.0077750368
0.00061574839
-1.5719032e-11
-0.0082680724
0.00049303568
-1.6173431e-11
-0.0086188537
0.00035078131
-1.6221886e-11
-0.0088079042
0.00018905048
-1.5972483e-11
-0.0088155573
7.6531608e-06
-1.5334271e-11
-0.0086219805
-0.00019357683
-1.4382503e-11
-0.0082074385
-0.00041454196
-1.3036228e-11
-0.0075518885
-0.00065554994
-1.1404635e-11
-0.0066345743
-0.00091731418
-9.4159634e-12
-0.0011862311
-0.0054483432
-7.1893719e-12
-0.00018797448
0.00039035275
-0.00062500707
0.00091240078
-0.0012287533
0.0012684255
-0.0019351947
0.0014963097
-0.0026921395
0.0016204237
-0.0034562844
0.0016591121
-0.0041910676
0.0016263386
-0.0048648594
0.0015323889
-0.0054495246
0.0013846402
-0.0059192875
0.0011881838
-0.0062498163
0.00094627713
-0.0064174812
0.00066070055
-0.0063987498
0.00033204995
-0.0061697081
-3.9991224e-05
-0.0057057351
-0.0004563198
-0.004981423
-0.00091788902
-0.0039707924
-0.0014251725
-0.0026472141
-0.0019791283
-0.00098325805
-0.0025812702
-0.0032017823
0.0010322932
-0.00015892786
0.00054928061
-0.00051889148
0.0012723644
-0.0010007701
0.0017503042
-0.0015412595
0.0020367991
-0.0020873501
0.0021665142
-0.0025937355
0.0021654975
-0.0030208686
0.0020534717
-0.0033332941
0.0018448143
-0.0034983026
0.0015496488
-0.0034848553
0.0011747365
-0.0032626993
0.00072412114
-0.0028016483
0.00019964953
-0.0020709487
-0.00039864968
-0.0010387657
-0.0010721742
0.00032824593
-0.0018233314
0.0020652185
-0.0026548616
0.0042090311
-0.0035689851
0.0067980035
-0.0045681007
0.0098718271
-0.0056550938
-0.0067797375
0.013449782
-0.00011756695
0.00066684757
-0.00036699854
0.001521796
-0.00067351364
0.0020568193
-0.00097482564
0.0023381111
-0.001216854
0.0024085426
-0.0013515942
0.0023002376
-0.0013354599
0.0020373375
-0.0011278288
0.0016371832
-0.00068984557
0.0011116656
1.6529874e-05
0.00046836103
0.0010293068
-0.0002886558
0.0023871105
-0.0011581541
0.0041297274
-0.0021412666
0.0062985869
-0.0032410336
0.008937267
-0.0044620115
0.012092051
-0.0058096461
0.015812304
-0.0072892378
0.020150168
-0.008905965
0.025160355
-0.01066528
-0.012492616
0.030873233
-6.6907633e-05
0.0007337552
-0.00017916649
0.0016340548
-0.00026653379
0.0021441865
-0.00026769143
0.0023392687
-0.00012719421
0.0022680454
0.00020616696
0.0019668765
0.00078069361
0.0014628108
0.0016429491
0.00077492766
0.0028387286
-8.4113864e-05
0.0044138443
-0.0011067547
0.0064146896
-0.0022895011
0.0088886552
-0.0036321198
0.011884455
-0.0051370659
0.015452454
-0.0068090327
0.019645045
-0.0086546027
0.024517267
-0.010681869
0.030127684
-0.012899655
0.036538894
-0.015317175
0.043818295
-0.017944681
-0.020682535
0.052008214
-9.9846173e-06
0.00074373982
3.4535008e-05
0.0015895352
0.00019989024
0.0019788313
0.00054676585
0.0019923931
0.0011322473
0.001682564
0.0020109813
0.0010881424
0.0032361401
0.00023765201
0.0048603043
-0.00084923652
0.0069361204
-0.00215993
0.0095166753
-0.0036873095
0.012655704
-0.0054285303
0.016407697
-0.0073841121
0.020827821
-0.0095571903
0.025971765
-0.011952976
0.031895636
-0.014578474
0.038656263
-0.017442496
0.046312379
-0.020555771
0.054926682
-0.023931478
0.064569668
-0.027587666
-0.03140559
0.075292723
5.0751312e-05
0.0006929885
0.00026565777
0.0013746288
0.00070825437
0.0015362347
0.0014390303
0.0012616172
0.0025168202
0.00060477403
0.0039995662
-0.00039460353
0.005944914
-0.0017076958
0.0084106024
-0.0033149248
0.011454593
-0.0052039205
0.015135039
-0.007367756
0.019510019
-0.0098035104
0.024637007
-0.0125111
0.030572138
-0.015492321
0.037369311
-0.018750149
0.045079253
-0.022288416
0.053748975
-0.026112219
0.063422589
-0.030229385
0.074144694
-0.034653583
0.085969323
-0.039412295
-0.044388498
0.098952231
0.0001137963
0.0005791922
0.00050850339
0.00097992167
0.0012459823
0.00079875582
0.0023867775
0.00012082202
0.0039912406
-0.00099968908
0.0061198755
-0.0025232384
0.008833319
-0.0044211393
0.012192164
-0.00667377
0.016256555
-0.0092683117
0.021085443
-0.012196643
0.026735544
-0.015453612
0.033260018
-0.019035575
0.040706879
-0.022939182
0.049117185
-0.027160455
0.058523146
-0.031694377
0.068946496
-0.036535569
0.080398315
-0.041681203
0.092882141
-0.047137409
0.10640548
-0.052935632
-0.058995666
0.12101264
0.00017849581
0.00040069639
0.00076002987
0.00039838761
0.0018053388
-0.00024655315
0.0033747135
-0.0014485527
0.0055289951
-0.0031539707
0.0083293188
-0.0053235621
0.011836489
-0.0079283097
0.016110057
-0.010947338
0.021207041
-0.014365295
0.027180301
-0.018169903
0.034076615
-0.022349926
0.041934475
-0.026893434
0.050781657
-0.031786364
0.06063259
-0.037011387
0.071485495
-0.042547282
0.083319385
-0.048369459
0.096091855
-0.054453673
0.10974042
-0.060785973
0.12419599
-0.067391207
-0.074274615
0.13947494
0.00024512725
0.0010199494
0.0023833403
0.0043938622
0.0071105498
0.010591905
0.014894311
0.020070115
0.026165377
0.033217378
0.041252015
0.050281247
0.060300734
0.07128774
0.083199137
0.095968905
0.1095034
0.12366379
0.13818333
0.15258761
-0.0035077172
-0.001940626
-5.5741001e-12
-0.0012859315
-0.0022217857
9.5753553e-14
0.0011946786
-0.0024806101
5.9413659e-12
0.0038772139
-0.0026825353
1.2401777e-11
0.0067348707
-0.0028576569
1.8008838e-11
0.0097503432
-0.0030154725
2.4816399e-11
0.012904697
-0.0031543535
3.0743926e-11
0.016179908
-0.0032752118
3.6570525e-11
0.019560277
-0.0033803686
4.1768555e-11
0.023031584
-0.0034713067
4.5974314e-11
0.026580542
-0.0035489582
4.9134092e-11
0.030194726
-0.0036141848
5.0939933e-11
0.033862495
-0.0036677683
5.1343447e-11
0.03757285
-0.0037103555
5.0074788e-11
0.041315341
-0.0037424911
4.7178789e-11
0.045079996
-0.0037646548
4.2525778e-11
0.048857274
-0.0037772777
3.6327949e-11
0.05263803
-0.0037807566
2.8635348e-11
0.056413498
-0.0037754679
1.9845678e-11
0.060175277
-0.0037617793
1.0179653e-11
0.063915336
-0.003740059
1.9765841e-13
0.067626017
-0.0037106809
-9.7812279e-12
0.071300047
-0.0036740296
-1.9121744e-11
0.074930549
-0.003630502
-2.7557374e-11
0.078511057
-0.0035805076
-3.4511352e-11
0.082035524
-0.0035244672
-3.993092e-11
0.085498335
-0.0034628109
-4.3359986e-11
0.08889431
-0.0033959752
-4.4997196e-11
0.092218709
-0.0033243991
-4.4381106e-11
0.09546723
-0.0032485208
-4.1812429e-11
0.098636004
-0.0031687745
-3.6578987e-11
0.10172159
-0.0030855862
-2.8939371e-11
0.10472096
-0.0029993717
-1.793338e-11
0.1076315
-0.0029105342
-3.9447969e-12
0.11045096
-0.0028194632
1.3620599e-11
0.11317749
-0.0027265344
3.3723079e-11
0.1158096
-0.0026321101
5.5345248e-11
0.11834615
-0.0025365425
7.6449941e-11
0.12078633
-0.0024401805
9.3131628e-11
0.1231297
-0.0023433707
1.0211372e-10
0.1253762
-0.0022464988
9.6869568e-11
0.12752611
-0.002149916
7.3682304e-11
0.12958042
-0.0020543119
3.0698254e-11
0.1315401
-0.0019596754
-2.9932901e-11
0.13340923
-0.0018691269
-1.0032452e-10
0.13518631
-0.0017770878
-1.6785793e-10
0.13689581
-0.0017094971
-2.0901175e-10
0.13849357
-0.0015977625
-2.0348034e-10
0.14018042
-0.0016868432
-1.2013866e-10
-0.0013310538
9.7718475e-11
0.0028529063
-0.0037612392
0.0049500503
-0.0043189297
0.0072929065
-0.0048234662
0.0098190328
-0.0052086617
0.012507368
-0.0055459922
0.015345587
-0.0058536913
0.018316948
-0.0061257148
0.021405046
-0.0063633092
0.02459586
-0.006571183
0.027876629
-0.0067520756
0.03123522
-0.0069075496
0.034660153
-0.0070391177
0.038140571
-0.0071481856
0.041666126
-0.0072359108
0.045226901
-0.0073032665
0.048813363
-0.0073511168
0.052416333
-0.0073802472
0.056026965
-0.0073913887
0.05963674
-0.0073852428
0.063237464
-0.0073625037
0.066821278
-0.0073238728
0.070380667
-0.00727007
0.073908478
-0.0072018403
0.077397932
-0.0071199565
0.080842644
-0.0070252195
0.084236632
-0.0069184548
0.087574329
-0.006800508
0.090850592
-0.0066722384
0.094060705
-0.006534512
0.097200378
-0.0063881938
0.10026574
-0.0062341412
0.10325336
-0.006073197
0.10616017
-0.0059061838
0.10898353
-0.0057339003
0.11172119
-0.0055571181
0.11437124
-0.005376582
0.11693214
-0.0051930121
0.1194027
-0.0050071081
0.12178209
-0.0048195647
0.12406979
-0.0046310711
0.12626569
-0.0044423983
0.12837002
-0.0042542468
0.1303837
-0.0040679933
0.13230764
-0.0038836191
0.13414585
-0.0037073331
0.13589684
-0.0035280775
0.1375846
-0.0033972529
0.13916602
-0.0031791831
0.14083671
-0.0033575394
-0.0026596533
0.015021116
-0.0053325732
0.016852214
-0.0061500269
0.018905747
-0.0068769999
0.021111789
-0.0074147036
0.023458705
-0.007892908
0.025942842
-0.0083378282
0.028551581
-0.0087344544
0.031271443
-0.0090831713
0.034091328
-0.0093910673
0.037001004
-0.0096617518
0.039990351
-0.0098968972
0.04304951
-0.010098276
0.046168954
-0.01026763
0.049339429
-0.010406386
0.052551906
-0.010515743
0.055797572
-0.010596783
0.059067837
-0.010650513
0.06235434
-0.010677892
0.065648958
-0.010679861
0.068943825
-0.010657371
0.072231354
-0.010611402
0.075504257
-0.010542973
0.078755569
-0.010453152
0.081978668
-0.010343056
0.085167296
-0.010213848
0.088315575
-0.010066734
0.09141802
-0.0099029531
0.094469549
-0.0097237673
0.097465487
-0.0095304498
0.10040157
-0.0093242765
0.10327394
-0.0091065109
0.10607914
-0.0088783978
0.10881411
-0.0086411534
0.11147617
-0.0083959592
0.11406301
-0.0081439583
0.11657268
-0.0078862551
0.11900359
-0.007623919
0.12135447
-0.0073579909
0.12362441
-0.0070895054
0.12581283
-0.0068194917
0.12791954
-0.0065491022
0.12994468
-0.0062793863
0.13188908
-0.0060124016
0.1337536
-0.0057481376
0.13554208
-0.0054958082
0.13725312
-0.0052391218
0.13890975
-0.0050538826
0.1404712
-0.0047406292
0.14212246
-0.0050087965
-0.0039964901
0.032056521
-0.0065158613
0.033471715
-0.0075652207
0.035077215
-0.0084824999
0.036800045
-0.0091375333
0.03864089
-0.0097337531
0.040606048
-0.010302986
0.042688346
-0.010816753
0.044878263
-0.011273088
0.047168221
-0.011681025
0.049550992
-0.012044523
0.05201887
-0.012364774
0.054563897
-0.012643303
0.057178062
-0.012881796
0.059853324
-0.013081648
0.062581619
-0.013244038
0.065354904
-0.013370068
0.068165197
-0.013460806
0.071004621
-0.013517315
0.073865442
-0.013540682
0.07674011
-0.013532038
0.07962129
-0.013492582
0.082501904
-0.013423587
0.085375157
-0.013326404
0.088234566
-0.013202464
0.091073986
-0.013053268
0.09388763
-0.012880378
0.096670084
-0.012685407
0.099416317
-0.012470001
0.10212169
-0.012235824
0.10478196
-0.011984547
0.10739328
-0.011717825
0.10995217
-0.011437292
0.11245556
-0.011144544
0.11490074
-0.010841133
0.11728534
-0.010528565
0.11960738
-0.010208295
0.1218652
-0.009881733
0.12405746
-0.0095502558
0.12618319
-0.0092152333
0.12824173
-0.0088780319
0.13023281
-0.0085401829
0.13215651
-0.0082030857
0.13401358
-0.00786947
0.1358048
-0.0075393582
0.13753384
-0.0072248458
0.13919949
-0.0069047747
0.1408234
-0.0066777897
0.14236826
-0.0062854959
0.14400381
-0.0066443445
-0.0053574582
0.052648503
-0.0071561502
0.053489085
-0.0084058022
0.054483194
-0.0094766088
0.055565142
-0.010219482
0.056749747
-0.010918358
0.058051302
-0.011604541
0.059468319
-0.012233769
0.060995928
-0.012800697
0.06262992
-0.013315017
0.064365697
-0.0137803
0.066197738
-0.014196815
0.068119773
-0.014565338
0.070125038
-0.014887061
0.072206432
-0.015163041
0.074356606
-0.015394212
0.076568047
-0.015581509
0.078833165
-0.015725923
0.081144364
-0.015828514
0.083494115
-0.015890434
0.085875017
-0.01591294
0.088279842
-0.015897408
0.090701589
-0.015845334
0.093133518
-0.015758333
0.095569187
-0.015638133
0.098002482
-0.015486563
0.10042763
-0.015305531
0.10283924
-0.015097017
0.10523229
-0.014863044
0.10760213
-0.014605665
0.10994452
-0.014326935
0.11225559
-0.014028899
0.11453187
-0.01371357
0.11677025
-0.013382924
0.11896799
-0.013038877
0.12112272
-0.012683293
0.1232324
-0.012317973
0.12529533
-0.011944666
0.12731016
-0.011565082
0.12927585
-0.011180927
0.13119172
-0.010793903
0.13305746
-0.010405923
0.13487311
-0.010018738
0.13663939
-0.0096357421
0.13835705
-0.0092570222
0.14002961
-0.0088974005
0.14165615
-0.008531316
0.14325664
-0.0082782806
0.14479821
-0.0078270695
0.14643168
-0.0082778143
-0.0067657968
0.075221701
-0.0070851281
0.075326654
-0.0085107555
0.075551013
-0.0097009684
0.075851295
-0.010519764
0.076255534
-0.011322597
0.076780583
-0.01212959
0.077429477
-0.012882663
0.078202146
-0.013573366
0.079096899
-0.01420977
0.080110586
-0.014793988
0.081238966
-0.015325195
0.082476741
-0.015803113
0.083817728
-0.016228047
0.085255146
-0.016600459
0.086781818
-0.016920885
0.088390293
-0.017189984
0.090072952
-0.017408582
0.091822116
-0.017577678
0.093630141
-0.017698459
0.095489489
-0.017772289
0.097392795
-0.017800714
0.099332916
-0.017785455
0.10130298
-0.0177284
0.10329643
-0.017631583
0.10530704
-0.017497173
0.10732895
-0.017327442
0.10935668
-0.017124747
0.11138514
-0.016891504
0.11340964
-0.016630162
0.11542588
-0.016343176
0.11742997
-0.016032988
0.1194184
-0.015702004
0.12138806
-0.015352579
0.12333619
-0.014987008
0.12526041
-0.014607513
0.12715869
-0.01421625
0.12902934
-0.013815315
0.13087101
-0.013406754
0.1326827
-0.012992614
0.13446373
-0.012574941
0.13621384
-0.012156032
0.13793311
-0.011738002
0.13962226
-0.011324898
0.14128215
-0.010916913
0.14291617
-0.010531418
0.14452383
-0.010138976
0.14612325
-0.0098777006
0.14768672
-0.0093905381
0.14934369
-0.009934789
-0.008253619
0.098025231
-0.0061581282
0.097257952
-0.0077434763
0.096581655
-0.0090246712
0.095997211
-0.0099353199
0.09554075
-0.010866136
0.095223502
-0.011812342
0.095050836
-0.012709997
0.095026753
-0.013549284
0.095150788
-0.014333805
0.095419674
-0.015062874
0.095829051
-0.015734572
0.09637351
-0.016347572
0.097046566
-0.016901103
0.097840985
-0.017394878
0.098749084
-0.017828984
0.099762892
-0.018203792
0.10087427
-0.018519962
0.10207504
-0.018778447
0.10335707
-0.018980488
0.10471237
-0.019127588
0.10613315
-0.019221499
0.10761191
-0.019264206
0.10914141
-0.019257908
0.11071482
-0.019204988
0.11232564
-0.019107991
0.11396779
-0.018969593
0.11563561
-0.018792565
0.11732385
-0.018579751
0.11902772
-0.018334029
0.12074283
-0.018058283
0.12246522
-0.017755382
0.12419136
-0.017428147
0.12591812
-0.017079341
0.12764277
-0.016711652
0.12936294
-0.016327688
0.13107667
-0.015929974
0.13278232
-0.015520965
0.13447863
-0.015103063
0.13616468
-0.014678671
0.13783993
-0.014250191
0.13950422
-0.013820317
0.14115776
-0.01339154
0.14280142
-0.01296856
0.14443622
-0.012551714
0.14606554
-0.012160741
0.14768945
-0.011762884
0.14932416
-0.011512415
0.1509476
-0.011013978
0.15266667
-0.011653858
-0.0098626844
0.119189
-0.0043344822
0.11749639
-0.0060508699
0.11585687
-0.0073851505
0.11435434
-0.0084327883
0.11302504
-0.0095368312
0.11186647
-0.010653775
0.11088411
-0.011727634
0.11008423
-0.012749407
0.10946625
-0.013715823
0.10902557
-0.014622193
0.10875637
-0.015465382
0.10865201
-0.01624321
0.10870488
-0.016953973
0.10890668
-0.017596671
0.10924866
-0.018170974
0.10972191
-0.018677038
0.11031738
-0.019115435
0.11102608
-0.019487142
0.11183911
-0.01979352
0.1127478
-0.020036278
0.11374374
-0.02021744
0.11481885
-0.020339317
0.11596542
-0.020404482
0.11717616
-0.020415728
0.11844421
-0.020376037
0.11976316
-0.020288541
0.12112708
-0.020156487
0.12253052
-0.019983194
0.12396852
-0.01977202
0.12543656
-0.019526327
0.12693063
-0.01924945
0.12844715
-0.018944672
0.12998301
-0.018615199
0.13153551
-0.018264149
0.13310237
-0.017894546
0.13468171
-0.017509315
0.13627204
-0.0171113
0.13787226
-0.016703284
0.13948164
-0.016288047
0.14109982
-0.015868372
0.14272687
-0.015447368
0.14436325
-0.015027922
0.14601008
-0.014615391
0.14766867
-0.014210297
0.1493425
-0.013834571
0.1510323
-0.013452686
0.15275246
-0.013232573
0.15448677
-0.012748292
0.15631946
-0.013486546
-0.011644341
0.13689597
-0.0017555113
0.13437801
-0.0035329083
0.13181944
-0.004826581
0.12946238
-0.0060757213
0.12733402
-0.007408474
0.12541574
-0.0087355018
0.12371039
-0.010022276
0.12222303
-0.01126205
0.12095213
-0.012444919
0.1198919
-0.01356197
0.11903486
-0.014608333
0.11837263
-0.015580989
0.11789625
-0.016477584
0.11759616
-0.017296586
0.11746251
-0.018037327
0.11748529
-0.018699817
0.11765448
-0.019284622
0.11796016
-0.019792818
0.11839259
-0.020225954
0.11894233
-0.020586013
0.11960024
-0.020875356
0.12035762
-0.02109669
0.12120616
-0.021253028
0.12213807
-0.021347638
0.12314604
-0.021384007
0.1242233
-0.021365794
0.12536359
-0.021296778
0.12656121
-0.021180821
0.12781101
-0.021021822
0.12910837
-0.020823679
0.13044917
-0.020590252
0.13182983
-0.020325335
0.13324726
-0.02003263
0.13469884
-0.019715733
0.13618242
-0.019378125
0.13769628
-0.019023175
0.13923914
-0.018654154
0.14081011
-0.018274259
0.14240875
-0.017886681
0.14403499
-0.017494613
0.14568923
-0.017101608
0.14737228
-0.016710974
0.14908562
-0.016328732
0.15083096
-0.015955637
0.15261203
-0.015615639
0.15443032
-0.01527098
0.1562985
-0.015100747
0.15820636
-0.01465615
0.16021586
-0.01549605
-0.013658628
0.15005211
0.00077998975
0.14676316
-0.00024396322
0.14346582
-0.0015292432
0.14041805
-0.0030279432
0.13762315
-0.0046135812
0.13507489
-0.0061872384
0.13277509
-0.0077224774
0.13072384
-0.0092108013
0.1289187
-0.010639781
0.12735447
-0.011997741
0.12602333
-0.013277188
0.12491586
-0.014473521
0.12402189
-0.015583617
0.12333077
-0.016605461
0.1228315
-0.01753806
0.12251298
-0.018381298
0.12236414
-0.019135777
0.12237406
-0.019802734
0.12253207
-0.020383974
0.12282788
-0.020881814
0.12325155
-0.021299026
0.12379364
-0.021638787
0.12444524
-0.021904621
0.12519795
-0.022100353
0.12604399
-0.022230048
0.12697616
-0.022297964
0.12798788
-0.022308494
0.12907317
-0.022266116
0.1302267
-0.022175344
0.1314437
-0.022040679
0.13272002
-0.021866576
0.13405209
-0.021657403
0.13543688
-0.021417418
0.1368719
-0.021150752
0.13835517
-0.020861398
0.13988521
-0.020553214
0.141461
-0.020229945
0.14308198
-0.019895244
0.14474806
-0.019552752
0.14645955
-0.019206105
0.14821727
-0.018859334
0.15002249
-0.018516187
0.15187714
-0.018183382
0.15378341
-0.017861908
0.15574543
-0.017577657
0.15776538
-0.017290933
0.1598548
-0.017190166
0.16200793
-0.01680928
0.16426951
-0.017757632
-0.015970514
0.1889088
0.0053820908
-0.1935109
0.18509877
0.0035660738
0.18170673
0.0018627904
0.17856161
0.00011718157
0.17562605
-0.001678023
0.17287502
-0.0034362141
0.17029031
-0.0051377624
0.16786291
-0.0067834026
0.16558895
-0.0083658174
0.16346626
-0.0098750574
0.161493
-0.011303924
0.15966704
-0.012647566
0.15798576
-0.013902328
0.15644584
-0.015065547
0.15504338
-0.016135601
0.15377391
-0.017111824
0.15263249
-0.017994362
0.15161384
-0.018784083
0.15071238
-0.01948251
0.14992233
-0.020091761
0.14923779
-0.020614486
0.14865281
-0.021053807
0.14816144
-0.021413259
0.14775782
-0.021696727
0.14743616
-0.02190839
0.14719085
-0.022052656
0.14701646
-0.022134104
0.14690777
-0.022157426
0.1468598
-0.022127374
0.14686783
-0.022048704
0.14692739
-0.021926138
0.14703431
-0.021764321
0.14718468
-0.021567794
0.1473749
-0.021340971
0.14760163
-0.02108813
0.14786184
-0.020813418
0.14815275
-0.020520862
0.14847191
-0.020214403
0.14881714
-0.019897974
0.14918654
-0.019575506
0.14957856
-0.019251358
0.14999197
-0.018929594
0.15042599
-0.018617404
0.1508801
-0.018316022
0.15135493
-0.018052479
0.15185031
-0.017786313
0.15237072
-0.017710582
0.15291187
-0.017350427
0.15349671
-0.018342476
-0.016563159
0.21685769
0.0087804216
-0.22025602
0.2133838
0.0070399609
0.21017099
0.0050756026
0.20706568
0.0032224946
0.20401908
0.0013685728
0.20106216
-0.00047929353
0.1982118
-0.0022874004
0.19547251
-0.0040441116
0.19285019
-0.005743498
0.19035167
-0.0073765412
0.18798216
-0.0089344104
0.18574505
-0.010410453
0.18364233
-0.01179961
0.18167471
-0.013097923
0.17984164
-0.014302536
0.17814151
-0.015411692
0.17657176
-0.016424618
0.17512909
-0.01734141
0.17380954
-0.018162957
0.17260865
-0.018890873
0.17152158
-0.019527417
0.1705432
-0.020075427
0.16966819
-0.020538244
0.1688911
-0.020919645
0.16820648
-0.021223771
0.16760889
-0.02145506
0.16709296
-0.021618172
0.16665346
-0.02171793
0.16628534
-0.021759253
0.16598373
-0.0217471
0.16574402
-0.021686419
0.1655618
-0.021582102
0.16543295
-0.021438952
0.16535364
-0.021261657
0.16532028
-0.021054775
0.1653296
-0.020822737
0.1653786
-0.020569862
0.16546458
-0.020300384
0.16558515
-0.020018539
0.16573821
-0.019728569
0.16592202
-0.019435163
0.16613517
-0.019142745
0.16637666
-0.018858895
0.16664599
-0.018585356
0.16694302
-0.018349504
0.16726897
-0.01811226
0.16762305
-0.01806467
0.16801359
-0.017740959
0.16842252
-0.018751408
-0.017037001
0.24376661
0.011504375
-0.24649056
0.24091617
0.0098903984
0.23806296
0.0079288127
0.235216
0.0060694564
0.2323382
0.0042463756
0.22945038
0.0024085266
0.22658376
0.00057921699
0.22375764
-0.0012179936
0.22098794
-0.002973797
0.21829059
-0.0046791932
0.21567946
-0.0063232738
0.21316553
-0.0078965264
0.21075743
-0.0093915059
0.2084617
-0.010802199
0.20628299
-0.012123824
0.20422417
-0.013352874
0.2022866
-0.014487049
0.20047032
-0.01552513
0.19877425
-0.016466882
0.19719635
-0.017312971
0.19573381
-0.018064874
0.19438317
-0.018724793
0.1931405
-0.019295571
0.19200146
-0.019780605
0.19096146
-0.020183767
0.19001571
-0.020509318
0.18915937
-0.020761829
0.18838755
-0.020946106
0.18769541
-0.021067116
0.18707823
-0.021129919
0.18653142
-0.02113961
0.18605058
-0.021101265
0.18563153
-0.021019901
0.18527032
-0.020900444
0.18496325
-0.020747709
0.18470691
-0.020566398
0.18449817
-0.020361113
0.18433417
-0.020136384
0.18421237
-0.019896747
0.18413058
-0.019646771
0.18408688
-0.019391471
0.18407981
-0.01913567
0.18410816
-0.018887251
0.18417154
-0.018648729
0.18426902
-0.01844699
0.18440334
-0.018246574
0.18456808
-0.018229415
0.18478515
-0.017958023
0.18499063
-0.018956887
-0.017369588
0.26927438
0.013537327
-0.27130733
0.26710633
0.012058442
0.26476457
0.010270573
0.26232535
0.0085086817
0.2597966
0.0067751252
0.2571885
0.0050166211
0.25452719
0.0032405343
0.25183682
0.0014723738
0.2491374
-0.00027437715
0.24644873
-0.0019905259
0.24379011
-0.0036646491
0.24117866
-0.0052850797
0.23862912
-0.006841964
0.23615397
-0.0083270513
0.23376351
-0.0097333655
0.2314659
-0.011055266
0.22926733
-0.012288473
0.22717218
-0.013429983
0.22518326
-0.014477965
0.22330197
-0.015431678
0.22152847
-0.016291379
0.21986191
-0.017058229
0.21830053
-0.017734194
0.21684188
-0.018321954
0.21548291
-0.018824799
0.21422014
-0.019246543
0.21304973
-0.019591426
0.21196766
-0.019864027
0.21096972
-0.020069179
0.21005169
-0.02021189
0.20920935
-0.020297272
0.20843857
-0.020330481
0.20773533
-0.020316662
0.2070958
-0.020260912
0.20651634
-0.020168253
0.20599356
-0.020043622
0.20552433
-0.019891877
0.20510577
-0.019717826
0.20473533
-0.019526304
0.20441076
-0.0193222
0.20413014
-0.019110851
0.20389197
-0.018897503
0.20369498
-0.018690267
0.20353888
-0.018492627
0.20342219
-0.018330296
0.20334881
-0.018173197
0.20330757
-0.018188173
0.20333168
-0.017982137
0.20331595
-0.018941152
-0.017538736
0.29298515
0.014868467
-0.29431629
0.29150591
0.013537683
0.28978341
0.011993065
0.28788478
0.010407315
0.28584487
0.0088150351
0.2836745
0.0071869923
0.28139208
0.0055229553
0.27902085
0.0038436018
0.27658212
0.0021643552
0.27409604
0.00049554885
0.27158283
-0.0011514326
0.26906219
-0.0027644459
0.26655247
-0.0043322365
0.26407024
-0.0058448216
0.26163024
-0.007293373
0.25924525
-0.0086702747
0.25692603
-0.0099692445
0.25468138
-0.011185335
0.25251829
-0.012314879
0.25044204
-0.013355428
0.24845635
-0.014305687
0.24656355
-0.015165424
0.24476473
-0.015935379
0.24305994
-0.016617166
0.24144832
-0.017213175
0.23992824
-0.017726463
0.23849747
-0.018160659
0.23715331
-0.01851986
0.23589267
-0.01880854
0.23471223
-0.019031452
0.23360851
-0.019193556
0.23257797
-0.019299936
0.23161705
-0.019355743
0.23072228
-0.019366143
0.22989031
-0.019336283
0.22911796
-0.019271269
0.22840225
-0.01917617
0.22774046
-0.019056038
0.22713014
-0.018915978
0.22656912
-0.018761187
0.22605559
-0.018597312
0.22558811
-0.018430026
0.22516545
-0.018267611
0.22478746
-0.018114636
0.2244523
-0.017995137
0.22416472
-0.017885619
0.22390989