/*--------------------------------*- C++ -*----------------------------------*\
  =========                 |
  \\      /  F ield         | OpenFOAM: The Open Source CFD Toolbox
   \\    /   O peration     | Website:  https://openfoam.org
    \\  /    A nd           | Version:  6
     \\/     M anipulation  |
\*---------------------------------------------------------------------------*/
FoamFile
{
    version     2.0;
    format      ascii;
    class       volScalarField;
    location    "180";
    object      pPrime2Mean;
}
// * * * * * * * * * * * * * * * * * * * * * * * * * * * * * * * * * * * * * //

dimensions      [0 4 -4 0 0 0 0];

internalField   nonuniform List<scalar> 
9200
(
0.062428153
0.051745999
0.042702402
0.036815287
0.032116575
0.02815657
0.024739744
0.021766401
0.019170189
0.016897966
0.01490571
0.013156522
0.011619245
0.010267407
0.0090784151
0.0080329474
0.007114652
0.0063098935
0.0056085867
0.0049976645
0.050618275
0.04187625
0.034565844
0.029761239
0.025906985
0.022649253
0.019834417
0.017384126
0.015245608
0.013376319
0.011740724
0.010308763
0.0090547837
0.0079567393
0.0069955609
0.0061547165
0.0054199726
0.0047790693
0.0042206157
0.0037283865
0.039544827
0.032668772
0.026985994
0.02320073
0.020139964
0.017540465
0.015288746
0.013327092
0.011616083
0.010123458
0.0088217412
0.0076871723
0.0066990019
0.0058389764
0.00509097
0.004440741
0.003875789
0.0033850881
0.0029575826
0.00257876
0.029515086
0.024371845
0.020162118
0.017303907
0.014963862
0.01296115
0.011219536
0.0097006647
0.0083777054
0.0072278545
0.0062307997
0.0053681794
0.0046233133
0.0039810572
0.0034277396
0.0029511375
0.0025404452
0.0021860923
0.0018786379
0.0016070941
0.020805906
0.01720864
0.014277704
0.012229175
0.010518294
0.0090360598
0.007739519
0.0066077573
0.0056251788
0.0047770768
0.0040489982
0.0034268306
0.002897051
0.0024469937
0.0020650869
0.0017410096
0.001465738
0.0012314356
0.0010308493
0.00085661157
0.013661275
0.011373616
0.0094954906
0.0081181988
0.0069290524
0.0058785408
0.0049519639
0.0041432051
0.0034459081
0.0028516368
0.0023502277
0.0019305943
0.0015815236
0.0012923224
0.0010532682
0.00085585269
0.00069283256
0.00055813536
0.00044661042
0.00035371598
0.0082851996
0.0070278738
0.005953862
0.0050928223
0.0043053667
0.0035878815
0.0029478829
0.0023906963
0.001916685
0.0015215848
0.0011979036
0.00093645881
0.00072765351
0.00056237713
0.00043253727
0.00033128184
0.00025299084
0.00019315797
0.00014832834
0.00011586372
0.0048364974
0.0042959406
0.0037642824
0.0032526787
0.0027374705
0.0022466539
0.0018030782
0.0014196101
0.0011005228
0.00084359912
0.00064254068
0.00048913543
0.00037484989
0.00029181261
0.0002332935
0.00019382645
0.00016911444
0.00015587462
0.0001518313
0.00015545577
0.0034243756
0.0032622867
0.0030066672
0.0026701838
0.0022920046
0.0019168812
0.0015751654
0.0012828656
0.0010452573
0.00086024708
0.00072156256
0.00062129405
0.00055155783
0.00050538915
0.00047707661
0.00046215789
0.0004572488
0.00045985928
0.0004683497
0.00048164958
0.0041036752
0.0039684608
0.0037244182
0.0033857445
0.0030074732
0.0026353343
0.0022985758
0.0020118002
0.001778615
0.0015955377
0.001455514
0.0013504777
0.0012728365
0.0012161423
0.0011752542
0.001146228
0.0011261036
0.0011127043
0.0011044919
0.0011002964
0.14828099
0.124706
0.10306273
0.089377567
0.078511889
0.069392138
0.061540795
0.054700239
0.048710983
0.043447682
0.038807928
0.034706942
0.031073709
0.027848196
0.024979288
0.022423202
0.020142261
0.018102723
0.016272911
0.014634503
0.14639172
0.1229963
0.10160105
0.088073176
0.077343701
0.068340274
0.0605896
0.0538383
0.047928719
0.042736721
0.038160869
0.034117201
0.03053541
0.02735608
0.024528639
0.022009805
0.019762393
0.017753157
0.015950239
0.014335956
0.14253815
0.11961138
0.098751993
0.085560712
0.075110088
0.066342463
0.058794733
0.052221462
0.046469139
0.041416615
0.036964828
0.03303175
0.029548693
0.026457625
0.023709169
0.021261099
0.01907724
0.017125329
0.015373615
0.013804749
0.13678769
0.11463349
0.094597902
0.081918183
0.071881683
0.063462669
0.056214761
0.049903746
0.044382322
0.039534005
0.035263449
0.031491645
0.028152406
0.025189811
0.022556287
0.020211161
0.018119667
0.016250964
0.01457394
0.013071054
0.12929742
0.10820391
0.089259122
0.077253232
0.067755067
0.059787987
0.052928796
0.046957413
0.041734582
0.037149983
0.033113213
0.029549282
0.026395323
0.023598194
0.021112676
0.018900089
0.016927372
0.01516544
0.013584697
0.012167175
0.1202808
0.10050975
0.082891722
0.071703386
0.062852777
0.055428205
0.04903565
0.043471693
0.038606722
0.034337895
0.030580839
0.027265465
0.024332955
0.021733552
0.019424888
0.01737066
0.015539742
0.013904967
0.012439244
0.011124697
0.10999695
0.091775395
0.075680421
0.06542991
0.057317773
0.050510869
0.044649485
0.039548941
0.035090645
0.03118035
0.027740628
0.024707066
0.022025549
0.019650255
0.017542124
0.015667608
0.013997743
0.012507297
0.011172409
0.0099764334
0.09874129
0.082254518
0.067832644
0.058612836
0.051309016
0.045177262
0.039896224
0.035301522
0.03128668
0.027766953
0.024672615
0.021945584
0.019537017
0.017405532
0.015515824
0.013837497
0.012344095
0.011012429
0.0098222956
0.0087594141
0.086834817
0.072220667
0.059571046
0.051444408
0.044995618
0.039577253
0.034909006
0.030847765
0.0273
0.024191167
0.021459847
0.019054817
0.016932981
0.015057825
0.013398198
0.011927268
0.010621563
0.0094603911
0.008427717
0.0075116849
0.074612508
0.061959615
0.051125593
0.044120741
0.038548731
0.033861651
0.029821166
0.026305745
0.023235314
0.020545984
0.018185031
0.016108415
0.014279067
0.012665592
0.011241256
0.0099831586
0.0088715811
0.0078898894
0.007027601
0.0062733306
0.01290599
0.011182679
0.0097214183
0.0084527449
0.0073689142
0.0064405072
0.0056420016
0.0049515062
0.0043512253
0.0038267083
0.0033662535
0.0029604848
0.0026018745
0.0022842982
0.0020027035
0.0017528679
0.0015312127
0.0013346645
0.0011605515
0.0010065276
0.00087051412
0.00075065468
0.00064528103
0.00055288592
0.00047210233
0.00040168723
0.00034050872
0.00028753579
0.00024183004
0.00020253865
0.00016888848
0.00014018061
0.00011578558
9.5138558e-05
7.7735063e-05
6.3126415e-05
5.0915661e-05
4.0753144e-05
3.2332894e-05
2.5387645e-05
1.9687665e-05
1.5030216e-05
1.1254479e-05
8.191943e-06
5.7778889e-06
3.7874751e-06
2.4142525e-06
1.1075335e-06
1.4646092e-06
2.402756e-06
0.012655416
0.010989381
0.009570006
0.008333513
0.0072761063
0.0063690271
0.0055870112
0.0049089968
0.0043181009
0.0038005982
0.0033453919
0.0029436051
0.0025880777
0.002272938
0.0019933049
0.0017450718
0.00152474
0.0013292917
0.001156096
0.001002838
0.0008674637
0.00074813711
0.00064320685
0.00055117995
0.00047070148
0.00040053867
0.00033956837
0.00028676698
0.00024120233
0.00020202687
0.00016847184
0.00013984199
0.00011551089
9.4916238e-05
7.7555612e-05
6.2982041e-05
5.079997e-05
4.0660891e-05
3.2259776e-05
2.5330138e-05
1.964288e-05
1.4995798e-05
1.1228508e-05
8.172897e-06
5.7645196e-06
3.7788196e-06
2.409707e-06
1.1048687e-06
1.4557127e-06
2.3559686e-06
0.012214366
0.010651418
0.0093078717
0.0081304203
0.0071204856
0.0062510379
0.0054976065
0.0048407849
0.0042654995
0.0037594608
0.0033127106
0.0029172672
0.0025666126
0.0022553039
0.0019787433
0.0017330141
0.0015147455
0.0013210085
0.001149237
0.00099716554
0.0008627792
0.000744274
0.00064002532
0.00054856283
0.00046855077
0.00039877266
0.00033811918
0.00028557837
0.0002402279
0.0002012284
0.00016781794
0.00013930691
0.00011507354
9.4559318e-05
7.7264953e-05
6.274601e-05
5.0609004e-05
4.0507116e-05
3.2136697e-05
2.5232393e-05
1.9566041e-05
1.4936217e-05
1.1183191e-05
8.1394244e-06
5.7409316e-06
3.7635124e-06
2.4017963e-06
1.1002042e-06
1.4379429e-06
2.2645895e-06
0.011609878
0.010189607
0.0089537675
0.0078616086
0.0069182369
0.0060999029
0.005384386
0.0047550376
0.004199592
0.0037079648
0.0032718135
0.0028843303
0.0025398071
0.0022333316
0.0019606522
0.0017180833
0.0015024123
0.0013108223
0.0011408299
0.00099023363
0.00085706959
0.00073957563
0.00063616205
0.00054538788
0.00046594219
0.00039662943
0.00033635789
0.00028413043
0.00023903703
0.00020024856
0.00016701154
0.0001386433
0.00011452768
9.4110791e-05
7.6897041e-05
6.2445002e-05
5.0363609e-05
4.0308008e-05
3.1976144e-05
2.5103971e-05
1.9464405e-05
1.4856919e-05
1.1122557e-05
8.0944503e-06
5.7091592e-06
3.7429302e-06
2.3911883e-06
1.0941238e-06
1.4113007e-06
2.1333158e-06
0.010868639
0.009625198
0.0085270283
0.0075455796
0.0066856175
0.0059285257
0.0052570671
0.0046589371
0.0041256762
0.0036501047
0.0032258436
0.0028473769
0.0025098513
0.0022089148
0.0019406843
0.0017017248
0.0014890015
0.0012998279
0.0011318197
0.00098285275
0.00085102574
0.00073462743
0.00063211022
0.00054206829
0.00046322004
0.00039439438
0.00033451993
0.00028261636
0.00023778752
0.00019921564
0.00016615642
0.00013793468
0.00011394023
9.3623987e-05
7.6494156e-05
6.211235e-05
5.0089912e-05
4.0083919e-05
3.1793863e-05
2.4956958e-05
1.9347162e-05
1.4764815e-05
1.1051719e-05
8.0416827e-06
5.6717764e-06
3.718807e-06
2.3786995e-06
1.0873728e-06
1.3760514e-06
1.9690412e-06
0.010013551
0.0089775602
0.0080451368
0.0071974306
0.0064345353
0.0057451926
0.005120996
0.0045560248
0.0040463314
0.0035879695
0.0031766465
0.0028081188
0.0024783522
0.0021835522
0.0019202204
0.0016851945
0.0014756412
0.0012890273
0.0011230872
0.00097579062
0.00084531115
0.00072999849
0.00062835465
0.0005390144
0.00046072953
0.00039235625
0.00033284542
0.00028123481
0.00023664283
0.00019826339
0.0001653615
0.00013726928
0.00011338229
9.3155883e-05
7.6101714e-05
6.1784048e-05
4.9816267e-05
3.9857038e-05
3.1607091e-05
2.4804638e-05
1.9224449e-05
1.4667547e-05
1.0976345e-05
7.9852328e-06
5.631623e-06
3.6930433e-06
2.3651842e-06
1.0807454e-06
1.3326259e-06
1.7801326e-06
0.0090670057
0.0082660932
0.0075236857
0.006826315
0.0061689147
0.0055506889
0.0049755607
0.0044456208
0.0039614729
0.0035221331
0.0031252744
0.0027678924
0.0024467761
0.0021587262
0.0019006854
0.0016698177
0.0014635361
0.001279497
0.0011155817
0.00096987488
0.00084064099
0.00072630184
0.00062541698
0.00053666722
0.00045884118
0.00039082449
0.0003315914
0.00028019812
0.00023577746
0.00019753452
0.00016474286
0.00013674107
0.00011292951
9.2767095e-05
7.5768011e-05
6.1498359e-05
4.9572805e-05
3.9650933e-05
3.1434129e-05
2.4661093e-05
1.9106993e-05
1.4573179e-05
1.0902384e-05
7.9293869e-06
5.5916279e-06
3.6675731e-06
2.3514675e-06
1.0750067e-06
1.2816107e-06
1.5756462e-06
0.0080568375
0.0075129514
0.0069746423
0.0064309647
0.005880581
0.005336463
0.0048144399
0.0043239796
0.0038695646
0.0034526418
0.0030727206
0.0027281686
0.0024167775
0.0021361008
0.0018836523
0.0016570257
0.0014539567
0.0012723448
0.0011102565
0.00096591778
0.0008377015
0.00072411319
0.00062377724
0.00053542478
0.00045788337
0.00039006875
0.00033097825
0.00027968557
0.00023533661
0.00019714608
0.00016439445
0.00013642509
0.00011264157
9.2504815e-05
7.5530183e-05
6.1284344e-05
4.938213e-05
3.9483073e-05
3.1288375e-05
2.4536514e-05
1.900246e-05
1.4487405e-05
1.0833982e-05
7.8770921e-06
5.5537428e-06
3.6436587e-06
2.3379338e-06
1.0706524e-06
1.2236782e-06
1.3646802e-06
0.0070105323
0.0067278493
0.0063856153
0.0059828274
0.0055384815
0.0050771811
0.0046192534
0.0041780258
0.0037611595
0.0033725456
0.003013755
0.0026848979
0.0023851389
0.0021130681
0.0018669769
0.0016450387
0.0014454173
0.001266329
0.0011060751
0.00096305664
0.00083577775
0.00072284294
0.00062295169
0.00053489212
0.00045753517
0.00038982937
0.00033079669
0.00027952905
0.00023518563
0.00019699051
0.00016423051
0.00013625312
0.00011246431
9.2326182e-05
7.5354408e-05
6.1115417e-05
4.9223458e-05
3.9337319e-05
3.1157408e-05
2.4421451e-05
1.8903765e-05
1.4405007e-05
1.0767375e-05
7.8257087e-06
5.5161324e-06
3.6201023e-06
2.3235767e-06
1.0673922e-06
1.1597857e-06
1.1565682e-06
0.0059690261
0.0058867993
0.005701091
0.0054303241
0.0051031183
0.0047428886
0.0043667901
0.0039892602
0.0036211289
0.00326936
0.0029381034
0.002629655
0.0023449607
0.002083985
0.0018460508
0.0016300992
0.0014348611
0.0012589696
0.0011010324
0.00095967681
0.00083357522
0.0007214582
0.00062212023
0.00053442147
0.0004572875
0.00038970832
0.00033073708
0.00027948893
0.00023514
0.00019692645
0.00016414337
0.00013614364
0.00011233643
9.2185464e-05
7.5206892e-05
6.09669e-05
4.9079027e-05
3.9201121e-05
3.1032574e-05
2.4310118e-05
1.8807205e-05
1.4323741e-05
1.0701319e-05
7.774594e-06
5.4785291e-06
3.5966707e-06
2.3082493e-06
1.0649473e-06
1.0923574e-06
9.6108042e-07
0.0048354041
0.0048702356
0.0048122991
0.0046677989
0.0044642996
0.0042188623
0.0039431913
0.0036501398
0.0033515787
0.003056249
0.0027702016
0.0024976302
0.002241239
0.0020025103
0.0017820259
0.0015797499
0.0013952307
0.0012277465
0.00107641
0.00094024244
0.00081822302
0.00070932109
0.00061251735
0.0005268175
0.00045126114
0.00038492777
0.00032694093
0.00027647123
0.00023273852
0.00019501337
0.00016261802
0.00013492665
0.00011136522
9.1410597e-05
7.4589247e-05
6.0475439e-05
4.8689044e-05
3.8892895e-05
3.0790293e-05
2.4121102e-05
1.8661196e-05
1.4212641e-05
1.0618213e-05
7.7150005e-06
5.4363816e-06
3.5724824e-06
2.290274e-06
1.0636668e-06
1.0223847e-06
7.8909001e-07
0.0037475047
0.0038460202
0.0038675842
0.0038129237
0.0037042751
0.0035540917
0.0033692277
0.0031595554
0.0029356788
0.0027059553
0.0024766302
0.0022525212
0.0020371857
0.0018330254
0.0016415186
0.0014634584
0.0012991331
0.0011484631
0.0010111099
0.0008865587
0.00077417824
0.00067326422
0.00058307023
0.00050283017
0.00043177471
0.00036914343
0.00031419418
0.00026621023
0.00022450595
0.00018843118
0.00015737449
0.00013076554
0.0001080765
8.8822671e-05
7.2562369e-05
5.8896181e-05
4.7465644e-05
3.7951384e-05
3.007122e-05
2.3576934e-05
1.8253876e-05
1.3912322e-05
1.0400359e-05
7.5624663e-06
5.3308197e-06
3.5096253e-06
2.2451452e-06
1.0535385e-06
9.3352337e-07
6.2581646e-07
0.0028121514
0.0029521123
0.0030292466
0.0030437599
0.0030094901
0.0029355291
0.0028260396
0.0026880232
0.002530196
0.0023600156
0.0021834109
0.0020052974
0.001829637
0.0016594059
0.001496722
0.0013430214
0.0011992023
0.0010657413
0.00094279316
0.0008302727
0.00072791902
0.00063534414
0.00055207067
0.00047756062
0.00041123775
0.00035250496
0.00030075807
0.00025539688
0.00021583402
0.00018150203
0.000151859
0.00012639286
0.00010462446
8.6109667e-05
7.0440495e-05
5.7245395e-05
4.6188873e-05
3.6970428e-05
2.9323288e-05
2.3011886e-05
1.7831613e-05
1.3601483e-05
1.0175107e-05
7.4050095e-06
5.2214757e-06
3.4450036e-06
2.1964819e-06
1.0447349e-06
8.3718245e-07
4.7276929e-07
0.0020260974
0.0021872468
0.0022985072
0.0023610899
0.0023813799
0.0023654251
0.0023159296
0.002237445
0.00213643
0.0020190214
0.0018904456
0.0017552876
0.0016174974
0.0014802789
0.0013461157
0.0012168761
0.0010939121
0.00097814523
0.00087014714
0.00077021232
0.00067841848
0.0005946757
0.00051876634
0.00045037727
0.00038912596
0.00033458149
0.00028628192
0.00024374832
0.0002064965
0.00017404654
0.0001459305
0.00012169862
0.00010092408
8.3206476e-05
6.8174224e-05
5.5485971e-05
4.483115e-05
3.5929761e-05
2.8531787e-05
2.241541e-05
1.7386952e-05
1.327488e-05
9.9388642e-06
7.240002e-06
5.1067221e-06
3.3769063e-06
2.1439446e-06
1.0356352e-06
7.4030102e-07
3.4204083e-07
0.0013939501
0.0015555942
0.0016811898
0.0017716585
0.0018278269
0.0018527699
0.0018480823
0.0018164099
0.0017620037
0.0016894438
0.0016029846
0.0015065734
0.0014038104
0.0012978111
0.0011911564
0.001085926
0.00098375068
0.00088586298
0.00079315286
0.00070622339
0.00062544161
0.00055098262
0.00048286754
0.00042099576
0.0003651721
0.00031512975
0.00027054952
0.00023107611
0.00019633185
0.00016592809
0.00013947483
0.00011658848
9.6898144e-05
8.005044e-05
6.5713148e-05
5.3577681e-05
4.3360619e-05
3.4804354e-05
2.7677209e-05
2.1772427e-05
1.6908347e-05
1.2923745e-05
9.6850821e-06
7.0625283e-06
4.9831034e-06
3.3025721e-06
2.0862133e-06
1.0244895e-06
6.4683783e-07
2.3996416e-07
0.00090979444
0.0010554052
0.0011787134
0.0012793935
0.0013547247
0.0014051509
0.0014311
0.0014337192
0.0014153661
0.0013790477
0.0013278963
0.0012650283
0.0011934599
0.0011159676
0.0010349942
0.00095262469
0.00087059325
0.00079030143
0.00071284574
0.00063905251
0.00056951452
0.00050462576
0.00044461361
0.00038956781
0.00033946627
0.0002941976
0.00025358085
0.00021738269
0.00018533215
0.00015713341
0.00013247664
0.00011104702
9.253235e-05
7.6628984e-05
6.3046616e-05
5.1511765e-05
4.1770246e-05
3.358866e-05
2.6755243e-05
2.1079614e-05
1.6393248e-05
1.2546096e-05
9.4122282e-06
6.8712984e-06
4.849681e-06
3.2209354e-06
2.0230684e-06
1.0100437e-06
5.6002536e-07
1.6871367e-07
0.00055792944
0.00067741341
0.00078646113
0.000883485
0.00096403235
0.0010266481
0.0010706184
0.0010958834
0.0011032964
0.0010944491
0.0010713355
0.0010361587
0.00099121421
0.00093876538
0.00088093305
0.00081963124
0.00075653831
0.00069308607
0.00063046203
0.0005696226
0.00051131289
0.00045608934
0.0004043432
0.00035632357
0.00031215927
0.00027187917
0.0002354306
0.00020269609
0.00017350822
0.00014766278
0.00012493028
0.00010506581
8.7817443e-05
7.2933215e-05
6.0166731e-05
4.9281585e-05
4.0054678e-05
3.2278513e-05
2.5762732e-05
2.0334626e-05
1.5839932e-05
1.2140652e-05
9.1193481e-06
6.6655049e-06
4.7059071e-06
3.1312566e-06
1.9546431e-06
9.9116782e-07
4.8230739e-07
1.2650381e-07
0.00031808409
0.00040719536
0.0004948823
0.00057877285
0.00065402936
0.00071814849
0.00076953438
0.00080721229
0.00083092297
0.0008411049
0.0008387166
0.00082506741
0.00080169682
0.00077026291
0.00073243941
0.00068983636
0.0006439452
0.00059610521
0.00054748536
0.00049907838
0.00045170394
0.00040601797
0.00036252576
0.00032159714
0.00028348269
0.00024832987
0.0002161988
0.0001870771
0.00016089381
0.00013753198
0.00011684018
9.8642532e-05
8.2747594e-05
6.8955864e-05
5.7066075e-05
4.6880313e-05
3.8208038e-05
3.0869088e-05
2.469587e-05
1.9534549e-05
1.5246223e-05
1.1705804e-05
8.805274e-06
6.4442498e-06
4.5512213e-06
3.0329173e-06
1.8812176e-06
9.6698096e-07
4.1503773e-07
1.0800972e-07
0.00016903117
0.00022776962
0.00029116532
0.00035658944
0.00041962246
0.00047743317
0.00052794594
0.00056960579
0.00060141348
0.00062296219
0.0006343648
0.0006361409
0.0006291174
0.00061433769
0.00059297274
0.00056624389
0.00053536075
0.00050147314
0.00046563773
0.00042879755
0.00039177117
0.00035524946
0.00031979809
0.00028586404
0.00025378488
0.00022379966
0.00019606063
0.00017064519
0.00014756771
0.00012679083
0.00010823603
9.1793381e-05
7.7330272e-05
6.4699083e-05
5.3743819e-05
4.4305671e-05
3.6227557e-05
2.9357688e-05
2.3552307e-05
1.867749e-05
1.4610684e-05
1.1240514e-05
8.4692989e-06
6.2070594e-06
4.3854244e-06
2.9257428e-06
1.8033515e-06
9.3714353e-07
3.5857836e-07
1.0569506e-07
9.0715235e-05
0.00012178177
0.00016105941
0.00020605199
0.00025313046
0.00029962472
0.00034337506
0.00038258332
0.00041584851
0.00044222651
0.00046122063
0.00047272473
0.00047695864
0.0004744037
0.00046573592
0.00045175975
0.00043334945
0.00041139937
0.00038678314
0.00036032317
0.00033276987
0.00030478827
0.00027695121
0.0002497374
0.0002235336
0.00019863958
0.00017527508
0.00015358796
0.00013366319
0.00011553192
9.9180642e-05
8.4559798e-05
7.1591945e-05
6.017913e-05
5.0209479e-05
4.1562896e-05
3.4115887e-05
2.7745506e-05
2.2332496e-05
1.7763587e-05
1.3933373e-05
1.0744877e-05
8.111593e-06
5.9541918e-06
4.2088946e-06
2.8101579e-06
1.7219047e-06
9.0195198e-07
3.1253767e-07
1.1163505e-07
6.5493252e-05
7.3019577e-05
9.0359665e-05
0.00011536932
0.00014530565
0.00017792388
0.00021127083
0.00024358575
0.00027334869
0.00029935368
0.00032073514
0.00033695389
0.00034776772
0.00035319538
0.00035347392
0.00034901105
0.00034033693
0.00032805961
0.00031282564
0.00029528631
0.00027607088
0.00025576674
0.00023490539
0.00021395371
0.0001933095
0.00017330073
0.00015418745
0.00013616583
0.00011937365
0.0001038967
8.9775788e-05
7.7013795e-05
6.558271e-05
5.543027e-05
4.6486109e-05
3.8667275e-05
3.1883065e-05
2.6039113e-05
2.104078e-05
1.6795796e-05
1.3216399e-05
1.02205e-05
7.7334604e-06
5.6868e-06
4.022688e-06
2.687232e-06
1.6380084e-06
8.6231108e-07
2.7604901e-07
1.1923721e-07
7.8630745e-05
6.7236816e-05
6.5894426e-05
7.2888784e-05
8.6303957e-05
0.0001044142
0.00012563258
0.00014842475
0.00017136058
0.00019319228
0.00021289841
0.00022969681
0.00024304263
0.00025261757
0.00025831026
0.00026018846
0.00025846632
0.00025346993
0.0002456041
0.00023532151
0.00022309541
0.00020939671
0.00019467603
0.00017935009
0.00016379232
0.0001483271
0.00013322705
0.00011871297
0.00010495571
9.2079578e-05
8.0166784e-05
6.9262557e-05
5.9380601e-05
5.0508599e-05
4.2613565e-05
3.5646843e-05
2.9548656e-05
2.4252115e-05
1.9686643e-05
1.5780787e-05
1.2464537e-05
9.6709053e-06
7.3375841e-06
5.4070523e-06
3.8285766e-06
2.5586232e-06
1.5529686e-06
8.1955064e-07
2.4793952e-07
1.2429086e-07
0.00011828917
9.2466614e-05
7.6075729e-05
6.7815248e-05
6.6462991e-05
7.0797616e-05
7.9647585e-05
9.1799702e-05
0.00010604235
0.00012123933
0.00013637868
0.00015059842
0.00016320158
0.00017366382
0.00018163236
0.00018691604
0.00018946836
0.00018936598
0.00018678479
0.00018197559
0.00017524045
0.00016691093
0.00015732911
0.00014683188
0.00013573843
0.00012434102
0.00011289861
0.00010163315
9.0728131e-05
8.0328974e-05
7.0544818e-05
6.1451421e-05
5.3094777e-05
4.5495163e-05
3.8651362e-05
3.2544862e-05
2.7143841e-05
2.2406835e-05
1.8286e-05
1.472991e-05
1.168592e-05
9.1019918e-06
6.9283038e-06
5.1182649e-06
3.6290867e-06
2.4265075e-06
1.4681947e-06
7.7521448e-07
2.2683104e-07
1.2510589e-07
0.00017524444
0.00013900897
0.00011111981
9.0626489e-05
7.6843748e-05
6.8982794e-05
6.6262957e-05
6.7811428e-05
7.2692002e-05
7.9968012e-05
8.8747195e-05
9.8210049e-05
0.00010763202
0.00011640146
0.00012403086
0.00013016049
0.00013455476
0.00013709315
0.00013775693
0.00013661313
0.00013379717
0.00012949511
0.0001239268
0.00011733041
0.0001099492
0.00010202042
9.3766729e-05
8.5389776e-05
7.706606e-05
6.8944612e-05
6.1146331e-05
5.3764631e-05
4.6867106e-05
4.0497935e-05
3.4680764e-05
2.9421845e-05
2.4713226e-05
2.0535856e-05
1.6862469e-05
1.3660182e-05
1.0892764e-05
8.5225332e-06
6.5119332e-06
4.8250593e-06
3.4275478e-06
2.2935032e-06
1.385144e-06
7.308464e-07
2.1119935e-07
1.2187978e-07
0.00024248929
0.00019922886
0.0001630398
0.00013324613
0.00010954889
9.1498711e-05
7.8642481e-05
7.041775e-05
6.6166621e-05
6.5184969e-05
6.6758768e-05
7.018865e-05
7.4812085e-05
8.0024563e-05
8.5296936e-05
9.0187118e-05
9.4346023e-05
9.7518343e-05
9.9538837e-05
0.00010032491
9.9866389e-05
9.8213575e-05
9.5464373e-05
9.1751469e-05
8.7230172e-05
8.2067479e-05
7.6432609e-05
7.0489277e-05
6.4389685e-05
5.8270231e-05
5.2248768e-05
4.6423255e-05
4.0871555e-05
3.5652174e-05
3.0805699e-05
2.6356731e-05
2.2316104e-05
1.8683232e-05
1.544844e-05
1.2595185e-05
1.0102082e-05
7.944715e-06
6.0971293e-06
4.5335856e-06
3.2282091e-06
2.1626751e-06
1.3053578e-06
6.8788171e-07
1.9951492e-07
1.1575651e-07
0.00031481748
0.0002672672
0.00022550056
0.00018904507
0.00015785945
0.00013174164
0.00011048974
9.3796606e-05
8.125171e-05
7.2377115e-05
6.6654002e-05
6.3540538e-05
6.2489861e-05
6.2969557e-05
6.4479895e-05
6.6568771e-05
6.8842812e-05
7.0974605e-05
7.2706121e-05
7.384852e-05
7.4278775e-05
7.3933721e-05
7.2802262e-05
7.0916425e-05
6.8341921e-05
6.5168815e-05
6.1502772e-05
5.7457202e-05
5.3146569e-05
4.8680947e-05
4.4161888e-05
3.9679514e-05
3.5310755e-05
3.1118572e-05
2.7152e-05
2.3446842e-05
2.0026824e-05
1.690507e-05
1.4085737e-05
1.1565712e-05
9.3362596e-06
7.3846e-06
5.6952485e-06
4.2517658e-06
3.0363951e-06
2.0375991e-06
1.2305566e-06
6.4763201e-07
1.9045278e-07
1.0803496e-07
0.00038844485
0.00033873247
0.0002936049
0.00025273544
0.00021623968
0.00018408326
0.00015624218
0.0001326024
0.00011295358
9.7014107e-05
8.4448721e-05
7.4879322e-05
6.7897183e-05
6.3078067e-05
5.9998007e-05
5.8247784e-05
5.744545e-05
5.7246559e-05
5.7351803e-05
5.7511814e-05
5.7529143e-05
5.7257627e-05
5.6599523e-05
5.5500881e-05
5.3945653e-05
5.1949035e-05
4.9550543e-05
4.680723e-05
4.3787344e-05
4.0564719e-05
3.7214006e-05
3.3806863e-05
3.0409081e-05
2.7078618e-05
2.386445e-05
2.0806121e-05
1.7933861e-05
1.5269148e-05
1.2825573e-05
1.0609911e-05
8.6232845e-06
6.8623878e-06
5.3205849e-06
3.9894924e-06
2.8586629e-06
1.9224783e-06
1.1627868e-06
6.1136533e-07
1.8312475e-07
9.9763524e-08
0.00046068677
0.0004104105
0.00036365893
0.00032020804
0.00028025672
0.00024387553
0.00021115607
0.00018211919
0.0001567041
0.00013478527
0.00011618308
0.00010066871
8.797071e-05
7.7785037e-05
6.9786796e-05
6.3642024e-05
5.9019004e-05
5.5598711e-05
5.3083948e-05
5.1206727e-05
4.9733625e-05
4.8469005e-05
4.7256199e-05
4.5976801e-05
4.4548382e-05
4.292095e-05
4.1072534e-05
3.9004269e-05
3.6735318e-05
3.4297931e-05
3.173287e-05
2.9085364e-05
2.6401721e-05
2.3726621e-05
2.1101105e-05
1.8561211e-05
1.6137194e-05
1.385323e-05
1.172752e-05
9.7727006e-06
7.9964527e-06
6.4022951e-06
4.9903551e-06
3.7586674e-06
2.7028695e-06
1.8222287e-06
1.1045397e-06
5.8041017e-07
1.7720681e-07
9.1662506e-08
0.00052969559
0.00048001073
0.00043294603
0.00038834975
0.00034645373
0.00030738734
0.0002713093
0.00023832654
0.00020848151
0.0001817634
0.00015811396
0.00013742809
0.00011955597
0.00010430845
9.1464515e-05
8.0779537e-05
7.1993936e-05
6.484203e-05
5.9060637e-05
5.4396939e-05
5.0615258e-05
4.7502435e-05
4.487169e-05
4.2564899e-05
4.0453365e-05
3.8437206e-05
3.6443601e-05
3.4424129e-05
3.23515e-05
3.0215936e-05
2.8021454e-05
2.5782261e-05
2.3519434e-05
2.1257998e-05
1.9024477e-05
1.6844946e-05
1.4743591e-05
1.2741718e-05
1.0857187e-05
9.1041946e-06
7.493331e-06
6.0318965e-06
4.7242972e-06
3.5729807e-06
2.5780704e-06
1.7424721e-06
1.058795e-06
5.5623672e-07
1.7291417e-07
8.4194199e-08
0.00059425195
0.00054595412
0.00049952476
0.00045486397
0.00041220445
0.00037170254
0.00033354892
0.00029789899
0.00026486012
0.00023449922
0.00020684549
0.00018188839
0.00015957673
0.00013982046
0.00012249451
0.00010744352
9.4487508e-05
8.3428265e-05
7.4056183e-05
6.6157156e-05
5.9519196e-05
5.3938408e-05
4.9224108e-05
4.520287e-05
4.1721415e-05
3.8648314e-05
3.5874554e-05
3.3313083e-05
3.0897514e-05
2.8580165e-05
2.6329653e-05
2.4128236e-05
2.1969091e-05
1.9853668e-05
1.7789266e-05
1.5786888e-05
1.3859443e-05
1.2020322e-05
1.0282319e-05
8.656902e-06
7.1537805e-06
5.7807614e-06
4.5437569e-06
3.4473245e-06
2.4941686e-06
1.6893637e-06
1.028935e-06
5.4046549e-07
1.7084105e-07
7.7641103e-08
0.00065360154
0.00060720021
0.00056205556
0.00051810636
0.00047556723
0.00043460098
0.00039540645
0.0003581604
0.00032300586
0.00029005734
0.00025940182
0.00023109545
0.0002051609
0.00018158677
0.00016032867
0.00014131114
0.00012443059
0.00010955909
9.6548976e-05
8.5238032e-05
7.5454908e-05
6.7024537e-05
5.977329e-05
5.3533625e-05
4.8148062e-05
4.3472313e-05
3.9377541e-05
3.5751695e-05
3.2499997e-05
2.9544653e-05
2.6823928e-05
2.4290728e-05
2.1910838e-05
1.9660973e-05
1.7526769e-05
1.5500835e-05
1.3580953e-05
1.1768491e-05
1.0067062e-05
8.4814569e-06
7.0168394e-06
5.6782254e-06
4.4701344e-06
3.3967502e-06
2.4612446e-06
1.6692036e-06
1.0185099e-06
5.3478533e-07
1.7175105e-07
7.2157179e-08
0.00070732635
0.00066310711
0.00061965522
0.00057693974
0.0005351476
0.00049443582
0.00045499651
0.00041700964
0.00038063304
0.00034600605
0.00031324967
0.00028246293
0.00025371943
0.00022706545
0.00020251927
0.00018007107
0.00015968372
0.00014129434
0.00012481684
0.00011014508
9.7156687e-05
8.5717195e-05
7.5684434e-05
6.6912836e-05
5.9257555e-05
5.2578166e-05
4.6741825e-05
4.1625785e-05
3.7119216e-05
3.3124324e-05
2.9556806e-05
2.6345722e-05
2.3432856e-05
2.0771714e-05
1.8326236e-05
1.6069371e-05
1.3981587e-05
1.2049432e-05
1.0264183e-05
8.6206701e-06
7.1162686e-06
5.7501291e-06
4.5225602e-06
3.4348668e-06
2.4884985e-06
1.687785e-06
1.0308372e-06
5.4077391e-07
1.7638312e-07
6.7804653e-08
0.00075524471
0.00071332016
0.00067177745
0.00063061103
0.00058997632
0.00055001813
0.00051091349
0.00047283443
0.00043593975
0.00040037766
0.00036628554
0.00033378652
0.00030298597
0.00027396908
0.0002467991
0.00022151615
0.00019813644
0.00017665229
0.00015703284
0.00013922549
0.00012315803
0.00010874131
9.5872375e-05
8.4437858e-05
7.4317589e-05
6.5388095e-05
5.7525968e-05
5.0610873e-05
4.4528148e-05
3.9170881e-05
3.4441448e-05
3.0252489e-05
2.6527378e-05
2.3200216e-05
2.0215434e-05
1.7527094e-05
1.5097974e-05
1.2898518e-05
1.0905753e-05
9.1022082e-06
7.4749278e-06
6.0146052e-06
4.7148248e-06
3.5716809e-06
2.5827902e-06
1.7494681e-06
1.0684402e-06
5.5962654e-07
1.8529626e-07
6.4584077e-08
0.00079732595
0.00075767585
0.00071810826
0.00067863999
0.0006393949
0.00060050303
0.00056212257
0.00052441162
0.00048752159
0.00045159923
0.00041678613
0.00038321591
0.00035101095
0.00032027995
0.00029111578
0.00026359368
0.00023776965
0.00021367939
0.00019133777
0.00017073892
0.00015185689
0.00013464692
0.00011904725
0.00010498137
9.2360654e-05
8.1087265e-05
7.105709e-05
6.2162716e-05
5.429623e-05
4.735176e-05
4.1227673e-05
3.582836e-05
3.1065589e-05
2.6859414e-05
2.3138659e-05
1.9841037e-05
1.691294e-05
1.4308984e-05
1.199137e-05
9.9291373e-06
8.0973721e-06
6.4764339e-06
5.0512053e-06
3.8106153e-06
2.7466038e-06
1.8558678e-06
1.1322641e-06
5.9176481e-07
1.9871903e-07
6.2451011e-08
0.00083363306
0.0007961358
0.0007584917
0.00072073863
0.00068297071
0.00064530301
0.00060787419
0.000570826
0.00053429829
0.00049843031
0.00046336031
0.00042922323
0.00039614799
0.00036425525
0.00033365526
0.00030444587
0.00027671051
0.00025051666
0.00022591444
0.00020293582
0.00018159418
0.00016188441
0.00014378358
0.00012725199
0.0001122348
9.8663948e-05
8.6460489e-05
7.5537014e-05
6.5800243e-05
5.7153576e-05
4.9499527e-05
4.2741941e-05
3.6787939e-05
3.1549519e-05
2.6944806e-05
2.2898927e-05
1.9344547e-05
1.6222085e-05
1.3479655e-05
1.1072804e-05
8.9640784e-06
7.1225113e-06
5.523025e-06
4.1460064e-06
2.9763078e-06
2.0047271e-06
1.221011e-06
6.3651542e-07
2.1646114e-07
6.1326867e-08
0.00086423853
0.00082869263
0.00079282689
0.00075669959
0.00072037793
0.00068396336
0.00064757627
0.00061134212
0.00057538775
0.00053984218
0.00050483621
0.00047050072
0.0004369644
0.00040435195
0.00037278205
0.00034236547
0.00031320302
0.00028538371
0.00025898304
0.00023406162
0.00021066396
0.00018881784
0.00016853392
0.00014980595
0.00013261126
0.00011691192
0.00010265606