/*--------------------------------*- C++ -*----------------------------------*\
  =========                 |
  \\      /  F ield         | OpenFOAM: The Open Source CFD Toolbox
   \\    /   O peration     | Website:  https://openfoam.org
    \\  /    A nd           | Version:  6
     \\/     M anipulation  |
\*---------------------------------------------------------------------------*/
FoamFile
{
    version     2.0;
    format      ascii;
    class       volVectorField;
    location    "180";
    object      UMean;
}
// * * * * * * * * * * * * * * * * * * * * * * * * * * * * * * * * * * * * * //

dimensions      [0 1 -1 0 0 0 0];

internalField   nonuniform List<vector> 
9200
(
(0.0018055056 0.00083385519 -6.1223632e-20)
(0.016223189 -0.0039052966 4.8709634e-20)
(0.042802841 -0.0087933524 -4.0101376e-20)
(0.078821845 -0.013624382 -6.3640176e-20)
(0.12238003 -0.018185722 1.9741244e-20)
(0.17221069 -0.022044477 3.4593058e-20)
(0.22720758 -0.024915124 -1.2934478e-20)
(0.28634862 -0.026657407 9.7868703e-21)
(0.34867879 -0.027217745 1.8063315e-20)
(0.4132788 -0.026605816 1.5966122e-21)
(0.47924206 -0.024883281 -2.313738e-20)
(0.54566639 -0.022152751 2.2226739e-20)
(0.61165773 -0.018546775 -4.3364111e-20)
(0.67634352 -0.014216683 -2.2808102e-20)
(0.73889404 -0.0093207705 6.3736513e-21)
(0.79854901 -0.0040146032 -2.7204496e-20)
(0.85466235 0.001571882 2.7343243e-20)
(0.90682349 0.0074800446 2.4282133e-20)
(0.95467639 0.013838081 -2.5403666e-22)
(0.99559201 0.017335259 -1.5808321e-21)
(0.0062426206 -0.0020059313 -1.7637332e-20)
(0.030107758 -0.010984929 4.1825735e-20)
(0.067061177 -0.01790263 2.4298825e-20)
(0.11397051 -0.023181506 -1.2139395e-19)
(0.16863063 -0.02701775 -1.327766e-20)
(0.22951495 -0.02921387 7.7410499e-20)
(0.29524895 -0.02968808 -3.7461477e-20)
(0.36453091 -0.028489224 -8.9361644e-21)
(0.43612149 -0.02573618 3.6572339e-20)
(0.50882116 -0.021598675 -4.6258918e-20)
(0.58145999 -0.016289464 -3.2652157e-20)
(0.65290554 -0.010053839 7.753861e-20)
(0.72208378 -0.003157741 4.1178842e-20)
(0.7880083 0.0041239669 -7.3241152e-20)
(0.84981349 0.011517479 1.5756116e-20)
(0.90678619 0.018754718 -3.9584059e-20)
(0.95840436 0.02558708 -1.5019672e-20)
(1.0044334 0.031857776 7.6397562e-20)
(1.0447948 0.037163667 3.2805855e-20)
(1.0777706 0.038423768 -8.5506251e-20)
(0.012090614 -0.0047469872 3.7621602e-20)
(0.047724378 -0.017494361 2.2960799e-21)
(0.096822847 -0.025687441 2.2763157e-20)
(0.15589866 -0.030498652 1.0245262e-21)
(0.2224526 -0.032618021 -4.2099704e-20)
(0.29467416 -0.032147802 1.9744641e-20)
(0.37088759 -0.029270367 1.3871212e-20)
(0.44948149 -0.024281298 -5.3205258e-20)
(0.52891541 -0.017524595 6.085146e-20)
(0.60771679 -0.0093751871 1.5511546e-20)
(0.68449243 -0.0002312821 -5.8291016e-20)
(0.75795759 0.0094993099 -1.9716229e-20)
(0.82697403 0.019415681 9.3753793e-21)
(0.89058914 0.029139972 2.5145123e-20)
(0.94806944 0.038331072 -1.2152343e-20)
(0.99892151 0.04669327 2.9813341e-20)
(1.0429025 0.053989871 -2.1690907e-20)
(1.0800474 0.06008988 -7.4513792e-20)
(1.1105447 0.064732921 -2.4458784e-20)
(1.1335991 0.066064581 5.1020103e-20)
(0.019442269 -0.0071391198 2.4921815e-20)
(0.069181345 -0.022736126 5.2595579e-20)
(0.13205911 -0.031107311 2.0616414e-20)
(0.20430983 -0.034297985 1.3846762e-20)
(0.28315983 -0.033578376 1.8300383e-20)
(0.36649986 -0.029419578 -5.0169501e-20)
(0.45233906 -0.022331727 -2.7105392e-20)
(0.53875983 -0.012913494 0)
(0.6239532 -0.0017788449 1.5719091e-20)
(0.70624481 0.010462908 -6.8127733e-21)
(0.78413233 0.023218373 -1.0429125e-19)
(0.85633332 0.035929579 -1.6605978e-20)
(0.92183129 0.048095709 6.9566535e-20)
(0.97991029 0.059292009 4.7579663e-22)
(1.0301713 0.069183346 -1.6716528e-21)
(1.0725264 0.077530417 2.3279205e-20)
(1.1071724 0.084195752 -5.4168994e-21)
(1.1345642 0.089171693 -6.4617127e-20)
(1.1552956 0.092439472 -4.8521787e-20)
(1.1693767 0.09305468 7.1819142e-20)
(0.028320055 -0.0088994116 -3.8269983e-21)
(0.094365336 -0.025959117 -4.7607603e-21)
(0.17235988 -0.03309017 5.8286446e-20)
(0.2583691 -0.03332132 1.9538585e-20)
(0.34938649 -0.028584428 -3.3784192e-20)
(0.4430161 -0.019788279 1.2452421e-20)
(0.53697883 -0.0078294792 2.7865481e-21)
(0.6291104 0.0063469657 3.5867844e-20)
(0.7174346 0.021834859 6.0136049e-21)
(0.80022114 0.037793238 -1.4325181e-20)
(0.87604349 0.05346309 6.4455454e-20)
(0.94383183 0.068191342 -6.1384011e-20)
(1.0029074 0.08145307 -1.4016011e-19)
(1.0529905 0.092865473 -5.9035229e-21)
(1.0941788 0.10219152 8.770602e-20)
(1.1268991 0.10933272 0)
(1.1518388 0.11431753 1.0801585e-20)
(1.1698747 0.11730391 -1.6124488e-20)
(1.1819581 0.11847717 -9.1866518e-21)
(1.1886684 0.11744697 2.1683933e-20)
(0.0386562 -0.0097228721 -5.0866217e-21)
(0.12291149 -0.026401861 4.4623275e-21)
(0.21692605 -0.030617493 -9.0181761e-21)
(0.31674485 -0.026462224 2.9123572e-20)
(0.41920627 -0.016593716 -3.0850765e-20)
(0.52168505 -0.0024150906 -1.7751832e-20)
(0.62170006 0.014751808 3.8307692e-20)
(0.71696951 0.033602996 4.7693715e-21)
(0.80552305 0.052958001 -2.6419613e-20)
(0.88578328 0.071793646 7.3846027e-20)
(0.95662671 0.089262879 2.4440981e-22)
(1.017418 0.10471558 -8.5116348e-20)
(1.0680075 0.11771024 0)
(1.1086906 0.12801066 4.1495705e-20)
(1.1401344 0.13556779 5.7354181e-21)
(1.1632816 0.14048948 -8.1003211e-20)
(1.1792461 0.14300606 -2.0479352e-20)
(1.1892158 0.14344788 -1.2926282e-20)
(1.1943478 0.14215731 -1.532479e-20)
(1.1954988 0.139074 4.1972386e-20)
(0.05027984 -0.0093034668 -1.7311649e-20)
(0.15418797 -0.023351678 -3.2591616e-21)
(0.26457977 -0.022814222 3.0725339e-20)
(0.37766946 -0.012876938 3.7685957e-20)
(0.49026428 0.0030471252 -2.0580037e-20)
(0.59962543 0.023033551 -7.2433336e-20)
(0.70322324 0.045335242 -2.9721962e-20)
(0.79885489 0.068324912 8.290165e-20)
(0.88478414 0.090619106 9.3781628e-21)
(0.95982627 0.11111386 -2.5995374e-20)
(1.0233855 0.12899514 1.4129693e-20)
(1.0754435 0.14374236 -4.5755347e-21)
(1.1164982 0.15511446 0)
(1.1474628 0.16311625 2.8459899e-20)
(1.1695405 0.16794958 -8.275738e-20)
(1.1840923 0.16995652 -3.2816871e-20)
(1.1925151 0.16956426 8.420323e-20)
(1.1961445 0.16724588 -4.7491024e-21)
(1.1961753 0.16344256 3.6078814e-21)
(1.1935144 0.15827825 2.8284161e-20)
(0.062911189 -0.0073619798 -3.2583309e-20)
(0.18730241 -0.016216492 -8.3642495e-20)
(0.31381011 -0.0090461216 1.6090334e-21)
(0.4390432 0.0079127139 7.2778473e-20)
(0.55995097 0.03051593 6.4755497e-20)
(0.67385805 0.056339124 -7.373454e-20)
(0.77840102 0.083265149 2.675091e-22)
(0.87170029 0.10943821 8.9980199e-20)
(0.95250394 0.13339843 5.1101464e-20)
(1.0202471 0.15410601 -5.6902714e-20)
(1.0750373 0.17092634 -9.6628765e-20)
(1.1175758 0.18359855 -3.3000761e-21)
(1.1490284 0.19218171 4.3932094e-20)
(1.1708679 0.19698219 -6.8054797e-21)
(1.1847133 0.1984728 -1.3208047e-20)
(1.1921848 0.19721412 2.0153212e-20)
(1.1947906 0.19378852 4.5420354e-20)
(1.1938545 0.18875657 -4.5181349e-20)
(1.1904755 0.18259629 -1.0572428e-19)
(1.185469 0.17552203 2.5615089e-20)
(0.076132069 -0.003676663 -3.5819732e-20)
(0.2210636 -0.004600469 -1.756662e-19)
(0.36274905 0.010998263 8.5533541e-20)
(0.49843884 0.035959358 9.6073651e-20)
(0.62544416 0.065498037 5.9822469e-20)
(0.74138435 0.096772444 8.9840953e-21)
(0.84431764 0.12741436 -1.1036833e-19)
(0.93294478 0.15549339 0)
(1.0067259 0.17964485 -7.2082901e-20)
(1.0658849 0.19906221 -1.5935161e-20)
(1.1113223 0.21343677 5.6972633e-20)
(1.1444614 0.22287546 1.1371185e-20)
(1.1670591 0.22779864 -4.7286249e-20)
(1.181012 0.22882883 -5.0717971e-20)
(1.1881865 0.22668536 2.5258379e-20)
(1.190289 0.22209626 4.6501962e-20)
(1.1887859 0.21573535 -5.7510439e-20)
(1.1848703 0.20818726 -1.1085692e-19)
(1.1794673 0.19991283 -3.070513e-21)
(1.1732352 0.19116105 2.7795001e-20)
(0.089369378 0.0019018327 -3.9875956e-21)
(0.25398642 0.011682557 8.9877673e-20)
(0.40920975 0.037312774 -1.4511855e-20)
(0.55318916 0.070915839 -8.8029976e-20)
(0.68384737 0.10723371 4.6849699e-20)
(0.79935668 0.1431638 5.0281695e-20)
(0.89845437 0.17627492 5.7658023e-21)
(0.9806469 0.2047689 -1.0332772e-19)
(1.0462689 0.22757587 -2.6054123e-21)
(1.0964118 0.24429155 5.2505242e-20)
(1.1327578 0.25505431 6.2039279e-21)
(1.1573615 0.2604039 -2.0516415e-20)
(1.1724229 0.26113299 -7.8309143e-20)
(1.1800873 0.25814799 -6.3753562e-21)
(1.1822952 0.25235473 4.4857007e-20)
(1.1806919 0.24457748 3.8089762e-20)
(1.1765932 0.23551278 2.0226144e-20)
(1.1709975 0.22571273 -5.4860893e-20)
(1.1646299 0.21558288 1.2891427e-20)
(1.1579787 0.20537827 8.4673969e-20)
(-0.0013310827 0.0014569437 -8.1821768e-22)
(-0.0047649803 0.0031926591 1.857886e-21)
(-0.01079973 0.0040944125 1.9176469e-21)
(-0.017657386 0.0044368786 -9.6960208e-22)
(-0.02441478 0.0043927523 -2.4394485e-21)
(-0.03064375 0.0040791407 2.5707333e-21)
(-0.036070822 0.0035813451 -8.5139713e-21)
(-0.040521447 0.0029609455 -7.3424875e-21)
(-0.043901598 0.0022616882 1.3155371e-20)
(-0.046171371 0.0015143918 -1.1287774e-20)
(-0.047324734 0.00074051741 -2.0389008e-22)
(-0.0473767 -4.5244249e-05 4.2044799e-21)
(-0.046354823 -0.00083301783 -6.8250842e-22)
(-0.044293407 -0.0016161963 2.5500419e-20)
(-0.041229876 -0.0023900498 2.6971336e-22)
(-0.037204277 -0.0031502469 -4.524874e-20)
(-0.032261704 -0.0038922265 8.4208933e-21)
(-0.026444034 -0.0046139392 2.6089355e-20)
(-0.01976214 -0.0053139151 -4.778824e-20)
(-0.012279335 -0.0059428398 -3.0109003e-20)
(-0.0016898119 0.0042403866 -5.7294216e-21)
(-0.0053934752 0.0092690031 9.6038238e-21)
(-0.011177445 0.011865693 -1.054406e-20)
(-0.017433951 0.012828746 5.877456e-21)
(-0.023339899 0.012662187 6.9456834e-21)
(-0.028518796 0.011709632 9.4047868e-22)
(-0.032733248 0.010221499 -2.8095656e-20)
(-0.035834869 0.0083784948 -2.3512594e-21)
(-0.037747291 0.0063089838 2.352551e-20)
(-0.03844208 0.0041033794 -5.8152309e-21)
(-0.037920365 0.0018246062 -2.4838731e-20)
(-0.03620128 -0.00048430729 5.529271e-21)
(-0.03331433 -0.0027945089 2.5121838e-20)
(-0.029294075 -0.0050867852 1.1477816e-20)
(-0.024176352 -0.007347471 2.4387888e-20)
(-0.017998761 -0.0095642917 -2.1779089e-20)
(-0.010810545 -0.011724461 -2.3671553e-20)
(-0.00266432 -0.013821423 2.3377777e-20)
(0.0065017945 -0.015840487 2.8997692e-20)
(0.016879873 -0.017612493 1.6832872e-20)
(-0.0023369562 0.0066363469 -4.6545753e-21)
(-0.0064831312 0.014435831 -4.7360757e-21)
(-0.011708804 0.018421919 2.1192982e-23)
(-0.016734792 0.019835895 -2.8327248e-22)
(-0.020929891 0.019467657 7.6680354e-21)
(-0.024017192 0.017862183 1.2047361e-20)
(-0.025829346 0.015417502 -4.4986317e-21)
(-0.026268845 0.012421004 -2.1719682e-20)
(-0.025293902 0.0090771358 7.5337281e-21)
(-0.022898932 0.0055301171 1.4682096e-20)
(-0.019099865 0.0018804161 6.7890628e-21)
(-0.013925093 -0.0018032721 2.0143625e-20)
(-0.0074095145 -0.005475066 1.9261732e-21)
(0.0004097657 -0.0091048495 -3.7212378e-20)
(0.0094972096 -0.012671586 1.6004803e-21)
(0.019817297 -0.016156784 -2.3704095e-20)
(0.031311547 -0.019543128 -2.7101139e-20)
(0.043903089 -0.022821959 5.0228675e-20)
(0.057774835 -0.025939892 2.7820655e-20)
(0.073617003 -0.028530452 5.3513654e-22)
(-0.0031487124 0.0084320453 -5.8073736e-21)
(-0.0077493207 0.018188641 -1.1622602e-20)
(-0.01203461 0.023086182 4.5007843e-21)
(-0.015174941 0.024687191 4.7594312e-21)
(-0.016803872 0.023997433 2.1316442e-21)
(-0.016784069 0.021723981 8.8720614e-21)
(-0.015047784 0.018384933 1.0957165e-20)
(-0.011570889 0.014354629 -1.6472292e-21)
(-0.0063626721 0.0099000047 -1.309655e-20)
(0.00054730926 0.0052098287 -3.2849835e-20)
(0.0091187815 0.00041582388 1.7785705e-22)
(0.019305811 -0.0043918719 4.5233895e-20)
(0.031061102 -0.0091534967 -2.0005827e-20)
(0.044337544 -0.013830217 -1.3521251e-20)
(0.059092294 -0.018396056 2.6177794e-22)
(0.075285081 -0.022830267 3.5392316e-20)
(0.092842059 -0.027118385 -1.6709476e-20)
(0.11164385 -0.031259448 -5.75943e-20)
(0.13199957 -0.03513693 4.892847e-20)
(0.15530828 -0.038067029 3.5517499e-20)
(-0.0039596247 0.0094828953 -4.2650769e-22)
(-0.0088032873 0.020172121 -1.3397184e-20)
(-0.01165341 0.025372045 -3.9017675e-20)
(-0.012205333 0.026822983 -7.2044878e-21)
(-0.01040657 0.02566191 -3.327283e-21)
(-0.0062891091 0.022709303 7.3550367e-21)
(9.1450892e-05 0.018568653 -5.5758017e-21)
(0.0086662362 0.013676024 -1.0150571e-20)
(0.019358895 0.0083430474 2.4576332e-20)
(0.032090859 0.0027905383 5.5039576e-21)
(0.046785339 -0.0028269361 -2.8496524e-20)
(0.063367153 -0.0084034408 1.2054126e-20)
(0.081763121 -0.013868768 0)
(0.10190253 -0.019178539 1.3220032e-20)
(0.12372019 -0.024305381 -1.0568688e-20)
(0.1471556 -0.029231415 -1.5740417e-20)
(0.17210621 -0.033955248 -9.3911336e-22)
(0.19838797 -0.038504385 -2.6738687e-21)
(0.22639531 -0.042697483 4.8537866e-20)
(0.25838219 -0.045393462 -1.2139663e-20)
(-0.0045808891 0.0097218614 -7.8462391e-21)
(-0.0091866191 0.020206055 2.6898159e-20)
(-0.0099546663 0.025024088 -1.2065841e-20)
(-0.007136779 0.025948408 -3.0401445e-20)
(-0.0010198982 0.024157914 -2.9729662e-20)
(0.0081754155 0.020533636 -1.6646625e-20)
(0.020252595 0.015725408 -9.3546767e-22)
(0.035033064 0.010201582 6.2272121e-21)
(0.052358213 0.0042975994 2.1651252e-20)
(0.072085672 -0.0017479365 8.1097923e-21)
(0.094084118 -0.0077678923 -7.823122e-21)
(0.11823056 -0.013647715 -1.9488548e-21)
(0.14440647 -0.019312054 -4.1781347e-20)
(0.17249515 -0.024714968 -1.3820005e-20)
(0.20238335 -0.02983161 2.0819144e-20)
(0.23396252 -0.034652332 -2.3073796e-20)
(0.26707818 -0.039199334 -9.7014695e-21)
(0.30145693 -0.043557139 3.2143724e-20)
(0.33750447 -0.047515254 5.3345476e-20)
(0.3783774 -0.049365523 3.6734096e-21)
(-0.0048165175 0.0091557829 1.7407204e-20)
(-0.0084045094 0.018287266 1.5059727e-20)
(-0.0062547586 0.022032684 5.5062836e-20)
(0.00082780014 0.02206276 2.5758532e-20)
(0.012211223 0.019511949 2.0368829e-22)
(0.027476283 0.015268443 -4.3611811e-20)
(0.046273136 0.0099879507 -2.662147e-20)
(0.068300495 0.0041409746 1.1492303e-20)
(0.093299033 -0.0019361558 1.5778576e-20)
(0.12104102 -0.0080043763 -1.4165251e-20)
(0.15131879 -0.013896744 -4.8259179e-20)
(0.1839356 -0.019500116 3.2414092e-20)
(0.21869804 -0.024741978 2.1559978e-20)
(0.25541029 -0.029581468 -2.9911559e-20)
(0.29387397 -0.034002582 1.2757099e-20)
(0.33389208 -0.038010859 2.6057929e-20)
(0.37522296 -0.041662112 8.8229934e-21)
(0.41747794 -0.045128697 -1.309049e-20)
(0.46098595 -0.048248938 -1.4588602e-20)
(0.50973164 -0.048730322 7.7013774e-21)
(-0.0044743605 0.0078529749 1.1742722e-20)
(-0.0059529753 0.01457175 -2.5615625e-20)
(0.0001671621 0.016622572 8.4665315e-21)
(0.012552947 0.015458361 3.6465365e-20)
(0.030235234 0.012089232 5.5949378e-20)
(0.052593009 0.0073601455 2.1990795e-20)
(0.079113549 0.0018938901 -6.3366791e-21)
(0.10935419 -0.0038693079 -1.3335218e-20)
(0.14293395 -0.0096167585 -6.8123087e-21)
(0.17951369 -0.015128493 3.7277284e-20)
(0.21877725 -0.020254155 -5.1160885e-21)
(0.26041718 -0.024895979 -1.8238597e-20)
(0.30412381 -0.028996763 -2.1208971e-20)
(0.34957741 -0.032532347 -5.1442446e-20)
(0.39644728 -0.035506864 2.4986834e-20)
(0.44439982 -0.037952566 -1.515946e-20)
(0.4930668 -0.039972305 2.8120013e-20)
(0.54193082 -0.041861175 2.2720391e-20)
(0.59117838 -0.043628262 -8.981319e-20)
(0.64542888 -0.042558964 3.5963407e-22)
(-0.0033732313 0.0059288554 2.2900964e-20)
(-0.0013448472 0.0093512544 -2.813086e-20)
(0.010022681 0.0092344902 -4.7672951e-20)
(0.028901828 0.0067127457 -2.9150011e-20)
(0.054002032 0.0026001971 -2.2004681e-21)
(0.084495891 -0.0023495109 1.4162587e-20)
(0.11969427 -0.0075855998 -3.0726462e-21)
(0.15899386 -0.012729963 1.9527092e-20)
(0.20186337 -0.017520946 9.5428759e-21)
(0.24781627 -0.021781291 -1.2297228e-20)
(0.29638578 -0.025398342 9.7799294e-21)
(0.347107 -0.028309152 -2.5886582e-20)
(0.3995042 -0.030489772 9.0420492e-21)
(0.45308268 -0.03194858 1.81555e-20)
(0.50732788 -0.032722248 -3.0602759e-21)
(0.56171575 -0.032877557 1.9370058e-21)
(0.61569756 -0.032565314 -6.1215569e-22)
(0.66860631 -0.032187275 2.1271988e-20)
(0.72045452 -0.031945755 3.9814716e-21)
(0.77626123 -0.029208422 -2.3579889e-21)
(-0.0013436163 0.0035343877 2.5008456e-20)
(0.0058704666 0.0030383142 6.0980852e-20)
(0.023960101 0.00052228234 -5.1833315e-20)
(0.050639322 -0.0032929568 -1.0594839e-20)
(0.084310174 -0.0078612537 2.1672325e-20)
(0.12393481 -0.012567371 2.287015e-21)
(0.16863171 -0.016972754 -3.1866129e-20)
(0.21760962 -0.020798162 7.4971385e-21)
(0.2701503 -0.023866286 7.61438e-21)
(0.32557663 -0.026073744 -2.8247644e-20)
(0.38322507 -0.027375464 1.3874224e-21)
(0.44242865 -0.027771931 -4.0177371e-20)
(0.50250777 -0.02729876 -3.9304468e-20)
(0.56276732 -0.026018334 7.1067178e-20)
(0.62249981 -0.024012468 6.0127741e-21)
(0.68099252 -0.0213814 -1.6372952e-20)
(0.73751301 -0.018284155 2.080709e-20)
(0.79123627 -0.015024198 -9.7422224e-22)
(0.84170763 -0.011626517 2.1058157e-20)
(0.8926071 -0.0065770242 -2.1637335e-20)
(-0.0033793708 -0.0062283235 6.3260601e-20)
(0.0070582636 -0.0067456983 1.670913e-20)
(0.018925766 -0.0071584152 -3.7243303e-20)
(0.031865785 -0.0073952217 1.8000356e-20)
(0.04559785 -0.007540354 0)
(0.060054083 -0.0076233014 0)
(0.075169532 -0.0076470838 -2.3986111e-20)
(0.090858445 -0.007619768 -1.7076085e-20)
(0.1070438 -0.0075512759 1.9923624e-20)
(0.12366017 -0.0074488876 1.8764334e-20)
(0.14064731 -0.0073181605 1.0379319e-21)
(0.15794851 -0.0071639852 -1.043663e-20)
(0.17551093 -0.0069906318 8.6181558e-21)
(0.19328525 -0.0068017248 1.8261958e-20)
(0.21122509 -0.0066003677 -5.4399781e-21)
(0.22928664 -0.0063892537 -1.0062184e-20)
(0.24742843 -0.0061707322 -4.2433337e-21)
(0.26561118 -0.0059468614 -4.2423921e-21)
(0.28379767 -0.0057194546 6.8710008e-22)
(0.30195264 -0.0054901175 1.208289e-21)
(0.32004284 -0.0052602764 2.5815692e-21)
(0.33803693 -0.0050311996 6.4448538e-21)
(0.3559056 -0.0048040144 1.1958517e-22)
(0.37362149 -0.0045797193 -3.3242956e-21)
(0.39115934 -0.004359194 1.2338495e-22)
(0.40849591 -0.0041432071 -5.4986392e-22)
(0.42561008 -0.0039324223 1.1782819e-21)
(0.44248279 -0.0037274048 9.5116209e-22)
(0.45909712 -0.0035286261 -1.2894332e-21)
(0.47543817 -0.0033364703 -9.5202767e-23)
(0.49149311 -0.0031512391 -6.0541631e-23)
(0.50725108 -0.0029731583 -3.2404733e-22)
(0.52270316 -0.0028023841 -4.1121564e-22)
(0.5378423 -0.0026390095 9.8567093e-23)
(0.55266323 -0.0024830714 -1.2481574e-22)
(0.56716241 -0.0023345577 -1.9108541e-22)
(0.58133798 -0.002193415 2.1705363e-22)
(0.59518968 -0.0020595559 2.446276e-22)
(0.60871877 -0.0019328688 -3.8271984e-23)
(0.62192839 -0.0018132226 -1.6535664e-22)
(0.63482235 -0.0017004953 1.2579432e-23)
(0.64740933 -0.0015945302 -2.1348552e-23)
(0.65969068 -0.0014953509 7.6781946e-23)
(0.67169918 -0.0014025783 -2.5038257e-23)
(0.68338523 -0.0013174636 -1.3883274e-22)
(0.69495962 -0.0012368229 8.9022449e-24)
(0.70589924 -0.0011726775 7.754566e-24)
(0.7178508 -0.0010930311 -5.6834214e-24)
(0.72631966 -0.0011051305 2.5043525e-23)
(0.74396473 -0.00093571421 3.743528e-22)
(0.026996813 -0.018332898 -1.4243191e-20)
(0.036443049 -0.019903299 -6.7670323e-20)
(0.04780048 -0.021116259 -3.3031136e-20)
(0.060200806 -0.021790952 4.102153e-20)
(0.073246692 -0.022207618 1.555783e-20)
(0.086950969 -0.022451833 -1.9503356e-20)
(0.10128136 -0.022524663 5.2973426e-21)
(0.11615516 -0.022448325 2.6395361e-20)
(0.1315028 -0.022252349 -2.3816896e-22)
(0.14726853 -0.021957649 -8.0350989e-21)
(0.16339931 -0.02157991 -1.2883266e-20)
(0.17984383 -0.021133149 -8.940853e-21)
(0.19655383 -0.020629701 1.7956244e-20)
(0.21348381 -0.020080048 9.7242758e-21)
(0.23059052 -0.019493187 -1.6160096e-20)
(0.24783264 -0.01887696 -6.0008313e-21)
(0.26517074 -0.018238242 3.0838899e-21)
(0.28256719 -0.017583075 8.0802106e-21)
(0.29998607 -0.016916805 6.9191473e-21)
(0.31739322 -0.016244183 -7.0867619e-21)
(0.33475617 -0.015569443 -3.4154108e-21)
(0.35204426 -0.014896362 1.6066718e-21)
(0.36922865 -0.014228306 7.1291672e-22)
(0.38628236 -0.013568264 1.2496704e-21)
(0.40318033 -0.012918877 2.4834297e-22)
(0.41989948 -0.012282456 -3.8166469e-22)
(0.43641869 -0.011661005 -7.52005e-22)
(0.45271889 -0.011056232 1.0874017e-21)
(0.468783 -0.010469568 8.7753617e-22)
(0.48459593 -0.009902185 -2.944877e-22)
(0.50014458 -0.0093550071 6.0352545e-22)
(0.51541778 -0.0088287335 -2.2017084e-22)
(0.53040621 -0.0083238545 -4.1997962e-22)
(0.54510242 -0.007840672 -6.2314848e-22)
(0.55950066 -0.0073793198 3.9974934e-22)
(0.57359691 -0.006939785 -1.303723e-22)
(0.58738876 -0.0065219306 2.326498e-22)
(0.60087541 -0.0061255173 -4.7064878e-22)
(0.61405753 -0.0057502339 4.6270589e-22)
(0.62693768 -0.0053957084 5.8921657e-23)
(0.63951908 -0.0050615975 -4.8958933e-23)
(0.65180977 -0.004747451 2.2224904e-22)
(0.66381055 -0.0044533596 2.9901514e-22)
(0.67555334 -0.0041782051 2.2840746e-22)
(0.6869886 -0.003925747 2.4663154e-22)
(0.69832422 -0.003686484 -1.5722352e-23)
(0.70904312 -0.0034963117 1.2647002e-22)
(0.72076984 -0.0032598111 1.1078156e-22)
(0.72907186 -0.0032963653 -2.0632706e-22)
(0.7464178 -0.0027931798 -3.0858319e-24)
(0.085955871 -0.029343505 1.0468501e-20)
(0.093446061 -0.031977153 3.9865e-21)
(0.10368758 -0.0339369 -1.4158002e-20)
(0.11498085 -0.034973324 -1.7372664e-21)
(0.12664186 -0.035625764 1.6320735e-20)
(0.13884028 -0.036030541 -1.5745684e-20)
(0.15161567 -0.03616756 -3.178741e-20)
(0.16488756 -0.036067357 1.5548336e-20)
(0.17859756 -0.035778279 1.9286335e-20)
(0.19270778 -0.035332727 -1.2217378e-20)
(0.20717829 -0.034754009 1.0502514e-21)
(0.22196707 -0.034063514 8.3575098e-21)
(0.23703375 -0.033280432 -1.5868265e-20)
(0.25233949 -0.032421133 3.9734133e-21)
(0.26784633 -0.031499739 7.8618063e-21)
(0.2835172 -0.030528667 -6.4159489e-22)
(0.2993161 -0.029518891 -1.4925194e-22)
(0.3152081 -0.028480138 -7.6843298e-21)
(0.33115948 -0.027421074 4.5538937e-21)
(0.34713776 -0.026349455 8.7013379e-21)
(0.36311182 -0.025272233 -3.9089526e-21)
(0.379052 -0.024195648 -2.161852e-21)
(0.39493021 -0.023125286 8.5617071e-22)
(0.41071998 -0.022066133 -1.7874809e-21)
(0.42639658 -0.021022612 1.2999116e-21)
(0.44193705 -0.019998612 6.8723723e-22)
(0.45732027 -0.018997516 1.8592703e-21)
(0.47252698 -0.018022228 -2.2204326e-21)
(0.48753981 -0.017075193 2.5171653e-21)
(0.50234327 -0.016158428 5.9940563e-22)
(0.51692371 -0.015273543 6.6044089e-22)
(0.53126932 -0.014421772 2.9682562e-22)
(0.5453701 -0.013604006 1.0483339e-21)
(0.55921775 -0.012820819 -1.5994226e-21)
(0.57280568 -0.01207251 4.4748469e-22)
(0.58612893 -0.01135913 2.4509035e-22)
(0.59918409 -0.010680523 -8.6936872e-23)
(0.61196934 -0.010036364 -4.5833531e-25)
(0.62448429 -0.0094262051 -4.0746185e-22)
(0.6367304 -0.0088494948 2.3240375e-22)
(0.64870977 -0.0083057284 -2.8634375e-23)
(0.66042928 -0.0077942197 5.762984e-22)
(0.67188871 -0.007315179 -2.6614901e-22)
(0.6831184 -0.006866805 3.530089e-23)
(0.69406889 -0.0064553705 8.1427271e-23)
(0.70494262 -0.0060652213 -9.7838589e-23)
(0.71523396 -0.0057555729 -1.650637e-22)
(0.72652503 -0.0053694371 5.4093456e-22)
(0.73450321 -0.005430916 1.8343223e-22)
(0.75126888 -0.0046092418 -8.5740829e-22)
(0.17048824 -0.038502226 1.8931795e-21)
(0.17509493 -0.042183802 -1.1869095e-20)
(0.1834822 -0.044811323 6.5813887e-21)
(0.19304523 -0.046121549 -1.4254673e-20)
(0.20261213 -0.046979189 -2.1048948e-21)
(0.21255536 -0.047560438 1.0169084e-20)
(0.22303457 -0.04780109 -1.1185246e-20)
(0.23396849 -0.047730695 1.0160182e-21)
(0.24530683 -0.047413793 1.3480696e-20)
(0.25703474 -0.046891587 3.9268259e-21)
(0.2691293 -0.046191799 -6.4167571e-21)
(0.28155952 -0.045340555 -3.305787e-21)
(0.2942941 -0.044362078 -5.4679296e-21)
(0.30730197 -0.043277322 -6.8655701e-21)
(0.32055133 -0.042104525 2.6733718e-21)
(0.33400989 -0.040859915 1.5136811e-22)
(0.34764543 -0.039558028 1.6199992e-21)
(0.36142598 -0.038211912 -3.3813488e-21)
(0.37532013 -0.036833314 -4.6624836e-21)
(0.38929716 -0.035432849 2.558761e-21)
(0.40332728 -0.03402012 3.5837552e-21)
(0.41738178 -0.032603805 -1.9040194e-21)
(0.43143323 -0.031191733 1.7082824e-21)
(0.44545557 -0.02979093 -5.400995e-22)
(0.45942422 -0.028407666 -4.3949411e-21)
(0.47331621 -0.027047487 -3.0669184e-21)
(0.48711019 -0.025715246 -3.1888265e-22)
(0.50078654 -0.024415135 2.8338817e-22)
(0.51432736 -0.023150714 -2.2041922e-21)
(0.52771647 -0.021924945 -1.1206416e-21)
(0.54093944 -0.020740229 2.127465e-22)
(0.55398356 -0.01959844 -1.4313183e-21)
(0.56683779 -0.018500973 -8.0416101e-23)
(0.57949273 -0.017448784 -5.3148318e-22)
(0.59194058 -0.016442435 -4.3104961e-22)
(0.6041751 -0.015482148 -7.3288315e-22)
(0.61619157 -0.01456785 -1.11025e-21)
(0.62798675 -0.013699228 -1.6892225e-24)
(0.63955883 -0.012875795 -3.3928974e-24)
(0.65090777 -0.012096915 -6.4082836e-22)
(0.66203422 -0.011362013 1.2690851e-24)
(0.67294347 -0.010670255 -4.453329e-22)
(0.68363392 -0.010022047 -6.6704845e-22)
(0.69413377 -0.0094149976 5.2224762e-22)
(0.70439376 -0.0088578757 1.3412333e-23)
(0.71460863 -0.008329187 2.590432e-22)
(0.72428926 -0.0079104284 -1.9034347e-22)
(0.73495674 -0.0073864018 -3.662806e-22)
(0.74247144 -0.0074731416 -8.9144786e-24)
(0.7584035 -0.0063579858 4.9134336e-22)
(0.27647811 -0.045002392 -2.345268e-20)
(0.27729118 -0.049708721 5.0547658e-20)
(0.28294358 -0.052914361 1.0829082e-20)
(0.29006578 -0.054437007 -1.6919236e-20)
(0.29682814 -0.055506454 -2.6171478e-21)
(0.30379091 -0.056314815 2.3058782e-21)
(0.31128083 -0.056737094 -2.2104348e-21)
(0.31921763 -0.056791637 -4.9185963e-21)
(0.32754782 -0.056552072 -4.2057262e-21)
(0.33627835 -0.056065036 -1.2732601e-20)
(0.3454048 -0.055360223 1.9180699e-20)
(0.35490643 -0.054465806 7.1437717e-21)
(0.36475961 -0.053408871 -1.7241171e-20)
(0.37493996 -0.052213576 9.8676032e-21)
(0.38542096 -0.050901339 7.8428211e-21)
(0.39617428 -0.049491517 -2.4037468e-22)
(0.40717064 -0.048001745 -2.7154242e-21)
(0.41838031 -0.046448116 -4.4030162e-21)
(0.42977349 -0.044845323 -1.6565044e-21)
(0.4413206 -0.043206799 -1.4633226e-21)
(0.4529926 -0.041544822 -3.4664546e-21)
(0.46476124 -0.039870588 0)
(0.47659925 -0.038194272 -1.5374785e-21)
(0.48848052 -0.036525073 4.0056335e-21)
(0.50038026 -0.034871249 5.7751031e-21)
(0.51227507 -0.033240152 -8.9935387e-22)
(0.52414306 -0.031638258 -3.3987867e-21)
(0.53596389 -0.030071201 3.5895773e-21)
(0.54771883 -0.028543808 -1.9135092e-23)
(0.55939076 -0.027060138 3.877241e-21)
(0.57096417 -0.025623531 -4.9959818e-22)
(0.58242518 -0.024236647 1.8263538e-21)
(0.59376146 -0.022901527 -9.390079e-22)
(0.60496228 -0.021619645 4.4876413e-22)
(0.6160184 -0.020391969 -5.6927464e-22)
(0.62692206 -0.019219018 5.9116642e-22)
(0.63766698 -0.018100932 5.6063354e-22)
(0.6482483 -0.017037537 4.7163186e-22)
(0.65866256 -0.016028425 -1.1581146e-21)
(0.66890802 -0.015072996 8.2928617e-22)
(0.67898361 -0.014170713 -4.3326555e-22)
(0.68889284 -0.013320703 -1.4381025e-21)
(0.69863251 -0.012523658 1.8359396e-21)
(0.70822831 -0.011776714 -5.3184149e-23)
(0.7176314 -0.011091095 -2.0936982e-22)
(0.7270269 -0.010439899 -6.8420527e-24)
(0.7359468 -0.0099254424 -2.1421298e-22)
(0.74583494 -0.0092789618 -6.2769091e-22)
(0.75277107 -0.0093911059 7.6034893e-22)
(0.76765539 -0.0080155683 -5.1641367e-23)
(0.3988369 -0.047888786 -1.9684778e-20)
(0.39499866 -0.053654797 1.3350053e-20)
(0.39694781 -0.0573935 4.0501588e-21)
(0.40084433 -0.059158584 -8.23637e-21)
(0.40413198 -0.060527358 1.2888556e-20)
(0.40746429 -0.061668815 8.3056345e-21)
(0.41135879 -0.062401309 -1.2949093e-20)
(0.41575321 -0.062728828 -6.4015292e-21)
(0.42057574 -0.062721291 1.3329962e-20)
(0.42584294 -0.06242448 -1.6831337e-20)
(0.43156622 -0.061868794 -1.4605465e-20)
(0.437733 -0.061082987 1.5549288e-20)
(0.44432374 -0.060095192 7.061493e-21)
(0.4513175 -0.058931602 -5.4297966e-21)
(0.45869065 -0.057616258 -1.230284e-21)
(0.46641681 -0.056171339 -3.4959491e-21)
(0.47446787 -0.054617435 4.7116181e-21)
(0.48281481 -0.05297368 3.6923711e-21)
(0.49142813 -0.051257822 -3.1016292e-21)
(0.50027827 -0.049486288 3.1206242e-21)
(0.50933594 -0.047674246 3.0039406e-21)
(0.51857245 -0.045835651 -3.4191698e-21)
(0.52795995 -0.043983278 3.6635476e-22)
(0.53747162 -0.042128751 -3.1725389e-21)
(0.5470818 -0.04028257 8.3778341e-21)
(0.55676618 -0.038454136 6.629119e-21)
(0.56650183 -0.036651783 1.1021929e-21)
(0.5762673 -0.034882812 -1.8573992e-21)
(0.58604265 -0.03315353 4.4165628e-21)
(0.5958095 -0.031469299 8.2884375e-21)
(0.60555099 -0.029834586 2.4238741e-21)
(0.61525182 -0.028253025 3.8098239e-21)
(0.6248982 -0.026727476 2.1797002e-21)
(0.63447784 -0.0252601 8.8217077e-22)
(0.64397993 -0.023852423 -2.4163853e-22)
(0.65339508 -0.022505421 3.184167e-21)
(0.66271532 -0.02121959 7.1509193e-22)
(0.67193408 -0.019995032 3.2523721e-22)
(0.68104615 -0.018831555 5.72286e-23)
(0.69004803 -0.017728718 1.2650198e-21)
(0.69893688 -0.016686146 4.1311124e-23)
(0.70771431 -0.015703041 6.0743094e-22)
(0.71637554 -0.014780478 -1.2668947e-22)
(0.72494351 -0.013915245 -4.2631444e-22)
(0.73337012 -0.013120957 -2.1015523e-22)
(0.74182941 -0.012365811 -5.7479266e-22)
(0.74987842 -0.011771164 2.5289021e-22)
(0.75887034 -0.011020282 -1.6883249e-22)
(0.76514266 -0.011157774 -4.3501411e-22)
(0.77881258 -0.0095608469 2.898191e-22)
(0.53141044 -0.046244413 3.3987263e-21)
(0.52228758 -0.053117358 -1.9431984e-20)
(0.51960762 -0.057402152 -2.6477615e-21)
(0.51951058 -0.059601184 5.7514963e-21)
(0.51880152 -0.061496901 3.7098546e-21)
(0.51803766 -0.06316519 7.4384954e-22)
(0.51789464 -0.064398077 7.407331e-21)
(0.51837044 -0.065200732 8.275296e-21)
(0.51937233 -0.065629222 1.0166766e-20)
(0.52090405 -0.065719742 -1.2000781e-20)
(0.5229824 -0.065501725 -2.3243391e-20)
(0.52559994 -0.065004574 -4.6414508e-21)
(0.52873753 -0.064257037 1.7011923e-20)
(0.53237348 -0.063286956 1.3542694e-20)
(0.53648371 -0.062121035 -5.710057e-21)
(0.54104135 -0.060784579 7.9406189e-22)
(0.54601748 -0.059301506 -4.3120878e-21)
(0.55138202 -0.057694397 3.2918953e-21)
(0.55710431 -0.055984488 -2.9393835e-22)
(0.56315357 -0.054191646 -1.9932601e-21)
(0.56949919 -0.052334367 8.6585952e-21)
(0.57611113 -0.050429785 -5.3673123e-22)
(0.58296012 -0.048493677 6.4462566e-22)
(0.59001788 -0.046540471 -4.161299e-22)
(0.59725731 -0.04458326 -4.5620182e-21)
(0.60465256 -0.042633825 4.4505539e-21)
(0.61217921 -0.040702663 1.8305349e-21)
(0.61981425 -0.038799026 -3.4765311e-21)
(0.6275362 -0.036930964 -4.0733546e-21)