/*--------------------------------*- C++ -*----------------------------------*\
  =========                 |
  \\      /  F ield         | OpenFOAM: The Open Source CFD Toolbox
   \\    /   O peration     | Website:  https://openfoam.org
    \\  /    A nd           | Version:  6
     \\/     M anipulation  |
\*---------------------------------------------------------------------------*/
FoamFile
{
    version     2.0;
    format      ascii;
    class       surfaceScalarField;
    location    "198";
    object      phi;
}
// * * * * * * * * * * * * * * * * * * * * * * * * * * * * * * * * * * * * * //

dimensions      [0 3 -1 0 0 0 0];

internalField   nonuniform List<scalar> 
18180
(
0.00031872917
-0.00016315998
-0.00015556919
0.0013092107
-0.0013669156
0.00037643416
0.0030328868
-0.0033336194
0.0016099433
0.005549772
-0.0059759584
0.0034590731
0.0089181945
-0.0092390786
0.0058706561
0.013192809
-0.013079528
0.008804914
0.018421936
-0.017459839
0.012230712
0.024644597
-0.022345798
0.016123137
0.03188736
-0.027703314
0.020460551
0.040161268
-0.033495804
0.025221896
0.049459152
-0.039682436
0.030384553
0.059753703
-0.046217206
0.035922655
0.070996711
-0.053048846
0.041805839
0.083119913
-0.060121581
0.047998378
0.096038085
-0.067376834
0.054458662
0.10965487
-0.074755994
0.061139209
0.1238708
-0.082204085
0.067988153
0.13859853
-0.089674069
0.074946341
0.15383663
-0.097148814
0.081910717
-0.10462595
0.088678871
0.16978371
0.00039749697
-0.00056065695
0.0016095943
-0.002579013
0.003689317
-0.0054133422
0.0066874418
-0.0089740831
0.010650649
-0.013202286
0.015617865
-0.018046744
0.021616253
-0.023458227
0.028657249
-0.029386794
0.036732934
-0.035778999
0.045813132
-0.042576002
0.055843674
-0.049712978
0.066746187
-0.05711972
0.078419642
-0.064722301
0.090743757
-0.072445695
0.10358404
-0.080217118
0.11679789
-0.08796984
0.13024076
-0.095646954
0.14377296
-0.10320627
0.15725856
-0.11063441
-0.11786188
0.17049449
0.00048062331
-0.0010412803
0.0019186977
-0.0040170874
0.0043524777
-0.0078471221
0.0078165613
-0.012438167
0.012337661
-0.017723386
0.017929202
-0.023638285
0.024586242
-0.030115267
0.032281201
-0.037081753
0.04096083
-0.044458628
0.050544909
-0.052160081
0.060927054
-0.060095123
0.07197779
-0.068170456
0.08354978
-0.076294292
0.095484793
-0.084380708
0.10762167
-0.092353995
0.11980424
-0.10015241
0.13188799
-0.1077307
0.14374347
-0.11506175
0.15524869
-0.12213964
-0.12891428
0.16630109
0.00056616955
-0.0016074498
0.0022279419
-0.0056788597
0.00500061
-0.01061979
0.0088940085
-0.016331565
0.013905254
-0.022734632
0.020011877
-0.029744908
0.027166481
-0.037269871
0.035293409
-0.045208681
0.044287848
-0.053453066
0.054017766
-0.061889999
0.064328708
-0.070406065
0.075051119
-0.078892866
0.086009512
-0.087252685
0.097032487
-0.095403682
0.10796245
-0.10328396
0.11866395
-0.11085391
0.12902964
-0.1180964
0.13898297
-0.12501507
0.14847491
-0.13163159
-0.13794519
0.15750582
0.00065088611
-0.0022583359
0.0025243411
-0.0075523148
0.0056036333
-0.013699082
0.009864463
-0.020592395
0.015264608
-0.028134777
0.021736406
-0.036216705
0.029182476
-0.044715942
0.037474888
-0.053501092
0.046457995
-0.062436174
0.05595483
-0.071386834
0.065776424
-0.080227659
0.075733005
-0.088849447
0.08564571
-0.097165391
0.095357389
-0.10511536
0.10474121
-0.11266778
0.11370619
-0.11981889
0.12219936
-0.12658957
0.13020457
-0.13302027
0.137738
-0.13916502
-0.14506756
0.14486038
0.0007306357
-0.0029889716
0.0027920857
-0.0096137648
0.0061265733
-0.01703357
0.01066671
-0.025132532
0.016322648
-0.033790714
0.02297524
-0.042869298
0.030474425
-0.052215126
0.038642393
-0.061669061
0.047281182
-0.071074963
0.056183727
-0.080289379
0.065146879
-0.089190812
0.073984593
-0.09768716
0.082539478
-0.10572028
0.090691296
-0.11326718
0.098361451
-0.12033793
0.1055133
-0.12697074
0.11214879
-0.13322506
0.1183024
-0.13917388
0.12403363
-0.14489625
-0.15046329
0.12942935
0.00080073106
-0.0037897027
0.0030139156
-0.011826949
0.0065328933
-0.020552548
0.01124005
-0.029839689
0.016992695
-0.039543359
0.023618542
-0.049495145
0.030918211
-0.059514796
0.038673313
-0.069424163
0.046658768
-0.079060417
0.054657393
-0.088288004
0.062474455
-0.097007873
0.069949952
-0.10516266
0.076966961
-0.11273729
0.0834551
-0.11975532
0.089389111
-0.12627194
0.094783317
-0.13236494
0.099683309
-0.13812506
0.1041565
-0.14364708
0.10828311
-0.14902285
-0.15433356
0.11215338
0.00085605858
-0.0046457613
0.0031720602
-0.014142951
0.0067872248
-0.024167712
0.011529801
-0.034582264
0.017203431
-0.04521699
0.023586546
-0.055878259
0.030439872
-0.066368122
0.037519325
-0.076503616
0.044591796
-0.086132888
0.051451001
-0.095147209
0.057930631
-0.1034875
0.063912776
-0.1111448
0.069330645
-0.11815515
0.074165695
-0.12459037
0.078440258
-0.13054651
0.08220734
-0.13613203
0.085539507
-0.14145722
0.088518567
-0.14662614
0.091227365
-0.15173165
-0.15685204
0.09374585
0.00089026223
-0.0055360235
0.0032482828
-0.016500971
0.0068576212
-0.027777051
0.011492463
-0.039217106
0.016906807
-0.050631335
0.022838893
-0.061810344
0.029023668
-0.072552897
0.035209249
-0.082689198
0.041173927
-0.092097567
0.046740396
-0.10071368
0.051784656
-0.10853176
0.056238409
-0.11559856
0.060085141
-0.12200189
0.06335125
-0.12785648
0.066094218
-0.13328948
0.06839006
-0.13842787
0.070321929
-0.14338909
0.071971242
-0.14827545
0.073411932
-0.15317234
-0.1581477
0.074707585
0.00089981812
-0.0064358416
0.0032333801
-0.018834533
0.0067291632
-0.031272834
0.011111175
-0.043599118
0.016092484
-0.055612643
0.021384621
-0.067102482
0.026713883
-0.077882159
0.031839115
-0.08781443
0.036567086
-0.096825537
0.040762272
-0.10490886
0.044349475
-0.11211897
0.047309351
-0.11855843
0.049668408
-0.12436094
0.051485817
-0.12967389
0.052839528
-0.13464319
0.053813823
-0.13940216
0.054489714
-0.14406498
0.054938823
-0.14872456
0.055220551
-0.15345407
0.055380986
-0.15830813
-0.00020237821
0.00020237822
-1.699866e-12
-0.00067774629
0.00047536807
-3.3059672e-12
-0.0013424254
0.00066467912
-4.6275327e-12
-0.0021322936
0.00078986815
-5.742303e-12
-0.0029957723
0.00086347872
-6.656592e-12
-0.0038907392
0.00089496698
-7.4082966e-12
-0.0047822945
0.00089155528
-8.0191546e-12
-0.0056408915
0.00085859697
-8.4664778e-12
-0.0064408663
0.00079997486
-8.7842265e-12
-0.0071592871
0.00071842083
-8.9072095e-12
-0.0077750355
0.00061574838
-8.9180843e-12
-0.0082680713
0.00049303574
-8.7236646e-12
-0.0086188527
0.00035078144
-8.4318715e-12
-0.0088079034
0.0001890507
-7.782143e-12
-0.0088155569
7.653487e-06
-6.7765073e-12
-0.0086219805
-0.00019357639
-5.1870225e-12
-0.0082074391
-0.00041454138
-3.5113855e-12
-0.0075518899
-0.00065554921
-1.5238801e-12
-0.0066345766
-0.00091731328
9.0820963e-13
-0.00118623
-0.0054483466
4.1137246e-12
-0.00018797444
0.00039035265
-0.00062500693
0.00091240057
-0.0012287531
0.0012684253
-0.0019351943
0.0014963093
-0.002692139
0.0016204234
-0.0034562838
0.0016591118
-0.0041910669
0.0016263384
-0.0048648586
0.0015323887
-0.0054495238
0.0013846401
-0.0059192868
0.0011881838
-0.0062498156
0.00094627725
-0.0064174807
0.00066070081
-0.0063987496
0.00033205039
-0.0061697084
-3.9990587e-05
-0.0057057359
-0.00045631893
-0.0049814244
-0.00091788789
-0.0039707948
-0.001425171
-0.0026472175
-0.0019791265
-0.00098326274
-0.002581268
-0.0032017797
0.001032287
-0.00015892783
0.00054928048
-0.00051889138
0.0012723641
-0.0010007699
0.0017503038
-0.0015412593
0.0020367987
-0.0020873497
0.0021665139
-0.0025937351
0.0021654972
-0.0030208682
0.0020534715
-0.0033332938
0.0018448142
-0.0034983025
0.0015496488
-0.0034848554
0.0011747367
-0.0032626997
0.00072412158
-0.0028016491
0.00019965024
-0.0020709501
-0.00039864866
-0.0010387678
-0.0010721728
0.00032824286
-0.0018233296
0.0020652143
-0.0026548594
0.0042090256
-0.0035689823
0.0067979964
-0.0045680973
0.0098718181
-0.0056550897
-0.0067797327
0.013449771
-0.00011756694
0.00066684742
-0.00036699849
0.0015217957
-0.00067351356
0.0020568189
-0.00097482555
0.0023381107
-0.0012168539
0.0024085423
-0.0013515942
0.0023002374
-0.0013354601
0.0020373374
-0.0011278292
0.0016371833
-0.00068984633
0.0011116659
1.6528653e-05
0.00046836171
0.001029305
-0.00028865476
0.0023871079
-0.0011581527
0.0041297239
-0.0021412647
0.0062985822
-0.0032410311
0.0089372609
-0.0044620084
0.012092044
-0.0058096422
0.015812295
-0.0072892331
0.020150157
-0.0089059594
0.02516034
-0.010665274
-0.012492608
0.030873216
-6.6907631e-05
0.00073375505
-0.0001791665
0.0016340545
-0.00026653383
0.0021441862
-0.00026769155
0.0023392684
-0.00012719448
0.0022680452
0.00020616647
0.0019668765
0.0007806928
0.0014628111
0.0016429479
0.00077492822
0.0028387268
-8.4112923e-05
0.0044138417
-0.0011067533
0.0064146861
-0.0022894992
0.0088886507
-0.0036321172
0.011884449
-0.0051370627
0.015452446
-0.0068090286
0.019645035
-0.0086545977
0.024517256
-0.010681863
0.030127671
-0.012899648
0.036538878
-0.015317167
0.043818275
-0.017944671
-0.020682524
0.052008191
-9.9846313e-06
0.00074373968
3.4534943e-05
0.001589535
0.00019989007
0.0019788311
0.00054676551
0.001992393
0.0011322467
0.001682564
0.0020109803
0.0010881428
0.0032361387
0.00023765274
0.0048603022
-0.00084923533
0.0069361175
-0.0021599282
0.0095166714
-0.0036873071
0.012655699
-0.0054285272
0.01640769
-0.0073841081
0.020827813
-0.0095571853
0.025971755
-0.01195297
0.031895624
-0.014578467
0.038656249
-0.017442487
0.046312361
-0.020555761
0.054926661
-0.023931466
0.064569643
-0.027587653
-0.031405575
0.075292694
5.0751283e-05
0.0006929884
0.00026565764
0.0013746286
0.00070825407
0.0015362346
0.0014390297
0.0012616173
0.0025168193
0.00060477448
0.0039995647
-0.00039460267
0.0059449119
-0.0017076944
0.0084105994
-0.0033149228
0.011454589
-0.0052039177
0.015135034
-0.0073677524
0.019510013
-0.0098035058
0.024636999
-0.012511094
0.030572128
-0.015492314
0.037369298
-0.018750141
0.045079238
-0.022288406
0.053748958
-0.026112207
0.063422568
-0.030229372
0.07414467
-0.034653568
0.085969295
-0.039412279
-0.04438848
0.0989522
0.00011379626
0.00057919214
0.00050850322
0.00097992165
0.0012459819
0.00079875598
0.0023867767
0.0001208225
0.0039912393
-0.00099968815
0.0061198736
-0.0025232369
0.0088333163
-0.0044211371
0.01219216
-0.006673767
0.01625655
-0.0092683077
0.021085436
-0.012196638
0.026735536
-0.015453605
0.033260008
-0.019035567
0.040706867
-0.022939173
0.049117171
-0.027160445
0.058523129
-0.031694365
0.068946477
-0.036535555
0.080398293
-0.041681187
0.092882116
-0.047137391
0.10640545
-0.052935612
-0.058995644
0.12101261
0.00017849576
0.00040069638
0.00076002965
0.00039838776
0.0018053383
-0.00024655269
0.0033747126
-0.0014485518
0.0055289936
-0.0031539692
0.0083293165
-0.0053235599
0.011836486
-0.0079283065
0.016110053
-0.010947334
0.021207035
-0.01436529
0.027180294
-0.018169897
0.034076606
-0.022349918
0.041934464
-0.026893424
0.050781644
-0.031786353
0.060632574
-0.037011374
0.071485477
-0.042547267
0.083319365
-0.048369443
0.096091833
-0.054453655
0.10974039
-0.060785953
0.12419597
-0.067391185
-0.074274591
0.13947492
0.00024512719
0.0010199491
0.0023833397
0.0043938611
0.007110548
0.010591902
0.014894307
0.02007011
0.026165371
0.03321737
0.041252005
0.050281236
0.060300721
0.071287725
0.08319912
0.095968886
0.10950338
0.12366377
0.1381833
0.15258758
-0.0035077219
-0.0019406247
1.2000081e-11
-0.0012859378
-0.0022217842
1.7121824e-11
0.0011946705
-0.0024806084
1.473199e-11
0.0038772039
-0.0026825334
9.1248003e-12
0.0067348586
-0.0028576547
6.4881732e-12
0.0097503288
-0.0030154701
1.465066e-11
0.01290468
-0.0031543509
1.7293757e-11
0.016179889
-0.0032752091
2.9868429e-11
0.019560254
-0.0033803657
4.1687575e-11
0.023031558
-0.0034713035
5.1467852e-11
0.026580513
-0.0035489548
5.795559e-11
0.030194694
-0.0036141813
6.2299594e-11
0.033862458
-0.0036677645
6.6726155e-11
0.03757281
-0.0037103514
6.8996205e-11
0.041315296
-0.0037424869
6.7274902e-11
0.045079947
-0.0037646503
6.1897894e-11
0.048857219
-0.0037772729
5.2978483e-11
0.052637971
-0.0037807515
4.0778385e-11
0.056413433
-0.0037754625
2.5056597e-11
0.060175207
-0.0037617736
5.5568469e-12
0.06391526
-0.0037400529
-1.7185346e-11
0.067625934
-0.0037106744
-4.2372942e-11
0.071299957
-0.0036740227
-6.8919456e-11
0.074930452
-0.0036304947
-9.5487906e-11
0.078510952
-0.0035804998
-1.2042306e-10
0.082035411
-0.0035244588
-1.4186987e-10
0.085498213
-0.003462802
-1.5788229e-10
0.088894179
-0.0033959656
-1.6660861e-10
0.092218568
-0.0033243888
-1.6653694e-10
0.095467078
-0.0032485098
-1.5663353e-10
0.09863584
-0.0031687626
-1.3667631e-10
0.10172141
-0.0030855734
-1.072537e-10
0.10472077
-0.0029993578
-7.007852e-11
0.10763129
-0.0029105193
-2.7700293e-11
0.11045074
-0.0028194471
1.6291235e-11
0.11317725
-0.0027265168
5.8008848e-11
0.11580935
-0.0026320909
9.3049488e-11
0.11834587
-0.0025365215
1.1790827e-10
0.12078602
-0.0024401576
1.291638e-10
0.12312937
-0.0023433455
1.2566792e-10
0.12537584
-0.0022464711
1.0694486e-10
0.12752573
-0.0021498855
7.5586081e-11
0.12958
-0.0020542783
3.5136346e-11
0.13153964
-0.0019596382
-8.991791e-12
0.13340873
-0.0018690856
-5.0933464e-11
0.13518577
-0.001777042
-8.4682252e-11
0.13689522
-0.0017094455
-1.0405349e-10
0.13849292
-0.0015977053
-1.0506308e-10
0.1401797
-0.0016867764
-8.6455081e-11
-0.0013309754
-1.8477345e-11
0.0028528987
-0.0037612364
0.0049500411
-0.0043189266
0.0072928955
-0.0048234628
0.0098190199
-0.0052086578
0.012507353
-0.0055459879
0.01534557
-0.0058536867
0.018316929
-0.0061257098
0.021405023
-0.0063633037
0.024595835
-0.0065711772
0.0278766
-0.0067520693
0.031235189
-0.0069075429
0.034660118
-0.0070391106
0.038140531
-0.007148178
0.041666083
-0.0072359027
0.045226854
-0.007303258
0.048813311
-0.0073511078
0.052416276
-0.0073802377
0.056026903
-0.0073913786
0.059636673
-0.0073852321
0.063237392
-0.0073624924
0.0668212
-0.0073238608
0.070380582
-0.0072700573
0.073908386
-0.0072018267
0.077397834
-0.007119942
0.080842538
-0.0070252041
0.084236517
-0.0069184383
0.087574206
-0.0068004903
0.09085046
-0.0066722195
0.094060562
-0.0065344916
0.097200225
-0.0063881719
0.10026558
-0.0062341177
0.10325318
-0.0060731716
0.10615998
-0.0059061564
0.10898333
-0.0057338706
0.11172097
-0.0055570858
0.114371
-0.0053765469
0.11693188
-0.0051929739
0.11940242
-0.0050070663
0.12178179
-0.0048195189
0.12406946
-0.0046310209
0.12626533
-0.0044423431
0.12836963
-0.0042541859
0.13038328
-0.004067926
0.13230719
-0.0038835447
0.13414535
-0.0037072505
0.1358963
-0.0035279858
0.137584
-0.0033971494
0.13916536
-0.0031790685
0.14083599
-0.0033574055
-0.0026594965
0.015021104
-0.005332569
0.016852199
-0.0061500222
0.018905731
-0.0068769946
0.021111771
-0.0074146977
0.023458685
-0.0078929016
0.025942819
-0.0083378212
0.028551556
-0.0087344469
0.031271416
-0.0090831633
0.034091297
-0.0093910586
0.037000971
-0.0096617425
0.039990315
-0.0098968873
0.04304947
-0.010098265
0.046168911
-0.010267619
0.049339382
-0.010406374
0.052551854
-0.01051573
0.055797516
-0.010596769
0.059067777
-0.010650499
0.062354275
-0.010677877
0.065648888
-0.010679845
0.068943749
-0.010657354
0.072231272
-0.010611384
0.075504169
-0.010542954
0.078755474
-0.010453132
0.081978566
-0.010343034
0.085167187
-0.010213825
0.088315459
-0.01006671
0.091417895
-0.0099029269
0.094469415
-0.0097237392
0.097465343
-0.0095304196
0.10040141
-0.009324244
0.10327377
-0.0091064758
0.10607896
-0.00887836
0.10881392
-0.0086411125
0.11147596
-0.0083959148
0.11406279
-0.0081439102
0.11657244
-0.0078862027
0.11900333
-0.0076238618
0.12135419
-0.0073579284
0.12362411
-0.0070894369
0.12581251
-0.0068194165
0.12791918
-0.0065490195
0.12994429
-0.0062792952
0.13188867
-0.0060123009
0.13375315
-0.0057480261
0.13554158
-0.0054956842
0.13725258
-0.0052389842
0.13890916
-0.0050537273
0.14047055
-0.0047404572
0.14212174
-0.0050085954
-0.003996255
0.032056502
-0.0065158556
0.033471695
-0.0075652143
0.035077193
-0.0084824928
0.036800021
-0.0091375255
0.038640864
-0.0097337448
0.040606019
-0.010302977
0.042688315
-0.010816743
0.044878229
-0.011273077
0.047168185
-0.011681014
0.049550953
-0.012044511
0.052018828
-0.012364761
0.054563851
-0.012643289
0.057178014
-0.012881781
0.059853271
-0.013081632
0.062581563
-0.013244022
0.065354843
-0.01337005
0.068165132
-0.013460787
0.071004551
-0.013517296
0.073865368
-0.013540661
0.07674003
-0.013532016
0.079621205
-0.013492559
0.082501813
-0.013423562
0.085375059
-0.013326378
0.088234461
-0.013202436
0.091073874
-0.013053238
0.09388751
-0.012880346
0.096669956
-0.012685373
0.099416181
-0.012469964
0.10212155
-0.012235785
0.10478181
-0.011984504
0.10739311
-0.011717779
0.10995199
-0.011437242
0.11245537
-0.011144489
0.11490053
-0.010841075
0.11728512
-0.010528502
0.11960714
-0.010208225
0.12186494
-0.0098816572
0.12405718
-0.0095501729
0.12618289
-0.0092151423
0.1282414
-0.0088779319
0.13023246
-0.0085400729
0.13215613
-0.0082029644
0.13401316
-0.0078693359
0.13580434
-0.0075392097
0.13753334
-0.0072246806
0.13919895
-0.0069045911
0.1408228
-0.0066775823
0.14236761
-0.0062852662
0.14400309
-0.0066440758
-0.0053571447
0.052648478
-0.0071561429
0.053489058
-0.0084057942
0.054483165
-0.0094765999
0.055565112
-0.010219472
0.056749715
-0.010918348
0.058051268
-0.01160453
0.059468282
-0.012233757
0.06099589
-0.012800684
0.062629879
-0.013315003
0.064365653
-0.013780285
0.066197691
-0.014196799
0.068119723
-0.014565321
0.070124985
-0.014887043
0.072206375
-0.015163022
0.074356545
-0.015394192
0.076567983
-0.015581488
0.078833096
-0.0157259
0.081144291
-0.01582849
0.083494038
-0.015890408
0.085874935
-0.015912913
0.088279754
-0.015897379
0.090701496
-0.015845303
0.093133418
-0.015758301
0.095569081
-0.015638099
0.098002368
-0.015486526
0.10042751
-0.015305491
0.10283912
-0.015096974
0.10523215
-0.014862999
0.10760198
-0.014605616
0.10994436
-0.014326882
0.11225542
-0.014028842
0.11453169
-0.013713508
0.11677006
-0.013382857
0.11896779
-0.013038805
0.1211225
-0.012683213
0.12323216
-0.012317886
0.12529507
-0.011944572
0.12730988
-0.011564979
0.12927555
-0.011180814
0.1311914
-0.010793779
0.13305711
-0.010405786
0.13487273
-0.010018587
0.13663897
-0.0096355747
0.1383566
-0.0092568366
0.14002911
-0.0088971939
0.14165561
-0.0085310863
0.14325605
-0.008278021
0.14479756
-0.0078267817
0.14643096
-0.0082774774
-0.0067654046
0.075221671
-0.0070851193
0.075326623
-0.008510746
0.075550981
-0.0097009581
0.07585126
-0.010519753
0.076255498
-0.011322585
0.076780545
-0.012129577
0.077429437
-0.012882649
0.078202103
-0.013573351
0.079096854
-0.014209754
0.080110539
-0.014793971
0.081238916
-0.015325176
0.082476688
-0.015803094
0.083817672
-0.016228026
0.085255086
-0.016600437
0.086781756
-0.016920861
0.088390227
-0.017189959
0.090072882
-0.017408555
0.091822041
-0.01757765
0.093630062
-0.017698429
0.095489405
-0.017772257
0.097392706
-0.01780068
0.099332822
-0.017785419
0.10130288
-0.017728362
0.10329633
-0.017631542
0.10530693
-0.01749713
0.10732883
-0.017327395
0.10935656
-0.017124697
0.11138501
-0.01689145
0.1134095
-0.016630104
0.11542573
-0.016343114
0.11742981
-0.01603292
0.11941823
-0.01570193
0.12138787
-0.0153525
0.12333599
-0.014986921
0.12526019
-0.014607419
0.12715845
-0.014216148
0.12902908
-0.013815203
0.13087074
-0.013406631
0.1326824
-0.012992478
0.13446341
-0.012574792
0.1362135
-0.012155868
0.13793273
-0.01173782
0.13962185
-0.011324697
0.14128171
-0.010916691
0.14291568
-0.01053117
0.1445233
-0.0101387
0.14612266
-0.0098773885
0.14768608
-0.0093901918
0.14934298
-0.0099343834
-0.0082531478
0.098025199
-0.0061581183
0.097257918
-0.0077434656
0.096581619
-0.0090246597
0.095997174
-0.0099353074
0.095540711
-0.010866122
0.095223462
-0.011812327
0.095050794
-0.012709981
0.09502671
-0.013549267
0.095150742
-0.014333786
0.095419626
-0.015062855
0.095829001
-0.015734551
0.096373457
-0.01634755
0.097046509
-0.016901079
0.097840925
-0.017394853
0.098749022
-0.017828957
0.099762826
-0.018203764
0.1008742
-0.018519931
0.10207497
-0.018778415
0.10335699
-0.018980454
0.10471229
-0.019127552
0.10613307
-0.019221461
0.10761181
-0.019264165
0.10914132
-0.019257865
0.11071472
-0.019204941
0.11232553
-0.019107941
0.11396767
-0.018969539
0.11563548
-0.018792507
0.11732372
-0.018579689
0.11902758
-0.018333962
0.12074268
-0.018058211
0.12246506
-0.017755304
0.12419119
-0.017428062
0.12591794
-0.017079249
0.12764257
-0.016711552
0.12936273
-0.016327579
0.13107644
-0.015929855
0.13278207
-0.015520835
0.13447836
-0.015102921
0.1361644
-0.014678515
0.13783962
-0.014250018
0.13950388
-0.013820126
0.14115739
-0.013391329
0.14280102
-0.012968326
0.14443578
-0.012551454
0.14606507
-0.012160452
0.14768893
-0.011762562
0.14932359
-0.01151205
0.15094697
-0.011013573
0.15266597
-0.011653383
-0.009862134
0.11918897
-0.0043344713
0.11749636
-0.0060508582
0.11585684
-0.0073851376
0.1143543
-0.0084327741
0.113025
-0.0095368157
0.11186643
-0.010653758
0.11088407
-0.011727616
0.11008419
-0.012749388
0.1094662
-0.013715803
0.10902552
-0.014622172
0.10875633
-0.015465359
0.10865196
-0.016243185
0.10870483
-0.016953946
0.10890662
-0.017596643
0.10924861
-0.018170944
0.10972185
-0.018677006
0.11031732
-0.019115401
0.11102601
-0.019487106
0.11183904
-0.019793482
0.11274772
-0.020036237
0.11374366
-0.020217397
0.11481876
-0.020339271
0.11596533
-0.020404433
0.11717607
-0.020415675
0.11844411
-0.020375981
0.11976305
-0.020288481
0.12112696
-0.020156423
0.1225304
-0.019983125
0.12396838
-0.019771945
0.12543642
-0.019526246
0.12693048
-0.019249363
0.12844699
-0.018944576
0.12998284
-0.018615095
0.13153532
-0.018264036
0.13310216
-0.017894423
0.13468149
-0.01750918
0.13627181
-0.017111152
0.13787201
-0.016703123
0.13948136
-0.016287869
0.14109952
-0.015868175
0.14272655
-0.015447151
0.1443629
-0.015027682
0.1460097
-0.014615124
0.14766824
-0.014210001
0.14934203
-0.01383424
0.15103179
-0.013452317
0.15275189
-0.013232155
0.15448615
-0.012747827
0.15631876
-0.013486001
-0.011643711
0.13689594
-0.0017554996
0.13437798
-0.0035328955
0.13181941
-0.0048265669
0.12946234
-0.0060757059
0.12733398
-0.0074084575
0.12541571
-0.0087354841
0.12371035
-0.010022257
0.12222299
-0.01126203
0.12095209
-0.012444897
0.11989186
-0.013561947
0.11903481
-0.014608308
0.11837259
-0.015580962
0.1178962
-0.016477555
0.11759611
-0.017296555
0.11746246
-0.018037295
0.11748524
-0.018699782
0.11765442
-0.019284585
0.11796009
-0.019792779
0.11839252
-0.020225913
0.11894226
-0.020585969
0.11960017
-0.020875309
0.12035754
-0.021096639
0.12120608
-0.021252974
0.12213798
-0.02134758
0.12314595
-0.021383946
0.12422319
-0.021365728
0.12536348
-0.021296707
0.1265611
-0.021180744
0.12781089
-0.021021739
0.12910823
-0.020823589
0.13044903
-0.020590155
0.13182968
-0.020325229
0.1332471
-0.020032515
0.13469867
-0.019715608
0.13618224
-0.019377988
0.13769608
-0.019023025
0.13923892
-0.01865399
0.14080987
-0.018274078
0.14240849
-0.017886482
0.1440347
-0.017494393
0.14568892
-0.017101365
0.14737194
-0.016710705
0.14908525
-0.016328433
0.15083055
-0.015955304
0.15261158
-0.015615267
0.15442983
-0.015270565
0.15629795
-0.015100276
0.15820575
-0.014655625
0.16021518
-0.015495434
-0.013657918
0.15005208
0.000780002
0.14676314
-0.00024394963
0.1434658
-0.0015292283
0.14041802
-0.0030279271
0.13762313
-0.0046135638
0.13507486
-0.0061872197
0.13277506
-0.0077224571
0.13072381
-0.0092107795
0.12891867
-0.010639757
0.12735444
-0.011997716
0.12602329
-0.013277161
0.12491582
-0.014473492
0.12402185
-0.015583586
0.12333073
-0.016605428
0.12283146
-0.017538025
0.12251294
-0.01838126
0.12236409
-0.019135737
0.122374
-0.019802692
0.12253202
-0.020383929
0.12282781
-0.020881766
0.12325148
-0.021298975
0.12379357
-0.021638733
0.12444516
-0.021904563
0.12519787
-0.02210029
0.12604391
-0.022229981
0.12697607
-0.022297892
0.12798778
-0.022308417
0.12907307
-0.022266033
0.13022659
-0.022175254
0.13144358
-0.022040582
0.13271989
-0.02186647
0.13405195
-0.021657288
0.13543673
-0.021417292
0.13687174
-0.021150615
0.138355
-0.020861247
0.13988502
-0.020553049
0.1414608
-0.020229764
0.14308176
-0.019895045
0.14474781
-0.019552532
0.14645928
-0.019205863
0.14821698
-0.018859065
0.15002217
-0.018515889
0.15187678
-0.018183051
0.15378302
-0.017861539
0.155745
-0.017577244
0.1577649
-0.017290471
0.15985427
-0.017189642
0.16200734
-0.016808696
0.16426885
-0.017756945
-0.015969725
0.18890877
0.0053821046
-0.19351087
0.18509873
0.0035660887
0.18170669
0.0018628067
0.17856157
0.00011719915
0.17562601
-0.001678004
0.17287498
-0.0034361936
0.17029026
-0.0051377404
0.16786286
-0.0067833789
0.1655889
-0.008365792
0.16346621
-0.0098750302
0.16149295
-0.011303895
0.15966699
-0.012647535
0.1579857
-0.013902295
0.15644578
-0.015065512
0.15504332
-0.016135563
0.15377384
-0.017111784
0.15263243
-0.01799432
0.15161377
-0.018784038
0.15071231
-0.019482462
0.14992225
-0.020091709
0.1492377
-0.020614431
0.14865272
-0.021053748
0.14816135
-0.021413196
0.14775772
-0.02169666
0.14743606
-0.021908318
0.14719075
-0.022052578
0.14701635
-0.022134021
0.14690765
-0.022157336
0.14685967
-0.022127277
0.14686769
-0.022048599
0.14692725
-0.021926024
0.14703415
-0.021764197
0.14718452
-0.021567658
0.14737473
-0.021340822
0.14760145
-0.021087968
0.14786164
-0.02081324
0.14815254
-0.020520667
0.14847169
-0.020214188
0.14881689
-0.019897737
0.14918627
-0.019575244
0.14957827
-0.019251067
0.14999166
-0.018929272
0.15042565
-0.018617046
0.15087973
-0.018315623
0.15135452
-0.018052032
0.15184987
-0.017785814
0.15237024
-0.017710015
0.15291134
-0.017349796
0.15349613
-0.018341732
-0.01656231
0.21685766
0.0087804368
-0.22025599
0.21338377
0.0070399773
0.21017095
0.0050756203
0.20706564
0.0032225137
0.20401904
0.0013685934
0.20106212
-0.00047927143
0.19821176
-0.0022873767
0.19547246
-0.0040440861
0.19285014
-0.0057434707
0.19035162
-0.007376512
0.18798211
-0.0089343792
0.18574499
-0.010410419
0.18364227
-0.011799575
0.18167465
-0.013097886
0.17984158
-0.014302496
0.17814144
-0.015411649
0.1765717
-0.016424572
0.17512902
-0.017341361
0.17380946
-0.018162905
0.17260857
-0.018890818
0.1715215
-0.019527358
0.17054311
-0.020075364
0.1696681
-0.020538176
0.16889101
-0.020919573
0.16820638
-0.021223694
0.16760878
-0.021454977
0.16709284
-0.021618083
0.16665334
-0.021717833
0.16628521
-0.021759148
0.1659836
-0.021746986
0.16574387
-0.021686296
0.16556164
-0.021581968
0.16543279
-0.021438806
0.16535347
-0.021261497
0.1653201
-0.0210546
0.1653294
-0.020822545
0.16537839
-0.020569652
0.16546435
-0.020300153
0.1655849
-0.020018283
0.16573794
-0.019728286
0.16592172
-0.01943485
0.16613485
-0.019142398
0.16637631
-0.018858509
0.16664562
-0.018584926
0.16694261
-0.018349022
0.16726851
-0.018111721
0.16762256
-0.018064058
0.16801304
-0.017740279
0.16842191
-0.018750605
-0.017036091
0.24376658
0.011504391
-0.24649053
0.24091614
0.0098904162
0.23806293
0.0079288319
0.23521597
0.0060694771
0.23233816
0.0042463977
0.22945034
0.0024085504
0.22658372
0.00057924248
0.2237576
-0.0012179663
0.2209879
-0.0029737678
0.21829055
-0.004679162
0.21567941
-0.0063232405
0.21316548
-0.0078964908
0.21075737
-0.009391468
0.20846165
-0.010802159
0.20628293
-0.012123781
0.20422411
-0.013352828
0.20228654
-0.014487
0.20047026
-0.015525078
0.19877418
-0.016466827
0.19719627
-0.017312912
0.19573373
-0.018064811
0.19438309
-0.018724726
0.19314041
-0.019295499
0.19200137
-0.019780528
0.19096136
-0.020183684
0.19001561
-0.020509229
0.18915926
-0.020761733
0.18838743
-0.020946002
0.18769529
-0.021067004
0.1870781
-0.021129798
0.18653128
-0.021139478
0.18605043
-0.021101121
0.18563137
-0.021019744
0.18527015
-0.020900272
0.18496307
-0.020747521
0.18470671
-0.020566193
0.18449795
-0.020360888
0.18433393
-0.020136135
0.18421212
-0.019896473
0.1841303
-0.019646468
0.18408659
-0.019391135
0.18407949
-0.019135298
0.18410782
-0.018886836
0.18417116
-0.018648266
0.18426861
-0.018446473
0.18440288
-0.018245996
0.18456758
-0.018228758
0.18478459
-0.017957293
0.18499002
-0.018956027
-0.017368615
0.26927435
0.013537344
-0.2713073
0.2671063
0.012058461
0.26476454
0.010270594
0.26232532
0.0085087037
0.25979656
0.0067751489
0.25718847
0.0050166465
0.25452715
0.0032405614
0.25183678
0.0014724028
0.24913736
-0.00027434616
0.24644869
-0.0019904928
0.24379006
-0.0036646138
0.24117861
-0.005285042
0.23862907
-0.0068419238
0.23615392
-0.0083270085
0.23376346
-0.00973332
0.23146585
-0.011055217
0.22926727
-0.012288421
0.22717212
-0.013429928
0.2251832
-0.014477906
0.2233019
-0.015431615
0.2215284
-0.016291312
0.21986183
-0.017058157
0.21830045
-0.017734118
0.21684179
-0.018321872
0.21548282
-0.018824711
0.21422004
-0.019246448
0.21304963
-0.019591324
0.21196754
-0.019863916
0.2109696
-0.020069059
0.21005156
-0.02021176
0.20920922
-0.020297131
0.20843842
-0.020330327
0.20773517
-0.020316494
0.20709563
-0.020260729
0.20651616
-0.020168053
0.20599337
-0.020043402
0.20552412
-0.019891635
0.20510554
-0.01971756
0.20473508
-0.019526011
0.20441049
-0.019321876
0.20412984
-0.019110492
0.20389165
-0.018897104
0.20369464
-0.018689823
0.2035385
-0.018492133
0.20342177
-0.018329742
0.20334836
-0.018172578
0.20330707
-0.018187471
0.20333113
-0.017981356
0.20331534
-0.018940233
-0.017537699
0.29298512
0.014868486
-0.29431626
0.29150588
0.013537704
0.28978339
0.011993087
0.28788475
0.010407338
0.28584484
0.00881506
0.28367447
0.007187019
0.28139205
0.0055229838
0.27902082
0.0038436323
0.27658208
0.0021643878
0.27409601
0.00049558363
0.27158279
-0.0011513955
0.26906215
-0.0027644063
0.26655242
-0.0043321943
0.26407019
-0.0058447766
0.2616302
-0.007293325
0.2592452
-0.0086702237
0.25692597
-0.0099691901
0.25468132
-0.011185277
0.25251823
-0.012314817
0.25044198
-0.013355362
0.24845628
-0.014305617
0.24656348
-0.015165348
0.24476466
-0.015935298
0.24305986
-0.01661708
0.24144823
-0.017213082
0.23992815
-0.017726363
0.23849738
-0.018160551
0.2371532
-0.018519743
0.23589256
-0.018808413
0.23471211
-0.019031315
0.23360839
-0.019193407
0.23257783
-0.019299773
0.2316169
-0.019355565
0.23072212
-0.019365949
0.22989014
-0.01933607
0.22911777
-0.019271035
0.22840205
-0.019175913
0.22774025
-0.019055755
0.2271299
-0.018915666
0.22656887
-0.018760842
0.22605531
-0.01859693
0.2255878
-0.018429602
0.22516512
-0.018267139
0.2247871
-0.018114109
0.2244519
-0.017994547
0.22416428
-0.017884959
0.2239094
-0.017932594