/*--------------------------------*- C++ -*----------------------------------*\
  =========                 |
  \\      /  F ield         | OpenFOAM: The Open Source CFD Toolbox
   \\    /   O peration     | Website:  https://openfoam.org
    \\  /    A nd           | Version:  6
     \\/     M anipulation  |
\*---------------------------------------------------------------------------*/
FoamFile
{
    version     2.0;
    format      ascii;
    class       volScalarField;
    location    "233";
    object      p;
}
// * * * * * * * * * * * * * * * * * * * * * * * * * * * * * * * * * * * * * //

dimensions      [0 2 -2 0 0 0 0];

internalField   nonuniform List<scalar> 
9200
(
-0.37794901
-0.36660252
-0.35650885
-0.34755957
-0.33881987
-0.33030364
-0.32208916
-0.31414391
-0.30640059
-0.29878727
-0.29123098
-0.28366269
-0.27602425
-0.26827564
-0.26040562
-0.25244948
-0.24448355
-0.23659566
-0.22981072
-0.22841075
-0.39580971
-0.38201205
-0.36997475
-0.35950567
-0.34939395
-0.33962104
-0.33025569
-0.32123464
-0.31245839
-0.30382859
-0.29525206
-0.2866466
-0.27794851
-0.26911862
-0.26014782
-0.25106108
-0.24188825
-0.23262904
-0.2239664
-0.21806627
-0.41408739
-0.39781572
-0.38388071
-0.37196228
-0.36053385
-0.34952625
-0.33898697
-0.32881427
-0.31887449
-0.30904676
-0.29922679
-0.28933251
-0.27931085
-0.26914086
-0.25883357
-0.24842763
-0.23796182
-0.22744509
-0.2172767
-0.2085717
-0.43234798
-0.41362142
-0.39785407
-0.3845479
-0.37182301
-0.35954327
-0.34772702
-0.33623358
-0.32490304
-0.31360738
-0.30225195
-0.29077853
-0.27916843
-0.2674403
-0.25564343
-0.24384763
-0.23211944
-0.22049777
-0.20925004
-0.19911736
-0.44996157
-0.42888314
-0.41140019
-0.39678335
-0.3827717
-0.36915134
-0.35591134
-0.34288272
-0.32989984
-0.31685463
-0.30369181
-0.29040521
-0.27703359
-0.26365079
-0.2503523
-0.23724104
-0.22440707
-0.21190892
-0.19993477
-0.18899206
-0.46610366
-0.44288189
-0.42385897
-0.4080209
-0.39271593
-0.37765246
-0.36280274
-0.34799511
-0.33309236
-0.31804271
-0.30286311
-0.28762414
-0.27243569
-0.25742892
-0.24273797
-0.22848487
-0.21476427
-0.20163205
-0.18921419
-0.17784748
-0.4797691
-0.45473133
-0.43440576
-0.41744657
-0.40082798
-0.38419657
-0.36753555
-0.35071132
-0.33365957
-0.31642422
-0.29912265
-0.28191598
-0.26498439
-0.24850352
-0.23262582
-0.21746916
-0.20310923
-0.18957716
-0.17693979
-0.16539832
-0.48979411
-0.46340134
-0.44208379
-0.42412704
-0.40618102
-0.38786435
-0.3692139
-0.35018633
-0.33083868
-0.31134553
-0.29194196
-0.2728793
-0.25439335
-0.23668095
-0.21988686
-0.20410092
-0.18936029
-0.17565683
-0.16299945
-0.1514754
-0.49483647
-0.46761664
-0.44560707
-0.42672653
-0.40739909
-0.38727749
-0.36651222
-0.34520748
-0.32358122
-0.30195419
-0.28067265
-0.26005546
-0.24036329
-0.22178288
-0.20442503
-0.18833285
-0.17349425
-0.15985759
-0.14737778
-0.13604456
-0.49354573
-0.46596037
-0.44342802
-0.42357974
-0.40276042
-0.38074055
-0.35784968
-0.33438534
-0.31074015
-0.28736421
-0.26467766
-0.24302147
-0.22263839
-0.20367207
-0.18617893
-0.17014679
-0.15551468
-0.14219311
-0.13009025
-0.11911097
-0.26506701
-0.26974129
-0.2722497
-0.27300084
-0.27278672
-0.27179422
-0.27010477
-0.26780594
-0.26496991
-0.26165143
-0.25789453
-0.25373674
-0.24921115
-0.24434784
-0.23917508
-0.23372175
-0.22801873
-0.22208655
-0.21592423
-0.20961732
-0.26779965
-0.27205868
-0.27426034
-0.27479281
-0.27439562
-0.2732469
-0.27142618
-0.26901732
-0.26608897
-0.262693
-0.25887106
-0.25465854
-0.25008667
-0.2451835
-0.23997472
-0.23448818
-0.22876223
-0.22281576
-0.21654148
-0.20991343
-0.27312912
-0.27657609
-0.27817977
-0.27828452
-0.2775284
-0.27607412
-0.27399771
-0.27137575
-0.26826994
-0.26472656
-0.2607824
-0.25646865
-0.25181276
-0.24683894
-0.24156804
-0.23602504
-0.2302597
-0.22428979
-0.21781618
-0.21058115
-0.28081555
-0.2831
-0.28383815
-0.28331417
-0.28202514
-0.28011419
-0.27765339
-0.27470944
-0.27133439
-0.26756667
-0.26343624
-0.25896816
-0.25418435
-0.24910335
-0.24373915
-0.2381116
-0.23228241
-0.22627394
-0.2195407
-0.21145515
-0.29055663
-0.29138737
-0.29102395
-0.28968271
-0.28769181
-0.2851736
-0.28219695
-0.2788173
-0.27507528
-0.27100006
-0.26661336
-0.26193198
-0.25697031
-0.25173994
-0.24624677
-0.24050229
-0.23457617
-0.22850398
-0.22148104
-0.21236503
-0.3020386
-0.30118601
-0.29951978
-0.29718923
-0.2943368
-0.29106541
-0.28744299
-0.28351395
-0.27930693
-0.27483945
-0.27012242
-0.26516338
-0.25996792
-0.2545392
-0.24887398
-0.24297243
-0.23690425
-0.2307244
-0.2233971
-0.21314385
-0.3149825
-0.31227089
-0.30913492
-0.30566404
-0.30180628
-0.29764832
-0.293261
-0.28867734
-0.28391126
-0.27896783
-0.27384643
-0.26854336
-0.26305359
-0.25737075
-0.25148249
-0.2453772
-0.23911738
-0.23278063
-0.22516316
-0.2137813
-0.32917234
-0.32446697
-0.3197275
-0.31499326
-0.31001361
-0.30486198
-0.29961241
-0.29428573
-0.28888111
-0.28338918
-0.277795
-0.27208057
-0.26622726
-0.26021661
-0.25402663
-0.24763675
-0.24110675
-0.23456016
-0.22674447
-0.21446558
-0.34445504
-0.33764185
-0.33118713
-0.32509021
-0.31889445
-0.31265865
-0.30646202
-0.30031264
-0.29419208
-0.28807334
-0.28192356
-0.2757063
-0.26938383
-0.26291739
-0.25626254
-0.24937141
-0.2422683
-0.23505941
-0.2264874
-0.2130499
-0.36073174
-0.35168779
-0.34340162
-0.33583744
-0.32831918
-0.32089085
-0.3136367
-0.30654977
-0.29959155
-0.29271574
-0.28587123
-0.27900484
-0.27206425
-0.26499802
-0.25775031
-0.2502567
-0.24246007
-0.23415379
-0.22368702
-0.20801829
-0.20246661
-0.19351831
-0.18456507
-0.17567087
-0.16678202
-0.15794018
-0.14919889
-0.14059318
-0.13215234
-0.12390499
-0.11587691
-0.10809029
-0.10056428
-0.093315221
-0.086356713
-0.079699637
-0.073352285
-0.06732046
-0.061607574
-0.056214757
-0.051140982
-0.046383202
-0.041936502
-0.037794267
-0.033948353
-0.030389281
-0.027106423
-0.024088202
-0.021322285
-0.018795775
-0.016495395
-0.014407666
-0.012519071
-0.010816208
-0.0092859357
-0.0079155026
-0.0066926751
-0.005605839
-0.0046441772
-0.0037975934
-0.0030575314
-0.0024149874
-0.0018676913
-0.0013990008
-0.0010444984
-0.00069461972
-0.0006879274
-8.0129506e-05
-0.0017060588
0.002452331
-0.20347664
-0.19413109
-0.18506881
-0.17618894
-0.16728207
-0.15841005
-0.14964432
-0.14101635
-0.13255295
-0.12428326
-0.11623339
-0.10842539
-0.10087838
-0.093608809
-0.086630318
-0.079953856
-0.073587779
-0.067537951
-0.061807835
-0.056398604
-0.051309261
-0.046536781
-0.042076263
-0.037921091
-0.034063116
-0.030492845
-0.027199628
-0.024171862
-0.021397183
-0.018862658
-0.016554973
-0.014460608
-0.012566003
-0.010857714
-0.009322557
-0.0079477374
-0.0067209793
-0.005630627
-0.0046658231
-0.0038164315
-0.0030738563
-0.0024290573
-0.0018797071
-0.0014091716
-0.0010527543
-0.00070154075
-0.00069132991
-8.5945531e-05
-0.0016915006
0.0024237436
-0.20559533
-0.19539915
-0.18611943
-0.17730825
-0.16837778
-0.15944508
-0.15063173
-0.14195975
-0.13344931
-0.12513172
-0.11703431
-0.109179
-0.10158505
-0.094269219
-0.087245444
-0.080524892
-0.074116127
-0.068025199
-0.062255723
-0.056808995
-0.051684108
-0.046878099
-0.0423861
-0.038201506
-0.034316153
-0.030720514
-0.027403891
-0.024354615
-0.021560246
-0.019007766
-0.016683768
-0.014574633
-0.012666701
-0.010946425
-0.0094005184
-0.0080160843
-0.006780747
-0.0056827534
-0.0047111514
-0.0038557133
-0.0031077527
-0.0024581443
-0.001904443
-0.0014300083
-0.001069616
-0.00071555277
-0.00069832005
-9.7435315e-05
-0.0016629239
0.0023671828
-0.20866393
-0.19709107
-0.18749038
-0.17887816
-0.16995829
-0.1609489
-0.15208142
-0.14336049
-0.13479102
-0.12640941
-0.11824667
-0.11032481
-0.10266335
-0.095279919
-0.088189142
-0.081402715
-0.074929661
-0.068776436
-0.062946993
-0.057442891
-0.05226343
-0.047405794
-0.042865211
-0.038635124
-0.034707379
-0.031072418
-0.027719484
-0.024636823
-0.021811885
-0.019231528
-0.016882205
-0.01475015
-0.012821548
-0.011082694
-0.0095201389
-0.0081208288
-0.0068722313
-0.0057624407
-0.0047803571
-0.0039156086
-0.0031593679
-0.0025023761
-0.0019420082
-0.0014616047
-0.001095164
-0.0007367188
-0.00070899678
-0.00011455092
-0.0016210765
0.0022838729
-0.21245582
-0.19893633
-0.18891243
-0.18070099
-0.17187711
-0.16279369
-0.15388317
-0.14512961
-0.13650654
-0.12805756
-0.1198222
-0.11182358
-0.10408165
-0.096615493
-0.089441136
-0.082571295
-0.076015842
-0.069781971
-0.063874256
-0.058294756
-0.053043164
-0.048116964
-0.043511595
-0.039220638
-0.035236005
-0.031548151
-0.028146277
-0.025018545
-0.022152285
-0.019534206
-0.01715059
-0.014987482
-0.013030866
-0.011266827
-0.0096817066
-0.0082622359
-0.0069956731
-0.0058699059
-0.0048736341
-0.0039962903
-0.0032288554
-0.0025618884
-0.0019925226
-0.0015040658
-0.001129494
-0.0007651107
-0.00072350603
-0.0001371914
-0.001567102
0.0021756992
-0.21662369
-0.20065445
-0.19011646
-0.18254357
-0.17396189
-0.16483609
-0.15590487
-0.14715312
-0.13850317
-0.1300002
-0.12169755
-0.11362284
-0.105797
-0.098241
-0.090973091
-0.084007784
-0.077356366
-0.071027235
-0.065025993
-0.059355543
-0.054016258
-0.04900615
-0.04432106
-0.039954851
-0.035899617
-0.032145903
-0.028682924
-0.025498788
-0.022580721
-0.019915276
-0.017488547
-0.015286363
-0.013294469
-0.011498701
-0.0098851405
-0.0084402576
-0.0071510488
-0.0060051443
-0.0049909924
-0.0040977796
-0.003316245
-0.0026367181
-0.0020560279
-0.0015574375
-0.0011726602
-0.00080077117
-0.00074200263
-0.00016521538
-0.0015024483
0.0020451158
-0.22077001
-0.20206385
-0.19089074
-0.18412821
-0.17601216
-0.16694912
-0.15803146
-0.14931881
-0.14068502
-0.13215945
-0.12380785
-0.1156677
-0.10776329
-0.10011792
-0.092752794
-0.085685185
-0.078928587
-0.072493218
-0.066386224
-0.060611801
-0.055171369
-0.050063776
-0.045285507
-0.040830905
-0.036692397
-0.032860734
-0.029325226
-0.026073985
-0.023094158
-0.020372159
-0.017893888
-0.015644939
-0.013610793
-0.011776999
-0.010129341
-0.0086539802
-0.0073376061
-0.006167543
-0.0051319393
-0.0042196873
-0.0034212365
-0.0027266409
-0.0021323645
-0.0016216165
-0.001224612
-0.00084367913
-0.0007646234
-0.00019847203
-0.0014287647
0.0018950119
-0.22463394
-0.20356018
-0.19145962
-0.18526748
-0.17781365
-0.1690454
-0.16021934
-0.15157048
-0.14299015
-0.1344797
-0.12610394
-0.11791297
-0.10993886
-0.10220842
-0.094746209
-0.087573016
-0.080705341
-0.074155843
-0.067933716
-0.062044884
-0.05649219
-0.051275626
-0.046392583
-0.041838095
-0.037605092
-0.033684664
-0.030066318
-0.026738238
-0.023687545
-0.020900538
-0.018362933
-0.016060084
-0.013977193
-0.012099498
-0.010412447
-0.0089018606
-0.0075540779
-0.0063560747
-0.0052956559
-0.0043613751
-0.0035433467
-0.0028313071
-0.0022212955
-0.0016964628
-0.001285295
-0.00089383692
-0.00079155754
-0.00023686955
-0.0013478514
0.0017286773
-0.22587327
-0.20538809
-0.19251862
-0.18589768
-0.17893126
-0.17074463
-0.16219503
-0.15367528
-0.14520196
-0.13676856
-0.12842271
-0.12022227
-0.11221039
-0.10441972
-0.096878799
-0.089612499
-0.08264119
-0.075980805
-0.069643318
-0.063637042
-0.057966846
-0.052634406
-0.047638482
-0.0429752
-0.038638331
-0.034619585
-0.03090889
-0.027494688
-0.024364205
-0.021503729
-0.018898859
-0.016534755
-0.014396356
-0.012468588
-0.010736559
-0.0091857178
-0.0078020238
-0.0065720658
-0.0054832623
-0.0045237831
-0.0036833607
-0.0029513674
-0.002323356
-0.001782405
-0.0013550655
-0.00095146744
-0.00082319234
-0.00028011679
-0.0012618661
0.0015503811
-0.21601263
-0.20463419
-0.19363635
-0.18554898
-0.17849321
-0.17108082
-0.16313746
-0.1549836
-0.14679817
-0.13860722
-0.13043847
-0.12234941
-0.11439554
-0.10661977
-0.099057948
-0.091741626
-0.084697468
-0.077946942
-0.071506745
-0.06538923
-0.0596027
-0.054151697
-0.049037345
-0.044257678
-0.039807979
-0.035681113
-0.031867865
-0.028357264
-0.025136902
-0.022193241
-0.019511901
-0.017077929
-0.014876056
-0.012890922
-0.011107286
-0.0095102121
-0.0080852477
-0.0068185535
-0.005697116
-0.0047086701
-0.0038425143
-0.0030876019
-0.0024389421
-0.0018794949
-0.0014337538
-0.0010160461
-0.00085933778
-0.00032655592
-0.0011733691
0.0013656258
-0.19387467
-0.1985818
-0.19330865
-0.18440443
-0.1769019
-0.16989422
-0.16239411
-0.15453709
-0.14658902
-0.13861309
-0.13062888
-0.12268927
-0.11485355
-0.10716905
-0.099674778
-0.092405225
-0.085390027
-0.078653441
-0.072214683
-0.066088371
-0.06028483
-0.054810396
-0.049667754
-0.044856294
-0.040372457
-0.036210091
-0.032360797
-0.028814272
-0.025558646
-0.022580801
-0.019866673
-0.017401537
-0.015170274
-0.013157607
-0.011348326
-0.0097274784
-0.0082805571
-0.006993639
-0.0058535986
-0.0048480431
-0.0039660931
-0.0031965867
-0.0025340708
-0.0019619418
-0.0015019334
-0.0010746851
-0.00089046387
-0.00037295635
-0.0010829411
0.0011823146
-0.18332588
-0.18914684
-0.18567397
-0.17693536
-0.16973262
-0.16347667
-0.15677704
-0.1496339
-0.14234319
-0.13497994
-0.1275539
-0.12011364
-0.11272089
-0.10542667
-0.09827357
-0.091299889
-0.084539305
-0.078020084
-0.071765281
-0.06579315
-0.060117433
-0.054747641
-0.049689386
-0.044944738
-0.040512578
-0.036388958
-0.032567462
-0.029039557
-0.025794941
-0.022821878
-0.020107509
-0.017638155
-0.015399591
-0.013377303
-0.011556716
-0.0099234071
-0.008463297
-0.0071628044
-0.0060090593
-0.0049898711
-0.0040944318
-0.0033117612
-0.0026359635
-0.0020514521
-0.0015762472
-0.0011399605
-0.00092404058
-0.00042746895
-0.00098207657
0.00098467909
-0.17458777
-0.17780929
-0.17553233
-0.16851177
-0.16215944
-0.1565974
-0.15066454
-0.14425144
-0.13762476
-0.13087961
-0.12402787
-0.11711193
-0.11019228
-0.10332182
-0.096545211
-0.089903148
-0.083432217
-0.0771639
-0.071124545
-0.065335692
-0.0598143
-0.054572983
-0.049620302
-0.044961092
-0.040596808
-0.036525874
-0.032744038
-0.029244733
-0.026019421
-0.023057937
-0.020348811
-0.01787958
-0.015637075
-0.013607683
-0.0117776
-0.010133044
-0.0086604642
-0.0073467069
-0.0061792297
-0.0051461054
-0.0042366386
-0.0034400799
-0.0027500648
-0.0021521536
-0.0016602821
-0.0012139445
-0.00096305924
-0.00048886281
-0.00087372577
0.00076820625
-0.1649097
-0.16552251
-0.16369116
-0.15874667
-0.15362428
-0.14880487
-0.14366312
-0.13806173
-0.13217809
-0.12611303
-0.11989421
-0.11356207
-0.10717374
-0.10078275
-0.094435614
-0.088175015
-0.082040034
-0.076065119
-0.070279811
-0.064708929
-0.059372737
-0.054287103
-0.049463736
-0.044910477
-0.04063161
-0.0366282
-0.032898433
-0.029437968
-0.026240285
-0.023297033
-0.020598355
-0.018133209
-0.015889665
-0.013855185
-0.012016879
-0.010361738
-0.0088768509
-0.0075495879
-0.0063678134
-0.0053199282
-0.0043953994
-0.0035837441
-0.0028781496
-0.0022653267
-0.0017551055
-0.0012968408
-0.001008759
-0.00055461588
-0.00076544738
0.00054295568
-0.1543406
-0.15307352
-0.1512642
-0.14803459
-0.14420542
-0.14019085
-0.13584613
-0.1310887
-0.12600202
-0.12066914
-0.11513321
-0.10943723
-0.10363419
-0.097776494
-0.091911574
-0.086083378
-0.080332733
-0.074696484
-0.069207001
-0.063892175
-0.058775483
-0.053876065
-0.049208888
-0.044784966
-0.040611633
-0.03669284
-0.033029474
-0.029619695
-0.026459274
-0.023541934
-0.020859681
-0.018403128
-0.016161802
-0.014124433
-0.01227922
-0.010614081
-0.009116882
-0.0077756302
-0.0065786949
-0.0055148833
-0.004573891
-0.0037455381
-0.0030226183
-0.0023929355
-0.0018623915
-0.0013896842
-0.0010626395
-0.00062409885
-0.00066327931
0.00031703191
-0.14255415
-0.14049523
-0.13880045
-0.13684516
-0.13418683
-0.13100826
-0.12745065
-0.12351786
-0.11923198
-0.11464886
-0.10981939
-0.10478828
-0.099603939
-0.094316405
-0.088972951
-0.08361775
-0.078292266
-0.073034749
-0.067879638
-0.062857323
-0.057994072
-0.053312021
-0.048829238
-0.044559862
-0.040514314
-0.036699533
-0.033119258
-0.029774336
-0.026663033
-0.023781364
-0.021123421
-0.01868169
-0.016447363
-0.014410634
-0.012560975
-0.010887396
-0.0093786858
-0.0080236203
-0.0068111859
-0.0057306884
-0.0047721343
-0.0039256911
-0.0031838431
-0.0025353967
-0.0019826561
-0.001492791
-0.0011256828
-0.00069687042
-0.00057321396
9.9087464e-05
-0.12986019
-0.12793044
-0.12658374
-0.12554054
-0.12384584
-0.12147692
-0.11867962
-0.11552548
-0.11201135
-0.10816678
-0.10404171
-0.099682531
-0.095132189
-0.090435607
-0.085638696
-0.080785098
-0.075915924
-0.071069689
-0.066281891
-0.061584604
-0.057006233
-0.052571392
-0.048300867
-0.04421167
-0.040317152
-0.03662718
-0.033148362
-0.029884296
-0.026835861
-0.024001513
-0.021377592
-0.018958637
-0.016737688
-0.014706582
-0.012856239
-0.011176924
-0.0096584996
-0.0082906467
-0.0070630906
-0.0059657382
-0.0049890017
-0.0041234486
-0.0033613632
-0.0026924426
-0.0021158544
-0.0016060889
-0.0011985642
-0.00077251518
-0.00050115161
-0.00010156774
-0.11697448
-0.11562491
-0.11476687
-0.11437948
-0.11344033
-0.11180663
-0.10972011
-0.10728313
-0.10448897
-0.10134947
-0.097906706
-0.094205016
-0.090284238
-0.086183679
-0.081944412
-0.07760835
-0.073215623
-0.068804079
-0.064409195
-0.060063755
-0.05579748
-0.051636769
-0.047604565
-0.043720304
-0.039999941
-0.03645605
-0.033097967
-0.029931991
-0.026961615
-0.02418779
-0.021609201
-0.019222559
-0.017022889
-0.015003824
-0.01315788
-0.01147673
-0.0099514549
-0.0085727758
-0.0073312814
-0.0062175888
-0.0052226192
-0.0043374013
-0.0035541477
-0.0028633304
-0.002261532
-0.00172925
-0.0012816589
-0.00085082311
-0.00045211232
-0.00027608395
-0.10444016
-0.10375713
-0.10341498
-0.10352161
-0.10317052
-0.10217412
-0.10072919
-0.098939416
-0.09680136
-0.09431732
-0.091519623
-0.088447246
-0.085135527
-0.081619433
-0.077935457
-0.074121137
-0.070214197
-0.066251114
-0.062266513
-0.058292936
-0.054360523
-0.050496669
-0.046725789
-0.043069168
-0.039544898
-0.036167889
-0.032949937
-0.029899853
-0.027023639
-0.024324693
-0.021804053
-0.019460647
-0.017291569
-0.015292347
-0.013457213
-0.011779373
-0.010251253
-0.0088647405
-0.0076114081
-0.0064826914
-0.0054701284
-0.0045652777
-0.00376042
-0.0030466997
-0.0024187097
-0.0018616156
-0.001374928
-0.00093179822
-0.0004294594
-0.0004173186
-0.092542883
-0.092445919
-0.092572182
-0.09306646
-0.09317672
-0.092715169
-0.091830875
-0.090613787
-0.089062729
-0.087175247
-0.084974586
-0.082492699
-0.079759659
-0.076805338
-0.073661768
-0.070362362
-0.066940886
-0.063431142
-0.059866142
-0.05627742
-0.052694693
-0.049145547
-0.045655134
-0.042245942
-0.038937641
-0.035747007
-0.032687919
-0.029771409
-0.027005772
-0.024396711
-0.021947534
-0.01965936
-0.017531363
-0.015561013
-0.013744332
-0.012076146
-0.01055033
-0.0091600433
-0.0078979498
-0.0067564068
-0.0057276738
-0.0048039133
-0.0039776174
-0.0032405269
-0.0025858387
-0.0020021437
-0.0014778397
-0.0010155519
-0.00043431899
-0.00052096473
-0.081422979
-0.081782009
-0.082290696
-0.083087566
-0.083558665
-0.083534221
-0.08312523
-0.082403802
-0.081368341
-0.080013479
-0.078354812
-0.076416931
-0.074224145
-0.071801053
-0.069174582
-0.066373767
-0.063428516
-0.060369025
-0.05722561
-0.054028049
-0.050804924
-0.04758326
-0.044388223
-0.041242829
-0.038167724
-0.035181025
-0.032298241
-0.029532251
-0.026893345
-0.024389309
-0.022025556
-0.019805298
-0.017729731
-0.01579826
-0.014008716
-0.012357596
-0.01084029
-0.0094513086
-0.0081844978
-0.0070332255
-0.0059905703
-0.0050493741
-0.0042024795
-0.003442182
-0.0027608368
-0.002149404
-0.0015893411
-0.0011021478
-0.00046528932
-0.00058638572
-0.071140902
-0.071827872
-0.072622923
-0.07364483
-0.074391096
-0.074713783
-0.074695763
-0.074392561
-0.073800488
-0.072911759
-0.071735644
-0.070289808
-0.068592691
-0.066663575
-0.064524199
-0.06219873
-0.05971288
-0.057093168
-0.054366569
-0.051560244
-0.048700948
-0.045814485
-0.04292535
-0.040056434
-0.037228737
-0.03446116
-0.031770346
-0.029170593
-0.026673826
-0.024289621
-0.022025272
-0.01988591
-0.017874645
-0.015992744
-0.014239824
-0.012614054
-0.011112371
-0.0097306902
-0.0084641017
-0.0073070585
-0.0062535426
-0.0052971485
-0.0044312001
-0.0036485401
-0.0029411704
-0.0023016005
-0.0017078715
-0.001191435
-0.00051854334
-0.00061690687
-0.06170857
-0.062616291
-0.063609034
-0.064784969
-0.065730973
-0.066319591
-0.066612838
-0.066652498
-0.066432428
-0.065942701
-0.065187361
-0.064177942
-0.062927311
-0.061449581
-0.059761406
-0.057882036
-0.055832644
-0.053635753
-0.051314812
-0.048893848
-0.046397106
-0.04384854
-0.041271364
-0.038687714
-0.036118344
-0.033582365
-0.031097034
-0.028677602
-0.026337223
-0.024086916
-0.021935574
-0.019890023
-0.017955117
-0.016133868
-0.014427598
-0.012836115
-0.011357896
-0.0099902762
-0.0087296322
-0.0075715546
-0.0065109982
-0.0055423786
-0.0046596178
-0.0038561297
-0.003123969
-0.0024566221
-0.001831421
-0.0012829163
-0.00058836568
-0.00061937411
-0.053111194
-0.054155523
-0.055271453
-0.056539459
-0.057619513
-0.058402342
-0.058934146
-0.059245822
-0.059329183
-0.059172609
-0.058775929
-0.058145482
-0.057289155
-0.056216276
-0.054938697
-0.053470908
-0.051829538
-0.050032896
-0.048100642
-0.046053434
-0.043912559
-0.041699563
-0.039435815
-0.03714213
-0.034838439
-0.032543503
-0.030274662
-0.02804763
-0.025876349
-0.023772895
-0.02174743
-0.0198082
-0.017961582
-0.016212165
-0.014562857
-0.013015023
-0.011568636
-0.010222439
-0.0089741064
-0.0078203993
-0.0067572972
-0.0057800963
-0.0048834192
-0.0040612981
-0.003306159
-0.0026121166
-0.0019576362
-0.0013756919
-0.00066805493
-0.00060296659
-0.045317993
-0.046434645
-0.047614523
-0.04892359
-0.050082446
-0.050997893
-0.051704073
-0.052223439
-0.052546456
-0.052660423
-0.052561945
-0.052253158
-0.051737737
-0.051020805
-0.050109881
-0.049015038
-0.047748554
-0.046324574
-0.044758846
-0.043068462
-0.041271511
-0.03938674
-0.037433203
-0.035429891
-0.033395393
-0.031347591
-0.029303383
-0.027278451
-0.025287064
-0.023341936
-0.021454126
-0.019632984
-0.017886145
-0.016219559
-0.014637554
-0.01314293
-0.011737074
-0.010420091
-0.0091909375
-0.0080475526
-0.0069869739
-0.0060054273
-0.0050983209
-0.0042603663
-0.0034845949
-0.0027655828
-0.0020839653
-0.0014684954
-0.00075100511
-0.00057748481
-0.038287585
-0.03942876
-0.040627478
-0.041937849
-0.043130953
-0.044127843
-0.044953557
-0.04562414
-0.046129415
-0.046456257
-0.046599
-0.046556567
-0.046329263
-0.045918723
-0.045328736
-0.04456546
-0.043637194
-0.042554142
-0.041328246
-0.039972982
-0.038503105
-0.036934347
-0.035283113
-0.033566169
-0.031800315
-0.03000208
-0.028187436
-0.026371547
-0.024568544
-0.022791344
-0.021051504
-0.019359124
-0.017722792
-0.016149559
-0.014644963
-0.013213076
-0.01185658
-0.010576858
-0.0093741008
-0.0082474098
-0.0071948925
-0.0062137378
-0.0053002059
-0.0044497523
-0.0036561723
-0.0029144663
-0.0022078218
-0.0015598084
-0.00083169806
-0.00055154462
-0.031972536
-0.03310394
-0.034288555
-0.035570784
-0.036763711
-0.037800986
-0.038700879
-0.039474678
-0.04011218
-0.040600422
-0.040932335
-0.041104559
-0.041114875
-0.040962191
-0.040647262
-0.040172933
-0.039544026
-0.038767194
-0.037850827
-0.036804927
-0.035640928
-0.034371463
-0.033010111
-0.031571136
-0.030069205
-0.0285191
-0.026935441
-0.02533243
-0.023723613
-0.022121675
-0.020538263
-0.01898385
-0.017467633
-0.015997473
-0.014579868
-0.013219958
-0.011921555
-0.010687204
-0.0095182487
-0.0084149084
-0.0073763459
-0.006400728
-0.0054852114
-0.0046260539
-0.003817911
-0.0030562483
-0.0023267384
-0.0016480127
-0.00090634062
-0.00053118673
-0.026322792
-0.027420962
-0.028568574
-0.029802058
-0.030969418
-0.032015348
-0.03295315
-0.033790662
-0.034518117
-0.035123197
-0.035598154
-0.035938167
-0.036139281
-0.03619842
-0.036114013
-0.035886258
-0.035517081
-0.035010073
-0.034370468
-0.033605074
-0.032722174
-0.03173136
-0.030643351
-0.029469772
-0.028222932
-0.026915575
-0.025560628
-0.024170949
-0.022759098
-0.021337117
-0.019916342
-0.018507231
-0.017119239
-0.015760713
-0.014438826
-0.013159543
-0.011927612
-0.010746582
-0.0096188343
-0.008545627
-0.0075271375
-0.0065624999
-0.005649788
-0.0047861038
-0.0039670116
-0.0031885199
-0.0024384802
-0.0017315352
-0.00097298908
-0.00051929021
-0.021287975
-0.022337959
-0.023433749
-0.024605188
-0.025729306
-0.026760406
-0.027708162
-0.028577947
-0.029360759
-0.030045255
-0.030623587
-0.031090145
-0.031439924
-0.031668538
-0.031772767
-0.031750813
-0.031602322
-0.031328378
-0.030931529
-0.030415785
-0.029786569
-0.029050629
-0.02821591
-0.027291406
-0.026286977
-0.025213152
-0.024080918
-0.0229015
-0.021686132
-0.020445857
-0.019191322
-0.017932606
-0.016679061
-0.015439184
-0.014220522
-0.013029596
-0.011871857
-0.010751669
-0.0096722993
-0.008635936
-0.0076436969
-0.0066956461
-0.0057907664
-0.0049270242
-0.0041009056
-0.003309046
-0.0025411062
-0.0018089491
-0.0010311931
-0.00051588176
-0.016819272
-0.017812653
-0.018848138
-0.019950071
-0.021019637
-0.022019443
-0.022956505
-0.023834453
-0.024645235
-0.025378693
-0.026027287
-0.026585146
-0.027046763
-0.02740702
-0.027661641
-0.027807442
-0.027842383
-0.027765603
-0.027577482
-0.027279683
-0.026875153
-0.026368093
-0.02576389
-0.025069021
-0.024290931
-0.023437884
-0.022518796
-0.021543056
-0.020520329
-0.019460361
-0.018372795
-0.017266992
-0.016151865
-0.015035735
-0.01392621
-0.012830082
-0.011753255
-0.010700687
-0.0096763535
-0.0086832289
-0.0077232684
-0.0067973977
-0.0059054721
-0.0050463161
-0.0042173253
-0.0034158332
-0.0026329894
-0.0018790246
-0.0010813726
-0.00051909165
-0.012870488
-0.013803764
-0.014775325
-0.015804861
-0.016813693
-0.01777157
-0.018683538
-0.019551986
-0.020369894
-0.021128374
-0.021820466
-0.022440412
-0.022982624
-0.023441701
-0.023812811
-0.024091907
-0.024275799
-0.024362213
-0.024349875
-0.024238578
-0.024029225
-0.023723836
-0.023325536
-0.022838507
-0.022267919
-0.021619831
-0.020901071
-0.0201191
-0.019281854
-0.01839758
-0.017474666
-0.016521474
-0.015546182
-0.014556631
-0.013560192
-0.012563646
-0.011573083
-0.010593822
-0.0096303462
-0.0086862473
-0.0077641855
-0.0068658516
-0.0059919083
-0.0051420046
-0.0043144143
-0.0035072174
-0.0027128261
-0.0019407503
-0.0011242125
-0.00052630033
-0.009399613
-0.010272817
-0.011180406
-0.012138072
-0.013083952
-0.013993912
-0.014871514
-0.015718247
-0.016528113
-0.017293498
-0.018008169
-0.018666727
-0.019263792
-0.019794018
-0.020252396
-0.020634443
-0.020936274
-0.021154674
-0.021287187
-0.0213322
-0.021289007
-0.021157851
-0.020939943
-0.020637461
-0.020253525
-0.019792144
-0.019258141
-0.018657058
-0.017995049
-0.017278741
-0.0165151
-0.015711282
-0.014874489
-0.014011823
-0.013130149
-0.012235969
-0.011335306
-0.010433603
-0.0095356315
-0.0086454193
-0.0077661772
-0.0069002393
-0.0060489856
-0.0052128301
-0.0043908777
-0.0035819767
-0.0027796627
-0.0019933538
-0.0011602862
-0.00053505071
-0.0063686434
-0.0071844417
-0.0080307113
-0.0089196762
-0.0098035356
-0.01066337
-0.011501594
-0.01231902
-0.013110607
-0.013869949
-0.014591598
-0.015270648
-0.015902111
-0.016480915
-0.017002153
-0.017461225
-0.017853914
-0.018176454
-0.018425616
-0.018598801
-0.018694107
-0.018710396
-0.01864734
-0.018505442
-0.018286052
-0.017991355
-0.017624334
-0.017188717
-0.016688908
-0.016129892
-0.015517133
-0.014856455
-0.014153912
-0.013415669
-0.012647866
-0.011856494
-0.011047275
-0.010225549
-0.0093961692
-0.0085634043
-0.0077308504
-0.0069013468
-0.0060768787
-0.0052585443
-0.0044462166
-0.0036395056
-0.0028329873
-0.0020363649
-0.0011899687
-0.00054352971
-0.00374537
-0.0045079684
-0.0052972429
-0.0061223481
-0.0069472398
-0.007757431
-0.0085544266
-0.0093385086
-0.010105492
-0.010850073
-0.011567573
-0.012253637
-0.012903758
-0.013513273
-0.014077548
-0.014592093
-0.015052625
-0.015455128
-0.015795934
-0.016071807
-0.016280018
-0.016418418
-0.016485489
-0.016480404
-0.01640305
-0.016254056
-0.016034785
-0.015747326
-0.015394448
-0.014979555
-0.014506613
-0.013980064
-0.013404729
-0.012785702
-0.012128237
-0.011437633
-0.010719118
-0.009977729
-0.0092182056
-0.0084448762
-0.007661554
-0.006871436
-0.0060769894
-0.005279898
-0.0044807251
-0.0036798091
-0.002872706
-0.0020695933
-0.0012134602
-0.0005506107
-0.0015041228
-0.002219324
-0.0029575558
-0.0037253477
-0.0044964188
-0.0052599954
-0.0060168438
-0.0067668141
-0.0075064598
-0.0082314415
-0.008937794
-0.0096217069
-0.010279178
-0.01090601
-0.011497935
-0.012050711
-0.012560167
-0.013022254
-0.013433116
-0.013789161
-0.014087136
-0.014324195
-0.014497964
-0.0146066
-0.014648839
-0.014624042
-0.014532214
-0.014374019
-0.014150776
-0.013864437
-0.013517552
-0.01311322
-0.012655016
-0.012146914
-0.011593197
-0.010998354
-0.010366979
-0.0097036562
-0.0090128497
-0.008298787
-0.0075653448
-0.0068159353
-0.0060533801
-0.0052798392
-0.0044964755
-0.0037042959
-0.0028997717
-0.0020936175
-0.0012312675
-0.00055592098
0.00037920468
-0.00029442006
-0.00098781866
-0.0017051439
-0.0024281689
-0.003149228
-0.0038684864
-0.0045854281
-0.0052972187
-0.0060003393
-0.0066914508
-0.0073672433
-0.0080241963
-0.0086585727
-0.0092665072
-0.0098440694
-0.010387301
-0.01089226
-0.01135507
-0.011771991
-0.012139476
-0.012454239
-0.012713319
-0.012914141
-0.013054578
-0.013132998
-0.013148313
-0.013100007
-0.012988163
-0.012813463
-0.01257719
-0.012281197
-0.011927878
-0.011520105
-0.011061169
-0.010554702
-0.010004584
-0.0094148414
-0.0087895472
-0.0081327002
-0.0074481098
-0.0067392746
-0.0060092472
-0.0052605524
-0.0044948513
-0.0037137389
-0.0029145202
-0.0021084284
-0.0012432068
-0.00055896419
0.0019017962
0.00126195
0.00060536641
-7.0356888e-05
-0.00075341062
-0.0014385735
-0.0021255145
-0.0028134208
-0.0034999481
-0.0041822417
-0.0048574805
-0.0055227814
-0.0061750458
-0.0068109534
-0.0074270184
-0.0080196313
-0.0085850862
-0.0091196138
-0.0096194247
-0.01008076
-0.010499944
-0.010873444
-0.011197931
-0.011470337
-0.011687919
-0.011848319
-0.011949615
-0.01199037
-0.011969671
-0.011887159
-0.011743042
-0.011538101
-0.011273679
-0.010951656
-0.010574405
-0.010144731
-0.0096658044
-0.0091410746
-0.0085741705
-0.0079687947
-0.0073286046
-0.0066570906
-0.0059574362
-0.0052324273
-0.0044841207
-0.0037146023
-0.0029219069
-0.002117714
-0.0012518825
-0.00056105509
0.0031044138
0.0024923442
0.0018658935
0.0012242856
0.00057430541
-8.078383e-05
-0.0007402662
-0.0014030784
-0.0020672469
-0.0027304351
-0.0033902321
-0.0040440985
-0.0046892816
-0.0053228111
-0.0059415294
-0.006542118
-0.0071211167
-0.0076749488
-0.0081999545
-0.0086924307
-0.0091486767
-0.0095650438
-0.0099379899