/*--------------------------------*- C++ -*----------------------------------*\
  =========                 |
  \\      /  F ield         | OpenFOAM: The Open Source CFD Toolbox
   \\    /   O peration     | Website:  https://openfoam.org
    \\  /    A nd           | Version:  6
     \\/     M anipulation  |
\*---------------------------------------------------------------------------*/
FoamFile
{
    version     2.0;
    format      ascii;
    class       volVectorField;
    location    "233";
    object      UMean;
}
// * * * * * * * * * * * * * * * * * * * * * * * * * * * * * * * * * * * * * //

dimensions      [0 1 -1 0 0 0 0];

internalField   nonuniform List<vector> 
9200
(
(0.0016312291 0.00096718018 -6.076374e-20)
(0.015643801 -0.0034851797 4.8102955e-20)
(0.041781585 -0.0081276035 -3.973751e-20)
(0.077332522 -0.012746157 -6.2870783e-20)
(0.12042033 -0.017117603 1.9533275e-20)
(0.16979276 -0.020807322 3.4172429e-20)
(0.22435602 -0.023528063 -1.2782877e-20)
(0.28309981 -0.025137123 9.66904e-21)
(0.34507967 -0.025578494 1.7776731e-20)
(0.40938563 -0.0248596 1.5711801e-21)
(0.47511887 -0.023040005 -2.2754997e-20)
(0.54138329 -0.020220409 2.1872632e-20)
(0.60728875 -0.01653169 -4.2694909e-20)
(0.67196427 -0.012123774 -2.2427275e-20)
(0.73457914 -0.0071538376 6.2669692e-21)
(0.79436953 -0.0017766169 -2.6732996e-20)
(0.85068355 0.0038786165 2.6859617e-20)
(0.90310333 0.0098544592 2.3818339e-20)
(0.95126309 0.016280023 -2.6433218e-22)
(0.99251208 0.019827878 -1.6009305e-21)
(0.0060173275 -0.0018558803 -1.7505861e-20)
(0.029392314 -0.010530926 4.1353052e-20)
(0.065834886 -0.017199103 2.4134473e-20)
(0.11222456 -0.022269534 -1.2009821e-19)
(0.16637985 -0.025925051 -1.3152423e-20)
(0.22678956 -0.027964347 7.6474829e-20)
(0.29209261 -0.028302123 -3.7009936e-20)
(0.3609995 -0.026983328 -8.8120563e-21)
(0.43228132 -0.024123284 3.6052621e-20)
(0.50474683 -0.01988861 -4.5576665e-20)
(0.5772319 -0.014489394 -3.212587e-20)
(0.64860707 -0.0081687579 7.6260883e-20)
(0.71779819 -0.0011910234 4.0522644e-20)
(0.78381551 0.0061699638 -7.2043626e-20)
(0.84578709 0.013640801 1.5498526e-20)
(0.90299072 0.020953191 -3.8935626e-20)
(0.95489336 0.027857798 -1.4737048e-20)
(1.0012486 0.034196852 7.5164052e-20)
(1.0419654 0.039563825 3.2086175e-20)
(1.0753058 0.040861293 -8.5044964e-20)
(0.011810331 -0.00458672 3.7428676e-20)
(0.046866605 -0.017025031 2.3435426e-21)
(0.095388115 -0.024974294 2.2667292e-20)
(0.15389984 -0.029588487 1.0146637e-21)
(0.21992542 -0.031541706 -4.1798135e-20)
(0.29167012 -0.030930238 1.9478904e-20)
(0.36747167 -0.027931119 1.3768644e-20)
(0.44573023 -0.022834657 -5.2550707e-20)
(0.52491411 -0.015980329 6.0034942e-20)
(0.60355626 -0.0077393969 1.5226106e-20)
(0.68026534 0.0014927384 -5.738335e-20)
(0.75375463 0.01131017 -1.9379843e-20)
(0.82288006 0.021312962 9.30345e-21)
(0.88667978 0.03112333 2.475834e-20)
(0.94440817 0.040399428 -1.197268e-20)
(0.99555776 0.048844136 2.9373052e-20)
(1.0398707 0.056218894 -2.1349098e-20)
(1.0773672 0.062390602 -7.3515163e-20)
(1.1082217 0.067095501 -2.4308085e-20)
(1.1316229 0.068470425 5.0483217e-20)
(0.019104467 -0.0069760354 2.4827689e-20)
(0.068179498 -0.02227179 5.2241559e-20)
(0.13041979 -0.030414339 2.0449289e-20)
(0.20207151 -0.033425892 1.3651898e-20)
(0.28038233 -0.032558517 1.8067302e-20)
(0.36325821 -0.028275279 -4.9612357e-20)
(0.44872058 -0.021079346 -2.6773622e-20)
(0.5348611 -0.011563059 0)
(0.61987602 -0.00033536296 1.5309996e-20)
(0.70209177 0.011998047 -6.5943055e-21)
(0.78000217 0.024846029 -1.028454e-19)
(0.85231651 0.037651521 -1.6416916e-20)
(0.91800619 0.049913381 6.855127e-20)
(0.97634029 0.061205495 4.7775974e-22)
(1.0269031 0.071190604 -1.6491116e-21)
(1.0695896 0.079626843 2.2978558e-20)
(1.1045804 0.086374089 -5.3822835e-21)
(1.1323158 0.091422174 -6.3801111e-20)
(1.1533778 0.094749997 -4.7914322e-20)
(1.167766 0.095411054 7.129628e-20)
(0.027924117 -0.008741612 -3.8480213e-21)
(0.093223149 -0.025521103 -4.8437569e-21)
(0.17052824 -0.032447532 5.79027e-20)
(0.2559152 -0.032522613 1.9311285e-20)
(0.34639646 -0.027658316 -3.3368125e-20)
(0.43958934 -0.01875366 1.2386778e-20)
(0.5332242 -0.0066971184 2.7532782e-21)
(0.62514182 0.0075730461 3.5354069e-20)
(0.71336578 0.023155373 5.9331599e-21)
(0.79616022 0.03921162 -1.4070317e-20)
(0.87208797 0.054983628 6.3477021e-20)
(0.94006435 0.069817538 -6.0616386e-20)
(0.99939291 0.083186326 -1.3834174e-19)
(1.0497747 0.094704218 -5.8293185e-21)
(1.0912885 0.10413081 8.6669848e-20)
(1.1243439 0.11136431 0)
(1.1496132 0.11643032 1.064631e-20)
(1.1679622 0.11948456 -1.5973287e-20)
(1.1803339 0.12071125 -9.0530845e-21)
(1.1873033 0.11972214 2.1526593e-20)
(0.038203701 -0.0095788186 -5.1649369e-21)
(0.1216385 -0.026011412 4.4385679e-21)
(0.21492266 -0.030053984 -8.9601281e-21)
(0.314109 -0.025769069 2.897545e-20)
(0.4160511 -0.015793456 -3.0519094e-20)
(0.51813347 -0.0015193896 -1.7564215e-20)
(0.61787971 0.015739776 3.8093085e-20)
(0.71300705 0.034686256 4.7671364e-21)
(0.80153802 0.054143027 -2.5968418e-20)
(0.88188239 0.073087791 7.2941054e-20)
(0.95289921 0.090672215 3.0799369e-22)
(1.0139326 0.10624325 -8.4053612e-20)
(1.0648114 0.11935544 0)
(1.1058101 0.12976827 4.1051327e-20)
(1.1375771 0.13742862 5.6872364e-21)
(1.1610402 0.14244103 -8.0221448e-20)
(1.1773019 0.14503349 -2.0276353e-20)
(1.1875431 0.14553507 -1.2821954e-20)
(1.1929174 0.1442884 -1.5184806e-20)
(1.1942812 0.14123743 4.1619386e-20)
(0.049774641 -0.0091815301 -1.7303986e-20)
(0.15279931 -0.023028746 -3.0227465e-21)
(0.26243269 -0.022355559 3.0646901e-20)
(0.37489308 -0.012316425 3.7640089e-20)
(0.48699783 0.0036964235 -2.0435526e-20)
(0.59601261 0.023769581 -7.1689447e-20)
(0.69940602 0.046163672 -2.9329315e-20)
(0.79496682 0.069255909 8.1998048e-20)
(0.880944 0.09166395 9.1961092e-21)
(0.95613286 0.11228208 -2.574018e-20)
(1.0199144 0.13029242 1.4018807e-20)
(1.0722461 0.14516931 -4.5172835e-21)
(1.1136028 0.15666628 0)
(1.1448775 0.16478314 2.8174105e-20)
(1.1672577 0.1697178 -8.1976036e-20)
(1.1820928 0.17180974 -3.2511759e-20)
(1.1907732 0.17148497 8.3487013e-20)
(1.1946313 0.16921656 -4.6462601e-21)
(1.1948623 0.16544724 3.5961044e-21)
(1.1923756 0.16030606 2.8017434e-20)
(0.062359367 -0.0072699428 -3.2544937e-20)
(0.18581826 -0.015978535 -8.3183426e-20)
(0.31155345 -0.0087134285 1.8298459e-21)
(0.4361731 0.0083200273 7.2183267e-20)
(0.55663007 0.030997167 6.4225242e-20)
(0.67024654 0.056903454 -7.3243206e-20)
(0.77464959 0.083927389 1.423426e-22)
(0.86794313 0.11021481 8.8966228e-20)
(0.94885299 0.13430374 5.058434e-20)
(1.0167883 0.15514956 -5.6292121e-20)
(1.0718296 0.17211129 -9.5651894e-20)
(1.1146525 0.18492127 -3.2679819e-21)
(1.1464006 0.19363243 4.352169e-20)
(1.1685294 0.19854634 -6.7600199e-21)
(1.182646 0.20013272 -1.3130876e-20)
(1.1903634 0.19895085 2.004803e-20)
(1.1931875 0.19558334 4.5070114e-20)
(1.1924421 0.19059207 -4.4880655e-20)
(1.189229 0.18445755 -1.0495038e-19)
(1.1843672 0.17739904 2.5376655e-20)
(0.075541824 -0.0036212316 -3.5628664e-20)
(0.21950847 -0.0044613854 -1.7526129e-19)
(0.3604215 0.011189589 8.4753259e-20)
(0.49552479 0.036200242 9.5321613e-20)
(0.62212533 0.065802279 5.9401221e-20)
(0.73783198 0.097161126 8.8991621e-21)
(0.84068508 0.12791083 -1.0942929e-19)
(0.92936108 0.15611877 0)
(1.0032915 0.18041444 -7.1324453e-20)
(1.0626702 0.19998342 -1.5768484e-20)
(1.1083689 0.21450856 5.6456471e-20)
(1.1417862 0.22408908 1.1280697e-20)
(1.1646597 0.22913932 -4.6905833e-20)
(1.1788727 0.23027795 -5.0345696e-20)
(1.1862835 0.22822258 2.5037576e-20)
(1.1885957 0.22370149 4.6120028e-20)
(1.1872762 0.21739007 -5.7075969e-20)
(1.1835204 0.20987529 -1.1009588e-19)
(1.1782571 0.20162098 -3.0889037e-21)
(1.1721483 0.19288019 2.7624719e-20)
(0.088750909 0.0019153792 -3.8868965e-21)
(0.25238818 0.011713055 8.9430829e-20)
(0.40685265 0.037353613 -1.4959373e-20)
(0.5502811 0.070984658 -8.7183608e-20)
(0.68058359 0.10736001 4.6466341e-20)
(0.79591347 0.14338026 5.0030061e-20)
(0.89498209 0.17661197 5.7134566e-21)
(0.97726487 0.20525022 -1.0245761e-19)
(1.0430633 0.22821554 -2.582544e-21)
(1.0934368 0.24509314 5.2049921e-20)
(1.1300394 0.25601165 6.1542372e-21)
(1.1549035 0.26150309 -2.0334621e-20)
(1.1702137 0.26235502 -7.77167e-20)
(1.1781059 0.25947145 -6.3480706e-21)
(1.1805167 0.2537581 4.4555919e-20)
(1.1790912 0.24604087 3.7846884e-20)
(1.1751476 0.23701888 2.0127718e-20)
(1.1696879 0.22724723 -5.4436427e-20)
(1.1634406 0.2171345 1.2906445e-20)
(1.1568974 0.20693863 8.4215651e-20)
(-0.0013224796 0.0014518748 -8.8764708e-22)
(-0.0047606539 0.0031914662 1.9049288e-21)
(-0.010793277 0.0041038506 1.6815018e-21)
(-0.017679428 0.0044602299 -1.304321e-21)
(-0.02448883 0.0044320279 -2.2056193e-21)
(-0.030792934 0.004135302 2.3376398e-21)
(-0.036318877 0.0036546337 -8.1400391e-21)
(-0.040891309 0.0030511994 -7.0274029e-21)
(-0.044414806 0.0023685282 1.2704218e-20)
(-0.046848047 0.0016373242 -1.093633e-20)
(-0.048183635 0.00087899593 -2.0262542e-22)
(-0.048435277 0.00010822056 4.0822988e-21)
(-0.047629306 -0.00066511743 -6.7123682e-22)
(-0.045798897 -0.0014343891 2.4890425e-20)
(-0.042980446 -0.0021948358 2.7751498e-22)
(-0.03921306 -0.0029420973 -4.4255646e-20)
(-0.034540953 -0.0036715922 8.2201915e-21)
(-0.029005187 -0.0043812623 2.5583184e-20)
(-0.022616077 -0.0050696311 -4.6892959e-20)
(-0.015436049 -0.0056876832 -2.9569951e-20)
(-0.0016812564 0.0042268477 -5.6480293e-21)
(-0.0053943865 0.0092688065 9.8908008e-21)
(-0.011186786 0.011897937 -1.0463874e-20)
(-0.017484921 0.012902677 5.4328743e-21)
(-0.023457394 0.012783479 6.4603718e-21)
(-0.02872682 0.011880937 8.8878961e-22)
(-0.033056042 0.010443397 -2.6824983e-20)
(-0.036295607 0.0086504103 -2.279781e-21)
(-0.038367597 0.0066297142 2.276077e-20)
(-0.039242048 0.0044713884 -5.640565e-21)
(-0.038918627 0.0022382014 -2.4139008e-20)
(-0.037415061 -2.6865045e-05 5.3855218e-21)
(-0.03475952 -0.0022949434 2.4556259e-20)
(-0.030985299 -0.0045467713 1.121181e-20)
(-0.026127044 -0.0067686152 2.3811575e-20)
(-0.020221215 -0.0089481309 -2.1322252e-20)
(-0.013315933 -0.011072484 -2.3216934e-20)
(-0.0054626178 -0.013135108 2.2878904e-20)
(0.0034012235 -0.015121351 2.8500146e-20)
(0.013466587 -0.016862926 1.6610384e-20)
(-0.0023293299 0.0066190334 -4.5868567e-21)
(-0.0064958906 0.014445922 -4.9414062e-21)
(-0.011750505 0.018487572 8.6259343e-23)
(-0.016843136 0.019970621 3.0464888e-23)
(-0.021132167 0.019679809 7.4459825e-21)
(-0.024338797 0.018155499 1.1732957e-20)
(-0.026295174 0.015792548 -4.3221467e-21)
(-0.026902212 0.012876572 -2.1077423e-20)
(-0.026116229 0.0096110519 7.3079866e-21)
(-0.023929843 0.0061396826 1.4268212e-20)
(-0.020357272 0.0025626738 6.5718361e-21)
(-0.015425246 -0.001051375 1.9692211e-20)
(-0.009167038 -0.0046565909 1.8814572e-21)
(-0.0016181472 -0.0082228202 -3.645085e-20)
(0.0071874781 -0.011728965 1.5098428e-21)
(0.017215912 -0.015156455 -2.3348134e-20)
(0.028410267 -0.018487898 -2.6501799e-20)
(0.040695586 -0.021714599 4.9225778e-20)
(0.054255937 -0.02478327 2.7258512e-20)
(0.069777703 -0.027328811 4.4125068e-22)
(-0.0031442348 0.0084176978 -5.6881654e-21)
(-0.0077827763 0.018222278 -1.0908108e-20)
(-0.012126593 0.023200286 4.4686023e-21)
(-0.015368651 0.024897023 4.6199739e-21)
(-0.017129413 0.024312547 2.1041039e-21)
(-0.017268253 0.022148286 8.5192439e-21)
(-0.015715841 0.018918422 1.0583052e-20)
(-0.01244569 0.014995121 -1.5798774e-21)
(-0.0074646116 0.010644122 -1.272928e-20)
(-0.00079987866 0.0060535301 -3.1990471e-20)
(0.0075104315 0.0013547229 1.5147882e-22)
(0.017422536 -0.0033623113 4.4202084e-20)
(0.028891314 -0.0080378708 -1.9636725e-20)
(0.041871862 -0.012633138 -1.3242566e-20)
(0.056323605 -0.017122121 3.281329e-22)
(0.072208581 -0.02148402 3.4689515e-20)
(0.089455279 -0.025704283 -1.6281852e-20)
(0.10794713 -0.029781801 -5.6626399e-20)
(0.12799588 -0.033599883 4.8208885e-20)
(0.15099483 -0.036476135 3.4947845e-20)
(-0.0039620779 0.0094789914 -4.8596374e-22)
(-0.0088688824 0.020243926 -1.3201006e-20)
(-0.011815153 0.025551072 -3.7909193e-20)
(-0.012511779 0.027123322 -6.8677613e-21)
(-0.010890319 0.026092529 -3.3943839e-21)
(-0.0069777941 0.023273142 7.1162108e-21)
(-0.00082685838 0.019264423 -5.3643463e-21)
(0.0074970272 0.014500125 -9.8449583e-21)
(0.017920827 0.009290611 2.3967486e-20)
(0.030369015 0.0038559756 5.4022226e-21)
(0.044767745 -0.0016495993 -2.776721e-20)
(0.061044774 -0.0071203733 1.1832152e-20)
(0.079129896 -0.012486243 0)
(0.098955473 -0.017702902 1.296289e-20)
(0.12045949 -0.022743028 -1.0371458e-20)
(0.14358477 -0.027588753 -1.5421212e-20)
(0.16823195 -0.03223864 -1.0835057e-21)
(0.19422068 -0.036719909 -2.5702086e-21)
(0.22195016 -0.04085023 4.7994036e-20)
(0.25366938 -0.04348874 -1.1759897e-20)
(-0.0045954946 0.0097352823 -7.7755942e-21)
(-0.0092982221 0.020329303 2.6356386e-20)
(-0.010207091 0.025282694 -1.1709514e-20)
(-0.0075826281 0.026352399 -2.9734472e-20)
(-0.0016931625 0.024713795 -2.9233437e-20)
(0.0072475215 0.021242146 -1.625423e-20)
(0.01904737 0.0165832 -8.7976728e-22)
(0.033532498 0.01120315 6.0731633e-21)
(0.050548692 0.0054362684 2.118827e-20)
(0.069957671 -0.00047949619 7.9376659e-21)
(0.091632061 -0.0063773507 -7.6782476e-21)
(0.11545282 -0.012142907 -1.9628159e-21)
(0.14130543 -0.01770091 -4.096482e-20)
(0.16907729 -0.023005499 -1.3563794e-20)
(0.19865939 -0.028031914 2.0348619e-20)
(0.22994755 -0.032770579 -2.2607004e-20)
(0.26279134 -0.037243769 -9.5357793e-21)
(0.29692162 -0.04153574 3.1756288e-20)
(0.33275098 -0.045433826 5.2691868e-20)
(0.37343515 -0.047227003 3.6012015e-21)
(-0.0048495575 0.009191772 1.7265287e-20)
(-0.0085777853 0.018471616 1.4925114e-20)
(-0.0066197549 0.022380865 5.4171765e-20)
(0.00021674445 0.022578244 2.5219308e-20)
(0.011320573 0.020197045 1.9887267e-22)
(0.026281089 0.016120524 -4.2651133e-20)
(0.044754631 0.011000861 -2.6096563e-20)
(0.066446044 0.0053068345 1.1258811e-20)
(0.091101714 -0.0006260816 1.5465355e-20)
(0.11849922 -0.0065592561 -1.392606e-20)
(0.14843605 -0.012325912 -4.7299159e-20)
(0.1807206 -0.017812927 3.1778184e-20)
(0.21516456 -0.022947754 2.1209808e-20)
(0.25157727 -0.027689512 -2.9374643e-20)
(0.28976552 -0.032022207 1.25053e-20)
(0.32953745 -0.035951436 2.5634767e-20)
(0.37065598 -0.039533228 8.6522563e-21)
(0.41273659 -0.042939998 -1.2788804e-20)
(0.45611611 -0.046006949 -1.4498001e-20)
(0.50478501 -0.046433827 7.2854261e-21)
(-0.0045326868 0.0079145501 1.1595123e-20)
(-0.0062044695 0.014821834 -2.5100887e-20)
(-0.00033247724 0.017063737 8.5014531e-21)
(0.011752163 0.016085686 3.5810849e-20)
(0.029102701 0.012899454 5.5079304e-20)
(0.051108402 0.0083463225 2.160085e-20)
(0.077264458 0.0030464835 -6.2291451e-21)
(0.10713587 -0.0025608544 -1.3096619e-20)
(0.14034878 -0.0081633395 -6.6743354e-21)
(0.17657071 -0.013541033 3.6586589e-20)
(0.21549193 -0.018543408 -4.9783226e-21)
(0.25681129 -0.023072418 -1.7875718e-20)
(0.30022521 -0.027070549 -2.0864266e-20)
(0.34541989 -0.030513358 -5.0532868e-20)
(0.39207019 -0.033404759 2.4589191e-20)
(0.43984771 -0.035776904 -1.4917553e-20)
(0.48838846 -0.037732956 2.7636276e-20)
(0.53717797 -0.039568758 2.2338344e-20)
(0.58640966 -0.041290442 -8.8848089e-20)
(0.64071582 -0.040170524 2.5324602e-22)
(-0.0034637227 0.0060166089 2.2678976e-20)
(-0.0016908073 0.0096660339 -2.7683811e-20)
(0.0093674427 0.0097644099 -4.7067965e-20)
(0.027889233 0.0074434278 -2.871868e-20)
(0.052607387 0.0035219214 -2.1648736e-21)
(0.08270636 -0.0012485377 1.3909531e-20)
(0.11750659 -0.0063185577 -3.0183095e-21)
(0.15641397 -0.011310096 1.9206691e-20)
(0.19890575 -0.015961099 9.3894911e-21)
(0.24450336 -0.020093737 -1.2088628e-20)
(0.29274759 -0.023594661 9.5747497e-21)
(0.34318069 -0.026400164 -2.5435442e-20)
(0.3953335 -0.028485537 8.8164985e-21)
(0.44871716 -0.029858445 1.7837248e-20)
(0.50282208 -0.030554947 -2.9645659e-21)
(0.55712805 -0.030641397 1.8744276e-21)
(0.61108859 -0.030268829 -5.4560324e-22)
(0.66403683 -0.029840451 2.0889485e-20)
(0.71598885 -0.029557185 3.9955584e-21)
(0.77198264 -0.026772391 -1.9520398e-21)
(-0.0014726811 0.0036465203 2.470903e-20)
(0.0054152953 0.0034109534 6.0111722e-20)
(0.023131029 0.0011286392 -5.1244381e-20)
(0.049397113 -0.0024769426 -1.0447116e-20)
(0.082639419 -0.0068519559 2.1350235e-20)
(0.12183333 -0.011381403 2.2543408e-21)
(0.16610844 -0.015626646 -3.13996e-20)
(0.21468409 -0.019307333 7.3806003e-21)
(0.26685184 -0.022244814 7.4996015e-21)
(0.32194354 -0.024334346 -2.7794171e-20)
(0.37930385 -0.025529479 1.3658835e-21)
(0.43827303 -0.025829342 -3.9494227e-20)
(0.49817753 -0.025268256 -3.8630378e-20)
(0.55832678 -0.02390742 6.984256e-20)
(0.61801604 -0.021827602 5.9104077e-21)
(0.67653332 -0.019128217 -1.6103594e-20)
(0.73314446 -0.015968053 2.0478826e-20)
(0.78701965 -0.012651405 -9.6163396e-22)
(0.83769982 -0.0092020586 2.090039e-20)
(0.8888795 -0.0040964664 -2.1163476e-20)
(-0.0068953519 -0.0059715987 6.2144062e-20)
(0.0031269552 -0.0064930334 1.6498617e-20)
(0.014570448 -0.0069105808 -3.6764768e-20)
(0.027079279 -0.0071538526 1.7725092e-20)
(0.040376237 -0.0073064469 0)
(0.054395546 -0.0073973774 0)
(0.069073422 -0.007429599 -2.3756103e-20)
(0.084325483 -0.0074111276 -1.6945696e-20)
(0.10007621 -0.007351763 1.9741414e-20)
(0.11626152 -0.0072586735 1.8630059e-20)
(0.13282238 -0.0071373333 1.0412287e-21)
(0.14970319 -0.0069925588 -1.0409562e-20)
(0.16685213 -0.0068285489 8.5518994e-21)
(0.18422083 -0.0066488653 1.8255533e-20)
(0.20176372 -0.0064565568 -5.391627e-21)
(0.21943772 -0.0062542694 -1.0087831e-20)
(0.23720197 -0.0060443118 -4.2606787e-21)
(0.2550177 -0.0058287083 -4.2840973e-21)
(0.2728481 -0.0056092448 6.9837603e-22)
(0.29065824 -0.0053875051 1.21291e-21)
(0.30841506 -0.0051648994 2.5781712e-21)
(0.32608736 -0.0049426849 6.4924153e-21)
(0.34364584 -0.0047219825 1.4901014e-22)
(0.36106313 -0.0045037888 -3.3532235e-21)
(0.3783138 -0.004288985 1.3071001e-22)
(0.39537445 -0.0040783452 -5.5605874e-22)
(0.41222368 -0.0038725412 1.1931024e-21)
(0.42884215 -0.003672149 9.7415482e-22)
(0.44521255 -0.003477653 -1.2915623e-21)
(0.46131961 -0.0032894519 -1.0134089e-22)
(0.47715004 -0.0031078634 -3.8638478e-23)
(0.49269256 -0.0029331302 -3.3037741e-22)
(0.50793775 -0.0027654259 -4.0995061e-22)
(0.52287808 -0.0026048614 8.8750991e-23)
(0.53750781 -0.0024514913 -1.2783528e-22)
(0.55182289 -0.0023053213 -1.9844312e-22)
(0.56582097 -0.0021663151 2.258488e-22)
(0.57950133 -0.0020344018 2.5609018e-22)
(0.59286475 -0.001909486 -3.1447824e-23)
(0.60591391 -0.0017914513 -1.6304049e-22)
(0.61865221 -0.0016801897 1.6634532e-23)
(0.63108784 -0.0015755572 -2.5624086e-23)
(0.6432219 -0.0014775882 8.0289969e-23)
(0.65508629 -0.0013859134 -1.4343783e-23)
(0.66663232 -0.0013017913 -1.3317195e-22)
(0.67806653 -0.0012220323 5.3392648e-24)
(0.68887613 -0.0011587052 5.9741972e-24)
(0.70067689 -0.0010795934 -5.2007255e-24)
(0.70905684 -0.0010927753 2.6046687e-23)
(0.72645988 -0.00092203323 3.7120379e-22)
(0.023232007 -0.017578777 -1.3902814e-20)
(0.032288726 -0.019161234 -6.6676746e-20)
(0.043246289 -0.02038817 -3.2464924e-20)
(0.055238447 -0.021081508 4.0442507e-20)
(0.067872607 -0.02151975 1.5354196e-20)
(0.081163204 -0.021787081 -1.9208006e-20)
(0.095078647 -0.021884388 5.1551431e-21)
(0.10953756 -0.021833745 2.6179682e-20)
(0.12447185 -0.02166433 -1.6306771e-22)
(0.13982703 -0.021396726 -7.949577e-21)
(0.15555119 -0.021046374 -1.29146e-20)
(0.17159408 -0.020627071 -8.846153e-21)
(0.18790842 -0.020150944 1.7914411e-20)
(0.20444965 -0.019628287 9.5435003e-21)
(0.22117528 -0.019067935 -1.6242517e-20)
(0.23804473 -0.018477589 -6.0095267e-21)
(0.25501918 -0.017864002 3.1136005e-21)
(0.27206149 -0.017233115 8.1464997e-21)
(0.2891362 -0.016590191 6.9337235e-21)
(0.30620943 -0.015939913 -7.0608203e-21)
(0.32324898 -0.015286467 -3.3592573e-21)
(0.34022433 -0.014633595 1.5506835e-21)
(0.35710668 -0.013984641 6.3874227e-22)
(0.37386904 -0.013342589 1.2409641e-21)
(0.39048627 -0.012710081 2.336351e-22)
(0.40693511 -0.012089444 -3.6914301e-22)
(0.42319425 -0.011482702 -7.4571413e-22)
(0.43924432 -0.010891597 1.0610529e-21)
(0.45506792 -0.010317595 8.6554721e-22)
(0.47064963 -0.0097619105 -2.6195674e-22)
(0.48597593 -0.0092255143 5.9204647e-22)
(0.50103524 -0.0087091544 -2.2441047e-22)
(0.51581783 -0.008213372 -4.0876996e-22)
(0.53031577 -0.0077385211 -6.201557e-22)
(0.54452288 -0.0072847876 4.0929577e-22)
(0.55843467 -0.0068522102 -1.0423753e-22)
(0.57204829 -0.0064407022 2.1640821e-22)
(0.58536248 -0.0060500733 -4.6407497e-22)
(0.5983775 -0.0056800586 4.4204977e-22)
(0.61109545 -0.0053303302 6.0799121e-23)
(0.62351917 -0.0050005855 -6.1218328e-23)
(0.63565627 -0.0046904119 2.1176034e-22)
(0.64750728 -0.0043999318 2.8408952e-22)
(0.65910332 -0.0041280562 2.1495487e-22)
(0.67039575 -0.003878564 2.2867137e-22)
(0.68158821 -0.0036419417 -1.8082596e-23)
(0.69217404 -0.0034542109 1.1682006e-22)
(0.70374666 -0.003219339 1.0293686e-22)
(0.71195689 -0.0032590634 -2.0367523e-22)
(0.72905628 -0.0027520729 -1.103362e-23)
(0.081783844 -0.02813466 1.0237468e-20)
(0.088929373 -0.030787928 3.8292285e-21)
(0.098814752 -0.032769688 -1.3704022e-20)
(0.10974158 -0.033834889 -1.6209222e-21)
(0.12103281 -0.034520749 1.601362e-20)
(0.13285926 -0.034961523 -1.5550389e-20)
(0.14526029 -0.035136793 -3.1344954e-20)
(0.15815662 -0.035076883 1.53084e-20)
(0.17149133 -0.034829592 1.9035127e-20)
(0.18522766 -0.034426798 -1.2076607e-20)
(0.19932663 -0.033891409 1.0431553e-21)
(0.21374724 -0.033244458 8.4322341e-21)
(0.22845005 -0.032504794 -1.5728435e-20)
(0.24339707 -0.031688484 3.7314109e-21)
(0.25855111 -0.03080938 7.783928e-21)
(0.27387581 -0.029879665 -4.8846537e-22)
(0.28933574 -0.028910112 -5.4894807e-23)
(0.30489653 -0.027910277 -7.6230856e-21)
(0.32052488 -0.026888685 4.3964383e-21)
(0.33618866 -0.025852976 8.6498318e-21)
(0.35185703 -0.02481002 -3.8921709e-21)
(0.3675005 -0.023765991 -2.1734948e-21)
(0.3830911 -0.022726438 8.9171776e-22)
(0.39860239 -0.021696329 -1.771115e-21)
(0.41400959 -0.020680088 1.3120388e-21)
(0.42928967 -0.019681622 6.9433923e-22)
(0.44442133 -0.018704347 1.7836532e-21)
(0.45938512 -0.017751214 -2.1595237e-21)
(0.4741634 -0.016824725 2.4503818e-21)
(0.48874039 -0.01592696 5.885964e-22)
(0.50310212 -0.015059603 6.0193303e-22)
(0.51723646 -0.014223965 3.0240294e-22)
(0.531133 -0.013421018 1.0085083e-21)
(0.54478309 -0.012651418 -1.5474326e-21)
(0.55817975 -0.011915547 4.3000876e-22)
(0.57131761 -0.011213538 2.1422833e-22)
(0.58419289 -0.010545317 -7.7436852e-23)
(0.59680337 -0.0099106354 1.9374724e-23)
(0.6091483 -0.0093091197 -3.9936151e-22)
(0.62122874 -0.0087402899 2.2115143e-22)
(0.63304647 -0.008203706 -3.0079445e-23)
(0.64460797 -0.0076987428 5.3393189e-22)
(0.65591282 -0.0072256604 -2.4779173e-22)
(0.66699058 -0.0067827059 3.8035723e-23)
(0.67779277 -0.0063761786 7.2823763e-23)
(0.68851758 -0.0059904165 -9.2325272e-23)
(0.69866996 -0.0056848001 -1.5500162e-22)
(0.70980056 -0.0053014467 5.0616985e-22)
(0.71768136 -0.0053679915 1.8099306e-22)
(0.73419184 -0.0045405048 -8.5126535e-22)
(0.1658768 -0.036900445 1.8039741e-21)
(0.17019345 -0.040608268 -1.1800289e-20)
(0.17828093 -0.043264451 6.5956751e-21)
(0.18753157 -0.044610606 -1.4043144e-20)
(0.19678216 -0.045510089 -2.0755369e-21)
(0.20640648 -0.04613691 9.9395366e-21)
(0.21656303 -0.046426309 -1.0862463e-20)
(0.2271714 -0.04640752 1.1411845e-21)
(0.23818273 -0.046144418 1.3349471e-20)
(0.24958318 -0.045677536 3.8077178e-21)
(0.26135065 -0.045034045 -6.3696573e-21)
(0.27345501 -0.044239588 -3.2052514e-21)
(0.28586585 -0.043317927 -5.5527696e-21)
(0.29855292 -0.042289598 -6.77225e-21)
(0.31148513 -0.041172466 2.8012814e-21)
(0.32463089 -0.039982434 3.0942219e-22)
(0.33795857 -0.038733754 1.562668e-21)
(0.35143675 -0.03743923 -3.3821888e-21)
(0.36503447 -0.036110408 -4.5670388e-21)
(0.37872139 -0.034757737 2.5139249e-21)
(0.39246805 -0.03339069 3.502181e-21)
(0.40624597 -0.032017852 -1.8265896e-21)
(0.42002787 -0.030646988 1.6806325e-21)
(0.4337878 -0.02928509 -5.0623883e-22)
(0.44750122 -0.02793842 -4.286826e-21)
(0.46114512 -0.02661254 -3.0592673e-21)
(0.47469808 -0.025312341 -2.896259e-22)
(0.48814035 -0.024042071 3.1641666e-22)
(0.50145385 -0.022805358 -2.2056507e-21)
(0.51462221 -0.021605249 -1.0602106e-21)
(0.52763076 -0.020444236 2.1630185e-22)
(0.54046651 -0.019324295 -1.3900447e-21)
(0.55311815 -0.018246924 -6.0699498e-23)
(0.56557598 -0.017213186 -5.0708194e-22)
(0.5778319 -0.016223754 -4.4035005e-22)
(0.58987936 -0.015278958 -6.8444977e-22)
(0.60171331 -0.01437883 -1.0490804e-21)
(0.61333022 -0.013523162 -1.3701072e-23)
(0.62472796 -0.012711563 -3.511898e-24)
(0.63590621 -0.011943494 -6.132815e-22)
(0.64686531 -0.011218464 -1.9857175e-23)
(0.65761026 -0.010535722 -4.1964349e-22)
(0.6681393 -0.0098957369 -6.1485725e-22)
(0.67847991 -0.0092961856 4.8953187e-22)
(0.68858388 -0.0087458632 1.3732797e-23)
(0.69864171 -0.0082232863 2.4160458e-22)
(0.7081751 -0.0078101054 -1.7717933e-22)
(0.71867316 -0.0072900917 -3.4367855e-22)
(0.72608263 -0.0073835342 -1.7051902e-23)
(0.74174743 -0.0062612581 4.8473653e-22)
(0.27152103 -0.043080372 -2.2872099e-20)
(0.27210015 -0.047817278 4.9873965e-20)
(0.27751387 -0.051056244 1.0719673e-20)
(0.28438326 -0.05261841 -1.6656757e-20)
(0.29088695 -0.053733993 -2.4819515e-21)
(0.29758764 -0.054593557 2.3780647e-21)
(0.30481043 -0.055071262 -2.0854151e-21)
(0.31247531 -0.055184909 -4.8657203e-21)
(0.32053016 -0.05500742 -4.1625506e-21)
(0.3289828 -0.05458468 -1.2613189e-20)
(0.33782953 -0.053945707 1.888887e-20)
(0.34705036 -0.053118058 7.0023365e-21)
(0.35662249 -0.052128249 -1.7136389e-20)
(0.36652229 -0.050999909 9.9699568e-21)
(0.37672398 -0.049753983 7.9661473e-21)
(0.38719987 -0.048409407 -3.8569511e-22)
(0.3979213 -0.046983446 -2.8079577e-21)
(0.40885909 -0.045491872 -4.2703379e-21)
(0.41998394 -0.043949108 -1.5957145e-21)
(0.43126668 -0.042368366 -1.4103446e-21)
(0.44267864 -0.040761742 -3.3662111e-21)
(0.45419184 -0.039140299 0)
(0.46577926 -0.037514118 -1.4937394e-21)
(0.47741495 -0.035892338 3.9886457e-21)
(0.4890742 -0.034283196 5.6909775e-21)
(0.50073368 -0.032694049 -9.088556e-22)
(0.5123715 -0.031131409 -3.2915717e-21)
(0.52396727 -0.029600966 3.4613454e-21)
(0.53550217 -0.028107625 4.3102106e-23)
(0.54695896 -0.026655541 3.7767018e-21)
(0.558322 -0.025248156 -5.0755941e-22)
(0.56957719 -0.02388825 1.8015585e-21)
(0.58071206 -0.022577987 -9.0730728e-22)
(0.59171563 -0.021318969 4.1286475e-22)
(0.60257844 -0.020112291 -5.3851322e-22)
(0.61329253 -0.018958603 5.8460413e-22)
(0.62385136 -0.017858175 5.3708298e-22)
(0.63424987 -0.016810952 4.5137021e-22)
(0.64448434 -0.015816648 -1.1129055e-21)
(0.65455282 -0.014874776 7.9613749e-22)
(0.66445405 -0.013984902 -4.1877806e-22)
(0.67419125 -0.013146251 -1.3619515e-21)
(0.68376118 -0.012359595 1.7385579e-21)
(0.69318886 -0.011622151 -5.519089e-23)
(0.70242658 -0.010945164 -1.9772161e-22)
(0.71165523 -0.010301775 -7.0655458e-24)
(0.72041788 -0.0097943875 -1.941972e-22)
(0.73012581 -0.0091532397 -5.9087345e-22)
(0.73694724 -0.009273414 7.8729873e-22)
(0.75154979 -0.0078903253 -4.9975082e-23)
(0.39372215 -0.045723151 -1.9186696e-20)
(0.38970119 -0.05152011 1.3232224e-20)
(0.39147018 -0.055293543 3.8056993e-21)
(0.39517268 -0.057097787 -8.0996627e-21)
(0.39825723 -0.058512588 1.2699173e-20)
(0.40138149 -0.059706577 8.1886653e-21)
(0.40506185 -0.060497114 -1.2880534e-20)
(0.40923566 -0.060887311 -6.3256567e-21)
(0.41383212 -0.060946294 1.3186061e-20)
(0.41886866 -0.060719075 -1.6484139e-20)
(0.42435732 -0.060235284 -1.4482115e-20)
(0.43028618 -0.059522936 1.5226363e-20)
(0.43663644 -0.058609478 7.006421e-21)
(0.4433879 -0.057520471 -5.1509146e-21)
(0.45051762 -0.056279375 -1.3722867e-21)
(0.45799987 -0.054907849 -3.6238365e-21)
(0.46580718 -0.053426019 4.8465386e-21)
(0.47391108 -0.051852616 3.6868751e-21)
(0.48228259 -0.050205039 -3.1332928e-21)
(0.49089261 -0.048499425 3.1245651e-21)
(0.49971227 -0.046750707 2.9499717e-21)
(0.5087132 -0.044972655 -3.3718438e-21)
(0.51786783 -0.043177911 3.6731261e-22)
(0.52714958 -0.041378009 -3.1917886e-21)
(0.53653296 -0.039583402 8.1202463e-21)
(0.54599376 -0.037803481 6.5105955e-21)
(0.55550915 -0.036046605 1.0356677e-21)
(0.56505768 -0.034320128 -1.8371375e-21)
(0.57461944 -0.032630436 4.2540641e-21)
(0.58417597 -0.030982987 8.0382435e-21)
(0.59371037 -0.029382366 2.3968188e-21)
(0.60320722 -0.027832332 3.6976066e-21)
(0.61265264 -0.026335884 2.1378287e-21)
(0.6220342 -0.024895323 8.5110098e-22)
(0.63134094 -0.023512323 -2.466672e-22)
(0.64056332 -0.022188003 3.0786566e-21)
(0.64969322 -0.020923006 6.9344421e-22)
(0.65872393 -0.019717573 3.183316e-22)
(0.66765006 -0.018571649 5.700205e-23)
(0.67646798 -0.01748492 1.2023868e-21)
(0.68517469 -0.01645713 4.2609763e-23)
(0.69377162 -0.015487595 5.6990943e-22)
(0.70225401 -0.014577474 -1.2658241e-22)
(0.71064418 -0.013723658 -3.9243015e-22)
(0.71889525 -0.012939764 -1.9696961e-22)
(0.72717703 -0.012194089 -5.4005666e-22)
(0.73505791 -0.011607939 2.3207851e-22)
(0.74385793 -0.010863809 -1.5937117e-22)
(0.75000528 -0.011010312 -4.5008337e-22)
(0.76337781 -0.0094063949 2.7982238e-22)
(0.52637518 -0.043908288 3.4552335e-21)
(0.51711105 -0.050807036 -1.9324236e-20)
(0.51430033 -0.055123221 -2.5705643e-21)
(0.51406166 -0.057357345 5.6913208e-21)
(0.51319853 -0.059295268 3.5603982e-21)
(0.51227319 -0.061013389 5.6330026e-22)
(0.51196174 -0.062302996 7.1303519e-21)
(0.51226158 -0.063168226 8.1273978e-21)
(0.51308042 -0.063664192 1.0096541e-20)
(0.51442273 -0.063826256 -1.1830012e-20)
(0.5163059 -0.063683017 -2.2864892e-20)
(0.51872309 -0.063263038 -4.4808352e-21)
(0.5216558 -0.062594262 1.6767673e-20)
(0.52508302 -0.061703785 1.3375793e-20)
(0.52898135 -0.060617624 -5.7547858e-21)
(0.53332454 -0.059360456 9.2773151e-22)
(0.53808429 -0.057955634 -4.1637782e-21)
(0.5432311 -0.056425242 3.0536187e-21)
(0.54873485 -0.054790082 -2.9332234e-22)
(0.55456524 -0.053069657 -1.9641783e-21)
(0.5606921 -0.051282159 8.4693411e-21)
(0.56708578 -0.049444482 -4.8131037e-22)
(0.57371733 -0.047572221 5.9311701e-22)
(0.58055875 -0.045679676 -4.7079857e-22)
(0.58758317 -0.043779862 -4.5030862e-21)
(0.59476494 -0.041884528 4.3954984e-21)
(0.60207974 -0.040004179 1.8470461e-21)
(0.60950469 -0.038148108 -3.4382397e-21)