/*--------------------------------*- C++ -*----------------------------------*\
  =========                 |
  \\      /  F ield         | OpenFOAM: The Open Source CFD Toolbox
   \\    /   O peration     | Website:  https://openfoam.org
    \\  /    A nd           | Version:  6
     \\/     M anipulation  |
\*---------------------------------------------------------------------------*/
FoamFile
{
    version     2.0;
    format      ascii;
    class       volVectorField;
    location    "204";
    object      UMean;
}
// * * * * * * * * * * * * * * * * * * * * * * * * * * * * * * * * * * * * * //

dimensions      [0 1 -1 0 0 0 0];

internalField   nonuniform List<vector> 
9200
(
(0.0017153693 0.00090281127 -6.0985775e-20)
(0.015923528 -0.0036880109 4.8395858e-20)
(0.042274645 -0.0084490252 -3.9913184e-20)
(0.078051563 -0.013170161 -6.3242244e-20)
(0.12136647 -0.017633288 1.9633682e-20)
(0.17096013 -0.021404617 3.4375508e-20)
(0.22573275 -0.024197732 -1.285607e-20)
(0.28466833 -0.025871112 9.7259282e-21)
(0.34681732 -0.02636992 1.7915093e-20)
(0.41126524 -0.025702668 1.5834586e-21)
(0.47710954 -0.023929934 -2.293961e-20)
(0.54345116 -0.021153339 2.2043594e-20)
(0.60939809 -0.017504568 -4.3017998e-20)
(0.67407856 -0.013134225 -2.2611137e-20)
(0.73666237 -0.0082000275 6.318475e-21)
(0.79638738 -0.0028571113 -2.6960635e-20)
(0.85260451 0.0027649305 2.709311e-20)
(0.90489942 0.0087080973 2.4042258e-20)
(0.95291103 0.015101059 -2.5936146e-22)
(0.99399907 0.018624447 -1.5912269e-21)
(0.0061260984 -0.0019283245 -1.7569335e-20)
(0.029737729 -0.010750117 4.1581262e-20)
(0.066426936 -0.017538764 2.4213822e-20)
(0.1130675 -0.022709832 -1.2072379e-19)
(0.16746652 -0.026452603 -1.3212887e-20)
(0.22810537 -0.028567613 7.6926568e-20)
(0.29361648 -0.02897126 -3.7227938e-20)
(0.36270446 -0.027710371 -8.8719754e-21)
(0.43413534 -0.024901986 3.6303539e-20)
(0.50671391 -0.020714225 -4.5906055e-20)
(0.57927321 -0.015358463 -3.237996e-20)
(0.65068237 -0.0090788705 7.6877766e-20)
(0.71986726 -0.0021405497 4.0839455e-20)
(0.78583978 0.0051821615 -7.2621788e-20)
(0.84773103 0.012615666 1.562289e-20)
(0.90482317 0.019891773 -3.9248688e-20)
(0.95658847 0.026761501 -1.4873498e-20)
(1.0027862 0.033067552 7.5759588e-20)
(1.0433314 0.038405034 3.2433635e-20)
(1.0764958 0.039684461 -8.5267672e-20)
(0.011945651 -0.0046640966 3.752182e-20)
(0.047280736 -0.017251622 2.3206278e-21)
(0.0960808 -0.025318599 2.2713575e-20)
(0.15486486 -0.030027912 1.0194253e-21)
(0.22114554 -0.032061348 -4.1943732e-20)
(0.29312046 -0.031518075 1.9607201e-20)
(0.36912087 -0.028577705 1.3818163e-20)
(0.44754133 -0.023533091 -5.2866723e-20)
(0.52684593 -0.016725897 6.0429155e-20)
(0.60556496 -0.0085291522 1.5363916e-20)
(0.68230617 0.00066038568 -5.7821569e-20)
(0.75578381 0.010435891 -1.9542249e-20)
(0.82485662 0.020396959 9.3381772e-21)
(0.88856721 0.030165769 2.4945078e-20)
(0.94617582 0.039400831 -1.2059421e-20)
(0.99718178 0.047805703 2.9585623e-20)
(1.0413345 0.055142727 -2.1514123e-20)
(1.0786612 0.061279818 -7.3997299e-20)
(1.1093432 0.065954853 -2.4380843e-20)
(1.132577 0.067308889 5.0742424e-20)
(0.019267557 -0.0070547721 2.4873133e-20)
(0.068663187 -0.022495971 5.2412479e-20)
(0.13121125 -0.030748904 2.0529977e-20)
(0.20315216 -0.033846936 1.3745978e-20)
(0.2817233 -0.033050902 1.8179833e-20)
(0.36482327 -0.028827743 -4.9881345e-20)
(0.45046758 -0.021683992 -2.69338e-20)
(0.5367434 -0.012215046 0)
(0.62184447 -0.0010322723 1.5507506e-20)
(0.70409685 0.011256886 -6.6997812e-21)
(0.7819962 0.024060201 -1.0354345e-19)
(0.85425582 0.036820172 -1.6508194e-20)
(0.91985294 0.049035813 6.9041438e-20)
(0.97806388 0.060281669 4.7681189e-22)
(1.028481 0.070221505 -1.6599945e-21)
(1.0710075 0.078614694 2.312371e-20)
(1.1058318 0.085322393 -5.398996e-21)
(1.1334013 0.090335646 -6.4195081e-20)
(1.1543037 0.093634481 -4.8207605e-20)
(1.1685437 0.094273402 7.1548717e-20)
(0.028115275 -0.0088177972 -3.8378715e-21)
(0.093774594 -0.025732575 -4.8036864e-21)
(0.17141255 -0.032757796 5.8087972e-20)
(0.25709994 -0.032908227 1.9421025e-20)
(0.34784004 -0.02810544 -3.3569001e-20)
(0.44124377 -0.019253172 1.241847e-20)
(0.53503693 -0.0072438193 2.7693408e-21)
(0.62705784 0.0069810977 3.5602118e-20)
(0.7153302 0.022517832 5.9719985e-21)
(0.79812082 0.038526829 -1.4193365e-20)
(0.87399769 0.054249516 6.3949406e-20)
(0.94188329 0.069032415 -6.0986994e-20)
(1.0010897 0.082349514 -1.3921965e-19)
(1.0513273 0.093816476 -5.8651442e-21)
(1.092684 0.10319453 8.7170109e-20)
(1.1255775 0.11038346 0)
(1.1506877 0.11541027 1.0721276e-20)
(1.1688855 0.11843175 -1.6046287e-20)
(1.181118 0.11963264 -9.1175705e-21)
(1.1879624 0.11862369 2.1602556e-20)
(0.038422166 -0.0096483673 -5.1271266e-21)
(0.12225309 -0.02619992 4.450039e-21)
(0.2158899 -0.030326045 -8.9881536e-21)
(0.31538158 -0.026103723 2.9046963e-20)
(0.41757441 -0.016179819 -3.0679224e-20)
(0.51984817 -0.0019518317 -1.7654796e-20)
(0.61972416 0.015262787 3.8196697e-20)
(0.71492012 0.034163261 4.7682155e-21)
(0.80346199 0.053570899 -2.6186254e-20)
(0.88376573 0.072462981 7.3377973e-20)
(0.95469884 0.089991791 2.7729553e-22)
(1.0156153 0.10550569 -8.4566699e-20)
(1.0663545 0.11856114 0)
(1.1072008 0.1289197 4.1265872e-20)
(1.1388118 0.13653021 5.7104985e-21)
(1.1621223 0.14149883 -8.0598882e-20)
(1.1782406 0.14405465 -2.037436e-20)
(1.1883507 0.14452738 -1.2872324e-20)
(1.193608 0.14325951 -1.525239e-20)
(1.1948691 0.14019293 4.1789814e-20)
(0.05001855 -0.0092404009 -1.7307686e-20)
(0.15346975 -0.023184656 -3.136887e-21)
(0.26346929 -0.022577001 3.0684771e-20)
(0.37623351 -0.012587039 3.7662234e-20)
(0.48857486 0.003382944 -2.0505295e-20)
(0.59775687 0.023414228 -7.2048595e-20)
(0.70124897 0.045763708 -2.9518884e-20)
(0.79684397 0.068806426 8.2434305e-20)
(0.88279801 0.091159502 9.2840043e-21)
(0.95791603 0.11171806 -2.5863387e-20)
(1.0215903 0.1296661 1.4072342e-20)
(1.0737898 0.14448038 -4.545407e-21)
(1.1150006 0.15591706 0)
(1.1461257 0.16397837 2.8312086e-20)
(1.1683598 0.16886411 -8.2353267e-20)
(1.1830582 0.17091501 -3.2659067e-20)
(1.1916142 0.17055766 8.3832802e-20)
(1.1953618 0.16826512 -4.6959121e-21)
(1.1954962 0.16447939 3.6017903e-21)
(1.1929254 0.15932704 2.8146209e-20)
(0.062625785 -0.0073143781 -3.2563463e-20)
(0.1865348 -0.01609342 -8.3405063e-20)
(0.31264296 -0.0088740519 1.7232383e-21)
(0.43755878 0.0081233775 7.2470631e-20)
(0.55823339 0.030764827 6.4481248e-20)
(0.67199017 0.056630997 -7.3480421e-20)
(0.77646078 0.083607661 2.0277265e-22)
(0.86975708 0.10983987 8.9455771e-20)
(0.95061566 0.13386666 5.0834006e-20)
(1.0184582 0.15464574 -5.6586914e-20)
(1.0733783 0.1715392 -9.6123526e-20)
(1.1160639 0.18428267 -3.2834769e-21)
(1.1476693 0.19293203 4.3719832e-20)
(1.1696585 0.19779117 -6.7819678e-21)
(1.1836441 0.19933132 -1.3168134e-20)
(1.1912428 0.19811236 2.0098812e-20)
(1.1939615 0.19471681 4.5239209e-20)
(1.193124 0.18970589 -4.502583e-20)
(1.1898308 0.18355894 -1.0532402e-19)
(1.1848991 0.17649282 2.5491771e-20)
(0.075826793 -0.0036479938 -3.5720911e-20)
(0.22025928 -0.0045285346 -1.7545678e-19)
(0.36154524 0.011097218 8.5129978e-20)
(0.49693169 0.036083944 9.5684695e-20)
(0.62372766 0.065655392 5.9604599e-20)
(0.73954706 0.096973471 8.9401677e-21)
(0.84243887 0.12767114 -1.0988266e-19)
(0.93109129 0.15581684 0)
(1.0049496 0.18004289 -7.169063e-20)
(1.0642222 0.19953866 -1.5848955e-20)
(1.1097948 0.2139911 5.6705673e-20)
(1.1430778 0.22350315 1.1324385e-20)
(1.1658181 0.22849204 -4.7089497e-20)
(1.1799055 0.22957832 -5.052543e-20)
(1.1872023 0.22748041 2.5144179e-20)
(1.1894133 0.22292649 4.6304425e-20)
(1.1880051 0.21659118 -5.728573e-20)
(1.1841721 0.20906032 -1.1046331e-19)
(1.1788414 0.20079629 -3.0800247e-21)
(1.1726731 0.1920502 2.7706931e-20)
(0.089049505 0.001908839 -3.9355138e-21)
(0.25315981 0.011698331 8.9646564e-20)
(0.40799065 0.037333896 -1.4743313e-20)
(0.5516851 0.070951433 -8.7592233e-20)
(0.68215933 0.10729903 4.6651426e-20)
(0.79757585 0.14327575 5.0151549e-20)
(0.8966585 0.17644925 5.738729e-21)
(0.97889771 0.20501784 -1.028777e-19)
(1.0446109 0.22790671 -2.5935848e-21)
(1.0948731 0.24470613 5.2269749e-20)
(1.1313518 0.25554945 6.1782278e-21)
(1.1560902 0.2609724 -2.0422391e-20)
(1.1712803 0.26176503 -7.8002731e-20)
(1.1790625 0.25883249 -6.3612441e-21)
(1.1813753 0.25308056 4.4701283e-20)
(1.179864 0.24533435 3.7964145e-20)
(1.1758455 0.23629174 2.0175238e-20)
(1.1703201 0.22650638 -5.4641359e-20)
(1.1640148 0.21638538 1.2899194e-20)
(1.1574194 0.20618529 8.4436926e-20)
(-0.0013266332 0.0014543221 -8.5412678e-22)
(-0.0047627427 0.0031920422 1.8822167e-21)
(-0.010796393 0.004099294 1.7955119e-21)
(-0.017668786 0.004448956 -1.1427198e-21)
(-0.024453079 0.0044130658 -2.3185114e-21)
(-0.030720909 0.0041081875 2.4501766e-21)
(-0.036199117 0.0036192502 -8.3205725e-21)
(-0.040712741 0.0030076251 -7.1795249e-21)
(-0.044167031 0.0023169462 1.2922033e-20)
(-0.04652135 0.0015779728 -1.1106006e-20)
(-0.047768961 0.00081213893 -2.0323599e-22)
(-0.047924199 3.4128212e-05 4.1412876e-21)
(-0.04701399 -0.00074617925 -6.7667872e-22)
(-0.045072051 -0.0015221651 2.5184928e-20)
(-0.042135277 -0.0022890846 2.7374838e-22)
(-0.038243226 -0.0030425914 -4.4735109e-20)
(-0.033440538 -0.0037781138 8.3170898e-21)
(-0.02776867 -0.0044935981 2.5827563e-20)
(-0.021238205 -0.0051875708 -4.7325199e-20)
(-0.013911997 -0.0058108721 -2.9830204e-20)
(-0.001685387 0.0042333843 -5.6873253e-21)
(-0.0053939465 0.0092689015 9.7522493e-21)
(-0.011182276 0.011882369 -1.0502587e-20)
(-0.017460313 0.012866984 5.647517e-21)
(-0.023400668 0.01272492 6.6946788e-21)
(-0.028626387 0.011798232 9.1374494e-22)
(-0.032900198 0.010336266 -2.7438461e-20)
(-0.036073164 0.0085191304 -2.3142906e-21)
(-0.038068115 0.0064748666 2.3129985e-20)
(-0.038855826 0.0042937148 -5.7248932e-21)
(-0.03843667 0.0020385189 -2.4476833e-20)
(-0.036829051 -0.0002477168 5.4549235e-21)
(-0.034061787 -0.0025361322 2.4829319e-20)
(-0.030168781 -0.0048074884 1.1340237e-20)
(-0.025185256 -0.0070480852 2.4089817e-20)
(-0.019148221 -0.0092456116 -2.1542812e-20)
(-0.012106339 -0.011387256 -2.3436423e-20)
(-0.0041116079 -0.013466459 2.3119759e-20)
(0.0048981702 -0.015468548 2.874036e-20)
(0.015114512 -0.017224815 1.6717801e-20)
(-0.0023330118 0.0066273924 -4.6195511e-21)
(-0.0064897304 0.01444105 -4.8422733e-21)
(-0.011730372 0.018455875 5.4845504e-23)
(-0.016790828 0.019905576 -1.2100655e-22)
(-0.021034509 0.019577383 7.553189e-21)
(-0.024183527 0.018013887 1.188475e-20)
(-0.026070274 0.015611477 -4.4073531e-21)
(-0.026596425 0.012656625 -2.1387504e-20)
(-0.025719212 0.0093532789 7.416974e-21)
(-0.023432122 0.0058453862 1.4468034e-20)
(-0.0197502 0.0022332819 6.6767126e-21)
(-0.014700977 -0.0014143887 1.9910152e-20)
(-0.0083185109 -0.0050517483 1.9030459e-21)
(-0.00063907676 -0.0086486614 -3.6818514e-20)
(0.0083026099 -0.01218406 1.5536023e-21)
(0.018471853 -0.015639411 -2.3519991e-20)
(0.029810997 -0.01899736 -2.6791159e-20)
(0.042244159 -0.02224923 4.9709975e-20)
(0.055954851 -0.025341684 2.7529913e-20)
(0.071631306 -0.02790896 4.8657851e-22)
(-0.0031463966 0.0084246248 -5.7457188e-21)
(-0.0077666241 0.018206038 -1.1253064e-20)
(-0.012082184 0.023145197 4.4841397e-21)
(-0.015275129 0.024795717 4.6873035e-21)
(-0.016972243 0.024160412 2.1174003e-21)
(-0.017034491 0.021943433 8.6895832e-21)
(-0.015393305 0.018660855 1.0763672e-20)
(-0.012023339 0.014685894 -1.6123947e-21)
(-0.0069325985 0.010284865 -1.2906597e-20)
(-0.00014946025 0.0056461936 -3.240537e-20)
(0.0082869383 0.00090142522 1.6421416e-22)
(0.018331776 -0.0038593802 4.470024e-20)
(0.029938881 -0.0085764918 -1.9814926e-20)
(0.043062287 -0.013211084 -1.3377114e-20)
(0.05766032 -0.017737173 2.9609692e-22)
(0.073693907 -0.022133984 3.5028826e-20)
(0.091090408 -0.026387008 -1.6488308e-20)
(0.1097319 -0.030495205 -5.7093699e-20)
(0.12992885 -0.034341965 4.8556299e-20)
(0.15307736 -0.037244215 3.5222873e-20)
(-0.0039608935 0.0094808763 -4.5725854e-22)
(-0.0088372133 0.020209259 -1.329572e-20)
(-0.011737064 0.025464638 -3.8444365e-20)
(-0.012363828 0.02697832 -7.0303319e-21)
(-0.010656766 0.025884628 -3.3619878e-21)
(-0.006645299 0.023000922 7.2315153e-21)
(-0.00038350134 0.018928507 -5.4664363e-21)
(0.0080615179 0.014102252 -9.9925074e-21)
(0.018615122 0.0088331301 2.4261435e-20)
(0.031200317 0.0033415856 5.45134e-21)
(0.045741834 -0.0022180141 -2.8119321e-20)
(0.062166012 -0.0077398346 1.1939321e-20)
(0.08040121 -0.013153722 0)
(0.10037831 -0.018415336 1.3087037e-20)
(0.12203375 -0.023497328 -1.046668e-20)
(0.14530876 -0.028381826 -1.5575323e-20)
(0.17010243 -0.033067414 -1.0137935e-21)
(0.19623264 -0.03758145 -2.6202555e-21)
(0.22409627 -0.041742079 4.8256596e-20)
(0.25594471 -0.044408335 -1.1943247e-20)
(-0.0045884431 0.0097288028 -7.8097014e-21)
(-0.0092443406 0.020269799 2.6617953e-20)
(-0.010085221 0.02515784 -1.1881547e-20)
(-0.0073673735 0.026157354 -3.0056484e-20)
(-0.0013681125 0.024445417 -2.9473013e-20)
(0.0076955061 0.020900079 -1.6443678e-20)
(0.019629249 0.016169061 -9.0665926e-22)
(0.034256968 0.010719596 6.1475377e-21)
(0.051422324 0.0048865224 2.1411797e-20)
(0.070985065 -0.0010918955 8.0207681e-21)
(0.092815908 -0.0070487002 -7.7481926e-21)
(0.1167939 -0.012869424 -1.9560755e-21)
(0.14280261 -0.018478766 -4.1359037e-20)
(0.17072742 -0.023830826 -1.3687492e-20)
(0.20045731 -0.028900802 2.0575787e-20)
(0.23188597 -0.033679084 -2.283237e-20)
(0.26486101 -0.038187911 -9.6157741e-21)
(0.29911126 -0.042511666 3.1943341e-20)
(0.33504595 -0.046438734 5.3007429e-20)
(0.37582126 -0.048259475 3.6360634e-21)
(-0.0048336059 0.0091743966 1.7333804e-20)
(-0.0084941282 0.018382612 1.4990105e-20)
(-0.0064435358 0.022212764 5.4601972e-20)
(0.00051176036 0.02232937 2.5479644e-20)
(0.011750576 0.019866283 2.0119764e-22)
(0.026858126 0.015709142 -4.3114946e-20)
(0.045487761 0.010511831 -2.6349986e-20)
(0.067341368 0.0047439608 1.137154e-20)
(0.092162574 -0.0012585816 1.5616577e-20)
(0.11972639 -0.007256956 -1.4041541e-20)
(0.14982783 -0.013084305 -4.7762654e-20)
(0.18227279 -0.018627497 3.2085199e-20)
(0.21687052 -0.023814 2.1378869e-20)
(0.25342784 -0.028602943 -2.9633864e-20)
(0.29174907 -0.032978327 1.2626868e-20)
(0.33163985 -0.03694572 2.5839068e-20)
(0.37286091 -0.040561048 8.7346877e-21)
(0.4150257 -0.043996696 -1.2934457e-20)
(0.45846726 -0.047089376 -1.4541743e-20)
(0.50717324 -0.047542569 7.4862463e-21)
(-0.0045045271 0.0078848219 1.1666384e-20)
(-0.0060830489 0.014701094 -2.5349401e-20)
(-9.125283e-05 0.016850744 8.4845931e-21)
(0.012138779 0.015782815 3.6126848e-20)
(0.029649485 0.012508281 5.5499374e-20)
(0.051825167 0.0078701992 2.1789114e-20)
(0.078157195 0.0024900148 -6.2810623e-21)
(0.10820687 -0.003192572 -1.3211814e-20)
(0.14159689 -0.0088650461 -6.7409485e-21)
(0.17799157 -0.014307454 3.6920055e-20)
(0.21707807 -0.019369352 -5.0448356e-21)
(0.2585522 -0.023952828 -1.8050915e-20)
(0.30210745 -0.02800052 -2.1030689e-20)
(0.34742713 -0.031488121 -5.097201e-20)
(0.39418344 -0.03441965 2.4781172e-20)
(0.44204546 -0.036827308 -1.5034345e-20)
(0.49064716 -0.038814108 2.7869823e-20)
(0.53947264 -0.040675531 2.2522795e-20)
(0.58871199 -0.042419136 -8.9314037e-20)
(0.64299128 -0.041323657 3.0460989e-22)
(-0.0034200338 0.0059742418 2.2786152e-20)
(-0.0015237788 0.0095140594 -2.7899645e-20)
(0.0096837898 0.0095085663 -4.7360051e-20)
(0.028378111 0.0070906567 -2.8926925e-20)
(0.053280718 0.0030769156 -2.1820585e-21)
(0.083570341 -0.0017800844 1.4031706e-20)
(0.1185628 -0.006930282 -3.0445431e-21)
(0.15765953 -0.011995604 1.936138e-20)
(0.20033368 -0.016714189 9.4635449e-21)
(0.24610282 -0.020908484 -1.218934e-20)
(0.2945041 -0.024465473 9.67381e-21)
(0.3450763 -0.027321818 -2.5653251e-20)
(0.39734711 -0.029453176 8.9253938e-21)
(0.45082482 -0.030867557 1.7990899e-20)
(0.50499747 -0.031601315 -3.0107744e-21)
(0.55934299 -0.031721009 1.9046402e-21)
(0.61331379 -0.031377566 -5.7773455e-22)
(0.66624297 -0.030973492 2.1074157e-20)
(0.71814487 -0.030710381 3.9887574e-21)
(0.77404834 -0.027948502 -2.148031e-21)
(-0.001410369 0.003592383 2.4853592e-20)
(0.0056350507 0.0032310443 6.0531336e-20)
(0.023531303 0.00083589191 -5.1528717e-20)
(0.049996848 -0.0028709119 -1.0518436e-20)
(0.083446055 -0.007339242 2.1505739e-20)
(0.12284792 -0.011953985 2.2701158e-21)
(0.16732667 -0.016276543 -3.1624839e-20)
(0.21609653 -0.020027101 7.4368646e-21)
(0.26844433 -0.023027656 7.5550162e-21)
(0.32369758 -0.025174123 -2.8013107e-20)
(0.38119701 -0.026420716 1.3762824e-21)
(0.44027936 -0.026767219 -3.9824047e-20)
(0.50026816 -0.026248578 -3.8955827e-20)
(0.56047067 -0.024926564 7.0433802e-20)
(0.6201808 -0.02288245 5.9598299e-21)
(0.67868621 -0.020216049 -1.623364e-20)
(0.73525359 -0.017086261 2.0637311e-20)
(0.78905543 -0.013796984 -9.6771155e-22)
(0.83963478 -0.010372582 2.0976559e-20)
(0.89067918 -0.0052940741 -2.1392254e-20)
(-0.0051978466 -0.0060955447 6.2683125e-20)
(0.0050249795 -0.0066150194 1.6600252e-20)
(0.016673183 -0.0070302346 -3.6995804e-20)
(0.02939019 -0.007270385 1.7857989e-20)
(0.042897217 -0.0074193767 0)
(0.057127472 -0.007506453 0)
(0.072016607 -0.0075346002 -2.3867151e-20)
(0.08747958 -0.0075118587 -1.7008648e-20)
(0.10344014 -0.0074480874 1.9829385e-20)
(0.11983357 -0.0073505085 1.8694887e-20)
(0.13660024 -0.0072246364 1.039637e-21)
(0.15368401 -0.0070753232 -1.0422631e-20)
(0.17103258 -0.0069068023 8.583888e-21)
(0.18859711 -0.0067226657 1.8258635e-20)
(0.20633165 -0.0065259885 -5.414971e-21)
(0.22419276 -0.0063194396 -1.0075449e-20)
(0.24213928 -0.0061053475 -4.2523047e-21)
(0.26013221 -0.0058857525 -4.2639622e-21)
(0.27813453 -0.005662454 6.9293204e-22)
(0.29611115 -0.0054370463 1.210679e-21)
(0.31402893 -0.0052109474 2.5798118e-21)
(0.33185659 -0.0049854198 6.469453e-21)
(0.34956483 -0.0047615876 1.3480381e-22)
(0.36712628 -0.0045404481 -3.3392573e-21)
(0.38451561 -0.004322882 1.2717349e-22)
(0.40170947 -0.0041096606 -5.5306792e-22)
(0.41868661 -0.003901452 1.1859472e-21)
(0.43542783 -0.0036988266 9.6305403e-22)
(0.451916 -0.003502263 -1.2905345e-21)
(0.46813603 -0.0033121526 -9.8377415e-23)
(0.48407486 -0.0031288054 -4.9213325e-23)
(0.4997214 -0.002952456 -3.273213e-22)
(0.51506648 -0.0027832696 -4.1056144e-22)
(0.53010279 -0.0026213484 9.3490229e-23)
(0.54482483 -0.0024667385 -1.2637748e-22)
(0.5592288 -0.002319437 -1.9489087e-22)
(0.57331258 -0.0021793993 2.2160256e-22)
(0.58707566 -0.0020465466 2.5055614e-22)
(0.60051907 -0.0019207757 -3.474255e-23)
(0.6136457 -0.001801963 -1.6415883e-22)
(0.62645916 -0.0016899938 1.4676742e-23)
(0.63896787 -0.0015847179 -2.3559885e-23)
(0.65117304 -0.0014861647 7.8596398e-23)
(0.66310701 -0.0013939599 -1.9507055e-23)
(0.67472065 -0.0013093586 -1.3590521e-22)
(0.68622255 -0.001229174 7.059436e-24)
(0.69709493 -0.0011654519 6.8337633e-24)
(0.70896851 -0.001086082 -5.4338034e-24)
(0.71739139 -0.0010987415 2.5562355e-23)
(0.7349113 -0.00092863963 3.7272443e-22)
(0.025049645 -0.017942865 -1.4067147e-20)
(0.034294422 -0.019519501 -6.7156443e-20)
(0.04544504 -0.02073969 -3.273829e-20)
(0.057634261 -0.021424026 4.0722058e-20)
(0.070467201 -0.021851851 1.545251e-20)
(0.083957522 -0.022108022 -1.93506e-20)
(0.098073299 -0.022193511 5.2237967e-21)
(0.11273252 -0.022130463 2.6283812e-20)
(0.12786638 -0.021948225 -1.9932641e-22)
(0.14341977 -0.021667539 -7.9908669e-21)
(0.15934024 -0.021303964 -1.2899472e-20)
(0.17557704 -0.020871405 -8.8918741e-21)
(0.1920824 -0.020382087 1.7934608e-20)
(0.20881132 -0.019846397 9.6307785e-21)
(0.22572094 -0.019273246 -1.6202725e-20)
(0.24277031 -0.018670405 -6.0053288e-21)
(0.25992033 -0.018044685 3.0992564e-21)
(0.27713362 -0.017402075 8.1144957e-21)
(0.29437449 -0.01674788 6.9266864e-21)
(0.31160894 -0.016086815 -7.0733451e-21)
(0.32880463 -0.015423088 -3.3863683e-21)
(0.34593097 -0.014760459 1.5777146e-21)
(0.36295914 -0.014102283 6.7455362e-22)
(0.37986217 -0.013451545 1.2451676e-21)
(0.39661494 -0.012810888 2.4073606e-22)
(0.41319428 -0.012182631 -3.7518849e-22)
(0.42957899 -0.011568787 -7.4875141e-22)
(0.44574982 -0.010971083 1.0737742e-21)
(0.46168954 -0.010390968 8.7133556e-22)
(0.47738288 -0.0098296357 -2.7766271e-22)
(0.49281654 -0.0092880342 5.975886e-22)
(0.50797911 -0.008766888 -2.2236361e-22)
(0.52286109 -0.0082667139 -4.1418206e-22)
(0.53745475 -0.0077878406 -6.2160074e-22)
(0.55175414 -0.0073304288 4.0468685e-22)
(0.56575499 -0.0068944924 -1.1685545e-22)
(0.57945466 -0.0064799205 2.2424974e-22)
(0.59285212 -0.006086499 -4.67249e-22)
(0.60594782 -0.0057139407 4.5202278e-22)
(0.61874408 -0.0053618963 5.9892718e-23)
(0.63124393 -0.0050300437 -5.5299538e-23)
(0.64345519 -0.0047179521 2.1682447e-22)
(0.65537851 -0.0044257287 2.9129591e-22)
(0.66704541 -0.0041522701 2.2145005e-22)
(0.6784068 -0.0039013462 2.3734287e-22)
(0.68966839 -0.0036634491 -1.6943157e-23)
(0.70031847 -0.0034745398 1.2147942e-22)
(0.7119655 -0.0032388818 1.0672465e-22)
(0.72022006 -0.003277076 -2.049561e-22)
(0.7374385 -0.002771923 -7.1963964e-24)
(0.083798088 -0.028718287 1.034901e-20)
(0.091110018 -0.031362083 3.9051588e-21)
(0.10116734 -0.033333215 -1.3923203e-20)
(0.11227109 -0.034384523 -1.6770929e-21)
(0.12374085 -0.035054247 1.6161895e-20)
(0.13574688 -0.035477643 -1.5644677e-20)
(0.14832865 -0.035634445 -3.1558571e-20)
(0.1614063 -0.035555082 1.5424241e-20)
(0.1749222 -0.035287616 1.915641e-20)
(0.18883904 -0.034864179 -1.2144571e-20)
(0.20311739 -0.034307871 1.0465813e-21)
(0.21771575 -0.033639897 8.3961575e-21)
(0.23259424 -0.032879271 -1.5795945e-20)
(0.24771445 -0.032042206 3.8482493e-21)
(0.26303882 -0.031142685 7.8215277e-21)
(0.27853065 -0.030193003 -5.62396e-22)
(0.29415424 -0.02920403 -1.0045025e-22)
(0.30987494 -0.028185405 -7.6526544e-21)
(0.32565924 -0.027145722 4.4724577e-21)
(0.34147486 -0.026092676 8.6746991e-21)
(0.35729082 -0.025033176 -3.9002732e-21)
(0.37307754 -0.023973429 -2.1678738e-21)
(0.388807 -0.022919002 8.7455573e-22)
(0.40445274 -0.021874871 -1.7790166e-21)
(0.41999001 -0.020845459 1.3061839e-21)
(0.4353958 -0.019834665 6.9091044e-22)
(0.45064892 -0.01884589 1.8201612e-21)
(0.46572999 -0.01788206 -2.1889307e-21)
(0.48062151 -0.016945652 2.4826251e-21)
(0.49530784 -0.016038714 5.9381516e-22)
(0.50977517 -0.015162894 6.301807e-22)
(0.52401151 -0.014319468 2.9971026e-22)
(0.53800666 -0.013509366 1.0277363e-21)
(0.55175213 -0.012733207 -1.5725337e-21)
(0.56524114 -0.011991331 4.3844625e-22)
(0.5784685 -0.011283832 2.2912859e-22)
(0.59143063 -0.010610597 -8.2023495e-23)
(0.6041255 -0.0099713395 9.7993151e-24)
(0.61655252 -0.0093656509 -4.0327256e-22)
(0.62871294 -0.0087930166 2.2658418e-22)
(0.64060872 -0.0082529651 -2.9381788e-23)
(0.65224651 -0.007744842 5.5438689e-22)
(0.66362599 -0.0072688831 -2.5665487e-22)
(0.67477711 -0.0068233124 3.6715413e-23)
(0.68565091 -0.0064144162 7.6977619e-23)
(0.69644762 -0.0060265363 -9.4987287e-23)
(0.7066671 -0.0057189736 -1.5986009e-22)
(0.71787519 -0.0053342772 5.229555e-22)
(0.72580301 -0.0053983768 1.821712e-22)
(0.74243672 -0.0045736971 -8.5423184e-22)
(0.16810319 -0.037673781 1.8470422e-21)
(0.17255987 -0.041368932 -1.1833509e-20)
(0.18079209 -0.044011277 6.5887777e-21)
(0.19019355 -0.045340086 -1.414527e-20)
(0.19959686 -0.046219367 -2.0897108e-21)
(0.20937515 -0.046824186 1.0050362e-20)
(0.21968747 -0.04709005 -1.1018302e-20)
(0.23045302 -0.047046346 1.0807545e-21)
(0.24162223 -0.04675727 1.3412826e-20)
(0.25318078 -0.046263678 3.865223e-21)
(0.26510617 -0.045593007 -6.3923971e-21)
(0.27736785 -0.044771133 -3.2537898e-21)
(0.28993499 -0.043822041 -5.5118091e-21)
(0.30277694 -0.04276647 -6.8173049e-21)
(0.31586227 -0.041622463 2.739527e-21)
(0.32915906 -0.040406081 2.3311401e-22)
(0.34263536 -0.039131713 1.5903475e-21)
(0.35625953 -0.03781228 -3.3817833e-21)
(0.37000037 -0.036459427 -4.6131195e-21)
(0.38382736 -0.035083681 2.5355718e-21)
(0.39771086 -0.033694579 3.541565e-21)
(0.41162232 -0.032300751 -1.8639726e-21)
(0.42553436 -0.030909991 1.6939819e-21)
(0.43942098 -0.02952931 -5.2258675e-22)
(0.45325763 -0.028164972 -4.3390241e-21)
(0.4670213 -0.026822533 -3.0629614e-21)
(0.48069063 -0.025506865 -3.0375106e-22)
(0.49424592 -0.024222187 3.0047055e-22)
(0.50766916 -0.022972097 -2.2049468e-21)
(0.5209441 -0.0217596 -1.0893868e-21)
(0.53405617 -0.020587143 2.1458535e-22)
(0.54699253 -0.019456654 -1.4099718e-21)
(0.55974198 -0.018369581 -7.021869e-23)
(0.57229497 -0.017326935 -5.1886297e-22)
(0.58464356 -0.016329336 -4.3585989e-22)
(0.59678134 -0.01537706 -7.0783363e-22)
(0.60870341 -0.014470092 -1.0786135e-21)
(0.62040639 -0.013608169 -7.9017482e-24)
(0.63188831 -0.012790857 -3.4544462e-24)
(0.64314897 -0.012017569 -6.2658149e-22)
(0.65418887 -0.011287773 -9.6574356e-24)
(0.66501315 -0.010600678 -4.3204669e-22)
(0.67562012 -0.0099567239 -6.4005573e-22)
(0.68603762 -0.0093535528 5.053276e-22)
(0.69621692 -0.008799948 1.3578107e-23)
(0.70635058 -0.0082744207 2.5002437e-22)
(0.71595506 -0.0078585475 -1.8353551e-22)
(0.72653493 -0.0073365968 -3.5459164e-22)
(0.73399521 -0.0074268042 -1.3122673e-23)
(0.74978906 -0.0063079667 4.8792671e-22)
(0.2739143 -0.044008319 -2.3152402e-20)
(0.27460637 -0.048730462 5.0199222e-20)
(0.28013532 -0.051953339 1.0772495e-20)
(0.28712677 -0.053496424 -1.6783481e-20)
(0.29375534 -0.054589733 -2.547224e-21)
(0.30058256 -0.055424577 2.3432133e-21)
(0.30793432 -0.055875522 -2.1457743e-21)
(0.31573049 -0.055960634 -4.8912488e-21)
(0.32391827 -0.055753175 -4.1833958e-21)
(0.33250508 -0.055299393 -1.2670841e-20)
(0.34148685 -0.054628633 1.9029765e-20)
(0.35084326 -0.053768749 7.0706212e-21)
(0.36055108 -0.052746531 -1.7186978e-20)
(0.37058633 -0.051585866 9.9205409e-21)
(0.38092286 -0.050307926 7.9066059e-21)
(0.3915327 -0.048931848 -3.155347e-22)
(0.40238686 -0.04747508 -2.7632828e-21)
(0.41345592 -0.045953546 -4.3343949e-21)
(0.42471032 -0.0443818 -1.6250638e-21)
(0.4361207 -0.042773161 -1.4359224e-21)
(0.4476582 -0.041139813 -3.4146086e-21)
(0.45929473 -0.039492883 0)
(0.47100313 -0.037842497 -1.5148567e-21)
(0.48275739 -0.036197824 3.9968476e-21)
(0.49453275 -0.034567109 5.7315936e-21)
(0.50630585 -0.032957709 -9.0426823e-22)
(0.51805479 -0.031376117 -3.3433353e-21)
(0.52975923 -0.029827997 3.5232559e-21)
(0.54140036 -0.028318216 1.3054016e-23)
(0.55296102 -0.026850882 3.8252425e-21)
(0.56442563 -0.025429389 -5.0371579e-22)
(0.57578019 -0.024056458 1.8135299e-21)
(0.5870123 -0.022734195 -9.226125e-22)
(0.59811111 -0.021464138 4.3019706e-22)
(0.60906725 -0.020247322 -5.5336497e-22)
(0.61987287 -0.019084335 5.8777257e-22)
(0.63052154 -0.017975382 5.4845338e-22)
(0.64100831 -0.016920351 4.6115272e-22)
(0.65132959 -0.015918898 -1.134733e-21)
(0.66148352 -0.014970481 8.1214212e-22)
(0.67146893 -0.014074616 -4.2577291e-22)
(0.68128919 -0.013230482 -1.3987183e-21)
(0.69094108 -0.01243881 1.7855754e-21)
(0.70044994 -0.01169678 -5.4222121e-23)
(0.7097675 -0.011015626 -2.0334564e-22)
(0.71907671 -0.010368468 -6.9576648e-24)
(0.72791529 -0.0098576686 -2.0386129e-22)
(0.73771024 -0.0092139468 -6.086502e-22)
(0.74458705 -0.0093302452 7.7428714e-22)
(0.75932566 -0.0079508035 -5.077961e-23)
(0.39619154 -0.046768714 -1.9427169e-20)
(0.3922588 -0.052550732 1.3289112e-20)
(0.39411477 -0.056307397 3.9237237e-21)
(0.39791094 -0.058092735 -8.1656647e-21)
(0.40109355 -0.059485315 1.2790607e-20)
(0.40431825 -0.060653941 8.2451379e-21)
(0.408102 -0.061416456 -1.2913634e-20)
(0.41238233 -0.061776392 -6.3622879e-21)
(0.41708792 -0.061803259 1.3255536e-20)
(0.42223583 -0.061542442 -1.6651765e-20)
(0.42783776 -0.06102394 -1.4541669e-20)
(0.43388149 -0.060276126 1.538227e-20)
(0.44034786 -0.059326779 7.0330098e-21)
(0.4472163 -0.058201763 -5.2855584e-21)
(0.45446355 -0.05692482 -1.3037281e-21)
(0.46206355 -0.05551786 -3.5620928e-21)
(0.46998855 -0.054001234 4.7813994e-21)
(0.47820979 -0.052393865 3.6895287e-21)
(0.48669805 -0.050713322 -3.1180057e-21)
(0.49542399 -0.048975883 3.1226625e-21)
(0.50435856 -0.047196592 2.9760279e-21)
(0.51347323 -0.04538931 -3.3946929e-21)
(0.5227403 -0.043566743 3.6685017e-22)
(0.53213304 -0.041740468 -3.182495e-21)
(0.54162593 -0.039920961 8.2446099e-21)
(0.55119467 -0.038117619 6.5678189e-21)
(0.5608164 -0.036338787 1.0677861e-21)
(0.57046968 -0.034591794 -1.8469199e-21)
(0.58013456 -0.032882988 4.3325188e-21)
(0.58979263 -0.031217781 8.1590379e-21)
(0.59942701 -0.0296007 2.4098813e-21)
(0.60902235 -0.028035445 3.7517856e-21)
(0.61856479 -0.026524948 2.1580447e-21)
(0.62804199 -0.02507144 8.6610164e-22)
(0.63744304 -0.023676527 -2.4423941e-22)
(0.6467585 -0.022341256 3.1295979e-21)
(0.65598029 -0.021066201 7.0389596e-22)
(0.66510179 -0.019851535 3.2166575e-22)
(0.6741177 -0.018697137 5.7111454e-23)
(0.68302444 -0.017602631 1.2326267e-21)
(0.69181909 -0.016567705 4.198281e-23)
(0.70050317 -0.015591619 5.8802523e-22)
(0.70907191 -0.014675491 -1.2663423e-22)
(0.71754792 -0.013816164 -4.0878984e-22)
(0.72588375 -0.013027252 -2.0333587e-22)
(0.73425124 -0.012277005 -5.5682803e-22)
(0.7422133 -0.011686754 2.4212695e-22)
(0.75110598 -0.010939364 -1.639394e-22)
(0.75731367 -0.011081518 -4.4280777e-22)
(0.7708298 -0.0094809775 2.8464905e-22)
(0.5288062 -0.045036163 3.427952e-21)
(0.51961027 -0.051922454 -1.9376257e-20)
(0.51686268 -0.056223484 -2.6078349e-21)
(0.51669239 -0.058440665 5.7203734e-21)
(0.51590364 -0.060358212 3.6325554e-21)
(0.51505627 -0.062052274 6.5046898e-22)
(0.51482614 -0.063314497 7.2640768e-21)
(0.51521093 -0.064149516 8.1988027e-21)
(0.51611814 -0.064612905 1.0130445e-20)
(0.5175519 -0.064740428 -1.1912459e-20)
(0.5195293 -0.064561086 -2.304763e-20)
(0.52204322 -0.064103849 -4.5583801e-21)
(0.52507485 -0.063397047 1.6885597e-20)
(0.52860284 -0.062468138 1.3456373e-20)
(0.53260348 -0.061343469 -5.733191e-21)
(0.53705021 -0.060048022 8.631961e-22)
(0.54191442 -0.05860542 -4.2353819e-21)
(0.54716635 -0.057037989 3.1686583e-21)
(0.55277562 -0.055366741 -2.9361975e-22)
(0.55871167 -0.053611353 -1.978219e-21)
(0.56494416 -0.051790165 8.560713e-21)
(0.57144321 -0.049920187 -5.080675e-22)
(0.57817974 -0.048017101 6.1798534e-22)
(0.58512561 -0.046095269 -4.4440462e-22)
(0.59225383 -0.044167744 -4.5315388e-21)
(0.59953867 -0.04224629 4.4220794e-21)
(0.60695576 -0.040341409 1.8390746e-21)
(0.61448214 -0.038462373 -3.456727e-21)
(0.62209636 -0.036617272 -4.0778596e-21)