/*--------------------------------*- C++ -*----------------------------------*\
  =========                 |
  \\      /  F ield         | OpenFOAM: The Open Source CFD Toolbox
   \\    /   O peration     | Website:  https://openfoam.org
    \\  /    A nd           | Version:  6
     \\/     M anipulation  |
\*---------------------------------------------------------------------------*/
FoamFile
{
    version     2.0;
    format      ascii;
    class       volScalarField;
    location    "179";
    object      p;
}
// * * * * * * * * * * * * * * * * * * * * * * * * * * * * * * * * * * * * * //

dimensions      [0 2 -2 0 0 0 0];

internalField   nonuniform List<scalar> 
9200
(
-0.37794974
-0.36660325
-0.35650957
-0.34756028
-0.33882059
-0.33030435
-0.32208987
-0.31414462
-0.3064013
-0.29878798
-0.29123169
-0.2836634
-0.27602495
-0.26827634
-0.26040631
-0.25245017
-0.24448424
-0.23659634
-0.22981139
-0.22841141
-0.39581045
-0.38201278
-0.36997548
-0.35950639
-0.34939467
-0.33962176
-0.33025641
-0.32123536
-0.3124591
-0.3038293
-0.29525277
-0.2866473
-0.27794921
-0.26911931
-0.2601485
-0.25106176
-0.24188892
-0.23262971
-0.22396706
-0.21806691
-0.41408813
-0.39781645
-0.38388144
-0.37196301
-0.36053457
-0.34952698
-0.33898768
-0.32881498
-0.3188752
-0.30904746
-0.29922749
-0.28933321
-0.27931155
-0.26914156
-0.25883425
-0.24842831
-0.23796249
-0.22744576
-0.21727735
-0.20857235
-0.43234873
-0.41362216
-0.3978548
-0.38454863
-0.37182373
-0.35954399
-0.34772774
-0.3362343
-0.32490375
-0.31360808
-0.30225265
-0.29077923
-0.27916913
-0.26744099
-0.25564411
-0.2438483
-0.23212011
-0.22049843
-0.20925069
-0.19911803
-0.44996232
-0.42888388
-0.41140092
-0.39678409
-0.38277243
-0.36915207
-0.35591206
-0.34288344
-0.32990055
-0.31685534
-0.30369251
-0.2904059
-0.27703428
-0.26365147
-0.25035298
-0.23724171
-0.22440774
-0.21190958
-0.19993543
-0.18899272
-0.46610441
-0.44288263
-0.42385971
-0.40802164
-0.39271666
-0.37765319
-0.36280346
-0.34799583
-0.33309306
-0.31804342
-0.30286381
-0.28762483
-0.27243638
-0.2574296
-0.24273865
-0.22848554
-0.21476493
-0.20163271
-0.18921484
-0.17784813
-0.47976986
-0.45473208
-0.4344065
-0.4174473
-0.40082871
-0.3841973
-0.36753626
-0.35071203
-0.33366027
-0.31642492
-0.29912334
-0.28191667
-0.26498507
-0.24850419
-0.23262648
-0.21746982
-0.20310989
-0.18957781
-0.17694043
-0.16539895
-0.48979486
-0.46340208
-0.44208453
-0.42412777
-0.40618174
-0.38786507
-0.36921461
-0.35018703
-0.33083938
-0.31134622
-0.29194265
-0.27287998
-0.25439402
-0.23668161
-0.21988752
-0.20410157
-0.18936093
-0.17565747
-0.16300008
-0.15147602
-0.49483721
-0.46761738
-0.44560781
-0.42672726
-0.40739981
-0.3872782
-0.36651293
-0.34520819
-0.32358192
-0.30195488
-0.28067333
-0.26005613
-0.24036395
-0.22178354
-0.20442568
-0.1883335
-0.17349489
-0.15985823
-0.14737841
-0.13604518
-0.49354648
-0.4659611
-0.44342875
-0.42358046
-0.40276113
-0.38074127
-0.35785039
-0.33438605
-0.31074085
-0.28736489
-0.26467833
-0.24302213
-0.22263905
-0.20367272
-0.18617958
-0.17014743
-0.15551531
-0.14219374
-0.13009087
-0.11911159
-0.2650677
-0.26974199
-0.2722504
-0.27300154
-0.27278742
-0.27179491
-0.27010547
-0.26780663
-0.2649706
-0.26165212
-0.25789523
-0.25373743
-0.24921183
-0.24434853
-0.23917576
-0.23372243
-0.22801941
-0.22208722
-0.2159249
-0.20961798
-0.26780035
-0.27205937
-0.27426104
-0.27479351
-0.27439632
-0.27324759
-0.27142688
-0.26901802
-0.26608966
-0.2626937
-0.25887175
-0.25465923
-0.25008735
-0.24518419
-0.2399754
-0.23448886
-0.22876291
-0.22281644
-0.21654215
-0.20991409
-0.27312982
-0.27657679
-0.27818047
-0.27828522
-0.2775291
-0.27607482
-0.27399841
-0.27137645
-0.26827064
-0.26472725
-0.26078309
-0.25646934
-0.25181345
-0.24683963
-0.24156872
-0.23602572
-0.23026038
-0.22429046
-0.21781685
-0.21058181
-0.28081625
-0.2831007
-0.28383885
-0.28331487
-0.28202584
-0.2801149
-0.27765409
-0.27471014
-0.27133509
-0.26756737
-0.26343693
-0.25896885
-0.25418505
-0.24910403
-0.24373983
-0.23811228
-0.23228309
-0.22627462
-0.21954137
-0.21145582
-0.29055734
-0.29138808
-0.29102466
-0.28968342
-0.28769252
-0.2851743
-0.28219766
-0.278818
-0.27507598
-0.27100076
-0.26661406
-0.26193268
-0.256971
-0.25174063
-0.24624746
-0.24050298
-0.23457685
-0.22850466
-0.22148171
-0.2123657
-0.30203931
-0.30118672
-0.29952049
-0.29718994
-0.29433751
-0.29106612
-0.2874437
-0.28351465
-0.27930763
-0.27484015
-0.27012312
-0.26516408
-0.25996861
-0.25453989
-0.24887467
-0.24297311
-0.23690494
-0.23072508
-0.22339777
-0.21314452
-0.31498322
-0.3122716
-0.30913563
-0.30566475
-0.30180699
-0.29764903
-0.29326171
-0.28867804
-0.28391197
-0.27896853
-0.27384713
-0.26854405
-0.26305428
-0.25737144
-0.25148319
-0.24537789
-0.23911807
-0.23278131
-0.22516384
-0.21378197
-0.32917306
-0.32446768
-0.31972822
-0.31499397
-0.31001432
-0.30486269
-0.29961312
-0.29428643
-0.28888181
-0.28338988
-0.2777957
-0.27208127
-0.26622795
-0.2602173
-0.25402732
-0.24763744
-0.24110743
-0.23456084
-0.22674515
-0.21446626
-0.34445577
-0.33764257
-0.33118785
-0.32509093
-0.31889516
-0.31265936
-0.30646273
-0.30031334
-0.29419278
-0.28807404
-0.28192426
-0.275707
-0.26938453
-0.26291809
-0.25626323
-0.2493721
-0.24226898
-0.23506009
-0.22648808
-0.21305058
-0.36073246
-0.35168852
-0.34340234
-0.33583815
-0.32831989
-0.32089156
-0.3136374
-0.30655048
-0.29959225
-0.29271645
-0.28587193
-0.27900554
-0.27206495
-0.26499872
-0.257751
-0.25025739
-0.24246076
-0.23415448
-0.2236877
-0.20801897
-0.20246726
-0.19351896
-0.18456572
-0.17567151
-0.16678265
-0.15794081
-0.1491995
-0.14059379
-0.13215294
-0.12390558
-0.11587749
-0.10809087
-0.10056485
-0.093315782
-0.086357267
-0.079700183
-0.073352824
-0.067320992
-0.0616081
-0.056215276
-0.051141494
-0.046383708
-0.041937002
-0.037794761
-0.033948841
-0.030389763
-0.027106899
-0.024088672
-0.021322749
-0.018796233
-0.016495846
-0.01440811
-0.012519508
-0.010816637
-0.0092863559
-0.0079159135
-0.0066930759
-0.0056062286
-0.0046445542
-0.0037979563
-0.0030578787
-0.0024153174
-0.0018680024
-0.0013992898
-0.0010447658
-0.00069485333
-0.00068814837
-8.0265029e-05
-0.0017062916
0.0024524952
-0.2034773
-0.19413174
-0.18506945
-0.17618958
-0.1672827
-0.15841067
-0.14964494
-0.14101696
-0.13255355
-0.12428386
-0.11623397
-0.10842596
-0.10087895
-0.093609372
-0.086630873
-0.079954403
-0.073588319
-0.067538484
-0.061808362
-0.056399124
-0.051309774
-0.046537289
-0.042076764
-0.037921586
-0.034063605
-0.030493328
-0.027200105
-0.024172333
-0.021397648
-0.018863117
-0.016555425
-0.014461053
-0.01256644
-0.010858143
-0.0093229781
-0.0079481492
-0.0067213809
-0.0056310175
-0.004666201
-0.0038167953
-0.0030742045
-0.0024293881
-0.001880019
-0.0014094614
-0.0010530224
-0.00070177513
-0.00069155155
-8.608181e-05
-0.0016917337
0.0024239069
-0.20559599
-0.19539981
-0.18612008
-0.17730889
-0.16837841
-0.15944571
-0.15063235
-0.14196036
-0.13344992
-0.12513232
-0.11703489
-0.10917958
-0.10158562
-0.094269784
-0.087246002
-0.080525442
-0.074116669
-0.068025734
-0.062256252
-0.056809517
-0.051684623
-0.046878608
-0.042386603
-0.038202002
-0.034316643
-0.030720999
-0.027404369
-0.024355088
-0.021560713
-0.019008227
-0.016684221
-0.014575079
-0.01266714
-0.010946856
-0.0094009412
-0.0080164978
-0.0067811503
-0.0056831454
-0.0047115309
-0.0038560787
-0.0031081025
-0.0024584768
-0.0019047565
-0.0014302997
-0.0010698857
-0.0007157887
-0.00069854309
-9.7573119e-05
-0.0016631577
0.0023673442
-0.2086646
-0.19709173
-0.18749103
-0.1788788
-0.16995893
-0.16094953
-0.15208205
-0.14336111
-0.13479163
-0.12641001
-0.11824727
-0.1103254
-0.10266393
-0.095280487
-0.088189702
-0.081403267
-0.074930206
-0.068776974
-0.062947524
-0.057443416
-0.052263948
-0.047406306
-0.042865717
-0.038635624
-0.034707872
-0.031072906
-0.027719966
-0.024637298
-0.021812354
-0.019231991
-0.016882661
-0.014750599
-0.01282199
-0.011083127
-0.009520564
-0.0081212446
-0.006872637
-0.0057628351
-0.0047807389
-0.0039159764
-0.0031597201
-0.0025027109
-0.0019423241
-0.0014618984
-0.001095436
-0.00073695696
-0.00070922181
-0.00011469092
-0.0016213111
0.0022840316
-0.21245649
-0.19893699
-0.18891308
-0.18070164
-0.17187775
-0.16279433
-0.15388379
-0.14513023
-0.13650716
-0.12805817
-0.1198228
-0.11182416
-0.10408223
-0.096616065
-0.0894417
-0.082571852
-0.076016391
-0.069782513
-0.063874791
-0.058295284
-0.053043686
-0.04811748
-0.043512104
-0.039221141
-0.035236502
-0.031548642
-0.028146762
-0.025019023
-0.022152757
-0.019534672
-0.017151049
-0.014987934
-0.013031311
-0.011267264
-0.0096821346
-0.0082626546
-0.0069960816
-0.0058703032
-0.0048740189
-0.0039966611
-0.0032292106
-0.0025622263
-0.0019928415
-0.0015043624
-0.0011297688
-0.00076535169
-0.0007237336
-0.00013733422
-0.0015673375
0.0021758542
-0.21662436
-0.20065511
-0.19011712
-0.18254423
-0.17396254
-0.16483673
-0.1559055
-0.14715374
-0.13850378
-0.13000081
-0.12169815
-0.11362343
-0.10579759
-0.098241576
-0.090973659
-0.084008345
-0.077356919
-0.071027781
-0.065026532
-0.059356075
-0.054016783
-0.049006669
-0.044321573
-0.039955357
-0.035900117
-0.032146397
-0.028683412
-0.02549927
-0.022581196
-0.019915745
-0.01748901
-0.015286818
-0.013294917
-0.011499141
-0.0098855718
-0.0084406796
-0.0071514607
-0.006005545
-0.0049913806
-0.0040981538
-0.0033166037
-0.0026370594
-0.0020563502
-0.0015577375
-0.0011729383
-0.00080101543
-0.00074223308
-0.00016536148
-0.0015026846
0.0020452663
-0.22077068
-0.20206452
-0.1908914
-0.18412887
-0.17601281
-0.16694976
-0.1580321
-0.14931944
-0.14068564
-0.13216006
-0.12380846
-0.1156683
-0.10776388
-0.1001185
-0.092753366
-0.08568575
-0.078929144
-0.072493768
-0.066386767
-0.060612337
-0.055171899
-0.0500643
-0.045286024
-0.040831415
-0.036692901
-0.032861232
-0.029325718
-0.026074471
-0.023094637
-0.020372632
-0.017894354
-0.015645398
-0.013611244
-0.011777443
-0.010129776
-0.0086544059
-0.0073380217
-0.0061679473
-0.0051323311
-0.0042200652
-0.0034215989
-0.0027269859
-0.0021326905
-0.0016219203
-0.0012248938
-0.000843927
-0.00076485703
-0.00019862182
-0.0014290019
0.0018951571
-0.22463461
-0.20356085
-0.19146028
-0.18526814
-0.1778143
-0.16904604
-0.16021998
-0.15157111
-0.14299078
-0.13448032
-0.12610454
-0.11791358
-0.10993945
-0.102209
-0.094746786
-0.087573585
-0.080705902
-0.074156397
-0.067934264
-0.062045425
-0.056492723
-0.051276153
-0.046393104
-0.041838609
-0.037605601
-0.033685166
-0.030066813
-0.026738728
-0.023688028
-0.020901015
-0.018363403
-0.016060547
-0.013977649
-0.012099945
-0.010412886
-0.00890229
-0.0075544971
-0.0063564828
-0.0052960516
-0.0043617569
-0.003543713
-0.0028316561
-0.0022216254
-0.0016967704
-0.0012855806
-0.00089408854
-0.00079179441
-0.00023702324
-0.0013480888
0.0017288164
-0.22587394
-0.20538876
-0.19251929
-0.18589834
-0.17893191
-0.17074527
-0.16219567
-0.15367592
-0.14520259
-0.13676918
-0.12842332
-0.12022287
-0.11221098
-0.10442031
-0.096879379
-0.089613072
-0.082641755
-0.075981363
-0.069643869
-0.063637586
-0.057967383
-0.052634937
-0.047639006
-0.042975718
-0.038638843
-0.034620091
-0.03090939
-0.027495181
-0.024364692
-0.021504209
-0.018899333
-0.016535222
-0.014396814
-0.012469039
-0.010737001
-0.0091861508
-0.0078024468
-0.0065724776
-0.0054836617
-0.0045241687
-0.0036837309
-0.0029517202
-0.0023236899
-0.0017827165
-0.0013553548
-0.00095172286
-0.00082343243
-0.00028027452
-0.0012621034
0.0015505133
-0.21601331
-0.20463486
-0.19363702
-0.18554964
-0.17849386
-0.17108147
-0.1631381
-0.15498423
-0.1467988
-0.13860784
-0.13043909
-0.12235002
-0.11439613
-0.10662036
-0.099058532
-0.091742202
-0.084698037
-0.077947503
-0.071507299
-0.065389778
-0.059603241
-0.054152232
-0.049037873
-0.0442582
-0.039808494
-0.035681622
-0.031868368
-0.028357761
-0.025137393
-0.022193725
-0.019512377
-0.017078398
-0.014876518
-0.012891376
-0.011107731
-0.0095106485
-0.0080856739
-0.0068189686
-0.0056975188
-0.0047090591
-0.003842888
-0.0030879583
-0.0024392796
-0.00187981
-0.0014340467
-0.0010163051
-0.00085958078
-0.00032671745
-0.0011736056
0.0013657505
-0.19387535
-0.19858246
-0.19330931
-0.18440508
-0.17690256
-0.16989486
-0.16239475
-0.15453772
-0.14658965
-0.13861372
-0.1306295
-0.12268988
-0.11485415
-0.10716964
-0.099675363
-0.092405803
-0.085390598
-0.078654004
-0.07221524
-0.066088922
-0.060285374
-0.054810933
-0.049668285
-0.044856818
-0.040372975
-0.036210603
-0.032361303
-0.028814771
-0.02555914
-0.022581288
-0.019867153
-0.01740201
-0.015170739
-0.013158065
-0.011348775
-0.0097279178
-0.0082809864
-0.0069940572
-0.0058540046
-0.0048484354
-0.00396647
-0.0031969464
-0.0025344115
-0.0019622601
-0.0015022293
-0.0010749473
-0.00089070922
-0.00037312151
-0.001083176
0.0011824314
-0.18332656
-0.18914751
-0.18567463
-0.17693602
-0.16973327
-0.16347732
-0.15677767
-0.14963453
-0.14234381
-0.13498056
-0.12755452
-0.12011425
-0.11272148
-0.10542726
-0.098274155
-0.091300466
-0.084539876
-0.078020648
-0.071765838
-0.065793701
-0.060117977
-0.054748179
-0.049689918
-0.044945264
-0.040513097
-0.036389472
-0.032567969
-0.029040058
-0.025795436
-0.022822366
-0.02010799
-0.017638629
-0.015400058
-0.013377762
-0.011557166
-0.0099238482
-0.0084637281
-0.0071632244
-0.0060094671
-0.0049902652
-0.0040948106
-0.0033121228
-0.0026363061
-0.0020517724
-0.0015765449
-0.0011402249
-0.00092428678
-0.00042763751
-0.00098230679
0.00098478684
-0.17458845
-0.17780994
-0.17553298
-0.16851241
-0.16216008
-0.15659803
-0.15066517
-0.14425207
-0.13762538
-0.13088022
-0.12402848
-0.11711253
-0.11019288
-0.10332241
-0.096545794
-0.089903724
-0.083432786
-0.077164463
-0.071125102
-0.065336242
-0.059814844
-0.054573522
-0.049620834
-0.044961619
-0.040597329
-0.036526388
-0.032744547
-0.029245235
-0.026019917
-0.023058426
-0.020349294
-0.017880056
-0.015637543
-0.013608144
-0.011778052
-0.010133487
-0.0086608967
-0.0073471284
-0.006179639
-0.0051465011
-0.004237019
-0.0034404432
-0.0027504091
-0.0021524757
-0.0016605814
-0.001214211
-0.00096330585
-0.00048903494
-0.00087394981
0.00076830305
-0.16491037
-0.16552316
-0.16369179
-0.1587473
-0.15362491
-0.14880549
-0.14366374
-0.13806235
-0.13217871
-0.12611364
-0.11989481
-0.11356267
-0.10717433
-0.10078333
-0.094436194
-0.088175589
-0.082040602
-0.076065681
-0.070280367
-0.064709479
-0.059373281
-0.054287641
-0.049464268
-0.044911003
-0.040632131
-0.036628715
-0.032898942
-0.02943847
-0.026240782
-0.023297523
-0.020598838
-0.018133685
-0.015890134
-0.013855646
-0.012017332
-0.010362182
-0.0088772845
-0.0075500104
-0.0063682237
-0.0053203249
-0.004395781
-0.0035841086
-0.0028784951
-0.0022656501
-0.0017554058
-0.0012971087
-0.0010090054
-0.0005547912
-0.00076566366
0.00054304037
-0.15434125
-0.15307415
-0.15126482
-0.14803521
-0.14420604
-0.14019147
-0.13584675
-0.13108932
-0.12600263
-0.12066975
-0.11513381
-0.10943782
-0.10363478
-0.097777077
-0.091912151
-0.086083949
-0.080333299
-0.074697043
-0.069207555
-0.063892724
-0.058776025
-0.053876602
-0.04920942
-0.044785492
-0.040612153
-0.036693354
-0.033029982
-0.029620198
-0.026459771
-0.023542424
-0.020860164
-0.018403604
-0.016162271
-0.014124894
-0.012279673
-0.010614525
-0.0091173159
-0.0077760531
-0.0065791057
-0.0055152805
-0.0045742731
-0.0037459031
-0.0030229643
-0.0023932596
-0.0018626922
-0.001389953
-0.0010628849
-0.00062427676
-0.00066348658
0.00031710338
-0.14255475
-0.14049584
-0.13880106
-0.13684577
-0.13418744
-0.13100886
-0.12745126
-0.12351846
-0.11923258
-0.11464945
-0.10981998
-0.10478887
-0.099604523
-0.094316983
-0.088973525
-0.083618318
-0.078292828
-0.073035306
-0.06788019
-0.062857869
-0.057994613
-0.053312557
-0.048829768
-0.044560387
-0.040514833
-0.036700046
-0.033119766
-0.029774838
-0.026663528
-0.023781853
-0.021123904
-0.018682166
-0.016447831
-0.014411094
-0.012561427
-0.010887839
-0.0093791191
-0.0080240427
-0.0068115962
-0.0057310851
-0.004772516
-0.0039260557
-0.0031841887
-0.0025357204
-0.0019829562
-0.0014930596
-0.0011259261
-0.00069704993
-0.00057341079
9.9145204e-05
-0.12986078
-0.12793104
-0.12658434
-0.12554114
-0.12384644
-0.12147752
-0.11868022
-0.11552608
-0.11201194
-0.10816737
-0.1040423
-0.099683114
-0.095132768
-0.090436181
-0.085639265
-0.080785662
-0.075916483
-0.071070243
-0.06628244
-0.061585147
-0.057006771
-0.052571924
-0.048301395
-0.044212192
-0.040317668
-0.036627692
-0.033148867
-0.029884796
-0.026836355
-0.024002
-0.021378073
-0.018959111
-0.016738155
-0.014707041
-0.01285669
-0.011177366
-0.0096589314
-0.0082910676
-0.0070634994
-0.0059661335
-0.0049893819
-0.0041238118
-0.0033617074
-0.0026927649
-0.0021161528
-0.0016063562
-0.0011988044
-0.00077269513
-0.00050133693
-0.00010152417
-0.11697507
-0.1156255
-0.11476747
-0.11438008
-0.11344093
-0.11180723
-0.1097207
-0.10728372
-0.10448956
-0.10135005
-0.097907288
-0.094205593
-0.090284811
-0.086184248
-0.081944976
-0.077608909
-0.073216178
-0.068804628
-0.064409739
-0.060064295
-0.055798014
-0.051637299
-0.04760509
-0.043720823
-0.040000455
-0.036456559
-0.03309847
-0.029932488
-0.026962106
-0.024188275
-0.02160968
-0.019223031
-0.017023354
-0.01500428
-0.013158328
-0.011477169
-0.0099518842
-0.0085731941
-0.0073316877
-0.0062179816
-0.0052229968
-0.0043377619
-0.0035544892
-0.00286365
-0.0022618274
-0.0017295147
-0.0012818947
-0.00085100203
-0.00045228506
-0.00027605432
-0.10444077
-0.10375773
-0.10341557
-0.1035222
-0.10317111
-0.10217471
-0.10072977
-0.09894
-0.096801941
-0.094317898
-0.091520198
-0.088447817
-0.085136094
-0.081619996
-0.077936016
-0.074121692
-0.070214747
-0.06625166
-0.062267053
-0.058293472
-0.054361053
-0.050497195
-0.04672631
-0.043069684
-0.039545409
-0.036168394
-0.032950436
-0.029900347
-0.027024127
-0.024325175
-0.021804528
-0.019461116
-0.017292031
-0.0152928
-0.013457658
-0.011779809
-0.010251679
-0.0088651552
-0.0076118106
-0.0064830804
-0.0054705022
-0.0045656345
-0.0037607576
-0.0030470153
-0.0024190008
-0.0018618763
-0.0013751582
-0.00093197461
-0.00042961897
-0.00041730263
-0.092543484
-0.092446511
-0.092572769
-0.093067045
-0.093177303
-0.09271575
-0.091831454
-0.090614364
-0.089063303
-0.087175819
-0.084975155
-0.082493264
-0.079760221
-0.076805896
-0.073662322
-0.070362912
-0.066941431
-0.063431682
-0.059866678
-0.056277952
-0.05269522
-0.049146069
-0.045655651
-0.042246454
-0.038938147
-0.035747508
-0.032688415
-0.029771899
-0.027006256
-0.024397189
-0.021948005
-0.019659825
-0.01753182
-0.015561462
-0.013744773
-0.012076577
-0.010550752
-0.0091604533
-0.0078983475
-0.0067567908
-0.0057280425
-0.0048042649
-0.0039779497
-0.0032408372
-0.0025861241
-0.0020023988
-0.0014780629
-0.0010157242
-0.00043446489
-0.00052096152
-0.081423562
-0.081782588
-0.082291273
-0.083088143
-0.083559241
-0.083534795
-0.083125802
-0.082404372
-0.081368908
-0.080014044
-0.078355374
-0.07641749
-0.074224701
-0.071801605
-0.069175131
-0.066374311
-0.063429056
-0.06036956
-0.057226141
-0.054028576
-0.050805446
-0.047583777
-0.044388735
-0.041243337
-0.038168226
-0.035181522
-0.032298732
-0.029532736
-0.026893824
-0.024389782
-0.022026023
-0.019805757
-0.017730183
-0.015798704
-0.014009152
-0.012358022
-0.010840706
-0.0094517129
-0.0081848896
-0.0070336036
-0.0059909329
-0.0050497194
-0.0042028053
-0.0034424856
-0.0027611153
-0.0021496522
-0.0015895563
-0.0011023145
-0.00046542162
-0.00058639435
-0.07114147
-0.07182844
-0.072623491
-0.073645399
-0.074391664
-0.074714349
-0.074696328
-0.074393124
-0.073801048
-0.072912317
-0.0717362
-0.070290361
-0.06859324
-0.066664121
-0.064524742
-0.062199268
-0.059713415
-0.057093699
-0.054367095
-0.051560766
-0.048701465
-0.045814997
-0.042925858
-0.040056936
-0.037229235
-0.034461652
-0.031770832
-0.029171073
-0.026674301
-0.024290089
-0.022025733
-0.019886364
-0.017875091
-0.015993182
-0.014240253
-0.012614473
-0.011112781
-0.009731088
-0.0084644869
-0.0073074297
-0.0062538981
-0.0052974865
-0.0044315184
-0.003648836
-0.0029414407
-0.0023018407
-0.0017080776
-0.001191595
-0.0005186623
-0.00061692598
-0.061709132
-0.062616854
-0.063609596
-0.064785531
-0.065731534
-0.066320151
-0.066613396
-0.066653054
-0.066432982
-0.065943253
-0.06518791
-0.064178488
-0.062927854
-0.061450121
-0.059761943
-0.057882569
-0.055833173
-0.053636279
-0.051315333
-0.048894364
-0.046397618
-0.043849047
-0.041271867
-0.038688211
-0.036118836
-0.033582852
-0.031097515
-0.028678077
-0.026337692
-0.024087378
-0.021936029
-0.019890471
-0.017955558
-0.0161343
-0.014428021
-0.012836528
-0.011358299
-0.0099906668
-0.00873001
-0.0075719181
-0.0065113458
-0.0055427084
-0.0046599277
-0.003856417
-0.0031242305
-0.0024568533
-0.0018316176
-0.0012830686
-0.00058847209
-0.00061940229
-0.053111754
-0.054156082
-0.055272011
-0.056540015
-0.057620068
-0.058402895
-0.058934698
-0.059246372
-0.059329731
-0.059173154
-0.058776472
-0.058146022
-0.057289692
-0.05621681
-0.054939227
-0.053471435
-0.051830061
-0.050033416
-0.048101158
-0.046053945
-0.043913066
-0.041700065
-0.039436312
-0.037142622
-0.034838925
-0.032543985
-0.030275138
-0.028048099
-0.025876812
-0.023773352
-0.021747879
-0.019808642
-0.017962016
-0.01621259
-0.014563273
-0.013015429
-0.011569031
-0.010222822
-0.0089744762
-0.0078207546
-0.0067576363
-0.0057804174
-0.0048837201
-0.0040615761
-0.0033064108
-0.0026123382
-0.0019578228
-0.001375836
-0.00066814979
-0.00060300214
-0.045318548
-0.046435199
-0.047615074
-0.04892414
-0.050082995
-0.050998441
-0.051704619
-0.052223983
-0.052546998
-0.052660962
-0.052562481
-0.052253693
-0.051738268
-0.051021334
-0.050110406
-0.049015559
-0.047749072
-0.046325088
-0.044759356
-0.043068968
-0.041272013
-0.039387237
-0.037433695
-0.035430377
-0.033395874
-0.031348066
-0.029303853
-0.027278915
-0.025287521
-0.023342387
-0.021454569
-0.019633419
-0.017886573
-0.016219978
-0.014637963
-0.013143328
-0.011737461
-0.010420466
-0.0091912991
-0.0080478993
-0.0069873042
-0.0060057392
-0.0050986123
-0.0042606346
-0.0034848368
-0.0027657945
-0.0020841419
-0.0014686312
-0.00075108977
-0.00057752606
-0.038288134
-0.039429308
-0.040628024
-0.041938394
-0.043131495
-0.044128384
-0.044954097
-0.045624677
-0.046129951
-0.04645679
-0.046599531
-0.046557095
-0.046329788
-0.045919245
-0.045329256
-0.044565976
-0.043637706
-0.042554651
-0.041328751
-0.039973483
-0.038503601
-0.036934838
-0.035283599
-0.03356665
-0.031800791
-0.03000255
-0.0281879
-0.026372005
-0.024568995
-0.022791788
-0.02105194
-0.019359553
-0.017723212
-0.01614997
-0.014645364
-0.013213467
-0.01185696
-0.010577225
-0.0093744538
-0.0082477478
-0.0071952137
-0.0062140404
-0.0053004876
-0.0044500107
-0.0036564043
-0.0029146681
-0.0022079886
-0.001559936
-0.0008317739
-0.00055158983
-0.031973079
-0.033104481
-0.034289095
-0.035571322
-0.036764248
-0.037801521
-0.038701412
-0.03947521
-0.040112709
-0.04060095
-0.04093286
-0.041105081
-0.041115395
-0.040962708
-0.040647775
-0.040173444
-0.039544533
-0.038767697
-0.037851326
-0.036805422
-0.035641418
-0.034371948
-0.033010592
-0.031571612
-0.030069675
-0.028519564
-0.026935899
-0.025332882
-0.023724058
-0.022122113
-0.020538694
-0.018984272
-0.017468046
-0.015997877
-0.014580262
-0.013220341
-0.011921926
-0.010687562
-0.0095185931
-0.0084152373
-0.0073766578
-0.006401021
-0.0054854835
-0.0046263024
-0.003818133
-0.0030564404
-0.0023268958
-0.0016481325
-0.0009064091
-0.00053123433
-0.026323329
-0.027421497
-0.028569108
-0.02980259
-0.030969949
-0.032015878
-0.032953678
-0.033791188
-0.034518641
-0.035123718
-0.035598674
-0.035938683
-0.036139795
-0.036198931
-0.036114521
-0.035886763
-0.035517581
-0.035010571
-0.034370961
-0.033605563
-0.032722659
-0.03173184
-0.030643825
-0.029470241
-0.028223396
-0.026916033
-0.02556108
-0.024171394
-0.022759536
-0.021337548
-0.019916765
-0.018507646
-0.017119645
-0.01576111
-0.014439212
-0.013159918
-0.011927975
-0.010746932
-0.0096191699
-0.008545947
-0.0075274401
-0.0065627835
-0.0056500504
-0.0047863425
-0.0039672239
-0.0031887026
-0.0024386288
-0.0017316477
-0.00097305144
-0.00051933884
-0.021288507
-0.022338489
-0.023434278
-0.024605715
-0.025729832
-0.02676093
-0.027708684
-0.028578467
-0.029361277
-0.030045771
-0.030624101
-0.031090657
-0.031440433
-0.031669044
-0.031773269
-0.031751312
-0.031602817
-0.031328869
-0.030932017
-0.030416269
-0.029787048
-0.029051103
-0.028216379
-0.02729187
-0.026287435
-0.025213604
-0.024081364
-0.022901939
-0.021686564
-0.020446282
-0.019191739
-0.017933015
-0.01667946
-0.015439573
-0.014220901
-0.013029963
-0.011872212
-0.01075201
-0.0096726262
-0.008636247
-0.0076439904
-0.0066959203
-0.0057910193
-0.0049272535
-0.0041011086
-0.0033092198
-0.0025412467
-0.0018090548
-0.0010312505
-0.0005159304
-0.016819799
-0.017813178
-0.018848662
-0.019950594
-0.021020158
-0.022019962
-0.022957022
-0.023834968
-0.024645748
-0.025379204
-0.026027796
-0.026585651
-0.027047266
-0.02740752
-0.027662137
-0.027807936
-0.027842873
-0.027766089
-0.027577964
-0.02728016
-0.026875626
-0.026368562
-0.025764354
-0.025069479
-0.024291383
-0.02343833
-0.022519236
-0.021543489
-0.020520754
-0.019460779
-0.018373205
-0.017267393
-0.016152257
-0.015036117
-0.013926581
-0.012830442
-0.011753602
-0.01070102
-0.0096766719
-0.0086835311
-0.0077235529
-0.0067976627
-0.0059057158
-0.0050465363
-0.0042175194
-0.0034159985
-0.0026331224
-0.0018791242
-0.0010814258
-0.00051913962
-0.01287101
-0.013804284
-0.014775843
-0.015805379
-0.016814209
-0.017772084
-0.01868405
-0.019552496
-0.020370402
-0.021128879
-0.021820969
-0.022440912
-0.022983121
-0.023442195
-0.023813302
-0.024092395
-0.024276283
-0.024362694
-0.024350352
-0.024239051
-0.024029692
-0.023724299
-0.023325994
-0.022838959
-0.022268365
-0.021620271
-0.020901505
-0.020119527
-0.019282274
-0.018397992
-0.01747507
-0.016521869
-0.015546567
-0.014557006
-0.013560556
-0.012563997
-0.011573422
-0.010594147
-0.0096306562
-0.0086865409
-0.0077644613
-0.0068661079
-0.0059921433
-0.0051422161
-0.0043146001
-0.003507375
-0.0027129521
-0.0019408444
-0.0011242623
-0.00052634726
-0.0094001304
-0.010273333
-0.01118092
-0.012138585
-0.013084463
-0.013994421
-0.014872021
-0.015718752
-0.016528616
-0.017293998
-0.018008667
-0.018667222
-0.019264285
-0.019794508
-0.020252882
-0.020634926
-0.020936753
-0.02115515
-0.021287659
-0.021332667
-0.02128947
-0.021158308
-0.020940395
-0.020637908
-0.020253966
-0.019792579
-0.019258569
-0.018657479
-0.017995462
-0.017279146
-0.016515497
-0.01571167
-0.014874867
-0.01401219
-0.013130505
-0.012236313
-0.011335637
-0.01043392
-0.0095359334
-0.0086457047
-0.0077664446
-0.0069004872
-0.0060492122
-0.0052130334
-0.0043910557
-0.0035821272
-0.0027797825
-0.001993443
-0.001160333
-0.00053509648
-0.0063691562
-0.0071849529
-0.008031221
-0.0089201843
-0.009804042
-0.010663875
-0.011502096
-0.01231952
-0.013111105
-0.013870445
-0.014592091
-0.015271139
-0.015902598
-0.0164814
-0.017002634
-0.017461703
-0.017854388
-0.018176924
-0.018426083
-0.018599263
-0.018694564
-0.018710849
-0.018647787
-0.018505883
-0.018286488
-0.017991784
-0.017624756
-0.017189133
-0.016689315
-0.016130291
-0.015517524
-0.014856836
-0.014154284
-0.01341603
-0.012648216
-0.011856831
-0.011047599
-0.010225859
-0.0093964634
-0.0085636819
-0.00773111
-0.0069015868
-0.0060770975
-0.0052587402
-0.0044463874
-0.0036396495
-0.0028331016
-0.0020364498
-0.001190013
-0.00054357433
-0.0037458786
-0.0045084755
-0.0052977483
-0.0061228519
-0.0069477419
-0.0077579313
-0.0085549248
-0.0093390047
-0.010105986
-0.010850565
-0.011568062
-0.012254123
-0.012904241
-0.013513753
-0.014078025
-0.014592567
-0.015053095
-0.015455593
-0.015796395
-0.016072264
-0.016280471
-0.016418865
-0.016485931
-0.01648084
-0.016403481
-0.016254479
-0.016035202
-0.015747736
-0.01539485
-0.014979949
-0.014506998
-0.01398044
-0.013405095
-0.012786056
-0.01212858
-0.011437964
-0.010719435
-0.0099780316
-0.0092184928
-0.0084451466
-0.0076618063
-0.0068716688
-0.0060772011
-0.005280087
-0.0044808896
-0.0036799473
-0.0028728154
-0.0020696743
-0.0012135023
-0.00055065429
-0.0015046276
-0.0022198272
-0.0029580574
-0.0037258476
-0.0044969169
-0.0052604917
-0.006017338
-0.0067673062
-0.0075069496
-0.0082319289
-0.0089382788
-0.009622189
-0.010279658
-0.010906486
-0.011498408
-0.01205118
-0.012560632
-0.013022715
-0.013433573
-0.013789613
-0.014087584
-0.014324638
-0.014498402
-0.014607031
-0.014649265
-0.014624461
-0.014532626
-0.014374423
-0.014151173
-0.013864825
-0.013517932
-0.01311359
-0.012655376
-0.012147263
-0.011593534
-0.010998678
-0.01036729
-0.0097039525
-0.0090131303
-0.0082990508
-0.0075655905
-0.0068161616
-0.0060535854
-0.0052800221
-0.0044966343
-0.003704429
-0.0028998768
-0.0020936953
-0.0012313078
-0.00055596367
0.00037870353
-0.00029491966
-0.00098831667
-0.0017056402
-0.0024286634
-0.0031497207
-0.003868977
-0.0045859166
-0.0052977049
-0.006000823
-0.0066919319
-0.0073677216
-0.0080246717
-0.008659045
-0.0092669761
-0.0098445347
-0.010387763
-0.010892717
-0.011355523
-0.01177244
-0.01213992
-0.012454678
-0.012713752
-0.012914569
-0.013054999
-0.013133413
-0.01314872
-0.013100408
-0.012988555
-0.012813847
-0.012577564
-0.012281562
-0.011928232
-0.011520448
-0.011061501
-0.010555021
-0.010004889
-0.009415132
-0.008789822
-0.0081329583
-0.0074483498
-0.0067394951
-0.0060094471
-0.00526073
-0.0044950052
-0.0037138676
-0.0029146218
-0.0021085035
-0.0012432456
-0.00055900612
0.0019012981
0.0012614534
0.00060487142
-7.0850177e-05
-0.00075390213
-0.0014390631
-0.002126002
-0.0028139062
-0.0035004311
-0.0041827223
-0.0048579585
-0.0055232566
-0.006175518
-0.0068114224
-0.0074274841
-0.0080200933
-0.0085855444
-0.009120068
-0.0096198746
-0.010081205
-0.010500384
-0.010873879
-0.011198361
-0.01147076
-0.011688337
-0.01184873
-0.011950019
-0.011990766
-0.011970059
-0.011887538
-0.011743412
-0.011538461
-0.011274029
-0.010951995
-0.010574732
-0.010145045
-0.0096661048
-0.0091413603
-0.0085744405
-0.0079690478
-0.0073288398
-0.0066573065
-0.0059576314
-0.0052326006
-0.0044842706
-0.0037147275
-0.0029220055
-0.0021177869
-0.0012519202
-0.00056109641
0.0031039183
0.0024918503
0.0018654012
0.001223795
0.00057381659
-8.1270706e-05
-0.00074075105
-0.001403561
-0.0020677273
-0.002730913
-0.0033907073
-0.0040445709
-0.0046897511
-0.0053232773
-0.0059419923
-0.0065425773
-0.0071215721
-0.0076754002
-0.0082004015
-0.0086928731
-0.0091491142
-0.0095654761