/*--------------------------------*- C++ -*----------------------------------*\
  =========                 |
  \\      /  F ield         | OpenFOAM: The Open Source CFD Toolbox
   \\    /   O peration     | Website:  https://openfoam.org
    \\  /    A nd           | Version:  6
     \\/     M anipulation  |
\*---------------------------------------------------------------------------*/
FoamFile
{
    version     2.0;
    format      ascii;
    class       volScalarField;
    location    "179";
    object      pMean;
}
// * * * * * * * * * * * * * * * * * * * * * * * * * * * * * * * * * * * * * //

dimensions      [0 2 -2 0 0 0 0];

internalField   nonuniform List<scalar> 
9200
(
-0.39581447
-0.38379609
-0.37306363
-0.36357928
-0.35429995
-0.34522836
-0.33644787
-0.32792298
-0.31958236
-0.31135193
-0.30315815
-0.29493294
-0.28662076
-0.27818565
-0.26962141
-0.26096867
-0.25230913
-0.24373472
-0.23625066
-0.23406022
-0.41423129
-0.39976378
-0.38709467
-0.37608195
-0.36541079
-0.3550533
-0.34508321
-0.33543499
-0.32600674
-0.31670008
-0.30742389
-0.29809992
-0.28867022
-0.27910275
-0.26939628
-0.2595837
-0.24970286
-0.2397606
-0.23043089
-0.22385207
-0.43298092
-0.41605488
-0.40150371
-0.38903618
-0.37702721
-0.36540043
-0.35420904
-0.3433512
-0.33269401
-0.32212036
-0.3115321
-0.30085525
-0.29004623
-0.2790943
-0.2680205
-0.25687264
-0.24569753
-0.23451024
-0.2237088
-0.21440665
-0.45160665
-0.43225262
-0.41589029
-0.40202953
-0.38869882
-0.37575784
-0.36323295
-0.35098734
-0.33886696
-0.32675297
-0.31456208
-0.30224871
-0.28980707
-0.277268
-0.26469138
-0.25215542
-0.23973265
-0.22746514
-0.21562133
-0.20494799
-0.46945505
-0.44778716
-0.42973455
-0.41455628
-0.39990867
-0.38557817
-0.37156614
-0.3577136
-0.34386767
-0.32993596
-0.31588002
-0.30171022
-0.28748026
-0.27327633
-0.25920308
-0.24536927
-0.23186761
-0.2187562
-0.20622398
-0.19478579
-0.48567958
-0.46191696
-0.4423526
-0.42594408
-0.40996842
-0.39414098
-0.37845287
-0.36275063
-0.34691787
-0.33092521
-0.31481107
-0.29866485
-0.28261137
-0.26679229
-0.25134782
-0.23640218
-0.22204896
-0.2083404
-0.19540186
-0.1835763
-0.49925596
-0.47373565
-0.45289874
-0.43535795
-0.41803098
-0.40058026
-0.38301675
-0.36523468
-0.34719897
-0.32898176
-0.31072477
-0.29260805
-0.2748246
-0.25755709
-0.24096002
-0.22514965
-0.21019739
-0.1961284
-0.18300739
-0.17103906
-0.50900553
-0.48219699
-0.46039966
-0.44184922
-0.4231569
-0.4039685
-0.38435927
-0.364324
-0.34395666
-0.32346407
-0.30310632
-0.28315151
-0.26384451
-0.24538481
-0.22791512
-0.2115203
-0.19623085
-0.18203145
-0.16892751
-0.15700668
-0.5135752
-0.4860115
-0.4635533
-0.44406698
-0.42395902
-0.40292264
-0.38115804
-0.35881693
-0.33615969
-0.31354069
-0.29132925
-0.26985712
-0.24938942
-0.23011119
-0.21212774
-0.19547483
-0.18013236
-0.16604116
-0.15315159
-0.14145071
-0.51161126
-0.48375357
-0.46080126
-0.44033711
-0.41871248
-0.39575235
-0.37184605
-0.34734521
-0.32268685
-0.29835283
-0.27478225
-0.25232417
-0.23122141
-0.21161258
-0.19354644
-0.17700231
-0.16191092
-0.14817556
-0.13569892
-0.12438009
-0.27715724
-0.28153397
-0.2835788
-0.28392022
-0.28327207
-0.28180401
-0.27961062
-0.27678676
-0.27340743
-0.26953015
-0.26520198
-0.26046332
-0.25535006
-0.249895
-0.24412916
-0.23808423
-0.23179404
-0.225282
-0.21854948
-0.21168736
-0.28008033
-0.28401928
-0.285746
-0.28586433
-0.28503123
-0.28340769
-0.28108617
-0.27815724
-0.27469193
-0.27074464
-0.26635979
-0.26157547
-0.25642551
-0.25094054
-0.2451488
-0.23908079
-0.2327777
-0.22626127
-0.21942381
-0.21223858
-0.2857731
-0.28885929
-0.2899679
-0.28965007
-0.2884547
-0.28652714
-0.28395571
-0.28082263
-0.27719125
-0.27310979
-0.26861739
-0.26374751
-0.25852982
-0.25299081
-0.24715359
-0.24104541
-0.23471861
-0.228194
-0.22116944
-0.21337634
-0.29396539
-0.29583587
-0.2960525
-0.29509371
-0.29335978
-0.29097617
-0.2880263
-0.28458113
-0.28069336
-0.27640257
-0.27174038
-0.26673353
-0.26140568
-0.25577721
-0.24986409
-0.24368795
-0.23731237
-0.23076325
-0.2234931
-0.21485366
-0.30431733
-0.30467536
-0.30376089
-0.30196939
-0.29952496
-0.29653216
-0.29307008
-0.2891969
-0.28495278
-0.28036714
-0.27546244
-0.27025648
-0.26476479
-0.25900035
-0.2529707
-0.24668877
-0.24022525
-0.23361968
-0.22607138
-0.21641319
-0.31647689
-0.31509412
-0.31284758
-0.31004919
-0.30673155
-0.30298008
-0.29887179
-0.29445235
-0.28974875
-0.28477774
-0.27955013
-0.27407368
-0.26835449
-0.26239668
-0.25619842
-0.24976122
-0.24315511
-0.23643906
-0.22859124
-0.21781457
-0.3301314
-0.32683886
-0.32309676
-0.31913989
-0.31480287
-0.31015569
-0.30527724
-0.30020033
-0.29493617
-0.28948815
-0.28385475
-0.27803173
-0.27201405
-0.26579597
-0.25936652
-0.25271571
-0.24590625
-0.23901962
-0.23087745
-0.2189955
-0.34503781
-0.33971125
-0.33434601
-0.32910903
-0.32363515
-0.31798219
-0.31223132
-0.306402
-0.30048982
-0.29448292
-0.28836471
-0.28211612
-0.27571816
-0.26915287
-0.26239982
-0.25544073
-0.2483362
-0.24121373
-0.23285642
-0.22009758
-0.36102156
-0.35355862
-0.34646557
-0.33985139
-0.33314578
-0.32639346
-0.31967995
-0.31301109
-0.30636421
-0.29970934
-0.29301157
-0.28623329
-0.27933656
-0.27228358
-0.26503222
-0.25753798
-0.2498275
-0.24201147
-0.23287352
-0.21896622
-0.37796692
-0.36825448
-0.35932273
-0.35122757
-0.3431819
-0.33521724
-0.32742354
-0.31979107
-0.31227696
-0.30483198
-0.29740328
-0.28993711
-0.28238188
-0.27468839
-0.26680457
-0.25867126
-0.2502371
-0.24130532
-0.23027003
-0.21416215
-0.20392109
-0.19427253
-0.18465877
-0.17515763
-0.16571088
-0.1563589
-0.14715821
-0.13814522
-0.12934862
-0.1207961
-0.11251243
-0.10451829
-0.096830762
-0.089463809
-0.082428372
-0.07573244
-0.069381223
-0.063377309
-0.057720823
-0.052409582
-0.047439267
-0.042803605
-0.038494559
-0.034502525
-0.030816545
-0.02742451
-0.024313372
-0.021469357
-0.018878161
-0.016525149
-0.014395533
-0.012474549
-0.010747611
-0.0092004522
-0.0078192614
-0.0065907961
-0.0055025011
-0.0045425956
-0.0037002494
-0.0029654784
-0.0023300452
-0.0017852286
-0.0013298574
-0.00094667922
-0.00067709312
-0.00039952427
-0.00049661868
9.2856787e-05
-0.0018256057
0.0027898009
-0.20520631
-0.1951254
-0.18538398
-0.17588733
-0.16640915
-0.15701204
-0.14777323
-0.13872525
-0.12989379
-0.12130719
-0.1129907
-0.10496482
-0.09724662
-0.089850125
-0.082786334
-0.076063277
-0.069686201
-0.063657728
-0.057978004
-0.052644859
-0.047653972
-0.04299906
-0.038672064
-0.034663353
-0.030961931
-0.027555644
-0.024431399
-0.021575365
-0.018973183
-0.016610158
-0.014471445
-0.012542217
-0.010807827
-0.0092539507
-0.0078667159
-0.0066328237
-0.0055396637
-0.0045754017
-0.0037291563
-0.0029908939
-0.0023523285
-0.0018046926
-0.0013467521
-0.00096124594
-0.00068930474
-0.00040992902
-0.00050314761
8.4641694e-05
-0.0018134801
0.0027605152
-0.20782729
-0.19683443
-0.18684314
-0.17739937
-0.16787465
-0.15839018
-0.14907903
-0.13996388
-0.13106278
-0.12240651
-0.11402185
-0.10592924
-0.098145828
-0.090685999
-0.083561037
-0.07677917
-0.070345819
-0.064263751
-0.058533218
-0.053152115
-0.048116157
-0.043419062
-0.039052745
-0.035007524
-0.03127233
-0.02783492
-0.024682094
-0.021799906
-0.01917387
-0.01678916
-0.014630794
-0.012683808
-0.010933417
-0.0093651591
-0.00796503
-0.0067196006
-0.0056161352
-0.0046426794
-0.0037882368
-0.0030426629
-0.0023975645
-0.0018440709
-0.001380819
-0.00099050886
-0.00071376508
-0.00043064531
-0.00051615464
6.850448e-05
-0.001789495
0.0027025183
-0.21152677
-0.19908837
-0.18873904
-0.17947838
-0.1699393
-0.16034663
-0.15095128
-0.14175871
-0.13277033
-0.12402232
-0.11554574
-0.10736123
-0.099486274
-0.091936168
-0.08472296
-0.077855419
-0.071339412
-0.065178088
-0.059371989
-0.053919225
-0.048815651
-0.044055063
-0.039629399
-0.035528951
-0.03174258
-0.028257939
-0.025061696
-0.022139746
-0.019477429
-0.017059729
-0.014871465
-0.012897469
-0.011122751
-0.0095326417
-0.0081129349
-0.0068500035
-0.0057309203
-0.0047435464
-0.0038767088
-0.0031200927
-0.0024651404
-0.0019028222
-0.0014315798
-0.001034048
-0.00075010394
-0.00046135183
-0.00053538804
4.4734973e-05
-0.0017540415
0.0026170148
-0.21597149
-0.20153638
-0.19073189
-0.18185812
-0.17239443
-0.16269885
-0.15323077
-0.14397673
-0.13490564
-0.12606097
-0.117483
-0.10919388
-0.10121168
-0.093553301
-0.086232314
-0.07925861
-0.072638944
-0.066377217
-0.060474583
-0.054929619
-0.049738524
-0.044895332
-0.040392122
-0.036219244
-0.032365548
-0.028818613
-0.02556498
-0.022590382
-0.019879958
-0.017418468
-0.015190488
-0.013180595
-0.011373533
-0.0097543707
-0.0083086357
-0.0070224414
-0.0058826076
-0.0048767505
-0.003993462
-0.0032221994
-0.0025541855
-0.0019801771
-0.0014983559
-0.0010912672
-0.00079780078
-0.00050159021
-0.00056051634
1.3784454e-05
-0.0017078141
0.0025058889
-0.22072433
-0.20383458
-0.19249815
-0.18424818
-0.17501319
-0.16525542
-0.15574233
-0.14646458
-0.13734033
-0.12841447
-0.11974157
-0.11134892
-0.10325593
-0.095481634
-0.088042063
-0.080949082
-0.074210985
-0.067832955
-0.061817213
-0.056163191
-0.050867747
-0.045925407
-0.041328593
-0.037067871
-0.033132192
-0.029509146
-0.0261852
-0.023145949
-0.020376338
-0.017860893
-0.015583921
-0.013529708
-0.011682693
-0.010027628
-0.0085497244
-0.0072347802
-0.0060693059
-0.0050406167
-0.0041370141
-0.0033476736
-0.0026635448
-0.0020751196
-0.0015802553
-0.0011613876
-0.00085618108
-0.00055077292
-0.00059112453
-2.3784997e-05
-0.0016517235
0.0023715898
-0.22533207
-0.20576499
-0.19379769
-0.18633724
-0.17755798
-0.16785458
-0.15833958
-0.14908103
-0.13995136
-0.13097978
-0.12223345
-0.11375018
-0.10555333
-0.097664673
-0.090103507
-0.082884728
-0.076019054
-0.069513633
-0.063372331
-0.057595924
-0.05218234
-0.047126925
-0.042422711
-0.03806069
-0.034030078
-0.030318589
-0.026912706
-0.023797936
-0.02095906
-0.018380377
-0.016045918
-0.013939654
-0.012045687
-0.010348415
-0.0088326854
-0.0074839335
-0.0062883105
-0.0052327797
-0.0043053018
-0.0034947197
-0.0027916606
-0.0021863034
-0.0016761193
-0.0012434194
-0.00092440763
-0.00060819687
-0.00062672844
-6.7368175e-05
-0.0015868245
0.0022169797
-0.22950162
-0.20769833
-0.19484698
-0.18793665
-0.17980659
-0.17039471
-0.16096343
-0.15175453
-0.14266108
-0.1336854
-0.12489383
-0.11633736
-0.10804776
-0.10005086
-0.092369677
-0.085022966
-0.078024723
-0.071384738
-0.065109066
-0.059200305
-0.053657851
-0.048478212
-0.043655305
-0.039180773
-0.035044275
-0.031233794
-0.027735927
-0.024536169
-0.021619187
-0.018969075
-0.016569598
-0.014404406
-0.012457242
-0.010712123
-0.0091535008
-0.0077664064
-0.0065365897
-0.0054506181
-0.0044960665
-0.0036614006
-0.0029368793
-0.0023123253
-0.0017847635
-0.0013363748
-0.0010016652
-0.00067319998
-0.00066690154
-0.00011643077
-0.0015143067
0.0020452826
-0.23089642
-0.20981619
-0.19628599
-0.18896789
-0.18132454
-0.17249385
-0.16333757
-0.1542515
-0.14525418
-0.1363414
-0.12756303
-0.11897829
-0.11063071
-0.10255252
-0.09477124
-0.087310142
-0.080187452
-0.073416526
-0.067006418
-0.060962274
-0.055285622
-0.049974705
-0.045024832
-0.040428719
-0.036176827
-0.032257695
-0.028658269
-0.025364216
-0.022360222
-0.019630277
-0.017157939
-0.014926577
-0.012919591
-0.01112061
-0.0095136706
-0.0080833734
-0.0068150296
-0.0056947687
-0.0047097342
-0.0038479665
-0.0030993074
-0.0024531748
-0.0019060844
-0.001440071
-0.0010877271
-0.00074546475
-0.00071150946
-0.00017026755
-0.0014358246
0.0018607152
-0.22130943
-0.20921269
-0.19758579
-0.18889344
-0.18121282
-0.17317775
-0.16464126
-0.15592972
-0.14722178
-0.1385463
-0.12993481
-0.12144729
-0.11314049
-0.10505782
-0.097234877
-0.089702301
-0.082485189
-0.0756029
-0.069069587
-0.062894714
-0.05708344
-0.051637008
-0.046553153
-0.041826521
-0.037449062
-0.033410425
-0.029698336
-0.02629896
-0.023197252
-0.020377272
-0.017822495
-0.015516079
-0.013441118
-0.011580862
-0.0099189193
-0.0084394296
-0.0071272244
-0.0059679455
-0.004948252
-0.0040557012
-0.003279661
-0.0026090842
-0.0020399173
-0.0015539981
-0.0011818764
-0.00082393556
-0.00075988755
-0.00022670828
-0.0013537343
0.0016689993
-0.19964082
-0.20318673
-0.19715938
-0.18773134
-0.17966416
-0.17206006
-0.16398708
-0.15559191
-0.14713705
-0.13868784
-0.13026846
-0.12193485
-0.11374789
-0.10575575
-0.09799762
-0.090507474
-0.083313734
-0.076438882
-0.069899878
-0.063708701
-0.057872747
-0.052395223
-0.047275571
-0.042509897
-0.038091394
-0.034010743
-0.030256523
-0.026815586
-0.023673426
-0.020814517
-0.018222632
-0.015881135
-0.013773243
-0.011882261
-0.010191799
-0.0086859473
-0.0073494551
-0.0061678509
-0.0051276538
-0.0042162664
-0.0034228512
-0.00273622
-0.0021518175
-0.0016519037
-0.0012641361
-0.00089535595
-0.00080180105
-0.00028259856
-0.0012676419
0.0014786305
-0.18863999
-0.19329012
-0.18911662
-0.17997597
-0.17229816
-0.16550671
-0.15828933
-0.15065924
-0.14290552
-0.13510529
-0.12727409
-0.11946416
-0.11173911
-0.1041513
-0.096744017
-0.089555577
-0.082618979
-0.075961219
-0.069603588
-0.063562157
-0.057848153
-0.052468329
-0.047425381
-0.042718378
-0.038343187
-0.034292896
-0.030558222
-0.027127911
-0.023989121
-0.021127773
-0.01852889
-0.016176905
-0.01405594
-0.012150056
-0.010443487
-0.008920829
-0.0075672333
-0.0063685392
-0.0053114873
-0.0043836488
-0.003574215
-0.0028721545
-0.0022723819
-0.0017582438
-0.001353279
-0.00097410955
-0.00084563223
-0.00034796073
-0.0011672702
0.001271926
-0.17934705
-0.18155633
-0.17863831
-0.17127427
-0.16451447
-0.15847366
-0.15207231
-0.14521822
-0.13816981
-0.13102315
-0.12379629
-0.11653575
-0.10930415
-0.10215593
-0.09513688
-0.0882881
-0.081645929
-0.075241013
-0.069098366
-0.063237759
-0.057674028
-0.05241739
-0.047473811
-0.042845411
-0.03853088
-0.034525885
-0.030823484
-0.027414527
-0.024288042
-0.021431606
-0.018831688
-0.016473971
-0.014343652
-0.012425701
-0.010705113
-0.0091671126
-0.0077973559
-0.0065820842
-0.0055083343
-0.0045639097
-0.0037380718
-0.0030199996
-0.0024040395
-0.0018747864
-0.0014511889
-0.001060832
-0.00089376162
-0.00042017969
-0.001056204
0.0010442075
-0.16911266
-0.16891542
-0.1665167
-0.16125088
-0.15576969
-0.15052708
-0.14496424
-0.1389639
-0.13269719
-0.12626495
-0.11970049
-0.11304856
-0.10636865
-0.099716045
-0.093138659
-0.086679958
-0.080379148
-0.074270232
-0.068381816
-0.062737344
-0.05735533
-0.052249596
-0.047429578
-0.042900688
-0.038664697
-0.034720127
-0.031062655
-0.027685503
-0.024579836
-0.021735128
-0.019139526
-0.016780175
-0.014643536
-0.012715661
-0.010982454
-0.0094299001
-0.0080442738
-0.0068123135
-0.0057214319
-0.0047597284
-0.0039165833
-0.0031814208
-0.0025480327
-0.0020022783
-0.0015584382
-0.0011551899
-0.00094707525
-0.00049601202
-0.00094219364
0.00080585983
-0.15801088
-0.15613402
-0.15384743
-0.15031186
-0.14616012
-0.14177365
-0.13705304
-0.1319352
-0.12650057
-0.12083222
-0.11497834
-0.10898616
-0.10291108
-0.096807349
-0.09072402
-0.084706133
-0.07879498
-0.073027309
-0.067434919
-0.062044694
-0.05687872
-0.051954433
-0.047284838
-0.042878811
-0.038741423
-0.034874304
-0.031276017
-0.027942439
-0.024867144
-0.022041776
-0.019456409
-0.017099892
-0.014960165
-0.013024559
-0.011280064
-0.0097135783
-0.0083121298
-0.0070630678
-0.0059542759
-0.004974226
-0.00411248
-0.0033587416
-0.0027062969
-0.0021422155
-0.0016762531
-0.0012577528
-0.0010066968
-0.00057432819
-0.00083110165
0.0005650559
-0.14576385
-0.14325573
-0.14117037
-0.13892771
-0.135976
-0.13247026
-0.12857847
-0.1243206
-0.11971904
-0.11482983
-0.10970791
-0.10440231
-0.098964182
-0.093445344
-0.087894707
-0.082357763
-0.07687675
-0.071490148
-0.066232152
-0.061132483
-0.05621636
-0.05150454
-0.047013439
-0.042755342
-0.038738658
-0.034968229
-0.03144566
-0.02816967
-0.025136456
-0.022340053
-0.019772692
-0.017425142
-0.015287038
-0.013347184
-0.011593842
-0.010014986
-0.0085985471
-0.0073326115
-0.0062056451
-0.0052065816
-0.0043252444
-0.003551657
-0.0028786811
-0.0022945006
-0.0018046647
-0.0013683458
-0.0010732164
-0.00065418203
-0.00072871369
0.00033034501
-0.13269854
-0.13042838
-0.12876199
-0.12745558
-0.12549459
-0.12283696
-0.1197432
-0.11629668
-0.11249649
-0.10837318
-0.10397985
-0.099366487
-0.094579124
-0.089664949
-0.08467143
-0.079643571
-0.074623475
-0.069650182
-0.064759259
-0.05998243
-0.055347371
-0.050877631
-0.046592651
-0.042507862
-0.038634865
-0.034981655
-0.031552895
-0.028350226
-0.025372587
-0.022616558
-0.020076696
-0.017745875
-0.015615608
-0.013676359
-0.011917834
-0.010329249
-0.0088995844
-0.0076178014
-0.0064730668
-0.0054548758
-0.0045534055
-0.0037590467
-0.0030643455
-0.0024584753
-0.0019432499
-0.0014864932
-0.001147006
-0.0007346932
-0.00064086072
0.00011084845
-0.11951589
-0.11789423
-0.11677072
-0.11614824
-0.11497003
-0.11308119
-0.11073195
-0.10803298
-0.10498038
-0.10158755
-0.097899314
-0.093963161
-0.089821556
-0.08551622
-0.081090333
-0.076587202
-0.072047993
-0.067511283
-0.063012907
-0.058585603
-0.054258667
-0.050057741
-0.046004715
-0.042117729
-0.038411247
-0.034896198
-0.031580184
-0.028467713
-0.025560484
-0.022857684
-0.020356301
-0.01805144
-0.015936637
-0.014004168
-0.012245338
-0.01065076
-0.0092106076
-0.0079148513
-0.0067534827
-0.0057166644
-0.0047950286
-0.0039793888
-0.0032621058
-0.002633207
-0.0020913523
-0.0016116221
-0.0012282797
-0.00081530497
-0.00057268236
-8.4786363e-05
-0.10673881
-0.10582802
-0.10526142
-0.1051615
-0.10459821
-0.10337641
-0.10169887
-0.099675199
-0.097304555
-0.094591028
-0.091569392
-0.088281389
-0.084764859
-0.081056928
-0.077196133
-0.073221795
-0.069172873
-0.065086671
-0.060998362
-0.056940713
-0.052943729
-0.049034341
-0.045236201
-0.041569577
-0.038051331
-0.034694971
-0.03151077
-0.028505937
-0.025684831
-0.023049215
-0.020598524
-0.018330153
-0.016239754
-0.014321523
-0.01256849
-0.01097279
-0.0095259252
-0.0082190003
-0.0070429524
-0.0059887192
-0.0050474942
-0.0042105772
-0.0034702872
-0.0028173802
-0.0022480028
-0.0017430275
-0.0013170116
-0.00089584884
-0.00052789808
-0.00024952662
-0.09463864
-0.09434588
-0.094279395
-0.094593223
-0.094516431
-0.09385601
-0.092765921
-0.091340601
-0.089581008
-0.087486386
-0.08508217
-0.08240274
-0.079480463
-0.076347276
-0.073037081
-0.069585011
-0.066026328
-0.062395895
-0.058727409
-0.055052815
-0.051401951
-0.047802213
-0.04427827
-0.040851863
-0.037541695
-0.034363389
-0.031329521
-0.02844972
-0.025730807
-0.023176993
-0.020790093
-0.018569781
-0.016513847
-0.014618468
-0.012878481
-0.011287642
-0.0098388861
-0.0085245649
-0.0073366712
-0.006267021
-0.005307475
-0.0044498896
-0.0036866909
-0.0030092636
-0.0024118913
-0.0018798425
-0.0014128785
-0.00097647718
-0.00050826949
-0.00037894492
-0.083347048
-0.083535839
-0.083877213
-0.084516215
-0.084822773
-0.084623001
-0.084032036
-0.083125563
-0.08190367
-0.080362448
-0.078519408
-0.076401256
-0.074034347
-0.071445191
-0.068662497
-0.065716918
-0.062639814
-0.059462623
-0.056216557
-0.052931962
-0.049637732
-0.04636094
-0.043126524
-0.039957018
-0.036872353
-0.033889737
-0.031023607
-0.028285646
-0.025684855
-0.023227679
-0.020918174
-0.018758203
-0.016747659
-0.014884703
-0.013166013
-0.011587027
-0.010142191
-0.0088251897
-0.0076291668
-0.0065469103
-0.0055710487
-0.0046940689
-0.0039086515
-0.0032067463
-0.0025813904
-0.0020210284
-0.0015152311
-0.0010575225
-0.00051331947
-0.00047192048
-0.07291905
-0.073457495
-0.074106411
-0.074989625
-0.075590989
-0.075759071
-0.07558016
-0.07511267
-0.074354239
-0.073298274
-0.071955666
-0.070345897
-0.068489198
-0.06640657
-0.0641214
-0.061659399
-0.059047669
-0.056313954
-0.05348626
-0.050592496
-0.04765989
-0.04471448
-0.041780759
-0.038881368
-0.036036839
-0.033265399
-0.030582845
-0.028002492
-0.025535169
-0.023189278
-0.0209709
-0.018883937
-0.016930286
-0.015110043
-0.013421712
-0.011862435
-0.01042821
-0.0091141163
-0.0079145227
-0.0068232689
-0.0058338417
-0.0049394336
-0.0041331202
-0.0034073916
-0.0027545911
-0.0021653603
-0.0016230788
-0.0011393121
-0.00054038988
-0.00053085498
-0.063362835
-0.064140845
-0.065005512
-0.066059085
-0.066877165
-0.067329313
-0.067480255
-0.067374099
-0.067005743
-0.066366212
-0.065460888
-0.064302835
-0.06290646
-0.061287389
-0.059463763
-0.057456258
-0.055287379
-0.05298084
-0.050561125
-0.048053121
-0.045481695
-0.042871193
-0.040245005
-0.037625225
-0.035032356
-0.032485057
-0.029999961
-0.027591542
-0.025272053
-0.023051518
-0.020937771
-0.01893654
-0.017051576
-0.015284801
-0.013636492
-0.012105465
-0.010689282
-0.0093844488
-0.0081866078
-0.0070907138
-0.0060911894
-0.005182006
-0.0043567631
-0.0036085035
-0.0029293462
-0.0023114137
-0.0017350945
-0.0012219825
-0.00058506601
-0.00056126921
-0.054660612
-0.055591568
-0.056595012
-0.057754707
-0.058721535
-0.059383721
-0.059789567
-0.0599718
-0.059923051
-0.059632447
-0.0591009
-0.058336016
-0.05734698
-0.056144428
-0.054741521
-0.053154042
-0.051399854
-0.049498408
-0.047470384
-0.045337323
-0.043121231
-0.040844172
-0.03852784
-0.036193177
-0.033860054
-0.031546982
-0.029270878
-0.02704688
-0.024888224
-0.022806168
-0.020809975
-0.018906937
-0.017102448
-0.015400107
-0.013801852
-0.012308113
-0.010917984
-0.009629397
-0.0084392943
-0.0073437885
-0.0063383006
-0.005417648
-0.0045760697
-0.0038072034
-0.0031033228
-0.0024575623
-0.0018496491
-0.0013053443
-0.00064190766
-0.00057079359
-0.046778998
-0.047796462
-0.048877387
-0.050090342
-0.051148748
-0.051957371
-0.052551949
-0.052956352
-0.053161677
-0.05315581
-0.052936216
-0.052506061
-0.051870099
-0.051034562
-0.050008101
-0.048801933
-0.047429457
-0.045905878
-0.044247931
-0.042473584
-0.040601679
-0.038651568
-0.036642742
-0.034594461
-0.032525408
-0.030453391
-0.02839507
-0.026365738
-0.02437914
-0.022447348
-0.020580685
-0.018787698
-0.017075165
-0.015448159
-0.013910125
-0.012463
-0.011107342
-0.0098424764
-0.008666642
-0.0075771302
-0.0065704049
-0.0056421883
-0.0047874583
-0.0040005093
-0.0032740606
-0.002601995
-0.0019648804
-0.00138883
-0.00070533409
-0.00056774865
-0.039674355
-0.040728656
-0.041840194
-0.043065098
-0.0441689
-0.045071041
-0.045797753
-0.046366155
-0.046766555
-0.04698628
-0.047020343
-0.046868492
-0.046531914
-0.046013167
-0.045317007
-0.044450582
-0.043423182
-0.042245984
-0.040931847
-0.039495097
-0.037951245
-0.036316669
-0.034608289
-0.032843244
-0.031038557
-0.029210826
-0.027375949
-0.025548867
-0.023743359
-0.021971867
-0.020245376
-0.018573329
-0.016963593
-0.015422461
-0.01395469
-0.012563568
-0.011251013
-0.010017672
-0.0088630476
-0.0077856048
-0.0067828749
-0.0058515295
-0.0049873673
-0.0041854097
-0.0034390319
-0.0027427542
-0.0020787909
-0.0014715289
-0.00077044929
-0.00055966438
-0.033297283
-0.034352495
-0.035460176
-0.036666253
-0.037779631
-0.038732719
-0.039544662
-0.040227547
-0.040771533
-0.041164011
-0.041398436
-0.041472101
-0.041383498
-0.041132293
-0.040720049
-0.040150458
-0.039429205
-0.038563805
-0.037563488
-0.036439057
-0.035202678
-0.03386764
-0.032448082
-0.030958709
-0.029414509
-0.027830453
-0.026221218
-0.024600933
-0.022982945
-0.021379622
-0.019802191
-0.018260615
-0.016763511
-0.015318102
-0.013930214
-0.012604294
-0.011343466
-0.010149596
-0.0090233796
-0.0079644245
-0.0069713278
-0.0060417371
-0.0051723319
-0.0043589281
-0.0035956995
-0.0028777901
-0.0021893565
-0.0015522867
-0.00083359801
-0.00055213388
-0.027595993
-0.028627229
-0.02970682
-0.030872316
-0.031968671
-0.032939657
-0.033799198
-0.034555709
-0.035199696
-0.035719108
-0.036106604
-0.036357869
-0.036469515
-0.036439081
-0.036265661
-0.035950163
-0.035495252
-0.034905273
-0.034186208
-0.033345601
-0.032392426
-0.031336917
-0.030190363
-0.028964875
-0.027673149
-0.026328208
-0.024943143
-0.023530864
-0.022103867
-0.020674018
-0.019252377
-0.017849035
-0.016472997
-0.015132101
-0.01383296
-0.012580948
-0.011380206
-0.010233674
-0.0091431366
-0.0081092779
-0.0071317321
-0.0062091259
-0.0053390553
-0.0045181841
-0.003741572
-0.0030050257
-0.0022946239
-0.0016298287
-0.00089252832
-0.00054829417
-0.022518594
-0.023509646
-0.024545161
-0.025655772
-0.026716375
-0.027680618
-0.028558597
-0.029356091
-0.030064295
-0.030672073
-0.031171885
-0.031558513
-0.031827394
-0.031974634
-0.031997555
-0.031894946
-0.031667075
-0.031315672
-0.030843943
-0.030256553
-0.029559565
-0.028760335
-0.02786737
-0.026890163
-0.025839
-0.024724753
-0.023558659
-0.02235209
-0.021116332
-0.019862374
-0.01860072
-0.01734121
-0.016092877
-0.014863833
-0.01366118
-0.012490952
-0.011358086
-0.010266411
-0.0092186645
-0.0082165074
-0.0072605503
-0.0063503735
-0.005484497
-0.0046604649
-0.0038742669
-0.0031224272
-0.0023927816
-0.0017028706
-0.00094617932
-0.00054899978
-0.01801494
-0.018956279
-0.019938207
-0.02098559
-0.021998204
-0.02293822
-0.023812925
-0.024626214
-0.025370182
-0.026034825
-0.026612837
-0.027098644
-0.027487083
-0.027773422
-0.027953822
-0.028025578
-0.027987163
-0.027838265
-0.027579827
-0.027214091
-0.02674458
-0.026176055
-0.025514439
-0.024766702
-0.023940733
-0.023045177
-0.022089256
-0.021082586
-0.020034972
-0.018956214
-0.017855921
-0.016743336
-0.015627175
-0.01451549
-0.01341556
-0.012333797
-0.011275683
-0.01024573
-0.0092474522
-0.0082833586
-0.0073549432
-0.0064626844
-0.0056060035
-0.00478333
-0.003991594
-0.0032280869
-0.0024822056
-0.0017701994
-0.00099424935
-0.00055350218
-0.014037714
-0.014924849
-0.015848653
-0.016829135
-0.01778676
-0.018691008
-0.019547085
-0.020357544
-0.021115465
-0.021812079
-0.0224406
-0.022995492
-0.023471429
-0.023863314
-0.02416666
-0.024377804
-0.024493978
-0.024513364
-0.024435166
-0.024259678
-0.023988308
-0.023623586
-0.023169133
-0.022629603
-0.022010609
-0.021318605
-0.020560763
-0.019744825
-0.018878938
-0.017971485
-0.017030917
-0.016065581
-0.015083568
-0.014092561
-0.013099709
-0.012111517
-0.011133755
-0.010171383
-0.0092285013
-0.0083083036
-0.0074130465
-0.0065440208
-0.0057014955
-0.0048847624
-0.0040916749
-0.0033203237
-0.0025614993
-0.0018307297
-0.001036756
-0.00056029682
-0.010543854
-0.011375937
-0.012240756
-0.013154164
-0.01405385
-0.014915538
-0.015742867
-0.016537414
-0.017293249
-0.018002848
-0.018660107
-0.019259787
-0.019796709
-0.020265759
-0.020662199
-0.020981852
-0.021221175
-0.021377326
-0.021448251
-0.02143276
-0.021330589
-0.021142431
-0.020869948
-0.02051576
-0.020083411
-0.019577306
-0.019002629
-0.018365238
-0.017671545
-0.016928382
-0.016142853
-0.015322187
-0.014473593
-0.013604115
-0.012720498
-0.011829069
-0.010935626
-0.010045343
-0.0091626937
-0.0082913802
-0.0074342748
-0.0065933679
-0.0057696953
-0.0049633591
-0.0041730963
-0.0033978054
-0.0026295458
-0.0018835543
-0.001073748
-0.00056782259
-0.0074946163
-0.0082735231
-0.0090812729
-0.0099301402
-0.010772156
-0.011588344
-0.012381142
-0.013151397
-0.013894111
-0.014602946
-0.015272545
-0.01589812
-0.016474829
-0.016997781
-0.017462276
-0.017863956
-0.018198878
-0.018463579
-0.018655163
-0.018771385
-0.018810722
-0.01877243
-0.018656581
-0.018464084
-0.018196687
-0.017856958
-0.017448242
-0.0169746
-0.016440728
-0.015851862
-0.015213663
-0.014532098
-0.01381331
-0.013063492
-0.012288754
-0.011495006
-0.010687837
-0.0098724077
-0.0090533546
-0.0082347001
-0.0074197707
-0.0066111239
-0.005810457
-0.005018606
-0.0042351298
-0.0034597183
-0.0026856052
-0.0019280194
-0.0011052229
-0.00057486054
-0.0048568094
-0.0055860491
-0.006340401
-0.0071289998
-0.0079158044
-0.0086863249
-0.0094420537
-0.010183273
-0.010905825
-0.011604451
-0.012274538
-0.012911815
-0.013511883
-0.014070212
-0.01458233
-0.015043934
-0.015450958
-0.015799631
-0.016086557
-0.016308797
-0.016463942
-0.01655018
-0.01656635
-0.016511985
-0.016387341
-0.016193408
-0.015931904
-0.015605252
-0.015216533
-0.01476943
-0.01426815
-0.013717333
-0.013121952
-0.012487202
-0.01181839
-0.011120816
-0.010399657
-0.0096598578
-0.0089060226
-0.0081423097
-0.0073723344
-0.0065990772
-0.0058247762
-0.0050509048
-0.0042777648
-0.0035057949
-0.0027293223
-0.0019637292
-0.0011311245
-0.00058061566
-0.0026045684
-0.0032892995
-0.0039955935
-0.0047299198
-0.0054660871
-0.0061933456
-0.0069124303
-0.0076231723
-0.0083221373
-0.0090050178
-0.0096678922
-0.010307008
-0.010918442
-0.011498093
-0.01204182
-0.012545524
-0.013005206
-0.013417014
-0.013777311
-0.014082753
-0.014330355
-0.014517562
-0.014642308
-0.014703072
-0.014698925
-0.014629564
-0.01449533
-0.014297218
-0.014036863
-0.013716514
-0.013338992
-0.012907633
-0.012426215
-0.011898872
-0.011330006
-0.010724178
-0.010086009
-0.0094200651
-0.0087307522
-0.0080222012
-0.0072981605
-0.0065618901
-0.005816041
-0.0050626137
-0.0043025575
-0.0035369945
-0.0027612581
-0.0019909562
-0.0011517075
-0.00058482208
-0.00071245088
-0.0013579621
-0.0020218923
-0.0027083224
-0.0033991367
-0.0040866984
-0.0047711346
-0.0054519013
-0.0061261665
-0.0067904306
-0.0074413821
-0.0080757502
-0.0086900694
-0.0092806761
-0.0098437975
-0.010375616
-0.010872309
-0.011330089
-0.011745263
-0.012114292
-0.012433856
-0.012700917
-0.012912781
-0.01306716
-0.013162225
-0.013196657
-0.013169682
-0.013081104
-0.012931317
-0.01272131
-0.01245265
-0.012127459
-0.011748366
-0.011318453
-0.010841181
-0.010320314
-0.0097598226
-0.0091637866
-0.0085362861
-0.007881292
-0.0072025502
-0.0065034682
-0.0057869843
-0.0050555109
-0.0043105388
-0.0035537888
-0.0027815007
-0.0020095174
-0.0011666934
-0.00058707165
0.0008158995
0.00020237491
-0.00042665253
-0.0010735131
-0.0017264886
-0.0023803794
-0.0030348174
-0.0036889604
-0.0043404593
-0.0049864687
-0.0056241836
-0.0062507461
-0.0068630962
-0.0074579679
-0.0080319457
-0.0085815078
-0.0091030553
-0.0095929457
-0.010047538
-0.010463241
-0.010836573
-0.011164214
-0.011443067
-0.011670317
-0.011843494
-0.011960523
-0.012019779
-0.012020127
-0.011960961
-0.011842226
-0.011664427
-0.011428628
-0.011136438
-0.010789978
-0.01039183
-0.0099449819
-0.0094527466
-0.0089186788
-0.0083464752
-0.0077398674
-0.0071025064
-0.0064378449
-0.0057490008
-0.0050386894
-0.0043088335
-0.0035616513
-0.0027941696
-0.002022429
-0.001178201
-0.00058846448
0.0020236027
0.0014364345
0.00083600949
0.00022160853
-0.00040003001
-0.0010256482
-0.0016544984
-0.0022854908
-0.0029166425
-0.0035456177
-0.0041700132
-0.0047873055
-0.0053947688
-0.0059894725
-0.0065683136
-0.0071280426
-0.0076652857
-0.0081765705
-0.0086583605
-0.0091070965