/*--------------------------------*- C++ -*----------------------------------*\
  =========                 |
  \\      /  F ield         | OpenFOAM: The Open Source CFD Toolbox
   \\    /   O peration     | Website:  https://openfoam.org
    \\  /    A nd           | Version:  6
     \\/     M anipulation  |
\*---------------------------------------------------------------------------*/
FoamFile
{
    version     2.0;
    format      ascii;
    class       volScalarField;
    location    "25";
    object      p;
}
// * * * * * * * * * * * * * * * * * * * * * * * * * * * * * * * * * * * * * //

dimensions      [0 2 -2 0 0 0 0];

internalField   nonuniform List<scalar> 
9200
(
-0.40414301
-0.3925044
-0.38216166
-0.37300213
-0.36406354
-0.3553575
-0.34696125
-0.33883743
-0.33091251
-0.32310803
-0.31534447
-0.30754661
-0.29965089
-0.29161308
-0.28341905
-0.27510269
-0.26674163
-0.25842701
-0.25116172
-0.24917503
-0.42238419
-0.40826102
-0.39595008
-0.3852524
-0.3749241
-0.36494265
-0.35537423
-0.34614891
-0.33715926
-0.32829923
-0.31946857
-0.31057918
-0.30156316
-0.29237918
-0.28301804
-0.27350661
-0.26387954
-0.2541433
-0.24496539
-0.2384749
-0.44103411
-0.42440927
-0.410182
-0.39802105
-0.38636025
-0.37512399
-0.36435521
-0.35394366
-0.34374656
-0.33363516
-0.32349902
-0.31325218
-0.30284028
-0.29224375
-0.28147732
-0.27058511
-0.2596132
-0.24857863
-0.23787406
-0.22859721
-0.45964442
-0.44054334
-0.42447027
-0.41090977
-0.39793517
-0.38540096
-0.37331911
-0.36153924
-0.34989253
-0.33824472
-0.32649795
-0.31459401
-0.30251731
-0.29029217
-0.27797524
-0.26564448
-0.25337483
-0.24121281
-0.22942455
-0.21874569
-0.47756615
-0.45609966
-0.43830251
-0.42342007
-0.40913742
-0.39522862
-0.38167533
-0.36829931
-0.35492831
-0.34145185
-0.3278163
-0.31402067
-0.3001116
-0.28617234
-0.27230806
-0.25863061
-0.24523767
-0.23219334
-0.21968674
-0.20822635
-0.49395266
-0.47033851
-0.45099759
-0.43488151
-0.41927831
-0.40388276
-0.38866035
-0.37343295
-0.35806141
-0.34249744
-0.32676563
-0.31094708
-0.29516342
-0.27955728
-0.26427278
-0.24943968
-0.2351579
-0.22148603
-0.20855099
-0.19669293
-0.50777532
-0.48235103
-0.46170785
-0.4444558
-0.42750485
-0.41048826
-0.39338559
-0.37606218
-0.3584587
-0.34062962
-0.32270603
-0.3048638
-0.28729687
-0.27019232
-0.2537109
-0.23797564
-0.22306447
-0.20900836
-0.19587414
-0.18386593
-0.51784699
-0.49108429
-0.46945338
-0.45118602
-0.43286703
-0.41410474
-0.39493817
-0.37533085
-0.35535317
-0.33519744
-0.31511747
-0.2953816
-0.27623926
-0.25789675
-0.24050418
-0.22415327
-0.20888052
-0.19467535
-0.18154541
-0.16957898
-0.52280284
-0.49523888
-0.47292183
-0.45370871
-0.43396209
-0.41333083
-0.39197609
-0.37001837
-0.34769735
-0.32535734
-0.30336601
-0.28205911
-0.2617088
-0.24250804
-0.22456954
-0.20793533
-0.19259028
-0.17847889
-0.16555359
-0.15380268
-0.52127496
-0.49337644
-0.47054056
-0.45033261
-0.42904503
-0.40645415
-0.38291038
-0.35873692
-0.33435468
-0.31024018
-0.28683473
-0.26449378
-0.2434681
-0.2239041
-0.20585719
-0.18931192
-0.17420293
-0.16043629
-0.14791655
-0.1365443
-0.2882771
-0.29306965
-0.29563117
-0.29638366
-0.29614134
-0.29509582
-0.29332992
-0.29093233
-0.28797586
-0.28451536
-0.28059472
-0.27625118
-0.27151753
-0.26642353
-0.26099717
-0.2552672
-0.24926468
-0.24300996
-0.23650069
-0.22982553
-0.2911037
-0.29546406
-0.29770773
-0.29823496
-0.29780495
-0.2966001
-0.29470112
-0.29219283
-0.28914432
-0.28560748
-0.28162371
-0.27722809
-0.27245147
-0.26732155
-0.26186361
-0.25610538
-0.25008573
-0.24382339
-0.23720443
-0.23019864
-0.29661204
-0.30012843
-0.30175309
-0.3018399
-0.30104197
-0.29952539
-0.29736708
-0.29464424
-0.29141872
-0.28773655
-0.28363419
-0.27914236
-0.27428806
-0.26909504
-0.26358355
-0.25777834
-0.25173008
-0.24545673
-0.23864459
-0.23101739
-0.30454645
-0.30685718
-0.30758724
-0.30702713
-0.30568293
-0.30370011
-0.30115133
-0.29810345
-0.29460827
-0.29070369
-0.28641908
-0.2817789
-0.27680445
-0.27151364
-0.26591983
-0.26004223
-0.25394337
-0.24764669
-0.24058641
-0.23209763
-0.31458583
-0.31539306
-0.31498687
-0.31358671
-0.31152321
-0.30892005
-0.30584644
-0.30235751
-0.29849325
-0.294282
-0.28974447
-0.28489658
-0.27975191
-0.27432125
-0.26860965
-0.26262757
-0.25644476
-0.25009886
-0.24276483
-0.23324408
-0.32639859
-0.32547049
-0.32372373
-0.32130812
-0.31836229
-0.31498976
-0.31125862
-0.30721264
-0.30287931
-0.2982748
-0.29340871
-0.28828731
-0.28291494
-0.27729365
-0.27141905
-0.26528984
-0.25897456
-0.25253065
-0.24490839
-0.23426099
-0.33969217
-0.33685426
-0.33359927
-0.33001538
-0.32604128
-0.32176382
-0.31725413
-0.31254397
-0.30764556
-0.30256216
-0.29729134
-0.29182747
-0.28616371
-0.28029193
-0.27419823
-0.26786909
-0.26136449
-0.25476416
-0.24686208
-0.23510826
-0.35424239
-0.3493633
-0.34446758
-0.33959241
-0.33447321
-0.32918318
-0.32379664
-0.31833279
-0.31278847
-0.30715173
-0.30140494
-0.29552729
-0.28949733
-0.28329389
-0.27689259
-0.27027045
-0.26348368
-0.25665729
-0.24855177
-0.23592815
-0.36989263
-0.3628624
-0.35621662
-0.3499523
-0.34359452
-0.33720156
-0.3308529
-0.32455439
-0.31828434
-0.31201217
-0.30570118
-0.29931093
-0.29279971
-0.28612496
-0.27923894
-0.27209066
-0.26470003
-0.25717334
-0.24827816
-0.23450289
-0.38654343
-0.37724244
-0.36873266
-0.36097581
-0.35327338
-0.34566833
-0.33824489
-0.3309929
-0.32386942
-0.31682332
-0.30979844
-0.30273655
-0.29558055
-0.28827487
-0.28076052
-0.27297095
-0.26484743
-0.25618621
-0.24536145
-0.22934361
-0.2222398
-0.21272452
-0.20317175
-0.19365074
-0.18410391
-0.17457336
-0.16511554
-0.15576743
-0.14655971
-0.13752246
-0.12868285
-0.12006414
-0.11168624
-0.10356594
-0.09571691
-0.088149737
-0.080872039
-0.073888596
-0.067201508
-0.060810411
-0.054712759
-0.04890419
-0.043378973
-0.038130555
-0.03315219
-0.028437648
-0.023981965
-0.019782192
-0.015838069
-0.012152554
-0.0087321005
-0.0055865965
-0.002728897
-0.00017391073
0.002062724
0.0039662799
0.0055247156
0.0067303737
0.0075813181
0.0080822425
0.008244565
0.0080872961
0.0076349035
0.0069269887
0.0059909248
0.0049311267
0.003628634
0.0026520112
0.00034303005
0.0019288383
-0.22336991
-0.21343987
-0.20377646
-0.194276
-0.18471436
-0.17515555
-0.16567559
-0.15630763
-0.14707961
-0.13802221
-0.12916297
-0.12052504
-0.1121283
-0.10398963
-0.0961228
-0.088538449
-0.081244264
-0.074245077
-0.067543022
-0.061137744
-0.055026683
-0.049205434
-0.043668197
-0.038408323
-0.033418948
-0.028693706
-0.024227486
-0.020017188
-0.016062412
-0.012365991
-0.0089342855
-0.0057771245
-0.0029073473
-0.00033989024
0.0019095415
0.0038261222
0.0053976953
0.0066164879
0.0074804651
0.0079942487
0.0081692001
0.0080242555
0.0075837296
0.0068869903
0.0059610798
0.0049101823
0.0036153594
0.0026445639
0.00034432427
0.0019229893
-0.22572077
-0.21490431
-0.20502072
-0.19560435
-0.1860273
-0.17641215
-0.16688976
-0.1574832
-0.14821301
-0.13911223
-0.13020986
-0.12152892
-0.11308941
-0.10490861
-0.097000604
-0.089376279
-0.082043541
-0.075007403
-0.068270128
-0.06183143
-0.055688757
-0.049837649
-0.04427219
-0.038985553
-0.033970644
-0.029220825
-0.024730685
-0.020496812
-0.016518504
-0.012798327
-0.0093424254
-0.0061604882
-0.0032652986
-0.00067182692
0.0016041034
0.0035474811
0.0051459236
0.0063914262
0.0072817531
0.0078213791
0.0080215548
0.0079010818
0.0074839946
0.0068092338
0.0059032105
0.0048697097
0.0035897961
0.0026303868
0.00034710136
0.0019114238
-0.22909697
-0.2168507
-0.20664284
-0.19745376
-0.18790311
-0.17821881
-0.16865118
-0.15920523
-0.14988438
-0.1407271
-0.13176658
-0.12302593
-0.11452545
-0.10628334
-0.098314473
-0.090630319
-0.083239271
-0.076146765
-0.069355382
-0.062865051
-0.056673329
-0.050775762
-0.045166334
-0.039838023
-0.034783452
-0.029995625
-0.025468716
-0.021198873
-0.017184955
-0.013429122
-0.0099371802
-0.0067185787
-0.0037859799
-0.0011543634
0.0011603127
0.0031427968
0.0047803963
0.0060647771
0.006993408
0.007570542
0.0078072658
0.0077221985
0.0073389989
0.0066960292
0.0058188203
0.0048105831
0.0035524198
0.0026095974
0.00035139543
0.0018941344
-0.23322319
-0.2189689
-0.208334
-0.19958617
-0.19015722
-0.18041104
-0.17081346
-0.16134942
-0.1519879
-0.14277456
-0.13375194
-0.12494448
-0.11637288
-0.10805687
-0.10001285
-0.092253413
-0.08478787
-0.077622433
-0.070760315
-0.064201913
-0.057945095
-0.051985563
-0.046317312
-0.040933187
-0.035825547
-0.030987019
-0.026411312
-0.02209405
-0.018033543
-0.014231428
-0.010693051
-0.0074275071
-0.004447247
-0.0017671979
0.0005965719
0.0026285568
0.0043157064
0.0056492835
0.0066263788
0.0072509503
0.0075338681
0.0074935347
0.0071531773
0.0065504848
0.0057099269
0.0047339717
0.0035038477
0.002582347
0.00035721821
0.0018711252
-0.2376933
-0.22094097
-0.20978896
-0.2017242
-0.1925734
-0.18280449
-0.173204
-0.16376133
-0.15439125
-0.14514002
-0.13606479
-0.12719495
-0.11855221
-0.11015825
-0.10203186
-0.094187562
-0.086636183
-0.079385219
-0.072438958
-0.065798648
-0.059462784
-0.053427485
-0.047686962
-0.042234082
-0.037061048
-0.032160168
-0.027524699
-0.02314971
-0.019032904
-0.015175297
-0.011581665
-0.0082606332
-0.0052243277
-0.0024875317
-6.6361134e-05
0.0020234508
0.0037684837
0.0051595523
0.0061933011
0.0068733228
0.0072102193
0.0072221537
0.0069319048
0.0063764527
0.0055791014
0.0046414191
0.003444929
0.0025488817
0.00036461956
0.0018424228
-0.24205043
-0.22255893
-0.21077419
-0.20355273
-0.19490882
-0.18523374
-0.17567131
-0.166292
-0.15696197
-0.14770992
-0.13860534
-0.1296881
-0.12098351
-0.11251568
-0.10430645
-0.096373294
-0.088729407
-0.081384223
-0.074343665
-0.067610322
-0.061183735
-0.055060789
-0.049236192
-0.043703061
-0.038453614
-0.033479958
-0.028774967
-0.024333176
-0.020151652
-0.01623073
-0.012574521
-0.0091910709
-0.006092064
-0.0032920325
-0.00080705428
0.0013469638
0.0031562482
0.0046111438
0.0057077973
0.0064493732
0.0068461555
0.0069160585
0.0066814298
0.0061785591
0.0054295606
0.0045349547
0.0033768472
0.0025095973
0.0003737563
0.0018080502
-0.24597197
-0.22420053
-0.21151626
-0.20487496
-0.1969273
-0.18758783
-0.17814988
-0.16886294
-0.15961448
-0.15040421
-0.14129964
-0.13235359
-0.12359959
-0.11506542
-0.10677641
-0.09875374
-0.091013795
-0.083568619
-0.076426315
-0.069591293
-0.063064558
-0.05684412
-0.050925489
-0.045302285
-0.039966942
-0.034911527
-0.030128634
-0.025612326
-0.021359047
-0.017368424
-0.013643837
-0.010192656
-0.0070260147
-0.0041580805
-0.0016047906
0.00061785375
0.0024957724
0.0040188483
0.0051827017
0.005990017
0.0064507154
0.0065824582
0.0064072125
0.0059606545
0.0052637847
0.0044159482
0.0033002667
0.0024644831
0.00038461391
0.0017679601
-0.247036
-0.22602821
-0.21265993
-0.20559892
-0.19816247
-0.1894471
-0.18032539
-0.17120142
-0.16209212
-0.15299002
-0.1439443
-0.13501524
-0.12624782
-0.1176759
-0.1093289
-0.10123227
-0.093406495
-0.085867076
-0.078625075
-0.071687435
-0.065057293
-0.058734384
-0.052715563
-0.046995428
-0.041567042
-0.036422775
-0.031555223
-0.026958186
-0.022627629
-0.018562536
-0.014765559
-0.011243325
-0.0080063046
-0.005068149
-0.0024444895
-0.00015126336
0.0017972727
0.0033906233
0.0046239059
0.0054992914
0.006026274
0.0062222299
0.0061088027
0.005721212
0.0050795644
0.004281983
0.0032130675
0.0024119615
0.00039610959
0.0017224403
-0.23689356
-0.22504414
-0.21362128
-0.20513886
-0.1976534
-0.18976088
-0.18129549
-0.17258385
-0.16380589
-0.15498756
-0.14615764
-0.13737559
-0.1286988
-0.12017165
-0.11183107
-0.10370944
-0.095833762
-0.088225381
-0.080900344
-0.073869881
-0.067140772
-0.060715779
-0.054594213
-0.048772586
-0.043245381
-0.038005921
-0.033047326
-0.028363538
-0.023950323
-0.019806196
-0.01593314
-0.012337005
-0.009027474
-0.0060174998
-0.0033221899
-0.0009571977
0.0010632347
0.0027283683
0.0040328743
0.0049783838
0.0055738793
0.0058363801
0.0057872209
0.0054613032
0.0048780276
0.0041342879
0.0031163466
0.0023535201
0.00040799464
0.001673811
-0.21480377
-0.21879523
-0.21306991
-0.20383112
-0.195941
-0.18848749
-0.18050279
-0.17212634
-0.16362276
-0.15505527
-0.14644462
-0.13784536
-0.12931848
-0.12091274
-0.1126683
-0.10462049
-0.09679938
-0.089229191
-0.081928585
-0.074911145
-0.06818574
-0.061756963
-0.055625682
-0.049789705
-0.044244549
-0.038984314
-0.03400266
-0.029293831
-0.024853698
-0.020680704
-0.016776634
-0.013147067
-0.0098014049
-0.0067523739
-0.0040149665
-0.0016048752
0.00046344418
0.0021788729
0.0035355865
0.0045346996
0.005184761
0.0055024256
0.0055085847
0.0052370385
0.0047060814
0.0040091204
0.0030370202
0.002302425
0.00042924824
0.0016249463
-0.2035976
-0.20861841
-0.20472619
-0.19574566
-0.18820898
-0.18154515
-0.1744053
-0.16679048
-0.15899084
-0.15108133
-0.14307351
-0.1350174
-0.126976
-0.11900152
-0.11113757
-0.10342322
-0.095892539
-0.088573789
-0.081489545
-0.074657146
-0.068089039
-0.061793185
-0.055773594
-0.050030978
-0.044563506
-0.03936766
-0.034439185
-0.029774096
-0.025369686
-0.021225462
-0.017343901
-0.013730924
-0.010395966
-0.0073515465
-0.0046123174
-0.0021936065
-0.00010960051
0.0016286513
0.0030151272
0.0040504526
0.004742477
0.0051069623
0.0051640428
0.004946053
0.0044713148
0.0038276838
0.0029159295
0.002215306
0.00044678779
0.0015559105
-0.19411583
-0.19654541
-0.19385951
-0.18666944
-0.18004298
-0.17410993
-0.16777478
-0.16093312
-0.15384143
-0.14659323
-0.13920263
-0.13171346
-0.12418712
-0.11667738
-0.10922974
-0.10188553
-0.09468163
-0.087649489
-0.080815003
-0.07419887
-0.06781688
-0.061680252
-0.05579613
-0.05016819
-0.044797365
-0.039682664
-0.034822089
-0.030213607
-0.02585612
-0.021750379
-0.017899726
-0.014310575
-0.010992519
-0.0079579751
-0.005221323
-0.0027975726
-0.00070066761
0.001058397
0.0024733878
0.0035444144
0.0042785827
0.0046906795
0.0048000293
0.0046373223
0.0042211551
0.0036329457
0.0027859664
0.0021187994
0.00047125961
0.0014712414
-0.18362337
-0.18352528
-0.18129479
-0.17620546
-0.17085459
-0.16570327
-0.16019454
-0.1542027
-0.14789479
-0.14136859
-0.13465325
-0.12779033
-0.12083742
-0.11384866
-0.10687122
-0.099948268
-0.093119063
-0.086417941
-0.079873998
-0.073511273
-0.067348962
-0.061401687
-0.055679916
-0.050190517
-0.044937432
-0.039922455
-0.035146099
-0.030608525
-0.026310474
-0.022254145
-0.01844392
-0.014886851
-0.011592805
-0.0085741733
-0.0058451181
-0.0034203608
-0.00131362
0.00046414755
0.0019064711
0.0030128988
0.003789721
0.0042506464
0.0044140905
0.0043089541
0.0039541527
0.0034242136
0.0026461046
0.0020142142
0.00049825319
0.0013752298
-0.17216692
-0.17032531
-0.16815373
-0.16477972
-0.16074969
-0.15643896
-0.15176076
-0.1466472
-0.14117072
-0.13541233
-0.12941776
-0.12323033
-0.11690246
-0.11048658
-0.10403064
-0.097578957
-0.091172438
-0.084847713
-0.07863668
-0.072566491
-0.066659646
-0.060934178
-0.055403976
-0.050079265
-0.044967207
-0.040072617
-0.035398767
-0.030948262
-0.026723916
-0.022729591
-0.018970895
-0.015455671
-0.01219417
-0.0091988336
-0.0064836462
-0.0040630545
-0.0019505507
-0.00015705065
0.0013107262
0.0024517254
0.0032713396
0.0037820824
0.0040013394
0.0039561287
0.0036656943
0.003197524
0.0024927784
0.0018998443
0.00052389248
0.0012696851
-0.15949737
-0.15700268
-0.15499597
-0.15288851
-0.15004273
-0.14659766
-0.14273481
-0.13847503
-0.1338313
-0.1288538
-0.12359681
-0.11810757
-0.11243373
-0.1066241
-0.10072582
-0.094783346
-0.088838189
-0.082928331
-0.077087706
-0.071345997
-0.065728586
-0.060256629
-0.054947282
-0.049814069
-0.044867396
-0.040115181
-0.035563584
-0.031217804
-0.027082894
-0.023164546
-0.019469753
-0.01600729
-0.012787911
-0.0098242011
-0.0071300269
-0.0047195986
-0.0026062
-0.00080071429
0.00068987808
0.0018638891
0.0027257474
0.0032866734
0.0035629002
0.0035794957
0.0033559669
0.0029528382
0.0023253753
0.0017756995
0.00054546974
0.0011563907
-0.14598312
-0.14372103
-0.14210846
-0.14090688
-0.13903051
-0.1364177
-0.13333894
-0.1298804
-0.12603461
-0.12182477
-0.11730055
-0.11251107
-0.10750056
-0.10231333
-0.09699406
-0.091586081
-0.086130458
-0.080665461
-0.075226113
-0.069843828
-0.064546222
-0.059357074
-0.054296424
-0.04938084
-0.044623813
-0.04003629
-0.035627305
-0.031404691
-0.027375814
-0.023548292
-0.019930618
-0.016532613
-0.013365646
-0.010442543
-0.0077771376
-0.0053834607
-0.0032746272
-0.0014615113
4.8629453e-05
0.0012534519
0.0021563745
0.0027672521
0.0031010486
0.0031808327
0.0030262196
0.0026910439
0.0021439897
0.0016422566
0.00056031483
0.0010374975
-0.13235038
-0.13073171
-0.12964288
-0.1290966
-0.12798005
-0.12611932
-0.12377107
-0.12104875
-0.11794354
-0.11446283
-0.110647
-0.10654104
-0.10218572
-0.097620864
-0.092887485
-0.088026525
-0.08307752
-0.078077994
-0.073063036
-0.068064879
-0.063112582
-0.058231868
-0.053445117
-0.048771507
-0.044227293
-0.039826221
-0.035580051
-0.031499171
-0.027593235
-0.023871811
-0.020344942
-0.017023574
-0.013919786
-0.011046739
-0.0084183181
-0.006048451
-0.0039501377
-0.0021342775
-0.00060842515
0.0006244088
0.0015666062
0.0022266123
0.0026180197
0.0027618703
0.0026776639
0.0024129757
0.0019486984
0.0014998567
0.00056576788
0.00091527871
-0.11913159
-0.11821453
-0.1176658
-0.11761746
-0.117094
-0.11588355
-0.11419316
-0.11213463
-0.10970313
-0.10689775
-0.10374928
-0.10029628
-0.096574232
-0.092618206
-0.088464891
-0.084151815
-0.079715999
-0.075193261
-0.070617794
-0.066021717
-0.061434674
-0.056883572
-0.052392466
-0.047982582
-0.04367248
-0.039478345
-0.035414397
-0.031493381
-0.027727125
-0.024127083
-0.020704839
-0.0174725
-0.014442915
-0.011629662
-0.0090467656
-0.0067081295
-0.0046267029
-0.002813454
-0.001276256
-1.8792736e-05
0.00096027359
0.0016679637
0.0021164197
0.0023246527
0.0023117813
0.0021196542
0.0017397738
0.0013487858
0.00055950271
0.00079196387
-0.10660045
-0.10628927
-0.10622491
-0.10656943
-0.10651283
-0.10584775
-0.10473146
-0.10326012
-0.10143126
-0.099239666
-0.096707477
-0.093866066
-0.090744936
-0.087373769
-0.083784426
-0.080010308
-0.076085111
-0.07204211
-0.06791374
-0.063731135
-0.059523682
-0.055318679
-0.051141135
-0.047013688
-0.042956651
-0.03898819
-0.03512461
-0.031380734
-0.02777035
-0.024306665
-0.021002735
-0.01787181
-0.014927539
-0.012183976
-0.0096553637
-0.0073556605
-0.0052978338
-0.0034929693
-0.0019492836
-0.00067113397
0.00034178125
0.0010950685
0.0015993682
0.0018716785
0.0019304574
0.0018124027
0.0015177978
0.0011893494
0.00053974758
0.00066962451
-0.094889144
-0.095046881
-0.095375606
-0.09602711
-0.096336457
-0.096117201
-0.095487498
-0.09452447
-0.093225156
-0.091581701
-0.08960859
-0.087329971
-0.084769483
-0.081951063
-0.078901341
-0.075649098
-0.072224094
-0.068656382
-0.064975893
-0.061211997
-0.057393035
-0.053545928
-0.049695907
-0.045866342
-0.042078696
-0.038352586
-0.034705955
-0.031155343
-0.027716215
-0.024403329
-0.021231084
-0.018213809
-0.01536594
-0.012702043
-0.010236638
-0.00798381
-0.0059566114
-0.0041662961
-0.002621449
-0.0013270993
-0.00028396263
0.0005121828
0.0010704521
0.001405867
0.0015359563
0.0014928347
0.0012836666
0.0010219043
0.00050541623
0.00055007459
-0.084053466
-0.084549246
-0.08517199
-0.086051527
-0.086640177
-0.086775343
-0.086546153
-0.086012342
-0.085168827
-0.084005498
-0.082530501
-0.080761009
-0.078714814
-0.076410451
-0.073869127
-0.071114666
-0.068172477
-0.065068876
-0.061830695
-0.05848487
-0.055057985
-0.051575862
-0.04806324
-0.044543542
-0.041038742
-0.037569337
-0.034154408
-0.030811784
-0.027558268
-0.024409905
-0.02138225
-0.018490596
-0.015750118
-0.013175894
-0.010782754
-0.0085849678
-0.0065957305
-0.0048265102
-0.0032862852
-0.0019807523
-0.00091161951
-7.6007341e-05
0.00053367454
0.00093052085
0.0011308935
0.0011628456
0.001038591
0.0008469123
0.000456182
0.00043479465
-0.074102676
-0.074828043
-0.075654549
-0.076689997
-0.077481564
-0.077888796
-0.077979057
-0.077797705
-0.077337237
-0.076585547
-0.075545554
-0.074228208
-0.072645744
-0.070811527
-0.068741546
-0.066454607
-0.063971549
-0.061314614
-0.058507084
-0.055572926
-0.052536362
-0.049421467
-0.04625182
-0.043050233
-0.039838558
-0.036637571
-0.033466955
-0.030345358
-0.027290526
-0.024319473
-0.021448673
-0.018694218
-0.016071926
-0.013597345
-0.011285625
-0.0091512469
-0.0072075937
-0.0054663836
-0.0039370073
-0.0026258227
-0.0015355005
-0.00066445411
-6.5989283e-06
0.00044929085
0.00071821466
0.00082461489
0.00078410104
0.00066501309
0.00039248439
0.0003248883
-0.065020023
-0.065890096
-0.066845076
-0.067973907
-0.068902065
-0.069508798
-0.069844803
-0.069943982
-0.069796867
-0.069389818
-0.068721555
-0.067797779
-0.066625706
-0.065213918
-0.063573594
-0.061718701
-0.059665487
-0.057431974
-0.05503763
-0.052503069
-0.049849675
-0.047099228
-0.044273558
-0.041394252
-0.038482423
-0.035558536
-0.032642319
-0.029752741
-0.026908053
-0.024125876
-0.021423313
-0.018817043
-0.016323383
-0.013958266
-0.011737129
-0.0096746664
-0.0077844659
-0.006078516
-0.0045666277
-0.0032558075
-0.0021496552
-0.0012478233
-0.00054569953
-3.3864814e-05
0.00030116907
0.00048060744
0.00052204453
0.00047709399
0.00031546438
0.00022107535
-0.056772975
-0.057722999
-0.058746873
-0.05991796
-0.060927178
-0.0616713
-0.062188189
-0.0625028
-0.062604413
-0.062478479
-0.062120527
-0.061532028
-0.060715962
-0.059676714
-0.058421133
-0.056958738
-0.055301395
-0.053462952
-0.051458982
-0.049306534
-0.047023834
-0.04462995
-0.042144474
-0.039587236
-0.036978046
-0.034336498
-0.031681818
-0.029032784
-0.026407693
-0.023824376
-0.021300232
-0.018852267
-0.016497103
-0.014250935
-0.012129407
-0.010147391
-0.0083186667
-0.0066554888
-0.0051680807
-0.0038640742
-0.0027479576
-0.0018205648
-0.001078711
-0.00051471922
-0.00011671437
0.00013357221
0.00025458096
0.00028434428
0.00022684234
0.00012372324
-0.04931863
-0.050300507
-0.051348066
-0.052521809
-0.053567527
-0.054397606
-0.05504013
-0.055513194
-0.055805537
-0.055902365
-0.055796986
-0.055487651
-0.054973972
-0.054256857
-0.053339435
-0.052227314
-0.050928362
-0.049452487
-0.047811463
-0.046018744
-0.04408924
-0.042039042
-0.03988515
-0.037645204
-0.035337239
-0.032979469
-0.030590112
-0.028187259
-0.025788791
-0.023412327
-0.021075205
-0.018794458
-0.01658678
-0.014468452
-0.012455204
-0.01056201
-0.0088027921
-0.0071900402
-0.0057343586
-0.0044439664
-0.003324189
-0.0023769778
-0.0016005198
-0.00098881175
-0.00053164983
-0.00021346111
-1.582886e-05
8.8283969e-05
0.0001287624
3.2913082e-05
-0.042608269
-0.04358751
-0.04462583
-0.045773083
-0.046821048
-0.047695964
-0.048418558
-0.049001771
-0.049434414
-0.049702034
-0.049796599
-0.049714086
-0.049451602
-0.04900735
-0.048381443
-0.047576196
-0.046596001
-0.045447214
-0.044138068
-0.042678559
-0.041080291
-0.039356272
-0.037520697
-0.035588721
-0.033576234
-0.031499653
-0.029375741
-0.027221449
-0.025053798
-0.022889783
-0.020746306
-0.018640104
-0.016587672
-0.014605163
-0.012708235
-0.010911844
-0.0092299688
-0.0076752687
-0.0062586729
-0.004988929
-0.0038721348
-0.0029112849
-0.0021058708
-0.0014514878
-0.00093962107
-0.00055719454
-0.00028644181
-0.00010923828
2.3629812e-05
-5.1469681e-05
-0.036590748
-0.037543738
-0.038549994
-0.039650523
-0.040675609
-0.041563689
-0.042330008
-0.042983702
-0.043514118
-0.043907616
-0.044155559
-0.044252485
-0.044193791
-0.043975729
-0.043596121
-0.043054648
-0.042352832
-0.041493968
-0.040483138
-0.039327161
-0.038034495
-0.036615114
-0.035080348
-0.033442705
-0.031715689
-0.029913613
-0.028051425
-0.026144549
-0.024208751
-0.022260014
-0.020314435
-0.018388125
-0.016497093
-0.014657121
-0.012883597
-0.011191303
-0.0095941565
-0.0081048858
-0.0067346602
-0.0054926745
-0.004385716
-0.0034177354
-0.0025894464
-0.0018979581
-0.0013364245
-0.00089409228
-0.00055426648
-0.00030607831
-8.6036151e-05
-0.00012963543
-0.031214819
-0.032126454
-0.033085907
-0.034126793
-0.035111627
-0.035989503
-0.036771586
-0.037464239
-0.038057664
-0.038539358
-0.03890066
-0.039135349
-0.039237805
-0.039203014
-0.039027181
-0.038708023
-0.038244799
-0.037638315
-0.036890972
-0.036006792
-0.034991379
-0.033851855
-0.032596763
-0.031235949
-0.029780417
-0.028242187
-0.026634144
-0.024969887
-0.023263597
-0.021529905
-0.019783771
-0.018040357
-0.016314897
-0.014622546
-0.012978201
-0.011396288
-0.0098905064
-0.0084735284
-0.0071566496
-0.0059494068
-0.0048591738
-0.0038907544
-0.0030459858
-0.0023233916
-0.0017177407
-0.0012204384
-0.00081611808
-0.00049985735
-0.00019771889
-0.00020180043
-0.026430947
-0.027292619
-0.028196832
-0.029170974
-0.03010454
-0.03095587
-0.031733086
-0.032440534
-0.033069452
-0.033608669
-0.03404991
-0.034386727
-0.03461304
-0.034723144
-0.034712231
-0.034576661
-0.034314028
-0.033923214
-0.033404457
-0.03275943
-0.03199126
-0.031104505
-0.030105122
-0.029000397
-0.027798857
-0.026510163
-0.025144998
-0.023714942
-0.022232352
-0.020710236
-0.019162132
-0.017601969
-0.016043932
-0.014502295
-0.012991236
-0.011524625
-0.010115769
-0.0087771293
-0.0075199915
-0.0063541072
-0.0052873138
-0.0043251474
-0.0034704526
-0.002723052
-0.0020792437
-0.0015324278
-0.0010686984
-0.0006880446
-0.0003089871
-0.00026812305
-0.022192561
-0.023000515
-0.023845859
-0.024750665
-0.025627032
-0.026441273
-0.027199212
-0.027903722
-0.028547146
-0.029119722
-0.029613826
-0.030023163
-0.030341611
-0.030563232
-0.030682699
-0.030695542
-0.030598231
-0.030388249
-0.030064191
-0.029625856
-0.029074309
-0.028411911
-0.027642319
-0.02677047
-0.025802543
-0.024745894
-0.023608981
-0.022401278
-0.021133173
-0.01981587
-0.018461266
-0.01708183
-0.015690458
-0.014300311
-0.012924632
-0.011576528
-0.010268733
-0.0090133279
-0.0078214333
-0.0067028705
-0.0056658006
-0.0047163541
-0.0038582497
-0.0030924764
-0.0024167483
-0.0018262907
-0.0013087007
-0.00086805496
-0.00041755057
-0.00032867293
-0.018457107
-0.019211054
-0.019997394
-0.020833616
-0.021650752
-0.022421954
-0.023151288
-0.02384053
-0.024483115
-0.025070673
-0.02559638
-0.026054337
-0.02643867
-0.026743543
-0.026963493
-0.027093644
-0.027129798
-0.027068509
-0.0269072
-0.026644255
-0.026279115
-0.025812333
-0.02524561
-0.024581821
-0.023825013
-0.022980385
-0.022054254
-0.021054001
-0.019988008
-0.018865576
-0.017696833
-0.016492621
-0.015264366
-0.014023928
-0.012783416
-0.011554992
-0.010350633
-0.0091818732
-0.0080595054
-0.0069932646
-0.0059914836
-0.0050607376
-0.0042054713
-0.0034276915
-0.0027263927
-0.0020984481
-0.001532936
-0.0010373568
-0.00052130078
-0.00038343201
-0.015187046
-0.015889247
-0.016619056
-0.017389987
-0.018148909
-0.018874806
-0.019570374
-0.02023655
-0.020867788
-0.021457033
-0.021998307
-0.022486245
-0.022915404
-0.023280266
-0.023575508
-0.02379617
-0.023937742
-0.023996243
-0.023968325
-0.023851381
-0.023643634
-0.023344222
-0.022953259
-0.022471882
-0.021902285
-0.021247736
-0.020512579
-0.019702213
-0.018823062
-0.01788253
-0.016888926
-0.015851385
-0.014779749
-0.013684437
-0.012576282
-0.011466342
-0.010365681
-0.0092851245
-0.0082349838
-0.0072247511
-0.0062627748
-0.0053559172
-0.0045091911
-0.003725461
-0.0030048475
-0.0023456873
-0.0017384739
-0.0011935832
-0.00061834483
-0.00043231824
-0.012349063
-0.013003263
-0.013680619
-0.014391144
-0.015094918
-0.01577587
-0.016435613
-0.017074422
-0.017687662
-0.018269471
-0.018814698
-0.019318566
-0.01977615
-0.020182382
-0.020532249
-0.020820928
-0.021043863
-0.021196837
-0.021276063
-0.021278292
-0.021200897
-0.021041966
-0.020800379
-0.020475871
-0.020069091
-0.019581648
-0.019016136
-0.018376155
-0.017666305
-0.016892172
-0.016060289
-0.015178074
-0.01425375
-0.013296227
-0.012314969
-0.01131982
-0.010320812
-0.0093279316
-0.0083508713
-0.0073987383
-0.006479748
-0.0056008959
-0.0047676036
-0.0039834279
-0.0032494518
-0.0025652866
-0.0019227439
-0.0013346094
-0.00070701657
-0.00047520881
-0.0099202393
-0.010531665
-0.011162126
-0.011818661
-0.012472269
-0.013111006
-0.013735613
-0.014345838
-0.014937826
-0.015506761
-0.016048255
-0.016558109
-0.017031939
-0.017465177
-0.01785321
-0.018191491
-0.018475593
-0.018701276
-0.018864567
-0.018961848
-0.018989946
-0.018946216
-0.018828629
-0.018635842
-0.018367273
-0.018023165
-0.017604633
-0.01711371
-0.016553372
-0.015927546
-0.015241106
-0.014499837
-0.01371038
-0.012880147
-0.01201721
-0.011130154
-0.010227909
-0.0093195403
-0.0084140168
-0.0075199455
-0.0066452792
-0.0057970047
-0.0049807989
-0.0042007462
-0.0034587222
-0.0027554198
-0.0020838473
-0.0014587865
-0.00078601366
-0.00051204048
-0.0078724681
-0.008446419
-0.009035839
-0.0096451102
-0.010254175
-0.010854518
-0.011446184
-0.012028483
-0.012598214
-0.013151442
-0.013684447
-0.014193563
-0.014674919
-0.015124439
-0.015537941
-0.015911211
-0.016240054
-0.016520341
-0.016748082
-0.016919499
-0.017031105
-0.017079782
-0.017062867
-0.016978225
-0.016824332
-0.016600348
-0.016306186
-0.015942569
-0.01551108
-0.015014196
-0.014455305
-0.0138387
-0.01316955
-0.012453845
-0.01169831
-0.010910291
-0.010097603
-0.0092683567
-0.0084307442
-0.0075927944
-0.0067621011
-0.0059455265
-0.0051488689
-0.0043765891
-0.0036311913
-0.0029142623
-0.0022198704
-0.0015644151
-0.00085397774
-0.00054259242
-0.0062179903
-0.0067614494
-0.0073171481
-0.007887519
-0.0084595704
-0.0090274715
-0.0095907036
-0.010148234
-0.010697381
-0.011234926
-0.011757704
-0.0122625
-0.012745893
-0.01320425
-0.013633793
-0.014030648
-0.014390886
-0.014710559
-0.014985761
-0.015212685
-0.015387694
-0.015507393
-0.015568702
-0.015568944
-0.015505915
-0.015377967
-0.015184089
-0.014923971
-0.014598075
-0.014207682
-0.013754934
-0.013242849
-0.012675314
-0.012057062
-0.011393605
-0.010691153
-0.0099564853
-0.0091968015
-0.0084195299
-0.0076321067
-0.0068417211
-0.0060550354
-0.0052778652
-0.0045149144
-0.0037691602
-0.0030428936
-0.0023310859
-0.0016513808
-0.00091064821
-0.00056709374
-0.0049031817
-0.0054217237
-0.0059500549
-0.0064888361
-0.0070305519
-0.0075714989
-0.0081107318
-0.0086469374
-0.0091778312
-0.0097007495
-0.010212964
-0.010711628
-0.011193687
-0.011655878
-0.012094772
-0.012506802
-0.012888294
-0.013235499
-0.013544638
-0.013811952
-0.014033762
-0.014206532
-0.014326939
-0.014391946
-0.014398884
-0.01434553
-0.014230192
-0.014051785
-0.013809904
-0.013504893
-0.013137896
-0.012710889
-0.0122267
-0.011689001
-0.011102269
-0.010471724
-0.0098032285
-0.0091031603
-0.0083782418
-0.0076353407
-0.0068812326
-0.0061223367
-0.0053644095
-0.0046122878