/*--------------------------------*- C++ -*----------------------------------*\
  =========                 |
  \\      /  F ield         | OpenFOAM: The Open Source CFD Toolbox
   \\    /   O peration     | Website:  https://openfoam.org
    \\  /    A nd           | Version:  6
     \\/     M anipulation  |
\*---------------------------------------------------------------------------*/
FoamFile
{
    version     2.0;
    format      ascii;
    class       volVectorField;
    location    "25";
    object      UMean;
}
// * * * * * * * * * * * * * * * * * * * * * * * * * * * * * * * * * * * * * //

dimensions      [0 1 -1 0 0 0 0];

internalField   nonuniform List<vector> 
9200
(
(0.0064765215 -0.0027591986 -7.3127006e-20)
(0.031667733 -0.015174948 6.4677196e-20)
(0.06988075 -0.026620654 -4.956883e-20)
(0.11813358 -0.03710318 -8.3938425e-20)
(0.17389475 -0.046695989 2.5165344e-20)
(0.23551825 -0.055015073 4.566654e-20)
(0.30157287 -0.061822881 -1.6894453e-20)
(0.37073305 -0.067045637 1.2864411e-20)
(0.44177328 -0.070694961 2.5700173e-20)
(0.51354135 -0.07284047 2.272007e-21)
(0.58493976 -0.073599058 -3.3278527e-20)
(0.65492487 -0.073123094 3.1592994e-20)
(0.72251877 -0.071588272 -6.1074482e-20)
(0.78682915 -0.069181753 -3.2862354e-20)
(0.84707404 -0.066090141 9.1952766e-21)
(0.90260736 -0.062489818 -3.961294e-20)
(0.95295481 -0.058527374 4.0025085e-20)
(0.99791451 -0.054192535 3.6253361e-20)
(1.0373948 -0.049384034 -1.0256885e-22)
(1.0693314 -0.046998189 -1.1984835e-21)
(0.012247313 -0.0060229938 -2.1039726e-20)
(0.049090433 -0.023099303 5.4252103e-20)
(0.09944152 -0.036654542 2.8504866e-20)
(0.15987598 -0.047463292 -1.5551082e-19)
(0.22756811 -0.056079623 -1.6537786e-20)
(0.30059113 -0.062409281 1.0217584e-19)
(0.3772258 -0.066464934 -4.9376854e-20)
(0.45586048 -0.068399009 -1.2228664e-20)
(0.53499647 -0.068424368 5.0336311e-20)
(0.61323492 -0.066792007 -6.4309787e-20)
(0.6892747 -0.063783677 -4.6566215e-20)
(0.76192873 -0.059700228 1.1123002e-19)
(0.83015066 -0.054848292 5.8467644e-20)
(0.8930648 -0.049527759 -1.0467602e-19)
(0.94999404 -0.044021569 2.2475451e-20)
(1.0004799 -0.03859124 -5.6508907e-20)
(1.0443021 -0.03346593 -2.250097e-20)
(1.081545 -0.028776636 1.0823439e-19)
(1.1124605 -0.024843021 5.1333155e-20)
(1.1358362 -0.02434241 -9.6934448e-20)
(0.019525489 -0.0090150115 4.2524289e-20)
(0.070387254 -0.029962525 9.792885e-22)
(0.13456012 -0.044622745 2.5111097e-20)
(0.20825512 -0.054652038 1.2838423e-21)
(0.28837885 -0.061163565 -4.9827453e-20)
(0.37271673 -0.064418287 2.6825965e-20)
(0.4592525 -0.064739626 1.6505301e-20)
(0.54609037 -0.062561551 -7.0477761e-20)
(0.63148177 -0.05834576 8.2411565e-20)
(0.71383499 -0.052561459 2.3062813e-20)
(0.79173472 -0.045678027 -8.2191511e-20)
(0.86397519 -0.038150501 -2.8529941e-20)
(0.92959539 -0.0304028 1.1384637e-20)
(0.98790728 -0.022812816 3.5221943e-20)
(1.0385109 -0.015701365 -1.6769583e-20)
(1.0812914 -0.0093274522 4.1232359e-20)
(1.1164026 -0.0038803465 -3.0620244e-20)
(1.1442646 0.00056200098 -1.0006558e-19)
(1.1654238 0.0038209911 -2.7920563e-20)
(1.1794819 0.004245621 6.4862808e-20)
(0.028365094 -0.011463079 2.7267566e-20)
(0.09554687 -0.035025196 6.1754129e-20)
(0.17501835 -0.049448605 2.4988493e-20)
(0.26272745 -0.057381563 1.9073135e-20)
(0.35535219 -0.060572808 2.450961e-20)
(0.45040119 -0.05970432 -6.4881251e-20)
(0.54558202 -0.055468195 -3.5870788e-20)
(0.63876083 -0.048626959 0)
(0.72801994 -0.039923072 2.6568912e-20)
(0.81169484 -0.030056961 -1.2566787e-20)
(0.88841337 -0.019677076 -1.4220922e-19)
(0.95713605 -0.0093617899 -2.1594805e-20)
(1.0171847 0.00039907815 9.5944522e-20)
(1.0682504 0.0092175492 5.7359723e-22)
(1.1103779 0.016813593 -2.2533649e-21)
(1.1439258 0.023012748 3.1004393e-20)
(1.16951 0.027743402 -6.2104282e-21)
(1.1879516 0.031059152 -8.5529156e-20)
(1.200143 0.032994817 -6.3970795e-20)
(1.2063432 0.032640775 8.4874862e-20)
(0.038738096 -0.013067463 -3.2307969e-21)
(0.124313 -0.037514463 -2.4564479e-21)
(0.22018959 -0.050057232 6.8251941e-20)
(0.32218948 -0.054426521 2.5583873e-20)
(0.42682974 -0.053073823 -4.4830578e-20)
(0.53138966 -0.047161696 1.4125901e-20)
(0.63337147 -0.037796437 3.6630387e-21)
(0.73051129 -0.026094937 4.9405476e-20)
(0.82087111 -0.013082061 8.1247725e-21)
(0.90289902 0.000335394 -2.0989336e-20)
(0.97547492 0.013380629 8.9919416e-20)
(1.0379387 0.02542439 -8.1406752e-20)
(1.0900898 0.035997917 -1.8726474e-19)
(1.132154 0.044795349 -7.8165384e-21)
(1.1647217 0.051664916 1.1421483e-19)
(1.1886637 0.056589799 0)
(1.2050372 0.059667157 1.4846101e-20)
(1.2150018 0.061107187 -1.9917225e-20)
(1.2196992 0.061116609 -1.2630605e-20)
(1.219808 0.059237024 2.5586658e-20)
(0.050519631 -0.013515576 -2.9438077e-21)
(0.15617162 -0.036675742 5.0745045e-21)
(0.26906311 -0.045472114 -1.0529407e-20)
(0.38506732 -0.044769416 3.2920633e-20)
(0.5006505 -0.037765606 -3.9600664e-20)
(0.6129629 -0.026143146 -2.2682745e-20)
(0.71943524 -0.011439492 4.3835486e-20)
(0.81784835 0.0048866297 4.8116605e-21)
(0.90645297 0.021571856 -3.8215838e-20)
(0.98403754 0.037576152 9.7416e-20)
(1.0499577 0.052090188 -1.3542078e-21)
(1.1041268 0.064542035 -1.1252098e-19)
(1.1469641 0.074592337 0)
(1.179306 0.082113861 5.2767767e-20)
(1.2022931 0.087158036 6.9237879e-21)
(1.217247 0.089912738 -1.007742e-19)
(1.2255542 0.090661367 -2.5627648e-20)
(1.2285725 0.089761658 -1.5525008e-20)
(1.2275358 0.087542795 -1.8838917e-20)
(1.2232876 0.083823939 5.0811907e-20)
(0.063480073 -0.012505607 -1.7418871e-20)
(0.19034841 -0.031834502 -9.6166567e-21)
(0.32027447 -0.034903848 3.265303e-20)
(0.44940249 -0.027703846 3.8683396e-20)
(0.57430844 -0.014180541 -2.433892e-20)
(0.69217425 0.0034629377 -9.191955e-20)
(0.80055602 0.023287474 -4.0012368e-20)
(0.8975089 0.043558042 1.0645636e-19)
(0.98171617 0.06287046 1.4111435e-20)
(1.0525391 0.080172202 -3.2622943e-20)
(1.1100024 0.094752046 1.7044719e-20)
(1.1547246 0.10622078 -6.039863e-21)
(1.1878003 0.11447464 0)
(1.2106549 0.11964183 3.5759075e-20)
(1.2248908 0.12201949 -1.0260109e-19)
(1.2321447 0.12200908 -4.0553506e-20)
(1.2339724 0.1200609 1.0222809e-19)
(1.2317708 0.11664194 -7.434817e-21)
(1.2267211 0.11214873 3.8746283e-21)
(1.2196513 0.10656835 3.4996291e-20)
(0.077283494 -0.0097753772 -3.3447495e-20)
(0.22582559 -0.022467299 -9.5530146e-20)
(0.37216469 -0.017841738 -4.3284302e-21)
(0.51296902 -0.0029244381 8.8355825e-20)
(0.64513377 0.017650147 7.858577e-20)
(0.76608938 0.041213051 -8.6452125e-20)
(0.87376307 0.065512385 3.5653161e-21)
(0.96674209 0.08866112 1.1631037e-19)
(1.0443835 0.10926198 6.4482889e-20)
(1.1068162 0.1264049 -7.2639509e-20)
(1.1548591 0.13962115 -1.2172946e-19)
(1.1898767 0.14882203 -4.1218443e-21)
(1.2135991 0.15421972 5.4404691e-20)
(1.2279334 0.15623708 -7.9278881e-21)
(1.2347923 0.155418 -1.5100495e-20)
(1.2359594 0.15234864 2.271499e-20)
(1.232999 0.14759858 5.4206892e-20)
(1.2272129 0.14168949 -5.264445e-20)
(1.2196312 0.13503215 -1.2498148e-19)
(1.2109652 0.12771223 3.1596104e-20)
(0.091458715 -0.0051325462 -4.0744472e-20)
(0.2613056 -0.0082735022 -1.8571409e-19)
(0.42275736 0.0058746612 1.0599084e-19)
(0.57327629 0.029430435 1.1568709e-19)
(0.71032655 0.057201209 7.0744867e-20)
(0.83184532 0.086171882 1.1191473e-20)
(0.93639776 0.11392989 -1.3466235e-19)
(1.0233504 0.13861429 0)
(1.0929295 0.15901821 -9.1609717e-20)
(1.1461509 0.17454174 -2.0200343e-20)
(1.184658 0.1850924 7.0174514e-20)
(1.2105073 0.19097002 1.3654622e-20)
(1.2259429 0.19274205 -5.6927123e-20)
(1.2331914 0.19112158 -6.0097657e-20)
(1.2343025 0.18686247 3.0859233e-20)
(1.2310475 0.18068007 5.6141086e-20)
(1.2248718 0.17320216 -6.8410163e-20)
(1.2168972 0.16494915 -1.2982105e-19)
(1.2079565 0.15630353 -2.5757496e-21)
(1.1986051 0.14740913 3.1991429e-20)
(0.10538344 0.0015342146 -6.6390048e-21)
(0.29522359 0.010822964 1.0139433e-19)
(0.46980723 0.03607567 -2.5904447e-21)
(0.62766488 0.068817655 -1.1011368e-19)
(0.76709424 0.10350904 5.6789318e-20)
(0.88680492 0.1369832 5.6705848e-20)
(0.98624657 0.16688375 7.1163436e-21)
(1.0657587 0.1915978 -1.2568557e-19)
(1.1265511 0.21030862 -3.1915974e-21)
(1.1705485 0.22288282 6.4134809e-20)
(1.200153 0.22970447 7.4650505e-21)
(1.2179804 0.23150417 -2.515692e-20)
(1.2266173 0.22919623 -9.3302513e-20)
(1.2284317 0.22373953 -7.0483018e-21)
(1.225452 0.21603412 5.2415578e-20)
(1.2193149 0.20685704 4.4162711e-20)
(1.2112696 0.19683412 2.2658729e-20)
(1.2022226 0.18643847 -6.5462351e-20)
(1.1928059 0.17599704 1.2456673e-20)
(1.1834191 0.16569088 9.5936259e-20)
(-0.001548197 0.0015759058 1.0786933e-21)
(-0.004820998 0.003184938 5.5306513e-22)
(-0.010840462 0.0037874052 8.3152233e-21)
(-0.016840769 0.0037484716 8.1449157e-21)
(-0.022104729 0.003273033 -8.7637891e-21)
(-0.026219964 0.0025052705 8.8726213e-21)
(-0.028899597 0.0015490803 -1.8558009e-20)
(-0.029993192 0.00047636304 -1.5800487e-20)
(-0.029446149 -0.00066364054 2.5216766e-20)
(-0.027258154 -0.0018372259 -2.0659605e-20)
(-0.023461037 -0.0030216264 -2.3667912e-22)
(-0.018105984 -0.0042018177 7.4489258e-21)
(-0.01125451 -0.0053681463 -9.7805692e-22)
(-0.0029723364 -0.0065145347 4.1590756e-20)
(0.0066742392 -0.0076369458 5.6461707e-23)
(0.017618625 -0.0087317611 -7.1288431e-20)
(0.029790789 -0.0097949211 1.3682497e-20)
(0.04312556 -0.010824553 3.9253885e-20)
(0.057594894 -0.011819305 -7.0983629e-20)
(0.073110193 -0.012722775 -4.4015677e-20)
(-0.0019017176 0.0045543483 -7.8613387e-21)
(-0.0053018839 0.0091593396 1.6720728e-21)
(-0.010790313 0.010845017 -1.258289e-20)
(-0.015844459 0.010666348 1.7888051e-20)
(-0.019878204 0.0092177318 2.0048353e-20)
(-0.02254408 0.0069207068 2.3330754e-21)
(-0.023601296 0.0040791359 -6.2249779e-20)
(-0.022932593 0.00090334204 -4.2595562e-21)
(-0.020505398 -0.0024624765 4.3957179e-20)
(-0.016334056 -0.005919515 -1.0471558e-20)
(-0.010460465 -0.0094009483 -4.3445894e-20)
(-0.0029429327 -0.012862575 9.3412161e-21)
(0.006151676 -0.016275883 4.0055513e-20)
(0.016753346 -0.019622795 1.8491357e-20)
(0.02879253 -0.022891226 3.9558414e-20)
(0.042199369 -0.026070558 -3.3746775e-20)
(0.05689281 -0.029149166 -3.5525054e-20)
(0.072786591 -0.032120588 3.6389796e-20)
(0.089922078 -0.034969152 4.1847341e-20)
(0.10851212 -0.037505472 2.2503641e-20)
(-0.0025169321 0.0070245996 -6.4316295e-21)
(-0.0060614162 0.013987219 9.0532347e-22)
(-0.010447585 0.016419802 -1.7485329e-21)
(-0.013614826 0.015945105 -8.8103642e-21)
(-0.015223627 0.013483047 1.3605538e-20)
(-0.015052265 0.0096975295 2.0434981e-20)
(-0.012949635 0.0050684588 -9.2364966e-21)
(-0.0088631727 -7.1486039e-05 -3.8870032e-20)
(-0.0028042685 -0.0054934225 1.3559243e-20)
(0.0051823789 -0.011039918 2.5710105e-20)
(0.015032942 -0.016604035 1.2571923e-20)
(0.026672435 -0.022114626 3.209118e-20)
(0.040020336 -0.027525466 3.1080219e-21)
(0.054994411 -0.032807142 -5.7249899e-20)
(0.071514215 -0.037939868 4.0147738e-21)
(0.089499281 -0.042906882 -3.2955396e-20)
(0.10884619 -0.047692524 -4.2805558e-20)
(0.1294254 -0.052288793 7.6378631e-20)
(0.15138235 -0.056640399 4.2438388e-20)
(0.17549122 -0.060350633 3.034335e-21)
(-0.0032356395 0.0087216213 -8.9690684e-21)
(-0.0067580953 0.01706404 -3.0881315e-20)
(-0.0094202193 0.019724513 5.3194904e-21)
(-0.00978222 0.018714194 8.4913459e-21)
(-0.0078388477 0.015181549 2.8534067e-21)
(-0.0035446859 0.0099790466 1.8354027e-20)
(0.0031231889 0.0037257173 2.0988417e-20)
(0.012122959 -0.0031486089 -3.4587851e-21)
(0.02337651 -0.01034681 -2.2902613e-20)
(0.036790523 -0.017663429 -5.5732334e-20)
(0.052263498 -0.024958081 8.8482716e-22)
(0.069689371 -0.032136764 7.2577118e-20)
(0.088960101 -0.039137969 -2.9734429e-20)
(0.10996704 -0.045922096 -2.0867901e-20)
(0.13260408 -0.052463092 -1.5211485e-21)
(0.15676657 -0.058741001 5.383109e-20)
(0.18231612 -0.064742986 -2.7960831e-20)
(0.20905727 -0.07047134 -8.2766236e-20)
(0.2372223 -0.075815332 6.7491899e-20)
(0.26833232 -0.080064603 5.0263967e-20)
(-0.0038523009 0.009482418 1.1890754e-21)
(-0.0069376506 0.018001448 -1.8565853e-20)
(-0.0071696811 0.020239819 -6.8670657e-20)
(-0.0038186628 0.018391487 -1.6269045e-20)
(0.0027328698 0.013719552 -1.462047e-21)
(0.012317037 0.0071995352 1.3760115e-20)
(0.024797281 -0.00045623448 -1.1261252e-20)
(0.040010818 -0.0087529516 -1.8342472e-20)
(0.057789873 -0.017347015 4.0817675e-20)
(0.077971743 -0.02599961 8.2086673e-21)
(0.10039824 -0.03454652 -4.7897286e-20)
(0.12491302 -0.042876851 1.7925939e-20)
(0.15136077 -0.05091753 0)
(0.17958647 -0.058621966 2.0003555e-20)
(0.20943737 -0.065960941 -1.5757917e-20)
(0.24076331 -0.072915602 -2.4134334e-20)
(0.27337471 -0.079484822 2.9297576e-21)
(0.30699013 -0.085702344 -5.4135154e-21)
(0.34187214 -0.09141422 6.2485941e-20)
(0.38036641 -0.0954892 -2.2125329e-20)
(-0.0041413852 0.0092560485 -9.6770495e-21)
(-0.0060810849 0.016656324 4.1293712e-20)
(-0.0030523483 0.01776072 -2.1603396e-20)
(0.0049404937 0.014745007 -4.8174562e-20)
(0.017106965 0.0088714128 -4.2873368e-20)
(0.033043169 0.0011688257 -2.7120575e-20)
(0.052430153 -0.0076080148 -2.444351e-21)
(0.07496158 -0.016936187 1.0351224e-20)
(0.10035879 -0.02645108 3.3995828e-20)
(0.12836769 -0.035897982 1.2690144e-20)
(0.1587491 -0.045101399 -1.1668367e-20)
(0.19127243 -0.053942715 -1.5631222e-21)
(0.22571043 -0.062344158 -6.3397582e-20)
(0.26183563 -0.070257455 -2.0586594e-20)
(0.29942105 -0.077655204 3.3256951e-20)
(0.33824286 -0.084525355 -3.5370866e-20)
(0.3780389 -0.090887364 -1.4044792e-20)
(0.41842697 -0.096830866 4.2196185e-20)
(0.4596314 -0.10220254 7.0247187e-20)
(0.50478763 -0.10538825 5.5674339e-21)
(-0.0038801304 0.0080923632 2.1079838e-20)
(-0.0036497887 0.013120784 1.8557469e-20)
(0.0036355249 0.012400729 7.8657426e-20)
(0.017262558 0.0079144006 4.0117114e-20)
(0.036039731 0.00081712863 3.322754e-22)
(0.059317129 -0.0078770006 -6.9247001e-20)
(0.08657859 -0.017422111 -4.0584641e-20)
(0.11735727 -0.027304708 1.772201e-20)
(0.15123953 -0.037167732 2.4120073e-20)
(0.18785421 -0.04676192 -2.0529949e-20)
(0.22685489 -0.055916734 -7.3774317e-20)
(0.26790761 -0.064518986 4.9293643e-20)
(0.31068241 -0.072497243 3.0826694e-20)
(0.35484768 -0.079811323 -4.4109319e-20)
(0.40007004 -0.086444962 1.941112e-20)
(0.44602021 -0.092402213 3.7185701e-20)
(0.49233956 -0.097732947 1.3316706e-20)
(0.53853835 -0.10260612 -2.1050319e-20)
(0.58474617 -0.10693964 -1.6878427e-20)
(0.63475602 -0.10866152 1.8717596e-20)
(-0.0028625156 0.0061178043 1.5623552e-20)
(0.00087977515 0.007682222 -3.9290555e-20)
(0.013613644 0.0045565793 7.4417753e-21)
(0.033970528 -0.001612898 5.3842653e-20)
(0.060381546 -0.0098693955 7.8975911e-20)
(0.091950797 -0.0192752 3.2353219e-20)
(0.12795409 -0.029141938 -9.1813211e-21)
(0.16774366 -0.039005097 -1.9696358e-20)
(0.21074818 -0.048544969 -1.0473511e-20)
(0.25645093 -0.05754214 5.5646214e-20)
(0.30436544 -0.065851674 -8.7703898e-21)
(0.35401912 -0.073383839 -2.7872684e-20)
(0.40494312 -0.080090086 -3.0344714e-20)
(0.45666641 -0.085954094 -7.5513116e-20)
(0.508717 -0.090986154 3.5471058e-20)
(0.56063314 -0.095221593 -2.151845e-20)
(0.61194524 -0.098755655 4.0822726e-20)
(0.66207203 -0.10186308 3.2754901e-20)
(0.71103551 -0.10462604 -1.1493159e-19)
(0.76309169 -0.10467795 3.1868881e-21)
(-0.00090780768 0.0035110522 2.869825e-20)
(0.0079832343 0.00077996496 -3.9954138e-20)
(0.027558204 -0.0051328742 -6.360068e-20)
(0.055855486 -0.013031161 -4.0555483e-20)
(0.090960733 -0.022232775 -3.1451699e-21)
(0.13173105 -0.031933415 2.092361e-20)
(0.17722328 -0.041548671 -4.5400794e-21)
(0.22659037 -0.050701303 2.80506e-20)
(0.27907539 -0.059142083 1.3634411e-20)
(0.33398267 -0.066710213 -1.7846735e-20)
(0.3906491 -0.073312291 1.5215306e-20)
(0.44842675 -0.078905996 -3.7866229e-20)
(0.50667358 -0.083487855 1.5035876e-20)
(0.56475019 -0.087085299 2.6574751e-20)
(0.62202407 -0.089751563 -5.6257121e-21)
(0.67788462 -0.091565093 3.6203563e-21)
(0.73173981 -0.092671942 -2.4402728e-21)
(0.78293731 -0.093436683 3.136022e-20)
(0.83141969 -0.094094383 3.5347572e-21)
(0.88170435 -0.092390107 -1.3058588e-20)
(0.0021398693 0.00048541393 3.2872015e-20)
(0.018067934 -0.0070230832 8.391466e-20)
(0.04604017 -0.015805135 -6.72889e-20)
(0.083562646 -0.025214775 -1.4500569e-20)
(0.12840443 -0.034917019 3.0227817e-20)
(0.1791778 -0.044294114 3.1535098e-21)
(0.23470881 -0.0529125 -4.4252589e-20)
(0.29392824 -0.060524611 1.0613992e-20)
(0.35586309 -0.066990243 1.0632826e-20)
(0.41960509 -0.072243062 -4.0276464e-20)
(0.4842832 -0.076274958 1.9506585e-21)
(0.5490505 -0.079122467 -5.8293416e-20)
(0.61308181 -0.080855181 -5.7147061e-20)
(0.67557831 -0.081566469 1.0341315e-19)
(0.73577785 -0.081365381 8.7070213e-21)
(0.79296819 -0.08037369 -2.3395015e-20)
(0.84648148 -0.078757212 2.943366e-20)
(0.89563745 -0.076798492 -1.30176e-21)
(0.94011689 -0.074552627 2.519685e-20)
(0.98323148 -0.070758081 -3.4003759e-20)
(0.09153086 -0.013035867 9.1959039e-20)
(0.11295582 -0.013419864 2.200287e-20)
(0.13599087 -0.01367857 -4.9224448e-20)
(0.16024141 -0.013719722 2.4924242e-20)
(0.18533989 -0.013642889 0)
(0.21115881 -0.013489842 0)
(0.23759791 -0.013265619 -2.9424479e-20)
(0.2645314 -0.012979758 -2.0027628e-20)
(0.29183866 -0.012645406 2.4100222e-20)
(0.31941447 -0.012272808 2.1666545e-20)
(0.34716264 -0.011869736 9.1691804e-22)
(0.37499242 -0.011443038 -1.0749074e-20)
(0.40281879 -0.01099882 9.9731513e-21)
(0.43056265 -0.010542323 1.7625279e-20)
(0.45815026 -0.010078022 -6.4053583e-21)
(0.48551261 -0.0096097712 -8.8837675e-21)
(0.51258516 -0.0091408824 -3.561323e-21)
(0.53930755 -0.0086741842 -2.9323276e-21)
(0.56562328 -0.0082120764 3.6015415e-22)
(0.59147944 -0.0077565797 9.9728064e-22)
(0.61682647 -0.007309377 2.4255089e-21)
(0.64161784 -0.0068718486 4.6427728e-21)
(0.66580979 -0.0064451044 -5.8409473e-22)
(0.68936104 -0.006030014 -2.2059646e-21)
(0.71223252 -0.005627236 -6.2188852e-23)
(0.73438705 -0.0052372478 -3.1364554e-22)
(0.75578912 -0.004860375 6.1236059e-22)
(0.77640464 -0.0044968228 2.3344116e-22)
(0.79620082 -0.0041467066 -8.949093e-22)
(0.81514608 -0.0038100823 6.0487893e-23)
(0.83321009 -0.0034869751 -4.7741918e-22)
(0.85036394 -0.0031774045 -6.7163493e-23)
(0.86658043 -0.0028814048 -2.417031e-22)
(0.88183449 -0.0025990396 2.270231e-22)
(0.89610369 -0.002330409 5.3313622e-24)
(0.90936895 -0.0020756511 6.8380281e-23)
(0.92161516 -0.0018349367 -9.8999091e-23)
(0.932832 -0.0016084638 -1.5368256e-22)
(0.94301473 -0.0013964533 -1.0988286e-22)
(0.95216508 -0.0011991573 -2.6868487e-23)
(0.96029234 -0.0010168851 -6.2023765e-23)
(0.9674151 -0.00085004521 6.6701595e-23)
(0.97356263 -0.00069919364 -7.6058606e-23)
(0.97878022 -0.00056501346 -1.338713e-22)
(0.98312376 -0.00044826453 5.7767657e-24)
(0.98668731 -0.00034937718 4.6537316e-23)
(0.98952227 -0.00026864959 1.1933677e-23)
(0.99187611 -0.00020430355 4.1826271e-24)
(0.99344763 -0.00015847783 -3.2918392e-25)
(0.99551939 -0.00010881223 1.8974949e-23)
(0.12788028 -0.038305765 -2.3085616e-20)
(0.14759973 -0.039481861 -9.2918262e-20)
(0.16944825 -0.040248525 -4.7448386e-20)
(0.19251263 -0.04035855 5.5537543e-20)
(0.21627332 -0.040133191 2.0604934e-20)
(0.24069523 -0.039693577 -2.6840009e-20)
(0.265723 -0.039046648 8.9049629e-21)
(0.29123543 -0.038218719 3.1343649e-20)
(0.31711991 -0.037248689 -2.1929685e-21)
(0.34328315 -0.03616618 -1.0011717e-20)
(0.36963819 -0.034993405 -1.1641275e-20)
(0.39610091 -0.033750156 -1.1058763e-20)
(0.4225918 -0.032454202 1.8321944e-20)
(0.44903636 -0.031120821 1.3915797e-20)
(0.47536445 -0.029763098 -1.3308489e-20)
(0.5015099 -0.028392345 -5.4696495e-21)
(0.52741027 -0.027018327 2.1641073e-21)
(0.55300677 -0.025649414 5.9200547e-21)
(0.57824401 -0.024292738 6.0648736e-21)
(0.6030698 -0.02295433 -7.145292e-21)
(0.62743498 -0.021639236 -4.4532859e-21)
(0.65129317 -0.020351615 2.7693803e-21)
(0.67460053 -0.019094832 2.3658559e-21)
(0.69731555 -0.017871539 1.2829936e-21)
(0.71939875 -0.016683766 5.4421214e-22)
(0.74081246 -0.015533001 -5.9386942e-22)
(0.76152057 -0.014420282 -7.3737156e-22)
(0.78148832 -0.013346283 1.3993645e-21)
(0.80068217 -0.012311409 8.9365079e-22)
(0.81906973 -0.011315886 -8.7150332e-22)
(0.83661982 -0.010359843 6.1905953e-22)
(0.85330258 -0.0094433868 -4.7521884e-23)
(0.86908981 -0.0085666688 -4.373679e-22)
(0.88395534 -0.0077299223 -3.4718658e-22)
(0.89787558 -0.0069334877 -1.3281907e-23)
(0.91083013 -0.0061778163 -4.9818963e-22)
(0.92280246 -0.0054634567 3.2992325e-22)
(0.9337807 -0.0047910358 -1.7646492e-22)
(0.94375838 -0.0041612492 3.5281954e-22)
(0.95273537 -0.0035748827 -3.1563361e-23)
(0.96071888 -0.0030328906 1.8967999e-22)
(0.96772524 -0.0025365209 9.6754658e-23)
(0.97378115 -0.0020874619 1.0451755e-22)
(0.97892903 -0.001687784 7.9437548e-23)
(0.98322166 -0.0013397988 9.7390339e-23)
(0.98674969 -0.0010448405 4.8713371e-23)
(0.98956115 -0.0008038818 -1.6605583e-24)
(0.99190008 -0.00061164944 -1.849546e-23)
(0.99346317 -0.0004747139 2.2731565e-23)
(0.99552849 -0.00032605697 6.2765854e-23)
(0.19646915 -0.061289608 1.6465837e-20)
(0.21299079 -0.063286614 8.1039277e-21)
(0.2325019 -0.064543281 -2.5958683e-20)
(0.25329081 -0.064706559 -4.7843086e-21)
(0.27449971 -0.064363292 2.4098714e-20)
(0.29626092 -0.063701771 -2.0545358e-20)
(0.31861259 -0.062712367 -4.2658275e-20)
(0.34143999 -0.06143213 2.1434019e-20)
(0.36464228 -0.059923795 2.5310728e-20)
(0.38814766 -0.058233647 -1.5513496e-20)
(0.41188574 -0.056395649 1.2002326e-21)
(0.43578384 -0.054440598 6.1449751e-21)
(0.45977185 -0.052396527 -1.884687e-20)
(0.48378311 -0.05028768 9.9676189e-21)
(0.50775363 -0.048134943 9.4726207e-21)
(0.53162191 -0.045956504 -4.4552004e-21)
(0.55532903 -0.043768185 -2.4928115e-21)
(0.57881877 -0.041583655 -8.7185346e-21)
(0.60203754 -0.039414649 8.0921173e-21)
(0.62493428 -0.037271171 9.2656828e-21)
(0.64746042 -0.035161656 -3.9638926e-21)
(0.66956976 -0.033093122 -1.66786e-21)
(0.69121827 -0.0310713 -7.3558573e-23)
(0.71236397 -0.029100766 -1.9301692e-21)
(0.73296668 -0.027185075 8.2913818e-22)
(0.75298782 -0.025326889 4.1003265e-22)
(0.77239024 -0.023528122 3.1469072e-21)
(0.791138 -0.021790085 -3.021203e-21)
(0.80919627 -0.02011363 3.2590214e-21)
(0.82653127 -0.018499304 6.3995496e-22)
(0.8431103 -0.016947482 1.6060091e-21)
(0.85890192 -0.015458492 6.858675e-23)
(0.87387615 -0.014032723 1.3290401e-21)
(0.88800494 -0.012670688 -1.7310004e-21)
(0.90126258 -0.011373073 4.9828478e-22)
(0.91362639 -0.01014074 6.2372722e-22)
(0.92507729 -0.008974706 -1.8374012e-22)
(0.9356006 -0.0078761166 -3.2882025e-22)
(0.94518676 -0.006846226 -1.5693713e-22)
(0.95383222 -0.0058864318 1.6803698e-22)
(0.96154042 -0.0049984019 2.5431584e-23)
(0.96832346 -0.0041842811 4.85455e-22)
(0.9742033 -0.0034469407 -1.7117691e-22)
(0.97921703 -0.0027898935 -5.3235557e-23)
(0.98341149 -0.0022170909 7.0239754e-23)
(0.98687095 -0.001730893 -6.037871e-24)
(0.98963697 -0.0013331718 2.4171657e-23)
(0.99194706 -0.0010153356 4.7391274e-23)
(0.99349378 -0.00078883285 -2.0447611e-23)
(0.99554665 -0.00054216297 -3.3526915e-23)
(0.29109363 -0.08070157 4.2303089e-21)
(0.30321872 -0.083540753 -1.3513528e-20)
(0.31931037 -0.085255138 6.0958854e-21)
(0.33686298 -0.085471431 -1.9603849e-20)
(0.35449564 -0.085078668 -2.8399842e-21)
(0.37253755 -0.084306543 1.5999553e-20)
(0.3911701 -0.083108147 -1.9401808e-20)
(0.41028685 -0.081523032 -2.2758997e-21)
(0.42979618 -0.079633136 1.6554437e-20)
(0.44965276 -0.077497468 6.905517e-21)
(0.46980738 -0.075158366 -7.4401848e-21)
(0.490201 -0.072654864 -5.779307e-21)
(0.51077428 -0.070023201 -3.1051843e-21)
(0.53146962 -0.067295146 -8.965436e-21)
(0.55223005 -0.064498362 -6.7111494e-22)
(0.57299925 -0.061657193 -3.8177891e-21)
(0.59372216 -0.058793053 2.9594666e-21)
(0.61434527 -0.055924657 -3.1579089e-21)
(0.6348168 -0.053068248 -6.6827763e-21)
(0.65508678 -0.050237822 3.4503781e-21)
(0.67510709 -0.047445313 5.2303158e-21)
(0.69483152 -0.044700762 -3.5516269e-21)
(0.71421566 -0.042012478 2.1647162e-21)
(0.73321678 -0.039387199 -1.252022e-21)
(0.75179376 -0.036830257 -6.209358e-21)
(0.76990686 -0.03434575 -2.7241791e-21)
(0.78751759 -0.031936728 -8.9959685e-22)
(0.80458857 -0.029605388 -4.909787e-22)
(0.82108341 -0.027353273 -1.6092587e-21)
(0.83696663 -0.025181475 -2.0390733e-21)
(0.85220377 -0.023090823 6.87404e-23)
(0.86676142 -0.02108206 -1.688326e-21)
(0.88060754 -0.019155984 -4.2421501e-22)
(0.89371174 -0.01731355 -7.1900155e-22)
(0.90604581 -0.015555935 -1.1663789e-23)
(0.91758419 -0.013884543 -1.1152915e-21)
(0.92830466 -0.012300992 -1.3517536e-21)
(0.93818899 -0.010807067 2.0155805e-22)
(0.94722369 -0.0094046975 1.6475314e-24)
(0.95540079 -0.0080960012 -4.2999578e-22)
(0.96271882 -0.0068834524 3.2313935e-22)
(0.96918431 -0.0057701674 -2.8960599e-22)
(0.97481291 -0.0047602641 -5.4569858e-22)
(0.9796345 -0.003858767 2.4396807e-22)
(0.9836878 -0.0030713871 -1.1334951e-23)
(0.98704824 -0.0024016891 7.134117e-23)
(0.98974836 -0.0018527828 4.0333346e-24)
(0.99201643 -0.001413032 -3.4759031e-23)
(0.99353922 -0.001099464 -1.6732413e-23)
(0.99557375 -0.00075638486 4.3975339e-23)
(0.40449117 -0.095447934 -3.8641376e-20)
(0.41127218 -0.099180008 6.7710415e-20)
(0.42294558 -0.10132771 1.3570069e-20)
(0.43641062 -0.10163933 -2.3597249e-20)
(0.44965019 -0.10132145 -6.1327072e-21)
(0.46315247 -0.10060211 3.6925421e-22)
(0.47727642 -0.099381637 -5.4391248e-21)
(0.49193154 -0.097694868 -6.1928278e-21)
(0.50702669 -0.095634285 -5.2299329e-21)
(0.52254033 -0.093266318 -1.5500156e-20)
(0.5384453 -0.090638767 2.6168078e-20)
(0.55469576 -0.087796203 1.05533e-20)
(0.57124171 -0.084780767 -1.9336901e-20)
(0.58803332 -0.081630259 6.9065562e-21)
(0.60501964 -0.07837821 4.4126859e-21)
(0.62214864 -0.075054546 3.4092678e-21)
(0.63936817 -0.071685961 -2.7745958e-22)
(0.65662664 -0.068296118 -7.423439e-21)
(0.67387337 -0.064905841 -3.0360393e-21)
(0.69105882 -0.061533295 -2.6398455e-21)
(0.70813482 -0.058194169 -5.5834721e-21)
(0.72505464 -0.054901839 0)
(0.74177305 -0.051667533 -2.3970145e-21)
(0.75824628 -0.048500505 3.9095512e-21)
(0.77443196 -0.045408226 6.8814462e-21)
(0.79028896 -0.042396585 -5.4187262e-22)
(0.8057773 -0.039470113 -5.1310378e-21)
(0.82085806 -0.036632219 5.5977574e-21)
(0.83549318 -0.033885439 -1.3357036e-21)
(0.84964551 -0.031231692 4.8686016e-21)
(0.86327879 -0.028672517 -1.7414794e-22)
(0.87635771 -0.026209296 1.6344168e-21)
(0.88884816 -0.023843439 -1.1519726e-21)
(0.90071751 -0.021576525 9.1051584e-22)
(0.91193499 -0.019410379 -8.213089e-22)
(0.92247219 -0.017347101 3.3546087e-22)
(0.93230364 -0.015389044 5.7549214e-22)
(0.94140743 -0.013538764 4.4225293e-22)
(0.94976586 -0.01179899 -8.8255065e-22)
(0.95736625 -0.010172671 5.5139975e-22)
(0.96420171 -0.0086631811 -1.9377227e-22)
(0.9702726 -0.0072746774 -9.048802e-22)
(0.97558742 -0.0060125754 9.2992265e-22)
(0.98016775 -0.0048834673 4.8622132e-23)
(0.98404282 -0.0038949414 -5.9996114e-23)
(0.98727747 -0.0030519613 7.9879205e-24)
(0.98989335 -0.002359284 -6.4231346e-23)
(0.9921073 -0.0018025556 -8.6202608e-23)
(0.99359912 -0.0014053032 5.0702378e-25)
(0.99560963 -0.00096799607 -1.2648339e-23)
(0.52928361 -0.10449602 -3.2714547e-20)
(0.53000432 -0.10927032 1.629582e-20)
(0.53638013 -0.11190482 1.0481931e-20)
(0.54501393 -0.1124549 -1.1737529e-20)
(0.55326069 -0.11242261 1.7682338e-20)
(0.56166208 -0.11198291 1.1238873e-20)
(0.57075254 -0.11098342 -1.4506993e-20)
(0.58047563 -0.10945335 -8.2549223e-21)
(0.59073132 -0.10748393 1.6783595e-20)
(0.60150915 -0.10514157 -2.5424937e-20)
(0.61279965 -0.10247724 -1.7407945e-20)
(0.62456794 -0.099539436 2.3392499e-20)
(0.63677004 -0.096374426 8.2460808e-21)
(0.64936064 -0.093024913 -1.2318384e-20)
(0.66229231 -0.089529822 2.3978932e-21)
(0.67551531 -0.085924539 -1.4299462e-22)
(0.68897873 -0.082241125 1.1311533e-21)
(0.70263146 -0.078508448 3.6295469e-21)
(0.71642269 -0.074752282 -2.1393309e-21)
(0.7303023 -0.070995413 2.8113399e-21)
(0.7442212 -0.067257774 4.0648886e-21)
(0.75813144 -0.063556584 -4.2391316e-21)
(0.77198642 -0.059906499 3.0681959e-22)
(0.78574086 -0.056319792 -2.3590852e-21)
(0.79935075 -0.052806555 1.3142856e-20)
(0.81277337 -0.049374924 8.2792237e-21)
(0.82596711 -0.046031337 2.3804392e-21)
(0.83889139 -0.042780809 -1.9199671e-21)
(0.85150659 -0.039627229 6.852901e-21)
(0.86377396 -0.03657366 1.1290094e-20)
(0.87565563 -0.033622632 2.2225757e-21)
(0.88711466 -0.030776412 4.7012327e-21)
(0.89811518 -0.028037237 2.1061532e-21)
(0.90862264 -0.025407488 1.0653521e-21)
(0.91860409 -0.022889798 -1.6919861e-23)
(0.92802865 -0.0204871 3.1872887e-21)
(0.93686797 -0.018202607 6.1287892e-22)
(0.9450968 -0.016039764 1.9581419e-22)
(0.95269356 -0.014002206 1.2043133e-23)
(0.95964108 -0.012093809 1.1026196e-21)
(0.96592727 -0.010318919 -2.2568086e-23)
(0.97154638 -0.0086827742 5.0085618e-22)
(0.97649967 -0.0071921049 2.7968336e-23)
(0.98080016 -0.0058550855 -3.5464449e-22)
(0.98446697 -0.0046812635 -9.4706115e-23)
(0.98755353 -0.0036771667 -1.7473344e-22)
(0.99006943 -0.0028496318 6.3327284e-23)
(0.99221852 -0.0021819088 -3.2531767e-23)
(0.99367298 -0.0017051334 -4.2339382e-24)
(0.99565406 -0.0011762941 7.7313798e-23)
(0.65821646 -0.10706094 1.9014956e-21)
(0.65251965 -0.11307473 -2.2035812e-20)
(0.65293754 -0.11634337 -4.6638577e-21)
(0.65616819 -0.11742815 7.2641577e-21)
(0.65909485 -0.11801185 7.6149274e-21)
(0.66214484 -0.11815658 5.5030008e-21)
(0.66596924 -0.11767738 1.4562062e-20)
(0.67057665 -0.11660808 1.1990964e-20)
(0.67586056 -0.11503045 1.1787058e-20)
(0.68180214 -0.11300336 -1.616684e-20)
(0.68839847 -0.11057865 -3.2460299e-20)
(0.69562216 -0.10780825 -8.648809e-21)
(0.70343207 -0.10474222 2.2760227e-20)
(0.71178374 -0.10142797 1.7347777e-20)
(0.72063035 -0.097910016 -4.3740703e-21)
(0.72992238 -0.094229693 -2.5930694e-21)
(0.7396085 -0.090425043 -7.8141051e-21)
(0.74963665 -0.086530803 9.0167756e-21)
(0.75995476 -0.082578394 -2.9229867e-22)
(0.77051119 -0.078595934 -2.5711458e-21)
(0.78125508 -0.074608298 1.2576206e-20)
(0.79213664 -0.070637219 -1.8109353e-21)
(0.80310731 -0.06670143 1.7950714e-21)
(0.81411982 -0.06281683 9.0031745e-22)
(0.82512825 -0.0589967 -5.3391089e-21)
(0.83608798 -0.055251953 5.0500971e-21)
(0.8469556 -0.051591413 1.1559194e-21)
(0.85768888 -0.048022141 -3.644643e-21)
(0.86824663 -0.044549765 -2.9757332e-21)
(0.87858868 -0.041178835 -8.0340378e-21)