/*--------------------------------*- C++ -*----------------------------------*\
  =========                 |
  \\      /  F ield         | OpenFOAM: The Open Source CFD Toolbox
   \\    /   O peration     | Website:  https://openfoam.org
    \\  /    A nd           | Version:  6
     \\/     M anipulation  |
\*---------------------------------------------------------------------------*/
FoamFile
{
    version     2.0;
    format      ascii;
    class       volScalarField;
    location    "24";
    object      p;
}
// * * * * * * * * * * * * * * * * * * * * * * * * * * * * * * * * * * * * * //

dimensions      [0 2 -2 0 0 0 0];

internalField   nonuniform List<scalar> 
9200
(
-0.40537186
-0.39370569
-0.3833395
-0.37416026
-0.36520312
-0.3564795
-0.34806652
-0.33992638
-0.33198496
-0.32416315
-0.31638078
-0.30856199
-0.30064268
-0.29257814
-0.28435392
-0.27600371
-0.26760517
-0.25924965
-0.25193786
-0.2498937
-0.42364851
-0.40949483
-0.39715827
-0.38643927
-0.37609084
-0.36609009
-0.35650298
-0.34725892
-0.33824974
-0.32936861
-0.32051458
-0.31159895
-0.30255339
-0.29333629
-0.28393842
-0.27438676
-0.26471637
-0.25493432
-0.24570668
-0.23915916
-0.44233311
-0.42567535
-0.41142085
-0.39923736
-0.38755503
-0.37629762
-0.36550768
-0.35507411
-0.34485326
-0.33471561
-0.3245501
-0.31427036
-0.30382188
-0.2931852
-0.28237534
-0.27143693
-0.26041672
-0.24933247
-0.23857633
-0.22924461
-0.460976
-0.44184016
-0.42573873
-0.41215467
-0.39915696
-0.38659921
-0.37449278
-0.36268635
-0.35101026
-0.33932962
-0.32754627
-0.31560194
-0.30348133
-0.29120928
-0.27884312
-0.26646155
-0.25414032
-0.24192663
-0.23008658
-0.2193555
-0.47892643
-0.45742406
-0.43959785
-0.42469086
-0.41038314
-0.3964476
-0.38286521
-0.36945684
-0.3560496
-0.34253279
-0.3288529
-0.31500943
-0.30104975
-0.28705799
-0.27314022
-0.25940913
-0.24596311
-0.23286677
-0.22030938
-0.20879967
-0.49533572
-0.47168539
-0.45231514
-0.43617337
-0.42054255
-0.40511615
-0.38985903
-0.37459243
-0.35917704
-0.34356486
-0.32778123
-0.31190823
-0.29606858
-0.28040601
-0.26506555
-0.25017769
-0.23584284
-0.22211982
-0.20913569
-0.19723103
-0.50917304
-0.4837132
-0.46304077
-0.44576166
-0.42877988
-0.41172745
-0.39458357
-0.3772135
-0.35955838
-0.34167367
-0.32369177
-0.30578992
-0.28816338
-0.27100026
-0.25446212
-0.23867243
-0.22370935
-0.20960382
-0.1964227
-0.18437043
-0.5192491
-0.49245245
-0.47079271
-0.45249663
-0.43414299
-0.41533918
-0.39612444
-0.37646293
-0.35642633
-0.3362086
-0.31606534
-0.29626648
-0.27706272
-0.25866122
-0.2412126
-0.22480876
-0.20948611
-0.19523386
-0.18205953
-0.17005154
-0.52419701
-0.49660153
-0.47425619
-0.45501229
-0.4352267
-0.41454794
-0.39313819
-0.37111949
-0.34873359
-0.32632701
-0.30426941
-0.28289814
-0.26248642
-0.24322776
-0.22523507
-0.20855026
-0.19315791
-0.17900216
-0.16603522
-0.15424527
-0.52264728
-0.49472011
-0.47185631
-0.45161502
-0.43028389
-0.40763982
-0.38403518
-0.35979561
-0.33534466
-0.31116134
-0.28768893
-0.26528422
-0.24419874
-0.22457912
-0.20648069
-0.18988768
-0.17473432
-0.16092628
-0.14836775
-0.13695894
-0.28921947
-0.29402432
-0.29659164
-0.2973448
-0.29710028
-0.29605018
-0.29427744
-0.29187087
-0.28890332
-0.28542964
-0.28149368
-0.27713263
-0.27237921
-0.26726312
-0.26181225
-0.25605533
-0.25002335
-0.24373657
-0.23719244
-0.23047985
-0.29205546
-0.29642638
-0.29867472
-0.29920194
-0.29876928
-0.29755954
-0.29565356
-0.29313624
-0.29007671
-0.28652683
-0.28252797
-0.27811514
-0.27331915
-0.2681676
-0.26268571
-0.25690113
-0.25085274
-0.2445592
-0.23790578
-0.23086174
-0.29758161
-0.30110527
-0.30273245
-0.30281799
-0.30201651
-0.30049444
-0.29832879
-0.29559681
-0.29236034
-0.28866539
-0.28454837
-0.28003992
-0.27516698
-0.26995323
-0.26441882
-0.25858842
-0.25251277
-0.24620978
-0.23936418
-0.23169766
-0.30554055
-0.30785417
-0.30858381
-0.3080206
-0.30667153
-0.30468228
-0.30212557
-0.29906827
-0.29556215
-0.29164504
-0.28734625
-0.28269016
-0.27769797
-0.27238754
-0.26677213
-0.26087084
-0.25474625
-0.24842186
-0.24132981
-0.23280129
-0.31560921
-0.3164143
-0.31600422
-0.3145987
-0.31252859
-0.30991773
-0.30683533
-0.30333647
-0.29946111
-0.29523747
-0.29068618
-0.28582306
-0.28066157
-0.27521243
-0.26948058
-0.26347635
-0.25726948
-0.25089775
-0.24353414
-0.23397448
-0.32745411
-0.32651871
-0.32476432
-0.32234078
-0.31938632
-0.31600449
-0.31226342
-0.3082068
-0.30386201
-0.29924509
-0.2943655
-0.28922939
-0.28384098
-0.27820217
-0.27230847
-0.2661584
-0.25982034
-0.25335194
-0.24570224
-0.23501799
-0.34078131
-0.33793114
-0.33466478
-0.33107024
-0.32708528
-0.32279675
-0.31827582
-0.31355413
-0.30864372
-0.30354771
-0.29826346
-0.29278517
-0.2871058
-0.28121705
-0.27510484
-0.26875544
-0.26222854
-0.255604
-0.2476758
-0.23588803
-0.35536582
-0.35046996
-0.34555931
-0.34067081
-0.33553853
-0.33023564
-0.32483648
-0.31936011
-0.31380314
-0.3081534
-0.30239297
-0.29650078
-0.29045507
-0.28423441
-0.27781415
-0.27117104
-0.26436087
-0.25750871
-0.24937651
-0.23672169
-0.37105072
-0.36399969
-0.35733572
-0.35105559
-0.34468262
-0.33827504
-0.33191237
-0.32560024
-0.31931668
-0.31303075
-0.30670535
-0.30029968
-0.29377161
-0.28707817
-0.28017126
-0.27299955
-0.26558246
-0.25802618
-0.24910077
-0.23529447
-0.38773658
-0.37841116
-0.3698802
-0.36210522
-0.35438556
-0.34676408
-0.33932504
-0.33205798
-0.32491952
-0.31785808
-0.310817
-0.30373752
-0.29656206
-0.28923461
-0.28169581
-0.27387886
-0.26572481
-0.25703012
-0.24617147
-0.23012089
-0.22284951
-0.21327502
-0.20365855
-0.19406961
-0.18445002
-0.17484172
-0.16530123
-0.15586552
-0.14656519
-0.13743026
-0.12848783
-0.1197611
-0.11126987
-0.10303083
-0.095057581
-0.087360656
-0.079947687
-0.072823576
-0.065990713
-0.059449264
-0.053197547
-0.047232495
-0.041550221
-0.036146661
-0.0310183
-0.026162929
-0.021580382
-0.017273186
-0.013247029
-0.009510949
-0.0060771656
-0.0029604692
-0.00017716852
0.0022563684
0.0043254542
0.006018919
0.0073308001
0.00826166
0.0088193384
0.0090192756
0.0088844419
0.0084465186
0.0077450184
0.0068353897
0.0057641556
0.0046365903
0.0033660936
0.002410608
0.00042997905
0.0015740541
-0.22399308
-0.2140023
-0.20427527
-0.19470778
-0.185074
-0.17543795
-0.16587589
-0.15642092
-0.14710088
-0.1379464
-0.12898497
-0.12023964
-0.11173021
-0.10347346
-0.095483066
-0.087769615
-0.080340792
-0.073201533
-0.066354238
-0.059799058
-0.053534263
-0.047556712
-0.041862411
-0.036447168
-0.03130732
-0.0264405
-0.021846385
-0.017527354
-0.013488972
-0.0097401897
-0.0062931792
-0.0031627328
-0.00036520834
0.0020829341
0.0041668834
0.0058753299
0.0072021736
0.0081478604
0.0087201417
0.0089343837
0.0088134528
0.0083888454
0.0076997718
0.0068013259
0.0057396908
0.0046200321
0.0033558858
0.0024050773
0.00043042418
0.0015706766
-0.22636975
-0.21548941
-0.20554244
-0.19606114
-0.18641337
-0.17672204
-0.16711872
-0.15762638
-0.14826537
-0.13906872
-0.13006536
-0.12127825
-0.11272729
-0.10442965
-0.096399323
-0.088647123
-0.081180929
-0.07400583
-0.067124313
-0.060536545
-0.054240747
-0.048233657
-0.042511094
-0.037068624
-0.031902294
-0.02700942
-0.022389352
-0.01804416
-0.013979141
-0.010203042
-0.0067279174
-0.0035685366
-0.0007413347
0.0017370608
0.0038516015
0.0055907015
0.0069479848
0.0079236594
0.0085252964
0.0087681177
0.0086747995
0.0082765
0.0076118666
0.0067353323
0.0056924319
0.0045881708
0.0033363137
0.0023946268
0.00043147893
0.0015640128
-0.22977977
-0.21746508
-0.20719424
-0.19794383
-0.18832487
-0.17856601
-0.16891924
-0.15938942
-0.14997957
-0.14072818
-0.13166844
-0.12282338
-0.1142132
-0.105856
-0.097766538
-0.089956201
-0.082433332
-0.075203399
-0.068269158
-0.061630926
-0.055286955
-0.049233898
-0.043467384
-0.037982686
-0.03277548
-0.02784265
-0.023183091
-0.018798422
-0.014693533
-0.010876849
-0.0073602109
-0.0041583132
-0.0012876588
0.0012349211
0.003394064
0.0051778007
0.0065793584
0.0075985927
0.0082428024
0.0085269965
0.0084735907
0.0081132901
0.0074839718
0.0066391478
0.0056234246
0.0045415617
0.003307653
0.0023792947
0.0004331885
0.0015539945
-0.23394225
-0.21961458
-0.2089172
-0.2001129
-0.19061917
-0.18080066
-0.17112631
-0.16158096
-0.15213289
-0.14282776
-0.13370821
-0.1247986
-0.1161195
-0.10769057
-0.09952808
-0.091644537
-0.084049167
-0.076748181
-0.069744914
-0.063040081
-0.056632159
-0.050517859
-0.044692705
-0.039151723
-0.033890213
-0.028904583
-0.024193192
-0.019757103
-0.01560068
-0.011731902
-0.0081622864
-0.004906367
-0.0019806618
0.00059780506
0.0028133251
0.0046534773
0.0061109972
0.0071852843
0.0078832724
0.0082196905
0.0082166417
0.0079043092
0.0073196632
0.0065150997
0.0055340585
0.0044809336
0.0032702505
0.0023591178
0.00043560445
0.0015405221
-0.23844453
-0.2216156
-0.21040179
-0.20228567
-0.1930746
-0.18323643
-0.17356211
-0.16404127
-0.15458773
-0.14524763
-0.13607826
-0.127109
-0.11836142
-0.10985712
-0.10161477
-0.093648778
-0.08596989
-0.078585564
-0.071500162
-0.064715186
-0.058229656
-0.052040598
-0.046143633
-0.04053368
-0.035205748
-0.030155808
-0.025381664
-0.020883767
-0.016665865
-0.012735377
-0.0091033827
-0.005784142
-0.0027941016
-0.00015042447
0.0021308484
0.004036815
0.0055596532
0.0066982171
0.0074589858
0.0078563409
0.0079120371
0.0076557121
0.0071233659
0.0063661575
0.0054261767
0.0044073043
0.0032246222
0.002334191
0.00043882611
0.001523477
-0.24282342
-0.22325692
-0.21141166
-0.20414264
-0.19544336
-0.18570321
-0.17607057
-0.16661676
-0.15720696
-0.14786958
-0.13867423
-0.12966081
-0.12085453
-0.11227936
-0.10395706
-0.095904992
-0.088136241
-0.080660189
-0.073482797
-0.066606854
-0.06003235
-0.053756979
-0.047776744
-0.042086677
-0.03668166
-0.031557319
-0.026710948
-0.022142373
-0.017854669
-0.013854605
-0.010152708
-0.0067628476
-0.0037012933
-0.00098526631
0.0013689045
0.0033478383
0.0049431155
0.0061529724
0.0069833502
0.0074482202
0.0075689677
0.007374702
0.0069004573
0.006196106
0.0053022711
0.0043221541
0.0031715848
0.0023047351
0.00044306055
0.0015027065
-0.24675016
-0.22491392
-0.21217311
-0.20548581
-0.19748681
-0.18808729
-0.17858357
-0.16922624
-0.15990214
-0.1506106
-0.14141915
-0.13238063
-0.12352848
-0.11489039
-0.10649156
-0.098353076
-0.090491215
-0.082917952
-0.075641401
-0.068666128
-0.061993527
-0.055622327
-0.049549224
-0.043769621
-0.038278468
-0.033071191
-0.02814466
-0.023498106
-0.019133911
-0.015058131
-0.011280646
-0.0078148228
-0.0046766388
-0.0018832727
0.00054873162
0.00260555
0.0042781576
0.0055641248
0.0064687836
0.0070056343
0.0071956802
0.0070675531
0.0066554002
0.0060078498
0.0051640329
0.0042262897
0.0031114619
0.0022706118
0.0004483916
0.0014779806
-0.2477956
-0.22674027
-0.21332469
-0.20621953
-0.19873478
-0.18996431
-0.18078176
-0.1715919
-0.16241144
-0.15323255
-0.14410428
-0.13508692
-0.12622535
-0.11755335
-0.10910021
-0.10089129
-0.092946948
-0.085282617
-0.077909354
-0.070834231
-0.064060722
-0.057589216
-0.05141766
-0.045542312
-0.03995861
-0.034662126
-0.029649566
-0.024919751
-0.020474464
-0.016319066
-0.012462732
-0.0089182121
-0.0057010373
-0.0028281755
-0.00031622644
0.0018206678
0.0035729492
0.0049375278
0.0059190679
0.0065305103
0.0067924224
0.0067330116
0.0063857074
0.0057980962
0.0050079387
0.0041165116
0.0030418123
0.002230195
0.00045398555
0.0014492967
-0.23762505
-0.22573013
-0.21426657
-0.20574517
-0.19821609
-0.19027377
-0.18175315
-0.17298115
-0.16413746
-0.15524773
-0.14634055
-0.13747529
-0.12870927
-0.12008675
-0.11164455
-0.10341492
-0.095424789
-0.0876954
-0.080242802
-0.073078339
-0.066209105
-0.059638472
-0.053366769
-0.047392078
-0.041711124
-0.036320278
-0.031216595
-0.026398853
-0.021868476
-0.017630231
-0.013692577
-0.010067534
-0.006770002
-0.003816516
-0.0012235066
0.00099475885
0.002828318
0.0042734624
0.0053341378
0.0060226129
0.0063589198
0.0063708505
0.0060912651
0.0055669175
0.0048342908
0.0039933878
0.0029632504
0.0021844886
0.00045966196
0.0014181804
-0.21554225
-0.21946347
-0.21369354
-0.20442188
-0.19649299
-0.18899355
-0.18095781
-0.17252544
-0.16396058
-0.15532611
-0.14664261
-0.1379645
-0.12935265
-0.1208557
-0.11251366
-0.10436174
-0.096429907
-0.088742282
-0.081317509
-0.074169263
-0.067306694
-0.06073496
-0.054455889
-0.048468774
-0.042771275
-0.037360418
-0.032233661
-0.027389948
-0.02283068
-0.018560461
-0.014587511
-0.010923612
-0.0075834973
-0.0045836645
-0.0019406857
0.00033083464
0.0022204146
0.0037237022
0.0048439838
0.0055929643
0.0059902052
0.0060628722
0.0058426774
0.0053743059
0.0046922504
0.0038935125
0.0029012185
0.0021453117
0.00047312444
0.0013862622
-0.2042701
-0.20921074
-0.20527613
-0.19627132
-0.18870066
-0.18199431
-0.17480747
-0.16714126
-0.15928489
-0.15131298
-0.14323698
-0.13510677
-0.12698518
-0.11892427
-0.11096748
-0.10315375
-0.095517037
-0.088085512
-0.080881747
-0.073923197
-0.067222623
-0.060788579
-0.054626056
-0.048737255
-0.043122456
-0.037780989
-0.032712267
-0.027916811
-0.023397196
-0.019158801
-0.015210237
-0.01156335
-0.0082326939
-0.0052344573
-0.0025848976
-0.0002984278
0.0016144294
0.0031489761
0.0043078363
0.0051017887
0.0055493374
0.0056764662
0.0055137298
0.0051038387
0.0044802915
0.0037347014
0.0027975529
0.0020730421
0.00048289335
0.0013374244
-0.19471337
-0.19706375
-0.19433597
-0.18712794
-0.18047253
-0.17449996
-0.16812121
-0.1612322
-0.154088
-0.14678168
-0.13932732
-0.13176864
-0.12416681
-0.11657541
-0.10903978
-0.10160107
-0.094296057
-0.087156087
-0.080207059
-0.073469804
-0.066960439
-0.0606908
-0.054669021
-0.04890026
-0.043387522
-0.038132586
-0.033136985
-0.028402998
-0.023934557
-0.019737988
-0.015822457
-0.012200011
-0.0088851385
-0.0058938034
-0.0032420088
-0.00094401699
0.00098957911
0.0025537066
0.0037502881
0.0045891131
0.0050875421
0.0052702578
0.0051665717
0.0048170405
0.0042543562
0.003563989
0.0026859603
0.0019926177
0.0004983861
0.001275931
-0.18413948
-0.1839702
-0.18169834
-0.17659246
-0.17121647
-0.16602873
-0.16047919
-0.15444347
-0.14808702
-0.14150683
-0.13473203
-0.12780411
-0.12078042
-0.11371488
-0.10665447
-0.099642167
-0.092717104
-0.085913519
-0.079260505
-0.072782239
-0.066498255
-0.060423797
-0.054570322
-0.048946159
-0.043557277
-0.038408145
-0.03350266
-0.028845086
-0.024440927
-0.020297644
-0.016425113
-0.012835709
-0.0095439475
-0.0065656331
-0.0039165591
-0.0016108694
0.00034074123
0.0019327833
0.0031664148
0.0040503456
0.0046006741
0.0048406435
0.0047981977
0.0045115827
0.0040126857
0.0033804072
0.0025653247
0.001904905
0.0005160229
0.0012049254
-0.17259546
-0.17069555
-0.1684857
-0.16509435
-0.16104111
-0.15669711
-0.15198073
-0.1468258
-0.14130395
-0.13549522
-0.12944511
-0.12319685
-0.11680263
-0.11031467
-0.1037807
-0.097244863
-0.090747894
-0.084326329
-0.078012061
-0.071832378
-0.065810118
-0.059963931
-0.054308683
-0.048856025
-0.043615079
-0.038593227
-0.033796961
-0.029232762
-0.024907921
-0.020831226
-0.017013421
-0.013467333
-0.010207589
-0.0072498865
-0.0046098339
-0.0023014686
-0.00033559851
0.0012818433
0.0025511915
0.0034799736
0.0040828859
0.0043815836
0.004402534
0.0041816079
0.0037498936
0.0031795147
0.0024319827
0.0018081131
0.00053266776
0.0011255897
-0.15983996
-0.15729976
-0.15525914
-0.15313295
-0.15026458
-0.14678858
-0.14289017
-0.13859137
-0.13390454
-0.1288796
-0.12357047
-0.11802412
-0.11228797
-0.10641061
-0.100439
-0.094417387
-0.088387137
-0.082386123
-0.076448273
-0.070603398
-0.064877213
-0.059291475
-0.053864285
-0.048610541
-0.043542525
-0.038670596
-0.03400395
-0.02955142
-0.025322234
-0.021326658
-0.017576447
-0.014085003
-0.010867165
-0.0079385907
-0.0053147542
-0.0030096149
-0.0010341144
0.00060534631
0.001908233
0.0028808096
0.0035362483
0.0038944819
0.003980385
0.0038274142
0.0034658203
0.002960947
0.002285154
0.0017020473
0.00054618186
0.0010390696
-0.14624686
-0.14394859
-0.14230611
-0.14108473
-0.13918582
-0.13654376
-0.13343136
-0.12993607
-0.1260495
-0.12179443
-0.11722083
-0.1123775
-0.10730832
-0.10205736
-0.096669122
-0.091186787
-0.085651261
-0.080100721
-0.074570181
-0.069091183
-0.063691663
-0.058395972
-0.053225053
-0.048196777
-0.043326407
-0.038627181
-0.034110973
-0.029788993
-0.025672467
-0.021773233
-0.018104162
-0.014679338
-0.011513911
-0.0086235898
-0.0060237778
-0.0037284042
-0.0017485761
-9.1188133e-05
0.0012423249
0.002256908
0.0029641163
0.0033820453
0.0035338521
0.0034505458
0.0031614367
0.0027252747
0.0021247252
0.0015869304
0.00055442447
0.00094678757
-0.13254315
-0.13089399
-0.12977828
-0.12921185
-0.1280728
-0.1261841
-0.12380383
-0.12104639
-0.11790264
-0.11437913
-0.1105162
-0.10635917
-0.10194846
-0.09732355
-0.092525284
-0.08759448
-0.082570551
-0.077490941
-0.072390742
-0.067302318
-0.062255032
-0.05727515
-0.052385899
-0.047607674
-0.042958379
-0.038453888
-0.034108588
-0.029935974
-0.025949246
-0.022161828
-0.018587767
-0.015241907
-0.0121398
-0.0092972908
-0.0067297879
-0.004451248
-0.0024729831
-0.0008024045
0.00055813336
0.0016122274
0.0023697539
0.0028468837
0.0030649363
0.0030524485
0.0028376351
0.0024729929
0.0019505442
0.0014628681
0.00055520623
0.00085027247
-0.1192602
-0.11831588
-0.11774243
-0.11767411
-0.11712843
-0.11589109
-0.11417011
-0.11207798
-0.10960967
-0.10676381
-0.10357081
-0.10006927
-0.096294784
-0.092282128
-0.088067776
-0.083689145
-0.079183177
-0.074585638
-0.069930742
-0.065250745
-0.060575586
-0.055932683
-0.051346875
-0.046840512
-0.042433671
-0.038144486
-0.033989577
-0.02998453
-0.026144393
-0.022484128
-0.019018951
-0.015764511
-0.012736827
-0.0099519606
-0.0074254005
-0.005171193
-0.0032008967
-0.0015224612
-0.00013916685
0.00095123014
0.0017568986
0.0022920311
0.002576006
0.0026348763
0.0024955732
0.0022047853
0.0017626399
0.0013299371
0.00054654763
0.00075105388
-0.10667056
-0.10633413
-0.10624658
-0.10657153
-0.10649319
-0.1058022
-0.10465665
-0.10315322
-0.10128922
-0.099059133
-0.096484842
-0.093597594
-0.09042687
-0.087002309
-0.083355619
-0.079520085
-0.075529345
-0.071416662
-0.067214518
-0.062954193
-0.058665362
-0.054375805
-0.050111255
-0.045895374
-0.041749854
-0.037694628
-0.033748171
-0.029927875
-0.026250435
-0.022732221
-0.019389565
-0.016238916
-0.013296801
-0.010579559
-0.0081028275
-0.0058808027
-0.0039253323
-0.0022449225
-0.00084377625
0.00027901234
0.0011299074
0.001721104
0.0020699623
0.0022000538
0.0021368246
0.0019216539
0.0015613399
0.0011882571
0.0005268541
0.00065059865
-0.09490572
-0.095039698
-0.095346395
-0.095978799
-0.096266951
-0.096022768
-0.095365066
-0.094371401
-0.093038628
-0.091358611
-0.089345693
-0.087023831
-0.084416592
-0.081547978
-0.078444517
-0.075134892
-0.071648831
-0.068016411
-0.064267639
-0.060432046
-0.056538257
-0.052613646
-0.048684108
-0.044773943
-0.040905854
-0.037101044
-0.033379401
-0.029759764
-0.026260202
-0.022898308
-0.019691414
-0.016656724
-0.013811276
-0.011171722
-0.0087539047
-0.0065722219
-0.0046388485
-0.0029628617
-0.0015493759
-0.00039879296
0.00049367463
0.0011382373
0.0015501902
0.0017506412
0.0017633568
0.0016249112
0.0013472808
0.0010380199
0.00049502501
0.00055025796
-0.084021034
-0.084494386
-0.0850961
-0.085956985
-0.086525032
-0.086636237
-0.086380289
-0.085817281
-0.084941964
-0.083743981
-0.08223135
-0.08042116
-0.078331133
-0.075979742
-0.073388193
-0.070580279
-0.067581406
-0.064417933
-0.061116792
-0.057705094
-0.054209706
-0.050656875
-0.047071946
-0.043479182
-0.039901665
-0.036361302
-0.032878902
-0.029474336
-0.026166723
-0.022974626
-0.019916218
-0.017009358
-0.01427156
-0.011719799
-0.0093701497
-0.0072372522
-0.0053336365
-0.0036689587
-0.0022492269
-0.0010761094
-0.0001464484
0.00054802015
0.0010205116
0.0012897033
0.0013775116
0.0013161796
0.0011214173
0.00087953744
0.00045052832
0.00045122704
-0.074025517
-0.074729741
-0.075536161
-0.076553414
-0.077324996
-0.077709243
-0.077773982
-0.077564868
-0.077074251
-0.076289815
-0.075214369
-0.073858815
-0.072235316
-0.070357194
-0.068240453
-0.065903913
-0.063368431
-0.060656315
-0.057790969
-0.054796546
-0.051697546
-0.04851844
-0.045283365
-0.042015885
-0.038738833
-0.035474234
-0.032243292
-0.029066458
-0.025963518
-0.022953716
-0.02005584
-0.017288264
-0.014668898
-0.012215008
-0.0099429038
-0.0078674825
-0.0060016421
-0.0043556147
-0.0029362768
-0.001746513
-0.00078473459
-4.4565585e-05
0.00048514339
0.00082068658
0.00098199489
0.00099740029
0.00088503442
0.0007133063
0.00039343197
0.00035451852
-0.06490222
-0.065752418
-0.06668826
-0.067799399
-0.068708232
-0.06929298
-0.069604711
-0.069677568
-0.06950196
-0.069064065
-0.068362514
-0.067402969
-0.06619261
-0.064740002
-0.06305632
-0.061155573
-0.059054066
-0.056769903
-0.05432269
-0.051733231
-0.049023183
-0.046214698
-0.04333011
-0.040391678
-0.037421382
-0.034440782
-0.031470942
-0.028532405
-0.025645214
-0.022828946
-0.020102743
-0.017485301
-0.014994796
-0.012648711
-0.010463559
-0.0084544784
-0.0066347252
-0.0050150896
-0.0036032785
-0.0024033346
-0.0014151663
-0.0006342125
-5.1350895e-05
0.00034739055
0.00057986195
0.00067084142
0.00063975406
0.00054007215
0.00032438588
0.00026094902
-0.056618423
-0.05754983
-0.058555541
-0.05970951
-0.060700125
-0.061423298
-0.061917186
-0.062206934
-0.062281717
-0.062126839
-0.061737752
-0.061115903
-0.060264254
-0.059187187
-0.057891564
-0.056386956
-0.054685309
-0.052800575
-0.050748468
-0.048546234
-0.046212359
-0.043766258
-0.041227981
-0.038617952
-0.035956745
-0.033264909
-0.030562833
-0.027870666
-0.025208267
-0.022595173
-0.020050569
-0.017593234
-0.015241437
-0.013012761
-0.010923842
-0.0089900097
-0.007224843
-0.0056396481
-0.0042429095
-0.0030397576
-0.0020315153
-0.00121535
-0.00058410621
-0.00012606083
0.00017450146
0.00033910106
0.00038753655
0.00036088237
0.00024456046
0.00017114021
-0.049131046
-0.050095558
-0.051125961
-0.052283239
-0.053311145
-0.054121355
-0.054742179
-0.055191861
-0.055459051
-0.055528834
-0.055394461
-0.055054165
-0.054507554
-0.053755547
-0.052801307
-0.051650497
-0.05031108
-0.048793081
-0.047108424
-0.045270756
-0.043295236
-0.041198278
-0.038997291
-0.036710442
-0.034356435
-0.031954312
-0.029523299
-0.027082673
-0.024651669
-0.022249388
-0.019894723
-0.017606259
-0.015402138
-0.01329988
-0.011316124
-0.0094663062
-0.0077642531
-0.0062217208
-0.0048478981
-0.0036489173
-0.0026274204
-0.0017822045
-0.0011080004
-0.00059524844
-0.00023038224
5.1059752e-06
0.0001306761
0.00017711871
0.00015555391
8.5536163e-05
-0.042391205
-0.043354319
-0.044376516
-0.045508036
-0.046539045
-0.047395215
-0.048097439
-0.04865877
-0.049067946
-0.049310417
-0.049378109
-0.049266989
-0.04897417
-0.048497877
-0.047838268
-0.046997728
-0.045980744
-0.0447938
-0.043445282
-0.041945376
-0.040305922
-0.038540222
-0.036662841
-0.034689396
-0.032636359
-0.030520865
-0.028360545
-0.026173372
-0.023977534
-0.021791307
-0.019632939
-0.017520519
-0.015471812
-0.013504071
-0.01163378
-0.0098763505
-0.0082457535
-0.006754097
-0.0054111761
-0.0042240211
-0.0031964817
-0.0023288717
-0.0016177087
-0.0010554965
-0.00063079503
-0.00032790047
-0.00012821285
-9.4961405e-06
5.9283425e-05
4.4365894e-06
-0.036347591
-0.037285671
-0.038276855
-0.039362448
-0.040371494
-0.041241986
-0.041989286
-0.042622609
-0.043131245
-0.043501478
-0.04372464
-0.043795266
-0.043708769
-0.043461431
-0.043051125
-0.042477612
-0.041742509
-0.040849244
-0.039803054
-0.038610938
-0.037281576
-0.035825213
-0.034253507
-0.032579374
-0.030816821
-0.02898078
-0.027086944
-0.025151616
-0.02319156
-0.021223864
-0.019265787
-0.017334608
-0.015447448
-0.013621057
-0.011871573
-0.010214222
-0.0086629766
-0.0072301707
-0.0059260821
-0.0047585133
-0.0037323928
-0.0028494213
-0.0021077845
-0.0015019337
-0.0010224976
-0.00065638901
-0.00038622458
-0.00019692044
-4.2124664e-05
-7.1957824e-05
-0.030948794
-0.031846702
-0.032792138
-0.03381894
-0.034788697
-0.035650164
-0.036414587
-0.03708838
-0.0376617
-0.038121987
-0.038460558
-0.038671197
-0.038748304
-0.0386869
-0.038483248
-0.038135147
-0.037641956
-0.037004607
-0.036225653
-0.035309292
-0.034261332
-0.033089142
-0.031801557
-0.03040878
-0.028922251
-0.027354523
-0.025719116
-0.024030382
-0.022303357
-0.020553619
-0.018797124
-0.017050046
-0.015328582
-0.013648741
-0.012026093
-0.010475492
-0.0090107436
-0.0076442516
-0.0063866281
-0.0052463004
-0.0042291278
-0.00333805
-0.0025727821
-0.0019295893
-0.0014010789
-0.00097660172
-0.00064021206
-0.00038284258
-0.00014643539
-0.00014349534
-0.026145108
-0.026994191
-0.027885434
-0.028846379
-0.029765861
-0.030601971
-0.031362878
-0.032052961
-0.032663422
-0.033183048
-0.033603552
-0.033918494
-0.034121816
-0.034207856
-0.034171863
-0.034010278
-0.033720799
-0.033302425
-0.032755541
-0.032081986
-0.031285075
-0.03036959
-0.029341747
-0.028209145
-0.026980687
-0.025666492
-0.024277788
-0.022826795
-0.021326602
-0.019791023
-0.018234454
-0.016671692
-0.015117757
-0.01358767
-0.012096216
-0.010657666
-0.0092854738
-0.0079919363
-0.0067878301
-0.0056820396
-0.0046811878
-0.0037892884
-0.0030074275
-0.0023335315
-0.0017620668
-0.0012846414
-0.00088686224
-0.00056475424
-0.00025138949
-0.00021002998
-0.021889792
-0.022686239
-0.023519633
-0.02441215
-0.025275439
-0.026075638
-0.026818597
-0.027507202
-0.02813377
-0.028688512
-0.029163796
-0.029553339
-0.029851045
-0.030051016
-0.030147986
-0.030137562
-0.030016312
-0.029781837
-0.029432861
-0.028969341
-0.028392517
-0.027704947
-0.026910522
-0.026014451
-0.025023241
-0.023944639
-0.022787571
-0.021562055
-0.020279106
-0.018950614
-0.017589211
-0.016208111
-0.01482093
-0.013441485
-0.012083557
-0.010760635
-0.0094856222
-0.0082705198
-0.0071260849
-0.0060614764
-0.0050838986
-0.004198258
-0.003406836
-0.002709049
-0.0021010758
-0.0015765941
-0.0011227971
-0.00074004204
-0.00035477192
-0.00027139373
-0.018140097
-0.018883548
-0.019658919
-0.02048376
-0.021288819
-0.022047131
-0.022762771
-0.023437517
-0.024064783
-0.024636185
-0.025144895
-0.025585027
-0.025950736
-0.026236224
-0.026436087
-0.026545524
-0.026560425
-0.026477455
-0.026294159
-0.026009063
-0.025621769
-0.025133005
-0.024544682
-0.023859913
-0.023083028
-0.022219567
-0.021276246
-0.020260914
-0.019182484
-0.018050846
-0.016876755
-0.015671691
-0.014447705
-0.013217224
-0.011992843
-0.010787075
-0.0096120882
-0.0084793989
-0.0073995567
-0.0063818051
-0.0054337384
-0.004560963
-0.0037667662
-0.0030518675
-0.0024139894
-0.0018486819
-0.0013446984
-0.00090609319
-0.00045447021
-0.00032738797
-0.014858307
-0.015550942
-0.016270707
-0.017031146
-0.017778966
-0.018493078
-0.019176176
-0.019829192
-0.020446564
-0.021021231
-0.021547215
-0.022019167
-0.022431669
-0.022779243
-0.023056618
-0.023258904
-0.023381674
-0.023421046
-0.023373785
-0.02323741
-0.02301029
-0.022691725
-0.02228201
-0.021782493
-0.02119562
-0.020524951
-0.019775175
-0.018952093
-0.018062587
-0.01711456
-0.016116861
-0.015079171
-0.01401187
-0.012925877
-0.011832453
-0.010742985
-0.0096687352
-0.008620565
-0.0076086354
-0.0066420879
-0.0057287137
-0.0048746229
-0.0040839099
-0.0033583992
-0.0026971703
-0.0020974396
-0.0015494492
-0.0010604081
-0.00054852639
-0.00037779213
-0.012010839
-0.012656317
-0.013324488
-0.014025375
-0.014718979
-0.01538919
-0.016037609
-0.016664505
-0.017265232
-0.017833925
-0.018365438
-0.018855009
-0.019297739
-0.019688594
-0.02002261
-0.020295029
-0.020501368
-0.020637498
-0.020699736
-0.020684945
-0.020590629
-0.020415021
-0.020157163
-0.019816978
-0.019395338
-0.018894106
-0.018316179
-0.017665504
-0.016947073
-0.016166905
-0.015331993
-0.01445023
-0.0135303
-0.012581553
-0.011613833
-0.010637291
-0.009662159
-0.0086984996
-0.0077559288
-0.0068433159
-0.0059684679
-0.0051378074
-0.0043560386
-0.0036258891
-0.0029475996
-0.0023198403
-0.0017342387
-0.0012006824
-0.00063516327
-0.0004223714
-0.0095746335
-0.010178082
-0.010800134
-0.011447824
-0.012092126
-0.012721079
-0.013335408
-0.013934853
-0.014515555
-0.015072696
-0.015601895
-0.016098968
-0.016559556
-0.016979121
-0.017353096
-0.017676987
-0.017946436
-0.01815728
-0.018305636
-0.01838799
-0.018401281
-0.018342998
-0.018211259
-0.018004889
-0.017723506
-0.017367577
-0.016938486
-0.016438569
-0.015871142
-0.015240509
-0.01455194
-0.01381163
-0.013026624
-0.012204718
-0.011354327
-0.010484317
-0.0096038212
-0.0087220054
-0.0078478212
-0.0069897258
-0.0061553832
-0.0053513526
-0.0045827593
-0.003853034
-0.0031633774
-0.0025136965
-0.0018968743
-0.0013250429
-0.00071293104
-0.00046096321
-0.0075211674
-0.0080877919
-0.0086694926
-0.0092706438
-0.0098711906
-0.010462612
-0.011044938
-0.011617472
-0.012177007
-0.012719614
-0.01324158
-0.013739253
-0.014208783
-0.014646122
-0.015047128
-0.015407635
-0.015723506
-0.015990681
-0.01620525
-0.016363526
-0.016462125
-0.016498049
-0.016468766
-0.016372296
-0.016207294
-0.015973127
-0.015669943
-0.015298736
-0.014861391
-0.014360711
-0.013800433
-0.013185206
-0.012520556
-0.011812811
-0.011069006
-0.010296748
-0.0095040528
-0.0086991514
-0.0078902606
-0.0070853284
-0.0062917529
-0.0055160848
-0.0047637038
-0.0040385594
-0.0033426188
-0.0026768122
-0.0020351324
-0.0014315507
-0.00078031343
-0.00049325978
-0.0058627193
-0.0063993809
-0.0069479329
-0.0075107994
-0.0080750019
-0.0086347075
-0.0091893873
-0.0097380015
-0.010277869
-0.010805775
-0.011318561
-0.011813027
-0.01228577
-0.012733184
-0.013151522
-0.013536956
-0.013885604
-0.01419358
-0.014457046
-0.014672279
-0.014835734
-0.014944122
-0.014994491
-0.014984306
-0.014911525
-0.014774694
-0.014573014
-0.014306421
-0.013975645
-0.013582261
-0.013128717
-0.012618349
-0.01205536
-0.011444786
-0.010792421
-0.01010472
-0.0093886582
-0.0086515672
-0.007900932
-0.0071441582
-0.0063883098
-0.0056398258
-0.0049042063
-0.0041857553
-0.0034870211
-0.0028097427
-0.0021488542
-0.0015197618
-0.00083683203
-0.0005193852
-0.0045449397
-0.0050571232
-0.0055787881
-0.0061105902
-0.0066450253
-0.0071783889
-0.0077097285
-0.0082377268
-0.0087601004
-0.0092741904
-0.0097772768
-0.010266524
-0.010738895
-0.011191151
-0.01161989
-0.012021583
-0.0123926
-0.012729244
-0.013027799
-0.013284581
-0.013495994
-0.013658604
-0.013769201
-0.013824884
-0.013823137
-0.013761916
-0.013639728
-0.013455713
-0.013209713
-0.012902336
-0.012535005
-0.01210998
-0.011630378
-0.011100146
-0.01052402
-0.0099074504
-0.0092564935
-0.0085776658
-0.0078777679
-0.0071636731
-0.006442083
-0.005719259
-0.0050007183