/*--------------------------------*- C++ -*----------------------------------*\
  =========                 |
  \\      /  F ield         | OpenFOAM: The Open Source CFD Toolbox
   \\    /   O peration     | Website:  https://openfoam.org
    \\  /    A nd           | Version:  6
     \\/     M anipulation  |
\*---------------------------------------------------------------------------*/
FoamFile
{
    version     2.0;
    format      ascii;
    class       volScalarField;
    location    "24";
    object      pMean;
}
// * * * * * * * * * * * * * * * * * * * * * * * * * * * * * * * * * * * * * //

dimensions      [0 2 -2 0 0 0 0];

internalField   nonuniform List<scalar> 
9200
(
-0.48894819
-0.472753
-0.45803378
-0.44521113
-0.43255788
-0.42000608
-0.40767237
-0.39550463
-0.38340911
-0.37130124
-0.35910735
-0.34676897
-0.3342502
-0.32154355
-0.30867689
-0.2957259
-0.28280621
-0.27003418
-0.25829981
-0.25132568
-0.51074527
-0.4921332
-0.47553634
-0.46114039
-0.44697751
-0.43296174
-0.41920029
-0.40561679
-0.3920981
-0.37854988
-0.36489808
-0.3510932
-0.33711667
-0.32298362
-0.30874359
-0.29447953
-0.28027828
-0.26618875
-0.25283567
-0.24219921
-0.53233614
-0.51138133
-0.49301422
-0.47713627
-0.46150833
-0.44601114
-0.43073746
-0.41558929
-0.4004437
-0.38521213
-0.36983947
-0.35430601
-0.33863022
-0.32286631
-0.30709797
-0.29142905
-0.27595409
-0.26072325
-0.24613039
-0.23328829
-0.55312573
-0.52992904
-0.50989546
-0.4925957
-0.47549269
-0.45842432
-0.4414722
-0.42452989
-0.40748613
-0.39028466
-0.37291738
-0.35542012
-0.33786876
-0.32036971
-0.30304704
-0.28602871
-0.26942125
-0.25328294
-0.2378895
-0.22402759
-0.57231954
-0.54706242
-0.52550719
-0.50685226
-0.48824987
-0.46949528
-0.45067329
-0.43169475
-0.41249268
-0.39307727
-0.3735179
-0.3539287
-0.33445555
-0.31525914
-0.29649784
-0.27831319
-0.26081077
-0.24404285
-0.22820266
-0.21385258
-0.58894095
-0.56190601
-0.53902373
-0.51908742
-0.4989481
-0.47837336
-0.45747999
-0.43623558
-0.41465929
-0.39286438
-0.37102373
-0.34934233
-0.32803498
-0.30730466
-0.28732519
-0.26823073
-0.2501051
-0.23297546
-0.21696267
-0.20244785
-0.60185542
-0.57343643
-0.5494761
-0.52834416
-0.50662919
-0.48410361
-0.46095944
-0.43727132
-0.41319007
-0.38896418
-0.36488506
-0.34124665
-0.31831717
-0.2963182
-0.27541298
-0.2557044
-0.23723489
-0.21999133
-0.20402466
-0.18956062
-0.60980129
-0.58051645
-0.55579735
-0.53358777
-0.51028542
-0.48571749
-0.46020581
-0.43398767
-0.40738794
-0.38081202
-0.35467082
-0.32933141
-0.3050896
-0.28215663
-0.26065904
-0.24064842
-0.22211273
-0.20499145
-0.18926839
-0.17503312
-0.61136812
-0.58177827
-0.55659646
-0.53338531
-0.50847233
-0.48181439
-0.45392661
-0.42525864
-0.39633266
-0.3677071
-0.33988818
-0.31328148
-0.28817439
-0.26473754
-0.24303966
-0.22306953
-0.20475726
-0.18799704
-0.17271143
-0.15887083
-0.60519097
-0.57575216
-0.55025932
-0.52602047
-0.49945836
-0.47074659
-0.44064897
-0.40985217
-0.37906418
-0.34895723
-0.32008098
-0.29282861
-0.2674389
-0.24401639
-0.22256096
-0.20299873
-0.18520943
-0.16905211
-0.15439614
-0.14110576
-0.3346323
-0.33702486
-0.33604855
-0.33374463
-0.3303104
-0.32580175
-0.32039726
-0.31423835
-0.30741791
-0.30001117
-0.2920848
-0.28369801
-0.27490464
-0.26575531
-0.25629883
-0.24658501
-0.23666655
-0.22658545
-0.21635885
-0.20611035
-0.33873448
-0.34055289
-0.33919099
-0.33663904
-0.33301023
-0.32835254
-0.32284126
-0.31660968
-0.30974412
-0.30231506
-0.29438508
-0.2860098
-0.27723991
-0.26812285
-0.25870359
-0.24902952
-0.23916002
-0.22913514
-0.21884796
-0.20826887
-0.34667644
-0.3473964
-0.34529775
-0.3422621
-0.33825432
-0.33330585
-0.32758397
-0.32120692
-0.31424864
-0.30676999
-0.29882533
-0.29046299
-0.2817273
-0.27265959
-0.26329787
-0.25368413
-0.24388665
-0.23394582
-0.22354774
-0.2123634
-0.35800091
-0.35718485
-0.35403919
-0.35029338
-0.34571779
-0.34032258
-0.33426408
-0.3276406
-0.32050916
-0.31291713
-0.30490705
-0.29651683
-0.2877816
-0.27873411
-0.26940321
-0.25982234
-0.25006675
-0.24018451
-0.22962603
-0.21762934
-0.3721353
-0.36945445
-0.36500569
-0.36033979
-0.35500751
-0.34899778
-0.34245549
-0.33545664
-0.32803873
-0.32023313
-0.31206779
-0.30356722
-0.29475479
-0.28565292
-0.27628011
-0.26665915
-0.2568672
-0.24696816
-0.23619844
-0.223261
-0.38849003
-0.38372546
-0.37777624
-0.3720042
-0.36573467
-0.35893964
-0.35175475
-0.34423415
-0.33639469
-0.32824888
-0.31980773
-0.31108095
-0.30207867
-0.29281171
-0.28328796
-0.27351843
-0.26357573
-0.25354335
-0.24249752
-0.22855874
-0.40654189
-0.39956752
-0.39197711
-0.38494471
-0.37757765
-0.36983796
-0.36185647
-0.35366532
-0.34525903
-0.33663126
-0.32777548
-0.31868513
-0.30935611
-0.29978751
-0.28997813
-0.27992957
-0.26970712
-0.25941609
-0.24804368
-0.2331395
-0.4258776
-0.41663535
-0.4073154
-0.39891012
-0.39032228
-0.38150919
-0.37259765
-0.36359947
-0.35448816
-0.34523727
-0.335821
-0.3262149
-0.31639917
-0.30636053
-0.2960899
-0.28558493
-0.27491352
-0.26422772
-0.25253389
-0.23686832
-0.44618578
-0.43464684
-0.42353731
-0.41367567
-0.40376778
-0.3937676
-0.38380131
-0.37386151
-0.36389997
-0.35386938
-0.34372386
-0.33342021
-0.32292138
-0.31219779
-0.30122395
-0.28997884
-0.27850641
-0.2669462
-0.25433282
-0.23758039
-0.46724228
-0.45335517
-0.44037845
-0.42896138
-0.41761239
-0.40628294
-0.39509974
-0.38403705
-0.37302616
-0.36200161
-0.3509021
-0.33967281
-0.32826956
-0.31665969
-0.30481725
-0.29271799
-0.28034868
-0.26757452
-0.25306674
-0.23431805
-0.19460339
-0.1807364
-0.16717658
-0.15408761
-0.14138385
-0.12909659
-0.11729974
-0.10603714
-0.095332241
-0.085205576
-0.075674134
-0.066747584
-0.058428801
-0.050715516
-0.043600912
-0.037073873
-0.031119485
-0.025719631
-0.020853495
-0.01649804
-0.012628465
-0.0092186511
-0.0062415712
-0.0036696574
-0.0014751269
0.00036974528
0.0018924063
0.0031198614
0.0040785612
0.0047943373
0.0052923707
0.0055971857
0.0057326454
0.0057219394
0.0055875417
0.0053511335
0.0050334814
0.0046542797
0.0042319568
0.0037834819
0.0033240995
0.0028672304
0.0024236351
0.0020027096
0.0016063254
0.0012465941
0.00088760578
0.00062716089
0.00013703935
0.00038912542
-0.19760273
-0.18308665
-0.16928015
-0.15612921
-0.14330613
-0.13087677
-0.11895281
-0.10757235
-0.096752651
-0.086515654
-0.076879702
-0.067854265
-0.059441993
-0.051640651
-0.044443412
-0.037839056
-0.031812536
-0.026345581
-0.021417206
-0.017004176
-0.013081484
-0.0096227939
-0.0066008561
-0.0039878803
-0.0017558625
0.00012313819
0.0016767784
0.0029322648
0.0039162407
0.0046547213
0.0051730629
0.0054959567
0.0056474262
0.0056508149
0.0055287456
0.0053030431
0.0049946128
0.004623282
0.0042076059
0.003764673
0.0033098404
0.0028566377
0.0024159329
0.0019972367
0.0016025339
0.0012440627
0.00088602687
0.00062626972
0.00013695243
0.00038854222
-0.20334542
-0.1875415
-0.17327804
-0.16007041
-0.14704924
-0.13435894
-0.12220135
-0.11060252
-0.099566002
-0.089117675
-0.079279573
-0.070061247
-0.061465276
-0.053489866
-0.046128481
-0.039369938
-0.033199118
-0.02759761
-0.022544204
-0.018015377
-0.013985777
-0.010428689
-0.0073164548
-0.0046208627
-0.0023134798
-0.00036593743
0.0012498416
0.0025614725
0.003595993
0.0043797961
0.0049385998
0.0052974411
0.0054806751
0.0055119641
0.0054142381
0.0052096193
0.0049192992
0.00456338
0.004160678
0.0037285282
0.003282519
0.0028364026
0.0024012646
0.0019868472
0.0015953578
0.0012392938
0.00088306011
0.00062463166
0.00013682708
0.00038739634
-0.21095674
-0.19329282
-0.17843477
-0.16529378
-0.15208985
-0.13908528
-0.12664615
-0.11478261
-0.1034738
-0.092752716
-0.082649133
-0.07317381
-0.064329867
-0.056116829
-0.048529248
-0.041556542
-0.035183926
-0.029393155
-0.024163012
-0.019469811
-0.015287919
-0.011590244
-0.0083486811
-0.0055345197
-0.0031187941
-0.0010725853
0.00063274017
0.0020253499
0.0031328228
0.0039820775
0.0045993397
0.0050101355
0.0052392909
0.0053109234
0.0052484031
0.0050742783
0.0048101529
0.0044765262
0.0040925927
0.0036760454
0.0032428089
0.0028069585
0.0023798935
0.0019716903
0.0015848747
0.0012323207
0.00087872048
0.0006222391
0.00013668624
0.00038566858
-0.21944051
-0.19949158
-0.18397549
-0.17111094
-0.157837
-0.14453821
-0.13182947
-0.1197123
-0.108128
-0.097117402
-0.086723509
-0.076961024
-0.067834694
-0.059346524
-0.0514934
-0.044266366
-0.037651752
-0.031632097
-0.026186675
-0.021292024
-0.01692251
-0.013050858
-0.0096486442
-0.0066867219
-0.004135612
-0.0019658253
-0.00014812397
0.0013462813
0.0025455949
0.0034773549
0.004168394
0.0046448296
0.0049320622
0.0050547671
0.005036857
0.0049014081
0.0046705371
0.0043652388
0.0040051831
0.0036085132
0.0031915784
0.0027688608
0.0023521539
0.0019519517
0.001571178
0.0012231799
0.00087302223
0.0006190776
0.0001365601
0.00038333162
-0.2278103
-0.205404
-0.18924375
-0.17688447
-0.16373401
-0.15023635
-0.13731792
-0.12500383
-0.11318912
-0.10191544
-0.091242923
-0.081195147
-0.07178059
-0.063004944
-0.054868895
-0.047366556
-0.040486528
-0.03421305
-0.028526654
-0.023404728
-0.018822132
-0.014751793
-0.011165244
-0.0080331098
-0.0053255299
-0.0030125227
-0.0010642794
0.00054861175
0.0018550073
0.0028831096
0.0036604161
0.004213701
0.0045690101
0.0047516501
0.0047861513
0.0046961933
0.0045044824
0.004232586
0.0039007251
0.0035275688
0.0031299622
0.0027228622
0.0023185192
0.0019279105
0.0015544203
0.0012119413
0.00086599825
0.00061513582
0.00013649288
0.00038035029
-0.23528525
-0.21059057
-0.19382723
-0.18210556
-0.16932552
-0.15581283
-0.14278119
-0.13034678
-0.11837659
-0.10689873
-0.095986829
-0.085679001
-0.07599144
-0.066935046
-0.058515711
-0.050732241
-0.043576926
-0.037036833
-0.03109467
-0.025729445
-0.020917132
-0.016631346
-0.012843957
-0.0095256402
-0.0066463559
-0.0041757677
-0.00208358
-0.00033980197
0.0010850626
0.0022198912
0.0030928733
0.0037314784
0.0041624425
0.0044117531
0.0045046101
0.004465351
0.0043173267
0.0040827337
0.0037824022
0.0034355841
0.0030596757
0.0026701606
0.0022797927
0.0019000793
0.0015349103
0.0011987709
0.00085773778
0.00061042232
0.00013655681
0.00037667799
-0.24139749
-0.21527002
-0.19788954
-0.18658241
-0.17434966
-0.16108648
-0.1480715
-0.13558187
-0.12352351
-0.1119054
-0.10080182
-0.090267213
-0.080330267
-0.071009154
-0.062315926
-0.054255254
-0.046824328
-0.040014045
-0.033810109
-0.028193832
-0.023142885
-0.018632044
-0.014633891
-0.011119448
-0.0080587223
-0.0054211859
-0.0031761723
-0.0012931859
0.00025786689
0.0015065213
0.0024816587
0.0032114564
0.0037233623
0.0040440716
0.0041994849
0.0042146304
0.0041135392
0.0039190745
0.0036527145
0.0033343347
0.0029819218
0.0026115227
0.0022364252
0.0018686935
0.0015127503
0.0011836888
0.00084823821
0.00060488249
0.00013681476
0.0003722522
-0.24389266
-0.21926058
-0.20173777
-0.19015509
-0.17839231
-0.16568524
-0.15291538
-0.14049115
-0.12844306
-0.11678169
-0.10557003
-0.094874177
-0.084738359
-0.075190959
-0.066251704
-0.057932466
-0.050236865
-0.043161101
-0.03669517
-0.03082383
-0.025527433
-0.020782757
-0.016563793
-0.01284247
-0.0095892832
-0.0067738541
-0.0043653911
-0.0023330667
-0.00064630076
0.00072503581
0.0018104892
0.0026389438
0.0032385758
0.0036368161
0.0038602998
0.0039347835
0.0038850176
0.0037345729
0.0035056183
0.0032186967
0.0028924299
0.0025434687
0.0021856668
0.0018316657
0.0014864373
0.0011656773
0.00083687275
0.00059815603
0.00013714138
0.00036705173
-0.23623261
-0.21975302
-0.20429595
-0.19191063
-0.18042577
-0.16862609
-0.15653683
-0.14451857
-0.13274709
-0.12126891
-0.11013897
-0.099431723
-0.089210404
-0.079519993
-0.070393343
-0.061853962
-0.053915891
-0.046584202
-0.039856213
-0.033722635
-0.028168573
-0.023174478
-0.018717078
-0.014770238
-0.011305724
-0.0082938737
-0.0057041726
-0.0035057238
-0.0016676177
-0.00015920575
0.0010497069
0.0019887361
0.0026868369
0.0031722406
0.003472388
0.0036138368
0.0036221278
0.0035216085
0.0033352069
0.0030842025
0.0027879195
0.0024636779
0.0021259519
0.0017880046
0.0014553922
0.0011444417
0.00082349594
0.00059028321
0.00013741063
0.00036129464
-0.21757424
-0.21401151
-0.2033576
-0.19072751
-0.17922247
-0.16800511
-0.15649023
-0.1448943
-0.13345821
-0.12226062
-0.11135432
-0.10081343
-0.090707495
-0.081088687
-0.071996121
-0.063459131
-0.055497356
-0.048121028
-0.041332071
-0.035125253
-0.0294892
-0.024407375
-0.019859041
-0.015820156
-0.01226419
-0.0091628387
-0.006486645
-0.004205515
-0.0022891281
-0.00070724906
0.00057004775
0.0015722249
0.0023281775
0.0028661543
0.0032136764
0.0033974362
0.0034431563
0.0033754062
0.0032173686
0.0029906003
0.0027147168
0.0024073376
0.0020832683
0.0017561284
0.0014320207
0.0011275563
0.0008125466
0.00058277951
0.00013895827
0.00035506229
-0.20401652
-0.20153814
-0.19306445
-0.18145636
-0.17088905
-0.16085614
-0.15052757
-0.1400005
-0.12952221
-0.11918285
-0.10903393
-0.099149894
-0.089605409
-0.080459859
-0.07176002
-0.06354312
-0.055836784
-0.048659068
-0.042019354
-0.035919389
-0.030354234
-0.025313211
-0.020780839
-0.016737748
-0.013161503
-0.010027353
-0.007308895
-0.0049786285
-0.0030084146
-0.0013698379
-3.4478776e-05
0.0010258866
0.0018391397
0.0024327033
0.0028334305
0.0030674788
0.0031601531
0.0031357098
0.0030171165
0.0028258051
0.0025813533
0.0023014068
0.0020009049
0.0016935617
0.0013860111
0.0010945208
0.00079153779
0.00056774347
0.0001402066
0.00034497288
-0.19154861
-0.18764937
-0.18080929
-0.17131494
-0.16206768
-0.15313022
-0.1439139
-0.13443523
-0.12490422
-0.11542336
-0.10604894
-0.096852816
-0.087910316
-0.079284779
-0.071027995
-0.063182777
-0.05578291
-0.048852931
-0.042408734
-0.036458425
-0.031003149
-0.026037937
-0.021552584
-0.017532518
-0.01395961
-0.010812933
-0.008069428
-0.0057044954
-0.0036924839
-0.0020070924
-0.0006216852
0.00049046637
0.0013559964
0.0020012915
0.0024523486
0.0027346244
0.0028728592
0.002890868
0.0028112921
0.0026553419
0.0024424785
0.0021903054
0.0019138515
0.0016268653
0.0013365451
0.0010586132
0.00076867902
0.00055078654
0.00014289835
0.00033207319
-0.17816972
-0.17312562
-0.1672747
-0.16000608
-0.15232548
-0.14452238
-0.13642979
-0.12805412
-0.11953149
-0.11096341
-0.10241811
-0.093967331
-0.085685036
-0.077636947
-0.069879006
-0.062458801
-0.055415534
-0.048779693
-0.042573362
-0.036810854
-0.031499384
-0.026639795
-0.022227343
-0.018252505
-0.014701751
-0.011558284
-0.0088027135
-0.0064136548
-0.004368249
-0.0026425968
-0.0012121118
-5.1803852e-05
0.00086349408
0.0015589356
0.0020594868
0.0023897486
0.0025737613
0.0026347804
0.0025950194
0.0024753829
0.002295146
0.0020718159
0.0018204748
0.001554872
0.0012827849
0.0010193053
0.00074348373
0.00053197362
0.00014612204
0.00031701633
-0.1641184
-0.15861263
-0.15343468
-0.14799379
-0.14185993
-0.13522364
-0.12824608
-0.12098133
-0.11349697
-0.10587742
-0.098200743
-0.090540201
-0.082966928
-0.075546805
-0.068338461
-0.061393108
-0.054754314
-0.048457675
-0.042530879
-0.036994076
-0.03186036
-0.027136347
-0.022822843
-0.018915547
-0.015405769
-0.012281128
-0.0095262066
-0.0071231506
-0.0050522049
-0.0032921709
-0.0018207937
-0.00061508188
0.00034842631
0.0010934362
0.0016436895
0.0020227595
0.0022538334
0.002359474
0.0023613513
0.0022799664
0.0021343293
0.0019417894
0.0017174365
0.0014749852
0.0012227799
0.00097523445
0.00071498164
0.00051087188
0.00014920321
0.00030007296
-0.1493879
-0.14421043
-0.13976497
-0.13574024
-0.1309862
-0.12550214
-0.11960637
-0.11341344
-0.10695179
-0.1002821
-0.093484247
-0.086632602
-0.07979491
-0.073035129
-0.066412612
-0.059980662
-0.053785826
-0.047867578
-0.042258215
-0.036982965
-0.032060256
-0.02750212
-0.023314714
-0.019498904
-0.016050887
-0.012962826
-0.010223465
-0.0078187057
-0.0057321452
-0.0039455417
-0.0024392269
-0.0011924553
-0.00018370387
0.00060906699
0.0012081748
0.0016359833
0.0019146632
0.0020659379
0.0021108055
0.0020692521
0.0019599288
0.0017999518
0.0016043587
0.0013867872
0.0011561098
0.00092604551
0.00068282496
0.00048735707
0.00015167429
0.00028149206
-0.13438277
-0.13008778
-0.12649304
-0.12356322
-0.11997074
-0.11556985
-0.11070181
-0.10551831
-0.10003488
-0.094291174
-0.088360854
-0.082316661
-0.076222683
-0.070139514
-0.064125285
-0.058233733
-0.05251293
-0.047004874
-0.041745282
-0.036763479
-0.032082445
-0.027719037
-0.023684346
-0.019984139
-0.01661937
-0.01358672
-0.01087915
-0.0084864428
-0.0063957106
-0.004591864
-0.0030580312
-0.0017759279
-0.00072618272
0.00011137323
0.0007574399
0.0012329914
0.001559017
0.0017562506
0.0018448832
0.0018442669
0.0017725909
0.0016466538
0.0014813689
0.001290251
0.0010826405
0.00087157697
0.00064677996
0.00046136951
0.00015304767
0.00026156046
-0.1197024
-0.1164614
-0.11373983
-0.11167539
-0.10903864
-0.10561336
-0.10169643
-0.097445769
-0.092876581
-0.088014448
-0.082922127
-0.077667124
-0.072309113
-0.066904369
-0.061508138
-0.056172942
-0.050946918
-0.045873209
-0.040989673
-0.036328609
-0.031916604
-0.027774573
-0.023917941
-0.020356939
-0.017096978
-0.014139086
-0.011480375
-0.0091145204
-0.007032229
-0.0052216888
-0.0036689816
-0.0023584603
-0.0012730901
-0.00039475906
0.00029543342
0.00081689842
0.0011892804
0.0014321731
0.0015648221
0.001605821
0.0015727863
0.0014821056
0.0013484859
0.0011852675
0.0010021793
0.00081162234
0.00060658491
0.00043281166
0.00015281536
0.00024056541
-0.10574455
-0.10348123
-0.10156793
-0.10020791
-0.098356528
-0.095782998
-0.092723002
-0.089319729
-0.085589703
-0.081550078
-0.077251769
-0.072754155
-0.068111267
-0.063374303
-0.058594369
-0.053821298
-0.049101898
-0.04447913
-0.039991717
-0.035673754
-0.031554396
-0.027657724
-0.02400276
-0.020603613
-0.017469716
-0.014606132
-0.012013934
-0.009690592
-0.0076303962
-0.0058248592
-0.0042631119
-0.0029322727
-0.0018177925
-0.00090377646
-0.00017328729
0.00039136097
0.00080831158
0.0010958694
0.0012721957
0.0013549976
0.0013612023
0.0013066856
0.0012058561
0.0010718212
0.00091460096
0.00074601423
0.00056201004
0.00040156935
0.00015050457
0.00021876914
-0.092695378
-0.091245654
-0.090028427
-0.089247827
-0.088042279
-0.086195684
-0.083888966
-0.081241979
-0.078269981
-0.074984442
-0.071425325
-0.06764257
-0.063683348
-0.059593065
-0.055417762
-0.051203394
-0.046994187
-0.042831692
-0.038754284
-0.03479669
-0.030989558
-0.027359174
-0.023927333
-0.020711326
-0.017724048
-0.014974178
-0.012466435
-0.010201891
-0.0081783092
-0.0063904948
-0.0048306557
-0.0034887491
-0.0023528176
-0.0014093104
-0.00064339346
-3.9250829e-05
0.00041961422
0.0007500758
0.00096907458
0.0010933028
0.0011388783
0.0011210585
0.0010538531
0.00095007029
0.00081991123
0.00067467058
0.0005128922
0.00036752901
0.00014571087
0.00019639385
-0.080635037
-0.079825225
-0.079174539
-0.078862691
-0.078183287
-0.076944879
-0.075285298
-0.073300409
-0.071001744
-0.068395986
-0.065513417
-0.0623944
-0.059078544
-0.055604859
-0.052013669
-0.048346148
-0.044642895
-0.04094296
-0.037283257
-0.033698038
-0.030218384
-0.026871804
-0.023681975
-0.020668607
-0.017847405
-0.015230133
-0.012824756
-0.010635647
-0.0086638401
-0.0069073217
-0.0053613319
-0.0040186796
-0.0028700554
-0.0019043409
-0.0011089142
-0.0004699522
2.7265983e-05
0.00039805238
0.00065799706
0.00082265129
0.00090720292
0.00092618026
0.00089308862
0.00082036107
0.00071826136
0.00059760939
0.00045914859
0.00033058922
0.00013811938
0.00017361534
-0.069586158
-0.06926135
-0.069051309
-0.069106271
-0.06884669
-0.068106544
-0.066990588
-0.065573462
-0.063861962
-0.061858315
-0.059584327
-0.057071305
-0.054351163
-0.051456205
-0.048420635
-0.045280238
-0.042071191
-0.038829128
-0.035588531
-0.03238217
-0.029240548
-0.026191425
-0.02325946
-0.020465957
-0.017828716
-0.015361981
-0.013076461
-0.010979441
-0.0090749407
-0.0073639261
-0.0058445521
-0.0045124268
-0.0033608892
-0.0023812956
-0.0015633092
-0.00089519382
-0.00036411284
4.3567277e-05
0.00034196587
0.00054537283
0.00066792744
0.00072331704
0.00072443267
0.00068324923
0.00060996845
0.00051496805
0.00040079234
0.00029067797
0.00012751932
0.00015056344
-0.059534392
-0.059566698
-0.059686485
-0.060016891
-0.060082651
-0.059741146
-0.059071537
-0.058130818
-0.056921234
-0.055441025
-0.053704685
-0.051735335
-0.049557523
-0.047196897
-0.044681425
-0.042041192
-0.039307424
-0.036511658
-0.033685146
-0.030858308
-0.028060155
-0.025317784
-0.022655942
-0.020096696
-0.017659183
-0.015359452
-0.013210388
-0.011221714
-0.0094000633
-0.0077491013
-0.0062697009
-0.0049601462
-0.0038163643
-0.0028321753
-0.0019995572
-0.0013089204
-0.00074939379
-0.00030911863
2.4447869e-05
0.00026422321
0.00042318488
0.00051406854
0.00054904023
0.00053952648
0.00049554032
0.00042702739
0.00033795092
0.0002477761
0.00011381332
0.00012733057
-0.050443783
-0.050731176
-0.051088506
-0.051615936
-0.051924915
-0.051893848
-0.051581981
-0.05103206
-0.050242583
-0.049208536
-0.047938309
-0.046447915
-0.044755199
-0.042879531
-0.040842828
-0.038669449
-0.036385429
-0.034017778
-0.031593946
-0.029141304
-0.026686604
-0.024255453
-0.021871861
-0.019557842
-0.017333101
-0.015214789
-0.013217338
-0.011352373
-0.0096286883
-0.0080522931
-0.0066265039
-0.0053520847
-0.004227423
-0.0032487343
-0.0024102904
-0.0017046663
-0.0011230041
-0.00065529017
-0.00029064449
-1.7618999e-05
0.00017549788
0.0003003841
0.00036837158
0.00039024365
0.00037569819
0.00033423487
0.0002708837
0.00020194225
9.7019539e-05
0.0001039844
-0.042265197
-0.042727723
-0.043248371
-0.043908264
-0.044391257
-0.04459456
-0.044562018
-0.044325124
-0.043879623
-0.043218131
-0.042344181
-0.041267864
-0.040001211
-0.038557953
-0.036954397
-0.035209428
-0.033343924
-0.031380203
-0.029341574
-0.027251881
-0.025135013
-0.023014415
-0.020912622
-0.018850847
-0.016848622
-0.014923492
-0.013090786
-0.011363441
-0.0097519086
-0.0082641115
-0.0069054645
-0.0056789438
-0.0045852011
-0.0036227152
-0.0027879749
-0.0020756898
-0.0014790227
-0.00098984244
-0.00059899252
-0.00029657217
-7.2226014e-05
8.4568674e-05
0.00018420568
0.00023672852
0.00025139618
0.0002372259
0.00019999887
0.00015333744
7.7269899e-05
8.0583471e-05
-0.034941291
-0.035517457
-0.036143376
-0.036884477
-0.037484979
-0.037858817
-0.038038092
-0.038045589
-0.03787527
-0.03751827
-0.036974483
-0.036249288
-0.035349908
-0.034285242
-0.033066639
-0.031707977
-0.030225259
-0.028636197
-0.026959861
-0.025216311
-0.023426182
-0.02161024
-0.019788956
-0.017982095
-0.016208339
-0.014484961
-0.012827533
-0.011249706
-0.0097630378
-0.0083768869
-0.007098359
-0.0059323086
-0.0048813891
-0.0039461458
-0.003125149
-0.0024151584
-0.0018113192
-0.0013073811
-0.00089593988
-0.00056869472
-0.00031671768
-0.00013072543
-1.3573872e-06
8.0595648e-05
0.00012383508
0.00013684094
0.00012586797
0.00010224618
5.4804778e-05
5.7192047e-05
-0.028410624
-0.029054163
-0.029741117
-0.030524039
-0.031197278
-0.031689507
-0.032023991
-0.032216923
-0.032261313
-0.032147615
-0.031873185
-0.031439847
-0.030851042
-0.030111728
-0.029229067
-0.028212565
-0.027073821
-0.025826238
-0.024484774
-0.023065672
-0.021586121
-0.020063894
-0.018516966
-0.01696314
-0.015419685
-0.013902994
-0.012428282
-0.011009319
-0.0096582139
-0.0083852516
-0.0071987773
-0.0061051361
-0.0051086607
-0.0042117062
-0.0034147279
-0.0027163965
-0.0021137495
-0.0016023719
-0.0011766026
-0.00082976245
-0.00055439727
-0.00034252871
-0.00018591082
-7.6256586e-05
-5.5328338e-06
3.4135884e-05
4.9236509e-05
4.9092112e-05
2.9966644e-05
3.389349e-05
-0.022610726
-0.023287667
-0.024002864
-0.024798333
-0.025509887
-0.026079031
-0.026522464
-0.026851476
-0.027058789
-0.027134821
-0.027075328
-0.026879614
-0.026548305
-0.026083309
-0.025488417
-0.024769492
-0.023934327
-0.022992475
-0.021955096
-0.02083477
-0.019645256
-0.018401205
-0.017117845
-0.015810663
-0.014495075
-0.0131861
-0.011898062
-0.010644306
-0.0094369566
-0.0082867121
-0.0072026848
-0.0061922862
-0.0052611602
-0.0044131617
-0.0036503798
-0.0029732019
-0.0023804164
-0.0018693493
-0.0014360315
-0.0010753905
-0.00078146225
-0.00054761472
-0.00036677935
-0.00023166731
-0.00013501286
-6.9618254e-05
-2.8972509e-05
-5.5542485e-06
3.1920146e-06
1.0800111e-05
-0.017480238
-0.018166367
-0.01888629
-0.019673394
-0.020397653
-0.021011628
-0.021527169
-0.021951978
-0.022278971
-0.022499003
-0.022606987
-0.022600573
-0.02247843
-0.022240239
-0.021887217
-0.021422328
-0.020850227
-0.020177179
-0.019410987
-0.018560886
-0.017637384
-0.01665206
-0.015617323
-0.01454615
-0.013451813
-0.012347591
-0.011246485
-0.010160949
-0.0091026356
-0.0080821718
-0.0071089684
-0.0061910663
-0.0053350238
-0.0045458471
-0.0038269622
-0.0031802293
-0.0026059962
-0.0021031883
-0.0016694323
-0.0013012071
-0.00099402012
-0.00074259782
-0.00054108806
-0.00038325884
-0.00026269561
-0.00017295005
-0.00010766516
-6.0977259e-05
-2.4997764e-05
-1.1940251e-05
-0.01296056
-0.013639264
-0.014347739
-0.015112299
-0.01583095
-0.016465674
-0.017024759
-0.017513314
-0.017924761
-0.018250709
-0.018485794
-0.0186267
-0.018670851
-0.018616418
-0.018462767
-0.018210673
-0.017862322
-0.017421294
-0.016892557
-0.016282424
-0.015598467
-0.014849389
-0.014044858
-0.013195309
-0.012311734
-0.011405436
-0.010487789
-0.0095699855
-0.0086627981
-0.0077763519
-0.0069199202
-0.0061017469
-0.0053289021
-0.0046071739
-0.0039409974
-0.003333423
-0.0027861233
-0.0022994365
-0.0018724445
-0.0015030818
-0.00118827
-0.00092407355
-0.00070586719
-0.00052851189
-0.0003865083
-0.00027422097
-0.00018559683
-0.00011632908
-5.4008718e-05
-3.4141736e-05
-0.0089969489
-0.0096574483
-0.010344025
-0.011077169
-0.011777802
-0.012415855
-0.012997005
-0.013524495
-0.013992435
-0.014393366
-0.014722034
-0.014974682
-0.015148041
-0.01523936
-0.015246773
-0.015169495
-0.015007869
-0.014763388
-0.014438729
-0.014037762
-0.013565524
-0.013028148
-0.012432765
-0.011787376
-0.011100689
-0.010381943
-0.0096407007
-0.0088866432
-0.0081293515
-0.0073780955
-0.0066416314
-0.005928017
-0.0052444494
-0.0045971303
-0.0039911626
-0.0034304804
-0.0029178143
-0.0024546918
-0.0020414703
-0.0016774032
-0.001360732
-0.0010888023
-0.00085819502
-0.00066487326
-0.00050429287
-0.00037168014
-0.00026140875
-0.0001706548
-8.3190173e-05
-5.5581855e-05
-0.00553942
-0.0061752941
-0.0068338507
-0.0075307655
-0.0082056039
-0.0088349501
-0.0094225606
-0.0099703449
-0.01047317
-0.010924578
-0.011319677
-0.011654625
-0.011925879
-0.012130214
-0.012265027
-0.012328507
-0.0123197
-0.012238557
-0.012085991
-0.011863922
-0.011575286
-0.011224021
-0.010815019
-0.010354051
-0.0098476664
-0.0093030654
-0.0087279483
-0.0081303484
-0.0075184526
-0.006900416
-0.0062841759
-0.0056772742
-0.0050866908
-0.0045186966
-0.0039787288
-0.0034712926
-0.0029998935
-0.0025669989
-0.0021740316
-0.001821393
-0.0015085144
-0.0012339314
-0.00099537703
-0.00078989599
-0.00061391222
-0.00046354247
-0.00033368274
-0.00022293069
-0.00011185643
-7.6007309e-05
-0.0025434595
-0.0031516153
-0.0037793487
-0.0044383544
-0.0050832891
-0.0056962466
-0.0062795698
-0.0068342115
-0.0073557936
-0.0078388437
-0.0082789684
-0.0086724796
-0.009015837
-0.0093056705
-0.0095390145
-0.0097134537
-0.0098271902
-0.0098791032
-0.0098688178
-0.0097967654
-0.0096642235
-0.0094733321
-0.0092270885
-0.008929318
-0.0085846205
-0.0081982921
-0.0077762237
-0.0073247798
-0.0068506591
-0.0063607443
-0.0058619431
-0.0053610278
-0.0048644786
-0.0043783357
-0.0039080655
-0.0034584465
-0.0030334758
-0.0026363017
-0.0022691824
-0.001933472
-0.0016296311
-0.001357263
-0.0011151663
-0.00090141606
-0.00071338747
-0.00054809221
-0.00040101577
-0.00027211624
-0.00013931517
-9.5144024e-05
3.0420047e-05
-0.00054918515
-0.0011455976
-0.0017671928
-0.0023807659
-0.002972936
-0.0035450019
-0.0040972261
-0.0046259331
-0.0051265699
-0.0055952913
-0.0060286967
-0.0064234267
-0.0067761818
-0.0070838999
-0.0073438735
-0.0075538136
-0.0077119094
-0.0078168993
-0.0078681374
-0.0078656471
-0.00781016
-0.0077031379
-0.0075467774
-0.0073439943
-0.0070983868
-0.0068141775
-0.0064961343
-0.0061494741
-0.0057797487
-0.0053927191
-0.0049942214
-0.004590028
-0.0041857108
-0.0037865095
-0.0033972103
-0.0030220395
-0.0026645748
-0.0023276769
-0.0020134436
-0.0017231861
-0.0014574278
-0.0012159197
-0.00099768617
-0.0008010081
-0.00062376983
-0.00046208431
-0.0003171989
-0.00016488915
-0.00011270339
0.0022122684
0.0016600128
0.0010934328
0.00050683809
-7.6224551e-05
-0.00064602851
-0.0012030978
-0.0017471955
-0.0022752683
-0.0027835799
-0.0032688253
-0.00372795
-0.0041578692
-0.0045554822
-0.0049178023
-0.005242047
-0.0055256935
-0.0057665345
-0.0059627435
-0.0061129403
-0.0062162494
-0.00627235
-0.0062815149
-0.0062446373
-0.0061632433
-0.0060394864
-0.0058761253
-0.0056764827
-0.0054443856
-0.0051840892
-0.0049001854
-0.0045974978
-0.0042809689
-0.0039555403
-0.0036260326
-0.0032970268
-0.002972754
-0.002656994
-0.0023529894
-0.0020633746
-0.0017901236
-0.0015345163
-0.0012971196
-0.0010778011
-0.00087567185
-0.00068943799
-0.00051584635
-0.00035734248
-0.00018801526
-0.00012843311
0.0040341772
0.0035072617
0.00296809
0.0024132317
0.0018586286
0.0013110754
0.00077061926
0.00023786424
-0.00028466279
-0.00079392283
-0.0012871043
-0.0017615047
-0.0022143458
-0.002642785
-0.003044006
-0.0034152856
-0.0037540401
-0.0040578731
-0.0043246328
-0.0045524714
-0.0047399026
-0.0048858548
-0.0049897183
-0.0050513856
-0.0050712819
-0.0050503827
-0.0049902182
-0.0048928621
-0.0047609048
-0.0045974093
-0.0044058529
-0.0041900526
-0.0039540789
-0.0037021594
-0.0034385742
-0.0031675489
-0.0028931465
-0.0026191633
-0.002349032
-0.0020857337
-0.0018317242
-0.0015888735
-0.0013584176
-0.0011409426
-0.00093629272
-0.00074391919
-0.0005611804
-0.0003916036
-0.00020801684
-0.00014197714
0.0054954292
0.0049899581
0.0044740976
0.0039460178
0.0034158676
0.0028882169
0.0023635378
0.0018426932
0.0013277827
0.00082127967
0.00032557657
-0.00015694395
-0.00062379705
-0.0010724053
-0.001500159
-0.0019044633
-0.002282776
-0.0026326471
-0.0029517674
-0.0032380203
-0.0034895344
-0.0037047355
-0.003882397
-0.0040216859
-0.0041222041
-0.0041840207
-0.0042076954
-0.0041942896
-0.0041453642
-0.0040629636
-0.0039495841
-0.0038081277
-0.0036418418
-0.0034542453
-0.003249044
-0.0030300369
-0.0028010174
-0.0025656711
-0.0023274751
-0.0020896004
-0.0018548226
-0.0016254421
-0.0014032119
-0.0011892969
-0.00098415316
-0.00078787067
-0.00059836142
-0.00042008047
-0.00022497305
-0.00015337208