/*--------------------------------*- C++ -*----------------------------------*\
  =========                 |
  \\      /  F ield         | OpenFOAM: The Open Source CFD Toolbox
   \\    /   O peration     | Website:  https://openfoam.org
    \\  /    A nd           | Version:  6
     \\/     M anipulation  |
\*---------------------------------------------------------------------------*/
FoamFile
{
    version     2.0;
    format      ascii;
    class       volVectorField;
    location    "93";
    object      U;
}
// * * * * * * * * * * * * * * * * * * * * * * * * * * * * * * * * * * * * * //

dimensions      [0 1 -1 0 0 0 0];

internalField   nonuniform List<vector> 
9200
(
(0.0010403296 0.0014194626 -5.9209614e-20)
(0.013680353 -0.0020606362 4.6049433e-20)
(0.038322471 -0.0058705485 -3.8507268e-20)
(0.072290131 -0.0097692185 -6.026599e-20)
(0.11378795 -0.01349752 1.8829957e-20)
(0.16161257 -0.01661495 3.2748692e-20)
(0.21471241 -0.018828387 -1.2270109e-20)
(0.27211681 -0.019986813 9.270495e-21)
(0.33291712 -0.020025989 1.680563e-20)
(0.39623463 -0.018945701 1.4850299e-21)
(0.46119682 -0.016798412 -2.1459849e-20)
(0.52692779 -0.013678366 2.0673537e-20)
(0.59255055 -0.009710791 -4.0428675e-20)
(0.65719913 -0.0050408781 -2.1137915e-20)
(0.72003925 0.00017797314 5.9057119e-21)
(0.7802948 0.0057938197 -2.5137092e-20)
(0.83729402 0.011679631 2.5223197e-20)
(0.8905941 0.017882171 2.2251279e-20)
(0.93979625 0.024533684 -2.9775366e-22)
(0.98217621 0.028250515 -1.6672184e-21)
(0.0052538545 -0.0013471757 -1.7061573e-20)
(0.026968858 -0.0089922425 3.9753263e-20)
(0.061682904 -0.014815001 2.3579659e-20)
(0.10631547 -0.019179372 -1.1571232e-19)
(0.1587651 -0.022222887 -1.2728967e-20)
(0.21757266 -0.023731293 7.3306229e-20)
(0.28142238 -0.023607364 -3.5481249e-20)
(0.34906601 -0.021882868 -8.3916836e-21)
(0.41930978 -0.018661072 3.4292541e-20)
(0.49099026 -0.014098085 -4.3266352e-20)
(0.56296274 -0.0083949877 -3.0343831e-20)
(0.63410752 -0.0017875649 7.1935474e-20)
(0.70334972 0.0054653079 3.8301408e-20)
(0.76968811 0.013093212 -6.7991359e-20)
(0.83222894 0.020824089 1.4627376e-20)
(0.89021926 0.028388887 -3.6742529e-20)
(0.94308865 0.035535786 -1.3779899e-20)
(0.9905506 0.042103694 7.099634e-20)
(1.0324715 0.04767468 2.9655081e-20)
(1.0670463 0.049096021 -8.3492201e-20)
(0.010860936 -0.0040436496 3.6777842e-20)
(0.043962196 -0.015435061 2.5050402e-21)
(0.09053218 -0.02255846 2.2344968e-20)
(0.14713736 -0.026505399 9.8128526e-22)
(0.21137865 -0.027896003 -4.0779952e-20)
(0.28151452 -0.026806335 1.8578434e-20)
(0.35592825 -0.023395365 1.3422271e-20)
(0.43305883 -0.017935558 -5.033475e-20)
(0.51140397 -0.01075109 5.7270486e-20)
(0.58951494 -0.0022008417 1.4259533e-20)
(0.66600638 0.0073292527 -5.4311082e-20)
(0.73958451 0.017439692 -1.8241768e-20)
(0.80908535 0.027733803 9.0585988e-21)
(0.87351537 0.037834026 2.3450431e-20)
(0.93208781 0.047396011 -1.1365909e-20)
(0.98424748 0.056117871 2.7884806e-20)
(1.0296857 0.063754758 -2.0192941e-20)
(1.0683727 0.070166469 -7.0143766e-20)
(1.1004356 0.075077878 -2.3804104e-20)
(1.1250092 0.076596516 4.8669342e-20)
(0.017960697 -0.0064236487 2.4510728e-20)
(0.064788516 -0.0206993 5.104524e-20)
(0.12487336 -0.028067548 1.9883945e-20)
(0.19450133 -0.030472475 1.2991162e-20)
(0.27099224 -0.029104668 1.7277501e-20)
(0.35230321 -0.024400024 -4.7726056e-20)
(0.43649714 -0.016838139 -2.5650303e-20)
(0.52169658 -0.006989963 0)
(0.6061152 0.0045525059 1.3924348e-20)
(0.68808168 0.017195772 -5.8548088e-21)
(0.76607647 0.030356252 -9.7953316e-20)
(0.83878055 0.043479921 -1.5776854e-20)
(0.90512412 0.056064505 6.5119036e-20)
(0.96432537 0.067679265 4.8260682e-22)
(1.0159121 0.07797976 -1.5729548e-21)
(1.0597215 0.086715486 2.1963202e-20)
(1.0958792 0.093737379 -5.2665411e-21)
(1.1247769 0.099026837 -6.1045836e-20)
(1.146956 0.10255495 -4.5864637e-20)
(1.1623811 0.10336838 6.953498e-20)
(0.026583995 -0.0082073165 -3.919716e-21)
(0.089358512 -0.0240382 -5.1261678e-21)
(0.16433316 -0.030271705 5.6605496e-20)
(0.24761867 -0.029818144 1.8541191e-20)
(0.33629118 -0.024522215 -3.1958727e-20)
(0.42801273 -0.015249918 1.2165265e-20)
(0.5205453 -0.0028622456 2.6406619e-21)
(0.61174633 0.011725289 3.3614932e-20)
(0.6996384 0.027627186 5.6609556e-21)
(0.78246633 0.044014335 -1.3208206e-20)
(0.85875663 0.060131413 6.0168798e-20)
(0.92737416 0.075321855 -5.8020413e-20)
(0.98756225 0.089051522 -1.321962e-19)
(1.0389571 0.10092459 -5.5786406e-21)
(1.0815736 0.11068927 8.3171893e-20)
(1.1157624 0.11823265 0)
(1.1421466 0.12357077 1.0121234e-20)
(1.1615531 0.12685186 -1.5463762e-20)
(1.1748984 0.1282565 -8.6018307e-21)
(1.1827422 0.1274037 2.0996908e-20)
(0.036672662 -0.0090912153 -5.4310371e-21)
(0.1173327 -0.024689864 4.3583105e-21)
(0.20814889 -0.028146345 -8.7638601e-21)
(0.30520012 -0.023422098 2.8475365e-20)
(0.40539113 -0.013083378 -2.939626e-20)
(0.5061391 0.0015143099 -1.6929286e-20)
(0.60498316 0.019086248 3.7368221e-20)
(0.6996368 0.038355534 4.7597824e-21)
(0.78809807 0.058156716 -2.4442208e-20)
(0.86873292 0.077470399 6.9881034e-20)
(0.94034107 0.095443856 5.2231862e-22)
(1.0021972 0.11141411 -8.0463417e-20)
(1.054057 0.12492236 0)
(1.0961243 0.13571354 3.9552363e-20)
(1.1289849 0.14372087 5.5251227e-21)
(1.1535156 0.1490377 -7.7585136e-20)
(1.1707814 0.15188428 -1.9591605e-20)
(1.1819393 0.15258536 -1.2470617e-20)
(1.1881309 0.15148451 -1.4713051e-20)
(1.1902129 0.14854041 4.0430006e-20)
(0.048065843 -0.0087688903 -1.7279224e-20)
(0.14810379 -0.021935896 -2.2208573e-21)
(0.25517532 -0.02080286 3.0383114e-20)
(0.36551211 -0.010418272 3.7487454e-20)
(0.4759653 0.0058959062 -1.9946963e-20)
(0.58381523 0.026263409 -6.9172781e-20)
(0.68652409 0.048970856 -2.8000862e-20)
(0.78185177 0.072410559 7.8942443e-20)
(0.86799683 0.09520383 8.5806051e-21)
(0.94368678 0.11623896 -2.4877526e-20)
(1.008224 0.13468504 1.3643556e-20)
(1.0614837 0.14999926 -4.3209498e-21)
(1.1038629 0.16191688 0)
(1.136187 0.17042093 2.7209479e-20)
(1.1595892 0.17569604 -7.934016e-20)
(1.1753816 0.17807303 -3.1482602e-20)
(1.1849313 0.17797404 8.1072842e-20)
(1.1895616 0.17587219 -4.2983898e-21)
(1.1904678 0.17221545 3.5567774e-21)
(1.1885688 0.16715025 2.7118336e-20)
(0.060493439 -0.006958528 -3.2416876e-20)
(0.18080137 -0.015173252 -8.1632022e-20)
(0.30392795 -0.0075868383 2.578809e-21)
(0.42647831 0.0097001665 7.0169793e-20)
(0.54541688 0.03262857 6.2432073e-20)
(0.65805711 0.058817052 -7.1582883e-20)
(0.76199334 0.086173057 -2.8138036e-22)
(0.85527331 0.11284779 8.5538602e-20)
(0.93654719 0.13737209 4.8836843e-20)
(1.0051361 0.15868499 -5.4229513e-20)
(1.0610291 0.17612393 -9.2352917e-20)
(1.104815 0.18939843 -3.1596321e-21)
(1.1375627 0.19854066 4.2136604e-20)
(1.1606696 0.20383606 -6.6070558e-21)
(1.1757021 0.20574404 -1.2871374e-20)
(1.1842501 0.20481961 1.9694557e-20)
(1.1878106 0.20164624 4.3889912e-20)
(1.1877089 0.19679033 -4.3868414e-20)
(1.1850551 0.19074079 -1.0234449e-19)
(1.1806813 0.18373352 2.4573176e-20)
(0.07354655 -0.0034336446 -3.4983234e-20)
(0.21425318 -0.003990459 -1.7389841e-19)
(0.35255868 0.011838291 8.2113206e-20)
(0.48568429 0.037017954 9.2778435e-20)
(0.61092224 0.066835715 5.7977488e-20)
(0.7258454 0.09848142 8.6120344e-21)
(0.82843315 0.1295966 -1.0625614e-19)
(0.91727935 0.15824093 0)
(0.9917185 0.1830242 -6.8762627e-20)
(1.0518426 0.20310526 -1.5205804e-20)
(1.0984266 0.21813842 5.4714101e-20)
(1.1327854 0.22819695 1.0975617e-20)
(1.1565913 0.23367495 -4.5622778e-20)
(1.1716824 0.23517811 -4.9090771e-20)
(1.1798914 0.23341852 2.4292791e-20)
(1.1829117 0.22912523 4.4832331e-20)
(1.1822115 0.22297903 -5.5611954e-20)
(1.1789951 0.21557492 -1.0753305e-19)
(1.1742027 0.20738677 -3.1513056e-21)
(1.1685096 0.19868142 2.705187e-20)
(0.086660793 0.0019613699 -3.546032e-21)
(0.24698873 0.011816997 8.7921418e-20)
(0.39889219 0.037493872 -1.647596e-20)
(0.54046345 0.07122119 -8.4321254e-20)
(0.6695692 0.10779252 4.5170647e-20)
(0.7842982 0.14411906 4.9180862e-20)
(0.88327362 0.17775943 5.5366153e-21)
(0.96586568 0.20688584 -9.9519212e-20)
(1.0322636 0.23038632 -2.5053341e-21)
(1.0834184 0.24781055 5.0513121e-20)
(1.1208896 0.25925435 5.9866172e-21)
(1.1466344 0.26522369 -1.9721078e-20)
(1.162785 0.26648904 -7.5718808e-20)
(1.1714464 0.26394636 -6.2562745e-21)
(1.174542 0.25850119 4.3541319e-20)
(1.1737168 0.2509849 3.7028741e-20)
(1.1702968 0.24210545 1.9796532e-20)
(1.1652957 0.23242806 -5.3006713e-20)
(1.1594541 0.22237159 1.295782e-20)
(1.1532753 0.21220373 8.267429e-20)
(-0.0012934634 0.0014348857 -1.1234146e-21)
(-0.0047466764 0.0031878803 2.0649565e-21)
(-0.010772915 0.0041364738 8.801779e-22)
(-0.017756759 0.0045401237 -2.4410546e-21)
(-0.024743638 0.0045659646 -1.4120795e-21)
(-0.031303632 0.0043265068 1.5465149e-21)
(-0.037165918 0.0039038988 -6.8719076e-21)
(-0.042152391 0.0033579551 -5.9587489e-21)
(-0.046162872 0.0027314725 1.1174827e-20)
(-0.049151214 0.002054768 -9.7452368e-21)
(-0.051105377 0.0013490738 -1.9831683e-22)
(-0.052034631 0.00062902136 3.6684029e-21)
(-0.051961148 -9.5473982e-05 -6.3308337e-22)
(-0.050914266 -0.00081770958 2.2825139e-20)
(-0.048926878 -0.0015328303 3.0400691e-22)
(-0.046034889 -0.0022363783 -4.0895092e-20)
(-0.042279514 -0.002923704 7.5410418e-21)
(-0.037699038 -0.0035927195 2.3871568e-20)
(-0.032301857 -0.0042419264 -4.3866569e-20)
(-0.026147372 -0.004823313 -2.7748423e-20)
(-0.0016524474 0.0041815074 -5.3726927e-21)
(-0.0053982526 0.0092694638 1.0866692e-20)
(-0.011220032 0.012009063 -1.0193428e-20)
(-0.01766031 0.013155425 3.9243568e-21)
(-0.023859366 0.013196947 4.8136977e-21)
(-0.02943673 0.012464014 7.1343996e-22)
(-0.034156008 0.011197978 -2.2515278e-20)
(-0.037864112 0.0095744767 -2.0375255e-21)
(-0.040477832 0.0077191389 2.0168549e-20)
(-0.041961996 0.0057209186 -5.0486199e-21)
(-0.042311297 0.0036420582 -2.1768201e-20)
(-0.041538679 0.0015253825 4.8985929e-21)
(-0.039667762 -0.00060018978 2.2641188e-20)
(-0.036727539 -0.0027152317 1.0311225e-20)
(-0.032748588 -0.0048057814 2.1860706e-20)
(-0.027763496 -0.00685926 -1.9776491e-20)
(-0.021816553 -0.0088626694 -2.1679331e-20)
(-0.014955113 -0.010809413 2.1191528e-20)
(-0.0071145545 -0.012684966 2.6818752e-20)
(0.001892553 -0.014323963 1.5859405e-20)
(-0.0023037534 0.0065612048 -4.3577143e-21)
(-0.0065400765 0.014482193 -5.6392564e-21)
(-0.011893555 0.018712966 3.0718571e-22)
(-0.017212984 0.020430637 1.0956823e-21)
(-0.021821287 0.020402547 6.6932796e-21)
(-0.025433201 0.019153471 1.0667446e-20)
(-0.027879133 0.017067544 -3.7236483e-21)
(-0.029054616 0.014424395 -1.8900548e-20)
(-0.028909517 0.011424247 6.5428732e-21)
(-0.027430336 0.0082090255 1.2865638e-20)
(-0.024625465 0.0048780697 5.8357703e-21)
(-0.020515971 0.0014996562 1.8163405e-20)
(-0.015129591 -0.0018803722 1.7300366e-21)
(-0.0084963623 -0.0052317366 -3.3873174e-20)
(-0.00064481508 -0.0085331368 1.202679e-21)
(0.008396552 -0.011765736 -2.2144623e-20)
(0.01857629 -0.014911889 -2.4473795e-20)
(0.029825928 -0.017962781 4.5833734e-20)
(0.042333538 -0.02086544 2.5357624e-20)
(0.056772711 -0.023259356 1.2306676e-22)
(-0.0031294354 0.0083701483 -5.2843797e-21)
(-0.0078973098 0.018338899 -8.4842414e-21)
(-0.012440197 0.023590664 4.3600253e-21)
(-0.016027771 0.025612489 4.147204e-21)
(-0.018235962 0.02538521 2.0109304e-21)
(-0.018912944 0.023591179 7.32265e-21)
(-0.017983995 0.020731351 9.3145105e-21)
(-0.015414588 0.01717055 -1.3514261e-21)
(-0.011203125 0.013170482 -1.148444e-20)
(-0.0053690944 0.0089170142 -2.9078473e-20)
(0.0020568984 0.0045403633 6.2038284e-23)
(0.01103839 0.00013001229 4.070729e-20)
(0.021537664 -0.0042545433 -1.83872e-20)
(0.033517325 -0.0085745429 -1.2299098e-20)
(0.046944513 -0.012803947 5.5320119e-22)
(0.061789129 -0.016921782 3.2311243e-20)
(0.077987596 -0.020913214 -1.4834334e-20)
(0.0954329 -0.024776637 -5.3353614e-20)
(0.11444571 -0.028394778 4.5777472e-20)
(0.13640024 -0.031089894 3.3022438e-20)
(-0.0039708786 0.009466972 -6.8782583e-22)
(-0.0090925428 0.020490236 -1.2536925e-20)
(-0.01236529 0.026161933 -3.4151436e-20)
(-0.013552827 0.028146039 -5.7255591e-21)
(-0.012532527 0.027557172 -3.6227273e-21)
(-0.0093145398 0.025189416 6.3063895e-21)
(-0.0039415088 0.021627748 -4.6471516e-21)
(0.003532704 0.01729813 -8.8087183e-21)
(0.013046336 0.012506636 2.1904051e-20)
(0.024534207 0.0074709423 5.0575474e-21)
(0.037932478 0.0023439306 -2.529612e-20)
(0.053178893 -0.0027693141 1.1080465e-20)
(0.070213368 -0.0077990438 0)
(0.088978686 -0.012701196 1.2092314e-20)
(0.1094237 -0.017448626 -9.7038798e-21)
(0.13150238 -0.022023513 -1.4340809e-20)
(0.15512629 -0.026424278 -1.5731713e-21)
(0.18012758 -0.03067719 -2.2191529e-21)
(0.20692167 -0.034596556 4.615758e-20)
(0.23774117 -0.037042068 -1.0474406e-20)
(-0.0046455759 0.00978202 -7.5368224e-21)
(-0.0096779595 0.020750044 2.4520935e-20)
(-0.011064554 0.026163361 -1.0501484e-20)
(-0.0090958028 0.027726492 -2.7474272e-20)
(-0.0039768647 0.026603 -2.7552853e-20)
(0.0041014709 0.023648678 -1.4924296e-20)
(0.014962466 0.019495475 -6.9070994e-22)
(0.028448174 0.014602307 5.5509033e-21)
(0.044419303 0.0092995001 1.9619274e-20)
(0.062751464 0.0038228106 7.3544564e-21)
(0.083330693 -0.0016621169 -7.1875014e-21)
(0.10605135 -0.0070414496 -2.0103151e-21)
(0.13081254 -0.012240247 -3.819955e-20)
(0.15751557 -0.017212931 -1.26963e-20)
(0.18606583 -0.021935032 1.8755284e-20)
(0.21637383 -0.02639723 -2.1026826e-20)
(0.24830297 -0.030622052 -8.9751566e-21)
(0.28159848 -0.034692881 3.0446686e-20)
(0.31669621 -0.038389686 5.0483081e-20)
(0.35674955 -0.039991514 3.3568603e-21)
(-0.0049621778 0.0093149491 1.6785698e-20)
(-0.0091665894 0.019099294 1.4470042e-20)
(-0.0078585631 0.023564877 5.1153976e-20)
(-0.0018557491 0.024329863 2.339213e-20)
(0.0083012792 0.022523722 1.8255048e-22)
(0.022230999 0.019013058 -3.9395218e-20)
(0.039610712 0.014438133 -2.43181e-20)
(0.060166073 0.0092619168 1.0467485e-20)
(0.083662853 0.003817014 1.4404012e-20)
(0.10989665 -0.0016593964 -1.3115653e-20)
(0.13868243 -0.0070010892 -4.4046767e-20)
(0.16984596 -0.012095002 2.962409e-20)
(0.20321631 -0.016868477 2.0024013e-20)
(0.23862023 -0.021280563 -2.7556542e-20)
(0.27588202 -0.025315306 1.1652688e-20)
(0.31482712 -0.028978488 2.420261e-20)
(0.355234 -0.032326874 8.074333e-21)
(0.39673206 -0.035533103 -1.1767338e-20)
(0.43968475 -0.038421843 -1.4192535e-20)
(0.48810273 -0.038666421 5.8765361e-21)
(-0.0047310189 0.00812432 1.109558e-20)
(-0.0070582656 0.015671943 -2.3357023e-20)
(-0.0020271843 0.018562347 8.6209776e-21)
(0.009037596 0.018215646 3.3593623e-20)
(0.02526525 0.015649337 5.2132803e-20)
(0.046079894 0.011692306 2.0279785e-20)
(0.071003547 0.0069559847 -5.8649955e-21)
(0.099627193 0.0018761681 -1.2288058e-20)
(0.13160112 -0.0032359142 -6.2069643e-21)
(0.16661543 -0.0081604064 3.4246509e-20)
(0.20438218 -0.012746192 -4.5116471e-21)
(0.24462148 -0.016894266 -1.6646463e-20)
(0.28705047 -0.020546054 -1.9696833e-20)
(0.3313752 -0.023676148 -4.7452678e-20)
(0.37728944 -0.026287713 2.3243111e-20)
(0.42448222 -0.028412558 -1.4098884e-20)
(0.47260378 -0.030154894 2.5999304e-20)
(0.52114942 -0.031813102 2.1045428e-20)
(0.57033577 -0.033383381 -8.5584891e-20)
(0.62483913 -0.032094508 -1.0722532e-22)
(-0.0037710149 0.0063149191 2.1928162e-20)
(-0.0028644675 0.010734892 -2.6169922e-20)
(0.0071461323 0.011563048 -4.5020182e-20)
(0.024458188 0.0099226904 -2.7258078e-20)
(0.04788377 0.0066485319 -2.0442993e-21)
(0.076647525 0.0024851763 1.3051785e-20)
(0.11010231 -0.0020226438 -2.8339523e-21)
(0.14768517 -0.0064970692 1.8121145e-20)
(0.18890229 -0.010674674 8.8696912e-21)
(0.23330208 -0.014375675 -1.1381877e-20)
(0.28045088 -0.01748436 8.8798159e-21)
(0.32991502 -0.019934446 -2.3907228e-20)
(0.38124757 -0.021698643 8.0523149e-21)
(0.43397937 -0.022782204 1.6759559e-20)
(0.48761744 -0.023219096 -2.6400178e-21)
(0.54165439 -0.023074232 1.6621576e-21)
(0.59555119 -0.022499396 -3.1938341e-22)
(0.64864121 -0.021902702 1.9594521e-20)
(0.70095225 -0.021480407 4.0441769e-21)
(0.75758652 -0.018537414 -5.7763885e-22)
(-0.0019105741 0.0040272304 2.3695736e-20)
(0.0038720311 0.0046752785 5.7169129e-20)
(0.02032169 0.0031854055 -4.9251538e-20)
(0.045189752 0.00029036588 -9.9468894e-21)
(0.076982817 -0.003429876 2.0259092e-20)
(0.11472107 -0.0073610866 2.1436692e-21)
(0.1575717 -0.011064313 -2.9819251e-20)
(0.20478993 -0.014255411 6.9855709e-21)
(0.25570044 -0.01675117 7.1111281e-21)
(0.30966541 -0.018442222 -2.6258195e-20)
(0.3660571 -0.019277447 1.2930166e-21)
(0.42424018 -0.019251371 -3.7180406e-20)
(0.48356136 -0.018393948 -3.634759e-20)
(0.54334529 -0.016762364 6.5696252e-20)
(0.60289635 -0.01443385 5.5639299e-21)
(0.66150473 -0.011505036 -1.5192714e-20)
(0.71843023 -0.0081338976 1.9367888e-20)
(0.77282658 -0.004627539 -9.1907114e-22)
(0.82421961 -0.0010056826 2.0366572e-20)
(0.8763528 0.0042872768 -1.9560682e-20)
(-0.018823436 -0.0051020779 5.8372286e-20)
(-0.010207533 -0.005637559 1.5788837e-20)
(-0.00019927844 -0.0060717635 -3.5151822e-20)
(0.010850541 -0.0063372081 1.6796842e-20)
(0.022675759 -0.0065153481 0)
(0.035217756 -0.0066335891 0)
(0.048416744 -0.006694663 -2.2984232e-20)
(0.062193027 -0.0067064112 -1.6509547e-20)
(0.076476214 -0.0066782198 1.9131238e-20)
(0.091206823 -0.0066168785 1.8182246e-20)
(0.10632991 -0.0065275794 1.052763e-21)
(0.12179369 -0.0064148867 -1.0322145e-20)
(0.1375499 -0.0062827599 8.3315735e-21)
(0.15355336 -0.006134547 1.8242068e-20)
(0.16976134 -0.0059731123 -5.2309755e-21)
(0.18613323 -0.0058009422 -1.017969e-20)
(0.20263033 -0.005620209 -4.3216188e-21)
(0.21921566 -0.0054328228 -4.4273693e-21)
(0.23585385 -0.005240477 7.3684558e-22)
(0.25251111 -0.0050446832 1.2293771e-21)
(0.26915516 -0.0048467977 2.5688654e-21)
(0.28575531 -0.0046480417 6.6582929e-21)
(0.30228247 -0.004449516 2.4802896e-22)
(0.3187092 -0.0042522115 -3.4541704e-21)
(0.33500979 -0.0040570175 1.5544746e-22)
(0.35116029 -0.0038647275 -5.7762385e-22)
(0.36713862 -0.0036760432 1.2446777e-21)
(0.38292453 -0.0034915791 1.0528701e-21)
(0.39849971 -0.0033118659 -1.3014365e-21)
(0.41384776 -0.0031373542 -1.2207158e-22)
(0.4289542 -0.0029684183 3.4255298e-23)
(0.44380649 -0.0028053611 -3.5253357e-22)
(0.45839394 -0.0026484186 -4.0730653e-22)
(0.47270776 -0.0024977653 5.6541016e-23)
(0.48674094 -0.00235352 -1.3852355e-22)
(0.50048829 -0.0022157522 -2.2406247e-22)
(0.51394634 -0.0020844883 2.5664688e-22)
(0.52711338 -0.0019597188 2.9630548e-22)
(0.53998933 -0.0018414076 -9.1651083e-24)
(0.55257616 -0.0017294953 -1.5744001e-22)
(0.56487674 -0.0016239289 3.0381553e-23)
(0.5768989 -0.001524615 -4.0396353e-23)
(0.58864372 -0.0014316407 9.4057707e-23)
(0.60014288 -0.0013446685 2.1539984e-23)
(0.61134919 -0.0012650412 -1.1918323e-22)
(0.62246621 -0.0011894669 -7.1768133e-24)
(0.6329933 -0.0011304952 1.6406424e-25)
(0.64451329 -0.001054576 -4.2583729e-24)
(0.65271919 -0.0010740145 2.9257926e-23)
(0.66977779 -0.00090193234 3.6692801e-22)
(0.010468171 -0.01502486 -1.2751861e-20)
(0.01820623 -0.016649007 -6.3323649e-20)
(0.027810721 -0.017924144 -3.055362e-20)
(0.038422235 -0.018681427 3.8490505e-20)
(0.049664185 -0.019193532 1.466833e-20)
(0.061556502 -0.019539953 -1.8212945e-20)
(0.074069978 -0.019720942 4.6751597e-21)
(0.087127742 -0.019758101 2.5457518e-20)
(0.10066678 -0.0196794 9.1016974e-23)
(0.1146369 -0.01950431 -7.6629612e-21)
(0.12899001 -0.019247442 -1.3025232e-20)
(0.14367954 -0.018921851 -8.5294211e-21)
(0.15866163 -0.018538954 1.7780442e-20)
(0.1738948 -0.018108414 8.9370834e-21)
(0.18933935 -0.017638515 -1.6528577e-20)
(0.20495712 -0.017136484 -6.041983e-21)
(0.22071143 -0.016608664 3.2155685e-21)
(0.23656696 -0.016060653 8.3749734e-21)
(0.25248972 -0.015497435 6.9874953e-21)
(0.268447 -0.014923473 -6.9786977e-21)
(0.28440748 -0.014342786 -3.1730618e-21)
(0.30034119 -0.013759004 1.3638426e-21)
(0.31621967 -0.013175407 3.9018748e-22)
(0.33201595 -0.012594954 1.2131447e-21)
(0.3477047 -0.012020307 1.846039e-22)
(0.36326227 -0.011453844 -3.2771671e-22)
(0.37866675 -0.010897675 -7.2587205e-22)
(0.39389802 -0.010353648 9.7491246e-22)
(0.40893781 -0.009823366 8.2733652e-22)
(0.42376968 -0.0093081901 -1.5404883e-22)
(0.43837907 -0.008809257 5.5545147e-22)
(0.45275326 -0.008327489 -2.3925455e-22)
(0.46688139 -0.0078636097 -3.7304095e-22)
(0.48075438 -0.0074181588 -6.1295622e-22)
(0.49436494 -0.00699151 4.4309967e-22)
(0.50770753 -0.0065838888 -1.8221943e-23)
(0.5207783 -0.006195393 1.6416182e-22)
(0.53357514 -0.0058260123 -4.4632899e-22)
(0.54609753 -0.0054756569 3.7820993e-22)
(0.55834698 -0.0051441668 6.7800341e-23)
(0.57032589 -0.0048314016 -1.0295311e-22)
(0.58204159 -0.0045370984 1.8079581e-22)
(0.59349471 -0.0042615345 2.4076889e-22)
(0.60471619 -0.0040037172 1.7588016e-22)
(0.61565903 -0.0037676704 1.7598493e-22)
(0.62652385 -0.0035435898 -2.7657421e-23)
(0.63681655 -0.0033688859 9.2239934e-23)
(0.64809661 -0.003143672 8.4524261e-23)
(0.65612302 -0.0032019238 -2.0640063e-22)
(0.67286105 -0.0026914337 -3.6603758e-23)
(0.067653989 -0.024041544 9.456323e-21)
(0.073633357 -0.026762601 3.2970237e-21)
(0.082314446 -0.028820281 -1.2168705e-20)
(0.092002638 -0.029984196 -1.2271683e-21)
(0.10204434 -0.030784477 1.4977296e-20)
(0.11261428 -0.031348418 -1.4893039e-20)
(0.12375129 -0.031654482 -2.9855551e-20)
(0.13538012 -0.031732264 1.4500743e-20)
(0.14744884 -0.03162771 1.8190975e-20)
(0.15992452 -0.031370918 -1.1604381e-20)
(0.17277158 -0.030983444 1.0195228e-21)
(0.18595239 -0.030485116 8.6879392e-21)
(0.19943074 -0.029893632 -1.5262246e-20)
(0.21317156 -0.029224022 2.9156713e-21)
(0.22714034 -0.028489234 7.5246294e-21)
(0.24130309 -0.027700662 2.7992131e-23)
(0.25562652 -0.026868397 2.6329912e-22)
(0.27007807 -0.02600142 -7.4212168e-21)
(0.284626 -0.025107783 3.868913e-21)
(0.29923944 -0.024194747 8.4827036e-21)
(0.31388853 -0.023268893 -3.8388352e-21)
(0.32854452 -0.022336193 -2.2145732e-21)
(0.34317986 -0.021402072 1.0120137e-21)
(0.35776837 -0.020471443 -1.7181591e-21)
(0.37228527 -0.019548743 1.3543527e-21)
(0.3867073 -0.018637949 7.1911739e-22)
(0.40101283 -0.017742602 1.5334206e-21)
(0.41518185 -0.016865815 -1.9598143e-21)
(0.42919607 -0.016010295 2.2324414e-21)
(0.44303896 -0.015178358 5.5394513e-22)
(0.45669572 -0.014371943 4.0860639e-22)
(0.47015331 -0.013592638 3.2193945e-22)
(0.48340042 -0.012841702 8.7983368e-22)
(0.49642749 -0.01212009 -1.3814691e-21)
(0.50922664 -0.01142848 3.742101e-22)
(0.52179167 -0.010767306 1.1317857e-22)
(0.53411802 -0.010136787 -4.6504508e-23)
(0.5462028 -0.009536966 8.5268123e-23)
(0.55804468 -0.0089677497 -3.7661726e-22)
(0.56964432 -0.0084289293 1.8655675e-22)
(0.58100324 -0.0079203261 -3.5349565e-23)
(0.59212782 -0.0074415573 4.0242851e-22)
(0.60301788 -0.0069931328 -1.9189461e-22)
(0.61370296 -0.0065734591 4.8492983e-23)
(0.62413641 -0.0061892231 4.5961598e-23)
(0.63451333 -0.0058243199 -7.7819813e-23)
(0.64435207 -0.005540299 -1.3186435e-22)
(0.65516732 -0.0051732601 4.166218e-22)
(0.66284544 -0.0052699865 1.8328169e-22)
(0.67896213 -0.0044382674 -8.4506953e-22)
(0.15027656 -0.031478305 1.502074e-21)
(0.15361275 -0.03527671 -1.1569376e-20)
(0.1606876 -0.038031719 6.6453792e-21)
(0.16888346 -0.03950116 -1.3329532e-20)
(0.17706632 -0.040543942 -1.9765749e-21)
(0.18561448 -0.041326724 9.1647125e-21)
(0.19468267 -0.041782844 -9.7726349e-21)
(0.2041934 -0.041940436 1.5650284e-21)
(0.21410272 -0.041861139 1.2909352e-20)
(0.22440017 -0.041583194 3.4060749e-21)
(0.23506649 -0.041131925 -6.2125093e-21)
(0.2460746 -0.040531323 -2.8666167e-21)
(0.25739709 -0.039803595 -5.8414821e-21)
(0.26900649 -0.038967856 -6.4598982e-21)
(0.28087424 -0.038040718 3.2342615e-21)
(0.2929711 -0.037036981 8.4279926e-22)
(0.30526756 -0.035969942 1.3701734e-21)
(0.31773409 -0.034851584 -3.3869751e-21)
(0.33034133 -0.033692772 -4.248475e-21)
(0.34306035 -0.032503403 2.3647735e-21)
(0.35586279 -0.031292522 3.2305175e-21)
(0.36872109 -0.030068401 -1.5679102e-21)
(0.38160863 -0.028838599 1.589393e-21)
(0.39449988 -0.027610004 -3.9315383e-22)
(0.40737055 -0.026388865 -3.9295542e-21)
(0.42019768 -0.025180809 -3.0378675e-21)
(0.43295974 -0.023990868 -1.9216332e-22)
(0.44563673 -0.022823489 4.2741255e-22)
(0.45821018 -0.021682556 -2.2150319e-21)
(0.47066326 -0.020571413 -8.6107392e-22)
(0.48298074 -0.019492882 2.2873665e-22)
(0.49514904 -0.018449298 -1.2569902e-21)
(0.50715622 -0.017442536 4.6513773e-24)
(0.51899194 -0.016474047 -4.2816913e-22)
(0.5306475 -0.015544899 -4.7342317e-22)
(0.54211577 -0.014655815 -5.2782499e-22)
(0.55339119 -0.013807221 -8.5360063e-22)
(0.56446982 -0.012999291 -5.3643121e-23)
(0.57534921 -0.012232013 -3.9420173e-24)
(0.58602884 -0.011505206 -5.292369e-22)
(0.59650906 -0.010818731 -9.0536984e-23)
(0.60679494 -0.010172162 -3.4143218e-22)
(0.61688522 -0.0095663034 -4.5320056e-22)
(0.6268075 -0.0089990509 3.9258861e-22)
(0.63651572 -0.008479707 1.539745e-23)
(0.64619711 -0.0079862389 1.9230271e-22)
(0.65538798 -0.0076030783 -1.4435862e-22)
(0.66553865 -0.0071062883 -2.8565254e-22)
(0.67271895 -0.0072407224 -3.427165e-23)
(0.68794443 -0.0061156027 4.7130024e-22)
(0.25477063 -0.036576322 -2.0907846e-20)
(0.25455993 -0.041418668 4.7600088e-20)
(0.25916869 -0.044772497 1.0350944e-20)
(0.26518586 -0.046470353 -1.5770815e-20)
(0.27081771 -0.047744029 -2.0246698e-21)
(0.2766353 -0.048778902 2.6229476e-21)
(0.2829583 -0.049446235 -1.6627702e-21)
(0.28970766 -0.049761965 -4.6880119e-21)
(0.29683579 -0.049796607 -4.0176083e-21)
(0.30435369 -0.049593509 -1.2212984e-20)
(0.31225999 -0.049179395 1.7908165e-20)
(0.32053739 -0.048579735 6.5267177e-21)
(0.32916588 -0.047819102 -1.6788567e-20)
(0.33812447 -0.046919343 1.0319406e-20)
(0.34738983 -0.045899803 8.385717e-21)
(0.35693661 -0.044777991 -8.7608303e-22)
(0.36673826 -0.043569927 -3.1213536e-21)
(0.37676756 -0.042290304 -3.8256084e-21)
(0.38699692 -0.040952635 -1.3919622e-21)
(0.39739868 -0.039569382 -1.2329919e-21)
(0.40794547 -0.03815205 -3.0315768e-21)
(0.41861039 -0.036711253 0)
(0.42936726 -0.035256763 -1.3482408e-21)
(0.44019082 -0.033797538 3.9358261e-21)
(0.45105684 -0.032341747 5.4156457e-21)
(0.4619423 -0.03089679 -9.4190219e-22)
(0.47282545 -0.029469308 -2.9377465e-21)
(0.48368594 -0.028065206 3.0385894e-21)
(0.49450487 -0.026689671 2.5107239e-22)
(0.50526479 -0.025347195 3.4498175e-21)
(0.51594983 -0.024041607 -5.3542802e-22)
(0.52654558 -0.022776105 1.724464e-21)
(0.53703924 -0.021553297 -8.0505649e-22)
(0.54741948 -0.020375249 2.9525554e-22)
(0.55767654 -0.019243527 -4.3896586e-22)
(0.56780215 -0.018159256 5.6616482e-22)
(0.57778955 -0.017123177 4.6258719e-22)
(0.58763353 -0.016135701 3.8779157e-22)
(0.59733031 -0.015196998 -9.7361572e-22)
(0.60687801 -0.014307018 6.9527778e-22)
(0.61627558 -0.013465757 -3.7650109e-22)
(0.6255266 -0.012672839 -1.1310689e-21)
(0.63462853 -0.011929441 1.4487639e-21)
(0.6436067 -0.011233061 -6.3614968e-23)
(0.65241589 -0.010595541 -1.6476649e-22)
(0.66123353 -0.0099894231 -8.2402948e-24)
(0.6696187 -0.0095203045 -1.3747196e-22)
(0.67894047 -0.0089095872 -4.9528336e-22)
(0.6855007 -0.0090805477 8.721439e-22)
(0.69960887 -0.0076986527 -4.5412247e-23)
(0.37645849 -0.038397308 -1.7501503e-20)
(0.3718218 -0.044301048 1.2835229e-20)
(0.3729845 -0.0481942 2.9780353e-21)
(0.37603441 -0.05013306 -7.6379768e-21)
(0.37843585 -0.051705765 1.2060222e-20)
(0.38086041 -0.053079764 7.794324e-21)
(0.38382081 -0.054069011 -1.2651287e-20)
(0.38725318 -0.054673621 -6.0703875e-21)
(0.39109012 -0.054960037 1.2702557e-20)
(0.3953521 -0.054970654 -1.5314433e-20)
(0.40005326 -0.054732497 -1.4069296e-20)
(0.40518401 -0.054271073 1.4139846e-20)
(0.41072812 -0.053611501 6.8227462e-21)
(0.41666791 -0.052777198 -4.2111595e-21)
(0.42298283 -0.051789668 -1.8520795e-21)
(0.42964943 -0.050668807 -4.0568096e-21)
(0.43664242 -0.049433177 5.3037355e-21)
(0.44393531 -0.048100143 3.6702879e-21)
(0.45150097 -0.046685936 -3.2417409e-21)
(0.4593119 -0.045205721 3.1398353e-21)
(0.46734068 -0.04367364 2.7705645e-21)
(0.4755602 -0.042102854 -3.2154746e-21)
(0.48394396 -0.040505562 3.7085815e-22)
(0.49246622 -0.038893013 -3.2595983e-21)
(0.50110222 -0.037275517 7.2657637e-21)
(0.5098283 -0.035662452 6.1218964e-21)
(0.51862203 -0.034062278 8.1451445e-22)
(0.52746227 -0.032482551 -1.7724429e-21)
(0.53632924 -0.030929945 3.7193085e-21)
(0.5452046 -0.02941028 7.2208315e-21)
(0.55407145 -0.027928554 2.3126622e-21)
(0.56291436 -0.026488991 3.334623e-21)
(0.57171937 -0.025095085 2.0057492e-21)
(0.58047399 -0.023749656 7.5116774e-22)
(0.5891672 -0.022454911 -2.6452572e-22)
(0.59778944 -0.021212508 2.7451477e-21)
(0.60633262 -0.020023627 6.260793e-22)
(0.61479011 -0.018889041 2.9787122e-22)
(0.62315674 -0.017809218 5.6782412e-23)
(0.63142916 -0.016784352 1.0073874e-21)
(0.63960484 -0.015814678 4.7541601e-23)
(0.64768576 -0.014899977 4.5367272e-22)
(0.65566809 -0.014041878 -1.2895888e-22)
(0.66357466 -0.013237606 -2.8722273e-22)
(0.67136141 -0.012501442 -1.5814017e-22)
(0.67919446 -0.011801094 -4.4193274e-22)
(0.68665978 -0.011261254 1.7426113e-22)
(0.69503126 -0.010555086 -1.3434556e-22)
(0.7008826 -0.010761035 -4.96727e-22)
(0.71370057 -0.0091653212 2.5205538e-22)
(0.50939936 -0.036008483 3.646631e-21)
(0.49966027 -0.042996629 -1.8962338e-20)
(0.49641077 -0.047421225 -2.3093943e-21)
(0.49569723 -0.049776263 5.488461e-21)
(0.49431728 -0.051859282 3.0546842e-21)
(0.49285018 -0.053748421 -4.8164692e-23)
(0.49197383 -0.055232416 6.1940148e-21)
(0.49168359 -0.056311897 7.6286236e-21)
(0.49188876 -0.05703874 9.8613613e-21)
(0.49259631 -0.057445467 -1.1255414e-20)
(0.49382567 -0.057557858 -2.1591353e-20)
(0.495572 -0.057401619 -3.9392811e-21)
(0.49781911 -0.057001963 1.59478e-20)
(0.50054832 -0.056383464 1.2816773e-20)
(0.50373852 -0.05556981 -5.907922e-21)
(0.50736569 -0.054583553 1.3790773e-21)
(0.51140368 -0.053446139 -3.665558e-21)
(0.515825 -0.052177971 2.2521263e-21)
(0.52060143 -0.0507984 -2.9140832e-22)
(0.52570439 -0.049325693 -1.8674859e-21)
(0.53110528 -0.047777035 7.8384885e-21)
(0.53677583 -0.046168518 -2.953861e-22)
(0.54268833 -0.044515134 4.2061013e-22)
(0.54881583 -0.042830768 -6.5473354e-22)
(0.55513237 -0.04112819 -4.3103253e-21)
(0.56161305 -0.039419061 4.2164102e-21)
(0.56823419 -0.037713934 1.9048976e-21)
(0.57497341 -0.036022276 -3.3156292e-21)
(0.58180965 -0.034352486 -4.1186007e-21)