/*--------------------------------*- C++ -*----------------------------------*\
  =========                 |
  \\      /  F ield         | OpenFOAM: The Open Source CFD Toolbox
   \\    /   O peration     | Website:  https://openfoam.org
    \\  /    A nd           | Version:  6
     \\/     M anipulation  |
\*---------------------------------------------------------------------------*/
FoamFile
{
    version     2.0;
    format      ascii;
    class       volVectorField;
    location    "93";
    object      U_0;
}
// * * * * * * * * * * * * * * * * * * * * * * * * * * * * * * * * * * * * * //

dimensions      [0 1 -1 0 0 0 0];

internalField   nonuniform List<vector> 
9200
(
(0.0010403371 0.0014194572 -5.9209404e-20)
(0.013680372 -0.0020606471 4.604942e-20)
(0.038322508 -0.0058705644 -3.8507086e-20)
(0.072290191 -0.0097692403 -6.0265887e-20)
(0.11378804 -0.013497548 1.8829854e-20)
(0.16161269 -0.016614984 3.2748555e-20)
(0.21471256 -0.018828427 -1.2270036e-20)
(0.272117 -0.019986859 9.2704374e-21)
(0.33291734 -0.020026042 1.6805572e-20)
(0.39623489 -0.018945761 1.4850238e-21)
(0.46119711 -0.016798479 -2.1459758e-20)
(0.52692813 -0.01367844 2.0673433e-20)
(0.59255092 -0.0097108725 -4.0428435e-20)
(0.65719953 -0.0050409679 -2.1137814e-20)
(0.72003966 0.00017787432 5.9056806e-21)
(0.78029524 0.0057937112 -2.5136981e-20)
(0.83729447 0.011679511 2.5223098e-20)
(0.89059456 0.017882041 2.2251228e-20)
(0.9397967 0.024533541 -2.9773408e-22)
(0.98217666 0.028250361 -1.6671959e-21)
(0.0052538646 -0.0013471819 -1.7061535e-20)
(0.026968885 -0.0089922562 3.9753289e-20)
(0.061682954 -0.01481502 2.3579534e-20)
(0.10631555 -0.019179399 -1.1571213e-19)
(0.15876521 -0.02222292 -1.2728914e-20)
(0.21757281 -0.023731331 7.3306025e-20)
(0.28142257 -0.023607408 -3.5481115e-20)
(0.34906624 -0.021882918 -8.3916531e-21)
(0.41931004 -0.018661127 3.42924e-20)
(0.49099056 -0.014098147 -4.3266164e-20)
(0.56296307 -0.0083950553 -3.0343711e-20)
(0.63410788 -0.0017876394 7.1935198e-20)
(0.70335011 0.0054652258 3.8301238e-20)
(0.76968852 0.013093122 -6.7991091e-20)
(0.83222937 0.020823989 1.462733e-20)
(0.89021969 0.028388777 -3.6742396e-20)
(0.94308908 0.035535665 -1.3779815e-20)
(0.99055103 0.04210356 7.0996147e-20)
(1.0324719 0.047674534 2.9654973e-20)
(1.0670467 0.049095864 -8.3492156e-20)
(0.010860949 -0.0040436566 3.6777734e-20)
(0.043962232 -0.015435077 2.5049707e-21)
(0.090532244 -0.022558483 2.234483e-20)
(0.14713746 -0.026505428 9.8128362e-22)
(0.21137878 -0.027896037 -4.0779777e-20)
(0.28151469 -0.026806375 1.8578399e-20)
(0.35592847 -0.02339541 1.3422207e-20)
(0.43305908 -0.017935607 -5.0334558e-20)
(0.51140426 -0.010751144 5.727026e-20)
(0.58951526 -0.0022009013 1.4259496e-20)
(0.66600673 0.0073291871 -5.4310884e-20)
(0.73958489 0.01743962 -1.8241721e-20)
(0.80908574 0.027733722 9.0584875e-21)
(0.87351578 0.037833937 2.3450359e-20)
(0.93208822 0.047395912 -1.1365894e-20)
(0.98424789 0.05611776 2.7884717e-20)
(1.0296861 0.063754635 -2.019285e-20)
(1.0683731 0.070166333 -7.014361e-20)
(1.100436 0.075077729 -2.3804143e-20)
(1.1250095 0.076596355 4.8669224e-20)
(0.017960714 -0.0064236561 2.451066e-20)
(0.064788562 -0.020699317 5.1045192e-20)
(0.12487344 -0.028067572 1.9883928e-20)
(0.19450145 -0.030472505 1.2991184e-20)
(0.27099239 -0.029104702 1.7277483e-20)
(0.35230341 -0.024400063 -4.772593e-20)
(0.43649738 -0.016838181 -2.5650226e-20)
(0.52169686 -0.0069900091 0)
(0.60611551 0.0045524555 1.3924352e-20)
(0.68808202 0.017195717 -5.8548314e-21)
(0.76607684 0.030356191 -9.795295e-20)
(0.83878093 0.043479852 -1.5776761e-20)
(0.90512452 0.056064427 6.5118867e-20)
(0.96432577 0.067679177 4.8253128e-22)
(1.0159125 0.077979661 -1.5729508e-21)
(1.0597219 0.086715375 2.1963149e-20)
(1.0958796 0.093737255 -5.2665605e-21)
(1.1247773 0.099026699 -6.1045666e-20)
(1.1469563 0.1025548 -4.5864515e-20)
(1.1623814 0.10336822 6.9534918e-20)
(0.026584015 -0.008207324 -3.9196844e-21)
(0.089358569 -0.024038217 -5.1260758e-21)
(0.16433326 -0.030271729 5.6605422e-20)
(0.24761881 -0.029818172 1.8541189e-20)
(0.33629137 -0.024522247 -3.1958688e-20)
(0.42801295 -0.015249952 1.2165218e-20)
(0.52054557 -0.0028622827 2.6406545e-21)
(0.61174663 0.011725249 3.3614845e-20)
(0.69963874 0.027627142 5.6609384e-21)
(0.78246669 0.044014285 -1.3208193e-20)
(0.858757 0.060131357 6.0168692e-20)
(0.92737455 0.07532179 -5.8020186e-20)
(0.98756263 0.089051447 -1.3219582e-19)
(1.0389575 0.1009245 -5.5786267e-21)
(1.0815739 0.11068917 8.3171743e-20)
(1.1157627 0.11823254 0)
(1.1421469 0.12357065 1.0121177e-20)
(1.1615534 0.12685173 -1.5463745e-20)
(1.1748987 0.12825635 -8.6017858e-21)
(1.1827425 0.12740354 2.0996893e-20)
(0.036672687 -0.0090912224 -5.4309761e-21)
(0.11733277 -0.02468988 4.3583092e-21)
(0.208149 -0.028146366 -8.763852e-21)
(0.30520028 -0.023422123 2.8475292e-20)
(0.40539134 -0.013083404 -2.9396214e-20)
(0.50613934 0.0015142823 -1.6929247e-20)
(0.60498345 0.019086219 3.7368064e-20)
(0.69963712 0.038355502 4.7597513e-21)
(0.78809841 0.05815668 -2.4442194e-20)
(0.86873328 0.077470356 6.9880831e-20)
(0.94034144 0.095443806 5.2224963e-22)
(1.0021976 0.11141405 -8.0463281e-20)
(1.0540574 0.12492229 0)
(1.0961247 0.13571346 3.9552355e-20)
(1.1289852 0.14372077 5.5251352e-21)
(1.1535159 0.14903759 -7.7585037e-20)
(1.1707817 0.15188416 -1.9591563e-20)
(1.1819395 0.15258523 -1.2470607e-20)
(1.1881311 0.15148436 -1.4713021e-20)
(1.1902131 0.14854025 4.0429942e-20)
(0.048065872 -0.0087688965 -1.7279194e-20)
(0.14810387 -0.02193591 -2.2209654e-21)
(0.25517545 -0.020802877 3.0383045e-20)
(0.36551229 -0.01041829 3.7487322e-20)
(0.47596553 0.0058958881 -1.9946914e-20)
(0.5838155 0.02626339 -6.9172635e-20)
(0.68652439 0.048970836 -2.800082e-20)
(0.7818521 0.072410536 7.8942232e-20)
(0.86799718 0.095203802 8.5806285e-21)
(0.94368714 0.11623892 -2.4877427e-20)
(1.0082243 0.134685 1.3643446e-20)
(1.061484 0.1499992 -4.3209781e-21)
(1.1038633 0.16191681 0)
(1.1361873 0.17042085 2.720942e-20)
(1.1595896 0.17569595 -7.9340018e-20)
(1.1753818 0.17807292 -3.1482535e-20)
(1.1849316 0.17797392 8.1072713e-20)
(1.1895618 0.17587206 -4.2983256e-21)
(1.1904681 0.17221531 3.5567852e-21)
(1.188569 0.16715009 2.7118262e-20)
(0.060493472 -0.0069585328 -3.2416848e-20)
(0.18080146 -0.015173261 -8.163205e-20)
(0.30392809 -0.0075868488 2.5787236e-21)
(0.4264785 0.0097001571 7.0169716e-20)
(0.54541712 0.032628562 6.2431954e-20)
(0.65805739 0.058817044 -7.1582661e-20)
(0.76199365 0.086173048 -2.8132229e-22)
(0.85527364 0.11284777 8.5538453e-20)
(0.93654753 0.13737207 4.8836713e-20)
(1.0051365 0.15868497 -5.4229422e-20)
(1.0610295 0.17612389 -9.2352722e-20)
(1.1048154 0.18939837 -3.1596255e-21)
(1.1375631 0.19854059 4.2136515e-20)
(1.1606699 0.20383598 -6.6070769e-21)
(1.1757024 0.20574395 -1.2871406e-20)
(1.1842504 0.2048195 1.9694597e-20)
(1.1878108 0.20164612 4.3889841e-20)
(1.1877092 0.1967902 -4.3868376e-20)
(1.1850553 0.19074066 -1.0234431e-19)
(1.1806815 0.18373337 2.4573098e-20)
(0.073546586 -0.0034336472 -3.4983254e-20)
(0.21425328 -0.0039904634 -1.7389831e-19)
(0.35255883 0.011838289 8.211325e-20)
(0.48568449 0.037017955 9.2778343e-20)
(0.61092249 0.066835719 5.7977365e-20)
(0.72584568 0.098481424 8.6120203e-21)
(0.82843346 0.1295966 -1.0625585e-19)
(0.91727968 0.15824093 0)
(0.99171883 0.18302419 -6.876259e-20)
(1.0518429 0.20310524 -1.5205832e-20)
(1.0984269 0.21813839 5.4713993e-20)
(1.1327857 0.22819691 1.0975644e-20)
(1.1565916 0.23367489 -4.5622726e-20)
(1.1716827 0.23517804 -4.9090741e-20)
(1.1798917 0.23341843 2.4292703e-20)
(1.182912 0.22912513 4.4832197e-20)
(1.1822117 0.22297892 -5.5611825e-20)
(1.1789953 0.2155748 -1.0753286e-19)
(1.1742029 0.20738665 -3.1513351e-21)
(1.1685098 0.19868128 2.7051838e-20)
(0.086660833 0.0019613698 -3.5460497e-21)
(0.24698883 0.011816999 8.7921444e-20)
(0.39889236 0.03749388 -1.6475797e-20)
(0.54046366 0.071221203 -8.4321252e-20)
(0.66956945 0.10779254 4.517059e-20)
(0.78429848 0.14411907 4.9180672e-20)
(0.88327393 0.17775945 5.5366068e-21)
(0.96586599 0.20688585 -9.9518971e-20)
(1.0322639 0.23038632 -2.5053297e-21)
(1.0834188 0.24781054 5.051309e-20)
(1.1208899 0.25925432 5.986633e-21)
(1.1466347 0.26522365 -1.9720934e-20)
(1.1627853 0.26648899 -7.5718644e-20)
(1.1714467 0.26394629 -6.2563018e-21)
(1.1745422 0.25850111 4.3541252e-20)
(1.173717 0.25098481 3.7028689e-20)
(1.170297 0.24210535 1.9796537e-20)
(1.1652959 0.23242796 -5.3006531e-20)
(1.1594542 0.22237148 1.2957892e-20)
(1.1532755 0.21220361 8.2674201e-20)
(-0.0012934639 0.0014348776 -1.1235738e-21)
(-0.0047466796 0.0031878746 2.0649504e-21)
(-0.010772921 0.0041364702 8.7976801e-22)
(-0.017756769 0.0045401206 -2.4407905e-21)
(-0.024743651 0.0045659614 -1.4121347e-21)
(-0.031303648 0.0043265035 1.5468279e-21)
(-0.037165936 0.0039038954 -6.8718872e-21)
(-0.04215241 0.0033579516 -5.959104e-21)
(-0.046162892 0.0027314689 1.1174918e-20)
(-0.049151233 0.0020547643 -9.7453026e-21)
(-0.051105395 0.0013490699 -1.9840145e-22)
(-0.052034647 0.00062901726 3.6683398e-21)
(-0.051961161 -9.547835e-05 -6.3311773e-22)
(-0.050914275 -0.00081771429 2.2825215e-20)
(-0.048926883 -0.0015328354 3.040427e-22)
(-0.046034888 -0.002236384 -4.0895165e-20)
(-0.042279506 -0.0029237102 7.5410224e-21)
(-0.037699022 -0.0035927264 2.3871616e-20)
(-0.032301832 -0.004241934 -4.3866635e-20)
(-0.026147337 -0.0048233214 -2.7748462e-20)
(-0.0016524474 0.0041815016 -5.3725438e-21)
(-0.0053982553 0.0092694618 1.0866666e-20)
(-0.011220037 0.012009063 -1.0193085e-20)
(-0.017660319 0.013155426 3.9242546e-21)
(-0.023859377 0.013196948 4.8137241e-21)
(-0.029436743 0.012464014 7.134483e-22)
(-0.034156022 0.011197977 -2.2515581e-20)
(-0.037864126 0.0095744746 -2.0374803e-21)
(-0.040477845 0.0077191357 2.016857e-20)
(-0.041962008 0.005720914 -5.0486423e-21)
(-0.042311306 0.0036420523 -2.1768229e-20)
(-0.041538684 0.0015253751 4.898608e-21)
(-0.039667762 -0.00060019882 2.2641334e-20)
(-0.036727533 -0.0027152425 1.0311247e-20)
(-0.032748575 -0.0048057942 2.1860711e-20)
(-0.027763475 -0.0068592748 -1.977652e-20)
(-0.021816523 -0.0088626865 -2.1679366e-20)
(-0.014955073 -0.010809433 2.1191535e-20)
(-0.0071145017 -0.012684989 2.6818781e-20)
(0.0018926195 -0.014323987 1.5859427e-20)
(-0.0023037531 0.0065612009 -4.3576443e-21)
(-0.0065400788 0.014482194 -5.6392439e-21)
(-0.01189356 0.01871297 3.0718488e-22)
(-0.01721299 0.020430641 1.0955907e-21)
(-0.021821294 0.020402551 6.6931628e-21)
(-0.025433208 0.019153473 1.0667246e-20)
(-0.02787914 0.017067544 -3.7236659e-21)
(-0.029054621 0.014424393 -1.8900347e-20)
(-0.028909518 0.011424243 6.5428516e-21)
(-0.027430333 0.0082090191 1.2865668e-20)
(-0.024625457 0.0048780607 5.8356632e-21)
(-0.020515955 0.0014996443 1.8163504e-20)
(-0.015129567 -0.001880387 1.7300386e-21)
(-0.0084963289 -0.0052317547 -3.3873246e-20)
(-0.00064477068 -0.0085331582 1.2026509e-21)
(0.0083966089 -0.011765761 -2.2144677e-20)
(0.018576361 -0.014911918 -2.4473785e-20)
(0.029826015 -0.017962814 4.5833735e-20)
(0.042333642 -0.020865478 2.5357623e-20)
(0.056772835 -0.023259398 1.2306165e-22)
(-0.003129435 0.0083701458 -5.2843147e-21)
(-0.0078973117 0.018338902 -8.4840607e-21)
(-0.0124402 0.02359067 4.3599615e-21)
(-0.016027774 0.025612496 4.147156e-21)
(-0.018235965 0.025385215 2.0108919e-21)
(-0.018912944 0.023591182 7.3226674e-21)
(-0.017983991 0.020731351 9.3145262e-21)
(-0.01541458 0.017170547 -1.3514732e-21)
(-0.01120311 0.013170475 -1.1484483e-20)
(-0.005369071 0.0089170043 -2.9078433e-20)
(0.0020569314 0.0045403496 6.1996991e-23)
(0.011038434 0.0001299945 4.0707295e-20)
(0.021537721 -0.0042545655 -1.8387247e-20)
(0.033517396 -0.0085745697 -1.2299096e-20)
(0.046944601 -0.012803978 5.5322748e-22)
(0.061789235 -0.016921819 3.2311226e-20)
(0.077987722 -0.020913257 -1.4834308e-20)
(0.095433048 -0.024776685 -5.3353603e-20)
(0.11444588 -0.028394833 4.5777469e-20)
(0.13640044 -0.031089955 3.3022432e-20)
(-0.003970878 0.0094669703 -6.8782269e-22)
(-0.0090925442 0.020490239 -1.2536805e-20)
(-0.012365291 0.02616194 -3.4151135e-20)
(-0.013552826 0.028146045 -5.7255644e-21)
(-0.012532523 0.027557176 -3.6226146e-21)
(-0.0093145301 0.025189417 6.3063887e-21)
(-0.0039414919 0.021627746 -4.6472225e-21)
(0.0035327297 0.017298123 -8.8088286e-21)
(0.013046372 0.012506626 2.1904062e-20)
(0.024534256 0.0074709271 5.0576116e-21)
(0.037932541 0.0023439104 -2.5295969e-20)
(0.053178973 -0.0027693396 1.1080481e-20)
(0.070213466 -0.007799075 0)
(0.088978804 -0.012701234 1.2092301e-20)
(0.10942384 -0.017448669 -9.7038696e-21)
(0.13150255 -0.022023563 -1.4340787e-20)
(0.15512648 -0.026424335 -1.5731942e-21)
(0.1801278 -0.030677255 -2.2191452e-21)
(0.20692192 -0.034596629 4.6157562e-20)
(0.23774145 -0.037042148 -1.0474391e-20)
(-0.004645575 0.0097820185 -7.5367703e-21)
(-0.0096779597 0.020750047 2.4520767e-20)
(-0.011064553 0.026163366 -1.0501433e-20)
(-0.009095797 0.027726496 -2.7474096e-20)
(-0.0039768521 0.026603001 -2.7552575e-20)
(0.0041014925 0.023648676 -1.4924223e-20)
(0.014962499 0.019495469 -6.9076815e-22)
(0.02844822 0.014602295 5.5509532e-21)
(0.044419364 0.0092994835 1.9619307e-20)
(0.062751543 0.0038227883 7.354441e-21)
(0.08333079 -0.0016621453 -7.1875016e-21)
(0.10605147 -0.0070414844 -2.0103471e-21)
(0.13081268 -0.012240289 -3.8199465e-20)
(0.15751574 -0.017212979 -1.2696275e-20)
(0.18606603 -0.021935088 1.8755222e-20)
(0.21637405 -0.026397293 -2.1026777e-20)
(0.24830323 -0.030622124 -8.975142e-21)
(0.28159877 -0.034692961 3.0446653e-20)
(0.31669654 -0.038389776 5.0483034e-20)
(0.35674991 -0.039991613 3.3568538e-21)
(-0.0049621763 0.0093149474 1.6785593e-20)
(-0.0091665878 0.019099295 1.4469938e-20)
(-0.0078585578 0.023564879 5.1153654e-20)
(-0.0018557365 0.024329863 2.3392034e-20)
(0.0083013021 0.022523719 1.825502e-22)
(0.022231034 0.019013051 -3.9395128e-20)
(0.039610763 0.014438121 -2.431794e-20)
(0.060166141 0.0092618986 1.0467482e-20)
(0.083662941 0.0038169896 1.440397e-20)
(0.10989676 -0.0016594272 -1.3115662e-20)
(0.13868257 -0.0070011269 -4.4046601e-20)
(0.16984612 -0.012095047 2.9623985e-20)
(0.2032165 -0.01686853 2.0023979e-20)
(0.23862045 -0.021280624 -2.7556469e-20)
(0.27588228 -0.025315374 1.165265e-20)
(0.31482741 -0.028978565 2.4202559e-20)
(0.35523433 -0.03232696 8.0743112e-21)
(0.39673241 -0.035533199 -1.1767303e-20)
(0.43968515 -0.038421948 -1.419252e-20)
(0.48810316 -0.038666536 5.8765003e-21)
(-0.0047310166 0.0081243176 1.1095534e-20)
(-0.0070582614 0.015671942 -2.335697e-20)
(-0.0020271736 0.018562345 8.6208605e-21)
(0.0090376173 0.018215642 3.3593509e-20)
(0.025265286 0.015649329 5.2132473e-20)
(0.046079946 0.011692293 2.0279696e-20)
(0.071003619 0.0069559649 -5.8649367e-21)
(0.099627288 0.001876142 -1.2288039e-20)
(0.13160124 -0.003235947 -6.2069084e-21)
(0.16661558 -0.0081604463 3.424636e-20)
(0.20438236 -0.012746239 -4.5115873e-21)
(0.24462169 -0.016894321 -1.6646378e-20)
(0.28705071 -0.020546117 -1.9696787e-20)
(0.33137547 -0.023676219 -4.7452527e-20)
(0.37728975 -0.026287793 2.3243056e-20)
(0.42448256 -0.028412647 -1.4098851e-20)
(0.47260416 -0.030154992 2.5999234e-20)
(0.52114983 -0.03181321 2.1045371e-20)
(0.57033622 -0.033383499 -8.5584742e-20)
(0.6248396 -0.032094637 -1.0723709e-22)
(-0.0037710113 0.0063149158 2.192807e-20)
(-0.0028644594 0.010734887 -2.6169869e-20)
(0.00714615 0.011563042 -4.501997e-20)
(0.02445822 0.0099226801 -2.7257982e-20)
(0.04788382 0.0066485166 -2.0442947e-21)
(0.076647597 0.0024851551 1.305181e-20)
(0.11010241 -0.0020226713 -2.8339789e-21)
(0.1476853 -0.0064971034 1.8121081e-20)
(0.18890244 -0.010674715 8.8696743e-21)
(0.23330226 -0.014375724 -1.1381833e-20)
(0.2804511 -0.017484416 8.8797309e-21)
(0.32991528 -0.01993451 -2.3907136e-20)
(0.38124786 -0.021698715 8.0522221e-21)
(0.4339797 -0.022782285 1.6759499e-20)
(0.4876178 -0.023219185 -2.6399794e-21)
(0.54165478 -0.023074331 1.6621342e-21)
(0.59555161 -0.022499504 -3.1935398e-22)
(0.64864166 -0.021902819 1.9594446e-20)
(0.70095272 -0.021480534 4.0441883e-21)
(0.75758701 -0.018537552 -5.7758954e-22)
(-0.0019105688 0.0040272261 2.3695693e-20)
(0.0038720442 0.004675271 5.716907e-20)
(0.020321716 0.0031853943 -4.9251332e-20)
(0.045189797 0.00029034962 -9.9468725e-21)
(0.076982884 -0.003429898 2.0259081e-20)
(0.11472116 -0.0073611148 2.1436634e-21)
(0.15757182 -0.011064347 -2.9819155e-20)
(0.20479009 -0.014255452 6.9855616e-21)
(0.25570063 -0.016751218 7.1110753e-21)
(0.30966563 -0.018442277 -2.625807e-20)
(0.36605736 -0.019277509 1.293002e-21)
(0.42424047 -0.019251441 -3.7180257e-20)
(0.48356169 -0.018394026 -3.6347425e-20)
(0.54334565 -0.016762451 6.5695993e-20)
(0.60289674 -0.014433946 5.5639113e-21)
(0.66150515 -0.01150514 -1.5192685e-20)
(0.71843068 -0.0081340121 1.9367821e-20)
(0.77282705 -0.0046276637 -9.1906925e-22)
(0.82422008 -0.001005818 2.0366532e-20)
(0.87635328 0.0042871299 -1.9560619e-20)
(-0.018823389 -0.0051020869 5.8372351e-20)
(-0.010207471 -0.0056375688 1.5788866e-20)
(-0.00019919885 -0.0060717741 -3.5151869e-20)
(0.01085064 -0.0063372194 1.6796859e-20)
(0.02267588 -0.00651536 0)
(0.0352179 -0.0066336018 0)
(0.048416914 -0.0066946764 -2.2984264e-20)
(0.062193225 -0.0067064252 -1.6509571e-20)
(0.076476443 -0.0066782345 1.9131265e-20)
(0.091207085 -0.0066168938 1.8182271e-20)
(0.10633021 -0.0065275953 1.0527639e-21)
(0.12179403 -0.0064149031 -1.0322157e-20)
(0.13755028 -0.0062827768 8.3315882e-21)
(0.15355378 -0.0061345645 1.824209e-20)
(0.16976181 -0.0059731303 -5.2309878e-21)
(0.18613375 -0.0058009608 -1.0179703e-20)
(0.20263091 -0.0056202281 -4.3216245e-21)
(0.21921629 -0.0054328425 -4.4273735e-21)
(0.23585455 -0.0052404972 7.3684601e-22)
(0.25251187 -0.0050447039 1.2293797e-21)
(0.269156 -0.0048468189 2.5688727e-21)
(0.28575622 -0.0046480635 6.6583085e-21)
(0.30228346 -0.0044495383 2.4802738e-22)
(0.31871028 -0.0042522344 -3.4541805e-21)
(0.33501096 -0.0040570411 1.5544757e-22)
(0.35116156 -0.0038647517 -5.7762593e-22)
(0.36713999 -0.0036760682 1.2446827e-21)
(0.38292601 -0.0034916049 1.0528744e-21)
(0.39850131 -0.0033118926 -1.3014441e-21)
(0.41384949 -0.0031373818 -1.220721e-22)
(0.42895608 -0.0029684469 3.4254598e-23)
(0.44380852 -0.0028053908 -3.5253647e-22)
(0.45839613 -0.0026484496 -4.0731089e-22)
(0.47271012 -0.0024977976 5.654231e-23)
(0.4867435 -0.0023535539 -1.3852547e-22)
(0.50049106 -0.0022157877 -2.2406607e-22)
(0.51394934 -0.0020845255 2.5665197e-22)
(0.52711663 -0.001959758 2.9631251e-22)
(0.53999285 -0.0018414489 -9.1663297e-24)
(0.55257998 -0.0017295389 -1.5744728e-22)
(0.56488089 -0.0016239752 3.038259e-23)
(0.57690342 -0.0015246642 -4.0398824e-23)
(0.58864864 -0.0014316931 9.4065824e-23)
(0.60014826 -0.0013447244 2.1543948e-23)
(0.61135506 -0.0012651011 -1.1920022e-22)
(0.62247266 -0.0011895312 -7.1799592e-24)
(0.63300032 -0.0011305653 1.6430781e-25)
(0.64452116 -0.0010546511 -4.2611187e-24)
(0.65272753 -0.0010740991 2.9256925e-23)
(0.66978787 -0.00090202852 3.6695633e-22)
(0.010468252 -0.015024887 -1.2751864e-20)
(0.018206327 -0.016649036 -6.3323708e-20)
(0.027810835 -0.017924176 -3.0553649e-20)
(0.038422369 -0.018681461 3.8490542e-20)
(0.049664342 -0.019193567 1.4668346e-20)
(0.061556682 -0.019539991 -1.821297e-20)
(0.074070185 -0.019720982 4.6751697e-21)
(0.087127977 -0.019758142 2.5457552e-20)
(0.10066705 -0.019679443 9.1013216e-23)
(0.1146372 -0.019504355 -7.662973e-21)
(0.12899035 -0.019247489 -1.3025241e-20)
(0.14367991 -0.0189219 -8.5294363e-21)
(0.15866205 -0.018539005 1.7780464e-20)
(0.17389526 -0.018108466 8.9371101e-21)
(0.18933986 -0.017638569 -1.6528592e-20)
(0.20495768 -0.01713654 -6.0419915e-21)
(0.22071204 -0.016608721 3.2155711e-21)
(0.23656763 -0.016060712 8.3749829e-21)
(0.25249045 -0.015497495 6.9875093e-21)
(0.2684478 -0.014923534 -6.9787181e-21)
(0.28440834 -0.014342849 -3.1730771e-21)
(0.30034214 -0.013759069 1.3638535e-21)
(0.31622069 -0.013175474 3.9019785e-22)
(0.33201706 -0.012595022 1.2131506e-21)
(0.3477059 -0.012020377 1.8460662e-22)
(0.36326357 -0.011453916 -3.2772004e-22)
(0.37866815 -0.010897749 -7.2587706e-22)
(0.39389954 -0.010353725 9.7492265e-22)
(0.40893944 -0.0098234457 8.2734449e-22)
(0.42377144 -0.0093082726 -1.5405543e-22)
(0.43838097 -0.0088093425 5.5545889e-22)
(0.45275531 -0.008327578 -2.3925651e-22)
(0.4668836 -0.0078637023 -3.7304804e-22)
(0.48075677 -0.0074182554 -6.1296638e-22)
(0.49436752 -0.006991611 4.4310578e-22)
(0.50771032 -0.0065839947 -1.822815e-23)
(0.52078132 -0.0061955042 1.6416982e-22)
(0.5335784 -0.0058261294 -4.4634459e-22)
(0.54610106 -0.0054757804 3.7822968e-22)
(0.55835081 -0.0051442974 6.7802987e-23)
(0.57033005 -0.00483154 -1.0295588e-22)
(0.58204612 -0.0045372455 1.8081062e-22)
(0.59349964 -0.0042616913 2.4079236e-22)
(0.60472158 -0.0040038846 1.7590094e-22)
(0.61566491 -0.0037678501 1.7601036e-22)
(0.6265303 -0.0035437826 -2.7664357e-23)
(0.63682359 -0.003369096 9.2268096e-23)
(0.64810448 -0.0031438972 8.4552299e-23)
(0.65613136 -0.0032021776 -2.0644902e-22)
(0.67287113 -0.0026917216 -3.6594747e-23)
(0.067654131 -0.024041589 9.4563259e-21)
(0.073633516 -0.02676265 3.2970252e-21)
(0.082314623 -0.028820334 -1.2168718e-20)
(0.092002837 -0.029984252 -1.2271725e-21)
(0.10204456 -0.030784537 1.4977315e-20)
(0.11261453 -0.031348481 -1.4893057e-20)
(0.12375157 -0.031654548 -2.9855595e-20)
(0.13538042 -0.031732333 1.4500768e-20)
(0.14744917 -0.031627782 1.8191004e-20)
(0.15992489 -0.031370993 -1.1604399e-20)
(0.17277198 -0.030983522 1.0195241e-21)
(0.18595283 -0.030485197 8.6879414e-21)
(0.19943122 -0.029893716 -1.5262273e-20)
(0.21317209 -0.029224108 2.9156955e-21)
(0.22714091 -0.028489322 7.5246463e-21)
(0.24130371 -0.027700753 2.7977515e-23)
(0.25562719 -0.026868491 2.632901e-22)
(0.2700788 -0.026001517 -7.4212375e-21)
(0.28462679 -0.025107882 3.8689387e-21)
(0.2992403 -0.024194849 8.4827303e-21)
(0.31388946 -0.023268997 -3.8388479e-21)
(0.32854551 -0.022336301 -2.2145786e-21)
(0.34318094 -0.021402182 1.0120127e-21)
(0.35776953 -0.020471556 -1.7181681e-21)
(0.37228652 -0.019548859 1.3543571e-21)
(0.38670865 -0.018638069 7.1912e-22)
(0.40101428 -0.017742725 1.5334412e-21)
(0.41518341 -0.016865942 -1.9598373e-21)
(0.42919775 -0.016010427 2.23247e-21)
(0.44304077 -0.015178494 5.5395195e-22)
(0.45669767 -0.014372084 4.0862188e-22)
(0.4701554 -0.013592785 3.2194207e-22)
(0.48340268 -0.012841856 8.7985433e-22)
(0.49642992 -0.01212025 -1.381503e-21)
(0.50922926 -0.011428647 3.7422133e-22)
(0.52179449 -0.010767481 1.1318881e-22)
(0.53412106 -0.010136972 -4.6508224e-23)
(0.54620609 -0.00953716 8.5265407e-23)
(0.55804824 -0.0089679545 -3.7663402e-22)
(0.56964818 -0.0084291459 1.8656866e-22)
(0.58100743 -0.0079205558 -3.5351198e-23)
(0.59213237 -0.0074418015 4.0246625e-22)
(0.60302283 -0.0069933931 -1.9191472e-22)
(0.61370836 -0.0065737372 4.8498433e-23)
(0.6241423 -0.0061895218 4.5967883e-23)
(0.63451979 -0.0058246403 -7.7834744e-23)
(0.64435911 -0.0055406483 -1.3190413e-22)
(0.6551752 -0.0051736345 4.1671741e-22)
(0.66285379 -0.0052704087 1.833252e-22)
(0.67897221 -0.0044387459 -8.4514449e-22)
(0.15027678 -0.03147837 1.5020758e-21)
(0.15361299 -0.03527678 -1.1569381e-20)
(0.16068786 -0.038031794 6.6453798e-21)
(0.16888374 -0.039501239 -1.3329541e-20)
(0.17706662 -0.040544025 -1.9765767e-21)
(0.1856148 -0.041326812 9.1647281e-21)
(0.19468303 -0.041782936 -9.7726582e-21)
(0.20419378 -0.041940533 1.5650225e-21)
(0.21410313 -0.041861239 1.2909369e-20)
(0.22440062 -0.041583298 3.4060853e-21)
(0.23506698 -0.041132033 -6.2125173e-21)
(0.24607512 -0.040531435 -2.8666268e-21)
(0.25739766 -0.03980371 -5.8414806e-21)
(0.26900709 -0.038967974 -6.4599134e-21)
(0.28087489 -0.03804084 3.2342537e-21)
(0.2929718 -0.037037107 8.4278509e-22)
(0.30526831 -0.035970071 1.3701815e-21)
(0.31773489 -0.034851717 -3.3869814e-21)
(0.3303422 -0.033692908 -4.2484947e-21)
(0.34306128 -0.032503543 2.3647844e-21)
(0.35586379 -0.031292666 3.2305362e-21)
(0.36872216 -0.030068549 -1.5679249e-21)
(0.38160977 -0.028838751 1.5894022e-21)
(0.39450111 -0.02761016 -3.9316013e-22)
(0.40737186 -0.026389025 -3.9295876e-21)
(0.42019909 -0.025180975 -3.037884e-21)
(0.43296125 -0.023991039 -1.9216922e-22)
(0.44563835 -0.022823665 4.2740966e-22)
(0.45821192 -0.021682738 -2.2150484e-21)
(0.47066512 -0.020571601 -8.6109305e-22)
(0.48298274 -0.019493078 2.2873822e-22)
(0.49515118 -0.018449502 -1.2570137e-21)
(0.50715852 -0.017442748 4.6469547e-24)
(0.51899441 -0.016474269 -4.2818172e-22)
(0.53065016 -0.015545131 -4.7342967e-22)
(0.54211863 -0.014656058 -5.2784919e-22)
(0.55339428 -0.013807477 -8.5363955e-22)
(0.56447315 -0.012999561 -5.3641442e-23)
(0.57535281 -0.012232297 -3.9421323e-24)
(0.58603274 -0.011505507 -5.2926903e-22)
(0.59651328 -0.010819051 -9.0536386e-23)
(0.60679952 -0.010172502 -3.4146152e-22)
(0.61689019 -0.0095666658 -4.5324846e-22)
(0.62681292 -0.0089994383 3.9263442e-22)
(0.63652163 -0.0084801231 1.5399865e-23)
(0.6462036 -0.0079866855 1.9233659e-22)
(0.65539503 -0.0076035655 -1.4440113e-22)
(0.66554654 -0.0071068105 -2.8571611e-22)
(0.6727273 -0.0072413117 -3.4231232e-23)
(0.68795449 -0.0061162696 4.7134681e-22)
(0.25477094 -0.036576407 -2.0907827e-20)
(0.25456025 -0.041418759 4.7600104e-20)
(0.25916904 -0.044772594 1.0350946e-20)
(0.26518623 -0.046470455 -1.5770824e-20)
(0.2708181 -0.047744136 -2.0246766e-21)
(0.27663572 -0.048779014 2.6229449e-21)
(0.28295874 -0.049446352 -1.6627776e-21)
(0.28970813 -0.049762087 -4.688018e-21)
(0.2968363 -0.049796734 -4.0176135e-21)
(0.30435423 -0.049593641 -1.2212999e-20)
(0.31226056 -0.049179531 1.7908198e-20)
(0.320538 -0.048579876 6.5267338e-21)
(0.32916652 -0.047819247 -1.6788591e-20)
(0.33812516 -0.046919493 1.0319407e-20)
(0.34739057 -0.045899957 8.3857149e-21)
(0.35693739 -0.04477815 -8.7606963e-22)
(0.36673909 -0.04357009 -3.1213487e-21)
(0.37676845 -0.042290472 -3.8256299e-21)
(0.38699786 -0.040952807 -1.3919721e-21)
(0.39739969 -0.039569559 -1.2330012e-21)
(0.40794654 -0.038152232 -3.0315974e-21)
(0.41861153 -0.03671144 0)
(0.42936848 -0.035256955 -1.3482514e-21)
(0.44019212 -0.033797735 3.9358436e-21)
(0.45105822 -0.03234195 5.4156819e-21)
(0.46194377 -0.030896999 -9.4190535e-22)
(0.47282702 -0.029469523 -2.937781e-21)
(0.48368762 -0.028065429 3.0386314e-21)
(0.49450666 -0.026689902 2.5106274e-22)
(0.50526671 -0.025347434 3.4498664e-21)
(0.51595187 -0.024041855 -5.3543165e-22)
(0.52654777 -0.022776363 1.724489e-21)
(0.53704158 -0.021553567 -8.0507436e-22)
(0.547422 -0.020375531 2.952686e-22)
(0.55767924 -0.019243822 -4.3898148e-22)
(0.56780505 -0.018159566 5.6617866e-22)
(0.57779268 -0.017123502 4.6260526e-22)
(0.58763689 -0.016136044 3.8780888e-22)
(0.59733393 -0.01519736 -9.7366404e-22)
(0.60688193 -0.014307402 6.9531759e-22)
(0.61627982 -0.013466164 -3.7652534e-22)
(0.6255312 -0.012673273 -1.1311597e-21)
(0.63463352 -0.011929904 1.4489003e-21)
(0.64361214 -0.011233556 -6.3621933e-23)
(0.65242181 -0.010596073 -1.6478908e-22)
(0.66124001 -0.009989994 -8.2420176e-24)
(0.66962576 -0.0095209275 -1.3750982e-22)
(0.67894834 -0.0089102553 -4.9538251e-22)
(0.68550904 -0.0090813023 8.7212565e-22)
(0.69961891 -0.0076995049 -4.5419372e-23)
(0.37645887 -0.038397413 -1.7501494e-20)
(0.3718222 -0.044301159 1.2835231e-20)
(0.37298493 -0.048194317 2.9780409e-21)
(0.37603486 -0.050133183 -7.6379801e-21)
(0.37843632 -0.051705894 1.2060231e-20)
(0.38086091 -0.053079898 7.7943321e-21)
(0.38382133 -0.054069151 -1.2651299e-20)
(0.38725373 -0.054673767 -6.0703953e-21)
(0.3910907 -0.054960189 1.2702573e-20)
(0.39535271 -0.054970811 -1.5314466e-20)
(0.40005391 -0.054732659 -1.4069313e-20)
(0.40518469 -0.054271241 1.4139882e-20)
(0.41072884 -0.053611673 6.8227562e-21)
(0.41666867 -0.052777376 -4.2111897e-21)
(0.42298363 -0.051789852 -1.8520673e-21)
(0.42965028 -0.050668996 -4.0568014e-21)
(0.43664332 -0.049433372 5.3037285e-21)
(0.44393627 -0.048100342 3.6702948e-21)
(0.45150198 -0.046686142 -3.2417435e-21)
(0.45931297 -0.045205932 3.1398418e-21)
(0.46734181 -0.043673857 2.7705785e-21)
(0.47556141 -0.042103077 -3.2154902e-21)
(0.48394523 -0.040505791 3.7085923e-22)
(0.49246757 -0.038893249 -3.2596076e-21)
(0.50110365 -0.03727576 7.2658338e-21)
(0.50982983 -0.035662702 6.1219448e-21)
(0.51862366 -0.034062536 8.1453006e-22)
(0.52746399 -0.032482818 -1.7724576e-21)
(0.53633108 -0.030930222 3.7193652e-21)
(0.54520656 -0.029410567 7.2209395e-21)
(0.55407354 -0.027928852 2.3126897e-21)
(0.56291658 -0.026489302 3.3346836e-21)
(0.57172175 -0.025095409 2.0057843e-21)
(0.58047653 -0.023749995 7.5118616e-22)
(0.58916993 -0.022455266 -2.6452917e-22)
(0.59779237 -0.02121288 2.7452306e-21)
(0.60633576 -0.020024019 6.2610024e-22)
(0.61479349 -0.018889455 2.9788174e-22)
(0.62316038 -0.017809655 5.6784486e-23)
(0.63143309 -0.016784815 1.0074458e-21)
(0.63960909 -0.015815171 4.7543834e-23)
(0.64769036 -0.014900501 4.5370791e-22)
(0.65567309 -0.014042438 -1.2896964e-22)
(0.66358009 -0.013238205 -2.8725113e-22)
(0.67136732 -0.012502087 -1.5815968e-22)
(0.67920093 -0.011801787 -4.420004e-22)
(0.68666681 -0.011262011 1.7430513e-22)
(0.69503911 -0.010555898 -1.3436901e-22)
(0.70089091 -0.010761952 -4.9671288e-22)
(0.71371054 -0.0091663549 2.5209675e-22)
(0.50939981 -0.036008606 3.6466387e-21)
(0.49966074 -0.042996759 -1.8962343e-20)
(0.49641126 -0.047421361 -2.3093948e-21)
(0.49569774 -0.049776405 5.4884627e-21)
(0.49431782 -0.051859431 3.0546865e-21)
(0.49285074 -0.053748576 -4.8162335e-23)
(0.49197441 -0.055232577 6.1940267e-21)
(0.4916842 -0.056312065 7.6286348e-21)
(0.4918894 -0.057038914 9.8613704e-21)
(0.49259699 -0.057445647 -1.1255431e-20)
(0.49382637 -0.057558044 -2.1591393e-20)
(0.49557274 -0.057401811 -3.9392974e-21)
(0.49781989 -0.057002162 1.5947833e-20)
(0.50054914 -0.056383669 1.28168e-20)
(0.50373938 -0.05557002 -5.9079226e-21)
(0.50736659 -0.05458377 1.379064e-21)
(0.51140462 -0.053446362 -3.6655801e-21)
(0.515826 -0.052178201 2.2521585e-21)
(0.52060249 -0.050798636 -2.9140893e-22)
(0.5257055 -0.049325936 -1.8674937e-21)
(0.53110646 -0.047777285 7.8385329e-21)
(0.53677707 -0.046168775 -2.9539461e-22)
(0.54268964 -0.044515398 4.2061886e-22)
(0.54881722 -0.042831039 -6.5472775e-22)
(0.55513384 -0.04112847 -4.310352e-21)
(0.56161461 -0.039419349 4.2164386e-21)
(0.56823584 -0.037714233 1.9049049e-21)
(0.57497516 -0.036022585 -3.3156559e-21)