/*--------------------------------*- C++ -*----------------------------------*\
  =========                 |
  \\      /  F ield         | OpenFOAM: The Open Source CFD Toolbox
   \\    /   O peration     | Website:  https://openfoam.org
    \\  /    A nd           | Version:  6
     \\/     M anipulation  |
\*---------------------------------------------------------------------------*/
FoamFile
{
    version     2.0;
    format      ascii;
    class       surfaceScalarField;
    location    "7";
    object      phi;
}
// * * * * * * * * * * * * * * * * * * * * * * * * * * * * * * * * * * * * * //

dimensions      [0 3 -1 0 0 0 0];

internalField   nonuniform List<scalar> 
18180
(
0.00040801302
-0.00028199569
-0.00012601723
0.0016606903
-0.0019031979
0.00065052077
0.0038238234
-0.0044763203
0.0023131873
0.0069615662
-0.0079130942
0.0047753515
0.011133592
-0.012157182
0.0079851562
0.01639042
-0.017160373
0.011903546
0.022767972
-0.022875647
0.016498095
0.030281912
-0.029253131
0.02173919
0.038922196
-0.036235791
0.027595507
0.048648467
-0.04375611
0.03402984
0.059387001
-0.051734361
0.040995827
0.071029926
-0.060078583
0.048435658
0.083437326
-0.068686331
0.056278931
0.096442652
-0.077448107
0.064442781
0.10986171
-0.086252337
0.072833276
0.12350518
-0.094991558
0.081348093
0.13719347
-0.10356926
0.089880971
0.15077607
-0.11190634
0.098323735
0.16419282
-0.11995899
0.10654224
-0.12771283
0.11433603
0.17756963
0.00049268691
-0.00077468254
0.0019817085
-0.0033922194
0.0045200008
-0.0070146126
0.0081558331
-0.011548926
0.012927929
-0.016929278
0.018858817
-0.023091261
0.025948138
-0.029964968
0.034166619
-0.037471612
0.043451427
-0.045520598
0.053703711
-0.054008394
0.064789075
-0.062819724
0.07654143
-0.071830938
0.088770269
-0.08091517
0.10127096
-0.0899488
0.11383709
-0.098818464
0.12627336
-0.10742783
0.13840726
-0.11570316
0.15009882
-0.1235979
0.16124174
-0.13110191
-0.13817552
0.17170443
0.00058105105
-0.0013557335
0.002305859
-0.0051170274
0.0052060687
-0.0099148221
0.0093051466
-0.015648004
0.014610626
-0.022234757
0.021105811
-0.029586446
0.028742757
-0.037601914
0.037437377
-0.046166232
0.047067511
-0.055150733
0.057474684
-0.064415566
0.068469855
-0.073814896
0.079842949
-0.083204032
0.091375298
-0.092447519
0.10285364
-0.10142715
0.11408397
-0.11004879
0.12490323
-0.11824709
0.1351874
-0.12598733
0.144854
-0.13326451
0.15385382
-0.14010173
-0.14649737
0.16217567
0.00067062548
-0.002026359
0.0026230081
-0.0070694099
0.0058573287
-0.013149143
0.010361979
-0.020152654
0.016102529
-0.027975307
0.023012654
-0.036496571
0.030988331
-0.045577591
0.039886018
-0.055063918
0.049525398
-0.064790113
0.059696882
-0.07458705
0.070173273
-0.084291287
0.080724341
-0.0937551
0.091132485
-0.10285566
0.10120743
-0.11150209
0.11079804
-0.1196394
0.11979976
-0.12724881
0.12815701
-0.13434459
0.13586045
-0.14096794
0.14293849
-0.14717977
-0.15302644
0.14946756
0.00075730639
-0.0027836653
0.0029177807
-0.0092298842
0.0064397053
-0.016671067
0.011266143
-0.024979092
0.017311114
-0.034020277
0.024451227
-0.043636685
0.032523007
-0.053649371
0.041325981
-0.063866892
0.050631439
-0.074095571
0.060195941
-0.084151551
0.069777817
-0.093873163
0.079154354
-0.10313164
0.088137203
-0.11183851
0.096583898
-0.11994879
0.10440408
-0.12745957
0.11156001
-0.13440474
0.118062
-0.14084658
0.12395998
-0.14686592
0.12933296
-0.15255275
-0.15798512
0.13429163
0.00083619414
-0.0036198594
0.0031723772
-0.011566067
0.0069154608
-0.020414151
0.011954507
-0.030018137
0.018145402
-0.040211173
0.025305083
-0.050796366
0.033213777
-0.061558065
0.041624195
-0.07227731
0.050276349
-0.082747725
0.058915729
-0.092790931
0.067311956
-0.10226939
0.075274972
-0.11109465
0.082666373
-0.11922991
0.089404516
-0.12668693
0.095463172
-0.13351823
0.1008647
-0.13980627
0.1056695
-0.14565138
0.10996394
-0.15116036
0.11384878
-0.15643758
-0.16157293
0.11743659
0.00090212351
-0.0045219828
0.0033685788
-0.014032522
0.007247683
-0.024293255
0.012368931
-0.035139385
0.01852802
-0.046370263
0.025485524
-0.057753869
0.032975225
-0.069047765
0.040719405
-0.08002149
0.048448281
-0.090476602
0.055920094
-0.10026274
0.062938314
-0.10928761
0.069363174
-0.11751951
0.075116045
-0.12498278
0.08017662
-0.1317475
0.084574209
-0.13791582
0.088375281
-0.14360734
0.091669758
-0.14894586
0.094558307
-0.15404891
0.097142259
-0.15902153
-0.16395065
0.099519982
0.00094979545
-0.0054717782
0.0034887703
-0.016571497
0.0074031325
-0.028207617
0.012461651
-0.040197904
0.018403183
-0.052311795
0.024941192
-0.064291878
0.031778298
-0.075884871
0.038626316
-0.086869508
0.045227624
-0.09707791
0.051373679
-0.1064088
0.056917279
-0.11483121
0.061776809
-0.12237904
0.065932478
-0.12913845
0.069416127
-0.13523115
0.07229715
-0.14079684
0.074667337
-0.14597753
0.076627103
-0.15090563
0.078274798
-0.1556966
0.079699823
-0.16044656
-0.16523101
0.080980184
0.00097278592
-0.0064445641
0.0035157753
-0.019114487
0.0073541893
-0.032046031
0.012199644
-0.045043358
0.017742624
-0.057854775
0.023663428
-0.070212682
0.029651835
-0.081873278
0.035429426
-0.0926471
0.040769596
-0.10241808
0.045511143
-0.11115035
0.0495631
-0.11888317
0.052900659
-0.1257166
0.055553943
-0.13179174
0.057592507
-0.13726972
0.05910876
-0.14231309
0.060203054
-0.14707182
0.060972202
-0.15167477
0.061502288
-0.15622669
0.061865433
-0.1608097
-0.16548468
0.062119095
0.00096822241
-0.0074127864
0.0034433588
-0.021589623
0.0070930458
-0.035695718
0.011579275
-0.049529587
0.016557028
-0.062832529
0.0216907
-0.075346353
0.026676635
-0.086859213
0.031264518
-0.097234984
0.035272709
-0.10642627
0.038594381
-0.11447202
0.0411939
-0.12148269
0.04309511
-0.12761781
0.044364706
-0.13306133
0.045094281
-0.13799929
0.045384105
-0.14260292
0.045330651
-0.14701837
0.045018664
-0.15136279
0.044517631
-0.15572565
0.043881573
-0.16017364
0.0431498
-0.1647529
-0.00029657301
0.00029657288
2.1188306e-10
-0.00098923417
0.00069266073
5.2343162e-10
-0.0019576255
0.00096839075
7.3137301e-10
-0.0031118644
0.0011542381
8.7110528e-10
-0.0043798239
0.0012679587
9.673992e-10
-0.005701523
0.0013216982
1.0146527e-09
-0.0070250636
0.0013235398
1.0356464e-09
-0.0083031807
0.0012781162
1.0115425e-09
-0.009490413
0.0011872315
9.7111267e-10
-0.01054074
0.0010503267
8.8257885e-10
-0.011405535
0.00086479363
7.860106e-10
-0.012031747
0.00062621224
6.3419007e-10
-0.012360312
0.0003285649
4.7882934e-10
-0.012324778
-3.553435e-05
2.5631684e-10
-0.011850215
-0.00047456263
3.0947514e-11
-0.010852776
-0.00099743842
-2.8191823e-10
-0.0092399333
-0.0016128419
-5.9810909e-10
-0.0069103216
-0.0023296107
-1.0225091e-09
-0.0037535209
-0.0031567988
-1.4501458e-09
-0.0040797038
0.00032618492
-1.9821697e-09
-0.00027002613
0.00056659907
-0.00089523684
0.0013178715
-0.0017590434
0.0018321974
-0.0027720528
0.0021672476
-0.0038608186
0.0023567247
-0.0049627068
0.0024235865
-0.0060221086
0.0023829416
-0.0069872001
0.0022432079
-0.0078072763
0.0020073079
-0.0084305359
0.0016735866
-0.0088021923
0.0012364501
-0.0088628437
0.00068686391
-0.0085470882
1.2809476e-05
-0.0077824235
-0.00080019871
-0.0064885497
-0.0017684363
-0.0045770305
-0.0029089573
-0.0019518296
-0.0042380427
0.0014896846
-0.0057711246
0.0058555836
-0.0075226977
-0.0094599
0.01123578
-0.00021839742
0.00078499655
-0.00071218547
0.0018116597
-0.0013726486
0.0024926606
-0.0021121319
0.002906731
-0.0028554644
0.0031000572
-0.0035357962
0.0031039184
-0.0040914027
0.0029385482
-0.0044629063
0.0026147116
-0.004590991
0.0021353927
-0.0044145399
0.0014971356
-0.0038691217
0.00069103196
-0.0028857767
-0.00029648091
-0.0013901996
-0.0014827675
0.00069778085
-0.002888179
0.0034644101
-0.0045350655
0.0070018237
-0.0064463706
0.011407211
-0.0086434303
0.016780717
-0.01114463
0.023222707
-0.013964688
-0.017047779
0.030810586
-0.00014825926
0.00093325588
-0.00046134181
0.0021247423
-0.0008406793
0.0028719982
-0.0012012327
0.0032672844
-0.0014661449
0.0033649695
-0.001563827
0.0032016006
-0.0014255826
0.0028003039
-0.00098350939
0.0021726386
-0.00016881324
0.0013206966
0.0010894868
0.0002388358
0.0028654528
-0.001084934
0.005236684
-0.0026677119
0.008284416
-0.0045304994
0.012093188
-0.0066969503
0.016750138
-0.0091920155
0.022344041
-0.012040274
0.028964159
-0.015263549
0.036698002
-0.018878473
0.045628615
-0.022895301
-0.027231518
0.055812354
-6.7503009e-05
0.001000759
-0.00016839554
0.0022256349
-0.00021443224
0.002918035
-0.0001236022
0.0031764545
0.00018217895
0.0030591885
0.00077870097
0.0026050787
0.0017408877
0.0018381172
0.0031440316
0.00076949485
0.0050647286
-0.00060000021
0.007581403
-0.0022778385
0.010774317
-0.0042778484
0.0147251
-0.0066184947
0.019515847
-0.0093212463
0.025227734
-0.012408837
0.031939195
-0.015903477
0.039723964
-0.019825042
0.048649418
-0.024189003
0.058775076
-0.02900413
0.070151912
-0.034272137
-0.039883608
0.082804003
1.6657451e-05
0.00098410157
0.00014266883
0.0020996236
0.00045755896
0.002603145
0.0010403521
0.0025936615
0.001969629
0.0021299116
0.0033239977
0.0012507102
0.0051825563
-2.0441264e-05
0.0076252783
-0.001673227
0.010732985
-0.003707707
0.014586743
-0.0061315964
0.019266877
-0.0089579818
0.024851499
-0.012203117
0.03141444
-0.015884186
0.039022655
-0.020017052
0.047733264
-0.024614086
0.057590581
-0.029682359
0.068624022
-0.035222443
0.080847918
-0.041228026
0.094264906
-0.047689125
-0.054475074
0.10885637
9.9241584e-05
0.00088486006
0.00045445952
0.0017444058
0.001139005
0.0019185996
0.0022292208
0.0015034458
0.0038032547
0.00055587784
0.0059406479
-0.00088668294
0.0087219167
-0.00280171
0.012227729
-0.0051790389
0.016537691
-0.0080176689
0.021728797
-0.011322702
0.027873262
-0.015102447
0.035035786
-0.019365642
0.043270321
-0.024118721
0.052616457
-0.029363188
0.063095659
-0.035093289
0.074707836
-0.041294536
0.087429323
-0.047943931
0.10121432
-0.055013025
0.1160035
-0.062478307
-0.070205702
0.13173413
0.00017811291
0.00070674721
0.00075827115
0.0011642476
0.0018101097
0.00086676109
0.0034074562
-9.3900653e-05
0.0056268811
-0.0016635469
0.0085464489
-0.0038062506
0.012244099
-0.0064993604
0.016795773
-0.0097307124
0.022273089
-0.013494985
0.028740419
-0.017790031
0.03625145
-0.022613478
0.044845326
-0.027959518
0.054542542
-0.033815937
0.065340902
-0.040161547
0.077211941
-0.046964328
0.090098365
-0.05418096
0.10391356
-0.061759129
0.11854505
-0.069644511
0.1338656
-0.077798857
-0.086111514
0.14977141
0.00025346588
0.0004532814
0.0010528686
0.00036484503
0.002465436
-0.00054580629
0.0045619448
-0.0021904094
0.0074153178
-0.0045169199
0.011098439
-0.0074893719
0.015681532
-0.011082453
0.021228998
-0.015278178
0.027795719
-0.020061706
0.035422893
-0.025417206
0.044133601
-0.031324186
0.053928356
-0.037754272
0.064781026
-0.044668608
0.076635538
-0.052016059
0.089403763
-0.059732554
0.10296492
-0.06774212
0.11716722
-0.075961428
0.13183374
-0.084311032
0.14677698
-0.092742092
-0.10120752
0.16187298
0.00032726422
0.0013426301
0.0031100112
0.0056949534
0.0091631898
0.013577364
0.018993006
0.025454018
0.032987819
0.041600453
0.051272094
0.06195348
0.073563803
0.085990526
0.099091248
0.11269722
0.12661676
0.14062947
0.15442962
0.16755813
0.0064324129
-0.0061062242
-3.6081587e-09
0.013633364
-0.0072009467
-4.6193927e-09
0.02191871
-0.0082853407
-5.5078745e-09
0.031182219
-0.009263503
-6.2824197e-09
0.041337342
-0.010155116
-7.0610998e-09
0.052288109
-0.010950759
-7.8320298e-09
0.063907564
-0.011619447
-8.5430869e-09
0.076043283
-0.012135711
-9.2004628e-09
0.088524951
-0.012481658
-9.8300945e-09
0.10116827
-0.012643312
-1.0411805e-08
0.1137795
-0.012611218
-1.0916904e-08
0.12616168
-0.012382167
-1.1321462e-08
0.13812168
-0.011959989
-1.1632276e-08
0.14947783
-0.011356137
-1.1821205e-08
0.16006835
-0.010590511
-1.1911608e-08
0.16976042
-0.0096920594
-1.1866192e-08
0.17845891
-0.0086984769
-1.1723649e-08
0.18611327
-0.0076543516
-1.1445482e-08
0.19272067
-0.0066073895
-1.1084581e-08
0.19832367
-0.0056029818
-1.0606594e-08
0.20300195
-0.004678274
-1.007797e-08
0.2068595
-0.003857536
-9.4721104e-09
0.21000998
-0.0031504799
-8.8618723e-09
0.21256408
-0.0025540912
-8.2213315e-09
0.21462111
-0.0020570137
-7.6101794e-09
0.21626561
-0.0016445013
-6.9969786e-09
0.2175677
-0.0013020798
-6.413056e-09
0.2185849
-0.001017192
-5.8291328e-09
0.21936422
-0.00077931973
-5.2510509e-09
0.21994379
-0.0005795637
-4.6709926e-09
0.22035415
-0.00041035444
-4.0787777e-09
0.22061955
-0.0002653944
-3.492238e-09
0.22075919
-0.00013963901
-2.889628e-09
0.22078836
-2.9170998e-05
-2.3075692e-09
0.22071934
6.9021376e-05
-1.7162375e-09
0.22056207
0.00015727421
-1.1628224e-09
0.22032464
0.00023743091
-6.1391972e-10
0.22001367
0.00031096882
-1.1396399e-10
0.21963459
0.00037908501
3.7589109e-10
0.21919183
0.00044275913
8.117188e-10
0.21868903
0.00050280042
1.2112705e-09
0.21812914
0.00055988342
1.5532075e-09
0.21751456
0.00061457447
1.8440357e-09
0.2168472
0.00066735984
2.0739904e-09
0.21612856
0.00071864418
2.2422711e-09
0.21535973
0.00076882355
2.3450766e-09
0.21454162
0.00081811
2.3630487e-09
0.21367443
0.00086718256
2.2926551e-09
0.21275974
0.00091469113
2.1523157e-09
0.00097005521
1.7220109e-09
0.016991041
-0.011861486
0.023741418
-0.013951323
0.031475904
-0.016019827
0.040093951
-0.017881551
0.049526279
-0.019587444
0.059694404
-0.021118885
0.070487896
-0.022412939
0.081772158
-0.023419973
0.093396073
-0.024105574
0.105195
-0.024442236
0.11699451
-0.024410726
0.12861582
-0.024003478
0.13988181
-0.023225985
0.15062359
-0.022097917
0.16068792
-0.020654843
0.16994555
-0.01894969
0.17829968
-0.017052605
0.18569321
-0.015047884
0.19211292
-0.013027094
0.19758866
-0.01107872
0.20218688
-0.0092764981
0.20599929
-0.0076699443
0.20912928
-0.0062804695
0.2116796
-0.0051044084
0.21374386
-0.0041212756
0.21540275
-0.0033033884
0.2167238
-0.0026231378
0.21776296
-0.0020563522
0.21856628
-0.0015826383
0.21917134
-0.0011846212
0.21960841
-0.00084742445
0.21990162
-0.00055860355
0.22007013
-0.00030815099
0.22012923
-8.8273818e-05
0.22009123
0.0001070283
0.21996609
0.00028241515
0.21976195
0.00044156605
0.21948549
0.00058743069
0.21914217
0.00072240117
0.2187365
0.00084843521
0.21827215
0.00096714907
0.21775214
0.0010798909
0.21717892
0.0011877923
0.21655446
0.0012918247
0.21588031
0.0013927949
0.21515764
0.0014914951
0.2143874
0.0015883438
0.21356988
0.0016847083
0.21270672
0.0017778499
0.0018866785
0.035877547
-0.016928447
0.041755073
-0.019828849
0.048436523
-0.022701278
0.055840133
-0.02528516
0.063927627
-0.027674939
0.072650638
-0.029841897
0.081928436
-0.031690737
0.091658247
-0.033149785
0.10172249
-0.034169819
0.11199052
-0.034710261
0.12232125
-0.034741458
0.13256729
-0.034249524
0.14257936
-0.033238048
0.15221103
-0.031729584
0.16132447
-0.029768284
0.1697973
-0.027422523
0.17753035
-0.024785656
0.18445531
-0.02197284
0.19054052
-0.019112305
0.19579295
-0.016331154
0.20025488
-0.013738431
0.20399546
-0.01141052
0.2070991
-0.0093841104
0.20965392
-0.0076592317
0.21174303
-0.0062103836
0.21343994
-0.0050002927
0.21480749
-0.003990693
0.21589869
-0.0031475488
0.21675785
-0.002441796
0.21742161
-0.0018483843
0.21791981
-0.0013456242
0.21827641
-0.00091520364
0.21851055
-0.00054229562
0.21863758
-0.00021530288
0.21866988
7.4729383e-05
0.21861753
0.00033476588
0.21848878
0.00057031234
0.21829043
0.00078578587
0.21802806
0.00098477038
0.2177063
0.0011701996
0.21732895
0.0013444957
0.21689916
0.0015096786
0.21641951
0.0016674432
0.21589209
0.0018192427
0.2153186
0.0019662841
0.21470035
0.0021097537
0.21403842
0.0022502651
0.21333324
0.0023898903
0.21258666
0.0025244346
0.00268242
0.059925922
-0.021042014
0.064623605
-0.024526533
0.069897936
-0.027975609
0.075699507
-0.031086731
0.082030303
-0.034005736
0.088877292
-0.036688886
0.096196449
-0.039009894
0.10392471
-0.040878043
0.11198531
-0.042230423
0.12028847
-0.043013424
0.12873318
-0.043186165
0.13720992
-0.042726264
0.14560343
-0.041631555
0.1537956
-0.039921752
0.16166909
-0.037641783
0.16911224
-0.034865672
0.1760254
-0.031698817
0.1823285
-0.028275935
0.18796834
-0.024752151
0.19292371
-0.021286524
0.19720608
-0.018020802
0.20085514
-0.01505958
0.20393007
-0.012459032
0.20649921
-0.010228376
0.2086313
-0.0083424712
0.21038991
-0.0067589092
0.21183134
-0.0054321203
0.21300441
-0.004320612
0.21395095
-0.0033883444
0.21470631
-0.0026037365
0.21529969
-0.0019390048
0.21575486
-0.0013703764
0.21609098
-0.00087841119
0.21632348
-0.000447806
0.21646491
-6.6698375e-05
0.21652551
0.00027415912
0.21651374
0.00058208682
0.21643656
0.00086296406
0.21629977
0.0011215638
0.21610817
0.0013617939
0.21586579
0.0015868811
0.21557595
0.0017995148
0.21524144
0.0020019501
0.21486457
0.0021961196
0.21444723
0.0023836246
0.21399094
0.0025660436
0.21349703
0.0027441696
0.21296612
0.0029208003
0.21240037
0.0030901892
0.0032906445
0.085743761
-0.023981773
0.089056611
-0.027839383
0.092720513
-0.031639511
0.096722223
-0.035088442
0.10110488
-0.03838839
0.10588871
-0.041472716
0.11106656
-0.044187746
0.11661617
-0.046427655
0.12250188
-0.048116136
0.12867447
-0.049186017
0.1350726
-0.049584292
0.14162442
-0.049278082
0.14824902
-0.048256154
0.15485785
-0.046530585
0.16135648
-0.044140412
0.16764727
-0.041156461
0.17363381
-0.037685358
0.17922744
-0.033869567
0.18435525
-0.029879956
0.18896777
-0.025899043
0.19304389
-0.022096925
0.1965909
-0.01860659
0.19963935
-0.01550748
0.20223466
-0.012823692
0.20442854
-0.010536347
0.20627258
-0.0086029485
0.20781497
-0.0069745139
0.20909932
-0.0056049619
0.21016433
-0.0044533568
0.21104363
-0.0034830306
0.21176566
-0.0026610398
0.21235397
-0.0019586797
0.21282773
-0.0013521732
0.21320255
-0.00082263181
0.2134912
-0.00035534517
0.21370417
6.1190125e-05
0.21385016
0.00043609987
0.2139364
0.00077671765
0.21396896
0.0010890052
0.21395291
0.0013778434
0.21389253
0.0016472607
0.21379143
0.0019006156
0.21365266
0.0021407181
0.21347881
0.0023699781
0.21327205
0.0025903832
0.21303419
0.0028039004
0.21276688
0.003011484
0.21247099
0.0032166844
0.21214911
0.0034120724
0.0036459785
0.1104302
-0.025555603
0.11222391
-0.029633091
0.1141922
-0.0336078
0.11635387
-0.037250116
0.11878159
-0.040816106
0.12151957
-0.044210699
0.12459184
-0.047260018
0.12801183
-0.049847643
0.13177956
-0.051883866
0.13588087
-0.053287325
0.14028868
-0.053992101
0.14496381
-0.053953214
0.14985557
-0.053147918
0.15490232
-0.051577337
0.16003191
-0.049270003
0.16516253
-0.046287076
0.17020492
-0.042727745
0.17506705
-0.038731702
0.17966161
-0.034474514
0.18391514
-0.030152577
0.18777647
-0.025958253
0.19122122
-0.022051338
0.19425081
-0.018537073
0.19688658
-0.015459463
0.19916185
-0.012811617
0.20111499
-0.010556085
0.20278502
-0.0086445458
0.20420949
-0.0070294279
0.20542336
-0.0056672262
0.20645821
-0.0045178796
0.20734157
-0.0035444012
0.20809671
-0.0027138201
0.20874288
-0.0019983495
0.20929593
-0.0013756781
0.20976889
-0.00082830781
0.21017259
-0.00034250831
0.21051606
9.2635947e-05
0.21080686
0.00048591388
0.21105139
0.0008444737
0.21125507
0.0011741668
0.2114225
0.0014798266
0.21155764
0.0017654756
0.21166388
0.0020344781
0.21174415
0.0022897116
0.21180098
0.0025335469
0.21183655
0.0027683348
0.21185287
0.002995163
0.21185119
0.0032183685
0.21183457
0.0034286853
0.0036847494
0.1318195
-0.025640967
0.13203554
-0.029849139
0.1323193
-0.033891559
0.13272265
-0.037653466
0.13332694
-0.041420393
0.1341858
-0.045069558
0.13534529
-0.048419509
0.13684519
-0.051347545
0.13871217
-0.053750843
0.14095883
-0.055533989
0.14358452
-0.05661779
0.14657545
-0.056944138
0.1499048
-0.056477268
0.15353289
-0.055205427
0.15740696
-0.05314408
0.16146083
-0.050340942
0.16561518
-0.046882098
0.16978005
-0.042896571
0.17386058
-0.038555043
0.17776621
-0.034058212
0.18142129
-0.02961333
0.18477349
-0.025403542
0.18779703
-0.021560604
0.19048977
-0.018152203
0.19286657
-0.015188419
0.19495211
-0.012641631
0.19677568
-0.010468109
0.19836814
-0.0086218921
0.19976025
-0.0070593392
0.20098122
-0.0057388465
0.2020575
-0.0046206763
0.20301204
-0.0036683652
0.20386422
-0.0028505281
0.20463015
-0.0021416116
0.20532326
-0.0015214094
0.20595474
-0.00097399082
0.20653403
-0.00048665876
0.20706912
-4.9173476e-05
0.2075668
0.0003467978
0.20803288
0.00070808623
0.20847238
0.001040324
0.20888966
0.0013481971
0.20928852
0.0016356202
0.20967229
0.001905937
0.21004395
0.0021618838
0.21040609
0.0024062001
0.21076118
0.0026400693
0.21111088
0.0028686681
0.21145889
0.0030806794
0.0033454158
0.14839622
-0.024265772
0.14709297
-0.02854589
0.14580332
-0.032601915
0.14463233
-0.036482473
0.14364865
-0.040436711
0.14290011
-0.044321016
0.14244441
-0.047963811
0.14233629
-0.051239423
0.14261856
-0.054033118
0.14332157
-0.056237
0.14446294
-0.057759158
0.14604694
-0.058528141
0.14806429
-0.058494616
0.15049199
-0.057633125
0.15329287
-0.055944966
0.15641473
-0.053462794
0.15978937
-0.050256748
0.16333312
-0.046440318
0.16695024
-0.042172165
0.17054083
-0.037648795
0.174012
-0.033084504
0.17728919
-0.028680731
0.18032315
-0.02459456
0.18309042
-0.020919478
0.18558841
-0.017686405
0.18782839
-0.014881616
0.18982978
-0.0124695
0.19161647
-0.010408583
0.1932146
-0.0086574668
0.1946507
-0.0071749413
0.19594995
-0.0059199254
0.19713495
-0.0048533695
0.19822519
-0.0039407722
0.19923714
-0.0031535558
0.20018463
-0.0024688964
0.20107933
-0.0018686944
0.20193115
-0.0013384831
0.20274855
-0.00086657353
0.20353879
-0.00044343832
0.20430815
-6.1273741e-05
0.20506212
0.00028635865
0.20580551
0.00060480495
0.2065426
0.00089852576
0.20727722
0.0011713239
0.20801281
0.0014262933
0.20875245
0.0016665555
0.20949916
0.001893355
0.21025507
0.0021127586
0.21102459
0.0023111641
0.0025689835
0.15928098
-0.021673766
0.15668949
-0.025954402
0.15405396
-0.029966387
0.15158323
-0.034011747
0.14931917
-0.038172645
0.14729534
-0.04229719
0.14557089
-0.046239362
0.14420475
-0.049873282
0.1432475
-0.053075865
0.14274056
-0.055730067
0.14271428
-0.057732871
0.14318622
-0.059000084
0.14416046
-0.059468855
0.14562701
-0.059099676
0.14756117
-0.05787913
0.14992255
-0.055824169
0.15265373
-0.052987935
0.15567946
-0.049466039
0.1589079
-0.045400605
0.16223636
-0.040977256
0.1655617
-0.036409845
0.16879305
-0.031912084
0.17186205
-0.027663559
0.1747267
-0.023784125
0.17736857
-0.020328283
0.17978651
-0.017299557
0.18199047
-0.01467346
0.18399742
-0.012415529
0.18582874
-0.010488792
0.18750811
-0.0088543066
0.18905932
-0.0074711381
0.19050459
-0.0062986381
0.19186356
-0.0052997427
0.19315311
-0.0044431053
0.19438759
-0.0037033793
0.19557923
-0.0030603291
0.19673847
-0.0024977244
0.19787431
-0.002002415
0.19899456
-0.0015636819
0.20010602
-0.0011727382
0.20121471
-0.00082233603
0.20232599
-0.0005064713
0.20344466
-0.00022013883
0.20457507
4.0912096e-05
0.20572123
0.00028012942
0.20688678
0.00050100522
0.20807533
0.00070480642
0.20928953
0.00089855565
0.21053461
0.0010660888
0.0012994045
0.16460579
-0.018721431
0.16101896
-0.022367564
0.1573993
-0.026346729
0.15395441
-0.030566864
0.15070924
-0.034927473
0.14770695
-0.039294894
0.14500785
-0.04354027
0.14267195
-0.04753738
0.14075582
-0.051159738
0.13931013
-0.054284372
0.13837579
-0.056798538
0.13798146
-0.05860575
0.13814215
-0.059629541
0.13885833
-0.059815859
0.14011513
-0.059135927
0.14188147
-0.057590511
0.144109
-0.055215462
0.14673078
-0.052087822
0.14966109
-0.048330913
0.15279859
-0.04411476
0.15603491
-0.039646163
0.15926744
-0.035144617
0.16241202
-0.03080814
0.16541022
-0.026782323
0.16822919
-0.023147254
0.17085635
-0.019926716
0.17329303
-0.017110143
0.17554984
-0.01467233
0.17764369
-0.012582651
0.17959556
-0.010806171
0.18142798
-0.0093035575
0.18316293
-0.0080335936
0.18482043
-0.0069572353
0.18641795
-0.0060406249
0.18797053
-0.0052559646
0.18949109
-0.0045808873
0.19099074
-0.0039973729
0.19247912
-0.0034907977
0.19396466
-0.0030492235
0.19545479
-0.0026628627
0.19695611
-0.0023236563
0.19847456
-0.0020249292
0.20001557
-0.0017611411
0.20158406
-0.0015275855
0.20318468
-0.001320489
0.20482166
-0.0011359719
0.20649929
-0.00097282191
0.20822074
-0.00082289845
0.20999233
-0.00070549408
-0.00051596186
0.21826896
-0.015304584
-0.22168581
0.21538988
-0.019488487
0.21273049
-0.023687332
0.21014591
-0.027982282
0.20757303
-0.032354598
0.20497502
-0.036696879
0.20233858
-0.040903835
0.19967079
-0.044869594
0.19699451
-0.048483449
0.194345
-0.051634866
0.19176674
-0.05422028
0.18930963
-0.056148636
0.18702513
-0.057345041
0.18496281
-0.057753543
0.18316753
-0.057340649
0.18167723
-0.056100206
0.18052084
-0.054059073
0.17971565
-0.051282637
0.17926389
-0.047879149
0.17914964
-0.044000512
0.17933816
-0.039834686
0.17977886
-0.035585318
0.18041158
-0.031440855
0.18117412
-0.027544866
0.18200892
-0.023982052
0.18286752
-0.020785316
0.18371278
-0.017955401
0.18451906
-0.015478608
0.18527091
-0.013334503
0.18596087
-0.011496134
0.18658705
-0.0099297311
0.18715099
-0.0085975423
0.18765621
-0.0074624542
0.18810712
-0.0064915341
0.18850845
-0.005657295
0.18886489
-0.0049373228
0.18918087
-0.0043133565
0.18946051
-0.0037704385
0.18970755
-0.0032962654
0.18992538
-0.002880686
0.19011702
-0.0025152978
0.1902852
-0.0021931077
0.19043235
-0.0019082909
0.19056063
-0.0016558711
0.19067202
-0.0014318784
0.19076816
-0.0012321069
0.19085087
-0.0010555374
0.19092061
-0.00089263825
0.19098179
-0.00076666773
-0.00055928112
0.24208627
-0.012654782
-0.24473607
0.23928617
-0.016688389
0.23652694
-0.020928096
0.23369717
-0.025152512
0.2307464
-0.029403828
0.2276839
-0.033634381
0.22452538
-0.03774532
0.22129225
-0.041636457
0.2180183
-0.045209503
0.21474867
-0.048365235
0.21153641
-0.051008016
0.20843929
-0.053051524
0.20551652
-0.054422269
0.20282532
-0.055062344
0.20041809
-0.054933414
0.1983401
-0.054022212
0.19662745
-0.052346425
0.19530447
-0.049959664
0.19438024
-0.046954913
0.19384497
-0.043465244
0.19366843
-0.039658146
0.19380195
-0.035718841
0.19418429
-0.031823191
0.19474944
-0.028110013
0.19543406
-0.024666672
0.19618285
-0.021534113
0.19695148
-0.018724032
0.19770731
-0.016234436
0.19842853
-0.01405572
0.19910226
-0.012169865
0.19972228
-0.010549753
0.20028689
-0.0091621502
0.2007972
-0.0079727652
0.20125595
-0.0069502813
0.20166668
-0.0060680293
0.20203327
-0.0053039115
0.2023596
-0.004639684
0.2026494
-0.0040602389
0.20290617
-0.0035530372
0.20313314
-0.0031076559
0.20333326
-0.0027154133
0.20350919
-0.0023690436
0.20366337
-0.0020624679
0.20379796
-0.0017904645
0.20391496
-0.0015488702
0.20401604
-0.0013331933
0.20410303
-0.0011425231
0.20417657
-0.00096617884
0.20424072
-0.00083081786
-0.00060510674
0.26417289
-0.010327344
-0.26650033
0.26161173
-0.014127231
0.25886483
-0.018181198
0.25594877
-0.022236444
0.25283641
-0.026291471
0.24953635
-0.030334319
0.24607667
-0.034285646
0.24249144
-0.038051227
0.23882343
-0.041541493
0.23512541
-0.044667212
0.23145764
-0.04734025
0.22788475
-0.04947863
0.22447257
-0.051010093
0.22128507
-0.051874842
0.21838147
-0.052029812
0.21581393
-0.05145468
0.2136255
-0.050157988
0.21184751
-0.048181674
0.21049621
-0.045603617
0.20956897
-0.042538002
0.20904188
-0.039131062
0.20887085
-0.035547809
0.20899662
-0.031948958
0.20935247
-0.028465867
0.20987208
-0.025186279
0.21049551
-0.022157548
0.21117279
-0.019401314
0.2118652
-0.016926837
0.2125449
-0.014735425
0.21319359
-0.012818556
0.21380049
-0.011156652
0.21436032
-0.0097219828
0.21487154
-0.0084839792
0.21533492
-0.0074136682
0.21575264
-0.0064857471
0.21612757
-0.0056788372
0.21646289
-0.0049750046
0.21676185
-0.0043592039
0.21702763
-0.0038188141
0.21726323
-0.0033432518
0.21747145
-0.0029236351
0.21765489
-0.0025524831
0.21781592
-0.0022235013
0.21795671
-0.0019312561
0.21807924
-0.0016713956
0.21818524
-0.0014391987
0.21827646
-0.001233743
0.21835385
-0.0010435621
0.21842081
-0.00089777914
-0.0006535494
0.28462188
-0.0083083169
-0.2866409
0.28234
-0.011845349
0.27973798
-0.015579188
0.27687561
-0.019374067
0.27376586
-0.023181723
0.27041757
-0.026986026
0.26685838
-0.030726458
0.26312739
-0.034320243
0.25927171
-0.037685811
0.25534739
-0.040742889
0.25141822
-0.043411083
0.24755275
-0.045613158
0.24382109
-0.047278434
0.24029196
-0.048345707
0.23702989
-0.048767747
0.23409285
-0.048517643
0.23152999
-0.047595128
0.22937913
-0.046030812
0.22766349
-0.04388797
0.22638793
-0.04126245
0.22553626
-0.038279387
0.22507131
-0.035082856
0.22493905
-0.031816702
0.22507565
-0.028602466
0.22541519
-0.025525817
0.22589598
-0.022638341
0.22646455
-0.019969885
0.22707747
-0.017539752
0.22770163
-0.015359589
0.22831351
-0.013430437
0.22889769
-0.011740827
0.22944506
-0.010269359
0.22995112
-0.0089900347
0.23041441
-0.007876958
0.23083544
-0.0069067747
0.23121587
-0.0060592684
0.23155801
-0.005317148
0.23186449
-0.0046656785
0.23213801
-0.0040923413
0.23238129
-0.0035865274
0.23259691
-0.0031392542
0.23278732
-0.0027428985
0.23295482
-0.0023910019
0.23310153
-0.0020779604
0.23322938
-0.0017992483
0.23334015
-0.0015499727
0.2334355
-0.0013290925
0.23351664
-0.0011246962
0.23358636
-0.00096749674
-0.0007045584
0.30367227
-0.006614193
-0.30536639
0.30168934
-0.009862425
0.29934114
-0.013230983
0.29667115
-0.016704079
0.2937104
-0.02022097
0.2904736
-0.023749225
0.2869862
-0.027239064
0.28328755
-0.030621589
0.27942583
-0.033824097
0.27545725
-0.036774303
0.27144559
-0.039399428
0.26746001
-0.041627569
0.26357197
-0.043390402
0.25985251
-0.044626242
0.25636948
-0.045284721
0.25318513
-0.045333285
0.25035359
-0.044763592
0.24791834
-0.043595562
0.24590902
-0.041878655
0.24433796
-0.039691387
0.24319727
-0.037138695
0.24245834
-0.034343927
0.24207486
-0.031433219
0.24198889
-0.028516499
0.2421381
-0.025675033
0.24246197
-0.022962208
0.24290591
-0.020413827
0.24342356
-0.018057397
0.24397765
-0.015913678
0.24454
-0.013992792
0.24509072
-0.012291545
0.2456168
-0.010795443
0.24611055
-0.0094837812
0.24656803
-0.0083344349
0.24698784
-0.0073265837
0.24737021
-0.0064416412
0.24771639
-0.005663324
0.24802819
-0.004977488
0.24830778
-0.00437193
0.24855743
-0.0038361762
0.24877944
-0.0033612632
0.24897606
-0.0029395156
0.24914943
-0.0025643765
0.2493016
-0.0022301241
0.24943443
-0.0019320834
0.24954971
-0.0016652495
0.24964899
-0.0014283752
0.2497337
-0.0012094079
0.24980607
-0.0010398673
-0.00075802652
0.32191814
-0.0052342816
-0.32329805
0.32023065
-0.0081749323
0.31817922
-0.011179555
0.31578171