/*--------------------------------*- C++ -*----------------------------------*\
  =========                 |
  \\      /  F ield         | OpenFOAM: The Open Source CFD Toolbox
   \\    /   O peration     | Website:  https://openfoam.org
    \\  /    A nd           | Version:  6
     \\/     M anipulation  |
\*---------------------------------------------------------------------------*/
FoamFile
{
    version     2.0;
    format      ascii;
    class       volVectorField;
    location    "20";
    object      UMean;
}
// * * * * * * * * * * * * * * * * * * * * * * * * * * * * * * * * * * * * * //

dimensions      [0 1 -1 0 0 0 0];

internalField   nonuniform List<vector> 
9200
(
(0.0077871477 -0.0037798318 -7.6202925e-20)
(0.035948635 -0.018343772 6.897046e-20)
(0.077295577 -0.031614162 -5.2044283e-20)
(0.1287877 -0.043656155 -8.942957e-20)
(0.18772219 -0.054624869 2.6590739e-20)
(0.25235172 -0.064151511 4.8645703e-20)
(0.32115992 -0.072012955 -1.7938395e-20)
(0.39274325 -0.078154513 1.3675213e-20)
(0.46580888 -0.082606108 2.7817985e-20)
(0.53914938 -0.085453823 2.4577438e-21)
(0.61162534 -0.086829391 -3.6058641e-20)
(0.68216636 -0.086898254 3.4142588e-20)
(0.74978476 -0.085847186 -6.5897741e-20)
(0.81359658 -0.083872333 -3.5586862e-20)
(0.87284659 -0.081167248 9.9627564e-21)
(0.92693269 -0.077913377 -4.2948212e-20)
(0.97543873 -0.074261365 4.3402947e-20)
(1.0182292 -0.070208472 3.9317608e-20)
(1.055289 -0.065662437 -1.3853791e-22)
(1.0847004 -0.063424714 -1.191136e-21)
(0.013911093 -0.0071472481 -2.1918842e-20)
(0.054296765 -0.026465064 5.7586092e-20)
(0.10822512 -0.041851777 2.9559288e-20)
(0.1722056 -0.054176915 -1.6470135e-19)
(0.24324676 -0.064094544 -1.7391107e-20)
(0.31931747 -0.071539856 1.089313e-19)
(0.39861124 -0.076552057 -5.2602799e-20)
(0.47944058 -0.079312121 -1.3131802e-20)
(0.56024686 -0.080058348 5.4095933e-20)
(0.63958957 -0.079063269 -6.9228804e-20)
(0.71614605 -0.076626486 -5.0352388e-20)
(0.78872953 -0.073062826 1.2033994e-19)
(0.85631646 -0.068688789 6.3130981e-20)
(0.91807569 -0.063809987 -1.1308016e-19)
(0.973394 -0.058711059 2.4244539e-20)
(1.0218921 -0.05365144 -6.096862e-20)
(1.0634385 -0.048855183 -2.4536836e-20)
(1.098208 -0.044446604 1.1638386e-19)
(1.1265414 -0.040726696 5.604113e-20)
(1.1473494 -0.040282873 -9.9552681e-20)
(0.02156353 -0.010195411 4.3734332e-20)
(0.076543371 -0.03339197 5.8175206e-22)
(0.14470603 -0.049824688 2.5630176e-20)
(0.22219579 -0.061278986 1.3534957e-21)
(0.30576395 -0.068984146 -5.1770715e-20)
(0.3930941 -0.073244759 2.8789303e-20)
(0.48208796 -0.074422535 1.717097e-20)
(0.57078538 -0.072988401 -7.5155523e-20)
(0.65739625 -0.069434855 8.8259543e-20)
(0.74031292 -0.064255126 2.5121593e-20)
(0.81813113 -0.057936125 -8.8632816e-20)
(0.88968307 -0.050943915 -3.0877806e-20)
(0.95407068 -0.043707135 1.1995835e-20)
(1.0106897 -0.036602659 3.7867651e-20)
(1.0592391 -0.029945479 -1.7941495e-20)
(1.0997109 -0.023985184 4.4194566e-20)
(1.1323662 -0.018899521 -3.2975338e-20)
(1.1577262 -0.014753901 -1.0646568e-19)
(1.1764266 -0.011709633 -2.8537673e-20)
(1.1881601 -0.01137963 6.8389071e-20)
(0.030787656 -0.012647087 2.7816922e-20)
(0.10264472 -0.038376452 6.4120719e-20)
(0.18647024 -0.054450682 2.6149378e-20)
(0.27815162 -0.063677079 2.0543945e-20)
(0.37422797 -0.067933401 2.623e-20)
(0.4721163 -0.067958079 -6.8873392e-20)
(0.56945731 -0.064491224 -3.8252206e-20)
(0.66407576 -0.058337783 0)
(0.75404315 -0.050272574 2.9545109e-20)
(0.83771654 -0.041018059 -1.41203e-20)
(0.91377676 -0.031235069 -1.5232807e-19)
(0.98126542 -0.021505429 -2.2943967e-20)
(1.0396074 -0.012314677 1.0282654e-19)
(1.0886109 -0.0040405403 6.9127703e-22)
(1.128443 0.0030510483 -2.4025235e-21)
(1.1595804 0.0088012575 3.2963057e-20)
(1.1827455 0.013153501 -6.3515959e-21)
(1.1988495 0.016174701 -9.0787894e-20)
(1.2088537 0.017909137 -6.7778938e-20)
(1.2130687 0.017444467 8.793615e-20)
(0.041541772 -0.014199013 -3.0433456e-21)
(0.13230694 -0.040642603 -1.7594777e-21)
(0.23283578 -0.054658127 7.0852387e-20)
(0.33890326 -0.060159303 2.7252842e-20)
(0.44691135 -0.059735105 -4.7867202e-20)
(0.55406782 -0.054614325 1.4541744e-20)
(0.65783491 -0.045956994 3.8995886e-21)
(0.7559426 -0.034922876 5.3060644e-20)
(0.84648402 -0.02256515 8.6893008e-21)
(0.92797461 -0.0098049242 -2.2756661e-20)
(0.99939297 0.0025789639 9.6594568e-20)
(1.060201 0.013965361 -8.6679349e-20)
(1.1103332 0.023900985 -1.994648e-19)
(1.1501524 0.032099613 -8.3060649e-21)
(1.1803775 0.03843004 1.2086842e-19)
(1.2019906 0.042893983 0)
(1.2161377 0.045603031 1.5904057e-20)
(1.2240427 0.046777281 -2.0820512e-20)
(1.2268866 0.046624509 -1.3508398e-20)
(1.2253622 0.044660593 2.6486614e-20)
(0.053686043 -0.014537666 -2.3155367e-21)
(0.16497798 -0.039440472 5.2313678e-21)
(0.28273972 -0.049485389 -1.0926406e-20)
(0.40281955 -0.049735654 3.3879679e-20)
(0.52160118 -0.043529123 -4.1970737e-20)
(0.63619479 -0.032619147 -2.4006271e-20)
(0.74402993 -0.018596453 4.524674e-20)
(0.84292712 -0.002956323 4.8121761e-21)
(0.93121757 0.013020274 -4.1343519e-20)
(1.0078053 0.028292463 1.036046e-19)
(1.0721868 0.042063294 -1.7399085e-21)
(1.1244287 0.053782344 -1.1954462e-19)
(1.1651033 0.063136383 0)
(1.1951867 0.070024546 5.5539896e-20)
(1.2159373 0.074521145 7.1951197e-21)
(1.2287668 0.0768308 -1.055935e-19)
(1.2351226 0.077246367 -2.689032e-20)
(1.2363966 0.076128585 -1.6133206e-20)
(1.2338334 0.073799228 -1.9677293e-20)
(1.2282647 0.070041392 5.2904621e-20)
(0.066975911 -0.013363457 -1.7389775e-20)
(0.19984845 -0.034108224 -1.1415011e-20)
(0.33477345 -0.038168824 3.3087481e-20)
(0.46789958 -0.031738794 3.8820641e-20)
(0.59576221 -0.018898613 -2.5323478e-20)
(0.71554579 -0.0019196476 -9.7109649e-20)
(0.82485411 0.017214089 -4.2756322e-20)
(0.92183456 0.036744976 1.1265561e-19)
(1.0053019 0.055268298 1.5350519e-20)
(1.0747767 0.071748442 -3.4350267e-20)
(1.1304567 0.08550262 1.7824413e-20)
(1.1731306 0.096175464 -6.392696e-21)
(1.2040469 0.10369665 0)
(1.2247583 0.10822275 3.7584474e-20)
(1.2369616 0.11007104 -1.0749313e-19)
(1.242355 0.10965352 -4.2451852e-20)
(1.2425255 0.10742195 1.0656586e-19)
(1.2388769 0.10383796 -8.1383864e-21)
(1.2325805 0.099283474 3.9212008e-21)
(1.2244387 0.09370775 3.6605588e-20)
(0.081061654 -0.01041971 -3.3591885e-20)
(0.23587092 -0.024142632 -9.8616912e-20)
(0.38724498 -0.020232456 -6.0068663e-21)
(0.53189251 -0.0059102311 9.2498668e-20)
(0.66671876 0.014070152 8.2232887e-20)
(0.78920848 0.036983086 -8.9742652e-20)
(0.89739168 0.060548785 4.4565706e-21)
(0.99000163 0.082878728 1.2317835e-19)
(1.0665732 0.10259689 6.7942479e-20)
(1.1274285 0.11882956 -7.6669503e-20)
(1.1735766 0.13115121 -1.2810766e-19)
(1.2065536 0.1395156 -4.3288131e-21)
(1.2282301 0.1441706 5.7019338e-20)
(1.2406165 0.14556414 -8.1860925e-21)
(1.2456913 0.14425319 -1.5527809e-20)
(1.2452705 0.14082555 2.3282544e-20)
(1.2409241 0.13584343 5.6305408e-20)
(1.2339424 0.12981547 -5.4378475e-20)
(1.2253332 0.12313316 -1.294787e-19)
(1.2157787 0.11584818 3.3018627e-20)
(0.095459587 -0.0055226107 -4.200907e-20)
(0.27172408 -0.0092694803 -1.8805469e-19)
(0.438156 0.0044434718 1.1145673e-19)
(0.59229933 0.027561528 1.2086081e-19)
(0.7316855 0.054798042 7.3584588e-20)
(0.8543631 0.083102392 1.1768581e-20)
(0.95905603 0.11005922 -1.409412e-19)
(1.0453258 0.13383263 0)
(1.1136128 0.15326094 -9.6600588e-20)
(1.1651459 0.16779888 -2.1275295e-20)
(1.201761 0.17740811 7.349168e-20)
(1.2256737 0.1824343 1.4210838e-20)
(1.2392452 0.1834774 -5.9295035e-20)
(1.2447769 0.18126807 -6.2368259e-20)
(1.2443562 0.17656363 3.2234399e-20)
(1.2397624 0.17007174 5.8477763e-20)
(1.2324296 0.16240508 -7.1012942e-20)
(1.2234571 0.15406558 -1.342725e-19)
(1.2136519 0.14541465 -2.4398655e-21)
(1.2035424 0.13656909 3.2948045e-20)
(0.10953621 0.0014286767 -7.3539506e-21)
(0.30582675 0.010557775 1.0435165e-19)
(0.48525248 0.03564638 7.0898698e-22)
(0.64647004 0.068083101 -1.159457e-19)
(0.78790389 0.10227039 5.9373984e-20)
(0.90843207 0.13503654 5.8311198e-20)
(1.007714 0.16405406 7.4632564e-21)
(1.0863235 0.1877646 -1.3136863e-19)
(1.1457071 0.20541967 -3.3397534e-21)
(1.1880076 0.21695498 6.7049817e-20)
(1.2158094 0.22281419 7.776885e-21)
(1.231865 0.22377145 -2.631284e-20)
(1.2388506 0.22076606 -9.6970022e-20)
(1.2391817 0.21476447 -7.2039167e-21)
(1.2349008 0.20666028 5.4227427e-20)
(1.2276363 0.19721482 4.5603575e-20)
(1.218616 0.18703358 2.3220499e-20)
(1.2087206 0.17656836 -6.79617e-20)
(1.198558 0.16612573 1.2325004e-20)
(1.1885049 0.15586811 9.8489015e-20)
(-0.0015999429 0.0015979301 1.633248e-21)
(-0.0047968409 0.0031562088 1.5903319e-22)
(-0.010763355 0.0036651097 1.0150847e-20)
(-0.016460538 0.0035134034 1.0791645e-20)
(-0.021238771 0.0029137759 -1.0572979e-20)
(-0.024693589 0.0020172985 1.067451e-20)
(-0.026536295 0.00093261735 -2.1386937e-20)
(-0.026624868 -0.00026579423 -1.8180811e-20)
(-0.024917062 -0.0015273626 2.8578173e-20)
(-0.021424657 -0.0028176958 -2.3256097e-20)
(-0.01619094 -0.0041137203 -2.4581898e-22)
(-0.009278008 -0.0054003301 8.3380086e-21)
(-0.00075767103 -0.0066679114 -1.0570858e-21)
(0.0092947326 -0.0079104864 4.5932491e-20)
(0.020803935 -0.0091241495 -5.166336e-24)
(0.033694961 -0.010305422 -7.8206764e-20)
(0.047889837 -0.011450335 1.5077827e-20)
(0.063315794 -0.012556995 4.2676641e-20)
(0.079938349 -0.013624008 -7.6948752e-20)
(0.097660647 -0.014593571 -4.7549197e-20)
(-0.001949411 0.0046096172 -8.4254109e-21)
(-0.0052316484 0.0090517501 -7.0518137e-22)
(-0.010590482 0.010454069 -1.3081337e-20)
(-0.015249559 0.0099384897 2.1313785e-20)
(-0.018698369 0.0081211921 2.3781413e-20)
(-0.020600859 0.0054435376 2.7280347e-21)
(-0.020717181 0.0022230311 -7.1886995e-20)
(-0.018940497 -0.0013226298 -4.7890769e-21)
(-0.015251924 -0.005045407 4.9642191e-20)
(-0.0096789616 -0.008844492 -1.1760862e-20)
(-0.0022759827 -0.012652133 -4.8566793e-20)
(0.0068867065 -0.016423828 1.0383579e-20)
(0.017730733 -0.020131089 4.4100173e-20)
(0.030175043 -0.023756005 2.0382206e-20)
(0.044139439 -0.027286734 4.3628901e-20)
(0.05954375 -0.030712927 -3.69204e-20)
(0.076296787 -0.034023119 -3.8630804e-20)
(0.09430164 -0.037210678 3.9795702e-20)
(0.113591 -0.040259589 4.512605e-20)
(0.13437785 -0.042976764 2.3901229e-20)
(-0.0025510653 0.0070828276 -6.904171e-21)
(-0.0058904937 0.013742578 2.574504e-21)
(-0.0099986394 0.015696315 -2.2608506e-21)
(-0.012596303 0.014666304 -1.1276418e-20)
(-0.013433679 0.011603495 1.5259289e-20)
(-0.012307412 0.007202021 2.2758248e-20)
(-0.0090727443 0.0019626662 -1.0569693e-20)
(-0.0036914554 -0.00377063 -4.3633036e-20)
(0.0038085753 -0.0097630611 1.5231944e-20)
(0.013367126 -0.015854027 2.8760885e-20)
(0.024905571 -0.021935027 1.4163742e-20)
(0.03833448 -0.027934266 3.5347948e-20)
(0.053559106 -0.033805291 3.4287045e-21)
(0.070483059 -0.03951863 -6.2630935e-20)
(0.089011697 -0.045054521 4.6783696e-21)
(0.10905032 -0.050396333 -3.5367736e-20)
(0.13048136 -0.055528508 -4.6967641e-20)
(0.15315933 -0.060442876 8.322157e-20)
(0.17721468 -0.065083915 4.6231147e-20)
(0.20343222 -0.069050578 3.7177538e-21)
(-0.0032380478 0.0087396007 -9.8324029e-21)
(-0.0064179807 0.016600282 -3.6343217e-20)
(-0.0085887206 0.018579468 5.5202203e-21)
(-0.0081371788 0.016805371 9.5328322e-21)
(-0.0051656695 0.012459836 3.044696e-21)
(0.00034307827 0.0064322314 2.1028765e-20)
(0.0083978002 -0.00063270954 2.3803861e-20)
(0.018936446 -0.0082914022 -3.9720632e-21)
(0.031859889 -0.016239426 -2.5630007e-20)
(0.04705526 -0.024267316 -6.2052158e-20)
(0.064402262 -0.032232578 1.0808502e-21)
(0.083776246 -0.040040159 8.0047191e-20)
(0.10505045 -0.047627898 -3.2362315e-20)
(0.12809723 -0.054955673 -2.2849596e-20)
(0.15279104 -0.061996976 -2.0194373e-21)
(0.17900735 -0.068731556 5.8742941e-20)
(0.20658823 -0.075146436 -3.0971524e-20)
(0.23531632 -0.081244182 -8.9323662e-20)
(0.26539767 -0.086916344 7.2224135e-20)
(0.29836662 -0.091452043 5.4057614e-20)
(-0.0037947855 0.0094126438 1.6555392e-21)
(-0.0063440959 0.017229592 -1.9955524e-20)
(-0.0058147112 0.01857848 -7.6938327e-20)
(-0.0013526887 0.015771649 -1.8834659e-20)
(0.0065329716 0.010100423 -8.9476663e-22)
(0.017634529 0.0025795625 1.5558583e-20)
(0.031791379 -0.0060509757 -1.2869086e-20)
(0.048812775 -0.015281912 -2.0644691e-20)
(0.068503599 -0.02476198 4.5326037e-20)
(0.09067581 -0.034248073 8.9572995e-21)
(0.11514667 -0.043573629 -5.3238386e-20)
(0.14173538 -0.052626438 1.9526661e-20)
(0.17026198 -0.061332483 0)
(0.20054632 -0.069644247 2.1837749e-20)
(0.23240979 -0.077531557 -1.7151974e-20)
(0.26567595 -0.084974719 -2.6383498e-20)
(0.30013017 -0.091971924 4.0022245e-21)
(0.33546455 -0.098557586 -6.15244e-21)
(0.37190234 -0.10458576 6.6002494e-20)
(0.4117882 -0.10893735 -2.4788175e-20)
(-0.0039866504 0.0090555141 -1.0149762e-20)
(-0.0051356724 0.015498192 4.5244793e-20)
(-0.0010271047 0.015503434 -2.4266603e-20)
(0.0084116161 0.011352195 -5.3088042e-20)
(0.022246126 0.0043230573 -4.6454306e-20)
(0.040020043 -0.0045178921 -3.0029e-20)
(0.061379134 -0.01438942 -2.87968e-21)
(0.085979929 -0.024755337 1.1507697e-20)
(0.11350859 -0.035244211 3.7422712e-20)
(0.14367825 -0.045597606 1.3954589e-20)
(0.17621811 -0.05563809 -1.2725074e-20)
(0.21086618 -0.065246038 -1.4518051e-21)
(0.24736383 -0.074342932 -6.9294001e-20)
(0.28545197 -0.082879645 -2.2422427e-20)
(0.32487175 -0.090827756 3.6630831e-20)
(0.36536754 -0.098174123 -3.8681583e-20)
(0.4066482 -0.10493679 -1.5201841e-20)
(0.44830429 -0.11120543 4.4816109e-20)
(0.49051162 -0.11684176 7.4599605e-20)
(0.53637285 -0.12026784 6.0721215e-21)
(-0.0035844173 0.0077294126 2.2025834e-20)
(-0.0022445259 0.011523622 1.9467581e-20)
(0.0064798846 0.0095009129 8.5083764e-20)
(0.021910771 0.0037244469 4.4081225e-20)
(0.042698607 -0.0046509732 3.6802277e-22)
(0.068128456 -0.01457995 -7.6364471e-20)
(0.09763709 -0.025294104 -4.4430841e-20)
(0.13071047 -0.036269863 1.9453377e-20)
(0.16689087 -0.047145651 2.6427206e-20)
(0.2057662 -0.057670151 -2.2291654e-20)
(0.24695069 -0.067672251 -8.079748e-20)
(0.29007189 -0.077038939 5.3926777e-20)
(0.33476218 -0.08569912 3.335819e-20)
(0.38065324 -0.093612753 -4.7974818e-20)
(0.42737614 -0.10076341 2.1217364e-20)
(0.47456787 -0.10715462 4.0177703e-20)
(0.52184123 -0.11283439 1.4524277e-20)
(0.56868453 -0.11796959 -2.3195828e-20)
(0.61517984 -0.12249765 -1.744094e-20)
(0.66504641 -0.12441512 2.1709298e-20)
(-0.0023790108 0.0055759573 1.6663468e-20)
(0.002855928 0.0056276542 -4.3044132e-20)
(0.01742206 0.0010125408 7.0986829e-21)
(0.039951861 -0.0065735046 5.8608542e-20)
(0.068708811 -0.01619402 8.5242099e-20)
(0.10272038 -0.026888849 3.5202112e-20)
(0.14120352 -0.037953711 -9.9536629e-21)
(0.18345315 -0.048919073 -2.1461638e-20)
(0.22884489 -0.059464468 -1.1475066e-20)
(0.27681296 -0.06937139 6.0710562e-20)
(0.3268244 -0.078496848 -9.766705e-21)
(0.37836248 -0.086753574 -3.0516397e-20)
(0.43091683 -0.094095531 -3.2849833e-20)
(0.4839783 -0.10050864 -8.2080462e-20)
(0.53704093 -0.10600497 3.8310671e-20)
(0.58961399 -0.1106209 -2.3227709e-20)
(0.64120746 -0.11444995 4.4223516e-20)
(0.6912317 -0.11776107 3.5439702e-20)
(0.7396763 -0.12065313 -1.2151766e-19)
(0.79068779 -0.12085712 3.9604826e-21)
(-0.00019048481 0.0027903206 3.0227777e-20)
(0.010636002 -0.0017121033 -4.3166812e-20)
(0.032462446 -0.0092718456 -6.7883199e-20)
(0.063301754 -0.018677831 -4.3654589e-20)
(0.10106669 -0.029289242 -3.4042311e-21)
(0.14452745 -0.04029053 2.2809286e-20)
(0.19267129 -0.051089983 -4.9610206e-21)
(0.24458451 -0.061312113 3.0402805e-20)
(0.29944914 -0.07071219 1.4772567e-20)
(0.35651379 -0.079134642 -1.9379108e-20)
(0.41506432 -0.08649178 1.66948e-20)
(0.47440666 -0.092747165 -4.1160913e-20)
(0.53385872 -0.097903035 1.6677031e-20)
(0.59274849 -0.10199209 2.8869934e-20)
(0.65041971 -0.10507215 -6.3414756e-21)
(0.706248 -0.10722511 4.0941179e-21)
(0.75964037 -0.10859647 -2.9773623e-21)
(0.80996012 -0.10954165 3.4084751e-20)
(0.8571463 -0.11030223 3.3681228e-21)
(0.90558313 -0.10872392 -1.593186e-20)
(0.0031326502 -0.00039790098 3.4974819e-20)
(0.021489239 -0.0098939458 9.0115372e-20)
(0.05214777 -0.020436665 -7.1414233e-20)
(0.092569188 -0.031401775 -1.5562134e-20)
(0.14034877 -0.04251644 3.2580188e-20)
(0.19400368 -0.053164498 3.3908216e-21)
(0.25228134 -0.062915425 -4.7655059e-20)
(0.31403858 -0.071531615 1.1486335e-20)
(0.37823584 -0.07888391 1.144112e-20)
(0.44390619 -0.084916632 -4.3573358e-20)
(0.5101279 -0.089632003 2.0987415e-21)
(0.57601262 -0.093076397 -6.3259921e-20)
(0.64070473 -0.095328504 -6.201382e-20)
(0.70338784 -0.096489865 1.1219427e-19)
(0.76329674 -0.096676661 9.4323698e-21)
(0.81973173 -0.096016383 -2.5242997e-20)
(0.87205475 -0.094677068 3.174543e-20)
(0.91963626 -0.092936394 -1.3874481e-21)
(0.96220607 -0.090856631 2.6303138e-20)
(1.0029874 -0.087245765 -3.7249246e-20)
(0.11869037 -0.014904705 9.9166872e-20)
(0.14311348 -0.015234399 2.3251842e-20)
(0.16916159 -0.015432767 -5.2001343e-20)
(0.19643107 -0.015403004 2.6541824e-20)
(0.22452948 -0.015247777 0)
(0.25330943 -0.01501194 0)
(0.28265696 -0.014701232 -3.0416501e-20)
(0.31243158 -0.014325622 -2.0452475e-20)
(0.34249668 -0.013899076 2.4730197e-20)
(0.3727316 -0.013432595 2.1940057e-20)
(0.40302534 -0.012934503 8.5887373e-22)
(0.43327232 -0.012412115 -1.0508144e-20)
(0.46337269 -0.011871956 9.999317e-21)
(0.49323246 -0.011319624 1.6774644e-20)
(0.52276295 -0.010759885 -6.3818343e-21)
(0.55188006 -0.01019684 -8.1279633e-21)
(0.58050389 -0.0096340132 -3.1782094e-21)
(0.6085585 -0.0090744263 -2.3972699e-21)
(0.63597154 -0.0085206688 2.4787358e-22)
(0.66267414 -0.0079749658 8.5541338e-22)
(0.68860068 -0.0074392372 2.1406073e-21)
(0.7136888 -0.0069151498 3.63543e-21)
(0.73787943 -0.0064041647 -6.9007443e-22)
(0.7611169 -0.0059075786 -1.5735455e-21)
(0.78334923 -0.0054265575 -1.0089577e-22)
(0.80452843 -0.0049621649 -1.8742005e-22)
(0.82461095 -0.0045153806 3.192081e-22)
(0.84355821 -0.0040871124 -2.6732262e-23)
(0.86133713 -0.0036781997 -5.318431e-22)
(0.87792078 -0.0032894105 8.6949862e-23)
(0.89328892 -0.0029214345 -4.3756374e-22)
(0.90742865 -0.0025748772 3.3568305e-23)
(0.9203349 -0.0022502592 -9.4751408e-23)
(0.9320111 -0.0019480301 1.6661514e-22)
(0.94246989 -0.0016686014 4.0174643e-23)
(0.95173416 -0.0014123971 1.0705008e-22)
(0.95983853 -0.0011799054 -1.3203524e-22)
(0.96683133 -0.00097169173 -1.7063775e-22)
(0.97277663 -0.00078832165 -6.5213431e-23)
(0.97775567 -0.00063015837 1.7154796e-23)
(0.98186631 -0.00049705629 -3.9638186e-23)
(0.98521967 -0.00038805037 4.1399648e-23)
(0.98793322 -0.00030119514 -5.0995305e-23)
(0.99012353 -0.00023365016 -6.7977123e-23)
(0.99189374 -0.0001820612 1.3343162e-23)
(0.99334147 -0.0001429495 2.332473e-23)
(0.99451434 -0.0001133958 5.326898e-24)
(0.99554067 -9.0474873e-05 2.3942631e-24)
(0.99624251 -7.4059595e-05 -2.2864618e-25)
(0.99726802 -5.4303161e-05 8.9703067e-24)
(0.15623507 -0.043770869 -2.5366169e-20)
(0.17873405 -0.044787331 -9.9051904e-20)
(0.20338258 -0.045378732 -5.0955261e-20)
(0.2292612 -0.045283734 5.8898463e-20)
(0.25581843 -0.044831366 2.1726033e-20)
(0.28300163 -0.044151491 -2.8469726e-20)
(0.31074486 -0.043253179 9.755992e-21)
(0.33891287 -0.042164002 3.2114454e-20)
(0.36737732 -0.040925221 -2.6860466e-21)
(0.39603021 -0.039568677 -1.0317623e-20)
(0.42477043 -0.038118219 -1.0995642e-20)
(0.45349957 -0.036595021 -1.1305255e-20)
(0.4821237 -0.035018099 1.7809613e-20)
(0.51055388 -0.033403794 1.4508996e-20)
(0.53870545 -0.031766068 -1.198161e-20)
(0.56649749 -0.030116975 -5.0615161e-21)
(0.59385259 -0.028466918 1.8020363e-21)
(0.62069674 -0.026824853 4.9757083e-21)
(0.64695907 -0.025198485 5.391343e-21)
(0.67257176 -0.023594459 -6.5451413e-21)
(0.69746993 -0.02201853 -4.2786087e-21)
(0.72159167 -0.020475712 2.7530727e-21)
(0.74487809 -0.018970413 2.484485e-21)
(0.76727348 -0.017506556 1.098027e-21)
(0.78872557 -0.016087674 5.2909312e-22)
(0.80918588 -0.014716997 -5.3487236e-22)
(0.8286101 -0.013397503 -5.7024194e-22)
(0.84695866 -0.012131957 1.1392439e-21)
(0.86419725 -0.010922916 6.509903e-22)
(0.88029741 -0.0097727282 -7.7141224e-22)
(0.89523712 -0.0086835056 4.1539495e-22)
(0.90900139 -0.0076571101 2.064807e-23)
(0.92158281 -0.0066951503 -2.6869048e-22)
(0.93298213 -0.0057990209 -1.1856264e-22)
(0.94320902 -0.0049700002 -1.2492077e-22)
(0.95228305 -0.004209401 -3.5813675e-22)
(0.96023516 -0.0035187273 1.869592e-22)
(0.96710958 -0.0028997187 -9.0323388e-24)
(0.97296592 -0.0023541289 1.3244573e-22)
(0.97788065 -0.0018831287 -3.2303642e-23)
(0.98194678 -0.0014863936 1.2340376e-22)
(0.98527074 -0.0011611709 2.1709751e-23)
(0.98796572 -0.00090178622 2.0086804e-23)
(0.99014476 -0.00069988177 1.938663e-23)
(0.99190828 -0.00054554187 3.0994409e-23)
(0.99335198 -0.00042844498 2.5907088e-23)
(0.99452235 -0.00033991974 -6.280976e-24)
(0.99554694 -0.00027122725 -1.2742822e-23)
(0.9962477 -0.00022205341 9.678653e-24)
(0.99727195 -0.0001628064 3.2715457e-23)
(0.22665098 -0.069978408 1.8011702e-20)
(0.2455715 -0.071720563 9.1832227e-21)
(0.267501 -0.072700985 -2.8990114e-20)
(0.29073684 -0.072545998 -5.5794242e-21)
(0.31438001 -0.0718496 2.5947165e-20)
(0.33854705 -0.070812262 -2.1577365e-20)
(0.36327076 -0.069428228 -4.4972053e-20)
(0.38842385 -0.06773671 2.2667505e-20)
(0.41389032 -0.065804048 2.6452633e-20)
(0.43958478 -0.063680033 -1.6063534e-20)
(0.46542385 -0.061401337 1.2107397e-21)
(0.49132146 -0.059001033 5.3788956e-21)
(0.51719386 -0.056509206 -1.9039796e-20)
(0.54296068 -0.053951861 1.1190916e-20)
(0.56854414 -0.051351358 9.5040772e-21)
(0.59386867 -0.048727133 -5.2378468e-21)
(0.61886106 -0.046096091 -2.9638528e-21)
(0.64345056 -0.043472891 -8.4385445e-21)
(0.66756875 -0.040870233 8.4141255e-21)
(0.69114964 -0.038299146 8.635854e-21)
(0.7141296 -0.035769239 -3.5953392e-21)
(0.73644751 -0.033288932 -1.3552462e-21)
(0.75804483 -0.030865663 -3.0440879e-22)
(0.77886582 -0.028506072 -1.6834245e-21)
(0.79885777 -0.026216168 5.6533983e-22)
(0.81797134 -0.024001446 2.5727584e-22)
(0.83616102 -0.021866992 2.8184097e-21)
(0.85338551 -0.019817529 -2.5105319e-21)
(0.86960836 -0.017857442 2.58656e-21)
(0.88479847 -0.015990767 4.5976225e-22)
(0.89893066 -0.014221153 1.350931e-21)
(0.91198627 -0.012551839 -2.2599408e-23)
(0.92395365 -0.010985642 8.9250666e-22)
(0.93482879 -0.009525021 -1.0421824e-21)
(0.94461596 -0.0081722339 2.8884083e-22)
(0.95332871 -0.0069295848 4.2953673e-22)
(0.96099121 -0.0057996901 -1.1652339e-22)
(0.96764013 -0.004785573 -2.3626147e-22)
(0.9733268 -0.0038903262 -1.4488917e-23)
(0.9781188 -0.0031161517 6.0695667e-23)
(0.98209995 -0.0024628644 2.0543594e-23)
(0.98536778 -0.0019263317 1.9310139e-22)
(0.9880274 -0.0014976141 -6.1278744e-23)
(0.99018504 -0.0011633023 -3.1626692e-23)
(0.9919359 -0.00090733478 2.9703659e-23)
(0.99337207 -0.00071286759 2.6033683e-24)
(0.99453776 -0.00056571711 1.868079e-23)
(0.99555914 -0.00045142785 1.1835677e-23)
(0.99625789 -0.00036968678 -8.7206469e-24)
(0.99727978 -0.00027100723 -1.5375064e-23)
(0.32298498 -0.092081788 4.8430738e-21)
(0.33704483 -0.09458901 -1.3850037e-20)
(0.3550729 -0.095945847 5.9006592e-21)
(0.37460502 -0.095760533 -2.0879579e-20)
(0.39421631 -0.094921389 -3.0094504e-21)
(0.41421808 -0.093669622 1.7391679e-20)
(0.43479129 -0.091964454 -2.1364615e-20)
(0.45581985 -0.089848917 -3.1337045e-21)
(0.47719781 -0.087409322 1.7083002e-20)
(0.49886742 -0.084709151 7.5639539e-21)
(0.5207679 -0.081794483 -7.5409874e-21)
(0.54282793 -0.078707542 -6.2833459e-21)
(0.56497547 -0.075487401 -2.3905788e-21)
(0.58714013 -0.072168293 -9.2088704e-21)
(0.609252 -0.068779976 -1.5129561e-21)
(0.63124162 -0.065348584 -4.6698835e-21)
(0.65304052 -0.061897095 3.1497465e-21)
(0.67458156 -0.058445645 -2.9123152e-21)
(0.6957991 -0.055011857 -6.734585e-21)
(0.71662917 -0.051611166 3.4007779e-21)
(0.73700959 -0.048257134 5.1647352e-21)
(0.75688014 -0.044961719 -3.5920788e-21)
(0.77618273 -0.041735549 2.015184e-21)
(0.79486162 -0.038588155 -1.259328e-21)
(0.81286365 -0.035528182 -5.6802118e-21)
(0.83013858 -0.032563562 -2.1307432e-21)
(0.84663946 -0.02970164 -8.6936321e-22)
(0.86232305 -0.026949257 -5.8940087e-22)
(0.87715035 -0.024312776 -1.021e-21)
(0.89108706 -0.021798073 -1.7081648e-21)
(0.90410418 -0.019410496 5.421084e-24)
(0.91617847 -0.017154822 -1.1728396e-21)
(0.92729303 -0.015035244 -3.6226741e-22)
(0.93743778 -0.013055452 -4.7853781e-22)
(0.94661014 -0.011218831 1.1002446e-22)
(0.95481586 -0.0095288093 -6.9887466e-22)
(0.96207032 -0.0079892364 -7.487471e-22)
(0.96840023 -0.0066045547 1.4667023e-22)
(0.97384582 -0.0053793928 1.885996e-24)
(0.97846262 -0.0043172965 -1.5060759e-22)
(0.98232194 -0.0034186838 1.9777291e-22)
(0.98550895 -0.0026786557 -1.021481e-22)
(0.98811743 -0.0020857192 -2.2056258e-22)
(0.990244 -0.0016221378 7.9253233e-23)
(0.99197646 -0.0012663575 -6.7843413e-24)
(0.99340165 -0.00099551906 2.1707197e-23)
(0.99456052 -0.00079030899 1.0226626e-23)
(0.99557723 -0.00063071264 -9.3886928e-24)
(0.99627304 -0.00051671527 -6.6413072e-24)
(0.99729149 -0.00037870593 2.170744e-23)
(0.43726027 -0.10891184 -4.2650119e-20)
(0.44550333 -0.11226374 7.1932272e-20)
(0.45860539 -0.11399905 1.4214133e-20)
(0.47354971 -0.11386053 -2.5221119e-20)
(0.4882876 -0.11304106 -7.0314408e-21)
(0.50328256 -0.11177506 -1.6242532e-22)
(0.51889442 -0.1099713 -6.2435267e-21)
(0.53502706 -0.10767012 -6.4456263e-21)
(0.55157675 -0.10496887 -5.417948e-21)
(0.56851048 -0.10193898 -1.5947239e-20)
(0.58579074 -0.09863292 2.7460925e-20)
(0.60336063 -0.095099383 1.1193972e-20)
(0.62115846 -0.091384152 -1.9349313e-20)
(0.63912255 -0.087528213 5.9201517e-21)
(0.65718997 -0.083567866 3.3686305e-21)
(0.67529649 -0.079535431 4.1999085e-21)
(0.69337756 -0.075459705 3.5648687e-22)
(0.71136904 -0.071366259 -7.7712342e-21)
(0.72920749 -0.067277742 -3.1866557e-21)
(0.74683056 -0.063214199 -2.7372712e-21)
(0.76417717 -0.059193388 -5.6294972e-21)
(0.7811878 -0.055231088 0)
(0.7978047 -0.051341393 -2.3362296e-21)
(0.81397206 -0.047536994 3.3586109e-21)
(0.8296363 -0.043829426 6.1095151e-21)
(0.84474629 -0.040229288 -3.5183698e-22)
(0.85925376 -0.036746398 -4.5758856e-21)
(0.87311359 -0.033389904 4.8924236e-21)
(0.88628427 -0.030168333 -1.3669936e-21)
(0.89872837 -0.027089579 3.7918347e-21)
(0.91041297 -0.024160866 -2.8169097e-23)
(0.92131019 -0.021388688 1.030433e-21)
(0.93139761 -0.018778799 -7.9156554e-22)
(0.94065879 -0.016336287 6.8057741e-22)
(0.94908382 -0.014065823 -5.4264035e-22)
(0.95667002 -0.011972082 1.1662135e-22)
(0.96342308 -0.010060251 3.0432063e-22)
(0.96935862 -0.0083363006 2.1328008e-22)
(0.97450427 -0.0068065777 -3.6085081e-22)
(0.97890164 -0.005476295 1.9916096e-22)
(0.98260728 -0.0043469972 -4.5714828e-23)
(0.98569159 -0.0034137457 -3.2110904e-22)
(0.98823461 -0.0026633682 2.9888421e-22)
(0.99032114 -0.0020747118 3.1112317e-23)
(0.99202971 -0.001621567 -1.5518133e-23)
(0.9934406 -0.0012757176 4.5198395e-24)
(0.99459055 -0.0010132246 -2.1350503e-23)
(0.99560113 -0.00080872193 -3.0262582e-23)
(0.99629312 -0.00066289795 -2.0078612e-24)
(0.99730702 -0.00048570345 -6.4644169e-24)
(0.56161533 -0.11943585 -3.6146684e-20)
(0.56337513 -0.1238192 1.6987936e-20)
(0.57071199 -0.12602158 1.218582e-20)
(0.58035233 -0.12610978 -1.2606011e-20)
(0.58964976 -0.12555914 1.8829777e-20)
(0.59911348 -0.12454391 1.1918687e-20)
(0.60927384 -0.12292118 -1.4756e-20)
(0.6200726 -0.12072789 -8.6434432e-21)
(0.6314003 -0.11806102 1.7453675e-20)
(0.64323594 -0.11499232 -2.7272675e-20)
(0.65556057 -0.11157815 -1.7807919e-20)
(0.66832942 -0.10787203 2.4926974e-20)
(0.68148791 -0.10392475 8.3438688e-21)
(0.69497983 -0.099782991 -1.3737492e-20)
(0.70874671 -0.095489182 3.2484311e-21)
(0.72272764 -0.0910818 7.1835871e-22)
(0.73686034 -0.086595638 1.7092497e-22)
(0.75108225 -0.082062035 3.4229773e-21)
(0.76533103 -0.0775091 -1.7661983e-21)
(0.77954501 -0.072961972 2.5342607e-21)
(0.79366354 -0.068443107 3.9983277e-21)
(0.80762727 -0.063972583 -4.0428907e-21)
(0.82137836 -0.059568417 2.5784043e-22)
(0.83486077 -0.055246868 -1.8502369e-21)
(0.84802037 -0.051022731 1.2469466e-20)
(0.86080523 -0.046909583 7.337857e-21)
(0.87316589 -0.042919994 2.2736644e-21)
(0.88505559 -0.039065659 -1.5278731e-21)
(0.89643068 -0.035357477 5.8893865e-21)
(0.90725094 -0.031805554 9.1289584e-21)
(0.91747999 -0.028419171 1.5137759e-21)
(0.92708571 -0.025206719 3.4391593e-21)
(0.93604066 -0.022175681 1.3474554e-21)
(0.94432245 -0.019332705 7.1180347e-22)
(0.95191425 -0.016683878 5.0263427e-23)
(0.95880529 -0.014235216 1.7998732e-21)
(0.9649918 -0.011993292 3.0435557e-22)
(0.97047836 -0.0099656567 7.0518021e-23)
(0.97527975 -0.0081604787 -3.6983092e-24)
(0.97942307 -0.0065848992 4.8988483e-22)
(0.98294915 -0.0052420793 -2.1059025e-23)
(0.98591234 -0.0041277824 2.1004942e-22)
(0.98837739 -0.0032280939 3.0545646e-23)
(0.99041576 -0.0025194564 -1.512469e-22)
(0.99209534 -0.0019719592 -3.3770264e-23)
(0.99348873 -0.0015527939 -5.7714658e-23)
(0.99462775 -0.0012339982 1.9325272e-23)
(0.99563075 -0.000985098 -1.3131129e-23)
(0.99631806 -0.00080799735 -6.6582768e-25)
(0.99732631 -0.00059180064 3.9580471e-23)
(0.68862201 -0.12293498 1.4946789e-21)
(0.6836311 -0.12859045 -2.2592611e-20)
(0.6846335 -0.13144951 -5.1904981e-21)
(0.68847228 -0.13209398 7.6231567e-21)
(0.69207268 -0.13217415 8.6295867e-21)
(0.69582872 -0.1317483 6.7612724e-21)
(0.70037732 -0.13063947 1.6354897e-20)
(0.7057259 -0.12888984 1.2847458e-20)
(0.71176249 -0.12658814 1.2054885e-20)
(0.71845958 -0.12379936 -1.7021632e-20)
(0.72580556 -0.12058134 -3.431669e-20)
(0.73376419 -0.11699186 -9.5254706e-21)
(0.74228493 -0.11308643 2.3723524e-20)
(0.75131349 -0.10891731 1.7862799e-20)
(0.76079305 -0.10453336 -3.8927154e-21)
(0.77066391 -0.099979771 -3.3657013e-21)
(0.78086449 -0.095298053 -8.3764422e-21)
(0.79133243 -0.090526059 1.0026299e-20)
(0.80200535 -0.085698126 -2.7528325e-22)
(0.81282135 -0.080845238 -2.547073e-21)
(0.82371941 -0.075995262 1.2599782e-20)
(0.83463973 -0.07117324 -1.9723813e-21)
(0.84552399 -0.066401705 1.9030642e-21)
(0.85631553 -0.061701014 1.1315349e-21)
(0.86695955 -0.057089671 -4.8098039e-21)
(0.87740329 -0.052584626 4.4165224e-21)
(0.88759621 -0.04820152 7.6969333e-22)
(0.89749021 -0.043954872 -2.9553847e-21)
(0.90703987 -0.03985818 -2.0011792e-21)
(0.91620272 -0.035923963 -6.5405291e-21)