/*--------------------------------*- C++ -*----------------------------------*\
  =========                 |
  \\      /  F ield         | OpenFOAM: The Open Source CFD Toolbox
   \\    /   O peration     | Website:  https://openfoam.org
    \\  /    A nd           | Version:  6
     \\/     M anipulation  |
\*---------------------------------------------------------------------------*/
FoamFile
{
    version     2.0;
    format      ascii;
    class       volScalarField;
    location    "62";
    object      p;
}
// * * * * * * * * * * * * * * * * * * * * * * * * * * * * * * * * * * * * * //

dimensions      [0 2 -2 0 0 0 0];

internalField   nonuniform List<scalar> 
9200
(
-0.38127254
-0.36990961
-0.35980188
-0.35084068
-0.34208966
-0.33356255
-0.3253376
-0.317382
-0.30962811
-0.30200365
-0.29443531
-0.28685372
-0.27920045
-0.27143528
-0.26354682
-0.25557031
-0.24758219
-0.2396705
-0.23285897
-0.23142699
-0.39915464
-0.38533856
-0.37328574
-0.36280366
-0.35267956
-0.34289467
-0.3335176
-0.32448472
-0.31569608
-0.30705293
-0.29846172
-0.28983992
-0.28112363
-0.27227357
-0.26328065
-0.25416996
-0.24497164
-0.23568579
-0.22699449
-0.22106168
-0.41745326
-0.40116151
-0.38720985
-0.37527756
-0.36383581
-0.35281505
-0.34226251
-0.33207599
-0.32212134
-0.31227725
-0.30243912
-0.29252466
-0.28248076
-0.27228655
-0.26195328
-0.25151992
-0.24102567
-0.23047993
-0.22028157
-0.21154465
-0.43573354
-0.41698558
-0.40120074
-0.38787997
-0.37514071
-0.3628463
-0.35101473
-0.33950477
-0.32815603
-0.31684015
-0.30546232
-0.29396434
-0.2823277
-0.27057137
-0.25874506
-0.24691905
-0.23516035
-0.22350829
-0.21223021
-0.20206688
-0.45336445
-0.43226376
-0.41476275
-0.40013062
-0.38610334
-0.37246634
-0.35920828
-0.34615968
-0.33315453
-0.32008463
-0.30689481
-0.2935792
-0.28017701
-0.26676261
-0.25343204
-0.24028872
-0.22742315
-0.21489416
-0.20288998
-0.19191807
-0.46952026
-0.44627587
-0.42723459
-0.41138047
-0.39605828
-0.38097567
-0.3661045
-0.35127277
-0.33634316
-0.32126411
-0.30605298
-0.29078096
-0.27555861
-0.26051774
-0.24579305
-0.23150701
-0.21775456
-0.20459174
-0.19214458
-0.18075001
-0.48319445
-0.4581343
-0.43779032
-0.42081417
-0.40417639
-0.38752279
-0.37083638
-0.35398352
-0.33690017
-0.31963087
-0.30229376
-0.2850508
-0.26808295
-0.25156651
-0.23565438
-0.22046474
-0.20607342
-0.1925115
-0.17984584
-0.16827777
-0.49322189
-0.46680758
-0.44547181
-0.42749705
-0.40952949
-0.39118716
-0.37250706
-0.35344624
-0.3340625
-0.31453141
-0.29508913
-0.27598795
-0.25746445
-0.239716
-0.22288769
-0.20706943
-0.19229836
-0.17856622
-0.1658818
-0.15433242
-0.49825903
-0.47101907
-0.44899156
-0.43009172
-0.41074007
-0.39058912
-0.36978998
-0.34844776
-0.32678165
-0.30511373
-0.28379148
-0.26313474
-0.24340482
-0.22478882
-0.20739764
-0.19127436
-0.17640668
-0.16274276
-0.15023735
-0.1388801
-0.4969544
-0.46935061
-0.4468005
-0.42693134
-0.40608498
-0.38403221
-0.36110378
-0.33759869
-0.31391115
-0.29049276
-0.26776489
-0.24606933
-0.22564929
-0.20664858
-0.18912356
-0.17306187
-0.15840227
-0.14505504
-0.13292813
-0.12192615
-0.26822652
-0.27290677
-0.27541768
-0.27616858
-0.2759526
-0.27495687
-0.27326292
-0.27095835
-0.26811541
-0.26478884
-0.2610227
-0.25685447
-0.25231727
-0.24744117
-0.24225443
-0.23678595
-0.23106663
-0.22511702
-0.2189361
-0.21260959
-0.27096421
-0.27522831
-0.2774319
-0.27796377
-0.27756447
-0.27641235
-0.27458703
-0.2721724
-0.26923713
-0.26583313
-0.26200202
-0.2577792
-0.25319587
-0.2482801
-0.24305755
-0.2375561
-0.23181412
-0.22585053
-0.21955772
-0.21290954
-0.27630328
-0.27975365
-0.28135815
-0.28146161
-0.2807029
-0.27924489
-0.27716367
-0.27453585
-0.27142314
-0.26787181
-0.26391866
-0.25959485
-0.25492781
-0.24994176
-0.24465749
-0.23910002
-0.23331916
-0.22733271
-0.2208408
-0.21358476
-0.28400304
-0.28628863
-0.28702605
-0.28649982
-0.28520748
-0.28329228
-0.28082632
-0.27787633
-0.27449435
-0.27071878
-0.26657953
-0.26210168
-0.25730711
-0.25221431
-0.24683728
-0.24119583
-0.23535173
-0.22932742
-0.22257635
-0.214469
-0.29376026
-0.29458949
-0.2942235
-0.29287878
-0.29088362
-0.28836045
-0.28537815
-0.28199216
-0.27824307
-0.27416002
-0.26976466
-0.26507377
-0.26010168
-0.25485998
-0.2493545
-0.2435967
-0.23765626
-0.23156887
-0.22452877
-0.21539059
-0.30526023
-0.30440335
-0.30273251
-0.30039706
-0.29753925
-0.29426201
-0.2906333
-0.28669749
-0.28248316
-0.27800776
-0.27328213
-0.26831376
-0.26310815
-0.25766844
-0.25199131
-0.24607688
-0.23999478
-0.23380014
-0.22645636
-0.21618117
-0.31822331
-0.31550464
-0.31236197
-0.30888467
-0.30502026
-0.30085545
-0.29646108
-0.2918701
-0.28709636
-0.28214481
-0.27701475
-0.27170237
-0.26620255
-0.26050884
-0.25460881
-0.24849075
-0.24221704
-0.23586542
-0.22823192
-0.21682903
-0.33243306
-0.32771801
-0.32296979
-0.31822758
-0.31324001
-0.30808046
-0.30282303
-0.29748842
-0.29207569
-0.28657534
-0.28097226
-0.27524834
-0.26938476
-0.26336296
-0.25716081
-0.25075764
-0.24421302
-0.23765063
-0.2298186
-0.21752006
-0.34773621
-0.3409109
-0.33444547
-0.3283391
-0.32213415
-0.31588938
-0.30968402
-0.30352601
-0.29739676
-0.29126907
-0.28510988
-0.27888252
-0.27254907
-0.26607057
-0.25940241
-0.25249656
-0.24537711
-0.2381503
-0.22956011
-0.21610334
-0.36403382
-0.35497547
-0.34667672
-0.33910165
-0.33157294
-0.32413451
-0.31687063
-0.30977415
-0.30280632
-0.29592058
-0.28906555
-0.28218778
-0.2752347
-0.26815466
-0.26089167
-0.2533812
-0.24556607
-0.2372398
-0.22675284
-0.21106416
-0.20543585
-0.19645791
-0.18747367
-0.17854751
-0.16962557
-0.16074963
-0.15197342
-0.14333218
-0.13485536
-0.1265717
-0.11850717
-0.11068412
-0.1031218
-0.095836705
-0.088842527
-0.082150237
-0.075768199
-0.069702263
-0.063955866
-0.058530138
-0.053424029
-0.048634441
-0.044156385
-0.039983138
-0.036106426
-0.03251661
-0.029202873
-0.026153419
-0.023355666
-0.020796436
-0.018462139
-0.016338945
-0.014412949
-0.01267032
-0.011097439
-0.0096810289
-0.0084082753
-0.0072669138
-0.0062454453
-0.0053329186
-0.0045201974
-0.0037965984
-0.0031613639
-0.0025898315
-0.002137945
-0.001635828
-0.0015929691
-0.00059762315
-0.002779227
0.0033478885
-0.20645193
-0.19707572
-0.18798229
-0.17907071
-0.17013083
-0.16122471
-0.15242409
-0.1437606
-0.13526121
-0.12695521
-0.11886887
-0.1110244
-0.10344106
-0.096135403
-0.089121193
-0.082409466
-0.076008648
-0.06992465
-0.064160963
-0.05871876
-0.053597022
-0.048792676
-0.044300741
-0.040114499
-0.036225672
-0.032624604
-0.029300459
-0.026241415
-0.023434859
-0.020867577
-0.018525942
-0.016396084
-0.014464056
-0.012715983
-0.011138206
-0.0097174017
-0.0084407152
-0.0072958399
-0.0062712356
-0.0053559108
-0.0045406877
-0.0038148449
-0.0031775616
-0.0026041877
-0.0021503362
-0.0016468998
-0.0016001157
-0.00060760958
-0.0027660405
0.0033135985
-0.20858234
-0.19835345
-0.18904228
-0.18020005
-0.17123684
-0.16227007
-0.1534219
-0.14471446
-0.13616805
-0.12781414
-0.11968022
-0.1117884
-0.10415804
-0.096806039
-0.089746446
-0.082990518
-0.076546893
-0.070421669
-0.064618494
-0.059138663
-0.05398125
-0.049143244
-0.044619702
-0.040403916
-0.036487594
-0.032861049
-0.029513395
-0.026432747
-0.023606416
-0.021021104
-0.018663091
-0.016518408
-0.014573009
-0.012812916
-0.011224366
-0.0097939355
-0.0085086677
-0.0073561579
-0.0063247705
-0.0054034196
-0.0045828347
-0.0038522041
-0.0032105792
-0.0026333057
-0.0021753791
-0.0016690996
-0.0016144876
-0.00062730087
-0.0027400003
0.0032456383
-0.21166655
-0.20005789
-0.19042537
-0.1817834
-0.17283138
-0.16378805
-0.15488594
-0.14612976
-0.13752442
-0.12910654
-0.12090732
-0.11294891
-0.10525098
-0.097831285
-0.090704574
-0.083882634
-0.077374566
-0.071186881
-0.065323563
-0.059786178
-0.054574009
-0.049684195
-0.045111891
-0.04085044
-0.03689156
-0.033225537
-0.029841428
-0.026727262
-0.023870243
-0.021256949
-0.018873522
-0.016705847
-0.01473972
-0.012961006
-0.011355783
-0.009910466
-0.0086119428
-0.0074476544
-0.0064058152
-0.0054751919
-0.004646369
-0.0039083931
-0.0032601217
-0.0026768823
-0.0022127607
-0.0017021106
-0.0016357912
-0.00065631359
-0.002701411
0.0031453381
-0.21547551
-0.20191657
-0.19186039
-0.18362114
-0.1747662
-0.16564918
-0.15670437
-0.14791598
-0.13925735
-0.13077228
-0.12250055
-0.11446544
-0.10668706
-0.099184595
-0.09197422
-0.085068749
-0.078478135
-0.072209634
-0.066267858
-0.060654877
-0.055370372
-0.050411785
-0.045774488
-0.041451964
-0.037436003
-0.033716903
-0.030283683
-0.02712429
-0.024225811
-0.021574675
-0.019156854
-0.016958045
-0.014963843
-0.013159906
-0.011532099
-0.010066624
-0.0087501563
-0.0075699301
-0.0065139565
-0.005570802
-0.004730854
-0.0039829662
-0.0033257352
-0.0027344581
-0.0022620181
-0.0017454603
-0.0016636229
-0.00069404606
-0.0026508503
0.0030147841
-0.21965893
-0.20364714
-0.19307644
-0.18547796
-0.17686689
-0.16770819
-0.15874328
-0.14995735
-0.1412724
-0.13273375
-0.12439503
-0.11628406
-0.10842191
-0.10082967
-0.093525753
-0.086524771
-0.079838101
-0.073474213
-0.067438751
-0.061734642
-0.056362249
-0.051319551
-0.046602325
-0.042204344
-0.038117582
-0.034332433
-0.030837932
-0.027621976
-0.024671548
-0.021972926
-0.019511895
-0.017273934
-0.015244406
-0.013408716
-0.011752469
-0.010261606
-0.0089225412
-0.0077222466
-0.0066484797
-0.005689555
-0.0048356119
-0.0040752608
-0.0034067699
-0.0028053962
-0.0023225285
-0.0017985297
-0.0016974677
-0.00073974331
-0.0025890765
0.002856677
-0.22381617
-0.20506675
-0.19386075
-0.18707431
-0.17893087
-0.1698363
-0.16088591
-0.15214
-0.14347207
-0.13491152
-0.12652441
-0.11834843
-0.11040804
-0.10272667
-0.095325678
-0.088222464
-0.081430621
-0.074960447
-0.068819142
-0.063010933
-0.05753724
-0.052396887
-0.047586301
-0.043099743
-0.038929525
-0.035066253
-0.031499061
-0.028215854
-0.02520354
-0.022448261
-0.019935607
-0.017650829
-0.015579022
-0.013705309
-0.012014994
-0.010493711
-0.0091275634
-0.0079032169
-0.006808125
-0.005830301
-0.0049595873
-0.0041843029
-0.0035023204
-0.0028888537
-0.0023935024
-0.0018605748
-0.0017367218
-0.00079258991
-0.0025169505
0.0026741593
-0.22768307
-0.20657024
-0.19443792
-0.18822229
-0.18074278
-0.17194494
-0.1630876
-0.15440665
-0.14579329
-0.13724885
-0.12883837
-0.12061224
-0.11260266
-0.10483663
-0.097338854
-0.090130256
-0.083227453
-0.076643197
-0.070386748
-0.064464071
-0.058878021
-0.053628575
-0.048713077
-0.044126485
-0.039861623
-0.03590944
-0.032259275
-0.02889911
-0.02581583
-0.022995465
-0.020423426
-0.018084725
-0.015964179
-0.014046598
-0.012316956
-0.010760543
-0.0093631104
-0.008110973
-0.0069912368
-0.0059915686
-0.0051014671
-0.0043089166
-0.003611327
-0.0029838746
-0.0024740707
-0.0019308055
-0.0017807613
-0.00085178903
-0.0024353964
0.002470786
-0.2289127
-0.20839799
-0.1955011
-0.1888569
-0.18186594
-0.17365185
-0.16507289
-0.15652258
-0.1480176
-0.13955149
-0.13117205
-0.12293737
-0.11489081
-0.1070652
-0.099489214
-0.092187896
-0.08518174
-0.078486786
-0.072115089
-0.066075014
-0.060371457
-0.055006088
-0.049977635
-0.045282155
-0.040913324
-0.036862718
-0.033120105
-0.029673731
-0.026510592
-0.02361671
-0.020977385
-0.018577434
-0.016401417
-0.014433834
-0.012659315
-0.011062782
-0.0096296038
-0.0083457056
-0.0071978036
-0.0061731723
-0.005260919
-0.0044486455
-0.0037332318
-0.0030898117
-0.0025635384
-0.0020084188
-0.0018290012
-0.00091610002
-0.0023457974
0.0022513207
-0.21903558
-0.20763168
-0.19661073
-0.18850236
-0.18142408
-0.17398679
-0.16601664
-0.15783453
-0.14961953
-0.14139779
-0.13319718
-0.12507538
-0.1170881
-0.10927848
-0.10168249
-0.094331885
-0.087253459
-0.080468807
-0.073994726
-0.067843641
-0.062023895
-0.056540044
-0.051393192
-0.046581319
-0.042099624
-0.037940853
-0.034095638
-0.030552821
-0.027299771
-0.024322691
-0.021606905
-0.019137125
-0.016897703
-0.014872855
-0.013046866
-0.01140427
-0.0099300253
-0.0086096256
-0.0074293514
-0.0063760332
-0.0054383355
-0.0046034193
-0.0038675767
-0.0032058502
-0.0026608857
-0.0020919828
-0.0018805134
-0.0009826599
-0.0022507537
0.0020221225
-0.19689872
-0.20156732
-0.19627015
-0.1873482
-0.17982533
-0.17279454
-0.16526958
-0.15738624
-0.14941042
-0.14140541
-0.13339093
-0.12542007
-0.11755231
-0.10983517
-0.10230785
-0.095004987
-0.087956384
-0.081186429
-0.074714445
-0.068555128
-0.062718856
-0.057211986
-0.052037193
-0.047193822
-0.04267824
-0.038484182
-0.034603105
-0.031024525
-0.027736358
-0.024725232
-0.021976792
-0.019475983
-0.01720731
-0.015155078
-0.013303604
-0.011637408
-0.010141396
-0.008800975
-0.007602312
-0.0065321075
-0.0055788286
-0.0047295374
-0.0039799323
-0.0033057464
-0.0027458811
-0.0021682709
-0.0019243733
-0.0010486024
-0.0021493669
0.0017924601
-0.18631357
-0.19209206
-0.18859735
-0.17984628
-0.17262613
-0.16634932
-0.15962745
-0.15246072
-0.1451449
-0.1377551
-0.13030125
-0.12283209
-0.11540954
-0.1080848
-0.10090061
-0.093895443
-0.087103129
-0.080552065
-0.074265415
-0.068261516
-0.06255417
-0.057152915
-0.052063362
-0.047287548
-0.042824286
-0.038669529
-0.034816726
-0.031257174
-0.027980367
-0.024974326
-0.02222591
-0.019721121
-0.017445367
-0.015383721
-0.013521147
-0.011842699
-0.010333718
-0.0089799598
-0.0077678468
-0.0066842927
-0.0057178057
-0.004855701
-0.0040929852
-0.0034069934
-0.0028311204
-0.0022466244
-0.0019639913
-0.0011222755
-0.0020241657
0.0015421471
-0.17753461
-0.180714
-0.17841595
-0.17138712
-0.16502102
-0.15944038
-0.15348754
-0.14705335
-0.14040405
-0.13363478
-0.12675762
-0.11981511
-0.1128679
-0.10596905
-0.099163377
-0.092491724
-0.085990825
-0.079692288
-0.073622569
-0.067803293
-0.062251482
-0.056979784
-0.051996763
-0.047307231
-0.042912584
-0.038811156
-0.034998571
-0.031468103
-0.028211019
-0.025216921
-0.022474071
-0.019969692
-0.017690259
-0.015621758
-0.013749927
-0.012060472
-0.010539267
-0.0091725044
-0.0079469328
-0.0068497422
-0.005869517
-0.0049938869
-0.0042170987
-0.0035183201
-0.0029247608
-0.0023327087
-0.0020067026
-0.0012032993
-0.0018827541
0.0012645444
-0.16781156
-0.16838658
-0.1665348
-0.16158378
-0.15645039
-0.1516147
-0.14645519
-0.14083505
-0.13493113
-0.1288443
-0.12260241
-0.11624606
-0.10983247
-0.10341528
-0.097041174
-0.090752966
-0.084589876
-0.078586469
-0.072772388
-0.067172538
-0.061807246
-0.056692418
-0.051839774
-0.047257135
-0.042948738
-0.038915564
-0.035155686
-0.031664614
-0.028435646
-0.025460205
-0.022728177
-0.020228218
-0.017948051
-0.015874745
-0.013994962
-0.012295188
-0.010761945
-0.0093819532
-0.0081423704
-0.0070307261
-0.0060357296
-0.0051453604
-0.0043531141
-0.0036400174
-0.0030269658
-0.002425541
-0.0020531957
-0.0012870043
-0.001734309
0.00097211898
-0.15719306
-0.15589574
-0.15406815
-0.15083235
-0.14699399
-0.14296529
-0.13860475
-0.13383072
-0.12872599
-0.12337338
-0.11781643
-0.11209842
-0.10627233
-0.10039058
-0.094500726
-0.08864687
-0.082869966
-0.077206963
-0.071690325
-0.066348023
-0.061203595
-0.056276222
-0.051580882
-0.047128576
-0.042926596
-0.03897882
-0.03528603
-0.031846246
-0.028655064
-0.025705996
-0.022990799
-0.020499794
-0.018222171
-0.016146275
-0.014259869
-0.012550373
-0.011005091
-0.0096113899
-0.0083569307
-0.007229661
-0.0062184812
-0.005311753
-0.0045022778
-0.003772869
-0.0031382809
-0.0025249034
-0.0021040644
-0.0013711984
-0.0015853127
0.00067480068
-0.14535692
-0.1432756
-0.14156548
-0.13960378
-0.13693725
-0.13374638
-0.13017467
-0.12622693
-0.12192487
-0.11732411
-0.11247556
-0.10742415
-0.10221863
-0.096908974
-0.091542477
-0.086163429
-0.08081342
-0.075530793
-0.070350071
-0.065301715
-0.060412052
-0.055703254
-0.051193402
-0.046896627
-0.042823309
-0.038980322
-0.035371307
-0.031996978
-0.028855436
-0.025942496
-0.023252008
-0.020776177
-0.018505867
-0.016430897
-0.01454031
-0.012822628
-0.011266084
-0.0098588197
-0.0085891148
-0.0074454248
-0.0064169256
-0.0054923967
-0.0046640444
-0.0039163335
-0.0032582886
-0.0026300611
-0.0021595412
-0.0014541161
-0.0014423673
0.00038304822
-0.13261632
-0.13067009
-0.12931072
-0.12826092
-0.12655851
-0.12417871
-0.12136875
-0.11820103
-0.11467221
-0.11081163
-0.1066693
-0.10229153
-0.097721482
-0.093004359
-0.088186039
-0.083310223
-0.078418086
-0.073548221
-0.068736206
-0.064014185
-0.059410611
-0.054950132
-0.050653547
-0.046537857
-0.042616377
-0.038898914
-0.035391979
-0.032099051
-0.029020847
-0.026155632
-0.023499513
-0.021046756
-0.018790083
-0.016720964
-0.0148299
-0.013106674
-0.011540601
-0.010120734
-0.0088360908
-0.0076757374
-0.0066292226
-0.0056857854
-0.0048371709
-0.0040693151
-0.0033861326
-0.0027400152
-0.0022196973
-0.0015341301
-0.0013123777
0.00010814629
-0.11968764
-0.11832524
-0.11745658
-0.11706265
-0.11611614
-0.1144726
-0.1123746
-0.10992518
-0.10711754
-0.10396332
-0.10050467
-0.096785996
-0.092847049
-0.08872715
-0.084467722
-0.080110805
-0.075696483
-0.071262605
-0.066844716
-0.062475673
-0.058185242
-0.053999853
-0.049942456
-0.046032477
-0.042285839
-0.038715054
-0.03532937
-0.032134967
-0.029135188
-0.026330797
-0.023720255
-0.021300008
-0.019064771
-0.017007818
-0.015121254
-0.013396278
-0.011823429
-0.010392806
-0.0090942936
-0.007917672
-0.0068529715
-0.0058899394
-0.0050200205
-0.0042304213
-0.0035207196
-0.0028537103
-0.0022844892
-0.0016100863
-0.0012016517
-0.00013904711
-0.10711348
-0.10641962
-0.10606822
-0.10616858
-0.10581047
-0.10480499
-0.10334953
-0.10154826
-0.099397697
-0.096900014
-0.094087537
-0.090999305
-0.087670681
-0.08413668
-0.08043374
-0.076599547
-0.072672064
-0.068687729
-0.06468115
-0.060684916
-0.056729213
-0.052841467
-0.049046096
-0.045364374
-0.041814359
-0.038410903
-0.035165716
-0.032087497
-0.029182101
-0.026452748
-0.023900255
-0.021523296
-0.019318661
-0.017281528
-0.015405725
-0.013683989
-0.012108214
-0.010669671
-0.0093592267
-0.0081674878
-0.0070850771
-0.0061023077
-0.0052105002
-0.0043979394
-0.0036607227
-0.0029700934
-0.0023537467
-0.0016814967
-0.0011150646
-0.0003495179
-0.095178756
-0.095072031
-0.095189936
-0.095678238
-0.095781785
-0.095311741
-0.094417649
-0.093189833
-0.091627083
-0.08972684
-0.087512333
-0.085015554
-0.082266611
-0.079295409
-0.076134035
-0.072815814
-0.069374607
-0.065844441
-0.062258305
-0.058647709
-0.055042396
-0.051469978
-0.047955614
-0.044521778
-0.041188103
-0.03797131
-0.034885195
-0.03194068
-0.029145919
-0.026506443
-0.024025346
-0.0217035
-0.019539781
-0.017531317
-0.015673733
-0.013961396
-0.012387652
-0.01094505
-0.0096255527
-0.0084206912
-0.0073217925
-0.0063197996
-0.0054060914
-0.0045698692
-0.0038046214
-0.0030881528
-0.0024271729
-0.0017485338
-0.0010554155
-0.0005173283
-0.08402332
-0.084373225
-0.08487409
-0.085665198
-0.086129827
-0.086097316
-0.08567908
-0.084947535
-0.083901045
-0.082534144
-0.080862407
-0.078910447
-0.076702597
-0.074263472
-0.071620033
-0.068801338
-0.065837233
-0.062757994
-0.059594098
-0.056375297
-0.053130155
-0.049885706
-0.046667121
-0.043497401
-0.040397154
-0.037384441
-0.03447469
-0.031680674
-0.029012547
-0.026477925
-0.024082019
-0.021827793
-0.019716159
-0.017746183
-0.015915308
-0.014219579
-0.012653864
-0.01121207
-0.0098873452
-0.0086722359
-0.0075588766
-0.0065389094
-0.0056039494
-0.0047439988
-0.0039507655
-0.0032069433
-0.0025043456
-0.0018119056
-0.0010230679
-0.00064050649
-0.073707344
-0.074385618
-0.075173168
-0.076189402
-0.07692934
-0.077244255
-0.077217392
-0.076904536
-0.076301952
-0.075401759
-0.074213202
-0.072753955
-0.071042468
-0.069098027
-0.066942384
-0.064599723
-0.062095767
-0.059457007
-0.056710468
-0.053883399
-0.05100254
-0.048093673
-0.045181288
-0.042288255
-0.039435538
-0.036641979
-0.033924141
-0.031296218
-0.028770002
-0.026354904
-0.02405802
-0.021884241
-0.019836399
-0.017915431
-0.01612057
-0.014449542
-0.012898772
-0.011463574
-0.010138349
-0.0089167335
-0.0077917605
-0.0067558424
-0.0058009976
-0.0049179644
-0.0040974144
-0.003325563
-0.0025846907
-0.0018726144
-0.0010159408
-0.00072133377
-0.064242575
-0.065141917
-0.066127344
-0.067297586
-0.068237303
-0.06881833
-0.069103005
-0.069133341
-0.068903144
-0.068402393
-0.067635102
-0.066612802
-0.06534836
-0.063855882
-0.062152023
-0.060256033
-0.058189095
-0.055973727
-0.053633365
-0.051192069
-0.048674118
-0.046103443
-0.043503233
-0.040895597
-0.038301247
-0.035739235
-0.033226737
-0.0307789
-0.028408747
-0.026127137
-0.023942768
-0.021862232
-0.019890111
-0.018029092
-0.016280123
-0.014642577
-0.013114423
-0.011692408
-0.010372224
-0.0091486544
-0.0080157075
-0.0069666349
-0.0059940099
-0.0050892922
-0.0042427497
-0.0034430909
-0.0026674372
-0.0019316713
-0.0010299106
-0.00076590137
-0.055614088
-0.056650277
-0.057758994
-0.059021211
-0.060094937
-0.060870259
-0.061393657
-0.061696224
-0.061769723
-0.061602442
-0.061194175
-0.060551251
-0.059681546
-0.058594373
-0.057301571
-0.055817624
-0.054159155
-0.052344468
-0.050393212
-0.048326033
-0.046164229
-0.04392934
-0.041642705
-0.039325099
-0.036996408
-0.034675329
-0.032379118
-0.030123384
-0.027921941
-0.025786705
-0.023727645
-0.021752781
-0.01986822
-0.018078234
-0.016385365
-0.014790548
-0.013293259
-0.011891662
-0.010582756
-0.0093625065
-0.0082259558
-0.0071672595
-0.0061796797
-0.0052554227
-0.0043848646
-0.0035585002
-0.0027515678
-0.0019898212
-0.0010595443
-0.00078293472
-0.04779098
-0.048899679
-0.050072392
-0.051375529
-0.052527957
-0.053435909
-0.054133763
-0.054644141
-0.054957459
-0.055060931
-0.054951119
-0.054630146
-0.054101664
-0.053370777
-0.05244498
-0.051334331
-0.050051094
-0.048609396
-0.047024973
-0.045314894
-0.043497231
-0.041590716
-0.039614374
-0.037587151
-0.035527581
-0.033453477
-0.031381652
-0.029327679
-0.027305699
-0.025328266
-0.023406249
-0.021548774
-0.019763212
-0.018055202
-0.016428711
-0.014886118
-0.013428324
-0.012054863
-0.01076403
-0.009552984
-0.008417842
-0.0073537196
-0.0063546815
-0.0054137341
-0.0045217541
-0.0036705877
-0.0028358012
-0.0020473606
-0.0010990334
-0.00078214649
-0.040731776
-0.041865146
-0.043056714
-0.044360986
-0.045547523
-0.046536873
-0.047354276
-0.048015919
-0.048511578
-0.048828047
-0.048959615
-0.048905186
-0.048665038
-0.048240777
-0.047636167
-0.046857337
-0.045912564
-0.044812029
-0.04356765
-0.042192875
-0.040702429
-0.039112012
-0.037437994
-0.035697094
-0.033906049
-0.032081312
-0.030238766
-0.028393464
-0.026559407
-0.024749351
-0.022974665
-0.021245229
-0.019569368
-0.017953829
-0.016403796
-0.014922929
-0.013513432
-0.012176131
-0.01091057
-0.0097150919
-0.008586907
-0.0075221337
-0.0065157314
-0.0055615736
-0.0046513212
-0.0037779401
-0.0029186207
-0.0021040757
-0.0011430856
-0.00077251117
-0.03438897
-0.035512688
-0.036690146
-0.037966091
-0.03915229
-0.040181942
-0.041073489
-0.041838341
-0.042466245
-0.042944165
-0.043264986
-0.04342532
-0.043422922
-0.043256664
-0.042927267
-0.042437547
-0.041792292
-0.040998124
-0.040063402
-0.038998093
-0.037813592
-0.036522489
-0.035138317
-0.033675287
-0.032147998
-0.030571151
-0.028959272
-0.027326448
-0.025686092
-0.024050728
-0.022431818
-0.020839612
-0.019283052
-0.017769699
-0.016305705
-0.014895804
-0.013543345
-0.01225033
-0.011017475
-0.0098442638
-0.0087289973
-0.0076688203
-0.0066596542
-0.005696306
-0.0047714105
-0.0038789559
-0.0029983566
-0.0021593037
-0.0011875692
-0.00076092801
-0.02871246
-0.029803043
-0.030943475
-0.032170486
-0.033330942
-0.034369141
-0.035298529
-0.036127042
-0.036844872
-0.037439624
-0.03790351
-0.038231674
-0.038420132
-0.038465768
-0.038366975
-0.038123911
-0.037738466
-0.037214194
-0.036556287
-0.035771513
-0.034868108
-0.033855615
-0.032744695
-0.031546911
-0.030274502
-0.028940126
-0.027556609
-0.026136692
-0.024692798
-0.023236809
-0.021779873
-0.020332232
-0.018903086
-0.017500489
-0.016131273
-0.014801013
-0.013514003
-0.012273267
-0.011080582
-0.0099365019
-0.0088403821
-0.0077903954
-0.0067834638
-0.0058153806
-0.0048798671
-0.0039719112
-0.0030732917
-0.0022120696
-0.0012297542
-0.00075158549
-0.023651846
-0.024694327
-0.025782906
-0.026947684
-0.028064715
-0.029087961
-0.030027211
-0.030887919
-0.03166104
-0.032335164
-0.032902397
-0.033357096
-0.03369422
-0.033909343
-0.033999201
-0.033961957
-0.033797214
-0.033506011
-0.03309085
-0.032555693
-0.03190591
-0.031148192
-0.030290422
-0.029341522
-0.028311273
-0.027210117
-0.026048938
-0.024838835
-0.023590907
-0.022316032
-0.021024673
-0.019726693
-0.018431193
-0.017146385
-0.015879483
-0.014636629
-0.013422836
-0.012241964
-0.011096702
-0.0099885699
-0.0089179132
-0.0078839036
-0.006884471
-0.0059164237
-0.0049746214
-0.0040550584
-0.0031417695
-0.002261247
-0.0012681642
-0.00074610317
-0.019158318
-0.020144269
-0.021172508
-0.022267596
-0.023329893
-0.024321714
-0.025250165
-0.026118937
-0.026919941
-0.027642951
-0.028280385
-0.028826334
-0.029275256
-0.029621986
-0.029862205
-0.029992684
-0.030011336
-0.029917249
-0.029710754
-0.029393457
-0.02896825
-0.028439268
-0.027811831
-0.027092339
-0.02628815
-0.025407434
-0.024459002
-0.023452118
-0.022396304
-0.021301144
-0.020176095
-0.019030306
-0.017872444
-0.016710551
-0.015551912
-0.014402954
-0.01326916
-0.012155007
-0.011063923
-0.0099982573
-0.0089592466
-0.007947002
-0.006960435
-0.0059973671
-0.0050538005
-0.0041267437
-0.0032022831
-0.002305698
-0.0013021783
-0.000744236
-0.015185735
-0.016111644
-0.01707592
-0.018098436
-0.019099823
-0.020049579
-0.020952822
-0.021811987
-0.022620012
-0.02336795
-0.024048797
-0.024656757
-0.0251862
-0.025631682
-0.025988322
-0.026252025
-0.026419549
-0.02648857
-0.026457755
-0.026326838
-0.026096659
-0.02576917
-0.025347421
-0.024835514
-0.024238525
-0.023562415
-0.022813901
-0.022000319
-0.02112946
-0.020209408
-0.019248366
-0.018254487
-0.017235708
-0.016199599
-0.01515322
-0.014103
-0.013054628
-0.012012972
-0.010981997
-0.0099647159
-0.0089631331
-0.0079782061
-0.007009768
-0.0060566195
-0.0051158723
-0.0041855416
-0.0032535531
-0.002344382
-0.0013316006
-0.00074477893
-0.011692141
-0.012558033
-0.0134583
-0.014408779
-0.015347044
-0.016248751
-0.017117513
-0.017954849
-0.018754721
-0.019509459
-0.020212786
-0.020859263
-0.021443468
-0.021960007
-0.022403823
-0.022770379
-0.023055739
-0.023256631
-0.023370538
-0.023395783
-0.023331592
-0.023178135
-0.022936544
-0.022608912
-0.022198264
-0.021708502
-0.021144334
-0.020511178
-0.01981504
-0.019062386
-0.018259996
-0.017414822
-0.01653383
-0.01562386
-0.014691478
-0.01374285
-0.01278362
-0.011818806
-0.010852703
-0.0098888041
-0.0089297297
-0.0079771653
-0.0070317751
-0.0060932732
-0.0051598182
-0.0042304036
-0.0032946082
-0.0023764447
-0.0013563636
-0.00074632973
-0.0086397083
-0.00944824
-0.010287151
-0.011168775
-0.01204486
-0.012896313
-0.013725582
-0.014533496
-0.015314974
-0.016063559
-0.016773757
-0.017440622
-0.018059119
-0.018624132
-0.019130699
-0.019574167
-0.019950264
-0.020255162
-0.020485572
-0.020638823
-0.020712945
-0.020706722
-0.02061974
-0.020452414
-0.020205997
-0.019882564
-0.019484979
-0.019016839
-0.018482405
-0.0178865
-0.017234406
-0.016531742
-0.015784337
-0.014998101
-0.014178888
-0.013332371
-0.012463916
-0.011578468
-0.010680439
-0.0097736162
-0.0088610688
-0.0079450707
-0.0070270013
-0.0061073952
-0.0051853714
-0.0042608489
-0.0033249017
-0.0024013165
-0.0013764284
-0.00074774448
-0.0059962829
-0.0067516526
-0.0075335327
-0.0083511568
-0.0091681276
-0.009969818
-0.01075775
-0.01153221
-0.012288975
-0.01302269
-0.013728633
-0.014402406
-0.015039455
-0.01563507
-0.016184562
-0.016683386
-0.0171272
-0.017511925
-0.017833828
-0.018089601
-0.018276442
-0.018392118
-0.018435028
-0.018404247
-0.018299564
-0.018121494
-0.017871283
-0.017550883
-0.017162919
-0.016710637
-0.016197821
-0.015628715
-0.015007918
-0.014340279
-0.013630783
-0.012884426
-0.012106102
-0.011300486
-0.010471914
-0.0096242821
-0.0087609389
-0.0078845962
-0.0069972163
-0.0061000413
-0.0051930441
-0.0042769955
-0.0033443227
-0.0024187275
-0.0013917645
-0.00074826424
-0.0037366486
-0.0044446492
-0.0051754504
-0.0059356322
-0.006698647
-0.0074536098
-0.0082012905
-0.0089415329
-0.0096708523
-0.010384861
-0.011079551
-0.011751066
-0.012395359
-0.013008178
-0.013585206
-0.01412214
-0.01461475
-0.015058921
-0.015450729
-0.015786509
-0.01606293
-0.016277062
-0.016426441
-0.016509126
-0.016523752
-0.016469563
-0.016346445
-0.016154925
-0.015896174
-0.015571986
-0.015184737
-0.014737331
-0.014233128
-0.013675868
-0.013069574
-0.012418455
-0.011726793
-0.010998836
-0.010238686
-0.0094501837
-0.0086368
-0.007801535
-0.0069467953
-0.0060744033
-0.0051850666
-0.0042803122
-0.003353782
-0.0024291579
-0.0014027244
-0.0007476621
-0.0018365253
-0.0025029747
-0.0031889141
-0.003898521
-0.0046133754
-0.005325725
-0.0060357273
-0.0067428508
-0.0074442231
-0.0081362791
-0.0088156359
-0.0094789384
-0.010122618
-0.010742886
-0.011335822
-0.011897436
-0.012423709
-0.012910629
-0.013354254
-0.013750764
-0.014096533
-0.01438819
-0.01462268
-0.01479733
-0.014909905
-0.014958659
-0.01494238
-0.014860417
-0.014712705
-0.01449977
-0.014222721
-0.013883222
-0.013483457
-0.013026073
-0.012514118
-0.011950954
-0.011340174
-0.010685498
-0.0099906685
-0.0092593417
-0.0084949744
-0.007700717
-0.0068792844
-0.0060329495
-0.0051630256
-0.0042716873
-0.003353646
-0.0024325765
-0.0014090802
-0.00074552285
-0.00029991962
-0.00093259992
-0.0015816882
-0.0022495921
-0.0029243688
-0.0036007305
-0.0042783294
-0.0049563296
-0.0056323486
-0.0063034875
-0.0069668813
-0.0076196009
-0.0082584991
-0.0088802026
-0.0094811697
-0.010057731
-0.010606117
-0.01112249
-0.011602989
-0.012043776
-0.012441096
-0.012791326
-0.013091042
-0.013337077
-0.013526578
-0.013657072
-0.013726509
-0.01373332
-0.013676443
-0.013555359
-0.013370105
-0.01312128
-0.012810029
-0.012438012
-0.012007368
-0.011520653
-0.010980767
-0.010390877
-0.0097543127
-0.0090744718
-0.0083547043
-0.0075982063
-0.0068078866
-0.0059863472
-0.0051353796
-0.0042576858
-0.0033488923
-0.0024326396
-0.0014133995
-0.00074318822
0.00091497902
0.00031005482
-0.00030888666
-0.00094260909
-0.0015842413
-0.0022304698
-0.0028805547
-0.0035334035
-0.0041870049
-0.004838979
-0.0054868711
-0.0061280954
-0.0067598498
-0.0073791103
-0.0079826631
-0.0085671285
-0.0091289821
-0.0096645778
-0.010170182
-0.010642014
-0.011076288
-0.011469266
-0.01181731
-0.01211694
-0.012364893
-0.012558181
-0.012694156
-0.012770558
-0.01278557
-0.01273786
-0.012626618
-0.01245157