/*--------------------------------*- C++ -*----------------------------------*\
  =========                 |
  \\      /  F ield         | OpenFOAM: The Open Source CFD Toolbox
   \\    /   O peration     | Website:  https://openfoam.org
    \\  /    A nd           | Version:  6
     \\/     M anipulation  |
\*---------------------------------------------------------------------------*/
FoamFile
{
    version     2.0;
    format      ascii;
    class       volScalarField;
    location    "62";
    object      pMean;
}
// * * * * * * * * * * * * * * * * * * * * * * * * * * * * * * * * * * * * * //

dimensions      [0 2 -2 0 0 0 0];

internalField   nonuniform List<scalar> 
9200
(
-0.42878067
-0.415498
-0.40356321
-0.39307179
-0.38277662
-0.37265944
-0.36281316
-0.35319671
-0.34373129
-0.33433878
-0.32494465
-0.31548274
-0.30590243
-0.2961755
-0.2863053
-0.27634251
-0.26637899
-0.25651433
-0.24771684
-0.2440418
-0.44824219
-0.43251471
-0.41865674
-0.40662101
-0.39489688
-0.3834389
-0.37233019
-0.36150108
-0.35084519
-0.3402642
-0.32967093
-0.31899467
-0.30818839
-0.29723351
-0.28614366
-0.27496666
-0.2637554
-0.25253005
-0.24194788
-0.23409555
-0.46787781
-0.44972137
-0.43401113
-0.42051047
-0.40740892
-0.39461658
-0.38219756
-0.37004986
-0.35804215
-0.34606449
-0.33403043
-0.32188125
-0.30959136
-0.2971692
-0.28465468
-0.27211283
-0.25960549
-0.24715921
-0.23516979
-0.22474783
-0.48718821
-0.46665484
-0.44917361
-0.43426952
-0.41979875
-0.40561321
-0.39175444
-0.37809307
-0.36448623
-0.35083244
-0.33706994
-0.32317693
-0.30917197
-0.29510884
-0.28106728
-0.26714126
-0.25341452
-0.23993498
-0.22697301
-0.21528616
-0.50547588
-0.48270055
-0.46357694
-0.44734258
-0.43149834
-0.41583144
-0.40036649
-0.38496358
-0.36949393
-0.35389477
-0.33815942
-0.32232936
-0.3064864
-0.29073993
-0.27521174
-0.26002151
-0.24526685
-0.23100501
-0.21742628
-0.20505952
-0.52185293
-0.49707471
-0.47649267
-0.45901118
-0.44177371
-0.42450882
-0.40724335
-0.38985823
-0.37227641
-0.35451071
-0.33664
-0.31878902
-0.30111068
-0.28376625
-0.26690726
-0.25066203
-0.23512206
-0.22033268
-0.20641805
-0.19373276
-0.5352593
-0.50883334
-0.48703557
-0.46840102
-0.4497415
-0.4307496
-0.41148863
-0.39190538
-0.37201985
-0.35195728
-0.33190521
-0.31207917
-0.29269622
-0.27395211
-0.25600517
-0.2389685
-0.22290539
-0.2078298
-0.1938024
-0.18103444
-0.54448853
-0.51690018
-0.49420148
-0.4745347
-0.45443881
-0.43361107
-0.41219909
-0.39026959
-0.36798597
-0.34561577
-0.32346596
-0.30183611
-0.28098804
-0.26112609
-0.24238907
-0.22485239
-0.20853402
-0.19340506
-0.17946444
-0.16680047
-0.54816735
-0.51995917
-0.49665835
-0.47603314
-0.45445764
-0.4317015
-0.40805856
-0.38377003
-0.35917606
-0.33469418
-0.31073695
-0.28766024
-0.26573741
-0.24515022
-0.2259936
-0.2082894
-0.19200253
-0.1770596
-0.16340247
-0.15101311
-0.54493607
-0.51656856
-0.49282767
-0.47120594
-0.44806762
-0.42334042
-0.39752623
-0.37107844
-0.34451752
-0.31838493
-0.29315526
-0.26919266
-0.24673997
-0.22592628
-0.20678592
-0.18928216
-0.17333017
-0.15881963
-0.14564296
-0.1336884
-0.29926133
-0.30307522
-0.3042447
-0.30381298
-0.30234618
-0.29998144
-0.29683806
-0.29302468
-0.28862163
-0.28369163
-0.27828746
-0.27245497
-0.26623529
-0.25966639
-0.25278445
-0.24562647
-0.23823184
-0.2306294
-0.22282497
-0.21491947
-0.30254272
-0.30587653
-0.30670656
-0.30604348
-0.30438825
-0.30186945
-0.2986039
-0.29469481
-0.29021776
-0.28523184
-0.27978676
-0.27392569
-0.26768736
-0.26110726
-0.25421849
-0.24705646
-0.23966781
-0.23207961
-0.22418347
-0.21595125
-0.30891894
-0.31132356
-0.31149773
-0.31038276
-0.30835905
-0.30553918
-0.30203466
-0.29793835
-0.29331671
-0.28822162
-0.28269664
-0.2767795
-0.27050411
-0.26390124
-0.25699829
-0.24982678
-0.24244388
-0.23487615
-0.22681596
-0.21797438
-0.31806289
-0.31915192
-0.31838457
-0.31660574
-0.31403296
-0.31075835
-0.30688671
-0.30249702
-0.29764323
-0.29236711
-0.28670339
-0.280682
-0.27432986
-0.26767091
-0.26072477
-0.25351645
-0.24611309
-0.23854723
-0.23026782
-0.22058794
-0.329564
-0.32903035
-0.32707655
-0.32443613
-0.32113679
-0.31724949
-0.31287261
-0.3080695
-0.30287945
-0.29733232
-0.29145205
-0.28525826
-0.27876866
-0.2719989
-0.26495959
-0.25766639
-0.25019194
-0.24258318
-0.23404729
-0.22337085
-0.34299827
-0.34061597
-0.33727534
-0.33359518
-0.32940084
-0.32474469
-0.31972091
-0.31437756
-0.30873848
-0.302819
-0.2966298
-0.29017901
-0.28347375
-0.27651993
-0.26931841
-0.26187325
-0.25425509
-0.24653045
-0.23770404
-0.22594449
-0.35798953
-0.35360227
-0.34871784
-0.34384528
-0.33860533
-0.33303645
-0.32723275
-0.32122666
-0.31502428
-0.30862587
-0.30202818
-0.29522603
-0.28821438
-0.28098866
-0.27354052
-0.26586309
-0.25801949
-0.2500985
-0.2409697
-0.2281487
-0.37424378
-0.36774711
-0.3612029
-0.35501898
-0.34861418
-0.34201695
-0.3353218
-0.32854573
-0.32167754
-0.31470071
-0.30759557
-0.30034107
-0.29291757
-0.2853081
-0.2774952
-0.26946489
-0.26127941
-0.25307369
-0.24369793
-0.23003771
-0.39154594
-0.38285955
-0.37456427
-0.36697605
-0.35931036
-0.3515853
-0.34389833
-0.33625107
-0.32861292
-0.32094829
-0.31321852
-0.30538377
-0.29740578
-0.28924862
-0.28087454
-0.27224545
-0.26339243
-0.25443464
-0.24423271
-0.22944312
-0.40974848
-0.39877772
-0.38863051
-0.37953574
-0.37049712
-0.3615226
-0.35271286
-0.34405304
-0.33549203
-0.32697517
-0.31844639
-0.30985089
-0.30113856
-0.29226441
-0.2831836
-0.27384684
-0.26421371
-0.25410595
-0.24200229
-0.22507012
-0.20599668
-0.1950332
-0.18417985
-0.17354041
-0.16304819
-0.15274105
-0.14268114
-0.13290743
-0.12344742
-0.11432702
-0.10556909
-0.097191374
-0.089207052
-0.081625561
-0.074452813
-0.067691317
-0.061340444
-0.05539671
-0.049854029
-0.044703967
-0.039936
-0.035537774
-0.031495376
-0.027793593
-0.024416176
-0.021346093
-0.018565773
-0.01605734
-0.013802827
-0.011784379
-0.0099844313
-0.0083858699
-0.0069721767
-0.0057275516
-0.0046370235
-0.0036865439
-0.0028630825
-0.0021546936
-0.0015506814
-0.001041475
-0.00061958372
-0.00027721505
-1.4973619e-05
0.00018372947
0.00027091996
0.00037752644
7.4892279e-05
0.00054298058
-0.0018111729
0.0032377347
-0.20779986
-0.19633803
-0.1853219
-0.17466835
-0.16411935
-0.15373889
-0.14361504
-0.13378232
-0.12426423
-0.11508761
-0.10627602
-0.097847047
-0.089813788
-0.082185739
-0.074968852
-0.068165637
-0.061775455
-0.055794802
-0.050217561
-0.045035249
-0.040237279
-0.035811228
-0.0317431
-0.028017594
-0.024618367
-0.021528287
-0.018729681
-0.01620457
-0.013934884
-0.011902665
-0.010090245
-0.0084804127
-0.0070565539
-0.0058027762
-0.00470402
-0.0037461528
-0.0029160644
-0.0022017336
-0.0015923933
-0.0010784042
-0.00065221072
-0.00030595655
-4.0173121e-05
0.00016176962
0.00025213481
0.00036144082
6.3273914e-05
0.00053112706
-0.0018032942
0.0032082497
-0.21136614
-0.19887708
-0.18754997
-0.1769193
-0.16628042
-0.15576223
-0.14551936
-0.13557576
-0.12594539
-0.11665799
-0.10773934
-0.099206985
-0.09107407
-0.083350479
-0.076042461
-0.069152683
-0.062680614
-0.056622817
-0.050973188
-0.045723209
-0.040862218
-0.036377683
-0.032255466
-0.028480103
-0.025035066
-0.021903026
-0.019066099
-0.016506092
-0.014204714
-0.012143788
-0.01030543
-0.0086722135
-0.0072273173
-0.0059546493
-0.0048389583
-0.0038659297
-0.0030222807
-0.0022958268
-0.0016756473
-0.0011519568
-0.00071706132
-0.00036296782
-9.0059911e-05
0.00011839293
0.00021510099
0.00032983731
4.0513417e-05
0.00050796922
-0.0017873262
0.0031497802
-0.21625267
-0.20218886
-0.1904338
-0.17995606
-0.16925558
-0.15856969
-0.14818585
-0.13811105
-0.12834009
-0.11890864
-0.10984786
-0.10117579
-0.092905975
-0.085049345
-0.077613018
-0.070600235
-0.064010887
-0.057841864
-0.052087276
-0.046738713
-0.041785536
-0.037215157
-0.033013324
-0.029164402
-0.025651649
-0.022457488
-0.019563767
-0.016951997
-0.014603586
-0.012500045
-0.010623179
-0.0089552536
-0.0074791429
-0.0061784605
-0.0050376715
-0.0040421901
-0.0031784755
-0.0024340991
-0.00179791
-0.0012599029
-0.00081217655
-0.00044653213
-0.00016313236
5.4905295e-05
0.00016095622
0.00028368287
7.4419684e-06
0.00047418429
-0.0017630811
0.0030634758
-0.22192561
-0.20577136
-0.19350096
-0.18338346
-0.17271925
-0.16187589
-0.15136323
-0.1411724
-0.13126373
-0.12168033
-0.11246384
-0.1036346
-0.095207019
-0.087193899
-0.079604151
-0.072442299
-0.065709206
-0.059402537
-0.05351699
-0.048044565
-0.042974871
-0.038295442
-0.03399203
-0.030048912
-0.02644918
-0.023175025
-0.020208011
-0.01752933
-0.015120041
-0.012961288
-0.011034497
-0.0093215503
-0.0078049437
-0.0064679171
-0.0052945731
-0.0042699767
-0.0033802538
-0.0026126583
-0.0019557389
-0.0013992034
-0.00093487869
-0.00055429608
-0.0002573274
-2.6893461e-05
9.1266016e-05
0.00022432209
-3.482366e-05
0.0004307812
-0.0017305268
0.0029511848
-0.22777889
-0.20916148
-0.19632554
-0.1868035
-0.17634215
-0.16539909
-0.1547954
-0.14453258
-0.13452104
-0.124805
-0.11544137
-0.10645676
-0.097867624
-0.089689382
-0.081933812
-0.074607759
-0.067713861
-0.061251209
-0.05521564
-0.049600025
-0.044394598
-0.039587306
-0.035164139
-0.03110946
-0.027406314
-0.024036746
-0.020982084
-0.018223217
-0.015740851
-0.013515736
-0.011528883
-0.0097617422
-0.0081963716
-0.0068155757
-0.0056030293
-0.004543382
-0.0036223601
-0.002826835
-0.0021449925
-0.0015661916
-0.0010819285
-0.000683406
-0.00037013828
-0.00012481303
7.9364131e-06
0.00015339198
-8.4934845e-05
0.00037898871
-0.0016897101
0.0028153058
-0.23325497
-0.21207281
-0.19861408
-0.18984188
-0.17981713
-0.16891229
-0.15827728
-0.14799592
-0.13793802
-0.12813251
-0.11864912
-0.10952625
-0.10078548
-0.092445675
-0.084522473
-0.07702627
-0.069962528
-0.06333258
-0.057134091
-0.051361378
-0.046005776
-0.041056029
-0.03649867
-0.032318379
-0.028498338
-0.025020568
-0.021866249
-0.019016021
-0.016450256
-0.014149317
-0.012093777
-0.010264626
-0.0086434434
-0.0072125495
-0.0059551388
-0.0048553904
-0.0038985746
-0.0030711248
-0.0023608083
-0.0017565818
-0.0012495581
-0.00083055946
-0.00049868005
-0.00023634928
-8.6868444e-05
7.2729182e-05
-0.0001413933
0.00032013067
-0.0016407371
0.002658611
-0.2380006
-0.21482926
-0.20056813
-0.1923077
-0.1829072
-0.17228727
-0.16172079
-0.15146214
-0.14140769
-0.13156159
-0.12199303
-0.11275456
-0.10387744
-0.095385553
-0.087299002
-0.079632654
-0.07239576
-0.065592676
-0.05922352
-0.0532846
-0.047768814
-0.042666086
-0.037963799
-0.033647206
-0.02969982
-0.026103791
-0.022840261
-0.019889696
-0.017232185
-0.014847721
-0.01271645
-0.010818887
-0.0091361091
-0.0076499213
-0.0063429993
-0.0051990087
-0.0042027192
-0.0033400793
-0.0025983923
-0.0019661657
-0.0014340835
-0.00099254257
-0.0006401581
-0.00035908943
-0.00019107256
-1.5919808e-05
-0.00020278513
0.00025542856
-0.0015838403
0.0024841601
-0.23969092
-0.21749433
-0.20272332
-0.19409477
-0.1851794
-0.1751394
-0.16484473
-0.15469672
-0.14471757
-0.13490738
-0.12532023
-0.11601785
-0.1070444
-0.098431349
-0.090204228
-0.082383251
-0.074982573
-0.068010662
-0.06147105
-0.055362887
-0.049681394
-0.044418339
-0.039562522
-0.035100241
-0.031015727
-0.027291573
-0.023909129
-0.020848868
-0.018090732
-0.015614437
-0.013399754
-0.011426748
-0.0096760005
-0.008128784
-0.0067672267
-0.0055744428
-0.0045346559
-0.0036332809
-0.0028571054
-0.0021941351
-0.0016345723
-0.0011683362
-0.00079349859
-0.00049192813
-0.00030357498
-0.00011143772
-0.00026820094
0.00018616742
-0.0015198996
0.0022959853
-0.230624
-0.21717738
-0.20436849
-0.19453914
-0.18568437
-0.17647974
-0.16682988
-0.15707218
-0.14738475
-0.13780173
-0.12836177
-0.11912954
-0.11016412
-0.10150976
-0.093201605
-0.0852685
-0.077732562
-0.070609147
-0.063907581
-0.05763186
-0.051781206
-0.046350623
-0.041331468
-0.036711998
-0.032477895
-0.028612763
-0.025098587
-0.021916175
-0.019045547
-0.016466297
-0.014157912
-0.012100058
-0.010272825
-0.0086569389
-0.0072339413
-0.0059863434
-0.0048977628
-0.0039530141
-0.0031383019
-0.0024410605
-0.001850944
-0.0013573247
-0.00095766558
-0.00063348516
-0.0004228115
-0.00021196436
-0.00033624191
0.00011522464
-0.0014508865
0.0021000612
-0.20984083
-0.21120397
-0.20375867
-0.19334607
-0.18421783
-0.17549335
-0.16634481
-0.15693992
-0.14753481
-0.13819889
-0.128965
-0.11989479
-0.11105207
-0.10248658
-0.094237827
-0.086338744
-0.078815447
-0.071687029
-0.064966171
-0.058659856
-0.052769942
-0.047293725
-0.04222453
-0.037552278
-0.033264039
-0.029344556
-0.02577673
-0.022542084
-0.019621185
-0.01699402
-0.014640348
-0.012539994
-0.010673121
-0.009020454
-0.0075634783
-0.0062846
-0.0051672967
-0.0041962153
-0.0033573684
-0.0026379847
-0.0020274654
-0.0015149884
-0.0010974693
-0.00075676665
-0.00052797601
-0.00030365585
-0.00039568561
4.5661904e-05
-0.0013749505
0.001905765
-0.197995
-0.20044507
-0.19495425
-0.18505766
-0.17648721
-0.16868984
-0.16050033
-0.15195654
-0.14333461
-0.13471562
-0.12612601
-0.11762483
-0.10927932
-0.10114419
-0.0932641
-0.085677334
-0.078415575
-0.071503399
-0.064958739
-0.058793527
-0.053014235
-0.047622405
-0.042615228
-0.037986118
-0.033725269
-0.029820196
-0.026256238
-0.023017047
-0.020085023
-0.017441729
-0.01506825
-0.012945527
-0.01105464
-0.0093770634
-0.007894876
-0.0065909489
-0.0054491087
-0.0044542542
-0.003592555
-0.0028513421
-0.0022199721
-0.0016877166
-0.0012508501
-0.00089232015
-0.00064272958
-0.00040499644
-0.00045751619
-3.601162e-05
-0.0012804407
0.0016927528
-0.18766405
-0.18797251
-0.18384942
-0.17583905
-0.16831333
-0.16137317
-0.15409213
-0.1464105
-0.13857125
-0.13067224
-0.12274312
-0.11483814
-0.10702394
-0.09935784
-0.091887681
-0.084655334
-0.077696623
-0.071040593
-0.064709713
-0.0587204
-0.05308347
-0.047804604
-0.042884874
-0.038321283
-0.034107313
-0.030233452
-0.026687705
-0.023456086
-0.020523073
-0.01787203
-0.015485596
-0.01334603
-0.011435521
-0.0097364572
-0.0082316669
-0.0069046176
-0.0057395996
-0.0047218612
-0.0038378097
-0.0030749466
-0.0024226265
-0.0018702737
-0.0014134706
-0.0010364529
-0.00076473663
-0.00051311878
-0.00052199697
-0.00012437648
-0.0011710917
0.0014564682
-0.1763898
-0.17467232
-0.17120746
-0.16533669
-0.15918083
-0.1531432
-0.14678966
-0.14004059
-0.13305546
-0.12593516
-0.11872352
-0.11147346
-0.10424889
-0.09710837
-0.090102429
-0.083275978
-0.076668428
-0.070312919
-0.064236267
-0.058459301
-0.052997224
-0.047859984
-0.043052725
-0.038576282
-0.034427691
-0.030600699
-0.027086267
-0.023873057
-0.020947898
-0.018296219
-0.015902449
-0.013750386
-0.011823526
-0.01010535
-0.0085795885
-0.0072304401
-0.0060427731
-0.0050022816
-0.0040956892
-0.0033107305
-0.0026368042
-0.0020635216
-0.0015857754
-0.0011891239
-0.00089383698
-0.00062693859
-0.00058947147
-0.00021529945
-0.001054676
0.0012074111
-0.16429375
-0.16127289
-0.1580897
-0.15397812
-0.1492197
-0.14413454
-0.13870806
-0.13291376
-0.12682652
-0.12052944
-0.11408021
-0.10753393
-0.10095057
-0.094387857
-0.08789787
-0.081527676
-0.075319414
-0.069309634
-0.063529031
-0.05800257
-0.052749702
-0.047784633
-0.043116671
-0.038750653
-0.034687394
-0.030924159
-0.027455145
-0.024271954
-0.021364051
-0.018719207
-0.016323907
-0.01416373
-0.0122237
-0.010488592
-0.008943214
-0.0075726508
-0.0063624804
-0.0052989538
-0.0043692028
-0.003561267
-0.0028646468
-0.0022691708
-0.0017690795
-0.0013512089
-0.0010306624
-0.00074642665
-0.00066055903
-0.00030705369
-0.0009366518
0.00095351464
-0.15118864
-0.14783779
-0.14501872
-0.1422352
-0.13873165
-0.13461124
-0.13009192
-0.1252239
-0.12003018
-0.11456724
-0.10889765
-0.10307855
-0.097166161
-0.091215711
-0.085279179
-0.079404526
-0.073635422
-0.068010755
-0.062564244
-0.057324334
-0.05231425
-0.047552136
-0.043051295
-0.038820503
-0.034864393
-0.03118386
-0.027776498
-0.024637048
-0.021757835
-0.019129202
-0.016739924
-0.01457759
-0.012628968
-0.010880328
-0.0093177408
-0.0079273404
-0.0066955602
-0.0056093335
-0.0046563063
-0.0038249087
-0.0031048167
-0.0024861106
-0.0019624518
-0.0015218573
-0.0011745421
-0.00087072015
-0.00073528478
-0.00039803899
-0.0008223094
0.00070276842
-0.13743287
-0.13452397
-0.13225708
-0.13045543
-0.12799361
-0.12479357
-0.12114314
-0.11714788
-0.11281111
-0.10816532
-0.10326955
-0.098180621
-0.092950323
-0.087630059
-0.082270245
-0.076918437
-0.071618595
-0.066410735
-0.061330538
-0.05640905
-0.051672562
-0.047142606
-0.042836077
-0.038765434
-0.034938975
-0.031361176
-0.028033059
-0.02495259
-0.022115087
-0.019513631
-0.017139466
-0.014982385
-0.013031092
-0.011273539
-0.0096972366
-0.0082895316
-0.0070378625
-0.0059299765
-0.0049541501
-0.0040992979
-0.0033553582
-0.0027127032
-0.0021645176
-0.001699865
-0.0013245275
-0.00099879728
-0.00081359503
-0.00048677724
-0.00071715942
0.00046353368
-0.12369939
-0.12156708
-0.11994494
-0.11888028
-0.11725256
-0.11488439
-0.11204192
-0.1088513
-0.10531396
-0.10144632
-0.097298367
-0.092923504
-0.088369181
-0.083681678
-0.07890807
-0.07409426
-0.069283381
-0.064515392
-0.059826782
-0.055250186
-0.050814094
-0.046542706
-0.042455929
-0.038569457
-0.034894942
-0.031440234
-0.02820967
-0.025204413
-0.022422807
-0.019860753
-0.017512082
-0.015368931
-0.013422095
-0.011661371
-0.01007587
-0.0086543086
-0.0073852762
-0.0062574672
-0.0052599094
-0.0043821032
-0.0036143458
-0.0029473485
-0.002373946
-0.0018840944
-0.0014797334
-0.001129796
-0.0008955071
-0.00057228097
-0.00062631224
0.00024365981
-0.11047295
-0.10913479
-0.10814667
-0.10765835
-0.10669617
-0.10505103
-0.10293685
-0.10047433
-0.097667527
-0.094523944
-0.091082973
-0.087391561
-0.083492264
-0.079426265
-0.075235968
-0.070964042
-0.066651712
-0.062337854
-0.058058681
-0.053847367
-0.049733658
-0.045743599
-0.041899404
-0.038219424
-0.034718206
-0.031406627
-0.028292104
-0.025378844
-0.022668146
-0.020158719
-0.017847027
-0.015727629
-0.01379352
-0.012036467
-0.010447316
-0.0090162927
-0.0077332725
-0.0065880269
-0.0055704555
-0.0046707504
-0.0038796704
-0.0031883224
-0.0025893337
-0.0020734031
-0.0016392983
-0.0012630247
-0.00098106479
-0.00065418272
-0.00055385073
4.9577985e-05
-0.097998216
-0.09733814
-0.096909772
-0.096884393
-0.096456095
-0.095422262
-0.093945979
-0.092130071
-0.089979535
-0.087496833
-0.084711542
-0.081662615
-0.078386736
-0.074919732
-0.07129902
-0.067563006
-0.063749748
-0.059896066
-0.056036945
-0.052205118
-0.048430647
-0.044740559
-0.041158609
-0.037705138
-0.034397029
-0.031247738
-0.028267407
-0.025463034
-0.022838699
-0.020395824
-0.018133467
-0.016048621
-0.014136535
-0.012391024
-0.010804773
-0.0093696279
-0.0080768692
-0.0069174639
-0.0058822992
-0.0049623634
-0.0041489839
-0.0034337278
-0.0028091666
-0.0022666159
-0.0018023672
-0.0013979528
-0.0010703007
-0.00073271473
-0.00050238084
-0.00011440846
-0.086390524
-0.086260078
-0.086287445
-0.086629803
-0.086627283
-0.086098429
-0.085166101
-0.083912662
-0.082341388
-0.080451143
-0.078263055
-0.07580782
-0.073115645
-0.070216644
-0.067142882
-0.06392806
-0.060606293
-0.057211343
-0.053776078
-0.050331918
-0.046908355
-0.043532548
-0.040229005
-0.037019348
-0.033922174
-0.030952987
-0.02812422
-0.025445317
-0.02292288
-0.020560865
-0.018360805
-0.016322079
-0.014442179
-0.012717002
-0.011141129
-0.0097081101
-0.0084107254
-0.0072412395
-0.006191632
-0.0052537882
-0.0044197089
-0.003681495
-0.003031816
-0.0024625153
-0.0019680826
-0.0015341822
-0.0011631965
-0.00080858712
-0.00047278172
-0.00024656461
-0.075694689
-0.07595477
-0.07632957
-0.076952306
-0.077281619
-0.077159663
-0.076679083
-0.075903698
-0.074833651
-0.073464624
-0.071810572
-0.069894405
-0.067739729
-0.065370787
-0.062814077
-0.060098216
-0.057252928
-0.054308279
-0.051294204
-0.048240006
-0.045173806
-0.042122094
-0.039109354
-0.036157767
-0.033286981
-0.03051397
-0.027852956
-0.025315415
-0.022910138
-0.020643353
-0.018518893
-0.016538394
-0.014701529
-0.013006255
-0.011449068
-0.010025265
-0.0087291933
-0.0075544958
-0.0064943345
-0.0055415838
-0.0046890183
-0.0039293517
-0.0032555022
-0.0026597968
-0.0021355409
-0.0016713708
-0.0012596212
-0.00088277915
-0.0004641998
-0.00034779705
-0.065911885
-0.066446965
-0.067071556
-0.067895474
-0.068473538
-0.068669827
-0.068554118
-0.068174849
-0.067528898
-0.066609105
-0.065423383
-0.063987686
-0.062319326
-0.060436784
-0.058361005
-0.056115365
-0.053724872
-0.051215487
-0.048613659
-0.045945885
-0.0432382
-0.040515692
-0.037802089
-0.035119414
-0.032487702
-0.029924779
-0.027446113
-0.025064735
-0.02279123
-0.020633779
-0.018598258
-0.016688381
-0.014905873
-0.01325068
-0.011721183
-0.01031443
-0.009026373
-0.0078520857
-0.006785984
-0.005822011
-0.0049538074
-0.0041747812
-0.0034782436
-0.0028570044
-0.0023037238
-0.0018091233
-0.001359256
-0.00095628643
-0.00047429337
-0.00042132247
-0.057018701
-0.057737509
-0.058530276
-0.059486855
-0.060241411
-0.060677589
-0.060847596
-0.060787569
-0.06049169
-0.059950523
-0.059167028
-0.058151201
-0.056914684
-0.055470579
-0.053834526
-0.052024746
-0.050061432
-0.04796619
-0.045761631
-0.043470963
-0.041117544
-0.038724423
-0.036313905
-0.033907189
-0.031524037
-0.029182506
-0.026898733
-0.024686795
-0.022558617
-0.020523954
-0.018590415
-0.016763545
-0.015046942
-0.013442408
-0.011950133
-0.010568883
-0.0092962064
-0.0081286373
-0.0070618925
-0.006091047
-0.0052106879
-0.0044149984
-0.0036978161
-0.0030524716
-0.0024714303
-0.0019468803
-0.001461529
-0.0010298848
-0.00049968036
-0.00047198705
-0.048976877
-0.049808922
-0.050704699
-0.051737591
-0.052607858
-0.053216547
-0.05360236
-0.053791803
-0.053777175
-0.053547486
-0.053101838
-0.052445341
-0.05158479
-0.050528513
-0.049287308
-0.04787455
-0.046305752
-0.044598132
-0.042770285
-0.040841838
-0.038833058
-0.036764443
-0.034656318
-0.032528453
-0.030399726
-0.028287819
-0.026208964
-0.024177742
-0.022206937
-0.020307448
-0.018488255
-0.016756431
-0.015117206
-0.013574062
-0.012128864
-0.010782014
-0.0095326189
-0.0083786638
-0.0073171873
-0.0063444395
-0.0054560185
-0.004646958
-0.0039117425
-0.0032442883
-0.0026372289
-0.0020838328
-0.0015655805
-0.0011039627
-0.00053649351
-0.00050538024
-0.041738541
-0.042630627
-0.043579229
-0.044644198
-0.045580931
-0.046305936
-0.046847657
-0.04722521
-0.047429824
-0.047449703
-0.047281147
-0.046925463
-0.046385511
-0.045665598
-0.044772309
-0.043714667
-0.042503841
-0.04115284
-0.039676266
-0.038090053
-0.036411147
-0.03465715
-0.032845966
-0.030995443
-0.029123037
-0.027245503
-0.025378609
-0.023536908
-0.021733538
-0.019980088
-0.018286499
-0.016661026
-0.015110239
-0.013639066
-0.012250869
-0.010947557
-0.0097297093
-0.0085967189
-0.0075469355
-0.0065778029
-0.0056859755
-0.0048674015
-0.0041173169
-0.003430304
-0.0027994451
-0.002218882
-0.0016702674
-0.0011784495
-0.00058091943
-0.0005269428
-0.035250591
-0.036163723
-0.037127804
-0.038191565
-0.039156315
-0.039952219
-0.040600036
-0.041113335
-0.041482972
-0.041697014
-0.041749923
-0.041640225
-0.041367762
-0.04093364
-0.040340953
-0.039594996
-0.03870309
-0.037674385
-0.036519706
-0.035251367
-0.033882933
-0.032428939
-0.030904584
-0.029325426
-0.027707069
-0.026064859
-0.024413604
-0.022767319
-0.021139006
-0.019540473
-0.017982196
-0.016473227
-0.01502114
-0.013632029
-0.012310527
-0.011059874
-0.0098819927
-0.0087776001
-0.0077463119
-0.0067867549
-0.0058966612
-0.0050729407
-0.0043116657
-0.003608167
-0.0029561838
-0.002350647
-0.0017742087
-0.0012528381
-0.00062960765
-0.00054126341
-0.029457977
-0.030364581
-0.031317399
-0.032356029
-0.033319917
-0.034151187
-0.034864905
-0.035470551
-0.035959154
-0.036319186
-0.036544083
-0.036630494
-0.036576106
-0.036379625
-0.036041413
-0.035563723
-0.034950622
-0.034207887
-0.033342925
-0.032364669
-0.031283416
-0.03011062
-0.028858657
-0.02754057
-0.026169801
-0.024759918
-0.023324347
-0.021876121
-0.020427643
-0.018990489
-0.017575238
-0.016191335
-0.014847
-0.013549172
-0.012303488
-0.011114297
-0.0099846973
-0.0089166025
-0.0079108123
-0.0069670933
-0.0060842483
-0.0052601735
-0.0044918379
-0.0037753938
-0.0031053835
-0.0024775138
-0.0018758544
-0.0013262718
-0.00067988177
-0.00055169281
-0.024305957
-0.02518746
-0.026110829
-0.027108127
-0.028050439
-0.028890254
-0.029638444
-0.030301526
-0.030871084
-0.031336383
-0.031690477
-0.031928893
-0.032047913
-0.032044581
-0.031917248
-0.031665821
-0.031291751
-0.030797996
-0.030189016
-0.029470723
-0.0286504
-0.02773656
-0.026738785
-0.025667526
-0.024533895
-0.023349429
-0.022125857
-0.020874859
-0.019607847
-0.018335754
-0.017068846
-0.015816564
-0.014587401
-0.013388804
-0.012227112
-0.011107529
-0.010034119
-0.0090098277
-0.0080365181
-0.0071150184
-0.0062451634
-0.0054258328
-0.0046549244
-0.0039294652
-0.0032448942
-0.0025977131
-0.0019735649
-0.001397661
-0.00072975202
-0.00056029823
-0.019741868
-0.020586647
-0.021469112
-0.022415071
-0.023321823
-0.024150778
-0.024909716
-0.025603022
-0.026223071
-0.026760168
-0.027207459
-0.027559935
-0.027813092
-0.02796294
-0.02800647
-0.027941889
-0.027768656
-0.027487498
-0.02710044
-0.026610823
-0.02602327
-0.025343616
-0.024578807
-0.023736766
-0.022826237
-0.021856603
-0.020837691
-0.01977957
-0.018692343
-0.01758595
-0.016469978
-0.015353495
-0.014244902
-0.013151809
-0.012080946
-0.01103809
-0.010028031
-0.0090545477
-0.0081204137
-0.0072274049
-0.0063763158
-0.0055669753
-0.0047982108
-0.0040679506
-0.003372579
-0.0027094172
-0.0020656905
-0.0014657992
-0.00077779042
-0.00056807977
-0.015716264
-0.016517962
-0.017353262
-0.018242729
-0.019105371
-0.019910217
-0.020662758
-0.021365844
-0.022012754
-0.022594959
-0.023106009
-0.023540796
-0.023894499
-0.024162602
-0.024341278
-0.024427604
-0.024419619
-0.024316374
-0.024117993
-0.023825722
-0.023441944
-0.02297016
-0.022414945
-0.021781867
-0.021077389
-0.020308738
-0.019483759
-0.018610751
-0.017698292
-0.016755062
-0.015789671
-0.014810487
-0.01382549
-0.012842127
-0.011867203
-0.010906783
-0.0099661219
-0.0090496129
-0.0081607527
-0.0073021221
-0.006475371
-0.0056812109
-0.0049193668
-0.0041886639
-0.0034864418
-0.0028108556
-0.0021506513
-0.0015294656
-0.00082295865
-0.00057531174
-0.012184089
-0.012940197
-0.01372593
-0.014557412
-0.015371616
-0.016144041
-0.016878462
-0.017576614
-0.018232706
-0.018839395
-0.019390826
-0.019882081
-0.020308361
-0.020665004
-0.020947793
-0.021153142
-0.021278162
-0.021320731
-0.021279565
-0.021154289
-0.020945486
-0.020654714
-0.020284506
-0.019838334
-0.019320565
-0.018736375
-0.018091654
-0.017392885
-0.016647005
-0.015861264
-0.01504307
-0.014199838
-0.013338843
-0.012467082
-0.011591142
-0.010717098
-0.0098504085
-0.0089958456
-0.0081574277
-0.0073383719
-0.0065410513
-0.0057669634
-0.0050166672
-0.0042898489
-0.0035847804
-0.0029004463
-0.0022270242
-0.0015875164
-0.0008644662
-0.00058187868
-0.0091051598
-0.0098160626
-0.010552756
-0.011327585
-0.012092364
-0.012828049
-0.013537111
-0.014220462
-0.014873194
-0.015489106
-0.016063023
-0.016590392
-0.017066657
-0.017487274
-0.017847949
-0.018144793
-0.01837439
-0.018533864
-0.018620958
-0.018634117
-0.018572547
-0.018436262
-0.018226112
-0.017943787
-0.017591811
-0.0171735
-0.01669291
-0.016154757
-0.015564327
-0.014927361
-0.014249935
-0.013538334
-0.012798918
-0.012037992
-0.011261682
-0.010475813
-0.0096858067
-0.0088965801
-0.0081124647
-0.0073371313
-0.0065735239
-0.0058238048
-0.0050892747
-0.0043704152
-0.0036663782
-0.0029769519
-0.0022936463
-0.0016389729
-0.00090169539
-0.00058752716
-0.0064444184
-0.0071123131
-0.0078024058
-0.0085237754
-0.0092404657
-0.0099380124
-0.010617881
-0.011280353
-0.011921328
-0.012535648
-0.013118832
-0.013666775
-0.014175293
-0.01464012
-0.015057098
-0.015422294
-0.015732062
-0.015983108
-0.016172562
-0.016298063
-0.016357822
-0.016350686
-0.016276179
-0.016134542
-0.015926745
-0.015654489
-0.015320187
-0.014926922
-0.014478398
-0.013978861
-0.013433014
-0.012845917
-0.01222288
-0.011569348
-0.010890788
-0.01019257
-0.0094798584
-0.0087575073
-0.0080299596
-0.0073011565
-0.0065744513
-0.0058525333
-0.0051373318
-0.0044300345
-0.0037305967
-0.0030395631
-0.0023496718
-0.0016830695
-0.0009341616
-0.00059200399
-0.0041755315
-0.0048043633
-0.0054520393
-0.0061249044
-0.0067969958
-0.0074576334
-0.0081074929
-0.0087463702
-0.0093708631
-0.0099767348
-0.010560156
-0.011117493
-0.01164498
-0.012138716
-0.012594802
-0.013009429
-0.013378933
-0.013699845
-0.013968964
-0.014183426
-0.014340771
-0.014439011
-0.014476681
-0.014452892
-0.014367367
-0.014220465
-0.014013192
-0.013747194
-0.013424737
-0.013048667
-0.012622357
-0.012149636
-0.011634714
-0.011082083
-0.010496425
-0.0098825074
-0.0092450723
-0.008588734
-0.007917872
-0.0072365279
-0.0065483058
-0.0058562792
-0.0051628798
-0.0044698929
-0.0037779809
-0.0030883756
-0.002394931
-0.001719523
-0.00096167918
-0.00059521466
-0.0022705735
-0.0028646276
-0.0034746068
-0.0041044514
-0.0047362983
-0.0053625845
-0.0059833669
-0.0065980522
-0.0072038215
-0.0077972216
-0.0083750034
-0.0089339794
-0.0094707991
-0.0099819489
-0.010463843
-0.010912891
-0.011325537
-0.011698306
-0.012027859
-0.01231106
-0.012545033
-0.012727227
-0.012855476
-0.01292805
-0.012943714
-0.012901757
-0.012802034
-0.012644979
-0.012431612
-0.012163529
-0.011842882
-0.011472336
-0.011055017
-0.010594452
-0.010094483
-0.0095591859
-0.0089927718
-0.0083994875
-0.0077835097
-0.0071488372
-0.0064991825
-0.0058378664
-0.0051676952
-0.0044909355
-0.0038088476
-0.0031232652
-0.0024290367
-0.0017478275
-0.00098380232
-0.00059690524
-0.00073448327
-0.0012999307
-0.0018786247
-0.0024727583
-0.0030708152
-0.003667651
-0.0042628321
-0.0048554653
-0.0054432017
-0.0060232227
-0.0065927636
-0.0071490246
-0.0076890297
-0.0082096265
-0.0087075451
-0.0091794429
-0.0096219368
-0.010031639
-0.010405204
-0.010739378
-0.01103106
-0.011277351
-0.011475616
-0.011623542
-0.011719193
-0.011761058
-0.0117481
-0.011679787
-0.011556126
-0.01137767
-0.011145523
-0.01086133
-0.010527244
-0.010145891
-0.0097203076
-0.0092538794
-0.0087502542
-0.0082132537
-0.0076467722
-0.0070546701
-0.0064406609
-0.0058081993
-0.0051603487
-0.0044997408
-0.0038281166
-0.0031478091
-0.0024545235
-0.0017697374
-0.0010017389
-0.00059777088
0.00048007528
-6.1691908e-05
-0.00061467527
-0.0011794892
-0.0017495027
-0.0023214788
-0.0028946157
-0.0034677796
-0.0040389787
-0.0046058886
-0.0051661301
-0.0057172197
-0.0062564941
-0.0067811099