/*--------------------------------*- C++ -*----------------------------------*\
| =========                 |                                                 |
| \\      /  F ield         | OpenFOAM: The Open Source CFD Toolbox           |
|  \\    /   O peration     | Version:  4.1                                   |
|   \\  /    A nd           | Web:      www.OpenFOAM.org                      |
|    \\/     M anipulation  |                                                 |
\*---------------------------------------------------------------------------*/
FoamFile
{
    version     2.0;
    format      ascii;
    class       volScalarField;
    location    "9";
    object      p;
}
// * * * * * * * * * * * * * * * * * * * * * * * * * * * * * * * * * * * * * //

dimensions      [0 2 -2 0 0 0 0];

internalField   nonuniform List<scalar> 
1000
(
1.522292
1.5052823
1.4888107
1.4726979
1.4567986
1.4410318
1.4253578
1.4097557
1.3942115
1.3787133
1.3632518
1.3478202
1.3324138
1.3170295
1.3016644
1.2863165
1.2709838
1.2556646
1.2403576
1.2250614
1.209775
1.1944974
1.1792277
1.163965
1.1487086
1.1334579
1.1182123
1.1029712
1.0877342
1.0725008
1.0572706
1.0420432
1.0268184
1.0115957
0.99637503
0.98115602
0.96593845
0.95072212
0.93550684
0.92029243
0.90507874
0.88986564
0.874653
0.85944073
0.84422873
0.82901695
0.81380532
0.79859379
0.78338235
0.76817096
0.75295961
0.73774827
0.72253695
0.70732564
0.69211433
0.67690303
0.66169172
0.64648042
0.63126912
0.61605781
0.60084651
0.5856352
0.5704239
0.55521259
0.54000129
0.52478999
0.50957868
0.49436738
0.47915607
0.46394477
0.44873346
0.43352216
0.41831085
0.40309955
0.38788825
0.37267694
0.35746564
0.34225433
0.32704303
0.31183172
0.29662042
0.28140912
0.26619781
0.25098651
0.2357752
0.2205639
0.20535259
0.19014129
0.17492999
0.15971868
0.14450738
0.12929607
0.11408477
0.098873465
0.083662161
0.068450857
0.053239553
0.03802825
0.022816948
0.0076056477
1.5219265
1.5049044
1.4887218
1.4728137
1.4569589
1.4411629
1.4254568
1.4098368
1.3942821
1.3787744
1.3633035
1.3478635
1.3324505
1.3170609
1.3016917
1.2863402
1.2710045
1.2556828
1.2403736
1.2250755
1.2097874
1.1945083
1.1792372
1.1639733
1.1487159
1.1334643
1.1182179
1.102976
1.0877383
1.0725043
1.0572736
1.0420457
1.0268205
1.0115975
0.99637645
0.98115715
0.96593935
0.95072282
0.93550737
0.92029283
0.90507904
0.88986585
0.87465315
0.85944083
0.8442288
0.82901699
0.81380534
0.79859381
0.78338236
0.76817096
0.75295961
0.73774827
0.72253695
0.70732564
0.69211433
0.67690303
0.66169172
0.64648042
0.63126911
0.61605781
0.60084651
0.5856352
0.5704239
0.55521259
0.54000129
0.52478999
0.50957868
0.49436738
0.47915607
0.46394477
0.44873346
0.43352216
0.41831085
0.40309955
0.38788825
0.37267694
0.35746564
0.34225433
0.32704303
0.31183172
0.29662042
0.28140912
0.26619781
0.25098651
0.2357752
0.2205639
0.20535259
0.19014129
0.17492999
0.15971868
0.14450738
0.12929607
0.11408477
0.098873465
0.08366216
0.068450856
0.053239552
0.038028249
0.022816946
0.0076056464
1.5212845
1.5041468
1.4883635
1.4728126
1.4570854
1.4412753
1.4255306
1.4098924
1.3943342
1.3788241
1.3633473
1.3479001
1.3324809
1.3170867
1.3017139
1.2863596
1.2710213
1.2556974
1.2403863
1.2250867
1.2097972
1.1945169
1.1792448
1.16398
1.1487218
1.1334694
1.1182223
1.1029799
1.0877417
1.0725073
1.0572761
1.0420479
1.0268223
1.011599
0.99637776
0.98115824
0.96594024
0.95072355
0.93550795
0.92029329
0.9050794
0.88986613
0.87465335
0.85944098
0.84422891
0.82901707
0.81380539
0.79859385
0.78338238
0.76817098
0.75295962
0.73774828
0.72253695
0.70732564
0.69211433
0.67690303
0.66169172
0.64648042
0.63126911
0.61605781
0.60084651
0.5856352
0.5704239
0.55521259
0.54000129
0.52478999
0.50957868
0.49436738
0.47915607
0.46394477
0.44873346
0.43352216
0.41831085
0.40309955
0.38788825
0.37267694
0.35746564
0.34225433
0.32704303
0.31183172
0.29662042
0.28140912
0.26619781
0.25098651
0.2357752
0.2205639
0.20535259
0.19014129
0.17492999
0.15971868
0.14450738
0.12929607
0.11408477
0.098873464
0.08366216
0.068450856
0.053239551
0.038028247
0.022816944
0.0076056446
1.5206666
1.5033556
1.4879202
1.4727444
1.4571837
1.4413803
1.4256004
1.409944
1.3943846
1.3788752
1.3633943
1.3479401
1.3325142
1.3171149
1.3017383
1.2863809
1.2710399
1.2557136
1.2404005
1.2250992
1.2098083
1.1945267
1.1792535
1.1639877
1.1487286
1.1334755
1.1182277
1.1029847
1.0877459
1.0725109
1.0572794
1.0420508
1.0268248
1.0116012
0.99637962
0.98115983
0.9659416
0.95072468
0.9355089
0.92029407
0.90508003
0.88986663
0.87465376
0.85944129
0.84422914
0.82901724
0.81380552
0.79859394
0.78338245
0.76817102
0.75295965
0.7377483
0.72253697
0.70732565
0.69211434
0.67690303
0.66169172
0.64648042
0.63126912
0.61605781
0.60084651
0.5856352
0.5704239
0.55521259
0.54000129
0.52478999
0.50957868
0.49436738
0.47915607
0.46394477
0.44873346
0.43352216
0.41831085
0.40309955
0.38788825
0.37267694
0.35746564
0.34225433
0.32704303
0.31183172
0.29662042
0.28140912
0.26619781
0.25098651
0.2357752
0.2205639
0.20535259
0.19014129
0.17492999
0.15971868
0.14450738
0.12929607
0.11408477
0.098873464
0.083662159
0.068450855
0.05323955
0.038028245
0.022816941
0.0076056431
1.5203044
1.5028719
1.4876296
1.4726853
1.4572388
1.4414464
1.4256456
1.4099774
1.3944177
1.3789098
1.363427
1.3479685
1.3325382
1.3171355
1.3017563
1.2863967
1.2710539
1.2557259
1.2404113
1.2251087
1.2098168
1.1945342
1.1792602
1.1639937
1.1487339
1.1334802
1.1182319
1.1029884
1.0877493
1.0725139
1.057282
1.0420531
1.0268269
1.011603
0.99638118
0.98116119
0.96594276
0.95072568
0.93550974
0.92029477
0.9050806
0.8898671
0.87465412
0.85944158
0.84422937
0.82901741
0.81380565
0.79859403
0.78338251
0.76817107
0.75295968
0.73774832
0.72253698
0.70732566
0.69211434
0.67690303
0.66169173
0.64648042
0.63126912
0.61605781
0.60084651
0.5856352
0.5704239
0.55521259
0.54000129
0.52478999
0.50957868
0.49436738
0.47915607
0.46394477
0.44873346
0.43352216
0.41831085
0.40309955
0.38788825
0.37267694
0.35746564
0.34225433
0.32704303
0.31183172
0.29662042
0.28140912
0.26619781
0.25098651
0.2357752
0.2205639
0.20535259
0.19014129
0.17492999
0.15971868
0.14450738
0.12929607
0.11408477
0.098873464
0.083662159
0.068450854
0.053239549
0.038028244
0.02281694
0.0076056424
1.5203044
1.5028719
1.4876296
1.4726853
1.4572388
1.4414464
1.4256456
1.4099774
1.3944177
1.3789098
1.363427
1.3479685
1.3325382
1.3171355
1.3017563
1.2863967
1.2710539
1.2557259
1.2404113
1.2251087
1.2098168
1.1945342
1.1792602
1.1639937
1.1487339
1.1334802
1.1182319
1.1029884
1.0877493
1.0725139
1.057282
1.0420531
1.0268269
1.011603
0.99638118
0.98116119
0.96594276
0.95072567
0.93550974
0.92029477
0.9050806
0.8898671
0.87465412
0.85944158
0.84422937
0.82901741
0.81380565
0.79859403
0.78338251
0.76817107
0.75295968
0.73774832
0.72253698
0.70732566
0.69211434
0.67690303
0.66169173
0.64648042
0.63126912
0.61605781
0.60084651
0.5856352
0.5704239
0.55521259
0.54000129
0.52478999
0.50957868
0.49436738
0.47915607
0.46394477
0.44873346
0.43352216
0.41831085
0.40309955
0.38788825
0.37267694
0.35746564
0.34225433
0.32704303
0.31183172
0.29662042
0.28140912
0.26619781
0.25098651
0.2357752
0.2205639
0.20535259
0.19014129
0.17492999
0.15971868
0.14450738
0.12929607
0.11408477
0.098873463
0.083662159
0.068450854
0.053239549
0.038028244
0.02281694
0.0076056425
1.5206666
1.5033556
1.4879202
1.4727444
1.4571837
1.4413803
1.4256004
1.409944
1.3943846
1.3788752
1.3633943
1.3479401
1.3325142
1.3171149
1.3017383
1.2863809
1.2710399
1.2557136
1.2404005
1.2250992
1.2098083
1.1945267
1.1792535
1.1639877
1.1487286
1.1334755
1.1182277
1.1029847
1.0877459
1.0725109
1.0572794
1.0420508
1.0268248
1.0116012
0.99637962
0.98115983
0.96594159
0.95072468
0.9355089
0.92029407
0.90508003
0.88986663
0.87465376
0.85944129
0.84422914
0.82901724
0.81380552
0.79859394
0.78338245
0.76817103
0.75295965
0.7377483
0.72253697
0.70732565
0.69211434
0.67690303
0.66169172
0.64648042
0.63126912
0.61605781
0.60084651
0.5856352
0.5704239
0.55521259
0.54000129
0.52478999
0.50957868
0.49436738
0.47915607
0.46394477
0.44873346
0.43352216
0.41831085
0.40309955
0.38788825
0.37267694
0.35746564
0.34225433
0.32704303
0.31183172
0.29662042
0.28140912
0.26619781
0.25098651
0.2357752
0.2205639
0.20535259
0.19014129
0.17492999
0.15971868
0.14450738
0.12929607
0.11408477
0.098873463
0.083662159
0.068450854
0.05323955
0.038028246
0.022816942
0.0076056433
1.5212845
1.5041469
1.4883635
1.4728126
1.4570854
1.4412753
1.4255306
1.4098924
1.3943342
1.3788241
1.3633473
1.3479001
1.3324809
1.3170867
1.3017139
1.2863596
1.2710213
1.2556974
1.2403863
1.2250867
1.2097972
1.1945169
1.1792448
1.16398
1.1487218
1.1334694
1.1182223
1.1029799
1.0877417
1.0725073
1.0572761
1.0420479
1.0268223
1.011599
0.99637776
0.98115824
0.96594024
0.95072354
0.93550795
0.92029329
0.9050794
0.88986612
0.87465336
0.85944098
0.84422891
0.82901707
0.8138054
0.79859385
0.78338238
0.76817098
0.75295962
0.73774828
0.72253696
0.70732564
0.69211433
0.67690303
0.66169172
0.64648042
0.63126912
0.61605781
0.60084651
0.5856352
0.5704239
0.55521259
0.54000129
0.52478999
0.50957868
0.49436738
0.47915607
0.46394477
0.44873346
0.43352216
0.41831085
0.40309955
0.38788825
0.37267694
0.35746564
0.34225433
0.32704303
0.31183172
0.29662042
0.28140912
0.26619781
0.25098651
0.2357752
0.2205639
0.20535259
0.19014129
0.17492999
0.15971868
0.14450738
0.12929607
0.11408477
0.098873464
0.083662159
0.068450855
0.053239551
0.038028248
0.022816944
0.0076056447
1.5219265
1.5049045
1.4887218
1.4728137
1.4569589
1.4411629
1.4254568
1.4098368
1.3942821
1.3787744
1.3633035
1.3478635
1.3324505
1.3170609
1.3016917
1.2863402
1.2710045
1.2556828
1.2403736
1.2250755
1.2097874
1.1945083
1.1792372
1.1639733
1.1487159
1.1334643
1.1182178
1.102976
1.0877383
1.0725043
1.0572736
1.0420457
1.0268205
1.0115975
0.99637645
0.98115715
0.96593935
0.95072282
0.93550737
0.92029283
0.90507904
0.88986585
0.87465315
0.85944083
0.8442288
0.82901699
0.81380534
0.79859381
0.78338236
0.76817097
0.75295961
0.73774827
0.72253695
0.70732564
0.69211433
0.67690303
0.66169172
0.64648042
0.63126912
0.61605781
0.60084651
0.5856352
0.5704239
0.55521259
0.54000129
0.52478999
0.50957868
0.49436738
0.47915607
0.46394477
0.44873346
0.43352216
0.41831085
0.40309955
0.38788825
0.37267694
0.35746564
0.34225433
0.32704303
0.31183172
0.29662042
0.28140912
0.26619781
0.25098651
0.2357752
0.2205639
0.20535259
0.19014129
0.17492999
0.15971868
0.14450738
0.12929607
0.11408477
0.098873464
0.08366216
0.068450856
0.053239552
0.03802825
0.022816946
0.0076056465
1.522292
1.5052823
1.4888107
1.4726979
1.4567986
1.4410318
1.4253578
1.4097557
1.3942115
1.3787133
1.3632518
1.3478202
1.3324138
1.3170295
1.3016644
1.2863165
1.2709838
1.2556646
1.2403576
1.2250614
1.209775
1.1944974
1.1792277
1.163965
1.1487086
1.1334579
1.1182123
1.1029712
1.0877342
1.0725008
1.0572706
1.0420432
1.0268184
1.0115957
0.99637503
0.98115601
0.96593845
0.95072212
0.93550684
0.92029243
0.90507874
0.88986564
0.874653
0.85944073
0.84422873
0.82901695
0.81380532
0.7985938
0.78338235
0.76817096
0.75295961
0.73774827
0.72253695
0.70732564
0.69211433
0.67690303
0.66169172
0.64648042
0.63126912
0.61605781
0.60084651
0.5856352
0.5704239
0.55521259
0.54000129
0.52478999
0.50957868
0.49436738
0.47915607
0.46394477
0.44873346
0.43352216
0.41831085
0.40309955
0.38788825
0.37267694
0.35746564
0.34225433
0.32704303
0.31183172
0.29662042
0.28140912
0.26619781
0.25098651
0.2357752
0.2205639
0.20535259
0.19014129
0.17492999
0.15971868
0.14450738
0.12929607
0.11408477
0.098873464
0.08366216
0.068450856
0.053239553
0.03802825
0.022816948
0.0076056478
)
;

boundaryField
{
    top
    {
        type            zeroGradient;
    }
    inlet
    {
        type            fixedValue;
        value           uniform 1.53103;
    }
    outlet
    {
        type            fixedValue;
        value           uniform 0;
    }
    bottom
    {
        type            zeroGradient;
    }
    back
    {
        type            empty;
    }
    front
    {
        type            empty;
    }
}


// ************************************************************************* //
