/*--------------------------------*- C++ -*----------------------------------*\
| =========                 |                                                 |
| \\      /  F ield         | OpenFOAM: The Open Source CFD Toolbox           |
|  \\    /   O peration     | Version:  4.1                                   |
|   \\  /    A nd           | Web:      www.OpenFOAM.org                      |
|    \\/     M anipulation  |                                                 |
\*---------------------------------------------------------------------------*/
FoamFile
{
    version     2.0;
    format      ascii;
    class       surfaceScalarField;
    location    "9";
    object      phi;
}
// * * * * * * * * * * * * * * * * * * * * * * * * * * * * * * * * * * * * * //

dimensions      [0 3 -1 0 0 0 0];

internalField   nonuniform List<scalar> 
1890
(
0.0024236699
3.4869853e-06
0.002412757
1.0913271e-05
0.0024002871
1.2469449e-05
0.0023898365
1.0449862e-05
0.002381989
7.846794e-06
0.0023760085
5.9800515e-06
0.0023711788
4.8291995e-06
0.0023671371
4.0413617e-06
0.0023637309
3.4059532e-06
0.0023608595
2.8711964e-06
0.0023584221
2.4373305e-06
0.0023563264
2.0955726e-06
0.0023545026
1.8238131e-06
0.0023529025
1.6000936e-06
0.0023514926
1.4100246e-06
0.0023502468
1.2458583e-06
0.0023491438
1.1030577e-06
0.0023481658
9.7812282e-07
0.0023472978
8.6807114e-07
0.0023465274
7.7049005e-07
0.002345844
6.835548e-07
0.0023452382
6.0586734e-07
0.002344702
5.3631027e-07
0.0023442282
4.7393784e-07
0.0023438104
4.1794652e-07
0.0023434429
3.676418e-07
0.0023431206
3.2243e-07
0.002342839
2.8179068e-07
0.0023425938
2.4527262e-07
0.0023423815
2.1247661e-07
0.0023421985
1.8305781e-07
0.002342042
1.5671453e-07
0.0023419089
1.3318985e-07
0.0023417967
1.1226133e-07
0.0023417031
9.3739049e-08
0.0023416258
7.7455185e-08
0.0023415626
6.3258599e-08
0.0023415117
5.1005612e-08
0.0023414713
4.0554041e-08
0.0023414396
3.1758515e-08
0.0023414153
2.4466859e-08
0.0023413968
1.8521684e-08
0.0023413831
1.3759915e-08
0.0023413732
1.0019497e-08
0.0023413661
7.1401476e-09
0.0023413612
4.9720312e-09
0.0023413578
3.3760216e-09
0.0023413556
2.2307582e-09
0.0023413542
1.4294052e-09
0.0023413534
8.8519689e-10
0.0023413529
5.2604129e-10
0.0023413526
2.9782126e-10
0.0023413524
1.5774003e-10
0.0023413524
7.637018e-11
0.0023413524
3.1157181e-11
0.0023413523
8.1616423e-12
0.0023413524
-1.1526388e-12
0.0023413524
-4.3280922e-12
0.0023413524
-4.893886e-12
0.0023413524
-3.5465912e-12
0.0023413524
-2.5294849e-12
0.0023413524
-1.0771906e-12
0.0023413524
-4.8557946e-13
0.0023413524
3.1439642e-13
0.0023413524
3.147091e-13
0.0023413524
7.4396659e-13
0.0023413524
4.5320703e-13
0.0023413524
7.0350596e-13
0.0023413524
3.4177145e-13
0.0023413524
5.518764e-13
0.0023413524
1.9260932e-13
0.0023413524
3.873217e-13
0.0023413524
7.8985742e-14
0.0023413524
2.8585699e-13
0.0023413524
6.5456248e-15
0.0023413524
2.1421229e-13
0.0023413524
-3.579229e-14
0.0023413524
2.0013182e-13
0.0023413524
-4.6896164e-14
0.0023413524
1.9127902e-13
0.0023413524
-2.8384961e-14
0.0023413524
2.2244434e-13
0.0023413524
1.1460739e-14
0.0023413524
2.6314929e-13
0.0023413524
8.1389242e-14
0.0023413524
3.6379675e-13
0.0023413524
2.1569542e-13
0.0023413524
5.2348446e-13
0.0023413524
5.0355954e-13
0.0023413524
8.5585655e-13
0.0023413524
1.1582778e-12
0.0023413524
1.6527592e-12
0.0023413524
2.7878395e-12
0.0023413524
4.109967e-12
0.0023413524
7.9482947e-12
0.0023413523
1.2553055e-11
0.0023413523
2.3439271e-11
0.0023413523
3.604232e-11
0.0023413522
7.0116628e-11
9.6486757e-11
0.0058545148
3.911963e-06
0.0058498592
1.5569557e-05
0.0058418827
2.0445766e-05
0.0058330458
1.9286058e-05
0.0058247476
1.6144397e-05
0.0058172532
1.3473972e-05
0.0058104725
1.1609556e-05
0.0058043473
1.0166242e-05
0.0057988766
8.8763735e-06
0.0057940437
7.7039432e-06
0.0057897922
6.6887031e-06
0.0057860475
5.8401688e-06
0.0057827397
5.1315895e-06
0.0057798113
4.5285317e-06
0.0057772153
4.0060828e-06
0.0057749117
3.5494643e-06
0.0057728659
3.1488553e-06
0.0057710481
2.7960653e-06
0.0057694323
2.4838569e-06
0.0057679967
2.2062237e-06
0.0057667219
1.9584184e-06
0.0057655912
1.736687e-06
0.0057645896
1.5379428e-06
0.0057637041
1.3595759e-06
0.0057629228
1.199344e-06
0.0057622352
1.0553195e-06
0.0057616319
9.2583009e-07
0.0057611044
8.0941883e-07
0.0057606449
7.0480385e-07
0.0057602467
6.1086005e-07
0.0057599032
5.2659927e-07
0.0057596089
4.5116168e-07
0.0057593584
3.8380125e-07
0.0057591469
3.2387468e-07
0.0057589699
2.7082441e-07
0.0057588233
2.2416064e-07
0.0057587032
1.8344118e-07
0.005758606
1.4825002e-07
0.0057585285
1.1818047e-07
0.0057584675
9.2818982e-08
0.0057584203
7.1739555e-08
0.0057583844
5.4498841e-08
0.0057583576
4.0643885e-08
0.005758338
2.9717383e-08
0.0057583239
2.1273299e-08
0.005758314
1.488531e-08
0.0057583073
1.0162337e-08
0.0057583028
6.7532038e-09
0.0057582999
4.3559009e-09
0.0057582981
2.715663e-09
0.005758297
1.6275979e-09
0.0057582964
9.2919216e-10
0.0057582961
4.9827229e-10
0.0057582959
2.4365789e-10
0.0057582959
1.0229379e-10
0.0057582958
2.9126115e-11
0.0057582959
-3.3482558e-12
0.0057582959
-1.5440149e-11
0.0057582959
-1.6500868e-11
0.0057582959
-1.3707513e-11
0.0057582959
-9.3453238e-12
0.0057582959
-5.7924672e-12
0.0057582959
-2.7758859e-12
0.0057582959
-9.8421949e-13
0.0057582959
3.5127513e-13
0.0057582959
7.887867e-13
0.0057582959
1.2278184e-12
0.0057582959
1.0488858e-12
0.0057582959
1.1599102e-12
0.0057582959
8.4467446e-13
0.0057582959
8.4897569e-13
0.0057582959
5.2931922e-13
0.0057582959
5.6080299e-13
0.0057582959
3.2464474e-13
0.0057582959
3.6284652e-13
0.0057582959
1.7640126e-13
0.0057582959
2.5885621e-13
0.0057582959
1.4047193e-13
0.0057582959
2.3580615e-13
0.0057582959
1.2689304e-13
0.0057582959
2.8103701e-13
0.0057582959
1.9483691e-13
0.0057582959
3.9306606e-13
0.0057582959
2.8433386e-13
0.0057582959
5.9289819e-13
0.0057582959
5.0030822e-13
0.0057582959
9.4901105e-13
0.0057582959
8.4315549e-13
0.0057582959
1.6272549e-12
0.0057582959
1.6040983e-12
0.0057582959
3.0741498e-12
0.0057582959
3.3416814e-12
0.0057582959
6.5605346e-12
0.0057582959
8.642851e-12
0.0057582959
1.6400845e-11
0.0057582959
2.3981631e-11
0.0057582959
4.1387455e-11
0.0057582958
6.2082381e-11
0.0057582958
9.6029447e-11
1.2864877e-10
0.0081330297
2.8024029e-06
0.0081356198
1.2980004e-05
0.0081375136
1.8551597e-05
0.0081380909
1.8708096e-05
0.0081377465
1.6488226e-05
0.0081368293
1.4390837e-05
0.0081355321
1.2906375e-05
0.008133986
1.1712057e-05
0.0081323135
1.0548592e-05
0.0081306136
9.4037061e-06
0.0081289501
8.3521632e-06
0.0081273583
7.431826e-06
0.0081258577
6.6321878e-06
0.0081244587
5.9274583e-06
0.0081231662
5.2986227e-06
0.0081219802
4.735474e-06
0.0081208977
4.2313731e-06
0.0081199139
3.7799542e-06
0.0081190229
3.3748882e-06
0.0081182186
3.010549e-06
0.0081174948
2.6823043e-06
0.0081168452
2.3863266e-06
0.0081162639
2.119341e-06
0.0081157451
1.8784565e-06
0.0081152834
1.6611135e-06
0.0081148737
1.4650396e-06
0.0081145114
1.2882208e-06
0.0081141921
1.1288567e-06
0.0081139116
9.8533821e-07
0.0081136663
8.5622174e-07
0.0081134528
7.4022311e-07
0.0081132678
6.3620201e-07
0.0081131085
5.4315812e-07
0.0081129723
4.6021444e-07
0.0081128566
3.8660644e-07
0.0081127592
3.2165931e-07
0.0081126779
2.6476813e-07
0.0081126109
2.153712e-07
0.0081125562
1.7292779e-07
0.0081125122
1.3689782e-07
0.0081124773
1.0672827e-07
0.00811245
8.1848145e-08
0.008112429
6.1668981e-08
0.0081124132
4.559559e-08
0.0081124015
3.3037111e-08
0.008112393
2.3425393e-08
0.008112387
1.6227358e-08
0.0081123828
1.0960993e-08
0.00811238
7.2010855e-09
0.0081123781
4.5870956e-09
0.008112377
2.8202073e-09
0.0081123763
1.6631815e-09
0.0081123758
9.3095202e-10
0.0081123756
4.8611817e-10
0.0081123755
2.2848371e-10
0.0081123754
8.8504757e-11
0.0081123754
1.9028845e-11
0.0081123754
-1.1200354e-11
0.0081123754
-2.0395019e-11
0.0081123754
-1.9452182e-11
0.0081123754
-1.5271126e-11
0.0081123754
-1.0170619e-11
0.0081123754
-6.0920419e-12
0.0081123754
-2.8689734e-12
0.0081123754
-8.9111815e-13
0.0081123754
4.6434047e-13
0.0081123754
9.4613073e-13
0.0081123754
1.3446177e-12
0.0081123754
1.2211919e-12
0.0081123754
1.2476874e-12
0.0081123754
9.5900797e-13
0.0081123754
8.9970044e-13
0.0081123754
6.43547e-13
0.0081123754
5.8499498e-13
0.0081123754
4.018321e-13
0.0081123754
3.7598087e-13
0.0081123754
2.8080354e-13
0.0081123754
2.907165e-13
0.0081123754
2.4726629e-13
0.0081123754
3.0266081e-13
0.0081123754
3.0461618e-13
0.0081123754
4.0897323e-13
0.0081123754
4.3815197e-13
0.0081123754
6.0373237e-13
0.0081123754
7.0441581e-13
0.0081123754
9.3033951e-13
0.0081123754
1.1663611e-12
0.0081123754
1.4748821e-12
0.0081123754
2.0550506e-12
0.0081123754
2.4905641e-12
0.0081123754
3.8465096e-12
0.0081123754
4.7694609e-12
0.0081123754
8.1855173e-12
0.0081123754
1.1387244e-11
0.0081123754
1.8804929e-11
0.0081123754
2.7511022e-11
0.0081123754
4.1683514e-11
0.0081123754
6.1267713e-11
0.0081123754
8.4227408e-11
1.0972502e-10
0.0095054187
1.3980586e-06
0.0095113528
7.0462525e-06
0.0095193596
1.0544531e-05
0.0095270533
1.1013817e-05
0.0095335973
9.9436911e-06
0.0095391346
8.8531144e-06
0.0095439406
8.1000718e-06
0.0095481518
7.5005437e-06
0.0095518163
6.8838769e-06
0.009554979
6.2408422e-06
0.0095577046
5.626426e-06
0.0095600629
5.0734285e-06
0.0095621139
4.5811617e-06
0.0095639043
4.136986e-06
0.0095654712
3.7317391e-06
0.0095668451
3.3615954e-06
0.009568052
3.0245245e-06
0.0095691138
2.7181507e-06
0.0095700491
2.4396338e-06
0.0095708734
2.1862868e-06
0.0095715999
1.9558059e-06
0.0095722401
1.7462494e-06
0.0095728036
1.5558624e-06
0.0095732991
1.3830438e-06
0.009573734
1.226298e-06
0.0095741148
1.0842684e-06
0.0095744474
9.5569935e-07
0.0095747369
8.3945335e-07
0.0095749878
7.3447482e-07
0.0095752043
6.3980957e-07
0.00957539
5.5458017e-07
0.0095755483
4.7800485e-07
0.0095756822
4.093769e-07
0.0095757944
3.4807646e-07
0.0095758875
2.9354982e-07
0.0095759639
2.4531112e-07
0.0095760259
2.0291969e-07
0.0095760753
1.6597201e-07
0.0095761143
1.3408117e-07
0.0095761444
1.0686587e-07
0.0095761672
8.3939149e-08
0.0095761842
6.4901473e-08
0.0095761966
4.9343115e-08
0.0095762054
3.6844202e-08
0.0095762115
2.698867e-08
0.0095762156
1.9367724e-08
0.0095762183
1.3598408e-08
0.00957622
9.3246773e-09
0.009576221
6.2339117e-09
0.0095762215
4.0517847e-09
0.0095762218
2.5533855e-09
0.0095762219
1.5517868e-09
0.009576222
9.0465751e-10
0.009576222
4.9936009e-10
0.009576222
2.5733173e-10
0.0095762219
1.1816169e-10
0.0095762219
4.459622e-11
0.0095762219
7.737198e-12
0.0095762219
-6.7719897e-12
0.0095762219
-1.164008e-11
0.0095762219
-1.015494e-11
0.0095762219
-8.2805169e-12
0.0095762219
-4.876083e-12
0.0095762219
-3.1525969e-12
0.0095762219
-9.7548032e-13
0.0095762219
-3.0108853e-13
0.0095762219
8.4927108e-13
0.0095762219
6.2276437e-13
0.0095762219
1.29165e-12
0.0095762219
7.0629062e-13
0.0095762219
1.1759238e-12
0.0095762219
5.2431453e-13
0.0095762219
8.9927242e-13
0.0095762219
2.8783153e-13
0.0095762219
6.6953452e-13
0.0095762219
1.4847524e-13
0.0095762219
5.2888715e-13
0.0095762219
7.5406627e-14
0.0095762219
5.1736975e-13
0.0095762219
1.1120331e-13
0.0095762219
6.0336571e-13
0.0095762219
2.0094425e-13
0.0095762219
8.1544887e-13
0.0095762219
4.1322711e-13
0.0095762219
1.1481425e-12
0.0095762219
7.4257443e-13
0.0095762219
1.710122e-12
0.0095762219
1.330225e-12
0.0095762219
2.641632e-12
0.0095762219
2.3288567e-12
0.0095762219
4.343358e-12
0.0095762219
4.6038032e-12
0.0095762219
8.1479019e-12
0.0095762219
1.0254388e-11
0.0095762219
1.5967084e-11
0.0095762219
2.1138972e-11
0.0095762219
2.9439964e-11
0.0095762219
4.0152166e-11
0.0095762219
5.1331665e-11
6.4512668e-11
0.010146821
3.3308303e-11
0.010153867
1.0619584e-10
0.010164412
4.2988406e-11
0.010175425
-2.1101533e-11
0.010185368
-2.070079e-11
0.010194221
4.40281e-13
0.01020232
-1.7513338e-12
0.010209821
-2.1143863e-11
0.010216704
-4.752215e-11
0.010222945
-7.1146e-11
0.010228571
-9.1517107e-11
0.010233645
-1.1966844e-10
0.010238226
-1.4387299e-10
0.010242363
-1.6724065e-10
0.010246095
-1.7953677e-10
0.010249457
-1.8847221e-10
0.010252482
-1.8715885e-10
0.0102552
-1.8326154e-10
0.01025764
-1.701704e-10
0.010259826
-1.5496003e-10
0.010261782
-1.3276115e-10
0.010263529
-1.1102875e-10
0.010265085
-8.5766819e-11
0.010266468
-6.3124895e-11
0.010267694
-3.9689117e-11
0.010268779
-2.0516038e-11
0.010269734
-2.2884885e-12
0.010270574
1.1534561e-11
0.010271309
2.4237958e-11
0.010271948
3.317715e-11
0.010272503
4.17796e-11
0.010272981
4.8361485e-11
0.01027339
5.5695435e-11
0.010273739
6.2466911e-11
0.010274032
7.0349028e-11
0.010274277
7.8418715e-11
0.01027448
8.7216088e-11
0.010274646
9.602289e-11
0.01027478
1.0436947e-10
0.010274887
1.1200958e-10
0.010274971
1.1794191e-10
0.010275036
1.2254501e-10
0.010275085
1.2446601e-10
0.010275122
1.2465629e-10
0.010275149
1.2175239e-10
0.010275168
1.1734113e-10
0.010275182
1.1001872e-10
0.010275191
1.0168361e-10
0.010275197
9.1075833e-11
0.010275201
8.0490634e-11
0.010275204
6.8625475e-11
0.010275205
5.7695786e-11
0.010275206
4.6396879e-11
0.010275206
3.6912236e-11
0.010275207
2.7670881e-11
0.010275207
2.0535638e-11
0.010275207
1.3983153e-11
0.010275207
9.803475e-12
0.010275207
5.7631725e-12
0.010275207
3.7013954e-12
0.010275207
1.6056113e-12
0.010275207
1.0688004e-12
0.010275207
1.6941721e-13
0.010275207
3.738623e-13
0.010275207
-8.0832166e-14
0.010275207
4.1177522e-13
0.010275207
1.2151239e-13
0.010275207
5.993436e-13
0.010275207
2.2680882e-13
0.010275207
6.6187344e-13
0.010275207
2.8270642e-13
0.010275207
6.3999212e-13
0.010275207
1.6431677e-13
0.010275207
5.2647713e-13
0.010275207
1.0628682e-13
0.010275207
4.6391658e-13
0.010275207
1.7991903e-14
0.010275207
4.3227779e-13
0.010275207
7.7585613e-14
0.010275207
5.1574369e-13
0.010275207
1.3667606e-13
0.010275207
6.4661245e-13
0.010275207
3.6962989e-13
0.010275207
9.1496282e-13
0.010275207
6.2692517e-13
0.010275207
1.2852096e-12
0.010275207
1.1442083e-12
0.010275207
1.8956214e-12
0.010275207
1.8429578e-12
0.010275207
2.7676655e-12
0.010275207
3.095931e-12
0.010275207
4.512391e-12
0.010275207
5.2684614e-12
0.010275207
7.4075896e-12
0.010275207
7.9909161e-12
0.010275207
9.4047314e-12
0.010275207
9.114369e-12
0.010275207
9.1072539e-12
0.010275207
8.2345321e-12
7.8147345e-12
0.01014682
-1.3981444e-06
0.010153867
-7.0465972e-06
0.010164411
-1.0544681e-05
0.010175425
-1.1013761e-05
0.010185368
-9.9436565e-06
0.01019422
-8.8531706e-06
0.01020232
-8.1001529e-06
0.01020982
-7.5006144e-06
0.010216704
-6.8839538e-06
0.010222945
-6.2409578e-06
0.010228571
-5.6265923e-06
0.010233645
-5.0736482e-06
0.010238226
-4.5814241e-06
0.010242363
-4.1372848e-06
0.010246095
-3.7320614e-06
0.010249457
-3.3619333e-06
0.010252481
-3.0248633e-06
0.0102552
-2.7184812e-06
0.010257639
-2.4399419e-06
0.010259826
-2.1865655e-06
0.010261782
-1.9560458e-06
0.010263528
-1.7464483e-06
0.010265084
-1.5560165e-06
0.010266467
-1.3831556e-06
0.010267694
-1.2263683e-06
0.010268778
-1.0843032e-06
0.010269734
-9.5570202e-07
0.010270573
-8.3943051e-07
0.010271308
-7.3443e-07
0.010271948
-6.3974802e-07
0.010272503
-5.545036e-07
0.010272981
-4.779157e-07
0.01027339
-4.0927465e-07
0.010273738
-3.4796128e-07
0.010274032
-2.934202e-07
0.010274277
-2.4516643e-07
0.01027448
-2.0275894e-07
0.010274646
-1.6579534e-07
0.01027478
-1.3388951e-07
0.010274887
-1.0666098e-07
0.010274971
-8.37239e-08
0.010275036
-6.4678941e-08
0.010275085
-4.9117678e-08
0.010275122
-3.6619678e-08
0.010275149
-2.6769849e-08
0.010275168
-1.9158104e-08
0.010275182
-1.3402348e-08
0.010275191
-9.1447144e-09
0.010275197
-6.0730557e-09
0.010275201
-3.9108017e-09
0.010275204
-2.4335302e-09
0.010275205
-1.4521189e-09
0.010275206
-8.2471234e-10
0.010275207
-4.3683253e-10
0.010275207
-2.1057908e-10
0.010275207
-8.4604073e-11
0.010275207
-2.186504e-11
0.010275207
7.7255813e-12
0.010275207
1.5565707e-11
0.010275207
1.6664786e-11
0.010275207
1.2206219e-11
0.010275207
9.2047697e-12
0.010275207
4.8315642e-12
0.010275207
3.1786337e-12
0.010275207
8.3185233e-13
0.010275207
6.3965125e-13
0.010275207
-4.4022095e-13
0.010275207
4.3064004e-14
0.010275207
-5.8432206e-13
0.010275207
1.716108e-13
0.010275207
-3.8818358e-13
0.010275207
3.1117162e-13
0.010275207
-3.1309828e-13
0.010275207
4.0788862e-13
0.010275207
-2.26338e-13
0.010275207
4.1062796e-13
0.010275207
-2.384114e-13
0.010275207
4.7820741e-13
0.010275207
-1.1778323e-13
0.010275207
5.416097e-13
0.010275207
-4.2002618e-14
0.010275207
7.4349702e-13
0.010275207
1.5446265e-13
0.010275207
9.8322147e-13
0.010275207
3.4333066e-13
0.010275207
1.3945861e-12
0.010275207
7.0599631e-13
0.010275207
1.9006655e-12
0.010275207
1.1222943e-12
0.010275207
2.5970608e-12
0.010275207
1.7066281e-12
0.010275207
3.3895101e-12
0.010275207
1.8143298e-12
0.010275207
2.7065884e-12
0.010275207
-1.1432463e-12
0.010275207
-4.2603819e-12
0.010275207
-1.2654515e-11
0.010275207
-2.3959361e-11
0.010275207
-3.6286791e-11
-5.0114703e-11
0.0095054187
-2.802362e-06
0.0095113527
-1.2979907e-05
0.0095193594
-1.8551665e-05
0.0095270532
-1.8708248e-05
0.0095335972
-1.6488325e-05
0.0095391345
-1.4390868e-05
0.0095439403
-1.2906401e-05
0.0095481515
-1.1712098e-05
0.0095518159
-1.0548664e-05
0.0095549786
-9.4037953e-06
0.0095577041
-8.3522807e-06
0.0095600624
-7.4319656e-06
0.0095621132
-6.6323643e-06
0.0095639036
-5.9276586e-06
0.0095654704
-5.2988505e-06
0.0095668442
-4.7357101e-06
0.0095680509
-4.2316179e-06
0.0095691127
-3.7801885e-06
0.0095700479
-3.3751123e-06
0.0095708722
-3.010747e-06
0.0095715987
-2.682479e-06
0.0095722388
-2.3864667e-06
0.0095728023
-2.1194524e-06
0.0095732977
-1.8785329e-06
0.0095737326
-1.6611637e-06
0.0095741135
-1.4650606e-06
0.0095744461
-1.288222e-06
0.0095747356
-1.1288368e-06
0.0095749865
-9.8530526e-07
0.0095752031
-8.5617426e-07
0.0095753888
-7.4016632e-07
0.0095755471
-6.3613358e-07
0.009575681
-5.4308064e-07
0.0095757933
-4.6012525e-07
0.0095758865
-3.8650645e-07
0.009575963
-3.2154687e-07
0.009576025
-2.6464383e-07
0.0095760745
-2.1523535e-07
0.0095761135
-1.7278143e-07
0.0095761437
-1.367434e-07
0.0095761666
-1.0656727e-07
0.0095761837
-8.1684597e-08
0.0095761962
-6.1504485e-08
0.009576205
-4.5434947e-08
0.0095762112
-3.2881398e-08
0.0095762154
-2.3279451e-08
0.0095762181
-1.6091487e-08
0.0095762199
-1.0839357e-08
0.0095762209
-7.0926797e-09
0.0095762215
-4.4949587e-09
0.0095762219
-2.7421584e-09
0.009576222
-1.6009443e-09
0.0095762221
-8.8104521e-10
0.0095762221
-4.4957818e-10
0.0095762222
-2.0140813e-10
0.0095762221
-7.1206003e-11
0.0095762221
-6.6946782e-12
0.0095762221
1.6942514e-11
0.0095762221
2.3970999e-11
0.0095762221
1.9578376e-11
0.0095762221
1.5436279e-11
0.0095762221
8.6946577e-12
0.0095762221
5.6008053e-12
0.0095762221
1.6526845e-12
0.0095762221
8.4431298e-13
0.0095762221
-1.010076e-12
0.0095762221
-3.4677621e-13
0.0095762221
-1.4241696e-12
0.0095762221
-2.9279935e-13
0.0095762221
-1.0509424e-12
0.0095762221
-1.078879e-16
0.0095762221
-7.8191457e-13
0.0095762221
2.6372428e-13
0.0095762221
-5.6007906e-13
0.0095762221
4.0221992e-13
0.0095762221
-5.179614e-13
0.0095762221
4.8197346e-13
0.0095762221
-3.8551107e-13
0.0095762221
5.6476322e-13
0.0095762221
-3.3812163e-13
0.0095762221
6.6659373e-13
0.0095762221
-1.1921672e-13
0.0095762221
8.0491167e-13
0.0095762221
2.2840374e-14
0.0095762221
1.020637e-12
0.0095762221
2.9350032e-13
0.0095762221
1.2911542e-12
0.0095762221
5.6268808e-13
0.0095762221
1.543401e-12
0.0095762221
9.2639775e-13
0.0095762221
1.5190807e-12
0.0095762221
7.7532957e-13
0.0095762222
-2.0009931e-13
0.0095762222
-2.6158954e-12
0.0095762222
-7.6962178e-12
0.0095762222
-1.5779047e-11
0.0095762222
-2.9282013e-11
0.0095762222
-4.9561807e-11
0.0095762222
-7.31829e-11
-9.8331319e-11
0.0081330292
-3.9119459e-06
0.0081356193
-1.5569517e-05
0.0081375132
-2.0445829e-05
0.0081380905
-1.9286259e-05
0.0081377462
-1.6144632e-05
0.008136829
-1.3474143e-05
0.0081355318
-1.1609664e-05
0.0081339856
-1.0166319e-05
0.0081323131
-8.876446e-06
0.008130613
-7.7040076e-06
0.0081289494
-6.6887607e-06
0.0081273575
-5.8402226e-06
0.0081258568
-5.1316535e-06
0.0081244577
-4.5286093e-06
0.0081231651
-4.0061772e-06
0.0081219789
-3.5495678e-06
0.0081208964
-3.1489645e-06
0.0081199124
-2.7961714e-06
0.0081190213
-2.4839572e-06
0.008118217
-2.2063117e-06
0.0081174931
-1.9584931e-06
0.0081168435
-1.736744e-06
0.0081162621
-1.5379833e-06
0.0081157433
-1.3595986e-06
0.0081152816
-1.1993519e-06
0.008114872
-1.055313e-06
0.0081145097
-9.2581259e-07
0.0081141904
-8.0939123e-07
0.00811391
-7.0476902e-07
0.0081136648
-6.1081828e-07
0.0081134513
-5.2655209e-07
0.0081132664
-4.5110864e-07
0.0081131072
-3.8374278e-07
0.008112971
-3.2381018e-07
0.0081128554
-2.7075385e-07
0.008112758
-2.2408392e-07
0.0081126769
-1.8335862e-07
0.0081126099
-1.4816253e-07
0.0081125553
-1.1808884e-07
0.0081125114
-9.2724893e-08
0.0081124766
-7.1644122e-08
0.0081124494
-5.4404317e-08
0.0081124286
-4.0551352e-08
0.0081124129
-2.9628969e-08
0.0081124012
-2.1189808e-08
0.0081123928
-1.4808727e-08
0.0081123869
-1.0092989e-08
0.0081123828
-6.6924079e-09
0.00811238
-4.303317e-09
0.0081123783
-2.6721204e-09
0.0081123771
-1.5921006e-09
0.0081123765
-9.0180099e-10
0.0081123761
-4.7763946e-10
0.0081123759
-2.2968789e-10
0.0081123758
-9.2634326e-11
0.0081123757
-2.3802638e-11
0.0081123757
6.0164986e-12
0.0081123757
1.5702985e-11
0.0081123757
1.5863593e-11
0.0081123758
1.2122338e-11
0.0081123758
7.9835672e-12
0.0081123758
4.157076e-12
0.0081123758
1.7191579e-12
0.0081123758
3.0202132e-14
0.0081123758
-7.0260969e-13
0.0081123758
-1.1562518e-12
0.0081123758
-1.0995045e-12
0.0081123758
-1.0391952e-12
0.0081123758
-7.1860803e-13
0.0081123758
-6.8313444e-13
0.0081123758
-4.2571324e-13
0.0081123758
-3.7761702e-13
0.0081123758
-1.3465812e-13
0.0081123758
-2.2725792e-13
0.0081123758
-5.1378689e-14
0.0081123758
-1.3067528e-13
0.0081123758
6.6890613e-14
0.0081123758
-6.1234992e-14
0.0081123758
8.7416919e-14
0.0081123758
5.0850208e-15
0.0081123758
2.1493656e-13
0.0081123758
1.1842305e-13
0.0081123758
2.388015e-13
0.0081123758
2.476228e-13
0.0081123758
4.0461324e-13
0.0081123758
3.9974864e-13
0.0081123758
4.5277847e-13
0.0081123758
5.9925784e-13
0.0081123758
5.5348689e-13
0.0081123758
6.6373084e-13
0.0081123758
1.2433664e-13
0.0081123758
-9.851587e-15
0.0081123758
-2.4440795e-12
0.0081123758
-4.4250488e-12
0.0081123758
-1.1174593e-11
0.0081123758
-1.7791916e-11
0.0081123758
-3.5197773e-11
0.0081123758
-5.6354003e-11
0.0081123758
-8.9640464e-11
-1.2126891e-10
0.0058545143
-3.4868774e-06
0.0058498586
-1.0913284e-05
0.0058418822
-1.2469598e-05
0.0058330454
-1.0450141e-05
0.0058247472
-7.847147e-06
0.0058172528
-5.9803929e-06
0.005810472
-4.8294532e-06
0.0058043468
-4.0415309e-06
0.005798876
-3.4060565e-06
0.005794043
-2.871264e-06
0.0057897915
-2.4373647e-06
0.0057860468
-2.0955879e-06
0.0057827389
-1.8238102e-06
0.0057798104
-1.600089e-06
0.0057772143
-1.4100156e-06
0.0057749106
-1.245853e-06
0.0057728648
-1.1030474e-06
0.0057710469
-9.7811271e-07
0.0057694311
-8.6805358e-07
0.0057679954
-7.7047026e-07
0.0057667206
-6.8352636e-07
0.0057655898
-6.058353e-07
0.0057645883
-5.3626966e-07
0.0057637027
-4.7389384e-07
0.0057629214
-4.178954e-07
0.0057622339
-3.6758848e-07
0.0057616306
-3.2237172e-07
0.0057611031
-2.8173176e-07
0.0057606437
-2.4521071e-07
0.0057602455
-2.1241501e-07
0.0057599021
-1.8299456e-07
0.0057596078
-1.5665194e-07
0.0057593574
-1.3312641e-07
0.0057591459
-1.1219841e-07
0.005758969
-9.3675849e-08
0.0057588225
-7.7392507e-08
0.0057587025
-6.3196556e-08
0.0057586054
-5.0944446e-08
0.005758528
-4.0494696e-08
0.0057584671
-3.1700735e-08
0.00575842
-2.441234e-08
0.0057583841
-1.8469553e-08
0.0057583574
-1.3712235e-08
0.0057583378
-9.974842e-09
0.0057583238
-7.1008405e-09
0.005758314
-4.9361847e-09
0.0057583073
-3.3457919e-09
0.0057583029
-2.2039551e-09
0.0057583
-1.4080692e-09
0.0057582983
-8.6694655e-10
0.0057582972
-5.1261413e-10
0.0057582966
-2.8676233e-10
0.0057582963
-1.5050824e-10
0.0057582962
-7.0599562e-11
0.0057582961
-2.8192042e-11
0.0057582961
-6.0158499e-12
0.0057582961
1.5404418e-12
0.0057582961
5.0224847e-12
0.0057582962
4.1096441e-12
0.0057582962
3.6406064e-12
0.0057582962
1.5169709e-12
0.0057582962
1.0630773e-12
0.0057582962
-2.9456701e-13
0.0057582962
-7.7302847e-14
0.0057582962
-9.0820561e-13
0.0057582962
-2.9202651e-13
0.0057582962
-8.7841333e-13
0.0057582962
-1.355098e-13
0.0057582962
-6.7887766e-13
0.0057582962
4.7707342e-15
0.0057582962
-5.2217694e-13
0.0057582962
1.8859957e-13
0.0057582962
-4.2627277e-13
0.0057582962
2.2833093e-13
0.0057582962
-3.7624598e-13
0.0057582962
3.0592239e-13
0.0057582962
-3.3934167e-13
0.0057582962
3.0254122e-13
0.0057582962
-3.158033e-13
0.0057582962
3.662498e-13
0.0057582962
-2.790958e-13
0.0057582962
3.678476e-13
0.0057582962
-2.5419497e-13
0.0057582962
4.4098065e-13
0.0057582962
-2.1112635e-13
0.0057582962
4.5107885e-13
0.0057582962
-1.9531677e-13
0.0057582962
5.3662671e-13
0.0057582962
-2.0311537e-13
0.0057582962
5.071881e-13
0.0057582962
-6.0680099e-13
0.0057582962
-1.7639762e-13
0.0057582962
-2.701029e-12
0.0057582962
-3.0594803e-12
0.0057582962
-7.6933639e-12
0.0057582962
-1.1497703e-11
0.0057582961
-2.3082949e-11
0.0057582961
-3.5398616e-11
0.0057582961
-6.8042057e-11
-9.3520414e-11
0.0024236699
0.0024127567
0.0024002868
0.0023898363
0.0023819888
0.0023760081
0.0023711784
0.0023671367
0.0023637305
0.0023608591
0.0023584217
0.0023563261
0.0023545023
0.0023529022
0.0023514922
0.0023502464
0.0023491434
0.0023481654
0.0023472974
0.002346527
0.0023458436
0.0023452378
0.0023447016
0.0023442278
0.00234381
0.0023434425
0.0023431202
0.0023428386
0.0023425935
0.0023423811
0.0023421982
0.0023420417
0.0023419086
0.0023417965
0.0023417029
0.0023416256
0.0023415625
0.0023415116
0.0023414712
0.0023414396
0.0023414152
0.0023413968
0.0023413831
0.0023413732
0.0023413661
0.0023413612
0.0023413579
0.0023413557
0.0023413543
0.0023413535
0.002341353
0.0023413527
0.0023413526
0.0023413525
0.0023413525
0.0023413525
0.0023413525
0.0023413525
0.0023413525
0.0023413525
0.0023413525
0.0023413525
0.0023413525
0.0023413525
0.0023413525
0.0023413525
0.0023413525
0.0023413525
0.0023413525
0.0023413525
0.0023413525
0.0023413525
0.0023413525
0.0023413525
0.0023413525
0.0023413525
0.0023413525
0.0023413525
0.0023413525
0.0023413525
0.0023413525
0.0023413525
0.0023413525
0.0023413525
0.0023413525
0.0023413525
0.0023413525
0.0023413525
0.0023413525
0.0023413525
0.0023413525
0.0023413525
0.0023413525
0.0023413525
0.0023413525
0.0023413525
0.0023413524
0.0023413524
0.0023413523
)
;

boundaryField
{
    top
    {
        type            calculated;
        value           uniform 0;
    }
    inlet
    {
        type            calculated;
        value           nonuniform List<scalar> 10(-0.0024271558 -0.0058549392 -0.0081319191 -0.0095040136 -0.010145422 -0.010145421 -0.0095040139 -0.0081319186 -0.0058549387 -0.0024271563);
    }
    outlet
    {
        type            calculated;
        value           nonuniform List<scalar> 10(0.0023413521 0.0057582958 0.0081123754 0.009576222 0.010275207 0.010275207 0.0095762223 0.0081123758 0.0057582961 0.0023413522);
    }
    bottom
    {
        type            calculated;
        value           uniform 0;
    }
    back
    {
        type            empty;
        value           nonuniform 0();
    }
    front
    {
        type            empty;
        value           nonuniform 0();
    }
}


// ************************************************************************* //
