/*--------------------------------*- C++ -*----------------------------------*\
| =========                 |                                                 |
| \\      /  F ield         | OpenFOAM: The Open Source CFD Toolbox           |
|  \\    /   O peration     | Version:  4.1                                   |
|   \\  /    A nd           | Web:      www.OpenFOAM.org                      |
|    \\/     M anipulation  |                                                 |
\*---------------------------------------------------------------------------*/
FoamFile
{
    version     2.0;
    format      ascii;
    class       volVectorField;
    location    "9";
    object      U;
}
// * * * * * * * * * * * * * * * * * * * * * * * * * * * * * * * * * * * * * //

dimensions      [0 1 -1 0 0 0 0];

internalField   nonuniform List<vector> 
1000
(
(0.25123856 0.00028258107 0)
(0.25059493 0.00076505395 0)
(0.24924672 0.00078430796 0)
(0.24797816 0.0005623506 0)
(0.24701869 0.0003542401 0)
(0.2463129 0.00023617579 0)
(0.24576191 0.00017890923 0)
(0.24530648 0.00014464914 0)
(0.24492249 0.00011762284 0)
(0.24459875 9.5874213e-05 0)
(0.2443253 7.9815158e-05 0)
(0.24409192 6.8395714e-05 0)
(0.24389004 5.9854431e-05 0)
(0.24371355 5.2884069e-05 0)
(0.24355829 4.6874425e-05 0)
(0.24342126 4.1612917e-05 0)
(0.24330004 3.6997156e-05 0)
(0.24319263 3.2927314e-05 0)
(0.24309733 2.9309253e-05 0)
(0.24301274 2.6070855e-05 0)
(0.24293768 2.3162918e-05 0)
(0.24287111 2.0548831e-05 0)
(0.24281215 1.8197975e-05 0)
(0.24275999 1.6082512e-05 0)
(0.24271396 1.4178006e-05 0)
(0.24267341 1.2462826e-05 0)
(0.24263779 1.0918363e-05 0)
(0.24260661 9.5279952e-06 0)
(0.24257942 8.2772551e-06 0)
(0.24255581 7.1532068e-06 0)
(0.24253541 6.1447437e-06 0)
(0.24251789 5.2421125e-06 0)
(0.24250295 4.4370577e-06 0)
(0.24249031 3.7223521e-06 0)
(0.24247971 3.0917702e-06 0)
(0.2424709 2.5396569e-06 0)
(0.24246367 2.0607702e-06 0)
(0.2424578 1.649955e-06 0)
(0.24245311 1.3019812e-06 0)
(0.24244941 1.0114291e-06 0)
(0.24244653 7.7261209e-07 0)
(0.24244434 5.7969215e-07 0)
(0.2424427 4.2669404e-07 0)
(0.24244149 3.0777768e-07 0)
(0.24244062 2.172588e-07 0)
(0.24244001 1.4991586e-07 0)
(0.24243959 1.0092516e-07 0)
(0.24243931 6.6172965e-08 0)
(0.24243913 4.2106891e-08 0)
(0.24243902 2.5937974e-08 0)
(0.24243895 1.5359756e-08 0)
(0.24243891 8.7124231e-09 0)
(0.24243889 4.6500222e-09 0)
(0.24243888 2.3169378e-09 0)
(0.24243887 1.0185627e-09 0)
(0.24243887 3.9254593e-10 0)
(0.24243887 3.3334511e-11 0)
(0.24243887 -7.3183097e-11 0)
(0.24243887 -1.0330685e-10 0)
(0.24243887 -6.0627536e-11 0)
(0.24243887 -4.2123242e-11 0)
(0.24243887 2.66016e-12 0)
(0.24243887 3.2220208e-12 0)
(0.24243887 3.2458821e-11 0)
(0.24243887 2.1146075e-11 0)
(0.24243887 3.822027e-11 0)
(0.24243887 1.8713481e-11 0)
(0.24243887 3.1577619e-11 0)
(0.24243887 1.106914e-11 0)
(0.24243887 2.4259107e-11 0)
(0.24243887 3.1081825e-12 0)
(0.24243887 1.7440864e-11 0)
(0.24243887 -2.3160765e-12 0)
(0.24243887 1.3925816e-11 0)
(0.24243887 -5.8198002e-12 0)
(0.24243887 1.1661207e-11 0)
(0.24243887 -6.630421e-12 0)
(0.24243887 1.1483037e-11 0)
(0.24243887 -7.1773235e-12 0)
(0.24243887 1.1025267e-11 0)
(0.24243887 -6.6537228e-12 0)
(0.24243887 1.1985208e-11 0)
(0.24243887 -5.4302721e-12 0)
(0.24243887 1.3437571e-11 0)
(0.24243887 -1.1733432e-12 0)
(0.24243887 1.8322264e-11 0)
(0.24243887 6.751097e-12 0)
(0.24243887 2.7262875e-11 0)
(0.24243887 2.4323528e-11 0)
(0.24243887 4.9581343e-11 0)
(0.24243887 6.411858e-11 0)
(0.24243887 1.0274237e-10 0)
(0.24243887 1.6830925e-10 0)
(0.24243887 2.6919158e-10 0)
(0.24243887 5.1511245e-10 0)
(0.24243887 8.5210754e-10 0)
(0.24243887 1.5739031e-09 0)
(0.24243887 2.4649225e-09 0)
(0.24243886 4.6111305e-09 0)
(0.24243885 6.0674454e-09 0)
(0.60604799 0.0003617451 0)
(0.60654254 0.0014394738 0)
(0.60561757 0.0018774855 0)
(0.60446563 0.0017184562 0)
(0.60350957 0.0013687605 0)
(0.60271724 0.0010778949 0)
(0.60200039 0.00088437313 0)
(0.60133385 0.00074671669 0)
(0.60072799 0.00063299511 0)
(0.60019147 0.00053527701 0)
(0.59972145 0.00045462502 0)
(0.59930905 0.00039035066 0)
(0.59894535 0.00033896478 0)
(0.59862348 0.00029666868 0)
(0.59833823 0.00026085397 0)
(0.59808527 0.00023004959 0)
(0.59786076 0.00020335531 0)
(0.59766133 0.00018007372 0)
(0.59748408 0.00015961776 0)
(0.59732654 0.0001415185 0)
(0.5971866 0.00012542147 0)
(0.59706241 0.00011105671 0)
(0.59695232 9.8208895e-05 0)
(0.59685489 8.6698285e-05 0)
(0.59676884 7.6372601e-05 0)
(0.59669301 6.7101796e-05 0)
(0.59662638 5.8774504e-05 0)
(0.59656801 5.1294116e-05 0)
(0.59651707 4.4576582e-05 0)
(0.59647281 3.8548369e-05 0)
(0.59643455 3.3145688e-05 0)
(0.59640165 2.8313303e-05 0)
(0.59637355 2.400388e-05 0)
(0.59634974 2.0176703e-05 0)
(0.59632972 1.6796636e-05 0)
(0.59631306 1.383256e-05 0)
(0.59629933 1.1256036e-05 0)
(0.59628816 9.0397873e-06 0)
(0.59627919 7.1566109e-06 0)
(0.59627208 5.5785055e-06 0)
(0.59626653 4.2763405e-06 0)
(0.59626228 3.2199155e-06 0)
(0.59625908 2.3784206e-06 0)
(0.59625671 1.7211901e-06 0)
(0.59625499 1.2185146e-06 0)
(0.59625378 8.425239e-07 0)
(0.59625294 5.6781102e-07 0)
(0.59625237 3.7205947e-07 0)
(0.596252 2.3622445e-07 0)
(0.59625177 1.4467242e-07 0)
(0.59625162 8.4872734e-08 0)
(0.59625154 4.7214672e-08 0)
(0.59625149 2.4448243e-08 0)
(0.59625147 1.1385095e-08 0)
(0.59625146 4.331731e-09 0)
(0.59625146 8.7428472e-10 0)
(0.59625146 -6.3074559e-10 0)
(0.59625146 -1.0513927e-09 0)
(0.59625146 -9.8644937e-10 0)
(0.59625146 -7.2385828e-10 0)
(0.59625146 -4.6473613e-10 0)
(0.59625146 -2.33497e-10 0)
(0.59625146 -8.924595e-11 0)
(0.59625146 1.7106988e-11 0)
(0.59625146 6.3288033e-11 0)
(0.59625146 9.8632629e-11 0)
(0.59625146 9.1908974e-11 0)
(0.59625146 9.4578218e-11 0)
(0.59625146 7.3411723e-11 0)
(0.59625146 7.1424638e-11 0)
(0.59625146 4.772254e-11 0)
(0.59625146 4.5537044e-11 0)
(0.59625146 2.6573474e-11 0)
(0.59625146 2.992667e-11 0)
(0.59625146 1.3586083e-11 0)
(0.59625146 1.828491e-11 0)
(0.59625146 7.0097399e-12 0)
(0.59625146 1.622269e-11 0)
(0.59625146 5.9799159e-12 0)
(0.59625146 1.4927872e-11 0)
(0.59625146 8.1272648e-12 0)
(0.59625146 2.079536e-11 0)
(0.59625146 1.5283175e-11 0)
(0.59625146 2.7523361e-11 0)
(0.59625146 2.8393539e-11 0)
(0.59625146 4.4494637e-11 0)
(0.59625146 5.3849539e-11 0)
(0.59625146 7.1108494e-11 0)
(0.59625146 1.0364509e-10 0)
(0.59625146 1.3066558e-10 0)
(0.59625146 2.1456068e-10 0)
(0.59625146 2.6659103e-10 0)
(0.59625146 4.8733102e-10 0)
(0.59625146 6.6903481e-10 0)
(0.59625146 1.2823022e-09 0)
(0.59625146 1.9114305e-09 0)
(0.59625146 3.4689178e-09 0)
(0.59625146 5.1677456e-09 0)
(0.59625144 8.7830171e-09 0)
(0.59625145 1.2495448e-08 0)
(0.84163043 0.00029043139 0)
(0.84316289 0.0013811373 0)
(0.84304146 0.0020285647 0)
(0.8426756 0.0020863539 0)
(0.84254813 0.001857309 0)
(0.84254219 0.0016064655 0)
(0.8424904 0.0014155602 0)
(0.84235524 0.0012643667 0)
(0.84217493 0.0011252698 0)
(0.84198798 0.00099265065 0)
(0.84180969 0.00087216809 0)
(0.84164128 0.00076766843 0)
(0.84148162 0.00067824548 0)
(0.84133119 0.00060095124 0)
(0.84119126 0.00053324569 0)
(0.84106257 0.00047354207 0)
(0.84094503 0.00042079014 0)
(0.84083809 0.00037409654 0)
(0.8407411 0.00033263302 0)
(0.8406534 0.00029567759 0)
(0.84057437 0.00026263971 0)
(0.84050335 0.00023304213 0)
(0.84043972 0.00020648867 0)
(0.84038285 0.00018264118 0)
(0.84033218 0.00016120731 0)
(0.84028716 0.00014193363 0)
(0.84024727 0.00012459949 0)
(0.84021206 0.00010901161 0)
(0.84018108 9.4999763e-05 0)
(0.84015393 8.2413749e-05 0)
(0.84013024 7.1121447e-05 0)
(0.84010966 6.1007274e-05 0)
(0.8400919 5.197082e-05 0)
(0.84007664 4.3925219e-05 0)
(0.84006365 3.6795305e-05 0)
(0.84005266 3.0515235e-05 0)
(0.84004344 2.5025976e-05 0)
(0.8400358 2.0272511e-05 0)
(0.84002953 1.6201442e-05 0)
(0.84002446 1.27589e-05 0)
(0.8400204 9.88938e-06 0)
(0.8400172 7.5352319e-06 0)
(0.84001473 5.6371505e-06 0)
(0.84001284 4.1351616e-06 0)
(0.84001143 2.9702027e-06 0)
(0.8400104 2.0856936e-06 0)
(0.84000966 1.429173e-06 0)
(0.84000914 9.5346021e-07 0)
(0.84000879 6.175222e-07 0)
(0.84000855 3.8674674e-07 0)
(0.8400084 2.3292712e-07 0)
(0.8400083 1.3375646e-07 0)
(0.84000825 7.2211967e-08 0)
(0.84000822 3.56965e-08 0)
(0.8400082 1.5219294e-08 0)
(0.84000819 4.5506238e-09 0)
(0.84000819 -3.6697186e-10 0)
(0.84000819 -2.1539337e-09 0)
(0.84000819 -2.4026514e-09 0)
(0.84000819 -2.0106562e-09 0)
(0.84000819 -1.4311404e-09 0)
(0.84000819 -8.9979446e-10 0)
(0.84000819 -4.8047794e-10 0)
(0.84000819 -1.980162e-10 0)
(0.84000819 -1.6665466e-11 0)
(0.84000819 8.1825205e-11 0)
(0.84000819 1.2910992e-10 0)
(0.84000819 1.3702465e-10 0)
(0.84000819 1.3419064e-10 0)
(0.84000819 1.1605475e-10 0)
(0.84000819 9.9905987e-11 0)
(0.84000819 7.7825393e-11 0)
(0.84000819 6.5339279e-11 0)
(0.84000819 4.9724274e-11 0)
(0.84000819 4.1424629e-11 0)
(0.84000819 3.0317431e-11 0)
(0.84000819 2.881614e-11 0)
(0.84000819 2.413823e-11 0)
(0.84000819 2.5833755e-11 0)
(0.84000819 2.3158348e-11 0)
(0.84000819 3.1088399e-11 0)
(0.84000819 3.2204114e-11 0)
(0.84000819 4.4282979e-11 0)
(0.84000819 4.5931389e-11 0)
(0.84000819 6.8264422e-11 0)
(0.84000819 7.362957e-11 0)
(0.84000819 1.1112653e-10 0)
(0.84000819 1.1821383e-10 0)
(0.84000819 1.911017e-10 0)
(0.84000819 2.0765716e-10 0)
(0.84000819 3.5563868e-10 0)
(0.84000819 4.0847106e-10 0)
(0.84000819 7.4384346e-10 0)
(0.84000819 9.950171e-10 0)
(0.84000819 1.7632014e-09 0)
(0.84000819 2.5676215e-09 0)
(0.84000818 4.1536763e-09 0)
(0.84000819 6.2424354e-09 0)
(0.84000817 9.1558733e-09 0)
(0.8400082 1.2644756e-08 0)
(0.98353851 0.00017939136 0)
(0.98568913 0.00093770985 0)
(0.98602096 0.0014587413 0)
(0.98614978 0.001576537 0)
(0.98665541 0.0014643757 0)
(0.98736217 0.0013128371 0)
(0.98800846 0.0011940296 0)
(0.98850977 0.0010989184 0)
(0.98890263 0.0010066698 0)
(0.98923689 0.00091238422 0)
(0.9895344 0.00082140527 0)
(0.98979776 0.00073853378 0)
(0.99002688 0.00066461281 0)
(0.99022502 0.00059832607 0)
(0.99039728 0.00053831278 0)
(0.99054818 0.00048380601 0)
(0.99068091 0.00043437211 0)
(0.99079777 0.00038961107 0)
(0.99090067 0.00034908309 0)
(0.99099131 0.00031236048 0)
(0.99107119 0.00027906829 0)
(0.9911416 0.00024888742 0)
(0.99120362 0.00022153742 0)
(0.99125819 0.00019676565 0)
(0.99130614 0.00017434142 0)
(0.99134817 0.00015405568 0)
(0.99138493 0.0001357184 0)
(0.99141698 0.00011915754 0)
(0.99144482 0.00010421629 0)
(0.99146889 9.0752708e-05 0)
(0.9914896 7.8638321e-05 0)
(0.99150731 6.775831e-05 0)
(0.99152234 5.8010436e-05 0)
(0.991535 4.9304787e-05 0)
(0.99154555 4.1562235e-05 0)
(0.99155426 3.4713181e-05 0)
(0.99156135 2.8695272e-05 0)
(0.99156705 2.3451266e-05 0)
(0.99157157 1.8926571e-05 0)
(0.99157509 1.5067197e-05 0)
(0.99157778 1.1818228e-05 0)
(0.9915798 9.1228896e-06 0)
(0.99158128 6.9226323e-06 0)
(0.99158234 5.157613e-06 0)
(0.99158309 3.7681479e-06 0)
(0.99158359 2.6959633e-06 0)
(0.99158392 1.886085e-06 0)
(0.99158413 1.2879003e-06 0)
(0.99158426 8.5657832e-07 0)
(0.99158433 5.5331316e-07 0)
(0.99158437 3.4590245e-07 0)
(0.99158439 2.0812031e-07 0)
(0.99158439 1.1961045e-07 0)
(0.99158439 6.4752362e-08 0)
(0.99158439 3.2277036e-08 0)
(0.99158439 1.3997586e-08 0)
(0.99158439 4.5057604e-09 0)
(0.99158438 4.6221454e-11 0)
(0.99158438 -1.6047495e-09 0)
(0.99158438 -1.9398267e-09 0)
(0.99158438 -1.6299094e-09 0)
(0.99158438 -1.2007558e-09 0)
(0.99158438 -7.3433857e-10 0)
(0.99158438 -4.1646564e-10 0)
(0.99158438 -1.4598588e-10 0)
(0.99158438 -2.6019164e-11 0)
(0.99158438 8.7998408e-11 0)
(0.99158438 9.896083e-11 0)
(0.99158438 1.391625e-10 0)
(0.99158438 1.0464375e-10 0)
(0.99158438 1.2022669e-10 0)
(0.99158438 7.4956486e-11 0)
(0.99158438 8.7304839e-11 0)
(0.99158438 4.3166585e-11 0)
(0.99158438 6.0104589e-11 0)
(0.99158438 2.232995e-11 0)
(0.99158438 4.5491503e-11 0)
(0.99158438 1.2708827e-11 0)
(0.99158438 4.1859666e-11 0)
(0.99158438 1.4847261e-11 0)
(0.99158438 4.9149965e-11 0)
(0.99158438 2.5340481e-11 0)
(0.99158438 6.6189236e-11 0)
(0.99158438 4.6900021e-11 0)
(0.99158438 9.7281777e-11 0)
(0.99158438 8.1371503e-11 0)
(0.99158438 1.4946376e-10 0)
(0.99158438 1.3932657e-10 0)
(0.99158438 2.4210557e-10 0)
(0.99158438 2.4164681e-10 0)
(0.99158438 4.1674349e-10 0)
(0.99158438 4.6321512e-10 0)
(0.99158438 8.0993036e-10 0)
(0.99158438 1.0664727e-09 0)
(0.99158438 1.7167948e-09 0)
(0.99158439 2.4366796e-09 0)
(0.99158438 3.534342e-09 0)
(0.99158439 5.1436332e-09 0)
(0.99158437 6.9184266e-09 0)
(0.9915844 9.1077712e-09 0)
(1.049861 5.9961872e-05 0)
(1.0522965 0.00032707173 0)
(1.0528091 0.00052150482 0)
(1.0531345 0.00057492583 0)
(1.0539241 0.00054217942 0)
(1.0549841 0.00049192748 0)
(1.0560015 0.00045254213 0)
(1.0568602 0.00042159704 0)
(1.0575912 0.00039110441 0)
(1.0582478 0.00035886262 0)
(1.0588532 0.00032684435 0)
(1.059408 0.00029704594 0)
(1.0599096 0.00026998187 0)
(1.0603606 0.00024528541 0)
(1.0607663 0.00022253395 0)
(1.0611319 0.00020152206 0)
(1.0614614 0.00018216882 0)
(1.0617579 0.00016439717 0)
(1.0620242 0.00014810186 0)
(1.062263 0.00013316934 0)
(1.0624768 0.00011949589 0)
(1.0626679 0.00010699064 0)
(1.0628384 9.557053e-05 0)
(1.0629901 8.5157033e-05 0)
(1.0631247 7.567507e-05 0)
(1.0632439 6.7053709e-05 0)
(1.0633492 5.9226184e-05 0)
(1.0634418 5.213008e-05 0)
(1.063523 4.5706962e-05 0)
(1.0635939 3.9902579e-05 0)
(1.0636555 3.4666773e-05 0)
(1.0637087 2.9953815e-05 0)
(1.0637544 2.5722268e-05 0)
(1.0637934 2.19351e-05 0)
(1.0638265 1.8559266e-05 0)
(1.0638542 1.5565425e-05 0)
(1.0638772 1.2927137e-05 0)
(1.0638962 1.062016e-05 0)
(1.0639116 8.6214677e-06 0)
(1.0639239 6.9085043e-06 0)
(1.0639337 5.4584601e-06 1.8713828e-33)
(1.0639413 4.247891e-06 0)
(1.0639471 3.2525904e-06 0)
(1.0639515 2.447773e-06 0)
(1.0639547 1.8085301e-06 0)
(1.063957 1.310377e-06 0)
(1.0639587 9.2994344e-07 0)
(1.0639598 6.4551529e-07 0)
(1.0639606 4.3759456e-07 0)
(1.0639611 2.8913766e-07 0)
(1.0639614 1.8577384e-07 0)
(1.0639616 1.1567707e-07 0)
(1.0639617 6.9503301e-08 0)
(1.0639618 4.0007359e-08 0)
(1.0639618 2.1833327e-08 0)
(1.0639618 1.1053624e-08 0)
(1.0639618 5.0046071e-09 0)
(1.0639618 1.8087147e-09 0)
(1.0639618 2.8623499e-10 0)
(1.0639618 -3.3955955e-10 0)
(1.0639618 -4.9250072e-10 0)
(1.0639618 -4.4861711e-10 0)
(1.0639618 -3.178113e-10 0)
(1.0639618 -1.9760473e-10 0)
(1.0639618 -8.3672062e-11 0)
(1.0639618 -2.0254635e-11 0)
(1.0639618 3.8942845e-11 0)
(1.0639618 5.7529026e-11 0)
(1.0639618 7.7755905e-11 0)
(1.0639618 6.9858939e-11 0)
(1.0639618 7.6897156e-11 0)
(1.0639618 5.962992e-11 0)
(1.0639618 5.8854592e-11 0)
(1.0639618 3.8507026e-11 0)
(1.0639618 4.2665484e-11 0)
(1.0639618 2.5754077e-11 0)
(1.0639618 3.0954595e-11 0)
(1.0639618 1.7725401e-11 0)
(1.0639618 3.1879935e-11 0)
(1.0639618 2.4677805e-11 0)
(1.0639618 3.990604e-11 0)
(1.0639618 3.7195976e-11 0)
(1.0639618 6.0360748e-11 0)
(1.0639618 6.4370449e-11 0)
(1.0639618 9.1244257e-11 0)
(1.0639618 1.0164414e-10 0)
(1.0639618 1.4365623e-10 0)
(1.0639618 1.6413981e-10 0)
(1.0639618 2.2675981e-10 0)
(1.0639618 2.5995418e-10 0)
(1.0639618 3.7123192e-10 0)
(1.0639618 4.5436838e-10 0)
(1.0639618 6.6481234e-10 2.9485809e-35)
(1.0639618 8.800443e-10 0)
(1.0639618 1.1900493e-09 0)
(1.0639618 1.5598815e-09 8.8457419e-36)
(1.0639618 1.9467008e-09 0)
(1.0639618 2.5259453e-09 0)
(1.0639618 3.0837417e-09 0)
(1.0639619 3.770038e-09 0)
(1.0498609 -5.9961284e-05 0)
(1.0522965 -0.00032706725 0)
(1.0528091 -0.00052150149 0)
(1.0531344 -0.00057492612 0)
(1.053924 -0.00054218011 0)
(1.0549841 -0.00049192795 0)
(1.0560015 -0.0004525437 0)
(1.0568602 -0.00042160219 0)
(1.0575911 -0.0003911131 0)
(1.0582478 -0.00035887581 0)
(1.0588532 -0.00032686232 0)
(1.0594079 -0.00029706969 0)
(1.0599096 -0.0002700106 0)
(1.0603606 -0.00024531858 0)
(1.0607662 -0.0002225698 0)
(1.0611318 -0.00020155968 0)
(1.0614613 -0.00018220644 0)
(1.0617579 -0.00016443395 0)
(1.0620242 -0.00014813618 0)
(1.062263 -0.00013320053 0)
(1.0624768 -0.00011952278 0)
(1.0626679 -0.00010701308 0)
(1.0628383 -9.5587992e-05 0)
(1.06299 -8.5169861e-05 0)
(1.0631247 -7.5683247e-05 0)
(1.0632439 -6.705794e-05 0)
(1.0633491 -5.9226787e-05 0)
(1.0634418 -5.2127854e-05 0)
(1.0635229 -4.5702242e-05 0)
(1.0635938 -3.9895995e-05 0)
(1.0636554 -3.4658507e-05 0)
(1.0637086 -2.9944186e-05 0)
(1.0637544 -2.5711221e-05 0)
(1.0637934 -2.1922675e-05 0)
(1.0638264 -1.8545297e-05 0)
(1.0638542 -1.5549834e-05 0)
(1.0638772 -1.2909803e-05 0)
(1.0638962 -1.060106e-05 0)
(1.0639116 -8.6006891e-06 0)
(1.0639239 -6.8861886e-06 0)
(1.0639337 -5.4349237e-06 -1.8713828e-33)
(1.0639413 -4.2234238e-06 0)
(1.0639471 -3.2276892e-06 0)
(1.0639514 -2.4228217e-06 0)
(1.0639547 -1.784101e-06 0)
(1.063957 -1.2868312e-06 0)
(1.0639587 -9.0781419e-07 0)
(1.0639598 -6.2506205e-07 0)
(1.0639606 -4.1921762e-07 0)
(1.0639611 -2.7290236e-07 0)
(1.0639614 -1.7188664e-07 0)
(1.0639616 -1.0401e-07 0)
(1.0639617 -6.0079541e-08 0)
(1.0639618 -3.252487e-08 0)
(1.0639618 -1.6193201e-08 0)
(1.0639618 -6.86388e-09 0)
(1.0639618 -2.1099186e-09 0)
(1.0639618 1.6622484e-10 0)
(1.0639618 9.031283e-10 0)
(1.0639618 1.0827598e-09 0)
(1.0639618 8.3479857e-10 0)
(1.0639618 6.5668919e-10 0)
(1.0639618 3.5854542e-10 0)
(1.0639618 2.6386968e-10 0)
(1.0639618 7.3077971e-11 0)
(1.0639618 9.1279439e-11 0)
(1.0639618 -1.1226354e-11 0)
(1.0639618 5.4389622e-11 0)
(1.0639618 -2.641068e-11 0)
(1.0639618 5.3992192e-11 0)
(1.0639618 -2.0498957e-11 0)
(1.0639618 5.691158e-11 0)
(1.0639618 -2.2979785e-11 0)
(1.0639618 5.5681756e-11 0)
(1.0639618 -2.1731849e-11 0)
(1.0639618 5.4394536e-11 0)
(1.0639618 -2.5966903e-11 0)
(1.0639618 5.5584469e-11 0)
(1.0639618 -1.8574736e-11 0)
(1.0639618 6.3158418e-11 0)
(1.0639618 -1.0841972e-11 0)
(1.0639618 7.8298024e-11 0)
(1.0639618 1.281291e-11 0)
(1.0639618 1.037612e-10 0)
(1.0639618 4.0076027e-11 0)
(1.0639618 1.4089356e-10 0)
(1.0639618 8.7817662e-11 0)
(1.0639618 1.9658823e-10 0)
(1.0639618 1.4739257e-10 0)
(1.0639618 2.7350307e-10 0)
(1.0639618 2.3888004e-10 0)
(1.0639618 4.0121306e-10 0)
(1.0639618 3.571839e-10 -2.9485809e-35)
(1.0639618 5.2641873e-10 0)
(1.0639618 3.4317104e-10 0)
(1.0639618 2.7508856e-10 -8.845742e-36)
(1.0639618 -1.2808807e-10 0)
(1.0639619 -7.2475965e-10 0)
(1.0639618 -1.390461e-09 0)
(1.0639619 -2.1882974e-09 0)
(0.98353854 -0.0001793919 0)
(0.98568912 -0.00093772113 0)
(0.98602094 -0.0014587584 0)
(0.98614977 -0.0015765508 0)
(0.98665541 -0.0014643833 0)
(0.98736216 -0.0013128407 0)
(0.98800844 -0.0011940331 0)
(0.98850975 -0.001098923 0)
(0.9889026 -0.0010066769 0)
(0.98923685 -0.00091239421 0)
(0.98953436 -0.00082141928 0)
(0.98979771 -0.00073855191 0)
(0.99002682 -0.0006646353 0)
(0.99022494 -0.00059835198 0)
(0.9903972 -0.00053834146 0)
(0.99054809 -0.00048383605 0)
(0.99068081 -0.00043440268 0)
(0.99079766 -0.00038964077 0)
(0.99090056 -0.00034911114 0)
(0.99099119 -0.00031238571 0)
(0.99107106 -0.00027909029 0)
(0.99114146 -0.00024890554 0)
(0.99120348 -0.00022155171 0)
(0.99125805 -0.00019677595 0)
(0.99130599 -0.00017434817 0)
(0.99134803 -0.00015405908 0)
(0.99138479 -0.00013571908 0)
(0.99141684 -0.00011915581 0)
(0.99144468 -0.0001042127 0)
(0.99146876 -9.074751e-05 0)
(0.99148948 -7.8631838e-05 0)
(0.99150719 -6.7750576e-05 0)
(0.99152222 -5.8001525e-05 0)
(0.99153488 -4.9294592e-05 0)
(0.99154544 -4.1550693e-05 0)
(0.99155415 -3.4700185e-05 0)
(0.99156125 -2.8680779e-05 0)
(0.99156696 -2.3435308e-05 0)
(0.99157149 -1.8909238e-05 0)
(0.99157501 -1.5048713e-05 0)
(0.99157771 -1.1798818e-05 0)
(0.99157974 -9.1029254e-06 0)
(0.99158123 -6.9024304e-06 0)
(0.9915823 -5.1376251e-06 0)
(0.99158305 -3.7486904e-06 0)
(0.99158356 -2.6774678e-06 0)
(0.9915839 -1.8688039e-06 0)
(0.99158412 -1.272183e-06 0)
(0.99158425 -8.4253949e-07 0)
(0.99158433 -5.411478e-07 0)
(0.99158437 -3.3556514e-07 0)
(0.9915844 -1.9965799e-07 0)
(0.99158441 -1.1283115e-07 0)
(0.99158441 -5.9581387e-08 0)
(0.99158441 -2.8409558e-08 0)
(0.99158441 -1.1300515e-08 0)
(0.99158441 -2.6951873e-09 0)
(0.99158441 1.0215229e-09 0)
(0.99158441 2.224677e-09 0)
(0.99158441 2.1853878e-09 0)
(0.99158441 1.7235441e-09 0)
(0.99158441 1.1511509e-09 0)
(0.99158441 6.9558718e-10 0)
(0.99158441 3.3291654e-10 0)
(0.99158441 1.364763e-10 0)
(0.99158441 6.7742161e-12 0)
(0.99158441 -3.0062572e-11 0)
(0.99158441 -6.5549138e-11 0)
(0.99158441 -4.4832374e-11 0)
(0.99158441 -4.7458661e-11 0)
(0.99158441 -1.7734089e-11 0)
(0.99158441 -2.8138453e-11 0)
(0.99158441 -3.3933851e-12 0)
(0.99158441 -1.2370625e-11 0)
(0.99158441 8.2589524e-12 0)
(0.99158441 -9.3141498e-12 0)
(0.99158441 1.023851e-11 0)
(0.99158441 -8.2799587e-13 0)
(0.99158441 1.8844825e-11 0)
(0.99158441 3.1738842e-12 0)
(0.99158441 2.4918617e-11 0)
(0.99158441 1.9145356e-11 0)
(0.99158441 4.3180242e-11 0)
(0.99158441 3.7250515e-11 0)
(0.99158441 6.3523583e-11 0)
(0.99158441 7.3687223e-11 0)
(0.99158441 9.9299057e-11 0)
(0.99158441 1.1585637e-10 0)
(0.99158441 1.328133e-10 0)
(0.99158441 1.7055111e-10 0)
(0.99158441 1.6552303e-10 0)
(0.99158441 2.029929e-10 0)
(0.99158441 9.3371408e-11 0)
(0.99158441 1.2466892e-11 0)
(0.99158441 -4.4143112e-10 0)
(0.99158441 -9.9385324e-10 0)
(0.99158441 -2.059783e-09 0)
(0.99158442 -3.6987376e-09 0)
(0.9915844 -5.5649109e-09 0)
(0.99158443 -7.7777626e-09 0)
(0.84163039 -0.00029043003 0)
(0.84316286 -0.0013811313 0)
(0.84304141 -0.0020285676 0)
(0.84267556 -0.0020863675 0)
(0.8425481 -0.0018573257 0)
(0.84254217 -0.0016064775 0)
(0.84249036 -0.0014155675 0)
(0.8423552 -0.0012643715 0)
(0.84217488 -0.0011252755 0)
(0.84198793 -0.00099265749 0)
(0.84180962 -0.00087217657 0)
(0.84164121 -0.00076767806 0)
(0.84148153 -0.00067825727 0)
(0.84133109 -0.00060096485 0)
(0.84119115 -0.00053326145 0)
(0.84106245 -0.00047355883 0)
(0.8409449 -0.00042080762 0)
(0.84083795 -0.00037411346 0)
(0.84074094 -0.00033264912 0)
(0.84065324 -0.00029569184 0)
(0.8405742 -0.0002626521 0)
(0.84050317 -0.00023305197 0)
(0.84043954 -0.00020649624 0)
(0.84038267 -0.00018264617 0)
(0.840332 -0.00016121025 0)
(0.84028698 -0.00014193447 0)
(0.8402471 -0.00012459879 0)
(0.84021189 -0.00010900943 0)
(0.84018091 -9.4996569e-05 0)
(0.84015376 -8.2409529e-05 0)
(0.84013008 -7.1116472e-05 0)
(0.84010951 -6.1001427e-05 0)
(0.84009175 -5.1964196e-05 0)
(0.84007651 -4.3917674e-05 0)
(0.84006352 -3.6786853e-05 0)
(0.84005253 -3.0505809e-05 0)
(0.84004333 -2.5015615e-05 0)
(0.8400357 -2.0261299e-05 0)
(0.84002944 -1.6189488e-05 0)
(0.84002437 -1.2746429e-05 0)
(0.84002032 -9.876543e-06 0)
(0.84001714 -7.5223481e-06 0)
(0.84001467 -5.6243763e-06 0)
(0.8400128 -4.1228387e-06 0)
(0.8400114 -2.9584359e-06 0)
(0.84001038 -2.0748034e-06 0)
(0.84000965 -1.4191997e-06 0)
(0.84000914 -9.4465844e-07 0)
(0.84000879 -6.0982459e-07 0)
(0.84000856 -3.8032364e-07 0)
(0.84000841 -2.2761987e-07 0)
(0.84000832 -1.2964601e-07 0)
(0.84000827 -6.9041957e-08 0)
(0.84000824 -3.3478546e-08 0)
(0.84000823 -1.3666915e-08 0)
(0.84000822 -3.6844757e-09 0)
(0.84000822 8.6660867e-10 0)
(0.84000822 2.2967897e-09 0)
(0.84000822 2.4189409e-09 0)
(0.84000822 1.8405383e-09 0)
(0.84000822 1.295427e-09 0)
(0.84000822 6.8849825e-10 0)
(0.84000822 3.7117368e-10 0)
(0.84000822 4.6273059e-11 0)
(0.84000822 -4.6871079e-12 0)
(0.84000822 -1.4183027e-10 0)
(0.84000822 -8.2597211e-11 0)
(0.84000822 -1.5289485e-10 0)
(0.84000822 -5.0413299e-11 0)
(0.84000822 -1.0686008e-10 0)
(0.84000822 -1.1203826e-11 0)
(0.84000822 -7.655091e-11 0)
(0.84000822 1.6479116e-11 0)
(0.84000822 -5.4044709e-11 0)
(0.84000822 2.7036093e-11 0)
(0.84000822 -4.7871601e-11 0)
(0.84000822 3.8524398e-11 0)
(0.84000822 -3.5362338e-11 0)
(0.84000822 4.4087796e-11 0)
(0.84000822 -3.040728e-11 0)
(0.84000822 5.5912302e-11 0)
(0.84000822 -1.5895585e-11 0)
(0.84000823 6.3353173e-11 0)
(0.84000822 -4.8266976e-12 0)
(0.84000823 8.050764e-11 0)
(0.84000822 2.2063556e-11 0)
(0.84000823 9.6051915e-11 0)
(0.84000822 4.6668383e-11 0)
(0.84000823 1.1088249e-10 0)
(0.84000823 7.600523e-11 0)
(0.84000823 8.3994354e-11 0)
(0.84000823 2.4503282e-11 0)
(0.84000822 -1.2769406e-10 0)
(0.84000823 -3.6479016e-10 0)
(0.84000822 -9.5644875e-10 0)
(0.84000823 -1.6916708e-09 0)
(0.84000822 -3.2300918e-09 0)
(0.84000823 -5.3730898e-09 0)
(0.84000821 -8.3102519e-09 0)
(0.84000824 -1.1703807e-08 0)
(0.60604793 -0.00036173903 0)
(0.6065425 -0.0014394698 0)
(0.60561751 -0.0018774952 0)
(0.60446558 -0.0017184821 0)
(0.60350952 -0.0013687952 0)
(0.60271721 -0.0010779284 0)
(0.60200034 -0.00088439899 0)
(0.6013338 -0.00074673527 0)
(0.60072793 -0.00063300824 0)
(0.6001914 -0.00053528654 0)
(0.59972138 -0.00045463124 0)
(0.59930897 -0.00039035465 0)
(0.59894526 -0.00033896729 0)
(0.59862339 -0.00029667105 0)
(0.59833813 -0.00026085641 0)
(0.59808517 -0.00023005243 0)
(0.59786065 -0.00020335797 0)
(0.59766121 -0.00018007614 0)
(0.59748395 -0.00015961942 0)
(0.59732641 -0.00014151945 0)
(0.59718646 -0.00012542133 0)
(0.59706227 -0.00011105561 0)
(0.59695218 -9.8206636e-05 0)
(0.59685475 -8.6695116e-05 0)
(0.5967687 -7.6368466e-05 0)
(0.59669287 -6.7096983e-05 0)
(0.59662624 -5.876902e-05 0)
(0.59656788 -5.1288227e-05 0)
(0.59651694 -4.4570287e-05 0)
(0.59647269 -3.8541839e-05 0)
(0.59643443 -3.3138886e-05 0)
(0.59640154 -2.8306316e-05 0)
(0.59637345 -2.3996663e-05 0)
(0.59634964 -2.0169295e-05 0)
(0.59632963 -1.6789024e-05 0)
(0.59631297 -1.382478e-05 0)
(0.59629926 -1.1248144e-05 0)
(0.59628809 -9.0318433e-06 0)
(0.59627913 -7.1487251e-06 0)
(0.59627203 -5.5707405e-06 0)
(0.59626649 -4.2688396e-06 0)
(0.59626225 -3.2127336e-06 0)
(0.59625905 -2.3716989e-06 0)
(0.59625669 -1.7149403e-06 0)
(0.59625498 -1.2128583e-06 0)
(0.59625377 -8.3744292e-07 0)
(0.59625294 -5.6340554e-07 0)
(0.59625238 -3.6826047e-07 0)
(0.59625201 -2.3310286e-07 0)
(0.59625178 -1.4212676e-07 0)
(0.59625164 -8.2937049e-08 0)
(0.59625156 -4.5728609e-08 0)
(0.59625152 -2.3420809e-08 0)
(0.59625149 -1.0664715e-08 0)
(0.59625149 -3.957421e-09 0)
(0.59625148 -6.6564719e-10 0)
(0.59625148 6.6275244e-10 0)
(0.59625149 1.0198375e-09 0)
(0.59625149 8.5438643e-10 0)
(0.59625149 6.1976922e-10 0)
(0.59625149 3.2507189e-10 0)
(0.59625149 1.5693976e-10 0)
(0.59625149 -1.0834138e-11 0)
(0.59625149 -4.2272549e-11 0)
(0.59625149 -1.1023861e-10 0)
(0.59625149 -8.2569854e-11 0)
(0.59625149 -1.1115846e-10 0)
(0.59625149 -5.5178905e-11 0)
(0.59625149 -7.472133e-11 0)
(0.59625149 -2.6052194e-11 0)
(0.59625149 -5.4521444e-11 0)
(0.59625149 -4.8202354e-12 0)
(0.59625149 -3.4457464e-11 0)
(0.59625149 4.9672391e-12 0)
(0.59625149 -3.0646194e-11 0)
(0.59625149 1.3851606e-11 0)
(0.59625149 -1.9186391e-11 0)
(0.59625149 1.8140864e-11 0)
(0.59625149 -1.8633434e-11 0)
(0.59625149 2.5945884e-11 0)
(0.59625149 -8.045293e-12 0)
(0.59625149 3.0380758e-11 0)
(0.59625149 -7.1483782e-12 0)
(0.59625149 3.951568e-11 0)
(0.59625149 3.786803e-12 0)
(0.59625149 4.5840549e-11 0)
(0.59625149 4.4078544e-12 0)
(0.59625149 5.7292412e-11 0)
(0.59625149 8.1273535e-12 0)
(0.59625149 5.8870453e-11 0)
(0.59625149 -4.1801007e-11 0)
(0.59625149 -1.9307943e-11 0)
(0.59625149 -2.8906886e-10 0)
(0.59625149 -4.3228452e-10 0)
(0.59625149 -1.0564935e-09 0)
(0.59625149 -1.6109392e-09 0)
(0.59625149 -3.2028343e-09 0)
(0.59625149 -4.9566821e-09 0)
(0.59625147 -8.4509822e-09 0)
(0.59625148 -1.2015195e-08 0)
(0.25123861 -0.00028257406 0)
(0.25059491 -0.00076505399 0)
(0.24924668 -0.00078431885 0)
(0.24797812 -0.00056237058 0)
(0.24701866 -0.00035426464 0)
(0.24631286 -0.00023619938 0)
(0.24576187 -0.00017892701 0)
(0.24530644 -0.00014466095 0)
(0.24492244 -0.00011762965 0)
(0.24459871 -9.5878036e-05 0)
(0.24432526 -7.9816424e-05 0)
(0.24409188 -6.8395521e-05 0)
(0.24389001 -5.9852943e-05 0)
(0.24371351 -5.2882317e-05 0)
(0.24355825 -4.6872292e-05 0)
(0.24342122 -4.1610888e-05 0)
(0.2433 -3.6994756e-05 0)
(0.24319259 -3.2924868e-05 0)
(0.24309729 -2.9306371e-05 0)
(0.2430127 -2.6067886e-05 0)
(0.24293764 -2.3159528e-05 0)
(0.24287107 -2.0545336e-05 0)
(0.2428121 -1.8194111e-05 0)
(0.24275995 -1.6078583e-05 0)
(0.24271391 -1.41738e-05 0)
(0.24267336 -1.2458614e-05 0)
(0.24263775 -1.0913985e-05 0)
(0.24260657 -9.5236811e-06 0)
(0.24257938 -8.2728702e-06 0)
(0.24255577 -7.1489252e-06 0)
(0.24253538 -6.1404629e-06 0)
(0.24251786 -5.2379603e-06 0)
(0.24250293 -4.4329644e-06 0)
(0.24249029 -3.7183965e-06 0)
(0.24247968 -3.0879214e-06 0)
(0.24247088 -2.5359591e-06 0)
(0.24246365 -2.0572372e-06 0)
(0.24245779 -1.6465957e-06 0)
(0.2424531 -1.2988382e-06 0)
(0.2424494 -1.0084801e-06 0)
(0.24244653 -7.6992696e-07 0)
(0.24244433 -5.7721849e-07 0)
(0.24244269 -4.2450646e-07 0)
(0.24244149 -3.0579586e-07 0)
(0.24244062 -2.1556758e-07 0)
(0.24244001 -1.4841555e-07 0)
(0.2424396 -9.9700515e-08 0)
(0.24243932 -6.5106559e-08 0)
(0.24243914 -4.1289233e-08 0)
(0.24243903 -2.5237125e-08 0)
(0.24243896 -1.4862141e-08 0)
(0.24243892 -8.2834086e-09 0)
(0.2424389 -4.3957468e-09 0)
(0.24243889 -2.0985453e-09 0)
(0.24243888 -9.1698707e-10 0)
(0.24243888 -2.6204948e-10 0)
(0.24243888 -2.0530647e-11 0)
(0.24243888 1.0876088e-10 0)
(0.24243888 6.6161559e-11 0)
(0.24243889 7.874803e-11 0)
(0.24243889 1.0791195e-12 0)
(0.24243889 1.9151732e-11 0)
(0.24243889 -3.8442812e-11 0)
(0.24243889 1.9596505e-12 0)
(0.24243889 -4.8018508e-11 0)
(0.24243889 -3.2332011e-12 0)
(0.24243889 -4.1727035e-11 0)
(0.24243889 1.036287e-11 0)
(0.24243889 -3.3386255e-11 0)
(0.24243889 1.386941e-11 0)
(0.24243889 -2.7626862e-11 0)
(0.24243889 2.0973893e-11 0)
(0.24243889 -2.5419388e-11 0)
(0.24243889 1.9029727e-11 0)
(0.24243889 -2.3143821e-11 0)
(0.24243889 2.3778159e-11 0)
(0.24243889 -2.351382e-11 0)
(0.24243889 2.0280894e-11 0)
(0.24243889 -2.2285365e-11 0)
(0.24243889 2.4514137e-11 0)
(0.24243889 -2.2793252e-11 0)
(0.24243889 2.1536544e-11 0)
(0.24243889 -2.1451208e-11 0)
(0.24243889 2.6210016e-11 0)
(0.24243889 -2.224938e-11 0)
(0.24243889 2.3001265e-11 0)
(0.24243889 -2.2023635e-11 0)
(0.24243889 2.7244224e-11 0)
(0.24243889 -2.5274867e-11 0)
(0.24243889 1.9219837e-11 0)
(0.24243889 -5.0471622e-11 0)
(0.24243889 -3.3352357e-11 0)
(0.24243889 -1.9685046e-10 0)
(0.24243889 -2.573118e-10 0)
(0.24243888 -5.5255282e-10 0)
(0.24243888 -8.5448246e-10 0)
(0.24243888 -1.6307811e-09 0)
(0.24243888 -2.4996125e-09 0)
(0.24243887 -4.5344052e-09 0)
(0.24243886 -5.942805e-09 0)
)
;

boundaryField
{
    top
    {
        type            fixedValue;