/*--------------------------------*- C++ -*----------------------------------*\
  =========                 |
  \\      /  F ield         | OpenFOAM: The Open Source CFD Toolbox
   \\    /   O peration     | Website:  https://openfoam.org
    \\  /    A nd           | Version:  6
     \\/     M anipulation  |
\*---------------------------------------------------------------------------*/
FoamFile
{
    version     2.0;
    format      ascii;
    class       volVectorField;
    location    "155";
    object      U;
}
// * * * * * * * * * * * * * * * * * * * * * * * * * * * * * * * * * * * * * //

dimensions      [0 1 -1 0 0 0 0];

internalField   nonuniform List<vector> 
9200
(
(0.0010393573 0.0014199763 -5.9201924e-20)
(0.013676115 -0.0020583922 4.6042606e-20)
(0.038313271 -0.0058666127 -3.8501793e-20)
(0.072274613 -0.0097635692 -6.0257839e-20)
(0.113765 -0.013490113 1.8826994e-20)
(0.16158124 -0.016605762 3.2743931e-20)
(0.21467194 -0.018817409 -1.2268029e-20)
(0.27206664 -0.019974035 9.2688783e-21)
(0.33285691 -0.020011387 1.6803452e-20)
(0.39616427 -0.018929237 1.4848098e-21)
(0.46111647 -0.016780022 -2.1456376e-20)
(0.52683789 -0.01365796 2.0670043e-20)
(0.5924518 -0.0096882496 -4.0422218e-20)
(0.65709252 -0.0050160524 -2.1133945e-20)
(0.719926 0.00020525913 5.904664e-21)
(0.78017636 0.0058237642 -2.5131732e-20)
(0.83717198 0.011712451 2.5217178e-20)
(0.89047016 0.017918116 2.2243275e-20)
(0.93967211 0.024572979 -2.9928177e-22)
(0.98205325 0.028292915 -1.6691684e-21)
(0.0052521992 -0.0013462831 -1.7059376e-20)
(0.026962573 -0.0089890622 3.974777e-20)
(0.061670259 -0.014809822 2.3576329e-20)
(0.10629512 -0.019172348 -1.1569774e-19)
(0.15873598 -0.022214094 -1.2727107e-20)
(0.21753395 -0.023720801 7.3297182e-20)
(0.28137351 -0.02359523 -3.5476453e-20)
(0.34900668 -0.021869116 -8.3905696e-21)
(0.41923999 -0.018645693 3.4287596e-20)
(0.49091034 -0.014081028 -4.3259654e-20)
(0.56287333 -0.0083761566 -3.033854e-20)
(0.63400958 -0.0017668209 7.1921588e-20)
(0.70324449 0.0054881453 3.8294128e-20)
(0.76957707 0.013118358 -6.7976718e-20)
(0.83211376 0.02085178 1.462373e-20)
(0.8901017 0.028419371 -3.6733498e-20)
(0.9429705 0.035569305 -1.3777223e-20)
(0.99043362 0.04214048 7.0975004e-20)
(1.0323573 0.047714864 2.964212e-20)
(1.066936 0.04913921 -8.3478481e-20)
(0.010858455 -0.0040424295 3.6773504e-20)
(0.043953512 -0.015431121 2.5047386e-21)
(0.090515623 -0.022552351 2.2341743e-20)
(0.14711168 -0.026497447 9.8116953e-22)
(0.21134295 -0.027886404 -4.0773997e-20)
(0.28146819 -0.026795238 1.8576427e-20)
(0.35587105 -0.023382867 1.3420319e-20)
(0.43299084 -0.01792169 -5.032778e-20)
(0.51132565 -0.01073582 5.7261953e-20)
(0.58942712 -0.0021840663 1.425672e-20)
(0.66591024 0.0073477008 -5.4300823e-20)
(0.73948152 0.017460037 -1.823745e-20)
(0.8089772 0.027756312 9.0591551e-21)
(0.8734039 0.037858992 2.3444799e-20)
(0.93197489 0.047423732 -1.1362542e-20)
(0.98413494 0.056148626 2.7877804e-20)
(1.0295752 0.063788789 -2.0188291e-20)
(1.0682657 0.070203967 -7.0123809e-20)
(1.1003333 0.075118912 -2.379636e-20)
(1.1249123 0.076640735 4.8659933e-20)
(0.017957253 -0.0064221799 2.4508044e-20)
(0.064777124 -0.020694849 5.103929e-20)
(0.12485252 -0.028060921 1.988172e-20)
(0.19447001 -0.030464158 1.299011e-20)
(0.27094979 -0.02909495 1.7275724e-20)
(0.3522494 -0.0243891 -4.7720237e-20)
(0.43643212 -0.016826106 -2.5646894e-20)
(0.52162093 -0.0069768168 0)
(0.60602992 0.0045668717 1.3920659e-20)
(0.68798812 0.017211555 -5.8523668e-21)
(0.76597631 0.030373726 -9.7935146e-20)
(0.83867565 0.043499413 -1.577484e-20)
(0.90501647 0.05608637 6.510337e-20)
(0.96421692 0.067703858 4.844072e-22)
(1.0158047 0.078007403 -1.5725609e-21)
(1.0596167 0.086746442 2.1957556e-20)
(1.0957784 0.093771838 -5.2647398e-21)
(1.1246811 0.099064903 -6.1029908e-20)
(1.1468657 0.10259661 -4.5851376e-20)
(1.1622967 0.10341334 6.9520676e-20)
(0.026579471 -0.0082057062 -3.9194235e-21)
(0.089344182 -0.024033558 -5.1256368e-21)
(0.16430782 -0.030265062 5.6599477e-20)
(0.24758162 -0.029810109 1.8539346e-20)
(0.33624216 -0.024513129 -3.1955109e-20)
(0.42795194 -0.01523997 1.2163855e-20)
(0.52047343 -0.0028514826 2.6402903e-21)
(0.6116645 0.011736965 3.3609233e-20)
(0.69954814 0.027639999 5.6599614e-21)
(0.78236947 0.044028609 -1.3204778e-20)
(0.8586552 0.060147543 6.0154198e-20)
(0.92727028 0.075340264 -5.8009478e-20)
(0.98745794 0.089072624 -1.3216646e-19)
(1.0388542 0.10094875 -5.577318e-21)
(1.0814736 0.11071678 8.3151001e-20)
(1.1156666 0.1182637 0)
(1.1420558 0.12360544 1.0118983e-20)
(1.1614678 0.12689013 -1.5459814e-20)
(1.1748188 0.12829823 -8.5994849e-21)
(1.1826681 0.12744865 2.099228e-20)
(0.036666973 -0.0090895978 -5.4309141e-21)
(0.11731531 -0.024685407 4.3578795e-21)
(0.20811902 -0.028140246 -8.7629939e-21)
(0.3051575 -0.023415033 2.8472428e-20)
(0.40533602 -0.013075677 -2.9392705e-20)
(0.50607223 0.0015225241 -1.6927048e-20)
(0.60490578 0.019095043 3.7364275e-20)
(0.69955057 0.038365148 4.7595478e-21)
(0.78800497 0.058167525 -2.4436124e-20)
(0.86863516 0.077482865 6.9867705e-20)
(0.94024086 0.095458479 5.2392152e-22)
(1.0020967 0.11143137 -8.0444524e-20)
(1.053958 0.12494268 0)
(1.0960284 0.13573723 3.9542228e-20)
(1.1288932 0.14374812 5.5236169e-21)
(1.1534288 0.14906858 -7.7566605e-20)
(1.1707 0.15191875 -1.9586973e-20)
(1.1818632 0.15262325 -1.2467665e-20)
(1.18806 0.1515256 -1.4709427e-20)
(1.1901468 0.14858443 4.0420623e-20)
(0.048058946 -0.0087674217 -1.7277973e-20)
(0.14808333 -0.021932037 -2.2198397e-21)
(0.25514109 -0.02079789 3.0380533e-20)
(0.36546438 -0.010412853 3.7484343e-20)
(0.47590489 0.0059015261 -1.9944758e-20)
(0.58374347 0.026269242 -6.9163139e-20)
(0.68644277 0.04897714 -2.7995852e-20)
(0.78176304 0.07241771 7.8929353e-20)
(0.86790302 0.095212383 8.5778442e-21)
(0.94359025 0.11624949 -2.4873526e-20)
(1.0081269 0.13469813 1.3642227e-20)
(1.0613881 0.15001537 -4.3194654e-21)
(1.1037703 0.16193637 0)
(1.1360985 0.17044402 2.7203548e-20)
(1.1595055 0.17572279 -7.9322607e-20)
(1.1753029 0.17810335 -3.1475606e-20)
(1.1848578 0.17800775 8.1054776e-20)
(1.1894929 0.17590904 -4.2969998e-21)
(1.1904036 0.17225514 3.5561144e-21)
(1.1885086 0.16719251 2.7111642e-20)
(0.060485342 -0.006957377 -3.2414641e-20)
(0.18077799 -0.015170413 -8.1624409e-20)
(0.30388972 -0.0075835634 2.5797623e-21)
(0.42642615 0.0097033214 7.0161903e-20)
(0.54535222 0.032631521 6.2424462e-20)
(0.65798186 0.058820011 -7.1574611e-20)
(0.76190978 0.08617647 -2.8273455e-22)
(0.85518392 0.11285226 8.5522722e-20)
(0.93645451 0.1373783 4.8828164e-20)
(1.0050425 0.1586936 -5.4218528e-20)
(1.0609366 0.1761355 -9.2334419e-20)
(1.1047253 0.18941337 -3.1589897e-21)
(1.1374769 0.19855923 4.2127962e-20)
(1.1605883 0.20385832 -6.6056435e-21)
(1.1756256 0.20576991 -1.2868815e-20)
(1.1841784 0.20484886 1.9690849e-20)
(1.1877435 0.20167861 4.388072e-20)
(1.187646 0.19682548 -4.3859531e-20)
(1.184996 0.19077842 -1.0232226e-19)
(1.1806256 0.18377335 2.4566948e-20)
(0.07353732 -0.003432981 -3.497979e-20)
(0.21422717 -0.0039890416 -1.7388626e-19)
(0.35251704 0.011839364 8.2103362e-20)
(0.48562861 0.037018333 9.2767643e-20)
(0.61085456 0.066835554 5.7970644e-20)
(0.72576814 0.098481181 8.6107241e-21)
(0.82834898 0.12959695 -1.0624026e-19)
(0.91719098 0.15824267 0)
(0.99162846 0.1830281 -6.8748743e-20)
(1.0517531 0.20311199 -1.5202448e-20)
(1.0983394 0.21814849 5.4703581e-20)
(1.1327017 0.22821067 1.0973405e-20)
(1.1565119 0.23369241 -4.5613952e-20)
(1.1716076 0.23519923 -4.9081466e-20)
(1.1798212 0.23344308 2.4287736e-20)
(1.1828458 0.22915292 4.4822995e-20)
(1.1821495 0.22300952 -5.5600536e-20)
(1.1789367 0.21560785 -1.0751146e-19)
(1.1741475 0.20742185 -3.1513617e-21)
(1.1684573 0.19871839 2.7046461e-20)
(0.086650563 0.0019613858 -3.544912e-21)
(0.24696051 0.011816638 8.791334e-20)
(0.3988479 0.037492327 -1.6479207e-20)
(0.54040531 0.071218413 -8.4309293e-20)
(0.66949981 0.10778897 4.5164442e-20)
(0.78422041 0.14411547 4.9175509e-20)
(0.88319034 0.17775672 5.5356884e-21)
(0.96577967 0.20688491 -9.9502667e-20)
(1.0321773 0.230388 -2.5048829e-21)
(1.0833338 0.24781548 5.0503647e-20)
(1.1208079 0.25926291 5.9854888e-21)
(1.1465567 0.26523606 -1.9717247e-20)
(1.1627116 0.26650515 -7.5704782e-20)
(1.1713773 0.263966 -6.2554119e-21)
(1.1744769 0.25852404 4.3533441e-20)
(1.1736555 0.2510106 3.7022087e-20)
(1.1702389 0.24213363 1.9793475e-20)
(1.1652409 0.23245841 -5.2994974e-20)
(1.159402 0.22240382 1.2957454e-20)
(1.1532257 0.21223761 8.2659265e-20)
(-0.0012932638 0.0014346626 -1.1234425e-21)
(-0.0047459686 0.0031874205 2.0646982e-21)
(-0.010771376 0.004135911 8.7951339e-22)
(-0.017754314 0.0045395431 -2.4411048e-21)
(-0.024740354 0.0045654232 -1.4114845e-21)
(-0.031299637 0.0043260442 1.5459966e-21)
(-0.037161377 0.0039035425 -6.8700919e-21)
(-0.042147496 0.0033577246 -5.9573072e-21)
(-0.046157832 0.0027313824 1.1172019e-20)
(-0.049146245 0.00205483 -9.74277e-21)
(-0.051100705 0.0013492979 -1.9832951e-22)
(-0.052030489 0.00062941746 3.6673548e-21)
(-0.051957774 -9.489602e-05 -6.3295722e-22)
(-0.050911907 -0.00081693912 2.2818811e-20)
(-0.04892579 -0.0015318557 3.0401134e-22)
(-0.046035336 -0.0022351875 -4.0883004e-20)
(-0.042281772 -0.002922284 7.5385883e-21)
(-0.037703394 -0.0035910573 2.3864193e-20)
(-0.032308619 -0.0042400081 -4.3852532e-20)
(-0.026156859 -0.0048211376 -2.7739307e-20)
(-0.0016522028 0.0041808737 -5.3716181e-21)
(-0.0053974899 0.0092681533 1.0865445e-20)
(-0.011218526 0.012007462 -1.0191573e-20)
(-0.017658051 0.013153783 3.9229938e-21)
(-0.023856465 0.01319543 4.8121547e-21)
(-0.029433355 0.012462739 7.1324275e-22)
(-0.03415236 0.011197025 -2.2509516e-20)
(-0.037860418 0.0095739034 -2.0370301e-21)
(-0.040474337 0.007718989 2.0163583e-20)
(-0.041958955 0.005721227 -5.0473712e-21)
(-0.042308975 0.0036428556 -2.1762644e-20)
(-0.041537351 0.001526698 4.8973297e-21)
(-0.039667713 -0.00059832629 2.263548e-20)
(-0.036729064 -0.0027127883 1.0308421e-20)
(-0.032751996 -0.0048027233 2.1854354e-20)
(-0.027769109 -0.0068555499 -1.9770791e-20)
(-0.021824706 -0.0088582687 -2.1673013e-20)
(-0.01496615 -0.010804282 2.1184693e-20)
(-0.0071288611 -0.012679067 2.6810457e-20)
(0.0018744924 -0.014317298 1.5854817e-20)
(-0.0023034329 0.0065602438 -4.3568809e-21)
(-0.0065392335 0.014480218 -5.6387564e-21)
(-0.011892147 0.01871057 3.0723797e-22)
(-0.01721112 0.020428208 1.095988e-21)
(-0.021819165 0.020400348 6.6918615e-21)
(-0.025431064 0.019151686 1.0665202e-20)
(-0.027877252 0.017066301 -3.7227698e-21)
(-0.029053283 0.01442379 -1.8896215e-20)
(-0.028909041 0.011424351 6.5413327e-21)
(-0.027431042 0.0082098952 1.2862599e-20)
(-0.024627689 0.0048797571 5.8341058e-21)
(-0.020520063 0.0015022099 1.8159148e-20)
(-0.015135916 -0.0018769022 1.7295961e-21)
(-0.0085053006 -0.0052272975 -3.386462e-20)
(-0.00065676184 -0.0085276712 1.2020248e-21)
(0.0083811852 -0.011759182 -2.2139268e-20)
(0.018557077 -0.014904182 -2.4466384e-20)
(0.029802437 -0.017953852 4.5819863e-20)
(0.042305272 -0.02085523 2.5349438e-20)
(0.056738939 -0.023247893 1.2240033e-22)
(-0.0031290322 0.0083689833 -5.2833222e-21)
(-0.0078964091 0.01833654 -8.4815721e-21)
(-0.012438999 0.02358784 4.359316e-21)
(-0.016026548 0.02560969 4.1463577e-21)
(-0.018235034 0.025382773 2.0105771e-21)
(-0.018912654 0.023589342 7.3210092e-21)
(-0.017984709 0.020730285 9.312495e-21)
(-0.015416687 0.017170379 -1.3511351e-21)
(-0.011207005 0.013171305 -1.1481968e-20)
(-0.0053751672 0.0089189102 -2.9071946e-20)
(0.002048206 0.0045434031 6.1895408e-23)
(0.011026635 0.00013426335 4.0697921e-20)
(0.02152239 -0.0042490129 -1.8383213e-20)
(0.033498058 -0.0085676618 -1.229612e-20)
(0.046920768 -0.012795639 5.534857e-22)
(0.061760404 -0.016911965 3.2302737e-20)
(0.077953381 -0.020901797 -1.4829596e-20)
(0.095392697 -0.024763521 -5.333934e-20)
(0.11439895 -0.028379883 4.5765144e-20)
(0.13634597 -0.031073279 3.301327e-20)
(-0.0039704149 0.0094657462 -6.87889e-22)
(-0.0090916679 0.020487819 -1.253477e-20)
(-0.01236448 0.026159118 -3.4144631e-20)
(-0.013552543 0.028143368 -5.7241777e-21)
(-0.012533232 0.027555031 -3.6222864e-21)
(-0.0093167006 0.025188079 6.3051162e-21)
(-0.0039455997 0.021627415 -4.6462003e-21)
(0.0035261998 0.01729895 -8.8070369e-21)
(0.013036924 0.012508728 2.1899752e-20)
(0.024521383 0.0074744039 5.0567132e-21)
(0.037915723 0.002348849 -2.529036e-20)
(0.053157679 -0.0027628563 1.1078301e-20)
(0.070187156 -0.0077909649 0)
(0.088946931 -0.012691412 1.2089605e-20)
(0.10938586 -0.017437048 -9.7016421e-21)
(0.1314579 -0.022010047 -1.433716e-20)
(0.15507464 -0.026408819 -1.5738863e-21)
(0.18006825 -0.030659617 -2.2181663e-21)
(0.20685416 -0.034576754 4.6147177e-20)
(0.23766444 -0.037020113 -1.0470173e-20)
(-0.0046451032 0.0097808752 -7.5356824e-21)
(-0.0096772587 0.020747904 2.4516457e-20)
(-0.011064382 0.026161003 -1.0499372e-20)
(-0.0090968214 0.027724467 -2.7469345e-20)
(-0.0039796895 0.026601709 -2.7548213e-20)
(0.0040962408 0.023648411 -1.4921601e-20)
(0.01495424 0.019496446 -6.9059397e-22)
(0.028436366 0.014604679 5.5499854e-21)
(0.044403324 0.009303403 1.9615913e-20)
(0.062730726 0.0038283536 7.3531004e-21)
(0.083304605 -0.0016548364 -7.1862347e-21)
(0.10601933 -0.0070323404 -2.0102309e-21)
(0.130774 -0.012229221 -3.8191796e-20)
(0.15746994 -0.017199898 -1.2693674e-20)
(0.18601259 -0.021919903 1.8750658e-20)
(0.21631245 -0.026379911 -2.102173e-20)
(0.24823301 -0.030602442 -8.9730806e-21)
(0.28151955 -0.034670853 3.0440533e-20)
(0.31660802 -0.038365094 5.0472189e-20)
(0.35665125 -0.039964402 3.3559761e-21)
(-0.0049617729 0.0093140093 1.6783333e-20)
(-0.0091662728 0.019097727 1.4467965e-20)
(-0.007859356 0.023563383 5.114559e-20)
(-0.0018585088 0.024328954 2.338803e-20)
(0.0082957841 0.022523783 1.8251811e-22)
(0.02222204 0.01901437 -3.9388532e-20)
(0.039597588 0.014440905 -2.4313912e-20)
(0.060148104 0.0092663104 1.0465835e-20)
(0.083639377 0.0038231595 1.4401614e-20)
(0.10986702 -0.0016513886 -1.3113732e-20)
(0.13864603 -0.0069911209 -4.4038806e-20)
(0.16980219 -0.012082981 2.9618561e-20)
(0.20316462 -0.016854317 2.0020589e-20)
(0.23856013 -0.021264178 -2.7551215e-20)
(0.27581307 -0.025296611 1.1650163e-20)
(0.31474898 -0.028957402 2.4197667e-20)
(0.35514643 -0.032303314 8.0724155e-21)
(0.39663495 -0.035506967 -1.1764245e-20)
(0.4395782 -0.038392963 -1.4190322e-20)
(0.4879864 -0.038634754 5.8728023e-21)
(-0.0047307789 0.0081236804 1.1093865e-20)
(-0.0070585967 0.015671184 -2.3352765e-20)
(-0.0020293418 0.018562036 8.6200689e-21)
(0.0090325762 0.018216219 3.358803e-20)
(0.025256459 0.01565113 5.212444e-20)
(0.046066487 0.011695567 2.0276548e-20)
(0.070984733 0.0069608975 -5.8639485e-21)
(0.099602227 0.0018828765 -1.2286304e-20)
(0.1315693 -0.0032272942 -6.2057612e-21)
(0.16657611 -0.0081497759 3.42409e-20)
(0.20433477 -0.012733462 -4.5104524e-21)
(0.24456547 -0.016879353 -1.6643336e-20)
(0.28698542 -0.020528877 -1.9693608e-20)
(0.33130081 -0.023656628 -4.7443837e-20)
(0.37720552 -0.026265775 2.3238751e-20)
(0.42438874 -0.02838813 -1.4096015e-20)
(0.47250088 -0.030127917 2.5993463e-20)
(0.52103743 -0.031783514 2.1040874e-20)
(0.57021529 -0.033351033 -8.5570546e-20)
(0.6247106 -0.032059226 -1.0806272e-22)
(-0.0037710515 0.0063146426 2.1925089e-20)
(-0.0028657519 0.010735094 -2.6165575e-20)
(0.0071421493 0.011564125 -4.501337e-20)
(0.024450321 0.0099249645 -2.7253828e-20)
(0.047870993 0.0066522646 -2.0439904e-21)
(0.07662891 0.0024905574 1.3050115e-20)
(0.11007701 -0.0020154748 -2.8337724e-21)
(0.14765242 -0.0064880045 1.8118568e-20)
(0.18886141 -0.010663626 8.8685752e-21)
(0.2332525 -0.014362566 -1.1380192e-20)
(0.28039215 -0.017469117 8.8779342e-21)
(0.32984679 -0.019916998 -2.3903312e-20)
(0.38116967 -0.021678914 8.0504981e-21)
(0.43389182 -0.022760117 1.6756426e-20)
(0.48752044 -0.023194569 -2.6395189e-21)
(0.54154834 -0.023047186 1.6619009e-21)
(0.59543673 -0.022469768 -3.1957435e-22)
(0.6485192 -0.021870455 1.9590465e-20)
(0.70082383 -0.021445442 4.0434085e-21)
(0.757453 -0.018499493 -5.7339175e-22)
(-0.0019110095 0.0040273469 2.369215e-20)
(0.0038694588 0.0046765068 5.7160054e-20)
(0.020315381 0.0031879366 -4.9244301e-20)
(0.045178411 0.00029438192 -9.9454304e-21)
(0.076965347 -0.0034242142 2.0256377e-20)
(0.1146965 -0.0073536677 2.1433752e-21)
(0.15753919 -0.011055059 -2.981521e-20)
(0.20474877 -0.014244262 6.9848203e-21)
(0.25565006 -0.016738072 7.1098019e-21)
(0.3096054 -0.018427123 -2.6254124e-20)
(0.36598726 -0.019260286 1.2927356e-21)
(0.42416047 -0.019232078 -3.7174183e-20)
(0.48347201 -0.018372437 -3.6341087e-20)
(0.54324675 -0.016738536 6.5683619e-20)
(0.60278932 -0.014407588 5.5627611e-21)
(0.66139013 -0.011476212 -1.5188836e-20)
(0.7183092 -0.0081023885 1.9364008e-20)
(0.77270043 -0.0045932395 -9.1888338e-22)
(0.82408981 -0.00096845397 2.0364599e-20)
(0.87622114 0.0043276289 -1.9554217e-20)
(-0.018836279 -0.0050997288 5.8352262e-20)
(-0.010224473 -0.0056349548 1.5783722e-20)
(-0.000220962 -0.0060689103 -3.5139688e-20)
(0.010823516 -0.006334142 1.6790303e-20)
(0.022642819 -0.0065120814 0)
(0.035178307 -0.0066301263 0)
(0.048370159 -0.0066910115 -2.2975044e-20)
(0.062138658 -0.0067025798 -1.650294e-20)
(0.07641339 -0.006674216 1.9122683e-20)
(0.091134849 -0.006612709 1.8174119e-20)
(0.10624806 -0.0065232507 1.0524288e-21)
(0.12170122 -0.0064104046 -1.0317683e-20)
(0.13744603 -0.0062781293 8.3269287e-21)
(0.15343727 -0.006129772 1.8233803e-20)
(0.16963217 -0.0059681962 -5.2274548e-21)
(0.1859901 -0.0057958871 -1.0174984e-20)
(0.2024723 -0.005615016 -4.3196083e-21)
(0.21904173 -0.0054274919 -4.4257551e-21)
(0.23566298 -0.0052350069 7.3667351e-22)
(0.25230218 -0.0050390713 1.2286121e-21)
(0.26892699 -0.0048410402 2.566655e-21)
(0.28550663 -0.0046421334 6.6539918e-21)
(0.30201191 -0.0044434499 2.4893379e-22)
(0.31841529 -0.0042459795 -3.4514987e-21)
(0.33469094 -0.0040506095 1.5558599e-22)
(0.35081478 -0.0038581317 -5.7710341e-22)
(0.36676456 -0.0036692459 1.2434495e-21)
(0.38251987 -0.0034845646 1.05225e-21)
(0.3980622 -0.0033046163 -1.298822e-21)
(0.41337493 -0.0031298492 -1.2218601e-22)
(0.42844332 -0.0029606351 3.5733181e-23)
(0.44325454 -0.0027972743 -3.5188291e-22)
(0.45779758 -0.0026399997 -4.056722e-22)
(0.47206326 -0.0024889827 5.5425511e-23)
(0.48604417 -0.0023443385 -1.3809502e-22)
(0.49973463 -0.0022061327 -2.2343841e-22)
(0.51313062 -0.0020743875 2.5572923e-22)
(0.5262298 -0.0019490886 2.9503361e-22)
(0.53903138 -0.0018301943 -8.2810912e-24)
(0.55153649 -0.0017176394 -1.5519885e-22)
(0.56374709 -0.0016113629 3.0406258e-23)
(0.57566979 -0.0015112647 -4.0147438e-23)
(0.58730478 -0.001417416 9.2224084e-23)
(0.59868109 -0.0013294804 2.197212e-23)
(0.60975308 -0.0012487421 -1.140038e-22)
(0.62071289 -0.0011719908 -6.7659625e-24)
(0.63108264 -0.0011114601 -6.9721801e-26)
(0.64237373 -0.0010341792 -3.5689897e-24)
(0.6504531 -0.0010510654 2.9451461e-23)
(0.66703928 -0.00087585415 3.6057725e-22)
(0.010446116 -0.01501769 -1.2746871e-20)
(0.018179991 -0.0166411 -6.3302564e-20)
(0.027779564 -0.01791551 -3.0542067e-20)
(0.038385556 -0.018672175 3.8476169e-20)
(0.049621465 -0.019183699 1.4662673e-20)
(0.061507181 -0.019529549 -1.8205015e-20)
(0.074013454 -0.019709988 4.6722337e-21)
(0.08706339 -0.019746621 2.5447301e-20)
(0.10059396 -0.019667415 9.1982506e-23)
(0.11455493 -0.01949184 -7.6591666e-21)
(0.1288982 -0.019234505 -1.3021062e-20)
(0.14357715 -0.018908462 -8.5245837e-21)
(0.15854791 -0.018525127 1.7772422e-20)
(0.17376895 -0.01809416 8.9296277e-21)
(0.18920053 -0.017623843 -1.6522503e-20)
(0.20480446 -0.0171214 -6.03909e-21)
(0.220544 -0.016593169 3.2145161e-21)
(0.23638379 -0.016044748 8.3716683e-21)
(0.25228975 -0.015481113 6.9832736e-21)
(0.26822915 -0.014906727 -6.9727816e-21)
(0.28417057 -0.014325605 -3.1685962e-21)
(0.30008396 -0.01374137 1.3605707e-21)
(0.31594076 -0.0131573 3.8686561e-22)
(0.3317139 -0.012576348 1.2114146e-21)
(0.34737792 -0.012001171 1.8369384e-22)
(0.36290905 -0.011434143 -3.2662849e-22)
(0.37828521 -0.010877367 -7.2436546e-22)
(0.39348611 -0.010332687 9.7160288e-22)
(0.40849328 -0.0098016967 8.2485715e-22)
(0.42329007 -0.0092857522 -1.5150218e-22)
(0.43786164 -0.0087859821 5.5308715e-22)
(0.45219501 -0.0083033011 -2.3881402e-22)
(0.46627897 -0.0078384239 -3.7072478e-22)
(0.48010407 -0.0073918809 -6.1002357e-22)
(0.49366262 -0.0069640351 4.4173253e-22)
(0.50694857 -0.0065551005 -1.5507537e-23)
(0.51995754 -0.0061651621 1.6127955e-22)
(0.53268678 -0.0057941951 -4.4179829e-22)
(0.54513506 -0.0054420928 3.7196507e-22)
(0.55730305 -0.0051086772 6.7182171e-23)
(0.56919226 -0.0047937838 -1.0285507e-22)
(0.58080878 -0.004497129 1.7618869e-22)
(0.59215236 -0.0042189424 2.3347842e-22)
(0.60325129 -0.003958234 1.6933835e-22)
(0.6140601 -0.0037188515 1.677644e-22)
(0.62476806 -0.0034912366 -2.6115546e-23)
(0.6349037 -0.0033118488 8.4135256e-23)
(0.64595544 -0.0030825527 7.6383378e-23)
(0.65385527 -0.003133127 -1.9479588e-22)
(0.67012246 -0.0026133147 -3.8011077e-23)
(0.067615119 -0.024029282 9.4528678e-21)
(0.073590149 -0.026749198 3.2951197e-21)
(0.082266044 -0.02880573 -1.2162271e-20)
(0.091948421 -0.029968676 -1.2258061e-21)
(0.10198388 -0.030768046 1.4970661e-20)
(0.11254708 -0.031331084 -1.4887187e-20)
(0.12367679 -0.031636272 -2.9842416e-20)
(0.13529773 -0.031713217 1.44936e-20)
(0.14735796 -0.031607856 1.8182064e-20)
(0.15982453 -0.031350284 -1.159858e-20)
(0.17266181 -0.030962057 1.0190603e-21)
(0.18583215 -0.030462998 8.6860356e-21)
(0.1992993 -0.029870805 -1.5253635e-20)
(0.21302817 -0.0292005 2.9095829e-21)
(0.22698417 -0.028465028 7.5194921e-21)
(0.2411333 -0.02767578 3.1557949e-23)
(0.25544221 -0.026842841 2.6553877e-22)
(0.2698783 -0.025975187 -7.4151527e-21)
(0.28440974 -0.025080863 3.8617626e-21)
(0.29900561 -0.024167125 8.47499e-21)
(0.31363597 -0.023240548 -3.8352161e-21)
(0.32827198 -0.022307096 -2.2130532e-21)
(0.34288601 -0.021372187 1.0124389e-21)
(0.35745176 -0.020440727 -1.7155613e-21)
(0.37194432 -0.019517144 1.3532377e-21)
(0.38634032 -0.018605408 7.1846635e-22)
(0.40061794 -0.017709048 1.5269118e-21)
(0.41475701 -0.016831169 -1.9527408e-21)
(0.42873905 -0.015974467 2.2236662e-21)
(0.4425473 -0.015141246 5.5190808e-22)
(0.45616669 -0.014333434 4.0328534e-22)
(0.4695839 -0.013552605 3.2135121e-22)
(0.4827873 -0.012800004 8.7332277e-22)
(0.49576695 -0.012076569 -1.3709777e-21)
(0.50851455 -0.011382963 3.7069489e-22)
(0.52102341 -0.010719597 1.0945453e-22)
(0.53328844 -0.010086673 -4.5186993e-23)
(0.54530611 -0.0094842066 8.6716522e-23)
(0.55707438 -0.0089120776 -3.7190238e-22)
(0.56859307 -0.0083700464 1.829751e-22)
(0.57986281 -0.0078578944 -3.4991146e-23)
(0.59088873 -0.0073752039 3.9017925e-22)
(0.60166979 -0.0069224049 -1.8551585e-22)
(0.61223289 -0.006497909 4.7336533e-23)
(0.62253288 -0.006108108 4.3629653e-23)
(0.63275362 -0.00573731 -7.3646385e-23)
(0.64243579 -0.0054454728 -1.209479e-22)
(0.65302385 -0.0050716429 3.884079e-22)
(0.66057531 -0.0051555313 1.7282341e-22)
(0.67622419 -0.00430847 -8.3055821e-22)
(0.15021596 -0.031460625 1.501024e-21)
(0.15354762 -0.035257607 -1.156664e-20)
(0.16061701 -0.038011148 6.6442077e-21)
(0.16880676 -0.03947934 -1.3324793e-20)
(0.17698317 -0.040520944 -1.9758389e-21)
(0.18552446 -0.041302548 9.1599922e-21)
(0.19458528 -0.041757518 -9.7662868e-21)
(0.20408809 -0.041914003 1.566264e-21)
(0.21398895 -0.041833636 1.2903859e-20)
(0.22427736 -0.041554652 3.4032309e-21)
(0.23493401 -0.041102373 -6.2097263e-21)
(0.2459318 -0.040500788 -2.8638403e-21)
(0.2572433 -0.039772099 -5.8409117e-21)
(0.26884097 -0.038935416 -6.4553638e-21)
(0.28069622 -0.038007347 3.2356761e-21)
(0.29277977 -0.037002684 8.461726e-22)
(0.30506204 -0.035934718 1.3679824e-21)
(0.31751346 -0.034815425 -3.3850629e-21)
(0.33010461 -0.033655663 -4.2429473e-21)
(0.34280647 -0.03246532 2.3616852e-21)
(0.35559062 -0.031253433 3.2251949e-21)
(0.3684294 -0.030028263 -1.5636669e-21)
(0.3812961 -0.028797362 1.586756e-21)
(0.39416508 -0.027567605 -3.912611e-22)
(0.40701193 -0.02634523 -3.9197501e-21)
(0.41981355 -0.025135854 -3.0333319e-21)
(0.43254825 -0.023944494 -1.9028392e-22)
(0.44519584 -0.022775584 4.2857616e-22)
(0.45773768 -0.021632995 -2.2106521e-21)
(0.47015669 -0.020520051 -8.5503924e-22)
(0.48243739 -0.019439562 2.2838049e-22)
(0.49456591 -0.018393841 -1.2499471e-21)
(0.50652998 -0.017384744 6.2451464e-24)
(0.51831891 -0.016413701 -4.2425258e-22)
(0.52992355 -0.015481754 -4.7195252e-22)
(0.5413363 -0.0145896 -5.2004392e-22)
(0.55255105 -0.013737635 -8.4146682e-22)
(0.56356324 -0.012925999 -5.4486853e-23)
(0.5743697 -0.012154639 -3.916332e-24)
(0.58496909 -0.011423334 -5.1982877e-22)
(0.59536083 -0.010731886 -9.159525e-23)
(0.6055488 -0.010079821 -3.324939e-22)
(0.61553083 -0.009467831 -4.3777217e-22)
(0.62533194 -0.0088938192 3.7857449e-22)
(0.63490751 -0.0083666745 1.4827417e-23)
(0.6444337 -0.0078649446 1.8248603e-22)
(0.65346871 -0.0074708264 -1.3259942e-22)
(0.66339384 -0.0069645444 -2.6711847e-22)
(0.67044733 -0.0070809455 -4.4575441e-23)
(0.68520944 -0.0059347166 4.6239378e-22)
(0.25468658 -0.036553013 -2.0900392e-20)
(0.25447117 -0.041393781 4.7586103e-20)
(0.25907436 -0.044745947 1.0348125e-20)
(0.26508522 -0.046442349 -1.5765378e-20)
(0.27071049 -0.047714636 -2.0228145e-21)
(0.27652118 -0.048748112 2.6232234e-21)
(0.28283681 -0.049414069 -1.6608408e-21)
(0.28957831 -0.049728465 -4.686162e-21)
(0.29669807 -0.049761811 -4.0159349e-21)
(0.30420706 -0.049557447 -1.2207696e-20)
(0.31210387 -0.049142095 1.7897868e-20)
(0.32037118 -0.048541224 6.5220417e-21)
(0.32898892 -0.0477794 -1.6780611e-20)
(0.33793607 -0.046878467 1.0317593e-20)
(0.34718925 -0.045857762 8.3849986e-21)
(0.35672307 -0.044734788 -8.7920197e-22)
(0.36651092 -0.043525555 -3.1222132e-21)
(0.37652552 -0.042244749 -3.8197961e-21)
(0.38673922 -0.040905874 -1.3892875e-21)
(0.39712429 -0.039521381 -1.2304474e-21)
(0.40765328 -0.038102764 -3.0258244e-21)
(0.41829919 -0.036660627 0)
(0.42903576 -0.035204728 -1.3452247e-21)
(0.4398376 -0.033744013 3.9310043e-21)
(0.45068037 -0.032286636 5.4053804e-21)
(0.4615409 -0.030839982 -9.4113403e-22)
(0.47239729 -0.029410675 -2.927557e-21)
(0.48322902 -0.028004605 3.0259787e-21)
(0.49401696 -0.026626938 2.5443692e-22)
(0.50474347 -0.025282146 3.4354054e-21)
(0.51539239 -0.023974037 -5.3460651e-22)
(0.52594906 -0.022705786 1.7174249e-21)
(0.53640031 -0.021479975 -7.9970324e-22)
(0.54673447 -0.020298639 2.9098888e-22)
(0.55694135 -0.019163317 -4.3409362e-22)
(0.56701219 -0.018075096 5.6235865e-22)
(0.57693969 -0.01703468 4.5715914e-22)
(0.58671802 -0.016042435 3.8261356e-22)
(0.59634269 -0.01509848 -9.5951905e-22)
(0.60581098 -0.014202711 6.8368355e-22)
(0.61512096 -0.01335505 -3.6965002e-22)
(0.62427497 -0.012555058 -1.1036248e-21)
(0.63326961 -0.011803767 1.4082689e-21)
(0.64212762 -0.011098684 -6.2023679e-23)
(0.65080516 -0.010451119 -1.5823288e-22)
(0.65946884 -0.0098343643 -7.8291019e-24)
(0.66769909 -0.0093511378 -1.2634045e-22)
(0.67679743 -0.0087282341 -4.6614967e-22)
(0.68323071 -0.0088759319 8.7875229e-22)
(0.69688129 -0.0074674859 -4.4327629e-23)
(0.37635246 -0.038368482 -1.7495168e-20)
(0.37171098 -0.044270562 1.2832081e-20)
(0.37286818 -0.048161964 2.9754872e-21)
(0.3759118 -0.05009922 -7.6354019e-21)
(0.37830668 -0.051670358 1.2056029e-20)
(0.38072443 -0.053042777 7.7914432e-21)
(0.38367758 -0.05403046 -1.2647729e-20)
(0.38710223 -0.05463354 -6.0680026e-21)
(0.39093098 -0.054918458 1.2697396e-20)
(0.39518427 -0.054927604 -1.5305077e-20)
(0.39987619 -0.054688001 -1.4063257e-20)
(0.40499712 -0.054225154 1.4129746e-20)
(0.41053079 -0.053564177 6.8194205e-21)
(0.41645947 -0.052728481 -4.2038485e-21)
(0.42276257 -0.051739564 -1.854533e-21)
(0.4294166 -0.050617313 -4.058156e-21)
(0.43639619 -0.049380281 5.3047479e-21)
(0.44367483 -0.048045822 3.6682318e-21)
(0.45122528 -0.046630159 -3.2408395e-21)
(0.45902 -0.045148443 3.1379695e-21)
(0.46703148 -0.043614804 2.766723e-21)
(0.47523252 -0.042042389 -3.2111613e-21)
(0.48359652 -0.040443383 3.7056885e-22)
(0.49209763 -0.038829019 -3.2571911e-21)
(0.50071096 -0.037209588 7.2456399e-21)
(0.50941273 -0.035594453 6.1082128e-21)
(0.51818032 -0.033992052 8.0978484e-22)
(0.52699243 -0.03240992 -1.7683687e-21)
(0.53582908 -0.03085471 3.702367e-21)
(0.54467171 -0.029332216 7.1888774e-21)
(0.55350315 -0.02784741 2.3050164e-21)
(0.56230769 -0.026404488 3.3166875e-21)
(0.57107104 -0.025006911 1.995733e-21)
(0.57978035 -0.023657465 7.4564129e-22)
(0.58842417 -0.02235832 -2.6375415e-22)
(0.59699246 -0.021111089 2.7205876e-21)
(0.60547659 -0.019916906 6.1999011e-22)
(0.61386932 -0.01877649 2.949109e-22)
(0.62216476 -0.017690247 5.6238576e-23)
(0.63035873 -0.0166583 9.8986207e-22)
(0.63844781 -0.015680799 4.7025875e-23)
(0.64643279 -0.014757442 4.4259854e-22)
(0.65430894 -0.013889684 -1.2624844e-22)
(0.66209654 -0.01307476 -2.7745756e-22)
(0.66975286 -0.012326302 -1.5225233e-22)
(0.67743346 -0.011612933 -4.2229911e-22)
(0.684745 -0.011055828 1.6153608e-22)
(0.6928957 -0.010334787 -1.2731471e-22)
(0.69861996 -0.010512205 -5.0121179e-22)
(0.71098741 -0.0088848908 2.459368e-22)
(0.50927565 -0.035974647 3.6471392e-21)
(0.49953179 -0.042961046 -1.8958344e-20)
(0.49627701 -0.047383862 -2.3083958e-21)
(0.49555744 -0.049737185 5.4869676e-21)
(0.49417111 -0.051818469 3.0528307e-21)
(0.49269738 -0.053705853 -4.986734e-23)
(0.49181401 -0.055188109 6.1897153e-21)
(0.49151631 -0.056265877 7.6251402e-21)
(0.49171355 -0.056991029 9.858077e-21)
(0.4924127 -0.057396087 -1.12501e-20)
(0.49363312 -0.057506831 -2.1579553e-20)
(0.49536996 -0.057348964 -3.9353906e-21)
(0.49760697 -0.056947694 1.5938249e-20)
(0.50032543 -0.056327589 1.2809044e-20)
(0.50350419 -0.05551233 -5.9067083e-21)
(0.50711919 -0.054524459 1.3816754e-21)
(0.51114421 -0.053385414 -3.6601444e-21)
(0.51555172 -0.052115586 2.2444612e-21)
(0.52031342 -0.050734311 -2.9123216e-22)
(0.52540065 -0.049259847 -1.8654324e-21)
(0.53078474 -0.047709362 7.82672e-21)
(0.53643734 -0.046098932 -2.9311346e-22)
(0.54233061 -0.044443532 4.1820827e-22)
(0.54843753 -0.042757029 -6.5644701e-22)
(0.55473199 -0.041052173 -4.3030195e-21)
(0.56118895 -0.039340604 4.2086027e-21)
(0.56778458 -0.037632853 1.9031411e-21)
(0.57449631 -0.03593836 -3.3082738e-21)
(0.58130291 -0.034265498 -4.1117197e-21)
(0.58818452 -0.032621603 -5.3746798e-21)