/*--------------------------------*- C++ -*----------------------------------*\
  =========                 |
  \\      /  F ield         | OpenFOAM: The Open Source CFD Toolbox
   \\    /   O peration     | Website:  https://openfoam.org
    \\  /    A nd           | Version:  6
     \\/     M anipulation  |
\*---------------------------------------------------------------------------*/
FoamFile
{
    version     2.0;
    format      ascii;
    class       volSymmTensorField;
    location    "155";
    object      UPrime2Mean;
}
// * * * * * * * * * * * * * * * * * * * * * * * * * * * * * * * * * * * * * //

dimensions      [0 2 -2 0 0 0 0];

internalField   nonuniform List<symmTensor> 
9200
(
(0.00012769819 -9.9124558e-05 4.6441e-22 7.9556511e-05 -2.4842851e-22 7.5031181e-39)
(0.00078641635 -0.00062979432 1.1868814e-21 0.00050629264 -8.8574816e-22 8.1614081e-39)
(0.0015878306 -0.0012323187 1.4724368e-22 0.00096189838 -1.1116109e-22 4.4751675e-39)
(0.0024998123 -0.0018126293 -1.7849985e-21 0.0013289452 1.2556331e-21 8.9193867e-39)
(0.00339628 -0.0023269942 8.2712326e-23 0.0016216999 -6.9312601e-23 1.3080627e-39)
(0.0042147943 -0.0027523418 7.4864434e-22 0.0018399748 -4.9766309e-22 2.0471644e-40)
(0.0049124892 -0.0030807445 -1.608423e-22 0.0019914831 1.1163269e-22 5.9271214e-40)
(0.0054551278 -0.0033129764 1.4623503e-22 0.0020890566 -9.8695324e-23 3.9920891e-40)
(0.0058193861 -0.0034539965 7.2651024e-22 0.0021450046 -4.4157692e-22 1.1386892e-39)
(0.0059936669 -0.0035109454 5.6405311e-23 0.0021697813 -3.4498092e-23 3.2453816e-42)
(0.0059780951 -0.0034922043 -7.8143744e-22 0.0021720065 4.8154404e-22 6.1082785e-40)
(0.0057843102 -0.003406811 6.5363852e-22 0.0021585738 -4.1815652e-22 8.3222242e-41)
(0.0054345627 -0.0032640885 -1.1646128e-21 0.0021348129 7.8795291e-22 1.3069845e-39)
(0.0049598547 -0.0030734193 -5.9041322e-22 0.0021047131 4.0754513e-22 8.31395e-41)
(0.0043971904 -0.002844099 1.5316724e-22 0.0020711661 -1.1406229e-22 1.0640918e-41)
(0.0037861905 -0.0025852088 -5.7657711e-22 0.0020361993 4.5343086e-22 1.1136477e-40)
(0.0031653523 -0.002305498 5.0608738e-22 0.0020012997 -4.3169601e-22 1.3518924e-40)
(0.0025683678 -0.0020134125 3.7546464e-22 0.001968458 -3.3551095e-22 5.5448626e-40)
(0.0020234756 -0.0017167198 -1.326191e-23 0.0019403242 2.8261402e-23 1.0235774e-40)
(0.0015613941 -0.0014209865 -7.5791406e-24 0.0018978585 2.5178791e-23 1.268742e-40)
(0.00016844968 -0.00011260278 4.8606133e-23 7.7303687e-05 -1.8690597e-23 1.3187631e-40)
(0.0010025138 -0.00069514067 1.2573737e-21 0.00048348524 -8.1794735e-22 8.7069283e-39)
(0.0019901291 -0.001339982 -4.0981994e-22 0.00090727434 2.7473503e-22 4.7301874e-39)
(0.0030463245 -0.0019348945 -3.2027087e-21 0.0012425473 2.0030922e-21 2.0637201e-38)
(0.0040251483 -0.0024393409 -1.0966667e-22 0.0015042989 6.9806459e-23 2.6041278e-40)
(0.0048546223 -0.0028331687 2.4740961e-21 0.0016949556 -1.4616318e-21 6.8268295e-39)
(0.005490901 -0.0031132762 -1.0152895e-21 0.0018244859 5.9433151e-22 2.3286617e-40)
(0.0059065517 -0.003285895 -3.0682903e-22 0.0019067678 1.7811953e-22 8.3889154e-41)
(0.0060911389 -0.003361081 1.165015e-21 0.001954424 -6.8113495e-22 6.3994382e-40)
(0.0060506147 -0.003350402 -1.4128564e-21 0.0019777366 8.4050585e-22 7.33862e-40)
(0.0058057476 -0.0032658818 -1.0026874e-21 0.001984746 6.120518e-22 9.0821996e-40)
(0.0053898623 -0.0031193924 2.1661603e-21 0.001981426 -1.377026e-21 4.6177846e-39)
(0.0048455387 -0.0029223485 1.0095345e-21 0.0019719137 -6.8395054e-22 3.2169196e-40)
(0.0042203605 -0.0026856034 -1.5912978e-21 0.0019587787 1.15275e-21 1.5930796e-39)
(0.0035622045 -0.0024194427 2.8563116e-22 0.0019432859 -2.2342915e-22 1.3306508e-40)
(0.0029147254 -0.0021335963 -6.352771e-22 0.0019256249 5.5771196e-22 3.5330715e-40)
(0.0023136106 -0.0018372331 -2.6334748e-22 0.001905165 2.7277516e-22 1.1149617e-40)
(0.0017840173 -0.0015387801 8.0558151e-22 0.0018807889 -9.1034392e-22 1.8013972e-39)
(0.0013407713 -0.0012450077 3.820208e-22 0.0018491521 -5.1574867e-22 3.41021e-40)
(0.0009934858 -0.00096267761 -1.632704e-22 0.0017930895 2.0512309e-22 2.5913638e-39)
(0.00021444128 -0.00012215387 -4.0674348e-22 7.1149427e-05 1.732197e-22 3.3933609e-39)
(0.0012327657 -0.00073300072 -6.7722353e-22 0.00043698418 3.7622819e-22 3.5377323e-39)
(0.0024030576 -0.0013914189 -7.7347642e-22 0.00081023816 4.5054053e-22 8.8428622e-39)
(0.0035804987 -0.0019743095 2.5639778e-23 0.0011011854 -1.410612e-23 9.5908552e-43)
(0.0046026986 -0.0024466026 3.5912266e-23 0.0013250587 -1.6671961e-23 6.3528719e-39)
(0.0053936384 -0.0027933042 8.678675e-22 0.0014867722 -4.634312e-22 1.7762354e-39)
(0.0059163234 -0.0030173525 8.1970805e-23 0.0015976603 -4.1239711e-23 7.3544976e-40)
(0.0061590363 -0.0031305877 -1.4684231e-21 0.0016714364 7.9126508e-22 4.6581789e-40)
(0.0061328672 -0.0031475715 1.7388378e-21 0.0017198191 -9.6122929e-22 8.8141734e-40)
(0.0058683574 -0.0030831841 5.7264644e-22 0.0017517774 -3.3248358e-22 9.7258112e-40)
(0.0054110544 -0.0029516717 -1.5751835e-21 0.0017737479 9.5631943e-22 2.0050779e-39)
(0.0048161992 -0.0027662672 -4.9378451e-22 0.0017899151 3.2166769e-22 6.5625877e-40)
(0.0041426635 -0.0025391823 1.8030778e-22 0.0018025393 -1.2580221e-22 1.7795266e-39)
(0.0034467887 -0.0022817889 4.2746118e-22 0.0018123186 -3.3373235e-22 2.5501862e-40)
(0.0027770271 -0.0020048175 -1.4923296e-22 0.0018187518 1.3048952e-22 1.9559816e-40)
(0.0021701739 -0.001718456 3.4826371e-22 0.0018204972 -3.5161519e-22 1.5382456e-40)
(0.0016496344 -0.0014323054 -2.4040128e-22 0.0018157204 2.8600483e-22 5.8781188e-41)
(0.001225711 -0.0011551285 -4.87396e-22 0.0018023066 6.8413723e-22 1.4446969e-39)
(0.00089774713 -0.00089423976 -1.4809574e-23 0.0017775078 1.5945426e-23 1.3054163e-39)
(0.00065826213 -0.00065637824 1.6876327e-22 0.0017355697 -3.7224457e-22 1.4717971e-40)
(0.00026412033 -0.00012636659 -3.2301708e-22 6.1645608e-05 1.1906535e-22 1.6854416e-39)
(0.0014653006 -0.00073703224 4.9215691e-22 0.00037161803 -2.415187e-22 3.1362895e-40)
(0.0028016728 -0.0013777683 4.3699774e-22 0.00068165041 -2.1566169e-22 3.6388624e-40)
(0.004065826 -0.0019235262 9.547691e-22 0.00092149876 -4.5613995e-22 3.9268747e-39)
(0.0050850537 -0.002346599 8.382483e-22 0.0011059005 -3.9876888e-22 1.746586e-39)
(0.0057876545 -0.0026386095 -1.4697845e-21 0.0012415013 7.0043785e-22 1.3317891e-39)
(0.0061532387 -0.0028084569 -8.216168e-22 0.001339668 3.9890127e-22 3.7892617e-40)
(0.0061950487 -0.0028723004 0 0.0014125652 0 0)
(0.0059527534 -0.0028472976 8.9665291e-22 0.0014697929 -4.8970087e-22 4.8932846e-39)
(0.0054849326 -0.0027495322 -3.8865578e-22 0.0015179974 2.3084197e-22 1.8538085e-39)
(0.0048608457 -0.0025935224 -2.2788148e-21 0.0015612154 1.369938e-21 1.6265314e-39)
(0.0041520165 -0.0023923417 -2.923336e-22 0.0016012613 1.8554342e-22 3.3107387e-40)
(0.0034243871 -0.0021580243 1.1197775e-21 0.0016381601 -8.4264361e-22 2.2233464e-39)
(0.0027320949 -0.001901962 6.4641143e-23 0.0016706223 -4.229088e-23 9.2238316e-40)
(0.0021137304 -0.0016350842 -1.7274292e-23 0.001696537 1.7146499e-23 6.4453171e-43)
(0.0015913928 -0.0013677486 1.8540489e-22 0.0017134734 -2.178576e-22 1.1344244e-40)
(0.0011722578 -0.0011093896 1.61658e-24 0.0017191185 3.6655662e-24 1.335373e-40)
(0.00085188678 -0.00086805433 -3.2814091e-22 0.0017114826 5.6326113e-22 3.4377841e-40)
(0.00061815005 -0.00064992339 -1.8162918e-22 0.001689692 3.9085785e-22 2.40014e-40)
(0.00045529594 -0.00045942913 9.0097863e-23 0.0016563397 -2.8540436e-22 1.5183788e-39)
(0.0003152089 -0.00012404007 2.4388818e-22 4.9685884e-05 -7.7701784e-23 6.6307244e-40)
(0.0016854218 -0.00070315587 1.0157165e-21 0.00029407059 -4.0514716e-22 5.9741241e-39)
(0.003157874 -0.0012953881 7.9618299e-22 0.00053502569 -3.2843177e-22 3.7722176e-40)
(0.0044651146 -0.0017831964 8.8770898e-22 0.00072257007 -3.63103e-22 2.1010318e-39)
(0.0054330513 -0.0021472928 -1.3641827e-21 0.00087006881 5.6482601e-22 3.3099053e-39)
(0.006004742 -0.0023859377 5.1138036e-23 0.00098471172 -1.6510734e-23 3.1500835e-40)
(0.0061863755 -0.0025121992 7.7842724e-23 0.0010764534 -3.4049071e-23 2.6433617e-42)
(0.0060234135 -0.0025437877 1.1070232e-21 0.0011547063 -5.1818464e-22 1.1817944e-39)
(0.0055871261 -0.0024975725 1.4930237e-22 0.0012260513 -7.4287754e-23 1.062259e-41)
(0.0049621469 -0.0023883832 -4.0033749e-22 0.0012941711 2.2878842e-22 6.3993155e-40)
(0.0042347232 -0.0022293004 1.2999085e-21 0.0013602827 -8.1457916e-22 4.4588569e-39)
(0.0034826265 -0.0020323459 -9.4747244e-22 0.001423616 6.3033156e-22 3.8065875e-40)
(0.0027678095 -0.0018091126 -1.780535e-21 0.0014819634 1.4073561e-21 2.7090641e-39)
(0.0021326167 -0.0015710258 -5.8815073e-23 0.0015322937 5.4882109e-23 5.7427254e-42)
(0.0015996406 -0.0013291376 6.3125567e-22 0.0015713855 -7.1870009e-22 2.2077852e-39)
(0.001174523 -0.0010935703 0 0.0015964258 0 0)
(0.00085052121 -0.00087283438 7.9820749e-23 0.0016054389 -1.1677644e-22 5.7468987e-41)
(0.00061354233 -0.00067328929 -3.9167056e-23 0.0015973645 8.876276e-23 8.5608566e-41)
(0.00044639604 -0.0004989286 -4.0406022e-23 0.0015731458 9.0105802e-23 2.2408275e-41)
(0.00033189818 -0.00035135092 1.8320641e-23 0.0015395522 -8.3427918e-23 1.5407201e-40)
(0.00036493539 -0.00011446098 5.3325548e-22 3.6515778e-05 -1.373718e-22 2.6814457e-39)
(0.001877639 -0.00063086713 5.2251628e-23 0.00021254023 -1.715933e-23 4.9577484e-42)
(0.0034449035 -0.0011477141 -1.4974618e-22 0.00038556601 5.0639275e-23 2.1943665e-41)
(0.0047472395 -0.00156357 1.5226565e-22 0.00052435414 -4.9241068e-23 4.3401799e-40)
(0.0056202579 -0.0018672424 -9.3825341e-22 0.00064005536 3.3005847e-22 8.1365492e-40)
(0.0060326266 -0.0020617539 -4.5036879e-22 0.00073915027 1.6467008e-22 7.3328747e-41)
(0.0060249733 -0.0021608733 3.1700568e-22 0.00082906782 -9.7634816e-23 2.3200158e-39)
(0.0056779594 -0.0021801342 -1.1907177e-23 0.00091579609 1.3399783e-23 1.815216e-40)
(0.0050919645 -0.0021330825 -7.5627752e-22 0.0010025315 3.7907827e-22 1.9179417e-39)
(0.0043702944 -0.0020313736 1.3101642e-21 0.001089814 -6.8739153e-22 5.5862071e-40)
(0.0036056998 -0.0018858576 -3.3867787e-23 0.0011760073 5.013614e-23 9.9704831e-40)
(0.0028712186 -0.0017075154 -1.0350203e-21 0.0012578841 7.6260044e-22 2.7417379e-39)
(0.0022159586 -0.0015078136 0 0.0013313393 0 0)
(0.0016655684 -0.0012983672 2.4961933e-22 0.0013921717 -2.8965428e-22 1.4739123e-39)
(0.0012262239 -0.0010901092 1.2189856e-23 0.0014368205 -2.7216896e-23 8.0741095e-41)
(0.00089043411 -0.00089232892 -3.0205967e-22 0.0014629419 4.870773e-22 1.7103041e-39)
(0.00064302775 -0.0007119205 -6.845465e-23 0.0014696669 1.2557902e-22 3.5508768e-41)
(0.00046614392 -0.00055308141 -2.0574819e-23 0.0014574249 5.8430821e-23 5.7475768e-41)
(0.00034250831 -0.00041756285 -2.713712e-23 0.0014287841 7.8785694e-23 2.2240997e-41)
(0.00025706708 -0.00030495519 4.8394254e-23 0.0013918865 -1.9272883e-22 2.1301499e-40)
(0.00041034619 -9.7583149e-05 2.0573075e-22 2.3608734e-05 -3.958734e-23 4.2466095e-40)
(0.0020276717 -0.00052367263 -1.4743155e-21 0.00013571204 3.7106116e-22 9.2340624e-39)
(0.0036409951 -0.00094515064 -1.3179727e-22 0.0002480965 3.7314413e-23 8.6221157e-40)
(0.0048915437 -0.001283128 -3.9433611e-22 0.00034490083 1.1613285e-22 4.3367987e-39)
(0.0056365485 -0.0015324496 -2.9248443e-22 0.00043455185 8.1557997e-23 5.9817372e-41)
(0.0058793418 -0.0016971637 -1.6567423e-21 0.00052198144 5.1626051e-22 7.899825e-40)
(0.0056985711 -0.0017872442 -8.113076e-22 0.00061170867 2.8775435e-22 6.3933241e-40)
(0.0052075646 -0.0018123438 1.5666283e-21 0.00070634612 -5.9479613e-22 5.1089371e-40)
(0.0045281185 -0.0017804683 2.6769215e-22 0.00080588835 -1.3930932e-22 6.5698863e-40)
(0.003771469 -0.0016993596 -3.437272e-22 0.00090793472 1.5724866e-22 2.2438034e-40)
(0.0030259244 -0.0015779115 1.6120847e-22 0.0010082461 -5.9444038e-23 8.4336056e-40)
(0.002351359 -0.0014266876 -3.0168776e-23 0.0011015255 4.1155236e-23 2.1376671e-40)
(0.0017798354 -0.0012574274 0 0.0011823619 0 0)
(0.001320591 -0.0010818483 1.6959265e-22 0.0012461586 -1.7872734e-22 5.1147484e-41)
(0.00096710555 -0.00091027589 -3.5967545e-22 0.0012898493 4.7726637e-22 7.0089377e-40)
(0.00070416096 -0.00075059438 -1.1666077e-22 0.0013122654 1.8152696e-22 6.0147146e-41)
(0.00051351782 -0.00060777674 2.0070853e-22 0.0013140628 -4.1034814e-22 8.3850735e-40)
(0.00037767418 -0.00048403033 -4.4940938e-23 0.0012972317 6.0102605e-23 1.8081903e-40)
(0.00028171988 -0.00037949559 -2.8685196e-24 0.0012654784 -5.3305949e-24 2.029286e-41)
(0.00021372063 -0.00029283981 4.5711084e-23 0.0012265569 -1.3830416e-22 1.7837738e-41)
(0.00044863768 -7.4085887e-05 1.4978426e-22 1.246822e-05 -1.9658245e-23 2.6591918e-40)
(0.0021242709 -0.00038878352 -1.3649745e-21 7.1535008e-05 2.4605326e-22 4.2342221e-39)
(0.0037320431 -0.00070367982 -1.0666791e-21 0.00013500521 2.1175296e-22 5.0682852e-39)
(0.0048901074 -0.00096573368 1.5193442e-21 0.00019799837 -3.1817592e-22 1.2402118e-39)
(0.0054883034 -0.001172033 1.1446404e-21 0.00026637997 -2.5848213e-22 2.5687285e-40)
(0.0055697266 -0.0013227023 -8.3604892e-22 0.00034353327 1.8528155e-22 2.6900112e-39)
(0.0052491289 -0.0014195088 2.7310637e-22 0.0004315866 -1.0458896e-22 1.1395551e-39)
(0.0046648201 -0.0014635858 1.5952401e-21 0.00053046844 -5.6911229e-22 1.2742429e-39)
(0.0039490895 -0.0014566216 6.9850131e-22 0.0006375148 -2.7628263e-22 1.6005027e-40)
(0.0032100313 -0.001402944 -6.8532157e-22 0.00074778563 3.5239282e-22 4.1554831e-40)
(0.0025231222 -0.0013104309 -9.2822895e-22 0.00085485048 5.5702491e-22 4.9404911e-40)
(0.0019310605 -0.0011899028 -2.5266144e-23 0.00095190224 1.8396116e-23 5.1484243e-43)
(0.0014493399 -0.0010534623 2.6612356e-22 0.0010329507 -2.3466152e-22 7.9989039e-41)
(0.0010745267 -0.00091254197 -8.902785e-24 0.0010937808 3.0806802e-23 1.2319145e-40)
(0.00079256412 -0.00077635743 -9.2806224e-24 0.0011324527 5.0023677e-23 3.3341607e-40)
(0.00058539706 -0.00065114049 6.3724565e-24 0.0011492861 -6.5215019e-23 6.0229654e-40)
(0.00043529891 -0.00054014946 9.2630494e-23 0.0011463901 -1.8683193e-22 1.7597663e-40)
(0.00032710496 -0.00044423833 -5.183003e-23 0.0011269202 1.5702576e-22 4.5984991e-40)
(0.00024888646 -0.00036278802 -1.3370145e-22 0.0010950398 3.7975445e-22 8.8944096e-40)
(0.00019159877 -0.00029436587 4.4956327e-23 0.0010571433 -1.1084707e-22 1.9694975e-41)
(0.0004776141 -4.5319856e-05 -3.8829268e-22 4.4139857e-06 3.2352292e-23 7.9430249e-40)
(0.0021607691 -0.00023620477 -3.0151425e-22 2.6131257e-05 3.24042e-23 8.5607526e-40)
(0.0037130396 -0.00044266719 2.3381805e-21 5.4699793e-05 -2.970756e-22 1.0470155e-38)
(0.0047481501 -0.00063721964 1.7360532e-21 9.1790114e-05 -2.5171077e-22 1.1413323e-39)
(0.0051965308 -0.00081412827 7.754835e-22 0.00014182525 -1.2188916e-22 5.6106575e-40)
(0.0051405671 -0.00096457433 1.5639171e-22 0.00020765404 -3.2083808e-23 5.3737204e-42)
(0.0047237894 -0.0010789211 -1.4645651e-21 0.00029028001 3.2561746e-22 2.3444235e-39)
(0.0040983878 -0.0011488373 0 0.00038797609 0 0)
(0.0033957387 -0.0011703618 -8.9403853e-22 0.00049605623 3.8869239e-22 1.9422141e-39)
(0.0027120938 -0.0011456834 -1.5319917e-22 0.0006074836 1.0159185e-22 4.4056451e-40)
(0.0021058559 -0.0010826731 4.3678337e-22 0.00071412914 -2.5427212e-22 1.0622291e-40)
(0.0016028439 -0.00099273422 4.6438252e-23 0.00080831846 -6.0440473e-23 2.4243492e-40)
(0.0012055185 -0.00088806848 -2.0723802e-22 0.00088418804 2.0471106e-22 2.8155798e-40)
(0.00090265032 -0.00077936396 -1.5543113e-22 0.00093847472 2.0633645e-22 6.029176e-40)
(0.00067718954 -0.00067447341 1.0085865e-22 0.00097061698 -1.0264724e-22 7.3863059e-41)
(0.00051148993 -0.00057813456 1.3928454e-22 0.00098228714 -1.8036777e-22 6.7689834e-41)
(0.00039007402 -0.00049242695 -1.235622e-22 0.00097659392 2.0637642e-22 6.262976e-41)
(0.00030063472 -0.00041757983 -1.6454636e-22 0.00095723854 3.5961875e-22 7.434964e-40)
(0.00023399047 -0.00035288584 1.3131951e-23 0.00092820799 -2.6237e-24 8.7716095e-41)
(0.00018342054 -0.00029720836 2.2046482e-23 0.00089416575 -7.6344998e-23 1.0335798e-40)
(0.00049561187 -1.3090328e-05 -2.5632741e-22 3.9683267e-07 6.5346385e-24 3.8863937e-40)
(0.0021351193 -7.7474887e-05 1.0923851e-21 3.0711439e-06 -3.9195782e-23 2.1544735e-39)
(0.0035879316 -0.000182589 1.6702255e-21 1.0861499e-05 -1.0298587e-22 1.5636102e-38)
(0.0044827766 -0.00032252823 -1.9497248e-21 2.8560994e-05 1.6890545e-22 4.302013e-39)
(0.0047931284 -0.00048317934 7.024684e-22 6.128542e-05 -7.7501194e-23 1.0777423e-40)
(0.0046343151 -0.00064295444 2.8605713e-22 0.00011316392 1.9894468e-24 3.9760282e-39)
(0.0041675689 -0.00077958931 7.5603182e-23 0.00018565253 -1.5418673e-23 1.4190483e-42)
(0.0035470881 -0.00087612622 -1.0737884e-21 0.00027636365 2.4906052e-22 1.3373623e-39)
(0.0028939942 -0.0009246518 -2.4342843e-23 0.00037912936 8.4722542e-24 2.1235415e-43)
(0.0022878316 -0.00092668058 3.9916103e-22 0.00048525425 -2.0950244e-22 5.1022452e-40)
(0.0017697094 -0.00089073838 3.1128291e-23 0.00058546947 -3.2365974e-23 7.3108811e-41)
(0.00135171 -0.00082871002 -1.4422542e-22 0.00067188085 3.8319004e-23 9.4580537e-40)
(0.001027839 -0.0007524608 -3.1902074e-22 0.00073929374 2.6129317e-22 1.0413481e-40)
(0.00078338153 -0.00067161924 -1.5193437e-24 0.00078563745 2.5253214e-23 1.2321407e-40)
(0.00060137384 -0.00059272468 1.0742927e-22 0.00081158611 -1.4254265e-22 1.1991461e-40)
(0.00046622626 -0.00051941814 7.1310058e-23 0.00081970814 -1.1467983e-22 1.164573e-40)
(0.00036521843 -0.00045316729 1.587114e-23 0.00081350821 -5.442773e-23 1.8906455e-40)
(0.00028872652 -0.00039411196 -1.1441454e-22 0.00079664668 1.615896e-22 1.5102409e-40)
(0.00022983456 -0.00034179756 -2.4157232e-23 0.00077251185 -1.5869702e-23 6.48616e-40)
(0.00018358506 -0.00029543513 6.1607575e-23 0.00074407539 -1.9628937e-22 1.0692429e-39)
(3.3247921e-06 -4.1515169e-07 3.3235977e-23 5.072869e-07 -6.6524067e-24 3.7982051e-40)
(1.5674166e-05 -6.5606694e-06 -4.74203e-23 3.3701355e-06 1.3139581e-23 3.6567489e-40)
(3.5109159e-05 -1.5162354e-05 1.0533739e-22 6.7179907e-06 -3.9454444e-23 2.1000697e-39)
(0.00011255875 -3.1993157e-05 2.9398335e-22 9.6320614e-06 -6.2676711e-23 7.0630351e-39)
(0.00024699402 -5.2766036e-05 -2.0998071e-22 1.224771e-05 3.5747116e-23 1.8367546e-39)
(0.00044135702 -7.600466e-05 2.6463321e-22 1.4566624e-05 -3.5896362e-23 2.0295291e-39)
(0.00070193742 -0.00010090798 -3.6319786e-22 1.6592014e-05 4.6068846e-23 2.2286834e-39)
(0.0010303562 -0.00012667646 -3.7455416e-22 1.836645e-05 3.9115313e-23 2.3566905e-39)
(0.0014249823 -0.00015266133 4.7094179e-22 1.9935845e-05 -4.8773116e-23 2.4912095e-39)
(0.0018831067 -0.00017838418 -3.6539815e-22 2.1336116e-05 3.5647034e-23 1.2687627e-39)
(0.0024013587 -0.00020348478 -1.830761e-23 2.2594635e-05 3.0493709e-25 1.4759253e-41)
(0.0029757617 -0.00022768424 1.0502149e-22 2.3732426e-05 -1.1170818e-23 4.6634787e-41)
(0.0036019179 -0.00025076311 -1.811974e-23 2.4765642e-05 8.6827853e-25 7.4076953e-42)
(0.0042751812 -0.00027254778 5.7039933e-22 2.5707277e-05 -5.110179e-23 2.2214851e-39)
(0.0049907621 -0.00029290623 8.0284017e-25 2.6569297e-05 1.0816403e-24 4.8016089e-42)
(0.0057438323 -0.0003117559 -8.3669082e-22 2.7364806e-05 7.8289963e-23 4.5679981e-39)
(0.0065296661 -0.00032907079 1.5481904e-22 2.8107785e-05 -1.6315396e-23 9.6386959e-41)
(0.0073436617 -0.00034485008 3.7518583e-22 2.8808669e-05 -3.7264598e-23 1.1616034e-39)
(0.0081812411 -0.00035916463 -6.0745634e-22 2.947779e-05 6.4774479e-23 3.2921736e-39)
(0.0090372349 -0.00037250697 -3.3475089e-22 3.0110523e-05 3.8179946e-23 1.2361432e-39)
(3.7656936e-06 -1.737254e-06 1.094375e-23 4.4644736e-06 -4.0412936e-24 3.7567514e-41)
(1.9981882e-05 -2.2481026e-05 -3.0030017e-22 2.9698023e-05 2.2642002e-22 1.2229211e-38)
(4.4840136e-05 -5.1038559e-05 5.9598831e-23 5.9179983e-05 -4.9299318e-23 1.1037644e-39)
(0.00013241672 -0.00010356029 3.1618725e-22 8.4852394e-05 -1.9413853e-22 5.9025351e-39)
(0.00027855831 -0.00016744352 4.3922797e-22 0.00010784691 -2.1096121e-22 6.6746615e-39)
(0.00048524161 -0.00023834907 5.3098764e-23 0.00012814693 -2.1275976e-23 6.269947e-41)
(0.00075798591 -0.00031388508 -1.4114069e-21 0.00014578628 4.8843499e-22 3.3382245e-38)
(0.0010974912 -0.00039168823 -4.9670176e-23 0.00016114274 2.0557001e-23 9.6241601e-42)
(0.0015013015 -0.00046985437 7.9778929e-22 0.0001746201 -2.4245672e-22 5.6958433e-39)
(0.0019659557 -0.00054697961 -1.9248674e-22 0.00018653473 5.3034024e-23 3.1673255e-40)
(0.0024873411 -0.00062200412 -7.3020663e-22 0.00019712783 1.9965845e-22 3.5129039e-39)
(0.0030607342 -0.00069410447 1.5357671e-22 0.00020658345 -3.9169511e-23 1.59957e-40)
(0.0036809781 -0.00076262888 6.48059e-22 0.00021504093 -1.4448544e-22 3.768804e-39)
(0.004342639 -0.00082705585 2.6758031e-22 0.00022260943 -6.641033e-23 4.3031586e-40)
(0.0050400843 -0.00088697876 5.346604e-22 0.00022938627 -1.4228121e-22 1.244023e-39)
(0.0057675866 -0.00094212695 -4.2222711e-22 0.00023547524 1.0624319e-22 1.0527644e-39)
(0.0065195845 -0.00099239391 -4.030899e-22 0.00024098865 1.0048084e-22 1.1516086e-39)
(0.0072905879 -0.0010377387 4.06457e-22 0.00024601709 -1.1563542e-22 6.6506639e-40)
(0.0080735993 -0.0010783539 3.7021814e-22 0.00025066312 -1.0288922e-22 1.1637299e-39)
(0.0088602887 -0.0011161072 1.4278782e-22 0.00025492382 -3.8181398e-23 4.9453977e-40)
(4.8407032e-06 -4.4485123e-06 8.4206251e-24 1.1908242e-05 -4.2090946e-24 1.9773821e-41)
(3.020283e-05 -4.6458133e-05 2.2806024e-22 7.9275816e-05 -2.4411129e-22 5.2118273e-39)
(6.7487023e-05 -0.00010264452 -4.9899341e-23 0.00015784208 6.4301938e-23 2.7293133e-40)
(0.00017624234 -0.00019652716 -3.4345104e-22 0.00022621577 2.8912374e-22 6.4621012e-39)
(0.00034656286 -0.00030787621 1.2634083e-22 0.00028724055 -1.0604903e-22 1.8287178e-40)
(0.0005784832 -0.00042968023 1.6718895e-22 0.00034074296 -1.3586655e-22 9.5908281e-41)
(0.00087597378 -0.00055799052 -2.0848145e-22 0.00038680561 1.1043893e-22 5.756657e-40)
(0.0012379965 -0.00068898476 -5.4417282e-22 0.00042643539 3.1727538e-22 1.1488725e-39)
(0.0016605232 -0.00081961014 2.3815219e-22 0.00046070604 -1.1561999e-22 3.2142642e-40)
(0.0021386389 -0.00094760839 5.0563578e-22 0.00049046542 -2.0992919e-22 1.8258507e-39)
(0.0026667994 -0.0010712615 1.4022163e-22 0.00051636345 -9.7288977e-23 6.8458022e-41)
(0.0032388457 -0.001189221 6.1765703e-22 0.0005388945 -2.046275e-22 3.3886614e-39)
(0.0038481646 -0.0013004032 5.2298834e-23 0.00055842683 -1.9346914e-23 1.4046296e-41)
(0.0044878182 -0.0014039177 -9.1550001e-22 0.00057523828 3.0854013e-22 5.4475457e-39)
(0.0051505861 -0.0014990398 6.6975275e-23 0.00058956462 -4.4381736e-23 3.0198999e-41)
(0.0058290719 -0.0015852451 -4.2714243e-22 0.00060165081 1.1848035e-22 2.1230847e-39)
(0.0065161996 -0.0016622757 -6.0065225e-22 0.00061176328 2.3798826e-22 8.7152987e-40)
(0.0072049664 -0.0017299815 9.7373928e-22 0.00062016589 -3.7978481e-22 2.8935804e-39)
(0.0078843647 -0.001788626 5.1308119e-22 0.00062728941 -2.1283295e-22 5.8841859e-40)
(0.0085413242 -0.0018421798 1.0250498e-22 0.00063341314 -4.6824831e-23 1.2616751e-41)
(7.131377e-06 -9.2020494e-06 -1.2609196e-23 2.1930893e-05 1.5880321e-23 2.8953298e-41)
(4.9510038e-05 -8.2485964e-05 -5.2830486e-22 0.00014624459 6.6815764e-22 1.7292465e-38)
(0.0001095045 -0.00017778636 -3.8407307e-23 0.00029090676 4.9356238e-23 2.3635307e-40)
(0.00025324865 -0.00032127573 8.8479089e-23 0.00041658307 -9.7948998e-23 1.5062104e-40)
(0.00046283221 -0.00048614665 -1.4314848e-23 0.00052818658 3.7124488e-24 3.891525e-41)
(0.0007354196 -0.00066287759 4.5058485e-22 0.00062509118 -3.3017374e-22 2.8397568e-39)
(0.0010726031 -0.0008459614 4.9801652e-22 0.00070740124 -3.250545e-22 2.5796666e-39)
(0.0014707758 -0.0010302607 -1.5092663e-22 0.0007769744 7.2878584e-23 4.0658793e-40)
(0.0019235663 -0.0012117192 -5.528758e-22 0.00083580282 2.8844255e-22 2.5847867e-39)
(0.0024238661 -0.0013873158 -1.1134043e-21 0.00088548283 5.9986553e-22 5.4790569e-39)
(0.0029639729 -0.0015547238 -2.4547047e-23 0.00092725553 -1.3038153e-23 1.2515985e-40)
(0.0035355854 -0.0017120918 1.4150096e-21 0.00096207288 -6.5826669e-22 8.9546626e-39)
(0.004129939 -0.0018578994 -5.7330518e-22 0.00099064235 2.1816413e-22 2.6480467e-39)
(0.0047379381 -0.0019908705 -3.6981842e-22 0.0010134918 1.6176938e-22 5.2234217e-40)
(0.0053501718 -0.0021099268 -4.426234e-23 0.0010310497 5.0053206e-23 1.1282272e-40)
(0.0059570424 -0.0022142305 8.7379856e-22 0.0010437332 -3.8307349e-22 2.141947e-39)
(0.006549547 -0.0023033138 -4.9415771e-22 0.0010519844 2.4806418e-22 1.4314713e-40)
(0.0071190494 -0.0023769492 -1.1322417e-21 0.0010563583 4.7728884e-22 4.6119565e-39)
(0.0076501226 -0.0024355166 7.5803249e-22 0.0010581863 -3.3081755e-22 2.3188651e-39)
(0.0081246213 -0.0024854298 6.5376891e-22 0.0010590072 -2.6272883e-22 2.1574563e-39)
(1.1405122e-05 -1.6389931e-05 5.6601419e-23 3.3432704e-05 -5.5010005e-23 3.7243576e-40)
(8.2133157e-05 -0.00013289437 1.8368854e-23 0.00022319146 -4.7680323e-24 1.6815014e-40)
(0.00017941401 -0.00028094537 -7.2757541e-22 0.00044318117 1.0419573e-21 1.418315e-38)
(0.00037531236 -0.00048347521 -4.1793238e-22 0.00063365087 4.4392341e-22 4.3881056e-39)
(0.00064196426 -0.00070822586 2.7904508e-22 0.00080159339 -2.2215637e-22 2.6525419e-39)
(0.00097263964 -0.00094317319 3.4652246e-22 0.00094557644 -2.7918077e-22 1.2492479e-39)
(0.0013655446 -0.001181193 -4.5093892e-22 0.0010657112 2.9432612e-22 2.9235861e-39)
(0.0018135543 -0.0014160034 -6.8746972e-22 0.0011648784 3.941381e-22 6.4155486e-39)
(0.0023070725 -0.0016427331 1.0163967e-21 0.0012461928 -6.0662041e-22 6.5816193e-39)
(0.0028359561 -0.0018577383 2.916835e-22 0.0013122031 -1.1771552e-22 1.5324493e-39)
(0.0033895434 -0.0020581896 -9.1566736e-22 0.0013649408 6.0644784e-22 5.0606575e-40)
(0.0039566616 -0.0022418226 4.0185077e-22 0.0014060008 -1.8227678e-22 1.1797384e-39)
(0.0045258036 -0.0024067766 0 0.0014366008 0 0)
(0.0050852782 -0.0025514858 3.9070599e-22 0.0014576617 -1.9030209e-22 4.6155632e-40)
(0.0056232692 -0.0026746221 -2.9291063e-22 0.0014699162 1.3917281e-22 2.4646468e-40)
(0.0061280368 -0.0027751393 -4.4828687e-22 0.0014740263 2.2403729e-22 2.9909492e-40)
(0.0065890717 -0.0028524699 1.6496107e-22 0.0014706182 -1.3584482e-22 4.2113331e-40)
(0.0069971409 -0.0029065385 -1.3422804e-22 0.0014605571 8.065517e-23 1.5191553e-41)
(0.0073338523 -0.0029381761 6.4219915e-22 0.0014467495 -2.7824515e-22 2.4979201e-39)
(0.0075759377 -0.0029559712 -5.2214554e-22 0.0014339474 2.5668515e-22 1.4520647e-40)
(1.8549728e-05 -2.6134771e-05 5.4293439e-23 4.5321618e-05 -4.5649195e-23 2.9902808e-40)
(0.00013284184 -0.00019810727 2.6143154e-22 0.00030232363 -3.4815558e-22 1.1157789e-39)
(0.00028661052 -0.00041257966 -3.5083973e-22 0.00059840208 4.6563421e-22 2.6620566e-39)
(0.00055491274 -0.00068285399 -5.7544244e-22 0.00085329596 6.4768955e-22 2.2277156e-39)
(0.00089810099 -0.00097224719 -1.6825284e-22 0.0010758615 2.4776258e-22 1.7589333e-39)
(0.0013042354 -0.0012660795 -5.1993513e-22 0.0012636417 4.5689963e-22 1.0947759e-39)
(0.0017668529 -0.0015555469 -2.4237247e-22 0.001416862 1.4917309e-22 1.2657919e-39)
(0.0022742158 -0.0018334618 4.194498e-22 0.0015396025 -2.5214282e-22 2.3347281e-39)
(0.0028125334 -0.0020944248 1.0017822e-21 0.0016362972 -5.9675051e-22 7.9932257e-39)
(0.0033677603 -0.0023344447 3.0817492e-22 0.0017106741 -1.8968383e-22 3.3514076e-40)
(0.003925616 -0.0025504799 -2.9274572e-22 0.0017657928 1.5531552e-22 5.3175757e-40)
(0.0044716381 -0.0027401596 -5.5055481e-23 0.0018041323 -1.1955775e-23 4.6324062e-40)
(0.0049914702 -0.0029016161 -1.3913863e-21 0.0018276558 7.6153053e-22 4.4077013e-39)
(0.0054711471 -0.0030333744 -4.316261e-22 0.001837901 2.2577915e-22 4.5593028e-40)
(0.0058972933 -0.0031342893 7.2175938e-22 0.0018361001 -4.1815665e-22 2.1575697e-40)
(0.0062574507 -0.003203567 -7.1902162e-22 0.0018232994 3.8916536e-22 4.5044148e-40)
(0.0065415815 -0.0032409614 -2.5344907e-22 0.0018003232 1.2489167e-22 1.4419733e-40)
(0.0067426856 -0.0032469801 5.6735354e-22 0.0017681449 -2.3909054e-22 2.2425314e-39)
(0.0068435141 -0.0032234909 8.5829905e-22 0.0017314276 -4.3001195e-22 1.6992672e-39)
(0.0068165761 -0.0031805152 1.0465084e-22 0.0017005175 -4.8978411e-23 3.3099199e-41)
(2.9508202e-05 -3.8298379e-05 -1.5314011e-22 5.6604116e-05 1.2434757e-22 1.7692973e-39)
(0.00020637512 -0.00027660108 -1.696617e-22 0.00037625716 1.7212788e-22 1.4102314e-39)
(0.00043993655 -0.0005688632 4.2778614e-22 0.00074107698 -5.4092838e-22 6.4411533e-40)
(0.00080274709 -0.00091266596 6.5316578e-22 0.0010525223 -6.7674599e-22 2.9567196e-39)
(0.0012414817 -0.0012677978 8.5334672e-24 0.0013210098 -7.6849467e-24 5.871315e-43)
(0.0017372861 -0.0016167453 -1.7728044e-21 0.0015431426 1.4629812e-21 1.7269984e-38)
(0.0022775213 -0.0019490958 -6.9313934e-22 0.001719576 5.93687e-22 2.4608409e-40)
(0.0028447223 -0.0022571643 5.3957002e-22 0.0018558308 -3.6390224e-22 1.8953048e-39)
(0.0034201246 -0.0025355326 6.180248e-22 0.0019578738 -4.1509601e-22 1.1588856e-39)
(0.0039853431 -0.0027804071 -6.0601145e-22 0.0020308431 3.3730585e-22 3.1819368e-39)
(0.0045224232 -0.0029891093 -1.7774684e-21 0.0020790734 1.1221141e-21 4.6346262e-39)
(0.0050140934 -0.0031597897 1.168351e-21 0.0021061734 -7.0828095e-22 1.9052524e-39)
(0.0054442644 -0.003291258 6.9542157e-22 0.0021150936 -3.6264641e-22 2.2839491e-39)
(0.0057985413 -0.0033828755 -9.6293217e-22 0.0021082196 5.3156169e-22 1.8840182e-39)
(0.0060646363 -0.0034344841 4.2267293e-22 0.0020874866 -2.4421205e-22 1.2617788e-40)
(0.006232815 -0.0034463727 7.0116217e-22 0.0020544711 -3.6131809e-22 1.4033654e-39)
(0.0062975056 -0.003419354 2.6684056e-22 0.0020102064 -1.5063313e-22 4.7715813e-41)
(0.0062584678 -0.0033550379 -4.568867e-22 0.001955383 2.8297972e-22 6.0251405e-41)
(0.0061058903 -0.0032567363 -1.0557529e-22 0.0018956704 3.4077196e-23 3.4771345e-40)
(0.0058114729 -0.0031346511 5.9873426e-22 0.0018484794 -3.4667836e-22 1.4070167e-40)
(4.5207014e-05 -5.2485887e-05 -4.5719221e-24 6.6399404e-05 -4.7991131e-24 3.2915248e-41)
(0.00030681408 -0.00036495943 -6.1634015e-22 0.00043844523 6.5210069e-22 4.6341494e-39)
(0.00064614059 -0.00074183874 -4.9198468e-22 0.00085774493 5.2795935e-22 7.0119769e-39)
(0.0011252732 -0.0011599971 9.227734e-22 0.0012117038 -8.8461736e-22 4.0981052e-39)