/*--------------------------------*- C++ -*----------------------------------*\
  =========                 |
  \\      /  F ield         | OpenFOAM: The Open Source CFD Toolbox
   \\    /   O peration     | Website:  https://openfoam.org
    \\  /    A nd           | Version:  6
     \\/     M anipulation  |
\*---------------------------------------------------------------------------*/
FoamFile
{
    version     2.0;
    format      ascii;
    class       volScalarField;
    location    "241";
    object      pMean;
}
// * * * * * * * * * * * * * * * * * * * * * * * * * * * * * * * * * * * * * //

dimensions      [0 2 -2 0 0 0 0];

internalField   nonuniform List<scalar> 
9200
(
-0.39121841
-0.37937288
-0.36880476
-0.35945806
-0.35031756
-0.34138884
-0.33275396
-0.32437819
-0.31619124
-0.30811956
-0.30008978
-0.29203358
-0.28389472
-0.27563622
-0.26725058
-0.25877705
-0.25029595
-0.24189816
-0.23459395
-0.23260686
-0.40949217
-0.39519699
-0.38269041
-0.37181755
-0.36129031
-0.35108322
-0.3412687
-0.33178183
-0.32252131
-0.31338878
-0.30429259
-0.29515346
-0.28591197
-0.27653425
-0.26701704
-0.25739119
-0.2476925
-0.23792596
-0.22876786
-0.22236364
-0.42812038
-0.41136269
-0.39697003
-0.38464376
-0.37278414
-0.36131665
-0.35029302
-0.33961145
-0.32913882
-0.31875706
-0.30836645
-0.29789093
-0.28728447
-0.2765337
-0.26565709
-0.2547001
-0.24370747
-0.23269269
-0.2220541
-0.21290557
-0.44665218
-0.42745957
-0.41125031
-0.39753222
-0.38435736
-0.3715865
-0.35924391
-0.34719181
-0.33527462
-0.32337115
-0.3113952
-0.29929791
-0.28707019
-0.27473975
-0.26236373
-0.25001818
-0.2377741
-0.22567274
-0.21398227
-0.20344803
-0.46444017
-0.44292392
-0.42501786
-0.40998403
-0.39550003
-0.38135222
-0.3675388
-0.35389822
-0.34027432
-0.32657067
-0.3127445
-0.29880191
-0.28479277
-0.27080009
-0.25692615
-0.24327823
-0.22994834
-0.2169947
-0.20460605
-0.19329532
-0.48064349
-0.45702001
-0.43759494
-0.42133317
-0.40553006
-0.38989916
-0.37442674
-0.35895464
-0.34336113
-0.32761108
-0.31173736
-0.29582454
-0.2799936
-0.26438349
-0.24913287
-0.2343654
-0.22017492
-0.20661464
-0.19381005
-0.18210253
-0.49424279
-0.46884661
-0.44814125
-0.43075008
-0.41360535
-0.39636541
-0.37903407
-0.36149842
-0.34371584
-0.32575123
-0.30774003
-0.28985743
-0.27229313
-0.25522799
-0.23881599
-0.22317379
-0.20837391
-0.19444305
-0.18144646
-0.16958795
-0.50406321
-0.47736163
-0.45568773
-0.43729002
-0.4187897
-0.39982556
-0.38046298
-0.36068696
-0.34058195
-0.32034647
-0.3002342
-0.2805089
-0.26141313
-0.24314567
-0.2258498
-0.20961161
-0.19446336
-0.18039154
-0.16740248
-0.15558373
-0.50875449
-0.48127925
-0.45893647
-0.43960599
-0.41969882
-0.39889779
-0.37739027
-0.35531578
-0.33292377
-0.31055996
-0.28858775
-0.26733557
-0.24706738
-0.22796868
-0.21014616
-0.19363751
-0.17842466
-0.1644504
-0.15166624
-0.14005995
-0.50696374
-0.4791761
-0.45633183
-0.43602612
-0.41460867
-0.39189043
-0.36824536
-0.34401117
-0.31961346
-0.29552592
-0.27218276
-0.24993098
-0.22901336
-0.20956983
-0.1916511
-0.17523868
-0.16026545
-0.14663654
-0.13425606
-0.12302458
-0.27404692
-0.2785002
-0.2806643
-0.28111112
-0.28057463
-0.27922891
-0.27716517
-0.27447638
-0.27123682
-0.26750329
-0.26332209
-0.25873287
-0.25377079
-0.24846797
-0.24285471
-0.23696197
-0.23082284
-0.22445997
-0.21787414
-0.21115486
-0.27692102
-0.28094232
-0.28279122
-0.28301609
-0.28229513
-0.28079374
-0.27860107
-0.27580593
-0.27247876
-0.2686733
-0.26443326
-0.25979605
-0.25479481
-0.24945951
-0.24381775
-0.23789932
-0.23174471
-0.22537491
-0.21868233
-0.21164044
-0.28252033
-0.28569934
-0.28693531
-0.28672619
-0.28564382
-0.28383802
-0.28139394
-0.27839235
-0.27489618
-0.27095315
-0.26660179
-0.26187498
-0.25680182
-0.25140821
-0.24571668
-0.2397539
-0.23357154
-0.22718963
-0.22030682
-0.21265728
-0.29058248
-0.29255946
-0.29291026
-0.29206332
-0.29044385
-0.28818184
-0.28535779
-0.28204156
-0.27828569
-0.27412947
-0.26960408
-0.26473584
-0.25954795
-0.25406032
-0.24828842
-0.24225341
-0.23601839
-0.22960836
-0.22247634
-0.21397939
-0.30077727
-0.30125691
-0.30048421
-0.29880854
-0.29648078
-0.29361007
-0.29027288
-0.28652666
-0.28241171
-0.27795739
-0.27318595
-0.26811495
-0.2627596
-0.25713256
-0.25124093
-0.24509726
-0.238772
-0.23230364
-0.2248905
-0.21537179
-0.31276251
-0.31151614
-0.30941889
-0.30674086
-0.3035429
-0.29991493
-0.29593164
-0.29163836
-0.28706251
-0.28222104
-0.27712478
-0.27178144
-0.26619698
-0.26037529
-0.25431416
-0.24801476
-0.24154704
-0.23496893
-0.22725503
-0.21661301
-0.32623421
-0.32309112
-0.31950495
-0.31567311
-0.31145939
-0.30693806
-0.30218596
-0.29723594
-0.29209992
-0.28678171
-0.28128003
-0.27559077
-0.26970891
-0.26362852
-0.2573383
-0.25082783
-0.24415977
-0.23741461
-0.22940742
-0.21765412
-0.34095628
-0.33578952
-0.33058527
-0.32547762
-0.32013089
-0.3146069
-0.308985
-0.30328499
-0.29750339
-0.29162897
-0.28564557
-0.2795344
-0.27327655
-0.26685395
-0.26024576
-0.25343311
-0.24647638
-0.23950206
-0.23128409
-0.21864872
-0.35675968
-0.34946389
-0.34253506
-0.33605394
-0.3294795
-0.32286006
-0.31627952
-0.3097443
-0.30323283
-0.29671588
-0.29015909
-0.28352514
-0.27677615
-0.26987406
-0.26277615
-0.25543707
-0.24788285
-0.24022301
-0.23123065
-0.21744421
-0.37353301
-0.36399255
-0.35522688
-0.34726832
-0.33935833
-0.33153165
-0.32387675
-0.31638464
-0.30901353
-0.30171497
-0.29443657
-0.2871247
-0.27972759
-0.27219547
-0.2644753
-0.25650655
-0.24823641
-0.23946554
-0.22857651
-0.21258161
-0.20354694
-0.19407853
-0.1846347
-0.1752897
-0.16598648
-0.15676574
-0.14768323
-0.13877502
-0.13006994
-0.12159593
-0.11337801
-0.10543726
-0.097791281
-0.090454658
-0.083439012
-0.076753076
-0.070402852
-0.064391758
-0.058720762
-0.053388534
-0.048391603
-0.043724524
-0.039380064
-0.035349389
-0.031622264
-0.028187256
-0.025031941
-0.022143109
-0.019506964
-0.017109317
-0.01493577
-0.012971889
-0.011203362
-0.0096161459
-0.0081966017
-0.0069316131
-0.0058087075
-0.0048161471
-0.003943105
-0.0031795681
-0.0025172172
-0.0019472582
-0.0014682372
-0.0010630588
-0.00077162591
-0.00047545273
-0.00054584621
4.8347299e-05
-0.001794863
0.0027029917
-0.20476137
-0.19486964
-0.18530293
-0.17596496
-0.16663375
-0.15737173
-0.14825462
-0.1393147
-0.13057792
-0.12207285
-0.11382495
-0.10585512
-0.098180964
-0.09081712
-0.083775272
-0.077064202
-0.070689955
-0.064655988
-0.0589633
-0.05361058
-0.048594364
-0.043909206
-0.039547859
-0.035501469
-0.031759772
-0.028311298
-0.025143582
-0.022243368
-0.019596809
-0.017189663
-0.01500748
-0.013035768
-0.011260161
-0.0096665592
-0.0082412693
-0.0069711214
-0.0058435913
-0.0048468905
-0.003970144
-0.0032032916
-0.0025379676
-0.0019653345
-0.0014838768
-0.0010764947
-0.0007828199
-0.0004849613
-0.00055157087
4.0749353e-05
-0.0017821116
0.0026738856
-0.20725313
-0.19646522
-0.186657
-0.17737596
-0.16800412
-0.1586616
-0.14947851
-0.14047737
-0.13167678
-0.12310763
-0.11479687
-0.10676531
-0.099030637
-0.091607854
-0.084508922
-0.077742829
-0.071315802
-0.065231454
-0.059490903
-0.054092917
-0.04903408
-0.044308965
-0.039910315
-0.035829238
-0.032055413
-0.028577297
-0.025382332
-0.022457158
-0.019787817
-0.017359946
-0.015158968
-0.013170267
-0.011379347
-0.0097719801
-0.0083343476
-0.0070531571
-0.0059157656
-0.0049102704
-0.0040256866
-0.0032518481
-0.0025802865
-0.0020020654
-0.0015155433
-0.00110359
-0.0008053255
-0.00050395292
-0.00056303006
2.5807662e-05
-0.0017569453
0.002616258
-0.21079031
-0.19857458
-0.18841784
-0.179324
-0.16994422
-0.1605016
-0.15124205
-0.14217082
-0.13329021
-0.12463646
-0.11624062
-0.10812368
-0.10030364
-0.092796416
-0.085614705
-0.07876803
-0.072263074
-0.066103832
-0.060291728
-0.054825756
-0.049702659
-0.044917104
-0.040461875
-0.036328075
-0.032505334
-0.028982021
-0.025745467
-0.022782172
-0.020078019
-0.017618473
-0.015388774
-0.013374116
-0.011559808
-0.0099314326
-0.0084749761
-0.0071769592
-0.0060245565
-0.0050056889
-0.0041092023
-0.0033247672
-0.0026437565
-0.0020570815
-0.0015629095
-0.0011440568
-0.00083888842
-0.00053220517
-0.00058006227
3.7498287e-06
-0.001719847
0.0025313187
-0.21506708
-0.20086752
-0.19026385
-0.18156047
-0.17226138
-0.16272329
-0.15339864
-0.14427335
-0.13531753
-0.12657465
-0.11808482
-0.10987043
-0.10195005
-0.094341115
-0.08705785
-0.080110866
-0.073507719
-0.067253158
-0.061349216
-0.055795367
-0.050588708
-0.045724161
-0.041194669
-0.036991413
-0.033104032
-0.029520843
-0.026229074
-0.02321508
-0.020464565
-0.01796279
-0.015694771
-0.013645461
-0.011799924
-0.01014349
-0.0086618959
-0.0073414143
-0.0061689774
-0.0051322715
-0.0042199161
-0.0034213622
-0.0027277703
-0.0021298463
-0.0016255022
-0.0011974795
-0.00088314663
-0.00056939606
-0.00060245884
-2.5062988e-05
-0.0016716265
0.0024209522
-0.21966943
-0.20301649
-0.19188547
-0.18380969
-0.17474277
-0.16514758
-0.15578418
-0.14664175
-0.13763952
-0.12882245
-0.1202448
-0.11193395
-0.10390968
-0.096191543
-0.088796134
-0.081735998
-0.0750202
-0.068654749
-0.062642737
-0.056984488
-0.051677765
-0.04671799
-0.042098466
-0.037810606
-0.03384417
-0.030187507
-0.026827793
-0.023751268
-0.020943465
-0.01838943
-0.016073932
-0.013981651
-0.012097364
-0.010406101
-0.0088932977
-0.0075449248
-0.0063476178
-0.0052887731
-0.0043567298
-0.0035406662
-0.0028314778
-0.0022196147
-0.0017026698
-0.0012632913
-0.00093761311
-0.0006151002
-0.00062995134
-6.0176938e-05
-0.001613333
0.0022876087
-0.22415847
-0.20481286
-0.19304988
-0.18576898
-0.17716033
-0.16762167
-0.15826035
-0.14914223
-0.14014014
-0.1312833
-0.12263851
-0.11424351
-0.1061219
-0.09829583
-0.090785097
-0.083605208
-0.076767594
-0.070280195
-0.064147718
-0.058371821
-0.05295133
-0.047882491
-0.043159225
-0.038773386
-0.034715016
-0.030972611
-0.02753338
-0.0243835
-0.021508363
-0.01889281
-0.016521353
-0.014378382
-0.012448352
-0.010715957
-0.0091662872
-0.0077849633
-0.0065582752
-0.0054732791
-0.0045179839
-0.0036812454
-0.0029536449
-0.0023253292
-0.0017935103
-0.0013407305
-0.001001653
-0.00066878994
-0.00066221537
-0.0001011037
-0.0015461742
0.0021341576
-0.22824939
-0.20663378
-0.19397558
-0.18725002
-0.17929392
-0.17004762
-0.16077204
-0.15170721
-0.14274577
-0.13388978
-0.12520518
-0.11674274
-0.1085343
-0.10060595
-0.092981098
-0.085679026
-0.078714372
-0.072097666
-0.065835769
-0.059932134
-0.054387045
-0.049197906
-0.044359529
-0.039864426
-0.035703101
-0.031864335
-0.028335472
-0.025102702
-0.022151321
-0.019465991
-0.017030978
-0.014830372
-0.012848291
-0.011069064
-0.0094774018
-0.0080585371
-0.0067983717
-0.0056835782
-0.0047017904
-0.0038414967
-0.0030929189
-0.0024458573
-0.0018970833
-0.0014290273
-0.0010746468
-0.00072997414
-0.00069898278
-0.0001474228
-0.0014714966
0.0019638397
-0.22960419
-0.20867705
-0.19531683
-0.18817808
-0.18070888
-0.17204388
-0.16304367
-0.15410329
-0.14524078
-0.13645132
-0.12778422
-0.11929835
-0.11103713
-0.10303291
-0.095313465
-0.087902481
-0.080818735
-0.074076245
-0.06768482
-0.061650417
-0.055975425
-0.050658971
-0.045697251
-0.041083858
-0.036810104
-0.032865344
-0.029237293
-0.02591233
-0.022875795
-0.020112268
-0.017605835
-0.015340323
-0.013299529
-0.011467416
-0.0098282954
-0.0083669864
-0.007068967
-0.0059204846
-0.0049087537
-0.0040218479
-0.0032495809
-0.0025813587
-0.0020134495
-0.0015281563
-0.0011565177
-0.00079847429
-0.00074025339
-0.00019853551
-0.0013910842
0.0017808853
-0.21994681
-0.20803485
-0.19656979
-0.18803307
-0.18051321
-0.17263833
-0.16425443
-0.15568635
-0.14711283
-0.13856201
-0.13006442
-0.1216794
-0.1134634
-0.10545968
-0.097703915
-0.090226972
-0.083054354
-0.076205962
-0.069696604
-0.063536486
-0.057731577
-0.052283968
-0.047192267
-0.042451991
-0.038055947
-0.033994612
-0.030256498
-0.026828508
-0.023696274
-0.020844476
-0.018257139
-0.015917907
-0.013810296
-0.011917913
-0.010224663
-0.0087149232
-0.0073737088
-0.0061867956
-0.0051409266
-0.004223705
-0.0034244807
-0.0027322067
-0.0021425884
-0.001637752
-0.0012466897
-0.00087337141
-0.00078548466
-0.00025240343
-0.0013073456
0.0015909597
-0.19815745
-0.2020021
-0.19616877
-0.18687549
-0.17895357
-0.17150291
-0.16357731
-0.15532058
-0.1469961
-0.13866864
-0.13036122
-0.12212897
-0.11403236
-0.10611937
-0.09842912
-0.090995723
-0.083847915
-0.077008633
-0.070495418
-0.064320928
-0.058493312
-0.053016582
-0.047891015
-0.043113562
-0.03867825
-0.034576577
-0.030797898
-0.027329797
-0.024158446
-0.021268939
-0.018645605
-0.0162723
-0.014132669
-0.012210382
-0.010489352
-0.0089539158
-0.0075890139
-0.0063803159
-0.0053144323
-0.0043788185
-0.0035626258
-0.0028546732
-0.0022501741
-0.0017316809
-0.0013253273
-0.00094150381
-0.00082462312
-0.00030585255
-0.0012201378
0.0014024061
-0.18727292
-0.19222425
-0.188231
-0.17919377
-0.17163818
-0.1649845
-0.15790031
-0.15039549
-0.14276089
-0.13507307
-0.12734611
-0.11963128
-0.11199172
-0.10447944
-0.097137544
-0.090004352
-0.083113035
-0.076490916
-0.070159738
-0.064136135
-0.05843198
-0.053054736
-0.04800785
-0.043291162
-0.038901315
-0.034832159
-0.031075148
-0.02761973
-0.024453715
-0.021563626
-0.018935033
-0.016552853
-0.014401634
-0.012465803
-0.010729901
-0.0091787765
-0.0077977782
-0.0065728947
-0.0054909667
-0.0045396268
-0.0037080663
-0.002985267
-0.0023659351
-0.0018336914
-0.0014106554
-0.0010167901
-0.00086581628
-0.00036842374
-0.001119639
0.0011980342
-0.17812271
-0.1805924
-0.1778393
-0.17056362
-0.16390864
-0.15799101
-0.15171018
-0.14496954
-0.13802962
-0.13098626
-0.1238559
-0.11668401
-0.10953266
-0.1024559
-0.095499221
-0.088703621
-0.082105502
-0.075735728
-0.069619654
-0.063777505
-0.058224667
-0.05297197
-0.048026048
-0.043389722
-0.039062391
-0.035040432
-0.031317595
-0.027885395
-0.024733485
-0.021850024
-0.01922201
-0.016835605
-0.014676424
-0.012729804
-0.010981046
-0.0094156325
-0.0080194228
-0.0067788139
-0.005680951
-0.0047137067
-0.0038663535
-0.0031280889
-0.0024930762
-0.0019461589
-0.0015049959
-0.0011002356
-0.00091160188
-0.00043785802
-0.0010092711
0.00097320822
-0.16803144
-0.1680426
-0.16578983
-0.16060668
-0.15521779
-0.15008405
-0.14462955
-0.13873184
-0.13256368
-0.1262259
-0.11975036
-0.1131807
-0.1065758
-0.099990499
-0.093472347
-0.087064609
-0.08080646
-0.074732018
-0.068870127
-0.063244586
-0.05787436
-0.052773797
-0.047952917
-0.043417757
-0.039170735
-0.035211028
-0.031534956
-0.028136371
-0.025007031
-0.022136972
-0.019514851
-0.017128283
-0.014964141
-0.013008841
-0.011248595
-0.0096696491
-0.0082584862
-0.0070020077
-0.0058877421
-0.0049038667
-0.004039784
-0.0032849419
-0.0026329769
-0.0020699671
-0.0016090486
-0.001191645
-0.00096295677
-0.00051109754
-0.00089673496
0.00073822924
-0.15706669
-0.1553467
-0.1531829
-0.14972604
-0.14565729
-0.14136649
-0.13674258
-0.13171746
-0.12637235
-0.1207903
-0.11501821
-0.10910223
-0.10309714
-0.097056704
-0.091029563
-0.085060476
-0.079190615
-0.073456753
-0.067890837
-0.062520009
-0.057366713
-0.052448823
-0.04777985
-0.043369219
-0.039222583
-0.03534217
-0.031727141
-0.028373959
-0.025276764
-0.022427734
-0.019817442
-0.017435189
-0.015269325
-0.013307538
-0.011537132
-0.009945266
-0.008519184
-0.0072464045
-0.0061149361
-0.0051133368
-0.004231203
-0.0034582683
-0.0027876921
-0.0022067328
-0.0017241548
-0.0012917075
-0.0010211014
-0.00058714143
-0.00078793828
0.0005012527
-0.14493815
-0.14254559
-0.14056071
-0.13839198
-0.13551575
-0.13209418
-0.12828836
-0.12411412
-0.11959377
-0.11478331
-0.10973662
-0.10450164
-0.099128798
-0.093669466
-0.088172129
-0.08268194
-0.077240938
-0.071887544
-0.066656016
-0.061576247
-0.056673726
-0.051969564
-0.047480602
-0.043219603
-0.039195493
-0.035413654
-0.031876239
-0.028582515
-0.025529211
-0.022710872
-0.020120208
-0.017748428
-0.015585569
-0.013620792
-0.011842671
-0.010239447
-0.0087992692
-0.0075104033
-0.0063614487
-0.0053414347
-0.0044402317
-0.0036479005
-0.0029572054
-0.0023564906
-0.0018504705
-0.0014003745
-0.0010867265
-0.00066517338
-0.00068871991
0.00027085443
-0.13196837
-0.12978579
-0.12820164
-0.12696295
-0.12507046
-0.12248711
-0.11946961
-0.11609832
-0.11237172
-0.10832012
-0.1039958
-0.099447825
-0.094721438
-0.089863241
-0.084920301
-0.079937273
-0.074956003
-0.070015396
-0.065151003
-0.060394637
-0.055774161
-0.051313399
-0.047032137
-0.042946214
-0.03906768
-0.035405012
-0.031963374
-0.028744909
-0.025749057
-0.022972879
-0.020411391
-0.018057896
-0.0159043
-0.01394142
-0.012159273
-0.010547346
-0.0090948465
-0.0077909204
-0.0066248784
-0.0055863215
-0.0046654873
-0.0038528121
-0.0031407745
-0.0025186828
-0.0019876698
-0.0015172743
-0.0011602823
-0.00074443265
-0.00060492865
5.6204275e-05
-0.11886212
-0.11731045
-0.11625524
-0.11569324
-0.11457653
-0.11275333
-0.11047167
-0.1078401
-0.10485399
-0.10152633
-0.097901248
-0.094025412
-0.089940618
-0.085687963
-0.081310085
-0.076849934
-0.072348409
-0.067843899
-0.063372147
-0.058965903
-0.054654573
-0.050463992
-0.046416323
-0.042530037
-0.038819984
-0.035297515
-0.031970677
-0.028844441
-0.025920967
-0.023199894
-0.020678649
-0.018352748
-0.016216112
-0.014261365
-0.012480123
-0.010863273
-0.0094012214
-0.0080841317
-0.0069021491
-0.0058455534
-0.0049050508
-0.0040715103
-0.0033372546
-0.0026924255
-0.0021351483
-0.0016418969
-0.0012420243
-0.0008244517
-0.00054167338
-0.00013399828
-0.10614749
-0.1052953
-0.10478643
-0.10473965
-0.10423096
-0.10306714
-0.10144944
-0.099485943
-0.097175134
-0.094520645
-0.09155662
-0.088324089
-0.084860248
-0.08120167
-0.077386363
-0.073453191
-0.069440795
-0.065386266
-0.061324638
-0.057288617
-0.053308244
-0.049410569
-0.045619442
-0.041955391
-0.038435595
-0.035073923
-0.031881039
-0.028864564
-0.026029281
-0.023377372
-0.020908685
-0.01862101
-0.016510369
-0.014571302
-0.012797147
-0.011180316
-0.0097125463
-0.008385146
-0.007189215
-0.0061158195
-0.0051562411
-0.0043018465
-0.0035449447
-0.0028763916
-0.0022919342
-0.0017735491
-0.0013319232
-0.0009051064
-0.00050258196
-0.00029269217
-0.094099518
-0.093857126
-0.093840228
-0.094200478
-0.094171807
-0.093562547
-0.092525401
-0.091153651
-0.089447706
-0.087406373
-0.085054524
-0.082425914
-0.07955232
-0.076465148
-0.073197819
-0.069785023
-0.066261638
-0.062662254
-0.05902039
-0.055367887
-0.051734552
-0.048147829
-0.044632511
-0.041210533
-0.037900845
-0.034719367
-0.031679011
-0.028789766
-0.026058832
-0.023490804
-0.021087882
-0.018850112
-0.016775638
-0.014860972
-0.013101254
-0.011490516
-0.010021935
-0.0086880704
-0.0074810872
-0.0063929411
-0.0054155952
-0.0045409846
-0.0037615523
-0.0030687748
-0.0024566561
-0.0019113191
-0.0014296021
-0.00098653857
-0.00048925252
-0.00041548097
-0.082852091
-0.083084677
-0.083469095
-0.08414871
-0.084497598
-0.084342931
-0.083798781
-0.082939913
-0.081765981
-0.080272703
-0.078477095
-0.07640532
-0.074083205
-0.07153677
-0.068794267
-0.065885929
-0.062842746
-0.059695834
-0.056476176
-0.053213971
-0.049938033
-0.046675424
-0.043451138
-0.040287835
-0.037205628
-0.034221962
-0.031351547
-0.028606375
-0.025995778
-0.023526546
-0.021203086
-0.019027604
-0.017000332
-0.01511975
-0.013382831
-0.011785287
-0.010321807
-0.008986287
-0.0077720525
-0.0066720402
-0.0056789944
-0.0047854932
-0.0039842591
-0.0032673306
-0.0026275695
-0.0020540674
-0.001534308
-0.0010690116
-0.0005009701
-0.00050136842
-0.072461631
-0.073038285
-0.073724797
-0.074643692
-0.075282333
-0.07549019
-0.075352669
-0.074927444
-0.074211811
-0.073198869
-0.071899093
-0.070331498
-0.068515853
-0.066472717
-0.064225054
-0.061798177
-0.059218831
-0.056514445
-0.053712758
-0.050841488
-0.047927742
-0.044997496
-0.042075246
-0.039183694
-0.036343495
-0.033573048
-0.030888369
-0.028303025
-0.025828127
-0.023472379
-0.021242174
-0.01914173
-0.017173257
-0.015337151
-0.013632203
-0.012055819
-0.010604239
-0.0092727577
-0.0080559283
-0.0069477487
-0.0059418331
-0.0050314775
-0.0042098213
-0.0034694452
-0.0028026048
-0.0022004222
-0.0016449034
-0.0011527297
-0.00053477585
-0.00055299382
-0.062937286
-0.063748666
-0.064646282
-0.065731334
-0.066582325
-0.067069581
-0.067257132
-0.067188489
-0.066858281
-0.066257289
-0.06539055
-0.064270734
-0.062911854
-0.061329144
-0.059540364
-0.057565823
-0.055427684
-0.053149352
-0.050755048
-0.048269435
-0.045717222
-0.043122654
-0.040509075
-0.037898589
-0.035311765
-0.032767378
-0.030282221
-0.027870968
-0.025546105
-0.02331791
-0.021194491
-0.019181858
-0.017284045
-0.015503256
-0.013840035
-0.012293455
-0.010861312
-0.0095403253
-0.0083263268
-0.0072144346
-0.0061992082
-0.0052747332
-0.0044346921
-0.0036722232
-0.0029794288
-0.0023487823
-0.0017598859
-0.0012376664
-0.00058592047
-0.00057621885
-0.054262036
-0.055222159
-0.056254542
-0.057442101
-0.058438058
-0.05913128
-0.05956953
-0.059785064
-0.059770301
-0.059514178
-0.059017327
-0.058287028
-0.057332133
-0.05616294
-0.054792275
-0.053235588
-0.051510423
-0.049635939
-0.047632553
-0.045521578
-0.043324837
-0.041064258
-0.038761453
-0.036437332
-0.03411178
-0.031803374
-0.029529138
-0.027304359
-0.025142455
-0.023054894
-0.021051169
-0.01913882
-0.017323493
-0.015609041
-0.013997651
-0.012489995
-0.011085392
-0.0097819838
-0.0085769002
-0.0074664207
-0.00644611
-0.0055109087
-0.0046551546
-0.0038725867
-0.0031555179
-0.0024973347
-0.0018774398
-0.0013234496
-0.00064863933
-0.00057907234
-0.046403168
-0.047446149
-0.048552531
-0.049790211
-0.05087446
-0.051710564
-0.052333853
-0.052767831
-0.053003434
-0.053028395
-0.05283996
-0.052441028
-0.051836076
-0.051031051
-0.050034314
-0.048856785
-0.047511576
-0.04601362
-0.044379397
-0.04262665
-0.040774028
-0.038840726
-0.036846123
-0.034809411
-0.032749247
-0.030683459
-0.028628769
-0.026600569
-0.024612738
-0.022677515
-0.020805411
-0.01900518
-0.017283822
-0.015646632
-0.014097286
-0.01263794
-0.011269368
-0.0099910941
-0.008801542
-0.0076981699
-0.0066775894
-0.005735652
-0.0048674465
-0.0040673745
-0.0033282356
-0.0026440909
-0.0019955256
-0.001409332
-0.00071708794
-0.00057025557
-0.039317623
-0.040394272
-0.041528238
-0.04277513
-0.043901906
-0.044828422
-0.045580603
-0.046175292
-0.046602672
-0.046849955
-0.046911977
-0.046788275
-0.046479808
-0.045988898
-0.045320053
-0.044480164
-0.043478267
-0.042325289
-0.041033852
-0.039618065
-0.038093244
-0.0364756
-0.034781921
-0.033029251
-0.031234553
-0.02941441
-0.027584738
-0.025760535
-0.023955671
-0.02218271
-0.020452784
-0.018775506
-0.017158928
-0.015609537
-0.014132291
-0.012730682
-0.011406822
-0.010161549
-0.0089945404
-0.0079044272
-0.006888888
-0.0059447276
-0.0050678634
-0.0042534284
-0.003494906
-0.0027869397
-0.0021119944
-0.0014942466
-0.00078621024
-0.00055757788
-0.032956506
-0.03403132
-0.035158792
-0.03638446
-0.037518303
-0.038493049
-0.039327618
-0.040033892
-0.040601936
-0.04101905
-0.041278555
-0.041377575
-0.04131442
-0.04108856
-0.040701352
-0.040156268
-0.039458771
-0.038616156
-0.037637436
-0.036533208
-0.035315449
-0.03399728
-0.032592696
-0.031116289
-0.029582962
-0.02800764
-0.026404984
-0.024789143
-0.023173514
-0.021570547
-0.019991577
-0.018446698
-0.016944676
-0.015492899
-0.014097365
-0.012762701
-0.011492205
-0.010287921
-0.0091507084
-0.0080803339
-0.0070755397
-0.006134107
-0.005252838
-0.0044276623
-0.0036528776
-0.0029237106
-0.0022247078
-0.0015769196
-0.0008523155
-0.00054674751
-0.027268477
-0.028316932
-0.029414022
-0.030597009
-0.031711631
-0.032701897
-0.033581571
-0.034358921
-0.035024381
-0.035565831
-0.035975828
-0.036249923
-0.036384587
-0.036377196
-0.036226676
-0.03593375
-0.035500895
-0.034932261
-0.034233638
-0.03341238
-0.032477283
-0.031438418
-0.030306925
-0.029094791
-0.027814612
-0.026479339
-0.025102022
-0.023695557
-0.022272456
-0.020844631
-0.019423212
-0.018018385
-0.016639272
-0.01529384
-0.013988846
-0.012729818
-0.011521052
-0.010365644
-0.0092655329
-0.0082215506
-0.0072334706
-0.0063000504
-0.0054190087
-0.0045871221
-0.0037995801
-0.0030522413
-0.0023316404
-0.0016559998
-0.00091323108
-0.00054083515
-0.022202032
-0.023208245
-0.024259267
-0.025385526
-0.026462469
-0.027443911
-0.028339842
-0.029155933
-0.029883331
-0.030510845
-0.031030857
-0.031438048
-0.03172774
-0.031895915
-0.031939753
-0.031857893
-0.031650443
-0.031318967
-0.030866502
-0.030297543
-0.029617991
-0.028835042
-0.027957061
-0.026993412
-0.025954271
-0.024850423
-0.02369304
-0.022493455
-0.021262942
-0.020012505
-0.018752682
-0.017493375
-0.0162437
-0.015011869
-0.013805097
-0.012629544
-0.011490278
-0.010391267
-0.0093353845
-0.0083244266
-0.0073591346
-0.0064392133
-0.0055633017
-0.0047290524
-0.0039325831
-0.0031704462
-0.0024309472
-0.0017301661
-0.00096805315
-0.00054048238
-0.017707369
-0.018662096
-0.019657803
-0.020719219
-0.021746485
-0.022701882
-0.023592629
-0.024422552
-0.025183709
-0.025866055
-0.026462225
-0.026966568
-0.027373833
-0.027679188
-0.027878682
-0.027969487
-0.027949944
-0.027819598
-0.02757925
-0.027230991
-0.026778197
-0.026225485
-0.025578638
-0.024844502
-0.02403085
-0.023146229
-0.022199784
-0.021201071
-0.020159858
-0.019085933
-0.017988914
-0.016878074
-0.015762178
-0.014649349
-0.01354695
-0.012461491
-0.011398562
-0.01036279
-0.0093578088
-0.0083862458
-0.0074497141
-0.0065488073
-0.0056830581
-0.0048509978
-0.0040496762
-0.0032763955
-0.0025210035
-0.0017982012
-0.0010166656
-0.00054465223
-0.01373746
-0.014636465
-0.015572555
-0.016565657
-0.017536456
-0.0184545
-0.019324955
-0.020150333
-0.020923686
-0.021636215
-0.022281091
-0.022852718
-0.023345705
-0.023754876
-0.024075655
-0.02430428
-0.024437875
-0.024474505
-0.02441325
-0.024254275
-0.02399886
-0.023649402
-0.023209394
-0.02268337
-0.022076829
-0.021396122
-0.020648334
-0.019841134
-0.018982615
-0.018081125
-0.017145098
-0.016182886
-0.015202601
-0.014211968
-0.013218193
-0.012227851
-0.011246795
-0.010280078
-0.0093318969
-0.0084055495
-0.0075033957
-0.0066268291
-0.00577622
-0.0049509521
-0.004148987
-0.0033684126
-0.0026004366
-0.0018590388
-0.0010592578
-0.00055155333
-0.010249513
-0.011092175
-0.011967997
-0.012892791
-0.013804361
-0.014678467
-0.015518729
-0.016326701
-0.017096437
-0.017820387
-0.018492415
-0.019107243
-0.019659637
-0.020144425
-0.020556799
-0.020892503
-0.021147907
-0.021320072
-0.021406841
-0.021406915
-0.021319917
-0.021146423
-0.020887979
-0.020547093
-0.020127199
-0.019632599
-0.019068385
-0.018440335
-0.017754792
-0.017018538
-0.016238639
-0.015422307
-0.014576748
-0.013709022
-0.012825904
-0.011933767
-0.011038466
-0.010145244
-0.0092586522
-0.008382476
-0.0075196747
-0.0066723273
-0.0058415579
-0.0050275492
-0.0042291325
-0.0034451936
-0.0026681715
-0.0019118063
-0.0010960135
-0.00055939409
-0.0072049747
-0.0079933723
-0.0088110317
-0.0096702144
-0.010522995
-0.011350412
-0.012154895
-0.012937285
-0.013692573
-0.014414401
-0.01509739
-0.015736722
-0.016327517
-0.016864838
-0.01734393
-0.017760375
-0.018110158
-0.018389738
-0.018596135
-0.01872701
-0.018780746
-0.018756496
-0.018654228
-0.018474748
-0.018219701
-0.017891556
-0.017493566
-0.017029706
-0.016504597
-0.01592341
-0.015291755
-0.014615563
-0.013900954
-0.013154113
-0.012381158
-0.011588021
-0.010780324
-0.0099632739
-0.0091415632
-0.0083192778
-0.0074998134
-0.0066857999
-0.0058790087
-0.0050803433
-0.0042894434
-0.0035059783
-0.0027235271
-0.0019558971
-0.0011270271
-0.00056680271
-0.0045709066
-0.0053087281
-0.0060720642
-0.0068700546
-0.0076666574
-0.0084473835
-0.0092137285
-0.0099659748
-0.010699957
-0.011410405
-0.01209269
-0.012742518
-0.013355462
-0.013926959
-0.014452495
-0.014927719
-0.015348508
-0.015711029
-0.016011816
-0.016247853
-0.01641665
-0.016516307
-0.016545572
-0.016503884
-0.016391406
-0.016209033
-0.015958394
-0.015641824
-0.015262325
-0.014823508
-0.014329518
-0.013784944
-0.013194719
-0.012564014
-0.01189812
-0.011202338
-0.010481859
-0.00974165
-0.0089863506
-0.0082201629
-0.0074467529
-0.006669157
-0.0058896723
-0.005109826
-0.0043299874
-0.0035505694
-0.0027662153
-0.0019909683
-0.0011523086
-0.00057289887
-0.0023214937
-0.0030140634
-0.0037285737
-0.0044715094
-0.0052166559
-0.0059532576
-0.0066820573
-0.0074028912
-0.0081123216
-0.008806033
-0.0094800924
-0.010130733
-0.01075401
-0.011345799
-0.011901925
-0.012418254
-0.01289074
-0.013315482
-0.013688787
-0.014007247
-0.014267808
-0.01446784
-0.014605198
-0.014678277
-0.014686063
-0.014628166
-0.014504841
-0.014316998
-0.01406619
-0.01375459
-0.013384949
-0.012960542
-0.012485096
-0.011962703
-0.011397733
-0.01079473
-0.010158308
-0.009493038
-0.0088033401
-0.0080933702
-0.0073669098
-0.0066272582
-0.0058771102
-0.0051185073
-0.0043524536
-0.0035800418
-0.002796898
-0.0020173712
-0.0011721774
-0.00057738922
-0.00043163728
-0.0010843809
-0.0017558921
-0.0024502702
-0.003149371
-0.0038455502
-0.0045389447
-0.0052290177
-0.0059129367
-0.0065871969
-0.0072484798
-0.0078935046
-0.0085187918
-0.0091206585
-0.0096953084
-0.010238895
-0.01074756
-0.011217477
-0.011644906
-0.012026255
-0.012358147
-0.01263748
-0.012861491
-0.013027817
-0.013134554
-0.013180302
-0.013164206
-0.013085988
-0.012945962
-0.012745038
-0.01248471
-0.01216703
-0.011794567
-0.011370348
-0.010897793
-0.01038063
-0.0098228065
-0.0092283889
-0.0086014552
-0.0079459834
-0.0072657361
-0.0065641439
-0.0058441747
-0.0051082697
-0.0043579636
-0.0035949447
-0.002815727
-0.0020349674
-0.0011863795
-0.00057984293
0.0010952317
0.00047493569
-0.0001611808
-0.00081546655
-0.0014761799
-0.0021381157
-0.0028009154
-0.0034637442
-0.0041242544
-0.0047795982
-0.0054269664
-0.0060634946
-0.006686113
-0.0072915415
-0.0078763465
-0.0084369837
-0.0089698267
-0.0094712003
-0.009937425
-0.010364867
-0.010749995
-0.011089434
-0.011380026
-0.011618893
-0.011803493
-0.01193168
-0.01200175
-0.012012493
-0.011963223
-0.011853806
-0.011684672
-0.011456811
-0.011171764
-0.01083159
-0.010438817
-0.0099963864
-0.0095075743
-0.008975908
-0.0084050669
-0.0077987752
-0.0071606854
-0.0064942599
-0.0058026337
-0.00508854
-0.0043539362
-0.0036010065
-0.0028270368
-0.0020469461
-0.0011971585
-0.00058141531
0.0023016267
0.0017080525
0.0011009321
0.00047953198
-0.00014939768
-0.00078259749
-0.0014193281
-0.0020585063
-0.0026981519
-0.0033359287
-0.0039694315
-0.0045961327
-0.0052132996
-0.0058179916
-0.0064070913
-0.0069773317
-0.0075253167
-0.008047547
-0.0085404545
-0.009000443
-0.0094239337