/*--------------------------------*- C++ -*----------------------------------*\
  =========                 |
  \\      /  F ield         | OpenFOAM: The Open Source CFD Toolbox
   \\    /   O peration     | Website:  https://openfoam.org
    \\  /    A nd           | Version:  6
     \\/     M anipulation  |
\*---------------------------------------------------------------------------*/
FoamFile
{
    version     2.0;
    format      ascii;
    class       volVectorField;
    location    "241";
    object      U;
}
// * * * * * * * * * * * * * * * * * * * * * * * * * * * * * * * * * * * * * //

dimensions      [0 1 -1 0 0 0 0];

internalField   nonuniform List<vector> 
9200
(
(0.0010393461 0.0014199822 -5.9201839e-20)
(0.013676067 -0.0020583665 4.6042531e-20)
(0.038313166 -0.0058665676 -3.8501735e-20)
(0.072274436 -0.0097635045 -6.0257747e-20)
(0.11376474 -0.013490028 1.8826963e-20)
(0.16158088 -0.016605657 3.2743878e-20)
(0.21467148 -0.018817284 -1.2268007e-20)
(0.27206607 -0.019973889 9.268861e-21)
(0.33285622 -0.02001122 1.6803425e-20)
(0.39616347 -0.018929049 1.4848072e-21)
(0.46111555 -0.016779812 -2.1456335e-20)
(0.52683686 -0.013657726 2.0670003e-20)
(0.59245067 -0.0096879919 -4.0422144e-20)
(0.6570913 -0.0050157686 -2.11339e-20)
(0.7199247 0.00020557118 5.904652e-21)
(0.780175 0.0058241067 -2.5131671e-20)
(0.83717058 0.011712826 2.5217115e-20)
(0.89046874 0.017918527 2.2243191e-20)
(0.93967069 0.024573429 -2.9930268e-22)
(0.98205185 0.028293401 -1.6691983e-21)
(0.0052521802 -0.0013462729 -1.7059352e-20)
(0.026962501 -0.0089890258 3.9747708e-20)
(0.061670114 -0.014809763 2.3576294e-20)
(0.10629489 -0.019172267 -1.1569757e-19)
(0.15873565 -0.022213993 -1.2727087e-20)
(0.21753351 -0.023720681 7.3297076e-20)
(0.28137295 -0.023595091 -3.5476398e-20)
(0.349006 -0.021868959 -8.3905565e-21)
(0.41923919 -0.018645517 3.4287539e-20)
(0.49090943 -0.014080833 -4.3259577e-20)
(0.5628723 -0.0083759413 -3.033848e-20)
(0.63400846 -0.0017665837 7.1921429e-20)
(0.70324328 0.0054884063 3.8294046e-20)
(0.7695758 0.013118645 -6.797655e-20)
(0.83211244 0.020852096 1.4623688e-20)
(0.89010035 0.02841972 -3.6733393e-20)
(0.94296915 0.035569688 -1.3777195e-20)
(0.99043229 0.042140901 7.0974748e-20)
(1.032356 0.047715325 2.9641933e-20)
(1.0669348 0.049139707 -8.3478237e-20)
(0.010858426 -0.0040424156 3.6773456e-20)
(0.043953412 -0.015431076 2.5047362e-21)
(0.090515433 -0.022552281 2.234171e-20)
(0.14711139 -0.026497356 9.811682e-22)
(0.21134254 -0.027886294 -4.0773935e-20)
(0.28146767 -0.026795111 1.8576403e-20)
(0.35587039 -0.023382724 1.3420299e-20)
(0.43299006 -0.017921532 -5.0327701e-20)
(0.51132476 -0.010735645 5.7261856e-20)
(0.58942612 -0.0021838745 1.4256687e-20)
(0.66590914 0.0073479117 -5.4300707e-20)
(0.73948034 0.017460269 -1.8237402e-20)
(0.80897596 0.027756569 9.0591611e-21)
(0.87340262 0.037859278 2.3444735e-20)
(0.9319736 0.047424049 -1.1362503e-20)
(0.98413366 0.056148978 2.7877722e-20)
(1.029574 0.063789178 -2.0188235e-20)
(1.0682645 0.070204397 -7.012356e-20)
(1.1003321 0.075119383 -2.3796273e-20)
(1.1249112 0.076641243 4.8659755e-20)
(0.017957214 -0.0064221631 2.4508014e-20)
(0.064776994 -0.020694799 5.1039222e-20)
(0.12485228 -0.028060845 1.9881694e-20)
(0.19446965 -0.030464063 1.2990096e-20)
(0.27094931 -0.029094839 1.7275703e-20)
(0.35224879 -0.024388975 -4.772017e-20)
(0.43643138 -0.016825969 -2.5646855e-20)
(0.52162007 -0.0069766666 0)
(0.60602894 0.0045670359 1.3920616e-20)
(0.68798705 0.017211735 -5.8523389e-21)
(0.76597516 0.030373925 -9.7934941e-20)
(0.83867445 0.043499636 -1.5774817e-20)
(0.90501524 0.05608662 6.5103194e-20)
(0.96421568 0.067704139 4.8442744e-22)
(1.0158035 0.078007719 -1.5725564e-21)
(1.0596155 0.086746796 2.1957491e-20)
(1.0957773 0.093772232 -5.2647207e-21)
(1.12468 0.099065338 -6.1029722e-20)
(1.1468647 0.10259708 -4.5851247e-20)
(1.1622957 0.10341386 6.9520548e-20)
(0.02657942 -0.0082056878 -3.91942e-21)
(0.089344018 -0.024033505 -5.1256311e-21)
(0.16430753 -0.030264986 5.6599407e-20)
(0.24758119 -0.029810017 1.8539324e-20)
(0.3362416 -0.024513025 -3.1955066e-20)
(0.42795125 -0.015239857 1.2163839e-20)
(0.52047261 -0.0028513596 2.6402861e-21)
(0.61166356 0.011737098 3.3609168e-20)
(0.6995471 0.027640145 5.6599502e-21)
(0.78236836 0.044028772 -1.3204739e-20)
(0.85865404 0.060147728 6.0154034e-20)
(0.92726909 0.075340474 -5.8009354e-20)
(0.98745674 0.089072865 -1.3216612e-19)
(1.0388531 0.10094902 -5.5773033e-21)
(1.0814725 0.11071709 8.3150769e-20)
(1.1156655 0.11826405 0)
(1.1420548 0.12360583 1.0118956e-20)
(1.1614668 0.12689056 -1.5459772e-20)
(1.1748179 0.12829871 -8.5994677e-21)
(1.1826673 0.12744916 2.0992247e-20)
(0.036666908 -0.0090895794 -5.4309122e-21)
(0.11731511 -0.024685356 4.3578744e-21)
(0.20811868 -0.028140176 -8.7629837e-21)
(0.30515702 -0.023414952 2.8472393e-20)
(0.40533539 -0.013075589 -2.9392663e-20)
(0.50607146 0.0015226179 -1.6927023e-20)
(0.60490489 0.019095143 3.7364231e-20)
(0.69954958 0.038365257 4.7595451e-21)
(0.78800391 0.058167649 -2.4436056e-20)
(0.86863404 0.077483008 6.9867555e-20)
(0.94023972 0.095458646 5.2393905e-22)
(1.0020955 0.11143157 -8.0444311e-20)
(1.0539569 0.12494291 0)
(1.0960273 0.1357375 3.9542114e-20)
(1.1288922 0.14374844 5.5235999e-21)
(1.1534278 0.14906894 -7.7566398e-20)
(1.170699 0.15191914 -1.9586921e-20)
(1.1818623 0.15262369 -1.2467633e-20)
(1.1880592 0.15152607 -1.4709391e-20)
(1.190146 0.14858494 4.0420546e-20)
(0.048058868 -0.0087674049 -1.7277958e-20)
(0.1480831 -0.021931992 -2.2198282e-21)
(0.25514069 -0.020797833 3.0380503e-20)
(0.36546384 -0.010412791 3.7484307e-20)
(0.4759042 0.0059015903 -1.9944733e-20)
(0.58374265 0.026269309 -6.9163028e-20)
(0.68644184 0.048977211 -2.7995796e-20)
(0.78176202 0.072417791 7.8929207e-20)
(0.86790195 0.095212481 8.5778131e-21)
(0.94358915 0.11624962 -2.4873481e-20)
(1.0081258 0.13469827 1.3642212e-20)
(1.061387 0.15001556 -4.3194488e-21)
(1.1037693 0.1619366 0)
(1.1360975 0.17044428 2.7203481e-20)
(1.1595046 0.17572309 -7.932241e-20)
(1.175302 0.1781037 -3.1475527e-20)
(1.184857 0.17800814 8.1054572e-20)
(1.1894921 0.17590946 -4.2969853e-21)
(1.1904029 0.17225559 3.556106e-21)
(1.188508 0.16719299 2.7111572e-20)
(0.06048525 -0.0069573638 -3.2414614e-20)
(0.18077772 -0.01517038 -8.1624318e-20)
(0.30388929 -0.0075835259 2.5797745e-21)
(0.42642555 0.0097033575 7.0161809e-20)
(0.54535148 0.032631555 6.2424374e-20)
(0.657981 0.058820045 -7.1574518e-20)
(0.76190882 0.086176509 -2.8275118e-22)
(0.8551829 0.11285231 8.5522543e-20)
(0.93645345 0.13737838 4.8828067e-20)
(1.0050415 0.1586937 -5.4218405e-20)
(1.0609356 0.17613563 -9.2334211e-20)
(1.1047242 0.18941355 -3.1589825e-21)
(1.1374759 0.19855944 4.2127864e-20)
(1.1605873 0.20385857 -6.6056274e-21)
(1.1756247 0.2057702 -1.2868786e-20)
(1.1841776 0.2048492 1.9690806e-20)
(1.1877427 0.20167898 4.3880614e-20)
(1.1876453 0.19682589 -4.3859426e-20)
(1.1849953 0.19077885 -1.0232199e-19)
(1.180625 0.18377381 2.4566872e-20)
(0.073537215 -0.0034329734 -3.497975e-20)
(0.21422687 -0.0039890253 -1.7388611e-19)
(0.35251657 0.011839376 8.210324e-20)
(0.48562797 0.037018337 9.2767513e-20)
(0.61085379 0.066835552 5.7970565e-20)
(0.72576726 0.098481178 8.6107091e-21)
(0.82834802 0.12959696 -1.0624009e-19)
(0.91718997 0.15824269 0)
(0.99162743 0.18302814 -6.8748585e-20)
(1.0517521 0.20311207 -1.5202409e-20)
(1.0983384 0.21814861 5.4703463e-20)
(1.1327008 0.22821083 1.0973379e-20)
(1.1565109 0.2336926 -4.5613852e-20)
(1.1716067 0.23519947 -4.9081359e-20)
(1.1798203 0.23344336 2.4287678e-20)
(1.182845 0.22915324 4.4822888e-20)
(1.1821488 0.22300987 -5.5600404e-20)
(1.178936 0.21560823 -1.0751121e-19)
(1.1741468 0.20742225 -3.1513629e-21)
(1.1684567 0.19871882 2.7046396e-20)
(0.086650446 0.001961386 -3.5448992e-21)
(0.24696018 0.011816634 8.791324e-20)
(0.39884739 0.037492309 -1.6479245e-20)
(0.54040465 0.071218382 -8.4309146e-20)
(0.66949902 0.10778893 4.5164369e-20)
(0.78421952 0.14411543 4.9175451e-20)
(0.88318939 0.17775668 5.5356779e-21)
(0.96577869 0.2068849 -9.9502485e-20)
(1.0321763 0.23038802 -2.5048779e-21)
(1.0833328 0.24781553 5.050354e-20)
(1.120807 0.25926301 5.9854755e-21)
(1.1465558 0.2652362 -1.9717206e-20)
(1.1627107 0.26650533 -7.5704624e-20)
(1.1713765 0.26396622 -6.2554019e-21)
(1.1744762 0.2585243 4.3533351e-20)
(1.1736548 0.25101089 3.702201e-20)
(1.1702383 0.24213396 1.979344e-20)
(1.1652402 0.23245876 -5.2994839e-20)
(1.1594014 0.22240419 1.2957451e-20)
(1.1532251 0.212238 8.2659092e-20)
(-0.0012932614 0.0014346597 -1.1234448e-21)
(-0.0047459602 0.0031874147 2.0646968e-21)
(-0.010771358 0.004135904 8.7949963e-22)
(-0.017754286 0.0045395358 -2.4411022e-21)
(-0.024740317 0.0045654165 -1.4114822e-21)
(-0.031299591 0.0043260384 1.5460011e-21)
(-0.037161326 0.003903538 -6.87008e-21)
(-0.04214744 0.0033577216 -5.9573036e-21)
(-0.046157774 0.0027313812 1.1171997e-20)
(-0.049146188 0.0020548305 -9.742748e-21)
(-0.051100652 0.0013493004 -1.9833038e-22)
(-0.052030442 0.00062942194 3.6673437e-21)
(-0.051957736 -9.4889419e-05 -6.3295589e-22)
(-0.05091188 -0.00081693029 2.2818743e-20)
(-0.048925777 -0.0015318446 3.0401115e-22)
(-0.046035341 -0.0022351738 -4.0882869e-20)
(-0.042281798 -0.0029222677 7.5385612e-21)
(-0.037703444 -0.0035910382 2.3864109e-20)
(-0.032308696 -0.0042399861 -4.3852373e-20)
(-0.026156967 -0.0048211127 -2.7739203e-20)
(-0.0016521999 0.0041808662 -5.3716025e-21)
(-0.0053974809 0.0092681378 1.0865438e-20)
(-0.011218509 0.012007443 -1.0191542e-20)
(-0.017658025 0.013153763 3.9229736e-21)
(-0.023856432 0.013195413 4.8121433e-21)
(-0.029433316 0.012462724 7.1324176e-22)
(-0.034152319 0.011197013 -2.2509487e-20)
(-0.037860376 0.0095738966 -2.0370239e-21)
(-0.040474297 0.007718987 2.0163538e-20)
(-0.04195892 0.0057212303 -5.0473597e-21)
(-0.042308949 0.0036428646 -2.1762588e-20)
(-0.041537336 0.0015267129 4.8973166e-21)
(-0.039667712 -0.00059830506 2.263542e-20)
(-0.036729082 -0.0027127604 1.030839e-20)
(-0.032752035 -0.0048026884 2.1854283e-20)
(-0.027769173 -0.0068555075 -1.9770727e-20)
(-0.021824798 -0.0088582185 -2.1672942e-20)
(-0.014966275 -0.010804223 2.1184616e-20)
(-0.0071290243 -0.012678999 2.6810363e-20)
(0.0018742864 -0.014317221 1.5854765e-20)
(-0.0023034291 0.0065602324 -4.3568687e-21)
(-0.0065392236 0.014480195 -5.6387544e-21)
(-0.011892131 0.018710542 3.0723941e-22)
(-0.017211098 0.020428179 1.0959879e-21)
(-0.021819141 0.020400323 6.6918399e-21)
(-0.02543104 0.019151665 1.0665168e-20)
(-0.027877231 0.017066287 -3.7227634e-21)
(-0.029053268 0.014423782 -1.8896163e-20)
(-0.028909036 0.011424352 6.5413167e-21)
(-0.02743105 0.0082099049 1.2862569e-20)
(-0.024627714 0.0048797762 5.8340845e-21)
(-0.02052011 0.001502239 1.8159104e-20)
(-0.015135988 -0.0018768626 1.7295913e-21)
(-0.0085054026 -0.0052272468 -3.3864526e-20)
(-0.00065689824 -0.0085276088 1.2020169e-21)
(0.0083810097 -0.011759108 -2.2139209e-20)
(0.018556858 -0.014904094 -2.44663e-20)
(0.029802168 -0.01795375 4.5819707e-20)
(0.042304949 -0.020855114 2.5349345e-20)
(0.056738553 -0.023247762 1.2239249e-22)
(-0.0031290275 0.0083689697 -5.2833068e-21)
(-0.0078963986 0.018336512 -8.4815264e-21)
(-0.012438985 0.023587808 4.3593045e-21)
(-0.016026534 0.025609657 4.1463449e-21)
(-0.018235023 0.025382744 2.0105706e-21)
(-0.018912651 0.023589321 7.3209952e-21)
(-0.017984717 0.020730272 9.3124773e-21)
(-0.015416711 0.017170377 -1.3511355e-21)
(-0.011207049 0.013171314 -1.1481946e-20)
(-0.0053752365 0.0089189317 -2.9071876e-20)
(0.0020481066 0.0045434376 6.1892226e-23)
(0.011026501 0.00013431178 4.0697818e-20)
(0.021522215 -0.0042489498 -1.8383171e-20)
(0.033497838 -0.0085675833 -1.2296087e-20)
(0.046920496 -0.012795544 5.5348964e-22)
(0.061760076 -0.016911852 3.2302641e-20)
(0.07795299 -0.020901666 -1.4829542e-20)
(0.095392237 -0.024763372 -5.333918e-20)
(0.11439842 -0.028379713 4.5765005e-20)
(0.13634535 -0.03107309 3.3013167e-20)
(-0.0039704095 0.0094657319 -6.8788991e-22)
(-0.0090916577 0.020487791 -1.2534739e-20)
(-0.012364471 0.026159086 -3.4144533e-20)
(-0.01355254 0.028143337 -5.7241617e-21)
(-0.01253324 0.027555006 -3.6222737e-21)
(-0.0093167252 0.025188063 6.3051033e-21)
(-0.0039456464 0.021627411 -4.6461959e-21)
(0.0035261255 0.017298959 -8.807027e-21)
(0.013036817 0.012508752 2.1899708e-20)
(0.024521236 0.0074744433 5.0567073e-21)
(0.037915531 0.002348905 -2.5290292e-20)
(0.053157436 -0.0027627827 1.1078278e-20)
(0.070186856 -0.0077908727 0)
(0.088946567 -0.012691301 1.2089575e-20)
(0.10938542 -0.017436916 -9.701617e-21)
(0.13145739 -0.022009893 -1.4337118e-20)
(0.15507405 -0.026408642 -1.5738958e-21)
(0.18006758 -0.030659416 -2.2181547e-21)
(0.20685339 -0.034576528 4.614706e-20)
(0.23766356 -0.037019862 -1.0470124e-20)
(-0.0046450977 0.009780862 -7.5356675e-21)
(-0.0096772506 0.020747879 2.4516398e-20)
(-0.01106438 0.026160976 -1.0499346e-20)
(-0.0090968329 0.027724444 -2.746928e-20)
(-0.0039797217 0.026601694 -2.7548145e-20)
(0.0040961811 0.023648408 -1.4921568e-20)
(0.014954147 0.019496457 -6.905962e-22)
(0.028436231 0.014604706 5.5499783e-21)
(0.044403142 0.0093034474 1.9615878e-20)
(0.062730489 0.0038284168 7.3530851e-21)
(0.083304307 -0.0016547534 -7.1862209e-21)
(0.10601896 -0.0070322364 -2.0102311e-21)
(0.13077356 -0.012229095 -3.8191708e-20)
(0.15746942 -0.017199749 -1.2693644e-20)
(0.18601198 -0.02191973 1.8750605e-20)
(0.21631175 -0.026379713 -2.1021672e-20)
(0.24823221 -0.030602218 -8.9730574e-21)
(0.28151865 -0.034670602 3.0440465e-20)
(0.31660701 -0.038364813 5.0472065e-20)
(0.35665012 -0.039964092 3.3559656e-21)
(-0.0049617683 0.0093139985 1.6783303e-20)
(-0.0091662691 0.019097709 1.4467937e-20)
(-0.0078593651 0.023563366 5.1145484e-20)
(-0.0018585402 0.024328943 2.338798e-20)
(0.0082957214 0.022523783 1.8251773e-22)
(0.022221937 0.019014385 -3.9388453e-20)
(0.039597438 0.014440937 -2.4313858e-20)
(0.060147899 0.0092663605 1.0465817e-20)
(0.083639108 0.0038232297 1.4401586e-20)
(0.10986668 -0.0016512972 -1.3113711e-20)
(0.13864562 -0.006991007 -4.4038713e-20)
(0.16980169 -0.012082844 2.9618497e-20)
(0.20316403 -0.016854155 2.0020551e-20)
(0.23855944 -0.02126399 -2.7551155e-20)
(0.27581228 -0.025296397 1.1650134e-20)
(0.31474808 -0.028957161 2.4197612e-20)
(0.35514543 -0.032303045 8.0723939e-21)
(0.39663384 -0.035506669 -1.1764209e-20)
(0.43957698 -0.038392633 -1.4190297e-20)
(0.48798507 -0.038634392 5.8727576e-21)
(-0.0047307762 0.0081236731 1.1093845e-20)
(-0.0070586005 0.015671176 -2.3352718e-20)
(-0.0020293665 0.018562032 8.6200546e-21)
(0.0090325188 0.018216225 3.3587964e-20)
(0.025256359 0.01565115 5.2124336e-20)
(0.046066334 0.011695604 2.0276509e-20)
(0.070984518 0.0069609537 -5.8639352e-21)
(0.099601941 0.0018829532 -1.2286283e-20)
(0.13156893 -0.0032271957 -6.2057465e-21)
(0.16657566 -0.0081496544 3.4240833e-20)
(0.20433423 -0.012733316 -4.5104381e-21)
(0.24456483 -0.016879182 -1.66433e-20)
(0.28698468 -0.02052868 -1.9693572e-20)
(0.33129996 -0.023656405 -4.7443736e-20)
(0.37720456 -0.026265524 2.3238702e-20)
(0.42438767 -0.028387851 -1.4095983e-20)
(0.4724997 -0.030127608 2.5993397e-20)
(0.52103614 -0.031783176 2.1040822e-20)
(0.57021391 -0.033350663 -8.5570381e-20)
(0.62470913 -0.032058822 -1.0807266e-22)
(-0.003771052 0.0063146394 2.1925054e-20)
(-0.0028657667 0.010735096 -2.6165528e-20)
(0.0071421037 0.011564137 -4.5013292e-20)
(0.024450231 0.0099249906 -2.725378e-20)
(0.047870847 0.0066523073 -2.0439867e-21)
(0.076628698 0.002490619 1.3050094e-20)
(0.11007672 -0.0020153928 -2.8337696e-21)
(0.14765205 -0.0064879008 1.8118536e-20)
(0.18886095 -0.010663499 8.8685611e-21)
(0.23325193 -0.014362416 -1.1380172e-20)
(0.28039147 -0.017468943 8.8779126e-21)
(0.32984601 -0.019916798 -2.3903266e-20)
(0.38116878 -0.021678688 8.0504776e-21)
(0.43389082 -0.022759864 1.675639e-20)
(0.48751933 -0.023194288 -2.6395135e-21)
(0.54154713 -0.023046877 1.6618982e-21)
(0.59543543 -0.022469429 -3.19577e-22)
(0.6485178 -0.021870087 1.959042e-20)
(0.70082236 -0.021445043 4.0434006e-21)
(0.75745147 -0.01849906 -5.7334472e-22)
(-0.0019110145 0.0040273483 2.3692111e-20)
(0.0038694293 0.0046765209 5.7159955e-20)
(0.020315309 0.0031879656 -4.9244222e-20)
(0.045178282 0.00029442791 -9.9454141e-21)
(0.076965147 -0.0034241494 2.0256344e-20)
(0.11469622 -0.0073535828 2.1433716e-21)
(0.15753882 -0.011054953 -2.981516e-20)
(0.2047483 -0.014244134 6.9848101e-21)
(0.25564948 -0.016737922 7.1097872e-21)
(0.30960471 -0.01842695 -2.6254076e-20)
(0.36598646 -0.01926009 1.2927326e-21)
(0.42415956 -0.019231857 -3.717411e-20)
(0.48347099 -0.018372191 -3.6341012e-20)
(0.54324563 -0.016738264 6.5683474e-20)
(0.6027881 -0.014407288 5.5627477e-21)
(0.66138882 -0.011475883 -1.5188792e-20)
(0.71830782 -0.0081020283 1.9363966e-20)
(0.77269898 -0.0045928475 -9.1888139e-22)
(0.82408832 -0.00096802839 2.0364577e-20)
(0.87621964 0.0043280904 -1.9554147e-20)
(-0.018836425 -0.0050997018 5.8352035e-20)
(-0.010224666 -0.0056349249 1.5783664e-20)
(-0.00022120925 -0.0060688775 -3.513955e-20)
(0.010823207 -0.0063341068 1.6790228e-20)
(0.022642443 -0.0065120439 0)
(0.035177856 -0.0066300866 0)
(0.048369627 -0.0066909697 -2.2974939e-20)
(0.062138036 -0.0067025359 -1.6502865e-20)
(0.076412672 -0.0066741701 1.9122584e-20)
(0.091134026 -0.0066126613 1.8174026e-20)
(0.10624712 -0.0065232012 1.0524251e-21)
(0.12170016 -0.0064103533 -1.0317632e-20)
(0.13744484 -0.0062780764 8.3268745e-21)
(0.15343594 -0.0061297175 1.8233709e-20)
(0.1696307 -0.0059681401 -5.2274134e-21)
(0.18598847 -0.0057958295 -1.0174931e-20)
(0.20247049 -0.0056149569 -4.3195856e-21)
(0.21903974 -0.0054274312 -4.4257373e-21)
(0.2356608 -0.0052349446 7.3667174e-22)
(0.25229979 -0.0050390074 1.2286033e-21)
(0.26892438 -0.0048409746 2.5666294e-21)
(0.28550378 -0.004642066 6.6539428e-21)
(0.30200881 -0.0044433808 2.4894472e-22)
(0.31841193 -0.0042459084 -3.4514682e-21)
(0.33468729 -0.0040505364 1.555877e-22)
(0.35081083 -0.0038580563 -5.7709749e-22)
(0.36676028 -0.0036691681 1.2434355e-21)
(0.38251525 -0.0034844843 1.0522432e-21)
(0.3980572 -0.0033045332 -1.298792e-21)
(0.41336953 -0.0031297631 -1.221874e-22)
(0.42843749 -0.0029605458 3.5750348e-23)
(0.44324823 -0.0027971815 -3.5187552e-22)
(0.45779077 -0.0026399032 -4.0565354e-22)
(0.4720559 -0.0024888822 5.5412767e-23)
(0.48603622 -0.0023442337 -1.3809014e-22)
(0.49972603 -0.0022060231 -2.234313e-22)
(0.51312131 -0.0020742728 2.5571876e-22)
(0.52621972 -0.0019489682 2.9501909e-22)
(0.53902046 -0.0018300676 -8.2710278e-24)
(0.55152463 -0.0017175057 -1.5517327e-22)
(0.56373421 -0.0016112214 3.0406579e-23)
(0.57565578 -0.0015111143 -4.0144647e-23)
(0.58728952 -0.0014172556 9.2203142e-23)
(0.59866444 -0.0013293088 2.1977263e-23)
(0.6097349 -0.0012485573 -1.1394414e-22)
(0.62069292 -0.0011717921 -6.7612159e-24)
(0.63106089 -0.0011112431 -7.2450934e-26)
(0.64234938 -0.0010339463 -3.5610449e-24)
(0.65042732 -0.0010508034 2.9453748e-23)
(0.66700815 -0.00087555729 3.6050609e-22)
(0.010445864 -0.015017608 -1.2746814e-20)
(0.018179692 -0.01664101 -6.3302324e-20)
(0.027779209 -0.017915411 -3.0541935e-20)
(0.038385137 -0.018672069 3.8476005e-20)
(0.049620978 -0.019183586 1.4662609e-20)
(0.061506618 -0.01952943 -1.8204925e-20)
(0.074012808 -0.019709863 4.6721994e-21)
(0.087062655 -0.019746489 2.5447184e-20)
(0.10059312 -0.019667278 9.1994025e-23)
(0.11455399 -0.019491697 -7.6591228e-21)
(0.12889715 -0.019234356 -1.3021015e-20)
(0.14357598 -0.018908308 -8.5245277e-21)
(0.15854661 -0.018524969 1.777233e-20)
(0.17376751 -0.018093997 8.9295409e-21)
(0.18919894 -0.017623675 -1.6522434e-20)
(0.20480271 -0.017121227 -6.0390568e-21)
(0.22054208 -0.016592992 3.2145042e-21)
(0.23638169 -0.016044566 8.3716307e-21)
(0.25228747 -0.015480927 6.9832251e-21)
(0.26822666 -0.014906536 -6.9727135e-21)
(0.28416786 -0.014325409 -3.1685446e-21)
(0.30008102 -0.013741169 1.3605329e-21)
(0.31593756 -0.013157093 3.8682718e-22)
(0.33171044 -0.012576136 1.2113947e-21)
(0.34737419 -0.012000953 1.8368335e-22)
(0.36290501 -0.011433918 -3.2661598e-22)
(0.37828085 -0.010877136 -7.243482e-22)
(0.3934814 -0.010332448 9.7156494e-22)
(0.4084882 -0.0098014492 8.2482879e-22)
(0.42328458 -0.0092854959 -1.5147299e-22)
(0.43785573 -0.0087857163 5.5306016e-22)
(0.45218863 -0.008303025 -2.3880902e-22)
(0.46627209 -0.0078381365 -3.7069839e-22)
(0.48009665 -0.0073915811 -6.099902e-22)
(0.4936546 -0.0069637219 4.4171698e-22)
(0.50693991 -0.0065547728 -1.5476722e-23)
(0.51994817 -0.0061648183 1.6124681e-22)
(0.53267664 -0.0057938336 -4.4174676e-22)
(0.54512408 -0.0054417118 3.7189403e-22)
(0.55729115 -0.0051082747 6.7175125e-23)
(0.56917934 -0.0047933574 -1.0285394e-22)
(0.58079472 -0.0044966761 1.761362e-22)
(0.59213706 -0.0042184596 2.3339535e-22)
(0.6032346 -0.0039577182 1.692638e-22)
(0.61404189 -0.0037182975 1.6767075e-22)
(0.62474807 -0.0034906419 -2.6097769e-23)
(0.63488192 -0.0033112007 8.4042788e-23)
(0.64593107 -0.0030818579 7.6290684e-23)
(0.65382947 -0.0031323456 -1.9466356e-22)
(0.67009132 -0.0026124282 -3.8026641e-23)
(0.067614675 -0.024029142 9.4528285e-21)
(0.073589656 -0.026749045 3.2950983e-21)
(0.082265491 -0.028805563 -1.2162199e-20)
(0.091947801 -0.029968499 -1.2257906e-21)
(0.10198319 -0.030767858 1.4970585e-20)
(0.11254631 -0.031330886 -1.488712e-20)
(0.12367594 -0.031636064 -2.9842264e-20)
(0.13529679 -0.031712999 1.4493518e-20)
(0.14735692 -0.031607629 1.8181961e-20)
(0.15982339 -0.031350048 -1.1598513e-20)
(0.17266056 -0.030961812 1.019055e-21)
(0.18583078 -0.030462745 8.6860141e-21)
(0.1992978 -0.029870543 -1.5253536e-20)
(0.21302653 -0.02920023 2.9095121e-21)
(0.22698239 -0.028464751 7.5194328e-21)
(0.24113136 -0.027675496 3.1599352e-23)
(0.2554401 -0.026842549 2.6556475e-22)
(0.26987601 -0.025974887 -7.4150829e-21)
(0.28440726 -0.025080555 3.8616801e-21)
(0.29900293 -0.02416681 8.4749014e-21)
(0.31363308 -0.023240224 -3.8351745e-21)
(0.32826886 -0.022306764 -2.2130358e-21)
(0.34288265 -0.021371846 1.0124438e-21)
(0.35744814 -0.020440377 -1.7155316e-21)
(0.37194042 -0.019516784 1.353225e-21)
(0.38633612 -0.018605037 7.1845894e-22)
(0.40061342 -0.017708665 1.5268373e-21)
(0.41475215 -0.016830774 -1.95266e-21)
(0.42873383 -0.015974059 2.223566e-21)
(0.44254168 -0.015140823 5.5188484e-22)
(0.45616064 -0.014332994 4.032246e-22)
(0.46957739 -0.013552148 3.2134453e-22)
(0.4827803 -0.012799529 8.7324865e-22)
(0.49575941 -0.012076073 -1.3708583e-21)
(0.50850642 -0.011382444 3.7065493e-22)
(0.52101464 -0.010719054 1.0941223e-22)
(0.53327897 -0.010086103 -4.5172033e-23)
(0.54529588 -0.0094836068 8.6732936e-23)
(0.55706331 -0.0089114451 -3.7184874e-22)
(0.56858108 -0.0083693778 1.8293435e-22)
(0.5798498 -0.0078571859 -3.4987058e-23)
(0.59087461 -0.007374451 3.9004001e-22)
(0.60165443 -0.0069216024 -1.8544335e-22)
(0.61221614 -0.0064970515 4.7323281e-23)
(0.62251462 -0.0061071872 4.3603242e-23)
(0.63273358 -0.005736322 -7.3598853e-23)
(0.64241397 -0.0054443958 -1.2082339e-22)
(0.65299946 -0.0050704887 3.88088e-22)
(0.66054948 -0.0051542325 1.7270415e-22)
(0.67619306 -0.0043069981 -8.3039588e-22)
(0.15021526 -0.031460423 1.5010123e-21)
(0.15354687 -0.035257388 -1.1566607e-20)
(0.1606162 -0.038010913 6.6441944e-21)
(0.16880588 -0.039479091 -1.332474e-20)
(0.17698221 -0.040520682 -1.9758307e-21)
(0.18552343 -0.041302272 9.159937e-21)
(0.19458417 -0.041757228 -9.7662128e-21)
(0.20408689 -0.041913701 1.566278e-21)
(0.21398765 -0.041833321 1.2903796e-20)
(0.22427595 -0.041554325 3.4031979e-21)
(0.2349325 -0.041102035 -6.2096943e-21)
(0.24593017 -0.040500439 -2.8638081e-21)
(0.25724154 -0.039771738 -5.8409053e-21)
(0.26883907 -0.038935045 -6.4553114e-21)
(0.28069418 -0.038006965 3.2356925e-21)
(0.29277758 -0.037002292 8.4621155e-22)
(0.30505969 -0.035934315 1.3679571e-21)
(0.31751093 -0.034815012 -3.3850409e-21)
(0.3301019 -0.033655238 -4.2428838e-21)
(0.34280356 -0.032464885 2.3616497e-21)
(0.3555875 -0.031252986 3.2251338e-21)
(0.36842606 -0.030027805 -1.5636182e-21)
(0.38129253 -0.028796891 1.5867258e-21)
(0.39416126 -0.027567121 -3.9123941e-22)
(0.40700783 -0.026344732 -3.9196379e-21)
(0.41980915 -0.025135341 -3.0332802e-21)
(0.43254354 -0.023943965 -1.9026242e-22)
(0.4451908 -0.022775038 4.285895e-22)
(0.45773228 -0.021632429 -2.2106022e-21)
(0.4701509 -0.020519466 -8.5497038e-22)
(0.48243118 -0.019438954 2.2837645e-22)
(0.49455925 -0.018393209 -1.2498668e-21)
(0.50652283 -0.017384086 6.2632979e-24)
(0.51831123 -0.016413014 -4.2420803e-22)
(0.52991528 -0.015481035 -4.7193579e-22)
(0.5413274 -0.014588847 -5.1995549e-22)
(0.55254147 -0.013736844 -8.4132892e-22)
(0.5635529 -0.012925166 -5.4496416e-23)
(0.57435853 -0.01215376 -3.9160392e-24)
(0.584957 -0.011422403 -5.1972177e-22)
(0.59534774 -0.0107309 -9.1607189e-23)
(0.6055346 -0.010078772 -3.3239233e-22)
(0.6155154 -0.0094667131 -4.3759705e-22)
(0.62531513 -0.0088926245 3.7841533e-22)
(0.63488919 -0.0083653911 1.4820896e-23)
(0.64441362 -0.0078635673 1.8237455e-22)
(0.65344685 -0.0074693247 -1.3246545e-22)
(0.66336942 -0.006962935 -2.6690838e-22)
(0.67042148 -0.0070791331 -4.4693231e-23)
(0.68517834 -0.0059326657 4.622942e-22)
(0.25468562 -0.036552746 -2.0900304e-20)
(0.25447016 -0.041393497 4.7585943e-20)
(0.25907328 -0.044745644 1.0348095e-20)
(0.26508407 -0.046442029 -1.5765318e-20)
(0.27070927 -0.0477143 -2.0227915e-21)
(0.27651988 -0.048747759 2.6232267e-21)
(0.28283542 -0.049413701 -1.660819e-21)
(0.28957683 -0.049728082 -4.6861405e-21)
(0.29669649 -0.049761412 -4.0159156e-21)
(0.30420538 -0.049557034 -1.2207636e-20)
(0.31210209 -0.049141668 1.7897749e-20)
(0.32036927 -0.048540783 6.5219877e-21)
(0.32898689 -0.047778946 -1.6780519e-20)
(0.33793392 -0.046878 1.0317572e-20)
(0.34718696 -0.045857281 8.3849902e-21)
(0.35672062 -0.044734293 -8.7923786e-22)
(0.36650832 -0.043525048 -3.1222231e-21)
(0.37652276 -0.042244228 -3.8197293e-21)
(0.38673627 -0.040905339 -1.3892568e-21)
(0.39712116 -0.039520832 -1.2304182e-21)
(0.40764994 -0.038102201 -3.0257585e-21)
(0.41829563 -0.036660049 0)
(0.42903197 -0.035204134 -1.3451901e-21)
(0.43983356 -0.033743401 3.9309492e-21)
(0.45067607 -0.032286007 5.405263e-21)
(0.46153631 -0.030839333 -9.4112528e-22)
(0.4723924 -0.029410006 -2.9274406e-21)
(0.4832238 -0.028003913 3.0258347e-21)
(0.49401139 -0.026626222 2.5447537e-22)
(0.50473752 -0.025281405 3.4352411e-21)
(0.51538603 -0.023973267 -5.3459717e-22)
(0.52594225 -0.022704984 1.7173448e-21)
(0.53639302 -0.021479139 -7.996423e-22)
(0.54672665 -0.020297767 2.9094033e-22)
(0.55693295 -0.019162403 -4.340382e-22)
(0.56700317 -0.018074138 5.6231536e-22)
(0.57693 -0.017033673 4.5709742e-22)
(0.58670757 -0.016041374 3.8255468e-22)
(0.59633142 -0.01509736 -9.5935874e-22)
(0.60579881 -0.014201526 6.835517e-22)
(0.61510779 -0.013353793 -3.6957211e-22)
(0.6242607 -0.01255372 -1.103313e-21)
(0.63325412 -0.01180234 1.4078088e-21)
(0.64211076 -0.011097158 -6.2005479e-23)
(0.65078681 -0.010449479 -1.5815863e-22)
(0.65944874 -0.0098326035 -7.8243828e-24)
(0.66767723 -0.0093492171 -1.2621397e-22)
(0.67677304 -0.0087261753 -4.6581969e-22)
(0.68320488 -0.0088736112 8.7882929e-22)
(0.69685026 -0.007464865 -4.4315523e-23)
(0.37635124 -0.038368152 -1.7495095e-20)
(0.37170972 -0.044270214 1.2832047e-20)
(0.37286684 -0.048161596 2.975454e-21)
(0.3759104 -0.050098834 -7.6353736e-21)
(0.3783052 -0.051669953 1.205598e-20)
(0.38072287 -0.053042353 7.7914092e-21)
(0.38367594 -0.054030019 -1.2647686e-20)
(0.38710051 -0.054633082 -6.0679752e-21)
(0.39092916 -0.054917982 1.2697337e-20)
(0.39518235 -0.054927111 -1.5304969e-20)
(0.39987417 -0.054687491 -1.4063188e-20)
(0.40499498 -0.054224629 1.412963e-20)
(0.41052853 -0.053563635 6.8193821e-21)
(0.41645708 -0.052727924 -4.2037644e-21)
(0.42276005 -0.051738991 -1.8545611e-21)
(0.42941393 -0.050616724 -4.0581714e-21)
(0.43639337 -0.049379675 5.3047594e-21)
(0.44367185 -0.0480452 3.6682081e-21)
(0.45122213 -0.046629521 -3.2408291e-21)
(0.45901666 -0.045147788 3.137948e-21)
(0.46702794 -0.043614131 2.766679e-21)
(0.47522878 -0.042041698 -3.2111119e-21)
(0.48359254 -0.040442673 3.7056554e-22)
(0.49209341 -0.038828288 -3.2571636e-21)
(0.50070649 -0.037208836 7.2454099e-21)
(0.50940798 -0.035593677 6.1080566e-21)
(0.51817527 -0.03399125 8.0973081e-22)
(0.52698706 -0.032409092 -1.7683222e-21)
(0.53582337 -0.030853852 3.7021737e-21)
(0.54466562 -0.029331326 7.188513e-21)
(0.55349666 -0.027846485 2.3049294e-21)
(0.56230076 -0.026403525 3.3164832e-21)
(0.57106364 -0.025005906 1.995619e-21)
(0.57977243 -0.023656415 7.455784e-22)
(0.58841568 -0.02235722 -2.6374537e-22)
(0.59698337 -0.021109934 2.7203082e-21)
(0.60546682 -0.019915691 6.1992086e-22)
(0.61385881 -0.01877521 2.9487722e-22)
(0.62215344 -0.017688894 5.6232386e-23)
(0.63034652 -0.016656868 9.8966284e-22)
(0.63843462 -0.015679277 4.7019995e-23)
(0.6464185 -0.014755823 4.4247281e-22)
(0.65429345 -0.013887955 -1.2621755e-22)
(0.66207969 -0.01307291 -2.7734702e-22)
(0.66973453 -0.012324313 -1.5218553e-22)
(0.6774134 -0.011610796 -4.220763e-22)
(0.68472319 -0.011053495 1.6139141e-22)
(0.69287138 -0.010332286 -1.2723516e-22)
(0.69859421 -0.010509383 -5.0126404e-22)
(0.71095655 -0.0088817113 2.4586853e-22)
(0.50927424 -0.03597426 3.6471442e-21)
(0.49953032 -0.04296064 -1.8958304e-20)
(0.49627548 -0.047383436 -2.3083841e-21)
(0.49555584 -0.049736739 5.4869506e-21)
(0.49416944 -0.051818002 3.0528106e-21)
(0.49269564 -0.053705366 -4.9884489e-23)
(0.49181218 -0.055187603 6.1896657e-21)
(0.4915144 -0.056265351 7.6251001e-21)
(0.49171155 -0.056990483 9.8580394e-21)
(0.4924106 -0.057395522 -1.1250039e-20)
(0.49363092 -0.057506247 -2.1579417e-20)
(0.49536764 -0.057348361 -3.935346e-21)
(0.49760454 -0.056947073 1.5938139e-20)
(0.50032288 -0.05632695 1.2808955e-20)
(0.50350151 -0.055511672 -5.9066942e-21)
(0.50711637 -0.054523783 1.3817051e-21)
(0.51114124 -0.053384719 -3.6600822e-21)
(0.51554859 -0.052114872 2.2443734e-21)
(0.52031012 -0.050733578 -2.9123014e-22)
(0.52539717 -0.049259094 -1.8654089e-21)
(0.53078108 -0.047708589 7.8265852e-21)
(0.53643346 -0.046098137 -2.9308746e-22)
(0.54232652 -0.044442714 4.181808e-22)
(0.54843321 -0.042756187 -6.5646661e-22)
(0.55472741 -0.041051306 -4.302936e-21)
(0.5611841 -0.039339709 4.2085136e-21)
(0.56777944 -0.037631928 1.9031211e-21)
(0.57449086 -0.035937403 -3.3081899e-21)