/*--------------------------------*- C++ -*----------------------------------*\
  =========                 |
  \\      /  F ield         | OpenFOAM: The Open Source CFD Toolbox
   \\    /   O peration     | Website:  https://openfoam.org
    \\  /    A nd           | Version:  6
     \\/     M anipulation  |
\*---------------------------------------------------------------------------*/
FoamFile
{
    version     2.0;
    format      ascii;
    class       volScalarField;
    location    "281";
    object      p;
}
// * * * * * * * * * * * * * * * * * * * * * * * * * * * * * * * * * * * * * //

dimensions      [0 2 -2 0 0 0 0];

internalField   nonuniform List<scalar> 
9200
(
-0.37794899
-0.36660251
-0.35650883
-0.34755955
-0.33881986
-0.33030362
-0.32208914
-0.3141439
-0.30640058
-0.29878725
-0.29123097
-0.28366268
-0.27602423
-0.26827563
-0.2604056
-0.25244946
-0.24448354
-0.23659565
-0.22981071
-0.22841075
-0.3958097
-0.38201204
-0.36997473
-0.35950566
-0.34939394
-0.33962103
-0.33025568
-0.32123463
-0.31245838
-0.30382857
-0.29525205
-0.28664658
-0.2779485
-0.2691186
-0.2601478
-0.25106106
-0.24188823
-0.23262903
-0.22396639
-0.21806624
-0.41408737
-0.39781571
-0.38388069
-0.37196226
-0.36053383
-0.34952624
-0.33898695
-0.32881425
-0.31887447
-0.30904674
-0.29922677
-0.2893325
-0.27931084
-0.26914085
-0.25883355
-0.24842761
-0.2379618
-0.22744508
-0.21727668
-0.20857166
-0.43234797
-0.41362141
-0.39785406
-0.38454788
-0.37182299
-0.35954325
-0.34772701
-0.33623357
-0.32490303
-0.31360736
-0.30225194
-0.29077852
-0.27916842
-0.26744028
-0.25564341
-0.24384761
-0.23211943
-0.22049775
-0.20925001
-0.19911734
-0.44996155
-0.42888312
-0.41140017
-0.39678334
-0.38277169
-0.36915133
-0.35591133
-0.34288271
-0.32989983
-0.31685462
-0.3036918
-0.2904052
-0.27703358
-0.26365078
-0.25035229
-0.23724103
-0.22440706
-0.2119089
-0.19993476
-0.18899205
-0.46610364
-0.44288187
-0.42385895
-0.40802089
-0.39271591
-0.37765245
-0.36280273
-0.3479951
-0.33309234
-0.3180427
-0.3028631
-0.28762413
-0.27243568
-0.25742891
-0.24273796
-0.22848486
-0.21476426
-0.20163204
-0.18921418
-0.17784748
-0.47976909
-0.45473132
-0.43440575
-0.41744655
-0.40082797
-0.38419656
-0.36753553
-0.3507113
-0.33365955
-0.31642421
-0.29912264
-0.28191597
-0.26498438
-0.24850351
-0.23262581
-0.21746915
-0.20310922
-0.18957715
-0.17693978
-0.16539831
-0.4897941
-0.46340132
-0.44208378
-0.42412702
-0.406181
-0.38786434
-0.36921388
-0.35018631
-0.33083867
-0.31134551
-0.29194195
-0.27287929
-0.25439333
-0.23668094
-0.21988685
-0.20410091
-0.18936028
-0.17565682
-0.16299944
-0.15147539
-0.49483645
-0.46761663
-0.44560706
-0.42672652
-0.40739907
-0.38727747
-0.36651221
-0.34520747
-0.32358121
-0.30195417
-0.28067263
-0.26005545
-0.24036328
-0.22178287
-0.20442502
-0.18833284
-0.17349424
-0.15985758
-0.14737777
-0.13604454
-0.49354572
-0.46596035
-0.44342801
-0.42357972
-0.4027604
-0.38074054
-0.35784967
-0.33438533
-0.31074014
-0.2873642
-0.26467765
-0.24302146
-0.22263838
-0.20367206
-0.18617892
-0.17014678
-0.15551467
-0.1421931
-0.13009024
-0.11911096
-0.26506699
-0.26974127
-0.27224968
-0.27300083
-0.27278671
-0.2717942
-0.27010476
-0.26780592
-0.26496989
-0.26165141
-0.25789452
-0.25373672
-0.24921113
-0.24434783
-0.23917506
-0.23372173
-0.22801871
-0.22208653
-0.21592422
-0.2096173
-0.26779963
-0.27205866
-0.27426033
-0.2747928
-0.2743956
-0.27324688
-0.27142616
-0.26901731
-0.26608895
-0.26269299
-0.25887104
-0.25465852
-0.25008665
-0.24518349
-0.2399747
-0.23448817
-0.22876222
-0.22281575
-0.21654146
-0.20991341
-0.27312911
-0.27657608
-0.27817976
-0.2782845
-0.27752838
-0.2760741
-0.27399769
-0.27137574
-0.26826993
-0.26472654
-0.26078238
-0.25646864
-0.25181274
-0.24683893
-0.24156802
-0.23602502
-0.23025968
-0.22428977
-0.21781617
-0.21058113
-0.28081553
-0.28309998
-0.28383813
-0.28331415
-0.28202513
-0.28011418
-0.27765337
-0.27470942
-0.27133437
-0.26756666
-0.26343622
-0.25896814
-0.25418434
-0.24910333
-0.24373913
-0.23811158
-0.23228239
-0.22627392
-0.21954069
-0.21145513
-0.29055662
-0.29138735
-0.29102394
-0.2896827
-0.2876918
-0.28517358
-0.28219694
-0.27881728
-0.27507526
-0.27100005
-0.26661334
-0.26193196
-0.25697029
-0.25173992
-0.24624676
-0.24050227
-0.23457615
-0.22850396
-0.22148102
-0.21236502
-0.30203858
-0.30118599
-0.29951976
-0.29718921
-0.29433678
-0.29106539
-0.28744298
-0.28351393
-0.27930691
-0.27483944
-0.27012241
-0.26516337
-0.2599679
-0.25453918
-0.24887396
-0.24297241
-0.23690424
-0.23072439
-0.22339708
-0.21314383
-0.31498248
-0.31227087
-0.3091349
-0.30566402
-0.30180626
-0.29764831
-0.29326099
-0.28867732
-0.28391125
-0.27896781
-0.27384641
-0.26854334
-0.26305357
-0.25737073
-0.25148248
-0.24537719
-0.23911737
-0.23278061
-0.22516315
-0.21378128
-0.32917232
-0.32446695
-0.31972749
-0.31499324
-0.3100136
-0.30486196
-0.2996124
-0.29428571
-0.28888109
-0.28338916
-0.27779498
-0.27208055
-0.26622724
-0.26021659
-0.25402661
-0.24763674
-0.24110673
-0.23456014
-0.22674445
-0.21446557
-0.34445503
-0.33764183
-0.33118712
-0.3250902
-0.31889443
-0.31265864
-0.306462
-0.30031262
-0.29419206
-0.28807332
-0.28192354
-0.27570629
-0.26938382
-0.26291737
-0.25626252
-0.24937139
-0.24226828
-0.23505939
-0.22648738
-0.21304989
-0.36073172
-0.35168778
-0.3434016
-0.33583742
-0.32831916
-0.32089083
-0.31363668
-0.30654975
-0.29959153
-0.29271573
-0.28587122
-0.27900483
-0.27206424
-0.26499801
-0.2577503
-0.25025668
-0.24246005
-0.23415378
-0.223687
-0.20801828
-0.20246659
-0.1935183
-0.18456506
-0.17567086
-0.166782
-0.15794017
-0.14919887
-0.14059316
-0.13215233
-0.12390497
-0.11587689
-0.10809028
-0.10056426
-0.093315208
-0.086356701
-0.079699625
-0.073352273
-0.067320448
-0.061607562
-0.056214746
-0.05114097
-0.04638319
-0.041936491
-0.037794256
-0.033948342
-0.03038927
-0.027106413
-0.024088192
-0.021322275
-0.018795765
-0.016495385
-0.014407657
-0.012519061
-0.010816198
-0.0092859264
-0.0079154935
-0.0066926662
-0.0056058304
-0.004644169
-0.0037975855
-0.0030575238
-0.0024149803
-0.0018676846
-0.0013989946
-0.0010444928
-0.00069461486
-0.00068792281
-8.0126794e-05
-0.0017060538
0.0024523271
-0.20347662
-0.19413108
-0.18506879
-0.17618893
-0.16728205
-0.15841003
-0.14964431
-0.14101633
-0.13255293
-0.12428325
-0.11623337
-0.10842537
-0.10087837
-0.093608797
-0.086630306
-0.079953843
-0.073587767
-0.067537939
-0.061807824
-0.056398592
-0.051309249
-0.04653677
-0.042076252
-0.03792108
-0.034063105
-0.030492834
-0.027199617
-0.024171852
-0.021397173
-0.018862648
-0.016554963
-0.014460598
-0.012565993
-0.010857704
-0.0093225477
-0.0079477283
-0.0067209704
-0.0056306185
-0.0046658149
-0.0038164236
-0.0030738488
-0.0024290502
-0.0018797004
-0.0014091655
-0.0010527486
-0.00070153586
-0.0006913253
-8.5942796e-05
-0.0016914955
0.0024237397
-0.20559531
-0.19539914
-0.18611942
-0.17730824
-0.16837776
-0.15944506
-0.15063172
-0.14195973
-0.1334493
-0.12513171
-0.11703429
-0.10917899
-0.10158504
-0.094269206
-0.087245432
-0.08052488
-0.074116115
-0.068025186
-0.062255711
-0.056808983
-0.051684096
-0.046878088
-0.042386089
-0.038201494
-0.034316142
-0.030720503
-0.02740388
-0.024354604
-0.021560236
-0.019007756
-0.016683758
-0.014574623
-0.012666691
-0.010946415
-0.0094005091
-0.0080160752
-0.0067807382
-0.0056827448
-0.0047111431
-0.0038557053
-0.0031077451
-0.0024581372
-0.0019044362
-0.0014300021
-0.0010696103
-0.00071554784
-0.00069831541
-9.7432539e-05
-0.0016629188
0.002367179
-0.20866392
-0.19709105
-0.18749036
-0.17887815
-0.16995828
-0.16094889
-0.15208141
-0.14336048
-0.13479101
-0.1264094
-0.11824666
-0.1103248
-0.10266334
-0.095279906
-0.088189129
-0.081402702
-0.074929648
-0.068776424
-0.062946981
-0.057442879
-0.052263418
-0.047405783
-0.0428652
-0.038635113
-0.034707368
-0.031072407
-0.027719474
-0.024636812
-0.021811875
-0.019231518
-0.016882195
-0.01475014
-0.012821539
-0.011082684
-0.0095201295
-0.0081208196
-0.0068722224
-0.0057624321
-0.0047803487
-0.0039156006
-0.0031593603
-0.0025023689
-0.0019420015
-0.0014615984
-0.0010951583
-0.00073671382
-0.00070899208
-0.00011454808
-0.0016210714
0.0022838692
-0.2124558
-0.19893631
-0.18891242
-0.18070098
-0.17187709
-0.16279368
-0.15388315
-0.1451296
-0.13650653
-0.12805755
-0.11982219
-0.11182356
-0.10408164
-0.09661548
-0.089441123
-0.082571282
-0.076015829
-0.069781959
-0.063874244
-0.058294744
-0.053043153
-0.048116953
-0.043511584
-0.039220626
-0.035235994
-0.03154814
-0.028146267
-0.025018534
-0.022152274
-0.019534196
-0.01715058
-0.014987472
-0.013030856
-0.011266818
-0.0096816971
-0.0082622267
-0.0069956641
-0.0058698972
-0.0048736257
-0.0039962823
-0.0032288477
-0.0025618812
-0.0019925157
-0.0015040594
-0.0011294882
-0.00076510566
-0.00072350127
-0.00013718849
-0.0015670969
0.0021756956
-0.21662367
-0.20065443
-0.19011645
-0.18254356
-0.17396188
-0.16483608
-0.15590485
-0.1471531
-0.13850315
-0.13000018
-0.12169754
-0.11362282
-0.10579699
-0.098240986
-0.090973077
-0.084007772
-0.077356353
-0.071027223
-0.06502598
-0.059355531
-0.054016246
-0.049006139
-0.044321049
-0.039954839
-0.035899606
-0.032145892
-0.028682913
-0.025498778
-0.02258071
-0.019915265
-0.017488537
-0.015286353
-0.013294459
-0.011498691
-0.0098851309
-0.0084402483
-0.0071510398
-0.0060051356
-0.004990984
-0.0040977715
-0.0033162373
-0.0026367107
-0.0020560209
-0.0015574311
-0.0011726543
-0.00080076604
-0.00074199779
-0.00016521239
-0.0015024431
0.0020451122
-0.22077
-0.20206384
-0.19089073
-0.1841282
-0.17601214
-0.1669491
-0.15803145
-0.1493188
-0.14068501
-0.13215944
-0.12380784
-0.11566769
-0.10776328
-0.10011791
-0.092752781
-0.085685172
-0.078928574
-0.072493206
-0.066386212
-0.060611789
-0.055171358
-0.050063765
-0.045285495
-0.040830893
-0.036692386
-0.032860723
-0.029325215
-0.026073974
-0.023094147
-0.020372149
-0.017893878
-0.015644928
-0.013610783
-0.01177699
-0.010129331
-0.0086539709
-0.007337597
-0.0061675342
-0.0051319307
-0.0042196791
-0.0034212286
-0.0027266334
-0.0021323575
-0.00162161
-0.0012246061
-0.00084367391
-0.00076461849
-0.00019846895
-0.0014287596
0.0018950085
-0.22463393
-0.20356017
-0.1914596
-0.18526747
-0.17781363
-0.16904538
-0.16021933
-0.15157046
-0.14299014
-0.13447969
-0.12610392
-0.11791296
-0.10993885
-0.1022084
-0.094746196
-0.087573003
-0.080705328
-0.07415583
-0.067933704
-0.062044872
-0.056492178
-0.051275614
-0.046392571
-0.041838083
-0.037605081
-0.033684653
-0.030066306
-0.026738227
-0.023687534
-0.020900527
-0.018362922
-0.016060074
-0.013977183
-0.012099488
-0.010412437
-0.0089018511
-0.0075540687
-0.0063560658
-0.0052956473
-0.0043613668
-0.0035433388
-0.0028312996
-0.0022212884
-0.0016964562
-0.0012852889
-0.00089383161
-0.00079155255
-0.00023686638
-0.0013478462
0.001728674
-0.22587325
-0.20538808
-0.19251861
-0.18589766
-0.17893125
-0.17074461
-0.16219502
-0.15367527
-0.14520195
-0.13676854
-0.12842269
-0.12022225
-0.11221037
-0.10441971
-0.096878785
-0.089612486
-0.082641177
-0.075980792
-0.069643305
-0.063637029
-0.057966833
-0.052634394
-0.04763847
-0.042975188
-0.03863832
-0.034619573
-0.030908879
-0.027494677
-0.024364194
-0.021503718
-0.018898849
-0.016534745
-0.014396345
-0.012468579
-0.010736549
-0.0091857083
-0.0078020146
-0.0065720568
-0.0054832536
-0.0045237748
-0.0036833527
-0.0029513598
-0.0023233489
-0.0017823983
-0.0013550593
-0.00095146205
-0.00082318727
-0.00028011352
-0.0012618609
0.0015503781
-0.21601262
-0.20463417
-0.19363634
-0.18554896
-0.17849319
-0.17108081
-0.16313745
-0.15498358
-0.14679815
-0.1386072
-0.13043846
-0.1223494
-0.11439552
-0.10661976
-0.099057935
-0.091741613
-0.084697455
-0.077946929
-0.071506732
-0.065389218
-0.059602687
-0.054151685
-0.049037334
-0.044257667
-0.039807967
-0.035681102
-0.031867854
-0.028357253
-0.025136892
-0.022193231
-0.01951189
-0.017077918
-0.014876046
-0.012890912
-0.011107276
-0.0095102026
-0.0080852383
-0.0068185444
-0.0056971072
-0.0047086617
-0.0038425063
-0.0030875942
-0.0024389349
-0.0018794881
-0.0014337476
-0.0010160407
-0.00085933264
-0.00032655257
-0.001173364
0.0013656229
-0.19387466
-0.19858178
-0.19330863
-0.18440441
-0.17690189
-0.1698942
-0.16239409
-0.15453707
-0.146589
-0.13861308
-0.13062887
-0.12268926
-0.11485353
-0.10716903
-0.099674764
-0.092405212
-0.085390014
-0.078653428
-0.072214671
-0.066088359
-0.060284818
-0.054810384
-0.049667742
-0.044856282
-0.040372446
-0.03621008
-0.032360786
-0.028814261
-0.025558636
-0.022580791
-0.019866662
-0.017401527
-0.015170264
-0.013157597
-0.011348316
-0.0097274688
-0.0082805477
-0.0069936299
-0.0058535898
-0.0048480347
-0.0039660849
-0.003196579
-0.0025340635
-0.001961935
-0.0015019271
-0.0010746795
-0.00089045868
-0.00037295292
-0.001082936
0.0011823118
-0.18332588
-0.18914683
-0.18567395
-0.17693535
-0.16973261
-0.16347666
-0.15677702
-0.14963388
-0.14234317
-0.13497993
-0.12755389
-0.12011363
-0.11272087
-0.10542666
-0.098273557
-0.091299876
-0.084539292
-0.078020071
-0.071765268
-0.065793138
-0.060117421
-0.054747629
-0.049689374
-0.044944726
-0.040512566
-0.036388947
-0.032567451
-0.029039545
-0.02579493
-0.022821867
-0.020107498
-0.017638144
-0.015399581
-0.013377293
-0.011556706
-0.0099233974
-0.0084632876
-0.0071627953
-0.0060090505
-0.0049898626
-0.0040944236
-0.0033117534
-0.0026359561
-0.0020514452
-0.0015762408
-0.0011399549
-0.00092403537
-0.00042746544
-0.00098207158
0.00098467657
-0.17458777
-0.17780927
-0.17553231
-0.16851174
-0.16215942
-0.15659738
-0.15066452
-0.14425143
-0.13762475
-0.13087959
-0.12402786
-0.11711192
-0.11019227
-0.1033218
-0.096545198
-0.089903134
-0.083432204
-0.077163887
-0.071124533
-0.065335679
-0.059814287
-0.054572971
-0.04962029
-0.044961081
-0.040596797
-0.036525862
-0.032744027
-0.029244722
-0.02601941
-0.023057926
-0.0203488
-0.01787957
-0.015637064
-0.013607673
-0.01177759
-0.010133035
-0.0086604548
-0.0073466977
-0.0061792208
-0.0051460969
-0.0042366304
-0.0034400721
-0.0027500574
-0.0021521467
-0.0016602758
-0.0012139389
-0.00096305402
-0.00048885922
-0.00087372093
0.00076820397
-0.16490968
-0.16552249
-0.16369113
-0.15874665
-0.15362425
-0.14880484
-0.1436631
-0.13806172
-0.13217808
-0.12611301
-0.1198942
-0.11356206
-0.10717373
-0.10078273
-0.0944356
-0.088175002
-0.082040021
-0.076065106
-0.070279798
-0.064708917
-0.059372725
-0.054287091
-0.049463724
-0.044910465
-0.040631599
-0.036628189
-0.032898422
-0.029437956
-0.026240274
-0.023297022
-0.020598344
-0.018133198
-0.015889654
-0.013855175
-0.012016869
-0.010361728
-0.0088768415
-0.0075495787
-0.0063678045
-0.0053199196
-0.0043953912
-0.0035837363
-0.0028781422
-0.0022653198
-0.0017550991
-0.0012968351
-0.0010087538
-0.00055461222
-0.00076544271
0.00054295367
-0.15434056
-0.15307349
-0.15126417
-0.14803457
-0.1442054
-0.14019083
-0.13584611
-0.13108869
-0.12600201
-0.12066913
-0.11513319
-0.10943722
-0.10363418
-0.09777648
-0.091911561
-0.086083365
-0.08033272
-0.074696471
-0.069206988
-0.063892163
-0.05877547
-0.053876053
-0.049208876
-0.044784955
-0.040611622
-0.036692828
-0.033029463
-0.029619684
-0.026459263
-0.023541923
-0.02085967
-0.018403117
-0.016161792
-0.014124423
-0.01227921
-0.010614072
-0.0091168726
-0.007775621
-0.006578686
-0.0055148747
-0.0045738828
-0.0037455302
-0.0030226108
-0.0023929286
-0.0018623851
-0.0013896785
-0.0010626343
-0.00062409513
-0.00066327485
0.0003170302
-0.14255411
-0.1404952
-0.13880043
-0.13684513
-0.13418681
-0.13100823
-0.12745063
-0.12351784
-0.11923196
-0.11464884
-0.10981938
-0.10478826
-0.099603925
-0.094316391
-0.088972938
-0.083617737
-0.078292253
-0.073034736
-0.067879626
-0.062857311
-0.05799406
-0.053312009
-0.048829226
-0.044559851
-0.040514302
-0.036699521
-0.033119247
-0.029774325
-0.026663022
-0.023781353
-0.02112341
-0.018681679
-0.016447352
-0.014410623
-0.012560965
-0.010887387
-0.0093786763
-0.0080236111
-0.006811177
-0.0057306798
-0.0047721261
-0.0039256832
-0.0031838356
-0.0025353898
-0.0019826497
-0.0014927853
-0.0011256776
-0.00069686666
-0.00057320974
9.9086075e-05
-0.12986018
-0.12793043
-0.12658372
-0.12554052
-0.12384582
-0.1214769
-0.1186796
-0.11552546
-0.11201133
-0.10816677
-0.1040417
-0.099682516
-0.095132175
-0.090435594
-0.085638683
-0.080785085
-0.075915911
-0.071069676
-0.066281879
-0.061584592
-0.057006221
-0.05257138
-0.048300855
-0.044211658
-0.04031714
-0.036627169
-0.033148351
-0.029884285
-0.02683585
-0.024001502
-0.021377581
-0.018958627
-0.016737677
-0.014706572
-0.012856229
-0.011176914
-0.0096584901
-0.0082906376
-0.0070630817
-0.0059657297
-0.0049889935
-0.0041234408
-0.0033613558
-0.0026924357
-0.0021158481
-0.0016060832
-0.0011985591
-0.00077251141
-0.00050114765
-0.0001015688
-0.11697449
-0.11562491
-0.11476687
-0.11437947
-0.11344032
-0.11180662
-0.10972009
-0.10728311
-0.10448896
-0.10134945
-0.097906692
-0.094205002
-0.090284224
-0.086183666
-0.081944399
-0.077608337
-0.073215611
-0.068804066
-0.064409182
-0.060063743
-0.055797468
-0.051636757
-0.047604553
-0.043720292
-0.03999993
-0.036456039
-0.033097956
-0.02993198
-0.026961604
-0.024187779
-0.021609191
-0.019222549
-0.017022879
-0.015003814
-0.01315787
-0.011476721
-0.0099514456
-0.0085727667
-0.0073312726
-0.0062175804
-0.0052226111
-0.0043373936
-0.0035541404
-0.0028633235
-0.0022615257
-0.0017292444
-0.0012816539
-0.00085081936
-0.00045210863
-0.00027608469
-0.10444018
-0.10375713
-0.10341497
-0.1035216
-0.10317051
-0.1021741
-0.10072917
-0.098939401
-0.096801345
-0.094317305
-0.091519609
-0.088447231
-0.085135513
-0.081619419
-0.077935443
-0.074121124
-0.070214185
-0.066251102
-0.0622665
-0.058292924
-0.054360511
-0.050496657
-0.046725777
-0.043069156
-0.039544887
-0.036167878
-0.032949925
-0.029899842
-0.027023628
-0.024324683
-0.021804042
-0.019460637
-0.017291559
-0.015292337
-0.013457204
-0.011779364
-0.010251244
-0.0088647315
-0.0076113994
-0.006482683
-0.0054701203
-0.0045652701
-0.0037604128
-0.003046693
-0.0024187035
-0.0018616101
-0.0013749232
-0.00093179451
-0.00042945601
-0.00041731904
-0.092542876
-0.092445907
-0.09257217
-0.093066448
-0.093176707
-0.092715155
-0.091830861
-0.090613773
-0.089062714
-0.087175233
-0.084974572
-0.082492685
-0.079759646
-0.076805324
-0.073661755
-0.07036235
-0.066940874
-0.063431129
-0.059866129
-0.056277408
-0.052694682
-0.049145535
-0.045655123
-0.042245931
-0.03893763
-0.035746996
-0.032687908
-0.029771399
-0.027005761
-0.024396701
-0.021947523
-0.01965935
-0.017531353
-0.015561003
-0.013744323
-0.012076137
-0.010550321
-0.0091600344
-0.0078979412
-0.0067563985
-0.0057276658
-0.0048039058
-0.0039776102
-0.0032405203
-0.0025858326
-0.0020021383
-0.001477835
-0.0010155483
-0.00043431589
-0.00052096487
-0.081422959
-0.081781992
-0.08229068
-0.083087552
-0.083558651
-0.083534207
-0.083125216
-0.082403788
-0.081368327
-0.080013465
-0.078354799
-0.076416918
-0.074224132
-0.07180104
-0.069174569
-0.066373754
-0.063428503
-0.060369012
-0.057225598
-0.054028037
-0.050804912
-0.047583249
-0.044388211
-0.041242818
-0.038167713
-0.035181014
-0.03229823
-0.02953224
-0.026893334
-0.024389298
-0.022025546
-0.019805288
-0.017729722
-0.01579825
-0.014008707
-0.012357587
-0.010840281
-0.0094512998
-0.0081844893
-0.0070332174
-0.0059905625
-0.0050493667
-0.0042024725
-0.0034421755
-0.0027608309
-0.0021493987
-0.0015893365
-0.0011021443
-0.00046528653
-0.00058638559
-0.071140883
-0.071827855
-0.072622907
-0.073644816
-0.074391082
-0.074713768
-0.074695749
-0.074392547
-0.073800474
-0.072911745
-0.07173563
-0.070289795
-0.068592678
-0.066663562
-0.064524186
-0.062198717
-0.059712868
-0.057093156
-0.054366557
-0.051560232
-0.048700936
-0.045814473
-0.042925339
-0.040056422
-0.037228726
-0.034461149
-0.031770335
-0.029170582
-0.026673816
-0.024289611
-0.022025262
-0.0198859
-0.017874635
-0.015992735
-0.014239814
-0.012614044
-0.011112363
-0.0097306816
-0.0084640934
-0.0073070505
-0.0062535349
-0.0052971413
-0.0044311932
-0.0036485338
-0.0029411646
-0.0023015954
-0.0017078671
-0.0011914316
-0.00051854084
-0.00061690651
-0.061708556
-0.062616277
-0.06360902
-0.064784955
-0.065730959
-0.066319578
-0.066612824
-0.066652484
-0.066432415
-0.065942687
-0.065187348
-0.064177928
-0.062927298
-0.061449568
-0.059761393
-0.057882024
-0.055832632
-0.053635741
-0.0513148
-0.048893836
-0.046397094
-0.043848528
-0.041271353
-0.038687703
-0.036118333
-0.033582355
-0.031097023
-0.028677591
-0.026337212
-0.024086905
-0.021935564
-0.019890013
-0.017955108
-0.016133859
-0.014427589
-0.012836106
-0.011357888
-0.0099902677
-0.008729624
-0.0075715468
-0.0065109907
-0.0055423715
-0.0046596111
-0.0038561236
-0.0031239634
-0.0024566172
-0.0018314168
-0.0012829131
-0.00058836346
-0.00061937354
-0.053111182
-0.05415551
-0.05527144
-0.056539445
-0.0576195
-0.058402329
-0.058934133
-0.059245809
-0.05932917
-0.059172595
-0.058775915
-0.058145469
-0.057289142
-0.056216263
-0.054938684
-0.053470895
-0.051829526
-0.050032884
-0.04810063
-0.046053422
-0.043912548
-0.041699552
-0.039435804
-0.037142119
-0.034838428
-0.032543493
-0.030274651
-0.028047619
-0.025876339
-0.023772885
-0.02174742
-0.01980819
-0.017961573
-0.016212156
-0.014562848
-0.013015014
-0.011568627
-0.01022243
-0.0089740984
-0.0078203916
-0.0067572899
-0.0057800894
-0.0048834128
-0.0040612922
-0.0033061536
-0.0026121119
-0.0019576323
-0.0013756888
-0.00066805296
-0.00060296584
-0.04531798
-0.046434632
-0.04761451
-0.048923576
-0.050082433
-0.05099788
-0.05170406
-0.052223426
-0.052546443
-0.05266041
-0.052561932
-0.052253146
-0.051737724
-0.051020793
-0.050109869
-0.049015025
-0.047748542
-0.046324562
-0.044758835
-0.043068451
-0.0412715
-0.039386729
-0.037433192
-0.03542988
-0.033395382
-0.03134758
-0.029303372
-0.027278441
-0.025287054
-0.023341927
-0.021454116
-0.019632974
-0.017886136
-0.01621955
-0.014637545
-0.013142921
-0.011737066
-0.010420083
-0.0091909297
-0.0080475451
-0.0069869668
-0.0060054206
-0.0050983147
-0.0042603606
-0.0034845897
-0.0027655783
-0.0020839616
-0.0014684926
-0.00075100336
-0.00057748393
-0.038287572
-0.039428747
-0.040627465
-0.041937836
-0.04313094
-0.04412783
-0.044953544
-0.045624127
-0.046129402
-0.046456244
-0.046598987
-0.046556554
-0.04632925
-0.04591871
-0.045328724
-0.044565449
-0.043637182
-0.04255413
-0.041328235
-0.039972971
-0.038503094
-0.036934336
-0.035283102
-0.033566158
-0.031800304
-0.030002069
-0.028187426
-0.026371537
-0.024568534
-0.022791334
-0.021051494
-0.019359115
-0.017722783
-0.01614955
-0.014644954
-0.013213068
-0.011856572
-0.01057685
-0.0093740932
-0.0082474026
-0.0071948856
-0.0062137313
-0.0053001999
-0.0044497468
-0.0036561674
-0.002914462
-0.0022078183
-0.0015598057
-0.0008316965
-0.00055154365
-0.031972523
-0.033103927
-0.034288542
-0.035570771
-0.036763698
-0.037800973
-0.038700866
-0.039474666
-0.040112167
-0.04060041
-0.040932323
-0.041104546
-0.041114863
-0.040962179
-0.04064725
-0.040172922
-0.039544015
-0.038767182
-0.037850815
-0.036804916
-0.035640917
-0.034371452
-0.033010101
-0.031571126
-0.030069195
-0.02851909
-0.026935431
-0.02533242
-0.023723604
-0.022121666
-0.020538254
-0.018983841
-0.017467624
-0.015997464
-0.01457986
-0.013219949
-0.011921547
-0.010687196
-0.0095182412
-0.0084149013
-0.0073763392
-0.0064007217
-0.0054852056
-0.0046260486
-0.0038179063
-0.0030562442
-0.0023267351
-0.0016480102
-0.00090633922
-0.0005311857
-0.026322779
-0.027420949
-0.028568561
-0.029802045
-0.030969406
-0.032015336
-0.032953138
-0.033790649
-0.034518105
-0.035123185
-0.035598142
-0.035938155
-0.036139269
-0.036198408
-0.036114002
-0.035886247
-0.035517069
-0.035010062
-0.034370456
-0.033605063
-0.032722163
-0.03173135
-0.03064334
-0.029469762
-0.028222921
-0.026915565
-0.025560618
-0.024170939
-0.022759088
-0.021337108
-0.019916332
-0.018507222
-0.01711923
-0.015760704
-0.014438817
-0.013159535
-0.011927604
-0.010746574
-0.009618827
-0.0085456202
-0.007527131
-0.0065624939
-0.0056497824
-0.0047860987
-0.0039670071
-0.003188516
-0.0024384771
-0.0017315329
-0.0009729878
-0.00051928915
-0.021287963
-0.022337947
-0.023433737
-0.024605175
-0.025729294
-0.026760394
-0.027708149
-0.028577934
-0.029360747
-0.030045243
-0.030623576
-0.031090134
-0.031439913
-0.031668527
-0.031772755
-0.031750802
-0.03160231
-0.031328367
-0.030931518
-0.030415775
-0.029786559
-0.029050618
-0.0282159
-0.027291396
-0.026286967
-0.025213142
-0.024080909
-0.02290149
-0.021686123
-0.020445848
-0.019191313
-0.017932597
-0.016679052
-0.015439176
-0.014220514
-0.013029588
-0.011871849
-0.010751661
-0.0096722922
-0.0086359293
-0.0076436906
-0.0066956402
-0.005790761
-0.0049270193
-0.0041009013
-0.0033090424
-0.0025411033
-0.0018089468
-0.0010311919
-0.00051588069
-0.01681926
-0.017812641
-0.018848126
-0.019950059
-0.021019625
-0.022019431
-0.022956493
-0.023834441
-0.024645224
-0.025378682
-0.026027276
-0.026585134
-0.027046752
-0.027407008
-0.02766163
-0.027807431
-0.027842372
-0.027765593
-0.027577472
-0.027279672
-0.026875143
-0.026368083
-0.02576388
-0.025069011
-0.024290921
-0.023437874
-0.022518786
-0.021543047
-0.020520319
-0.019460351
-0.018372786
-0.017266983
-0.016151856
-0.015035727
-0.013926202
-0.012830075
-0.011753248
-0.01070068
-0.0096763466
-0.0086832225
-0.0077232623
-0.006797392
-0.0059054669
-0.0050463114
-0.0042173212
-0.0034158297
-0.0026329866
-0.0018790225
-0.0010813715
-0.0005190906
-0.012870477
-0.013803752
-0.014775313
-0.01580485
-0.016813682
-0.017771558
-0.018683526
-0.019551974
-0.020369882
-0.021128362
-0.021820455
-0.0224404
-0.022982612
-0.02344169
-0.0238128
-0.024091896
-0.024275788
-0.024362203
-0.024349865
-0.024238568
-0.024029215
-0.023723826
-0.023325526
-0.022838497
-0.022267909
-0.021619821
-0.020901062
-0.020119091
-0.019281845
-0.018397572
-0.017474657
-0.016521466
-0.015546174
-0.014556623
-0.013560184
-0.012563638
-0.011573075
-0.010593815
-0.0096303396
-0.008686241
-0.0077641796
-0.0068658461
-0.0059919033
-0.0051420001
-0.0043144104
-0.0035072141
-0.0027128234
-0.0019407483
-0.0011242115
-0.0005262993
-0.0093996017
-0.010272806
-0.011180395
-0.012138061
-0.013083941
-0.0139939
-0.014871502
-0.015718236
-0.016528102
-0.017293487
-0.018008158
-0.018666716
-0.019263781
-0.019794007
-0.020252385
-0.020634432
-0.020936263
-0.021154664
-0.021287177
-0.02133219
-0.021288997
-0.021157841
-0.020939933
-0.020637451
-0.020253516
-0.019792135
-0.019258131
-0.018657049
-0.01799504
-0.017278732
-0.016515091
-0.015711274
-0.014874481
-0.014011815
-0.013130141
-0.012235961
-0.011335299
-0.010433596
-0.009535625
-0.0086454132
-0.0077661714
-0.0069002341
-0.0060489808
-0.0052128258
-0.0043908739
-0.0035819736
-0.0027796602
-0.0019933519
-0.0011602852
-0.00053504971
-0.0063686322
-0.0071844305
-0.0080307002
-0.0089196651
-0.0098035245
-0.010663359
-0.011501583
-0.012319009
-0.013110596
-0.013869938
-0.014591587
-0.015270638
-0.0159021
-0.016480905
-0.017002142
-0.017461214
-0.017853903
-0.018176443
-0.018425606
-0.018598791
-0.018694097
-0.018710387
-0.01864733
-0.018505432
-0.018286043
-0.017991346
-0.017624325
-0.017188708
-0.016688899
-0.016129883
-0.015517125
-0.014856447
-0.014153904
-0.013415662
-0.012647859
-0.011856487
-0.011047268
-0.010225543
-0.0093961629
-0.0085633983
-0.0077308449
-0.0069013417
-0.006076874
-0.0052585402
-0.004446213
-0.0036395025
-0.0028329849
-0.0020363632
-0.0011899678
-0.00054352873
-0.0037453591
-0.0045079576
-0.005297232
-0.0061223372
-0.006947229
-0.0077574203
-0.0085544159
-0.0093384979
-0.010105482
-0.010850062
-0.011567562
-0.012253627
-0.012903747
-0.013513263
-0.014077538
-0.014592083
-0.015052615
-0.015455118
-0.015795924
-0.016071797
-0.016280009
-0.016418408
-0.01648548
-0.016480395
-0.016403041
-0.016254047
-0.016034776
-0.015747317
-0.015394439
-0.014979546
-0.014506605
-0.013980056
-0.013404721
-0.012785694
-0.012128229
-0.011437626
-0.010719111
-0.0099777225
-0.0092181995
-0.0084448705
-0.0076615486
-0.006871431
-0.0060769849
-0.005279894
-0.0044807216
-0.0036798062
-0.0028727037
-0.0020695916
-0.0012134593
-0.00055060975
-0.0015041122
-0.0022193134
-0.0029575453
-0.0037253372
-0.0044964082
-0.0052599849
-0.0060168333
-0.0067668036
-0.0075064493
-0.0082314311
-0.0089377836
-0.0096216967
-0.010279168
-0.010905999
-0.011497925
-0.012050701
-0.012560157
-0.013022244
-0.013433106
-0.013789151
-0.014087126
-0.014324186
-0.014497955
-0.01460659
-0.01464883
-0.014624033
-0.014532205
-0.01437401
-0.014150767
-0.013864429
-0.013517544
-0.013113212
-0.012655008
-0.012146907
-0.01159319
-0.010998347
-0.010366972
-0.0097036499
-0.0090128437
-0.0082987814
-0.0075653396
-0.0068159305
-0.0060533757
-0.0052798353
-0.0044964721
-0.0037042931
-0.0028997695
-0.0020936159
-0.0012312667
-0.00055592005
0.00037921502
-0.00029440972
-0.00098780834
-0.0017051336
-0.0024281586
-0.0031492177
-0.0038684761
-0.0045854179
-0.0052972085
-0.0060003292
-0.0066914406
-0.0073672332
-0.0080241863
-0.0086585627
-0.0092664972
-0.0098440595
-0.010387292
-0.01089225
-0.011355061
-0.011771982
-0.012139467
-0.01245423
-0.01271331
-0.012914132
-0.013054569
-0.013132989
-0.013148304
-0.013099999
-0.012988155
-0.012813455
-0.012577182
-0.01228119
-0.01192787
-0.011520097
-0.011061162
-0.010554696
-0.010004577
-0.0094148352
-0.0087895413
-0.0081326947
-0.0074481047
-0.0067392699
-0.006009243
-0.0052605486
-0.004494848
-0.0037137362
-0.0029145181
-0.0021084268
-0.001243206
-0.00055896327
0.0019018064
0.0012619602
0.00060537657
-7.0346743e-05
-0.00075340049
-0.0014385634
-0.0021255044
-0.0028134107
-0.003499938
-0.0041822317
-0.0048574705
-0.0055227715
-0.0061750359
-0.0068109436
-0.0074270087
-0.0080196216
-0.0085850766
-0.0091196043
-0.0096194152
-0.01008075
-0.010499934
-0.010873435
-0.011197922
-0.011470328
-0.01168791
-0.011848311
-0.011949607
-0.011990361
-0.011969663
-0.011887151
-0.011743034
-0.011538093
-0.011273671
-0.010951649
-0.010574398
-0.010144724
-0.0096657981
-0.0091410685
-0.0085741648
-0.0079687893
-0.0073285997
-0.0066570861
-0.0059574321
-0.0052324236
-0.0044841175
-0.0037145997
-0.0029219048
-0.0021177125
-0.0012518817
-0.00056105419
0.0031044238
0.0024923543
0.0018659035
0.0012242956
0.00057431539
-8.0773866e-05
-0.00074025626
-0.0014030685
-0.002067237
-0.0027304253
-0.0033902222
-0.0040440887
-0.0046892719
-0.0053228014
-0.0059415198
-0.0065421085
-0.0071211072
-0.0076749394
-0.0081999452
-0.0086924215
-0.0091486675
-0.0095650348