/*--------------------------------*- C++ -*----------------------------------*\
  =========                 |
  \\      /  F ield         | OpenFOAM: The Open Source CFD Toolbox
   \\    /   O peration     | Website:  https://openfoam.org
    \\  /    A nd           | Version:  6
     \\/     M anipulation  |
\*---------------------------------------------------------------------------*/
FoamFile
{
    version     2.0;
    format      ascii;
    class       volScalarField;
    location    "112";
    object      p;
}
// * * * * * * * * * * * * * * * * * * * * * * * * * * * * * * * * * * * * * //

dimensions      [0 2 -2 0 0 0 0];

internalField   nonuniform List<scalar> 
9200
(
-0.3780401
-0.36669317
-0.35659913
-0.34764952
-0.33890953
-0.330393
-0.32217824
-0.31423271
-0.30648911
-0.29887548
-0.29131888
-0.28375023
-0.27611139
-0.26836234
-0.26049182
-0.25253514
-0.24456862
-0.2366801
-0.22989445
-0.22849362
-0.39590138
-0.38210322
-0.37006551
-0.35959608
-0.34948403
-0.33971079
-0.33034513
-0.32132376
-0.31254717
-0.30391701
-0.29534009
-0.28673419
-0.27803562
-0.26920519
-0.2602338
-0.25114642
-0.24197291
-0.23271299
-0.22404958
-0.21814857
-0.41417962
-0.39790741
-0.38397195
-0.37205315
-0.36062436
-0.34961641
-0.33907677
-0.3289037
-0.31896352
-0.30913535
-0.29931489
-0.28942008
-0.27939783
-0.26922719
-0.2589192
-0.24851253
-0.23804596
-0.22752846
-0.21735927
-0.20865341
-0.43244074
-0.4137136
-0.39794578
-0.38463922
-0.37191394
-0.35963381
-0.34781715
-0.33632327
-0.32499224
-0.31369604
-0.30234001
-0.29086594
-0.27925513
-0.26752624
-0.25572858
-0.24393198
-0.23220298
-0.22058049
-0.20933195
-0.19919848
-0.45005479
-0.42897576
-0.41149233
-0.39687509
-0.38286302
-0.36924221
-0.35600173
-0.34297257
-0.3299891
-0.31694323
-0.30377969
-0.29049231
-0.27711987
-0.26373622
-0.25043688
-0.23732476
-0.22448995
-0.21199097
-0.20001603
-0.18907255
-0.46619724
-0.44297487
-0.42395146
-0.40811297
-0.39280753
-0.37774355
-0.36289326
-0.34808498
-0.33318151
-0.31813108
-0.30295064
-0.28771078
-0.27252142
-0.25751374
-0.24282189
-0.22856792
-0.21484646
-0.20171343
-0.18929479
-0.17792733
-0.47986292
-0.45482455
-0.43449848
-0.41753883
-0.40091973
-0.38428773
-0.36762602
-0.35080102
-0.33374843
-0.31651218
-0.29920966
-0.28200203
-0.26506947
-0.24858765
-0.23270903
-0.21755149
-0.20319073
-0.18965786
-0.17701973
-0.16547755
-0.48988799
-0.46349464
-0.44217659
-0.42421935
-0.40627275
-0.38795539
-0.36930414
-0.35027569
-0.33092708
-0.31143292
-0.29202832
-0.27296464
-0.25447769
-0.23676433
-0.21996933
-0.20418253
-0.18944109
-0.17573687
-0.16307876
-0.15155403
-0.49493021
-0.46770983
-0.44569977
-0.42681871
-0.40749061
-0.38736822
-0.36660204
-0.34529631
-0.32366899
-0.30204087
-0.28075825
-0.26014001
-0.24044684
-0.22186548
-0.20450674
-0.18841374
-0.17357437
-0.15993698
-0.14745649
-0.13612262
-0.49363911
-0.46605323
-0.44352041
-0.42367156
-0.40285151
-0.38083076
-0.35793889
-0.33447346
-0.31082714
-0.28745007
-0.26476242
-0.24310519
-0.22272112
-0.20375389
-0.18625991
-0.17022698
-0.15559413
-0.14227188
-0.13016838
-0.1191885
-0.26515368
-0.26982812
-0.27233659
-0.27308772
-0.27287356
-0.27188096
-0.27019141
-0.26789242
-0.26505621
-0.26173752
-0.25798038
-0.25382231
-0.24929641
-0.24443277
-0.23925963
-0.2338059
-0.22810245
-0.2221698
-0.21600699
-0.20969955
-0.26788644
-0.2721456
-0.27434732
-0.27487977
-0.27448252
-0.27333371
-0.27151288
-0.26910387
-0.26617534
-0.26277916
-0.25895698
-0.25474419
-0.25017201
-0.24526851
-0.24005936
-0.23457243
-0.22884605
-0.22289913
-0.21662435
-0.20999576
-0.27321617
-0.27666323
-0.27826692
-0.27837163
-0.27761545
-0.27616107
-0.27408454
-0.27146243
-0.26835644
-0.26481285
-0.26086846
-0.25655445
-0.25189826
-0.24692412
-0.24165285
-0.23610947
-0.23034372
-0.22437337
-0.21789927
-0.21066368
-0.28090295
-0.28318743
-0.28392556
-0.28340151
-0.2821124
-0.28020135
-0.27774041
-0.2747963
-0.27142107
-0.26765315
-0.26352248
-0.25905415
-0.25427006
-0.24918874
-0.2438242
-0.23819628
-0.23236669
-0.2263578
-0.21962409
-0.21153795
-0.29064447
-0.29147517
-0.29111168
-0.28977035
-0.28777934
-0.28526099
-0.2822842
-0.27890438
-0.27516217
-0.27108675
-0.26669982
-0.26201819
-0.25705624
-0.25182557
-0.24633208
-0.24058724
-0.23466074
-0.22858814
-0.22156475
-0.21244815
-0.30212693
-0.30127422
-0.29960787
-0.29727719
-0.29442462
-0.29115308
-0.28753049
-0.28360127
-0.27939406
-0.27492637
-0.27020911
-0.26524983
-0.26005409
-0.25462508
-0.24895954
-0.24305765
-0.2369891
-0.23080886
-0.22348111
-0.21322728
-0.31507135
-0.31235955
-0.30922341
-0.30575236
-0.30189442
-0.29773628
-0.29334878
-0.28876491
-0.28399864
-0.27905498
-0.27393336
-0.26863003
-0.26313999
-0.25745686
-0.2515683
-0.24546267
-0.23920248
-0.23286532
-0.22524743
-0.21386501
-0.32926173
-0.3245561
-0.31981641
-0.31508195
-0.3101021
-0.30495025
-0.29970048
-0.29437358
-0.28896874
-0.28347659
-0.27788217
-0.27216748
-0.2663139
-0.26030295
-0.25411265
-0.24772242
-0.24119202
-0.23464501
-0.22682888
-0.21454947
-0.34454499
-0.33773147
-0.33127648
-0.32517931
-0.3189833
-0.31274726
-0.3065504
-0.30040078
-0.29427999
-0.28816101
-0.28201097
-0.27579345
-0.26947068
-0.26300392
-0.25634871
-0.24945718
-0.24235364
-0.23514427
-0.22657178
-0.21313377
-0.36082225
-0.35177792
-0.34349142
-0.33592694
-0.32840841
-0.32097981
-0.31372539
-0.30663821
-0.29967972
-0.29280365
-0.28595886
-0.27909217
-0.27215124
-0.26508464
-0.25783652
-0.25034246
-0.24254534
-0.23423853
-0.22377122
-0.20810196
-0.20254823
-0.19359914
-0.18464508
-0.17575003
-0.16686029
-0.15801756
-0.14927533
-0.14066868
-0.13222689
-0.12397857
-0.11594952
-0.10816194
-0.10063497
-0.093384963
-0.086425514
-0.079767508
-0.073419242
-0.06738652
-0.061672752
-0.056279071
-0.051204447
-0.046445834
-0.041998313
-0.037855267
-0.03400855
-0.030448676
-0.027165013
-0.024145979
-0.021379234
-0.018851873
-0.016550612
-0.014461961
-0.012572393
-0.010868494
-0.0093371106
-0.0079654756
-0.0067413397
-0.0056530693
-0.0046898278
-0.003841492
-0.0030994877
-0.0024547622
-0.0019050782
-0.0014335711
-0.0010763388
-0.0007222321
-0.00071418952
-9.5872225e-05
-0.0017350322
0.0024740473
-0.20355842
-0.19421206
-0.18514894
-0.17626824
-0.16736048
-0.15848756
-0.1497209
-0.14109199
-0.13262763
-0.12435699
-0.11630614
-0.10849718
-0.10094921
-0.093678686
-0.086699252
-0.080021859
-0.073654866
-0.067604139
-0.06187314
-0.056463042
-0.051372849
-0.046599535
-0.042138194
-0.037982209
-0.034123429
-0.030552354
-0.027258331
-0.024229751
-0.021454243
-0.018918866
-0.016610299
-0.01451501
-0.012619431
-0.010910106
-0.009373838
-0.0079978162
-0.0067697495
-0.0056779629
-0.0047115792
-0.0038604357
-0.0031159185
-0.0024689382
-0.0019172
-0.0014438479
-0.0010846993
-0.00072925775
-0.00071768712
-0.00010179136
-0.0017205182
0.0024453383
-0.20567742
-0.19548037
-0.18619982
-0.17738781
-0.16845647
-0.15952286
-0.15070859
-0.14203566
-0.13352427
-0.12520572
-0.11710734
-0.10925107
-0.10165615
-0.094339365
-0.087314644
-0.080593159
-0.074183474
-0.068091643
-0.062321281
-0.056873682
-0.051747942
-0.046941094
-0.042448269
-0.038262858
-0.034376696
-0.030780251
-0.027462819
-0.024412726
-0.021617526
-0.019064192
-0.016739308
-0.014629249
-0.012720342
-0.010999029
-0.0094520097
-0.0080663729
-0.0068297266
-0.0057302984
-0.0047571167
-0.003899927
-0.0031500248
-0.0024982356
-0.0019421463
-0.0014648946
-0.0011017684
-0.00074347655
-0.00072486558
-0.0001134839
-0.0016920262
0.0023885359
-0.20874644
-0.19717262
-0.18757109
-0.17895808
-0.17003735
-0.16102706
-0.15215866
-0.14343679
-0.13486637
-0.1264838
-0.1183201
-0.11039727
-0.10273484
-0.095350448
-0.088258722
-0.081471357
-0.07499738
-0.068843247
-0.063012912
-0.057507935
-0.052327615
-0.047469136
-0.042927722
-0.038696814
-0.034768255
-0.031132483
-0.027778736
-0.024695253
-0.02186948
-0.019288266
-0.016938056
-0.014805074
-0.012875495
-0.011135602
-0.0095719334
-0.0081714199
-0.0069215131
-0.005810288
-0.0048266249
-0.0039601256
-0.0032019441
-0.0025427723
-0.0019800166
-0.0014967957
-0.0011276173
-0.00076494267
-0.00073581445
-0.00013089483
-0.0016502931
0.0023048644
-0.21253878
-0.19901824
-0.18899348
-0.1807813
-0.17195659
-0.16287229
-0.15396085
-0.14520637
-0.13658235
-0.12813242
-0.11989609
-0.1118965
-0.10415361
-0.09668649
-0.089511181
-0.082640399
-0.076084018
-0.069849235
-0.063940623
-0.058360242
-0.053107786
-0.048180736
-0.04357453
-0.039282745
-0.035297294
-0.031608623
-0.028205931
-0.025077373
-0.022210274
-0.019591334
-0.017206828
-0.01504279
-0.013085195
-0.011320116
-0.0097338806
-0.0083132061
-0.007045334
-0.0059181327
-0.0049202825
-0.004041189
-0.0032718147
-0.0026026692
-0.0020309162
-0.0015396421
-0.0011623279
-0.00079371459
-0.00075066647
-0.00015391079
-0.0015964485
0.0021962141
-0.21670707
-0.20073669
-0.19019783
-0.18262427
-0.1740418
-0.16491512
-0.15598301
-0.14723035
-0.13857946
-0.13007555
-0.12177195
-0.11369627
-0.10586948
-0.098312513
-0.091043652
-0.084077403
-0.077425054
-0.071095007
-0.065092863
-0.059421527
-0.054081372
-0.049070408
-0.044384475
-0.040017433
-0.035961374
-0.032206839
-0.028743036
-0.025558071
-0.022639159
-0.01997285
-0.017545228
-0.015342111
-0.013349236
-0.011552427
-0.0099377512
-0.0084916645
-0.0072011471
-0.0060538099
-0.0050380812
-0.0041431209
-0.0033596494
-0.0026779462
-0.0020948701
-0.0015934631
-0.0012059379
-0.00082981918
-0.00076956003
-0.00018237685
-0.0015319227
0.0020650408
-0.22085368
-0.20214637
-0.19097238
-0.18420921
-0.17609243
-0.16702855
-0.15811003
-0.14939649
-0.14076179
-0.13223529
-0.12388275
-0.11574165
-0.10783629
-0.10018996
-0.092823889
-0.085755339
-0.07899781
-0.072561523
-0.066453624
-0.060678312
-0.055237005
-0.050128551
-0.045349434
-0.040893994
-0.036754655
-0.032922165
-0.02938583
-0.026133754
-0.023153079
-0.020430213
-0.017951045
-0.015701162
-0.013666034
-0.011831198
-0.010182425
-0.0087058613
-0.0073881801
-0.0062166864
-0.0051795087
-0.0042655126
-0.0034651282
-0.0027683598
-0.0021716998
-0.0016581367
-0.0012583783
-0.00087321734
-0.00079261383
-0.00021612545
-0.0014583448
0.0019142392
-0.22471769
-0.20364289
-0.19154148
-0.18534871
-0.1778942
-0.16912516
-0.16029827
-0.15164855
-0.14306735
-0.134556
-0.12617931
-0.11798741
-0.11001236
-0.10228098
-0.094817826
-0.087643696
-0.080775093
-0.074224678
-0.068001646
-0.062111922
-0.05655835
-0.051340922
-0.046457027
-0.041901696
-0.037667859
-0.033746599
-0.03012742
-0.026798503
-0.023746959
-0.020959081
-0.018420578
-0.016116794
-0.014032921
-0.012154183
-0.010466019
-0.0089542314
-0.0076051443
-0.0064057141
-0.0053437252
-0.0044077049
-0.0035877477
-0.0028735399
-0.0022611479
-0.0017335028
-0.0013195744
-0.00092389204
-0.00081999655
-0.00025504901
-0.0013774911
0.0017470998
-0.22595676
-0.20547079
-0.19260059
-0.18597903
-0.17901196
-0.17082459
-0.16227422
-0.15375365
-0.14527949
-0.13684522
-0.12849847
-0.12029713
-0.11228433
-0.10449274
-0.096950885
-0.089683659
-0.082711429
-0.076050131
-0.069711741
-0.063704574
-0.0580335
-0.052700194
-0.047703415
-0.043039288
-0.038701581
-0.034682
-0.030970471
-0.027555427
-0.024424091
-0.021562743
-0.018956974
-0.016591934
-0.014452552
-0.012523745
-0.010790603
-0.0092385647
-0.0078535702
-0.0066221898
-0.0055318216
-0.0045706089
-0.003728264
-0.0029941086
-0.0023637217
-0.0018199625
-0.0013898559
-0.0009820402
-0.00085207116
-0.00029883184
-0.0012914987
0.0015679026
-0.21609569
-0.20471656
-0.19371811
-0.18563018
-0.1785738
-0.17116076
-0.16321668
-0.15506207
-0.14687585
-0.13868408
-0.13051449
-0.12242456
-0.1144698
-0.10669314
-0.099130409
-0.091813179
-0.084768116
-0.078016687
-0.071575596
-0.065457197
-0.059669791
-0.054217924
-0.049102718
-0.044322205
-0.039871666
-0.035743964
-0.031929879
-0.028418435
-0.025197219
-0.022252685
-0.019570445
-0.017135538
-0.014932685
-0.012946512
-0.011161768
-0.0095635004
-0.0081372404
-0.0068691297
-0.0057461342
-0.0047559622
-0.0038878915
-0.0031308245
-0.0024797954
-0.0019175455
-0.0014690316
-0.0010471142
-0.00088862845
-0.00034578718
-0.0012029265
0.0013821637
-0.19395776
-0.19866385
-0.19339006
-0.18448537
-0.1769823
-0.169974
-0.16247323
-0.15461551
-0.1466667
-0.13869
-0.13070499
-0.12276455
-0.11492797
-0.10724261
-0.099747463
-0.092477029
-0.085460947
-0.078723479
-0.072283844
-0.066156662
-0.060352259
-0.05487697
-0.049733483
-0.044921184
-0.040436514
-0.036273318
-0.03242319
-0.028875827
-0.02561935
-0.022640635
-0.01992561
-0.017459543
-0.015227302
-0.0132136
-0.011403214
-0.0097811766
-0.0083329641
-0.0070446343
-0.0059030411
-0.004895765
-0.0040119053
-0.0032402501
-0.0025753675
-0.0020004419
-0.0015376458
-0.0011062091
-0.0009200939
-0.00039268575
-0.0011123047
0.0011978119
-0.18340801
-0.18922783
-0.18575437
-0.17701543
-0.16981223
-0.16355572
-0.15685549
-0.14971173
-0.14242035
-0.1350564
-0.12762962
-0.12018859
-0.11279504
-0.10550002
-0.098346096
-0.091371581
-0.084610158
-0.078090096
-0.071834452
-0.065861483
-0.060184933
-0.054814312
-0.049755234
-0.045009767
-0.040576791
-0.036452354
-0.032630038
-0.029101304
-0.025855846
-0.022881921
-0.020166662
-0.017696382
-0.015456845
-0.013433527
-0.01161184
-0.0099773467
-0.0085159507
-0.007214052
-0.0060587602
-0.0050378583
-0.0041405165
-0.0033557057
-0.0026775457
-0.0020902529
-0.0016122403
-0.0011718213
-0.00095383397
-0.00044768927
-0.0010108934
0.00099896364
-0.17466883
-0.1778892
-0.17561167
-0.16859089
-0.1622382
-0.15667566
-0.15074227
-0.14432861
-0.13770133
-0.13095553
-0.12410312
-0.11718647
-0.1102661
-0.10339488
-0.096617502
-0.089974655
-0.083502932
-0.077233816
-0.07119366
-0.065404004
-0.05988181
-0.054639694
-0.049686215
-0.045026208
-0.040661127
-0.036589393
-0.032806751
-0.02930663
-0.026080487
-0.023118149
-0.020408142
-0.017937992
-0.01569452
-0.013664105
-0.011832928
-0.010187193
-0.0087133327
-0.0073981756
-0.0062291583
-0.0051943278
-0.0042829657
-0.0034842762
-0.0027919025
-0.0021912263
-0.0016965219
-0.0012461176
-0.00099295603
-0.00050958915
-0.00090177047
0.00078106112
-0.16498956
-0.16560134
-0.16376943
-0.15882478
-0.15370209
-0.14888224
-0.14374002
-0.13813814
-0.13225396
-0.12618832
-0.11996889
-0.11363611
-0.1072471
-0.10085542
-0.09450757
-0.088246241
-0.082110517
-0.076134849
-0.070348781
-0.064777135
-0.059440176
-0.054353773
-0.049529636
-0.044975605
-0.040695963
-0.036691772
-0.032961216
-0.029499949
-0.026301448
-0.023357353
-0.020657803
-0.018191746
-0.015947243
-0.013911747
-0.012072353
-0.01041604
-0.008929879
-0.0076012229
-0.0064179154
-0.0053683316
-0.0044419151
-0.0036281381
-0.0029201884
-0.0023046164
-0.0017915342
-0.0013292708
-0.0010386842
-0.00057580892
-0.00079253314
0.0005542164
-0.15441912
-0.15315122
-0.15134142
-0.14811165
-0.14428223
-0.14026729
-0.13592215
-0.13116428
-0.12607712
-0.12074372
-0.11520722
-0.10951066
-0.10370701
-0.097848676
-0.091983095
-0.08615422
-0.080402881
-0.074765925
-0.069275725
-0.063960175
-0.058842751
-0.053942598
-0.04927468
-0.044850012
-0.040675927
-0.036756373
-0.033092236
-0.029681671
-0.026520445
-0.023602274
-0.020919159
-0.018461704
-0.016219428
-0.014181049
-0.012334756
-0.010668452
-0.0091699852
-0.0078273472
-0.0066288859
-0.0055633832
-0.0046205104
-0.0037900444
-0.0030647723
-0.0024323555
-0.0018989207
-0.0014222816
-0.0010924933
-0.00064567629
-0.00068922622
0.00032657914
-0.14263132
-0.14057181
-0.13887663
-0.13692117
-0.13426263
-0.13108373
-0.12752575
-0.12359256
-0.11930625
-0.11472266
-0.10989269
-0.10486104
-0.099676136
-0.094388015
-0.089043952
-0.08368812
-0.078361987
-0.073103806
-0.06794802
-0.062925018
-0.058061071
-0.053378316
-0.04889482
-0.044624725
-0.040578447
-0.036762926
-0.033181898
-0.029836205
-0.026724109
-0.023841622
-0.021182827
-0.018740203
-0.016504934
-0.014467202
-0.012616469
-0.010941731
-0.0094317594
-0.0080753138
-0.0068613595
-0.0057791775
-0.004818749
-0.0039702002
-0.0032260014
-0.0025748338
-0.0020191714
-0.0015254374
-0.0011553435
-0.00071871519
-0.00059785145
0.00010683745
-0.12993612
-0.12800594
-0.12665891
-0.12561554
-0.12392063
-0.12155142
-0.11875379
-0.11559929
-0.11208477
-0.10823978
-0.10411425
-0.099754575
-0.095203712
-0.090506585
-0.085709107
-0.080854921
-0.07598514
-0.071138281
-0.066349844
-0.061651905
-0.057072869
-0.052637353
-0.048366143
-0.044276249
-0.040381023
-0.03669033
-0.033210774
-0.029945952
-0.026896737
-0.02406158
-0.021436816
-0.019016975
-0.01679509
-0.014762987
-0.012911574
-0.011231104
-0.009711423
-0.0083421941
-0.0071131222
-0.0060140897
-0.0050354827
-0.004167829
-0.0034033923
-0.0027317598
-0.0021522178
-0.0016386389
-0.0012278914
-0.00079447432
-0.00052432894
-9.564916e-05
-0.11704928
-0.11569938
-0.11484106
-0.11445349
-0.11351415
-0.11188019
-0.10979336
-0.10735605
-0.10456154
-0.10142164
-0.097978456
-0.094276316
-0.090355057
-0.086253985
-0.082014184
-0.07767757
-0.073284273
-0.068872138
-0.064476647
-0.060130584
-0.055863673
-0.051702312
-0.047669445
-0.043784507
-0.040063455
-0.036518858
-0.03316005
-0.029993328
-0.027022182
-0.024247555
-0.021668129
-0.019280606
-0.017080004
-0.015059944
-0.013212932
-0.011530628
-0.010004097
-0.008624043
-0.0073810338
-0.0062656621
-0.0052688224
-0.0043815051
-0.0035958963
-0.0029023715
-0.0022975864
-0.0017615368
-0.0013104978
-0.00087271684
-0.00047370572
-0.0002719886
-0.10451393
-0.1038306
-0.1034882
-0.10359466
-0.10324339
-0.10224674
-0.10080153
-0.099011453
-0.096873065
-0.094388663
-0.091590574
-0.088517776
-0.085205608
-0.08168904
-0.078004563
-0.074189717
-0.070282234
-0.06631859
-0.062333408
-0.058359234
-0.054426206
-0.050561723
-0.046790198
-0.043132917
-0.03960797
-0.036230266
-0.033011599
-0.029960777
-0.027083797
-0.024384054
-0.021862578
-0.019518292
-0.01734828
-0.015348061
-0.013511858
-0.01183286
-0.010303481
-0.0089155897
-0.0076607385
-0.0065303389
-0.0055159015
-0.0046089474
-0.0038017261
-0.0030852966
-0.0024542859
-0.0018934582
-0.0014031168
-0.00095342853
-0.00044937949
-0.00041498911
-0.092615651
-0.09251842
-0.092644457
-0.093138576
-0.093248656
-0.092786879
-0.091902324
-0.090684952
-0.089133582
-0.087245762
-0.085044734
-0.082562452
-0.07982899
-0.076874222
-0.073730181
-0.070430277
-0.067008279
-0.063497995
-0.059932436
-0.056343138
-0.052759815
-0.049210055
-0.045719011
-0.042309171
-0.039000202
-0.03580888
-0.032749082
-0.029831836
-0.027065434
-0.024455575
-0.022005559
-0.0197165
-0.017587564
-0.015616211
-0.013798452
-0.012129101
-0.010602017
-0.0092103415
-0.0079467197
-0.0068034839
-0.0057728661
-0.004846992
-0.0040183186
-0.0032785103
-0.0026207661
-0.0020333597
-0.0015052196
-0.0010367201
-0.00045251649
-0.00052030677
-0.081494788
-0.081853574
-0.082362052
-0.083158771
-0.083629698
-0.083605039
-0.083195802
-0.082474106
-0.081438352
-0.08008317
-0.078424157
-0.076485902
-0.074292717
-0.0718692
-0.06924228
-0.066440991
-0.063495241
-0.060435228
-0.057291272
-0.05409315
-0.050869443
-0.047647179
-0.04445152
-0.041305486
-0.038229719
-0.035242335
-0.032358841
-0.029592114
-0.026952439
-0.024447598
-0.022083
-0.019861847
-0.017785331
-0.015852845
-0.01406221
-0.01240991
-0.010891321
-0.0095009357
-0.0082325804
-0.0070795991
-0.006035042
-0.0050917152
-0.0042424233
-0.0034793922
-0.0027949544
-0.0021798215
-0.0016157679
-0.001122668
-0.00048176117
-0.00058726548
-0.0712118
-0.071898541
-0.072693394
-0.073715153
-0.074461251
-0.074783731
-0.074765476
-0.074462018
-0.073869665
-0.072980632
-0.071804187
-0.070357996
-0.068660497
-0.066730975
-0.064591168
-0.062265244
-0.059778915
-0.057158699
-0.054431572
-0.051624699
-0.048764833
-0.045877778
-0.04298803
-0.040118477
-0.037290121
-0.034521859
-0.031830333
-0.029229837
-0.026732295
-0.024347276
-0.022082069
-0.019941799
-0.017929569
-0.016046636
-0.014292606
-0.012665637
-0.011162651
-0.0097795443
-0.0085113891
-0.0073526139
-0.0062971725
-0.0053386242
-0.0044702529
-0.0036848372
-0.002974338
-0.002331071
-0.0017332266
-0.0012111518
-0.00053333528
-0.00061916229
-0.061778604
-0.062686105
-0.063678654
-0.064854439
-0.065800276
-0.066388693
-0.066681712
-0.066721124
-0.066500786
-0.066010765
-0.065255108
-0.064245347
-0.06299435
-0.061516229
-0.059827638
-0.057947828
-0.055897971
-0.053700591
-0.051379136
-0.048957633
-0.04646033
-0.04391118
-0.041333396
-0.038749112
-0.036179083
-0.033642416
-0.031156368
-0.028736186
-0.026395021
-0.024143887
-0.021991673
-0.019945198
-0.018009308
-0.016187005
-0.014479603
-0.012886896
-0.011407348
-0.010038276
-0.0087760373
-0.0076161992
-0.0065536883
-0.0055828853
-0.0046976714
-0.0038914008
-0.003156075
-0.0024850289
-0.00185562
-0.0013017139
-0.00060157195
-0.00062281411
-0.053180402
-0.054224515
-0.055340254
-0.056608105
-0.057687991
-0.058470621
-0.059002201
-0.059313635
-0.059396735
-0.059239875
-0.058842888
-0.058212109
-0.057355428
-0.056282169
-0.055004186
-0.053535969
-0.051894146
-0.050097025
-0.048164268
-0.046116531
-0.043975102
-0.041761526
-0.039497173
-0.037202855
-0.034898502
-0.032602876
-0.030333311
-0.028105519
-0.025933441
-0.023829146
-0.021802791
-0.019862617
-0.018014994
-0.0162645
-0.014614033
-0.013064948
-0.011617202
-0.010269522
-0.0090195637
-0.0078640636
-0.0067989739
-0.0058195568
-0.0049203937
-0.004095461
-0.0033371244
-0.0026393806
-0.0019806329
-0.0013935011
-0.00067981225
-0.00060738146
-0.045386403
-0.046502844
-0.04768253
-0.048991439
-0.050150125
-0.051065373
-0.051771331
-0.052290458
-0.052613217
-0.052726905
-0.052628126
-0.052319016
-0.051803247
-0.051085945
-0.050174626
-0.049079363
-0.047812435
-0.046387985
-0.044821762
-0.043130855
-0.041333356
-0.039448008
-0.037493866
-0.03548992
-0.033454758
-0.031406259
-0.02936132
-0.027335618
-0.02534342
-0.023397436
-0.021508718
-0.019686611
-0.017938743
-0.016271055
-0.014687863
-0.013191958
-0.011784712
-0.010466214
-0.0092354
-0.0080901873
-0.0070275861
-0.0060437888
-0.0051341634
-0.0042933689
-0.0035143736
-0.0027916618
-0.0021057511
-0.0014852915
-0.00076148117
-0.0005826513
-0.038355225
-0.039496192
-0.040694719
-0.042004928
-0.043197857
-0.044194546
-0.04502004
-0.045690384
-0.046195404
-0.04652197
-0.046664416
-0.046621664
-0.046394019
-0.045983114
-0.045392739
-0.04462905
-0.043700344
-0.042616829
-0.041390442
-0.04003466
-0.038564237
-0.036994904
-0.035343065
-0.033625485
-0.031858963
-0.030060024
-0.028244639
-0.026427969
-0.024624142
-0.022846068
-0.021105301
-0.019411935
-0.017774549
-0.016200187
-0.014694377
-0.013261179
-0.01190326
-0.010621989
-0.0094175369
-0.008288983
-0.0072344082
-0.0062509694
-0.0053348875
-0.0044815694
-0.0036847478
-0.0029393519
-0.002228421
-0.0015756058
-0.00084107601
-0.00055724104
-0.032039432
-0.033170631
-0.034355056
-0.035637117
-0.036829865
-0.037866937
-0.038766608
-0.039540169
-0.040177415
-0.040665383
-0.040997001
-0.041168908
-0.041178887
-0.041025842
-0.040710527
-0.04023579
-0.039606448
-0.038829154
-0.037912299
-0.036865884
-0.03570134
-0.034431299
-0.033069341
-0.031629727
-0.030127121
-0.028576305
-0.026991895
-0.02538809
-0.023778434
-0.022175606
-0.020591247
-0.019035825
-0.01751853
-0.016047215
-0.014628367
-0.013267114
-0.011967257
-0.010731323
-0.0095606394
-0.0084554021
-0.007414749
-0.0064368162
-0.0055187231
-0.0046566826
-0.0038452908
-0.0030799592
-0.0023461999
-0.0016628542
-0.00091480126
-0.00053720628
-0.02638897
-0.027486938
-0.028634359
-0.02986767
-0.031034847
-0.032080571
-0.033018148
-0.03385542
-0.03458262
-0.035187424
-0.035662087
-0.036001784
-0.036202561
-0.036261341
-0.036176551
-0.035948388
-0.035578778
-0.035071311
-0.034431218
-0.033665309
-0.032781862
-0.031790471
-0.030701852
-0.029527628
-0.028280107
-0.02697203
-0.025616321
-0.024225836
-0.02281313
-0.021390241
-0.019968499
-0.018558358
-0.017169264
-0.015809555
-0.014486397
-0.013205742
-0.011972325
-0.01078968
-0.0096601714
-0.0085850354
-0.0075644252
-0.0065974462
-0.005682137
-0.0048155593
-0.0039932224
-0.0032110955
-0.0024568698
-0.0017454827
-0.00098069649
-0.00052545749
-0.021353461
-0.022403245
-0.023498843
-0.024670104
-0.025794033
-0.026824924
-0.027772453
-0.028641996
-0.029424549
-0.03010877
-0.030686806
-0.031153048
-0.03150249
-0.031730744
-0.031834589
-0.031812228
-0.031663303
-0.0313889
-0.030991563
-0.030475301
-0.029845537
-0.029109016
-0.028273682
-0.027348528
-0.026343409
-0.025268854
-0.024135847
-0.022955609
-0.02173937
-0.020498169
-0.019242648
-0.017982879
-0.016728207
-0.015487122
-0.014267161
-0.013074834
-0.011915579
-0.010793746
-0.009712585
-0.0086742642
-0.0076798784
-0.0067294648
-0.005821974
-0.0049553364
-0.0041259891
-0.0033305403
-0.0025584992
-0.0018220739
-0.0010382847
-0.0005220626
-0.016884091
-0.017877274
-0.018912566
-0.020014316
-0.021083688
-0.022083281
-0.023020113
-0.023897816
-0.024708338
-0.025441517
-0.026089813
-0.026647354
-0.027108633
-0.027468528
-0.027722765
-0.027868158
-0.027902664
-0.027825422
-0.02763681
-0.02733849
-0.026933408
-0.026425763
-0.025820939
-0.025125412
-0.024346624
-0.023492836
-0.022572963
-0.021596389
-0.020572775
-0.019511863
-0.018423291
-0.017316413
-0.016200136
-0.015082773
-0.013971922
-0.012874365
-0.011795995
-0.010741753
-0.0097156008
-0.0087204934
-0.0077583647
-0.0068301153
-0.0059355719
-0.0050735272
-0.0042413346
-0.0034363103
-0.0026494654
-0.0018914016
-0.0010879574
-0.00052519707
-0.012934668
-0.013867747
-0.014839113
-0.015868462
-0.016877095
-0.017834754
-0.018746489
-0.01961469
-0.020432334
-0.021190532
-0.021882324
-0.022501949
-0.02304382
-0.023502534
-0.023873258
-0.024151942
-0.024335397
-0.024421346
-0.024408514
-0.024296693
-0.024086782
-0.023780802
-0.023381875
-0.022894179
-0.022322884
-0.021674045
-0.020954487
-0.020171668
-0.01933352
-0.018448284
-0.017524344
-0.016570056
-0.015593591
-0.014602782
-0.013604992
-0.012606991
-0.011614857
-0.010633898
-0.0096685792
-0.0087224762
-0.0077982293
-0.0068975068
-0.0060209458
-0.0051681683
-0.0043374122
-0.003526749
-0.0027284658
-0.0019524541
-0.001130374
-0.00053228173
-0.0094631813
-0.01033619
-0.011243583
-0.012201056
-0.013146732
-0.014056472
-0.014933837
-0.015780319
-0.016589918
-0.017355018
-0.018069386
-0.018727621
-0.019324342
-0.019854202
-0.020312191
-0.020693823
-0.020995213
-0.021213145
-0.02134516
-0.021389644
-0.021345888
-0.021214134
-0.020995591
-0.020692435
-0.020307782
-0.019845639
-0.019310825
-0.018708881
-0.018045953
-0.017328666
-0.01656398
-0.015759046
-0.014921058
-0.014057112
-0.013174063
-0.012278404
-0.011376147
-0.010472722
-0.0095728869
-0.008680653
-0.0077992136
-0.0069308826
-0.0060770176
-0.00523801
-0.0044129352
-0.0036006396
-0.0027945467
-0.0020044569
-0.001166089
-0.00054089045
-0.0064316331
-0.0072472369
-0.0080933092
-0.0089820774
-0.0098657287
-0.010725339
-0.011563323
-0.012380494
-0.013171811
-0.013930865
-0.014652208
-0.015330932
-0.015962047
-0.016540483
-0.017061327
-0.017519981
-0.017912225
-0.018234292
-0.018482952
-0.018655602
-0.01875034
-0.018766025
-0.018702326
-0.018559745
-0.018339629
-0.018044159
-0.017676316
-0.017239823
-0.01673908
-0.016179069
-0.015565248
-0.014903434
-0.014199677
-0.013460132
-0.012690932
-0.01189806
-0.011087225
-0.010263757
-0.0094324959
-0.0085976959
-0.0077629369
-0.0069310406
-0.0061039728
-0.0052828137
-0.0044674116
-0.0036573805
-0.0028471954
-0.0020469373
-0.0011954651
-0.00054922978
-0.0038078161
-0.0045702208
-0.0053592968
-0.0061842012
-0.0070088808
-0.0078188444
-0.0086155972
-0.0093994215
-0.010166132
-0.010910421
-0.011627611
-0.012313346
-0.012963116
-0.013572259
-0.014136138
-0.014650261
-0.015110344
-0.01551237
-0.015852669
-0.016128002
-0.01633564
-0.016473428
-0.01653985
-0.016534073
-0.016455984
-0.016306206
-0.016086102
-0.015797754
-0.015443928
-0.015028025
-0.014554004
-0.014026302
-0.013449734
-0.012829386
-0.012170505
-0.011478381
-0.010758232
-0.010015085
-0.0092536664
-0.008478292
-0.007692761
-0.0069002547
-0.0061032244
-0.0053033388
-0.0045011422
-0.0036969803
-0.0028863179
-0.0020797025
-0.0012186955
-0.00055618361
-0.0015660725
-0.0022810805
-0.0030191127
-0.0037867001
-0.0045575551
-0.0053209009
-0.0060775035
-0.0068272131
-0.0075665818
-0.0082912693
-0.0089973089
-0.0096808894
-0.010338007
-0.010964462
-0.011555988
-0.012108339
-0.012617342
-0.013078948
-0.013489297
-0.013844797
-0.014142193
-0.014378635
-0.014551748
-0.014659684
-0.014701179
-0.014675589
-0.014582916
-0.014423821
-0.014199617
-0.013912254
-0.013564276
-0.013158775
-0.012699321
-0.012189881
-0.011634731
-0.011038352
-0.010405327
-0.0097402324
-0.00904752
-0.008331406
-0.0075957544
-0.0068439645
-0.0060788438
-0.0053025415
-0.0045162039
-0.0037208502
-0.0029128657
-0.0021033289
-0.0012362824
-0.00056138277
0.00031770873
-0.00035572334
-0.0010489213
-0.0017660389
-0.0024888446
-0.0032096701
-0.00392868
-0.0046453584
-0.0053568693
-0.0060596929
-0.0067504887
-0.0074259459
-0.0080825424
-0.0087165399
-0.0093240713
-0.0099012049
-0.010443981
-0.010948454
-0.011410748
-0.01182712
-0.01219402
-0.012508161
-0.012766578
-0.012966694
-0.013106379
-0.013183998
-0.013198458
-0.013149242
-0.013036427
-0.012860691
-0.01262331
-0.012326136
-0.011971553
-0.011562428
-0.011102046
-0.010594029
-0.010042248
-0.0094507233
-0.0088235158
-0.0081646142
-0.0074778169
-0.0067666109
-0.0060340383
-0.005282614
-0.0045139873
-0.0037297659
-0.0029271765
-0.0021178063
-0.0012480412
-0.00056433189
0.0018406792
0.0012010255
0.00054464373
-0.00013086906
-0.00081370045
-0.001498627
-0.002185317
-0.0028729573
-0.0035592022
-0.0042411963
-0.0049161167
-0.0055810796
-0.0062329846
-0.0068685105
-0.0074841694
-0.0080763506
-0.0086413461
-0.0091753851
-0.0096746758
-0.010135457
-0.010554052
-0.010926925
-0.011250743
-0.011522437
-0.011739261
-0.011898852
-0.011999286
-0.012039121
-0.012017442
-0.011933883
-0.011788648
-0.011582513
-0.011316816
-0.01099343
-0.010614719
-0.010183484
-0.0097028863
-0.0091763658
-0.0086075433
-0.0080001114
-0.0073577182
-0.0066838442
-0.0059816636
-0.0052539553
-0.0045027658
-0.0037301962
-0.0029342063
-0.0021268235
-0.0012565755
-0.00056634534
0.0030436287
0.0024317513
0.001805503
0.0011641075
0.00051435179
-0.00014049932
-0.00079972902
-0.0014622734
-0.0021261578
-0.0027890446
-0.0034485213
-0.0041020478
-0.0047468697
-0.0053800153
-0.0059983254
-0.0065984801
-0.007177017
-0.007730358
-0.0082548407
-0.0087467604
-0.0092024136