/*--------------------------------*- C++ -*----------------------------------*\
  =========                 |
  \\      /  F ield         | OpenFOAM: The Open Source CFD Toolbox
   \\    /   O peration     | Website:  https://openfoam.org
    \\  /    A nd           | Version:  6
     \\/     M anipulation  |
\*---------------------------------------------------------------------------*/
FoamFile
{
    version     2.0;
    format      ascii;
    class       surfaceScalarField;
    location    "112";
    object      phi;
}
// * * * * * * * * * * * * * * * * * * * * * * * * * * * * * * * * * * * * * //

dimensions      [0 3 -1 0 0 0 0];

internalField   nonuniform List<scalar> 
18180
(
0.00031874223
-0.00016318576
-0.00015555648
0.001309263
-0.0013670215
0.00037650072
0.0030330061
-0.0033338341
0.0016100909
0.0055499878
-0.0059763093
0.0034593276
0.0089185373
-0.0092395924
0.0058710428
0.01319331
-0.01308023
0.0088054576
0.018422627
-0.017460754
0.012231436
0.024645508
-0.022346947
0.016124066
0.031888518
-0.027704718
0.020461708
0.040162695
-0.033497478
0.025223301
0.049460863
-0.039684392
0.030386224
0.059755705
-0.046219451
0.035924609
0.070998998
-0.05305138
0.041808086
0.08312247
-0.0601244
0.048000927
0.096040882
-0.067379926
0.054461515
0.10965786
-0.074759344
0.061142362
0.12387394
-0.082207671
0.067991599
0.13860173
-0.089677865
0.074950067
0.15383982
-0.097152792
0.081914706
-0.10463008
0.088683108
0.16978679
0.00039751185
-0.00056069762
0.0016096532
-0.0025791628
0.0036894499
-0.0054136308
0.0066876793
-0.0089745387
0.010651022
-0.013202935
0.015618403
-0.018047612
0.021616983
-0.023459334
0.028658196
-0.02938816
0.036734115
-0.035780636
0.045814555
-0.042577919
0.055845339
-0.049715176
0.066748083
-0.057122194
0.078421743
-0.064725041
0.090746026
-0.072448682
0.10358643
-0.080220329
0.11680033
-0.087973247
0.13024319
-0.095650529
0.1437753
-0.10320998
0.15726074
-0.11063823
-0.11786577
0.17049643
0.00048063992
-0.0010413376
0.0019187624
-0.0040172854
0.0043526218
-0.0078474902
0.0078168154
-0.012438732
0.012338054
-0.017724174
0.01792976
-0.023639318
0.024586987
-0.03011656
0.032282146
-0.037083319
0.04096198
-0.04446047
0.05054626
-0.052162198
0.060928587
-0.060097504
0.071979477
-0.068173084
0.083551579
-0.076297143
0.095486651
-0.084383754
0.10762353
-0.092357204
0.11980603
-0.10015575
0.13188964
-0.10773414
0.14374492
-0.11506526
0.15524989
-0.12214319
-0.12891785
0.16630197
0.00056618769
-0.0016075253
0.0022280112
-0.0056791089
0.005000762
-0.010620241
0.0088942724
-0.016332243
0.013905656
-0.022735558
0.020012436
-0.029746097
0.02716721
-0.037271335
0.03529431
-0.04521042
0.044288914
-0.053455074
0.054018978
-0.061892262
0.064330033
-0.070408559
0.075052514
-0.078895565
0.086010925
-0.087255555
0.097033859
-0.095406688
0.10796372
-0.10328707
0.11866506
-0.11085708
0.12903053
-0.11809961
0.13898359
-0.12501831
0.14847522
-0.13163483
-0.13794842
0.15750579
0.00065090543
-0.0022584307
0.0025244134
-0.007552617
0.0056037891
-0.013699617
0.0098647283
-0.020593182
0.015265003
-0.028135833
0.021736943
-0.036218037
0.029183158
-0.04471755
0.037475706
-0.053502968
0.046458929
-0.062438297
0.055955847
-0.07138918
0.065777483
-0.080230195
0.075734054
-0.088852136
0.085646696
-0.097168196
0.095358254
-0.10511825
0.1047419
-0.11267071
0.11370666
-0.11982185
0.12219957
-0.12659253
0.13020448
-0.13302322
0.1377376
-0.13916795
-0.14507047
0.14485965
0.00073065569
-0.0029890864
0.0027921589
-0.0096141202
0.0061267276
-0.017034185
0.010666968
-0.025133422
0.016323021
-0.033791886
0.022975734
-0.04287075
0.030475031
-0.052216847
0.038643093
-0.061671029
0.047281944
-0.071077149
0.056184512
-0.080291747
0.065147639
-0.089193322
0.073985276
-0.097689774
0.082540035
-0.10572295
0.090691679
-0.11326989
0.098361619
-0.12034065
0.10551322
-0.12697345
0.11214844
-0.13322775
0.11830176
-0.13917654
0.12403269
-0.14489888
-0.1504659
0.12942811
0.00080075112
-0.0037898375
0.0030139872
-0.011827356
0.0065330408
-0.020553239
0.01124029
-0.029840671
0.016993032
-0.039544629
0.023618972
-0.04949669
0.030918718
-0.059516593
0.038673869
-0.06942618
0.046659334
-0.079062614
0.054657926
-0.088290339
0.062474909
-0.097010304
0.069950281
-0.10516515
0.076967122
-0.1127398
0.083455058
-0.11975783
0.089388839
-0.12627443
0.094782795
-0.1323674
0.099682526
-0.13812748
0.10415545
-0.14364947
0.10828179
-0.14902522
-0.1543359
0.1121518
0.00085607801
-0.0046459155
0.0031721276
-0.014143406
0.00678736
-0.024168471
0.011530013
-0.034583324
0.01720372
-0.045218336
0.023586897
-0.055879867
0.030440262
-0.066369958
0.037519721
-0.076505638
0.044592157
-0.086135051
0.051451285
-0.095149467
0.057930795
-0.10348981
0.063912783
-0.11114713
0.069330463
-0.11815748
0.074165301
-0.12459266
0.078439637
-0.13054877
0.082206483
-0.13613425
0.085538411
-0.14145941
0.088517232
-0.14662829
0.091225794
-0.15173378
-0.15685415
0.093744044
0.00089028029
-0.0055361959
0.0032483435
-0.016501469
0.006857739
-0.027777867
0.011492641
-0.039218226
0.016907037
-0.050632733
0.022839155
-0.061811984
0.029023933
-0.072554736
0.035209481
-0.082691187
0.041174087
-0.092099657
0.046740446
-0.10071583
0.051784561
-0.10853393
0.05623814
-0.11560071
0.060084679
-0.12200402
0.063350581
-0.12785857
0.066093335
-0.13329152
0.068388962
-0.13842988
0.070320616
-0.14339106
0.071969718
-0.14827739
0.073410199
-0.15317426
-0.15814959
0.074705643
0.00089983415
-0.00643603
0.003233432
-0.018835067
0.0067292596
-0.031273694
0.011111313
-0.043600279
0.016092648
-0.055614068
0.021384789
-0.067104125
0.026714022
-0.077883969
0.031839189
-0.087816354
0.03656706
-0.096827528
0.040762115
-0.10491088
0.04434916
-0.11212098
0.047308859
-0.11856041
0.049667727
-0.12436288
0.051484941
-0.12967578
0.052838457
-0.13464504
0.053812558
-0.13940398
0.054488258
-0.14406676
0.054937179
-0.14872631
0.05521872
-0.1534558
0.055378967
-0.15830984
-0.00020238611
0.00020238605
4.1968969e-11
-0.00067777149
0.00047538536
1.8961535e-11
-0.0013424735
0.00066470199
1.0996711e-11
-0.0021323673
0.00078989375
1.6314121e-11
-0.002995872
0.00086350478
2.3452662e-11
-0.0038908637
0.00089499161
2.3462517e-11
-0.0047824406
0.00089157684
2.1961208e-11
-0.0056410545
0.00085861395
1.3982873e-11
-0.0064410403
0.00079998578
5.6784727e-12
-0.0071594645
0.00071842419
-6.5231674e-12
-0.0077752071
0.0006157426
-1.8648716e-11
-0.0082682262
0.00049301909
-3.3031631e-11
-0.0086189782
0.00035075202
-4.7789123e-11
-0.0088079845
0.00018900637
-6.4108685e-11
-0.0088155763
7.5918496e-06
-8.1344292e-11
-0.0086219182
-0.00019365802
-9.9672365e-11
-0.0082072721
-0.00041464598
-1.1937062e-10
-0.007551592
-0.00065568004
-1.3957417e-10
-0.0066341178
-0.000917474
-1.6147702e-10
-0.0011864237
-0.005447694
-1.8400458e-10
-0.00018798138
0.00039036743
-0.00062502883
0.00091243282
-0.0012287942
0.0012684674
-0.0019352561
0.0014963557
-0.0026922206
0.0016204693
-0.0034563823
0.0016591533
-0.0041911776
0.0016263721
-0.0048649749
0.0015324113
-0.0054496374
0.0013846483
-0.0059193875
0.0011881743
-0.0062498914
0.00094624648
-0.0064175172
0.0006606449
-0.0063987303
0.00033196502
-0.0061696137
-4.0110225e-05
-0.0057055436
-0.00045647824
-0.0049811087
-0.00091809291
-0.0039703262
-0.0014254285
-0.0026465626
-0.0019794437
-0.00098238339
-0.0025816532
-0.00320224
0.0010334329
-0.00015893298
0.0005493004
-0.00051890697
0.0012724068
-0.0010007978
0.0017503582
-0.0015412985
0.0020368564
-0.0020873969
0.0021665677
-0.0025937846
0.002165541
-0.0030209121
0.0020534996
-0.003333322
0.0018448211
-0.0034983027
0.001549629
-0.0034848129
0.0011746844
-0.0032625971
0.00072403067
-0.0028014661
0.00019951393
-0.0020706633
-0.00039883784
-0.0010383503
-0.0010724232
0.00032882187
-0.0018236504
0.0020659898
-0.0026552609
0.0042100374
-0.003569476
0.0067992894
-0.0045686958
0.0098734429
-0.0056558067
-0.0067805807
0.013451783
-0.00011756968
0.00066687007
-0.00036700561
0.0015218427
-0.00067352359
0.0020568762
-0.00097483427
0.0023381671
-0.0012168545
0.002408588
-0.0013515772
0.0023002637
-0.0013354136
0.002037336
-0.0011277386
0.001637146
-0.00068969403
0.0011115845
1.6763195e-05
0.00046822719
0.0010296457
-0.0002888518
0.0023875821
-0.0011584226
0.0041303631
-0.0021416188
0.0062994218
-0.0032414819
0.0089383409
-0.0044625696
0.012093409
-0.005810329
0.015813995
-0.0072900622
0.020152248
-0.0089069489
0.025162885
-0.010666443
-0.012493977
0.030876281
-6.6907695e-05
0.00073377776
-0.000179164
0.001634099
-0.00026652342
0.0021442356
-0.00026766517
0.0023393088
-0.00012714131
0.0022680641
0.00020626003
0.0019668623
0.00078084335
0.0014627527
0.0016431751
0.00077481427
0.0028390537
-8.4294117e-05
0.0044142949
-0.0011070141
0.006415296
-0.0022898529
0.0088894516
-0.0036325782
0.011885479
-0.0051376464
0.015453749
-0.006809752
0.019646659
-0.0086554789
0.024519251
-0.010682921
0.030130093
-0.012900905
0.036541789
-0.015318645
0.04382174
-0.017946394
-0.020684517
0.052012281
-9.9820121e-06
0.00074375976
3.454725e-05
0.0015895698
0.00019992157
0.0019788613
0.00054682834
0.001992402
0.0011323558
0.0016825366
0.0020111538
0.0010880644
0.0032363975
0.00023750888
0.0048606711
-0.0008494593
0.0069366245
-0.0021602476
0.0095173483
-0.0036877379
0.012656582
-0.0054290866
0.016408818
-0.0073848143
0.020829229
-0.0095580578
0.025973507
-0.01195403
0.031897762
-0.014579734
0.038658826
-0.017443985
0.046315433
-0.020557512
0.054930283
-0.023933495
0.064573873
-0.027589984
-0.031408234
0.075297589
5.0756392e-05
0.00069300336
0.00026567927
0.0013746469
0.00070830585
0.0015362347
0.0014391279
0.00126158
0.0025169828
0.0006046817
0.0039998157
-0.00039476856
0.0059452757
-0.0017079511
0.0084111046
-0.0033152883
0.011455268
-0.0052044106
0.015135922
-0.0073683922
0.019511148
-0.009804313
0.024638424
-0.01251209
0.030573887
-0.015493521
0.037371437
-0.01875158
0.045081803
-0.0222901
0.053751997
-0.026114179
0.063426126
-0.030231641
0.074148787
-0.034656155
0.085974006
-0.039415203
-0.044391764
0.098957536
0.00011380359
0.00057919977
0.00050853334
0.00097991711
0.0012460523
0.00079871572
0.0023869075
0.00012072486
0.0039914532
-0.00099986401
0.0061201961
-0.0025235115
0.0088337761
-0.0044215311
0.012192789
-0.0066743013
0.016257382
-0.0092690039
0.021086508
-0.012197518
0.026736886
-0.015454691
0.033261677
-0.019036881
0.040708894
-0.022940737
0.049119595
-0.027162281
0.058525986
-0.031696492
0.068949799
-0.036537991
0.080402104
-0.041683947
0.092886434
-0.047140485
0.10641028
-0.052939047
-0.058999429
0.12101794
0.00017850504
0.00040069473
0.00076006738
0.00039835477
0.0018054256
-0.00024664252
0.0033748728
-0.0014487223
0.0055292526
-0.0031542438
0.0083297026
-0.0053239616
0.01183703
-0.0079288583
0.016110787
-0.010948059
0.021207995
-0.014366211
0.027181513
-0.018171036
0.03407812
-0.022351298
0.041936304
-0.026895066
0.050783841
-0.031788274
0.060635153
-0.037013592
0.071488455
-0.042549794
0.083322752
-0.048372288
0.096095627
-0.054456822
0.10974458
-0.060789441
0.12420052
-0.067394985
-0.074278694
0.13947979
0.00024513824
0.0010199937
0.0023834421
0.0043940474
0.0071108464
0.010592342
0.014894921
0.020070928
0.026166425
0.033218689
0.041253616
0.050283159
0.060302971
0.071290307
0.083202027
0.095972102
0.10950688
0.12366751
0.13818723
0.15259164
-0.0035068358
-0.0019408578
-2.8423345e-10
-0.0012847848
-0.0022220507
-3.2553021e-10
0.0011961262
-0.0024809106
-3.6584895e-10
0.0038789962
-0.0026828697
-4.0476369e-10
0.0067370223
-0.0028580257
-4.3545171e-10
0.0097529001
-0.0030158773
-4.5944932e-10
0.012907696
-0.0031547957
-4.6840473e-10
0.016183389
-0.0032756926
-4.6084819e-10
0.019564279
-0.0033808892
-4.3279475e-10
0.023036148
-0.0034718685
-3.8048594e-10
0.026585711
-0.0035495626
-3.039177e-10
0.030200544
-0.0036148335
-2.0001497e-10
0.033869007
-0.0036684629
-6.9660343e-11
0.037580105
-0.0037110977
8.8816384e-11
0.041323388
-0.0037432832
2.7161935e-10
0.045088886
-0.0037654988
4.7656306e-10
0.048867062
-0.0037781762
6.9475263e-10
0.052648773
-0.0037817123
9.1851563e-10
0.056425256
-0.003776484
1.1332299e-09
0.060188114
-0.0037628594
1.3259802e-09
0.063929319
-0.0037412069
1.4772849e-09
0.067641219
-0.0037119012
1.5711806e-09
0.071316545
-0.0036753274
1.5867378e-09
0.074948426
-0.003631883
1.5105378e-09
0.078530403
-0.0035819782
1.3270985e-09
0.082056437
-0.0035260348
1.0344985e-09
0.08552092
-0.003464484
6.3207165e-10
0.088918683
-0.0033977631
1.3963474e-10
0.092244996
-0.0033263128
-4.2082067e-10
0.09549557
-0.0032505724
-1.0021055e-09
0.098666549
-0.003170978
-1.560263e-09
0.10175451
-0.0030879574
-2.0264619e-09
0.10475644
-0.0030019285
-2.3502823e-09
0.10766974
-0.0029132971
-2.4622961e-09
0.1104922
-0.0028224554
-2.3354816e-09
0.11322198
-0.0027297821
-1.9291615e-09
0.11585763
-0.0026356433
-1.2730504e-09
0.11839802
-0.0025403953
-3.7718713e-10
0.12084241
-0.0024443918
6.5465609e-10
0.1231904
-0.0023479848
1.7586977e-09
0.12544196
-0.0022515667
2.777543e-09
0.12759745
-0.0021554958
3.602339e-09
0.12965792
-0.0020604735
4.0788393e-09
0.13162441
-0.0019664933
4.137407e-09
0.13350112
-0.0018767107
3.6890338e-09
0.13528663
-0.001785513
2.6930866e-09
0.13700564
-0.0017190145
1.2429502e-09
0.13861396
-0.0016083173
-4.6886388e-10
0.14031315
-0.0016991888
-2.4874278e-09
-0.0013455599
-3.8476069e-09
0.0028542874
-0.0037617124
0.0049517038
-0.0043194671
0.0072948661
-0.0048240729
0.0098213305
-0.0052093341
0.012510037
-0.0055467317
0.015348661
-0.0058545013
0.018320463
-0.0061265981
0.021409038
-0.0063642679
0.024600369
-0.00657222
0.027881694
-0.0067531936
0.031240883
-0.0069087516
0.034666456
-0.0070404068
0.038147559
-0.0071495652
0.041673845
-0.0072373846
0.045235401
-0.0073048386
0.048822694
-0.0073527918
0.052426548
-0.0073820301
0.056038121
-0.0073932851
0.059648896
-0.0073872591
0.063250683
-0.007364647
0.066835627
-0.0073261511
0.070396219
-0.0072724924
0.073925308
-0.007204417
0.077416125
-0.0071226992
0.080862288
-0.0070281414
0.084257824
-0.0069215707
0.087597174
-0.0068038349
0.090875207
-0.0066757954
0.094087215
-0.0065383207
0.097228921
-0.0063922789
0.10029647
-0.0062385307
0.10328644
-0.0060779224
0.10619579
-0.005911281
0.1090219
-0.00573941
0.11176254
-0.0055630865
0.11441581
-0.0053830616
0.11698023
-0.0052000627
0.11945464
-0.0050147978
0.12183822
-0.0048279711
0.12413051
-0.0046402831
0.12633147
-0.0044525184
0.12844136
-0.0042653916
0.13046119
-0.0040803031
0.13239194
-0.003897244
0.13423773
-0.0037224934
0.13599714
-0.0035449247
0.13769441
-0.0034162911
0.1392864
-0.0032002992
0.14096946
-0.0033822537
-0.0026886638
0.015023374
-0.0053333026
0.016854753
-0.0061508468
0.0189086
-0.006877919
0.021114983
-0.0074157171
0.023462269
-0.0078940181
0.025946808
-0.0083390404
0.028555983
-0.0087357729
0.031276315
-0.0090845999
0.034096705
-0.0093926099
0.037006924
-0.0096634129
0.039996854
-0.0098986814
0.043056635
-0.010100188
0.046176745
-0.010269675
0.049347931
-0.01040857
0.052561165
-0.010518072
0.055807637
-0.010599264
0.059078761
-0.010653154
0.062366178
-0.010680701
0.065661767
-0.010682848
0.068957667
-0.010660547
0.072246296
-0.010614779
0.075520369
-0.010546565
0.078772927
-0.010456975
0.081997354
-0.010347126
0.085187399
-0.010218186
0.088337192
-0.010071363
0.091441255
-0.0099078983
0.094494517
-0.0097290574
0.097492314
-0.0095361175
0.10043039
-0.0093303589
0.10330491
-0.0091130499
0.10611243
-0.0088854411
0.10884991
-0.008648755
0.11151468
-0.0084041801
0.11410446
-0.0081528681
0.11661733
-0.0078959327
0.11905172
-0.0076344542
0.12140641
-0.0073694861
0.12368051
-0.0071020777
0.12587351
-0.0068332749
0.12798524
-0.0065642508
0.13001592
-0.0062960763
0.13196647
-0.0060308446
0.13383778
-0.0057685602
0.13563383
-0.0055185425
0.1373533
-0.0052643968
0.13901947
-0.005082458
0.1405915
-0.0047723313
0.14225517
-0.0050459241
-0.0040400131
0.032059839
-0.0065168608
0.033475323
-0.0075663311
0.035081138
-0.0084837341
0.036804308
-0.0091388866
0.038645519
-0.0097352291
0.04061107
-0.010304592
0.042693793
-0.010818496
0.044884165
-0.011274972
0.047174612
-0.011683057
0.049557906
-0.012046708
0.052026344
-0.012367119
0.054571969
-0.012645813
0.057186773
-0.01288448
0.059862716
-0.013084513
0.062591737
-0.013247093
0.065365795
-0.013373322
0.068176911
-0.01346427
0.071017211
-0.013521002
0.073878965
-0.013544603
0.076754626
-0.013536208
0.079636865
-0.013497018
0.082518606
-0.013428307
0.085393061
-0.01333143
0.088253753
-0.013207818
0.091094544
-0.013058978
0.093909654
-0.012886474
0.096693679
-0.012691923
0.099441597
-0.012476976
0.10214878
-0.012243302
0.104811
-0.011992578
0.10742442
-0.011726465
0.10998558
-0.011446604
0.11249142
-0.011154601
0.11493926
-0.010852017
0.11732676
-0.010540369
0.11965195
-0.010221124
0.12191321
-0.0098957085
0.12410924
-0.0095655146
0.12623909
-0.0092319323
0.12830217
-0.0088963507
0.13029825
-0.008560329
0.13222747
-0.0082252955
0.13409065
-0.0078940279
0.13588866
-0.0075665688
0.13762527
-0.0072551549
0.13929936
-0.0069384908
0.14093284
-0.0067159303
0.14248833
-0.006327827
0.14413636
-0.0066939549
-0.0054155163
0.052652844
-0.0071574244
0.053493716
-0.0084072029
0.054488134
-0.0094781517
0.055570412
-0.010221165
0.05675537
-0.010920187
0.058057304
-0.011606526
0.059474726
-0.012235917
0.061002769
-0.012803016
0.062637226
-0.013317513
0.0643735
-0.013782981
0.066206071
-0.01419969
0.068128674
-0.014568416
0.070134544
-0.01489035
0.072216583
-0.015166552
0.074367445
-0.015397956
0.076579621
-0.015585498
0.078845521
-0.01573017
0.081157553
-0.015833034
0.083508194
-0.015895243
0.085890043
-0.015918057
0.088295878
-0.015902854
0.090718703
-0.015851132
0.093151784
-0.01576451
0.095588685
-0.015644719
0.098023297
-0.01549359
0.10044986
-0.015313039
0.10286299
-0.015105049
0.10525766
-0.014871649
0.10762926
-0.014614897
0.10997354
-0.014336857
0.11228665
-0.014039582
0.11456514
-0.013725094
0.11680592
-0.01339538
0.11900627
-0.013052368
0.12116384
-0.012697935
0.12327662
-0.0123339
0.12534294
-0.01196203
0.12736148
-0.011584056
0.12933125
-0.011201707
0.13125162
-0.010816717
0.13312232
-0.010431031
0.13494346
-0.010046439
0.13671583
-0.0096663956
0.13844028
-0.0092910125
0.14012041
-0.0089352896
0.14175541
-0.0085734947
0.14336551
-0.0083260275
0.14491777
-0.0078800904
0.14656382
-0.0083400012
-0.0068384273
0.07522683
-0.0070866648
0.07533206
-0.0085124328
0.07555671
-0.009702802
0.075857301
-0.010521756
0.076261871
-0.011324757
0.076787274
-0.012131928
0.077436546
-0.01288519
0.078209621
-0.01357609
0.079104807
-0.0142127
0.080118959
-0.014797133
0.081247835
-0.015328566
0.082486141
-0.015806722
0.083827695
-0.016231904
0.085265719
-0.016604576
0.086793039
-0.016925276
0.088402205
-0.017194664
0.090085601
-0.017413566
0.091835552
-0.017582985
0.093644418
-0.017704109
0.095504665
-0.017778304
0.097408931
-0.017807119
0.099350078
-0.017792279
0.10132124
-0.017735675
0.10331587
-0.017639346
0.10532774
-0.017505463
0.10735101
-0.017336305
0.1093802
-0.017134237
0.11141023
-0.016901678
0.11343642
-0.016641088
0.11545449
-0.016354929
0.11746056
-0.016045653
0.11945114
-0.015715678
0.12142314
-0.015367372
0.12337381
-0.015003044
0.12530081
-0.014624934
0.12720213
-0.014235217
0.12907611
-0.013836011
0.13092144
-0.013429388
0.13273716
-0.013017425
0.13452265
-0.012602204
0.13627768
-0.012186064
0.1380024
-0.011771164
0.13969764
-0.011361627
0.1413643
-0.010957677
0.14300591
-0.010576896
0.14462206
-0.010189646
0.14623114
-0.009935105
0.14780537
-0.0094543241
0.14947504
-0.010009667
-0.0083408714
0.098030768
-0.0061598974
0.097263737
-0.007745402
0.096587702
-0.0090267665
0.096003538
-0.0099375917
0.095547376
-0.010868595
0.09523045
-0.011815002
0.095058128
-0.012712869
0.095034416
-0.013552378
0.095158848
-0.014337132
0.095428161
-0.015066446
0.095837996
-0.015738401
0.096382945
-0.016351671
0.097056527
-0.016905485
0.097851509
-0.017399558
0.098760212
-0.017833978
0.099774665
-0.018209117
0.10088674
-0.018525637
0.10208824
-0.018784493
0.10337106
-0.01898693
0.10472721
-0.019134451
0.1061489
-0.019228813
0.10762863
-0.019272004
0.10915918
-0.019266227
0.11073371
-0.019213871
0.11234573
-0.019117485
0.11398918
-0.018979753
0.11565839
-0.018803452
0.11734814
-0.018591433
0.11905364
-0.018346586
0.12077052
-0.018071803
0.12249483
-0.017769965
0.12422306
-0.017443906
0.12595209
-0.017096406
0.12767921
-0.016730169
0.1294021
-0.016347823
0.1311188
-0.015951916
0.13282772
-0.015544931
0.13452763
-0.015129299
0.13621767
-0.014707459
0.13789732
-0.014281854
0.13956649
-0.01385523
0.14122545
-0.013430131
0.14287517
-0.013011343
0.14451673
-0.012599242
0.14615366
-0.012213818
0.14778609
-0.011822076
0.14943051
-0.011579533
0.1510648
-0.011088612
0.15279669
-0.011741555
-0.0099646139
0.11919449
-0.0043364418
0.11750209
-0.0060530051
0.11586279
-0.0073874715
0.11436051
-0.008435304
0.11303147
-0.009539555
0.11187318
-0.01065672
0.11089113
-0.011730813
0.11009158
-0.012752832
0.10947396
-0.013719508
0.10903366
-0.014626151
0.10876489
-0.015469627
0.10866098
-0.016247757
0.10871433
-0.016958837
0.10891664
-0.017601869
0.10925918
-0.018176525
0.10973303
-0.018682961
0.11032914
-0.019121752
0.11103853
-0.019493878
0.1118523
-0.019800702
0.11276178
-0.020043935
0.11375858
-0.020225606
0.11483461
-0.020348031
0.11598217
-0.020413787
0.11719397
-0.020425672
0.11846316
-0.020386675
0.11978334
-0.020299936
0.1211486
-0.020168708
0.12255348
-0.019996321
0.12399304
-0.019786142
0.12546278
-0.019541547
0.1269587
-0.019265882
0.12847724
-0.018962447
0.1300153
-0.018634466
0.13157021
-0.018285076
0.13313971
-0.017917325
0.13472196
-0.017534163
0.13631549
-0.017138468
0.13791925
-0.016733056
0.13953254
-0.016320749
0.14115507
-0.015904378
0.14278695
-0.015487112
0.14442872
-0.0150719
0.14608157
-0.014664198
0.1477469
-0.014264576
0.14942834
-0.01389525
0.15112669
-0.013520426
0.15285661
-0.013309459
0.15460185
-0.012833854
0.15644749
-0.013587191
-0.011760996
0.13690096
-0.0017576159
0.13438316
-0.0035352087
0.13182478
-0.0048290913
0.12946793
-0.0060784461
0.1273398
-0.0074114255
0.12542177
-0.008738695
0.12371668
-0.010025725
0.12222962
-0.011265769
0.12095903
-0.012448922
0.11989916
-0.013566273
0.11904248
-0.014612952
0.11838066
-0.015585939
0.11790471
-0.016482885
0.1176051
-0.017302256
0.11747196
-0.018043387
0.11749529
-0.018706289
0.11766507
-0.01929153
0.11797138
-0.019800191
0.1184045
-0.020233822
0.11895497
-0.020594409
0.11961369
-0.020884319
0.12037192
-0.021106262
0.12122139
-0.021263259
0.1221543
-0.021358581
0.12316335
-0.021395726
0.12424177
-0.021378357
0.12538333
-0.021310265
0.12658233
-0.021195321
0.12783362
-0.021037437
0.1291326
-0.020840523
0.13047517
-0.020608457
0.13185777
-0.020345048
0.13327733
-0.02005402
0.13473124
-0.01973899
0.13621738
-0.019403467
0.13773407
-0.01905085
0.13928005
-0.018684445
0.14085448
-0.018307489
0.14245695
-0.017923222
0.14408747
-0.017534892
0.14574648
-0.017146119
0.14743486
-0.016760282
0.14915418
-0.016383519
0.15090624
-0.016016635
0.1526949
-0.015683908
0.15452175
-0.015347277
0.15639972
-0.015187436
0.15831857
-0.014752701
0.16034113
-0.015609749
-0.013790037
0.15005623
0.0007777938
0.14676742
-0.00024639897
0.14347024
-0.0015319138
0.14042264
-0.0030308455
0.13762794
-0.0046167269
0.13507989
-0.006190644
0.13278033
-0.0077261588
0.13072933
-0.009214774
0.12892447
-0.010644061
0.12736054
-0.012002346
0.12602973
-0.013282135
0.12492262
-0.01447883
0.12402904
-0.015589307
0.12333834
-0.016611553
0.12283953
-0.017544578
0.1225215
-0.018388266
0.1223732
-0.019143223
0.12238369
-0.019810688
0.12254234
-0.02039247
0.12283882
-0.020890889
0.12326323
-0.021308724
0.12380612
-0.021649154
0.12445857
-0.021915712
0.12521222
-0.022112228
0.12605927
-0.022242776
0.12699253
-0.022311623
0.12800544
-0.022323172
0.12909203
-0.022281912
0.13024697
-0.022192372
0.13146551
-0.022059067
0.13274352
-0.021886469
0.13407744
-0.021678967
0.13546426
-0.021440841
0.13690152
-0.021176248
0.13838726
-0.020889209
0.13992003
-0.02058362
0.14149885
-0.020263263
0.1431232
-0.019931837
0.14479302
-0.019593039
0.14650869
-0.019250566
0.14827109
-0.018908525
0.15008156
-0.018570746
0.15194212
-0.018244076
0.15385505
-0.017929566
0.15582461
-0.017653474
0.1578531
-0.017375761
0.15995233
-0.017286665
0.16211646
-0.016916831
0.16439119
-0.017884486
-0.016116628
0.18891499
0.005379633
-0.19351683
0.18510521
0.0035633851
0.18171343
0.0018598604
0.17856858
0.0001140073
0.1756333
-0.0016814527
0.17288258
-0.0034399168
0.17029817
-0.0051417558
0.1678711
-0.0067877035
0.16559749
-0.0083704437
0.16347517
-0.0098800277
0.16150229
-0.011309258
0.15967675
-0.012653285
0.15799589
-0.013908454
0.15645644
-0.015072102
0.15505447
-0.016142611
0.15378553
-0.017119317
0.15264467
-0.018002368
0.15162662
-0.018792635
0.15072579
-0.019491645
0.14993643
-0.020101521
0.14925262
-0.020624917
0.14866842
-0.021064961
0.14817791
-0.021425195
0.14777519
-0.021709512
0.14745451
-0.021922097
0.14721026
-0.02206737
0.14703701
-0.022149922
0.14692955
-0.022174455
0.14688292
-0.022145737
0.14689239
-0.022068541
0.14695353
-0.021947606
0.14706216
-0.021787599
0.1472144
-0.021593085
0.14740666
-0.021368507
0.14763563
-0.021118177
0.14789828
-0.020846274
0.14819189
-0.020556873
0.14851402
-0.020253961
0.14886251
-0.019941531
0.14923553
-0.019623582
0.14963156
-0.019304556
0.15004941
-0.018988602
0.15048839
-0.018683054
0.15094803
-0.018389205
0.15142905
-0.01813449
0.15193134
-0.017878054
0.15245964
-0.017814967
0.1530094
-0.017466595
0.15360476
-0.01847984
-0.016720292
0.21686367
0.0087777044
-0.22026174
0.21339005
0.0070370006
0.21017752
0.0050723978
0.20707249
0.0032190342
0.20402619
0.0013648453
0.20106958
-0.00048330635
0.19821954
-0.0022917177
0.19548059
-0.004048752
0.19285863
-0.0057484807
0.19036049
-0.0073818868
0.18799137
-0.0089401406
0.18575468
-0.01041659
0.1836524
-0.011806179
0.18168525
-0.01310495
0.17985269
-0.014310047
0.17815309
-0.015419719
0.17658391
-0.016433193
0.17514185
-0.01735057
0.17382295
-0.018172744
0.17262276
-0.018901331
0.17153644
-0.019538597
0.17055886
-0.020087385
0.16968471
-0.020551044
0.16890856
-0.020933359
0.16822494
-0.021238481
0.16762843
-0.021470857
0.16711366
-0.02163516
0.16667543
-0.021736225
0.16630869
-0.021778989
0.16600857
-0.021768427
0.16577047
-0.021709507
0.16559002
-0.021607146
0.16546311
-0.02146617
0.1653859
-0.0212913
0.16535485
-0.021087128
0.1653667
-0.020858125
0.16541848
-0.020608655
0.16550753
-0.020343008
0.16563148
-0.02006548
0.16578828
-0.019780389
0.16597624
-0.01949251
0.166194
-0.019206363
0.16644062
-0.018929677
0.16671568
-0.018664264
0.16701912
-0.018437927
0.16735223
-0.01821117
0.16771446
-0.01817719
0.16811396
-0.017866097
0.1685336
-0.018899479
-0.017205491
0.24377218
0.011501413
-0.24649589
0.24092201
0.0098871792
0.23806906
0.0079253436
0.23522237
0.0060657192
0.23234486
0.0042423558
0.22945735
0.0024042071
0.22659105
0.00057457841
0.22376527
-0.0012229714
0.22099593
-0.0029791348
0.21829895
-0.004684913
0.21568821
-0.0063293991
0.2131747
-0.0079030819
0.21076704
-0.0093985179
0.20847179
-0.010809696
0.20629358
-0.012131836
0.20423529
-0.013361434
0.2022983
-0.014496194
0.20048262
-0.0155349
0.1987872
-0.016477322
0.19721
-0.017324129
0.19574821
-0.018076806
0.19439838
-0.01873756
0.19315658
-0.019309242
0.19201848
-0.019795259
0.19097949
-0.02019949
0.19003484
-0.02052621
0.18917969
-0.020780002
0.18840915
-0.020965686
0.18771841
-0.021088247
0.18710274
-0.021152762
0.18655758
-0.021164349
0.18607855
-0.021128109
0.18566146
-0.021049086
0.1853024
-0.020932238
0.18499769
-0.02078242
0.18474394
-0.020604375
0.18453804
-0.020402756
0.18437718
-0.020182147
0.18425886
-0.019947157
0.1841809
-0.019702429
0.18414146
-0.019453075
0.18413912
-0.019204018
0.18417274
-0.0189633
0.184242
-0.018733518
0.18434606
-0.018541993
0.18448775
-0.018352858
0.18466081
-0.018350247
0.18488715
-0.018092435
0.18510338
-0.019115716
-0.017549717
0.2692794
0.013534154
-0.27131215
0.26711158
0.012054999
0.26477006
0.01026687
0.26233108
0.0085046975
0.25980259
0.0067708421
0.25719478
0.0050120216
0.25453376
0.0032355988
0.25184371
0.0014670815
0.24914462
-0.00028004813
0.24645631
-0.0019965995
0.24379806
-0.0036711502
0.24118701
-0.0052920346
0.23863789
-0.006849401
0.2361632
-0.008335001
0.23377322
-0.0097418611
0.23147613
-0.011064343
0.22927811
-0.012298172
0.22718356
-0.013440347
0.22519528
-0.014489042
0.22331467
-0.015443521
0.22154191
-0.016304048
0.21987614
-0.017071791
0.21831562
-0.017748724
0.2168579
-0.018337535
0.21549993
-0.018841526
0.21423825
-0.019264522
0.21306902
-0.019610778
0.21198823
-0.019884888
0.21099168
-0.020091702
0.21007517
-0.020236249
0.20923448
-0.020323665
0.2084655
-0.02035913
0.20776424
-0.020347822
0.20712687
-0.020294871
0.20654979
-0.02020534
0.20602963
-0.02008421
0.20556327
-0.019936395
0.20514788
-0.019766764
0.20478095
-0.019580223
0.20446026
-0.019381744
0.20418396
-0.019176768
0.20395059
-0.018970648
0.20375895
-0.018771661
0.20360882
-0.018583388
0.2034988
-0.018431975
0.20343292
-0.018286981
0.20340009
-0.018317411
0.20343367
-0.018126019
0.20342863
-0.019110672
-0.017730655
0.29298959
0.014865134
-0.29432057
0.29151052
0.013534068
0.28978821
0.011989177
0.28788978
0.010403132
0.28585008
0.0088105377
0.28367994
0.0071821614
0.28139777
0.0055177707
0.27902681
0.0038380412
0.27658837
0.0021583955
0.2741026
0.00048916619
0.27158972
-0.0011582648
0.26906944
-0.0027717568
0.26656009
-0.0043400562
0.26407827
-0.0058531829
0.26163872
-0.0073023115
0.25925421
-0.0086798293
0.2569355
-0.0099794576
0.2546914
-0.011196253
0.25252892
-0.012326554
0.25045331
-0.013367919
0.24846832
-0.014319056
0.24657627
-0.015179743
0.24477828
-0.015950729
0.24307438
-0.016633637
0.24146372
-0.017230868
0.23994469
-0.017745492
0.23851507
-0.018181153
0.23717215
-0.018541965
0.23591286
-0.018832419
0.23473391
-0.019057293
0.23363181
-0.019221568
0.23260304
-0.019330358
0.23164406
-0.019388846
0.23075143
-0.019402235
0.2299218
-0.019375715
0.22915203
-0.019314441
0.22843918
-0.019223539
0.22778054
-0.019108126
0.2271737
-0.018973384
0.22661656
-0.0188246
0.22610732
-0.018667528
0.22564463
-0.018507958
0.22522731
-0.018354345
0.22485529
-0.018211367
0.2245268
-0.018103491
0.22424674
-0.018006913
0.22400028
-0.018070956
0.22382926