/*--------------------------------*- C++ -*----------------------------------*\
  =========                 |
  \\      /  F ield         | OpenFOAM: The Open Source CFD Toolbox
   \\    /   O peration     | Website:  https://openfoam.org
    \\  /    A nd           | Version:  6
     \\/     M anipulation  |
\*---------------------------------------------------------------------------*/
FoamFile
{
    version     2.0;
    format      ascii;
    class       volSymmTensorField;
    location    "112";
    object      UPrime2Mean;
}
// * * * * * * * * * * * * * * * * * * * * * * * * * * * * * * * * * * * * * //

dimensions      [0 2 -2 0 0 0 0];

internalField   nonuniform List<symmTensor> 
9200
(
(0.00017630464 -0.00013685958 6.4381983e-22 0.00010985439 -3.4465617e-22 1.0380852e-38)
(0.0010836963 -0.00086822012 1.6376927e-21 0.000698229 -1.2222834e-21 1.1289711e-38)
(0.0021830045 -0.0016960276 2.0891899e-22 0.0013250618 -1.5719267e-22 6.1914794e-39)
(0.0034288542 -0.0024904408 -2.4544469e-21 0.0018284862 1.7283515e-21 1.2335599e-38)
(0.0046470438 -0.0031914143 1.088261e-22 0.0022285206 -9.2848414e-23 1.8096667e-39)
(0.0057520421 -0.0037676313 1.0219908e-21 0.0025252025 -6.8152566e-22 2.8086356e-40)
(0.0066859755 -0.004208774 -2.1661011e-22 0.0027294331 1.5158056e-22 8.1995311e-40)
(0.0074034078 -0.004516548 1.9707984e-22 0.0028591057 -1.3410734e-22 5.5228442e-40)
(0.0078743174 -0.0046984121 9.9115949e-22 0.0029313303 -6.0460673e-22 1.5747274e-39)
(0.0080850229 -0.0047647903 7.6690316e-23 0.0029606065 -4.7128053e-23 4.4824216e-42)
(0.0080379628 -0.0047277575 -1.059629e-21 0.0029588635 6.5666439e-22 8.4331778e-40)
(0.007751185 -0.0046002222 8.8359516e-22 0.0029356189 -5.6922574e-22 1.1343766e-40)
(0.0072568899 -0.0043954079 -1.5712714e-21 0.0028982148 1.0718017e-21 1.8025732e-39)
(0.0065986987 -0.0041265362 -7.940063e-22 0.0028521343 5.529793e-22 1.1305132e-40)
(0.0058277682 -0.0038066218 2.0560124e-22 0.0028013438 -1.5465375e-22 1.4568705e-41)
(0.0049981207 -0.0034482932 -7.7066779e-22 0.0027486212 6.1290828e-22 1.5104324e-40)
(0.0041615941 -0.0030636297 6.7375828e-22 0.0026959996 -5.8199332e-22 1.8385437e-40)
(0.0033629755 -0.002664183 4.9574062e-22 0.0026461655 -4.4908016e-22 7.6439205e-40)
(0.0026391826 -0.002260482 -1.8838807e-23 0.0026027309 3.9459042e-23 1.4165434e-40)
(0.0020296519 -0.0018603201 -1.1344426e-23 0.0025405024 3.5538205e-23 1.7557925e-40)
(0.00023241957 -0.00015536614 6.7677456e-23 0.00010667103 -2.6139553e-23 1.8226815e-40)
(0.0013803208 -0.00095752791 1.7354335e-21 0.00066625519 -1.1290097e-21 1.2046674e-38)
(0.0027333777 -0.001842495 -5.6995132e-22 0.0012487501 3.8181425e-22 6.5458676e-39)
(0.0041736952 -0.0026557118 -4.4010013e-21 0.0017080817 2.7557767e-21 2.8537169e-38)
(0.0055003882 -0.0033418249 -1.4786883e-22 0.0020653112 9.4712681e-23 3.6017558e-40)
(0.006615632 -0.0038737591 3.3886705e-21 0.0023240811 -2.0066076e-21 9.4357239e-39)
(0.0074611146 -0.0042479931 -1.3853588e-21 0.0024983638 8.1384825e-22 3.1944748e-40)
(0.0080016315 -0.0044738275 -4.1856235e-22 0.0026074345 2.4391721e-22 1.1588335e-40)
(0.0082255919 -0.0045657573 1.5846702e-21 0.0026687676 -9.3103692e-22 8.8189703e-40)
(0.0081438686 -0.0045402728 -1.9168145e-21 0.0026965609 1.1470479e-21 1.0091684e-39)
(0.0077873339 -0.0044143989 -1.3568469e-21 0.0027018883 8.339206e-22 1.253077e-39)
(0.0072034865 -0.0042048603 2.9217903e-21 0.0026929574 -1.8723609e-21 6.3680825e-39)
(0.0064517247 -0.0039276632 1.3582e-21 0.0026754408 -9.2867254e-22 4.3923757e-40)
(0.0055974258 -0.0035979552 -2.1327505e-21 0.0026528601 1.5614056e-21 2.184856e-39)
(0.0047055223 -0.0032300155 3.8093932e-22 0.0026269577 -3.0163871e-22 1.8323407e-40)
(0.0038344646 -0.0028372687 -8.4511873e-22 0.0025980217 7.520999e-22 4.8313149e-40)
(0.003031336 -0.0024322742 -3.5072137e-22 0.0025652393 3.6861718e-22 1.5319688e-40)
(0.0023286472 -0.0020264807 1.0605088e-21 0.0025271448 -1.2199143e-21 2.4719449e-39)
(0.0017448047 -0.0016290387 5.0051547e-22 0.0024793573 -6.8985081e-22 4.6477995e-40)
(0.0012908965 -0.001249155 -2.1022713e-22 0.002399271 2.6831577e-22 3.5833184e-39)
(0.00029568379 -0.00016843031 -5.6365241e-22 9.8110099e-05 2.4015168e-22 4.6956539e-39)
(0.0016958735 -0.0010088471 -9.3666523e-22 0.00060170523 5.2036447e-22 4.8959376e-39)
(0.0032971635 -0.0019114592 -1.0723396e-21 0.0011142705 6.2446208e-22 1.2237762e-38)
(0.0048998475 -0.0027071176 3.5210721e-23 0.0015124929 -1.9397589e-23 1.3259593e-42)
(0.006281399 -0.0033482679 6.0248808e-23 0.0018177481 -2.7565855e-23 8.7906622e-39)
(0.0073394958 -0.0038150998 1.1900154e-21 0.0020370624 -6.368761e-22 2.4572053e-39)
(0.00802626 -0.0041124717 1.0859235e-22 0.0021862163 -5.5171342e-23 1.0176643e-39)
(0.0083288984 -0.0042573894 -1.998204e-21 0.0022841753 1.0819452e-21 6.3872736e-40)
(0.0082658629 -0.0042704817 2.361203e-21 0.0023470914 -1.3128161e-21 1.2105887e-39)
(0.0078818246 -0.0041727021 7.760633e-22 0.0023872903 -4.5366935e-22 1.3448548e-39)
(0.0072412361 -0.0039840321 -2.1268352e-21 0.0024135925 1.3018143e-21 2.7634792e-39)
(0.0064208263 -0.003722973 -6.6379438e-22 0.0024317179 4.3673241e-22 9.0664884e-40)
(0.0055012293 -0.0034065428 2.4545614e-22 0.0024447535 -1.7221146e-22 2.462666e-39)
(0.0045586456 -0.0030505235 5.7064949e-22 0.0024536643 -4.512425e-22 3.5085672e-40)
(0.0036577449 -0.002669723 -1.974252e-22 0.0024578015 1.7544449e-22 2.7024712e-40)
(0.0028468335 -0.0022781002 4.614776e-22 0.0024553997 -4.7350172e-22 2.1019889e-40)
(0.0021558258 -0.001888695 -3.1835804e-22 0.0024440525 3.8526372e-22 7.9731667e-41)
(0.0015969365 -0.0015132928 -6.3748903e-22 0.0024209955 9.1499672e-22 1.9855551e-39)
(0.0011677873 -0.0011616308 -1.5654469e-23 0.0023826854 1.7141916e-23 1.8062889e-39)
(0.00085698572 -0.00084260692 2.188781e-22 0.0023217931 -4.9728205e-22 1.9969655e-40)
(0.00036394391 -0.00017411964 -4.4747264e-22 8.4944896e-05 1.649904e-22 2.3324082e-39)
(0.0020139764 -0.0010135598 6.762004e-22 0.00051130783 -3.3196906e-22 4.3230531e-40)
(0.0038401135 -0.0018910063 6.0098107e-22 0.0009367072 -2.9685709e-22 5.0320592e-40)
(0.0055574603 -0.002635 1.3152937e-21 0.0012647591 -6.2891224e-22 5.4339883e-39)
(0.0069305669 -0.0032083122 1.1511136e-21 0.0015160874 -5.4857657e-22 2.4163981e-39)
(0.0078642496 -0.0036002976 -2.0090757e-21 0.0017000209 9.6052965e-22 1.8388037e-39)
(0.0083344184 -0.0038239726 -1.1204409e-21 0.0018322903 5.4629849e-22 5.228829e-40)
(0.0083631304 -0.0039021786 0 0.0019296416 0 0)
(0.0080081233 -0.0038589917 1.2178154e-21 0.0020052417 -6.6953553e-22 6.7696394e-39)
(0.0073520641 -0.0037169093 -5.2531348e-22 0.002068174 3.1482581e-22 2.5648779e-39)
(0.0064910079 -0.0034962031 -3.0710654e-21 0.0021239342 1.8633173e-21 2.2220639e-39)
(0.0055228307 -0.0032150986 -3.9405776e-22 0.0021749834 2.5227188e-22 4.5768773e-40)
(0.0045366595 -0.0028903251 1.4959473e-21 0.0022213587 -1.1406129e-21 3.0626847e-39)
(0.0036046902 -0.0025376407 8.9554341e-23 0.0022613364 -5.857882e-23 1.2765124e-39)
(0.0027774822 -0.0021720563 -2.288696e-23 0.0022921126 2.3103238e-23 8.8495307e-43)
(0.0020830647 -0.0018076701 2.4436994e-22 0.0023104879 -2.9277533e-22 1.557452e-40)
(0.0015293906 -0.001457189 3.4780477e-24 0.0023134557 4.0297236e-24 1.8478951e-40)
(0.0011090383 -0.0011313182 -4.2874029e-22 0.0022984678 7.5409546e-22 4.6654875e-40)
(0.00080461815 -0.00083814627 -2.3524587e-22 0.0022645232 5.2149388e-22 3.2705533e-40)
(0.00059422743 -0.00058331428 1.1304048e-22 0.0022154069 -3.7792917e-22 2.0975449e-39)
(0.00043405637 -0.00017079764 3.3740855e-22 6.8416983e-05 -1.0748777e-22 9.1763877e-40)
(0.0023144437 -0.00096619161 1.4043664e-21 0.00040431661 -5.6019133e-22 8.2676656e-39)
(0.0043238309 -0.0017764297 1.0921308e-21 0.00073471993 -4.5111228e-22 5.2000959e-40)
(0.0060960477 -0.0024406845 1.2208043e-21 0.00099115362 -4.9999517e-22 2.9069626e-39)
(0.007395207 -0.0029333672 -1.8707097e-21 0.001192239 7.7634417e-22 4.5782758e-39)
(0.0081476033 -0.0032528893 6.7658119e-23 0.0013479511 -2.190959e-23 4.3588942e-40)
(0.0083663907 -0.0034178517 1.0599967e-22 0.0014719827 -4.6599923e-23 3.6429002e-42)
(0.0081180023 -0.0034530673 1.503818e-21 0.0015772189 -7.0840964e-22 1.6318648e-39)
(0.0075030729 -0.003382091 2.0209336e-22 0.0016726261 -1.0133832e-22 1.461132e-41)
(0.0066390469 -0.0032256265 -5.3971366e-22 0.0017631883 3.1162245e-22 8.8472038e-40)
(0.0056440481 -0.0030019464 1.745417e-21 0.0018505261 -1.1067243e-21 6.1574878e-39)
(0.0046233084 -0.002727827 -1.2712097e-21 0.0019335729 8.5505333e-22 5.1864782e-40)
(0.0036595514 -0.0024193776 -2.3756936e-21 0.0020093436 1.9040528e-21 3.7033841e-39)
(0.002808317 -0.0020923573 -7.8093753e-23 0.0020737822 7.4064276e-23 7.871309e-42)
(0.0020982255 -0.0017618677 8.3217375e-22 0.0021226257 -9.6681642e-22 3.0405576e-39)
(0.0015351371 -0.0014415901 0 0.0021522083 0 0)
(0.0011085552 -0.001142881 1.0568462e-22 0.0021600259 -1.5706918e-22 7.9199224e-41)
(0.00079851511 -0.00087408422 -5.0204127e-23 0.0021448207 1.1827826e-22 1.1815979e-40)
(0.000581305 -0.00064028482 -5.2917913e-23 0.0021080413 1.2056987e-22 3.0764522e-41)
(0.00043356198 -0.00044328408 2.2383952e-23 0.002058988 -1.1050457e-22 2.1288213e-40)
(0.00050221004 -0.00015750345 7.3749681e-22 5.024795e-05 -1.8995655e-22 3.7108444e-39)
(0.0025760858 -0.00086619441 7.1893862e-23 0.00029203001 -2.3618873e-23 6.8533562e-42)
(0.0047119435 -0.0015727264 -2.0562827e-22 0.00052919978 6.9628324e-23 3.0321823e-41)
(0.006473672 -0.0021385773 2.053209e-22 0.00071901702 -6.672492e-23 6.0034624e-40)
(0.0076402455 -0.0025491776 -1.2839897e-21 0.00087692468 4.5310277e-22 1.1245174e-39)
(0.0081741435 -0.0028092847 -6.1405475e-22 0.0010118239 2.2556513e-22 1.0099445e-40)
(0.0081361379 -0.002938248 4.2736587e-22 0.001133857 -1.321846e-22 3.2100987e-39)
(0.007640598 -0.0029577347 -1.6601103e-23 0.0012511502 1.8577816e-23 2.5121286e-40)
(0.0068271518 -0.0028866686 -1.0217481e-21 0.0013679901 5.1721529e-22 2.6514762e-39)
(0.0058376054 -0.0027414014 1.7643154e-21 0.0014850378 -9.3508784e-22 7.617546e-40)
(0.0047977747 -0.0025371832 -4.3591015e-23 0.0016000124 6.8144538e-23 1.3797877e-39)
(0.0038054836 -0.0022893889 -1.3811357e-21 0.0017085135 1.0329113e-21 3.7787372e-39)
(0.0029254046 -0.0020139375 0 0.0018050092 0 0)
(0.0021902418 -0.0017267862 3.2774414e-22 0.0018839033 -3.9005056e-22 2.0370565e-39)
(0.0016065449 -0.0014427852 1.5165352e-23 0.0019405252 -3.6425483e-23 1.1170779e-40)
(0.001162806 -0.0011743937 -3.9378608e-22 0.00197189 6.52965e-22 2.3584812e-39)
(0.00083762737 -0.00093071005 -8.9276249e-23 0.0019770192 1.6809626e-22 4.8571317e-41)
(0.00060641812 -0.00071712442 -2.6060153e-23 0.0019566758 7.7850665e-23 7.9391756e-41)
(0.000445713 -0.00053570539 -3.4785984e-23 0.0019144788 1.0490536e-22 3.0508796e-41)
(0.00033526641 -0.0003855991 6.102943e-23 0.001861495 -2.5615457e-22 2.9307329e-40)
(0.00056435679 -0.00013419534 2.8477013e-22 3.246697e-05 -5.4798957e-23 5.8769962e-40)
(0.0027794597 -0.00071851777 -2.0358022e-21 0.00018637209 5.1246513e-22 1.2778509e-38)
(0.004975067 -0.0012943887 -1.8472856e-22 0.00034043546 5.213838e-23 1.1931541e-39)
(0.0066628547 -0.0017542152 -5.4749431e-22 0.00047296853 1.610752e-22 6.0017906e-39)
(0.0076529049 -0.0020914417 -3.9824389e-22 0.00059555187 1.1157149e-22 8.2493899e-41)
(0.0079559426 -0.0023119438 -2.2556133e-21 0.00071488452 7.0688766e-22 1.085619e-39)
(0.0076847581 -0.0024296445 -1.1020461e-21 0.00083705909 3.937282e-22 8.8265616e-40)
(0.006997695 -0.0024580491 2.1194758e-21 0.00096553207 -8.1150918e-22 6.9573809e-40)
(0.0060625254 -0.0024085035 3.6079101e-22 0.0011001772 -1.9016085e-22 9.0876655e-40)
(0.0050306835 -0.0022920721 -4.6264948e-22 0.0012376224 2.134939e-22 3.0962492e-40)
(0.004020954 -0.0021213939 2.1777402e-22 0.0013720416 -8.0274849e-23 1.1669806e-39)
(0.0031126658 -0.0019112897 -3.9174321e-23 0.0014962442 5.5805447e-23 2.9579091e-40)
(0.0023471823 -0.0016780091 0 0.0016029683 0 0)
(0.0017351452 -0.0014375673 2.2448081e-22 0.0016861324 -2.407521e-22 6.9654055e-41)
(0.0012663167 -0.0012039007 -4.7308612e-22 0.0017417805 6.4138056e-22 9.615382e-40)
(0.00091920887 -0.00098749696 -1.5300963e-22 0.0017685438 2.4339454e-22 8.1951048e-41)
(0.00066870316 -0.00079482726 2.605062e-22 0.0017675079 -5.4885436e-22 1.1533359e-39)
(0.00049100868 -0.0006286075 -6.004188e-23 0.001741525 8.0372414e-23 2.5009421e-40)
(0.00036604041 -0.00048878104 -4.1836268e-24 0.0016957121 -7.0505959e-24 2.8081952e-41)
(0.00027784354 -0.00037332554 5.9059427e-23 0.0016405582 -1.8391806e-22 2.3701681e-41)
(0.00061666741 -0.00010182653 2.0758363e-22 1.7137863e-05 -2.7254463e-23 3.679928e-40)
(0.0029093496 -0.00053315989 -1.8795965e-21 9.8215478e-05 3.3900801e-22 5.8569439e-39)
(0.0050943935 -0.00096344971 -1.4693092e-21 0.00018530521 2.9203383e-22 7.0134696e-39)
(0.0066535457 -0.0013203235 2.0790177e-21 0.00027171861 -4.3697644e-22 1.7114604e-39)
(0.0074427837 -0.0015998866 1.5597269e-21 0.00036544429 -3.5418807e-22 3.5160158e-40)
(0.0075275929 -0.0018023123 -1.1324725e-21 0.0004710159 2.5257787e-22 3.7194419e-39)
(0.0070696585 -0.0019301085 3.7146039e-22 0.00059121252 -1.4359603e-22 1.576846e-39)
(0.0062604309 -0.0019851092 2.154972e-21 0.00072577978 -7.7670931e-22 1.7492297e-39)
(0.0052808077 -0.00197011 9.4054677e-22 0.00087092725 -3.7587446e-22 2.1779669e-40)
(0.0042769198 -0.0018916162 -9.1920949e-22 0.0010198046 4.7886594e-22 5.6992894e-40)
(0.0033494565 -0.0017609366 -1.24124e-21 0.0011636131 7.5485947e-22 6.7052096e-40)
(0.0025542152 -0.0015932265 -3.3668259e-23 0.0012931437 2.4871297e-23 6.9824934e-43)
(0.0019102494 -0.0014051596 3.5337318e-22 0.0014003956 -3.1651385e-22 1.0836809e-40)
(0.0014114177 -0.0012122764 -1.0850108e-23 0.0014798478 4.1650385e-23 1.7045958e-40)
(0.0010377311 -0.0010269382 -1.0636712e-23 0.0015290945 6.7456565e-23 4.6134164e-40)
(0.00076426306 -0.000857364 6.1690555e-24 0.001548781 -8.7725206e-23 8.3338234e-40)
(0.00056687565 -0.00070771718 1.2042624e-22 0.0015419352 -2.498625e-22 2.4184167e-40)
(0.00042510282 -0.00057892812 -6.5854413e-23 0.0015129476 2.0967479e-22 6.3514843e-40)
(0.00032295333 -0.00046997523 -1.71689e-22 0.0014675111 5.0561996e-22 1.2226357e-39)
(0.00024837196 -0.00037877158 5.8582354e-23 0.001414252 -1.4721111e-22 2.6469768e-41)
(0.00065616143 -6.2266537e-05 -5.3580834e-22 6.0661048e-06 4.4626656e-23 1.0987526e-39)
(0.0029568755 -0.00032389641 -4.0856016e-22 3.5895987e-05 4.4065678e-23 1.1824786e-39)
(0.005063598 -0.00060645492 3.2107355e-21 7.5193757e-05 -4.0906456e-22 1.4481518e-38)
(0.0064535717 -0.00087214859 2.3722403e-21 0.00012622744 -3.4584161e-22 1.5716936e-39)
(0.007039186 -0.0011127164 1.0538636e-21 0.00019499413 -1.6691147e-22 7.7401872e-40)
(0.0069395344 -0.0013157868 2.1225903e-22 0.00028528616 -4.3944633e-23 7.3369936e-42)
(0.0063547784 -0.0014681835 -1.9796433e-21 0.00039831344 4.4417675e-22 3.2323093e-39)
(0.005494155 -0.0015588849 0 0.00053151554 0 0)
(0.0045362461 -0.0015831119 -1.2012372e-21 0.0006783056 5.2984207e-22 2.6799238e-39)
(0.0036103463 -0.001544554 -2.0460175e-22 0.00082896421 1.3847038e-22 6.0932532e-40)
(0.0027936677 -0.0014545317 5.8338186e-22 0.00097239998 -3.4423668e-22 1.4331765e-40)
(0.0021192105 -0.0013289416 6.0917798e-23 0.0010982648 -8.2125313e-23 3.353993e-40)
(0.0015887084 -0.0011845073 -2.7417328e-22 0.0011987711 2.7624639e-22 3.8765345e-40)
(0.0011858869 -0.0010356831 -2.0408615e-22 0.001269714 2.7808857e-22 8.324771e-40)
(0.00088708639 -0.00089294374 1.3376745e-22 0.0013105556 -1.3735872e-22 1.015465e-40)
(0.00066820736 -0.00076248797 1.838125e-22 0.0013237496 -2.4113108e-22 9.1659263e-41)
(0.00050831062 -0.00064691986 -1.6192707e-22 0.0013136393 2.7566099e-22 8.4063104e-41)
(0.0003908573 -0.00054637612 -2.1350963e-22 0.0012853129 4.7990912e-22 1.0209321e-39)
(0.00030357095 -0.00045976933 1.7865682e-23 0.0012441922 -3.1961294e-24 1.2138813e-40)
(0.0002375036 -0.0003854651 2.7950694e-23 0.0011965598 -1.0160532e-22 1.4263891e-40)
(0.00068059701 -1.8000087e-05 -3.5387671e-22 5.4664685e-07 9.0245854e-24 5.3770875e-40)
(0.0029194975 -0.00010654474 1.5018982e-21 4.237358e-06 -5.4055453e-23 2.9788738e-39)
(0.0048885442 -0.00025135666 2.2968707e-21 1.5008415e-05 -1.4227188e-22 2.1636475e-38)
(0.0060868001 -0.00044358365 -2.6642124e-21 3.9460706e-05 2.3294612e-22 5.9437627e-39)
(0.0064859253 -0.00066297671 9.5484879e-22 8.459356e-05 -1.065855e-22 1.4711762e-40)
(0.0062494911 -0.00087948204 3.8389189e-22 0.00015596154 3.5075418e-24 5.5016627e-39)
(0.0056007723 -0.0010626922 1.0211391e-22 0.00025535617 -2.1094042e-23 1.9259358e-42)
(0.0047506391 -0.0011899609 -1.4453212e-21 0.00037925905 3.388836e-22 1.8403352e-39)
(0.0038628929 -0.0012512679 -3.267429e-23 0.00051902181 1.1522483e-23 2.8664511e-43)
(0.003043731 -0.0012494516 5.3366528e-22 0.00066266048 -2.8488401e-22 7.0324507e-40)
(0.002346908 -0.0011966996 4.1210184e-23 0.00079755911 -4.4133725e-23 1.011432e-40)
(0.001787086 -0.0011094849 -1.934146e-22 0.00091310874 5.0264817e-23 1.3084697e-39)
(0.0013549368 -0.0010039917 -4.233925e-22 0.0010024571 3.515906e-22 1.3925797e-40)
(0.0010298328 -0.00089318544 -1.3547211e-24 0.0010630208 3.4448912e-23 1.7050917e-40)
(0.0007885006 -0.00078575073 1.412656e-22 0.0010959166 -1.9142109e-22 1.6469883e-40)
(0.00060978181 -0.00068642569 9.3309439e-23 0.0011047767 -1.5378995e-22 1.6035234e-40)
(0.00047653467 -0.00059702861 1.9996344e-23 0.0010944421 -7.3272763e-23 2.615178e-40)
(0.00037585728 -0.00051761987 -1.5065175e-22 0.0010699129 2.1461487e-22 2.0651355e-40)
(0.00029851282 -0.0004474932 -3.3184597e-23 0.0010357816 -2.2285269e-23 8.9763509e-40)
(0.00023790053 -0.0003855205 7.8405923e-23 0.00099605212 -2.6175507e-22 1.4768498e-39)
(4.6002505e-06 -5.7393699e-07 4.6004487e-23 7.016935e-07 -9.2113262e-24 5.255777e-40)
(2.1691668e-05 -9.079427e-06 -6.562912e-23 4.6640073e-06 1.8185013e-23 5.0603728e-40)
(4.8587996e-05 -2.0984456e-05 1.4580046e-22 9.2959834e-06 -5.457124e-23 2.9055743e-39)
(0.00015576651 -4.4269102e-05 4.0674961e-22 1.3322528e-05 -8.6631808e-23 9.7731846e-39)
(0.00034174604 -7.2984112e-05 -2.9035836e-22 1.6928585e-05 4.934425e-23 2.5411801e-39)
(0.00061049812 -0.00010506893 3.6575172e-22 2.0115476e-05 -4.9496696e-23 2.8079709e-39)
(0.00097057864 -0.00013939758 -5.0135509e-22 2.2887768e-05 6.3376471e-23 3.0824026e-39)
(0.0014240441 -0.00017484878 -5.1674212e-22 2.5305039e-05 5.3738994e-23 3.2601167e-39)
(0.0019684252 -0.00021051292 6.4854318e-22 2.7431703e-05 -6.6831045e-23 3.4448378e-39)
(0.0025997425 -0.00024571884 -5.0239155e-22 2.9318379e-05 4.8734708e-23 1.7541669e-39)
(0.003313091 -0.00027996116 -2.5321385e-23 3.1003809e-05 4.1958672e-25 2.0425729e-41)
(0.0041027213 -0.00031284892 1.4355121e-22 3.2517853e-05 -1.519999e-23 6.4332532e-41)
(0.0049623008 -0.00034407487 -2.4877515e-23 3.3883521e-05 1.1754334e-24 1.0249962e-41)
(0.005885156 -0.00037339633 7.7667594e-22 3.5119345e-05 -6.9185746e-23 3.0692253e-39)
(0.0068644184 -0.00040062905 1.3002146e-24 3.6242342e-05 1.4758228e-24 6.6442409e-42)
(0.007893172 -0.00042565795 -1.1302989e-21 3.7271035e-05 1.0548584e-22 6.3081302e-39)
(0.0089646506 -0.00044844708 2.0792474e-22 3.8225159e-05 -2.196628e-23 1.3283504e-40)
(0.010072268 -0.00046899634 5.0128184e-22 3.9119563e-05 -4.994108e-23 1.6040296e-39)
(0.011209465 -0.00048740488 -8.053018e-22 3.9968945e-05 8.6615623e-23 4.5450385e-39)
(0.012368901 -0.00050437058 -4.3971333e-22 4.0769439e-05 5.0934294e-23 1.7067119e-39)
(5.2104382e-06 -2.4026332e-06 1.5135731e-23 6.1759778e-06 -5.577615e-24 5.1899048e-41)
(2.7653485e-05 -3.1112137e-05 -4.1559031e-22 4.1099942e-05 3.1334984e-22 1.6923213e-38)
(6.2054331e-05 -7.0629535e-05 8.249092e-23 8.1886449e-05 -6.8262557e-23 1.5274421e-39)
(0.00018321926 -0.0001432678 4.3726655e-22 0.00011735391 -2.6821854e-22 8.16595e-39)
(0.00038531347 -0.0002315324 6.0707021e-22 0.0001490486 -2.9113995e-22 9.2339934e-39)
(0.00067094014 -0.00032936441 7.333596e-23 0.00017693972 -2.9321802e-23 8.6734593e-41)
(0.0010475549 -0.00043340235 -1.9476055e-21 0.00020107582 6.720544e-22 4.6176286e-38)
(0.0015159089 -0.00054033328 -6.8283891e-23 0.00022198604 2.8180277e-23 1.324841e-41)
(0.0020723645 -0.00064748943 1.0975141e-21 0.00024023714 -3.3214637e-22 7.8745429e-39)
(0.0027118788 -0.00075290355 -2.6445298e-22 0.00025627526 7.2505243e-23 4.3791282e-40)
(0.0034285009 -0.00085509148 -1.0008813e-21 0.00027044202 2.7230583e-22 4.8548293e-39)
(0.0042154341 -0.000952902 2.1012318e-22 0.00028299913 -5.3297328e-23 2.2108297e-40)
(0.0050652868 -0.0010454262 8.8554971e-22 0.00029414554 -1.9604553e-22 5.211327e-39)
(0.005970293 -0.0011319396 3.6408298e-22 0.00030403766 -8.9918303e-23 5.9454681e-40)
(0.0069224229 -0.0012118795 7.2436615e-22 0.00031281467 -1.9228827e-22 1.7170409e-39)
(0.0079135309 -0.0012848748 -5.7027495e-22 0.00032062421 1.4313592e-22 1.4540616e-39)
(0.0089357208 -0.0013507847 -5.420783e-22 0.00032762562 1.3495487e-22 1.590883e-39)
(0.009981225 -0.0014095645 5.4318014e-22 0.00033394849 -1.5529117e-22 9.1695927e-40)
(0.01104017 -0.0014614922 4.9099857e-22 0.00033973978 -1.3743816e-22 1.6070926e-39)
(0.01210069 -0.0015091889 1.8709555e-22 0.00034501763 -5.0531859e-23 6.8372265e-40)
(6.6983831e-06 -6.1545976e-06 1.1646398e-23 1.6476012e-05 -5.8088664e-24 2.7302071e-41)
(4.17963e-05 -6.4292948e-05 3.1558276e-22 0.00010971065 -3.3780381e-22 7.2122128e-39)
(9.3373112e-05 -0.00014201473 -6.9019529e-23 0.00021838241 8.8930098e-23 3.7765883e-40)
(0.00024374416 -0.0002717773 -4.7484085e-22 0.00031281496 3.9954109e-22 8.9417234e-39)
(0.00047905144 -0.0004254842 1.7422462e-22 0.0003968969 -1.4611185e-22 2.5239877e-40)
(0.00079914677 -0.00059334012 2.2997728e-22 0.00047037224 -1.8675251e-22 1.3136157e-40)
(0.0012092797 -0.0007697993 -2.8738494e-22 0.00053336321 1.5192298e-22 7.9624893e-40)
(0.0017077429 -0.00094950959 -7.4746329e-22 0.00058728184 4.3503479e-22 1.5842461e-39)
(0.0022886806 -0.0011282016 3.2701511e-22 0.0006336365 -1.5834085e-22 4.4412564e-40)
(0.0029450057 -0.00130272 6.9385565e-22 0.0006736236 -2.8703363e-22 2.5244752e-39)
(0.0036687655 -0.0014706698 1.9027462e-22 0.00070816444 -1.3258888e-22 9.4087683e-41)
(0.004451168 -0.0016301778 8.4541684e-22 0.00073796301 -2.7849033e-22 4.6868442e-39)
(0.0052828129 -0.0017797464 7.1289724e-23 0.00076354686 -2.6268013e-23 1.9411388e-41)
(0.0061538762 -0.0019181548 -1.2456052e-21 0.00078531649 4.1769788e-22 7.5309859e-39)
(0.0070541748 -0.0020444179 8.9790364e-23 0.00080361258 -6.0238207e-23 4.1679515e-41)
(0.0079733199 -0.0021578355 -5.783151e-22 0.00081878684 1.5903881e-22 2.9364436e-39)
(0.0089014092 -0.0022580822 -8.0718619e-22 0.0008312196 3.2060298e-22 1.2011625e-39)
(0.0098287157 -0.0023449942 1.303052e-21 0.00084128773 -5.1022043e-22 3.9905855e-39)
(0.010739958 -0.0024189811 6.8268305e-22 0.00084960248 -2.8554468e-22 8.0995505e-40)
(0.011616507 -0.0024855734 1.3686898e-22 0.00085660788 -6.3240264e-23 1.733864e-41)
(9.8690395e-06 -1.2734092e-05 -1.7457608e-23 3.0347946e-05 2.2000883e-23 3.9872552e-41)
(6.8502843e-05 -0.00011413908 -7.3080504e-22 0.00020237636 9.2434928e-22 2.3924467e-38)
(0.00015142919 -0.00024589819 -5.3193958e-23 0.00040241374 6.8356364e-23 3.2708143e-40)
(0.00034995829 -0.0004440596 1.2207463e-22 0.00057591122 -1.3514912e-22 2.0817948e-40)
(0.00063905896 -0.00067137138 -1.9934868e-23 0.00072959705 5.2579384e-24 5.3845427e-41)
(0.0010145216 -0.00091452994 6.2121166e-22 0.00086258798 -4.5486371e-22 3.928297e-39)
(0.0014782257 -0.0011658144 6.8575846e-22 0.00097505109 -4.4708837e-22 3.5681364e-39)
(0.0020248514 -0.001418048 -2.0805582e-22 0.0010695959 1.0026139e-22 5.6262584e-40)
(0.0026452642 -0.0016655782 -7.5953685e-22 0.0011490235 3.9539964e-22 3.5752925e-39)
(0.0033293271 -0.001904207 -1.5248421e-21 0.0012155878 8.2013169e-22 7.5723984e-39)
(0.0040661094 -0.002130717 -3.4558801e-23 0.0012710487 -1.7700933e-23 1.7320266e-40)
(0.0048438899 -0.0023425654 1.9313682e-21 0.0013167626 -8.9628555e-22 1.2377874e-38)
(0.0056503559 -0.0025376833 -7.8232553e-22 0.0013537446 2.962224e-22 3.6628214e-39)
(0.0064727944 -0.0027143554 -5.0228894e-22 0.0013827588 2.1925843e-22 7.2180905e-40)
(0.0072981253 -0.0028711535 -5.87122e-23 0.0014044286 6.8099604e-23 1.5607761e-40)
(0.0081130841 -0.0030069943 1.1793417e-21 0.0014193588 -5.1704749e-22 2.957464e-39)
(0.0089053074 -0.0031213159 -6.6382903e-22 0.0014281854 3.3493128e-22 1.9557389e-40)
(0.0096630688 -0.0032139039 -1.5174102e-21 0.0014316951 6.4073438e-22 6.3696504e-39)
(0.010365317 -0.0032853867 1.0091828e-21 0.0014317465 -4.4251713e-22 3.2019766e-39)
(0.010986331 -0.0033446587 8.7075609e-22 0.0014305516 -3.5105265e-22 2.9812738e-39)
(1.578379e-05 -2.2682626e-05 7.8330295e-23 4.6268266e-05 -7.6133117e-23 5.1537554e-40)
(0.00011360681 -0.00018385105 2.5599398e-23 0.00030880957 -6.793765e-24 2.3217498e-40)
(0.00024793382 -0.00038840719 -1.0044295e-21 0.00061288702 1.4392458e-21 1.9611453e-38)
(0.00051810494 -0.00066782038 -5.7695962e-22 0.00087567801 6.1295765e-22 6.0712546e-39)
(0.00088519207 -0.00097724902 3.857289e-22 0.0011067796 -3.0704833e-22 3.6708662e-39)
(0.0013394962 -0.0012999069 4.7728487e-22 0.0013042073 -3.8450149e-22 1.7280801e-39)
(0.0018781394 -0.0016258389 -6.2137849e-22 0.0014681641 4.0528899e-22 4.0454152e-39)
(0.0024909011 -0.0019463052 -9.4646139e-22 0.0016027036 5.4197149e-22 8.8773678e-39)
(0.0031641898 -0.0022545569 1.3944977e-21 0.0017122083 -8.3153093e-22 9.1033586e-39)
(0.0038837125 -0.0025455759 4.0124384e-22 0.0018002766 -1.6140906e-22 2.1206571e-39)
(0.0046345272 -0.002815498 -1.2468456e-21 0.0018697873 8.2739161e-22 6.9299456e-40)
(0.0054010664 -0.0030612657 5.4899579e-22 0.0019230098 -2.4831476e-22 1.6319915e-39)
(0.0061673941 -0.0032804034 0 0.0019616878 0 0)
(0.0069174243 -0.0034708656 5.3021795e-22 0.0019871505 -2.5811106e-22 6.3784558e-40)
(0.0076350157 -0.0036309569 -3.9646439e-22 0.0020004631 1.8833909e-22 3.40551e-40)
(0.0083042519 -0.0037593892 -6.0461781e-22 0.0020025884 3.0279235e-22 4.1251545e-40)
(0.0089110241 -0.0038555451 2.2054942e-22 0.0019944337 -1.8456768e-22 5.8252973e-40)
(0.0094431496 -0.0039194957 -1.7978186e-22 0.0019772212 1.0906006e-22 2.0875259e-41)
(0.0098760167 -0.0039525562 8.5529777e-22 0.0019549574 -3.7116562e-22 3.4528497e-39)
(0.010177126 -0.0039665931 -6.9783689e-22 0.0019342564 3.4522006e-22 1.9895879e-40)
(2.5668542e-05 -3.6165937e-05 7.5152534e-23 6.2719381e-05 -6.3188369e-23 4.1376442e-40)
(0.0001836711 -0.00027397576 3.6096527e-22 0.00041818384 -4.8089761e-22 1.5400945e-39)
(0.00039576606 -0.00057007663 -4.842916e-22 0.00082721933 6.431283e-22 3.6823382e-39)
(0.00076520694 -0.00094252664 -7.922537e-22 0.0011786401 8.9262468e-22 3.0768401e-39)
(0.0012366311 -0.0013403379 -2.2822418e-22 0.0014846359 3.3906608e-22 2.4308289e-39)
(0.0017930472 -0.00174306 -7.1451177e-22 0.001741838 6.2846671e-22 1.5129597e-39)
(0.0024250864 -0.0021384504 -3.3449664e-22 0.0019506463 2.0578327e-22 1.7517226e-39)
(0.0031161769 -0.0025165701 5.77288e-22 0.0021168088 -3.4681122e-22 3.2307683e-39)
(0.0038470124 -0.0028700054 1.3747959e-21 0.0022465647 -8.1856054e-22 1.1059086e-38)
(0.0045980467 -0.0031933322 4.2142092e-22 0.0023451722 -2.5948585e-22 4.6340067e-40)
(0.0053495337 -0.0034824742 -4.0022106e-22 0.0024169577 2.1215634e-22 7.3562392e-40)
(0.0060816122 -0.0037343142 -7.6729873e-23 0.0024654367 -1.6254991e-23 6.4108923e-40)
(0.0067747146 -0.0039464593 -1.8905253e-21 0.0024934047 1.03569e-21 6.0907134e-39)
(0.007409967 -0.004117086 -5.8521698e-22 0.0025030637 3.0639842e-22 6.3006615e-40)
(0.0079694676 -0.004244852 9.7460671e-22 0.0024961888 -5.6697518e-22 2.9552716e-40)
(0.0084367305 -0.0043289187 -9.691306e-22 0.0024742923 5.264164e-22 6.2036232e-40)
(0.0087987139 -0.0043692108 -3.4092329e-22 0.0024385748 1.6835552e-22 1.9917877e-40)
(0.0090466964 -0.0043666848 7.6085529e-22 0.0023904192 -3.2004299e-22 3.1014255e-39)
(0.009158196 -0.0043241268 1.1448215e-21 0.0023361972 -5.7627395e-22 2.3457514e-39)
(0.0090955997 -0.0042553124 1.3988958e-22 0.0022900863 -6.5644965e-23 4.5734748e-41)
(4.082212e-05 -5.2985744e-05 -2.1199991e-22 7.8318102e-05 1.7215889e-22 2.4483023e-39)
(0.0002851926 -0.00038235369 -2.3512263e-22 0.00052024227 2.3855632e-22 1.9514088e-39)
(0.00060699594 -0.00078550603 5.8752217e-22 0.0010239185 -7.4430999e-22 8.8041686e-40)
(0.0011057744 -0.0012587025 8.9937258e-22 0.0014529356 -9.3271908e-22 4.087863e-39)
(0.0017071386 -0.0017460923 1.1750324e-23 0.0018216833 -1.0589733e-23 8.1222697e-43)
(0.0023845019 -0.0022233585 -2.4375373e-21 0.0021255449 2.0133269e-21 2.3887646e-38)
(0.0031200024 -0.0026761124 -9.4821979e-22 0.0023655631 8.1425852e-22 3.3674806e-40)
(0.0038892815 -0.0030938193 7.4073148e-22 0.002549516 -4.9984548e-22 2.6222117e-39)
(0.0046663663 -0.0034691402 8.4577363e-22 0.0026857926 -5.6878164e-22 1.6024566e-39)
(0.0054259903 -0.0037970296 -8.3025951e-22 0.0027816258 4.620213e-22 4.4027811e-39)
(0.0061436715 -0.0040740217 -2.4215759e-21 0.0028431242 1.5320464e-21 6.4012314e-39)
(0.0067960646 -0.0042978281 1.5886113e-21 0.0028753806 -9.6535575e-22 2.6311346e-39)
(0.0073616446 -0.0044670983 9.452851e-22 0.0028825674 -4.9317825e-22 3.1591248e-39)
(0.0078214016 -0.004581267 -1.3041401e-21 0.0028680675 7.2157973e-22 2.6033556e-39)
(0.0081593899 -0.0046404505 5.7062868e-22 0.0028346356 -3.3106842e-22 1.7374341e-40)
(0.0083633077 -0.004645393 9.4485099e-22 0.0027845248 -4.8797387e-22 1.9396785e-39)
(0.0084266245 -0.0045975606 3.5849485e-22 0.0027192397 -2.0343354e-22 6.5631714e-41)
(0.0083501476 -0.0044994926 -6.1249894e-22 0.0026397945 3.8248262e-22 8.2123617e-41)
(0.0081219141 -0.004355971 -1.4000282e-22 0.00255389 4.4348993e-23 4.8109698e-40)
(0.0077040459 -0.004180905 8.0012544e-22 0.0024851585 -4.6655413e-22 1.923257e-40)
(6.251616e-05 -7.258697e-05 -6.4464211e-24 9.1839508e-05 -6.5157701e-24 4.5250763e-41)
(0.00042373289 -0.00050420675 -8.5117826e-22 0.00060591069 9.0067822e-22 6.4096634e-39)
(0.00089075573 -0.0010235994 -6.8062994e-22 0.0011843624 7.3044459e-22 9.7040582e-39)
(0.001548419 -0.001598397 1.2697957e-21 0.0016714617 -1.2185619e-21 5.6655538e-39)
(0.0023005955 -0.0021691341 1.052144e-21 0.0020834097 -1.0357496e-21 2.4006037e-39)
(0.0031084508 -0.0027077246 8.9318406e-22 0.0024150005 -7.3996186e-22 9.4086812e-40)