/*--------------------------------*- C++ -*----------------------------------*\
  =========                 |
  \\      /  F ield         | OpenFOAM: The Open Source CFD Toolbox
   \\    /   O peration     | Website:  https://openfoam.org
    \\  /    A nd           | Version:  6
     \\/     M anipulation  |
\*---------------------------------------------------------------------------*/
FoamFile
{
    version     2.0;
    format      ascii;
    class       volVectorField;
    location    "317";
    object      U;
}
// * * * * * * * * * * * * * * * * * * * * * * * * * * * * * * * * * * * * * //

dimensions      [0 1 -1 0 0 0 0];

internalField   nonuniform List<vector> 
9200
(
(0.0010393462 0.0014199821 -5.9201834e-20)
(0.013676067 -0.0020583666 4.6042531e-20)
(0.038313166 -0.0058665676 -3.8501729e-20)
(0.072274436 -0.0097635045 -6.0257746e-20)
(0.11376474 -0.013490028 1.882696e-20)
(0.16158088 -0.016605656 3.2743874e-20)
(0.21467148 -0.018817283 -1.2268004e-20)
(0.27206607 -0.019973888 9.2688584e-21)
(0.33285622 -0.02001122 1.6803425e-20)
(0.39616347 -0.018929048 1.484807e-21)
(0.46111555 -0.016779811 -2.1456331e-20)
(0.52683686 -0.013657726 2.0669996e-20)
(0.59245067 -0.0096879911 -4.0422126e-20)
(0.65709129 -0.0050157677 -2.1133892e-20)
(0.7199247 0.00020557204 5.90465e-21)
(0.780175 0.0058241075 -2.5131664e-20)
(0.83717058 0.011712827 2.5217099e-20)
(0.89046874 0.017918528 2.2243193e-20)
(0.93967069 0.024573429 -2.9928934e-22)
(0.98205184 0.028293399 -1.6691726e-21)
(0.0052521803 -0.001346273 -1.7059351e-20)
(0.0269625 -0.0089890258 3.9747709e-20)
(0.061670114 -0.014809763 2.3576291e-20)
(0.10629489 -0.019172267 -1.1569757e-19)
(0.15873565 -0.022213993 -1.2727086e-20)
(0.21753351 -0.023720681 7.3297075e-20)
(0.28137295 -0.023595091 -3.5476395e-20)
(0.349006 -0.021868958 -8.390556e-21)
(0.41923919 -0.018645516 3.4287535e-20)
(0.49090943 -0.014080832 -4.3259571e-20)
(0.5628723 -0.0083759407 -3.0338475e-20)
(0.63400845 -0.001766583 7.1921415e-20)
(0.70324328 0.0054884072 3.8294034e-20)
(0.76957579 0.013118646 -6.7976533e-20)
(0.83211244 0.020852097 1.4623688e-20)
(0.89010035 0.02841972 -3.6733393e-20)
(0.94296915 0.035569689 -1.3777192e-20)
(0.99043228 0.042140902 7.0974799e-20)
(1.032356 0.047715325 2.9642018e-20)
(1.0669348 0.049139705 -8.3478429e-20)
(0.010858426 -0.0040424156 3.6773454e-20)
(0.043953412 -0.015431076 2.5047346e-21)
(0.090515433 -0.022552281 2.2341706e-20)
(0.14711139 -0.026497356 9.811682e-22)
(0.21134254 -0.027886294 -4.077393e-20)
(0.28146766 -0.02679511 1.8576403e-20)
(0.35587039 -0.023382723 1.3420297e-20)
(0.43299006 -0.017921531 -5.0327698e-20)
(0.51132476 -0.010735644 5.7261851e-20)
(0.58942612 -0.0021838739 1.4256687e-20)
(0.66590914 0.0073479124 -5.43007e-20)
(0.73948034 0.01746027 -1.8237399e-20)
(0.80897596 0.02775657 9.0591564e-21)
(0.87340262 0.037859279 2.3444729e-20)
(0.9319736 0.04742405 -1.1362502e-20)
(0.98413365 0.056148979 2.7877721e-20)
(1.029574 0.063789179 -2.0188246e-20)
(1.0682645 0.070204398 -7.0123574e-20)
(1.1003321 0.075119385 -2.3796225e-20)
(1.1249112 0.076641244 4.8659804e-20)
(0.017957214 -0.0064221631 2.4508013e-20)
(0.064776994 -0.020694798 5.1039222e-20)
(0.12485228 -0.028060845 1.9881694e-20)
(0.19446965 -0.030464063 1.2990097e-20)
(0.27094931 -0.029094838 1.7275703e-20)
(0.35224878 -0.024388975 -4.772017e-20)
(0.43643137 -0.016825968 -2.5646855e-20)
(0.52162006 -0.0069766661 0)
(0.60602894 0.0045670365 1.3920617e-20)
(0.68798705 0.017211736 -5.8523393e-21)
(0.76597516 0.030373926 -9.7934928e-20)
(0.83867445 0.043499637 -1.5774813e-20)
(0.90501524 0.056086621 6.5103181e-20)
(0.96421568 0.06770414 4.8442411e-22)
(1.0158035 0.07800772 -1.5725559e-21)
(1.0596155 0.086746798 2.1957486e-20)
(1.0957773 0.093772233 -5.2647177e-21)
(1.12468 0.09906534 -6.1029691e-20)
(1.1468647 0.10259709 -4.5851097e-20)
(1.1622957 0.10341386 6.9520297e-20)
(0.026579419 -0.0082056878 -3.9194199e-21)
(0.089344018 -0.024033505 -5.1256304e-21)
(0.16430753 -0.030264986 5.6599407e-20)
(0.24758119 -0.029810017 1.8539325e-20)
(0.3362416 -0.024513024 -3.1955067e-20)
(0.42795125 -0.015239856 1.2163838e-20)
(0.52047261 -0.0028513592 2.6402861e-21)
(0.61166356 0.011737099 3.3609167e-20)
(0.6995471 0.027640146 5.6599499e-21)
(0.78236836 0.044028773 -1.3204738e-20)
(0.85865404 0.060147728 6.0154029e-20)
(0.92726909 0.075340475 -5.8009345e-20)
(0.98745674 0.089072866 -1.321661e-19)
(1.038853 0.10094902 -5.5773018e-21)
(1.0814725 0.11071709 8.3150739e-20)
(1.1156655 0.11826406 0)
(1.1420548 0.12360584 1.0118951e-20)
(1.1614668 0.12689057 -1.5459762e-20)
(1.1748179 0.12829871 -8.599436e-21)
(1.1826673 0.12744917 2.0992194e-20)
(0.036666908 -0.0090895793 -5.4309124e-21)
(0.11731511 -0.024685356 4.3578745e-21)
(0.20811868 -0.028140176 -8.7629838e-21)
(0.30515701 -0.023414952 2.8472394e-20)
(0.40533538 -0.013075588 -2.9392663e-20)
(0.50607146 0.0015226182 -1.6927023e-20)
(0.60490489 0.019095143 3.7364231e-20)
(0.69954958 0.038365258 4.7595451e-21)
(0.78800391 0.058167649 -2.4436055e-20)
(0.86863404 0.077483008 6.9867551e-20)
(0.94023971 0.095458647 5.2393847e-22)
(1.0020955 0.11143157 -8.0444305e-20)
(1.0539569 0.12494291 0)
(1.0960273 0.1357375 3.9542112e-20)
(1.1288921 0.14374844 5.5236009e-21)
(1.1534278 0.14906894 -7.7566383e-20)
(1.170699 0.15191914 -1.9586914e-20)
(1.1818623 0.15262369 -1.2467632e-20)
(1.1880592 0.15152607 -1.470939e-20)
(1.190146 0.14858494 4.0420509e-20)
(0.048058867 -0.0087674048 -1.7277958e-20)
(0.1480831 -0.021931992 -2.2198265e-21)
(0.25514069 -0.020797833 3.0380504e-20)
(0.36546383 -0.010412791 3.7484309e-20)
(0.4759042 0.0059015905 -1.9944733e-20)
(0.58374265 0.026269309 -6.9163028e-20)
(0.68644184 0.048977212 -2.7995795e-20)
(0.78176202 0.072417792 7.8929206e-20)
(0.86790195 0.095212481 8.5778124e-21)
(0.94358915 0.11624962 -2.487348e-20)
(1.0081258 0.13469828 1.3642211e-20)
(1.061387 0.15001556 -4.319449e-21)
(1.1037693 0.1619366 0)
(1.1360975 0.17044428 2.7203479e-20)
(1.1595046 0.1757231 -7.9322403e-20)
(1.175302 0.1781037 -3.1475523e-20)
(1.1848569 0.17800814 8.1054564e-20)
(1.1894921 0.17590946 -4.2969777e-21)
(1.1904029 0.17225559 3.5561091e-21)
(1.188508 0.16719299 2.7111591e-20)
(0.06048525 -0.0069573637 -3.2414615e-20)
(0.18077772 -0.01517038 -8.1624317e-20)
(0.30388928 -0.0075835258 2.579777e-21)
(0.42642555 0.0097033576 7.0161809e-20)
(0.54535148 0.032631555 6.2424374e-20)
(0.657981 0.058820045 -7.1574521e-20)
(0.76190882 0.086176509 -2.8275251e-22)
(0.8551829 0.11285231 8.5522542e-20)
(0.93645345 0.13737838 4.8828066e-20)
(1.0050415 0.1586937 -5.4218403e-20)
(1.0609356 0.17613563 -9.2334208e-20)
(1.1047242 0.18941355 -3.1589824e-21)
(1.1374759 0.19855944 4.2127863e-20)
(1.1605873 0.20385857 -6.6056278e-21)
(1.1756247 0.2057702 -1.2868787e-20)
(1.1841776 0.2048492 1.9690809e-20)
(1.1877427 0.20167898 4.3880615e-20)
(1.1876453 0.19682589 -4.3859435e-20)
(1.1849953 0.19077885 -1.0232204e-19)
(1.180625 0.18377381 2.4566902e-20)
(0.073537214 -0.0034329734 -3.4979749e-20)
(0.21422687 -0.0039890252 -1.7388612e-19)
(0.35251656 0.011839376 8.2103237e-20)
(0.48562797 0.037018337 9.2767513e-20)
(0.61085379 0.066835552 5.7970567e-20)
(0.72576726 0.098481178 8.6107091e-21)
(0.82834801 0.12959696 -1.0624009e-19)
(0.91718996 0.15824269 0)
(0.99162743 0.18302814 -6.8748583e-20)
(1.0517521 0.20311207 -1.5202408e-20)
(1.0983384 0.21814861 5.4703462e-20)
(1.1327008 0.22821083 1.0973379e-20)
(1.1565109 0.23369261 -4.5613851e-20)
(1.1716067 0.23519947 -4.9081359e-20)
(1.1798203 0.23344336 2.4287678e-20)
(1.182845 0.22915324 4.4822887e-20)
(1.1821488 0.22300987 -5.5600404e-20)
(1.178936 0.21560823 -1.0751121e-19)
(1.1741468 0.20742225 -3.1513606e-21)
(1.1684567 0.19871882 2.7046401e-20)
(0.086650445 0.001961386 -3.5448984e-21)
(0.24696018 0.011816634 8.7913239e-20)
(0.39884739 0.037492309 -1.6479251e-20)
(0.54040464 0.071218381 -8.4309144e-20)
(0.66949901 0.10778893 4.516437e-20)
(0.78421951 0.14411543 4.9175455e-20)
(0.88318939 0.17775668 5.5356779e-21)
(0.96577869 0.2068849 -9.9502486e-20)
(1.0321763 0.23038802 -2.5048779e-21)
(1.0833328 0.24781553 5.0503539e-20)
(1.120807 0.25926301 5.9854751e-21)
(1.1465558 0.2652362 -1.9717207e-20)
(1.1627107 0.26650533 -7.5704623e-20)
(1.1713765 0.26396622 -6.2554016e-21)
(1.1744762 0.2585243 4.353335e-20)
(1.1736548 0.25101089 3.7022009e-20)
(1.1702383 0.24213396 1.9793439e-20)
(1.1652402 0.23245876 -5.2994837e-20)
(1.1594014 0.22240419 1.2957448e-20)
(1.1532251 0.212238 8.2659087e-20)
(-0.0012932614 0.0014346597 -1.1234455e-21)
(-0.0047459601 0.0031874147 2.0646968e-21)
(-0.010771358 0.0041359039 8.7949757e-22)
(-0.017754286 0.0045395358 -2.4411028e-21)
(-0.024740317 0.0045654164 -1.4114813e-21)
(-0.031299591 0.0043260384 1.5460007e-21)
(-0.037161325 0.003903538 -6.8700782e-21)
(-0.04214744 0.0033577216 -5.9573024e-21)
(-0.046157774 0.0027313811 1.1171994e-20)
(-0.049146187 0.0020548305 -9.7427462e-21)
(-0.051100652 0.0013493004 -1.983301e-22)
(-0.052030441 0.00062942196 3.6673435e-21)
(-0.051957735 -9.4889394e-05 -6.3295554e-22)
(-0.05091188 -0.00081693026 2.2818739e-20)
(-0.048925777 -0.0015318445 3.0401055e-22)
(-0.046035341 -0.0022351737 -4.0882865e-20)
(-0.042281798 -0.0029222677 7.5385614e-21)
(-0.037703444 -0.0035910381 2.3864107e-20)
(-0.032308696 -0.0042399861 -4.3852369e-20)
(-0.026156967 -0.0048211126 -2.7739201e-20)
(-0.0016521998 0.0041808661 -5.3716018e-21)
(-0.0053974808 0.0092681377 1.0865439e-20)
(-0.011218509 0.012007443 -1.0191541e-20)
(-0.017658025 0.013153763 3.9229716e-21)
(-0.023856431 0.013195412 4.8121411e-21)
(-0.029433316 0.012462724 7.1324152e-22)
(-0.034152319 0.011197013 -2.2509481e-20)
(-0.037860376 0.0095738965 -2.0370235e-21)
(-0.040474296 0.007718987 2.0163534e-20)
(-0.04195892 0.0057212303 -5.0473586e-21)
(-0.042308948 0.0036428646 -2.1762584e-20)
(-0.041537336 0.001526713 4.8973157e-21)
(-0.039667712 -0.00059830499 2.2635415e-20)
(-0.036729081 -0.0027127603 1.0308388e-20)
(-0.032752035 -0.0048026883 2.1854281e-20)
(-0.027769173 -0.0068555073 -1.9770724e-20)
(-0.021824799 -0.0088582183 -2.167294e-20)
(-0.014966276 -0.010804223 2.1184614e-20)
(-0.0071290246 -0.012678999 2.6810361e-20)
(0.0018742859 -0.014317221 1.5854762e-20)
(-0.0023034291 0.0065602323 -4.3568683e-21)
(-0.0065392235 0.014480195 -5.6387548e-21)
(-0.011892131 0.018710542 3.0723962e-22)
(-0.017211098 0.020428179 1.0959892e-21)
(-0.021819141 0.020400323 6.6918387e-21)
(-0.02543104 0.019151665 1.0665166e-20)
(-0.02787723 0.017066287 -3.7227624e-21)
(-0.029053268 0.014423782 -1.889616e-20)
(-0.028909036 0.011424352 6.5413154e-21)
(-0.02743105 0.008209905 1.2862566e-20)
(-0.024627714 0.0048797762 5.8340841e-21)
(-0.02052011 0.0015022391 1.81591e-20)
(-0.015135988 -0.0018768625 1.729591e-21)
(-0.0085054027 -0.0052272467 -3.386452e-20)
(-0.00065689847 -0.0085276086 1.2020172e-21)
(0.0083810094 -0.011759107 -2.2139205e-20)
(0.018556857 -0.014904094 -2.4466298e-20)
(0.029802168 -0.01795375 4.5819702e-20)
(0.042304948 -0.020855113 2.5349343e-20)
(0.056738552 -0.023247762 1.223936e-22)
(-0.0031290275 0.0083689696 -5.2833062e-21)
(-0.0078963985 0.018336512 -8.4815239e-21)
(-0.012438985 0.023587808 4.3593042e-21)
(-0.016026534 0.025609657 4.1463441e-21)
(-0.018235023 0.025382744 2.0105704e-21)
(-0.018912651 0.023589321 7.3209931e-21)
(-0.017984717 0.020730272 9.312475e-21)
(-0.01541671 0.017170377 -1.3511349e-21)
(-0.011207049 0.013171314 -1.1481943e-20)
(-0.0053752366 0.0089189317 -2.907187e-20)
(0.0020481065 0.0045434377 6.189242e-23)
(0.011026501 0.0001343119 4.069781e-20)
(0.021522215 -0.0042489496 -1.8383167e-20)
(0.033497838 -0.0085675831 -1.2296085e-20)
(0.046920496 -0.012795544 5.534892e-22)
(0.061760075 -0.016911852 3.2302636e-20)
(0.077952989 -0.020901666 -1.482954e-20)
(0.095392236 -0.024763371 -5.3339171e-20)
(0.11439842 -0.028379713 4.5764996e-20)
(0.13634534 -0.031073089 3.3013157e-20)
(-0.0039704094 0.0094657318 -6.8789002e-22)
(-0.0090916576 0.020487791 -1.2534738e-20)
(-0.012364471 0.026159086 -3.4144528e-20)
(-0.01355254 0.028143337 -5.7241602e-21)
(-0.01253324 0.027555006 -3.6222738e-21)
(-0.0093167251 0.025188063 6.3051018e-21)
(-0.0039456464 0.021627411 -4.6461945e-21)
(0.0035261255 0.017298959 -8.8070247e-21)
(0.013036817 0.012508752 2.1899704e-20)
(0.024521236 0.0074744433 5.0567062e-21)
(0.037915531 0.0023489052 -2.5290287e-20)
(0.053157436 -0.0027627825 1.1078276e-20)
(0.070186855 -0.0077908725 0)
(0.088946567 -0.0126913 1.2089572e-20)
(0.10938542 -0.017436916 -9.7016152e-21)
(0.13145739 -0.022009893 -1.4337116e-20)
(0.15507405 -0.026408641 -1.5738947e-21)
(0.18006757 -0.030659415 -2.2181548e-21)
(0.20685339 -0.034576528 4.6147051e-20)
(0.23766356 -0.037019861 -1.0470123e-20)
(-0.0046450977 0.0097808619 -7.5356668e-21)
(-0.0096772505 0.020747879 2.4516396e-20)
(-0.01106438 0.026160976 -1.0499344e-20)
(-0.0090968328 0.027724444 -2.7469275e-20)
(-0.0039797216 0.026601694 -2.754814e-20)
(0.0040961811 0.023648408 -1.4921565e-20)
(0.014954146 0.019496457 -6.9059616e-22)
(0.028436231 0.014604706 5.5499774e-21)
(0.044403141 0.0093034475 1.9615875e-20)
(0.062730489 0.0038284169 7.3530836e-21)
(0.083304306 -0.0016547532 -7.1862195e-21)
(0.10601896 -0.0070322361 -2.0102309e-21)
(0.13077356 -0.012229094 -3.8191699e-20)
(0.15746942 -0.017199749 -1.2693641e-20)
(0.18601198 -0.02191973 1.8750601e-20)
(0.21631175 -0.026379712 -2.1021668e-20)
(0.24823221 -0.030602217 -8.9730554e-21)
(0.28151865 -0.034670601 3.0440457e-20)
(0.31660701 -0.038364812 5.047206e-20)
(0.35665012 -0.039964091 3.3559663e-21)
(-0.0049617682 0.0093139983 1.6783301e-20)
(-0.009166269 0.019097709 1.4467936e-20)
(-0.0078593649 0.023563366 5.1145477e-20)
(-0.0018585402 0.024328943 2.3387977e-20)
(0.0082957214 0.022523783 1.8251771e-22)
(0.022221937 0.019014385 -3.9388447e-20)
(0.039597438 0.014440937 -2.4313853e-20)
(0.060147898 0.0092663606 1.0465815e-20)
(0.083639108 0.0038232298 1.4401583e-20)
(0.10986668 -0.001651297 -1.3113709e-20)
(0.13864562 -0.0069910068 -4.4038703e-20)
(0.16980169 -0.012082844 2.961849e-20)
(0.20316403 -0.016854155 2.0020546e-20)
(0.23855944 -0.02126399 -2.7551148e-20)
(0.27581228 -0.025296397 1.1650132e-20)
(0.31474808 -0.028957161 2.4197606e-20)
(0.35514543 -0.032303044 8.0723919e-21)
(0.39663384 -0.035506668 -1.1764209e-20)
(0.43957698 -0.038392632 -1.4190296e-20)
(0.48798506 -0.038634391 5.8727641e-21)
(-0.0047307761 0.008123673 1.1093844e-20)
(-0.0070586004 0.015671176 -2.3352716e-20)
(-0.0020293664 0.018562032 8.6200524e-21)
(0.0090325188 0.018216225 3.3587961e-20)
(0.025256359 0.01565115 5.2124326e-20)
(0.046066334 0.011695604 2.0276506e-20)
(0.070984517 0.0069609537 -5.8639334e-21)
(0.099601941 0.0018829533 -1.2286282e-20)
(0.13156893 -0.0032271955 -6.2057443e-21)
(0.16657566 -0.0081496541 3.4240826e-20)
(0.20433423 -0.012733316 -4.5104356e-21)
(0.24456483 -0.016879182 -1.6643295e-20)
(0.28698467 -0.02052868 -1.9693566e-20)
(0.33129995 -0.023656404 -4.7443721e-20)
(0.37720456 -0.026265523 2.3238695e-20)
(0.42438767 -0.02838785 -1.4095978e-20)
(0.4724997 -0.030127607 2.5993388e-20)
(0.52103614 -0.031783175 2.1040817e-20)
(0.57021391 -0.033350662 -8.5570382e-20)
(0.62470912 -0.032058821 -1.0807073e-22)
(-0.0037710519 0.0063146393 2.1925052e-20)
(-0.0028657666 0.010735096 -2.6165526e-20)
(0.0071421037 0.011564137 -4.5013287e-20)
(0.024450231 0.0099249905 -2.7253777e-20)
(0.047870847 0.0066523073 -2.0439866e-21)
(0.076628697 0.002490619 1.3050095e-20)
(0.11007672 -0.0020153927 -2.8337709e-21)
(0.14765205 -0.0064879007 1.8118534e-20)
(0.18886094 -0.010663499 8.8685607e-21)
(0.23325193 -0.014362416 -1.138017e-20)
(0.28039147 -0.017468943 8.8779079e-21)
(0.32984601 -0.019916798 -2.390326e-20)
(0.38116878 -0.021678688 8.0504724e-21)
(0.43389082 -0.022759863 1.6756384e-20)
(0.48751932 -0.023194288 -2.6395113e-21)
(0.54154713 -0.023046876 1.6618967e-21)
(0.59543542 -0.022469428 -3.1957465e-22)
(0.6485178 -0.021870086 1.9590412e-20)
(0.70082236 -0.021445041 4.0433991e-21)
(0.75745147 -0.018499058 -5.7334235e-22)
(-0.0019110144 0.0040273481 2.369211e-20)
(0.0038694293 0.0046765207 5.7159953e-20)
(0.020315309 0.0031879655 -4.9244216e-20)
(0.045178281 0.0002944279 -9.9454138e-21)
(0.076965147 -0.0034241494 2.0256345e-20)
(0.11469622 -0.0073535827 2.1433715e-21)
(0.15753882 -0.011054953 -2.9815158e-20)
(0.2047483 -0.014244134 6.9848105e-21)
(0.25564948 -0.016737922 7.1097846e-21)
(0.30960471 -0.018426949 -2.6254071e-20)
(0.36598646 -0.019260089 1.2927316e-21)
(0.42415956 -0.019231857 -3.71741e-20)
(0.48347099 -0.018372191 -3.6340999e-20)
(0.54324562 -0.016738263 6.5683452e-20)
(0.60278809 -0.014407287 5.5627463e-21)
(0.66138881 -0.011475882 -1.5188791e-20)
(0.71830781 -0.0081020272 1.9363954e-20)
(0.77269898 -0.0045928463 -9.1888092e-22)
(0.82408832 -0.00096802754 2.0364571e-20)
(0.87621963 0.0043280907 -1.9554134e-20)
(-0.018836425 -0.0050997018 5.8352029e-20)
(-0.010224666 -0.0056349248 1.5783658e-20)
(-0.00022120984 -0.0060688774 -3.513954e-20)
(0.010823207 -0.0063341067 1.6790229e-20)
(0.022642442 -0.0065120438 0)
(0.035177855 -0.0066300865 0)
(0.048369626 -0.0066909696 -2.2974936e-20)
(0.062138035 -0.0067025357 -1.6502861e-20)
(0.07641267 -0.00667417 1.9122585e-20)
(0.091134024 -0.0066126611 1.8174025e-20)
(0.10624712 -0.006523201 1.0524244e-21)
(0.12170016 -0.0064103531 -1.031763e-20)
(0.13744484 -0.0062780761 8.326877e-21)
(0.15343593 -0.0061297172 1.8233706e-20)
(0.16963069 -0.0059681398 -5.2274162e-21)
(0.18598846 -0.0057958292 -1.0174929e-20)
(0.20247049 -0.0056149565 -4.3195847e-21)
(0.21903974 -0.0054274309 -4.4257353e-21)
(0.23566079 -0.0052349443 7.3667123e-22)
(0.25229978 -0.0050390071 1.2286033e-21)
(0.26892437 -0.0048409744 2.5666301e-21)
(0.28550378 -0.0046420658 6.6539425e-21)
(0.3020088 -0.0044433805 2.4894359e-22)
(0.31841192 -0.0042459082 -3.4514682e-21)
(0.33468728 -0.0040505362 1.5558749e-22)
(0.35081082 -0.0038580561 -5.7709748e-22)
(0.36676027 -0.003669168 1.2434355e-21)
(0.38251523 -0.0034844841 1.0522429e-21)
(0.39805719 -0.0033045331 -1.2987923e-21)
(0.41336951 -0.003129763 -1.2218728e-22)
(0.42843747 -0.0029605457 3.5749838e-23)
(0.44324822 -0.0027971814 -3.5187549e-22)
(0.45779075 -0.0026399031 -4.0565369e-22)
(0.47205588 -0.002488882 5.5412971e-23)
(0.4860362 -0.0023442334 -1.3809012e-22)
(0.49972601 -0.0022060229 -2.2343124e-22)
(0.51312129 -0.0020742725 2.5571868e-22)
(0.5262197 -0.0019489678 2.9501897e-22)
(0.53902043 -0.0018300672 -8.2711705e-24)
(0.5515246 -0.0017175052 -1.5517338e-22)
(0.56373418 -0.0016112209 3.0406493e-23)
(0.57565574 -0.0015111138 -4.0144565e-23)
(0.58728948 -0.001417255 9.2203086e-23)
(0.59866439 -0.0013293082 2.1977102e-23)
(0.60973485 -0.0012485568 -1.139442e-22)
(0.62069287 -0.0011717916 -6.7611637e-24)
(0.63106083 -0.0011112426 -7.2420809e-26)
(0.64234932 -0.0010339458 -3.5610546e-24)
(0.65042725 -0.001050803 2.9453731e-23)
(0.66700807 -0.00087555676 3.6050599e-22)
(0.010445863 -0.015017607 -1.2746815e-20)
(0.018179691 -0.016641009 -6.3302313e-20)
(0.027779208 -0.017915411 -3.0541934e-20)
(0.038385136 -0.018672069 3.8476006e-20)
(0.049620976 -0.019183586 1.4662608e-20)
(0.061506616 -0.01952943 -1.8204924e-20)
(0.074012806 -0.019709862 4.6722016e-21)
(0.087062653 -0.019746489 2.5447182e-20)
(0.10059312 -0.019667278 9.1991995e-23)
(0.11455399 -0.019491697 -7.6591236e-21)
(0.12889715 -0.019234356 -1.3021012e-20)
(0.14357598 -0.018908308 -8.5245292e-21)
(0.15854661 -0.018524969 1.777233e-20)
(0.17376751 -0.018093996 8.9295453e-21)
(0.18919894 -0.017623675 -1.6522432e-20)
(0.20480271 -0.017121227 -6.0390567e-21)
(0.22054208 -0.016592992 3.2145037e-21)
(0.23638168 -0.016044565 8.3716298e-21)
(0.25228746 -0.015480926 6.9832254e-21)
(0.26822665 -0.014906536 -6.9727145e-21)
(0.28416785 -0.014325408 -3.1685458e-21)
(0.30008101 -0.013741169 1.3605338e-21)
(0.31593756 -0.013157093 3.8682817e-22)
(0.33171043 -0.012576135 1.2113949e-21)
(0.34737418 -0.012000952 1.8368352e-22)
(0.362905 -0.011433918 -3.2661613e-22)
(0.37828083 -0.010877135 -7.2434832e-22)
(0.39348139 -0.010332447 9.7156524e-22)
(0.40848819 -0.0098014487 8.2482894e-22)
(0.42328457 -0.0092854953 -1.5147323e-22)
(0.43785571 -0.0087857157 5.5306025e-22)
(0.45218861 -0.0083030244 -2.38809e-22)
(0.46627207 -0.0078381358 -3.7069845e-22)
(0.48009663 -0.0073915804 -6.0999021e-22)
(0.49365458 -0.0069637212 4.4171693e-22)
(0.50693988 -0.006554772 -1.5476808e-23)
(0.51994815 -0.0061648174 1.6124685e-22)
(0.53267662 -0.0057938326 -4.4174673e-22)
(0.54512405 -0.0054417108 3.7189407e-22)
(0.55729112 -0.0051082736 6.7175108e-23)
(0.5691793 -0.0047933562 -1.0285386e-22)
(0.58079469 -0.0044966748 1.7613619e-22)
(0.59213702 -0.0042184582 2.3339529e-22)
(0.60323455 -0.0039577168 1.6926373e-22)
(0.61404184 -0.003718296 1.6767066e-22)
(0.62474802 -0.0034906404 -2.6097723e-23)
(0.63488187 -0.0033111991 8.404266e-23)
(0.64593101 -0.0030818564 7.6290563e-23)
(0.65382941 -0.0031323439 -1.9466324e-22)
(0.67009124 -0.0026124263 -3.8026701e-23)
(0.067614674 -0.024029142 9.4528277e-21)
(0.073589654 -0.026749044 3.2950983e-21)
(0.082265489 -0.028805563 -1.2162195e-20)
(0.0919478 -0.029968498 -1.2257887e-21)
(0.10198319 -0.030767858 1.4970584e-20)
(0.11254631 -0.031330885 -1.4887117e-20)
(0.12367594 -0.031636063 -2.9842263e-20)
(0.13529679 -0.031712998 1.4493519e-20)
(0.14735692 -0.031607628 1.8181963e-20)
(0.15982339 -0.031350047 -1.1598514e-20)
(0.17266056 -0.030961811 1.019055e-21)
(0.18583077 -0.030462744 8.6860122e-21)
(0.19929779 -0.029870542 -1.5253538e-20)
(0.21302652 -0.029200229 2.9095161e-21)
(0.22698238 -0.02846475 7.5194341e-21)
(0.24113135 -0.027675495 3.1597333e-23)
(0.2554401 -0.026842548 2.6556362e-22)
(0.269876 -0.025974886 -7.415084e-21)
(0.28440726 -0.025080554 3.861682e-21)
(0.29900293 -0.024166809 8.4749024e-21)
(0.31363307 -0.023240223 -3.8351749e-21)
(0.32826885 -0.022306763 -2.2130359e-21)
(0.34288264 -0.021371845 1.0124436e-21)
(0.35744813 -0.020440376 -1.7155318e-21)
(0.37194041 -0.019516783 1.353225e-21)
(0.38633611 -0.018605036 7.1845893e-22)
(0.40061341 -0.017708664 1.5268377e-21)
(0.41475214 -0.016830773 -1.9526603e-21)
(0.42873382 -0.015974058 2.2235663e-21)
(0.44254166 -0.015140822 5.5188489e-22)
(0.45616063 -0.014332993 4.0322478e-22)
(0.46957737 -0.013552147 3.2134451e-22)
(0.48278028 -0.012799527 8.732487e-22)
(0.49575939 -0.012076072 -1.3708583e-21)
(0.5085064 -0.011382443 3.7065492e-22)
(0.52101462 -0.010719053 1.0941225e-22)
(0.53327895 -0.010086102 -4.5172034e-23)
(0.54529585 -0.0094836053 8.6732907e-23)
(0.55706328 -0.0089114434 -3.7184868e-22)
(0.56858105 -0.008369376 1.8293432e-22)
(0.57984977 -0.007857184 -3.4987046e-23)
(0.59087457 -0.007374449 3.900399e-22)
(0.60165439 -0.0069216002 -1.8544327e-22)
(0.6122161 -0.0064970493 4.7323245e-23)
(0.62251457 -0.0061071848 4.3603218e-23)
(0.63273353 -0.0057363195 -7.359877e-23)
(0.64241392 -0.0054443932 -1.2082315e-22)
(0.6529994 -0.005070486 3.8808744e-22)
(0.66054942 -0.0051542295 1.7270387e-22)
(0.67619298 -0.0043069947 -8.3039552e-22)
(0.15021526 -0.031460422 1.5010124e-21)
(0.15354687 -0.035257388 -1.1566612e-20)
(0.1606162 -0.038010912 6.6441989e-21)
(0.16880588 -0.03947909 -1.3324737e-20)
(0.17698221 -0.040520681 -1.9758299e-21)
(0.18552343 -0.041302271 9.1599403e-21)
(0.19458416 -0.041757227 -9.7662195e-21)
(0.20408688 -0.0419137 1.5662763e-21)
(0.21398764 -0.04183332 1.2903797e-20)
(0.22427595 -0.041554324 3.4031991e-21)
(0.2349325 -0.041102034 -6.2096944e-21)
(0.24593017 -0.040500438 -2.8638095e-21)
(0.25724154 -0.039771737 -5.840904e-21)
(0.26883907 -0.038935044 -6.4553127e-21)
(0.28069418 -0.038006964 3.2356914e-21)
(0.29277757 -0.037002291 8.4621023e-22)
(0.30505969 -0.035934313 1.3679577e-21)
(0.31751093 -0.03481501 -3.3850411e-21)
(0.33010189 -0.033655237 -4.2428847e-21)
(0.34280355 -0.032464883 2.3616501e-21)
(0.35558749 -0.031252985 3.2251344e-21)
(0.36842605 -0.030027803 -1.5636187e-21)
(0.38129252 -0.028796889 1.5867261e-21)
(0.39416124 -0.02756712 -3.9123957e-22)
(0.40700782 -0.026344731 -3.9196385e-21)
(0.41980914 -0.02513534 -3.0332803e-21)
(0.43254353 -0.023943964 -1.9026252e-22)
(0.44519079 -0.022775036 4.285894e-22)
(0.45773226 -0.021632428 -2.2106022e-21)
(0.47015088 -0.020519464 -8.5497052e-22)
(0.48243116 -0.019438952 2.2837643e-22)
(0.49455923 -0.018393207 -1.2498669e-21)
(0.50652281 -0.017384084 6.2632756e-24)
(0.5183112 -0.016413012 -4.2420802e-22)
(0.52991526 -0.015481033 -4.7193574e-22)
(0.54132738 -0.014588845 -5.1995543e-22)
(0.55254144 -0.013736842 -8.4132879e-22)
(0.56355287 -0.012925164 -5.4496407e-23)
(0.5743585 -0.012153758 -3.9160383e-24)
(0.58495697 -0.011422401 -5.1972164e-22)
(0.59534771 -0.010730897 -9.1607162e-23)
(0.60553456 -0.010078769 -3.3239219e-22)
(0.61551536 -0.0094667101 -4.3759681e-22)
(0.62531509 -0.0088926214 3.7841506e-22)
(0.63488914 -0.0083653878 1.482088e-23)
(0.64441356 -0.0078635639 1.8237434e-22)
(0.6534468 -0.0074693211 -1.3246518e-22)
(0.66336936 -0.0069629312 -2.6690796e-22)
(0.67042142 -0.0070791289 -4.4693496e-23)
(0.68517826 -0.0059326609 4.6229396e-22)
(0.25468562 -0.036552746 -2.0900312e-20)
(0.25447016 -0.041393496 4.7585954e-20)
(0.25907328 -0.044745643 1.0348093e-20)
(0.26508407 -0.046442027 -1.5765308e-20)
(0.27070926 -0.047714298 -2.0227994e-21)
(0.27651988 -0.048747758 2.6232208e-21)
(0.28283542 -0.0494137 -1.6608204e-21)
(0.28957682 -0.049728081 -4.6861415e-21)
(0.29669649 -0.049761411 -4.0159159e-21)
(0.30420538 -0.049557033 -1.2207636e-20)
(0.31210208 -0.049141667 1.7897751e-20)
(0.32036927 -0.048540782 6.5219895e-21)
(0.32898689 -0.047778944 -1.6780521e-20)
(0.33793391 -0.046877998 1.0317572e-20)
(0.34718695 -0.045857279 8.3849901e-21)
(0.35672062 -0.044734292 -8.7923707e-22)
(0.36650831 -0.043525046 -3.1222228e-21)
(0.37652275 -0.042244227 -3.8197302e-21)
(0.38673626 -0.040905338 -1.3892572e-21)
(0.39712115 -0.039520831 -1.2304185e-21)
(0.40764993 -0.038102199 -3.025759e-21)
(0.41829562 -0.036660047 0)
(0.42903196 -0.035204132 -1.3451903e-21)
(0.43983355 -0.0337434 3.9309494e-21)
(0.45067606 -0.032286005 5.4052635e-21)
(0.4615363 -0.030839331 -9.4112528e-22)
(0.47239239 -0.029410005 -2.9274409e-21)
(0.48322378 -0.028003912 3.025835e-21)
(0.49401137 -0.02662622 2.5447524e-22)
(0.5047375 -0.025281403 3.4352412e-21)
(0.51538601 -0.023973265 -5.3459715e-22)
(0.52594223 -0.022704982 1.7173447e-21)
(0.536393 -0.021479137 -7.9964228e-22)
(0.54672663 -0.020297764 2.9094033e-22)
(0.55693293 -0.019162401 -4.3403816e-22)
(0.56700315 -0.018074136 5.6231529e-22)
(0.57692997 -0.01703367 4.5709735e-22)
(0.58670754 -0.016041371 3.8255461e-22)
(0.59633139 -0.015097357 -9.5935851e-22)
(0.60579878 -0.014201523 6.835515e-22)
(0.61510776 -0.013353789 -3.6957197e-22)
(0.62426067 -0.012553716 -1.1033125e-21)
(0.63325408 -0.011802336 1.407808e-21)
(0.64211072 -0.011097154 -6.2005434e-23)
(0.65078676 -0.010449475 -1.5815849e-22)
(0.65944869 -0.0098325991 -7.8243714e-24)
(0.66767717 -0.0093492125 -1.2621373e-22)
(0.67677298 -0.0087261704 -4.6581899e-22)
(0.68320481 -0.0088736057 8.7882941e-22)
(0.69685019 -0.0074648588 -4.4315493e-23)
(0.37635124 -0.038368151 -1.7495097e-20)
(0.37170971 -0.044270213 1.2832046e-20)
(0.37286684 -0.048161595 2.9754647e-21)
(0.37591039 -0.050098832 -7.6353666e-21)
(0.3783052 -0.051669951 1.2055977e-20)
(0.38072287 -0.053042352 7.791411e-21)
(0.38367594 -0.054030018 -1.2647692e-20)
(0.3871005 -0.05463308 -6.0679762e-21)
(0.39092916 -0.054917981 1.2697337e-20)
(0.39518235 -0.05492711 -1.5304973e-20)
(0.39987416 -0.05468749 -1.4063188e-20)
(0.40499498 -0.054224627 1.4129633e-20)
(0.41052852 -0.053563633 6.819383e-21)
(0.41645708 -0.052727922 -4.203766e-21)
(0.42276004 -0.051738989 -1.8545607e-21)
(0.42941392 -0.050616722 -4.0581712e-21)
(0.43639336 -0.049379674 5.3047592e-21)
(0.44367184 -0.048045199 3.6682084e-21)
(0.45122212 -0.046629519 -3.2408292e-21)
(0.45901666 -0.045147786 3.1379482e-21)
(0.46702794 -0.043614129 2.7666793e-21)
(0.47522877 -0.042041697 -3.2111122e-21)
(0.48359253 -0.040442671 3.7056555e-22)
(0.4920934 -0.038828286 -3.2571637e-21)
(0.50070648 -0.037208834 7.2454107e-21)
(0.50940796 -0.035593675 6.1080569e-21)
(0.51817526 -0.033991248 8.0973095e-22)
(0.52698705 -0.03240909 -1.7683222e-21)
(0.53582335 -0.03085385 3.702174e-21)
(0.5446656 -0.029331323 7.1885133e-21)
(0.55349664 -0.027846483 2.3049293e-21)
(0.56230074 -0.026403522 3.3164831e-21)
(0.57106362 -0.025005904 1.9956189e-21)
(0.57977241 -0.023656412 7.4557835e-22)
(0.58841566 -0.022357217 -2.6374534e-22)
(0.59698334 -0.021109931 2.7203079e-21)
(0.60546679 -0.019915688 6.1992075e-22)
(0.61385878 -0.018775207 2.9487716e-22)
(0.62215341 -0.01768889 5.6232373e-23)
(0.63034648 -0.016656864 9.8966251e-22)
(0.63843459 -0.015679274 4.7019981e-23)
(0.64641847 -0.014755818 4.4247258e-22)
(0.65429341 -0.013887951 -1.2621748e-22)
(0.66207965 -0.013072905 -2.7734681e-22)
(0.66973449 -0.012324308 -1.521854e-22)
(0.67741335 -0.011610791 -4.2207583e-22)
(0.68472314 -0.01105349 1.6139111e-22)
(0.69287132 -0.01033228 -1.2723499e-22)
(0.69859414 -0.010509377 -5.0126414e-22)
(0.71095647 -0.0088817038 2.4586836e-22)
(0.50927423 -0.035974259 3.6471433e-21)
(0.49953032 -0.042960638 -1.8958288e-20)
(0.49627548 -0.047383434 -2.3083854e-21)
(0.49555583 -0.049736737 5.4869423e-21)
(0.49416943 -0.051818 3.052812e-21)
(0.49269563 -0.053705365 -4.9890775e-23)
(0.49181218 -0.055187601 6.1896653e-21)
(0.49151439 -0.056265349 7.6251013e-21)
(0.49171154 -0.056990481 9.8580376e-21)
(0.49241059 -0.05739552 -1.125004e-20)
(0.49363091 -0.057506246 -2.157942e-20)
(0.49536764 -0.057348359 -3.935347e-21)
(0.49760453 -0.056947071 1.5938141e-20)
(0.50032287 -0.056326948 1.2808957e-20)
(0.5035015 -0.05551167 -5.9066946e-21)
(0.50711636 -0.054523781 1.3817047e-21)
(0.51114123 -0.053384717 -3.6600829e-21)
(0.51554858 -0.05211487 2.244374e-21)
(0.52031011 -0.050733576 -2.9123016e-22)
(0.52539716 -0.049259092 -1.865409e-21)
(0.53078107 -0.047708586 7.8265859e-21)
(0.53643345 -0.046098135 -2.9308756e-22)
(0.54232651 -0.044442712 4.181809e-22)
(0.54843319 -0.042756184 -6.5646654e-22)
(0.5547274 -0.041051303 -4.3029362e-21)
(0.56118409 -0.039339706 4.2085137e-21)
(0.56777943 -0.037631925 1.9031211e-21)
(0.57449085 -0.0359374 -3.30819e-21)
(0.58129711 -0.034264503 -4.1116413e-21)