/*--------------------------------*- C++ -*----------------------------------*\
  =========                 |
  \\      /  F ield         | OpenFOAM: The Open Source CFD Toolbox
   \\    /   O peration     | Website:  https://openfoam.org
    \\  /    A nd           | Version:  6
     \\/     M anipulation  |
\*---------------------------------------------------------------------------*/
FoamFile
{
    version     2.0;
    format      ascii;
    class       volSymmTensorField;
    location    "317";
    object      UPrime2Mean;
}
// * * * * * * * * * * * * * * * * * * * * * * * * * * * * * * * * * * * * * //

dimensions      [0 2 -2 0 0 0 0];

internalField   nonuniform List<symmTensor> 
9200
(
(6.2636988e-05 -4.8619172e-05 2.2655546e-22 3.901564e-05 -1.2107202e-22 3.6700945e-39)
(0.00038671163 -0.00030952888 5.8262562e-22 0.00024870584 -4.3475449e-22 3.992991e-39)
(0.00078317665 -0.00060698139 6.9575963e-23 0.00047321548 -5.2775529e-23 2.1890356e-39)
(0.0012367516 -0.00089481989 -8.8025394e-22 0.0006548229 6.1835382e-22 4.3650697e-39)
(0.0016856535 -0.0011514373 4.3097269e-23 0.00080037505 -3.5337744e-23 6.3987072e-40)
(0.002098938 -0.0013652644 3.7268023e-22 0.00090964042 -2.4672599e-22 1.0125024e-40)
(0.0024549636 -0.0015321177 -8.1460745e-23 0.00098628382 5.5953312e-23 2.8996161e-40)
(0.0027360749 -0.0016520771 7.3996085e-23 0.0010365158 -4.9424639e-23 1.9528721e-40)
(0.0029298054 -0.0017272872 3.6195134e-22 0.0010663201 -2.1897261e-22 5.5730723e-40)
(0.0030293705 -0.0017609844 2.8224724e-23 0.0010807933 -1.7157384e-23 1.5910709e-42)
(0.0030337649 -0.001757043 -3.9235917e-22 0.0010841505 2.4004576e-22 2.9962205e-40)
(0.0029477669 -0.0017196934 3.2948022e-22 0.0010797725 -2.0891781e-22 4.1508915e-41)
(0.0027815936 -0.001653343 -5.8848949e-22 0.0010702816 3.9405916e-22 6.4197846e-40)
(0.0025500659 -0.0015624679 -2.9954943e-22 0.0010576462 2.0446379e-22 4.1596351e-41)
(0.0022713025 -0.0014515428 7.7890479e-23 0.0010432967 -5.7277367e-23 5.2770952e-42)
(0.0019650569 -0.001324979 -2.947568e-22 0.0010282378 2.2858147e-22 5.5900683e-41)
(0.0016508296 -0.0011870683 2.5998818e-22 0.0010132082 -2.183473e-22 6.76253e-41)
(0.0013459602 -0.0010420047 1.9482386e-22 0.00099921329 -1.7122323e-22 2.7252198e-40)
(0.0010652737 -0.00089368981 -6.2556688e-24 0.00098757521 1.3654934e-23 5.0049427e-41)
(0.00082523727 -0.00074480316 -3.3027462e-24 0.00096843984 1.1985127e-23 6.203891e-41)
(8.2695557e-05 -5.5278309e-05 2.3573499e-23 3.7944971e-05 -9.0104543e-24 6.459468e-41)
(0.00049352177 -0.00034201073 6.1700666e-22 0.00023774687 -4.0134036e-22 4.258786e-39)
(0.00098288539 -0.00066081503 -1.9907253e-22 0.00044684346 1.3358111e-22 2.3130436e-39)
(0.0015093811 -0.00095645416 -1.5807271e-21 0.00061297133 9.8712597e-22 1.010168e-38)
(0.0020011265 -0.0012087554 -5.5458346e-23 0.00074331669 3.502375e-23 1.2743332e-40)
(0.0024220865 -0.0014074822 1.2263396e-21 0.00083893225 -7.2229241e-22 3.3437415e-39)
(0.0027497087 -0.0015507549 -5.0571705e-22 0.00090460908 2.9467956e-22 1.151899e-40)
(0.0029692814 -0.0016413025 -1.5288122e-22 0.00094710047 8.8310349e-23 4.1118672e-41)
(0.0030743604 -0.0016837696 5.8264281e-22 0.00097257578 -3.3850642e-22 3.1466544e-40)
(0.0030666157 -0.0016835862 -7.0893261e-22 0.00098607764 4.1857136e-22 3.6185993e-40)
(0.0029551995 -0.0016464501 -5.0476519e-22 0.0009915625 3.0543815e-22 4.4588621e-40)
(0.0027557567 -0.0015780278 1.0949335e-21 0.00099197952 -6.8899611e-22 2.26854e-39)
(0.0024888851 -0.0014838019 5.1193618e-22 0.00098937628 -3.4282889e-22 1.6009856e-40)
(0.0021780738 -0.0013690193 -8.1077978e-22 0.00098502567 5.7960471e-22 7.8829039e-40)
(0.0018473561 -0.0012386882 1.4641672e-22 0.00097954999 -1.1280984e-22 6.5495509e-41)
(0.0015190014 -0.0010975853 -3.266531e-22 0.00097302975 2.8198267e-22 1.7549111e-40)
(0.0012115439 -0.00095025454 -1.3522868e-22 0.00096512854 1.3755551e-22 5.5037273e-41)
(0.00093836902 -0.00080091683 4.1948145e-22 0.00095526187 -4.63912e-22 8.9071886e-40)
(0.00070771977 -0.00065298584 2.0005417e-22 0.00094167807 -2.6342976e-22 1.7011851e-40)
(0.00052533979 -0.00050983837 -8.7237331e-23 0.0009154431 1.0761971e-22 1.2684565e-39)
(0.00010536463 -6.0020788e-05 -1.9852871e-22 3.4956437e-05 8.4495955e-23 1.6594567e-39)
(0.00060756383 -0.00036102921 -3.3139969e-22 0.00021510193 1.8410524e-22 1.7298207e-39)
(0.0011884029 -0.00068701051 -3.7730248e-22 0.00039948551 2.1985059e-22 4.3238568e-39)
(0.0017767374 -0.00097720482 1.2665189e-23 0.00054382972 -6.9557765e-24 4.6958699e-43)
(0.0022921256 -0.0012140034 1.2596119e-23 0.00065544415 -6.0379647e-24 3.1068861e-39)
(0.0026960413 -0.0013896325 4.2955068e-22 0.00073662563 -2.2870608e-22 8.689662e-40)
(0.002968834 -0.0015051561 4.2362203e-23 0.00079287165 -2.1059149e-23 3.5967329e-40)
(0.0031031637 -0.0015660721 -7.3399013e-22 0.00083089365 3.9306314e-22 2.3055617e-40)
(0.0031029925 -0.0015792763 8.7149853e-22 0.00085645247 -4.7821384e-22 4.3531903e-40)
(0.002982122 -0.001551875 2.8773508e-22 0.00087397433 -1.6561179e-22 4.7608292e-40)
(0.0027621555 -0.0014907089 -7.9518825e-22 0.00088664762 4.7779243e-22 9.8576646e-40)
(0.0024699713 -0.0014021599 -2.5064824e-22 0.00089655192 1.6124956e-22 3.2162058e-40)
(0.00213475 -0.0012921434 9.0080975e-23 0.00090481176 -6.2400929e-23 8.7014922e-40)
(0.0017848735 -0.0011661991 2.1885879e-22 0.00091176893 -1.6817759e-22 1.2566797e-40)
(0.0014451549 -0.0010295935 -7.7252845e-23 0.00091715741 6.6224214e-23 9.5849702e-41)
(0.0011348162 -0.00088737413 1.7993222e-22 0.00092027808 -1.7809304e-22 7.6476436e-41)
(0.0008664672 -0.00074435144 -1.2429549e-22 0.00092017187 1.4480672e-22 2.9502498e-41)
(0.00064610704 -0.00060497094 -2.5574832e-22 0.0009157283 3.494786e-22 7.1289244e-40)
(0.00047410646 -0.00047299041 -9.52121e-24 0.00090548136 1.0115447e-23 6.3844292e-40)
(0.00034729763 -0.00035190637 8.9428289e-23 0.0008863189 -1.9042465e-22 7.384213e-41)
(0.00012988719 -6.2146874e-05 -1.5773503e-22 3.0315392e-05 5.8118098e-23 8.2416953e-40)
(0.00072300877 -0.00036340825 2.4295446e-22 0.00018311019 -1.1916334e-22 1.5416794e-40)
(0.0013874054 -0.00068107076 2.1545829e-22 0.00033642661 -1.0620399e-22 1.7810736e-40)
(0.0020206517 -0.00095323857 4.6968361e-22 0.00045552839 -2.2414051e-22 1.920328e-39)
(0.0025366255 -0.0011658392 4.1408532e-22 0.00054751402 -1.9652979e-22 8.5436275e-40)
(0.0028983641 -0.0013143305 -7.3042687e-22 0.00061557122 3.4663754e-22 6.532119e-40)
(0.0030939557 -0.0014027344 -4.0955554e-22 0.00066525778 1.9775245e-22 1.8599623e-40)
(0.0031281198 -0.0014387269 0 0.0007025637 0 0)
(0.0030189167 -0.0014305417 4.4928953e-22 0.00073223877 -2.4328959e-22 2.3937055e-39)
(0.0027942375 -0.0013859307 -1.9594582e-22 0.00075758686 1.1505651e-22 9.0674719e-40)
(0.0024878502 -0.0013119081 -1.1531387e-21 0.00078062443 6.8517039e-22 8.089221e-40)
(0.0021352475 -0.001214804 -1.4788512e-22 0.0008022621 9.2843389e-23 1.6211434e-40)
(0.0017696752 -0.0011004672 5.7281752e-22 0.00082251095 -4.24037e-22 1.0938384e-39)
(0.0014188868 -0.00097447111 3.1561235e-23 0.00084071189 -2.0654047e-23 4.5100756e-40)
(0.0011030914 -0.00084221376 -8.9262113e-24 0.00085577756 8.6786122e-24 3.1845875e-43)
(0.00083429648 -0.0007088705 9.6405735e-23 0.00086644191 -1.1062833e-22 5.6057378e-41)
(0.00061694186 -0.00057921879 2.0609142e-25 0.0008714826 2.283404e-24 6.5302066e-41)
(0.00044945926 -0.00045739626 -1.7239618e-22 0.00086982987 2.8737184e-22 1.7243028e-40)
(0.00032620193 -0.00034664371 -9.6396289e-23 0.00086095872 2.0025454e-22 1.197603e-40)
(0.00023951705 -0.00024936034 4.9538969e-23 0.00084604438 -1.4757514e-22 7.4420544e-40)
(0.00015514522 -6.1057419e-05 1.1930553e-22 2.4456533e-05 -3.8014592e-23 3.2421811e-40)
(0.00083259867 -0.0003470727 4.9726112e-22 0.00014503798 -1.9833711e-22 2.9211465e-39)
(0.0015659209 -0.00064105776 3.9387859e-22 0.00026429529 -1.6219579e-22 1.8540505e-40)
(0.0022224754 -0.00088467462 4.3768593e-22 0.00035746186 -1.7872485e-22 1.0276549e-39)
(0.0027147655 -0.0010679728 -6.7513168e-22 0.00043101389 2.786863e-22 1.6195354e-39)
(0.0030125501 -0.0011897161 2.6469403e-23 0.00048845518 -8.51539e-24 1.5405423e-40)
(0.0031166958 -0.0012560521 3.8875449e-23 0.00053469257 -1.6893959e-23 1.2997043e-42)
(0.0030477761 -0.0012754978 5.5456824e-22 0.00057439452 -2.5747365e-22 5.7956816e-40)
(0.0028396962 -0.0012562033 7.5134473e-23 0.00061084558 -3.7015511e-23 5.2361577e-42)
(0.0025336887 -0.0012053346 -2.0248923e-22 0.0006458991 1.142225e-22 3.1332333e-40)
(0.0021725058 -0.0011292078 6.6080781e-22 0.00068018028 -4.0798518e-22 2.1864331e-39)
(0.0017953027 -0.0010336353 -4.8211014e-22 0.000713313 3.1633625e-22 1.8996416e-40)
(0.0014337898 -0.00092425483 -9.1222977e-22 0.00074418492 7.0866583e-22 1.3461556e-39)
(0.0011101128 -0.00080667743 -3.0312275e-23 0.00077124842 2.7723724e-23 2.8438184e-42)
(0.00083656368 -0.00068639824 3.2816261e-22 0.00079283664 -3.6450189e-22 1.0865089e-39)
(0.00061681796 -0.00056852046 0 0.00080746725 0 0)
(0.00044812727 -0.00045740355 4.1279684e-23 0.00081406592 -5.92355e-23 2.8257004e-41)
(0.00032381821 -0.00035637217 -2.1034389e-23 0.00081201553 4.5548727e-23 4.2007973e-41)
(0.00023544882 -0.00026758688 -2.1169712e-23 0.00080170979 4.6001455e-23 1.1072917e-41)
(0.0001744199 -0.00019202277 1.0356815e-23 0.00078649065 -4.3124242e-23 7.5496124e-41)
(0.00017977197 -5.6391257e-05 2.6097086e-22 1.7989868e-05 -6.724265e-23 1.3111569e-39)
(0.00092864256 -0.00031170527 2.5745888e-23 0.00010491634 -8.4506274e-24 2.4278123e-42)
(0.0017105561 -0.0005685376 -7.3977131e-23 0.00019059406 2.4973566e-23 1.0751498e-41)
(0.0023664545 -0.00077642084 7.6994424e-23 0.00025951684 -2.4745539e-23 2.1235989e-40)
(0.0028129111 -0.00092944946 -4.6558293e-22 0.00031713172 1.631137e-22 3.9856033e-40)
(0.0030318573 -0.0010288313 -2.2455158e-22 0.00036663926 8.1611383e-23 3.6084002e-41)
(0.0030410192 -0.0010811602 1.6034241e-22 0.00041173719 -4.912029e-23 1.1346925e-39)
(0.0028785469 -0.0010939516 -5.7644416e-24 0.0004554292 6.5361757e-24 8.875665e-41)
(0.0025931874 -0.0010737456 -3.8149882e-22 0.00049934265 1.8883597e-22 9.3912068e-40)
(0.0022359988 -0.001026137 6.6360795e-22 0.00054378208 -3.4373384e-22 2.7847643e-40)
(0.0018535291 -0.00095632058 -1.8103539e-23 0.00058795523 2.5098133e-23 4.8754206e-40)
(0.0014830226 -0.000869582 -5.3020575e-22 0.00063025313 3.8345392e-22 1.347953e-39)
(0.0011500384 -0.0007715039 0 0.00066859833 0 0)
(0.00086843185 -0.00066782075 1.3039008e-22 0.00070083402 -1.4671581e-22 7.2196875e-40)
(0.00064216259 -0.00056401008 6.762783e-24 0.00072509807 -1.3891867e-23 3.9494203e-41)
(0.00046810519 -0.00046480043 -1.5910676e-22 0.0007401227 2.4809701e-22 8.4024885e-40)
(0.00033903086 -0.00037377106 -3.6041859e-23 0.0007453776 6.4083437e-23 1.7630713e-41)
(0.00024614674 -0.0002931714 -1.1196758e-23 0.00074099319 2.998845e-23 2.817418e-41)
(0.00018079894 -0.00022402478 -1.457306e-23 0.00072819475 4.0465849e-23 1.1002557e-41)
(0.00013535024 -0.00016626598 2.6461992e-23 0.00071105789 -9.9210213e-23 1.0496714e-40)
(0.00020230469 -4.8115361e-05 1.0056869e-22 1.1640539e-05 -1.93505e-23 2.0764217e-40)
(0.0010040074 -0.00025897506 -7.2301798e-22 6.7036809e-05 1.8193092e-22 4.5154418e-39)
(0.0018103209 -0.00046855362 -6.3346616e-23 0.00012267913 1.8010908e-23 4.2162617e-40)
(0.0024419666 -0.00063753215 -1.9198481e-22 0.00017068853 5.6616761e-23 2.1205304e-39)
(0.0028255303 -0.000763118 -1.4608717e-22 0.00021522376 4.0489616e-23 2.9384251e-41)
(0.0029597643 -0.00084716184 -8.2758232e-22 0.00025875577 2.5599613e-22 3.8987303e-40)
(0.002881266 -0.0008944845 -4.0645762e-22 0.00030357017 1.4281856e-22 3.1361142e-40)
(0.0026447393 -0.00090973663 7.8889806e-22 0.0003510193 -2.9630981e-22 2.5512373e-40)
(0.002310106 -0.00089670755 1.3544364e-22 0.00040115638 -6.9355391e-23 3.2145635e-40)
(0.001932936 -0.00085901791 -1.7420702e-22 0.00045283109 7.8829754e-23 1.1013692e-40)
(0.001558021 -0.00080086073 8.1331057e-23 0.00050395156 -3.0002562e-23 4.1244881e-40)
(0.0012162995 -0.00072730625 -1.5964302e-23 0.00055186205 2.0664574e-23 1.0454526e-40)
(0.00092486489 -0.00064409304 0 0.00059381012 0 0)
(0.00068924222 -0.00055704488 8.7735756e-23 0.00062741639 -9.0492945e-23 2.5540973e-41)
(0.00050681508 -0.00047137675 -1.8748321e-22 0.00065104635 2.4236166e-22 3.4668434e-40)
(0.00037034371 -0.00039114294 -6.1015574e-23 0.00066401158 9.2441816e-23 3.0015783e-41)
(0.00027085196 -0.00031896844 1.0626376e-22 0.00066654917 -2.0960264e-22 4.1333653e-40)
(0.00019957963 -0.00025609207 -2.2987789e-23 0.000659586 3.0707649e-23 8.8481971e-41)
(0.00014897773 -0.00020270064 -1.3018793e-24 0.00064494008 -2.7602009e-24 9.9232798e-42)
(0.0001129467 -0.00015822631 2.4329075e-23 0.00062651665 -7.1147627e-23 9.1852607e-42)
(0.00022134862 -3.6555732e-05 7.3100455e-23 6.151617e-06 -9.589075e-24 1.3003316e-40)
(0.0010530272 -0.00019239928 -6.7185391e-22 3.5346461e-05 1.210214e-22 2.0717335e-39)
(0.0018579825 -0.00034896022 -5.2480764e-22 6.673288e-05 1.0401696e-22 2.4785012e-39)
(0.0024447109 -0.00047981782 7.540228e-22 9.7893586e-05 -1.5715391e-22 6.0872001e-40)
(0.0027553808 -0.0005834844 5.7115073e-22 0.00013175717 -1.2804908e-22 1.2743149e-40)
(0.0028083139 -0.00066002076 -4.2035028e-22 0.0001700478 9.2400911e-23 1.3168774e-39)
(0.0026582646 -0.00071026164 1.3659592e-22 0.00021388442 -5.1679562e-23 5.5729775e-40)
(0.0023728416 -0.00073463647 8.0481841e-22 0.00026330521 -2.8340106e-22 6.2974855e-40)
(0.0020177546 -0.00073375459 3.5383458e-22 0.00031705639 -1.3813988e-22 7.9999644e-41)
(0.0016474865 -0.00070948935 -3.4884848e-22 0.00037272894 1.7645549e-22 2.056142e-40)
(0.0013007144 -0.00066550156 -4.7427356e-22 0.00042713142 2.7990114e-22 2.4778474e-40)
(0.00099986566 -0.0006069968 -1.2965143e-23 0.0004768359 9.2714249e-24 2.5844523e-43)
(0.00075364071 -0.00053992807 1.3714726e-22 0.00051877743 -1.1861746e-22 4.020831e-41)
(0.00056101466 -0.00047001772 -5.0454484e-24 0.000550748 1.552636e-23 6.0249026e-41)
(0.00041536661 -0.00040195646 -5.5768821e-24 0.00057166784 2.5293792e-23 1.6306557e-40)
(0.00030784001 -0.00033898214 4.3635352e-24 0.00058159781 -3.3077171e-23 2.9457036e-40)
(0.00022958193 -0.00028285069 4.8949369e-23 0.00058151785 -9.5447192e-23 8.6844263e-41)
(0.00017293238 -0.00023409803 -2.8108646e-23 0.00057295983 8.0373703e-23 2.2543661e-40)
(0.0001318153 -0.00019249906 -7.1657435e-23 0.00055799177 1.950656e-22 4.3880083e-40)
(0.00010159085 -0.00015740237 2.3692813e-23 0.00053984528 -5.7114409e-23 1.0000289e-41)
(0.00023580269 -2.2372637e-05 -1.9059369e-22 2.1782695e-06 1.5887923e-23 3.8861911e-40)
(0.0010722782 -0.00011690312 -1.5152912e-22 1.2903098e-05 1.62111e-23 4.1965347e-40)
(0.0018508072 -0.00021934639 1.1551026e-21 2.6984361e-05 -1.4623007e-22 5.1234415e-39)
(0.0023769553 -0.00031614592 8.6313145e-22 4.5259508e-05 -1.2425606e-22 5.6174807e-40)
(0.0026126263 -0.00040465149 3.8828482e-22 6.9949578e-05 -6.043349e-23 2.7549383e-40)
(0.0025957136 -0.00048062981 7.8434134e-23 0.00010251823 -1.5902667e-23 2.6745098e-42)
(0.0023956786 -0.00053929371 -7.3832816e-22 0.00014354032 1.6224989e-22 1.1520699e-39)
(0.0020875864 -0.00057633053 0 0.00019225154 0 0)
(0.0017371957 -0.00058947275 -4.5411274e-22 0.00024640849 1.9385611e-22 9.5340948e-40)
(0.0013934098 -0.00057947963 -7.8397825e-23 0.00030256154 5.0674254e-23 2.1559891e-40)
(0.0010864855 -0.00054999854 2.2349746e-22 0.00035666134 -1.2793163e-22 5.3673802e-41)
(0.00083033295 -0.00050655083 2.4282933e-23 0.00040482714 -3.0268133e-23 1.1859406e-40)
(0.00062694209 -0.00045517914 -1.072754e-22 0.00044403803 1.0341694e-22 1.3861281e-40)
(0.00047116781 -0.00040126802 -8.1186485e-23 0.00047255203 1.044035e-22 2.9570458e-40)
(0.00035470375 -0.00034884209 5.205235e-23 0.000489982 -5.2400874e-23 3.6433528e-41)
(0.00026877048 -0.00030038627 7.2316315e-23 0.00049708007 -9.2185377e-23 3.4047593e-41)
(0.00020557407 -0.00025704628 -6.4688694e-23 0.00049534685 1.0559178e-22 3.1852757e-41)
(0.00015886476 -0.00021901919 -8.7146855e-23 0.00048660811 1.8420546e-22 3.673113e-40)
(0.00012395073 -0.00018601024 6.5659403e-24 0.00047285837 -1.4874741e-24 4.2891776e-41)
(9.7379627e-05 -0.00015749255 1.1985254e-23 0.00045645857 -3.9236113e-23 5.0726659e-41)
(0.00024482504 -6.4551983e-06 -1.257392e-22 1.9523005e-07 3.2040545e-24 1.9009476e-40)
(0.0010606218 -3.8199501e-05 5.387827e-22 1.5077213e-06 -1.9253887e-23 1.0547496e-39)
(0.0017905358 -8.9905464e-05 8.2354177e-22 5.3216898e-06 -5.0474899e-23 7.6467168e-39)
(0.0022469711 -0.0001590065 -9.6936526e-22 1.3996001e-05 8.2967187e-23 2.1081733e-39)
(0.0024130189 -0.00023893947 3.5162698e-22 3.0069941e-05 -3.8210233e-23 5.3654319e-41)
(0.0023432032 -0.00031923263 1.4551305e-22 5.56377e-05 6.1800093e-25 1.9445271e-39)
(0.0021162929 -0.00038880944 3.8150612e-23 9.151637e-05 -7.6540068e-24 7.1170196e-43)
(0.0018088742 -0.0004389916 -5.4420397e-22 0.00013663933 1.2450798e-22 6.5884618e-40)
(0.0014819687 -0.00046547155 -1.2380081e-23 0.00018804365 4.2378558e-24 1.0723839e-43)
(0.0011762993 -0.0004686403 2.0399556e-22 0.00024145424 -1.0481516e-22 2.5082908e-40)
(0.00091344313 -0.00045248376 1.6100202e-23 0.00029223959 -1.6135454e-23 3.5763292e-41)
(0.00070027717 -0.00042280105 -7.3430462e-23 0.00033639109 2.0037847e-23 4.6267528e-40)
(0.00053435665 -0.000385505 -1.6451206e-22 0.0003712103 1.3247679e-22 5.3203553e-41)
(0.00040861053 -0.00034547282 -1.0950028e-24 0.0003955519 1.2582971e-23 6.0251476e-41)
(0.00031464886 -0.00030607388 5.6016113e-23 0.00040965901 -7.2449413e-23 5.9223732e-41)
(0.00024465291 -0.00026923006 3.7399703e-23 0.00041475086 -5.8388539e-23 5.7327028e-41)
(0.00019218546 -0.00023575917 8.6869484e-24 0.00041254533 -2.7578373e-23 9.2507904e-41)
(0.00015234469 -0.00020579225 -5.9564255e-23 0.00040486311 8.3252725e-23 7.5017993e-41)
(0.00012159161 -0.00017914334 -1.1928223e-23 0.00039340635 -7.6078675e-24 3.1714809e-40)
(9.7379836e-05 -0.00015544377 3.3351047e-23 0.00037967922 -1.0063499e-22 5.2418397e-40)
(1.626169e-06 -2.0327616e-07 1.624714e-23 2.4820982e-07 -3.250462e-24 1.8574805e-40)
(7.6641461e-06 -3.2079319e-06 -2.3185257e-23 1.6478673e-06 6.4243506e-24 1.7881444e-40)
(1.716721e-05 -7.4133725e-06 5.1495741e-23 3.2854021e-06 -1.9306121e-23 1.0272112e-39)
(5.5039775e-05 -1.5646694e-05 1.4379385e-22 4.7132344e-06 -3.0697247e-23 3.4542642e-39)
(0.00012080566 -2.5819369e-05 -1.0278473e-22 5.9986747e-06 1.7538686e-23 8.9845379e-40)
(0.00021595043 -3.7217729e-05 1.2962126e-22 7.1430238e-06 -1.7637108e-23 9.9271034e-40)
(0.00034361936 -4.9458265e-05 -1.7819297e-22 8.1477966e-06 2.270426e-23 1.0906455e-39)
(0.00050469287 -6.2157003e-05 -1.8390062e-22 9.0334929e-06 1.9310993e-23 1.1529716e-39)
(0.0006984733 -7.5002239e-05 2.3177918e-22 9.8221534e-06 -2.416198e-23 1.2194249e-39)
(0.0009237441 -8.7764321e-05 -1.8021355e-22 1.053091e-05 1.7711316e-23 6.2117735e-40)
(0.0011789705 -0.00010027035 -8.9587446e-24 1.1172742e-05 1.502423e-25 7.2166797e-42)
(0.0014623237 -0.0001123863 5.2193557e-23 1.1757569e-05 -5.5841904e-24 2.2899723e-41)
(0.001771769 -0.00012400653 -8.9533693e-24 1.2292983e-05 4.3687813e-25 3.6228867e-42)
(0.0021051496 -0.00013504731 2.8488287e-22 1.2785078e-05 -2.5708959e-23 1.0886385e-39)
(0.0024602365 -0.0001454448 3.0360829e-25 1.323949e-05 5.3879669e-25 2.3481863e-42)
(0.0028347791 -0.00015515904 -4.2209997e-22 1.3662444e-05 3.9626856e-23 2.2399869e-39)
(0.003226573 -0.00016417729 7.8679442e-23 1.4060595e-05 -8.2659577e-24 4.7391614e-41)
(0.0036334703 -0.00017249867 1.9189357e-22 1.4438851e-05 -1.89879e-23 5.6964507e-40)
(0.0040533381 -0.00018015733 -3.1366196e-22 1.480208e-05 3.3096432e-23 1.6149581e-39)
(0.0044837365 -0.00018738642 -1.7476185e-22 1.5146826e-05 1.9564215e-23 6.0631578e-40)
(1.8417464e-06 -8.5020036e-07 5.3555801e-24 2.1841383e-06 -1.9832036e-24 1.8412119e-41)
(9.7703262e-06 -1.0992299e-05 -1.4683617e-22 1.4521115e-05 1.1070974e-22 5.9801189e-39)
(2.1925556e-05 -2.4957724e-05 2.9136506e-23 2.8943356e-05 -2.4088506e-23 5.3973741e-40)
(6.4763266e-05 -5.0661275e-05 1.5475018e-22 4.1524939e-05 -9.5139846e-23 2.8873849e-39)
(0.0001362935 -8.1965832e-05 2.1513584e-22 5.2828531e-05 -1.0353476e-22 3.2651697e-39)
(0.00023754509 -0.00011677501 2.6033148e-23 6.2849716e-05 -1.0460748e-23 3.067487e-41)
(0.00037130264 -0.00015394343 -6.9279143e-22 7.1604197e-05 2.4066104e-22 1.6333065e-38)
(0.00053801072 -0.00019233542 -2.4501165e-23 7.927374e-05 1.0178114e-23 4.7390947e-42)
(0.0007365809 -0.00023103526 3.9317576e-22 8.6052028e-05 -1.2014883e-22 2.7888427e-39)
(0.00096543959 -0.00026936795 -9.5028143e-23 9.2089869e-05 2.6350098e-23 1.5506792e-40)
(0.001222698 -0.0003068235 -3.6159035e-22 9.7501514e-05 9.9509615e-23 1.7208547e-39)
(0.0015061686 -0.00034300477 7.6229072e-23 0.00010237367 -1.9580547e-23 7.8346992e-41)
(0.0018134499 -0.00037759629 3.2219765e-22 0.00010677157 -7.248761e-23 1.8448739e-39)
(0.0021420007 -0.00041034446 1.3376576e-22 0.00011074612 -3.3407475e-23 2.1086765e-40)
(0.0024891771 -0.00044105032 2.6874877e-22 0.00011434276 -7.174236e-23 6.1043938e-40)
(0.0028522821 -0.00046958002 -2.130642e-22 0.00011761035 5.378182e-23 5.1611783e-40)
(0.0032286902 -0.00049587832 -2.0451249e-22 0.000120602 5.1061413e-23 5.6443542e-40)
(0.0036157969 -0.00051991962 2.0783264e-22 0.00012335998 -5.8770857e-23 3.2681105e-40)
(0.0040102702 -0.00054179266 1.9106863e-22 0.00012593213 -5.2638908e-23 5.7062844e-40)
(0.0044081955 -0.0005623936 7.4763289e-23 0.00012830652 -1.9755271e-23 2.4213206e-40)
(2.3672842e-06 -2.176e-06 4.1207038e-24 5.8245941e-06 -2.0657104e-24 9.6984538e-42)
(1.4769005e-05 -2.2716961e-05 1.1152917e-22 3.8763286e-05 -1.1937391e-22 2.5486444e-39)
(3.3009713e-05 -5.0206793e-05 -2.4416403e-23 7.7206379e-05 3.1468832e-23 1.334798e-40)
(8.6251728e-05 -9.6188791e-05 -1.6815486e-22 0.00011072845 1.4164494e-22 3.1603435e-39)
(0.0001697215 -0.00015081833 6.2068015e-23 0.00014074198 -5.2160439e-23 8.973793e-41)
(0.00028352819 -0.00021071038 8.2407079e-23 0.00016716966 -6.7033786e-23 4.7539008e-41)
(0.00042972852 -0.00027397232 -1.0247431e-22 0.00019004817 5.4431192e-23 2.8167977e-40)
(0.00060794216 -0.00033876452 -2.6872752e-22 0.00020986111 1.5704025e-22 5.6443804e-40)
(0.00081633185 -0.00040361523 1.1765565e-22 0.00022712295 -5.7318403e-23 1.5749623e-40)
(0.0010526284 -0.00046743436 2.5001403e-22 0.00024223745 -1.0428988e-22 8.9388175e-40)
(0.0013142528 -0.00052939014 7.0341555e-23 0.00025551211 -4.8535549e-23 3.3780488e-41)
(0.0015983196 -0.00058882653 3.0641937e-22 0.00026717933 -1.0226502e-22 1.6582436e-39)
(0.001901712 -0.00064521244 2.6083823e-23 0.00027741076 -9.6982094e-24 6.8810851e-42)
(0.0022211426 -0.00069810754 -4.5769977e-22 0.00028633474 1.5523806e-22 2.6674034e-39)
(0.0025531703 -0.00074714869 3.4111609e-23 0.00029405978 -2.2257283e-23 1.4819576e-41)
(0.0028942507 -0.00079206775 -2.1488593e-22 0.00030069967 6.0251096e-23 1.0389266e-39)
(0.0032409755 -0.00083272372 -3.0501913e-22 0.00030637923 1.2048547e-22 4.2848182e-40)
(0.0035899374 -0.00086902258 4.9706892e-22 0.00031122199 -1.929321e-22 1.4213927e-39)
(0.0039357768 -0.00090107213 2.6375877e-22 0.00031543147 -1.0830112e-22 2.8977063e-40)
(0.0042723575 -0.00093079692 5.2468311e-23 0.00031911714 -2.3630178e-23 6.2264814e-42)
(3.4870815e-06 -4.4998432e-06 -6.1619037e-24 1.0724648e-05 7.753687e-24 1.4249526e-41)
(2.4215668e-05 -4.0339583e-05 -2.584751e-22 7.1514974e-05 3.2685821e-22 8.4586309e-39)
(5.3598315e-05 -8.6998594e-05 -1.8760319e-23 0.00014232627 2.410926e-23 1.155737e-40)
(0.00012407259 -0.00015735538 4.3438586e-23 0.0002039788 -4.8083626e-23 7.3774176e-41)
(0.00022699618 -0.00023837388 -6.9409828e-24 0.00025890828 1.7587148e-24 1.9032901e-41)
(0.00036111686 -0.00032545797 2.2143009e-22 0.00030681649 -1.624164e-22 1.3893353e-39)
(0.00052736563 -0.00041596162 2.451374e-22 0.00034774382 -1.6023818e-22 1.2622627e-39)
(0.00072413316 -0.00050740438 -7.4180666e-23 0.00038258038 3.5915591e-23 1.9883437e-40)
(0.00094845336 -0.00059782133 -2.7296939e-22 0.00041227953 1.4281648e-22 1.2647332e-39)
(0.0011969914 -0.00068574318 -5.5194907e-22 0.00043760083 2.9803174e-22 2.6838439e-39)
(0.0014661085 -0.00077003103 -1.172619e-23 0.00045913118 -6.536422e-24 6.1202566e-41)
(0.0017518554 -0.00084977069 7.0453724e-22 0.00047731774 -3.2878405e-22 4.3853965e-39)
(0.002050033 -0.00092420197 -2.8553865e-22 0.00049248947 1.0935515e-22 1.2956735e-39)
(0.0023562526 -0.00099267736 -1.8530131e-22 0.0005048888 8.1271317e-23 2.5590972e-40)
(0.0026659394 -0.0010546392 -2.2838979e-23 0.00051471072 2.5024506e-23 5.5194358e-41)
(0.0029743922 -0.0011096422 4.4133342e-22 0.00052214641 -1.9346927e-22 1.0505411e-39)
(0.0032771635 -0.0011574174 -2.5105513e-22 0.0005274008 1.2523153e-22 7.1184023e-41)
(0.0035699251 -0.0011978064 -5.7692289e-22 0.00053073621 2.4268938e-22 2.261159e-39)
(0.0038449933 -0.0012309466 3.8941012e-22 0.00053279631 -1.689596e-22 1.1372023e-39)
(0.0040937827 -0.0012599657 3.3566925e-22 0.00053429464 -1.343659e-22 1.0570211e-39)
(5.5766759e-06 -8.0139417e-06 2.7676723e-23 1.6347321e-05 -2.6896125e-23 1.8212884e-40)
(4.0187768e-05 -6.5010575e-05 8.8978071e-24 0.00010916505 -2.2396281e-24 8.2469171e-41)
(8.7896474e-05 -0.00013755935 -3.5692222e-22 0.00021690616 5.1076686e-22 6.942981e-39)
(0.00018412397 -0.00023699898 -2.0502385e-22 0.00031041677 2.17719e-22 2.1463421e-39)
(0.00031541828 -0.0003476501 1.3665301e-22 0.00039315399 -1.0881354e-22 1.2970136e-39)
(0.00047866984 -0.00046370199 1.7050647e-22 0.00046441862 -1.3738496e-22 6.1120246e-40)
(0.00067318753 -0.00058171617 -2.2175531e-22 0.00052424192 1.4487159e-22 1.4298049e-39)
(0.00089565701 -0.00069864301 -3.384717e-22 0.00057400092 1.9435766e-22 3.1375485e-39)
(0.0011415326 -0.00081210388 5.0267867e-22 0.00061518487 -3.0036988e-22 3.2205562e-39)
(0.0014059751 -0.00092030573 1.4376213e-22 0.00064900658 -5.8263998e-23 7.4937229e-40)
(0.0016838593 -0.0010218408 -4.5730712e-22 0.00067642766 3.0212034e-22 2.5090955e-40)
(0.0019697717 -0.001115566 1.9984595e-22 0.00069819855 -9.0980766e-23 5.7716459e-40)
(0.0022580913 -0.0012005249 0 0.0007148873 0 0)
(0.0025430573 -0.0012758948 1.959747e-22 0.00072691847 -9.5521195e-23 2.2611276e-40)
(0.0028187929 -0.001340959 -1.4740972e-22 0.00073462618 7.0056675e-23 1.2076447e-40)
(0.0030794023 -0.0013951313 -2.2661736e-22 0.00073831219 1.1296001e-22 1.4690875e-40)
(0.0033195422 -0.0014380548 8.4302553e-23 0.00073826357 -6.8036844e-23 2.0605271e-40)
(0.0035344182 -0.0014696101 -6.8445417e-23 0.00073489157 4.0641802e-23 7.4980294e-42)
(0.0037146414 -0.0014901262 3.2975309e-22 0.00072962508 -1.4259317e-22 1.2233067e-39)
(0.0038489756 -0.0015038113 -2.6696411e-22 0.00072476966 1.3021953e-22 7.1939296e-41)
(9.0714457e-06 -1.2780108e-05 2.6540545e-23 2.2161586e-05 -2.2314409e-23 1.4624497e-40)
(6.5035331e-05 -9.6955914e-05 1.2822309e-22 0.00014792279 -1.7066868e-22 5.4748177e-40)
(0.00014055578 -0.00020215968 -1.7213204e-22 0.00029302964 2.2827618e-22 1.3024634e-39)
(0.0002726242 -0.00033506068 -2.8330447e-22 0.00041828969 3.1844852e-22 1.0921588e-39)
(0.00044208672 -0.00047782646 -8.4444606e-23 0.00052806467 1.2294225e-22 8.6164994e-40)
(0.00064332505 -0.00062334264 -2.5659828e-22 0.00062113833 2.2521585e-22 5.3630331e-40)
(0.0008733789 -0.00076733179 -1.1894741e-22 0.00069757961 7.3250703e-23 6.1894052e-40)
(0.0011266631 -0.00090627587 2.0659925e-22 0.00075933577 -1.2429236e-22 1.1417408e-39)
(0.0013965388 -0.0010375071 4.9528668e-22 0.00080852654 -2.9521997e-22 3.9097556e-39)
(0.0016761891 -0.0011590274 1.5307044e-22 0.00084692823 -9.4169573e-23 1.6406305e-40)
(0.001958624 -0.0012692867 -1.4545426e-22 0.00087599348 7.7254953e-23 2.6014434e-40)
(0.0022366994 -0.001367049 -2.6667303e-23 0.00089689461 -5.9827105e-24 2.2650693e-40)
(0.0025032544 -0.0014513108 -6.9682181e-22 0.0009105546 3.8092507e-22 2.1595274e-39)
(0.0027512477 -0.0015212482 -2.1675068e-22 0.00091769048 1.1324925e-22 2.2335873e-40)
(0.0029738528 -0.0015761876 3.6432256e-22 0.00091887203 -2.0997652e-22 1.0693821e-40)
(0.003164623 -0.0016156183 -3.6377808e-22 0.00091458042 1.9600666e-22 2.2166652e-40)
(0.0033182506 -0.0016392953 -1.2855215e-22 0.00090519069 6.3177169e-23 7.068538e-41)
(0.0034308582 -0.0016473472 2.888565e-22 0.00089116198 -1.2200605e-22 1.0974835e-39)
(0.0034933581 -0.0016405926 4.3990767e-22 0.00087481277 -2.1911844e-22 8.3365427e-40)
(0.0034921056 -0.0016239756 5.3494184e-23 0.00086126807 -2.495413e-23 1.6218109e-41)
(1.443541e-05 -1.8734081e-05 -7.4848697e-23 2.7685527e-05 6.0767597e-23 8.65245e-40)
(0.00010110452 -0.00013545463 -8.2805701e-23 0.00018419566 8.4001853e-23 6.8966336e-40)
(0.00021597858 -0.00027897846 2.1128809e-22 0.00036314581 -2.6651243e-22 3.2011719e-40)
(0.00039494222 -0.0004483077 3.2151723e-22 0.00051637087 -3.3271135e-22 1.4476083e-39)
(0.00061219999 -0.00062387514 4.2004491e-24 0.00064897646 -3.7791106e-24 2.8723426e-43)
(0.00085876512 -0.00079715481 -8.7430664e-22 0.00075926203 7.2066905e-22 8.4503247e-39)
(0.0011286321 -0.00096304534 -3.441079e-22 0.00084748423 2.9375135e-22 1.2211948e-40)
(0.00141335 -0.0011177417 2.6664766e-22 0.00091627756 -1.7970619e-22 9.2708142e-40)
(0.0017037459 -0.0012585196 3.0667119e-22 0.0009684979 -2.0563741e-22 5.6728648e-40)
(0.0019907468 -0.0013834279 -3.0027438e-22 0.0010066002 1.6717995e-22 1.5562092e-39)
(0.0022654018 -0.0014910437 -8.8713321e-22 0.0010326521 5.5848931e-22 2.2721446e-39)
(0.0025190039 -0.0015803351 5.8459076e-22 0.0010483718 -3.5330791e-22 9.342239e-40)
(0.0027433374 -0.0016505804 3.4809103e-22 0.0010551603 -1.8141111e-22 1.117556e-39)
(0.0029309349 -0.0017013175 -4.8423772e-22 0.0010541455 2.6652771e-22 9.2308513e-40)
(0.0030752897 -0.0017323116 2.1340722e-22 0.0010462378 -1.2265732e-22 6.2108739e-41)
(0.0031710916 -0.0017435418 3.5484075e-22 0.0010321743 -1.8234543e-22 6.8735435e-40)
(0.0032150609 -0.0017352449 1.3555246e-22 0.0010124255 -7.6020693e-23 2.3520931e-41)
(0.0032065436 -0.0017080616 -2.3271473e-22 0.00098730099 1.4266587e-22 3.0053224e-41)
(0.0031399822 -0.0016635178 -5.4495505e-23 0.00095964173 1.7985273e-23 1.7007108e-40)
(0.0030009337 -0.0016067004 3.0615692e-22 0.00093817835 -1.7573272e-22 6.9924164e-41)
(2.2126532e-05 -2.5686837e-05 -2.1794143e-24 3.2491279e-05 -2.4057608e-24 1.623609e-41)