/*--------------------------------*- C++ -*----------------------------------*\
  =========                 |
  \\      /  F ield         | OpenFOAM: The Open Source CFD Toolbox
   \\    /   O peration     | Website:  https://openfoam.org
    \\  /    A nd           | Version:  6
     \\/     M anipulation  |
\*---------------------------------------------------------------------------*/
FoamFile
{
    version     2.0;
    format      ascii;
    class       surfaceScalarField;
    location    "14";
    object      phi_0;
}
// * * * * * * * * * * * * * * * * * * * * * * * * * * * * * * * * * * * * * //

dimensions      [0 3 -1 0 0 0 0];

internalField   nonuniform List<scalar> 
18180
(
0.0003471446
-0.00021235688
-0.00013478769
0.0014221908
-0.001573398
0.00049835186
0.0032892191
-0.0037579048
0.0018908766
0.0060110043
-0.0066768701
0.0039550849
0.0096480446
-0.010274329
0.0066372885
0.014255816
-0.014505165
0.009897393
0.019881311
-0.019329215
0.013703721
0.026559253
-0.024708178
0.018030236
0.034308209
-0.030602146
0.022853191
0.043126908
-0.036966766
0.028148067
0.052991217
-0.043751446
0.033887138
0.063852204
-0.050898608
0.04003762
0.075635798
-0.058343993
0.046560399
0.088244488
-0.066018022
0.053409332
0.10156166
-0.073848256
0.060531084
0.115459
-0.081762967
0.067865632
0.12980632
-0.089695562
0.075348234
0.14448794
-0.09758934
0.082907727
0.15947151
-0.10541761
0.090434035
-0.11317371
0.097728038
0.17491719
0.00042899349
-0.00064135035
0.0017335032
-0.0028779077
0.0039676521
-0.0059920537
0.0071828653
-0.0098920832
0.011425077
-0.014516541
0.016730138
-0.019810226
0.023118934
-0.02571801
0.030592694
-0.032181938
0.039128877
-0.03913833
0.048678161
-0.04651605
0.059163043
-0.054236329
0.070478491
-0.062214056
0.082494838
-0.07036034
0.095062949
-0.078586132
0.10802127
-0.086806574
0.12120394
-0.094945645
0.13444888
-0.1029405
0.14760578
-0.11074623
0.16053633
-0.11834817
-0.12568511
0.17304773
0.00051493698
-0.0011562873
0.0020516
-0.0044145707
0.004647086
-0.0085875397
0.0083337635
-0.013578761
0.013133849
-0.019316627
0.019053009
-0.025729385
0.026074537
-0.032739539
0.034154704
-0.040262105
0.043219811
-0.048203437
0.053165544
-0.056461783
0.063859003
-0.064929787
0.075143503
-0.073498555
0.086845865
-0.082062702
0.098785542
-0.09052581
0.11078457
-0.0988056
0.12267702
-0.1068381
0.13431665
-0.11458013
0.14558066
-0.12201025
0.15636271
-0.12913021
-0.13590523
0.16658283
0.0006028074
-0.0017590947
0.0023671393
-0.0061789025
0.0053041653
-0.011524566
0.0094179131
-0.017692508
0.014696646
-0.024595359
0.021105121
-0.032137861
0.028578905
-0.040213322
0.037021257
-0.048704457
0.046303132
-0.057485312
0.056266616
-0.066425267
0.06673172
-0.075394892
0.077505936
-0.084272771
0.088395559
-0.092952325
0.099217464
-0.10134771
0.10980992
-0.10939805
0.12004114
-0.11706932
0.12981471
-0.12435369
0.13907098
-0.13126652
0.14778275
-0.13784198
-0.14409575
0.15597327
0.00068904605
-0.0024481407
0.0026661823
-0.0081560388
0.0059070432
-0.014765427
0.010377489
-0.022162954
0.016021902
-0.030239772
0.022755164
-0.038871123
0.030458654
-0.047916812
0.03898043
-0.057226232
0.048139765
-0.066644647
0.057735717
-0.076021219
0.067558777
-0.085217951
0.077404171
-0.094118165
0.087085097
-0.10263325
0.096444195
-0.11070681
0.10536185
-0.11831571
0.11376056
-0.12546803
0.12160514
-0.13219828
0.1288994
-0.13856078
0.13567971
-0.14462229
-0.15043965
0.14202361
0.00076923987
-0.0032173806
0.0029321274
-0.010318926
0.0064194783
-0.018252777
0.011149963
-0.026893439
0.017016161
-0.036105971
0.023877822
-0.045732784
0.031561272
-0.055600262
0.039864374
-0.065529334
0.048566407
-0.07534668
0.057441507
-0.084896319
0.066273747
-0.094050191
0.07487165
-0.10271607
0.083080093
-0.1108417
0.090788108
-0.11841483
0.097931776
-0.12545938
0.10449236
-0.13202861
0.11049055
-0.13819647
0.11597823
-0.14404846
0.12102936
-0.14967342
-0.15515044
0.12574015
0.00083851534
-0.0040558959
0.0031472749
-0.012627686
0.006804531
-0.021910034
0.011675017
-0.031763925
0.017595233
-0.042026186
0.024369742
-0.052507294
0.031775442
-0.063005961
0.03957197
-0.073325862
0.047516462
-0.083291172
0.055380188
-0.092760046
0.062964329
-0.10163433
0.070112399
-0.10986414
0.076717637
-0.11744693
0.08272463
-0.12442182
0.088125543
-0.13086029
0.092952174
-0.13685524
0.097265577
-0.14250987
0.10114519
-0.14792807
0.10467914
-0.15320737
-0.15843203
0.10796073
0.00089166572
-0.0049475616
0.0032938009
-0.015029821
0.0070273519
-0.025643585
0.011900054
-0.036636627
0.017692886
-0.047819018
0.024160994
-0.058975402
0.031043506
-0.069888473
0.038078883
-0.08036124
0.0450228
-0.090235089
0.051665211
-0.099402457
0.057843563
-0.10781268
0.063450138
-0.11547071
0.068432784
-0.12242958
0.072789612
-0.12877865
0.076559217
-0.1346299
0.079808536
-0.14010456
0.082620502
-0.14532184
0.085083288
-0.15039086
0.087282338
-0.15540642
-0.16044639
0.089296695
0.00092227787
-0.0058698394
0.0033537461
-0.017461289
0.0070573672
-0.029347206
0.011785135
-0.041364395
0.01726812
-0.053302002
0.023223002
-0.064930284
0.02936704
-0.076032511
0.035436698
-0.086430898
0.041205971
-0.096004361
0.046500726
-0.10469721
0.051206518
-0.11251848
0.05526895
-0.11953314
0.058687278
-0.12584791
0.061503129
-0.1315945
0.063786784
-0.13691355
0.065623518
-0.14194129
0.067101892
-0.14680021
0.068305268
-0.15159424
0.069306847
-0.156408
-0.16130705
0.070167507
0.00092703801
-0.0067968774
0.003318919
-0.01985317
0.0068821706
-0.032910457
0.011318239
-0.045800464
0.016318579
-0.058302343
0.021576463
-0.070188168
0.026805562
-0.08126161
0.031759231
-0.091384567
0.036246165
-0.1004913
0.040139214
-0.10859026
0.043376007
-0.11575527
0.045952006
-0.12210914
0.047908082
-0.12780398
0.049315438
-0.13300185
0.050260633
-0.13785875
0.05083287
-0.14251353
0.051114819
-0.14708216
0.051177319
-0.15165674
0.051077496
-0.15630818
0.050858367
-0.16108792
-0.00022437906
0.00022437924
-1.5912139e-10
-0.00074974203
0.00052536334
-3.393174e-10
-0.0014832003
0.00073345878
-4.312922e-10
-0.002354219
0.00087101913
-4.4317131e-10
-0.0033063441
0.00095212553
-3.8102045e-10
-0.0042935862
0.00098724238
-2.5720128e-10
-0.0052778235
0.00098423739
-7.2493138e-11
-0.0062266356
0.00094881195
1.6134511e-10
-0.0071115957
0.0008849598
4.5002971e-10
-0.0079069232
0.00079532675
7.8001751e-10
-0.0085883878
0.00068146351
1.1638137e-09
-0.009132404
0.00054401462
1.5831627e-09
-0.0095152777
0.00038287178
2.055317e-09
-0.0097125904
0.00019731016
2.5550173e-09
-0.00969875
-1.3843334e-05
3.1053074e-09
-0.0094468436
-0.00025190998
3.6679161e-09
-0.0089287591
-0.00051808867
4.2693113e-09
-0.0081145113
-0.00081425257
4.8650503e-09
-0.0069713889
-0.0011431278
5.4862229e-09
-0.0014908843
-0.0054805107
6.0847415e-09
-0.00020724024
0.00043161949
-0.00068753746
0.0010056606
-0.0013497759
0.0013956972
-0.0021235167
0.0016447599
-0.0029514239
0.0017800328
-0.0037858501
0.0018216686
-0.0045863496
0.0017847369
-0.005317582
0.0016800444
-0.0059476388
0.0015150166
-0.0064467057
0.0012943937
-0.0067859654
0.0010207232
-0.0069366747
0.00069472405
-0.0068693814
0.00031557851
-0.0065532535
-0.00011881763
-0.0059555588
-0.00061153796
-0.0050413981
-0.0011660706
-0.0037737408
-0.0017857459
-0.0021132379
-0.0024747554
-1.782833e-05
-0.0032385373
-0.0040471961
0.0025384835
-0.00017304425
0.00060466376
-0.00056356413
0.0013961805
-0.0010845263
0.0019166594
-0.0016662593
0.002226493
-0.0022501863
0.0023639597
-0.0027858638
0.0023573462
-0.0032287522
0.0022276253
-0.0035382902
0.0019895825
-0.0036763314
0.0016530578
-0.003605872
0.0012239343
-0.00329
0.00070485121
-0.0026909959
9.5720019e-05
-0.0017695504
-0.00060586691
-0.00048411184
-0.0014042561
0.0012097023
-0.0023053521
0.003359586
-0.0033159541
0.0060166962
-0.0044428561
0.0092352779
-0.005693337
0.013072485
-0.0070757442
-0.0085405361
0.017565825
-0.0001249797
0.00072964347
-0.0003882137
0.0016594145
-0.00070808746
0.0022365332
-0.0010160648
0.0025344704
-0.0012520478
0.0025999428
-0.001362013
0.0024673115
-0.0012961536
0.002161766
-0.0010072181
0.0017006471
-0.00044915036
0.0010949901
0.00042401728
0.00035076675
0.0016590755
-0.00053020694
0.0033043767
-0.0015495812
0.0054104457
-0.0027119359
0.0080305074
-0.0040243177
0.011221014
-0.005495859
0.015042247
-0.0071371871
0.019558762
-0.0089593705
0.024839039
-0.010973614
0.030955067
-0.013191772
-0.01554182
0.03795635
-6.7067594e-05
0.00079671109
-0.00017461673
0.0017669637
-0.0002466469
0.0023085634
-0.00021577373
0.0025035972
-2.0190896e-05
0.00240436
0.00039805583
0.0020490648
0.0010944988
0.0014653231
0.0021235203
0.00067162556
0.0035394226
-0.00032091222
0.0053972659
-0.0015070765
0.0077534507
-0.0028863917
0.010666096
-0.0044622263
0.014195293
-0.0062411325
0.018403274
-0.0082322988
0.023354547
-0.010447132
0.029116233
-0.012898873
0.03575873
-0.015601868
0.043356105
-0.018570989
0.051986819
-0.021822486
-0.025262091
0.061707091
-3.227291e-06
0.0007999384
6.4189332e-05
0.0016995471
0.00027344799
0.0020993048
0.00069105235
0.0020859929
0.0013805875
0.0017148248
0.0024038239
0.0010258285
0.0038216793
4.7467631e-05
0.0056950941
-0.0012017892
0.0080856433
-0.0027114613
0.011055814
-0.0044772474
0.014669101
-0.0064996782
0.018989901
-0.0087830268
0.024083148
-0.011334379
0.030013739
-0.01416289
0.036845901
-0.017279295
0.044642808
-0.02069578
0.053467056
-0.024426116
0.063382276
-0.02848621
0.074456984
-0.032897193
-0.037548553
0.086743446
6.3523435e-05
0.00073641499
0.00031774163
0.0014453289
0.00083042518
0.0015866212
0.0016675694
0.0012488488
0.0028943719
0.00048802237
0.0045758372
-0.00065563681
0.0067772367
-0.0021539319
0.0095643054
-0.0039888579
0.013003176
-0.0061503316
0.017160116
-0.0086341872
0.022100921
-0.011440484
0.027889975
-0.014572081
0.034589
-0.018033404
0.04225554
-0.02182943
0.050941277
-0.025965032
0.060690561
-0.030445063
0.07154013
-0.035275685
0.083521548
-0.040467628
0.096669664
-0.046045308
-0.051900755
0.11102187
0.00013149096
0.00060492405
0.00057949803
0.00099732187
0.0014097069
0.00075641241
0.0026877605
-2.9204828e-05
0.0044799392
-0.0013041563
0.0068532098
-0.0030289073
0.009874903
-0.0051756251
0.013612221
-0.0077261759
0.018131445
-0.010669555
0.023496725
-0.013999467
0.02976851
-0.017712268
0.037001615
-0.021805187
0.045242976
-0.026274764
0.054529147
-0.031115601
0.064883717
-0.036319602
0.076314951
-0.041876297
0.088814752
-0.047775486
0.10236083
-0.054013707
0.11692685
-0.060611328
-0.067492343
0.13251844
0.00020012812
0.00040479596
0.00084652805
0.00035092197
0.0020034251
-0.0004004846
0.0037356312
-0.0017614109
0.006109063
-0.003677588
0.0091900731
-0.0061099174
0.013044383
-0.0090299353
0.017735639
-0.012417431
0.023323543
-0.01625746
0.029861597
-0.020537521
0.037394486
-0.025245157
0.045955207
-0.030365908
0.05556203
-0.035881587
0.066215394
-0.041768965
0.077894816
-0.047999024
0.090555922
-0.054537403
0.10412842
-0.061347983
0.11851758
-0.068402867
0.13361636
-0.075710114
-0.083266633
0.14939065
0.00027000829
0.0011192821
0.0026096741
0.0048033481
0.0077630487
0.011550524
0.01622431
0.021837115
0.028432846
0.036043392
0.044685373
0.054357085
0.065035897
0.076676265
0.089208325
0.10253655
0.1165368
0.13104167
0.14576559
0.16022699
-0.003089587
-0.0023909326
9.0133917e-09
-0.00029882638
-0.0027907705
9.9831224e-09
0.0028863179
-0.0031851551
1.0971465e-08
0.0064179737
-0.0035316676
1.1953895e-08
0.010285851
-0.0038678907
1.2870354e-08
0.014493117
-0.0042072796
1.3622447e-08
0.019041561
-0.0045484586
1.4255529e-08
0.023933911
-0.004892364
1.4628498e-08
0.029175284
-0.0052413879
1.4683908e-08
0.034771504
-0.0055962345
1.4373302e-08
0.040727429
-0.005955938
1.3718671e-08
0.047045805
-0.0063183893
1.2708709e-08
0.053726072
-0.0066802775
1.1392664e-08
0.06076303
-0.0070369682
9.7746517e-09
0.068145599
-0.0073825766
7.9183056e-09
0.075855742
-0.0077101488
5.8412389e-09
0.083867644
-0.0080119064
3.6192491e-09
0.092147207
-0.0082795637
1.2865401e-09
0.10065191
-0.0085047047
-1.0778551e-09
0.10933109
-0.0086791776
-3.4339749e-09
0.11812655
-0.0087954507
-5.7175427e-09
0.12697342
-0.0088468652
-7.8946895e-09
0.13580115
-0.0088277158
-9.9296665e-09
0.14453427
-0.0087331087
-1.1793295e-08
0.15309289
-0.0085586085
-1.3477911e-08
0.16139271
-0.008299809
-1.4940537e-08
0.16934487
-0.0079521358
-1.6192264e-08
0.17685624
-0.0075113531
-1.715741e-08
0.18383149
-0.0069752404
-1.786082e-08
0.19017807
-0.0063465571
-1.8199811e-08
0.19581474
-0.0056366528
-1.8223778e-08
0.20068292
-0.0048681651
-1.7840967e-08
0.20475776
-0.0040748215
-1.7139472e-08
0.20805486
-0.0032970807
-1.6089726e-08
0.21062919
-0.0025743115
-1.4817317e-08
0.21256558
-0.00193638
-1.336338e-08
0.21396387
-0.0013982761
-1.18454e-08
0.21492378
-0.00095989988
-1.0328403e-08
0.21553406
-0.00061026858
-8.8670699e-09
0.21586741
-0.0003333476
-7.4806931e-09
0.2159802
-0.00011278471
-6.1551592e-09
0.21591465
6.5553469e-05
-4.8914067e-09
0.21570184
0.00021281433
-3.6865788e-09
0.21536452
0.00033732793
-2.5546349e-09
0.21491953
0.00044499269
-1.512152e-09
0.21437944
0.00054008483
-5.6604998e-10
0.21375439
0.00062504801
2.7511921e-10
0.21305111
0.00070328472
1.0142912e-09
0.21227979
0.00077131484
1.626157e-09
0.00085480321
2.2980779e-09
0.004866624
-0.004719073
0.0075792212
-0.0055033677
0.010662775
-0.0062687093
0.01406257
-0.0069314621
0.017772869
-0.0075781895
0.021800842
-0.0082352533
0.02614918
-0.0088967961
0.030820838
-0.0095640223
0.035821396
-0.010241946
0.041157124
-0.010931962
0.046833273
-0.011632087
0.05285309
-0.012338207
0.059216741
-0.013043928
0.065920056
-0.013740284
0.072953342
-0.014415862
0.08030035
-0.015057157
0.08793748
-0.015649036
0.095833267
-0.016175351
0.10394823
-0.016619671
0.11223511
-0.016966055
0.12063942
-0.017199761
0.12910031
-0.017307756
0.13755148
-0.017278886
0.14592199
-0.017103617
0.15413671
-0.016773327
0.16211631
-0.016279409
0.16977695
-0.015612779
0.17703033
-0.014764733
0.18378521
-0.013730115
0.18995175
-0.012513106
0.19544956
-0.011134453
0.20021849
-0.009637095
0.20422984
-0.0080861805
0.20749361
-0.0065608451
0.21005824
-0.0051389426
0.21200218
-0.0038803206
0.21341978
-0.0028158769
0.21440663
-0.0019467447
0.21504867
-0.0012523147
0.21541696
-0.00070163425
0.21556696
-0.00026278241
0.21554048
9.2030894e-05
0.21536845
0.00038484515
0.21507358
0.00063219999
0.21467273
0.00084583934
0.21417852
0.0010342992
0.21360112
0.001202442
0.2129473
0.0013571053
0.21222742
0.0014911987
0.0016562732
0.019736675
-0.0068899235
0.022254287
-0.0080209788
0.025099591
-0.0091140136
0.02821029
-0.010042161
0.031588031
-0.010955931
0.035246313
-0.011893536
0.039189548
-0.012840031
0.043421186
-0.01379566
0.047947483
-0.014768243
0.052775376
-0.015759855
0.057910743
-0.016767453
0.063357665
-0.017785129
0.069117563
-0.018803826
0.075188089
-0.01981081
0.081562043
-0.020789815
0.088226413
-0.021721527
0.095161605
-0.022584229
0.10234092
-0.02335467
0.10973037
-0.024009115
0.11728878
-0.024524469
0.12496835
-0.024879326
0.13271535
-0.025054756
0.14047107
-0.025034607
0.14817261
-0.024805158
0.15575336
-0.024354083
0.16314299
-0.02366903
0.17026687
-0.022736662
0.17704568
-0.021543544
0.18339598
-0.02008042
0.18923342
-0.018350539
0.19447943
-0.01638047
0.19907138
-0.014229044
0.20297361
-0.011988406
0.20618564
-0.0097728805
0.20874372
-0.007697022
0.2107142
-0.0058507989
0.21218104
-0.0042827166
0.21323196
-0.0029976628
0.21394763
-0.0019679835
0.21439593
-0.0011499404
0.21463069
-0.00049753966
0.21469297
2.9752652e-05
0.21461343
0.00046438038
0.21441477
0.00083086553
0.21411391
0.0011467029
0.21372355
0.0014246589
0.21325402
0.0016719691
0.21271216
0.0018989648
0.21210864
0.002094719
0.0023370475
0.039831201
-0.0087647742
0.042000716
-0.010190493
0.04443961
-0.011552908
0.047085131
-0.012687682
0.049949224
-0.013820024
0.053051532
-0.014995843
0.056398645
-0.016187144
0.059994985
-0.017392
0.0638474
-0.018620658
0.067963248
-0.019875703
0.072348879
-0.021153085
0.077009116
-0.022445366
0.081946632
-0.023741342
0.087161078
-0.025025255
0.092648142
-0.02627688
0.09839869
-0.027472074
0.10439802
-0.028583555
0.1106253
-0.029581959
0.11705335
-0.030437162
0.12364859
-0.03111971
0.13037148
-0.031602214
0.13717714
-0.031860417
0.14401624
-0.031873702
0.15083582
-0.031624739
0.15757991
-0.031098173
0.16418952
-0.030278647
0.17060202
-0.029149163
0.17675006
-0.02769158
0.18256109
-0.02589145
0.18795891
-0.023748357
0.19286862
-0.021290178
0.19722537
-0.018585793
0.20098516
-0.015748202
0.20413416
-0.012921874
0.20669237
-0.010255233
0.20870977
-0.0078682014
0.21025602
-0.0058289665
0.21140786
-0.0041495
0.21223849
-0.0027986219
0.21281133
-0.0017227745
0.21317779
-0.0008640057
0.21337789
-0.00017034749
0.21344193
0.00040034024
0.21339257
0.00088023
0.21324685
0.0012924261
0.21301762
0.001653884
0.21271544
0.0019741489
0.21234728
0.0022671268
0.21192427
0.0025177299
0.0028305826
0.063091643
-0.010149327
0.064720664
-0.011819514
0.066556497
-0.013388741
0.068546799
-0.014677984
0.070716416
-0.015989641
0.073088501
-0.017367929
0.075671484
-0.018770127
0.078471303
-0.020191818
0.081494981
-0.021644335
0.084749495
-0.023130217
0.088241004
-0.024644593
0.091974466
-0.026178828
0.095953215
-0.027720091
0.10017838
-0.029250416
0.10464814
-0.030746646
0.109357
-0.032180936
0.11429505
-0.0335216
0.11944738
-0.034734288
0.12479372
-0.035783507
0.13030834
-0.036634326
0.1359602
-0.037254073
0.14171353
-0.037613743
0.14752858
-0.037688757
0.15336259
-0.037458747
0.1591705
-0.036906082
0.16490521
-0.036013362
0.17051697
-0.034760922
0.17595189
-0.033126495
0.18115033
-0.031089896
0.18604663
-0.028644658
0.19057183
-0.025815371
0.19466051
-0.022674472
0.1982609
-0.019348596
0.20134504
-0.01600601
0.20391487
-0.012825071
0.2060015
-0.0099548289
0.20765765
-0.0074851148
0.2089468
-0.0054386481
0.20993298
-0.0037848036
0.21067396
-0.0024637569
0.21121816
-0.0014082011
0.21160419
-0.00055637972
0.2118619
0.00014262998
0.21201391
0.00072821713
0.21207743
0.0012289073
0.21206553
0.0016657882
0.21198904
0.0020506341
0.21185514
0.0024010322
0.21167556
0.0026973028
0.0030716016
0.087402176
-0.010808056
0.088273117
-0.012690455
0.089298904
-0.014414529
0.090449507
-0.015828587
0.091761527
-0.017301661
0.093256677
-0.018863079
0.09494406
-0.02045751
0.096831269
-0.022079028
0.098924774
-0.023737839
0.10122996
-0.025435404
0.10375167
-0.027166303
0.10649398
-0.028921133
0.10945984
-0.030685952
0.11265081
-0.03244139
0.11606659
-0.034162421
0.11970435
-0.035818698
0.1235581
-0.03737535
0.12761804
-0.038794226
0.13187007
-0.040035542
0.13629553
-0.041059782
0.14087114
-0.041829686
0.14556939
-0.042311994
0.1503592
-0.04247857
0.15520689
-0.04230644
0.16007717
-0.041776361
0.16493372
-0.040869908
0.16973886
-0.039566057
0.17445197
-0.037839608
0.17902702
-0.03566495
0.18341047
-0.033028108
0.18754159
-0.029946486
0.19135695
-0.026489832
0.19479916
-0.022790812
0.19782747
-0.019034317
0.20042605
-0.015423648
0.20260646
-0.012135247
0.20440335
-0.009282004
0.2058656
-0.0069008908
0.20704687
-0.0049660724
0.20799843
-0.0034153201
0.20876512
-0.0021748943
0.20938391
-0.0011751659
0.20988405
-0.00035751527
0.21028815
0.00032412344
0.21061359
0.0009034664
0.21087371
0.001405662
0.21107974
0.0018446078
0.21123907
0.002241706
0.21136421
0.0025721549
0.002996537
0.11074189
-0.010528082
0.11065857
-0.012607137
0.11069533
-0.014451288
0.11086209
-0.015995343
0.11120022
-0.017639791
0.11172305
-0.019385904
0.11243892
-0.021173388
0.1133565
-0.022996602
0.11448069
-0.024862029
0.11581411
-0.026768826
0.11735902
-0.028711216
0.11911742
-0.030679531
0.12109074
-0.032659276
0.1232798
-0.034630448
0.12568455
-0.036567168
0.1283036
-0.038437746
0.1311336
-0.04020535
0.13416858
-0.041829213
0.13739937
-0.043266328
0.14081307
-0.044473482
0.14439287
-0.045409486
0.14811813
-0.04603725
0.15196488
-0.046325328
0.15590681
-0.046248364
0.15991637
-0.045785927
0.1639659
-0.044919437
0.16802774
-0.04362789
0.17207293
-0.041884801
0.17606833
-0.039660347
0.17997301
-0.036932792
0.18373626
-0.033709739
0.18729939
-0.030052956
0.19060252
-0.026093944
0.19359496
-0.022026753
0.19624517
-0.018073859
0.19854629
-0.014436365
0.20051504
-0.01125076
0.20218536
-0.0085712102
0.20359997
-0.0063806763
0.20480304
-0.0046183946
0.20583542
-0.0032072742
0.20673215
-0.0020719004
0.20752183
-0.0011471909
0.20822698
-0.00038102648
0.20886524
0.00026520726
0.20945026
0.00082064108
0.2099937
0.0013011632
0.21050324
0.0017321671
0.21099234
0.0020830579
0.0025439639
0.13121312
-0.0092227622
0.13007906
-0.011473082
0.12903194
-0.013404162
0.1281556
-0.015119009
0.1274858
-0.016969984
0.12702067
-0.018920779
0.12676681
-0.020919528
0.12673241
-0.022962199
0.12691983
-0.02504945
0.12732829
-0.027177287
0.12795663
-0.029339554
0.12880383
-0.031526729
0.12986897
-0.033724419
0.13115126
-0.035912734
0.13264992
-0.038065828
0.13436388
-0.040151715
0.13629125
-0.042132719
0.1384286
-0.043966563
0.1407703
-0.045608026
0.14330787
-0.047011052
0.14602953
-0.048131143
0.14892002
-0.048927743
0.15196091
-0.049366221
0.1551314
-0.049418848
0.15840959
-0.049064121
0.16177398
-0.048283823
0.16520426
-0.047058176
0.16868066
-0.045361201
0.17218105
-0.043160735
0.17567649
-0.040428231
0.17912712
-0.037160369
0.1824813
-0.033407138
0.18568006
-0.029292702
0.18866644
-0.025013128
0.19139647
-0.020803897
0.19384729
-0.016887177
0.1960191
-0.013422575
0.19793143
-0.010483541
0.19961602
-0.0080652672
0.20110972
-0.0061120955
0.20244907
-0.004546622
0.20366699
-0.0032898197
0.20479128
-0.002271482
0.2058444
-0.0014341452
0.20684424
-0.00073463023
0.20780481
-0.00013992996
0.20873829
0.00036768469
0.20965266
0.00081779836
0.21056247
0.0011732482
0.0016550211
0.14718382
-0.0070159288
0.1450795
-0.0093687613
0.14298426
-0.011308918
0.14112306
-0.01325781
0.13951587
-0.015362797
0.13814442
-0.017549329
0.1370118
-0.019786909
0.13612287
-0.022073271
0.13547693
-0.024403511
0.13507042
-0.026770773
0.1348991
-0.029168238
0.13495903
-0.031586651
0.13524687
-0.034012263
0.13576008
-0.036425948
0.13649685
-0.038802594
0.13745587
-0.041110732
0.13863591
-0.043312758
0.14003517
-0.045365825
0.14165053
-0.047223389
0.1434768
-0.048837319
0.14550603
-0.050160376
0.14772715
-0.051148859
0.15012592
-0.05176499
0.15268555
-0.051978485
0.15538799
-0.051766557
0.15821562
-0.051111452
0.16115281
-0.049995365
0.16418606
-0.048394451
0.16730172
-0.046276393
0.17048118
-0.043607695
0.17369529
-0.040374483
0.17690098
-0.036612827
0.18004309
-0.032434812
0.18306217
-0.028032201
0.18590561
-0.023647341
0.18853768
-0.019519249
0.19094433
-0.015829226
0.19313191
-0.012671123
0.19512173
-0.010055081
0.19694336
-0.0079337239
0.19862893
-0.0062321963
0.20020912
-0.0048700095
0.20171086
-0.0037732216
0.20315651
-0.0028797979
0.20456425
-0.0021423672
0.20594849
-0.0015241697
0.20732199
-0.0010058154
0.20869306
-0.0005532767
0.2100775
-0.0002111846
0.0002738145
0.15790015
-0.0046890916
0.15491765
-0.0063862552
0.15197465
-0.0083659143
0.1493045
-0.010587667
0.14690399
-0.012962287
0.14476687
-0.015412209
0.14289551
-0.017915549
0.14128944
-0.020467196
0.13994584
-0.023059911
0.13886043
-0.025685365
0.13802769
-0.028335495
0.13744181
-0.031000774
0.13709768
-0.033668132
0.13699128
-0.036319546
0.13711978
-0.038931093
0.13748145
-0.0414724
0.13807532
-0.043906627
0.13890061
-0.046191123
0.139956
-0.048278779
0.14123873
-0.050120047
0.14274382
-0.051665461
0.1444634
-0.052868441
0.14638645
-0.053688039
0.14849907
-0.054091109
0.1507856
-0.054053092
0.1532305
-0.053556345
0.15582043
-0.052585296
0.15854543
-0.051119451
0.16139755
-0.049128514
0.16436636
-0.046576506
0.16743241
-0.043440531
0.17056173
-0.03974215
0.17370506
-0.035578138
0.17680354
-0.031130684
0.17979947
-0.026643271
0.18264752
-0.022367303
0.18532197
-0.018503668
0.18781777
-0.015166923
0.19014679
-0.012384103
0.19233181
-0.010118744
0.1944007
-0.0083010822
0.19638186
-0.0068511758
0.19830137
-0.0056927268
0.20018148
-0.0047599064
0.20204069
-0.0040015824
0.20389385
-0.0033773282
0.20575443
-0.0028663951
0.20763086
-0.0024297116
0.20954099
-0.0021213072
-0.0016518957
0.20132613
-0.00074854309
-0.20526668
0.19815927
-0.0032193928
0.19542293
-0.0056295716
0.19295905
-0.0081237941
0.19072655
-0.010729786
0.18869826
-0.013383918
0.18685472
-0.016072008
0.18518416
-0.018796635
0.18367861
-0.021554358
0.1823311
-0.024337863
0.18113451
-0.027138904
0.18008111
-0.029947367
0.17916255
-0.032749578
0.17837015
-0.035527148
0.17769525
-0.038256191
0.17712967
-0.040906818
0.17666612
-0.043443078
0.1762985
-0.045823504
0.17602205
-0.048002324
0.17583331
-0.049931304
0.17572994
-0.051562095
0.17571041
-0.052848908
0.1757736
-0.053751227
0.17591858
-0.054236091
0.17614466
-0.054279176
0.17645184
-0.053863525
0.17684152
-0.05297497
0.17731702
-0.051594958
0.17788333
-0.049694819
0.17854536
-0.047238537
0.17930505
-0.044200219
0.18015784
-0.040594941
0.18108993
-0.036510229
0.18207751
-0.03211826
0.18308869
-0.027654451
0.18408793
-0.023366542
0.18504161
-0.019457348
0.1859231
-0.016048414
0.18671577
-0.013176779
0.18741338
-0.01081635
0.18801814
-0.0089058384
0.18853768
-0.007370723
0.1889821
-0.0061371444
0.18936169
-0.0051394935
0.18968604
-0.0043259307
0.18996307
-0.0036543617
0.19020104
-0.0031043627
0.19040285
-0.0026315262
0.1905846
-0.0023030608
-0.0017889193
0.22839196
0.0020549326
-0.23119544
0.22554339
-0.00037081817
0.22295651
-0.0030426957
0.220496
-0.0056632844
0.21811403
-0.0083478179
0.21583549
-0.011105371
0.21367349
-0.013910013
0.2116293
-0.016752447
0.20970424
-0.019629298
0.20789969
-0.022533309
0.206215
-0.025454215
0.2046475
-0.02837987
0.20319313
-0.031295211
0.20184695
-0.034180967
0.20060363
-0.037012871
0.19945805
-0.039761231
0.1984058
-0.042390834
0.19744368
-0.044861378
0.19656986
-0.047128505
0.19578399
-0.049145439
0.19508702
-0.050865125
0.19448084
-0.052242723
0.19396784
-0.053238234
0.19355062
-0.053818863
0.19323182
-0.053960378
0.19301458
-0.053646287
0.19290328
-0.052863669
0.19290432
-0.051596004
0.19302626
-0.049816759
0.19327852
-0.047490789
0.19366849
-0.044590198
0.19419761
-0.041124059
0.19485735
-0.037169967
0.19562696
-0.032887865
0.1964741
-0.028501591
0.19735883
-0.024251275
0.1982399
-0.020338417
0.1990813
-0.016889813
0.199857
-0.013952485
0.20055264
-0.011511983
0.2011642
-0.0095174019
0.20169505
-0.0079015775
0.20215259
-0.006594684
0.20254559
-0.0055324904
0.20288279
-0.0046631302
0.20317181
-0.0039433854
0.2034205
-0.0033530505
0.20363237
-0.0028433971
0.2038221
-0.0024927877
-0.0019335199
0.25401107
0.0042677287
-0.25622386
0.25169703
0.0019432216
0.24938409
-0.00072975813
0.24709231
-0.0033715084
0.24478815
-0.0060436491
0.24248628
-0.0088035014
0.24021205
-0.011635781
0.23798014
-0.014520538
0.23580094
-0.017450098
0.23368392
-0.020416288
0.23163623
-0.023406534
0.22966223
-0.026405868
0.2277641
-0.02939708
0.22594259
-0.032359453
0.22419759
-0.035267871
0.22252878
-0.038092424
0.22093626
-0.040798317
0.21942107
-0.043346188
0.21798553
-0.04569296
0.21663334
-0.047793254
0.21536951
-0.049601292
0.21419996
-0.051073177
0.21313112
-0.052169393
0.21216944
-0.052857183
0.21132123
-0.053112165
0.21059291
-0.052917964
0.20999179
-0.052262548
0.20952706
-0.051131276
0.20921031
-0.049500016
0.2090548
-0.047335271
0.20907284
-0.044608236
0.20927161
-0.041322835
0.20964826
-0.037546615
0.21018607
-0.033425678
0.2108537
-0.029169217
0.21160838
-0.025005956
0.21240258
-0.021132621
0.21319184
-0.017679074
0.2139411
-0.014701746
0.21462776
-0.012198635
0.21524119
-0.010130834
0.21577998
-0.0084403738
0.2162484
-0.007063095
0.21665331
-0.0059374079
0.21700238
-0.005012193
0.21730277
-0.004243778
0.2175617
-0.0036119781
0.21778353
-0.0030652336
0.21798048
-0.0026897317
-0.0020859801
0.27796568
0.0059126427
-0.27961059
0.27620442
0.0037044819
0.27427845
0.0011962088
0.27226497
-0.0013580287
0.27017497
-0.0039536473
0.26801454
-0.0066430735
0.26580381
-0.0094250527
0.26356172
-0.012278442
0.26130277
-0.015191157
0.25904026
-0.018153771
0.25678633
-0.021152604
0.25455111
-0.024170653
0.25234275
-0.027188711
0.25016788
-0.030184592
0.24803224
-0.03313223
0.24594113
-0.036001315
0.24390005
-0.038757236
0.2419152
-0.041361338
0.23999386
-0.043771616
0.23814452
-0.045943917
0.23637684
-0.047833604
0.23470127
-0.049397611
0.23312865
-0.050596776
0.23166967
-0.051398205
0.23033459
-0.051777081
0.22913336
-0.05171673
0.22807633
-0.051205525
0.22717537
-0.050230314
0.22644468
-0.048769329
0.22590065
-0.046791237
0.22555973
-0.044267315
0.22543429
-0.041197394
0.22552708
-0.03763941
0.22582619
-0.03372479
0.22630278
-0.029645802
0.22691328
-0.025616456
0.22760596
-0.021825301
0.22832956
-0.018402677
0.229041
-0.015413188
0.22970979
-0.012867417
0.23031851
-0.010739564
0.23086057
-0.0089824326
0.23133659
-0.0075391153
0.23175118
-0.0063519901
0.23211055
-0.005371564
0.23242123
-0.0045544594
0.23268966
-0.0038804076
0.23292089
-0.0032964684
0.23312468
-0.0028935155
-0.0022460131
0.3000991
0.007001419
-0.30118788
0.29886958
0.0049340015
0.29740803
0.0026577656
0.2957762
0.0002738023
0.29400867
-0.0021861199
0.29211361
-0.0047480103
0.29010432
-0.0074157687
0.28799883
-0.010172952
0.28581302
-0.013005344
0.28356111
-0.015901865
0.28125703
-0.018848523
0.27891398
-0.021827606
0.27654407
-0.024818796
0.27415846
-0.027798986
0.27176779
-0.030741557
0.2693825
-0.033616027
0.26701331
-0.036388045
0.2646716
-0.039019629
0.26236974
-0.041469758
0.26012122
-0.043695391
0.25794052
-0.045652911
0.25584288
-0.047299967
0.25384374
-0.048597634
0.25195825
-0.049512721
0.25020089
-0.050019712
0.24858538
-0.050101226
0.24712534
-0.049745479
0.24583526
-0.048940234
0.24473169
-0.047665766
0.24383354
-0.045893086
0.24316056
-0.043594331
0.24272951
-0.040766347
0.24254841
-0.037458304
0.24261051
-0.033786894
0.24289078
-0.029926075
0.24334693
-0.026072601
0.24392538
-0.022403754
0.24457026
-0.019047562
0.24523205
-0.01607497
0.24587315
-0.013508517
0.24646956
-0.011335978
0.24700923
-0.0095221057
0.24748878
-0.0080186593
0.2479101
-0.006773311
0.24827769
-0.0057391551
0.24859715
-0.0048739216
0.24887401
-0.0041572707
0.24911379
-0.003536246
0.24932387
-0.0031035947
-0.0024131278
0.32078414
0.0075990122
-0.32138173
0.32002378
0.0056943564
0.31902129