/*--------------------------------*- C++ -*----------------------------------*\
  =========                 |
  \\      /  F ield         | OpenFOAM: The Open Source CFD Toolbox
   \\    /   O peration     | Website:  https://openfoam.org
    \\  /    A nd           | Version:  6
     \\/     M anipulation  |
\*---------------------------------------------------------------------------*/
FoamFile
{
    version     2.0;
    format      ascii;
    class       volVectorField;
    location    "14";
    object      UMean;
}
// * * * * * * * * * * * * * * * * * * * * * * * * * * * * * * * * * * * * * //

dimensions      [0 1 -1 0 0 0 0];

internalField   nonuniform List<vector> 
9200
(
(0.010532342 -0.0059373283 -8.227057e-20)
(0.044839035 -0.024996888 7.7677778e-20)
(0.09255882 -0.042072056 -5.6959833e-20)
(0.15055033 -0.057345732 -1.0064016e-19)
(0.21576058 -0.071144629 2.9425597e-20)
(0.28623775 -0.083133118 5.469613e-20)
(0.36029629 -0.09311902 -2.0015905e-20)
(0.43638063 -0.10108773 1.5285946e-20)
(0.51307059 -0.10710714 3.224064e-20)
(0.58905929 -0.11129699 2.8426216e-21)
(0.66313814 -0.11381898 -4.1804488e-20)
(0.73420138 -0.11486458 3.9370819e-20)
(0.8012627 -0.11464235 -7.5769618e-20)
(0.86347779 -0.11336594 -4.1149717e-20)
(0.92016837 -0.1112424 1.153211e-20)
(0.970843 -0.10846315 -4.970307e-20)
(1.0152226 -0.10518705 5.0185494e-20)
(1.0533225 -0.10142587 4.5257639e-20)
(1.085291 -0.097108429 -3.3570377e-22)
(1.1094941 -0.094877547 -1.3351112e-21)
(0.017364197 -0.0094977687 -2.3653404e-20)
(0.065026322 -0.033468065 6.4344782e-20)
(0.12618342 -0.052647921 3.1581813e-20)
(0.19722955 -0.06809802 -1.8342841e-19)
(0.27483828 -0.080679918 -1.9085767e-20)
(0.35677191 -0.090390281 1.2284109e-19)
(0.44105559 -0.097323305 -5.9198962e-20)
(0.52586032 -0.10171855 -1.4999832e-20)
(0.60952184 -0.10386594 6.1841722e-20)
(0.69053463 -0.10408116 -7.934077e-20)
(0.76755474 -0.10269905 -5.8130519e-20)
(0.83942012 -0.10006159 1.3895383e-19)
(0.90517805 -0.096504113 7.2625997e-20)
(0.96411116 -0.092342939 -1.3006621e-19)
(1.0157563 -0.087865812 2.777466e-20)
(1.0599111 -0.083328445 -6.9857819e-20)
(1.0966351 -0.078945858 -2.8685922e-20)
(1.1262929 -0.074830416 1.3219254e-19)
(1.1494043 -0.071252527 6.5088071e-20)
(1.1651067 -0.070652239 -1.0417691e-19)
(0.0257611 -0.012642038 4.6043383e-20)
(0.089143628 -0.040474581 -2.9029335e-22)
(0.16531956 -0.060558184 2.6510171e-20)
(0.25031824 -0.0749371 1.4953059e-21)
(0.34058228 -0.085078955 -5.5500249e-20)
(0.43359914 -0.091377615 3.2889286e-20)
(0.52711918 -0.094272589 1.8450465e-20)
(0.61907086 -0.094309202 -8.4729636e-20)
(0.70760266 -0.092041149 1.0024234e-19)
(0.79110011 -0.088008606 2.9363474e-20)
(0.86820798 -0.082732008 -1.0176278e-19)
(0.93786152 -0.076697882 -3.5621508e-20)
(0.99931374 -0.070343013 1.3333181e-20)
(1.0521495 -0.064041635 4.3139387e-20)
(1.0962816 -0.058097488 -2.0212905e-20)
(1.1319252 -0.052742938 5.0024429e-20)
(1.1595593 -0.048135463 -3.7660136e-20)
(1.1799038 -0.04431888 -1.1866764e-19)
(1.1937645 -0.041427655 -2.9325953e-20)
(1.200992 -0.041024702 7.5184479e-20)
(0.035743938 -0.015083736 2.882287e-20)
(0.11708202 -0.045254443 6.8801899e-20)
(0.20960074 -0.064714935 2.8494906e-20)
(0.30908811 -0.076589896 2.3649491e-20)
(0.4118138 -0.083019028 2.9821114e-20)
(0.51502576 -0.08485448 -7.7069953e-20)
(0.61625096 -0.082932251 -4.3144226e-20)
(0.71325615 -0.078140969 0)
(0.80411929 -0.071318143 3.5708596e-20)
(0.88727016 -0.063227789 -1.7299936e-20)
(0.96152449 -0.05455299 -1.7278498e-19)
(1.0261118 -0.045880488 -2.5691974e-20)
(1.0806838 -0.037686279 1.1648429e-19)
(1.1252971 -0.030327957 1.0591103e-21)
(1.1603694 -0.024045178 -2.6938298e-21)
(1.1866132 -0.018968953 3.6748904e-20)
(1.2049568 -0.015130472 -6.5343407e-21)
(1.2164789 -0.012441425 -1.0084741e-19)
(1.2222639 -0.010846247 -7.4933115e-20)
(1.2227022 -0.011280179 9.3445522e-20)
(0.047243466 -0.016513684 -2.6255908e-21)
(0.14847335 -0.047029022 -2.2845808e-22)
(0.25823797 -0.064058082 7.6047108e-20)
(0.37224426 -0.071877371 3.0727612e-20)
(0.48667957 -0.073351665 -5.4167398e-20)
(0.59863025 -0.069841102 1.5336649e-20)
(0.70550584 -0.062610965 4.3831169e-21)
(0.80505498 -0.052903511 6.0531332e-20)
(0.8954653 -0.041824739 9.833913e-21)
(0.97541779 -0.030320696 -2.6317862e-20)
(1.0441152 -0.019171412 1.099143e-19)
(1.1012837 -0.008980349 -9.7217756e-20)
(1.1471406 -0.00017014793 -2.2353008e-19)
(1.1823271 0.0070100014 -9.2617536e-21)
(1.2078155 0.012465955 1.336501e-19)
(1.2248009 0.016231037 0)
(1.2345926 0.018439433 1.7990514e-20)
(1.238527 0.019324708 -2.2475844e-20)
(1.2378473 0.019089864 -1.519937e-20)
(1.2332564 0.017189567 2.8085021e-20)
(0.060090283 -0.016617784 -9.687532e-22)
(0.18269196 -0.045061008 5.5411867e-21)
(0.31006955 -0.057660209 -1.1724929e-20)
(0.4380507 -0.05986909 3.5750839e-20)
(0.56287704 -0.055302269 -4.6834911e-20)
(0.68160731 -0.045851096 -2.6702761e-20)
(0.7917021 -0.033208089 4.8012551e-20)
(0.89109618 -0.018936173 4.7969478e-21)
(0.97831481 -0.0043463046 -4.7645578e-20)
(1.0525214 0.0095230653 1.1597051e-19)
(1.113515 0.021901986 -2.4634423e-21)
(1.1616811 0.032282968 -1.3330666e-19)
(1.1979005 0.040402543 0)
(1.2234243 0.046207928 6.0793286e-20)
(1.2397348 0.049812993 7.6787116e-21)
(1.2484088 0.051448826 -1.1463462e-19)
(1.2509987 0.0514202 -2.9265085e-20)
(1.2489488 0.050087564 -1.7234326e-20)
(1.2435116 0.047752452 -2.121449e-20)
(1.2354835 0.044121664 5.6707799e-20)
(0.074010947 -0.015102201 -1.7259224e-20)
(0.21886208 -0.038716967 -1.5199859e-20)
(0.36360584 -0.044812636 3.3866521e-20)
(0.50443257 -0.039978645 3.8926759e-20)
(0.63782626 -0.028556842 -2.7297856e-20)
(0.7610111 -0.012948172 -1.0762446e-19)
(0.87172356 0.0047809484 -4.831343e-20)
(0.96833118 0.022834954 1.2508434e-19)
(1.049942 0.039813879 1.7823259e-20)
(1.1164182 0.054719341 -3.7781337e-20)
(1.1683153 0.066925911 1.9396993e-20)
(1.2067657 0.076143391 -7.0538623e-21)
(1.23332 0.082363272 0)
(1.2497729 0.085791921 4.1086718e-20)
(1.2579949 0.086779178 -1.1676802e-19)
(1.25979 0.085750557 -4.603132e-20)
(1.256792 0.083154111 1.1461592e-19)
(1.2504069 0.079435507 -9.5138146e-21)
(1.2417759 0.074943981 3.985069e-21)
(1.2316448 0.069552533 3.9557505e-20)
(0.088629655 -0.011722377 -3.3783468e-20)
(0.25588184 -0.0275363 -1.0478628e-19)
(0.41709681 -0.025110809 -9.5339813e-21)
(0.56909981 -0.012042078 1.009019e-19)
(0.7088516 0.0066893132 8.9580636e-20)
(0.83398425 0.028254531 -9.6280851e-20)
(0.94277168 0.050327618 6.2746519e-21)
(1.0342725 0.071025218 1.368566e-19)
(1.1084019 0.089019029 7.4782146e-20)
(1.1658828 0.10350966 -8.4575758e-20)
(1.2081089 0.11415584 -1.4053582e-19)
(1.2369535 0.12099094 -4.7290438e-21)
(1.2545559 0.12432676 6.2036922e-20)
(1.2631173 0.12465297 -8.6545101e-21)
(1.2647312 0.12254444 -1.6291701e-20)
(1.261263 0.11858526 2.4281926e-20)
(1.2542828 0.11331749 6.0182176e-20)
(1.2450485 0.10722023 -5.7517523e-20)
(1.2345193 0.10064476 -1.3761887e-19)
(1.2233167 0.09357593 3.5611233e-20)
(0.10343967 -0.0063123158 -4.4515124e-20)
(0.29238789 -0.011298715 -1.9243067e-19)
(0.46850856 0.0014833135 1.2256899e-19)
(0.62954637 0.023652964 1.3129625e-19)
(0.77320637 0.049752152 7.9253724e-20)
(0.89780006 0.076672025 1.2922251e-20)
(1.0024051 0.1020026 -1.5338132e-19)
(1.0870014 0.123966 0)
(1.1524747 0.14149432 -1.0639028e-19)
(1.2004856 0.15415048 -2.3363403e-20)
(1.2332515 0.16199933 7.990313e-20)
(1.2532939 0.1654703 1.5265998e-20)
(1.2631924 0.16521938 -6.3791798e-20)
(1.2653818 0.16200333 -6.6634988e-20)
(1.2620094 0.15657881 3.48278e-20)
(1.2548591 0.14963231 6.2840759e-20)
(1.2453339 0.14174279 -7.5818436e-20)
(1.2344839 0.13337335 -1.4238954e-19)
(1.2230626 0.1248431 -2.1770838e-21)
(1.2115445 0.11621654 3.4652594e-20)
(0.11778729 0.0012074866 -8.8077623e-21)
(0.32677197 0.009983202 1.1022401e-19)
(0.51557704 0.034672306 7.5137962e-21)
(0.6831489 0.066414971 -1.2769718e-19)
(0.82820598 0.099518755 6.4528739e-20)
(0.95000193 0.13081643 6.1429492e-20)
(1.0486477 0.15804946 8.1473937e-21)
(1.1252067 0.17977482 -1.4247955e-19)
(1.1816086 0.19538126 -3.6279833e-21)
(1.2204304 0.20493837 7.2686839e-20)
(1.2446104 0.20900116 8.3760983e-21)
(1.2571595 0.20842118 -2.8514922e-20)
(1.2609169 0.20417806 -1.0390662e-19)
(1.2583774 0.19724486 -7.4939877e-21)
(1.2516002 0.18849602 5.7602948e-20)
(1.2421883 0.17865744 4.8266874e-20)
(1.2313226 0.16829201 2.4247881e-20)
(1.2198305 0.15780852 -7.2513181e-20)
(1.2082709 0.14747362 1.2081834e-20)
(1.1969769 0.13741379 1.0304437e-19)
(-0.0016912544 0.0016232596 2.8311391e-21)
(-0.0046742886 0.0030474906 -7.1348014e-22)
(-0.010440092 0.0033425787 1.4059157e-20)
(-0.015387375 0.0029433577 1.6486428e-20)
(-0.01902418 0.0020766187 -1.4421069e-20)
(-0.020968349 0.00090661809 1.4508571e-20)
(-0.020930603 -0.00044886106 -2.73317e-20)
(-0.018789264 -0.0019104983 -2.3185728e-20)
(-0.014530079 -0.0034252613 3.5585537e-20)
(-0.0081918194 -0.0049574937 -2.8643097e-20)
(0.00015680858 -0.0064835373 -2.6751045e-22)
(0.010429445 -0.0079880822 1.0162149e-20)
(0.022531256 -0.0094614876 -1.2178298e-21)
(0.03636513 -0.010897811 5.4732879e-20)
(0.05183514 -0.0122932 -1.3381488e-22)
(0.068846634 -0.013644218 -9.2011941e-20)
(0.087302703 -0.01494682 1.7848329e-20)
(0.10711192 -0.016198701 4.9353431e-20)
(0.12822211 -0.01739797 -8.8433151e-20)
(0.15051567 -0.018484718 -5.425618e-20)
(-0.0020277072 0.0046654582 -9.5433816e-21)
(-0.0050047787 0.0086864038 -5.9385199e-21)
(-0.010006671 0.0094436504 -1.3994625e-20)
(-0.013732775 0.0081898033 2.8578592e-20)
(-0.015845834 0.0055803529 3.1695602e-20)
(-0.016039102 0.0020946065 3.5626747e-21)
(-0.014077922 -0.0019236909 -9.2178851e-20)
(-0.0098801622 -0.0062429476 -5.8867944e-21)
(-0.0034580217 -0.010708031 6.1476282e-20)
(0.0051313792 -0.015214426 -1.443533e-20)
(0.015805608 -0.01969259 -5.9131137e-20)
(0.028467265 -0.024097277 1.2523159e-20)
(0.043011777 -0.028399704 5.2347301e-20)
(0.059332668 -0.03258179 2.4213892e-20)
(0.077324832 -0.036631523 5.1828087e-20)
(0.096883646 -0.040538353 -4.3248544e-20)
(0.11789379 -0.044290331 -4.475317e-20)
(0.14023297 -0.047879474 4.6473696e-20)
(0.16390907 -0.051288191 5.1399218e-20)
(0.18912311 -0.054318437 2.6488246e-20)
(-0.0025930283 0.0071128571 -7.8458469e-21)
(-0.0054394233 0.013014917 6.2121705e-21)
(-0.0088884841 0.013885911 -3.359355e-21)
(-0.010206176 0.011642597 -1.6565784e-20)
(-0.0093431851 0.0072914636 1.8698807e-20)
(-0.0061394029 0.001584541 2.7567048e-20)
(-0.00046650471 -0.0049372091 -1.3370956e-20)
(0.0076805956 -0.011908621 -5.3521028e-20)
(0.018236618 -0.019083911 1.8706681e-20)
(0.031106127 -0.026296563 3.5087676e-20)
(0.046176819 -0.033434997 1.7433749e-20)
(0.063326188 -0.040425825 4.2034343e-20)
(0.082426714 -0.047221563 4.0829685e-21)
(0.10334916 -0.053791745 -7.3522896e-20)
(0.12596567 -0.060115575 6.0316312e-21)
(0.15014806 -0.066175442 -4.0138315e-20)
(0.17574557 -0.071954595 -5.5243543e-20)
(0.20257636 -0.07744297 9.6658717e-20)
(0.2307303 -0.082584066 5.3591861e-20)
(0.26098894 -0.086973811 5.0929157e-21)
(-0.003204112 0.0086637297 -1.1595482e-20)
(-0.0055973916 0.015362462 -4.7858111e-20)
(-0.0066750346 0.015815184 5.8906203e-21)
(-0.0044586167 0.012379409 1.1702801e-20)
(0.00071461472 0.006295594 3.4251781e-21)
(0.0087990563 -0.0014761789 2.6659167e-20)
(0.019770793 -0.010241677 2.970923e-20)
(0.033522194 -0.019531384 -5.061131e-21)
(0.049906868 -0.029027322 -3.1317054e-20)
(0.068767751 -0.038512472 -7.5140108e-20)
(0.089941857 -0.047840123 1.479863e-21)
(0.11326213 -0.056912667 9.5391257e-20)
(0.13855902 -0.065665835 -3.7725693e-20)
(0.16566152 -0.074057331 -2.6875643e-20)
(0.1943995 -0.082058317 -3.0434671e-21)
(0.22460311 -0.089646276 6.8598255e-20)
(0.25607021 -0.096806017 -3.7004995e-20)
(0.28853584 -0.10353854 -1.0220962e-19)
(0.32214261 -0.10974011 8.1317873e-20)
(0.3584142 -0.11470884 6.1415929e-20)
(-0.0036265865 0.0091432052 2.6519472e-21)
(-0.0049802444 0.015323203 -2.2760358e-20)
(-0.0028090892 0.014700416 -9.4144701e-20)
(0.0040086766 0.0098197368 -2.4244286e-20)
(0.014692712 0.0020198782 3.7136417e-22)
(0.028948876 -0.0076091955 1.9331381e-20)
(0.046563671 -0.018274324 -1.6268582e-20)
(0.067284718 -0.029438976 -2.5495242e-20)
(0.09085632 -0.04073767 5.4714223e-20)
(0.11703395 -0.051919182 1.0526188e-20)
(0.14557997 -0.062812196 -6.4253939e-20)
(0.17625895 -0.073301369 2.2821731e-20)
(0.20883595 -0.083309908 0)
(0.24307505 -0.092787225 2.5577025e-20)
(0.27874078 -0.10169971 -1.9978195e-20)
(0.31559927 -0.1100242 -3.0922298e-20)
(0.35338195 -0.11775535 6.186239e-21)
(0.39172681 -0.1249262 -7.6361792e-21)
(0.43077146 -0.1314068 7.2747688e-20)
(0.47281471 -0.13611642 -3.0091062e-20)
(-0.0036088533 0.0085138323 -1.1072037e-20)
(-0.0030297713 0.01278733 5.3362526e-20)
(0.0033661616 0.01038396 -2.981692e-20)
(0.015824731 0.0037919703 -6.3254788e-20)
(0.033106771 -0.0056867752 -5.3773288e-20)
(0.054644184 -0.016915012 -3.6074665e-20)
(0.080006957 -0.029060527 -3.8187021e-21)
(0.10877132 -0.041562329 1.3942915e-20)
(0.14054685 -0.054036494 4.4573209e-20)
(0.17497516 -0.066217635 1.6577191e-20)
(0.2117165 -0.077924417 -1.4914712e-20)
(0.2504407 -0.089034749 -1.2288315e-21)
(0.29082138 -0.099467843 -8.1411401e-20)
(0.33253219 -0.10917182 -2.6180412e-20)
(0.3752473 -0.11811498 4.3507281e-20)
(0.41864552 -0.12628053 -4.5394911e-20)
(0.46237737 -0.13368186 -1.7533053e-20)
(0.50598205 -0.14040596 5.0027975e-20)
(0.5495399 -0.14634311 8.3112553e-20)
(0.59604699 -0.15000278 7.0855902e-21)
(-0.0029097878 0.0068587672 2.3873628e-20)
(0.00081813692 0.0079221426 2.1260812e-20)
(0.01255565 0.0030776159 9.8222865e-20)
(0.031713865 -0.0054516247 5.2278434e-20)
(0.056611679 -0.016521269 4.4241568e-22)
(0.086397394 -0.029026312 -9.1170396e-20)
(0.12040825 -0.042155298 -5.2374418e-20)
(0.15802979 -0.055366276 2.3067005e-20)
(0.19871033 -0.068289816 3.1220292e-20)
(0.24195056 -0.080671088 -2.5971665e-20)
(0.28728134 -0.092337948 -9.5330178e-20)
(0.33424949 -0.10317749 6.3495158e-20)
(0.38240943 -0.11311881 3.8589336e-20)
(0.43131838 -0.1221215 -5.5917694e-20)
(0.48053721 -0.13016812 2.4910023e-20)
(0.52963835 -0.13726042 4.6269926e-20)
(0.57818273 -0.14344189 1.6970093e-20)
(0.62562389 -0.14887328 -2.7531503e-20)
(0.67196121 -0.1535278 -1.8519878e-20)
(0.72073904 -0.15554981 2.7765211e-20)
(-0.0013150276 0.0043488645 1.8763392e-20)
(0.007093107 0.0011158434 -5.0761005e-20)
(0.025462177 -0.0066903735 6.2975196e-21)
(0.052444306 -0.017275661 6.8416855e-20)
(0.085953419 -0.029753509 9.8056535e-20)
(0.12485719 -0.043121731 4.1081243e-20)
(0.16824973 -0.056646108 -1.1526601e-20)
(0.21530613 -0.069848889 -2.5144291e-20)
(0.26529126 -0.082409396 -1.3527577e-20)
(0.31753761 -0.094111704 7.1205807e-20)
(0.3714171 -0.10481707 -1.1792734e-20)
(0.42632411 -0.1144432 -3.5967318e-20)
(0.48166679 -0.12294897 -3.8044774e-20)
(0.53686372 -0.13032463 -9.5603969e-20)
(0.59134768 -0.13658573 4.4138393e-20)
(0.64457972 -0.14177081 -2.6710168e-20)
(0.69604118 -0.14597052 5.1108574e-20)
(0.74514143 -0.14944222 4.0860901e-20)
(0.79182725 -0.15231422 -1.3464725e-19)
(0.84002012 -0.15251425 5.5322767e-21)
(0.0013530339 0.0012112109 3.3285269e-20)
(0.016251847 -0.0070802056 -4.9725258e-20)
(0.042717142 -0.018132663 -7.6562954e-20)
(0.078727204 -0.030706289 -4.9989508e-20)
(0.12183631 -0.044251936 -3.9380898e-21)
(0.17063511 -0.057934272 2.6758479e-20)
(0.22396745 -0.071148934 -5.8682946e-21)
(0.28078284 -0.083525873 3.5284397e-20)
(0.34013895 -0.094830816 1.7157483e-20)
(0.40117269 -0.10491961 -2.2563835e-20)
(0.46306963 -0.11371658 1.970637e-20)
(0.52504798 -0.12119737 -4.7989712e-20)
(0.5863529 -0.1273758 2.002322e-20)
(0.64625763 -0.13229521 3.3592466e-20)
(0.70407204 -0.13602286 -7.8200631e-21)
(0.7591609 -0.13864802 5.0807989e-21)
(0.810948 -0.14031659 -4.1272259e-21)
(0.85884861 -0.14136786 3.9620254e-20)
(0.90282207 -0.14205421 2.9636105e-21)
(0.94700309 -0.14041729 -2.167425e-20)
(0.0052362407 -0.0022927976 3.9219751e-20)
(0.02865736 -0.015989418 1.027332e-19)
(0.064813809 -0.03023254 -7.9733923e-20)
(0.11109176 -0.044442144 -1.7734777e-20)
(0.16472839 -0.05847845 3.744582e-20)
(0.22404627 -0.071731223 3.8801511e-21)
(0.2876334 -0.083778052 -5.4691352e-20)
(0.35419806 -0.094403264 1.3323957e-20)
(0.42256927 -0.10350131 1.3067648e-20)
(0.49166721 -0.11103884 -5.0375946e-20)
(0.56047643 -0.11703934 2.388808e-21)
(0.62803665 -0.12156913 -7.3527206e-20)
(0.69344566 -0.12472517 -7.201692e-20)
(0.75586925 -0.1266253 1.3018319e-19)
(0.81455589 -0.12739996 1.0908469e-20)
(0.86885235 -0.12718837 -2.8937116e-20)
(0.91820185 -0.12616415 3.6421172e-20)
(0.96209679 -0.12459731 -1.5574665e-21)
(1.0003872 -0.12256389 2.8547917e-20)
(1.0361458 -0.11901168 -4.3625703e-20)
(0.17693413 -0.018769798 1.126239e-19)
(0.20751821 -0.018947057 2.5421462e-20)
(0.23967979 -0.018977476 -5.6653466e-20)
(0.27299303 -0.018756783 2.9226188e-20)
(0.30700627 -0.018391756 0)
(0.34151648 -0.017932904 0)
(0.37636543 -0.017387636 -3.1279804e-20)
(0.4113658 -0.016766974 -2.0413913e-20)
(0.44633042 -0.016086746 2.4723509e-20)
(0.48108823 -0.015359895 2.1181278e-20)
(0.51547867 -0.014596508 6.8791285e-22)
(0.54934698 -0.013805711 -9.2077349e-21)
(0.58254492 -0.012995998 9.1221065e-21)
(0.61493209 -0.012175063 1.3390899e-20)
(0.64637628 -0.011349896 -5.5588101e-21)
(0.67675382 -0.010526947 -5.6147918e-21)
(0.70595041 -0.0097122032 -1.9880935e-21)
(0.73386215 -0.0089112143 -1.0236676e-21)
(0.76039654 -0.0081291094 2.7787334e-24)
(0.78547349 -0.0073705931 4.3252497e-22)
(0.80902627 -0.0066399267 1.1800069e-21)
(0.83100238 -0.0059409015 1.1252702e-21)
(0.8513642 -0.0052768161 -6.7443494e-22)
(0.87008952 -0.0046504674 -2.1660996e-22)
(0.88717192 -0.0040641646 -1.2350076e-22)
(0.90262109 -0.0035197698 2.9278067e-23)
(0.91646325 -0.0030187598 -1.2032319e-22)
(0.92874173 -0.0025622893 -2.7896711e-22)
(0.93951767 -0.0021512178 7.6260574e-26)
(0.94887073 -0.0017860586 7.0075721e-23)
(0.95689912 -0.0014668187 -2.1034238e-22)
(0.96371838 -0.0011927444 7.1470216e-23)
(0.96945811 -0.00096204444 1.9949946e-23)
(0.97425642 -0.00077171802 5.1651312e-23)
(0.97825251 -0.00061760331 2.5312835e-23)
(0.98157895 -0.00049469248 4.6622557e-23)
(0.98435501 -0.00039763855 -4.813727e-23)
(0.98668278 -0.00032129401 -5.2168514e-23)
(0.98864605 -0.00026111984 -1.5177379e-23)
(0.99031166 -0.00021338445 4.6796076e-24)
(0.99173204 -0.00017517236 -8.1053351e-24)
(0.99294821 -0.00014427843 7.644833e-24)
(0.99399221 -0.00011906474 -8.0135257e-24)
(0.99488994 -9.8317315e-05 -1.0777708e-23)
(0.99566089 -8.1142375e-05 3.9387665e-25)
(0.9963256 -6.6837418e-05 2.988392e-24)
(0.99688704 -5.4941994e-05 5.7012063e-25)
(0.99739141 -4.4829819e-05 4.1361357e-25)
(0.99774476 -3.6981168e-05 1.1558279e-25)
(0.998251 -2.6735279e-05 2.4826236e-24)
(0.21602347 -0.055034807 -2.9723001e-20)
(0.24418061 -0.055605112 -1.1005114e-19)
(0.27444305 -0.055708987 -5.7170073e-20)
(0.30588574 -0.055062077 6.4436625e-20)
(0.33788828 -0.054002452 2.3433727e-20)
(0.37034676 -0.052675635 -3.0886669e-20)
(0.40315784 -0.051095896 1.1108099e-20)
(0.43614222 -0.049293964 3.2307355e-20)
(0.46912301 -0.047316418 -3.5213324e-21)
(0.50194459 -0.04520074 -1.0322941e-20)
(0.53445901 -0.042975964 -9.02112e-21)
(0.56652102 -0.040668588 -1.0893647e-20)
(0.59799049 -0.038303396 1.5232083e-20)
(0.62873398 -0.035902895 1.4101649e-20)
(0.65862497 -0.033487588 -8.092058e-21)
(0.68754429 -0.031076453 -3.6254623e-21)
(0.71538103 -0.028687157 8.69971e-22)
(0.74203366 -0.026336123 2.4377312e-21)
(0.76741107 -0.024038566 3.1919527e-21)
(0.79143359 -0.021808475 -4.1661437e-21)
(0.81403399 -0.019658549 -3.0333839e-21)
(0.8351583 -0.017600118 2.0671481e-21)
(0.85476658 -0.015643062 2.0298553e-21)
(0.87283339 -0.013795785 5.2758449e-22)
(0.8893482 -0.01206525 3.5337475e-22)
(0.90431578 -0.0104571 -2.9322466e-22)
(0.91775658 -0.0089758372 -1.8897918e-22)
(0.92970733 -0.0076250192 4.6223506e-22)
(0.94022186 -0.0064073468 1.8008585e-22)
(0.94937184 -0.0053245227 -3.6702057e-22)
(0.95724706 -0.0043767855 9.2680539e-23)
(0.96395445 -0.003562152 4.7371971e-23)
(0.96961524 -0.0028755854 -5.2789361e-23)
(0.97435973 -0.0023084579 2.7563599e-23)
(0.97832031 -0.0018486676 -7.9786343e-23)
(0.98162394 -0.0014815486 -1.0421708e-22)
(0.98438561 -0.0011913627 4.296382e-23)
(0.98670432 -0.00096290076 1.1502316e-23)
(0.98866182 -0.00078270911 2.494451e-23)
(0.99032365 -0.00063969759 -7.5155629e-24)
(0.99174146 -0.00052518135 2.5248256e-23)
(0.99295581 -0.00043257866 5.6410276e-24)
(0.99399847 -0.00035699344 6.2963139e-24)
(0.99489519 -0.00029479252 5.379072e-24)
(0.99566536 -0.00024329958 6.8066498e-24)
(0.99632944 -0.00020040909 3.1040421e-24)
(0.99689038 -0.00016474417 5.9482007e-25)
(0.99739431 -0.00013441993 -2.2943775e-24)
(0.99774736 -0.00011089919 -6.0522824e-24)
(0.99825318 -8.0163719e-05 6.7202923e-24)
(0.28857417 -0.087772192 2.0976772e-20)
(0.31227595 -0.088809516 1.1260687e-20)
(0.33893214 -0.08902441 -3.4676897e-20)
(0.36687715 -0.088012809 -7.0779037e-21)
(0.39513393 -0.08637238 2.9059593e-20)
(0.42377129 -0.084324216 -2.3046395e-20)
(0.4527958 -0.081871991 -4.8095356e-20)
(0.48204183 -0.079060479 2.4219374e-20)
(0.51134858 -0.075964043 2.7475118e-20)
(0.5405878 -0.072641257 -1.6264097e-20)
(0.56963413 -0.069137143 1.1544408e-21)
(0.59835894 -0.065493331 3.5290052e-21)
(0.62663612 -0.06174912 -1.7758423e-20)
(0.65434433 -0.057940401 1.2351073e-20)
(0.68136696 -0.054100053 8.4696454e-21)
(0.70759261 -0.050258673 -5.9852906e-21)
(0.7329163 -0.046444893 -3.379955e-21)
(0.75724065 -0.042685461 -6.5455807e-21)
(0.78047697 -0.039005268 7.4473054e-21)
(0.80254636 -0.035427299 5.8253212e-21)
(0.82338068 -0.031972511 -2.1977325e-21)
(0.84292348 -0.028659675 -5.3277078e-22)
(0.86113071 -0.025505246 -5.8443797e-22)
(0.87797125 -0.02252329 -8.7160826e-22)
(0.89342736 -0.019725535 4.4756826e-23)
(0.90749503 -0.017121552 -1.2578882e-23)
(0.92018443 -0.014719062 1.50916e-21)
(0.93152051 -0.012524262 -1.093419e-21)
(0.94154388 -0.010542005 9.8514361e-22)
(0.9503117 -0.0087756096 1.2836401e-22)
(0.95789832 -0.00722613 5.712947e-22)
(0.96439481 -0.0058911196 -6.095373e-23)
(0.96990679 -0.004763234 2.3219346e-22)
(0.97454999 -0.0038292725 -2.1865119e-22)
(0.97844396 -0.0030702713 6.1072412e-23)
(0.98170507 -0.002462906 1.2064432e-22)
(0.98444016 -0.0019818867 -2.9866187e-23)
(0.98674237 -0.0016025796 -6.2856947e-23)
(0.98868952 -0.0013030552 2.6750166e-24)
(0.99034469 -0.0010651384 1.2495597e-23)
(0.99175806 -0.00087453057 4.1646103e-24)
(0.99296931 -0.00072035385 4.0534172e-23)
(0.99400974 -0.00059449238 -1.3080614e-23)
(0.99490478 -0.00049091088 -4.5214128e-24)
(0.99567365 -0.00040515898 4.9196357e-24)
(0.99633669 -0.00033372974 -4.965839e-25)
(0.99689676 -0.00027434001 1.869645e-25)
(0.99739994 -0.00022382748 1.3778279e-24)
(0.99775247 -0.00018469856 5.4534463e-24)
(0.99825752 -0.00013347456 -4.7041263e-24)
(0.3864262 -0.11517657 6.022273e-21)
(0.40419847 -0.11677832 -1.4361221e-20)
(0.42584752 -0.11715166 5.4221428e-21)
(0.44901424 -0.11588466 -2.309374e-20)
(0.47220301 -0.11385162 -3.2873057e-21)
(0.49567483 -0.11131109 1.9731085e-20)
(0.51959456 -0.10823664 -2.4607052e-20)
(0.54381661 -0.10468009 -4.6987829e-21)
(0.56819568 -0.10073751 1.7401035e-20)
(0.59263677 -0.096483359 8.4565851e-21)
(0.61704314 -0.091974842 -7.2927667e-21)
(0.64130648 -0.08726562 -6.8039673e-21)
(0.66531742 -0.082406966 -8.5491977e-22)
(0.68896918 -0.077446216 -8.7968286e-21)
(0.71215709 -0.072427146 -2.9072563e-21)
(0.73477918 -0.067390806 -5.655533e-21)
(0.75673765 -0.062375874 3.0539433e-21)
(0.77794019 -0.057418733 -2.0134583e-21)
(0.79830116 -0.052553449 -5.6530598e-21)
(0.81774267 -0.047811654 2.6643066e-21)
(0.83619561 -0.043222348 3.9783553e-21)
(0.85360053 -0.038811659 -2.8482721e-21)
(0.86990842 -0.034602627 1.2947002e-21)
(0.88508124 -0.030615082 -9.4167684e-22)
(0.89909237 -0.026865679 -3.369676e-21)
(0.91192695 -0.023368134 -7.4749249e-22)
(0.9235823 -0.020133629 -5.5192498e-22)
(0.93406854 -0.017171302 -4.8059342e-22)
(0.94340939 -0.01448855 -1.094801e-22)
(0.95164336 -0.012090855 -7.4626907e-22)
(0.95882463 -0.0099808684 -3.8251004e-23)
(0.96502329 -0.0081567494 -3.2555959e-22)
(0.97032399 -0.0066101959 -1.4659856e-22)
(0.97482266 -0.0053249904 -1.284194e-22)
(0.9786212 -0.0042769299 7.7370736e-23)
(0.98182121 -0.003435559 -1.7839587e-22)
(0.98451806 -0.0027673334 -1.7036223e-22)
(0.98679656 -0.0022391895 3.9509542e-23)
(0.98872891 -0.0018214114 5.1466112e-25)
(0.99037462 -0.0014891722 -3.1136188e-23)
(0.99178172 -0.0012228063 4.0962387e-23)
(0.99298865 -0.0010072678 -2.2585304e-23)
(0.99402596 -0.00083128175 -4.4456451e-23)
(0.99491867 -0.00068643719 1.7837354e-23)
(0.99568572 -0.00056652263 -7.8611903e-25)
(0.9963473 -0.00046663187 4.9176871e-24)
(0.99690617 -0.00038359099 -8.6551949e-25)
(0.99740829 -0.00031293148 -1.1906131e-24)
(0.99776008 -0.00025829705 4.005631e-24)
(0.99826403 -0.00018659052 5.3785757e-24)
(0.50048102 -0.13593446 -5.0587071e-20)
(0.51135552 -0.13825998 7.9718479e-20)
(0.52693578 -0.13887046 1.5345457e-20)
(0.54438794 -0.13751593 -2.812266e-20)
(0.56162862 -0.13535038 -8.6970268e-21)
(0.57906211 -0.13261496 -1.209079e-21)
(0.59703473 -0.12923714 -7.6639278e-21)
(0.61543165 -0.12527036 -6.7394237e-21)
(0.63411731 -0.12082295 -5.5802013e-21)
(0.65302702 -0.11597851 -1.6093893e-20)
(0.67209336 -0.1108028 2.8466565e-20)
(0.69122856 -0.10535847 1.1702482e-20)
(0.71033929 -0.099706028 -1.7927214e-20)
(0.72933264 -0.09390227 3.5501738e-21)
(0.74811555 -0.088000466 1.0797458e-21)
(0.76659528 -0.082051059 5.1782715e-21)
(0.78468104 -0.076101972 1.4728836e-21)
(0.80228554 -0.070198642 -7.2544785e-21)
(0.81932617 -0.064383907 -2.9319341e-21)
(0.83572607 -0.0586978 -2.4118169e-21)
(0.85141511 -0.053177247 -4.5935959e-21)
(0.86633083 -0.047855728 0)
(0.88041917 -0.042762968 -1.6988247e-21)
(0.89363497 -0.037924739 1.7088755e-21)
(0.90594244 -0.033362858 3.4044135e-21)
(0.91731547 -0.029095441 -1.1218847e-23)
(0.92773795 -0.025137408 -2.4976157e-21)
(0.93720432 -0.021501124 2.4964488e-21)
(0.94572032 -0.018196886 -8.829224e-22)
(0.95330417 -0.015232856 1.422509e-21)
(0.95998783 -0.012614059 7.9488245e-23)
(0.96581777 -0.010340389 2.1005425e-22)
(0.97085469 -0.0084040877 -2.2506966e-22)
(0.9751714 -0.0067877268 2.2498389e-22)
(0.97884882 -0.0054638057 -1.488618e-22)
(0.98197074 -0.0043966131 7.7195051e-25)
(0.98461845 -0.0035459748 6.6482279e-23)
(0.98686639 -0.0028716656 4.5228232e-23)
(0.98877966 -0.0023370752 -7.3488835e-23)
(0.9904132 -0.0019112935 4.199507e-23)
(0.99181227 -0.0015696157 -1.0836328e-23)
(0.99301367 -0.0012929994 -7.1879928e-23)
(0.99404702 -0.0010670926 6.9906862e-23)
(0.99493677 -0.0008811441 4.2367291e-24)
(0.99570152 -0.00072719821 -4.3897174e-24)
(0.99636124 -0.00059895197 5.0159049e-25)
(0.99691857 -0.00049236119 -4.0405909e-24)
(0.99741932 -0.00040161229 -4.4646131e-24)
(0.99777016 -0.00033161365 2.8916904e-24)
(0.99827267 -0.00023943429 -1.4228113e-24)
(0.62216533 -0.14906256 -4.2915147e-20)
(0.62560542 -0.1523892 1.8219936e-20)
(0.63439564 -0.15341639 1.5512884e-20)
(0.64551049 -0.15224678 -1.4198849e-20)
(0.65633416 -0.15029317 2.0834606e-20)
(0.66730835 -0.14772451 1.3044344e-20)
(0.6789415 -0.14441829 -1.4902459e-20)
(0.69116581 -0.1404286 -9.1639835e-21)
(0.70384971 -0.13586521 1.8169657e-20)
(0.71694636 -0.13081295 -2.9755316e-20)
(0.73041219 -0.12534296 -1.7708771e-20)
(0.74417755 -0.11952475 2.6433409e-20)
(0.75816209 -0.11342603 7.9579853e-21)
(0.77228379 -0.10711157 -1.5338266e-20)
(0.78645903 -0.10064322 4.555678e-21)
(0.80060271 -0.094080288 2.2586721e-21)
(0.81462997 -0.087479572 -1.6345783e-21)
(0.8284577 -0.080895358 2.5733296e-21)
(0.84200583 -0.074379179 -8.2230273e-22)
(0.85519827 -0.067979488 1.6152035e-21)
(0.8679639 -0.061741242 3.1376478e-21)
(0.88023743 -0.055705461 -2.8959761e-21)
(0.89196006 -0.049908814 1.2406485e-22)
(0.90308005 -0.044383324 -6.5642459e-22)
(0.91355311 -0.039156309 8.3000474e-21)
(0.92334267 -0.034250616 4.0819012e-21)
(0.93242011 -0.029685197 1.4528432e-21)
(0.94076512 -0.025475908 -6.1896525e-22)
(0.94836635 -0.021636214 2.8775476e-21)
(0.95522245 -0.018177326 3.8243215e-21)
(0.96134345 -0.015107248 3.9321395e-22)
(0.96675205 -0.012428581 1.1321052e-21)
(0.97148422 -0.010135519 3.2564426e-22)
(0.97558838 -0.0082112082 1.9879501e-22)
(0.9791228 -0.0066268686 3.9111901e-23)
(0.98215162 -0.0053435496 4.0818495e-22)
(0.98474025 -0.004316247 6.2098842e-23)
(0.98695123 -0.0034990118 1.0840856e-23)
(0.98884135 -0.0028493736 -1.7107179e-24)
(0.99046014 -0.0023310103 1.0781832e-22)
(0.99184949 -0.0019145725 -4.276619e-24)
(0.99304423 -0.0015772312 4.4721663e-23)
(0.99407281 -0.0013016579 3.9764966e-24)
(0.994959 -0.0010748051 -2.8084729e-23)
(0.99572099 -0.00088699385 -6.9072062e-24)
(0.99637847 -0.00073052677 -1.225011e-23)
(0.99693394 -0.00060051504 4.2284935e-24)
(0.997433 -0.00048974969 -2.0362235e-24)
(0.99778269 -0.00040456824 -1.3426837e-24)
(0.99828342 -0.00029192781 8.6717799e-24)
(0.74389231 -0.15404274 6.8235928e-22)
(0.73985041 -0.15870576 -2.3496731e-20)
(0.74150872 -0.16043753 -6.2130888e-21)
(0.74598603 -0.1598632 8.2539827e-21)
(0.75032019 -0.15856052 1.0572297e-20)
(0.7548438 -0.1565795 9.2010303e-21)
(0.76015609 -0.15376129 1.9615979e-20)
(0.76625718 -0.15016556 1.4222645e-20)
(0.77302312 -0.14589612 1.21991e-20)
(0.78040756 -0.14103277 -1.8068499e-20)
(0.78837935 -0.13564934 -3.6425501e-20)
(0.79688281 -0.12982115 -1.0736365e-20)
(0.80584739 -0.12362255 2.4102895e-20)
(0.81519852 -0.11712586 1.7539713e-20)
(0.82485932 -0.11040146 -2.6333171e-21)
(0.83475057 -0.10351759 -4.5033329e-21)
(0.84479203 -0.096540165 -8.4876798e-21)
(0.85490393 -0.089532561 1.0613638e-20)
(0.86500819 -0.08255526 -2.0484525e-22)
(0.87502931 -0.075665412 -2.0972771e-21)
(0.88489527 -0.068916314 1.0414839e-20)
(0.89453828 -0.062356864 -1.8558838e-21)
(0.90389543 -0.056031045 1.6687285e-21)
(0.91290926 -0.049977539 1.2104441e-21)
(0.92152813 -0.044229573 -2.8737722e-21)
(0.92970642 -0.038815111 2.4085717e-21)
(0.93740474 -0.033757459 1.0113525e-22)
(0.94459004 -0.029076196 -1.2888136e-21)
(0.95123606 -0.024788125 -4.1739478e-22)
(0.95732412 -0.020907695 -2.8239408e-21)
(0.96284443 -0.017446248 -3.8946577e-22)