/*--------------------------------*- C++ -*----------------------------------*\
  =========                 |
  \\      /  F ield         | OpenFOAM: The Open Source CFD Toolbox
   \\    /   O peration     | Website:  https://openfoam.org
    \\  /    A nd           | Version:  6
     \\/     M anipulation  |
\*---------------------------------------------------------------------------*/
FoamFile
{
    version     2.0;
    format      ascii;
    class       volScalarField;
    location    "191";
    object      p;
}
// * * * * * * * * * * * * * * * * * * * * * * * * * * * * * * * * * * * * * //

dimensions      [0 2 -2 0 0 0 0];

internalField   nonuniform List<scalar> 
9200
(
-0.37794932
-0.36660283
-0.35650916
-0.34755987
-0.33882018
-0.33030394
-0.32208946
-0.31414421
-0.30640089
-0.29878757
-0.29123128
-0.28366299
-0.27602454
-0.26827594
-0.26040591
-0.25244977
-0.24448384
-0.23659595
-0.22981101
-0.22841103
-0.39581003
-0.38201236
-0.36997506
-0.35950598
-0.34939426
-0.33962135
-0.330256
-0.32123495
-0.31245869
-0.30382889
-0.29525236
-0.2866469
-0.27794881
-0.26911891
-0.26014811
-0.25106137
-0.24188853
-0.23262933
-0.22396668
-0.21806653
-0.41408771
-0.39781604
-0.38388102
-0.37196259
-0.36053416
-0.34952656
-0.33898727
-0.32881457
-0.31887479
-0.30904706
-0.29922709
-0.28933281
-0.27931115
-0.26914116
-0.25883386
-0.24842792
-0.2379621
-0.22744537
-0.21727697
-0.20857197
-0.4323483
-0.41362174
-0.39785439
-0.38454821
-0.37182332
-0.35954358
-0.34772733
-0.33623389
-0.32490335
-0.31360768
-0.30225225
-0.29077883
-0.27916873
-0.26744059
-0.25564372
-0.24384791
-0.23211973
-0.22049805
-0.20925032
-0.19911765
-0.44996189
-0.42888346
-0.4114005
-0.39678367
-0.38277201
-0.36915165
-0.35591165
-0.34288303
-0.32990015
-0.31685494
-0.30369212
-0.29040551
-0.27703388
-0.26365108
-0.25035259
-0.23724133
-0.22440736
-0.2119092
-0.19993506
-0.18899235
-0.46610398
-0.4428822
-0.42385928
-0.40802122
-0.39271624
-0.37765278
-0.36280306
-0.34799543
-0.33309266
-0.31804302
-0.30286342
-0.28762444
-0.27243599
-0.25742921
-0.24273826
-0.22848516
-0.21476455
-0.20163233
-0.18921447
-0.17784776
-0.47976943
-0.45473166
-0.43440608
-0.41744689
-0.4008283
-0.38419689
-0.36753587
-0.35071163
-0.33365988
-0.31642453
-0.29912295
-0.28191628
-0.26498468
-0.24850381
-0.2326261
-0.21746944
-0.20310951
-0.18957743
-0.17694006
-0.16539858
-0.48979443
-0.46340166
-0.44208411
-0.42412736
-0.40618135
-0.38786468
-0.36921422
-0.35018664
-0.33083899
-0.31134583
-0.29194226
-0.27287959
-0.25439364
-0.23668123
-0.21988715
-0.2041012
-0.18936056
-0.1756571
-0.16299972
-0.15147566
-0.49483679
-0.46761697
-0.4456074
-0.42672686
-0.40739942
-0.38727782
-0.36651254
-0.3452078
-0.32358153
-0.30195449
-0.28067294
-0.26005575
-0.24036358
-0.22178317
-0.20442531
-0.18833313
-0.17349453
-0.15985786
-0.14737805
-0.13604482
-0.49354606
-0.46596069
-0.44342836
-0.42358008
-0.40276076
-0.38074088
-0.35785
-0.33438565
-0.31074045
-0.28736451
-0.26467795
-0.24302176
-0.22263868
-0.20367236
-0.18617922
-0.17014707
-0.15551495
-0.14219338
-0.13009051
-0.11911123
-0.2650673
-0.26974158
-0.27224999
-0.27300114
-0.27278702
-0.27179451
-0.27010507
-0.26780623
-0.2649702
-0.26165172
-0.25789483
-0.25373703
-0.24921144
-0.24434813
-0.23917537
-0.23372203
-0.22801901
-0.22208683
-0.21592451
-0.2096176
-0.26779994
-0.27205897
-0.27426064
-0.27479311
-0.27439591
-0.27324719
-0.27142647
-0.26901761
-0.26608926
-0.26269329
-0.25887135
-0.25465883
-0.25008696
-0.24518379
-0.23997501
-0.23448847
-0.22876252
-0.22281605
-0.21654176
-0.20991371
-0.27312942
-0.27657639
-0.27818007
-0.27828481
-0.27752869
-0.27607441
-0.273998
-0.27137604
-0.26827023
-0.26472685
-0.26078269
-0.25646894
-0.25181305
-0.24683923
-0.24156832
-0.23602532
-0.23025999
-0.22429007
-0.21781646
-0.21058143
-0.28081584
-0.28310029
-0.28383844
-0.28331446
-0.28202543
-0.28011449
-0.27765368
-0.27470973
-0.27133468
-0.26756697
-0.26343653
-0.25896845
-0.25418464
-0.24910364
-0.24373943
-0.23811189
-0.23228269
-0.22627422
-0.21954098
-0.21145543
-0.29055693
-0.29138766
-0.29102425
-0.28968301
-0.28769211
-0.28517389
-0.28219725
-0.27881759
-0.27507557
-0.27100035
-0.26661365
-0.26193227
-0.2569706
-0.25174023
-0.24624706
-0.24050258
-0.23457646
-0.22850426
-0.22148132
-0.21236532
-0.30203889
-0.3011863
-0.29952007
-0.29718952
-0.29433709
-0.2910657
-0.28744329
-0.28351424
-0.27930722
-0.27483975
-0.27012271
-0.26516368
-0.25996821
-0.25453949
-0.24887427
-0.24297272
-0.23690454
-0.23072469
-0.22339738
-0.21314413
-0.3149828
-0.31227119
-0.30913522
-0.30566433
-0.30180658
-0.29764862
-0.2932613
-0.28867763
-0.28391156
-0.27896812
-0.27384673
-0.26854365
-0.26305388
-0.25737104
-0.25148279
-0.24537749
-0.23911767
-0.23278092
-0.22516345
-0.21378158
-0.32917264
-0.32446726
-0.3197278
-0.31499355
-0.31001391
-0.30486228
-0.29961271
-0.29428602
-0.28888141
-0.28338948
-0.27779529
-0.27208086
-0.26622755
-0.2602169
-0.25402692
-0.24763705
-0.24110704
-0.23456045
-0.22674476
-0.21446587
-0.34445535
-0.33764215
-0.33118744
-0.32509051
-0.31889475
-0.31265895
-0.30646232
-0.30031294
-0.29419238
-0.28807364
-0.28192386
-0.2757066
-0.26938413
-0.26291768
-0.25626283
-0.2493717
-0.24226859
-0.2350597
-0.22648769
-0.21305019
-0.36073204
-0.3516881
-0.34340193
-0.33583774
-0.32831949
-0.32089115
-0.313637
-0.30655007
-0.29959184
-0.29271604
-0.28587153
-0.27900514
-0.27206455
-0.26499832
-0.2577506
-0.25025699
-0.24246036
-0.23415408
-0.22368731
-0.20801858
-0.20246688
-0.19351859
-0.18456534
-0.17567114
-0.16678228
-0.15794045
-0.14919914
-0.14059343
-0.13215259
-0.12390523
-0.11587715
-0.10809053
-0.10056451
-0.093315454
-0.086356943
-0.079699863
-0.073352507
-0.067320679
-0.06160779
-0.05621497
-0.051141191
-0.046383408
-0.041936706
-0.037794468
-0.033948551
-0.030389477
-0.027106616
-0.024088393
-0.021322473
-0.01879596
-0.016495578
-0.014407846
-0.012519248
-0.010816382
-0.0092861065
-0.0079156698
-0.0066928384
-0.005605998
-0.0046443313
-0.003797742
-0.0030576738
-0.0024151229
-0.0018678191
-0.0013991196
-0.0010446083
-0.00069471573
-0.00068801816
-8.0184974e-05
-0.0017061542
0.0024523991
-0.20347692
-0.19413137
-0.18506908
-0.17618921
-0.16728233
-0.15841031
-0.14964458
-0.1410166
-0.1325532
-0.12428351
-0.11623363
-0.10842563
-0.10087862
-0.093609043
-0.086630548
-0.079954082
-0.073588002
-0.067538171
-0.061808052
-0.056398817
-0.051309471
-0.046536989
-0.042076467
-0.037921292
-0.034063315
-0.030493041
-0.027199821
-0.024172053
-0.021397372
-0.018862844
-0.016555156
-0.014460788
-0.01256618
-0.010857888
-0.0093227281
-0.007947905
-0.006721143
-0.0056307864
-0.0046659776
-0.0038165805
-0.0030739991
-0.0024291931
-0.0018798353
-0.0014092908
-0.0010528645
-0.00070163707
-0.00069142095
-8.6001305e-05
-0.0016915961
0.0024238113
-0.2055956
-0.19539943
-0.1861197
-0.17730852
-0.16837804
-0.15944534
-0.15063199
-0.14196
-0.13344956
-0.12513197
-0.11703455
-0.10917924
-0.10158529
-0.094269454
-0.087245676
-0.08052512
-0.074116351
-0.068025419
-0.062255941
-0.056809209
-0.051684319
-0.046878307
-0.042386306
-0.038201708
-0.034316352
-0.03072071
-0.027404085
-0.024354807
-0.021560435
-0.019007953
-0.016683952
-0.014574814
-0.012666879
-0.0109466
-0.0094006902
-0.0080162526
-0.0067809114
-0.0056829134
-0.0047113066
-0.0038558629
-0.0031078961
-0.0024582808
-0.0019045718
-0.0014301281
-0.0010697269
-0.00071564973
-0.00069841166
-9.7491707e-05
-0.0016630197
0.0023672497
-0.20866422
-0.19709134
-0.18749065
-0.17887843
-0.16995856
-0.16094917
-0.15208169
-0.14336075
-0.13479128
-0.12640966
-0.11824692
-0.11032506
-0.10266359
-0.095280155
-0.088189375
-0.081402944
-0.074929886
-0.068776658
-0.062947212
-0.057443106
-0.052263642
-0.047406004
-0.042865418
-0.038635328
-0.03470758
-0.031072616
-0.02771968
-0.024637015
-0.021812075
-0.019231715
-0.01688239
-0.014750332
-0.012821727
-0.01108287
-0.0095203117
-0.008120998
-0.0068723967
-0.0057626017
-0.0047805132
-0.0039157592
-0.0031595124
-0.0025025136
-0.001942138
-0.0014617254
-0.0010952758
-0.00073681668
-0.0007090892
-0.00011460821
-0.0016211726
0.0022839387
-0.2124561
-0.1989366
-0.18891271
-0.18070127
-0.17187738
-0.16279396
-0.15388343
-0.14512987
-0.1365068
-0.12805782
-0.11982245
-0.11182382
-0.10408189
-0.096615731
-0.08944137
-0.082571526
-0.076016069
-0.069782195
-0.063874477
-0.058294973
-0.053043378
-0.048117175
-0.043511803
-0.039220843
-0.035236207
-0.031548351
-0.028146474
-0.025018739
-0.022152476
-0.019534395
-0.017150776
-0.014987666
-0.013031046
-0.011267005
-0.0096818805
-0.0082624063
-0.0069958396
-0.0058700681
-0.0048737915
-0.0039964422
-0.0032290011
-0.0025620271
-0.0019926536
-0.0015041877
-0.001129607
-0.00076520974
-0.00072359949
-0.00013724985
-0.0015671985
0.0021757635
-0.21662397
-0.20065472
-0.19011674
-0.18254385
-0.17396217
-0.16483636
-0.15590514
-0.14715338
-0.13850342
-0.13000045
-0.1216978
-0.11362309
-0.10579725
-0.09824124
-0.090973327
-0.084008017
-0.077356595
-0.071027461
-0.065026215
-0.059355762
-0.054016474
-0.049006363
-0.04432127
-0.039955057
-0.035899821
-0.032146104
-0.028683122
-0.025498984
-0.022580914
-0.019915466
-0.017488735
-0.015286547
-0.01329465
-0.011498879
-0.0098853158
-0.0084404293
-0.0071512167
-0.0060053079
-0.0049911512
-0.0040979329
-0.0033163922
-0.0026368582
-0.0020561603
-0.0015575609
-0.0011727746
-0.00080087156
-0.00074209729
-0.00016527519
-0.0015025451
0.0020451782
-0.2207703
-0.20206414
-0.19089103
-0.18412849
-0.17601243
-0.16694939
-0.15803173
-0.14931907
-0.14068528
-0.13215971
-0.12380811
-0.11566795
-0.10776354
-0.10011816
-0.092753033
-0.08568542
-0.078928818
-0.072493446
-0.066386448
-0.060612022
-0.055171587
-0.050063991
-0.045285719
-0.040831113
-0.036692602
-0.032860937
-0.029325426
-0.026074182
-0.023094352
-0.020372351
-0.017894077
-0.015645125
-0.013610976
-0.011777179
-0.010129518
-0.0086541535
-0.0073377755
-0.006167708
-0.0051320995
-0.0042198421
-0.0034213851
-0.0027267825
-0.0021324985
-0.0016217414
-0.0012247279
-0.000843781
-0.00076471936
-0.00019853335
-0.0014288619
0.0018950721
-0.22463423
-0.20356047
-0.1914599
-0.18526776
-0.17781393
-0.16904567
-0.16021961
-0.15157075
-0.14299042
-0.13447996
-0.12610419
-0.11791323
-0.10993911
-0.10220866
-0.09474645
-0.087573253
-0.080705574
-0.074156073
-0.067933943
-0.062045107
-0.056492409
-0.051275843
-0.046392796
-0.041838305
-0.0376053
-0.033684869
-0.030066519
-0.026738437
-0.023687741
-0.020900731
-0.018363123
-0.016060272
-0.013977378
-0.012099679
-0.010412625
-0.0089020353
-0.0075542488
-0.0063562413
-0.0052958177
-0.0043615314
-0.003543497
-0.0028314504
-0.0022214311
-0.0016965892
-0.0012854125
-0.00089394034
-0.00079165484
-0.00023693249
-0.0013479486
0.0017287349
-0.22587355
-0.20538838
-0.19251891
-0.18589796
-0.17893154
-0.1707449
-0.1621953
-0.15367555
-0.14520223
-0.13676882
-0.12842296
-0.12022252
-0.11221064
-0.10441997
-0.096879041
-0.089612738
-0.082641425
-0.075981036
-0.069643546
-0.063637266
-0.057967067
-0.052634624
-0.047638697
-0.042975412
-0.03863854
-0.034619791
-0.030909094
-0.027494888
-0.024364403
-0.021503924
-0.018899052
-0.016534944
-0.014396542
-0.012468772
-0.010736739
-0.009185894
-0.0078021962
-0.0065722339
-0.0054834256
-0.004523941
-0.0036835125
-0.0029515122
-0.0023234932
-0.001782533
-0.0013551845
-0.00095157242
-0.00082329095
-0.00028018139
-0.0012619633
0.0015504359
-0.21601292
-0.20463447
-0.19363664
-0.18554926
-0.17849348
-0.1710811
-0.16313773
-0.15498387
-0.14679843
-0.13860748
-0.13043873
-0.12234967
-0.11439579
-0.10662002
-0.099058192
-0.091741866
-0.084697705
-0.077947175
-0.071506974
-0.065389457
-0.059602923
-0.054151917
-0.049037562
-0.044257892
-0.039808189
-0.035681321
-0.03186807
-0.028357466
-0.025137102
-0.022193438
-0.019512094
-0.017078119
-0.014876244
-0.012891106
-0.011107467
-0.0095103898
-0.0080854214
-0.006818723
-0.0056972807
-0.0047088294
-0.0038426676
-0.0030877483
-0.0024390808
-0.0018796244
-0.0014338743
-0.0010161526
-0.00085943762
-0.00032662212
-0.0011734661
0.0013656774
-0.19387496
-0.19858208
-0.19330893
-0.18440471
-0.17690218
-0.16989449
-0.16239438
-0.15453736
-0.14658928
-0.13861336
-0.13062914
-0.12268953
-0.1148538
-0.1071693
-0.099675022
-0.092405466
-0.085390264
-0.078653675
-0.072214914
-0.066088599
-0.060285055
-0.054810617
-0.049667972
-0.044856509
-0.040372669
-0.0362103
-0.032361003
-0.028814475
-0.025558847
-0.022580999
-0.019866868
-0.017401729
-0.015170463
-0.013157793
-0.011348508
-0.0097276573
-0.0082807321
-0.0069938098
-0.0058537647
-0.0048482038
-0.0039662477
-0.0031967344
-0.0025342109
-0.0019620727
-0.0015020551
-0.0010747929
-0.0008905647
-0.00037302407
-0.0010830374
0.0011823629
-0.18332618
-0.18914713
-0.18567425
-0.17693564
-0.1697329
-0.16347695
-0.15677731
-0.14963417
-0.14234345
-0.1349802
-0.12755416
-0.1201139
-0.11272114
-0.10542692
-0.098273815
-0.09130013
-0.084539543
-0.078020318
-0.071765512
-0.065793378
-0.060117658
-0.054747862
-0.049689604
-0.044944954
-0.040512791
-0.036389168
-0.032567669
-0.029039761
-0.025795142
-0.022822076
-0.020107704
-0.017638347
-0.015399781
-0.013377489
-0.011556899
-0.0099235867
-0.0084634728
-0.007162976
-0.0060092262
-0.0049900326
-0.0040945872
-0.0033119097
-0.0026361044
-0.0020515838
-0.0015763697
-0.0011400692
-0.00092414182
-0.00042753814
-0.00098217101
0.0009847236
-0.17458808
-0.17780957
-0.17553261
-0.16851204
-0.16215971
-0.15659767
-0.15066481
-0.14425171
-0.13762503
-0.13087987
-0.12402813
-0.11711218
-0.11019253
-0.10332206
-0.096545455
-0.089903388
-0.083432454
-0.077164134
-0.071124776
-0.065335919
-0.059814525
-0.054573205
-0.049620521
-0.044961308
-0.040597021
-0.036526084
-0.032744246
-0.029244938
-0.026019623
-0.023058136
-0.020349007
-0.017879774
-0.015637265
-0.013607871
-0.011777784
-0.010133225
-0.0086606407
-0.0073468791
-0.0061793972
-0.0051462676
-0.0042367947
-0.0034402292
-0.0027502063
-0.0021522861
-0.0016604053
-0.0012140542
-0.00096316067
-0.0004889335
-0.00087381771
0.00076824618
-0.16491
-0.16552279
-0.16369143
-0.15874694
-0.15362454
-0.14880513
-0.14366338
-0.138062
-0.13217835
-0.12611329
-0.11989447
-0.11356232
-0.10717399
-0.10078299
-0.094435856
-0.088175255
-0.082040271
-0.076065353
-0.070280042
-0.064709157
-0.059372962
-0.054287325
-0.049463955
-0.044910693
-0.040631824
-0.036628411
-0.032898641
-0.029438173
-0.026240488
-0.023297233
-0.020598552
-0.018133402
-0.015889856
-0.013855373
-0.012017064
-0.010361919
-0.0088770279
-0.0075497606
-0.0063679813
-0.0053200908
-0.004395556
-0.0035838939
-0.0028782917
-0.0022654598
-0.0017552291
-0.0012969511
-0.0010088604
-0.00055468795
-0.00076553618
0.00054299055
-0.15434088
-0.15307378
-0.15126446
-0.14803485
-0.14420568
-0.14019111
-0.13584639
-0.13108896
-0.12600228
-0.1206694
-0.11513346
-0.10943748
-0.10363444
-0.097776739
-0.091911816
-0.086083617
-0.080332969
-0.074696717
-0.069207231
-0.063892402
-0.058775707
-0.053876287
-0.049209107
-0.044785182
-0.040611846
-0.03669305
-0.033029682
-0.0296199
-0.026459477
-0.023542134
-0.020859878
-0.018403322
-0.016161993
-0.014124621
-0.012279404
-0.010614262
-0.0091170592
-0.0077758031
-0.0065788631
-0.0055150461
-0.0045740479
-0.0037456881
-0.0030227606
-0.0023930689
-0.0018625153
-0.0013897949
-0.0010627405
-0.00062417202
-0.00066336443
0.00031706128
-0.14255439
-0.14049548
-0.1388007
-0.13684541
-0.13418709
-0.13100851
-0.12745091
-0.12351812
-0.11923224
-0.11464911
-0.10981964
-0.10478853
-0.099604184
-0.094316647
-0.088973191
-0.083617987
-0.0782925
-0.07303498
-0.067879867
-0.06285755
-0.057994296
-0.053312242
-0.048829456
-0.044560078
-0.040514527
-0.036699743
-0.033119466
-0.029774541
-0.026663235
-0.023781563
-0.021123617
-0.018681883
-0.016447554
-0.014410821
-0.012561159
-0.010887577
-0.0093788628
-0.008023793
-0.0068113539
-0.0057308511
-0.004772291
-0.003925841
-0.0031839853
-0.0025355299
-0.0019827797
-0.0014929016
-0.001125783
-0.0006969443
-0.00057329483
9.9111128e-05
-0.12986043
-0.12793068
-0.12658399
-0.12554079
-0.12384609
-0.12147717
-0.11867987
-0.11552573
-0.1120116
-0.10816703
-0.10404196
-0.099682776
-0.095132433
-0.090435848
-0.085638934
-0.080785334
-0.075916157
-0.07106992
-0.066282119
-0.061584829
-0.057006456
-0.052571612
-0.048301085
-0.044211885
-0.040317364
-0.03662739
-0.033148569
-0.029884501
-0.026836063
-0.024001712
-0.021377788
-0.01895883
-0.016737878
-0.014706769
-0.012856423
-0.011177104
-0.0096586761
-0.0082908189
-0.007063258
-0.0059659003
-0.0049891578
-0.0041235979
-0.0033615048
-0.0026925753
-0.0021159773
-0.001606199
-0.0011986631
-0.00077258927
-0.00050122778
-0.00010154995
-0.11697472
-0.11562516
-0.11476712
-0.11437973
-0.11344058
-0.11180689
-0.10972036
-0.10728338
-0.10448922
-0.10134971
-0.097906951
-0.094205259
-0.090284479
-0.086183918
-0.081944649
-0.077608584
-0.073215855
-0.068804308
-0.064409421
-0.060063979
-0.055797701
-0.051636988
-0.047604782
-0.043720517
-0.040000153
-0.036456259
-0.033098174
-0.029932194
-0.026961816
-0.024187988
-0.021609397
-0.019222752
-0.017023079
-0.01500401
-0.013158063
-0.01147691
-0.0099516305
-0.008572947
-0.0073314479
-0.00621775
-0.0052227743
-0.0043375496
-0.0035542882
-0.002863462
-0.0022616537
-0.0017293591
-0.0012817561
-0.00085089683
-0.00045218336
-0.00027607194
-0.10444042
-0.10375739
-0.10341523
-0.10352186
-0.10317077
-0.10217437
-0.10072943
-0.098939662
-0.096801605
-0.094317563
-0.091519866
-0.088447486
-0.085135765
-0.081619669
-0.077935691
-0.074121369
-0.070214427
-0.066251341
-0.062266738
-0.058293159
-0.054360743
-0.050496886
-0.046726004
-0.043069381
-0.039545108
-0.036168097
-0.032950142
-0.029900055
-0.027023839
-0.02432489
-0.021804247
-0.019460839
-0.017291758
-0.015292532
-0.013457395
-0.011779551
-0.010251427
-0.0088649104
-0.0076115731
-0.006482851
-0.0054702819
-0.0045654244
-0.0037605589
-0.0030468297
-0.0024188296
-0.0018617231
-0.0013750229
-0.00093187092
-0.00042952505
-0.00041731225
-0.092543142
-0.092446171
-0.09257243
-0.093066707
-0.093176966
-0.092715414
-0.091831119
-0.09061403
-0.089062971
-0.087175488
-0.084974826
-0.082492937
-0.079759895
-0.076805572
-0.073662
-0.070362592
-0.066941114
-0.063431367
-0.059866365
-0.056277641
-0.052694912
-0.049145763
-0.045655348
-0.042246154
-0.03893785
-0.035747213
-0.032688123
-0.02977161
-0.02700597
-0.024396907
-0.021947727
-0.01965955
-0.01753155
-0.015561197
-0.013744512
-0.012076323
-0.010550503
-0.0091602113
-0.0078981129
-0.0067565644
-0.0057278253
-0.0048040579
-0.0039777541
-0.0032406547
-0.0025859563
-0.0020022489
-0.0014779318
-0.001015623
-0.00043437907
-0.00052096366
-0.081423224
-0.081782252
-0.082290938
-0.083087809
-0.083558908
-0.083534463
-0.083125471
-0.082404042
-0.08136858
-0.080013716
-0.078355049
-0.076417166
-0.074224378
-0.071801284
-0.069174812
-0.066373995
-0.063428741
-0.060369248
-0.057225831
-0.054028268
-0.050805141
-0.047583475
-0.044388435
-0.041243039
-0.038167931
-0.03518123
-0.032298443
-0.02953245
-0.026893542
-0.024389503
-0.022025747
-0.019805486
-0.017729916
-0.015798442
-0.014008894
-0.01235777
-0.01084046
-0.0094514743
-0.0081846585
-0.0070333808
-0.0059907194
-0.0050495162
-0.0042026136
-0.0034423071
-0.0027609516
-0.0021495063
-0.0015894298
-0.0011022166
-0.00046534384
-0.00058638954
-0.071141136
-0.071828108
-0.07262316
-0.073645069
-0.074391335
-0.07471402
-0.074696
-0.074392797
-0.073800723
-0.072911993
-0.071735877
-0.07029004
-0.068592921
-0.066663803
-0.064524426
-0.062198955
-0.059713104
-0.05709339
-0.054366788
-0.051560461
-0.048701163
-0.045814697
-0.04292556
-0.040056641
-0.037228943
-0.034461363
-0.031770546
-0.02917079
-0.026674021
-0.024289813
-0.022025461
-0.019886096
-0.017874828
-0.015992924
-0.014239999
-0.012614226
-0.011112539
-0.0097308534
-0.0084642598
-0.007307211
-0.0062536887
-0.0052972876
-0.0044313311
-0.003648662
-0.0029412818
-0.0023016996
-0.0017079565
-0.0011915011
-0.00051859242
-0.00061691502
-0.061708803
-0.062616525
-0.063609269
-0.064785205
-0.065731208
-0.066319826
-0.066613072
-0.066652731
-0.066432661
-0.065942932
-0.065187591
-0.064178171
-0.062927538
-0.061449807
-0.059761631
-0.057882259
-0.055832865
-0.053635972
-0.051315029
-0.048894062
-0.046397318
-0.04384875
-0.041271572
-0.03868792
-0.036118548
-0.033582566
-0.031097232
-0.028677797
-0.026337416
-0.024087105
-0.021935761
-0.019890207
-0.017955298
-0.016134045
-0.014427771
-0.012836284
-0.011358061
-0.0099904365
-0.0087297874
-0.007571704
-0.0065111412
-0.0055425143
-0.0046597454
-0.0038562481
-0.0031240768
-0.0024567175
-0.0018315021
-0.0012829793
-0.00058840964
-0.00061938599
-0.053111428
-0.054155757
-0.055271687
-0.056539692
-0.057619746
-0.058402574
-0.058934378
-0.059246053
-0.059329413
-0.059172838
-0.058776156
-0.058145708
-0.05728938
-0.056216499
-0.054938919
-0.053471128
-0.051829756
-0.050033113
-0.048100857
-0.046053646
-0.04391277
-0.041699771
-0.039436021
-0.037142333
-0.03483864
-0.032543702
-0.030274858
-0.028047823
-0.02587654
-0.023773083
-0.021747615
-0.019808381
-0.01796176
-0.01621234
-0.014563028
-0.01301519
-0.011568798
-0.010222596
-0.0089742584
-0.0078205454
-0.0067574367
-0.0057802285
-0.0048835432
-0.0040614127
-0.0033062629
-0.0026122081
-0.0019577133
-0.0013757515
-0.00066809419
-0.0006029815
-0.045318226
-0.046434878
-0.047614754
-0.04892382
-0.050082676
-0.050998123
-0.051704302
-0.052223667
-0.052546683
-0.052660649
-0.05256217
-0.052253382
-0.051737959
-0.051021026
-0.050110101
-0.049015256
-0.047748771
-0.046324788
-0.044759059
-0.043068673
-0.04127172
-0.039386947
-0.037433407
-0.035430092
-0.033395592
-0.031347787
-0.029303577
-0.027278642
-0.025287253
-0.023342122
-0.021454308
-0.019633163
-0.017886321
-0.016219731
-0.014637722
-0.013143093
-0.011737233
-0.010420245
-0.0091910862
-0.0080476952
-0.0069871098
-0.0060055558
-0.005098441
-0.004260477
-0.0034846947
-0.0027656702
-0.0020840383
-0.0014685516
-0.00075104021
-0.00057750206
-0.038287815
-0.03942899
-0.040627707
-0.041938077
-0.04313118
-0.04412807
-0.044953783
-0.045624365
-0.04612964
-0.046456481
-0.046599222
-0.046556788
-0.046329483
-0.045918941
-0.045328953
-0.044565676
-0.043637407
-0.042554354
-0.041328456
-0.039973191
-0.038503311
-0.036934551
-0.035283315
-0.033566368
-0.031800512
-0.030002274
-0.028187628
-0.026371736
-0.02456873
-0.022791527
-0.021051684
-0.019359301
-0.017722965
-0.016149728
-0.014645128
-0.013213237
-0.011856736
-0.010577009
-0.0093742461
-0.008247549
-0.0071950248
-0.0062138625
-0.0053003221
-0.0044498589
-0.0036562681
-0.0029145497
-0.0022078908
-0.0015598613
-0.00083172957
-0.00055156349
-0.031972763
-0.033104166
-0.034288781
-0.035571009
-0.036763936
-0.03780121
-0.038701102
-0.039474901
-0.040112402
-0.040600643
-0.040932555
-0.041104777
-0.041115093
-0.040962407
-0.040647477
-0.040173147
-0.039544238
-0.038767403
-0.037851035
-0.036805133
-0.035641132
-0.034371664
-0.033010311
-0.031571334
-0.0300694
-0.028519292
-0.026935631
-0.025332617
-0.023723797
-0.022121856
-0.020538441
-0.018984024
-0.017467803
-0.015997639
-0.014580031
-0.013220115
-0.011921707
-0.010687351
-0.0095183905
-0.0084150439
-0.0073764744
-0.0064008488
-0.0054853237
-0.0046261565
-0.0038180027
-0.0030563277
-0.0023268036
-0.0016480624
-0.00090636913
-0.00053120656
-0.026323016
-0.027421186
-0.028568797
-0.029802281
-0.030969641
-0.03201557
-0.032953371
-0.033790882
-0.034518336
-0.035123415
-0.035598372
-0.035938383
-0.036139496
-0.036198634
-0.036114226
-0.035886469
-0.03551729
-0.035010281
-0.034370673
-0.033605278
-0.032722376
-0.03173156
-0.030643548
-0.029469967
-0.028223124
-0.026915765
-0.025560815
-0.024171133
-0.022759279
-0.021337295
-0.019916516
-0.018507402
-0.017119407
-0.015760876
-0.014438985
-0.013159697
-0.011927762
-0.010746726
-0.0096189726
-0.0085457589
-0.0075272623
-0.0065626169
-0.0056498963
-0.0047862024
-0.0039670993
-0.0031885955
-0.0024385418
-0.0017315819
-0.00097301509
-0.00051931044
-0.021288197
-0.022338181
-0.02343397
-0.024605408
-0.025729526
-0.026760625
-0.02770838
-0.028578164
-0.029360975
-0.030045471
-0.030623802
-0.031090359
-0.031440137
-0.03166875
-0.031772977
-0.031751021
-0.031602528
-0.031328583
-0.030931733
-0.030415987
-0.029786769
-0.029050826
-0.028216105
-0.027291599
-0.026287167
-0.025213339
-0.024081103
-0.022901682
-0.021686311
-0.020446033
-0.019191495
-0.017932775
-0.016679225
-0.015439345
-0.014220678
-0.013029747
-0.011872004
-0.010751809
-0.0096724341
-0.0086360643
-0.007643818
-0.0066957593
-0.0057908709
-0.004927119
-0.0041009896
-0.003309118
-0.0025411645
-0.001808993
-0.0010312171
-0.00051590198
-0.016819492
-0.017812872
-0.018848357
-0.01995029
-0.021019855
-0.02201966
-0.022956721
-0.023834668
-0.02464545
-0.025378907
-0.0260275
-0.026585357
-0.027046974
-0.027407228
-0.027661848
-0.027807648
-0.027842588
-0.027765806
-0.027577683
-0.027279882
-0.02687535
-0.026368288
-0.025764083
-0.025069211
-0.024291119
-0.023438069
-0.022518978
-0.021543236
-0.020520505
-0.019460534
-0.018372965
-0.017267158
-0.016152027
-0.015035893
-0.013926363
-0.012830231
-0.011753399
-0.010700824
-0.0096764849
-0.0086833537
-0.0077233859
-0.0067975072
-0.0059055728
-0.0050464072
-0.0042174056
-0.0034159017
-0.0026330446
-0.001879066
-0.0010813949
-0.00051911157
-0.012870707
-0.013803981
-0.014775542
-0.015805078
-0.016813909
-0.017771785
-0.018683752
-0.019552199
-0.020370106
-0.021128585
-0.021820676
-0.022440621
-0.022982831
-0.023441907
-0.023813016
-0.024092111
-0.024276001
-0.024362414
-0.024350074
-0.024238775
-0.02402942
-0.023724029
-0.023325726
-0.022838695
-0.022268104
-0.021620014
-0.020901251
-0.020119277
-0.019282028
-0.018397751
-0.017474833
-0.016521638
-0.015546341
-0.014556786
-0.013560342
-0.012563791
-0.011573223
-0.010593957
-0.0096304743
-0.0086863686
-0.0077642995
-0.0068659576
-0.0059920055
-0.0051420921
-0.0043144913
-0.0035072828
-0.0027128785
-0.0019407895
-0.0011242334
-0.00052631981
-0.0093998293
-0.010273033
-0.011180621
-0.012138286
-0.013084166
-0.013994125
-0.014871726
-0.015718458
-0.016528323
-0.017293707
-0.018008377
-0.018666934
-0.019263998
-0.019794222
-0.020252599
-0.020634644
-0.020936474
-0.021154872
-0.021287384
-0.021332395
-0.0212892
-0.021158041
-0.020940131
-0.020637647
-0.020253709
-0.019792325
-0.019258319
-0.018657233
-0.01799522
-0.017278909
-0.016515264
-0.015711443
-0.014874645
-0.014011975
-0.013130296
-0.012236111
-0.011335443
-0.010433734
-0.0095357563
-0.0086455373
-0.0077662878
-0.0069003419
-0.0060490794
-0.0052129143
-0.0043909515
-0.0035820392
-0.0027797125
-0.001993391
-0.0011603058
-0.0005350697
-0.0063688577
-0.0071846554
-0.0080309244
-0.0089198886
-0.0098037473
-0.010663581
-0.011501804
-0.012319229
-0.013110815
-0.013870156
-0.014591804
-0.015270853
-0.015902314
-0.016481118
-0.017002354
-0.017461424
-0.017854112
-0.01817665
-0.018425811
-0.018598993
-0.018694297
-0.018710585
-0.018647526
-0.018505625
-0.018286233
-0.017991533
-0.017624509
-0.01718889
-0.016689077
-0.016130058
-0.015517295
-0.014856613
-0.014154066
-0.013415819
-0.012648011
-0.011856634
-0.011047409
-0.010225678
-0.009396291
-0.0085635192
-0.0077309579
-0.0069014462
-0.0060769694
-0.0052586255
-0.0044462875
-0.0036395654
-0.0028330349
-0.0020364004
-0.0011899873
-0.00054354822
-0.0037455826
-0.0045081804
-0.0052974541
-0.0061225587
-0.0069474497
-0.0077576401
-0.0085546349
-0.009338716
-0.010105699
-0.010850278
-0.011567777
-0.01225384
-0.012903959
-0.013513473
-0.014077747
-0.014592291
-0.015052821
-0.015455322
-0.015796126
-0.016071997
-0.016280207
-0.016418604
-0.016485674
-0.016480586
-0.016403229
-0.016254232
-0.016034959
-0.015747496
-0.015394615
-0.014979718
-0.014506773
-0.01398022
-0.013404881
-0.012785849
-0.012128379
-0.01143777
-0.010719249
-0.0099778544
-0.0092183246
-0.0084449883
-0.0076616586
-0.0068715325
-0.0060770772
-0.0052799764
-0.0044807934
-0.0036798666
-0.0028727516
-0.0020696272
-0.0012134779
-0.00055062878
-0.0015043337
-0.0022195342
-0.0029577654
-0.0037255567
-0.004496627
-0.0052602028
-0.0060170504
-0.0067670198
-0.0075066645
-0.0082316452
-0.0089379966
-0.0096219084
-0.010279379
-0.010906208
-0.011498132
-0.012050907
-0.012560361
-0.013022447
-0.013433306
-0.013789349
-0.014087323
-0.01432438
-0.014498147
-0.014606779
-0.014649016
-0.014624216
-0.014532385
-0.014374187
-0.014150941
-0.013864598
-0.01351771
-0.013113374
-0.012655165
-0.012147059
-0.011593337
-0.010998488
-0.010367108
-0.0097037791
-0.0090129661
-0.0082988964
-0.0075654467
-0.0068160292
-0.0060534653
-0.0052799152
-0.0044965415
-0.0037043513
-0.0028998156
-0.0020936501
-0.0012312845
-0.00055593868
0.00037899533
-0.00029462878
-0.00098802674
-0.0017053513
-0.0024283756
-0.0031494339
-0.0038686914
-0.0045856323
-0.0052974219
-0.0060005415
-0.0066916518
-0.0073674431
-0.0080243949
-0.00865877
-0.009266703
-0.0098442637
-0.010387494
-0.010892451
-0.011355259
-0.011772178
-0.012139661
-0.012454422
-0.0127135
-0.012914319
-0.013054753
-0.013133171
-0.013148483
-0.013100174
-0.012988326
-0.012813623
-0.012577345
-0.012281349
-0.011928025
-0.011520247
-0.011061307
-0.010554835
-0.01000471
-0.009414962
-0.0087896613
-0.0081328073
-0.0074482095
-0.0067393662
-0.0060093303
-0.0052606263
-0.0044949153
-0.0037137925
-0.0029145627
-0.0021084599
-0.0012432232
-0.00055898158
0.0019015881
0.0012617425
0.00060515958
-7.0563029e-05
-0.00075361603
-0.0014387781
-0.0021257183
-0.0028136237
-0.00350015
-0.0041824425
-0.0048576803
-0.00552298
-0.0061752431
-0.0068111493
-0.0074272129
-0.0080198243
-0.0085852775
-0.0091198034
-0.0096196125
-0.010080945
-0.010500127
-0.010873626
-0.01119811
-0.011470513
-0.011688093
-0.01184849
-0.011949783
-0.011990535
-0.011969832
-0.011887317
-0.011743196
-0.01153825
-0.011273824
-0.010951797
-0.010574541
-0.010144861
-0.0096659292
-0.0091411932
-0.0085742827
-0.0079688999
-0.0073287023
-0.0066571803
-0.0059575174
-0.0052324994
-0.0044841831
-0.0037146546
-0.0029219481
-0.0021177446
-0.0012518985
-0.00056107222
0.0031042068
0.0024921379
0.0018656878
0.0012240806
0.00057410112
-8.0987321e-05
-0.00074046885
-0.0014032801
-0.0020674477
-0.0027306348
-0.0033904307
-0.0040442959
-0.0046894778
-0.0053230059
-0.0059417228
-0.0065423098
-0.0071213069
-0.0076751373
-0.0082001411
-0.0086926153
-0.0091488592