/*--------------------------------*- C++ -*----------------------------------*\
  =========                 |
  \\      /  F ield         | OpenFOAM: The Open Source CFD Toolbox
   \\    /   O peration     | Website:  https://openfoam.org
    \\  /    A nd           | Version:  6
     \\/     M anipulation  |
\*---------------------------------------------------------------------------*/
FoamFile
{
    version     2.0;
    format      ascii;
    class       volScalarField;
    location    "191";
    object      pPrime2Mean;
}
// * * * * * * * * * * * * * * * * * * * * * * * * * * * * * * * * * * * * * //

dimensions      [0 4 -4 0 0 0 0];

internalField   nonuniform List<scalar> 
9200
(
0.058849945
0.048781729
0.04025781
0.034708808
0.03027979
0.026546943
0.023326007
0.020523029
0.018075473
0.015933257
0.014054901
0.012405634
0.0109561
0.0096813615
0.0085601326
0.0075742119
0.0067081942
0.0059492317
0.0052878048
0.0047115538
0.0477213
0.039481442
0.032590871
0.028061988
0.024428728
0.021357628
0.01870392
0.016393768
0.01437744
0.012614847
0.011072508
0.0097221044
0.0085394736
0.0075038477
0.0065972657
0.0058041546
0.005111105
0.0045065644
0.0039797863
0.0035154591
0.037286535
0.030805179
0.025448495
0.021880208
0.018994671
0.016543805
0.014420678
0.012570905
0.010957344
0.0095496046
0.0083218095
0.0072515814
0.0063193808
0.0055080173
0.0048023024
0.004188819
0.0036557875
0.0031928142
0.0027894709
0.0024320721
0.02783517
0.022986862
0.019018408
0.016323749
0.014117354
0.012228807
0.010586289
0.0091536703
0.0079056849
0.0068208651
0.0058800909
0.0050660782
0.0043631235
0.0037569652
0.0032347241
0.0027848809
0.0023972475
0.0020627969
0.0017726226
0.0015163634
0.019628055
0.016236746
0.013473469
0.011541831
0.0099282906
0.0085301409
0.0073069407
0.0062390109
0.0053116867
0.0045111412
0.0038237825
0.003236333
0.0027360622
0.0023110398
0.0019503593
0.0016442878
0.0013843109
0.0011630314
0.00097360375
0.00080907932
0.012895067
0.010738038
0.008966986
0.0076678997
0.006545972
0.0055545775
0.0046799175
0.0039162765
0.0032577114
0.0026963134
0.0022225358
0.0018259503
0.0014959982
0.0012226007
0.00099658712
0.00080992683
0.00065577915
0.00052840655
0.00042294414
0.00033510618
0.0078284223
0.0066425111
0.0056293243
0.0048167369
0.004073297
0.0033956561
0.0027909725
0.0022643327
0.0018161385
0.0014424175
0.0011361388
0.00088866209
0.0006909435
0.00053438796
0.00041135446
0.00031536863
0.00024111703
0.000184337
0.00014176163
0.00011089848
0.0045777644
0.0040674911
0.0035654962
0.0030822083
0.0025952819
0.0021311845
0.001711547
0.0013485797
0.0010463774
0.00080289674
0.00061222521
0.00046662838
0.00035805559
0.0002790724
0.0002233168
0.00018561791
0.0001619082
0.00014907833
0.00014497302
0.00014814473
0.0032460062
0.0030925669
0.0028507939
0.0025325419
0.0021747224
0.0018196218
0.0014959613
0.0012189239
0.00099355072
0.000817909
0.00068610142
0.00059066881
0.00052416513
0.00048000543
0.00045278519
0.00043827891
0.0004332799
0.00043542725
0.00044316574
0.00045547906
0.003884854
0.0037569027
0.0035261223
0.0032058251
0.0028479254
0.0024956559
0.002176711
0.0019049516
0.0016838416
0.0015101287
0.0013771683
0.001277346
0.0012034854
0.0011494865
0.0011104825
0.0010827371
0.001063445
0.0010505426
0.0010425706
0.0010384185
0.13974909
0.11753144
0.09713407
0.084236567
0.073996163
0.065401109
0.05800141
0.051554292
0.045909459
0.040948791
0.036575782
0.032710541
0.029286146
0.026246025
0.023542007
0.021132835
0.018983
0.017060706
0.015336097
0.013791908
0.13796887
0.11592042
0.095756759
0.083007478
0.072895423
0.064409987
0.057105155
0.050742148
0.045172399
0.040278923
0.035966132
0.032154904
0.028778983
0.025782378
0.023117432
0.020743356
0.01862511
0.016731361
0.015032085
0.013510615
0.13433772
0.11273087
0.093072163
0.080640065
0.070790784
0.062527557
0.05541397
0.049218732
0.043797177
0.039035137
0.034839258
0.031132241
0.027849358
0.024935919
0.022345393
0.020037991
0.017979618
0.016139871
0.014488827
0.01301013
0.12891915
0.10804027
0.089157862
0.077207829
0.067748795
0.059814083
0.052983037
0.047034938
0.041830973
0.037261367
0.03323627
0.029681226
0.026533862
0.023741479
0.021259247
0.019048836
0.017077483
0.015316126
0.013735441
0.01231889
0.12186114
0.10198175
0.084127251
0.072812195
0.063860458
0.056351624
0.049886885
0.044258841
0.039336256
0.035015164
0.031210372
0.02785121
0.024878434
0.022241964
0.019899189
0.017813656
0.01595421
0.014293442
0.012803463
0.011467327
0.11336482
0.094731616
0.078127387
0.067582747
0.059241229
0.052243624
0.046218617
0.040974509
0.03638915
0.032365621
0.028824409
0.025699463
0.022935355
0.020485195
0.018309056
0.016372729
0.01464688
0.01310591
0.011724296
0.010485178
0.10367436
0.086501292
0.071332325
0.061671441
0.054025815
0.047610262
0.042085798
0.03727838
0.033076241
0.029390563
0.026148376
0.023288978
0.020761371
0.018522374
0.016535181
0.014768175
0.013194064
0.01178907
0.010530724
0.0094033335
0.093068128
0.077529819
0.063937521
0.055247921
0.048364005
0.042584669
0.037607082
0.033276329
0.029492062
0.026174414
0.023257675
0.020687107
0.018416683
0.016407405
0.014626005
0.013043842
0.011635984
0.010380581
0.0092586184
0.0082566475
0.081848589
0.068074959
0.056152781
0.048493336
0.042415147
0.037308059
0.032907916
0.029079846
0.025735701
0.022805225
0.020230538
0.017963367
0.015963099
0.014195328
0.012630702
0.011243937
0.010012916
0.0089181456
0.0079445397
0.0070809532
0.070331396
0.058405991
0.048194791
0.041592468
0.036340503
0.031922519
0.028113918
0.024800165
0.021905791
0.019370586
0.017144863
0.01518712
0.013462426
0.0119412
0.010598254
0.0094120123
0.0083638982
0.0074382426
0.0066251957
0.005914065
0.012162826
0.010538681
0.0091615465
0.0079659518
0.0069445881
0.0060697222
0.0053172932
0.0046666627
0.0041010532
0.0036068409
0.0031729932
0.0027906707
0.0024527766
0.002153538
0.001888193
0.0016527623
0.0014438742
0.0012586336
0.0010945244
0.00094933735
0.00082111539
0.00070811112
0.00060875423
0.00052162601
0.00044543974
0.00037902529
0.00032131707
0.00027134433
0.00022822336
0.00019115092
0.00015939865
0.00013230801
0.00010928578
8.9799544e-05
7.3373675e-05
5.9585087e-05
4.8059406e-05
3.8466809e-05
3.0518637e-05
2.3962713e-05
1.8582243e-05
1.4185902e-05
1.0621852e-05
7.7311456e-06
5.4523825e-06
3.5740268e-06
2.277179e-06
1.0453565e-06
1.3810252e-06
2.2704862e-06
0.011926731
0.010356538
0.0090188591
0.0078535774
0.0068571044
0.0060023294
0.0052654341
0.0046265615
0.0040697941
0.0035821911
0.0031532899
0.002774721
0.0024397342
0.0021427943
0.0018793004
0.0016453829
0.001437745
0.0012535439
0.0010903019
0.00094583934
0.00081822232
0.00070572255
0.00060678564
0.00052000634
0.00044410931
0.00037793414
0.00032042347
0.00027061354
0.00022762655
0.00019066421
0.00015900233
0.00013198585
0.00010902439
8.9587954e-05
7.3202859e-05
5.944764e-05
4.794925e-05
3.8378957e-05
3.0448997e-05
2.3907933e-05
1.8539574e-05
1.4153103e-05
1.0597097e-05
7.7129841e-06
5.439628e-06
3.56576e-06
2.2728315e-06
1.0428009e-06
1.3726726e-06
2.2263682e-06
0.011511188
0.010038096
0.0087718443
0.0076621766
0.0067104189
0.0058910902
0.0051811199
0.0045622102
0.0040201483
0.0035433461
0.0031224134
0.002749824
0.0024194323
0.0021261065
0.001865513
0.0016339602
0.0014282719
0.001245689
0.0010837945
0.00094045505
0.00081377375
0.00070205237
0.00060376171
0.00051751786
0.00044206354
0.00037625371
0.00031904405
0.00026948183
0.00022669852
0.00018990359
0.00015837931
0.00013147595
0.00010860756
8.9247744e-05
7.292578e-05
5.9222619e-05
4.7767179e-05
3.8232334e-05
3.0331633e-05
2.3814719e-05
1.8466289e-05
1.4096269e-05
1.055386e-05
7.6810378e-06
5.417105e-06
3.5511268e-06
2.2652567e-06
1.0383211e-06
1.3559874e-06
2.1401999e-06
0.010941686
0.0096029851
0.0084381892
0.0074088651
0.0065198044
0.0057486191
0.005074359
0.004481325
0.0039579499
0.0034947231
0.0030837761
0.0027186886
0.0023940774
0.0021053106
0.0018483801
0.0016198116
0.0014165779
0.001236025
0.0010758138
0.00093387102
0.0008083477
0.000697585
0.00060008654
0.00051449607
0.00043957971
0.00037421215
0.00031736572
0.00026810165
0.00022556307
0.00018896915
0.00015761014
0.00013084289
0.00010808679
8.8819802e-05
7.2574741e-05
5.8935411e-05
4.7533032e-05
3.8042352e-05
3.0178438e-05
2.3692179e-05
1.8369303e-05
1.4020592e-05
1.0495985e-05
7.6380978e-06
5.3867563e-06
3.531443e-06
2.2550962e-06
1.0324747e-06
1.3309684e-06
2.016408e-06
0.01024336
0.0090712299
0.0080361205
0.0071110892
0.0063005963
0.0055870927
0.0049543269
0.0043906928
0.0038882094
0.0034401033
0.0030403558
0.0026837631
0.0023657471
0.0020822032
0.0018294699
0.0016043088
0.0014038597
0.001225591
0.0010672568
0.00092685659
0.00080260005
0.00069287623
0.00059622838
0.0005113333
0.00043698479
0.00037208055
0.0003156121
0.00026665656
0.00022437017
0.00018798281
0.00015679348
0.00013016608
0.0001075257
8.8354853e-05
7.2189965e-05
5.8617735e-05
4.727168e-05
3.7828388e-05
3.0004406e-05
2.3551828e-05
1.8257375e-05
1.3932661e-05
1.0428351e-05
7.5877033e-06
5.3510408e-06
3.5083663e-06
2.2431347e-06
1.0259741e-06
1.2978629e-06
1.8614891e-06
0.0094377564
0.0084610706
0.0075821086
0.0067830748
0.0060640193
0.0054143271
0.0048260709
0.0042936614
0.0038133692
0.0033814676
0.0029939037
0.0026466723
0.0023359666
0.0020582066
0.001810093
0.0015886437
0.0013911878
0.0012153379
0.0010589596
0.00092014036
0.00079716049
0.00068846622
0.00059264742
0.00050841914
0.00043460653
0.00037013307
0.00031401124
0.00026533524
0.00022327507
0.00018707167
0.00015603283
0.0001295294
0.0001069919
8.790708e-05
7.1814649e-05
5.8303836e-05
4.7010104e-05
3.7611565e-05
2.9825953e-05
2.3406317e-05
1.8140163e-05
1.383976e-05
1.0356359e-05
7.5337771e-06
5.3126704e-06
3.4837135e-06
2.2301935e-06
1.0195785e-06
1.2570714e-06
1.6833293e-06
0.008545939
0.0077907705
0.0070908379
0.0064334383
0.0058137651
0.0052310597
0.0046890152
0.0041895934
0.0037333541
0.0033193624
0.0029454179
0.0026086824
0.0023061245
0.0020347248
0.0017915986
0.0015740712
0.0013797032
0.0012062853
0.0010518212
0.00091450651
0.00079270676
0.00068493598
0.00058983818
0.00050617167
0.00043279629
0.00036866322
0.00031280699
0.00026433918
0.0002224434
0.00018637118
0.00015543841
0.00012902206
0.00010655724
8.7534069e-05
7.1494688e-05
5.8030082e-05
4.6776952e-05
3.7414296e-05
2.9660485e-05
2.3269049e-05
1.8027879e-05
1.3749569e-05
1.0285681e-05
7.4804053e-06
5.2744397e-06
3.4593318e-06
2.2170654e-06
1.0140192e-06
1.2091391e-06
1.4904629e-06
0.0075941027
0.0070811873
0.006573577
0.0060609773
0.0055421219
0.0050292251
0.0045371981
0.0040749564
0.0036467159
0.0032538324
0.0028958363
0.0025711822
0.0022777834
0.0020133293
0.0017754729
0.0015619441
0.0013706067
0.0011994806
0.0010467434
0.00091072341
0.00078988819
0.00068283045
0.00058825515
0.00050496789
0.00043186519
0.00036792654
0.00031220824
0.00026383836
0.00022201288
0.00018599241
0.00015509938
0.00012871533
0.0001062784
8.7280665e-05
7.1265384e-05
5.7824111e-05
4.6593729e-05
3.7253208e-05
2.9520763e-05
2.3149733e-05
1.7927834e-05
1.3667521e-05
1.0220273e-05
7.4304044e-06
5.2382169e-06
3.436431e-06
2.2041244e-06
1.0097716e-06
1.1546891e-06
1.2914631e-06
0.0066081384
0.0063414338
0.0060186189
0.0056387725
0.0052198187
0.0047849421
0.0043532931
0.0039374243
0.0035445484
0.0031783251
0.0028402276
0.0025303534
0.0022479089
0.0019915603
0.0017596932
0.0015505828
0.0013624966
0.0011937521
0.0010427477
0.00090797674
0.0007880299
0.00068159303
0.00058744163
0.00050443495
0.00043151027
0.00036767797
0.00031201752
0.00026367421
0.00022185652
0.00018583395
0.00015493494
0.00012854494
0.00010610441
8.7106535e-05
7.1094928e-05
5.7660935e-05
4.6440914e-05
3.7113153e-05
2.9395138e-05
2.3039511e-05
1.783339e-05
1.3588733e-05
1.0156619e-05
7.3813107e-06
5.2022906e-06
3.413896e-06
2.1904294e-06
1.0065682e-06
1.0946133e-06
1.0951259e-06
0.0056267658
0.0055488939
0.0053735929
0.0051181831
0.0048096183
0.0044699738
0.0041154208
0.0037595602
0.0034125918
0.0030810724
0.0027689069
0.0024782527
0.0022099952
0.0019640959
0.0017399122
0.0015364424
0.0013524879
0.0011867585
0.0010379411
0.00090474155
0.00078590901
0.00068024775
0.00058662264
0.00050396059
0.00043125032
0.00036754121
0.0003119421
0.00026362017
0.0002217999
0.00018576219
0.00015484333
0.00012843389
0.00010597736
8.6968511e-05
7.0951439e-05
5.7517289e-05
4.6301775e-05
3.6982323e-05
2.9275478e-05
2.293296e-05
1.7741085e-05
1.3511115e-05
1.0093568e-05
7.3325359e-06
5.1664218e-06
3.3915168e-06
2.1758459e-06
1.0041514e-06
1.0311899e-06
9.106675e-07
0.0045587096
0.0045908888
0.0045359467
0.0043995667
0.0042076027
0.0039761428
0.0037162327
0.003439982
0.003158572
0.002880235
0.0026106681
0.0023538182
0.0021122281
0.0018872897
0.0016795472
0.0014889629
0.0013151086
0.0011573019
0.0010147055
0.00088639639
0.0007714126
0.0006687833
0.00057754872
0.00049677281
0.00042555164
0.00036301885
0.0003083496
0.00026076329
0.00021952555
0.00018394974
0.00015339771
0.00012728013
0.00010505632
8.6233451e-05
7.0365358e-05
5.7050815e-05
4.5931522e-05
3.6689614e-05
2.9045335e-05
2.2753368e-05
1.7602321e-05
1.3405498e-05
1.0014545e-05
7.2758469e-06
5.1263313e-06
3.3684666e-06
2.1587967e-06
1.0028477e-06
9.6533204e-07
7.4835535e-07
0.0035331953
0.0036254428
0.0036454797
0.0035938273
0.003491293
0.0033496269
0.0031753111
0.0029776479
0.0027666253
0.0025501158
0.0023340013
0.0021228175
0.0019199127
0.0017275459
0.0015471065
0.0013793388
0.0012245119
0.0010825489
0.00095312937
0.00083576758
0.00072986854
0.00063476877
0.00054976546
0.00047413749
0.00040716078
0.00034811975
0.00029631598
0.00025107496
0.00021175138
0.00017773322
0.00014844484
0.0001233492
0.00010194915
8.3788106e-05
6.8449934e-05
5.5558234e-05
4.4775143e-05
3.5799585e-05
2.8365507e-05
2.2238841e-05
1.7217144e-05
1.3121472e-05
9.8084885e-06
7.1315522e-06
5.0264819e-06
3.3089796e-06
2.1161749e-06
9.9320373e-07
8.815982e-07
5.9420119e-07
0.0026514105
0.0027828488
0.002855305
0.0028688743
0.0028364662
0.0027666561
0.0026633897
0.0025332657
0.0023844938
0.0022240995
0.0020576676
0.0018898269
0.0017243076
0.001563911
0.0014106298
0.0012658146
0.0011303096
0.0010045621
0.00088871659
0.00078269226
0.00068624292
0.00059900312
0.00052052339
0.00045029745
0.00038778305
0.00033241838
0.00028363497
0.00024086801
0.00020356474
0.00017119105
0.00014323678
0.00011921978
9.8688799e-05
8.1225494e-05
6.6445482e-05
5.3998647e-05
4.356879e-05
3.4872642e-05
2.7658689e-05
2.1704802e-05
1.6818016e-05
1.2827634e-05
9.5955405e-06
6.9826782e-06
4.9231132e-06
3.2478612e-06
2.0702418e-06
9.8482089e-07
7.9075224e-07
4.4962857e-07
0.0019103591
0.0020618975
0.0021665609
0.0022254473
0.0022444793
0.0022293556
0.0021826423
0.0021086305
0.002013404
0.0019027439
0.0017815738
0.0016542119
0.0015243779
0.0013950884
0.001268681
0.0011469143
0.0010310601
0.00092198525
0.00082022738
0.00072606326
0.00063956578
0.00056065025
0.0004891119
0.00042465619
0.00036692328
0.00031550788
0.00026997542
0.00022987535
0.00019475207
0.0001641539
0.0001376404
0.00011478811
9.5195086e-05
7.8484211e-05
6.4305424e-05
5.2337078e-05
4.2286481e-05
3.3889704e-05
2.6911038e-05
2.1141329e-05
1.6397927e-05
1.2519056e-05
9.3723257e-06
6.8267581e-06
4.8146976e-06
3.1835042e-06
2.0206765e-06
9.7617632e-07
6.9934003e-07
3.2605045e-07
0.0013143931
0.0014665076
0.0015847254
0.0016699041
0.0017227644
0.0017462003
0.0017417263
0.0017118383
0.0016605404
0.0015921474
0.0015106674
0.0014198184
0.0013229908
0.0012231185
0.0011226315
0.0010234876
0.00092722186
0.0008349943
0.00074764252
0.00066573411
0.00058961458
0.0005194489
0.00045525719
0.00039694502
0.00034432905
0.00029715848
0.00025513321
0.00021791912
0.00018516088
0.00015649286
0.00013154799
0.00010996517
9.1395161e-05
7.5505169e-05
6.1982234e-05
5.0535606e-05
4.0898194e-05
3.2827187e-05
2.6104178e-05
2.0534221e-05
1.5946007e-05
1.2187485e-05
9.1326804e-06
6.6591651e-06
4.6979817e-06
3.1133082e-06
1.9662338e-06
9.6562101e-07
6.1109473e-07
2.2944479e-07
0.00085795073
0.00099503163
0.0011111307
0.0012059439
0.0012768757
0.0013243407
0.0013487488
0.0013511835
0.0013338655
0.0012996278
0.0012514213
0.0011921813
0.0011247486
0.001051738
0.00097544968
0.00089784675
0.00082056197
0.0007449148
0.00067193754
0.00060240819
0.00053688494
0.00047573896
0.00041918462
0.00036730681
0.00032008515
0.00027741522
0.00023912711
0.00020500153
0.0001747837
0.00014819539
0.00012494506
0.00010473643
8.7275561e-05
7.227653e-05
5.9465891e-05
4.8585996e-05
3.9397319e-05
3.1679883e-05
2.5234063e-05
1.9880362e-05
1.5459865e-05
1.1831064e-05
8.875168e-06
6.4786891e-06
4.572084e-06
3.0362699e-06
1.9067052e-06
9.5197195e-07
5.2906837e-07
1.6186672e-07
0.00052622967
0.00063873488
0.00074142214
0.00083280043
0.000908658
0.00096762097
0.0010090204
0.0010328016
0.0010397684
0.0010314202
0.0010096358
0.00097648999
0.00093414501
0.00088473227
0.00083024894
0.00077249733
0.00071305774
0.00065327832
0.00059427719
0.00053695495
0.00048201331
0.00042997646
0.0003812131
0.00033595819
0.00029433347
0.0002563666
0.00022200845
0.00019114886
0.00016363057
0.00013926164
0.00011782622
9.9093877e-05
8.2827507e-05
6.8789872e-05
5.6748924e-05
4.648197e-05
3.7778799e-05
3.0443859e-05
2.4297716e-05
1.9177543e-05
1.493788e-05
1.1448588e-05
8.5988919e-06
6.2845708e-06
4.4364887e-06
2.9516923e-06
1.8422155e-06
9.3416209e-07
4.5557641e-07
1.2163939e-07
0.00030011168
0.00038402064
0.00046659667
0.00054560823
0.00061648828
0.0006768763
0.00072527056
0.00076075377
0.00078308171
0.00079266734
0.00079041355
0.00077755359
0.00075553731
0.00072592616
0.00069029622
0.00065016357
0.00060693258
0.0005618643
0.00051605949
0.00047045297
0.00042581673
0.00038276862
0.00034178475
0.00030321374
0.00026729199
0.0002341588
0.00020387126
0.00017641816
0.00015173309
0.0001297063
0.00011019546
9.3035199e-05
7.8045391e-05
6.5038251e-05
5.382427e-05
4.4217042e-05
3.6037055e-05
2.9114539e-05
2.329153e-05
1.8423004e-05
1.4377992e-05
1.1038536e-05
8.3027484e-06
6.0759623e-06
4.2906669e-06
2.8589914e-06
1.773029e-06
9.1135909e-07
3.9191389e-07
1.0375304e-07
0.00015957989
0.00021488209
0.00027457955
0.00033619715
0.00039556506
0.00045001455
0.00049759111
0.00053683029
0.00056679068
0.0005870888
0.00059783083
0.00059950599
0.0005928929
0.00057897399
0.00055885185
0.00053367643
0.0005045867
0.00047266531
0.00043890726
0.00040420059
0.00036931622
0.00033490489
0.00030149954
0.00026952141
0.00023928878
0.00021102717
0.00018488039
0.00016092179
0.0001391653
0.0001195761
0.00010208058
8.6575482e-05
7.2936108e-05
6.1023574e-05
5.0691045e-05
4.1788978e-05
3.4169411e-05
2.768933e-05
2.2213251e-05
1.7614933e-05
1.3778829e-05
1.0599916e-05
7.9860628e-06
5.8524122e-06
4.1344281e-06
2.7580014e-06
1.6996745e-06
8.832417e-07
3.384463e-07
1.0111886e-07
8.5726455e-05
0.00011496184
0.00015194011
0.00019431018
0.00023864855
0.00028243866
0.00032364643
0.00036057805
0.00039191351
0.00041676316
0.00043465881
0.00044550018
0.00044949401
0.0004470933
0.0004389344
0.00042577463
0.00040843708
0.00038776377
0.00036457731
0.00033965211
0.00031369485
0.00028733192
0.00026110294
0.00023545897
0.00021076457
0.00018730241
0.00016527979
0.00014483639
0.00012605259
0.00010895814
9.3540609e-05
7.9753616e-05
6.752445e-05
5.6761028e-05
4.7358098e-05
3.9202615e-05
3.2178285e-05
2.616929e-05
2.1063255e-05
1.6753421e-05
1.3140415e-05
1.0132798e-05
7.6489825e-06
5.6141556e-06
3.9681249e-06
2.6491212e-06
1.6229649e-06
8.5008951e-07
2.9483091e-07
1.0628835e-07
6.1920014e-05
6.8979287e-05
8.5290741e-05
0.00010883451
0.00013702298
0.00016774054
0.0001991475
0.00022958519
0.00025762145
0.00028211994
0.00030226493
0.00031754818
0.00032774116
0.00033286109
0.00033313087
0.00032893412
0.00032076979
0.00030921025
0.00029486419
0.00027834481
0.00026024467
0.00024111695
0.00022146229
0.00020172055
0.0001822666
0.0001634096
0.00014539479
0.00012840727
0.00011257715
9.7985586e-05
8.4671309e-05
7.2637326e-05
6.1857491e-05
5.2282773e-05
4.3847039e-05
3.6472256e-05
3.0073044e-05
2.4560536e-05
1.9845575e-05
1.5841206e-05
1.2464702e-05
9.6386685e-06
7.2927182e-06
5.3622678e-06
3.7927466e-06
2.5333566e-06
1.5439687e-06
8.1275657e-07
2.6027429e-07
1.1307345e-07
7.427191e-05
6.3507015e-05
6.2217523e-05
6.8788016e-05
8.1410802e-05
9.8459423e-05
0.00011843915
0.00013990453
0.00016150808
0.00018207402
0.00020063983
0.00021646836
0.00022904599
0.00023807247
0.00024344247
0.00024521942
0.0002436046
0.0002389048
0.00023150098
0.00022181926
0.00021030519
0.0001974022
0.00018353468
0.00016909518
0.00015443555
0.00013986148
0.00012563001
0.00011194937
9.8980765e-05
8.6841586e-05
7.5609551e-05
6.532753e-05
5.600867e-05
4.7641573e-05
4.0195329e-05
3.3624226e-05
2.7872043e-05
2.2875818e-05
1.8569083e-05
1.4884521e-05
1.1756149e-05
9.1208184e-06
6.919776e-06
5.0987774e-06
3.6099545e-06
2.4122664e-06
1.4639177e-06
7.7249776e-07
2.3368572e-07
1.175303e-07
0.00011162352
8.7266005e-05
7.1799022e-05
6.3996741e-05
6.2705749e-05
6.677495e-05
7.5100903e-05
8.6540729e-05
9.9952819e-05
0.00011426658
0.00012852842
0.00014192604
0.00015380256
0.00016366366
0.00017117663
0.00017616099
0.00017857255
0.00017848313
0.00017605807
0.00017153329
0.00016519307
0.00015734956
0.00014832484
0.00013843622
0.00012798437
0.00011724469
0.00010646123
9.5843273e-05
8.5563882e-05
7.5760271e-05
6.6535496e-05
5.7961159e-05
5.0080808e-05
4.2913741e-05
3.6458981e-05
3.0699225e-05
2.5604596e-05
2.1136105e-05
1.7248721e-05
1.3894012e-05
1.1022378e-05
8.5847717e-06
6.5342208e-06
4.8267917e-06
3.4221182e-06
2.2878949e-06
1.3841383e-06
7.3076853e-07
2.1376808e-07
1.1808216e-07
0.00016528063
0.00013111385
0.00010481422
8.5486383e-05
7.2483334e-05
6.5061619e-05
6.2486009e-05
6.3934319e-05
6.8524459e-05
7.5373856e-05
8.3641756e-05
9.2555914e-05
0.0001014335
0.00010969799
0.00011688982
0.00012266974
0.00012681546
0.00012921309
0.00012984463
0.00012877291
0.00012612521
0.00012207658
0.00011683394
0.00011062153
0.00010366846
9.6198234e-05
8.8420664e-05
8.0525826e-05
7.2680137e-05
6.502417e-05
5.7672012e-05
5.0711863e-05
4.4207596e-05
3.8201011e-05
3.2714548e-05
2.7754234e-05
2.3312691e-05
1.9372055e-05
1.5906697e-05
1.2885673e-05
1.0274864e-05
8.0387656e-06
6.1419768e-06
4.5506465e-06
3.2323614e-06
2.162701e-06
1.3059986e-06
6.8902207e-07
1.990729e-07
1.1491616e-07
0.00022863845
0.00018785444
0.00015373563
0.0001256453
0.00010330078
8.6278528e-05
7.4151887e-05
6.6391082e-05
6.2376271e-05
6.1444015e-05
6.2921527e-05
6.6149795e-05
7.0504471e-05
7.5415828e-05
8.0385107e-05
8.499554e-05
8.8917959e-05
9.1911527e-05
9.3820262e-05
9.4566046e-05
9.4139026e-05
9.258633e-05
8.9999988e-05
8.6504841e-05
8.2247097e-05
7.7384026e-05
7.2075042e-05
6.6474426e-05
6.0725651e-05
5.4957335e-05
4.928065e-05
4.378804e-05
3.855302e-05
3.3630868e-05
2.905997e-05
2.4863636e-05
2.1052185e-05
1.7625156e-05
1.4573506e-05
1.1881697e-05
9.52961e-06
7.4942554e-06
5.7511786e-06
4.2761181e-06
3.0446738e-06
2.0395618e-06
1.2309427e-06
6.4860686e-07
1.8813674e-07
1.0909502e-07
0.0002967898
0.00025196549
0.00021259251
0.00017822582
0.00014882585
0.00012420214
0.00010416467
8.8424232e-05
7.6594057e-05
6.8223859e-05
6.2824804e-05
5.9886346e-05
5.8893165e-05
5.9343514e-05
6.0766401e-05
6.273568e-05
6.4880509e-05
6.689217e-05
6.8527305e-05
6.9607738e-05
7.0017304e-05
6.9696256e-05
6.8633926e-05
6.6860307e-05
6.4437169e-05
6.1449267e-05
5.7996098e-05
5.41845e-05
5.0122345e-05
4.5913401e-05
4.1653436e-05
3.7427471e-05
3.3308109e-05
2.9354798e-05
2.5613865e-05
2.211916e-05
1.8893145e-05
1.5948276e-05
1.3288547e-05
1.0911081e-05
8.8076897e-06
6.966358e-06
5.3725087e-06
4.0106549e-06
2.8640583e-06
1.9218354e-06
1.1605819e-06
6.1075288e-07
1.7968596e-07
1.0181656e-07
0.00036616783
0.00031930794
0.00027676935
0.00023824437
0.00020384145
0.00017352817
0.00014728212
0.00012499601
0.00010647171
9.1443935e-05
7.9596826e-05
7.0574138e-05
6.3990737e-05
5.9446846e-05
5.6542906e-05
5.4893227e-05
5.4137785e-05
5.3951864e-05
5.4053261e-05
5.4206812e-05
5.422627e-05
5.3973708e-05
5.3356837e-05
5.2324646e-05
5.0861862e-05
4.8982681e-05
4.6724249e-05
4.4140268e-05
4.1295026e-05
3.8258108e-05
3.5099893e-05
3.1887967e-05
2.8684403e-05
2.5543908e-05
2.2512728e-05
1.9628223e-05
1.6918972e-05
1.4405299e-05
1.2100084e-05
1.0009772e-05
8.1354687e-06
6.4740959e-06
5.0194238e-06
3.7635654e-06
2.6966815e-06
1.8134713e-06
1.0968345e-06
5.7664842e-07
1.7286265e-07
9.4041464e-08
0.00043424204
0.00038685234
0.00034278472
0.00030182818
0.00026416984
0.00022987617
0.00019903364
0.00017166204
0.00014770416
0.0001270418
0.00010950577
9.4880478e-05
8.2910176e-05
7.330837e-05
6.5768891e-05
5.9976993e-05
5.562003e-05
5.2397284e-05
5.0028586e-05
4.8261271e-05
4.6875231e-05
4.568596e-05
4.4545666e-05
4.3342621e-05
4.1999009e-05
4.0467598e-05
3.8727584e-05
3.6779959e-05
3.4642734e-05
3.2346277e-05
2.9929003e-05
2.7433562e-05
2.4903637e-05
2.2381392e-05
1.9905576e-05
1.7510223e-05
1.5223923e-05
1.3069532e-05
1.106427e-05
9.2201038e-06
7.5443237e-06
6.0402856e-06
4.7081404e-06
3.5460567e-06
2.5499379e-06
1.7190931e-06
1.0420397e-06
5.4753939e-07
1.67349e-07
8.6428569e-08
0.0004992708
0.00045243978
0.00040807822
0.00036604326
0.00032655316
0.00028972982
0.00025572294
0.0002246334
0.00019650126
0.00017131642
0.00014902404
0.00012952514
0.00011267859
9.8306171e-05
8.619963e-05
7.6128422e-05
6.7847911e-05
6.1107682e-05
5.5659653e-05
5.1265497e-05
4.7703016e-05
4.4771225e-05
4.2293987e-05
4.0122172e-05
3.8134375e-05
3.6236363e-05
3.435941e-05
3.2457805e-05
3.0505768e-05
2.8494041e-05
2.6426391e-05
2.4316207e-05
2.218337e-05
2.0051498e-05
1.7945633e-05
1.5890405e-05
1.3908664e-05
1.2020552e-05
1.0242959e-05
8.5893203e-06
7.0696649e-06
5.6909147e-06
4.4572571e-06
3.3710248e-06
2.4323552e-06
1.6439918e-06
9.9899949e-07
5.2480687e-07
1.6334401e-07
7.9404078e-08
0.0005601047
0.0005145819
0.00047082005
0.00042872513
0.00038851629
0.00035034087
0.00031437864
0.00028077613
0.00024963458
0.00022101711
0.0001949513
0.00017142728
0.00015039684
0.00013177517
0.00011544443
0.00010125822
8.9046939e-05
7.8623777e-05
6.9791168e-05
6.2347291e-05
5.6092308e-05
5.0833993e-05
4.639256e-05
4.2604478e-05
3.9325204e-05
3.6430785e-05
3.3818396e-05
3.1405922e-05
2.9130734e-05
2.6947843e-05
2.4827639e-05
2.2753384e-05
2.0718645e-05
1.8724804e-05
1.6778762e-05
1.4890927e-05
1.3073508e-05
1.1339172e-05
9.7000265e-06
8.1669274e-06
6.7490713e-06
5.4538572e-06
4.286893e-06
3.2525036e-06
2.3532632e-06
1.5939645e-06
9.7089865e-07
5.0997559e-07
1.6140976e-07
7.3233067e-08
0.00061603265
0.00057229798
0.00052974767
0.00048832405
0.00044822933
0.00040961695
0.00037267434
0.00033756816
0.00030443324
0.00027337753
0.00024448306
0.00021780281
0.00019335816
0.00017113842
0.00015110179
0.00013317718
0.00011726698
0.00010325062
9.0988952e-05
8.0329058e-05
7.1109429e-05
6.3165027e-05
5.6332167e-05
5.0452886e-05
4.5378698e-05
4.0973551e-05
3.711595e-05
3.3700226e-05
3.0636994e-05
2.7852885e-05
2.5289676e-05
2.2902953e-05
2.0660456e-05
1.8540237e-05
1.6528766e-05
1.4619099e-05
1.2809173e-05
1.1100312e-05
9.4959595e-06
8.0006703e-06
6.6193527e-06
5.356772e-06
4.2172236e-06
3.2046813e-06
2.3221633e-06
1.5749482e-06
9.6108269e-07
5.0463657e-07
1.6227045e-07
6.8063455e-08
0.00066666052
0.00062498297
0.00058402858
0.00054376822
0.00050437803
0.00046600602
0.00042883324
0.00039302937
0.00035874316
0.00032610598
0.0002952319
0.00026621429
0.00023912254
0.00021400032
0.00019086486
0.00016970696
0.00015049162
0.00013315963
0.00011762983
0.00010380219
9.1561367e-05
8.0780616e-05
7.132591e-05
6.3060016e-05
5.5846375e-05
4.9552588e-05
4.4053399e-05
3.9233068e-05
3.4987087e-05
3.1223238e-05
2.7862029e-05
2.4836565e-05
2.2091956e-05
1.9584369e-05
1.7279816e-05
1.5152806e-05
1.3184948e-05
1.1363585e-05
9.680525e-06
8.1309262e-06
6.7123498e-06
5.4240294e-06
4.2662896e-06
3.2403911e-06
2.3477301e-06
1.5924052e-06
9.7268037e-07
5.1027761e-07
1.6662716e-07
6.3957216e-08
0.00071181695
0.00067230252
0.0006331479
0.00059434789
0.00055604895
0.00051838758
0.00048153064
0.00044564029
0.0004108662
0.00037734807
0.00034521542
0.00031458432
0.00028555411
0.00025820508
0.00023259689
0.00020876737
0.00018673182
0.00016648301
0.00014799188
0.00013120886
0.00011606589
0.00010247893
9.0350934e-05
7.9575038e-05
7.0037949e-05
6.1623262e-05
5.4214624e-05
4.7698577e-05
4.1967012e-05
3.6919123e-05
3.246286e-05
2.8515854e-05
2.5005858e-05
2.1870743e-05
1.9058125e-05
1.6524703e-05
1.4235399e-05
1.2162373e-05
1.0283987e-05
8.5838027e-06
7.0496341e-06
5.6727399e-06
4.4471041e-06
3.3690752e-06
2.4364371e-06
1.6504501e-06
1.008074e-06
5.2802742e-07
1.7501048e-07
6.0917167e-08
0.00075147291
0.00071410242
0.00067680961
0.00063961037
0.00060262143
0.00056596537
0.00052979128
0.00049424818
0.00045947879
0.00042562141
0.00039280954
0.00036116911
0.00033081549
0.00030185114
0.00027436361
0.00024842384
0.00022408461
0.00020137961
0.00018032284
0.0001609088
0.00014311302
0.00012689332
0.00011219148
9.8935371e-05
8.7041468e-05
7.6417517e-05
6.6965368e-05
5.8583752e-05
5.1170926e-05
4.4627071e-05
3.8856362e-05
3.3768658e-05
2.9280771e-05
2.5317326e-05
2.1811226e-05
1.8703754e-05
1.5944381e-05
1.3490336e-05
1.1306004e-05
9.3622213e-06
7.635526e-06
6.1074313e-06
4.7637161e-06
3.5939733e-06
2.5906356e-06
1.7506123e-06
1.0681597e-06
5.5828623e-07
1.8763858e-07
5.8902589e-08
0.00078568774
0.00075034646
0.00071486673
0.00067928426
0.00064368776
0.00060818569
0.00057290875
0.00053799054
0.00050356287
0.00046975699
0.00043670322
0.00040452875
0.00037335509
0.000343296
0.00031445537
0.00028692546
0.00026078492
0.00023609735
0.00021291001
0.00019125304
0.00017113904
0.00015256323
0.00013550397
0.00011992384
0.00010577114
9.2981732e-05
8.1481164e-05
7.1187033e-05
6.20114e-05
5.3863187e-05
4.6650485e-05
4.0282637e-05
3.4672077e-05
2.9735839e-05
2.5396735e-05
2.1584181e-05
1.8234706e-05
1.5292151e-05
1.2707617e-05
1.0439214e-05
8.4516586e-06
6.7157823e-06
5.2079718e-06
3.9097665e-06
2.8069178e-06
1.8907754e-06
1.1517218e-06
6.004237e-07
2.0433476e-07
5.7839701e-08
0.00081452955
0.00078102755
0.00074722406
0.00071317401
0.00067894077
0.00064461994
0.00061032501
0.00057617421
0.00054228709
0.00050878527
0.00047579204
0.00044343074
0.00041182269
0.00038108542
0.00035133079
0.00032266324
0.00029517776
0.00026895827
0.00024407595
0.00022058791
0.00019853612
0.00017794677
0.00015882991