/*--------------------------------*- C++ -*----------------------------------*\
  =========                 |
  \\      /  F ield         | OpenFOAM: The Open Source CFD Toolbox
   \\    /   O peration     | Website:  https://openfoam.org
    \\  /    A nd           | Version:  6
     \\/     M anipulation  |
\*---------------------------------------------------------------------------*/
FoamFile
{
    version     2.0;
    format      ascii;
    class       volScalarField;
    location    "38";
    object      pMean;
}
// * * * * * * * * * * * * * * * * * * * * * * * * * * * * * * * * * * * * * //

dimensions      [0 2 -2 0 0 0 0];

internalField   nonuniform List<scalar> 
9200
(
-0.45571908
-0.44124217
-0.42816901
-0.41672431
-0.4054664
-0.39435697
-0.38349825
-0.37284424
-0.36230949
-0.35181258
-0.34127859
-0.33064375
-0.31986272
-0.30891508
-0.29781365
-0.28661892
-0.27543238
-0.26436069
-0.25433849
-0.24928251
-0.47615449
-0.45924017
-0.44425926
-0.43125664
-0.41853563
-0.40603418
-0.39384472
-0.38189419
-0.37007261
-0.35828242
-0.34644088
-0.33448509
-0.32237892
-0.31011698
-0.29772724
-0.28527172
-0.2728174
-0.26039667
-0.2486521
-0.23962377
-0.49661136
-0.4772994
-0.46049686
-0.44602095
-0.43188579
-0.41798908
-0.40440584
-0.39103472
-0.37774673
-0.36443958
-0.35103866
-0.33750037
-0.32381654
-0.31001404
-0.29615065
-0.28230748
-0.26856025
-0.25494581
-0.24185843
-0.23040768
-0.51655061
-0.49491321
-0.47637986
-0.46049188
-0.44494335
-0.42957958
-0.41445736
-0.39945541
-0.38444248
-0.36933443
-0.35409055
-0.33871203
-0.32324064
-0.30775177
-0.29234368
-0.27712479
-0.26218887
-0.24758882
-0.23359699
-0.22098191
-0.53523392
-0.51142546
-0.49129695
-0.4740675
-0.45709292
-0.44016229
-0.42332342
-0.40645561
-0.38945401
-0.37228467
-0.35497145
-0.33758537
-0.32023468
-0.30305027
-0.2861696
-0.26972206
-0.25380928
-0.23848716
-0.22394724
-0.21073187
-0.55173555
-0.52601349
-0.50447852
-0.4859869
-0.46755875
-0.44893666
-0.43018263
-0.41121143
-0.39198417
-0.37255411
-0.35303849
-0.33359521
-0.31440318
-0.29564157
-0.27747192
-0.26002572
-0.24339202
-0.22760919
-0.21280018
-0.19933052
-0.56496311
-0.53769913
-0.5150034
-0.49534009
-0.47542482
-0.45498055
-0.43412152
-0.41284541
-0.39122494
-0.36943569
-0.34770816
-0.32629078
-0.30542256
-0.28531081
-0.26611674
-0.24794998
-0.23086572
-0.2148671
-0.20001092
-0.18651454
-0.57368552
-0.54537929
-0.5218398
-0.50112418
-0.47970779
-0.45733859
-0.43423392
-0.41052929
-0.386454
-0.36233254
-0.33851543
-0.31533105
-0.29305629
-0.27189929
-0.25199457
-0.23340825
-0.21614625
-0.20016679
-0.18546262
-0.17212268
-0.57651218
-0.54771457
-0.52362922
-0.50193552
-0.47898213
-0.45461294
-0.42921125
-0.40310323
-0.37670404
-0.35049003
-0.32491351
-0.30035204
-0.27708586
-0.25529299
-0.23505811
-0.21638977
-0.19923866
-0.18351802
-0.16916174
-0.15614702
-0.57207935
-0.54324965
-0.51877616
-0.49607049
-0.47151439
-0.4451343
-0.41753892
-0.38927752
-0.36094852
-0.33314849
-0.30638429
-0.28103329
-0.25733758
-0.23541678
-0.21529135
-0.1969094
-0.18017146
-0.16495451
-0.15114136
-0.13861021
-0.3159777
-0.31923767
-0.31955705
-0.31837863
-0.31612387
-0.31289802
-0.30884418
-0.3040842
-0.29870348
-0.29276973
-0.28634128
-0.27946928
-0.27219988
-0.26457607
-0.25663905
-0.2484309
-0.23999637
-0.23136951
-0.22256053
-0.21367975
-0.31959689
-0.32233739
-0.32229768
-0.32088053
-0.31843437
-0.31505612
-0.31088605
-0.30603946
-0.30059629
-0.29462016
-0.28816589
-0.28128158
-0.2740107
-0.26639346
-0.25846766
-0.25027349
-0.2418627
-0.23326755
-0.22437951
-0.2151694
-0.32661746
-0.32835773
-0.32762758
-0.32574444
-0.32292462
-0.31924872
-0.31485059
-0.30983328
-0.30426625
-0.29820495
-0.29169718
-0.28478489
-0.27750606
-0.26989565
-0.26198522
-0.25381044
-0.24543301
-0.23688504
-0.2278548
-0.21803533
-0.33665865
-0.33699064
-0.33527367
-0.33270619
-0.32932835
-0.32519984
-0.32044608
-0.31515378
-0.30937808
-0.30316294
-0.29654613
-0.28956071
-0.28223678
-0.27460175
-0.26667884
-0.25849638
-0.25012479
-0.24160297
-0.23237819
-0.22172949
-0.3492432
-0.34785042
-0.34489664
-0.34144171
-0.33732335
-0.33257998
-0.32732854
-0.3216374
-0.31554507
-0.30908192
-0.30227337
-0.29514091
-0.2877044
-0.27998211
-0.2719877
-0.26373957
-0.25531217
-0.24675943
-0.23729792
-0.22567466
-0.36387908
-0.36053812
-0.356148
-0.35162394
-0.34659145
-0.34107086
-0.33517293
-0.32894808
-0.32241723
-0.31559443
-0.30849036
-0.30111363
-0.29347242
-0.28557448
-0.27742334
-0.26902569
-0.26045279
-0.25177825
-0.24203372
-0.22936105
-0.38012997
-0.37469671
-0.36871967
-0.36297301
-0.35687164
-0.35042355
-0.34373754
-0.33684577
-0.32974954
-0.32244628
-0.31493122
-0.30719842
-0.29924302
-0.29106171
-0.28264882
-0.27400064
-0.2651809
-0.2562852
-0.24622977
-0.23253636
-0.39765338
-0.39004224
-0.38237345
-0.37528779
-0.36799669
-0.36050018
-0.3529057
-0.34522798
-0.33744947
-0.32954943
-0.3215054
-0.31329469
-0.30489728
-0.29629736
-0.28748057
-0.27843728
-0.26923162
-0.26000551
-0.24967287
-0.23517433
-0.41619541
-0.40634707
-0.39690798
-0.38839431
-0.37981622
-0.37116616
-0.36255308
-0.35397475
-0.34539318
-0.3367677
-0.32805636
-0.31921752
-0.31021298
-0.3010089
-0.29157208
-0.28187088
-0.27194104
-0.26190987
-0.25071014
-0.23510003
-0.43557792
-0.42341529
-0.41211457
-0.40207204
-0.39209136
-0.38215783
-0.37238251
-0.36274583
-0.3531892
-0.34365308
-0.33407878
-0.32441093
-0.31460125
-0.30460922
-0.29439718
-0.28392561
-0.27316474
-0.26195398
-0.24885161
-0.23115606
-0.20367812
-0.19149394
-0.17949503
-0.16780964
-0.15636314
-0.14519085
-0.13435997
-0.12391166
-0.11387201
-0.104265
-0.095111332
-0.0864257
-0.078217311
-0.070491029
-0.063247741
-0.056484532
-0.050195031
-0.044369821
-0.038996796
-0.034061501
-0.029547473
-0.025436597
-0.021709435
-0.018345555
-0.015323851
-0.012622834
-0.010220916
-0.0080966604
-0.0062290197
-0.0045975346
-0.0031825155
-0.0019651923
-0.00092784144
-5.3886876e-05
0.0006720183
0.0012639312
0.001734569
0.0020952808
0.0023559871
0.0025252428
0.0026098519
0.0026159102
0.0025449002
0.0024055659
0.0021742598
0.0019169423
0.0014033597
0.0012812349
-0.00051710368
0.0021269719
-0.20597158
-0.19322698
-0.1810316
-0.16931366
-0.15778574
-0.14651286
-0.13559304
-0.12506245
-0.11494229
-0.10525764
-0.096030197
-0.087274475
-0.078999537
-0.0712103
-0.063907676
-0.057088708
-0.050746968
-0.044872969
-0.039454517
-0.034477048
-0.029923982
-0.025777067
-0.022016727
-0.018622384
-0.015572778
-0.012846267
-0.01042111
-0.0082757172
-0.0063888906
-0.004740025
-0.0033092888
-0.0020777758
-0.0010276325
-0.00014215958
0.00059410628
0.0011953312
0.0016743343
0.0020425589
0.002310013
0.002485332
0.0025753939
0.0025863653
0.0025197954
0.0023844945
0.0021569328
0.0019029963
0.001393417
0.0012730515
-0.00051303469
0.0021101567
-0.21043147
-0.19655167
-0.1839867
-0.17226153
-0.16060139
-0.14914202
-0.13805792
-0.12737407
-0.11710034
-0.10726517
-0.097893087
-0.088998608
-0.080590801
-0.072674998
-0.065252412
-0.058320199
-0.051871973
-0.045898233
-0.040386707
-0.035322693
-0.030689428
-0.02646844
-0.022639897
-0.019182947
-0.016076035
-0.013297215
-0.010824432
-0.0086357867
-0.0067097679
-0.0050254654
-0.0035627506
-0.0023024307
-0.0012263778
-0.00031763199
0.0004395158
0.0010594623
0.0015552412
0.0019384951
0.002219415
0.0024068056
0.0025076992
0.0025284101
0.0024706232
0.0023432898
0.0021231053
0.0018758353
0.0013741201
0.0012571862
-0.00050467127
0.0020768612
-0.21643866
-0.20086436
-0.18780453
-0.17620089
-0.16443245
-0.15274762
-0.14146733
-0.13059991
-0.12013382
-0.11010392
-0.1005411
-0.091460683
-0.082872184
-0.074782104
-0.067192623
-0.060101489
-0.053502713
-0.04738706
-0.041742389
-0.036554003
-0.031805038
-0.027476836
-0.023549309
-0.020001292
-0.016810874
-0.013955722
-0.011413369
-0.0091614919
-0.0071781513
-0.005442008
-0.0039325109
-0.0026300562
-0.0015161189
-0.00057335987
0.00021428976
0.00086156521
0.0013818166
0.0017869803
0.0020875187
0.0022924871
0.0024091464
0.0024440299
0.0023990242
0.0022832875
0.0020738532
0.0018362911
0.0013461157
0.0012340578
-0.00049191906
0.0020277603
-0.22326958
-0.20552032
-0.1918877
-0.18061524
-0.16884339
-0.15694774
-0.14548376
-0.13444686
-0.12378934
-0.11355365
-0.10378238
-0.094493806
-0.08569862
-0.077405447
-0.069618493
-0.062336941
-0.055555838
-0.049266744
-0.043458071
-0.038115465
-0.033222213
-0.028759656
-0.024707575
-0.021044567
-0.017748399
-0.014796348
-0.012165509
-0.009833085
-0.0077766386
-0.0059743226
-0.0044050754
-0.0030487877
-0.0018864418
-0.00090022247
-7.3606054e-05
0.00060857332
0.0011600703
0.0015931986
0.0019187697
0.002146163
0.0022829352
0.0023359035
0.0023072168
0.0022062991
0.0020106349
0.0017854995
0.001310262
0.0012042793
-0.00047479818
0.0019639359
-0.23015999
-0.20994438
-0.19571443
-0.18500631
-0.17340951
-0.16137662
-0.14977609
-0.13861935
-0.12780991
-0.11739111
-0.10742164
-0.097927137
-0.088921019
-0.080414959
-0.072416424
-0.064927235
-0.057944431
-0.051461117
-0.045466909
-0.039948321
-0.034889222
-0.030271283
-0.02607441
-0.022277149
-0.018857073
-0.015791152
-0.013056082
-0.0106286
-0.0084857532
-0.0066051492
-0.004965162
-0.0035451135
-0.0023254215
-0.0012877198
-0.00041495301
0.00030855202
0.00089702931
0.001363242
0.0017184194
0.0019723293
0.0021328846
0.0022072445
0.0021978762
0.0021145191
0.0019352237
0.0017248459
0.001267601
0.0011686034
-0.00045338197
0.0018867946
-0.23645674
-0.21378622
-0.1989415
-0.18894204
-0.17775993
-0.16574733
-0.15408537
-0.14287201
-0.13197513
-0.1214233
-0.11128828
-0.10160868
-0.092404092
-0.083690352
-0.075479342
-0.067776915
-0.060583297
-0.053894092
-0.047700897
-0.041991758
-0.036751661
-0.03196304
-0.027606259
-0.023660072
-0.020102052
-0.016908992
-0.014057277
-0.011523226
-0.0092833898
-0.0073148214
-0.0055953051
-0.0041035538
-0.0028193713
-0.0017237838
-0.000799144
-2.9209884e-05
0.00060079345
0.0011041387
0.0014925307
0.001776181
0.0019634107
0.0020617711
0.0020740977
0.0020104847
0.0018496655
0.0016559194
0.0012193189
0.0011278618
-0.00042777289
0.0017979572
-0.24175403
-0.21732586
-0.20175562
-0.19223018
-0.18164533
-0.16990795
-0.15829734
-0.14707862
-0.13615157
-0.12552214
-0.11526192
-0.10542456
-0.096040501
-0.087131531
-0.078714685
-0.070800869
-0.063394566
-0.056494749
-0.050095706
-0.044187621
-0.038757109
-0.033787789
-0.029260828
-0.025155462
-0.021449472
-0.018119637
-0.015142146
-0.012492978
-0.010148231
-0.0080844253
-0.0062787543
-0.0047093056
-0.003355241
-0.0021969423
-0.0012161281
-0.00039594131
0.00027898138
0.0008224702
0.0012467525
0.00156253
0.0017785758
0.0019028763
0.0019386812
0.0018964668
0.0017557722
0.0015801034
0.0011664316
0.0010827336
-0.0003982059
0.0016991674
-0.24374615
-0.2205199
-0.20459575
-0.19474004
-0.18463686
-0.17347455
-0.16212942
-0.15100693
-0.14013267
-0.12951085
-0.11919935
-0.10926195
-0.099743111
-0.090673258
-0.082075775
-0.073967676
-0.066358986
-0.059253291
-0.052648671
-0.046538415
-0.040911627
-0.035753851
-0.031047682
-0.02677335
-0.022909265
-0.019432521
-0.016319364
-0.013545616
-0.011087056
-0.008919751
-0.0070203506
-0.0053663312
-0.0039362032
-0.0027096773
-0.0016677979
-0.00079304491
-6.9412298e-05
0.00051754473
0.00098063423
0.001331106
0.0015782419
0.0017305182
0.0017916553
0.0017725486
0.0016536688
0.0014975657
0.0011090629
0.001033548
-0.00036550469
0.0015927033
-0.23520911
-0.22050066
-0.20658829
-0.19569557
-0.18574411
-0.17545128
-0.16477076
-0.15404992
-0.14346607
-0.13305835
-0.12287206
-0.11297606
-0.10343134
-0.094282672
-0.085564476
-0.077303627
-0.069519122
-0.062222265
-0.055417571
-0.049103653
-0.043273949
-0.037917441
-0.033019377
-0.028561958
-0.024524982
-0.020886439
-0.017623062
-0.014710827
-0.012125398
-0.0098425205
-0.0078383639
-0.0060898115
-0.0045747038
-0.0032720358
-0.0021621158
-0.0012266859
-0.00044901745
0.00018603234
0.00069193515
0.0010805706
0.0013618059
0.0015446829
0.0016334611
0.0016395174
0.0015443509
0.0014095018
0.0010481792
0.00098201997
-0.00033079634
0.0014823999
-0.21527907
-0.21459779
-0.20582263
-0.19448844
-0.18436916
-0.174601
-0.16445507
-0.15411896
-0.14384263
-0.13369923
-0.12372973
-0.11400102
-0.10457943
-0.095515887
-0.086849948
-0.078613264
-0.070829487
-0.063514237
-0.056675903
-0.050316525
-0.044432546
-0.039015543
-0.034052968
-0.029528868
-0.025424558
-0.021719252
-0.018390646
-0.01541545
-0.012769867
-0.01043001
-0.0083722791
-0.0065736683
-0.0050120351
-0.0036663167
-0.0025167048
-0.0015447814
-0.00073362534
-6.787955e-05
0.00046615739
0.00088060276
0.0011855783
0.0013903596
0.0014995817
0.0015246414
0.0014485287
0.0013300847
0.0009943841
0.00093196022
-0.00029150085
0.0013742265
-0.20267753
-0.20307315
-0.19634622
-0.1857402
-0.17633635
-0.1676022
-0.15851094
-0.14912416
-0.13970589
-0.13034084
-0.12106572
-0.11194593
-0.10305185
-0.09444028
-0.086156876
-0.078239662
-0.070718813
-0.063616367
-0.056946851
-0.050718079
-0.04493185
-0.039584651
-0.03466838
-0.030171072
-0.026077582
-0.022370234
-0.019029435
-0.016034225
-0.013362796
-0.010992935
-0.0089024306
-0.0070694173
-0.0054726685
-0.0040918437
-0.0029076883
-0.0019021942
-0.0010587269
-0.00036211296
0.00020125641
0.00064347065
0.00097471975
0.0012043132
0.0013372777
0.0013846093
0.0013316444
0.0012321612
0.0009289725
0.0008669845
-0.00024604094
0.0012529107
-0.19141192
-0.18995439
-0.18470243
-0.17608151
-0.16783894
-0.16006123
-0.151964
-0.14351853
-0.13495351
-0.12636855
-0.11780419
-0.10932192
-0.10099198
-0.092874278
-0.08501836
-0.077466612
-0.070254144
-0.063408259
-0.056948811
-0.050888852
-0.045235233
-0.039989223
-0.035147179
-0.030701233
-0.026639959
-0.022949021
-0.019611785
-0.016609892
-0.013923785
-0.011533185
-0.0094175148
-0.0075562746
-0.0059293614
-0.0045173423
-0.0033016812
-0.0022649226
-0.0013908415
-0.0006645515
-7.2621991e-05
0.00039693866
0.00075433988
0.0010088746
0.0011659752
0.0012361215
0.0012073213
0.0011274269
0.00085960394
0.00079614888
-0.00019298497
0.0011176198
-0.179208
-0.17608499
-0.1716244
-0.16518027
-0.15839119
-0.15161296
-0.14452555
-0.13708493
-0.12944013
-0.12169205
-0.11389447
-0.10610793
-0.098400445
-0.090833576
-0.083460137
-0.076326217
-0.069471222
-0.062927283
-0.05671933
-0.05086555
-0.045377862
-0.040262433
-0.035520267
-0.031147837
-0.027137716
-0.023479202
-0.020158924
-0.017161423
-0.01446968
-0.012065621
-0.0099305539
-0.0080455738
-0.0063919055
-0.0049512052
-0.0037058129
-0.0026389616
-0.0017349506
-0.00097927636
-0.00035876341
0.00013842105
0.00052246148
0.00080260141
0.00098467187
0.0010786067
0.001075194
0.0010161116
0.00078579541
0.00072155063
-0.00013720811
0.00097453411
-0.16623365
-0.16215818
-0.1581395
-0.15348206
-0.14815313
-0.1424169
-0.13633532
-0.12991572
-0.12322874
-0.11635786
-0.10936929
-0.10232542
-0.095290628
-0.08832595
-0.081486184
-0.074820148
-0.068370611
-0.062173773
-0.056259124
-0.050649666
-0.045362223
-0.040407838
-0.035792252
-0.03151645
-0.027577233
-0.023967803
-0.020678349
-0.017696607
-0.0150084
-0.012598142
-0.010449299
-0.0085448096
-0.0068674522
-0.0054001734
-0.0041263656
-0.0030301028
-0.0020963375
-0.0013110559
-0.00066142449
-0.00013583662
0.00027581641
0.00058269785
0.00079101438
0.00091016476
0.00093370562
0.00089721249
0.00070637854
0.00064351398
-8.232845e-05
0.00082789381
-0.15238215
-0.14825475
-0.14475278
-0.14145774
-0.13743511
-0.13274178
-0.12764023
-0.12220823
-0.11647002
-0.11048301
-0.10431707
-0.0980367
-0.091702606
-0.085373366
-0.079103933
-0.07294448
-0.066939878
-0.061129263
-0.055545774
-0.050216524
-0.045162739
-0.040400004
-0.03593861
-0.031783995
-0.02793723
-0.024395542
-0.021152847
-0.018200291
-0.01552677
-0.013119429
-0.010964135
-0.0090459023
-0.0073492855
-0.0058587251
-0.0045588501
-0.0034347385
-0.0024721382
-0.0016576463
-0.00097887238
-0.00042451637
1.5389887e-05
0.00034989084
0.00058552407
0.00073118722
0.00078308652
0.00077101949
0.00062112698
0.00056270897
-3.1486442e-05
0.000681818
-0.13803684
-0.13453867
-0.13171312
-0.12944441
-0.12651201
-0.12280657
-0.11863998
-0.11413782
-0.10930784
-0.10418476
-0.098833305
-0.093316961
-0.087692769
-0.082015717
-0.076339153
-0.070713092
-0.065183179
-0.059790234
-0.054569929
-0.049552575
-0.044763058
-0.040220937
-0.035940647
-0.031931817
-0.028199646
-0.024745342
-0.021566594
-0.018658056
-0.016011843
-0.013618012
-0.011465019
-0.0095401565
-0.0078299536
-0.0063205352
-0.0049979462
-0.0038484325
-0.0028586841
-0.0020160373
-0.0013086553
-0.00072563474
-0.00025722416
0.00010545622
0.00036921057
0.0005424867
0.00062392388
0.00063809064
0.00053000919
0.00047986178
1.220631e-05
0.00054053705
-0.12384251
-0.12123865
-0.1191529
-0.11767237
-0.1156231
-0.11280878
-0.10950948
-0.10586526
-0.10188282
-0.097581807
-0.093017133
-0.088247799
-0.083326274
-0.078303057
-0.073228457
-0.068150883
-0.063115427
-0.058163325
-0.053331594
-0.048652685
-0.044154251
-0.039859082
-0.035785173
-0.0319459
-0.028350284
-0.025003323
-0.021906384
-0.019057619
-0.016452414
-0.014083835
-0.011943062
-0.010019822
-0.0083027824
-0.0067799242
-0.0054388737
-0.0042672027
-0.0032526895
-0.0023835418
-0.0016485925
-0.0010374333
-0.00054061545
-0.00014947779
0.00014296933
0.00034478279
0.00045674112
0.00049889484
0.00043297314
0.00039546618
4.5942057e-05
0.00040794172
-0.11024802
-0.10851543
-0.10713592
-0.10628327
-0.10494792
-0.10290943
-0.10039157
-0.097524894
-0.094318301
-0.090782797
-0.086962258
-0.082908556
-0.078668753
-0.074288075
-0.069812558
-0.065287723
-0.060756903
-0.056260555
-0.051835867
-0.047516341
-0.043331417
-0.039306268
-0.035461731
-0.031814351
-0.028376518
-0.025156694
-0.022159701
-0.019387065
-0.016837396
-0.014506779
-0.012389188
-0.010476882
-0.0087607921
-0.0072308936
-0.0058765406
-0.0046867759
-0.0036506065
-0.0027572421
-0.0019963051
-0.0013579865
-0.00083323431
-0.00041366926
-9.221118e-05
0.00013886015
0.00028211867
0.00035388691
0.00033003509
0.00030976482
6.7566112e-05
0.00028717543
-0.097473382
-0.09647512
-0.095711504
-0.09536884
-0.094612645
-0.093232764
-0.091400315
-0.089225607
-0.0867176
-0.083882058
-0.080752592
-0.077372513
-0.073782625
-0.070022493
-0.066132992
-0.062155636
-0.058130925
-0.054097468
-0.050091546
-0.046146646
-0.042293007
-0.038557287
-0.034962372
-0.031527298
-0.028267271
-0.025193771
-0.022314748
-0.019634867
-0.017155815
-0.014876632
-0.012794071
-0.010902962
-0.0091965783
-0.0076669892
-0.0063053936
-0.0051024318
-0.0040484674
-0.003133837
-0.002349071
-0.0016850672
-0.0011332701
-0.0006856553
-0.00033515747
-7.4354133e-05
0.00010075729
0.00020355831
0.00022133758
0.00022278921
7.5799191e-05
0.00018035175
-0.085618976
-0.085195735
-0.084933216
-0.084999063
-0.084709235
-0.083876455
-0.082630349
-0.08105923
-0.079169527
-0.076962957
-0.074464187
-0.071707736
-0.068727508
-0.065557082
-0.062231749
-0.058788195
-0.055263158
-0.051692471
-0.048110539
-0.044549855
-0.041040494
-0.037609697
-0.034281572
-0.031076914
-0.028013105
-0.025104121
-0.022360611
-0.019790055
-0.017396983
-0.015183234
-0.013148257
-0.01128943
-0.0096023883
-0.0080813515
-0.0067194473
-0.0055090139
-0.0044418815
-0.0035096278
-0.0027038045
-0.0020161224
-0.0014386265
-0.00096372806
-0.00058448954
-0.00029377055
-8.6505516e-05
4.8460287e-05
0.00010717422
0.00013442439
7.0331976e-05
8.8405683e-05
-0.074720241
-0.074726288
-0.074849198
-0.07523021
-0.075307746
-0.074919083
-0.074162393
-0.073106285
-0.071753413
-0.070101818
-0.068168471
-0.065979584
-0.063562017
-0.060943153
-0.058152485
-0.055221438
-0.052182293
-0.04906733
-0.045908251
-0.042735676
-0.039578627
-0.036464051
-0.033416453
-0.030457619
-0.027606427
-0.02487875
-0.022287437
-0.019842376
-0.017550623
-0.015416586
-0.013442251
-0.011627453
-0.0099701503
-0.0084667242
-0.0071122737
-0.0059009039
-0.004825999
-0.0038804755
-0.0030570091
-0.0023482269
-0.0017468769
-0.001245894
-0.00083858564
-0.00051810519
-0.00027867034
-0.00011076027
-1.1988519e-05
4.4503969e-05
5.1789845e-05
1.1104354e-05
-0.064771861
-0.065086586
-0.06549184
-0.066103829
-0.066460979
-0.06642326
-0.066064793
-0.06543783
-0.064541248
-0.063369805
-0.06193392
-0.060252346
-0.058345215
-0.056233787
-0.053941731
-0.051495032
-0.048921129
-0.046248175
-0.043504503
-0.040718127
-0.037916218
-0.035124621
-0.032367437
-0.029666681
-0.027042018
-0.024510577
-0.022086848
-0.019782652
-0.01760718
-0.015567101
-0.013666713
-0.011908145
-0.010291584
-0.0088155267
-0.0074770431
-0.0062720373
-0.0051955057
-0.0042417796
-0.0034047472
-0.0026780454
-0.0020552244
-0.0015298345
-0.0010955457
-0.0007458445
-0.00047454681
-0.00027331785
-0.00013549393
-4.7081821e-05
2.1576869e-05
-5.2781398e-05
-0.055745208
-0.05627296
-0.056874589
-0.05764501
-0.058205497
-0.058436332
-0.058393036
-0.058114723
-0.05759716
-0.056832456
-0.055825616
-0.05458897
-0.053136559
-0.051483901
-0.049649061
-0.047652637
-0.045517091
-0.043266135
-0.040924268
-0.038516319
-0.03606696
-0.033600221
-0.031139063
-0.028705
-0.026317776
-0.02399512
-0.021752564
-0.019603331
-0.017558298
-0.015626019
-0.013812805
-0.012122856
-0.010558428
-0.0091200325
-0.0078066576
-0.0066159976
-0.0055446848
-0.0045885143
-0.0037426545
-0.0030018326
-0.0023604919
-0.0018128885
-0.0013531709
-0.00097522142
-0.0006727319
-0.00043825092
-0.00026248828
-0.00014029078
-1.8367107e-05
-0.00010518098
-0.047597493
-0.048263948
-0.048993128
-0.049862333
-0.050561974
-0.050990449
-0.051188935
-0.05118621
-0.050975822
-0.050548016
-0.049903545
-0.049049432
-0.047994483
-0.046749095
-0.045326179
-0.043741236
-0.042011853
-0.040157225
-0.038197776
-0.036154777
-0.034049904
-0.031904801
-0.029740657
-0.027577819
-0.025435446
-0.023331216
-0.021281089
-0.019299132
-0.017397408
-0.015585927
-0.013872653
-0.012263569
-0.010762776
-0.009372642
-0.0080939702
-0.0069261879
-0.0058675468
-0.0049153225
-0.0040660056
-0.0033154751
-0.0026591447
-0.0020920619
-0.0016089635
-0.0012042069
-0.00087159861
-0.00060439541
-0.00039192369
-0.00023486261
-6.5841542e-05
-0.00014836406
-0.040276905
-0.041025522
-0.041828914
-0.042749879
-0.043536522
-0.044103359
-0.044480638
-0.044689174
-0.044721167
-0.04456581
-0.04422072
-0.043688755
-0.042974434
-0.04208381
-0.041025285
-0.039809742
-0.038450211
-0.036961516
-0.035359989
-0.033663169
-0.031889439
-0.030057643
-0.028186698
-0.026295224
-0.024401202
-0.022521652
-0.020672368
-0.018867693
-0.017120352
-0.015441342
-0.013839871
-0.01232336
-0.010897478
-0.0095662303
-0.0083320759
-0.0071960692
-0.006158021
-0.0052166656
-0.0043698272
-0.0036145737
-0.0029473484
-0.0023640651
-0.0018601481
-0.0014305177
-0.0010692963
-0.00077037219
-0.00052256965
-0.00033028989
-0.00011863557
-0.0001845902
-0.033726883
-0.034515744
-0.035353252
-0.036290285
-0.037122974
-0.037780059
-0.03828358
-0.038648343
-0.038865955
-0.038925272
-0.038821801
-0.038555309
-0.038126994
-0.037539414
-0.036797202
-0.035907258
-0.034878542
-0.033721838
-0.032449568
-0.03107557
-0.029614825
-0.02808314
-0.026496821
-0.024872336
-0.023225993
-0.021573628
-0.01993032
-0.018310146
-0.016725971
-0.015189289
-0.013710115
-0.012296918
-0.010956607
-0.0096945542
-0.0085146632
-0.0074194581
-0.0064102012
-0.0054870228
-0.0046490558
-0.0038945649
-0.0032210594
-0.0026253771
-0.0021037144
-0.0016516424
-0.0012637637
-0.00093458985
-0.00065303091
-0.00042582347
-0.00017470907
-0.00021583157
-0.027889309
-0.028688271
-0.029530751
-0.030457831
-0.031305503
-0.032014936
-0.032602073
-0.033077267
-0.033432126
-0.033655748
-0.033742397
-0.033689705
-0.033496456
-0.03316255
-0.032689637
-0.032081336
-0.031343135
-0.030482256
-0.029507551
-0.028429367
-0.027259353
-0.026010225
-0.024695497
-0.023329211
-0.02192564
-0.02049901
-0.01906322
-0.017631589
-0.016216628
-0.014829854
-0.013481632
-0.012181071
-0.010935953
-0.0097527058
-0.008636418
-0.0075908781
-0.006618646
-0.0057211413
-0.0048987421
-0.0041508844
-0.0034761509
-0.0028723402
-0.0023364855
-0.0018648869
-0.0014527581
-0.0010952645
-0.00078177191
-0.00052050417
-0.00023228645
-0.00024360772
-0.022706718
-0.023494948
-0.024322095
-0.025221185
-0.026061204
-0.026794079
-0.027431244
-0.027979808
-0.028431796
-0.028776978
-0.029009056
-0.029124334
-0.029119971
-0.028993984
-0.028745794
-0.028376454
-0.02788863
-0.027286542
-0.026575932
-0.025764
-0.024859289
-0.023871523
-0.022811417
-0.021690458
-0.020520667
-0.019314359
-0.018083886
-0.016841402
-0.015598629
-0.01436666
-0.013155777
-0.011975312
-0.010833539
-0.0097375999
-0.0086934724
-0.0077059629
-0.0067787319
-0.0059143396
-0.0051143056
-0.0043791751
-0.0037085804
-0.00310129
-0.0025552148
-0.0020674451
-0.0016339045
-0.0012504587
-0.00090714919
-0.00061321053
-0.00028987114
-0.00026893777
-0.018124021
-0.018887886
-0.019686373
-0.020545843
-0.021362533
-0.022097594
-0.022759139
-0.023351927
-0.023868672
-0.024300084
-0.024639817
-0.024883474
-0.025027246
-0.025067932
-0.025003402
-0.024832817
-0.024556665
-0.024176756
-0.023696242
-0.023119614
-0.022452646
-0.021702309
-0.020876643
-0.019984602
-0.019035879
-0.018040707
-0.017009647
-0.015953377
-0.014882478
-0.013807233
-0.012737446
-0.01168228
-0.010650119
-0.0096484694
-0.0086838797
-0.0077618984
-0.0068870544
-0.0060628616
-0.0052918398
-0.004575545
-0.0039146012
-0.0033087253
-0.0027567189
-0.0022565004
-0.001804771
-0.0013981418
-0.0010274548
-0.00070271507
-0.0003462089
-0.00029238683
-0.014089636
-0.014820995
-0.015582892
-0.016396142
-0.017179445
-0.017901794
-0.018568849
-0.019183674
-0.019739809
-0.020229051
-0.02064535
-0.020984074
-0.021240954
-0.021412112
-0.021494435
-0.021485792
-0.021385083
-0.021192282
-0.02090849
-0.020535964
-0.020078125
-0.019539517
-0.018925745
-0.018243379
-0.017499831
-0.016703212
-0.015862171
-0.014985714
-0.01408302
-0.013163265
-0.01223544
-0.011308184
-0.010389647
-0.0094873512
-0.0086080991
-0.007757889
-0.0069418629
-0.0061642727
-0.005428464
-0.0047368716
-0.0040910195
-0.0034915203
-0.002938048
-0.00242936
-0.0019629717
-0.0015362737
-0.0011409738
-0.00078774488
-0.00040023336
-0.00031416731
-0.010556503
-0.011251257
-0.011972676
-0.012736917
-0.013481155
-0.014181005
-0.014840299
-0.015460876
-0.016037145
-0.016562025
-0.017029979
-0.017436458
-0.017777102
-0.018047761
-0.018244798
-0.01836528
-0.018407036
-0.018368724
-0.018249896
-0.018051063
-0.017773728
-0.017420393
-0.016994543
-0.016500599
-0.015943853
-0.015330369
-0.014666873
-0.013960617
-0.013219229
-0.012450567
-0.011662552
-0.010863021
-0.010059577
-0.009259454
-0.0084694008
-0.0076955784
-0.0069434784
-0.006217858
-0.0055226914
-0.0048611325
-0.0042354844
-0.0036471714
-0.0030966915
-0.0025836226
-0.0021063006
-0.0016629115
-0.0012460577
-0.00086704691
-0.00045102162
-0.00033425631
-0.0074827916
-0.0081399015
-0.0088200277
-0.0095354095
-0.010238365
-0.010910058
-0.011552945
-0.012167969
-0.012750378
-0.013294184
-0.013794462
-0.014246949
-0.014647437
-0.014991792
-0.015276196
-0.015497293
-0.015652264
-0.015738891
-0.015755631
-0.015701695
-0.015577098
-0.015382698
-0.015120215
-0.014792222
-0.014402124
-0.013954105
-0.013453064
-0.012904516
-0.012314495
-0.011689428
-0.011036007
-0.010361056
-0.0096713944
-0.0089737072
-0.0082744222
-0.0075795968
-0.0068948177
-0.006225113
-0.0055748773
-0.0049478061
-0.004346837
-0.0037740957
-0.0032308272
-0.0027173823
-0.0022328946
-0.001776339
-0.001341215
-0.00093945787
-0.00049777322
-0.0003525011
-0.004831574
-0.0054519843
-0.0060920651
-0.0067607185
-0.0074226224
-0.0080635567
-0.0086849358
-0.0092870359
-0.0098658729
-0.010416465
-0.010934527
-0.011416185
-0.011857531
-0.012254633
-0.012603717
-0.012901292
-0.013144209
-0.013329725
-0.013455581
-0.013520074
-0.013522124
-0.013461328
-0.013337997
-0.013153181
-0.012908678
-0.012607022
-0.01225145
-0.011845854
-0.011394714
-0.010903014
-0.010376142
-0.0098197883
-0.0092398264
-0.0086421979
-0.0080327946
-0.0074173439
-0.0068013004
-0.0061897441
-0.005587286
-0.0049979805
-0.004425243
-0.0038717723
-0.0033394597
-0.0028293569
-0.0023413457
-0.0018751604
-0.0014251785
-0.0010039548
-0.00053979779
-0.00036869243
-0.0025753826
-0.0031618867
-0.0037649942
-0.0043908511
-0.0050141298
-0.0056243902
-0.0062222471
-0.006807473
-0.0073767568
-0.0079260045
-0.0084515447
-0.0089499278
-0.009417611
-0.0098509652
-0.010246408
-0.010600496
-0.01090998
-0.011171859
-0.01138345
-0.011542458
-0.011647045
-0.011695886
-0.011688222
-0.011623905
-0.011503426
-0.011327931
-0.011099224
-0.010819748
-0.010492554
-0.010121253
-0.0097099477
-0.0092631621
-0.0087857464
-0.0082827822
-0.007759478
-0.0072210626
-0.0066726763
-0.0061192637
-0.0055654688
-0.0050155315
-0.0044731873
-0.0039415697
-0.0034231005
-0.0029194378
-0.0024311382
-0.001958641
-0.0014971598
-0.0010598419
-0.00057662232
-0.00038267252
-0.00068418806
-0.0012401121
-0.0018100177
-0.0023976708
-0.002985751
-0.0035668993
-0.0041411186
-0.004707792
-0.0052641734
-0.0058069248
-0.0063329254
-0.0068391371
-0.0073223936
-0.0077794047
-0.0082068492
-0.0086014419
-0.0089599778
-0.0092793797
-0.0095567561
-0.0097894641
-0.0099751719
-0.010111919
-0.010198172
-0.01023288
-0.010215512
-0.010146102
-0.010025263
-0.0098542033
-0.0096347208
-0.0093691858
-0.0090605067
-0.0087120821
-0.0083277387
-0.0079116574
-0.0074682877
-0.0070022542
-0.0065182558
-0.0060209599
-0.005514894
-0.0050043338
-0.00449319
-0.0039848966
-0.0034822845
-0.0029875127
-0.0025017226
-0.0020259843
-0.0015562848
-0.0011063123
-0.00060763993
-0.00039415497
0.00083762571
0.00030710365
-0.00023501716
-0.0007907896
-0.0013490969
-0.0019049501
-0.0024578791
-0.0030069772
-0.0035499546
-0.0040840862
-0.0046067134
-0.0051151619
-0.0056066106
-0.0060780959
-0.0065265719
-0.0069489572
-0.0073421704
-0.0077031679
-0.0080289929
-0.0083168285
-0.0085640535
-0.0087682985
-0.0089275035
-0.0090399727
-0.0091044269
-0.0091200502
-0.0090865291
-0.0090040815
-0.0088734759
-0.0086960371
-0.0084736389
-0.0082086812
-0.0079040545
-0.0075630875
-0.0071894831
-0.0067872403
-0.0063605658
-0.0059137744
-0.0054511827
-0.0049769946
-0.0044951813
-0.004009359
-0.0035226514
-0.0030376065
-0.0025558447
-0.0020789697
-0.0016036519
-0.00114403
-0.00063328571
-0.00040338861
0.0020398139
0.0015304575
0.0010112749
0.00048173387
-5.1770097e-05
-0.0005860969
-0.0011204301
-0.0016536379
-0.0021837782