/*--------------------------------*- C++ -*----------------------------------*\
  =========                 |
  \\      /  F ield         | OpenFOAM: The Open Source CFD Toolbox
   \\    /   O peration     | Website:  https://openfoam.org
    \\  /    A nd           | Version:  6
     \\/     M anipulation  |
\*---------------------------------------------------------------------------*/
FoamFile
{
    version     2.0;
    format      ascii;
    class       volVectorField;
    location    "101";
    object      UMean;
}
// * * * * * * * * * * * * * * * * * * * * * * * * * * * * * * * * * * * * * //

dimensions      [0 1 -1 0 0 0 0];

internalField   nonuniform List<vector> 
9200
(
(0.0024047037 0.00037543915 -6.2804449e-20)
(0.018215165 -0.0053497516 5.0795258e-20)
(0.046313856 -0.011082316 -4.1352165e-20)
(0.083941885 -0.016643839 -6.6285211e-20)
(0.12911695 -0.021858019 2.045615e-20)
(0.18052267 -0.026297894 3.6039083e-20)
(0.23700991 -0.029683874 -1.3455618e-20)
(0.29751624 -0.031884122 1.0191923e-20)
(0.3610502 -0.032853402 1.9048607e-20)
(0.42666061 -0.032609143 1.6840468e-21)
(0.49341401 -0.031220217 -2.4451991e-20)
(0.56038748 -0.028795797 2.3444117e-20)
(0.62667343 -0.025474179 -4.5664763e-20)
(0.69139393 -0.021411518 -2.4117323e-20)
(0.75372268 -0.016769957 6.7404125e-21)
(0.8129116 -0.011707912 -2.8825405e-20)
(0.86833459 -0.0063576053 2.9005798e-20)
(0.91960623 -0.00068192932 2.5876339e-20)
(0.96640391 0.0054441654 -2.1875207e-22)
(1.0061733 0.0087673199 -1.5118715e-21)
(0.0070171934 -0.0025218326 -1.8089248e-20)
(0.032567424 -0.012545835 4.3450698e-20)
(0.071276971 -0.020321402 2.4863721e-20)
(0.11997264 -0.026316903 -1.2584841e-19)
(0.17636802 -0.030774464 -1.3708164e-20)
(0.23888358 -0.033509711 8.0627236e-20)
(0.30609867 -0.034452946 -3.9013796e-20)
(0.37666956 -0.033666388 -9.3628419e-21)
(0.44932105 -0.031281153 3.8359082e-20)
(0.52282514 -0.027477649 -4.8604427e-20)
(0.59599195 -0.022477793 -3.446146e-20)
(0.66767885 -0.016534346 8.1931184e-20)
(0.73681227 -0.0099188031 4.3434712e-20)
(0.8024172 -0.0029095301 -7.7357887e-20)
(0.86364996 0.0042182856 1.6641596e-20)
(0.9198284 0.011197321 -4.1813093e-20)
(0.97046831 0.017781494 -1.5991308e-20)
(1.0153757 0.023817386 8.0637519e-20)
(1.0545153 0.0289135 3.5279578e-20)
(1.0862377 0.030045337 -8.7091393e-20)
(0.013054212 -0.0052979934 3.8284672e-20)
(0.050673273 -0.019107913 2.1328529e-21)
(0.10175509 -0.028139222 2.309256e-20)
(0.16276988 -0.033627764 1.058431e-21)
(0.23113988 -0.036318332 -4.3136238e-20)
(0.30500042 -0.036333702 2.0658257e-20)
(0.38262929 -0.033874587 1.4223757e-20)
(0.46237547 -0.029254695 -5.5455488e-20)
(0.54266837 -0.022833584 6.3658519e-20)
(0.62201656 -0.014998778 1.6492854e-20)
(0.69902044 -0.0061581359 -6.1411364e-20)
(0.77240213 0.0032739939 -2.0872604e-20)
(0.84104336 0.012893361 9.6227639e-21)
(0.90402344 0.022321851 2.6474698e-20)
(0.96065051 0.031220887 -1.2769879e-20)
(1.0104795 0.0392996 3.1326802e-20)
(1.0533192 0.046327699 -2.2865906e-20)
(1.0892555 0.052181425 -7.7946185e-20)
(1.1185248 0.056612031 -2.4976389e-20)
(1.140387 0.057795169 5.2865537e-20)
(0.02060358 -0.0076997941 2.5245276e-20)
(0.072625451 -0.024332464 5.3812469e-20)
(0.13769451 -0.033489677 2.1190925e-20)
(0.21200417 -0.037296152 1.4516745e-20)
(0.29270735 -0.037084549 1.9101729e-20)
(0.37764258 -0.033353561 -5.2084868e-20)
(0.46477667 -0.026637281 -2.8245967e-20)
(0.55216033 -0.017556135 0)
(0.63796656 -0.0067413438 1.7125535e-20)
(0.72051839 0.0051853428 -7.5638155e-21)
(0.79832672 0.017622807 -1.0926163e-19)
(0.87013758 0.030009953 -1.7255941e-20)
(0.93497611 0.041847083 7.3056463e-20)
(0.99217789 0.052714126 4.6918662e-22)
(1.0414013 0.062283253 -1.7491336e-21)
(1.0826169 0.070323961 2.4312586e-20)
(1.1160776 0.076707903 -5.5357918e-21)
(1.142288 0.081436043 -6.7421889e-20)
(1.161883 0.084497632 -5.0609623e-20)
(1.1749088 0.084955434 7.3615977e-20)
(0.029681192 -0.0094419027 -3.7546864e-21)
(0.098291793 -0.02746493 -4.4753282e-21)
(0.1786563 -0.035299453 5.9605549e-20)
(0.2668043 -0.036067163 2.0320043e-20)
(0.35966435 -0.031768288 -3.5214617e-20)
(0.45479479 -0.023345186 1.2678036e-20)
(0.54988407 -0.011722424 2.9009225e-21)
(0.64275061 0.0021318243 3.7634095e-20)
(0.73141883 0.017295081 6.2901497e-21)
(0.81417769 0.032917043 -1.5201303e-20)
(0.88963729 0.048235759 6.7818809e-20)
(0.9567788 0.062600871 -6.4022758e-20)
(1.0149846 0.075494665 -1.4641056e-19)
(1.0640405 0.086544565 -6.1585834e-21)
(1.1041097 0.095525133 9.1267435e-20)
(1.1356784 0.10234923 0)
(1.1594846 0.10705511 1.133535e-20)
(1.1764445 0.1098084 -1.6644113e-20)
(1.1875368 0.11079819 -9.6457621e-21)
(1.1933565 0.10962695 2.2224613e-20)
(0.040211741 -0.010218095 -4.8173174e-21)
(0.12728752 -0.027744129 4.5439952e-21)
(0.22381268 -0.032554725 -9.2177154e-21)
(0.32580531 -0.028845188 2.9632685e-20)
(0.43005151 -0.019344922 -3.1990987e-20)
(0.53389249 -0.0054944452 -1.8396808e-20)
(0.63483088 0.011355226 3.9045346e-20)
(0.73058833 0.029878801 4.7770401e-21)
(0.81921894 0.048883964 -2.797064e-20)
(0.89918948 0.067344515 7.695688e-20)
(0.9694365 0.084417815 2.5893149e-23)
(1.0293951 0.099463809 -8.8769263e-20)
(1.0789899 0.11205458 0)
(1.1185881 0.12196873 4.3022982e-20)
(1.1489207 0.12917117 5.9009813e-21)
(1.1709823 0.13378121 -8.3689989e-20)
(1.1859251 0.1360371 -2.1177036e-20)
(1.1949617 0.13627369 -1.3284802e-20)
(1.1992612 0.13483245 -1.5805866e-20)
(1.1996805 0.13163815 4.3185502e-20)
(0.052016502 -0.0097226491 -1.7337905e-20)
(0.15896149 -0.024461826 -4.0720242e-21)
(0.27196016 -0.024391014 3.0994865e-20)
(0.38721274 -0.014803922 3.7843447e-20)
(0.50149174 0.00081485937 -2.1076789e-20)
(0.61204303 0.020503063 -7.4990559e-20)
(0.71634299 0.042487058 -3.1071747e-20)
(0.81221769 0.065124104 8.6007805e-20)
(0.89798177 0.08702693 1.0003966e-20)
(0.97251913 0.10709759 -2.6872588e-20)
(1.0353138 0.12453529 1.451089e-20)
(1.0864308 0.13883684 -4.7757244e-21)
(1.1264472 0.14977985 0)
(1.1563456 0.1573862 2.9442186e-20)
(1.1773839 0.16187137 -8.5442791e-20)
(1.1909618 0.16358632 -3.3865505e-20)
(1.1984995 0.16296226 8.6664654e-20)
(1.2013425 0.16047227 -5.1026342e-21)
(1.2006855 0.15655227 3.6483269e-21)
(1.1974257 0.15130861 2.9200825e-20)
(0.064808079 -0.0076783726 -3.2715087e-20)
(0.19240407 -0.017034518 -8.522048e-20)
(0.32156701 -0.010189879 8.4981638e-22)
(0.44890842 0.0065123555 7.4824564e-20)
(0.57136537 0.028861363 6.6578267e-20)
(0.68627091 0.054398832 -7.542343e-20)
(0.7912944 0.08098821 6.9780502e-22)
(0.88461292 0.10676812 9.3465661e-20)
(0.96505112 0.13028588 5.2879e-20)
(1.0321333 0.15051828 -5.9001479e-20)
(1.0860602 0.16685264 -9.9986452e-20)
(1.1276211 0.17905135 -3.4103871e-21)
(1.1580578 0.18719462 4.5342659e-20)
(1.1789029 0.19160535 -6.9616903e-21)
(1.1918164 0.19276693 -1.3473212e-20)
(1.1984422 0.1912444 2.0514609e-20)
(1.2002982 0.18761929 4.6623998e-20)
(1.1987062 0.18244764 -4.6214641e-20)
(1.1947574 0.17619898 -1.0838376e-19)
(1.1892536 0.16907075 2.6434499e-20)
(0.078160993 -0.0038672204 -3.6476482e-20)
(0.22640913 -0.0050786174 -1.770576e-19)
(0.37074946 0.010340446 8.8215887e-20)
(0.50845492 0.035131078 9.8658811e-20)
(0.6368512 0.064451849 6.1270464e-20)
(0.75359373 0.09543589 9.2760492e-21)
(0.85680222 0.12570721 -1.1359614e-19)
(0.94526102 0.15334308 0)
(1.0185286 0.17699882 -7.4689862e-20)
(1.0769324 0.19589502 -1.6508045e-20)
(1.1214713 0.20975205 5.874672e-20)
(1.1536538 0.21870332 1.1682169e-20)
(1.1753034 0.22318986 -4.8593682e-20)
(1.1883629 0.22384749 -5.1997377e-20)
(1.1947249 0.22140129 2.6017252e-20)
(1.1961065 0.21657858 4.781458e-20)
(1.1939724 0.21004775 -5.9003548e-20)
(1.1895074 0.2023853 -1.134722e-19)
(1.1836247 0.19404184 -3.0072779e-21)
(1.1769688 0.18525239 2.8380125e-20)
(0.091495276 0.0018552526 -4.3337762e-21)
(0.25948001 0.011577657 9.1413585e-20)
(0.41731153 0.037172226 -1.2973261e-20)
(0.56318442 0.070678982 -9.0939405e-20)
(0.69506497 0.10679916 4.816745e-20)
(0.81119062 0.14241917 5.1146566e-20)
(0.91038787 0.17511571 5.9457294e-21)
(0.99226983 0.20311374 -1.0631847e-19)
(1.0572851 0.22537639 -2.6840136e-21)
(1.1066354 0.24153554 5.4070201e-20)
(1.1420992 0.25176301 6.3747092e-21)
(1.1658074 0.25662513 -2.1141247e-20)
(1.1800138 0.25693211 -8.0345264e-20)
(1.1868953 0.25359862 -6.4691146e-21)
(1.1884061 0.24753079 4.5891735e-20)
(1.1861915 0.2395474 3.8924423e-20)
(1.1815594 0.23033603 2.056436e-20)
(1.1754964 0.22043849 -5.6319578e-20)
(1.1687155 0.21024989 1.2839755e-20)
(1.161693 0.20001535 8.6248803e-20)
(-0.0013606502 0.0014743567 -5.7947231e-22)
(-0.0047798025 0.0031967256 1.6961035e-21)
(-0.010821803 0.0040619153 2.7296258e-21)
(-0.017581403 0.0043565373 1.8136049e-22)
(-0.024159898 0.0042576563 -3.243454e-21)
(-0.030130456 0.0038859868 3.3722063e-21)
(-0.035217501 0.0033293052 -9.7996486e-21)
(-0.039249251 0.0026505781 -8.4258252e-21)
(-0.042136475 0.0018942975 1.4706505e-20)
(-0.043844148 0.0010916771 -1.2496067e-20)
(-0.04437093 0.00026435792 -2.0823672e-22)
(-0.043736321 -0.00057292285 4.6245376e-21)
(-0.041972083 -0.0014103211 -7.2125636e-22)
(-0.039116396 -0.0022413053 2.7597477e-20)
(-0.035210223 -0.0030612438 2.4288541e-22)
(-0.030296842 -0.003865905 -4.8662693e-20)
(-0.024424375 -0.0046507972 9.1108456e-21)
(-0.017637501 -0.0054139014 2.7829323e-20)
(-0.0099490149 -0.0061537706 -5.0865704e-20)
(-0.0014252826 -0.0068200619 -3.1961903e-20)
(-0.0017192124 0.0042868933 -6.0092219e-21)
(-0.0053902829 0.0092695785 8.6169214e-21)
(-0.011145209 0.011754694 -1.0819659e-20)
(-0.01725851 0.012574397 7.4061078e-21)
(-0.022935653 0.012244992 8.6143726e-21)
(-0.027803216 0.011120482 1.118203e-21)
(-0.031622999 0.0094583989 -3.2464583e-20)
(-0.034250274 0.0074434328 -2.597011e-21)
(-0.035614014 0.005206098 2.6154788e-20)
(-0.035691046 0.0028379551 -6.4157461e-21)
(-0.034487529 0.00040246534 -2.7244394e-20)
(-0.032027428 -0.0020571822 6.023474e-21)
(-0.028344846 -0.004512188 2.7066215e-20)
(-0.023478689 -0.0069435072 1.2392299e-20)
(-0.017468901 -0.0093377085 2.6369127e-20)
(-0.010356989 -0.011682757 -2.3349546e-20)
(-0.0021960633 -0.013966033 -2.5234334e-20)
(0.0069571517 -0.016181014 2.5092692e-20)
(0.017162421 -0.018312878 3.0707931e-20)
(0.028615523 -0.020189468 1.7597571e-20)
(-0.0023631555 0.0066958077 -4.8873729e-21)
(-0.0064391916 0.014400977 -4.0299821e-21)
(-0.0115653 0.018195979 -2.025422e-22)
(-0.016362091 0.019372434 -1.3620734e-21)
(-0.020234174 0.018737976 8.4314886e-21)
(-0.022911145 0.016853439 1.3128316e-20)
(-0.024227389 0.014127762 -5.1054307e-21)
(-0.024090826 0.010854427 -2.392785e-20)
(-0.022466185 0.007241202 8.3098527e-21)
(-0.019354061 0.003434112 1.6105054e-20)
(-0.014776271 -0.00046548826 7.5359014e-21)
(-0.0087669284 -0.0043885741 2.1695542e-20)
(-0.0013665221 -0.0082892348 2.0799011e-21)
(0.007382327 -0.012137483 -3.9830332e-20)
(0.01743861 -0.015912493 1.9121002e-21)
(0.028761326 -0.019596044 -2.4927699e-20)
(0.041286503 -0.023171083 -2.916148e-20)
(0.054930707 -0.026629077 5.3676204e-20)
(0.069872859 -0.029916306 2.9753027e-20)
(0.086816349 -0.032661571 8.5792458e-22)
(-0.0031640783 0.0084812916 -6.2172077e-21)
(-0.0076342097 0.018072797 -1.4079282e-20)
(-0.011718224 0.022693603 4.611394e-21)
(-0.014508748 0.023965441 5.2389102e-21)
(-0.015684385 0.022913684 2.2263192e-21)
(-0.015119116 0.020264811 1.0085145e-20)
(-0.012750633 0.016550376 1.2243448e-20)
(-0.0085629329 0.012152198 -1.8788033e-21)
(-0.002573805 0.0073413209 -1.4359266e-20)
(0.0051793271 0.0023087948 -3.5804371e-20)
(0.014648638 -0.0028124716 2.685527e-22)
(0.0257808 -0.0079318265 4.8781192e-20)
(0.038521031 -0.0129893 -2.1274723e-20)
(0.052814637 -0.017946003 -1.4479318e-20)
(0.068610974 -0.022776014 3.362831e-23)
(0.085861826 -0.027458764 3.7808337e-20)
(0.10448532 -0.031980086 -1.8179555e-20)
(0.12435239 -0.036339524 -6.0921462e-20)
(0.1457632 -0.040421128 5.1401913e-20)
(0.17013648 -0.043536252 3.7475626e-20)
(-0.0039511532 0.0094962254 -2.220652e-22)
(-0.0085776624 0.019925023 -1.4071607e-20)
(-0.011097171 0.02475622 -4.2828825e-20)
(-0.011151555 0.025790024 -8.3622597e-21)
(-0.0087431888 0.024181006 -3.0965173e-21)
(-0.0039211402 0.020770367 8.1761736e-21)
(0.0032488647 0.016176133 -6.3028432e-21)
(0.012686216 0.010842306 -1.1201329e-20)
(0.024303159 0.0050848845 2.6669596e-20)
(0.038010662 -0.00087284357 5.8537202e-21)
(0.053721813 -0.006874987 -3.100393e-20)
(0.071351332 -0.012814942 1.2817246e-20)
(0.090815796 -0.018622142 0)
(0.11203395 -0.02425196 1.4104043e-20)
(0.1349296 -0.02967685 -1.124672e-20)
(0.15943096 -0.034878892 -1.6837765e-20)
(0.1854244 -0.039856844 -4.4265478e-22)
(0.2127132 -0.044639191 -3.0302424e-21)
(0.24167535 -0.049047987 5.0407101e-20)
(0.27458191 -0.051941413 -1.3445213e-20)
(-0.0045306299 0.0096756238 -8.0890752e-21)
(-0.0088028035 0.019782086 2.876078e-20)
(-0.0090866587 0.024134656 -1.3290957e-20)
(-0.005603746 0.024559074 -3.2694545e-20)
(0.0012949932 0.022246341 -3.1435648e-20)
(0.0113657 0.018097307 -1.7995722e-20)
(0.024396291 0.01277585 -1.1269896e-21)
(0.04019205 0.006757736 6.7568568e-21)
(0.058579261 0.00038243486 2.3243016e-20)
(0.079401488 -0.006109211 8.7015681e-21)
(0.10251383 -0.012548894 -8.3211943e-21)
(0.12777972 -0.018821494 -1.9008397e-21)
(0.15506686 -0.024851339 -4.4588489e-20)
(0.18424442 -0.030592201 -1.4700818e-20)
(0.21518456 -0.036018941 2.2436757e-20)
(0.24776383 -0.041121656 -2.4678532e-20)
(0.28181367 -0.045922296 -1.0271058e-20)
(0.31704611 -0.050506292 3.3475503e-20)
(0.35384318 -0.054670629 5.5592155e-20)
(0.39536439 -0.056717021 3.921639e-21)
(-0.0047028742 0.0090319574 1.7895027e-20)
(-0.0078086528 0.017653233 1.5522455e-20)
(-0.0049997315 0.020835301 5.8126267e-20)
(0.002928784 0.02029013 2.7612413e-20)
(0.015273418 0.017156162 2.2024494e-22)
(0.031585425 0.01233855 -4.6914715e-20)
(0.051493707 0.0065051356 -2.8426115e-20)
(0.074675889 0.0001323482 1.2295071e-20)
(0.100853 -0.0064405474 1.6855443e-20)
(0.12977905 -0.012972998 -1.4987594e-20)
(0.16122865 -0.019297491 -5.1559727e-20)
(0.19498746 -0.025300817 3.4600322e-20)
(0.23084441 -0.030910567 2.2763821e-20)
(0.268586 -0.036085952 -3.1757407e-20)
(0.30799609 -0.040810926 1.362275e-20)
(0.34886005 -0.045090834 2.7512649e-20)
(0.39092039 -0.04898075 9.4099491e-21)
(0.43377422 -0.052652817 -1.4127641e-20)
(0.47772333 -0.055956091 -1.4899977e-20)
(0.52673234 -0.05662469 9.1313957e-21)
(-0.0042737792 0.0076411912 1.2250129e-20)
(-0.0050882048 0.013711744 -2.7385294e-20)
(0.0018850723 0.015105543 8.3463832e-21)
(0.015306161 0.013301263 3.8715577e-20)
(0.034128922 0.0093033149 5.8940608e-20)
(0.057696996 0.0039692957 2.3331425e-20)
(0.085470446 -0.0020690775 -6.7063705e-21)
(0.11698025 -0.0083680833 -1.4155537e-20)
(0.15182095 -0.01461387 -7.2866579e-21)
(0.18963049 -0.020586367 3.9651901e-20)
(0.23007059 -0.026135807 -5.5897256e-21)
(0.27281221 -0.031165391 -1.9486165e-20)
(0.31752463 -0.035618986 -2.2394036e-20)
(0.36386788 -0.039473407 -5.4569473e-20)
(0.41149202 -0.042733543 2.6353851e-20)
(0.46004565 -0.045431989 -1.5991068e-20)
(0.50914598 -0.047670526 2.9782958e-20)
(0.55826552 -0.049741679 2.4033765e-20)
(0.60756701 -0.051664674 -9.313072e-20)
(0.66162547 -0.050769218 7.2539972e-22)
(-0.0030620675 0.0056270822 2.3664066e-20)
(-0.00015531633 0.0082688592 -2.9667766e-20)
(0.012275498 0.0074123741 -4.975276e-20)
(0.032383162 0.0042003731 -3.0632877e-20)
(0.058796724 -0.00056898708 -2.3228406e-21)
(0.090647998 -0.0061349395 1.5032624e-20)
(0.12721495 -0.011941941 -3.2594749e-21)
(0.16786265 -0.017611669 2.0628637e-20)
(0.21203043 -0.022883838 1.0070224e-20)
(0.25920434 -0.02758316 -1.3014402e-20)
(0.30889163 -0.031599368 1.0485326e-20)
(0.36060288 -0.03487212 -2.743759e-20)
(0.41383975 -0.037380085 9.8174993e-21)
(0.46808735 -0.039134085 1.9249614e-20)
(0.52281419 -0.040172915 -3.3893507e-21)
(0.57748301 -0.040564809 2.1521705e-21)
(0.6315373 -0.040459805 -8.4102099e-22)
(0.68430966 -0.040254662 2.2586965e-20)
(0.73580042 -0.04015648 3.932973e-21)
(0.79096349 -0.03758212 -3.7535744e-21)
(-0.00089984354 0.0031488136 2.6037797e-20)
(0.0074354356 0.0017570395 6.3968775e-20)
(0.02681049 -0.0015625616 -5.3857897e-20)
(0.054909952 -0.0060986207 -1.1102693e-20)
(0.090053942 -0.011331423 2.2779664e-20)
(0.13115913 -0.01664491 2.399347e-21)
(0.17730582 -0.021600814 -3.3470043e-20)
(0.22766628 -0.025923718 7.8978124e-21)
(0.28148863 -0.029440924 8.0089612e-21)
(0.33806487 -0.032053732 -2.9806658e-20)
(0.39670333 -0.033721806 1.4614657e-21)
(0.45671217 -0.0344503 -4.2525981e-20)
(0.51739101 -0.034279265 -4.1621924e-20)
(0.57802915 -0.033275161 7.5277229e-20)
(0.63790961 -0.031523401 6.3646855e-21)
(0.69631724 -0.029127052 -1.7298878e-20)
(0.75252553 -0.026245956 2.1935575e-20)
(0.80572597 -0.02318072 -1.0174944e-21)
(0.85547902 -0.019960476 2.1600509e-20)
(0.90541483 -0.015103646 -2.3266267e-20)
(0.0087098121 -0.007110925 6.7098426e-20)
(0.02057529 -0.0076143195 1.7432614e-20)
(0.033900442 -0.008010407 -3.8887873e-20)
(0.048322746 -0.0082249653 1.8946386e-20)
(0.063550526 -0.0083444229 0)
(0.079508679 -0.0083999044 0)
(0.096128235 -0.0083946527 -2.4776317e-20)
(0.11331872 -0.0083369102 -1.7523933e-20)
(0.13099795 -0.0082370189 2.0549516e-20)
(0.14909584 -0.0081026427 1.922543e-20)
(0.16754805 -0.0079396251 1.0265698e-21)
(0.18629403 -0.0077531126 -1.0529362e-20)
(0.20527736 -0.0075476186 8.8456291e-21)
(0.22444553 -0.0073269847 1.8283413e-20)
(0.24374933 -0.0070945019 -5.6059682e-21)
(0.26314246 -0.006853026 -9.9736314e-21)
(0.28258133 -0.0066050459 -4.1835354e-21)
(0.30202489 -0.006352736 -4.0988585e-21)
(0.3214345 -0.0060980048 6.4831291e-22)
(0.34077385 -0.0058425322 1.1923405e-21)
(0.36000893 -0.0055878002 2.593084e-21)
(0.37910798 -0.005335115 6.2809768e-21)
(0.39804155 -0.0050856258 1.84728e-23)
(0.41678248 -0.0048403379 -3.224618e-21)
(0.43530588 -0.0046001248 9.8207358e-23)
(0.45358921 -0.0043657369 -5.2852238e-22)
(0.47161218 -0.0041378097 1.1272258e-21)
(0.48935682 -0.0039168709 8.7205114e-22)
(0.50680739 -0.0037033476 -1.2819119e-21)
(0.52395037 -0.0034975734 -7.4104819e-23)
(0.54077437 -0.003299795 -1.357454e-22)
(0.55727008 -0.0031101801 -3.0223077e-22)
(0.57343017 -0.0029288242 -4.1544063e-22)
(0.58924922 -0.0027557589 1.3223577e-22)
(0.60472363 -0.0025909597 -1.1439985e-22)
(0.61985152 -0.0024343535 -1.6573709e-22)
(0.63463262 -0.0022858274 1.8673986e-22)
(0.64906831 -0.0021452365 2.0511428e-22)
(0.66316138 -0.0020124143 -6.167031e-23)
(0.67691648 -0.0018871777 -1.7314936e-22)
(0.69033883 -0.0017693565 -1.3629463e-24)
(0.70343863 -0.0016587492 -6.6270714e-24)
(0.71621808 -0.0015553413 6.4577907e-23)
(0.7287127 -0.00145872 -6.1781066e-23)
(0.7408699 -0.0013701071 -1.579007e-22)
(0.75291431 -0.0012863448 2.1186627e-23)
(0.76428896 -0.0012192666 1.3858994e-23)
(0.77674157 -0.0011376777 -7.2901921e-24)
(0.78550647 -0.0011458605 2.1609119e-23)
(0.80394767 -0.00098076338 3.846997e-22)
(0.039940903 -0.020925492 -1.5413238e-20)
(0.050726225 -0.022454379 -7.1085246e-20)
(0.063458278 -0.023619224 -3.4977241e-20)
(0.077261714 -0.024229759 4.3011474e-20)
(0.091722911 -0.02457219 1.6257614e-20)
(0.10684918 -0.024736867 -2.0518347e-20)
(0.12260585 -0.02472549 5.7860886e-21)
(0.1389057 -0.024560752 2.7136212e-20)
(0.15567404 -0.024273407 -4.9634012e-22)
(0.17285078 -0.023885498 -8.328885e-21)
(0.19037904 -0.02341355 -1.2775199e-20)
(0.20820384 -0.022872334 -9.2661182e-21)
(0.22627345 -0.022274906 1.8099476e-20)
(0.2445393 -0.02163239 1.0345322e-20)
(0.26295537 -0.020954342 -1.5876212e-20)
(0.28147789 -0.020249089 -5.9707078e-21)
(0.30006534 -0.019523921 2.9816445e-21)
(0.3186783 -0.018785232 7.852012e-21)
(0.33727941 -0.018038655 6.8687002e-21)
(0.35583336 -0.017289166 -7.1755106e-21)
(0.37430691 -0.016541171 -3.6081594e-21)
(0.39266888 -0.015798566 1.7989438e-21)
(0.4108902 -0.015064786 9.6772077e-22)
(0.42894396 -0.014342849 1.2794755e-21)
(0.44680541 -0.01363538 2.9884822e-22)
(0.46445199 -0.012944644 -4.2463881e-22)
(0.48186335 -0.012272564 -7.7352161e-22)
(0.49902132 -0.011620744 1.177752e-21)
(0.51590992 -0.010990486 9.1857206e-22)
(0.53251526 -0.010382816 -4.0615471e-22)
(0.54882559 -0.0097985002 6.4281652e-22)
(0.56483111 -0.0092380675 -2.0555865e-22)
(0.58052401 -0.0087018322 -4.5834825e-22)
(0.5958983 -0.0081899169 -6.3321516e-22)
(0.6109498 -0.0077022752 3.6681806e-22)
(0.62567599 -0.0072387161 -2.2003251e-22)
(0.64007598 -0.006798928 2.8827811e-22)
(0.65415045 -0.0063825033 -4.9290671e-22)
(0.66790153 -0.0059889692 5.3325669e-22)
(0.68133316 -0.005617801 5.2418261e-23)
(0.69444987 -0.0052685138 -6.7951511e-24)
(0.70726113 -0.0049405258 2.5796297e-22)
(0.7197685 -0.0046338161 3.4978044e-22)
(0.73200657 -0.004347166 2.7416499e-22)
(0.7439227 -0.0040842542 3.0776082e-22)
(0.75573859 -0.0038356409 -7.4869083e-24)
(0.76690301 -0.0036367157 1.5903073e-22)
(0.77914216 -0.003394303 1.371322e-22)
(0.78775016 -0.0034193718 -2.1455377e-22)
(0.80590786 -0.0029285565 2.4137175e-23)
(0.10029895 -0.033499336 1.126267e-20)
(0.10897397 -0.036065429 4.5271526e-21)
(0.12043974 -0.037949394 -1.571858e-20)
(0.13299261 -0.038886789 -2.1372263e-21)
(0.14592466 -0.03942424 1.7376279e-20)
(0.15940166 -0.039705168 -1.6416781e-20)
(0.17346375 -0.039710589 -3.3307843e-20)
(0.18802645 -0.039471766 1.6372838e-20)
(0.20302628 -0.039038933 2.0149462e-20)
(0.21842151 -0.038446294 -1.2700991e-20)
(0.23416881 -0.037718527 1.0746167e-21)
(0.25022279 -0.036878244 8.1004133e-21)
(0.26653983 -0.035945804 -1.6348425e-20)
(0.28307814 -0.034938631 4.8051018e-21)
(0.29979713 -0.033871767 8.129205e-21)
(0.31665735 -0.03275843 -1.1678769e-21)
(0.33362068 -0.031610289 -4.735394e-22)
(0.35065042 -0.03043766 -7.8944594e-21)
(0.36771131 -0.029249695 5.0947755e-21)
(0.38476967 -0.028054536 8.8778552e-21)
(0.40179346 -0.026859435 -3.9663807e-21)
(0.41875238 -0.025670843 -2.1216997e-21)
(0.43561794 -0.02449448 7.3396999e-22)
(0.45236356 -0.023335393 -1.8435579e-21)
(0.46896463 -0.022197999 1.2581252e-21)
(0.4853985 -0.021086124 6.6276621e-22)
(0.50164459 -0.020003039 2.1187912e-21)
(0.51768435 -0.018951485 -2.4293343e-21)
(0.53350125 -0.017933715 2.7461371e-21)
(0.54908078 -0.016951517 6.364187e-22)
(0.56441038 -0.016006252 8.6122045e-22)
(0.57947942 -0.015098889 2.776023e-22)
(0.59427912 -0.014230038 1.184781e-21)
(0.60880248 -0.013399992 -1.7773938e-21)
(0.62304419 -0.012608759 5.0730893e-22)
(0.6370006 -0.011856109 3.5092848e-22)
(0.65066962 -0.011141607 -1.1950314e-22)
(0.66405069 -0.010464657 -6.8546322e-23)
(0.67714467 -0.0098245532 -4.3495475e-22)
(0.68995422 -0.0092204993 2.708221e-22)
(0.70248258 -0.0086517633 -2.3637729e-23)
(0.71473789 -0.0081174472 7.2104412e-22)
(0.7267205 -0.0076175835 -3.2878484e-22)
(0.73846328 -0.0071502053 2.580749e-23)
(0.74991349 -0.006721472 1.1083374e-22)
(0.76128735 -0.0063157868 -1.1647678e-22)
(0.77204452 -0.0059916768 -1.9882501e-22)
(0.78387001 -0.0055954548 6.5831904e-22)
(0.79217334 -0.0056385372 1.9101577e-22)
(0.80978074 -0.0048356756 -8.7743091e-22)
(0.18634064 -0.044008805 2.1998434e-21)
(0.19194432 -0.047600016 -1.2105481e-20)
(0.20136202 -0.050128864 6.5321728e-21)
(0.21199879 -0.051315448 -1.4981682e-20)
(0.22265287 -0.052029113 -2.2057891e-21)
(0.23369219 -0.052453569 1.0958051e-20)
(0.24528032 -0.052526507 -1.229469e-20)
(0.25733309 -0.052278576 5.8571277e-22)
(0.26979521 -0.051776587 1.3931509e-20)
(0.28264844 -0.051064067 4.3361756e-21)
(0.29586705 -0.050170614 -6.5785013e-21)
(0.30941697 -0.049124024 -3.6512779e-21)
(0.3232639 -0.047950102 -5.1761516e-21)
(0.33737401 -0.046671245 -7.1861137e-21)
(0.35171294 -0.045306964 2.2336459e-21)
(0.36624611 -0.043874608 -3.9186248e-22)
(0.38093916 -0.042389692 1.8169715e-21)
(0.39575831 -0.040866095 -3.3783126e-21)
(0.41067054 -0.039316265 -4.990258e-21)
(0.4256438 -0.037751381 2.7126986e-21)
(0.44064723 -0.036181489 3.8638501e-21)
(0.45565131 -0.034615595 -2.1699464e-21)
(0.47062803 -0.03306174 1.803158e-21)
(0.48555097 -0.03152707 -6.5638875e-22)
(0.50039545 -0.030017879 -4.7659577e-21)
(0.51513856 -0.028539656 -3.0928804e-21)
(0.52975922 -0.027097126 -4.1934187e-22)
(0.54423824 -0.025694288 1.6990453e-22)
(0.55855827 -0.024334462 -2.1988417e-21)
(0.57270386 -0.023020322 -1.3279795e-21)
(0.58666135 -0.021753949 2.0049375e-22)
(0.60041892 -0.020536873 -1.572704e-21)
(0.61396647 -0.019370127 -1.4809219e-22)
(0.6272956 -0.018254293 -6.1509023e-22)
(0.64039952 -0.017189558 -3.9895625e-22)
(0.65327304 -0.01617577 -8.9883209e-22)
(0.66591245 -0.015212487 -1.319661e-21)
(0.67831555 -0.01429904 3.9550666e-23)
(0.69048151 -0.013434598 -2.9817255e-24)
(0.70241128 -0.012618201 -7.3483138e-22)
(0.71410637 -0.011848971 7.3834483e-23)
(0.72557313 -0.011125793 -5.3298503e-22)
(0.73681032 -0.010448839 -8.4533496e-22)
(0.74784846 -0.0098154895 6.3367224e-22)
(0.75863477 -0.0092343905 1.2266454e-23)
(0.76937773 -0.0086840545 3.1825648e-22)
(0.77955275 -0.0082452795 -2.3470731e-22)
(0.79078554 -0.0077067292 -4.4258259e-22)
(0.79865235 -0.0077690488 1.8273432e-23)
(0.81546803 -0.0066767603 5.1338633e-22)
(0.29351722 -0.051609719 -2.5448516e-20)
(0.29513443 -0.056210784 5.2863165e-20)
(0.30160711 -0.059301701 1.1205083e-20)
(0.30959815 -0.060688339 -1.7821387e-20)
(0.31724946 -0.061599033 -3.0818953e-21)
(0.32511288 -0.062231218 2.0576768e-21)
(0.33352081 -0.062462803 -2.6401831e-21)
(0.34239201 -0.062314003 -5.1002745e-21)
(0.35166841 -0.061860885 -4.3540622e-21)
(0.36135378 -0.061152662 -1.3142807e-20)
(0.37144138 -0.060221353 2.0183396e-20)
(0.38190779 -0.059097247 7.6297549e-21)
(0.39272656 -0.057809401 -1.7600865e-20)
(0.4038707 -0.056383782 9.5155061e-21)
(0.41531123 -0.054843437 7.4186918e-21)
(0.42701755 -0.053209169 2.5908906e-22)
(0.43895823 -0.051499886 -2.3973009e-21)
(0.45110166 -0.04973278 -4.8588009e-21)
(0.46341633 -0.047923474 -1.865333e-21)
(0.47587121 -0.04608617 -1.6452988e-21)
(0.48843604 -0.044233755 -3.8107134e-21)
(0.50108155 -0.042377889 0)
(0.51377969 -0.040529074 -1.6876497e-21)
(0.5265038 -0.038696703 4.0636781e-21)
(0.53922868 -0.036889116 6.063593e-21)
(0.55193079 -0.035113637 -8.6662207e-22)
(0.5645882 -0.033376625 -3.7666788e-21)
(0.57718073 -0.031683515 4.0295536e-21)
(0.58968992 -0.030038865 -2.3288805e-22)
(0.60209905 -0.028446412 4.2218549e-21)
(0.61439312 -0.026909124 -4.7215966e-22)
(0.62655882 -0.025429262 1.911077e-21)
(0.63858447 -0.02400844 -1.0476049e-21)
(0.65046003 -0.02264769 5.7188221e-22)
(0.66217699 -0.021347531 -6.7467885e-22)
(0.67372834 -0.020108036 6.134403e-22)
(0.68510853 -0.018928906 6.4119968e-22)
(0.69631348 -0.017809532 5.4090774e-22)
(0.70734042 -0.016749099 -1.3124924e-21)
(0.71818836 -0.015746611 9.4238426e-22)
(0.72885684 -0.014801168 -4.8255772e-22)
(0.73935016 -0.013911555 -1.6978562e-21)
(0.74966528 -0.013078186 2.1676983e-21)
(0.75982999 -0.012297909 -4.6161052e-23)
(0.76979162 -0.011581842 -2.4892308e-22)
(0.77974904 -0.010902983 -6.0417969e-24)
(0.78919784 -0.010363143 -2.8218689e-22)
(0.79968854 -0.0096973935 -7.5206432e-22)
(0.80700934 -0.0097801543 6.6819542e-22)
(0.82282754 -0.0084285492 -5.7288819e-23)
(0.41641648 -0.055333389 -2.1397011e-20)
(0.41320619 -0.060992857 1.3754986e-20)
(0.41577443 -0.064612001 4.8905693e-21)
(0.42033763 -0.066242307 -8.7062582e-21)
(0.42432312 -0.067452689 1.3539454e-20)
(0.42837032 -0.068413383 8.7076266e-21)
(0.43300063 -0.068946166 -1.3184571e-20)
(0.43815306 -0.069058042 -6.6622431e-21)
(0.44375233 -0.06882165 1.3824387e-20)
(0.449812 -0.068285426 -1.8024502e-20)
(0.45634135 -0.067482408 -1.5029154e-20)
(0.46332551 -0.06644389 1.665893e-20)
(0.47074235 -0.065200368 7.2506087e-21)
(0.47856844 -0.063780213 -6.3882057e-21)
(0.48677775 -0.062209449 -7.4217774e-22)
(0.49534163 -0.060512051 -3.0562947e-21)
(0.50422986 -0.058710202 4.2477534e-21)
(0.51341144 -0.056824426 3.7111115e-21)
(0.52285507 -0.054873664 -2.9926799e-21)
(0.53252961 -0.052875339 3.1069294e-21)
(0.5424044 -0.050845431 3.1892248e-21)
(0.55244958 -0.048798525 -3.5815751e-21)
(0.5626363 -0.046747858 3.6303884e-22)
(0.57293695 -0.04470536 -3.1061616e-21)
(0.58332531 -0.042681689 9.2620407e-21)
(0.59377661 -0.040686278 7.0356285e-21)
(0.60426766 -0.038727377 1.330586e-21)
(0.61477691 -0.036812101 -1.9267597e-21)
(0.62528443 -0.034946488 4.9740381e-21)
(0.63577195 -0.033135558 9.1463154e-21)
(0.64622284 -0.031383383 2.516322e-21)
(0.65662212 -0.029693153 4.1943244e-21)
(0.66695635 -0.028067259 2.3229142e-21)
(0.67721367 -0.026507366 9.885852e-22)
(0.68738372 -0.0250145 -2.2428772e-22)
(0.69745758 -0.02358913 3.5450978e-21)
(0.70742777 -0.022231253 7.8906418e-22)
(0.71728824 -0.020940483 3.487563e-22)
(0.72703421 -0.01971616 5.7965928e-23)
(0.73666268 -0.018557392 1.4790498e-21)
(0.74617119 -0.01746339 3.6805928e-23)
(0.75556192 -0.016432964 7.3560609e-22)
(0.76482999 -0.015466876 -1.2684934e-22)
(0.77400025 -0.014561569 -5.4208397e-22)
(0.78302048 -0.013730598 -2.5504502e-22)
(0.79207846 -0.01294189 -6.9273327e-22)
(0.80069384 -0.012316709 3.2347816e-22)
(0.81032871 -0.011541475 -2.0082911e-22)
(0.81702107 -0.011645807 -3.8354738e-22)
(0.83167909 -0.010070496 3.2373001e-22)
(0.54871533 -0.054274886 3.2044576e-21)
(0.54007787 -0.06105897 -1.9802182e-20)
(0.53784717 -0.065235685 -2.9131378e-21)
(0.53823664 -0.067313916 5.9583029e-21)
(0.53805688 -0.069064368 4.2236376e-21)
(0.53784782 -0.070561164 1.3645611e-21)
(0.53828341 -0.071598882 8.359429e-21)
(0.53936371 -0.072186232 8.783595e-21)
(0.54099444 -0.072382562 1.0407991e-20)
(0.5431768 -0.072226943 -1.2587583e-20)
(0.54592559 -0.071751662 -2.4543999e-20)
(0.54923135 -0.07098902 -5.1934489e-21)
(0.55307267 -0.06997053 1.7851073e-20)
(0.55742551 -0.068726596 1.411601e-20)
(0.56226354 -0.067286285 -5.5561571e-21)
(0.56755766 -0.065677063 3.3462108e-22)
(0.57327684 -0.063924787 -4.8216532e-21)
(0.579389 -0.062053752 4.1106513e-21)
(0.58586164 -0.060086678 -2.9604299e-22)
(0.5926623 -0.058044688 -2.0931036e-21)
(0.59975886 -0.055947318 9.3084659e-21)
(0.60711996 -0.053812528 -7.2712869e-22)
(0.61471517 -0.051656721 8.2156058e-22)
(0.62251525 -0.049494762 -2.2827588e-22)
(0.6304923 -0.04734001 -4.7641035e-21)
(0.63861986 -0.045204357 4.639271e-21)
(0.64687298 -0.043098271 1.7736244e-21)
(0.65522835 -0.041030854 -3.6076377e-21)
(0.66366423 -0.039009904 -4.0428784e-21)