/*--------------------------------*- C++ -*----------------------------------*\
  =========                 |
  \\      /  F ield         | OpenFOAM: The Open Source CFD Toolbox
   \\    /   O peration     | Website:  https://openfoam.org
    \\  /    A nd           | Version:  6
     \\/     M anipulation  |
\*---------------------------------------------------------------------------*/
FoamFile
{
    version     2.0;
    format      ascii;
    class       volScalarField;
    location    "273";
    object      pPrime2Mean;
}
// * * * * * * * * * * * * * * * * * * * * * * * * * * * * * * * * * * * * * //

dimensions      [0 4 -4 0 0 0 0];

internalField   nonuniform List<scalar> 
9200
(
0.041232315
0.034183904
0.028216304
0.024330818
0.021228991
0.018614248
0.016357714
0.014393645
0.012678281
0.011176582
0.0098595386
0.0087028432
0.0076859812
0.0067915331
0.0060046329
0.0053125694
0.0047045817
0.0041716898
0.0037071811
0.0033022526
0.033450064
0.02768071
0.022855768
0.019683827
0.017138511
0.014986472
0.013126472
0.011506851
0.010092821
0.0088563504
0.0077740445
0.0068261235
0.0059957207
0.0052683432
0.0046314564
0.0040741884
0.0035871727
0.0031623314
0.0027921058
0.0024657123
0.026152802
0.021613742
0.017861947
0.015361936
0.013339521
0.011621113
0.010131959
0.0088340326
0.0077013761
0.0067127717
0.0058501661
0.0050979567
0.0044425231
0.00387188
0.0033754303
0.0029438022
0.002568757
0.0022430135
0.0019592439
0.0017078436
0.01954288
0.016146451
0.013365961
0.011477051
0.009929541
0.0086042112
0.0074509017
0.0064443922
0.0055670731
0.004804002
0.0041418794
0.003568682
0.003073478
0.0026463259
0.0022782319
0.0019611354
0.001687893
0.001452162
0.0012476788
0.0010671736
0.013802584
0.011425733
0.0094885361
0.008133355
0.0070003704
0.0060177786
0.005157415
0.0044056193
0.0037522447
0.0031877302
0.0027026654
0.0022878363
0.0019343839
0.0016339819
0.0013789956
0.0011625933
0.0009787836
0.00082234955
0.00068846647
0.00057225462
0.009092554
0.007579569
0.0063367313
0.0054240124
0.0046347196
0.0039363489
0.0033194341
0.0027801446
0.0023144843
0.0019170627
0.001581309
0.0012999949
0.001065762
0.00087155442
0.00071092799
0.00057822161
0.00046859969
0.00037799703
0.00030297263
0.00024050902
0.0055471163
0.0047139846
0.0040015861
0.0034291648
0.0029044381
0.0024252587
0.0019968939
0.0016231345
0.0013044662
0.0010382691
0.00081972581
0.00064283804
0.00050127922
0.00038900447
0.00030061747
0.0002315303
0.00017796675
0.00013688987
0.0001059763
8.3460961e-05
0.0032708791
0.0029109581
0.0025564591
0.0022143858
0.0018689362
0.0015389156
0.001239793
0.00098040253
0.00076384197
0.00058883942
0.00045133874
0.00034594445
0.00026699438
0.00020923096
0.00016813603
0.00014002459
0.00012198899
0.00011180035
0.00010791415
0.000109294
0.0023358253
0.0022261171
0.0020539554
0.0018273502
0.001572124
0.0013182461
0.0010862152
0.00088698575
0.00072432382
0.00059701466
0.00050098002
0.00043098391
0.00038176069
0.00034862989
0.00032773465
0.0003160492
0.0003112702
0.00031169688
0.00031620668
0.00032406283
0.0027782117
0.0026868903
0.0025227026
0.0022947323
0.0020394718
0.0017876386
0.0015590573
0.0013637684
0.0012044148
0.0010788237
0.00098235848
0.00090964702
0.0008555959
0.00081585692
0.00078694944
0.00076619382
0.00075157311
0.00074160071
0.00073522358
0.0007316369
0.097800155
0.082254625
0.067981958
0.058956748
0.051790501
0.045775313
0.040596419
0.036084006
0.032132945
0.028660611
0.025599506
0.022893748
0.02049653
0.018368283
0.016475312
0.014788756
0.013283777
0.011938129
0.010730922
0.0096500744
0.09655551
0.081128237
0.067019004
0.058097453
0.051020972
0.045082453
0.039969914
0.035516335
0.031617793
0.028192457
0.025173469
0.022505485
0.020142162
0.018044338
0.016178675
0.014516644
0.013033731
0.011708015
0.010518487
0.0094534796
0.094016705
0.078898161
0.06514207
0.056442349
0.049549652
0.043766553
0.038787783
0.034451556
0.030656671
0.027323268
0.024386049
0.021790944
0.019492677
0.017452994
0.015639349
0.014023906
0.012582816
0.011294811
0.010138947
0.0091037675
0.090228094
0.075618551
0.062405381
0.054042809
0.047423052
0.041869724
0.037088577
0.032925214
0.029282525
0.026083718
0.023265942
0.020777116
0.018573609
0.01661856
0.01488061
0.013332947
0.011952653
0.010719398
0.0096126609
0.0086208426
0.085293107
0.071382459
0.058888203
0.050969729
0.044704773
0.039449308
0.034924367
0.030984862
0.027538978
0.024513983
0.021850281
0.019498436
0.017417004
0.015570957
0.013930488
0.012470098
0.011167993
0.010005004
0.0089616232
0.0080259533
0.079352324
0.066313134
0.054693338
0.047313692
0.041475515
0.036577601
0.03236021
0.028689231
0.0254792
0.022662309
0.020182933
0.017994864
0.016059329
0.014343528
0.012819535
0.011463419
0.010254662
0.0091753639
0.008207692
0.0073398106
0.072576436
0.060558389
0.049942477
0.043180936
0.037829457
0.033338616
0.029471293
0.026105718
0.023163687
0.020583056
0.018312773
0.01631037
0.014540174
0.012971979
0.011580042
0.010342253
0.0092395183
0.0082552152
0.007373676
0.006583907
0.065160058
0.054285366
0.044772287
0.038690084
0.033871334
0.029825442
0.026340572
0.023308337
0.020658514
0.018335217
0.016292473
0.014491986
0.012901557
0.011493913
0.010245786
0.0091371518
0.008150573
0.007270775
0.0064845362
0.0057824833
0.057314686
0.047674295
0.039329463
0.033967788
0.029712553
0.026136794
0.023055734
0.020375002
0.018032909
0.015980294
0.014176658
0.01258823
0.011186605
0.0099477214
0.0088510593
0.0078789465
0.0070159202
0.0062483557
0.0055657949
0.0049605339
0.049261041
0.040913456
0.033765485
0.029143209
0.025465812
0.022371952
0.019704527
0.017383392
0.015355731
0.01357941
0.012019669
0.01064748
0.009438415
0.0083717973
0.0074300263
0.0065980294
0.0058628282
0.0052134849
0.0046432087
0.0041446461
0.0085099136
0.0073733215
0.0064097283
0.0055732969
0.0048588796
0.0042470437
0.0037209261
0.0032660605
0.0028706859
0.0025252513
0.0022220222
0.0019548022
0.0017186179
0.0015094256
0.0013238917
0.0011592331
0.0010130936
0.0008834523
0.00076855443
0.00066686087
0.00057700911
0.0004977834
0.00042809158
0.00036694706
0.00031345496
0.00026680122
0.00022624411
0.00019110749
0.00016077533
0.00013468722
0.00011233452
9.3256877e-05
7.703921e-05
6.330864e-05
5.1731732e-05
4.2011629e-05
3.3885428e-05
2.7121331e-05
2.151632e-05
1.6892922e-05
1.3098445e-05
9.9981358e-06
7.4847958e-06
5.4467325e-06
3.8395854e-06
2.5165824e-06
1.5999464e-06
7.3688984e-07
9.6884943e-07
1.6095284e-06
0.0083448951
0.0072459652
0.0063099161
0.0054946442
0.004797602
0.0041997927
0.0036845213
0.0032378672
0.0028486702
0.0025078563
0.0022080887
0.0019434986
0.0017093547
0.0015017786
0.0013175492
0.0011539591
0.0010087044
0.00087980047
0.00076551918
0.00066434179
0.00057492198
0.00049605727
0.00042666659
0.00036577278
0.00031248892
0.00026600778
0.00022559344
0.00019057469
0.0001603397
0.00013433157
0.00011204463
9.3021011e-05
7.6847683e-05
6.3153479e-05
5.160638e-05
4.1910695e-05
3.3804482e-05
2.7056732e-05
2.1465077e-05
1.6852584e-05
1.3066999e-05
9.97394e-06
7.4665121e-06
5.4332957e-06
3.8301283e-06
2.5104215e-06
1.5966858e-06
7.3494971e-07
9.6311411e-07
1.578575e-06
0.0080545345
0.0070233706
0.0061371746
0.0053607185
0.0046948819
0.0041218106
0.0036253311
0.0031926112
0.0028136825
0.0024804151
0.0021862206
0.0019258188
0.0016948995
0.0014898656
0.0013076813
0.0011457632
0.0010018909
0.00087413739
0.00076081674
0.00066044227
0.00057169318
0.00049338787
0.00042446285
0.00036395584
0.00031099257
0.00026477663
0.0002245813
0.00018974318
0.00015965702
0.00013377145
0.00011158541
9.2644889e-05
7.6540013e-05
6.2902231e-05
5.1401666e-05
4.174438e-05
3.3669866e-05
2.694829e-05
2.1378245e-05
1.6783591e-05
1.301273e-05
9.9318242e-06
7.4344428e-06
5.4095649e-06
3.8133616e-06
2.4994702e-06
1.5909749e-06
7.3152684e-07
9.5165119e-07
1.5181107e-06
0.0076566853
0.0067193082
0.0059039293
0.0051835582
0.004561475
0.0040219946
0.0035504283
0.0031357596
0.0027698688
0.0024460778
0.0021588602
0.0019037072
0.0016768402
0.0014750099
0.0012954065
0.0011355973
0.00099346475
0.0008671546
0.00075503452
0.0006556593
0.00056774132
0.00049012622
0.00042177331
0.00036173959
0.00030916716
0.00026327347
0.00022334353
0.00018872382
0.00015881738
0.00013307976
0.0001110156
9.2175621e-05
7.6153815e-05
6.2584788e-05
5.1141226e-05
4.1531281e-05
3.3496132e-05
2.6807323e-05
2.1264569e-05
1.6692652e-05
1.2940738e-05
9.8756259e-06
7.391433e-06
5.3776114e-06
3.7907327e-06
2.4847121e-06
1.5833044e-06
7.2703707e-07
9.3445339e-07
1.431231e-06
0.0071688808
0.0063477859
0.0056229517
0.0049754048
0.0044081589
0.00390892
0.0034662926
0.003072122
0.0027207954
0.002407548
0.0021281453
0.0018789275
0.0016566766
0.0014585103
0.0012818593
0.001124454
0.00098429227
0.00085960438
0.00074882205
0.00065055021
0.00056354168
0.0004866752
0.00041893754
0.00035940869
0.00030725006
0.00026169521
0.00022204267
0.00018765014
0.00015792996
0.00013234531
0.00011040712
9.1671174e-05
7.5735577e-05
6.2238244e-05
5.0854508e-05
4.1294645e-05
3.3301529e-05
2.6648069e-05
2.1135082e-05
1.6588251e-05
1.2857488e-05
9.8102161e-06
7.3410982e-06
5.3400646e-06
3.7640753e-06
2.4673886e-06
1.574276e-06
7.2201316e-07
9.1168296e-07
1.3224831e-06
0.006606076
0.0059215168
0.0053057457
0.004746204
0.0042427962
0.0037880781
0.0033764867
0.0030040777
0.0026682112
0.0023662528
0.0020953421
0.0018526555
0.0016355127
0.0014413961
0.0012679877
0.0011131954
0.00097514789
0.00085217462
0.0007427842
0.00064564219
0.00055955001
0.00048342592
0.00041628891
0.0003572455
0.00030547893
0.0002602408
0.00022084431
0.00018665924
0.00015710765
0.00013166063
0.00010983537
9.1192689e-05
7.5334621e-05
6.1902178e-05
5.0573101e-05
4.1059543e-05
3.3105833e-05
2.6486028e-05
2.1001846e-05
1.6479699e-05
1.27701e-05
9.7409755e-06
7.2874377e-06
5.2998356e-06
3.7354099e-06
2.448859e-06
1.5645203e-06
7.1702342e-07
8.8360219e-07
1.1973862e-06
0.0059828683
0.0054532139
0.0049625488
0.0045019509
0.004067947
0.003659977
0.0032806106
0.0029311911
0.0026120797
0.0023225947
0.0020611711
0.0018258008
0.0016143438
0.0014246729
0.0012547582
0.0011027208
0.00096684931
0.00084559646
0.00073756611
0.00064149834
0.00055625337
0.00048079624
0.00041418334
0.00035555117
0.0003041071
0.000259122
0.00021992456
0.00018589675
0.00015647029
0.00013112379
0.00010938026
9.0804916e-05
7.5003155e-05
6.1618467e-05
5.0330415e-05
4.0852481e-05
3.2929949e-05
2.6337578e-05
2.0877598e-05
1.6376818e-05
1.268607e-05
9.6735506e-06
7.2346294e-06
5.2599437e-06
3.70681e-06
2.4305001e-06
1.5546434e-06
7.1261448e-07
8.5056541e-07
1.0619111e-06
0.0053174634
0.0049573979
0.0046012138
0.0042417789
0.0038781883
0.0035189514
0.0031744789
0.0028509831
0.0025513853
0.0022766073
0.0020262949
0.001799344
0.0015942741
0.0014094522
0.0012432231
0.0010939889
0.00096024895
0.00084061441
0.00073380956
0.00063866627
0.00055411515
0.00047917556
0.00041294606
0.00035459588
0.00030335782
0.00025852248
0.00021943376
0.00018548522
0.00015611731
0.00013081511
0.00010910634
9.0559542e-05
7.4782358e-05
6.1419758e-05
5.0152199e-05
4.0693656e-05
3.2789627e-05
2.6214921e-05
2.0771726e-05
1.6286767e-05
1.2610803e-05
9.6119712e-06
7.1856194e-06
5.2224937e-06
3.6796812e-06
2.4132281e-06
1.5449479e-06
7.0914758e-07
8.129732e-07
9.2205207e-07
0.0046279334
0.0044402998
0.0042134482
0.003946815
0.0036530182
0.0033482715
0.0030459515
0.002754816
0.002479886
0.002223697
0.0019872554
0.0017706061
0.0015731734
0.0013940062
0.0012319605
0.0010858184
0.0009543598
0.00083640282
0.00073082482
0.00063657162
0.00055265915
0.00047817111
0.0004122548
0.00035411655
0.00030301744
0.00025826953
0.00021923288
0.00018531311
0.00015595953
0.00013066351
0.0001089571
9.041172e-05
7.4636737e-05
6.1278042e-05
5.0016426e-05
4.0565818e-05
3.267143e-05
2.6107668e-05
2.0676267e-05
1.6203518e-05
1.2539802e-05
9.5529454e-06
7.1380498e-06
5.1858443e-06
3.6528893e-06
2.3963095e-06
1.5348005e-06
7.0645627e-07
7.7141355e-07
7.8396225e-07
0.0039418533
0.0038860622
0.0037624256
0.0035829179
0.0033663362
0.0031281559
0.0028797045
0.0026304802
0.0023875974
0.0021556228
0.0019372674
0.0017340193
0.0015464779
0.001374598
0.0012179146
0.0010757145
0.00094714946
0.0008313104
0.00072727486
0.00063413619
0.00055101984
0.00047709142
0.00041155999
0.00035367872
0.0003027443
0.00025809587
0.00021911396
0.00018521951
0.00015587309
0.00013057416
0.0001088604
9.0306915e-05
7.4525372e-05
6.1162873e-05
4.9900672e-05
4.0452659e-05
3.2563684e-05
2.6007624e-05
2.0585618e-05
1.6123368e-05
1.2470734e-05
9.4950949e-06
7.0911881e-06
5.1496445e-06
3.6263126e-06
2.3796314e-06
1.5241207e-06
7.0437833e-07
7.2745942e-07
6.5412052e-07
0.0031955635
0.0032158544
0.003176238
0.003080128
0.0029451889
0.0027827093
0.00260047
0.0024069327
0.0022098988
0.0020151105
0.0018265354
0.0016469156
0.0014780116
0.0013207801
0.001175587
0.0010423934
0.00092088999
0.0008105926
0.00071091113
0.00062119798
0.00054078011
0.00046897995
0.00040512876
0.00034857517
0.00029869064
0.00025487302
0.00021654905
0.0001831761
0.00015424345
0.00012927326
0.00010782108
8.9476126e-05
7.3861166e-05
6.0632035e-05
4.947685e-05
4.0114894e-05
3.2295255e-05
2.5795155e-05
2.0418364e-05
1.5992694e-05
1.2369646e-05
9.418056e-06
7.0334823e-06
5.1081696e-06
3.5969914e-06
2.3626285e-06
1.511818e-06
7.0313304e-07
6.8167515e-07
5.3978032e-07
0.0024771547
0.0025396504
0.0025526879
0.0025160691
0.0024438411
0.0023442724
0.0022219768
0.0020834569
0.0019356826
0.0017841498
0.0016329604
0.0014852725
0.0013434135
0.0012089495
0.0010828396
0.00096559352
0.00085739045
0.00075817005
0.00066770391
0.00058564984
0.0005115911
0.00044506452
0.0003855805
0.00033263742
0.00028573204
0.00024436722
0.00020805777
0.000176335
0.00014875028
0.00012487787
0.00010431697
8.669336e-05
7.1660283e-05
5.8898972e-05
4.8118616e-05
3.9055937e-05
3.1474397e-05
2.5163035e-05
1.9935279e-05
1.5626874e-05
1.2095644e-05
9.2158935e-06
6.8867482e-06
5.0053423e-06
3.5258722e-06
2.3201507e-06
1.481682e-06
6.9604562e-07
6.2312578e-07
4.3095208e-07
0.0018591967
0.0019495662
0.0019994482
0.0020085697
0.001985511
0.0019362956
0.0018637629
0.0017725305
0.0016683271
0.0015560588
0.0014396235
0.0013222479
0.0012065293
0.0010944157
0.00098729024
0.00088608802
0.00079139165
0.00070350796
0.00062253382
0.00054841024
0.00048096415
0.00041994039
0.00036502611
0.00031586943
0.00027209385
0.00023330938
0.00019912138
0.00016913763
0.00014297404
0.00012025921
0.0001006381
8.377484e-05
6.9354787e-05
5.7085954e-05
4.6699798e-05
3.7951483e-05
3.0619692e-05
2.4505986e-05
1.9434027e-05
1.5247972e-05
1.181233e-05
9.007216e-06
6.7354631e-06
4.8995168e-06
3.4524456e-06
2.2766403e-06
1.4492973e-06
6.8988461e-07
5.5938262e-07
3.2863515e-07
0.001339812
0.0014446977
0.0015172725
0.0015581554
0.0015711629
0.0015602797
0.0015273626
0.0014754192
0.001408695
0.001331228
0.001246456
0.0011573911
0.0010666258
0.00097626085
0.00088792248
0.00080283242
0.00072187353
0.00064564657
0.00057452361
0.00050869578
0.00044821297
0.00039301605
0.00034296289
0.00029784931
0.00025742595
0.00022141192
0.00018950592
0.00016139539
0.00013676399
0.00011529787
9.6690662e-05
8.0647522e-05
6.68883e-05
5.5149868e-05
4.518774e-05
3.6777051e-05
2.971299e-05
2.3810707e-05
1.8904985e-05
1.484911e-05
1.1514859e-05
8.7886291e-06
6.5773093e-06
4.7890016e-06
3.3756637e-06
2.2309904e-06
1.4144357e-06
6.8359978e-07
4.9504753e-07
2.4087303e-07
0.00092208001
0.0010277469
0.0011099589
0.0011692783
0.0012060092
0.0012221629
0.0012188393
0.001197792
0.0011618159
0.0011139249
0.0010569183
0.00099339034
0.00092570544
0.00085590831
0.00078569112
0.00071641654
0.00064915212
0.0005847044
0.00052365551
0.0004664
0.00041317827
0.00036410552
0.00031919655
0.00027838674
0.00024154978
0.00020851248
0.00017906728
0.00015298279
0.00013001266
0.00010990305
9.2398857e-05
7.7248817e-05
6.4209643e-05
5.3049241e-05
4.354912e-05
3.5506084e-05
2.8733289e-05
2.3060722e-05
1.8335327e-05
1.4420386e-05
1.1195659e-05
8.5543895e-06
6.4079993e-06
4.6705788e-06
3.2932614e-06
2.1813881e-06
1.3762211e-06
6.7603824e-07
4.3274062e-07
1.7188124e-07
0.00060215273
0.00069756416
0.00077842113
0.00084451947
0.00089393607
0.00092694788
0.00094386489
0.00094545247
0.00093326107
0.00090926948
0.00087553879
0.00083411772
0.00078698756
0.00073597136
0.00068267205
0.00062845687
0.00057446263
0.00052160785
0.00047061111
0.00042201418
0.00037620609
0.000333446
0.00029388424
0.00025758124
0.0002245243
0.00019464227
0.00016781836
0.00014390124
0.0001227147
0.00010406592
8.775252e-05
7.356856e-05
6.1309423e-05
5.0775833e-05
4.177698e-05
3.4132877e-05
2.7676025e-05
2.2252446e-05
1.772228e-05
1.3959671e-05
1.0853103e-05
8.303233e-06
6.2265549e-06
4.5434203e-06
3.2046316e-06
2.1271353e-06
1.3345033e-06
6.6636803e-07
3.7461687e-07
1.2311819e-07
0.00036965496
0.00044803211
0.00051959966
0.00058333213
0.00063622948
0.00067732164
0.00070615345
0.00072269259
0.00072750047
0.00072162422
0.00070637593
0.00068320374
0.00065361579
0.00061909813
0.00058104283
0.00054070568
0.00049918754
0.00045742744
0.00041620426
0.00037614557
0.00033774067
0.00030135552
0.00026724811
0.00023558347
0.00020644797
0.00017986248
0.00015579442
0.00013416855
0.00011487666
9.7786162e-05
8.2747548e-05
6.9600882e-05
5.8181303e-05
4.8323609e-05
3.9865995e-05
3.2652978e-05
2.6537626e-05
2.1383109e-05
1.7063756e-05
1.3465426e-05
1.0486066e-05
8.0343274e-06
6.0323576e-06
4.4070013e-06
3.109416e-06
2.0677434e-06
1.2893667e-06
6.5383534e-07
3.2233906e-07
9.343091e-08
0.00021116035
0.00026962428
0.00032718787
0.00038230333
0.00043174786
0.00047386529
0.00050761269
0.00053235275
0.00054791492
0.00055458724
0.00055299997
0.00054401349
0.00052863887
0.00050796463
0.00048308914
0.00045506881
0.00042488212
0.00039340768
0.00036141245
0.00032954803
0.00029835279
0.00026825803
0.00023959654
0.00021261258
0.00018747233
0.00016427448
0.00014306039
0.00012382383
0.00010651993
9.1073436e-05
7.7386189e-05
6.5343705e-05
5.482097e-05
4.5687397e-05
3.7810973e-05
3.1061652e-05
2.5314041e-05
2.0449408e-05
1.6357159e-05
1.2935669e-05
1.0093074e-05
7.7465892e-06
5.8246246e-06
4.2607225e-06
3.0072407e-06
2.0028006e-06
1.2409968e-06
6.378504e-07
2.768792e-07
7.9343405e-08
0.00011262267
0.00015113029
0.00019273437
0.0002357112
0.00027712685
0.00031511214
0.00034830505
0.00037568448
0.00039659259
0.00041076093
0.00041826305
0.00041943967
0.00041483321
0.00040512811
0.00039109247
0.0003735273
0.000353226
0.00033094285
0.00030737114
0.00028312985
0.00025875656
0.00023470544
0.00021134878
0.00018898132
0.00016782622
0.00014804214
0.00012973084
0.00011294493
9.7695559e-05
8.3959736e-05
7.1687252e-05
6.0807011e-05
5.1232754e-05
4.2868108e-05
3.5610944e-05
2.9357056e-05
2.4003175e-05
1.9449352e-05
1.5600782e-05
1.2369038e-05
9.6731014e-06
7.4392803e-06
5.6028556e-06
4.1042511e-06
2.8979639e-06
1.9321865e-06
1.1897687e-06
6.1818422e-07
2.3857689e-07
7.5942568e-08
6.0787768e-05
8.1097438e-05
0.00010684036
0.00013637618
0.00016729783
0.00019784382
0.00022659531
0.00025237006
0.00027424548
0.00029159941
0.00030410408
0.00031168844
0.00031449555
0.00031284027
0.00030716532
0.00029799782
0.00028591073
0.00027149042
0.00025530991
0.00023790886
0.00021977995
0.00020136017
0.00018302632
0.00016509374
0.00014781767
0.00013139642
0.00011597589
0.00010165484
8.8490671e-05
7.6505377e-05
6.5691428e-05
5.6017439e-05
4.7433475e-05
3.98759e-05
3.3271695e-05
2.7542226e-05
2.2606434e-05
1.8383454e-05
1.479471e-05
1.1765463e-05
9.2260668e-06
7.1123799e-06
5.367108e-06
3.9377241e-06
2.7818187e-06
1.8561753e-06
1.1362599e-06
5.950331e-07
2.0728295e-07
7.808562e-08
4.4004606e-05
4.882795e-05
6.0136841e-05
7.6520998e-05
9.616083e-05
0.00011757573
0.00013948207
0.00016072168
0.00018029354
0.00019740309
0.00021147973
0.00022216746
0.00022930541
0.00023290421
0.00023311799
0.00023021303
0.00022453617
0.00021648555
0.00020648485
0.00019496116
0.00018232739
0.00016896931
0.0001552363
0.00014143565
0.00012782956
0.00011463462
0.00010202297
9.0124883e-05
7.9032327e-05
6.8803077e-05
5.9465241e-05
5.1021887e-05
4.3455599e-05
3.6732831e-05
3.080794e-05
2.5626814e-05
2.1130065e-05
1.7255736e-05
1.3941554e-05
1.1126693e-05
8.75321e-06
6.7668382e-06
5.1181666e-06
3.7618543e-06
2.6594769e-06
1.7754636e-06
1.0812263e-06
5.6899947e-07
1.8252242e-07
8.1528295e-08
5.2546705e-05
4.4921802e-05
4.3935662e-05
4.8460199e-05
5.722347e-05
6.9087193e-05
8.3008377e-05
9.7977632e-05
0.00011305309
0.0001274127
0.00014038332
0.00015144914
0.00016025027
0.00016657572
0.00017035051
0.00017161746
0.00017051566
0.00016725792
0.00016210892
0.00015536509
0.00014733664
0.00013833256
0.00012864885
0.00011855954
0.00010831052
9.8115717e-05
8.8155266e-05
7.8575391e-05
6.9489584e-05
6.0980771e-05
5.3104178e-05
4.5890643e-05
3.9350157e-05
3.3475462e-05
2.8245542e-05
2.3628912e-05
1.9586615e-05
1.6074861e-05
1.3047304e-05
1.0456912e-05
8.2575104e-06
6.40485e-06
4.8577082e-06
3.57801e-06
2.5320713e-06
1.6911289e-06
1.0255333e-06
5.4096694e-07
1.6358248e-07
8.3594897e-08
7.8600668e-05
6.1483224e-05
5.0592951e-05
4.5073898e-05
4.4113532e-05
4.6906178e-05
5.2681992e-05
6.0642915e-05
6.9991025e-05
7.997785e-05
8.993662e-05
9.9299121e-05
0.00010760553
0.00011450947
0.00011977729
0.00012328163
0.00012499025
0.00012495198
0.000123281
0.00012014093
0.00011572931
0.00011026336
0.00010396749
9.7063003e-05
8.9759857e-05
8.2250574e-05
7.470601e-05
6.7272892e-05
6.0072788e-05
5.3202309e-05
4.6734237e-05
4.071938e-05
3.5188903e-05
3.015696e-05
2.5623447e-05
2.1576746e-05
1.7996351e-05
1.4855274e-05
1.2122212e-05
9.763394e-06
7.7441565e-06
6.0301659e-06
4.5884904e-06
3.388304e-06
2.4012206e-06
1.6045803e-06
9.7010246e-07
5.1195563e-07
1.4956136e-07
8.3237411e-08
0.00011607899
9.211229e-05
7.3654885e-05
6.0081728e-05
5.0935931e-05
4.5697058e-05
4.3852373e-05
4.4827878e-05
4.8007113e-05
5.2773116e-05
5.8538082e-05
6.4761936e-05
7.0966911e-05
7.6749361e-05
8.1787232e-05
8.5842414e-05
8.8758447e-05
9.0454559e-05
9.0916994e-05
9.018852e-05
8.8357027e-05
8.5543941e-05
8.1893124e-05
7.756076e-05
7.2706625e-05
6.7486817e-05
6.2048048e-05
5.6523431e-05
5.1029688e-05
4.5665595e-05
4.051149e-05
3.5629652e-05
3.1065359e-05
2.6848428e-05
2.2995091e-05
1.9510032e-05
1.6388483e-05
1.3618257e-05
1.1181654e-05
9.0571787e-06
7.2210445e-06
5.6484385e-06
4.3145695e-06
3.1957025e-06
2.2690629e-06
1.5175075e-06
9.1587301e-07
4.829765e-07
1.3940431e-07
8.0590274e-08
0.00016035713
0.00013177158
0.00010785298
8.8156937e-05
7.2482558e-05
6.0533277e-05
5.2011842e-05
4.6548579e-05
4.3710398e-05
4.3033597e-05
4.4047874e-05
4.629243e-05
4.9330537e-05
5.276349e-05
5.6242042e-05
5.9474127e-05
6.2228795e-05
6.433676e-05
6.5687998e-05
6.622691e-05
6.594565e-05
6.4876275e-05
6.3082352e-05
6.0650524e-05
5.768254e-05
5.4288055e-05
5.0578407e-05
4.6661506e-05
4.263786e-05
3.8597715e-05
3.4619214e-05
3.0767467e-05
2.7094383e-05
2.363912e-05
2.0429002e-05
1.7480766e-05
1.4802013e-05
1.2392734e-05
1.0246852e-05
8.3536809e-06
6.6992653e-06
5.2675867e-06
4.0415548e-06
3.0041798e-06
2.1383376e-06
1.4318856e-06
8.6382653e-07
4.5495865e-07
1.3201181e-07
7.6344049e-08
0.0002079991
0.00017659542
0.00014900832
0.00012492732
0.00010432242
8.7060194e-05
7.3008649e-05
6.1966192e-05
5.3662707e-05
4.7783559e-05
4.3987115e-05
4.1916463e-05
4.1211222e-05
4.1520368e-05
4.2514247e-05
4.3894432e-05
4.5401044e-05
4.6817544e-05
4.7973015e-05
4.8742072e-05
4.9042678e-05
4.883227e-05
4.810266e-05
4.6874186e-05
4.5189519e-05
4.3107536e-05
4.0697568e-05
3.8034222e-05
3.5192963e-05
3.2246511e-05
2.9262091e-05
2.6299489e-05
2.340986e-05
2.0635185e-05
1.8008268e-05
1.5553174e-05
1.3285966e-05
1.1215665e-05
9.345321e-06
7.6731228e-06
6.1934894e-06
4.8981139e-06
3.776852e-06
2.8188868e-06
2.0124944e-06
1.350023e-06
8.1505523e-07
4.2874175e-07
1.2640677e-07
7.1246465e-08
0.00025650726
0.00022368632
0.00019389052
0.00016690528
0.00014280483
0.00012156638
0.00010317494
8.7556032e-05
7.4571433e-05
6.4035882e-05
5.5728718e-05
4.9400977e-05
4.4783394e-05
4.1596356e-05
3.95603e-05
3.8405245e-05
3.7879052e-05
3.7754178e-05
3.7832722e-05
3.7949621e-05
3.7973976e-05
3.7808677e-05
3.7388544e-05
3.6677314e-05
3.5663786e-05
3.4357466e-05
3.2784013e-05
3.0980782e-05
2.8992647e-05
2.6868295e-05
2.465707e-05
2.240644e-05
2.0160084e-05
1.7956567e-05
1.5828562e-05
1.3802527e-05
1.1898765e-05
1.0131778e-05
8.5108273e-06
7.0406301e-06
5.7221254e-06
4.5532825e-06
3.5298266e-06
2.6462877e-06
1.8958032e-06
1.2746438e-06
7.7086602e-07
4.0513402e-07
1.2191721e-07
6.5875559e-08
0.00030410955
0.0002709235
0.00024006287
0.00021138058
0.00018500641
0.0001609868
0.00013938275
0.00012020857
0.00010342455
8.8948268e-05
7.6661639e-05
6.641409e-05
5.802688e-05
5.1299695e-05
4.6018376e-05
4.1962679e-05
3.8913736e-05
3.6660933e-05
3.5007951e-05
3.3777639e-05
3.2815562e-05
3.1992155e-05
3.1203524e-05
3.037101e-05
2.9439712e-05
2.8376174e-05
2.7165499e-05
2.580812e-05
2.4316467e-05
2.2711703e-05
2.1020708e-05
1.9273406e-05
1.7500506e-05
1.5731711e-05
1.3994363e-05
1.2312532e-05
1.0706478e-05
9.1924414e-06
7.7827028e-06
6.4858382e-06
5.3071203e-06
4.2490357e-06
3.3117952e-06
2.4941897e-06
1.7934031e-06
1.2089501e-06
7.3286577e-07
3.8498629e-07
1.1827792e-07
6.0623599e-08
0.00034958619
0.0003167955
0.00028573326
0.00025629991
0.00022864742
0.00020286104
0.00017904587
0.00015727285
0.00013757026
0.00011993126
0.00010431773
9.0660642e-05
7.8861448e-05
6.8795603e-05
6.0317492e-05
5.3265844e-05
4.7469459e-05
4.2753023e-05
3.8942785e-05
3.5871749e-05
3.3384149e-05
3.1339012e-05
2.9612722e-05
2.810054e-05
2.6717136e-05
2.5396208e-05
2.4089345e-05
2.2764288e-05
2.1402789e-05
1.999823e-05
1.8553175e-05
1.7076992e-05
1.5583655e-05
1.4089803e-05
1.2613116e-05
1.1171014e-05
9.77969e-06
8.4534453e-06
7.204302e-06
6.0418482e-06
4.9732714e-06
4.0035593e-06
3.1357605e-06
2.3715972e-06
1.7112383e-06
1.1566202e-06
7.0299438e-07
3.6924953e-07
1.1561495e-07
5.5756199e-08
0.00039213199
0.00036026023
0.00032962089
0.00030014846
0.00027199583
0.00024526608
0.00022008526
0.00019655614
0.00017474976
0.00015471048
0.00013645778
0.00011998497
0.00010525848
9.2219127e-05
8.0784568e-05
7.0852443e-05
6.2304108e-05
5.5008818e-05
4.8828254e-05
4.362106e-05
3.9247216e-05
3.5571982e-05
3.2469284e-05
2.9824399e-05
2.7535874e-05
2.551667e-05
2.3694544e-05
2.2011778e-05
2.0424324e-05
1.8900531e-05
1.7419564e-05
1.5969648e-05
1.4546275e-05
1.3150459e-05
1.1787118e-05
1.0463655e-05
9.1887637e-06
7.9714713e-06
6.8204189e-06
5.7433702e-06
4.7469176e-06
3.8363806e-06
3.0158077e-06
2.2883266e-06
1.6558272e-06
1.1216973e-06
6.8346985e-07
3.5898201e-07
1.143287e-07
5.1454861e-08
0.00043124866
0.00040063092
0.00037084195
0.0003418416
0.0003137711
0.00028673784
0.00026087316
0.00023629383
0.00021309435
0.00019135041
0.00017111957
0.00015243905
0.00013532398
0.00011976701
0.00010573901
9.3190325e-05
8.2052716e-05
7.2241833e-05
6.3660279e-05
5.6200998e-05
4.9750862e-05
4.4194237e-05
3.9416398e-05
3.5306594e-05
3.1760687e-05
2.8683225e-05
2.5988945e-05
2.360367e-05
2.1464638e-05
1.9520328e-05
1.7729855e-05
1.6062039e-05
1.4494253e-05
1.3011125e-05
1.160322e-05
1.0265745e-05
8.9973537e-06
7.7990904e-06
6.6734981e-06
5.6239034e-06
4.6538799e-06
3.7668954e-06
2.9660786e-06
2.2543169e-06
1.6338209e-06
1.1083339e-06
6.7663254e-07
3.5529494e-07
1.1494161e-07
4.7832799e-08
0.00046665981
0.00043748375
0.00040881359
0.00038062913
0.00035305349
0.00032619028
0.00030016632
0.00027510044
0.00025109686
0.0002282476
0.00020663263
0.0001863174
0.0001673506
0.0001497629
0.00013356648
0.00011875498
0.00010530399
9.3172111e-05
8.2302578e-05
7.2625375e-05
6.4059737e-05
5.6516885e-05
4.9902915e-05
4.4121646e-05
3.9077347e-05
3.467718e-05
3.0833293e-05
2.7464495e-05
2.4497462e-05
2.1867487e-05
1.9518791e-05
1.7404441e-05
1.5485942e-05
1.3732566e-05
1.2120516e-05
1.0631973e-05
9.2541186e-06
7.9781705e-06
6.7984926e-06
5.7118051e-06
4.7165186e-06
3.8122151e-06
2.9992373e-06
2.2785739e-06
1.6513052e-06
1.1203609e-06
6.8467936e-07
3.5923262e-07
1.1796022e-07
4.4944845e-08
0.00049824512
0.00047058441
0.00044317531
0.00041601426
0.00038920375
0.00036283933
0.00033703785
0.00031191284
0.00028756914
0.00026410459
0.00024160993
0.00022016646
0.00019984381
0.00018069828
0.0001627717
0.00014609062
0.00013066583
0.00011649234
0.00010354983
9.1803636e-05
8.1206115e-05
7.1698423e-05
6.3212574e-05
5.5673694e-05
4.9002384e-05
4.3117045e-05
3.7936101e-05
3.3379994e-05
2.9372905e-05
2.5844131e-05
2.2729109e-05
1.9970071e-05
1.7516354e-05
1.5324402e-05
1.3357509e-05
1.1585358e-05
9.9834112e-06
8.532224e-06
7.2167157e-06
6.0254602e-06
4.9500229e-06
3.9843865e-06
3.1244451e-06
2.3677445e-06
1.7128377e-06
1.1606765e-06
7.0929176e-07
3.7159245e-07
1.2376881e-07
4.2800874e-08
0.00052598377
0.00049982463
0.00047371965
0.00044768
0.0004217874
0.0003961277
0.00037080525
0.00034592439
0.00032158506
0.00029788412
0.00027491504
0.00025276604
0.00023151792
0.00021124248
0.00019200106
0.00017384337
0.00015680643
0.00014091386
0.00012617553
0.00011258758
0.00010013293
8.8782045e-05
7.8494144e-05
6.9218703e-05
6.089719e-05
5.3464949e-05
4.6853182e-05
4.0990893e-05
3.5806747e-05
3.1230752e-05
2.7195717e-05
2.3638432e-05
2.0500573e-05
1.7729301e-05
1.5277589e-05
1.3104303e-05
1.1174063e-05
9.4569435e-06
7.9280498e-06
6.5670227e-06
5.3575106e-06
4.2866564e-06
3.3445974e-06
2.5241435e-06
1.8200991e-06
1.2303764e-06
7.5111517e-07
3.9266442e-07
1.3252952e-07
4.1376398e-08
0.00054991713
0.00052517897
0.00050034373
0.00047543642
0.00045051919
0.00042566799
0.0004009743
0.00037653166
0.00035243235
0.00032876827
0.00030563067
0.00028310862
0.00026128723
0.00024024615
0.00022005817
0.00020078791
0.00018249047
0.00016521042
0.00014898088
0.00013382298
0.00011974556
0.00010674528
9.4806987e-05
8.3904478e-05
7.400152e-05
6.5053159e-05
5.7007219e-05
4.9805936e-05
4.338766e-05
3.768854e-05
3.2644137e-05
2.8190892e-05
2.4267416e-05
2.0815551e-05
1.7781197e-05
1.5114895e-05
1.2772186e-05
1.0713748e-05
8.9053653e-06
7.3177462e-06
5.9262415e-06
4.7104999e-06
3.6540696e-06
2.7441139e-06
1.9707551e-06
1.3280164e-06
8.0932462e-07
4.2202194e-07
1.4412779e-07
4.0620765e-08
0.00057009228
0.00054664196
0.00052298049
0.00049914631
0.00047518385
0.00045116004
0.00042715432
0.00040324946
0.00037952915
0.00035607854
0.00033298394
0.00031033174
0.00028820686
0.00026669163
0.00024586437