/*--------------------------------*- C++ -*----------------------------------*\
  =========                 |
  \\      /  F ield         | OpenFOAM: The Open Source CFD Toolbox
   \\    /   O peration     | Website:  https://openfoam.org
    \\  /    A nd           | Version:  6
     \\/     M anipulation  |
\*---------------------------------------------------------------------------*/
FoamFile
{
    version     2.0;
    format      ascii;
    class       volScalarField;
    location    "40";
    object      p;
}
// * * * * * * * * * * * * * * * * * * * * * * * * * * * * * * * * * * * * * //

dimensions      [0 2 -2 0 0 0 0];

internalField   nonuniform List<scalar> 
9200
(
-0.3917929
-0.38036214
-0.37019649
-0.36118626
-0.3523887
-0.343817
-0.33554915
-0.32755124
-0.31975421
-0.31208431
-0.30446675
-0.29683081
-0.28911685
-0.28128377
-0.27331956
-0.26525923
-0.25717957
-0.24916949
-0.24224779
-0.24068244
-0.409763
-0.39587111
-0.38375449
-0.37321897
-0.3630441
-0.35321014
-0.34378512
-0.33470386
-0.32586464
-0.31716696
-0.30851568
-0.29982698
-0.29103605
-0.28210315
-0.27301925
-0.2638099
-0.2545064
-0.24511046
-0.23630059
-0.2302324
-0.42814776
-0.41177351
-0.39775352
-0.3857644
-0.37426804
-0.3631934
-0.35258665
-0.34234366
-0.33232819
-0.32241717
-0.31250461
-0.30250739
-0.29237214
-0.28207836
-0.27163817
-0.26109185
-0.2504803
-0.23981479
-0.22949262
-0.22062376
-0.44650893
-0.42767325
-0.41181672
-0.3984362
-0.38563815
-0.37328373
-0.36138947
-0.34981192
-0.33838866
-0.32698995
-0.31552026
-0.30392144
-0.29217572
-0.28030342
-0.26835597
-0.25640553
-0.24452108
-0.23274371
-0.2213404
-0.21105052
-0.46421104
-0.4430192
-0.42544432
-0.41074964
-0.39665847
-0.38295345
-0.36962152
-0.35649111
-0.34339468
-0.33022354
-0.31692292
-0.30348816
-0.28996034
-0.27641601
-0.26295347
-0.24967821
-0.2366825
-0.22402648
-0.21189853
-0.20080624
-0.48042315
-0.45708635
-0.43797012
-0.4220504
-0.40665785
-0.39149694
-0.37653801
-0.36160756
-0.34656785
-0.33136815
-0.31602763
-0.30061991
-0.28525831
-0.2700773
-0.25521391
-0.2407924
-0.22690895
-0.21362023
-0.20105244
-0.18954322
-0.49413323
-0.4689818
-0.44856277
-0.43151743
-0.41480122
-0.39805686
-0.38126653
-0.36429635
-0.34708348
-0.32967491
-0.31219196
-0.29480006
-0.27768336
-0.26102084
-0.24496734
-0.22964223
-0.21512187
-0.20143732
-0.18865538
-0.17697802
-0.50417063
-0.47766871
-0.45625872
-0.43821053
-0.42015496
-0.40170767
-0.38290616
-0.36370911
-0.34417742
-0.3244908
-0.30488978
-0.28563062
-0.26695308
-0.24905676
-0.23208798
-0.21613712
-0.20124115
-0.18739123
-0.17459585
-0.16294252
-0.50918645
-0.48186472
-0.45976424
-0.44078574
-0.42133519
-0.4010642
-0.38012639
-0.35863066
-0.33680128
-0.31496582
-0.29347677
-0.27265791
-0.25277326
-0.23401138
-0.21648362
-0.2002328
-0.18524592
-0.17147023
-0.15885986
-0.14740413
-0.50782502
-0.48014656
-0.45752431
-0.43757005
-0.4166132
-0.39442591
-0.3713438
-0.34767186
-0.32381092
-0.30021875
-0.27732168
-0.2554649
-0.23489351
-0.21575196
-0.19809639
-0.18191367
-0.16714153
-0.1536892
-0.14146376
-0.13036883
-0.27806706
-0.28277271
-0.28529453
-0.28604475
-0.28582138
-0.28481262
-0.28310028
-0.28077225
-0.27790092
-0.27454109
-0.27073678
-0.26652548
-0.26194026
-0.25701116
-0.25176642
-0.24623496
-0.24044778
-0.23442545
-0.22816673
-0.22175809
-0.28082572
-0.28511149
-0.28732352
-0.28785324
-0.28744552
-0.28627965
-0.28443552
-0.28199726
-0.27903365
-0.27559661
-0.27172775
-0.2674624
-0.26283174
-0.25786379
-0.25258416
-0.24702073
-0.24121208
-0.23517711
-0.22880687
-0.22207435
-0.28620482
-0.2896698
-0.29127806
-0.29137654
-0.29060739
-0.28913423
-0.28703336
-0.28438156
-0.28124056
-0.27765662
-0.27366646
-0.26930119
-0.26458815
-0.25955149
-0.25421192
-0.24859443
-0.24274909
-0.23669378
-0.23012552
-0.2227816
-0.29396024
-0.29625088
-0.29698558
-0.29645029
-0.2951445
-0.29321198
-0.29072499
-0.28775029
-0.28433988
-0.28053207
-0.27635665
-0.27183858
-0.26699963
-0.26185818
-0.25642812
-0.25072915
-0.24482326
-0.23873317
-0.23190787
-0.22370956
-0.30378468
-0.30460785
-0.30423139
-0.30287248
-0.30085994
-0.29831649
-0.29531111
-0.29189916
-0.28812112
-0.28400595
-0.27957509
-0.27484512
-0.26983024
-0.26454184
-0.25898563
-0.25317282
-0.24717319
-0.24102291
-0.23391163
-0.22468127
-0.31535954
-0.31448493
-0.31279511
-0.31043958
-0.30755967
-0.30425848
-0.300604
-0.29664046
-0.2923962
-0.28788837
-0.28312753
-0.27812088
-0.27287369
-0.26738882
-0.26166276
-0.25569528
-0.24955582
-0.2433001
-0.23588826
-0.22552231
-0.3284022
-0.3256543
-0.32248391
-0.31898017
-0.31508845
-0.3108955
-0.30647222
-0.3018513
-0.29704618
-0.29206144
-0.28689595
-0.2815455
-0.27600456
-0.27026631
-0.26431799
-0.25814749
-0.25181666
-0.2454038
-0.23770424
-0.22621485
-0.34269439
-0.33793924
-0.33315479
-0.32837975
-0.32335954
-0.3181675
-0.31287778
-0.30751071
-0.30206484
-0.29653007
-0.2908907
-0.28512797
-0.27922249
-0.27315507
-0.2669031
-0.26044538
-0.25384075
-0.24721331
-0.23931399
-0.22693486
-0.35808198
-0.35120653
-0.34469682
-0.33855151
-0.33230872
-0.3260271
-0.31978592
-0.31359263
-0.30742787
-0.30126366
-0.29506604
-0.28879751
-0.28241922
-0.2758914
-0.26916875
-0.26220255
-0.25501596
-0.24771533
-0.23905022
-0.22551451
-0.37446583
-0.36534796
-0.35699732
-0.3493774
-0.34180567
-0.3343258
-0.32702202
-0.31988648
-0.31287939
-0.30595313
-0.29905517
-0.29213094
-0.28512682
-0.27799028
-0.27066465
-0.26308497
-0.25519371
-0.24678509
-0.23621502
-0.22044467
-0.21448774
-0.20538493
-0.19626974
-0.18720797
-0.17814514
-0.16912329
-0.16019707
-0.15140239
-0.14276925
-0.13432703
-0.12610228
-0.11811791
-0.11039365
-0.10294645
-0.095790355
-0.088936639
-0.082393869
-0.076168009
-0.070262508
-0.064678403
-0.059414434
-0.054467174
-0.049831181
-0.045499151
-0.041462094
-0.037709514
-0.0342296
-0.031009417
-0.028035102
-0.025292057
-0.02276514
-0.020438862
-0.018297574
-0.016325667
-0.014507785
-0.012829048
-0.011275324
-0.0098335014
-0.0084920332
-0.0072409347
-0.0060742324
-0.0049852798
-0.0039863534
-0.0030536591
-0.0023060829
-0.0014768151
-0.0015143334
0.00010138768
-0.0043728221
0.006847109
-0.21552949
-0.20602428
-0.19679931
-0.1877533
-0.17867296
-0.16962104
-0.16067058
-0.15185382
-0.14319823
-0.13473373
-0.12648721
-0.11848142
-0.11073612
-0.1032683
-0.0960921
-0.089218856
-0.082657202
-0.076413168
-0.070490258
-0.064889557
-0.059609839
-0.054647707
-0.049997732
-0.045652616
-0.041603367
-0.03783948
-0.034349126
-0.031119347
-0.028136251
-0.025385205
-0.022851033
-0.020518202
-0.018371021
-0.016393835
-0.01457124
-0.012888303
-0.011330842
-0.009885688
-0.0085412334
-0.0072874252
-0.0061182119
-0.0050268561
-0.0040255081
-0.0030903146
-0.0023396533
-0.0015077027
-0.0015379148
7.5033261e-05
-0.0043567563
0.0067794326
-0.21770974
-0.20734338
-0.1978996
-0.18892589
-0.17982348
-0.17071127
-0.16171375
-0.15285353
-0.14415123
-0.13563901
-0.12734501
-0.11929189
-0.11149952
-0.10398524
-0.096763492
-0.089845838
-0.083241134
-0.076955609
-0.070992932
-0.065354318
-0.060038645
-0.055042585
-0.050360755
-0.045985874
-0.041908946
-0.03811944
-0.034605484
-0.031354063
-0.028351212
-0.025582218
-0.023031812
-0.020684362
-0.018524072
-0.016535177
-0.014702158
-0.013009965
-0.011444293
-0.0099918466
-0.0086408825
-0.0073811975
-0.0062065746
-0.0051100812
-0.0041036158
-0.0031631735
-0.0024061722
-0.0015686291
-0.0015842239
2.3357547e-05
-0.0043238373
0.0066450919
-0.22086024
-0.20910148
-0.19933496
-0.19056717
-0.18147871
-0.17229078
-0.16324039
-0.15433256
-0.14557214
-0.13699648
-0.12863756
-0.1205181
-0.11265826
-0.10507626
-0.097787272
-0.0908034
-0.084133982
-0.077785673
-0.071762498
-0.066065958
-0.060695151
-0.055646917
-0.05091598
-0.046495127
-0.042375381
-0.038546196
-0.034995652
-0.031710657
-0.028677147
-0.025880289
-0.023304678
-0.020934533
-0.018753895
-0.016746832
-0.014897647
-0.01319111
-0.011612727
-0.010149008
-0.0087880049
-0.0075192865
-0.0063363864
-0.0052320784
-0.0042178844
-0.0032695691
-0.0025031128
-0.0016572824
-0.0016511434
-5.180714e-05
-0.0042732578
0.0064468187
-0.2247416
-0.21101771
-0.20082591
-0.19246922
-0.18348271
-0.17422282
-0.16513159
-0.15619365
-0.14738156
-0.13873989
-0.13030939
-0.12211393
-0.1141741
-0.10650961
-0.099137064
-0.092069628
-0.085317516
-0.078888152
-0.072786211
-0.067013723
-0.061570205
-0.056452818
-0.051656524
-0.047174268
-0.042997161
-0.039114685
-0.035514895
-0.032184632
-0.029109722
-0.026275192
-0.023665469
-0.021264584
-0.019056371
-0.017024676
-0.015153571
-0.013427586
-0.011831979
-0.010353002
-0.0089784362
-0.0076975529
-0.0065035595
-0.0053888451
-0.0043644342
-0.0034057927
-0.0026269769
-0.0017704315
-0.0017358212
-0.00014773167
-0.0042045236
0.0061890718
-0.2289908
-0.21280177
-0.20209395
-0.1943875
-0.1856521
-0.1763539
-0.16724545
-0.15831313
-0.1494775
-0.14078442
-0.13228866
-0.12401875
-0.11599626
-0.10824281
-0.10077727
-0.093614668
-0.086766661
-0.080241921
-0.074046191
-0.068182381
-0.062650725
-0.057448946
-0.052572439
-0.048014459
-0.043766326
-0.039817638
-0.036156487
-0.032769678
-0.029642948
-0.026761183
-0.024108628
-0.021669097
-0.019426183
-0.017363469
-0.015464747
-0.013714255
-0.012096949
-0.010598765
-0.0092071576
-0.0079110359
-0.0067032128
-0.0055756123
-0.004538647
-0.00356743
-0.0027736002
-0.0019042263
-0.0018348825
-0.00026114462
-0.0041173034
0.0058776408
-0.23319418
-0.2142653
-0.20292183
-0.19603452
-0.18777543
-0.17854737
-0.16945785
-0.16056981
-0.15175525
-0.1430437
-0.13450237
-0.1261698
-0.11807101
-0.11022997
-0.10266856
-0.095404612
-0.088452059
-0.08182144
-0.075520095
-0.069552275
-0.063919306
-0.05861979
-0.053649807
-0.049003131
-0.044671447
-0.040644592
-0.036910782
-0.033456848
-0.030268471
-0.027330413
-0.024626735
-0.02214102
-0.019856595
-0.017756743
-0.015824935
-0.014045072
-0.012401759
-0.010880569
-0.0094685757
-0.0081542741
-0.0069300239
-0.0057872162
-0.0047355446
-0.0037497385
-0.0029385144
-0.0020545543
-0.0019447345
-0.00038860566
-0.0040114697
0.0055192208
-0.23707363
-0.21579965
-0.20353509
-0.1972204
-0.18963248
-0.18070962
-0.17171957
-0.16290181
-0.15414689
-0.14545605
-0.13689526
-0.12851581
-0.1203506
-0.11242719
-0.10477084
-0.097402961
-0.090340572
-0.083596711
-0.077180825
-0.07109895
-0.06535389
-0.059945445
-0.054870646
-0.050124004
-0.045697749
-0.041582092
-0.03776548
-0.034234848
-0.030975874
-0.027973223
-0.025210787
-0.022671918
-0.020339658
-0.018196967
-0.016226966
-0.01441318
-0.012739824
-0.011192066
-0.0097565574
-0.0084213372
-0.007178265
-0.0060181476
-0.0049498621
-0.0039477517
-0.0031170887
-0.002217217
-0.0020617689
-0.00052675862
-0.0038871693
0.0051212126
-0.23826291
-0.21762706
-0.20461639
-0.19787439
-0.19077996
-0.18244996
-0.17374655
-0.16506616
-0.15642582
-0.14781913
-0.13929452
-0.13091099
-0.12271261
-0.11473288
-0.10700105
-0.099542703
-0.092378782
-0.085525674
-0.078995672
-0.072797268
-0.066935359
-0.061411488
-0.056224115
-0.051368894
-0.046838948
-0.042625151
-0.038716414
-0.035099963
-0.031761616
-0.028686049
-0.02585706
-0.023257813
-0.020871093
-0.018679545
-0.016665928
-0.014813375
-0.013105683
-0.011527584
-0.010065277
-0.0087063068
-0.007441999
-0.0062625348
-0.0051758906
-0.004156018
-0.0033042642
-0.0023875337
-0.0021822449
-0.00067139593
-0.0037456579
0.0046931495
-0.22831833
-0.21680888
-0.20569189
-0.19749537
-0.19032227
-0.18277988
-0.17469628
-0.16639401
-0.1580527
-0.14969878
-0.14136064
-0.13309673
-0.12496355
-0.11700492
-0.10925747
-0.10175352
-0.0945204
-0.087580122
-0.080949791
-0.074642029
-0.068665248
-0.063023943
-0.057719011
-0.052748086
-0.048105868
-0.043784449
-0.039773647
-0.036061323
-0.032633703
-0.029475671
-0.026571072
-0.023902981
-0.021453985
-0.019206441
-0.017142756
-0.015245656
-0.013498499
-0.011885545
-0.010392506
-0.0090063937
-0.0077179606
-0.0065167103
-0.0054096583
-0.0043702983
-0.0034957808
-0.0025608729
-0.0023027725
-0.00081596909
-0.0035913307
0.0042484104
-0.20618936
-0.21069608
-0.2052985
-0.19630224
-0.18869364
-0.18156527
-0.17393508
-0.16593985
-0.15784552
-0.14971572
-0.14157072
-0.1334643
-0.12545668
-0.11759608
-0.10992233
-0.1024707
-0.095271523
-0.088349628
-0.081724686
-0.075411625
-0.069420928
-0.063758928
-0.058428136
-0.053427586
-0.048753184
-0.044398048
-0.040352855
-0.036606177
-0.033144814
-0.029954105
-0.027018239
-0.024320543
-0.021843767
-0.019570365
-0.017482772
-0.01556369
-0.013796409
-0.012165081
-0.010655262
-0.0092537713
-0.0079510284
-0.0067362841
-0.0056154402
-0.0045627999
-0.0036689701
-0.002722704
-0.0024091023
-0.00095898683
-0.0034241501
0.0038089418
-0.1954531
-0.20105291
-0.19746612
-0.18866236
-0.18136943
-0.17500407
-0.16818755
-0.16092019
-0.15349676
-0.14599268
-0.13841855
-0.13082372
-0.12327077
-0.11581152
-0.10848934
-0.10134327
-0.094407657
-0.087711353
-0.081277873
-0.0751258
-0.069269066
-0.063717214
-0.058475725
-0.053546362
-0.048927519
-0.044614575
-0.040600245
-0.036874927
-0.033427048
-0.030243386
-0.027309393
-0.024609498
-0.022127405
-0.019846379
-0.017749549
-0.015820196
-0.014042087
-0.012399764
-0.010879062
-0.009467033
-0.0081540467
-0.0069296052
-0.0057982172
-0.0047365069
-0.0038251052
-0.0028752247
-0.0024985032
-0.0011122998
-0.0032104774
0.0033360794
-0.18650424
-0.18950685
-0.18711956
-0.18005544
-0.17363096
-0.16797096
-0.16193271
-0.1554081
-0.14866149
-0.14178807
-0.13480057
-0.12774212
-0.12067394
-0.11364962
-0.10671457
-0.099910142
-0.093273568
-0.08683688
-0.08062688
-0.074665443
-0.068969733
-0.063552423
-0.058421975
-0.053582958
-0.049036387
-0.044780062
-0.040808917
-0.037115371
-0.03368967
-0.030520225
-0.027593936
-0.024896506
-0.022412751
-0.020126902
-0.018022909
-0.016084755
-0.01429679
-0.012644038
-0.011112697
-0.0096901273
-0.00836669
-0.007132231
-0.0059897284
-0.0049185247
-0.0039879795
-0.0030349184
-0.0025879772
-0.0012756581
-0.0029640873
0.0028164568
-0.17659454
-0.17701105
-0.17507269
-0.17009306
-0.16491236
-0.16000692
-0.15477095
-0.14906981
-0.14307816
-0.13689697
-0.13055462
-0.12409214
-0.11756713
-0.11103374
-0.10453913
-0.098126618
-0.091835861
-0.085701813
-0.079754446
-0.074018908
-0.068515672
-0.063260682
-0.058265574
-0.053537958
-0.049081721
-0.044897349
-0.040982267
-0.037331175
-0.033936397
-0.030788217
-0.027875208
-0.025184558
-0.022702386
-0.020414057
-0.018304501
-0.016358535
-0.01456121
-0.012898135
-0.011355958
-0.0099224219
-0.0085879341
-0.0073427312
-0.0061882506
-0.0051066053
-0.0041555372
-0.0031981303
-0.002677254
-0.0014395561
-0.0027008995
0.002272737
-0.16577144
-0.164347
-0.16244167
-0.15917823
-0.15529973
-0.15120998
-0.14678093
-0.1419347
-0.13675112
-0.13131249
-0.12566377
-0.1198487
-0.11392034
-0.10793131
-0.1019296
-0.09595976
-0.09006314
-0.084277035
-0.078634199
-0.073162827
-0.067886597
-0.062824729
-0.057992129
-0.053399607
-0.049054133
-0.044959121
-0.041114744
-0.037518257
-0.034164331
-0.031045383
-0.028151915
-0.025472834
-0.022995783
-0.020707465
-0.018593967
-0.016641104
-0.01483477
-0.013161283
-0.011607845
-0.010162668
-0.0088162864
-0.0075593636
-0.0063918671
-0.0052985633
-0.004325752
-0.0033620897
-0.0027656342
-0.0015988712
-0.0024317829
0.001722666
-0.15373016
-0.15155405
-0.14977812
-0.14778765
-0.14508474
-0.14184021
-0.13820694
-0.1341938
-0.1298209
-0.12514232
-0.12020929
-0.11506818
-0.10976835
-0.10435961
-0.098889269
-0.093401965
-0.087939684
-0.082541087
-0.077240944
-0.072069907
-0.067054421
-0.062216692
-0.057574731
-0.053142489
-0.048930043
-0.044943831
-0.041186919
-0.037659295
-0.034358179
-0.031278342
-0.028412433
-0.0257513
-0.023284323
-0.02099974
-0.018884989
-0.016927051
-0.015112818
-0.013429453
-0.011864831
-0.010407729
-0.0090489068
-0.007779488
-0.006598108
-0.0054919567
-0.0044964953
-0.0035242464
-0.0028525543
-0.0017496256
-0.0021677902
0.0011839069
-0.14079746
-0.13878075
-0.13736655
-0.13628696
-0.13455001
-0.13212218
-0.12925656
-0.12602894
-0.12243521
-0.1185037
-0.11428447
-0.10982369
-0.10516546
-0.100356
-0.0954409
-0.090463772
-0.085466055
-0.080486661
-0.075561399
-0.070722565
-0.065998705
-0.061414482
-0.056990624
-0.052743955
-0.048687503
-0.044830658
-0.041179387
-0.037736476
-0.034501807
-0.031472648
-0.028643961
-0.026008716
-0.023558214
-0.021282417
-0.019170289
-0.017210146
-0.015390037
-0.013698105
-0.012123026
-0.010654244
-0.0092828479
-0.0080004566
-0.006804565
-0.0056844698
-0.0046657836
-0.0036823027
-0.0029377173
-0.0018884127
-0.0019205174
0.00067458244
-0.12769237
-0.12627443
-0.12535928
-0.12493568
-0.12395591
-0.12226852
-0.12011963
-0.11761491
-0.1147472
-0.11152739
-0.10799762
-0.10420262
-0.10018159
-0.095974516
-0.091623969
-0.087171714
-0.082657687
-0.078119925
-0.073594206
-0.069113528
-0.064707722
-0.060403214
-0.056222873
-0.052185951
-0.048308092
-0.044601411
-0.041074638
-0.037733296
-0.034579932
-0.031614365
-0.028833966
-0.026233948
-0.023807677
-0.021546992
-0.019442539
-0.017484132
-0.015661117
-0.01396276
-0.012378658
-0.010899023
-0.0095153912
-0.008219903
-0.0070091452
-0.0058741581
-0.0048319882
-0.0038344984
-0.0030211262
-0.0020130023
-0.0017006632
0.00021140278
-0.11495507
-0.11421388
-0.11382168
-0.11389339
-0.11350329
-0.11245708
-0.11095455
-0.10910183
-0.10689526
-0.10433641
-0.10145752
-0.098297871
-0.094892941
-0.091277205
-0.08748761
-0.08356285
-0.079540666
-0.075457347
-0.071347621
-0.067244218
-0.063177381
-0.059174514
-0.055259943
-0.051454767
-0.047776776
-0.044240442
-0.040856984
-0.037634479
-0.034578027
-0.031689955
-0.028970052
-0.026415826
-0.024022793
-0.021784777
-0.019694234
-0.0177426
-0.015920658
-0.014218916
-0.012628014
-0.011139029
-0.0097440507
-0.0084357778
-0.0072101378
-0.0060595509
-0.0049939484
-0.0039797842
-0.003103091
-0.0021226808
-0.0015167452
-0.00019222851
-0.10286766
-0.10271808
-0.1027988
-0.10325965
-0.10333246
-0.10282405
-0.10188589
-0.10060983
-0.098994469
-0.097036763
-0.094759824
-0.092195762
-0.089374805
-0.086326812
-0.083083535
-0.07967871
-0.076146882
-0.072521925
-0.068836709
-0.065122803
-0.061410002
-0.057725889
-0.054095523
-0.050541199
-0.047082293
-0.043735165
-0.040513146
-0.037426573
-0.034482891
-0.031686793
-0.029040408
-0.026543516
-0.024193803
-0.021987132
-0.019917847
-0.017979107
-0.016163234
-0.014462088
-0.012867452
-0.011371357
-0.0099665536
-0.0086463298
-0.0074062053
-0.0062396545
-0.0051509903
-0.004117846
-0.0031841776
-0.0022182266
-0.001374184
-0.0005276232
-0.091568016
-0.091877745
-0.092343678
-0.093108205
-0.093543116
-0.093474027
-0.093014056
-0.092236856
-0.091140583
-0.08971932
-0.087988509
-0.085972809
-0.083696594
-0.081184496
-0.078463387
-0.075562165
-0.072510983
-0.069340494
-0.066081057
-0.062762338
-0.059412894
-0.056059728
-0.052727901
-0.04944024
-0.046217098
-0.043076197
-0.040032525
-0.037098311
-0.034283044
-0.031593565
-0.029034183
-0.026606855
-0.024311387
-0.02214568
-0.020105996
-0.018187271
-0.01638344
-0.014687795
-0.013093348
-0.011593161
-0.010180737
-0.0088499898
-0.0075962684
-0.0064138401
-0.0053028331
-0.0042489868
-0.0032650861
-0.0023016264
-0.0012748099
-0.00079159451
-0.081115118
-0.081755106
-0.082509135
-0.083499212
-0.084210081
-0.084489722
-0.084422887
-0.084066411
-0.08341633
-0.082464331
-0.081219504
-0.07969952
-0.077922817
-0.075908645
-0.073678732
-0.071257179
-0.068669633
-0.065942767
-0.063103778
-0.060179808
-0.057197502
-0.054182573
-0.051159401
-0.048150677
-0.045177119
-0.042257243
-0.039407201
-0.036640679
-0.033968854
-0.031400419
-0.028941643
-0.026596492
-0.024366784
-0.022252393
-0.02025148
-0.018360768
-0.016575842
-0.014891476
-0.013301976
-0.011801495
-0.010384366
-0.0090451704
-0.0077792999
-0.006581631
-0.0054493965
-0.004373886
-0.0033464706
-0.0023755988
-0.001216895
-0.00098645777
-0.071520022
-0.072382562
-0.073335384
-0.074479501
-0.075390435
-0.075937076
-0.076183069
-0.076171329
-0.07589543
-0.075344928
-0.074523668
-0.073443137
-0.07211615
-0.070556737
-0.068781487
-0.066809608
-0.064662198
-0.062361724
-0.059931695
-0.057396194
-0.054779383
-0.052105073
-0.049396319
-0.046675051
-0.04396174
-0.041275125
-0.038631991
-0.036047014
-0.033532651
-0.031099098
-0.0287543
-0.026504006
-0.024351881
-0.022299653
-0.02034731
-0.018493325
-0.016734931
-0.015068404
-0.013489381
-0.011993152
-0.010574946
-0.0092300542
-0.0079540962
-0.0067424542
-0.0055905604
-0.0044932934
-0.0034287398
-0.0024430279
-0.0011957061
-0.0011192348
-0.062767296
-0.063767903
-0.064844635
-0.066080497
-0.067125446
-0.067866931
-0.068352555
-0.06861418
-0.068643342
-0.068427927
-0.067967542
-0.067268442
-0.066338418
-0.065186677
-0.063824962
-0.062267674
-0.060531367
-0.058634256
-0.056595916
-0.054436976
-0.052178662
-0.049842372
-0.047449283
-0.045019978
-0.042574103
-0.040130053
-0.037704715
-0.035313255
-0.032968966
-0.030683157
-0.028465112
-0.026322089
-0.024259375
-0.022280384
-0.020386803
-0.018578782
-0.016855152
-0.01521368
-0.013651345
-0.012164599
-0.01074962
-0.0094024532
-0.0081191069
-0.0068954344
-0.0057259477
-0.0046077343
-0.003511889
-0.0025064389
-0.0012044517
-0.0012002237
-0.054825602
-0.055899748
-0.05704092
-0.058317327
-0.059440793
-0.060315207
-0.060975899
-0.061446146
-0.061716143
-0.061772723
-0.061612256
-0.061236764
-0.060649791
-0.059856311
-0.058863698
-0.057681897
-0.056323071
-0.054801246
-0.053132046
-0.051332441
-0.049420408
-0.047414547
-0.045333702
-0.043196611
-0.041021565
-0.038826083
-0.036626625
-0.034438351
-0.032274917
-0.030148324
-0.028068819
-0.026044846
-0.02408304
-0.022188282
-0.020363792
-0.018611264
-0.016931044
-0.015322341
-0.013783457
-0.012312015
-0.010905176
-0.0095597851
-0.0082723736
-0.0070392873
-0.0058547915
-0.0047172999
-0.0035954115
-0.0025676282
-0.0012354208
-0.001241242
-0.0476531
-0.048752814
-0.049913178
-0.051190279
-0.052347558
-0.053303497
-0.054084135
-0.054706211
-0.055159291
-0.055429811
-0.055511866
-0.05540424
-0.055107084
-0.05462186
-0.053952185
-0.053104058
-0.052085625
-0.050906943
-0.049579796
-0.048117495
-0.046534628
-0.044846747
-0.043070041
-0.041221007
-0.039316132
-0.037371581
-0.035402899
-0.03342475
-0.031450685
-0.029492955
-0.027562368
-0.025668189
-0.023818092
-0.022018159
-0.020272921
-0.018585449
-0.016957477
-0.01538957
-0.0138813
-0.012431448
-0.011038175
-0.0096991666
-0.0084115867
-0.0071723314
-0.0059759086
-0.0048215602
-0.0036783081
-0.0026275035
-0.0012810642
-0.0012539148
-0.041202004
-0.042292874
-0.043439403
-0.044687721
-0.045844311
-0.046840569
-0.047695601
-0.048421273
-0.049007134
-0.049439818
-0.049712011
-0.049820199
-0.049761993
-0.049536108
-0.049143105
-0.048585648
-0.047868379
-0.04699777
-0.045982027
-0.04483096
-0.043555794
-0.042168949
-0.040683768
-0.039114238
-0.037474702
-0.035779576
-0.034043058
-0.032278871
-0.030500009
-0.028718536
-0.026945402
-0.025190313
-0.023461633
-0.021766342
-0.020110025
-0.018496915
-0.016929968
-0.015410976
-0.013940704
-0.012519044
-0.011145155
-0.0098175861
-0.0085342249
-0.0072925906
-0.0060877691
-0.004919595
-0.0037591843
-0.0026861258
-0.0013348091
-0.0012483437
-0.035422017
-0.036480496
-0.037590246
-0.038789187
-0.039919669
-0.040924431
-0.041817457
-0.042607058
-0.043283235
-0.043833293
-0.044249246
-0.044526101
-0.044659723
-0.044646831
-0.044485645
-0.044176162
-0.043720105
-0.043120864
-0.042383461
-0.041514488
-0.040521997
-0.039415335
-0.03820496
-0.036902212
-0.035519074
-0.034067918
-0.032561256
-0.031011481
-0.02943063
-0.027830161
-0.026220763
-0.024612189
-0.023013133
-0.02143114
-0.019872559
-0.018342534
-0.016845037
-0.015382925
-0.01395804
-0.012571309
-0.011222859
-0.0099121116
-0.008637736
-0.0073979466
-0.0061886209
-0.0050101082
-0.0038363971
-0.0027428909
-0.0013914891
-0.0012323519
-0.03026264
-0.031273716
-0.032331849
-0.03346815
-0.034554859
-0.035544596
-0.036447583
-0.03726957
-0.038001333
-0.038631184
-0.039151037
-0.039555106
-0.039838193
-0.039995699
-0.040024186
-0.03992164
-0.039687489
-0.039322594
-0.038829275
-0.038211302
-0.037473851
-0.036623403
-0.035667624
-0.034615207
-0.033475681
-0.032259208
-0.030976366
-0.029637924
-0.02825462
-0.026836946
-0.02539495
-0.023938058
-0.022474928
-0.02101333
-0.019560062
-0.018120906
-0.016700608
-0.015302899
-0.013930542
-0.012585396
-0.011268493
-0.009980112
-0.0087197298
-0.0074863098
-0.0062766404
-0.0050915849
-0.0039082134
-0.0027967691
-0.0014474004
-0.0012113279
-0.025675052
-0.026630258
-0.027628286
-0.028694541
-0.029726199
-0.030684437
-0.031576697
-0.032406897
-0.033166777
-0.033845856
-0.034436366
-0.03493225
-0.035327805
-0.035617692
-0.035797412
-0.035863553
-0.035813844
-0.035647188
-0.035363719
-0.034964848
-0.034453259
-0.033832872
-0.033108777
-0.032287139
-0.031375068
-0.030380461
-0.029311833
-0.028178133
-0.026988546
-0.025752303
-0.024478484
-0.023175851
-0.02185268
-0.020516631
-0.019174637
-0.01783282
-0.016496444
-0.01516989
-0.013856662
-0.012559418
-0.011279999
-0.010019494
-0.0087781822
-0.0075558
-0.0063500934
-0.0051624638
-0.0039729543
-0.0028465401
-0.001500089
-0.0011885346
-0.021613255
-0.022509042
-0.023443348
-0.024436729
-0.025407203
-0.026323315
-0.027190433
-0.028011154
-0.028778255
-0.029482554
-0.030116867
-0.030675247
-0.031151903
-0.031541213
-0.031838113
-0.032038324
-0.032138414
-0.032135864
-0.032029142
-0.031817777
-0.031502394
-0.031084726
-0.030567589
-0.029954843
-0.029251316
-0.028462703
-0.027595439
-0.026656558
-0.025653537
-0.024594133
-0.023486208
-0.02233757
-0.021155814
-0.01994818
-0.018721426
-0.017481728
-0.016234597
-0.014984829
-0.013736466
-0.012492798
-0.011256359
-0.010028967
-0.0088116617
-0.0076049437
-0.0064075079
-0.0052213132
-0.0040291226
-0.0028909884
-0.0015480272
-0.0011656621
-0.018035441
-0.018871795
-0.019742334
-0.020663434
-0.021570561
-0.022438585
-0.023271293
-0.02407031
-0.024829443
-0.025540808
-0.026197952
-0.026795284
-0.02732722
-0.027788187
-0.028172944
-0.028476769
-0.028695532
-0.028825761
-0.028864737
-0.028810571
-0.028662273
-0.028419786
-0.02808401
-0.027656793
-0.027140909
-0.026540002
-0.025858509
-0.02510156
-0.024274867
-0.02338459
-0.022437203
-0.021439349
-0.020397692
-0.019318786
-0.018208942
-0.017074116
-0.015919806
-0.014750978
-0.013572003
-0.01238662
-0.011197915
-0.010008326
-0.0088195777
-0.0076328931
-0.0064478657
-0.0052670126
-0.0040755207
-0.0029290568
-0.0015903119
-0.0011434161
-0.014904326
-0.01568386
-0.016493283
-0.017345335
-0.018190102
-0.019007856
-0.019801151
-0.020570872
-0.021311789
-0.022017247
-0.022681583
-0.023299698
-0.023866394
-0.024376378
-0.024824504
-0.025205931
-0.025516192
-0.02575126
-0.025907636
-0.025982437
-0.025973472
-0.025879298
-0.025699268
-0.025433552
-0.025083153
-0.024649889
-0.024136364
-0.023545904
-0.022882489
-0.022150662
-0.021355422
-0.020502111
-0.019596293
-0.018643629
-0.017649756
-0.016620171
-0.015560125
-0.014474524
-0.013367856
-0.012244124
-0.011106804
-0.0099588265
-0.0088025035
-0.0076397013
-0.0064708325
-0.0052989511
-0.004111377
-0.0029599717
-0.0016264576
-0.0011220006
-0.012187848
-0.012914712
-0.013667342
-0.014455255
-0.015240781
-0.016008784
-0.01676084
-0.017497245
-0.018213632
-0.018904464
-0.019564856
-0.020190255
-0.020775946
-0.021317041
-0.02180867
-0.022246098
-0.022624789
-0.022940461
-0.023189173
-0.023367402
-0.023472122
-0.023500874
-0.023451821
-0.023323798
-0.023116344
-0.022829726
-0.022464931
-0.022023652
-0.021508252
-0.02092171
-0.020267552
-0.01954977
-0.018772728
-0.017941057
-0.017059556
-0.016133077
-0.015166419
-0.014164234
-0.013130929
-0.012070591
-0.010986924
-0.0098832116
-0.008762233
-0.007626402
-0.006476848
-0.0053171203
-0.0041364029
-0.0029833038
-0.0016562641
-0.0011014366
-0.0098622611
-0.010542186
-0.011243952
-0.011974317
-0.012705788
-0.013427086
-0.014138984
-0.014841301
-0.015530411
-0.016201759
-0.016851176
-0.017474656
-0.018067985
-0.018626741
-0.019146423
-0.019622541
-0.020050669
-0.020426491
-0.020745872
-0.021004932
-0.021200118
-0.02132827
-0.02138669
-0.021373199
-0.021286183
-0.02112464
-0.020888202
-0.020577149
-0.020192403
-0.019735509
-0.019208603
-0.018614357
-0.017955921
-0.017236844
-0.01646099
-0.015632443
-0.014755414
-0.013834138
-0.012872782
-0.011875359
-0.010845651
-0.0097871531
-0.0087029852
-0.0075959967
-0.006467919
-0.0053227369
-0.0041512501
-0.002999307
-0.0016799697
-0.0010818613
-0.0079025294
-0.0085412905
-0.0091984103
-0.0098781518
-0.010561422
-0.011240165
-0.011914506
-0.012583858
-0.01324521
-0.013894839
-0.01452921
-0.015144813
-0.015737918
-0.016304565
-0.016840652
-0.017342003
-0.017804403
-0.01822364
-0.018595561
-0.018916131
-0.019181502
-0.019388072
-0.019532554
-0.019612037
-0.019624044
-0.019566586
-0.019438204
-0.019238005
-0.018965682
-0.018621525
-0.018206414
-0.0177218
-0.017169674
-0.016552514
-0.015873227
-0.015135074
-0.014341588
-0.013496485
-0.012603573
-0.011666662
-0.010689482
-0.0096756163
-0.0086284004
-0.0075510062
-0.0064456478
-0.0053166747
-0.0041562691
-0.0030079522
-0.001697473
-0.0010631785
-0.0063166304
-0.006921907
-0.007542322
-0.0081802987
-0.0088234357
-0.009466217
-0.010108231
-0.010748561
-0.011384692
-0.012013575
-0.012632196
-0.013237472
-0.013826096
-0.014394525
-0.014939036
-0.015455776
-0.015940781
-0.016390012
-0.016799399
-0.017164888
-0.017482501
-0.017748389
-0.017958895
-0.018110612
-0.018200451
-0.018225691
-0.018184042
-0.018073694
-0.017893355
-0.017642281
-0.017320297
-0.016927801
-0.016465758
-0.015935676
-0.01533957
-0.014679907
-0.013959543
-0.013181647
-0.012349614
-0.011466982
-0.010537343
-0.0095642722
-0.0085512215
-0.0075015805
-0.0064179314
-0.0053049106
-0.0041558598
-0.0030123481
-0.0017109418
-0.0010465913
-0.0050589087
-0.0056367143
-0.0062271673
-0.0068309882
-0.0074410112
-0.0080537524
-0.0086683856
-0.0092837198
-0.0098976125
-0.010507541
-0.011110905
-0.011704966
-0.012286763
-0.012853102
-0.013400592
-0.01392567
-0.014424617
-0.014893588
-0.015328639
-0.015725775
-0.016080989
-0.016390316
-0.016649885
-0.016855979
-0.017005097
-0.017094015
-0.017119846
-0.017080095
-0.016972719
-0.016796164
-0.016549409
-0.016231992
-0.015844019
-0.015386167
-0.014859666
-0.014266267
-0.013608194
-0.012888082
-0.012108903
-0.011273883
-0.01038642
-0.009450008
-0.0084681259
-0.007444286
-0.0063813273
-0.0052840887