/*--------------------------------*- C++ -*----------------------------------*\
  =========                 |
  \\      /  F ield         | OpenFOAM: The Open Source CFD Toolbox
   \\    /   O peration     | Website:  https://openfoam.org
    \\  /    A nd           | Version:  6
     \\/     M anipulation  |
\*---------------------------------------------------------------------------*/
FoamFile
{
    version     2.0;
    format      ascii;
    class       surfaceScalarField;
    location    "40";
    object      phi_0;
}
// * * * * * * * * * * * * * * * * * * * * * * * * * * * * * * * * * * * * * //

dimensions      [0 3 -1 0 0 0 0];

internalField   nonuniform List<scalar> 
18180
(
0.00032124348
-0.00016808426
-0.00015315919
0.0013192766
-0.0013871415
0.0003891084
0.0030558361
-0.0033746579
0.0016380985
0.0055912385
-0.0060430784
0.0035076761
0.0089840653
-0.0093373929
0.0059445661
0.013289114
-0.01321396
0.0089089117
0.018554674
-0.017635048
0.012369488
0.024819487
-0.022566066
0.016301252
0.032109542
-0.027972414
0.02068236
0.040434942
-0.033816841
0.02549144
0.049787194
-0.040057685
0.030705433
0.060137274
-0.04664797
0.036297891
0.071434892
-0.053535342
0.042237724
0.083609414
-0.060662876
0.048488354
0.096573043
-0.067970846
0.055007217
0.11022678
-0.075399558
0.061745819
0.12446861
-0.082893082
0.068651256
0.1392088
-0.090403596
0.075663407
0.15444336
-0.097913214
0.082678653
-0.10541936
0.089494849
0.17036787
0.00040035552
-0.00056843976
0.0016208998
-0.0026076858
0.003714818
-0.0054685761
0.0067330113
-0.0090612717
0.01072217
-0.013326552
0.015721036
-0.018212826
0.021756317
-0.023670328
0.028838662
-0.02964841
0.036958982
-0.036092735
0.046085545
-0.042943403
0.056162253
-0.050134393
0.067108503
-0.05759422
0.078820839
-0.065247678
0.091176501
-0.073018537
0.10403863
-0.080832978
0.11726255
-0.088623473
0.13070207
-0.096332605
0.14421643
-0.10391796
0.15766927
-0.11136605
-0.11860814
0.17085804
0.00048380885
-0.0010522486
0.0019310965
-0.0040549734
0.0043800775
-0.0079175571
0.0078652242
-0.012546418
0.012412932
-0.01787426
0.018036028
-0.023835922
0.024728624
-0.030362924
0.032461806
-0.037381593
0.041180607
-0.044811535
0.05080275
-0.052565546
0.061219557
-0.060551201
0.072299164
-0.068673828
0.083891923
-0.076840438
0.095837556
-0.08496417
0.1079733
-0.092968719
0.12014195
-0.10079213
0.13219866
-0.10838931
0.14401434
-0.11573364
0.15546816
-0.12281987
-0.12959928
0.1664593
0.00056964287
-0.0016218914
0.002241209
-0.0057265395
0.0050296833
-0.010706031
0.0089444524
-0.016461187
0.013981921
-0.022911728
0.020118558
-0.02997256
0.027305524
-0.03754989
0.035465339
-0.045541408
0.044491069
-0.053837265
0.054248379
-0.062322856
0.0645805
-0.070883321
0.07531575
-0.079409078
0.086276894
-0.087801582
0.097291325
-0.0959786
0.1082009
-0.10387829
0.11887028
-0.11146151
0.12919294
-0.11871196
0.13909365
-0.12563435
0.14852523
-0.13225146
-0.13856407
0.15749002
0.00065457875
-0.0022764702
0.0025381555
-0.0076101162
0.0056333646
-0.01380124
0.0099150826
-0.020742905
0.015339946
-0.028336591
0.021838775
-0.036471389
0.029312317
-0.045023432
0.037630488
-0.053859579
0.046635356
-0.062842134
0.056147725
-0.071835225
0.065976662
-0.080712259
0.075930892
-0.089363307
0.085830658
-0.097701348
0.095518602
-0.10566654
0.10486836
-0.11322805
0.11379001
-0.12038317
0.12223208
-0.12715404
0.13018014
-0.1335824
0.1376522
-0.13972352
-0.14562241
0.14471054
0.0007344518
-0.003010922
0.0028060412
-0.0096817055
0.0061559953
-0.017151195
0.010715706
-0.025302616
0.016393765
-0.034014651
0.02306913
-0.043146754
0.030589581
-0.052543882
0.038775046
-0.062045045
0.047425401
-0.071492489
0.056331736
-0.08074156
0.065289573
-0.089670096
0.074112185
-0.09818592
0.082642205
-0.10623137
0.090760075
-0.11378441
0.098388405
-0.12085638
0.1054921
-0.12748687
0.1120748
-0.13373673
0.11817258
-0.13968018
0.12384629
-0.14539723
-0.15095987
0.12918376
0.00080455383
-0.0038154758
0.003027548
-0.0119047
0.0065609592
-0.020684606
0.011285575
-0.030027231
0.017056799
-0.039785875
0.023700195
-0.04979015
0.03101414
-0.059857828
0.038778121
-0.069809025
0.046765275
-0.079479643
0.054757184
-0.088733469
0.062558553
-0.097471465
0.070009526
-0.10563689
0.076993964
-0.11321581
0.083442752
-0.1202332
0.089332181
-0.12674581
0.094678174
-0.13283286
0.099527779
-0.13858634
0.10394957
-0.14410197
0.10802457
-0.14947223
-0.15477865
0.11184335
0.00085975724
-0.004675233
0.0031848796
-0.014229822
0.0068128887
-0.024312615
0.01157012
-0.034784463
0.017258081
-0.045473835
0.023652967
-0.056185036
0.030513387
-0.066718248
0.037593485
-0.076889123
0.044658931
-0.086545089
0.051502907
-0.095577445
0.057959278
-0.10392784
0.063910941
-0.11158856
0.069292369
-0.11859723
0.074086525
-0.12502736
0.078317258
-0.13097654
0.082038909
-0.13655451
0.085325068
-0.1418725
0.088258199
-0.1470351
0.090921434
-0.15213546
-0.15725188
0.093394659
0.00089369397
-0.0055689269
0.0032598024
-0.01659593
0.0068799198
-0.027932732
0.011526105
-0.039430648
0.016950131
-0.050897861
0.022888097
-0.062123001
0.029073139
-0.07290329
0.0352521
-0.083068084
0.041202684
-0.092495673
0.046747708
-0.10112247
0.051763933
-0.10894406
0.056184276
-0.1160089
0.059993666
-0.12240662
0.063219939
-0.12825363
0.065921824
-0.13367842
0.068176265
-0.13880895
0.070066981
-0.14376321
0.071675616
-0.14864374
0.073076052
-0.1535359
-0.15850743
0.074331606
0.0009028543
-0.0064717812
0.0032431902
-0.018936266
0.006747336
-0.031436878
0.011137077
-0.04382039
0.016123315
-0.055884099
0.021415699
-0.067415385
0.026739149
-0.078226739
0.031851802
-0.088180738
0.036560438
-0.097204308
0.040730188
-0.10529222
0.044286979
-0.11250085
0.04721283
-0.11893475
0.049535621
-0.12472941
0.051315705
-0.13003371
0.052631906
-0.13499462
0.05356903
-0.13974608
0.054208285
-0.14440247
0.054621239
-0.14905669
0.054867066
-0.15378172
0.054991529
-0.1586319
-0.00020392318
0.00020392322
-9.9241913e-12
-0.00068270088
0.00047877777
-2.5740429e-11
-0.0013519062
0.00066920545
-4.6402183e-11
-0.0021468695
0.00079496342
-6.7916499e-11
-0.0030155768
0.0008687074
-9.0019557e-11
-0.0039155441
0.00089996748
-1.1548848e-10
-0.0048115572
0.00089601328
-1.4389044e-10
-0.0056737806
0.00086222365
-1.7859961e-10
-0.0064762702
0.00080248984
-2.1730299e-10
-0.0071958084
0.00071953848
-2.643755e-10
-0.0078109744
0.00061516636
-3.1473878e-10
-0.0083013987
0.00049042477
-3.7471881e-10
-0.0086471742
0.00034577599
-4.3619722e-10
-0.0088284139
0.00018124024
-5.0864109e-10
-0.0088249876
-3.4255805e-06
-5.7906748e-10
-0.0086165426
-0.00020844425
-6.6163987e-10
-0.0081827671
-0.00043377478
-7.3705341e-10
-0.0075029788
-0.00067978745
-8.2332396e-10
-0.0065557064
-0.00094727142
-8.925906e-10
-0.0012225215
-0.005333184
-9.5840106e-10
-0.0001893335
0.00039325674
-0.00062931109
0.0009187554
-0.0012368682
0.0012767626
-0.0019474389
0.0015055342
-0.0027083803
0.0016296488
-0.0034759989
0.0016675861
-0.0042133791
0.0016333935
-0.004888553
0.0015373975
-0.0054730458
0.0013869827
-0.0059407273
0.0011872201
-0.0062668851
0.0009413242
-0.0064274718
0.00065101148
-0.0063984909
0.00031679514
-0.006155508
-6.174265e-05
-0.0056733168
-0.00048561666
-0.0049258533
-0.00095590773
-0.0038864067
-0.0014732214
-0.0025275419
-0.0020386522
-0.00082093991
-0.0026538734
-0.0032888867
0.0012454253
-0.00015993268
0.00055318945
-0.00052195482
0.0012807776
-0.0010062815
0.0017610893
-0.0015490665
0.0020483192
-0.0020968237
0.0021774061
-0.0026038087
0.0021745712
-0.003030053
0.0020596378
-0.0033396779
0.0018470225
-0.0034995342
0.001546839
-0.003478113
0.0011657989
-0.0032446518
0.00070786305
-0.0027684039
0.00017476362
-0.0020179964
-0.00043361232
-0.00096091012
-0.0011188289
0.00043695724
-0.001883484
0.0022115803
-0.0027305307
0.0044007765
-0.0036624176
0.0070438917
-0.0046817673
0.010181721
-0.0057917028
-0.0069417821
0.013834616
-0.00011810123
0.0006712907
-0.0003683994
0.0015310758
-0.00067552007
0.00206821
-0.00097664331
0.0023494424
-0.0012171839
0.0024179467
-0.0013486423
0.0023060296
-0.0013269316
0.0020379271
-0.0011109076
0.0016309985
-0.0006611612
0.0010970927
6.0944075e-05
0.00044369363
0.0010940649
-0.00032525774
0.0024775294
-0.0012087009
0.0042518855
-0.0022079684
0.0064593849
-0.0033263282
0.0091444921
-0.0045685913
0.012354447
-0.0059404856
0.016139646
-0.0074476169
0.020553345
-0.0090954661
0.02565144
-0.010889798
-0.012755909
0.031465567
-6.6917048e-05
0.00073820777
-0.00017868582
0.0016428446
-0.00026454101
0.0021540652
-0.00026264226
0.0023475437
-0.00011701451
0.002272319
0.00022409835
0.0019649168
0.00080957083
0.0014524547
0.0016865737
0.00075399568
0.0029015519
-0.00011788546
0.0045010135
-0.001155768
0.0065320941
-0.0023563383
0.0090429701
-0.0037195769
0.012083181
-0.0052481795
0.01570395
-0.0069470967
0.019958541
-0.0088231824
0.024902869
-0.010884814
0.030596373
-0.01314112
0.037102527
-0.015601621
0.044489629
-0.018276899
-0.021067397
0.052801117
-9.4711726e-06
0.00074767896
3.6927741e-05
0.0015964457
0.00020599184
0.0019850012
0.00055891535
0.0019946203
0.0011533295
0.0016779049
0.0020444628
0.0010737835
0.0032861073
0.00021081019
0.0049315032
-0.00089140014
0.0070339931
-0.0022203754
0.0096473904
-0.0037691652
0.012826181
-0.0055351291
0.016625616
-0.0075190116
0.021101616
-0.0097241794
0.026310586
-0.012156067
0.032309283
-0.014821879
0.03915507
-0.017730602
0.046907069
-0.020893119
0.055628203
-0.024322755
0.065389065
-0.028037761
-0.031919781
0.076241448
5.1747467e-05
0.00069593152
0.00026985794
0.0013783352
0.00071828809
0.001536571
0.0014580209
0.0012548875
0.002548437
0.00058748879
0.0040480694
-0.0004258489
0.0060151922
-0.0017563126
0.0085081961
-0.003384404
0.011585707
-0.0052978859
0.015306539
-0.0074899975
0.019729406
-0.0099579963
0.024912364
-0.012701969
0.030912039
-0.015723855
0.037782692
-0.01902672
0.04557523
-0.022614417
0.054336597
-0.026491969
0.064110515
-0.030667037
0.074940821
-0.035153061
0.086880409
-0.039977348
-0.045023518
0.099984145
0.00011521944
0.0005807121
0.00051434012
0.00097921459
0.0012596162
0.00079129504
0.0024120633
0.00010244041
0.0040325592
-0.0010330071
0.0061821694
-0.0025754591
0.0089221068
-0.00449625
0.012313534
-0.0067758314
0.016417132
-0.0094014835
0.021292319
-0.012365184
0.026996176
-0.015661854
0.033582079
-0.019287872
0.041098061
-0.023239836
0.049584957
-0.027513616
0.059074458
-0.032103918
0.06958743
-0.037004941
0.081133666
-0.042213273
0.09371493
-0.047734324
0.10733636
-0.053598779
-0.059726885
0.12203973
0.00018029263
0.00040041949
0.00076732303
0.00039218421
0.0018221947
-0.00026357665
0.0034056328
-0.0014809976
0.0055789498
-0.0032063241
0.0084037606
-0.0054002699
0.011941326
-0.0080338154
0.016251591
-0.011086096
0.021391859
-0.014541751
0.027415123
-0.018388449
0.034368087
-0.022614817
0.042288911
-0.027208696
0.051204739
-0.032155664
0.061129026
-0.037437903
0.072058664
-0.043033557
0.083970978
-0.048917255
0.09682152
-0.055063814
0.11054541
-0.061458212
0.12507068
-0.068124054
-0.07506607
0.14040987
0.00024726032
0.0010285529
0.0024030748
0.0044297533
0.0071679953
0.010676637
0.01501231
0.020227467
0.026368075
0.033471067
0.041561683
0.050650878
0.060732937
0.071783389
0.083757049
0.096585614
0.11017306
0.12437825
0.13893285
0.15336163
-0.0033484166
-0.0019847661
-1.354091e-09
-0.0010758947
-0.0022725206
-1.3775612e-09
0.0014625063
-0.0025383998
-1.3387788e-09
0.0042095952
-0.0027470879
-1.2270328e-09
0.0071387323
-0.0029291362
-1.0270645e-09
0.01023297
-0.0030942375
-7.2738915e-10
0.013473679
-0.0032407087
-3.1959645e-10
0.016843115
-0.003369436
2.2255371e-10
0.020325884
-0.0034827698
8.9892391e-10
0.023908102
-0.0035822202
1.7066654e-09
0.027576838
-0.0036687388
2.6350348e-09
0.031320047
-0.0037432127
3.6742175e-09
0.0351265
-0.0038064578
4.813995e-09
0.038985656
-0.0038591617
6.0375629e-09
0.042887565
-0.0039019169
7.3198684e-09
0.046822816
-0.0039352591
8.6202761e-09
0.05078249
-0.0039596848
9.885947e-09
0.054758146
-0.0039756668
1.1044157e-08
0.058741804
-0.0039836698
1.2010546e-08
0.062725955
-0.0039841635
1.2680247e-08
0.066703576
-0.0039776339
1.2943062e-08
0.070668155
-0.0039645916
1.267353e-08
0.074613722
-0.003945579
1.1756556e-08
0.078534888
-0.0039211761
1.0075394e-08
0.082426884
-0.003892004
7.5518287e-09
0.08628561
-0.0038587298
4.1295592e-09
0.090107679
-0.0038220689
-1.6899976e-10
0.093890473
-0.0037827886
-5.2704031e-09
0.097632195
-0.0037417114
-1.0978451e-08
0.10133193
-0.0036997182
-1.7024135e-08
0.10498971
-0.0036577524
-2.2987103e-08
0.10860656
-0.0036168232
-2.838564e-08
0.1121846
-0.0035780083
-3.2602062e-08
0.11572709
-0.0035424561
-3.5032967e-08
0.11923851
-0.0035113835
-3.5024031e-08
0.12272461
-0.0034860702
-3.2095846e-08
0.12619248
-0.0034678428
-2.5863168e-08
0.12965054
-0.0034580444
-1.633435e-08
0.13310853
-0.0034579876
-3.7315572e-09
0.13657737
-0.0034688543
1.1171112e-08
0.14006898
-0.0034916363
2.740328e-08
0.14359571
-0.0035267747
4.3555429e-08
0.14717035
-0.0035746997
5.8054471e-08
0.1508037
-0.0036334126
6.9357836e-08
0.15450987
-0.0037062495
7.6187157e-08
0.15828729
-0.0037774934
7.7702836e-08
0.16218207
-0.003894861
7.3832069e-08
0.16609714
-0.0039151275
6.4587902e-08
0.17040984
-0.0043127623
5.3115835e-08
-0.0039250762
2.6758627e-08
0.0031122843
-0.0038516251
0.0052617987
-0.0044220352
0.0076637354
-0.0049403367
0.010255336
-0.0053386888
0.0130157
-0.0056895005
0.015932904
-0.0060114409
0.018990529
-0.0062983341
0.022172455
-0.0065513625
0.025464983
-0.0067752975
0.028855698
-0.0069729355
0.032332836
-0.007145877
0.035885308
-0.0072956847
0.039502683
-0.0074238328
0.043175081
-0.0075315599
0.046893098
-0.007619934
0.05064777
-0.0076899305
0.05443055
-0.0077424652
0.058233304
-0.0077784203
0.062048307
-0.007798673
0.065868263
-0.0078041203
0.069686328
-0.0077956988
0.073496136
-0.0077743999
0.07729184
-0.007741283
0.081068149
-0.007697485
0.084820373
-0.0076442285
0.088544472
-0.0075828279
0.092237099
-0.007514696
0.095895659
-0.0074413496
0.099518364
-0.0073644161
0.10310429
-0.0072856396
0.10665342
-0.0072068892
0.11016676
-0.0071301649
0.11364636
-0.0070576038
0.11709539
-0.0069914839
0.12051822
-0.0069342204
0.12392051
-0.0068883547
0.12730919
-0.0068565244
0.13069255
-0.0068414033
0.13408017
-0.0068456105
0.13748283
-0.0068715111
0.1409123
-0.006921105
0.14438082
-0.0069952989
0.14790112
-0.0070950023
0.15148396
-0.0072162534
0.15514353
-0.0073658148
0.15887828
-0.007512249
0.16273433
-0.0077509077
0.16661526
-0.0077960562
0.1708937
-0.0085911997
-0.0078294998
0.015455554
-0.0054725629
0.017341459
-0.00630794
0.019455762
-0.0070546396
0.021728304
-0.0076112317
0.024147662
-0.0081088585
0.026710628
-0.0085744066
0.029404936
-0.0089926425
0.032217409
-0.0093638358
0.035137284
-0.009695172
0.038154699
-0.009990351
0.041259923
-0.010251101
0.044443507
-0.010479269
0.047696371
-0.010676697
0.051009744
-0.010844933
0.054375127
-0.010985317
0.057784294
-0.011099097
0.061229301
-0.011187472
0.064702507
-0.011251627
0.068196598
-0.011292764
0.071704615
-0.011312137
0.075219991
-0.011311074
0.078736592
-0.011291001
0.082248762
-0.011253453
0.085751363
-0.011200087
0.089239829
-0.011132695
0.09271021
-0.011053209
0.096159224
-0.01096371
0.099584312
-0.010866438
0.10298369
-0.010763794
0.10635641
-0.010658361
0.10970242
-0.010552902
0.11302264
-0.010450379
0.11631899
-0.010353958
0.11959453
-0.010267017
0.12285344
-0.010193139
0.12610119
-0.010136096
0.12934447
-0.010099811
0.13259134
-0.010088269
0.13585111
-0.010105386
0.13913432
-0.010154718
0.14245252
-0.010239304
0.14581779
-0.010360572
0.14924278
-0.010519994
0.15273828
-0.010711755
0.15631857
-0.010946102
0.15998252
-0.0111762
0.16377555
-0.011543938
0.16760465
-0.011625151
0.17182815
-0.0128147
-0.011710917
0.032701712
-0.0067087088
0.034173797
-0.0077800249
0.035841065
-0.0087219072
0.037630632
-0.0094007991
0.039543485
-0.010021711
0.041586366
-0.010617288
0.043752484
-0.011158761
0.046032653
-0.011644004
0.048419653
-0.012082172
0.050906646
-0.012477344
0.053486333
-0.012830789
0.056151192
-0.013144128
0.058893675
-0.01341918
0.061706241
-0.013657499
0.064581374
-0.01386045
0.067511627
-0.01402935
0.070489679
-0.014165524
0.073508384
-0.014270333
0.076560825
-0.014345205
0.079640361
-0.014391673
0.082740685
-0.014411398
0.085855871
-0.014406187
0.088980428
-0.01437801
0.092109351
-0.01432901
0.095238173
-0.014261516
0.098363013
-0.014178049
0.10148063
-0.01408133
0.10458848
-0.013974289
0.10768477
-0.013860078
0.11076849
-0.013742082
0.11383952
-0.01362393
0.11689865
-0.01350951
0.11994767
-0.013402983
0.12298944
-0.013308788
0.12602794
-0.013231637
0.12906835
-0.0131765
0.13211708
-0.013148548
0.13518187
-0.013153053
0.1382717
-0.013195217
0.14139678
-0.013279802
0.14456841
-0.013410927
0.14779846
-0.013590625
0.15109951
-0.013821046
0.15448245
-0.014094693
0.15796168
-0.014425336
0.16153681
-0.014751332
0.16525201
-0.015259131
0.16901998
-0.015393128
0.1731765
-0.016971216
-0.0155731
0.053495615
-0.0074032074
0.054393508
-0.0086779178
0.05544862
-0.0097770193
0.056595823
-0.010548001
0.057850392
-0.01127628
0.059227014
-0.01199391
0.060724583
-0.012656329
0.062338609
-0.013258031
0.064065264
-0.013808828
0.065900351
-0.014312431
0.067838772
-0.014769209
0.069874703
-0.01518006
0.072001857
-0.015546334
0.074213643
-0.015869285
0.076503266
-0.016150073
0.078863817
-0.016389902
0.081288369
-0.016590076
0.083770059
-0.016752023
0.086302174
-0.01687732
0.08887822
-0.01696772
0.091491991
-0.017025169
0.094137629
-0.017051825
0.096809686
-0.017050067
0.099503181
-0.017022505
0.10221365
-0.016971987
0.10493721
-0.016901604
0.10767058
-0.0168147
0.11041117
-0.016714881
0.11315712
-0.016606026
0.11590733
-0.016492299
0.11866157
-0.016378169
0.12142048
-0.01626842
0.12418568
-0.016168177
0.12695979
-0.016082901
0.12974655
-0.016018397
0.13255084
-0.01598079
0.13537876
-0.015976467
0.13823766
-0.016011955
0.14113618
-0.016093734
0.14408416
-0.016227783
0.14709259
-0.016419361
0.15017317
-0.016671207
0.15333842
-0.01698629
0.15659937
-0.017355649
0.15997064
-0.017796599
0.16345279
-0.018233488
0.16708827
-0.018894612
0.17079746
-0.019102312
0.17488676
-0.021060517
-0.019428305
0.07622254
-0.0073842994
0.07638243
-0.0088378073
0.076664569
-0.010059158
0.077026362
-0.010909795
0.077496454
-0.011746372
0.078092015
-0.01258947
0.07881643
-0.013380745
0.079670044
-0.014111644
0.080651569
-0.014790354
0.081758258
-0.01541912
0.08298629
-0.015997241
0.084330819
-0.016524589
0.085786137
-0.017001652
0.087345973
-0.017429121
0.089003699
-0.017807799
0.090752462
-0.018138664
0.092585297
-0.018422911
0.094495251
-0.018661977
0.096475483
-0.018857552
0.098519351
-0.019011588
0.10062049
-0.019126309
0.10277289
-0.019204221
0.10497094
-0.019248118
0.10720951
-0.019261077
0.109484
-0.019246477
0.11179038
-0.019207983
0.11412525
-0.019149567
0.11648587
-0.019075508
0.11887025
-0.018990408
0.12127716
-0.018899206
0.12370619
-0.018807195
0.12615781
-0.018720041
0.12863344
-0.018643803
0.13113547
-0.018584941
0.13366739
-0.018550317
0.13623378
-0.018547175
0.13884039
-0.018583082
0.14149423
-0.018665793
0.14420355
-0.01880305
0.14697784
-0.019002072
0.14982779
-0.019269313
0.15276492
-0.019608338
0.15580172
-0.02002309
0.15894947
-0.020503401
0.16222301
-0.021070133
0.16562408
-0.021634561
0.16919304
-0.022463573
0.17285932
-0.022768591
0.17689502
-0.025096214
-0.023298708
0.099103471
-0.0065036248
0.098385706
-0.0081200419
0.097761579
-0.0094350305
0.097232835
-0.01038105
0.096836193
-0.011349729
0.096583154
-0.012336432
0.096479398
-0.013276989
0.096529337
-0.014161584
0.096732921
-0.014993937
0.097087282
-0.015773481
0.097588474
-0.016498433
0.098231526
-0.01716764
0.099010418
-0.017780545
0.099918415
-0.018337118
0.10094837
-0.018837752
0.10209289
-0.019283183
0.10334447
-0.019674498
0.10469565
-0.020013153
0.10613907
-0.02030097
0.10766761
-0.02054013
0.10927447
-0.020733169
0.11095322
-0.020882974
0.11269789
-0.020992788
0.11450301
-0.021066198
0.11636367
-0.021107135
0.11827556
-0.021119878
0.12023505
-0.021109048
0.12223916
-0.021079622
0.1242857
-0.021036944
0.12637322
-0.020986733
0.12850114
-0.020935115
0.13066973
-0.020888633
0.1328802
-0.020854272
0.13513474
-0.020839474
0.13743655
-0.020852134
0.13978996
-0.020900585
0.14220042
-0.02099354
0.14467458
-0.021139955
0.14722036
-0.021348823
0.1498469
-0.021628613
0.15256462
-0.02198704
0.1553849
-0.022428615
0.15832024
-0.022958427
0.1613822
-0.023565359
0.1645859
-0.02427384
0.16793439
-0.024983049
0.1714657
-0.025994881
0.17511914
-0.026422037
0.17912939
-0.029106459
-0.027216853
0.12025412
-0.0047180124
0.11860331
-0.0064692375
0.11700884
-0.0078405525
0.11555499
-0.0089272075
0.11427833
-0.010073062
0.1131766
-0.011234708
0.11225559
-0.012355975
0.11152193
-0.013427923
0.11097543
-0.014447437
0.11061189
-0.015409946
0.11042592
-0.016312456
0.11041126
-0.017152981
0.11056077
-0.017930057
0.11086662
-0.018642971
0.11132061
-0.019291737
0.11191434
-0.01987692
0.11263942
-0.020399575
0.11348751
-0.020861244
0.11445049
-0.021263947
0.11552051
-0.021610155
0.11669012
-0.021902778
0.1179523
-0.022145148
0.11930052
-0.022341013
0.12072885
-0.022494521
0.12223193
-0.022610218
0.12380509
-0.022693036
0.12544433
-0.022748296
0.12714642
-0.022781712
0.12890888
-0.022799398
0.13073004
-0.022807892
0.13260909
-0.022814166
0.13454611
-0.022825655
0.13654212
-0.022850279
0.13859909
-0.02289645
0.14072005
-0.022973088
0.14290906
-0.023089593
0.14517131
-0.023255794
0.14751318
-0.023481822
0.14994225
-0.023777899
0.1524674
-0.024153761
0.15509879
-0.024618435
0.15784768
-0.025177497
0.16072661
-0.025837364
0.16374748
-0.026586223
0.16692574
-0.027452105
0.17026573
-0.028323039
0.17380308
-0.029532226
0.1774873
-0.030106258
0.18151411
-0.033133273
-0.031225128
0.1378598
-0.0021679449
0.13537476
-0.0039841972
0.13285386
-0.0053196454
0.13053835
-0.0066117051
0.12845526
-0.0079899715
0.12658626
-0.0093657075
0.12493449
-0.010704205
0.12350533
-0.011998757
0.12229756
-0.013239668
0.12130581
-0.014418193
0.12052296
-0.015529615
0.1199411
-0.01657112
0.11955166
-0.017540618
0.11934558
-0.018436891
0.1193135
-0.019259652
0.11944594
-0.020009361
0.11973349
-0.02068712
0.12016687
-0.02129463
0.1207371
-0.02183417
0.12143551
-0.02230857
0.12225391
-0.022721173
0.12318458
-0.023075818
0.12422039
-0.023376824
0.12535482
-0.023628959
0.12658205
-0.023837443
0.12789694
-0.024007923
0.12929511
-0.024146471
0.13077299
-0.02425959
0.13232781
-0.024354218
0.13395766
-0.024437742
0.13566152
-0.024518021
0.13743927
-0.024603409
0.13929176
-0.024702774
0.14122083
-0.024825513
0.1432293
-0.024981563
0.14532109
-0.025181376
0.14750117
-0.025435878
0.14977569
-0.025756339
0.15215198
-0.026154193
0.15463866
-0.02664044
0.15724569
-0.027225467
0.15998421
-0.027916016
0.16286686
-0.028720015
0.16590583
-0.029625197
0.16911698
-0.030663252
0.17250588
-0.031711933
0.17610568
-0.033132033
0.17987617
-0.033876742
0.18397334
-0.037230452
-0.035374439
0.15084426
0.00034942181
0.14758209
-0.00072202752
0.14431643
-0.0020539859
0.14130373
-0.0035990026
0.13854715
-0.005233385
0.13604076
-0.0068593171
0.13378679
-0.0084502426
0.13178564
-0.0099976044
0.13003516
-0.011489184
0.1285305
-0.012913536
0.12726425
-0.014263362
0.12622741
-0.01553428
0.12541024
-0.016723448
0.12480254
-0.017829194
0.12439383
-0.018850937
0.12417352
-0.019789047
0.1241311
-0.02064471
0.12425632
-0.021419842
0.12453919
-0.022117045
0.12497019
-0.022739564
0.12554026
-0.023291245
0.12624094
-0.0237765
0.1270644
-0.024200285
0.12800351
-0.024568066
0.12905186
-0.024885799
0.13020386
-0.025159915
0.13145469
-0.025397309
0.13280044
-0.025605333
0.13423803
-0.025791806
0.13576531
-0.025965023
0.13738106
-0.026133775
0.13908502
-0.026307371
0.14087791
-0.026495659
0.14276144
-0.026709042
0.14473835
-0.026958476
0.14681243
-0.027255461
0.14898855
-0.027611994
0.15127267
-0.028040458
0.15367194
-0.028553465
0.15619476
-0.029163257
0.15885091
-0.029881614
0.16165141
-0.030716519
0.164609
-0.031677603
0.1677361
-0.032752302
0.17104908
-0.033976231
0.17455424
-0.035217088
0.17828363
-0.036861426
0.1822025
-0.037795614
0.18644007
-0.041468015
-0.039716448
0.19010206
0.0048997918
-0.19465243
0.18634209
0.0030379464
0.18300153
0.0012865749
0.17991037
-0.0005078426
0.17703126
-0.0023542759
0.17433932
-0.0041673783
0.17181669
-0.0059276156
0.1694547
-0.0076356114
0.16724976
-0.0092842419
0.16520004
-0.010863814
0.16330403
-0.012367357
0.16156002
-0.013790269
0.15996578
-0.015129204
0.15851845
-0.01638187
0.15721461
-0.017547094
0.1560503
-0.018624737
0.15502116
-0.019615569
0.15412251
-0.020521188
0.15334943
-0.021343971
0.1526969
-0.022087028
0.15215981
-0.022754153
0.1517331
-0.023349791
0.15141181
-0.023878995
0.15119114
-0.024347399
0.15106653
-0.024761188
0.15103369
-0.025127074
0.15108866
-0.025452282
0.15122787
-0.025744538
0.15144813
-0.026012072
0.15174673
-0.026263624
0.15212141
-0.026508455
0.15257041
-0.026756367
0.15309246
-0.027017711
0.15368682
-0.027303402
0.15435325
-0.027624903
0.155092
-0.027994214
0.15590383
-0.028423825
0.15678999
-0.028926612
0.15775223
-0.029515707
0.15879288
-0.030203912
0.15991496
-0.031003692
0.16112208
-0.031923633
0.16241885
-0.032974372
0.16380948
-0.03414294
0.16530101
-0.035467756
0.16689273
-0.036808805
0.1686039
-0.038572599
0.17039614
-0.03958786
0.17238056
-0.043452428
-0.041678131
0.21800801
0.0082472917
-0.2213555
0.21458744
0.0064585069
0.21142861
0.0044454047
0.2083796
0.0025411695
0.20539174
0.00063358635
0.20249606
-0.0012717005
0.19970973
-0.0031412778
0.19703758
-0.0049634611
0.19448582
-0.0067324899
0.19206164
-0.0084396292
0.1897706
-0.01007632
0.18761652
-0.01163619
0.18560184
-0.013114517
0.18372772
-0.014507749
0.18199413
-0.015813513
0.18040002
-0.01703062
0.17894341
-0.018158965
0.17762165
-0.019199425
0.17643148
-0.020153799
0.1753692
-0.021024752
0.17443081
-0.02181576
0.17361208
-0.022531062
0.1729087
-0.023175609
0.17231632
-0.023755026
0.17183071
-0.024275574
0.17144775
-0.024744116
0.17116357
-0.025168098
0.17097455
-0.025555524
0.17087744
-0.025914957
0.17086932
-0.026255509
0.17094772
-0.026586853
0.17111058
-0.026919221
0.17135628
-0.027263416
0.17168368
-0.027630799
0.17209206
-0.028033281
0.17258113
-0.028483285
0.17315101
-0.028993712
0.17380224
-0.029577842
0.17453578
-0.030249244
0.1753531
-0.031021227
0.1762563
-0.031906895
0.17724823
-0.032915567
0.17833263
-0.034058772
0.17951368
-0.035323987
0.18079654
-0.036750618
0.18218423
-0.038196493
0.18368379
-0.040072156
0.18528673
-0.041190804
0.1870149
-0.045180593
-0.043473505
0.24483578
0.010923598
-0.24751208
0.24203576
0.0092585274
0.23923408
0.0072470794
0.23644118
0.0053340748
0.23362047
0.003454291
0.23079264
0.0015561368
0.22798893
-0.00033756651
0.22522893
-0.0022034693
0.22252887
-0.004032424
0.21990494
-0.0058156969
0.21737133
-0.0075427174
0.21493945
-0.0092043035
0.21261832
-0.010793386
0.21041497
-0.012304399
0.20833454
-0.013733088
0.20638048
-0.01507656
0.20455475
-0.016333232
0.20285804
-0.017502718
0.20128999
-0.018585747
0.19984934
-0.0195841
0.19853412
-0.02050054
0.1973418
-0.021338748
0.19626945
-0.022103261
0.19531385
-0.022799422
0.1944716
-0.023433328
0.19373927
-0.024011784
0.19311345
-0.024542273
0.19259085
-0.025032922
0.19216838
-0.025492486
0.1918432
-0.025930335
0.19161279
-0.026356442
0.19147495
-0.02678138
0.19142784
-0.027216308
0.19146999
-0.027672952
0.19160028
-0.02816357
0.19181791
-0.028700915
0.19212239
-0.02929819
0.19251352
-0.02996897
0.19299142
-0.030727151
0.19355668
-0.031586481
0.19421044
-0.032560654
0.19495473
-0.033659858
0.19579238
-0.034896419
0.19672758
-0.036259192
0.1977636
-0.037786636
0.19890766
-0.039340558
0.20015312
-0.04131761
0.20152566
-0.042563351
0.20294297
-0.046597896
-0.045062829
0.27023531
0.012915971
-0.27222768
0.26811058
0.011383259
0.26581409
0.0095435699
0.26342262
0.0077255449
0.26094484
0.0059320717
0.25839098
0.004109995
0.2557872
0.0022662104
0.25315777
0.00042596334
0.2505229
-0.0013975578
0.24790277
-0.0031955678
0.24531695
-0.0049568961
0.2427829
-0.0066702515
0.24031573
-0.008326213
0.23792835
-0.0099170255
0.23563156
-0.011436291
0.23343403
-0.012879036
0.23134255
-0.014241751
0.22936215
-0.015522318
0.22749634
-0.016719934
0.22574727
-0.017835033
0.22411596
-0.01886923
0.22260245
-0.019825239
0.221206
-0.020706804
0.21992522
-0.021518641
0.21875825
-0.022266366
0.21770292
-0.022956446
0.21675679
-0.023596149
0.21591737
-0.0241935
0.21518214
-0.024757252
0.21454865
-0.02529685
0.21401463
-0.025822418
0.21357797
-0.026344723
0.21323682
-0.026875153
0.21298953
-0.027425668
0.21283472
-0.028008755
0.21277117
-0.028637363
0.21279784
-0.029324863
0.21291385
-0.030084984
0.21311852
-0.03093182
0.2134115
-0.031879463
0.21379299
-0.032942141
0.21426417
-0.03413104
0.21482701
-0.035459258
0.21548569
-0.036917872
0.21624192
-0.038542865
0.2171066
-0.040205234
0.2180612
-0.042272209
0.2191609
-0.043663059
0.22022945
-0.047666437
-0.046399966
0.29383076
0.014216474
-0.29513126
0.29238434
0.012829686
0.29069722
0.011230686
0.28883649
0.0095862774
0.28683749
0.0079310658
0.28471131
0.0062361766
0.28247647
0.0045010487
0.28015648
0.0027459572
0.27777278
0.00098614193
0.27534561
-0.00076840266
0.27289559
-0.0025068752
0.27044285
-0.0042175083
0.26800606
-0.0058894184
0.2656022
-0.0075131642
0.26324645
-0.0090805461
0.26095208
-0.010584666
0.25873039
-0.012020063
0.25659081
-0.013382736
0.25454098
-0.014670101
0.2525869
-0.015880955
0.25073309
-0.017015423
0.24898275
-0.018074901
0.24733794
-0.019061989
0.24579972
-0.019980424
0.24436837
-0.02083501
0.24304348
-0.021631562
0.24182417
-0.022376839
0.24070917
-0.023078496
0.23969695
-0.023745035
0.23878586
-0.024385759
0.23797417
-0.025010733
0.23726019
-0.025630737
0.23664225
-0.026257214
0.23611878
-0.026902198
0.23568827
-0.027578241
0.23534923
-0.028298331
0.23510021
-0.029075837
0.23493971
-0.029924482
0.23486628
-0.030858391
0.2348787
-0.031891885
0.23497622
-0.033039664
0.2351592
-0.034314017
0.23542882
-0.035728874
0.2357892
-0.03727826
0.236241
-0.038994664
0.23679804
-0.040762276
0.23743252
-0.042906687
0.23822282
-0.044453352
0.23891481
-0.048358435
-0.047442494
0.31581081
0.014891562
-0.31648589
0.31498067