/*--------------------------------*- C++ -*----------------------------------*\
  =========                 |
  \\      /  F ield         | OpenFOAM: The Open Source CFD Toolbox
   \\    /   O peration     | Website:  https://openfoam.org
    \\  /    A nd           | Version:  6
     \\/     M anipulation  |
\*---------------------------------------------------------------------------*/
FoamFile
{
    version     2.0;
    format      ascii;
    class       volScalarField;
    location    "177";
    object      p;
}
// * * * * * * * * * * * * * * * * * * * * * * * * * * * * * * * * * * * * * //

dimensions      [0 2 -2 0 0 0 0];

internalField   nonuniform List<scalar> 
9200
(
-0.37794985
-0.36660336
-0.35650969
-0.3475604
-0.3388207
-0.33030446
-0.32208998
-0.31414473
-0.30640141
-0.29878808
-0.29123179
-0.2836635
-0.27602505
-0.26827644
-0.26040641
-0.25245027
-0.24448434
-0.23659644
-0.22981149
-0.22841151
-0.39581056
-0.3820129
-0.36997559
-0.35950651
-0.34939479
-0.33962187
-0.33025652
-0.32123547
-0.31245921
-0.3038294
-0.29525287
-0.28664741
-0.27794932
-0.26911941
-0.26014861
-0.25106186
-0.24188902
-0.23262981
-0.22396716
-0.21806701
-0.41408825
-0.39781657
-0.38388155
-0.37196312
-0.36053469
-0.34952709
-0.33898779
-0.32881509
-0.31887531
-0.30904757
-0.2992276
-0.28933332
-0.27931166
-0.26914166
-0.25883436
-0.24842841
-0.23796259
-0.22744586
-0.21727745
-0.20857244
-0.43234885
-0.41362228
-0.39785492
-0.38454874
-0.37182385
-0.35954411
-0.34772785
-0.33623441
-0.32490387
-0.3136082
-0.30225276
-0.29077934
-0.27916923
-0.26744109
-0.25564421
-0.2438484
-0.23212021
-0.22049853
-0.20925079
-0.19911812
-0.44996244
-0.428884
-0.41140104
-0.3967842
-0.38277255
-0.36915218
-0.35591218
-0.34288355
-0.32990067
-0.31685546
-0.30369263
-0.29040601
-0.27703439
-0.26365158
-0.25035308
-0.23724181
-0.22440784
-0.21190967
-0.19993553
-0.18899282
-0.46610453
-0.44288275
-0.42385982
-0.40802176
-0.39271678
-0.37765331
-0.36280359
-0.34799595
-0.33309318
-0.31804353
-0.30286392
-0.28762494
-0.27243648
-0.2574297
-0.24273875
-0.22848564
-0.21476503
-0.2016328
-0.18921494
-0.17784822
-0.47976998
-0.4547322
-0.43440662
-0.41744743
-0.40082884
-0.38419743
-0.36753639
-0.35071215
-0.33366039
-0.31642504
-0.29912346
-0.28191678
-0.26498517
-0.2485043
-0.23262659
-0.21746992
-0.20310998
-0.1895779
-0.17694052
-0.16539904
-0.48979498
-0.46340221
-0.44208466
-0.4241279
-0.40618188
-0.38786521
-0.36921474
-0.35018716
-0.3308395
-0.31134634
-0.29194276
-0.27288009
-0.25439412
-0.23668172
-0.21988763
-0.20410168
-0.18936103
-0.17565757
-0.16300018
-0.15147611
-0.49483733
-0.46761751
-0.44560795
-0.42672741
-0.40739996
-0.38727835
-0.36651306
-0.34520831
-0.32358204
-0.30195499
-0.28067344
-0.26005624
-0.24036406
-0.22178365
-0.20442578
-0.1883336
-0.17349499
-0.15985832
-0.1473785
-0.13604527
-0.4935466
-0.46596123
-0.4434289
-0.42358062
-0.4027613
-0.38074142
-0.35785052
-0.33438616
-0.31074096
-0.287365
-0.26467844
-0.24302224
-0.22263916
-0.20367283
-0.18617968
-0.17014754
-0.15551541
-0.14219384
-0.13009097
-0.11911168
-0.26506781
-0.26974209
-0.2722505
-0.27300164
-0.27278753
-0.27179502
-0.27010557
-0.26780674
-0.26497071
-0.26165222
-0.25789533
-0.25373753
-0.24921193
-0.24434863
-0.23917586
-0.23372252
-0.2280195
-0.22208731
-0.21592499
-0.20961807
-0.26780045
-0.27205948
-0.27426115
-0.27479361
-0.27439642
-0.2732477
-0.27142698
-0.26901812
-0.26608976
-0.2626938
-0.25887185
-0.25465933
-0.25008745
-0.24518429
-0.2399755
-0.23448896
-0.22876301
-0.22281653
-0.21654224
-0.20991419
-0.27312993
-0.2765769
-0.27818058
-0.27828532
-0.2775292
-0.27607492
-0.27399851
-0.27137655
-0.26827074
-0.26472735
-0.26078319
-0.25646944
-0.25181355
-0.24683973
-0.24156882
-0.23602581
-0.23026047
-0.22429056
-0.21781695
-0.21058191
-0.28081635
-0.2831008
-0.28383895
-0.28331497
-0.28202594
-0.280115
-0.27765419
-0.27471024
-0.27133519
-0.26756747
-0.26343703
-0.25896895
-0.25418514
-0.24910413
-0.24373993
-0.23811238
-0.23228318
-0.22627471
-0.21954147
-0.21145591
-0.29055744
-0.29138818
-0.29102476
-0.28968352
-0.28769262
-0.2851744
-0.28219775
-0.2788181
-0.27507608
-0.27100086
-0.26661416
-0.26193277
-0.2569711
-0.25174073
-0.24624756
-0.24050307
-0.23457695
-0.22850475
-0.22148181
-0.2123658
-0.30203941
-0.30118682
-0.29952059
-0.29719004
-0.29433761
-0.29106622
-0.2874438
-0.28351475
-0.27930773
-0.27484025
-0.27012322
-0.26516418
-0.25996871
-0.25453999
-0.24887477
-0.24297321
-0.23690503
-0.23072518
-0.22339787
-0.21314461
-0.31498332
-0.3122717
-0.30913573
-0.30566485
-0.30180709
-0.29764913
-0.29326181
-0.28867814
-0.28391207
-0.27896863
-0.27384723
-0.26854416
-0.26305438
-0.25737154
-0.25148329
-0.24537799
-0.23911817
-0.23278141
-0.22516394
-0.21378207
-0.32917316
-0.32446778
-0.31972832
-0.31499407
-0.31001443
-0.30486279
-0.29961323
-0.29428654
-0.28888192
-0.28338999
-0.2777958
-0.27208137
-0.26622806
-0.26021741
-0.25402742
-0.24763755
-0.24110753
-0.23456094
-0.22674525
-0.21446636
-0.34445587
-0.33764267
-0.33118796
-0.32509103
-0.31889527
-0.31265947
-0.30646284
-0.30031345
-0.29419289
-0.28807415
-0.28192436
-0.27570711
-0.26938463
-0.26291819
-0.25626333
-0.2493722
-0.24226908
-0.23506019
-0.22648818
-0.21305068
-0.36073257
-0.35168863
-0.34340245
-0.33583826
-0.32832001
-0.32089167
-0.31363752
-0.30655059
-0.29959236
-0.29271655
-0.28587204
-0.27900565
-0.27206506
-0.26499882
-0.25775111
-0.25025749
-0.24246086
-0.23415458
-0.2236878
-0.20801906
-0.20246736
-0.19351906
-0.18456581
-0.1756716
-0.16678274
-0.15794089
-0.14919959
-0.14059387
-0.13215303
-0.12390566
-0.11587757
-0.10809095
-0.10056492
-0.093315859
-0.086357342
-0.079700258
-0.073352897
-0.067321064
-0.06160817
-0.056215345
-0.051141562
-0.046383774
-0.041937068
-0.037794825
-0.033948904
-0.030389824
-0.027106959
-0.024088731
-0.021322806
-0.018796288
-0.0164959
-0.014408162
-0.012519558
-0.010816685
-0.0092864025
-0.0079159582
-0.0066931186
-0.0056062695
-0.0046445936
-0.0037979943
-0.003057915
-0.0024153512
-0.0018680324
-0.0013993147
-0.0010447851
-0.00069486485
-0.00068815571
-8.0260146e-05
-0.0017063063
0.0024525317
-0.20347739
-0.19413184
-0.18506954
-0.17618967
-0.16728279
-0.15841076
-0.14964502
-0.14101704
-0.13255363
-0.12428394
-0.11623405
-0.10842604
-0.10087903
-0.093609449
-0.086630949
-0.079954478
-0.073588392
-0.067538556
-0.061808433
-0.056399193
-0.051309842
-0.046537355
-0.042076829
-0.03792165
-0.034063668
-0.030493389
-0.027200165
-0.024172392
-0.021397705
-0.018863172
-0.016555479
-0.014461105
-0.01256649
-0.010858192
-0.0093230247
-0.0079481939
-0.0067214237
-0.0056310585
-0.0046662404
-0.0038168333
-0.0030742408
-0.0024294218
-0.001880049
-0.0014094864
-0.0010530417
-0.00070178669
-0.00069155898
-8.6077044e-05
-0.0016917485
0.0024239432
-0.20559608
-0.1953999
-0.18612017
-0.17730898
-0.1683785
-0.15944579
-0.15063244
-0.14196044
-0.13345
-0.1251324
-0.11703497
-0.10917966
-0.1015857
-0.094269861
-0.087246078
-0.080525517
-0.074116743
-0.068025806
-0.062256323
-0.056809586
-0.051684692
-0.046878676
-0.042386669
-0.038202067
-0.034316706
-0.03072106
-0.02740443
-0.024355146
-0.02156077
-0.019008282
-0.016684275
-0.014575132
-0.01266719
-0.010946905
-0.009400988
-0.0080165427
-0.0067811933
-0.0056831866
-0.0047115705
-0.0038561168
-0.0031081388
-0.0024585105
-0.0019047865
-0.0014303247
-0.0010699051
-0.0007158004
-0.0006985507
-9.7568585e-05
-0.0016631725
0.0023673803
-0.20866469
-0.19709182
-0.18749112
-0.17887889
-0.16995902
-0.16094962
-0.15208213
-0.14336119
-0.13479171
-0.12641009
-0.11824735
-0.11032548
-0.10266401
-0.095280564
-0.088189779
-0.081403343
-0.07493028
-0.068777047
-0.062947596
-0.057443486
-0.052264017
-0.047406374
-0.042865783
-0.038635689
-0.034707936
-0.031072968
-0.027720026
-0.024637357
-0.021812412
-0.019232047
-0.016882716
-0.014750652
-0.012822041
-0.011083176
-0.0095206112
-0.0081212899
-0.0068726803
-0.0057628766
-0.0047807788
-0.0039160147
-0.0031597566
-0.0025027448
-0.0019423544
-0.0014619237
-0.0010954558
-0.00073696904
-0.00070922984
-0.00011468686
-0.0016213262
0.0022840671
-0.21245658
-0.19893708
-0.18891317
-0.18070173
-0.17187784
-0.16279442
-0.15388388
-0.14513032
-0.13650724
-0.12805825
-0.11982288
-0.11182424
-0.10408231
-0.096616143
-0.089441777
-0.082571927
-0.076016466
-0.069782587
-0.063874863
-0.058295355
-0.053043756
-0.048117548
-0.043512171
-0.039221206
-0.035236566
-0.031548705
-0.028146823
-0.025019083
-0.022152815
-0.019534728
-0.017151104
-0.014987988
-0.013031362
-0.011267313
-0.0096821823
-0.0082627004
-0.0069961254
-0.0058703452
-0.0048740592
-0.0039966997
-0.0032292473
-0.0025622603
-0.0019928719
-0.001504388
-0.001129789
-0.00076536422
-0.00072374211
-0.00013733072
-0.0015673529
0.0021758891
-0.21662446
-0.2006552
-0.19011721
-0.18254432
-0.17396263
-0.16483682
-0.15590559
-0.14715383
-0.13850387
-0.13000089
-0.12169823
-0.11362351
-0.10579767
-0.098241655
-0.090973736
-0.084008421
-0.077356994
-0.071027855
-0.065026604
-0.059356147
-0.054016853
-0.049006738
-0.04432164
-0.039955423
-0.035900182
-0.03214646
-0.028683474
-0.02549933
-0.022581255
-0.019915802
-0.017489065
-0.015286872
-0.013294969
-0.011499191
-0.0098856201
-0.008440726
-0.0071515051
-0.0060055876
-0.0049914214
-0.0040981929
-0.0033166408
-0.0026370938
-0.002056381
-0.0015577637
-0.001172959
-0.00080102866
-0.00074224232
-0.00016535878
-0.0015027005
0.0020453004
-0.22077078
-0.20206461
-0.1908915
-0.18412896
-0.1760129
-0.16694985
-0.15803219
-0.14931952
-0.14068573
-0.13216015
-0.12380854
-0.11566838
-0.10776396
-0.10011858
-0.092753445
-0.085685827
-0.07892922
-0.072493843
-0.06638684
-0.060612409
-0.05517197
-0.050064369
-0.045286092
-0.040831482
-0.036692966
-0.032861296
-0.02932578
-0.026074532
-0.023094697
-0.02037269
-0.01789441
-0.015645452
-0.013611297
-0.011777494
-0.010129825
-0.0086544529
-0.0073380667
-0.0061679905
-0.0051323724
-0.0042201047
-0.0034216364
-0.0027270207
-0.0021327218
-0.0016219469
-0.0012249151
-0.00084394096
-0.000764867
-0.00019861995
-0.001429018
0.0018951902
-0.22463471
-0.20356094
-0.19146038
-0.18526823
-0.17781439
-0.16904613
-0.16022007
-0.1515712
-0.14299086
-0.13448041
-0.12610463
-0.11791366
-0.10993953
-0.10220908
-0.094746865
-0.087573663
-0.080705979
-0.074156473
-0.067934338
-0.062045497
-0.056492795
-0.051276223
-0.046393173
-0.041838677
-0.037605666
-0.033685231
-0.030066876
-0.026738789
-0.023688088
-0.020901073
-0.018363459
-0.016060602
-0.013977702
-0.012099997
-0.010412935
-0.0089023377
-0.0075545429
-0.0063565267
-0.0052960936
-0.0043617969
-0.003543751
-0.0028316914
-0.0022216573
-0.0016967977
-0.0012856027
-0.00089410346
-0.00079180531
-0.00023702241
-0.0013481053
0.0017288483
-0.22587404
-0.20538886
-0.19251938
-0.18589843
-0.17893201
-0.17074536
-0.16219576
-0.153676
-0.14520267
-0.13676926
-0.1284234
-0.12022295
-0.11221106
-0.10442039
-0.096879459
-0.08961315
-0.082641832
-0.075981439
-0.069643943
-0.063637659
-0.057967455
-0.052635007
-0.047639076
-0.042975786
-0.03863891
-0.034620156
-0.030909453
-0.027495243
-0.024364753
-0.021504268
-0.01889939
-0.016535277
-0.014396868
-0.012469092
-0.010737051
-0.0091861992
-0.0078024932
-0.0065725221
-0.0054837043
-0.0045242093
-0.0036837693
-0.002951756
-0.0023237223
-0.0017827444
-0.0013553776
-0.00095173864
-0.00082344415
-0.00028027464
-0.0012621201
0.001550544
-0.2160134
-0.20463495
-0.19363711
-0.18554973
-0.17849395
-0.17108156
-0.16313819
-0.15498432
-0.14679888
-0.13860793
-0.13043917
-0.1223501
-0.11439622
-0.10662044
-0.099058612
-0.091742281
-0.084698115
-0.07794758
-0.071507374
-0.065389852
-0.059603313
-0.054152303
-0.049037943
-0.044258268
-0.039808561
-0.035681688
-0.031868432
-0.028357823
-0.025137454
-0.022193785
-0.019512435
-0.017078455
-0.014876573
-0.012891429
-0.011107782
-0.0095106977
-0.0080857212
-0.0068190139
-0.0056975621
-0.0047091004
-0.0038429271
-0.0030879947
-0.0024393127
-0.0018798387
-0.0014340704
-0.0010163219
-0.00085959355
-0.00032671872
-0.0011736228
0.0013657798
-0.19387544
-0.19858256
-0.1933094
-0.18440518
-0.17690265
-0.16989495
-0.16239484
-0.15453781
-0.14658973
-0.1386138
-0.13062958
-0.12268996
-0.11485423
-0.10716972
-0.099675443
-0.092405882
-0.085390675
-0.078654081
-0.072215316
-0.066088996
-0.060285447
-0.054811005
-0.049668355
-0.044856887
-0.040373043
-0.03621067
-0.032361367
-0.028814835
-0.025559201
-0.022581348
-0.019867211
-0.017402067
-0.015170795
-0.013158118
-0.011348826
-0.0097279677
-0.0082810343
-0.0069941032
-0.0058540485
-0.0048484773
-0.0039665097
-0.0031969834
-0.0025344452
-0.0019622895
-0.0015022538
-0.001074965
-0.0008907228
-0.00037312382
-0.0010831933
0.0011824591
-0.18332665
-0.1891476
-0.18567472
-0.17693611
-0.16973336
-0.1634774
-0.15677776
-0.14963462
-0.1423439
-0.13498064
-0.1275546
-0.12011433
-0.11272157
-0.10542734
-0.098274234
-0.091300545
-0.084539953
-0.078020724
-0.071765913
-0.065793775
-0.06011805
-0.05474825
-0.049689988
-0.044945333
-0.040513165
-0.036389538
-0.032568034
-0.029040121
-0.025795498
-0.022822427
-0.020108049
-0.017638687
-0.015400114
-0.013377816
-0.011557218
-0.0099238986
-0.0084637766
-0.0071632709
-0.0060095116
-0.0049903076
-0.0040948508
-0.0033121603
-0.0026363404
-0.0020518025
-0.0015765701
-0.0011402435
-0.00092430121
-0.00042764112
-0.00098232425
0.00098481256
-0.17458855
-0.17781004
-0.17553307
-0.1685125
-0.16216017
-0.15659812
-0.15066526
-0.14425216
-0.13762547
-0.13088031
-0.12402857
-0.11711261
-0.11019296
-0.10332249
-0.096545874
-0.089903802
-0.083432864
-0.077164539
-0.071125178
-0.065336316
-0.059814917
-0.054573594
-0.049620905
-0.044961688
-0.040597397
-0.036526455
-0.032744612
-0.029245299
-0.02601998
-0.023058487
-0.020349353
-0.017880114
-0.015637599
-0.013608198
-0.011778105
-0.010133538
-0.0086609458
-0.0073471754
-0.006179684
-0.0051465441
-0.0042370597
-0.0034404812
-0.0027504438
-0.0021525064
-0.0016606073
-0.0012142303
-0.00096332097
-0.00048903979
-0.00087396696
0.00076832669
-0.16491046
-0.16552325
-0.16369188
-0.15874739
-0.15362499
-0.14880558
-0.14366383
-0.13806244
-0.13217879
-0.12611372
-0.1198949
-0.11356275
-0.10717441
-0.10078341
-0.094436273
-0.088175667
-0.08204068
-0.076065758
-0.070280442
-0.064709553
-0.059373354
-0.054287713
-0.049464339
-0.044911073
-0.040632199
-0.036628782
-0.032899007
-0.029438535
-0.026240845
-0.023297584
-0.020598898
-0.018133743
-0.015890191
-0.013855701
-0.012017385
-0.010362233
-0.008877334
-0.007550058
-0.0063682694
-0.0053203685
-0.0043958223
-0.0035841472
-0.0028785306
-0.0022656815
-0.0017554324
-0.0012971291
-0.0010090214
-0.00055479752
-0.00076568062
0.00054306149
-0.15434134
-0.15307424
-0.15126491
-0.1480353
-0.14420613
-0.14019156
-0.13584683
-0.1310894
-0.12600271
-0.12066983
-0.11513389
-0.1094379
-0.10363486
-0.097777157
-0.09191223
-0.086084027
-0.080333376
-0.07469712
-0.06920763
-0.063892798
-0.058776098
-0.053876674
-0.04920949
-0.044785562
-0.040612221
-0.036693421
-0.033030048
-0.029620262
-0.026459834
-0.023542486
-0.020860224
-0.018403663
-0.016162328
-0.014124949
-0.012279726
-0.010614577
-0.0091173658
-0.0077761011
-0.0065791517
-0.0055153244
-0.0045743148
-0.0037459421
-0.0030230002
-0.0023932914
-0.0018627194
-0.0013899741
-0.0010629016
-0.00062428438
-0.00066350296
0.00031712206
-0.14255484
-0.14049592
-0.13880115
-0.13684585
-0.13418753
-0.13100895
-0.12745134
-0.12351855
-0.11923267
-0.11464954
-0.10982007
-0.10478895
-0.099604603
-0.094317062
-0.088973603
-0.083618396
-0.078292905
-0.073035381
-0.067880264
-0.062857943
-0.057994686
-0.053312628
-0.048829838
-0.044560456
-0.040514901
-0.036700113
-0.033119832
-0.029774902
-0.026663591
-0.023781915
-0.021123964
-0.018682224
-0.016447889
-0.01441115
-0.012561481
-0.010887892
-0.0093791695
-0.0080240911
-0.0068116427
-0.0057311296
-0.0047725581
-0.0039260952
-0.0031842251
-0.0025357529
-0.0019829841
-0.0014930816
-0.0011259437
-0.000697059
-0.00057342671
9.9161056e-05
-0.12986087
-0.12793112
-0.12658442
-0.12554123
-0.12384652
-0.1214776
-0.1186803
-0.11552616
-0.11201203
-0.10816745
-0.10404238
-0.099683194
-0.095132847
-0.09043626
-0.085639343
-0.080785739
-0.075916559
-0.071070318
-0.066282514
-0.061585221
-0.057006843
-0.052571996
-0.048301465
-0.044212261
-0.040317736
-0.036627758
-0.033148933
-0.02988486
-0.026836418
-0.024002062
-0.021378133
-0.01895917
-0.016738212
-0.014707097
-0.012856744
-0.011177418
-0.009658982
-0.0082911164
-0.0070635461
-0.0059661782
-0.0049894243
-0.0041238516
-0.0033617441
-0.0026927978
-0.0021161812
-0.0016063789
-0.0011988225
-0.00077270543
-0.00050135206
-0.00010151096
-0.11697516
-0.11562559
-0.11476755
-0.11438016
-0.11344101
-0.11180731
-0.10972078
-0.1072838
-0.10448964
-0.10135013
-0.097907368
-0.094205673
-0.09028489
-0.086184326
-0.081945054
-0.077608986
-0.073216254
-0.068804703
-0.064409813
-0.060064368
-0.055798086
-0.05163737
-0.04760516
-0.043720892
-0.040000523
-0.036456626
-0.033098536
-0.029932552
-0.026962169
-0.024188337
-0.02160974
-0.01922309
-0.017023411
-0.015004336
-0.013158382
-0.011477222
-0.009951935
-0.0085732431
-0.0073317347
-0.0062180265
-0.0052230395
-0.004337802
-0.0035545263
-0.0028636833
-0.0022618563
-0.0017295382
-0.0012819136
-0.00085101361
-0.00045229953
-0.00027604404
-0.10444085
-0.10375782
-0.10341565
-0.10352228
-0.1031712
-0.10217479
-0.10072985
-0.098940081
-0.096802021
-0.094317978
-0.091520278
-0.088447895
-0.085136172
-0.081620074
-0.077936092
-0.074121767
-0.070214822
-0.066251734
-0.062267127
-0.058293545
-0.054361125
-0.050497265
-0.046726379
-0.043069752
-0.039545476
-0.03616846
-0.032950501
-0.029900411
-0.027024189
-0.024325237
-0.021804588
-0.019461174
-0.017292088
-0.015292856
-0.013457712
-0.011779861
-0.01025173
-0.0088652042
-0.0076118576
-0.0064831254
-0.0054705449
-0.0045656746
-0.0037607948
-0.0030470488
-0.00241903
-0.0018619002
-0.0013751775
-0.00093198716
-0.0004296325
-0.00041729497
-0.092543566
-0.092446593
-0.092572851
-0.093067127
-0.093177384
-0.092715831
-0.091831534
-0.090614444
-0.089063382
-0.087175898
-0.084975233
-0.082493342
-0.079760298
-0.076805972
-0.073662398
-0.070362987
-0.066941506
-0.063431756
-0.05986675
-0.056278023
-0.052695291
-0.049146139
-0.04565572
-0.042246522
-0.038938214
-0.035747574
-0.032688479
-0.029771963
-0.027006318
-0.02439725
-0.021948065
-0.019659883
-0.017531877
-0.015561518
-0.013744827
-0.01207663
-0.010550802
-0.0091605022
-0.0078983945
-0.0067568358
-0.0057280853
-0.0048043051
-0.0039779869
-0.0032408708
-0.0025861536
-0.0020024233
-0.0014780828
-0.0010157377
-0.00043447765
-0.00052095662
-0.081423643
-0.081782669
-0.082291354
-0.083088223
-0.083559321
-0.083534875
-0.083125881
-0.082404451
-0.081368987
-0.080014122
-0.078355452
-0.076417567
-0.074224777
-0.07180168
-0.069175206
-0.066374386
-0.063429129
-0.060369633
-0.057226213
-0.054028647
-0.050805516
-0.047583847
-0.044388803
-0.041243404
-0.038168293
-0.035181587
-0.032298796
-0.0295328
-0.026893886
-0.024389842
-0.022026082
-0.019805815
-0.01773024
-0.015798759
-0.014009205
-0.012358074
-0.010840756
-0.0094517615
-0.0081849364
-0.0070336483
-0.0059909755
-0.0050497594
-0.0042028424
-0.0034425192
-0.0027611447
-0.0021496768
-0.0015895763
-0.0011023286
-0.00046543341
-0.00058639184
-0.07114155
-0.07182852
-0.072623571
-0.073645478
-0.074391743
-0.074714428
-0.074696406
-0.074393202
-0.073801126
-0.072912394
-0.071736276
-0.070290437
-0.068593316
-0.066664196
-0.064524816
-0.062199342
-0.059713488
-0.057093771
-0.054367167
-0.051560836
-0.048701535
-0.045815066
-0.042925926
-0.040057003
-0.0372293
-0.034461717
-0.031770896
-0.029171136
-0.026674362
-0.024290149
-0.022025792
-0.019886421
-0.017875147
-0.015993237
-0.014240306
-0.012614525
-0.011112831
-0.0097311364
-0.0084645334
-0.0073074742
-0.0062539404
-0.0052975263
-0.0044315552
-0.0036488694
-0.0029414702
-0.0023018655
-0.0017080979
-0.0011916096
-0.00051867334
-0.00061692583
-0.061709211
-0.062616933
-0.063609675
-0.06478561
-0.065731612
-0.066320229
-0.066613473
-0.066653131
-0.066433059
-0.065943329
-0.065187986
-0.064178563
-0.062927929
-0.061450195
-0.059762016
-0.057882642
-0.055833245
-0.05363635
-0.051315403
-0.048894434
-0.046397687
-0.043849115
-0.041271934
-0.038688278
-0.036118902
-0.033582916
-0.031097578
-0.028678139
-0.026337753
-0.024087438
-0.021936088
-0.019890528
-0.017955613
-0.016134354
-0.014428074
-0.012836579
-0.011358348
-0.0099907148
-0.0087300561
-0.0075719622
-0.0065113877
-0.0055427478
-0.0046599642
-0.0038564501
-0.0031242597
-0.0024568781
-0.0018316378
-0.0012830836
-0.00058848229
-0.00061940408
-0.053111832
-0.05415616
-0.055272088
-0.056540092
-0.057620145
-0.058402972
-0.058934774
-0.059246448
-0.059329807
-0.05917323
-0.058776546
-0.058146096
-0.057289766
-0.056216883
-0.0549393
-0.053471507
-0.051830133
-0.050033486
-0.048101228
-0.046054014
-0.043913134
-0.041700132
-0.039436379
-0.037142687
-0.03483899
-0.032544048
-0.0302752
-0.028048161
-0.025876873
-0.023773411
-0.021747937
-0.019808698
-0.017962071
-0.016212644
-0.014563326
-0.01301548
-0.01156908
-0.010222869
-0.0089745219
-0.0078207982
-0.0067576777
-0.0057804563
-0.0048837562
-0.0040616089
-0.0033064399
-0.002612363
-0.0019578431
-0.0013758512
-0.0006681594
-0.00060300569
-0.045318625
-0.046435276
-0.047615151
-0.048924216
-0.050083071
-0.050998517
-0.051704694
-0.052224058
-0.052547072
-0.052661036
-0.052562555
-0.052253766
-0.051738341
-0.051021406
-0.050110478
-0.04901563
-0.047749143
-0.046325158
-0.044759426
-0.043069036
-0.04127208
-0.039387304
-0.03743376
-0.035430442
-0.033395938
-0.031348129
-0.029303915
-0.027278975
-0.025287581
-0.023342445
-0.021454626
-0.019633475
-0.017886627
-0.016220031
-0.014638015
-0.013143378
-0.01173751
-0.010420513
-0.0091913442
-0.0080479424
-0.006987345
-0.0060057776
-0.005098648
-0.004260667
-0.0034848655
-0.0027658191
-0.002084162
-0.0014686464
-0.00075109877
-0.00057753095
-0.03828821
-0.039429383
-0.040628099
-0.041938469
-0.043131571
-0.044128459
-0.044954171
-0.045624752
-0.046130025
-0.046456864
-0.046599604
-0.046557168
-0.04632986
-0.045919317
-0.045329327
-0.044566047
-0.043637776
-0.04255472
-0.041328819
-0.03997355
-0.038503668
-0.036934904
-0.035283664
-0.033566714
-0.031800854
-0.030002612
-0.028187961
-0.026372065
-0.024569054
-0.022791846
-0.021051997
-0.019359608
-0.017723266
-0.016150023
-0.014645415
-0.013213517
-0.011857008
-0.010577271
-0.0093744983
-0.0082477902
-0.0071952539
-0.0062140782
-0.0053005227
-0.0044500426
-0.0036564327
-0.0029146925
-0.0022080086
-0.0015599512
-0.00083178254
-0.0005515958
-0.031973154
-0.033104556
-0.034289169
-0.035571396
-0.036764322
-0.037801595
-0.038701486
-0.039475283
-0.040112782
-0.040601022
-0.040932932
-0.041105153
-0.041115466
-0.040962779
-0.040647845
-0.040173513
-0.039544602
-0.038767765
-0.037851393
-0.036805489
-0.035641484
-0.034372013
-0.033010656
-0.031571675
-0.030069738
-0.028519626
-0.02693596
-0.025332941
-0.023724117
-0.02212217
-0.020538749
-0.018984326
-0.017468099
-0.015997929
-0.014580313
-0.01322039
-0.011921973
-0.010687608
-0.0095186369
-0.0084152791
-0.0073766974
-0.0064010582
-0.005485518
-0.0046263338
-0.003818161
-0.0030564645
-0.0023269156
-0.0016481475
-0.00090641739
-0.00053124101
-0.026323403
-0.027421571
-0.028569181
-0.029802664
-0.030970022
-0.03201595
-0.03295375
-0.03379126
-0.034518713
-0.03512379
-0.035598745
-0.035938754
-0.036139865
-0.036199001
-0.03611459
-0.035886832
-0.03551765
-0.035010638
-0.034371027
-0.033605629
-0.032722724
-0.031731905
-0.030643889
-0.029470304
-0.028223458
-0.026916094
-0.02556114
-0.024171453
-0.022759594
-0.021337605
-0.01991682
-0.0185077
-0.017119698
-0.015761161
-0.014439262
-0.013159966
-0.011928022
-0.010746977
-0.009619213
-0.0085459881
-0.0075274791
-0.0065628201
-0.0056500843
-0.0047863734
-0.0039672514
-0.0031887264
-0.0024386483
-0.0017316626
-0.00097305954
-0.00051934599
-0.02128858
-0.022338562
-0.023434351
-0.024605787
-0.025729904
-0.026761002
-0.027708755
-0.028578538
-0.029361348
-0.030045842
-0.030624171
-0.031090726
-0.031440502
-0.031669112
-0.031773337
-0.031751379
-0.031602884
-0.031328936
-0.030932083
-0.030416334
-0.029787113
-0.029051167
-0.028216442
-0.027291932
-0.026287496
-0.025213664
-0.024081423
-0.022901997
-0.021686621
-0.020446337
-0.019191794
-0.017933068
-0.016679512
-0.015439624
-0.01422095
-0.01303001
-0.011872258
-0.010752054
-0.0096726686
-0.0086362873
-0.0076440286
-0.0066959562
-0.0057910526
-0.0049272839
-0.0041011357
-0.0033092432
-0.0025412658
-0.0018090695
-0.0010312584
-0.00051593778
-0.016819871
-0.01781325
-0.018848733
-0.019950665
-0.021020229
-0.022020033
-0.022957093
-0.023835038
-0.024645818
-0.025379274
-0.026027865
-0.02658572
-0.027047335
-0.027407587
-0.027662205
-0.027808003
-0.02784294
-0.027766155
-0.027578029
-0.027280225
-0.02687569
-0.026368625
-0.025764416
-0.02506954
-0.024291444
-0.023438389
-0.022519294
-0.021543546
-0.020520811
-0.019460834
-0.018373259
-0.017267446
-0.016152308
-0.015036166
-0.013926629
-0.012830488
-0.011753647
-0.010701064
-0.0096767135
-0.0086835708
-0.0077235905
-0.006797698
-0.0059057485
-0.0050465661
-0.004217546
-0.0034160215
-0.0026331412
-0.0018791386
-0.0010814336
-0.00051914709
-0.012871081
-0.013804355
-0.014775914
-0.015805449
-0.016814279
-0.017772154
-0.018684119
-0.019552565
-0.020370471
-0.021128948
-0.021821037
-0.02244098
-0.022983189
-0.023442262
-0.023813369
-0.024092461
-0.024276349
-0.024362759
-0.024350416
-0.024239114
-0.024029755
-0.023724361
-0.023326055
-0.02283902
-0.022268425
-0.02162033
-0.020901563
-0.020119584
-0.019282329
-0.018398047
-0.017475123
-0.016521921
-0.015546617
-0.014557055
-0.013560603
-0.012564043
-0.011573466
-0.01059419
-0.0096306971
-0.0086865799
-0.0077644982
-0.0068661425
-0.0059921754
-0.0051422454
-0.0043146262
-0.0035073976
-0.0027129706
-0.0019408586
-0.0011242699
-0.00052635472
-0.0094002006
-0.010273403
-0.01118099
-0.012138654
-0.013084532
-0.01399449
-0.01487209
-0.01571882
-0.016528684
-0.017294066
-0.018008735
-0.018667289
-0.019264351
-0.019794574
-0.020252948
-0.020634991
-0.020936818
-0.021155214
-0.021287722
-0.02133273
-0.021289532
-0.02115837
-0.020940455
-0.020637968
-0.020254025
-0.019792637
-0.019258626
-0.018657535
-0.017995517
-0.0172792
-0.016515549
-0.015711721
-0.014874917
-0.014012239
-0.013130552
-0.012236359
-0.011335681
-0.010433962
-0.0095359737
-0.008645743
-0.0077664809
-0.0069005213
-0.0060492438
-0.0052130622
-0.0043910814
-0.0035821494
-0.0027798007
-0.0019934569
-0.0011603406
-0.00053510388
-0.0063692255
-0.007185022
-0.0080312899
-0.0089202529
-0.0098041103
-0.010663943
-0.011502164
-0.012319588
-0.013111172
-0.013870512
-0.014592158
-0.015271205
-0.015902664
-0.016481466
-0.017002699
-0.017461767
-0.017854452
-0.018176987
-0.018426145
-0.018599325
-0.018694625
-0.018710909
-0.018647847
-0.018505942
-0.018286546
-0.017991842
-0.017624813
-0.017189188
-0.01668937
-0.016130344
-0.015517576
-0.014856887
-0.014154333
-0.013416078
-0.012648262
-0.011856876
-0.011047643
-0.010225901
-0.0093965032
-0.0085637197
-0.0077311458
-0.0069016203
-0.0060771286
-0.0052587685
-0.0044464127
-0.0036396714
-0.0028331195
-0.0020364635
-0.0011900205
-0.00054358165
-0.0037459472
-0.0045085438
-0.0052978164
-0.0061229197
-0.0069478094
-0.0077579986
-0.0085549918
-0.0093390714
-0.010106053
-0.010850631
-0.011568128
-0.012254189
-0.012904306
-0.013513818
-0.014078089
-0.01459263
-0.015053158
-0.015455656
-0.015796457
-0.016072325
-0.016280532
-0.016418925
-0.016485991
-0.016480899
-0.016403538
-0.016254536
-0.016035258
-0.01574779
-0.015394904
-0.014980001
-0.014507049
-0.01398049
-0.013405144
-0.012786104
-0.012128626
-0.011438008
-0.010719478
-0.0099780728
-0.0092185321
-0.008445184
-0.0076618417
-0.0068717019
-0.0060772318
-0.005280115
-0.0044809145
-0.0036799688
-0.002872833
-0.0020696879
-0.0012135097
-0.00055066153
-0.0015046954
-0.0022198948
-0.0029581248
-0.0037259147
-0.0044969837
-0.0052605582
-0.0060174043
-0.0067673722
-0.0075070153
-0.0082319942
-0.0089383438
-0.0096222536
-0.010279722
-0.010906549
-0.011498471
-0.012051243
-0.012560695
-0.013022777
-0.013433634
-0.013789674
-0.014087644
-0.014324698
-0.01449846
-0.014607089
-0.014649322
-0.014624517
-0.014532681
-0.014374478
-0.014151226
-0.013864877
-0.013517983
-0.01311364
-0.012655424
-0.01214731
-0.011593579
-0.010998722
-0.010367332
-0.0097039934
-0.0090131694
-0.008299088
-0.0075656256
-0.0068161944
-0.0060536158
-0.0052800498
-0.0044966589
-0.0037044503
-0.0028998942
-0.0020937087
-0.0012313152
-0.00055597083
0.00037863631
-0.00029498663
-0.00098838337
-0.0017057067
-0.0024287296
-0.0031497866
-0.0038690426
-0.0045859819
-0.0052977699
-0.0060008877
-0.0066919962
-0.0073677855
-0.0080247352
-0.0086591081
-0.0092670388
-0.009844597
-0.010387825
-0.010892778
-0.011355584
-0.0117725
-0.012139979
-0.012454737
-0.01271381
-0.012914626
-0.013055056
-0.013133469
-0.013148775
-0.013100461
-0.012988608
-0.012813899
-0.012577615
-0.012281612
-0.011928281
-0.011520495
-0.011061546
-0.010555065
-0.010004931
-0.0094151726
-0.0087898609
-0.0081329952
-0.0074483847
-0.0067395278
-0.0060094772
-0.0052607575
-0.0044950297
-0.0037138887
-0.002914639
-0.0021085167
-0.0012432529
-0.00055901321
0.0019012314
0.001261387
0.00060480526
-7.0916087e-05
-0.00075396774
-0.0014391284
-0.0021260671
-0.0028139709
-0.0035004955
-0.0041827863
-0.0048580222
-0.0055233199
-0.0061755809
-0.006811485
-0.0074275462
-0.008020155
-0.0085856057
-0.0091201288
-0.0096199348
-0.010081264
-0.010500443
-0.010873938
-0.011198418
-0.011470817
-0.011688393
-0.011848786
-0.011950073
-0.01199082
-0.011970112
-0.01188759
-0.011743463
-0.01153851
-0.011274077
-0.010952042
-0.010574777
-0.010145089
-0.009666147
-0.0091414007
-0.0085744792
-0.0079690846
-0.0073288744
-0.0066573389
-0.0059576614
-0.0052326279
-0.0044842949
-0.0037147485
-0.0029220226
-0.0021178
-0.0012519274
-0.00056110343
0.003103852
0.0024917843
0.0018653354
0.0012237295
0.00057375143
-8.1335588e-05
-0.0007408156
-0.0014036253
-0.0020677911
-0.0027309765
-0.0033907705
-0.0040446337
-0.0046898135
-0.0053233394
-0.0059420539
-0.0065426385
-0.0071216329
-0.0076754604
-0.0082004612
-0.0086929323
-0.0091491728
-0.0095655341
-0.0099384739