/*--------------------------------*- C++ -*----------------------------------*\
  =========                 |
  \\      /  F ield         | OpenFOAM: The Open Source CFD Toolbox
   \\    /   O peration     | Website:  https://openfoam.org
    \\  /    A nd           | Version:  6
     \\/     M anipulation  |
\*---------------------------------------------------------------------------*/
FoamFile
{
    version     2.0;
    format      ascii;
    class       volScalarField;
    location    "227";
    object      pMean;
}
// * * * * * * * * * * * * * * * * * * * * * * * * * * * * * * * * * * * * * //

dimensions      [0 2 -2 0 0 0 0];

internalField   nonuniform List<scalar> 
9200
(
-0.39203679
-0.38016048
-0.3695631
-0.36019189
-0.35102667
-0.34207251
-0.33341171
-0.32500938
-0.31679507
-0.30869512
-0.30063614
-0.29254984
-0.28438012
-0.27609018
-0.26767274
-0.25916729
-0.25065442
-0.24222518
-0.23488895
-0.23286566
-0.41033602
-0.39601015
-0.38347464
-0.37257687
-0.36202401
-0.35179013
-0.34194792
-0.33243232
-0.32314193
-0.3139784
-0.30485015
-0.29567811
-0.28640311
-0.2769916
-0.26744069
-0.2577816
-0.24805047
-0.23825264
-0.22906399
-0.22262867
-0.42898586
-0.41219819
-0.3977773
-0.38542588
-0.37353967
-0.36204381
-0.35099031
-0.34027735
-0.32977186
-0.31935593
-0.30893013
-0.29841876
-0.28777624
-0.27698965
-0.26607793
-0.25508695
-0.24406182
-0.23301633
-0.22234874
-0.21317286
-0.44753438
-0.42831303
-0.41207651
-0.39833302
-0.38513041
-0.37232925
-0.35995421
-0.34786764
-0.33591428
-0.32397332
-0.3119591
-0.29982334
-0.28755753
-0.27518993
-0.26277819
-0.25039874
-0.23812285
-0.2259919
-0.21427413
-0.20371512
-0.46533312
-0.44378987
-0.42585772
-0.41079817
-0.39628504
-0.3821047
-0.36825591
-0.3545776
-0.34091416
-0.3271699
-0.31330282
-0.29931977
-0.28527131
-0.27124101
-0.25733159
-0.24365056
-0.23029009
-0.21730836
-0.20489414
-0.19356072
-0.48154022
-0.45789197
-0.4384421
-0.4221542
-0.40632036
-0.39065446
-0.37514363
-0.35963056
-0.34399445
-0.3282012
-0.31228467
-0.29633029
-0.28045973
-0.26481241
-0.24952727
-0.23472807
-0.22050862
-0.20692193
-0.19409349
-0.18236496
-0.49513544
-0.46971716
-0.44898837
-0.43157056
-0.41439338
-0.39711591
-0.37974323
-0.3621637
-0.34433605
-0.32632646
-0.3082715
-0.29034721
-0.27274389
-0.25564271
-0.23919776
-0.22352562
-0.20869861
-0.19474315
-0.18172441
-0.16984634
-0.50494325
-0.47822262
-0.45652674
-0.43810184
-0.41956733
-0.40056326
-0.38115676
-0.36133458
-0.34118285
-0.3209016
-0.30074561
-0.28097945
-0.26184606
-0.24354438
-0.22621756
-0.20995148
-0.19477808
-0.18068355
-0.16767404
-0.15583711
-0.50961287
-0.48212188
-0.45975854
-0.44040032
-0.4204574
-0.39961446
-0.37806116
-0.3559392
-0.33349996
-0.31109072
-0.28907591
-0.26778456
-0.24748085
-0.22835018
-0.21049901
-0.19396467
-0.17872874
-0.16473365
-0.15193073
-0.14030759
-0.50779128
-0.47999117
-0.45712767
-0.43679374
-0.4153394
-0.39257809
-0.36888651
-0.34460484
-0.32016072
-0.29602928
-0.27264563
-0.25035712
-0.22940653
-0.20993356
-0.19198859
-0.17555272
-0.16055845
-0.14691058
-0.13451298
-0.12326595
-0.27460075
-0.2790404
-0.28118326
-0.28161131
-0.28105494
-0.27968744
-0.27760062
-0.27488777
-0.27162333
-0.2678642
-0.26365683
-0.259041
-0.254052
-0.24872207
-0.24308164
-0.23716181
-0.23099578
-0.22460635
-0.2179944
-0.21124968
-0.27748358
-0.28149021
-0.28331736
-0.28352325
-0.28278233
-0.28125919
-0.27904357
-0.27622461
-0.27287284
-0.26904213
-0.26477631
-0.2601129
-0.25508518
-0.24972323
-0.24405476
-0.2381097
-0.23192865
-0.22553274
-0.21881436
-0.21174695
-0.28309952
-0.286262
-0.28747529
-0.28724682
-0.28614433
-0.28431685
-0.28185009
-0.27882509
-0.27530484
-0.27133717
-0.26696069
-0.26220841
-0.25710951
-0.25169001
-0.24597254
-0.23998387
-0.2337758
-0.22736848
-0.22046042
-0.21278532
-0.29118484
-0.29314286
-0.29346977
-0.29260292
-0.29096307
-0.2886794
-0.28583295
-0.28249376
-0.27871441
-0.27453423
-0.26998448
-0.26509155
-0.25987874
-0.25436604
-0.24856899
-0.24250885
-0.2362488
-0.22981401
-0.22265739
-0.21413507
-0.30140762
-0.30186561
-0.30106766
-0.29937137
-0.29702284
-0.29413039
-0.29077096
-0.28700213
-0.28286418
-0.27838647
-0.27359131
-0.26849627
-0.26311665
-0.25746515
-0.25154894
-0.24538065
-0.23903077
-0.23253798
-0.22510078
-0.21555723
-0.3134239
-0.31215324
-0.31002941
-0.30732994
-0.30411068
-0.30046072
-0.29645517
-0.29213943
-0.28754083
-0.28267629
-0.27755665
-0.2721896
-0.26658116
-0.26073523
-0.25464968
-0.24832574
-0.24183338
-0.23523071
-0.22749296
-0.21682697
-0.32692815
-0.32375844
-0.32014452
-0.31629041
-0.31205473
-0.307511
-0.3027364
-0.29776379
-0.29260495
-0.28726363
-0.28173849
-0.27602541
-0.27011937
-0.26401447
-0.25769945
-0.25116399
-0.24447076
-0.2377004
-0.22966918
-0.21789297
-0.34168304
-0.33648783
-0.33125491
-0.32612423
-0.32075486
-0.31520791
-0.30956304
-0.30384001
-0.29803516
-0.29213715
-0.28612974
-0.2799941
-0.27371131
-0.2672633
-0.26062932
-0.25379059
-0.24680754
-0.23980684
-0.23156407
-0.21890671
-0.35751855
-0.350193
-0.34323493
-0.33673012
-0.33013232
-0.32348922
-0.31688501
-0.31032599
-0.30379041
-0.2972489
-0.29066701
-0.28400736
-0.27723206
-0.2703031
-0.26317788
-0.25581117
-0.24822912
-0.24054147
-0.23152319
-0.21771523
-0.37432251
-0.36475143
-0.3559562
-0.34797331
-0.34003916
-0.33218791
-0.3245083
-0.31699119
-0.30959462
-0.30226999
-0.29496483
-0.28762548
-0.28020022
-0.27263936
-0.26489006
-0.25689201
-0.24859266
-0.23979314
-0.22887806
-0.21286304
-0.20361357
-0.19411308
-0.184639
-0.17526619
-0.16593742
-0.15669331
-0.14758975
-0.13866289
-0.12994151
-0.12145352
-0.1132239
-0.10527364
-0.09762026
-0.090278236
-0.083259065
-0.07657135
-0.070220949
-0.064211133
-0.05854272
-0.053214229
-0.048222037
-0.043560553
-0.039222398
-0.035198604
-0.031478805
-0.028051448
-0.024904
-0.022023148
-0.019395006
-0.017005306
-0.014839581
-0.012883338
-0.011122216
-0.0095421333
-0.0081294181
-0.0068709327
-0.0057541897
-0.0047674436
-0.003899867
-0.003141452
-0.0024838938
-0.0019184114
-0.0014436013
-0.00104234
-0.00075479677
-0.00046193583
-0.00053708349
5.6270984e-05
-0.0018003399
0.002718451
-0.2048406
-0.19491519
-0.18531737
-0.17595115
-0.16659377
-0.15730769
-0.14816892
-0.13920975
-0.13045611
-0.12193653
-0.11367641
-0.10569661
-0.098014603
-0.090644945
-0.08359919
-0.076885986
-0.070511235
-0.064478245
-0.058787866
-0.053438631
-0.048426925
-0.043747152
-0.039391922
-0.035352241
-0.031617715
-0.028176753
-0.025016777
-0.02212443
-0.019485772
-0.017086483
-0.01491204
-0.012947892
-0.011179624
-0.0095930959
-0.008174582
-0.0069108896
-0.0057894792
-0.0047985544
-0.0039272387
-0.0031654768
-0.0025049172
-0.0019367349
-0.0014594644
-0.0010559772
-0.00076617197
-0.00047160398
-0.00054295136
4.8563139e-05
-0.0017877
0.0026893129
-0.20735537
-0.19653097
-0.18669015
-0.17738014
-0.16798108
-0.15861328
-0.14940739
-0.14038595
-0.13156746
-0.1229828
-0.11465888
-0.10661645
-0.098873096
-0.091443717
-0.08434015
-0.077571248
-0.071143095
-0.065059153
-0.059320385
-0.053925405
-0.048870642
-0.044150516
-0.039757623
-0.035682931
-0.031915985
-0.028445116
-0.025257654
-0.022340134
-0.019678504
-0.017258318
-0.015064928
-0.013083654
-0.01129995
-0.0096995474
-0.0082685926
-0.0069937696
-0.0058624188
-0.0048626283
-0.0039834112
-0.0032146054
-0.0025477555
-0.0019739372
-0.0014915583
-0.0010834585
-0.00078902564
-0.00049090271
-0.00055468618
3.3408555e-05
-0.001762744
0.0026316195
-0.21092145
-0.19866607
-0.18847504
-0.1793515
-0.16994335
-0.16047402
-0.15119029
-0.14209745
-0.13319765
-0.12452711
-0.11611689
-0.10798793
-0.10015811
-0.092643249
-0.085455929
-0.078605539
-0.072098615
-0.065939002
-0.060127967
-0.054664347
-0.049544726
-0.044763616
-0.040313652
-0.036185791
-0.032369525
-0.028853098
-0.025623722
-0.022667788
-0.019971084
-0.017518989
-0.015296668
-0.01328925
-0.011481992
-0.0098604297
-0.0084105167
-0.007118747
-0.005972277
-0.004959017
-0.0040678095
-0.0032883276
-0.0026119567
-0.0020296184
-0.001539529
-0.0011244724
-0.00082308287
-0.00051959199
-0.00057211036
1.1045914e-05
-0.0017259385
0.0025465797
-0.21522813
-0.20098663
-0.1903472
-0.18161348
-0.17228508
-0.16271895
-0.15336876
-0.14422054
-0.13524419
-0.12648319
-0.11797766
-0.10974998
-0.10181858
-0.094200845
-0.086910863
-0.079959121
-0.073353033
-0.067097196
-0.061193487
-0.055641219
-0.050437332
-0.045576587
-0.041051775
-0.036853928
-0.032972544
-0.029395811
-0.026110832
-0.023103853
-0.020360476
-0.017865875
-0.015604984
-0.013562693
-0.011724007
-0.010074209
-0.0085990001
-0.0072846235
-0.0061179918
-0.0050867786
-0.0041795987
-0.0033859041
-0.0026968664
-0.0021032006
-0.0016028666
-0.0011785711
-0.0008679534
-0.00055732555
-0.00059499337
-1.8147576e-05
-0.001678073
0.0024360779
-0.21985727
-0.20316217
-0.19199457
-0.18388777
-0.17479093
-0.16516679
-0.15577674
-0.14661021
-0.13758626
-0.12874981
-0.1201552
-0.11182978
-0.10379328
-0.096065145
-0.088661872
-0.081595888
-0.074876119
-0.068508428
-0.062495752
-0.056838255
-0.051533541
-0.04657687
-0.04196139
-0.037678362
-0.033717402
-0.030066725
-0.02671338
-0.023643492
-0.020842489
-0.018295325
-0.015986687
-0.013901184
-0.012023533
-0.010338716
-0.0088321268
-0.007489706
-0.006298067
-0.0052445916
-0.0043176123
-0.0035063068
-0.0028015803
-0.0021938903
-0.0016808768
-0.0012451501
-0.00092311682
-0.00060364912
-0.00062304069
-5.3698793e-05
-0.0016201717
0.0023025642
-0.22436745
-0.20498241
-0.19318304
-0.18587017
-0.17723114
-0.16766315
-0.15827446
-0.14913134
-0.14010653
-0.13122926
-0.1225664
-0.11415568
-0.10602067
-0.098183454
-0.090663741
-0.083476927
-0.076634317
-0.070143709
-0.06400966
-0.058233673
-0.052814411
-0.047747962
-0.043028089
-0.038646491
-0.034593063
-0.030856163
-0.02742287
-0.024279241
-0.021410561
-0.018801573
-0.016436704
-0.014300268
-0.01237666
-0.010650519
-0.0091068919
-0.0077313676
-0.0065102108
-0.0054304611
-0.0044801188
-0.0036480375
-0.0029248066
-0.0023005787
-0.0017726118
-0.0013234071
-0.00098790223
-0.00065800382
-0.00065589945
-9.50986e-05
-0.0015534153
0.0021489067
-0.22847237
-0.20682334
-0.19413075
-0.18737229
-0.17938521
-0.17010943
-0.16080613
-0.15171565
-0.1427307
-0.1338534
-0.12514975
-0.11667056
-0.10844767
-0.10050711
-0.092872236
-0.085562216
-0.078591581
-0.07197073
-0.06570638
-0.059801832
-0.054257213
-0.049069765
-0.044234142
-0.039742702
-0.035585798
-0.031752068
-0.028228724
-0.025001832
-0.022056576
-0.019377517
-0.016948831
-0.014754531
-0.012778667
-0.011005513
-0.0094197338
-0.0080065259
-0.0067517643
-0.0056421026
-0.0046651643
-0.0038094337
-0.0030651392
-0.002422085
-0.0018770878
-0.0014125335
-0.0010616553
-0.00071986806
-0.00069327332
-0.00014190625
-0.0014791223
0.0019783431
-0.22983429
-0.20887989
-0.19548941
-0.18831872
-0.18081851
-0.17212401
-0.16309601
-0.15412969
-0.14524318
-0.13643176
-0.12774485
-0.11924137
-0.11096477
-0.10294738
-0.095216924
-0.087797017
-0.080706336
-0.073958784
-0.067564032
-0.061527894
-0.055852607
-0.050537138
-0.045577528
-0.040967211
-0.036697349
-0.032757153
-0.029134199
-0.025814739
-0.022783998
-0.020026452
-0.017526089
-0.015266658
-0.013231884
-0.01140567
-0.0097722791
-0.008316492
-0.0070237564
-0.005880299
-0.0048733215
-0.0039908916
-0.0032228279
-0.0025585387
-0.0019943363
-0.0015124757
-0.0011442725
-0.00078903859
-0.00073513821
-0.00019350407
-0.0013990535
0.0017951014
-0.22018945
-0.20824458
-0.1967507
-0.18818628
-0.18063779
-0.17273439
-0.16432332
-0.15572969
-0.14713224
-0.13855922
-0.13004135
-0.12163808
-0.11340591
-0.10538813
-0.097620406
-0.090133557
-0.082953016
-0.076098588
-0.069584965
-0.06342222
-0.057616178
-0.052168778
-0.047078474
-0.042340627
-0.037947892
-0.033890599
-0.030157119
-0.026734224
-0.023607425
-0.020761292
-0.018179753
-0.015846364
-0.013744566
-0.011857904
-0.010170228
-0.0086658745
-0.0073298254
-0.0061478325
-0.0051066241
-0.0041937952
-0.0033986989
-0.002710288
-0.002124311
-0.0016228427
-0.0012351527
-0.00086457208
-0.00078092985
-0.00024783015
-0.0013156085
0.0016048569
-0.19842158
-0.20221304
-0.19634517
-0.18702789
-0.17908011
-0.17160212
-0.16365028
-0.1553689
-0.1470212
-0.13867207
-0.13034471
-0.12209441
-0.11398172
-0.10605463
-0.098352295
-0.090908793
-0.083752807
-0.076907191
-0.070389384
-0.064211922
-0.058382821
-0.05290595
-0.047781436
-0.043006081
-0.038573762
-0.034475832
-0.030701508
-0.027238244
-0.02407209
-0.021188031
-0.018570297
-0.016202656
-0.014068676
-0.012151963
-0.010436375
-0.0089062071
-0.0075463637
-0.0063424898
-0.0052811798
-0.0043498795
-0.0035377424
-0.002833586
-0.002232665
-0.0017174798
-0.0013144353
-0.00093328999
-0.00082056246
-0.00030171398
-0.0012285993
0.00141598
-0.18751634
-0.19241405
-0.1883887
-0.17933306
-0.17175571
-0.16507749
-0.15796959
-0.15044246
-0.14278665
-0.13507882
-0.1273333
-0.11960153
-0.11194675
-0.10442102
-0.09706748
-0.089924451
-0.083025071
-0.076396606
-0.070060718
-0.06403394
-0.058328031
-0.052950328
-0.047904143
-0.04318918
-0.038801942
-0.034736145
-0.030983111
-0.027532164
-0.024370996
-0.021486024
-0.018862722
-0.016485918
-0.014340086
-0.012409587
-0.010678908
-0.0091328522
-0.007756733
-0.0065365126
-0.0054590139
-0.0045118584
-0.0036842376
-0.0029651308
-0.0023492814
-0.0018202613
-0.0014004427
-0.0010091937
-0.00086222536
-0.00036478219
-0.0011281231
0.0012111927
-0.17834072
-0.18076404
-0.17798158
-0.17069017
-0.16401652
-0.15807696
-0.15177466
-0.14501383
-0.13805459
-0.13099283
-0.1238453
-0.11665762
-0.10949198
-0.1024025
-0.09543471
-0.088629641
-0.082023679
-0.075647647
-0.069526841
-0.063681406
-0.058126627
-0.052873229
-0.047927724
-0.043292809
-0.038967757
-0.034948818
-0.03122962
-0.027801559
-0.024654176
-0.021775527
-0.019152516
-0.016771219
-0.014617177
-0.012675661
-0.010931919
-0.0093713868
-0.0079798872
-0.0067437897
-0.0056502201
-0.0046870389
-0.0038435165
-0.0031088471
-0.0024772267
-0.0019334543
-0.0014954188
-0.0010932227
-0.00090842829
-0.00043471235
-0.0010176307
0.00098585152
-0.16822397
-0.16819802
-0.16591927
-0.16072139
-0.15531607
-0.15016294
-0.14468915
-0.13877317
-0.13258746
-0.12623286
-0.11974149
-0.11315718
-0.10653892
-0.099941637
-0.093412938
-0.086996126
-0.080730381
-0.0746498
-0.068783186
-0.063154274
-0.057781949
-0.052680465
-0.047859738
-0.043325695
-0.039080637
-0.035123625
-0.031450865
-0.028056096
-0.024930972
-0.022065426
-0.019448027
-0.017066306
-0.014907061
-0.012956643
-0.011201212
-0.0096269651
-0.0082203492
-0.0069682362
-0.0058581342
-0.0048782066
-0.0040178517
-0.0032665136
-0.0026178561
-0.0020579185
-0.0016000407
-0.0011851571
-0.00096013196
-0.00050841359
-0.00090483199
0.00075027255
-0.15723482
-0.1554869
-0.15330123
-0.14983036
-0.14574683
-0.141439
-0.13679787
-0.13175624
-0.12639519
-0.12079777
-0.11501112
-0.10908157
-0.10306402
-0.097012312
-0.090975166
-0.084997389
-0.079120176
-0.073380294
-0.067809664
-0.062435382
-0.057279828
-0.052360799
-0.047691716
-0.043281904
-0.039136915
-0.035258869
-0.031646821
-0.028297129
-0.025203834
-0.022359017
-0.019753163
-0.017375493
-0.015214282
-0.013257157
-0.011491364
-0.0099040175
-0.0084823216
-0.0072137651
-0.0060863343
-0.0050885718
-0.0042100681
-0.0034405512
-0.0027732033
-0.0021952489
-0.0017156292
-0.0012856649
-0.0010185395
-0.00058486211
-0.0007956265
0.00051261434
-0.14508518
-0.14267205
-0.14066927
-0.13848738
-0.13559771
-0.13216115
-0.12834003
-0.1241509
-0.11961608
-0.1147916
-0.10973152
-0.10448396
-0.099099494
-0.093629566
-0.088122738
-0.082624224
-0.077176099
-0.071816791
-0.06658055
-0.061497238
-0.056592294
-0.051886769
-0.047397426
-0.043136944
-0.039114156
-0.035334348
-0.031799577
-0.02850901
-0.025459284
-0.022644851
-0.020058336
-0.01769087
-0.015532419
-0.01357208
-0.01179837
-0.010199485
-0.0087635342
-0.0074787512
-0.0063337116
-0.0053174278
-0.0044197619
-0.003630768
-0.0029432277
-0.0023454567
-0.0018423181
-0.0013946749
-0.0010843239
-0.00066321849
-0.00069584363
0.000281448
-0.13209839
-0.12990022
-0.12830142
-0.12705067
-0.12514599
-0.12254941
-0.11951834
-0.11613364
-0.11239394
-0.10832957
-0.10399297
-0.099433349
-0.094696105
-0.089827941
-0.084875995
-0.079884984
-0.0748968
-0.069950374
-0.065081257
-0.060321246
-0.055698174
-0.051235813
-0.046953889
-0.042868168
-0.03899062
-0.035329636
-0.031890291
-0.028674638
-0.025682029
-0.022909439
-0.020351802
-0.018002344
-0.015852902
-0.013894229
-0.012116288
-0.010508518
-0.0090600837
-0.0077601003
-0.0065978521
-0.0055629214
-0.0046455349
-0.0038361208
-0.0031271699
-0.0025079663
-0.0019797641
-0.0015117968
-0.0011579213
-0.00074270068
-0.000611329
6.5934714e-05
-0.11897854
-0.11741441
-0.11634703
-0.11577427
-0.11464661
-0.11281171
-0.11051802
-0.10787445
-0.1048765
-0.10153724
-0.097900911
-0.094014335
-0.089919425
-0.08565739
-0.081270963
-0.076803159
-0.072294925
-0.067784681
-0.063308188
-0.058898194
-0.054584085
-0.050391662
-0.046343039
-0.042456629
-0.038747211
-0.035226063
-0.031901153
-0.028777367
-0.025856786
-0.023138967
-0.020621258
-0.018299103
-0.016166355
-0.014215574
-0.012438323
-0.010825439
-0.0093672863
-0.008053995
-0.0068756828
-0.0058226085
-0.004885465
-0.0040551118
-0.0033238779
-0.0026818851
-0.0021273537
-0.0016365095
-0.0012395799
-0.00082282526
-0.00054719697
-0.00012523528
-0.10625279
-0.10539016
-0.10487102
-0.10481477
-0.10429636
-0.10312221
-0.10149386
-0.099519649
-0.097198186
-0.094533185
-0.091558901
-0.088316493
-0.084843271
-0.081175904
-0.077352498
-0.073411996
-0.069393096
-0.065332928
-0.061266548
-0.057226676
-0.053243345
-0.049343585
-0.045551209
-0.0418867
-0.03836718
-0.035006454
-0.031815115
-0.028800713
-0.025967954
-0.023318947
-0.020853464
-0.018569226
-0.01646219
-0.014526832
-0.012756438
-0.011143369
-0.0096793221
-0.0083555674
-0.0071631767
-0.006093193
-0.0051368824
-0.0042855997
-0.0035316555
-0.002865888
-0.0022841154
-0.0017681177
-0.0013292709
-0.0009034602
-0.00050709172
-0.00028500595
-0.094195521
-0.093944161
-0.093918433
-0.094270417
-0.094233178
-0.093614808
-0.092568235
-0.091186947
-0.089471449
-0.087420628
-0.085059454
-0.082421795
-0.079539532
-0.076444167
-0.073169205
-0.069749416
-0.066219746
-0.062614833
-0.058968228
-0.055311792
-0.051675336
-0.048086296
-0.044569442
-0.041146675
-0.037836902
-0.034655988
-0.031616787
-0.028729224
-0.02600043
-0.023434933
-0.021034864
-0.018800202
-0.01672903
-0.014817798
-0.013061593
-0.011454398
-0.009989347
-0.0086589619
-0.0074553776
-0.0063705247
-0.005396348
-0.0045247687
-0.0037482267
-0.0030581822
-0.0024486889
-0.0019057176
-0.0014266271
-0.0009847492
-0.00049264049
-0.00040897535
-0.08294023
-0.083165018
-0.083541771
-0.084214155
-0.084555506
-0.084392807
-0.083840321
-0.082972977
-0.081790505
-0.08028869
-0.078484636
-0.076404603
-0.074074512
-0.071520471
-0.068770811
-0.065855842
-0.062806619
-0.059654315
-0.056429956
-0.053163764
-0.049884569
-0.046619434
-0.043393344
-0.040228936
-0.037146292
-0.034162812
-0.031293161
-0.028549272
-0.025940421
-0.023473336
-0.02115236
-0.018979641
-0.016955347
-0.015077903
-0.01334423
-0.01174999
-0.01028983
-0.0089576073
-0.0077466153
-0.0066497644
-0.0056597782
-0.0047692186
-0.0039708006
-0.0032565468
-0.0026193504
-0.0020481876
-0.0015309138
-0.0010669679
-0.00050317067
-0.00049612506
-0.072543086
-0.073112937
-0.073792754
-0.074705296
-0.075337299
-0.075538074
-0.075393183
-0.074960433
-0.074237178
-0.073216576
-0.071909173
-0.070334069
-0.068511114
-0.066460946
-0.064206605
-0.061773473
-0.059188361
-0.056478752
-0.053672435
-0.05079716
-0.047880055
-0.044947109
-0.042022816
-0.039129869
-0.036288899
-0.033518275
-0.030833974
-0.028249518
-0.025775969
-0.023421976
-0.021193877
-0.019095833
-0.017129999
-0.015296718
-0.013594729
-0.012021391
-0.010572901
-0.0092445152
-0.0080307546
-0.0069255886
-0.0059226087
-0.0050150925
-0.0041961679
-0.0034583997
-0.0027940589
-0.0021941821
-0.0016410199
-0.0011503425
-0.00053577696
-0.00054905204
-0.063013066
-0.063818504
-0.064710253
-0.0657897
-0.066634831
-0.067115836
-0.067296868
-0.067221545
-0.066884545
-0.066276691
-0.065403081
-0.064276457
-0.0629109
-0.061321716
-0.059526731
-0.057546321
-0.055402708
-0.053119354
-0.050720524
-0.048230925
-0.045675291
-0.043077886
-0.040462061
-0.037849921
-0.03526202
-0.032717115
-0.030231968
-0.02782122
-0.025497313
-0.023270483
-0.021148785
-0.019138182
-0.017242657
-0.015464364
-0.013803798
-0.012259987
-0.010830685
-0.009512575
-0.0083014533
-0.0071924095
-0.0061799788
-0.0052582264
-0.00442082
-0.0036608809
-0.0029705144
-0.0023421314
-0.001755474
-0.0012348756
-0.00058576966
-0.00057355729
-0.054333013
-0.055287943
-0.056315173
-0.05749777
-0.05848854
-0.059176237
-0.059608717
-0.059818321
-0.059797507
-0.059535244
-0.059032215
-0.058295758
-0.057334784
-0.056159651
-0.054783245
-0.053221075
-0.051490742
-0.049611457
-0.047603684
-0.045488777
-0.043288589
-0.041025076
-0.038719863
-0.036393864
-0.034066964
-0.031757727
-0.029483158
-0.027258519
-0.025097193
-0.023010612
-0.021008228
-0.019097537
-0.017284139
-0.015571844
-0.013962792
-0.012457614
-0.011055589
-0.0097548192
-0.0085524029
-0.0074445894
-0.0064269178
-0.0054943069
-0.0046410766
-0.0038609481
-0.0031462272
-0.0024902557
-0.0018724938
-0.0013202276
-0.00064744189
-0.00057759868
-0.046470095
-0.047508532
-0.048610381
-0.049843659
-0.050923306
-0.051754517
-0.052372693
-0.052801406
-0.053031617
-0.053051089
-0.052857106
-0.052452615
-0.051842141
-0.051031683
-0.050029653
-0.048847025
-0.047496961
-0.045994442
-0.044355995
-0.042599402
-0.040743346
-0.038807051
-0.036809916
-0.034771143
-0.032709397
-0.030642499
-0.028587163
-0.026558761
-0.02457115
-0.022636537
-0.020765403
-0.018966461
-0.017246674
-0.015611298
-0.014063965
-0.012606796
-0.011240523
-0.0099646361
-0.0087775264
-0.0076766221
-0.0066585084
-0.0057190139
-0.0048532075
-0.004055472
-0.0033185923
-0.002636598
-0.0019900712
-0.0014056831
-0.00071499613
-0.00056980971
-0.039381149
-0.040453819
-0.041583792
-0.042826769
-0.043949454
-0.044871629
-0.045619275
-0.046209284
-0.04663186
-0.046874236
-0.046931279
-0.046802565
-0.046489093
-0.045993226
-0.045319517
-0.044474903
-0.043468465
-0.042311174
-0.041015696
-0.039596176
-0.038067966
-0.036447307
-0.034751011
-0.032996137
-0.03119966
-0.029378166
-0.027547567
-0.025722851
-0.023917873
-0.022145173
-0.020415859
-0.018739512
-0.017124152
-0.015576231
-0.014100673
-0.012700931
-0.011379084
-0.010135935
-0.0089711313
-0.007883274
-0.0068700155
-0.0059281367
-0.0050535339
-0.0042413203
-0.00348496
-0.0027790746
-0.0021060843
-0.0014902031
-0.00078340482
-0.00055794997
-0.033017191
-0.034088515
-0.035212463
-0.036434643
-0.037564842
-0.038535731
-0.039366271
-0.04006838
-0.040632141
-0.041044868
-0.041299908
-0.041394412
-0.041326726
-0.041096354
-0.040704687
-0.04015524
-0.039453513
-0.038606841
-0.037624275
-0.036516449
-0.035295375
-0.033974203
-0.032566952
-0.031088236
-0.029552974
-0.027976096
-0.026372269
-0.024755636
-0.023139587
-0.021536556
-0.01995786
-0.01841357
-0.016912423
-0.01546178
-0.014067608
-0.0127345
-0.011465725
-0.010263295
-0.0091280407
-0.0080596994
-0.0070569878
-0.0061176634
-0.0052385066
-0.0044154267
-0.0036426993
-0.0029155365
-0.0022184152
-0.001572535
-0.00084898355
-0.00054770721
-0.027326801
-0.02837219
-0.029466164
-0.030646036
-0.031757406
-0.032744239
-0.033620328
-0.034393967
-0.035055604
-0.03559313
-0.03599912
-0.036269151
-0.036399715
-0.036388221
-0.036233624
-0.035936679
-0.035499896
-0.034927462
-0.034225199
-0.033400495
-0.03246218
-0.031420351
-0.030286176
-0.029071664
-0.027789429
-0.026452435
-0.025073738
-0.023666238
-0.022242442
-0.020814257
-0.019392799
-0.017988236
-0.01660967
-0.015265046
-0.013961094
-0.012703315
-0.011495978
-0.01034215
-0.0092437434
-0.0082015634
-0.007215359
-0.006283864
-0.0054047756
-0.0045748501
-0.0037892539
-0.0030438364
-0.0023250512
-0.0016513412
-0.00090954556
-0.00054216391
-0.022258405
-0.023261918
-0.024310179
-0.025433653
-0.026507686
-0.027486065
-0.0283788
-0.029191579
-0.02991556
-0.03053956
-0.031055975
-0.031459504
-0.031745491
-0.031909938
-0.031950051
-0.031864497
-0.031653411
-0.031318387
-0.030862491
-0.030290251
-0.029607594
-0.028821746
-0.027941097
-0.026975033
-0.025933752
-0.024828052
-0.023669118
-0.02246829
-0.021236842
-0.019985778
-0.018725629
-0.017466286
-0.01621685
-0.014985515
-0.013779476
-0.012604871
-0.011466744
-0.01036904
-0.0093146056
-0.0083052146
-0.0073415845
-0.006423398
-0.005549273
-0.0047168427
-0.0039222019
-0.0031618982
-0.0024241533
-0.0017253072
-0.00096415904
-0.0005419996
-0.017762141
-0.018714485
-0.019707738
-0.020766656
-0.021791313
-0.022743971
-0.023631861
-0.024458823
-0.025216919
-0.025896113
-0.02648905
-0.026990092
-0.027394004
-0.027695973
-0.027892068
-0.027979481
-0.027956577
-0.027822928
-0.027579359
-0.027227988
-0.026772217
-0.026216689
-0.025567212
-0.024830654
-0.024014809
-0.023128241
-0.022180109
-0.021179979
-0.020137626
-0.019062841
-0.017965239
-0.016854087
-0.015738144
-0.014625519
-0.01352356
-0.012438758
-0.011376687
-0.010341951
-0.0093381628
-0.0083679296
-0.0074328429
-0.0065334757
-0.0056693409
-0.0048389517
-0.0040393366
-0.0032677958
-0.0025140969
-0.0017932165
-0.0010126749
-0.00054622865
-0.013790929
-0.014687821
-0.015621724
-0.016612578
-0.017581031
-0.018496619
-0.019364514
-0.020187235
-0.02095784
-0.021667536
-0.022309499
-0.022878146
-0.023368098
-0.023774191
-0.024091865
-0.024317377
-0.024447871
-0.02448143
-0.024417158
-0.024255243
-0.023996987
-0.023644811
-0.023202231
-0.022673802
-0.022065043
-0.021382325
-0.020632747
-0.019823991
-0.01896416
-0.018061608
-0.017124772
-0.016162004
-0.015181411
-0.014190711
-0.0131971
-0.012207141
-0.011226672
-0.010260728
-0.0093134903
-0.0083882377
-0.0074873117
-0.0066120876
-0.0057629176
-0.0049391691
-0.0041387844
-0.003359852
-0.0025935051
-0.0018539993
-0.0010552518
-0.00055311079
-0.010301929
-0.011142708
-0.012016571
-0.012939337
-0.013848791
-0.014720686
-0.015558645
-0.016364227
-0.017131487
-0.017852882
-0.018522281
-0.019134411
-0.01968405
-0.020166036
-0.020575572
-0.020908418
-0.021160959
-0.021330273
-0.02141422
-0.021411523
-0.021321823
-0.021145718
-0.020884774
-0.020541519
-0.020119407
-0.019622759
-0.019056682
-0.018426968
-0.017739975
-0.01700249
-0.016221589
-0.015404485
-0.014558385
-0.013690347
-0.01280714
-0.011915129
-0.011020159
-0.01012746
-0.0092415698
-0.0083662592
-0.0075044718
-0.006658271
-0.005828765
-0.0050161222
-0.004219157
-0.0034367576
-0.0026612954
-0.0019067769
-0.0010920495
-0.00056089544
-0.0072565545
-0.0080432621
-0.0088591569
-0.0097165029
-0.010567367
-0.011392784
-0.012195187
-0.012975416
-0.013728465
-0.01444798
-0.015128584
-0.015765467
-0.016353754
-0.016888516
-0.017365009
-0.017778825
-0.018125961
-0.018402892
-0.018606651
-0.018734917
-0.018786089
-0.018759339
-0.018654653
-0.018472855
-0.018215609
-0.017885401
-0.017485501
-0.017019899
-0.016493229
-0.015910675
-0.015277855
-0.014600706
-0.013885353
-0.013137981
-0.012364709
-0.011571463
-0.01076386
-0.0099470983
-0.0091258606
-0.0083042215
-0.0074855644
-0.0066725062
-0.0058668052
-0.0050693529
-0.0042797746
-0.0034977431
-0.0027167762
-0.0019509343
-0.0011231452
-0.00056823804
-0.0046218205
-0.0053581139
-0.0061198503
-0.0069161684
-0.0077110266
-0.0084899355
-0.0092543901
-0.010004673
-0.01073662
-0.011444963
-0.012125076
-0.012772669
-0.01338332
-0.013952473
-0.014475619
-0.014948418
-0.015366756
-0.015726811
-0.01602513
-0.016258711
-0.016425077
-0.016522344
-0.016549277
-0.016505332
-0.016390687
-0.016206256
-0.015953683
-0.015635317
-0.015254177
-0.014813884
-0.014318595
-0.01377291
-0.013181767
-0.012550341
-0.011883928
-0.011187827
-0.010467226
-0.00972709
-0.0089720511
-0.0082063038
-0.0074335053
-0.0066566817
-0.0058781196
-0.005099337
-0.0043206908
-0.0035425987
-0.0027596475
-0.0019861192
-0.0011485371
-0.00057427347
-0.002371904
-0.003063078
-0.0037761253
-0.004517528
-0.0052610757
-0.0059960136
-0.0067230835
-0.0074421204
-0.0081496873
-0.0088414701
-0.009513538
-0.010162126
-0.010783294
-0.011372922
-0.01192684
-0.012440921
-0.012911128
-0.013333567
-0.013704555
-0.014020697
-0.014278951
-0.014476699
-0.014611811
-0.014682697
-0.014688358
-0.01462842
-0.014503153
-0.014313481
-0.014060973
-0.013747815
-0.013376771
-0.012951126
-0.012474616
-0.011951342
-0.011385678
-0.010782172
-0.010145438
-0.0094800483
-0.0087904187
-0.0080807013
-0.0073546715
-0.0066156217
-0.0058662389
-0.0051085573
-0.0043435712
-0.0035723785
-0.0027905533
-0.0020126688
-0.0011685331
-0.00057871325
-0.00048164495
-0.0011331008
-0.0018032621
-0.002496225
-0.0031938503
-0.003888495
-0.0045802943
-0.0052687103
-0.0059509103
-0.0066233905
-0.0072828339
-0.0079259611
-0.0085492953
-0.009149157
-0.0097217541
-0.010263245
-0.010769779
-0.011237535
-0.011662781
-0.012041937
-0.012371634
-0.012648781
-0.012870629
-0.013034828
-0.013139487
-0.013183219
-0.013165186
-0.013085124
-0.01294336
-0.012740818
-0.012479006
-0.012159989
-0.011786345
-0.011361112
-0.010887717
-0.010369894
-0.0098115956
-0.0092168896
-0.0085898547
-0.0079344678
-0.0072544883
-0.0065533429
-0.005833994
-0.0050988778
-0.0043495211
-0.0035876182
-0.002809634
-0.0020304368
-0.0011828747
-0.0005811306
0.0010454879
0.00042639756
-0.00020845664
-0.00086142025
-0.0015207558
-0.002181259
-0.0028425699
-0.0035038521
-0.0041627577
-0.0048164394
-0.0054620887
-0.0060968424
-0.0067176324
-0.0073211811
-0.0079040582
-0.0084627233
-0.008993555
-0.0094928839
-0.0099570372
-0.010382389
-0.010765417
-0.011102754
-0.011391256
-0.011628055
-0.011810621
-0.011936821
-0.012004965
-0.012013857
-0.011962825
-0.011851749
-0.011681072
-0.011451797
-0.011165478
-0.010824185
-0.010430455
-0.0099872374
-0.0094978155
-0.0089657214
-0.0083946376
-0.0077882893
-0.0071503291
-0.0064842175
-0.0057930864
-0.0050796659
-0.0043459072
-0.0035940005
-0.0028211858
-0.0020425816
-0.0011937834
-0.00058267101
0.0022521159
0.0016596823
0.0010537541
0.00043360023
-0.00019403115
-0.00082588096
-0.0014612084
-0.002098929
-0.0027370621
-0.0033732717
-0.0040051528
-0.0046301786
-0.0052456177
-0.0058485311
-0.0064358042
-0.0070041729
-0.0075502452
-0.0080705265
-0.0085614544
-0.0090194392
-0.0094409097