/*--------------------------------*- C++ -*----------------------------------*\
  =========                 |
  \\      /  F ield         | OpenFOAM: The Open Source CFD Toolbox
   \\    /   O peration     | Website:  https://openfoam.org
    \\  /    A nd           | Version:  6
     \\/     M anipulation  |
\*---------------------------------------------------------------------------*/
FoamFile
{
    version     2.0;
    format      ascii;
    class       volScalarField;
    location    "227";
    object      pPrime2Mean;
}
// * * * * * * * * * * * * * * * * * * * * * * * * * * * * * * * * * * * * * //

dimensions      [0 4 -4 0 0 0 0];

internalField   nonuniform List<scalar> 
9200
(
0.04955432
0.041080065
0.033905431
0.029234404
0.025505793
0.02236296
0.019650891
0.017290527
0.015229242
0.013424899
0.011842602
0.010453107
0.0092317281
0.0081575012
0.0072125322
0.0063815211
0.0056515167
0.0050117142
0.0044540707
0.0039680875
0.040192936
0.033257
0.027456625
0.023643832
0.020584634
0.017998426
0.015763426
0.013817508
0.01211883
0.010633671
0.0093338789
0.0081956467
0.0071986682
0.0063254927
0.0055610276
0.0048921845
0.0043076903
0.0037978274
0.0033535284
0.0029618646
0.031415088
0.025958764
0.021449008
0.018444384
0.016014182
0.013949651
0.012160854
0.010602048
0.0092419977
0.0080551611
0.0070197973
0.0061171116
0.005330695
0.00464611
0.0040505952
0.0035328712
0.0030830283
0.0026923149
0.0023519365
0.0020503592
0.02346425
0.01938205
0.016040398
0.013770777
0.011911856
0.010320249
0.0089355848
0.0077274977
0.0066747725
0.0057593945
0.0049653255
0.0042780664
0.0036844389
0.0031724663
0.0027313226
0.0023513146
0.0020238601
0.0017413465
0.0014962593
0.0012798671
0.01655977
0.013703638
0.011376104
0.0097484282
0.0083881781
0.007208968
0.0061768527
0.0052753424
0.00449217
0.0038157729
0.0032347777
0.0027380602
0.0023149393
0.0019553897
0.001650232
0.0013912626
0.0011712957
0.00098408067
0.00082383522
0.00068470111
0.010894947
0.0090775538
0.0075849924
0.0064894938
0.0055427281
0.0047055381
0.0039664328
0.00332071
0.0027634717
0.0022881542
0.0018867935
0.0015506583
0.0012708825
0.0010389831
0.00084722582
0.00068882662
0.00055799817
0.00044988047
0.00036035642
0.00028580788
0.0066314149
0.0056314009
0.0047766486
0.0040904483
0.0034619955
0.0028885968
0.0023764399
0.0019299518
0.0015496007
0.0012321452
0.00097173407
0.00076112694
0.00059271474
0.00045924551
0.00035425801
0.00027226767
0.0002087664
0.00016013286
0.0001235943
9.7040012e-05
0.0038950306
0.0034638297
0.0030393595
0.002630209
0.0022174695
0.0018235938
0.0014669953
0.0011581328
0.00090059965
0.00069277665
0.00052974007
0.00040499211
0.00031174004
0.00024369275
0.00019545461
0.00016263206
0.00014176336
0.00013019832
0.00012610022
0.00012823606
0.002772374
0.0026417721
0.0024364312
0.0021661456
0.0018619718
0.0015597341
0.0012838552
0.0010473214
0.00085452596
0.00070392998
0.0005906017
0.00050825391
0.0004505858
0.00041201011
0.00038793136
0.00037475008
0.00036973012
0.00037085389
0.00037679092
0.00038666973
0.003307003
0.003198199
0.0030022873
0.0027303226
0.0024260951
0.00212628
0.0018544645
0.0016225291
0.0014335275
0.0012847885
0.001170729
0.0010849136
0.001021258
0.00097457854
0.00094073217
0.00091653354
0.00089958771
0.00088813115
0.00088091569
0.00087698917
0.11760337
0.098908393
0.08174459
0.070891437
0.062273973
0.05504087
0.048813539
0.043387733
0.038637007
0.034461984
0.030781476
0.027528269
0.024646064
0.022087266
0.01981135
0.017783602
0.015974151
0.01435624
0.012904748
0.011605147
0.11610602
0.097553332
0.080586125
0.069857662
0.061348172
0.054207287
0.048059767
0.042704725
0.038017168
0.033898674
0.030268825
0.027061055
0.024219624
0.021697427
0.019454369
0.017456133
0.015673238
0.014079321
0.012649116
0.011368596
0.1130518
0.094870527
0.078328106
0.067866471
0.059578043
0.052624098
0.046637473
0.041423578
0.036860697
0.032852779
0.029321284
0.026201179
0.023438007
0.020985759
0.018805287
0.016863113
0.015130555
0.01358203
0.012192358
0.010947765
0.10849408
0.090925139
0.075035774
0.064979677
0.057019549
0.050341976
0.044593051
0.039587074
0.035207251
0.031361226
0.027973402
0.024981138
0.02233196
0.019981531
0.017892133
0.01603152
0.014372125
0.012889499
0.011558964
0.010366587
0.10255733
0.085829126
0.070804497
0.061282579
0.053749219
0.047429923
0.041989164
0.037252445
0.033109342
0.029472381
0.026269887
0.0234424
0.020940076
0.018720782
0.016748669
0.014993069
0.013427766
0.012029708
0.010775427
0.009650641
0.095410689
0.07973077
0.065757959
0.056884161
0.049864149
0.043974929
0.0389041
0.034490372
0.030630962
0.027244322
0.024263553
0.021633082
0.019306273
0.017243677
0.015411705
0.013781574
0.012328606
0.011031267
0.009868098
0.0088248874
0.087259511
0.072807897
0.060042555
0.051912231
0.04547764
0.040078069
0.035428321
0.031381952
0.027844915
0.024742475
0.022013236
0.019606123
0.017478228
0.015593224
0.013920146
0.012432397
0.011107015
0.0099239999
0.0088644798
0.0079152422
0.078337925
0.065261576
0.053822695
0.046509489
0.040715688
0.035851328
0.031661626
0.028016231
0.024830701
0.022037829
0.019582327
0.017418136
0.015506532
0.013814709
0.012314679
0.010982352
0.0097967549
0.0087395096
0.0077946693
0.0069509406
0.068900361
0.057308621
0.047274852
0.040828299
0.035712319
0.031413471
0.027709516
0.024486962
0.021671632
0.019204405
0.01703658
0.015127538
0.013443116
0.011954368
0.010636608
0.0094685735
0.0084316615
0.0075094784
0.0066893923
0.0059620848
0.059212332
0.049175532
0.040581272
0.035024065
0.030603141
0.026883971
0.0236776
0.020887647
0.018450605
0.016315804
0.01444144
0.012792597
0.011339892
0.010058446
0.0089270811
0.0079276565
0.0070445534
0.0062646034
0.0055795827
0.0049805754
0.010234168
0.0088674151
0.007708615
0.0067026599
0.0058433782
0.0051074162
0.0044745101
0.0039272776
0.0034515872
0.0030359637
0.0026711139
0.0023495928
0.0020654237
0.0018137463
0.0015905526
0.0013924948
0.001216738
0.0010608489
0.00092271398
0.00080047866
0.00069250043
0.00059731333
0.0005136002
0.00044017113
0.00037594686
0.00031994575
0.00027127361
0.00022911557
0.00019272949
0.00016144051
0.00013463637
0.00011176323
9.2321909e-05
7.5864189e-05
6.1989445e-05
5.0341148e-05
4.0603675e-05
3.2498847e-05
2.5783109e-05
2.0243616e-05
1.5697311e-05
1.1982641e-05
8.9712343e-06
6.529042e-06
4.6035099e-06
3.0174281e-06
1.9203307e-06
8.8308067e-07
1.1636823e-06
1.9237551e-06
0.010035618
0.008714207
0.0075885671
0.0066080868
0.0057697234
0.0050506472
0.0044307976
0.0038934489
0.003425193
0.0030151284
0.0026544411
0.0023360807
0.0020543618
0.0018046237
0.0015829934
0.0013862151
0.0012115166
0.0010565086
0.00091910968
0.00079748983
0.00069002614
0.00059526863
0.00051191352
0.00043878223
0.00037480506
0.00031900857
0.00027050554
0.00022848701
0.00019221584
0.00016102138
0.0001342949
0.00011148551
9.2096482e-05
7.568163e-05
6.1842008e-05
5.0222469e-05
4.0508526e-05
3.2422936e-05
2.5722913e-05
2.0196246e-05
1.5660397e-05
1.1954251e-05
8.9497929e-06
6.5132969e-06
4.5924393e-06
3.0102328e-06
1.9165337e-06
8.8083375e-07
1.1567232e-06
1.8865786e-06
0.0096862089
0.0084463929
0.0073807762
0.0064470306
0.0056462411
0.0049569508
0.0043597271
0.0038391547
0.0033832593
0.0029822762
0.0026282925
0.0023149664
0.0020371201
0.0017904315
0.0015712517
0.0013764744
0.0012034279
0.001049793
0.00091353924
0.00079287531
0.00068620914
0.00059211598
0.00050931322
0.00043664019
0.00037304242
0.00031755942
0.00026931502
0.00022750956
0.00019141378
0.00016036362
0.00013375587
0.00011104417
9.1735571e-05
7.5386976e-05
6.1601975e-05
5.0027494e-05
4.0350737e-05
3.2295846e-05
2.5621164e-05
2.0115416e-05
1.5596831e-05
1.1904936e-05
8.9122578e-06
6.4855405e-06
4.5728476e-06
2.9974673e-06
1.909899e-06
8.7688111e-07
1.1428178e-06
1.8139627e-06
0.0092074016
0.0080805122
0.0071001568
0.0062339331
0.0054858267
0.0048369863
0.0042697646
0.003770931
0.003330736
0.0029411617
0.0025955741
0.0022885603
0.0020155829
0.0017727392
0.001556653
0.0013644
0.0011934331
0.001041521
0.00090669808
0.00078722333
0.0006815448
0.00058827066
0.00050614579
0.00043403279
0.00037089685
0.00031579413
0.0002678625
0.00022631414
0.00019042968
0.00015955329
0.00013308857
0.00011049477
9.1283513e-05
7.5015446e-05
6.1297183e-05
4.9778113e-05
4.0147426e-05
3.2130882e-05
2.548814e-05
2.0009004e-05
1.5512599e-05
1.1839195e-05
8.861962e-06
6.4481968e-06
4.5464255e-06
2.9802786e-06
1.900993e-06
8.7170825e-07
1.1219611e-06
1.7096311e-06
0.0086203105
0.007633413
0.0067620576
0.0059834963
0.0053014141
0.004701035
0.0041686686
0.0036945272
0.0032718775
0.0028950035
0.0025588262
0.0022589548
0.0019915279
0.001753085
0.0015405405
0.0013511672
0.0011825576
0.0010325828
0.00089935481
0.00078119334
0.00067659539
0.00058420921
0.00050281285
0.0004312966
0.00036864893
0.00031394539
0.00026634001
0.00022505844
0.00018939241
0.0001586952
0.00013237785
0.00010990566
9.0795102e-05
7.4610739e-05
6.0962307e-05
4.9501687e-05
3.9920059e-05
3.1944781e-05
2.53368e-05
1.988697e-05
1.5415284e-05
1.1762739e-05
8.8031387e-06
6.4043408e-06
4.5153138e-06
2.9601134e-06
1.8905095e-06
8.659364e-07
1.0943542e-06
1.5790514e-06
0.0079429904
0.0071204121
0.0063803245
0.0057076854
0.0051024541
0.0045556879
0.004060706
0.0036127839
0.0032087643
0.0028454943
0.002519548
0.0022275417
0.0019662617
0.0017326874
0.0015240367
0.0013377967
0.0011717184
0.001023793
0.0008922256
0.00077540945
0.00067190041
0.00058039452
0.00049970882
0.00042876563
0.00036657976
0.00031224841
0.00026494329
0.00022390447
0.00018843534
0.00015789858
0.0001317127
0.00010934897
9.0328499e-05
7.4219508e-05
6.0634559e-05
4.9227734e-05
3.969191e-05
3.1755776e-05
2.5181324e-05
1.9760251e-05
1.5313243e-05
1.1681876e-05
8.7404735e-06
6.3573789e-06
4.4818728e-06
2.9385564e-06
1.8791752e-06
8.6022794e-07
1.0603228e-06
1.4288601e-06
0.007193075
0.0065568352
0.00596729
0.0054137292
0.0048920383
0.0044015604
0.003945394
0.0035251711
0.0031413434
0.0027931068
0.0024785937
0.0021954016
0.0019409679
0.0017127426
0.0015082911
0.0013253579
0.0011618878
0.0010160207
0.00088607716
0.00077054066
0.00066803827
0.00057732266
0.00049725611
0.00042679718
0.00036498972
0.00031095424
0.00026388098
0.00022302471
0.00018770033
0.00015727949
0.00013118763
0.00010890125
8.9945398e-05
7.3891214e-05
6.0353384e-05
4.898753e-05
3.9487629e-05
3.1583166e-05
2.5036712e-05
1.9640406e-05
1.5215291e-05
1.1603243e-05
8.6788707e-06
6.3108514e-06
4.4485288e-06
2.9172154e-06
1.8676896e-06
8.5522042e-07
1.0203085e-06
1.2662381e-06
0.0063925285
0.0059601865
0.0055324161
0.0051006
0.0046636605
0.0042318521
0.0038177074
0.0034287118
0.0030683948
0.0027378801
0.0024367564
0.0021637086
0.0019169682
0.0016945804
0.0014945621
0.001314997
0.001154084
0.0010101546
0.00088167514
0.00076723987
0.00066556113
0.00057545734
0.00049584175
0.00042571249
0.00036414415
0.00031028097
0.00026333154
0.00022256449
0.0001873052
0.00015693306
0.00013087906
0.00010862362
8.9694453e-05
7.3664396e-05
6.014915e-05
4.8804877e-05
3.9325758e-05
3.1441304e-05
2.4913994e-05
1.9535839e-05
1.5127764e-05
1.1531555e-05
8.6217731e-06
6.2672131e-06
4.4169164e-06
2.8971529e-06
1.8563935e-06
8.5133202e-07
9.7481297e-07
1.0983965e-06
0.0055631088
0.0053380418
0.0050657877
0.0047456225
0.0043926773
0.0040264553
0.003663056
0.0033130259
0.0029824177
0.0026742949
0.0023898817
0.0021292453
0.0018917048
0.0016761268
0.0014811435
0.0013052967
0.0011471235
0.0010052052
0.000878193
0.00076481895
0.00066389857
0.00057432808
0.00049507972
0.00042519647
0.00036378706
0.00031002163
0.00026312824
0.00022239001
0.00018714292
0.00015677385
0.00013071898
0.00010846208
8.9532882e-05
7.3505252e-05
5.9995239e-05
4.8658896e-05
3.9190014e-05
3.1317576e-05
2.4803486e-05
1.9439202e-05
1.5045171e-05
1.1462783e-05
8.5662866e-06
6.2244435e-06
4.3856356e-06
2.8774599e-06
1.8445109e-06
8.4835082e-07
9.2456391e-07
9.3273568e-07
0.0047377033
0.0046713498
0.0045232212
0.0043077998
0.0040477263
0.0037615946
0.00346302
0.0031634353
0.0028714089
0.0025924446
0.0023298148
0.0020853212
0.001859696
0.0016528953
0.0014643685
0.001293265
0.0011385701
0.00099919412
0.00087402984
0.00076198762
0.00066201531
0.00057310821
0.00049431326
0.00042473006
0.00036351038
0.00030985704
0.00026302277
0.00022230912
0.00018706554
0.00015668862
0.00013062119
0.00010835143
8.9411709e-05
7.3377304e-05
5.986475e-05
4.8529992e-05
3.9066337e-05
3.120209e-05
2.4698402e-05
1.9345991e-05
1.4964655e-05
1.1395223e-05
8.5114892e-06
6.182086e-06
4.3545143e-06
2.8579816e-06
1.8319375e-06
8.4607153e-07
8.7146491e-07
7.7703003e-07
0.003839639
0.0038653035
0.0038183273
0.0037031352
0.0035412119
0.0033461149
0.0031271716
0.0028945646
0.0026576883
0.0024234583
0.0021966567
0.0019805922
0.0017773925
0.001588218
0.001413517
0.0012532499
0.0011070504
0.00097433984
0.00085441103
0.00074648622
0.00064975595
0.00056340441
0.00048662579
0.00041863473
0.00035867311
0.00030601451
0.00025996732
0.00021987696
0.00018512748
0.00015514275
0.00012938711
0.00010736567
8.8624153e-05
7.27483e-05
5.9362865e-05
4.8130255e-05
3.8748842e-05
3.0950926e-05
2.4500796e-05
1.9191689e-05
1.4845355e-05
1.1304358e-05
8.4434625e-06
6.1332359e-06
4.3199737e-06
2.8380304e-06
1.8173543e-06
8.4476298e-07
8.1623692e-07
6.3996307e-07
0.0029761744
0.0030524946
0.0030687309
0.0030249646
0.0029383792
0.0028188915
0.0026720056
0.002505545
0.0023279024
0.0021456939
0.0019638605
0.0017862087
0.0016155461
0.0014537645
0.0013020246
0.0011609457
0.0010307484
0.00091136393
0.00080251998
0.00070380631
0.00061472202
0.0005347095
0.00046317874
0.00039952482
0.00034314062
0.00029342627
0.0002497963
0.00021168521
0.00017855186
0.00014988283
0.00012519501
0.00010403747
8.5992604e-05
7.0676654e-05
5.7739691e-05
4.686505e-05
3.776835e-05
3.0196061e-05
2.3924048e-05
1.8755053e-05
1.4518393e-05
1.1063186e-05
8.2684527e-06
6.0106349e-06
4.2351586e-06
2.7874322e-06
1.781291e-06
8.3643242e-07
7.4580384e-07
5.0963609e-07
0.002233577
0.0023431614
0.0024036119
0.002414793
0.0023872802
0.0023283038
0.0022412341
0.0021316238
0.002006371
0.0018713813
0.0017313478
0.0015901576
0.0014509416
0.0013160492
0.0011871501
0.0010653744
0.00095142747
0.00084568166
0.00074825593
0.00065908071
0.00057794833
0.00050455163
0.00043851344
0.00037940926
0.00032678466
0.00028016886
0.00023908552
0.00020306128
0.00017163269
0.00014435181
0.00012079059
0.00010054425
8.3233792e-05
6.8507666e-05
5.6042689e-05
4.5544343e-05
3.6746518e-05
2.9410707e-05
2.3325046e-05
1.8302361e-05
1.4179978e-05
1.0813981e-05
8.087816e-06
5.8843115e-06
4.1474805e-06
2.7355303e-06
1.7424847e-06
8.2919097e-07
6.6924819e-07
3.8724905e-07
0.0016094649
0.0017362496
0.0018239009
0.0018732479
0.001889066
0.001876149
0.0018366948
0.0017743176
0.0016941292
0.0016009899
0.0014990378
0.0013919009
0.0012827023
0.0011739742
0.0010676777
0.00096528675
0.00086786726
0.00077614492
0.00069056949
0.00061137226
0.00053861386
0.00047222313
0.00041202847
0.00035778325
0.00030918624
0.0002658981
0.00022755493
0.0001937793
0.00016418942
0.00013840661
0.0001160614
9.6798395e-05
8.0280072e-05
6.6189572e-05
5.4232624e-05
4.41387e-05
3.5661503e-05
2.8578838e-05
2.2692181e-05
1.7825304e-05
1.3824248e-05
1.0552628e-05
7.8987402e-06
5.7522119e-06
4.0556675e-06
2.6809838e-06
1.7006631e-06
8.2176695e-07
5.9209182e-07
2.8244212e-07
0.0011075218
0.0012350314
0.0013341854
0.0014056812
0.0014499984
0.0014695634
0.0014656761
0.0014404413
0.0013972239
0.0013396514
0.001271093
0.0011946728
0.0011132386
0.0010292539
0.00094475831
0.00086139474
0.00078045062
0.00070289885
0.00062944172
0.00056055518
0.00049652909
0.00043750214
0.0003834917
0.00033441924
0.00029013175
0.00025041963
0.00021503192
0.00018368898
0.00015609327
0.00013193838
0.00011091655
9.2724824e-05
7.7070014e-05
6.367257e-05
5.2269464e-05
4.2616195e-05
3.4488046e-05
2.7680627e-05
2.2010009e-05
1.7311956e-05
1.344208e-05
1.0272205e-05
7.696055e-06
5.6104551e-06
3.9569892e-06
2.6216085e-06
1.6547753e-06
8.1277339e-07
5.1748107e-07
2.0026626e-07
0.00072309543
0.00083812233
0.00093557437
0.0010152011
0.0010747507
0.0011145636
0.0011349994
0.0011369744
0.0011223552
0.0010935233
0.0010529595
0.0010031304
0.00094642234
0.00088503145
0.00082088909
0.00075564304
0.00069066364
0.00062705817
0.00056569288
0.00050722079
0.0004521106
0.00040067428
0.00035309244
0.00030943716
0.00026969229
0.00023377117
0.00020153216
0.00017279207
0.00014733784
0.00012493652
0.00010534383
8.8311309e-05
7.3592307e-05
6.0946727e-05
5.0144809e-05
4.0969936e-05
3.3220622e-05
2.6711729e-05
2.1275165e-05
1.6759727e-05
1.3031489e-05
9.971171e-06
7.4785688e-06
5.4580347e-06
3.85071e-06
2.5565627e-06
1.6046432e-06
8.0121217e-07
4.4799644e-07
1.4246373e-07
0.00044371889
0.00053816898
0.00062439583
0.00070115614
0.00076487221
0.00081438243
0.00084913209
0.00086907899
0.00087489881
0.00086785198
0.00084951779
0.00082163985
0.00078603452
0.00074449192
0.00069868917
0.00065013948
0.00060016949
0.00054991088
0.00050030232
0.00045209996
0.00040589321
0.0003621226
0.00032109841
0.00028301872
0.00024798674
0.0002160267
0.00018709841
0.00016111033
0.00013793131
0.00011740091
9.9338474e-05
8.3550936e-05
6.983944e-05
5.8004865e-05
4.785231e-05
3.9194602e-05
3.1854956e-05
2.5668822e-05
2.048514e-05
1.6166762e-05
1.2591119e-05
9.6485187e-06
7.2455325e-06
5.294316e-06
3.7363974e-06
2.4852595e-06
1.5503698e-06
7.8618084e-07
3.8561338e-07
1.0763644e-07
0.00025327381
0.00032372221
0.00039306953
0.00045944669
0.00051899344
0.00056972064
0.00061036965
0.00064017148
0.00065892083
0.00066696462
0.00066506163
0.00065424798
0.00063574151
0.00061085353
0.00058090743
0.00054717615
0.00051083875
0.00047295396
0.00043444597
0.00039609978
0.00035856386
0.00032235746
0.00028788099
0.000255428
0.00022519789
0.00019730866
0.00017180925
0.00014869125
0.00012789979
0.00010934349
9.2903514e-05
7.8441472e-05
6.5806448e-05
5.4840943e-05
4.5385867e-05
3.7284612e-05
3.038626e-05
2.4547993e-05
1.9636851e-05
1.5530707e-05
1.2119214e-05
9.3029558e-06
6.9960109e-06
5.1185816e-06
3.613604e-06
2.4072054e-06
1.492178e-06
7.6697437e-07
3.3146341e-07
9.1587551e-08
0.00013489128
0.00018130646
0.00023143344
0.00028319469
0.00033307114
0.000378816
0.00041878817
0.00045175765
0.00047693284
0.00049399098
0.00050302094
0.00050443338
0.00049888194
0.00048719141
0.00047028743
0.00044913533
0.00042469124
0.0003978641
0.00036948932
0.00034031261
0.00031098152
0.00028204286
0.00025394471
0.0002270415
0.00020160135
0.00017781458
0.00015580291
0.00013562889
0.00011730511
0.00010080316
8.6061927e-05
7.2995244e-05
6.1498819e-05
5.1456297e-05
4.2744512e-05
3.5237906e-05
2.8812139e-05
2.3346946e-05
1.8728322e-05
1.4849977e-05
1.1614578e-05
8.9336201e-06
6.7294183e-06
4.9304411e-06
3.4821643e-06
2.322258e-06
1.430516e-06
7.4331974e-07
2.8590732e-07
8.8381961e-08
7.2645795e-05
9.7153048e-05
0.00012818544
0.00016376764
0.00020101153
0.00023779914
0.00027242169
0.00030345577
0.0003297913
0.0003506799
0.00036572749
0.00037484912
0.00037821776
0.00037621323
0.0003693694
0.00035832173
0.00034376096
0.00032639382
0.00030691087
0.00028596235
0.00026414177
0.00024197537
0.00021991674
0.00019834525
0.00017756775
0.00015782244
0.00013928429
0.00012207149
0.0001062524
9.1852807e-05
7.8862995e-05
6.7244614e-05
5.6937078e-05
4.7863407e-05
3.9935435e-05
3.3058335e-05
2.7134448e-05
2.2066429e-05
1.7759753e-05
1.4124564e-05
1.107717e-05
8.5405259e-06
6.4458497e-06
4.7300747e-06
3.342366e-06
2.23075e-06
1.3660733e-06
7.1545265e-07
2.4871426e-07
9.1795893e-08
5.2533947e-05
5.840031e-05
7.2059428e-05
9.1813596e-05
0.00011547973
0.00014127743
0.000167661
0.00019323624
0.00021679877
0.00023739272
0.00025433181
0.00026718815
0.00027576881
0.0002800874
0.00028033029
0.00027681893
0.00026997172
0.0002602688
0.00024822093
0.00023434284
0.00021913207
0.00020305326
0.0001865271
0.00016992341
0.00015355755
0.00013768985
0.00012252701
0.00010822527
9.4894683e-05
8.2604181e-05
7.1386992e-05
6.1246258e-05
5.2160537e-05
4.4089054e-05
3.6976561e-05
3.0757707e-05
2.5360873e-05
2.0711424e-05
1.6734407e-05
1.3356666e-05
1.0508551e-05
8.1248672e-06
6.1462843e-06
4.5183621e-06
3.1950288e-06
2.133523e-06
1.2997543e-06
6.8409481e-07
2.1926753e-07
9.6676696e-08
6.2863643e-05
5.3746638e-05
5.2608331e-05
5.8090835e-05
6.8668557e-05
8.2972753e-05
9.9747501e-05
0.00011777779
0.0001359304
0.00015321635
0.00016882597
0.00018213895
0.00019272277
0.00020032423
0.00020485388
0.00020636409
0.00020502314
0.00020108799
0.00019487801
0.00018675065
0.00017707986
0.00016623795
0.00015458141
0.00014244016
0.00013011008
0.0001178484
0.00010587159
9.4355208e-05
8.343534e-05
7.3211263e-05
6.374891e-05
5.5084889e-05
4.7230767e-05
4.0177407e-05
3.3899189e-05
2.8357966e-05
2.3506672e-05
1.9292495e-05
1.565961e-05
1.2551415e-05
9.9123855e-06
7.6893445e-06
5.8327821e-06
4.2969778e-06
3.0415318e-06
2.0318804e-06
1.2325976e-06
6.503057e-07
1.966813e-07
9.9759024e-08
9.4241818e-05
7.3698843e-05
6.0640929e-05
5.4037717e-05
5.291518e-05
5.6304565e-05
6.3278797e-05
7.2877224e-05
8.4139785e-05
9.6166019e-05
0.00010815382
0.00011941977
0.00012941102
0.00013771128
0.00014404006
0.00014824481
0.00015028753
0.00015022771
0.00014820355
0.00014441262
0.00013909327
0.00013250741
0.00012492543
0.00011661389
0.00010782552
9.8791945e-05
8.971858e-05
8.078171e-05
7.2127263e-05
6.387108e-05
5.6100306e-05
4.887564e-05
4.2234166e-05
3.6192536e-05
3.0750297e-05
2.5893199e-05
2.1596355e-05
1.7827144e-05
1.4547805e-05
1.1717658e-05
9.2949944e-06
7.2385333e-06
5.5087084e-06
4.0684974e-06
2.8838438e-06
1.9275289e-06
1.1657153e-06
6.1531109e-07
1.7986782e-07
9.97512e-08
0.00013935006
0.00011056214
8.8396989e-05
7.2102137e-05
6.1130497e-05
5.4856338e-05
5.2662082e-05
5.3856714e-05
5.769847e-05
6.3445069e-05
7.0389357e-05
7.7881695e-05
8.534752e-05
9.2301555e-05
9.8356785e-05
0.00010322728
0.0001067254
0.00010875463
0.00010929909
0.00010841088
0.00010619637
0.00010280218
9.8401837e-05
9.3183577e-05
8.7339842e-05
8.1058523e-05
7.4516102e-05
6.7872596e-05
6.1268215e-05
5.4821507e-05
4.8628797e-05
4.276466e-05
3.7283214e-05
3.2219994e-05
2.7594218e-05
2.3411255e-05
1.9665146e-05
1.6341059e-05
1.3417575e-05
1.0868757e-05
8.6659486e-06
6.7792942e-06
5.1789919e-06
3.8365265e-06
2.7245632e-06
1.8225179e-06
1.100247e-06
5.8033007e-07
1.6758205e-07
9.6812912e-08
0.00019262875
0.00015827987
0.00012954154
0.0001058787
8.7051516e-05
7.2703469e-05
6.2476358e-05
5.5925044e-05
5.252835e-05
5.1728345e-05
5.2959195e-05
5.5666571e-05
5.9325197e-05
6.3455631e-05
6.7638024e-05
7.1521396e-05
7.482837e-05
7.7355801e-05
7.8971877e-05
7.9610269e-05
7.9262082e-05
7.7966388e-05
7.5800101e-05
7.286782e-05
6.929222e-05
6.5205391e-05
6.0741342e-05
5.6029868e-05
5.1191771e-05
4.6335436e-05
4.1554637e-05
3.6927429e-05
3.2515973e-05
2.8367086e-05
2.4513363e-05
2.0974692e-05
1.7759995e-05
1.4869084e-05
1.229451e-05
1.0023314e-05
8.0386468e-06
6.3212052e-06
4.8504251e-06
3.6058827e-06
2.567014e-06
1.7192442e-06
1.0373896e-06
5.4648815e-07
1.5854463e-07
9.1804725e-08
0.00024994719
0.00021220423
0.00017904974
0.00015010984
0.00012534976
0.00010460913
8.7728677e-05
7.4465524e-05
6.449455e-05
5.7437133e-05
5.2882199e-05
5.0400351e-05
4.9558091e-05
4.9933252e-05
5.1129455e-05
5.2787957e-05
5.4596459e-05
5.6294853e-05
5.7677959e-05
5.8595396e-05
5.8948938e-05
5.8687827e-05
5.7802629e-05
5.6318169e-05
5.4286075e-05
5.1777393e-05
4.8875665e-05
4.5670693e-05
4.225324e-05
3.8710693e-05
3.5123774e-05
3.1564212e-05
2.8093325e-05
2.4761379e-05
2.1607604e-05
1.8660723e-05
1.5939859e-05
1.3455686e-05
1.1211725e-05
9.2056872e-06
7.430774e-06
5.8769395e-06
4.5319529e-06
3.3827949e-06
2.4153735e-06
1.6205073e-06
9.7847663e-07
5.1480701e-07
1.5162927e-07
8.567716e-08
0.00030830282
0.00026885148
0.00023303728
0.00020060175
0.00017163511
0.00014611001
0.00012400803
0.00010523927
8.9637269e-05
7.6979032e-05
6.6998996e-05
5.9397591e-05
5.385088e-05
5.0022541e-05
4.7576369e-05
4.6187753e-05
4.5553603e-05
4.5400472e-05
4.5490617e-05
4.562583e-05
4.5649024e-05
4.5443756e-05
4.4931987e-05
4.4070429e-05
4.2845906e-05
4.127009e-05
3.9374028e-05
3.7202769e-05
3.4810337e-05
3.2255285e-05
2.9596896e-05
2.6892154e-05
2.4193447e-05
2.154699e-05
1.8991897e-05
1.6559806e-05
1.4274959e-05
1.2154636e-05
1.0209833e-05
8.4461061e-06
6.8644904e-06
5.4624734e-06
4.2348668e-06
3.1750648e-06
2.2748021e-06
1.5296056e-06
9.2509968e-07
4.8627178e-07
1.4606858e-07
7.9178801e-08
0.00036556542
0.00032567183
0.00028857422
0.00025409539
0.00022239208
0.00019352015
0.00016755271
0.00014450669
0.00012433415
0.00010693582
9.2169507e-05
7.9853993e-05
6.9774202e-05
6.1689158e-05
5.5341275e-05
5.0465701e-05
4.6799289e-05
4.4088871e-05
4.2098518e-05
4.0615395e-05
3.9454021e-05
3.8458849e-05
3.7505209e-05
3.6498784e-05
3.5373804e-05
3.409027e-05
3.2630458e-05
3.0995038e-05
2.9199056e-05
2.726801e-05
2.5234227e-05
2.3133644e-05
2.1003113e-05
1.8878238e-05
1.679177e-05
1.4772512e-05
1.284468e-05
1.1027667e-05
9.3361083e-06
7.7802026e-06
6.3661934e-06
5.0969922e-06
3.972793e-06
2.9921006e-06
2.1515e-06
1.4504084e-06
8.7920816e-07
4.6191755e-07
1.4156793e-07
7.2820394e-08
0.00042026876
0.0003808481
0.00034350573
0.00030812169
0.00027487917
0.00024388071
0.00021525251
0.00018907967
0.00016539607
0.00014419333
0.0001254255
0.00010900941
9.4826448e-05
8.2726743e-05
7.2535123e-05
6.4057625e-05
5.7088381e-05
5.1416615e-05
4.6833472e-05
4.3138259e-05
4.0143822e-05
3.7680822e-05
3.5600812e-05
3.3778057e-05
3.2110158e-05
3.0517588e-05
2.8942313e-05
2.7345694e-05
2.5705906e-05
2.4015069e-05
2.2276308e-05
2.0500888e-05
1.8705579e-05
1.6910326e-05
1.5136302e-05
1.3404349e-05
1.1733825e-05
1.014181e-05
8.6426465e-06
7.2477581e-06
5.9656921e-06
4.8023647e-06
3.7613745e-06
2.8447418e-06
2.0526282e-06
1.387353e-06
8.4314673e-07
4.4289664e-07
1.3828638e-07
6.6939868e-08
0.00047144506
0.00043312746
0.0003962918
0.00036085914
0.00032701359
0.00029487912
0.00026460718
0.00023632121
0.00021010654
0.00018601639
0.00016407409
0.00014427147
0.00012656807
0.00011089263
9.7146062e-05
8.520522e-05
7.4927412e-05
6.6155426e-05
5.8722966e-05
5.246012e-05
4.7198611e-05
4.2776539e-05
3.9042445e-05
3.5858536e-05
3.3102985e-05
3.0671294e-05
2.8476754e-05
2.6450102e-05
2.4538495e-05
2.2703969e-05
2.0921532e-05
1.9177061e-05
1.7465138e-05
1.5786956e-05
1.4148379e-05
1.255824e-05
1.1026911e-05
9.5651516e-06
8.183259e-06
6.8904743e-06
5.6946361e-06
4.6020605e-06
3.6175456e-06
2.744795e-06
1.9860313e-06
1.345309e-06
8.1958861e-07
4.3048664e-07
1.3670144e-07
6.1757748e-08
0.0005184955
0.00048168435
0.00044586982
0.00041100353
0.00037725546
0.00034475473
0.00031365919
0.00028410917
0.00025621821
0.00023007728
0.00020575548
0.0001832975
0.00016272143
0.00014401835
0.00012715318
0.00011206614
9.8675149e-05
8.6878752e-05
7.6559838e-05
6.75897e-05
5.9832359e-05
5.3148845e-05
4.74013e-05
4.2456664e-05
3.8189839e-05
3.448618e-05
3.1243296e-05
2.8372118e-05
2.5797294e-05
2.345697e-05
2.130206e-05
1.9295129e-05
1.7408994e-05
1.5625179e-05
1.393232e-05
1.2324613e-05
1.0800386e-05
9.360828e-06
8.0089204e-06
6.748585e-06
5.5840402e-06
4.5193807e-06
3.5582989e-06
2.7042066e-06
1.9597062e-06
1.329271e-06
8.1134857e-07
4.2602498e-07
1.3743245e-07
5.7404667e-08
0.00056108805
0.00052600933
0.00049153906
0.00045765284
0.0004244988
0.00039220152
0.00036091342
0.00033077735
0.00030191858
0.0002744477
0.00024846079
0.0002240365
0.0002012333
0.00018008801
0.00016061522
0.00014280722
0.00012663462
0.00011204761
9.8977914e-05
8.7341352e-05
7.7040824e-05
6.7969621e-05
6.0014887e-05
5.3061045e-05
4.6993074e-05
4.1699439e-05
3.7074611e-05
3.3021067e-05
2.9450742e-05
2.6285925e-05
2.3459625e-05
2.0915473e-05
1.8607226e-05
1.6497963e-05
1.4559075e-05
1.2769125e-05
1.1112668e-05
9.5791003e-06
8.1615906e-06
6.8561326e-06
5.6607488e-06
4.5748693e-06
3.5988408e-06
2.7337916e-06
1.9809624e-06
1.3438411e-06
8.210642e-07
4.307657e-07
1.4107949e-07
5.3940058e-08
0.00059907825
0.00056582085
0.00053286612
0.00050020973
0.00046797492
0.0004362766
0.00040525521
0.00037504725
0.00034577874
0.00031756729
0.00029052194
0.00026474043
0.00024030643
0.00021728756
0.00019573408
0.00017567789
0.0001571319
0.00014009008
0.00012452798
0.00011040389
9.7660554e-05
8.6227215e-05
7.6022161e-05
6.6955409e-05
5.8931546e-05
5.1852528e-05
4.5620346e-05
4.0139421e-05
3.5318672e-05
3.107317e-05
2.7325361e-05
2.4005849e-05
2.1053771e-05
1.8416795e-05
1.6050808e-05
1.3919363e-05
1.1992947e-05
1.0248157e-05
8.6668225e-06
7.2351599e-06
5.9429738e-06
4.7829715e-06
3.7501567e-06
2.8415208e-06
2.0552648e-06
1.3924936e-06
8.5074936e-07
4.4566338e-07
1.4809731e-07
5.1371307e-08
0.00063244136
0.0006009889
0.00056960168
0.00053829311
0.00050716144
0.00047630986
0.00044586385
0.00041594883
0.00038668496
0.00035818867
0.00033057232
0.00030394195
0.0002783947
0.00025401682
0.00023088206
0.00020905015
0.00018856556
0.00016945666
0.00015173528
0.0001353968
0.00012042064
0.0001067713
9.439976e-05
8.3245296e-05
7.3237564e-05
6.4298871e-05
5.6346551e-05
4.9295303e-05
4.3059425e-05
3.7554826e-05
3.2700787e-05
2.8421368e-05
2.4646498e-05
2.1312689e-05
1.8363431e-05
1.5749286e-05
1.342772e-05
1.1362744e-05
9.5244056e-06
7.8881948e-06
6.4344107e-06
5.1475471e-06
4.0156934e-06
3.0301506e-06
2.1846145e-06
1.4765316e-06
9.0116979e-07
4.7106112e-07
1.5867551e-07
4.9666692e-08
0.00066122719
0.00063148294
0.00060162206
0.00057167462
0.0005417153
0.00051183542
0.00048214496
0.00045275639
0.00042378064
0.00039532821
0.00036750879
0.00034042944
0.00031419248
0.00028889366
0.00026462046
0.00024145055
0.00021945017
0.00019867286
0.00017915843
0.00016093226
0.00014400498
0.00012837256
0.00011401679
0.00010090617
8.899716e-05
7.8235734e-05
6.8559201e-05
5.9898152e-05
5.2178515e-05
4.5323574e-05
3.9255909e-05
3.3899157e-05
2.9179559e-05
2.5027236e-05
2.1377179e-05
1.8169951e-05
1.5352113e-05
1.2876392e-05
1.070164e-05
8.7926236e-06
7.1196756e-06
5.6582896e-06
4.3886409e-06
3.2952467e-06
2.3661758e-06
1.5941977e-06
9.7131881e-07
5.0643771e-07
1.7267117e-07
4.8764749e-08
0.00068549271
0.0006572967
0.00062884688
0.00060018946
0.00057137782
0.00054249246
0.00051362885
0.00048488654
0.00045636614
0.00042817001
0.00040040193
0.00037316575
0.00034656356
0.00032069431
0.00029565219
0.00027152508
0.00024839299
0.00022632656
0.00020538571
0.00018561853
0.00016706037