/*--------------------------------*- C++ -*----------------------------------*\
  =========                 |
  \\      /  F ield         | OpenFOAM: The Open Source CFD Toolbox
   \\    /   O peration     | Website:  https://openfoam.org
    \\  /    A nd           | Version:  6
     \\/     M anipulation  |
\*---------------------------------------------------------------------------*/
FoamFile
{
    version     2.0;
    format      ascii;
    class       volSymmTensorField;
    location    "247";
    object      UPrime2Mean;
}
// * * * * * * * * * * * * * * * * * * * * * * * * * * * * * * * * * * * * * //

dimensions      [0 2 -2 0 0 0 0];

internalField   nonuniform List<symmTensor> 
9200
(
(8.0319524e-05 -6.2345222e-05 2.9094311e-22 5.0032417e-05 -1.555229e-22 4.7097229e-39)
(0.00049554518 -0.00039669794 7.4694552e-22 0.00031878925 -5.5738659e-22 5.1237736e-39)
(0.0010027657 -0.00077745943 9.0136073e-23 0.00060632058 -6.8281197e-23 2.80911e-39)
(0.0015822208 -0.0011454481 -1.1271215e-21 0.00083865215 7.9206433e-22 5.6007923e-39)
(0.0021546649 -0.0014730113 5.4387351e-23 0.0010246162 -4.4849024e-23 8.2111258e-40)
(0.002680528 -0.0017454016 4.7599298e-22 0.0011639643 -3.154689e-22 1.2954364e-40)
(0.0031322727 -0.0019573565 -1.0356699e-22 0.0012614369 7.1333934e-23 3.7208487e-40)
(0.0034875585 -0.0021090826 9.4099007e-23 0.0013250268 -6.3025615e-23 2.5060029e-40)
(0.0037307554 -0.0022034299 4.6219088e-22 0.0013624258 -2.7996488e-22 7.150624e-40)
(0.0038535437 -0.0022446406 3.5999227e-23 0.00138018 -2.1919147e-23 2.0405158e-42)
(0.0038550045 -0.0022377648 -4.9998066e-22 0.0013836988 3.0647742e-22 3.8420379e-40)
(0.0037415878 -0.0021882975 4.1941766e-22 0.001377318 -2.6657444e-22 5.2988377e-41)
(0.0035266368 -0.002101948 -7.4864131e-22 0.0013643971 5.0267951e-22 8.2290067e-40)
(0.0032292904 -0.0019844995 -3.806621e-22 0.0013474562 2.6060253e-22 5.3056085e-41)
(0.0028727932 -0.0018417194 9.892139e-23 0.0013283254 -7.298587e-23 6.7468333e-42)
(0.0024823644 -0.0016792793 -3.7382472e-22 0.0013082894 2.9097003e-22 7.1239114e-41)
(0.0020827956 -0.0015026825 3.2930775e-22 0.0012882922 -2.7769862e-22 8.6260248e-41)
(0.001696039 -0.0013172893 2.4612652e-22 0.0012696131 -2.1725209e-22 3.4926739e-40)
(0.001340767 -0.0011280709 -8.1081801e-24 0.0012539396 1.7581736e-23 6.4233235e-41)
(0.0010376101 -0.00093848088 -4.3790487e-24 0.0012288145 1.5495269e-23 7.9619871e-41)
(0.00010601651 -7.0867607e-05 3.032138e-23 4.8647576e-05 -1.1608736e-23 8.2861688e-41)
(0.00063222612 -0.00043820067 7.9110037e-22 0.00030465736 -5.1459416e-22 5.465223e-39)
(0.0012580276 -0.00084613518 -2.5594665e-22 0.00057235747 1.7170018e-22 2.9685008e-39)
(0.0019302319 -0.0012239052 -2.023579e-21 0.00078480289 1.2642e-21 1.2960698e-38)
(0.0025567653 -0.0015457435 -7.0536405e-23 0.00095126709 4.4639349e-23 1.6351248e-40)
(0.003091673 -0.0017986454 1.5681056e-21 0.0010731477 -9.2434084e-22 4.2893763e-39)
(0.0035063987 -0.0019803253 -6.4580745e-22 0.0011566224 3.7677358e-22 1.473727e-40)
(0.0037825132 -0.002094396 -1.9521453e-22 0.0012103698 1.1291398e-22 5.2736826e-41)
(0.003912213 -0.0021469132 7.432408e-22 0.0012423085 -4.3253954e-22 4.0322969e-40)
(0.003898073 -0.0021449245 -9.0354449e-22 0.0012589049 5.3455053e-22 4.6335635e-40)
(0.003752188 -0.0020958055 -6.4277271e-22 0.0012652282 3.8985241e-22 5.7162296e-40)
(0.0034948629 -0.0020068769 1.3927904e-21 0.0012650533 -8.7879908e-22 2.9077458e-39)
(0.0031526101 -0.0018852093 6.5064551e-22 0.0012609996 -4.3706186e-22 2.0449468e-40)
(0.002755498 -0.0017375576 -1.0291755e-21 0.001254695 7.3831197e-22 1.0084422e-39)
(0.0023341541 -0.0015703565 1.8556062e-22 0.0012469368 -1.435406e-22 8.3906602e-41)
(0.0019168373 -0.0013897297 -4.1364877e-22 0.0012378326 3.5866577e-22 2.2427246e-40)
(0.001526957 -0.0012014879 -1.7130359e-22 0.0012269604 1.7508432e-22 7.0453843e-41)
(0.0011813147 -0.0010110132 5.29459e-22 0.0012135833 -5.8884561e-22 1.1397007e-39)
(0.00089014361 -0.00082265078 2.521345e-22 0.0011954937 -3.3417097e-22 2.1715633e-40)
(0.00066045202 -0.00064070989 -1.0938351e-22 0.001161414 1.3557079e-22 1.6274558e-39)
(0.000135047 -7.6928918e-05 -2.5491447e-22 4.4804904e-05 1.0851226e-22 2.1296637e-39)
(0.0007780803 -0.00046243274 -4.2522635e-22 0.00027556275 2.3623032e-22 2.2200482e-39)
(0.0015205318 -0.00087939084 -4.8454204e-22 0.00051154734 2.8231138e-22 5.5492205e-39)
(0.002271211 -0.0012500222 1.6209834e-23 0.00069607395 -8.906704e-24 6.0244786e-43)
(0.0029272407 -0.001551888 1.7893197e-23 0.00083857194 -8.4847901e-24 3.987174e-39)
(0.0034396482 -0.0017751656 5.494764e-22 0.00094202597 -2.9278824e-22 1.1150719e-39)
(0.0037837575 -0.00192135 5.3573592e-23 0.001013507 -2.6715996e-23 4.6158114e-40)
(0.0039507089 -0.0019975987 -9.3643843e-22 0.0010616264 5.0231143e-22 2.9492493e-40)
(0.0039460958 -0.0020128398 1.111077e-21 0.0010937668 -6.1088217e-22 5.5717773e-40)
(0.003788025 -0.0019762525 3.6658781e-22 0.0011155947 -2.1148804e-22 6.1082054e-40)
(0.0035044544 -0.0018966598 -1.0118492e-21 0.0011311877 6.0965253e-22 1.2632662e-39)
(0.0031299258 -0.0017822829 -3.1847776e-22 0.0011432032 2.0556719e-22 4.1251165e-40)
(0.0027017522 -0.0016407331 1.1494257e-22 0.0011530776 -7.9776097e-23 1.1167385e-39)
(0.002256069 -0.0014791273 2.7745644e-22 0.0011612493 -2.1410057e-22 1.609433e-40)
(0.0018243309 -0.0013042174 -9.7655483e-23 0.0011673843 8.414997e-23 1.2294043e-40)
(0.0014307791 -0.0011224587 2.2756843e-22 0.0011706004 -2.2641839e-22 9.7710551e-41)
(0.0010911915 -0.00093998442 -1.5717219e-22 0.0011696882 1.8411823e-22 3.7598731e-41)
(0.00081293268 -0.00076244399 -3.2216122e-22 0.0011632492 4.4331371e-22 9.1266646e-40)
(0.00059623772 -0.00059459708 -1.1426079e-23 0.0011494445 1.2175211e-23 8.1932669e-40)
(0.0004368705 -0.00044086102 1.123676e-22 0.0011243838 -2.4146361e-22 9.4115743e-41)
(0.00016643869 -7.9634488e-05 -2.0250933e-22 3.8846519e-05 7.4623605e-23 1.0577198e-39)
(0.00092563518 -0.0004653441 3.1100409e-22 0.00023451509 -1.5256175e-22 1.9757521e-40)
(0.0017745063 -0.00087151204 2.758984e-22 0.0004306818 -1.3603979e-22 2.2851982e-40)
(0.0025819508 -0.0012189629 6.0180376e-22 0.00058290174 -2.8727695e-22 2.4644644e-39)
(0.0032380225 -0.0014898188 5.2997015e-22 0.00070032255 -2.5168773e-22 1.0963667e-39)
(0.0036959459 -0.0016784055 -9.3333702e-22 0.00078705683 4.4342994e-22 8.3762915e-40)
(0.0039411092 -0.0017899994 -5.22903e-22 0.0008502375 2.5285392e-22 2.3845824e-40)
(0.0039801806 -0.0018345302 0 0.0008975375 0 0)
(0.0038368034 -0.0018226194 5.7283816e-22 0.00093503331 -3.1089966e-22 3.0717042e-39)
(0.0035470349 -0.0017642546 -2.4942063e-22 0.00096694629 1.4690349e-22 1.1636119e-39)
(0.0031542467 -0.0016684675 -1.4664046e-21 0.00099584953 8.740144e-22 1.0334332e-39)
(0.0027038091 -0.0015434038 -1.8807465e-22 0.0010229035 1.1841742e-22 2.0797666e-40)
(0.0022380407 -0.0013965821 7.2635259e-22 0.0010481229 -5.4002683e-22 1.4014968e-39)
(0.0017921142 -0.0012351543 4.05216e-23 0.0010706718 -2.6515935e-23 5.7882346e-40)
(0.0013914994 -0.0010660293 -1.1288936e-23 0.0010891738 1.1035589e-23 4.075586e-43)
(0.0010511888 -0.00089581071 1.2172603e-22 0.0011020311 -1.4055196e-22 7.173922e-41)
(0.00077655613 -0.00073057263 4.6785939e-25 0.0011077067 2.7596175e-24 8.3806008e-41)
(0.00056537925 -0.00057555468 -2.1709513e-22 0.0011048614 3.6465102e-22 2.1978795e-40)
(0.00041031222 -0.00043484001 -1.210747e-22 0.0010928554 2.5382569e-22 1.5286411e-40)
(0.0003015163 -0.00031142702 6.1669574e-23 0.0010732294 -1.866056e-22 9.5449423e-40)
(0.00019875819 -7.8219535e-05 1.5309795e-22 3.1331097e-05 -4.8780439e-23 4.1610078e-40)
(0.001065601 -0.00044429947 6.3797047e-22 0.00018570702 -2.5446362e-22 3.7489862e-39)
(0.0020021002 -0.00082006621 5.0391102e-22 0.00033826078 -2.0760327e-22 2.3761523e-40)
(0.0028386788 -0.0011309499 5.604623e-22 0.00045732098 -2.2896415e-22 1.318776e-39)
(0.0034638692 -0.001364361 -8.6364493e-22 0.00055121965 3.5679289e-22 2.0781207e-39)
(0.0038396946 -0.001518847 3.3461024e-23 0.00062445766 -1.0774729e-23 1.9770356e-40)
(0.0039680189 -0.0016023821 4.9609664e-23 0.00068331871 -2.1596335e-23 1.6655329e-42)
(0.0038758219 -0.0016259467 7.0711206e-22 0.00073377126 -3.2901416e-22 7.4321998e-40)
(0.0036069461 -0.0016000346 9.5685787e-23 0.00078000752 -4.7264972e-23 6.7054218e-42)
(0.0032143613 -0.0015338726 -2.5752907e-22 0.00082438771 1.4577392e-22 4.0197219e-40)
(0.0027527337 -0.0014355943 8.3930949e-22 0.00086770375 -5.2023657e-22 2.8039002e-39)
(0.0022719226 -0.0013126824 -6.1218585e-22 0.00090947276 4.0315694e-22 2.4246464e-40)
(0.0018121316 -0.001172383 -1.156272e-21 0.00094827862 9.0235902e-22 1.7201632e-39)
(0.0014012809 -0.0010218886 -3.8361954e-23 0.00098215792 3.5271404e-23 3.637279e-42)
(0.001054713 -0.00086822023 4.1437643e-22 0.0010090033 -4.6324767e-22 1.3919929e-39)
(0.00077682572 -0.00071787367 0 0.0010269496 0 0)
(0.00056390098 -0.0005763749 5.2195148e-23 0.0010346556 -7.5279337e-23 3.6210416e-41)
(0.00040729847 -0.00044791593 -2.6340142e-23 0.0010313637 5.7709971e-23 5.386125e-41)
(0.00029619651 -0.0003351973 -2.6677548e-23 0.0010176027 5.8361986e-23 1.4170556e-41)
(0.00021962736 -0.00023940311 1.2805154e-23 0.00099765048 -5.4534338e-23 9.6835677e-41)
(0.00023025542 -7.2224847e-05 3.3484989e-22 2.3041178e-05 -8.6273702e-23 1.682726e-39)
(0.0011881477 -0.00039891627 3.2973742e-23 0.00013430418 -1.0824516e-23 3.1145767e-42)
(0.0021862324 -0.00072710292 -9.4678734e-23 0.00024388887 3.1976957e-23 1.3790844e-41)
(0.0030213627 -0.00099231814 9.7929809e-23 0.00033197516 -3.1525743e-23 2.7249313e-40)
(0.0035875293 -0.0011871334 -5.9515769e-22 0.00040555562 2.0873868e-22 5.1126333e-40)
(0.0038624993 -0.0013131929 -2.8667944e-22 0.00046872678 1.0435924e-22 4.6230457e-41)
(0.003869767 -0.0013790073 2.0392536e-22 0.00052621158 -6.2560471e-23 1.4561609e-39)
(0.0036587431 -0.0013942497 -7.4181627e-24 0.0005818386 8.3940209e-24 1.1391035e-40)
(0.003292106 -0.0013673428 -4.855407e-22 0.00063767398 2.4114041e-22 1.2048068e-39)
(0.0028351937 -0.0013055031 8.4367383e-22 0.00069409443 -4.3849386e-22 3.5554069e-40)
(0.0023473296 -0.0012154361 -2.2696918e-23 0.00075008048 3.2007862e-23 6.2570272e-40)
(0.0018757798 -0.0011039544 -6.7207142e-22 0.00080357793 4.8844541e-22 1.7274042e-39)
(0.0014528087 -0.00097823128 0 0.00085194503 0 0)
(0.0010957407 -0.00084560704 1.6444157e-22 0.00089244939 -1.8652498e-22 9.2612772e-40)
(0.00080933042 -0.00071306575 8.4001029e-24 0.00092274333 -1.7625625e-23 5.0681631e-41)
(0.00058937983 -0.00058661113 -2.0022627e-22 0.00094124211 3.1495005e-22 1.0769909e-39)
(0.00042654557 -0.0004707643 -4.5361646e-23 0.00094730184 8.1311923e-23 2.2533872e-41)
(0.00030956361 -0.00036834362 -1.3974408e-23 0.00094111757 3.7993666e-23 3.6134097e-41)
(0.00022739972 -0.0002806043 -1.8249228e-23 0.00092427244 5.1257769e-23 1.4076277e-41)
(0.00017034852 -0.00020741562 3.2987191e-23 0.00090196417 -1.2559558e-22 1.3443249e-40)
(0.00025905954 -6.1611672e-05 1.2907871e-22 1.4905777e-05 -2.4836566e-23 2.66488e-40)
(0.0012841733 -0.00033135241 -9.2717778e-22 8.5798735e-05 2.3331725e-22 5.794995e-39)
(0.002312919 -0.00059911009 -8.1680808e-23 0.00015696969 2.3196756e-23 5.4110142e-40)
(0.0031165512 -0.00081468218 -2.4668209e-22 0.00021834972 7.2720268e-23 2.7214857e-39)
(0.0036021052 -0.00097457928 -1.8641852e-22 0.00027526282 5.1751741e-23 3.766444e-41)
(0.0037689809 -0.0010812213 -1.0560286e-21 0.00033085952 3.2730469e-22 4.9910916e-40)
(0.0036647939 -0.0011408148 -5.1825099e-22 0.00038804673 1.8255622e-22 4.0213972e-40)
(0.0033599979 -0.0011593526 1.0045097e-21 0.00044853398 -3.7837757e-22 3.2557543e-40)
(0.0029313686 -0.0011417413 1.7224395e-22 0.00051237011 -8.8579641e-23 4.1248222e-40)
(0.0024498137 -0.0010926851 -2.2144119e-22 0.00057807065 1.0049448e-22 1.4120221e-40)
(0.0019722579 -0.0010176194 1.0350799e-22 0.00064295752 -3.817928e-23 5.2930927e-40)
(0.0015378288 -0.00092308458 -2.0066461e-23 0.00070364524 2.6332538e-23 1.3416578e-40)
(0.0011679716 -0.00081644593 0 0.00075663843 0 0)
(0.00086942604 -0.00070514487 1.1092556e-22 0.00079892924 -1.15059e-22 3.2594183e-41)
(0.00063863535 -0.00059581646 -2.365734e-22 0.00082846701 3.079158e-22 4.4355127e-40)
(0.00046623793 -0.00049359465 -7.6924711e-23 0.00084440896 1.1735834e-22 3.8311285e-41)
(0.00034073392 -0.00040178105 1.3355123e-22 0.00084708845 -2.6588633e-22 5.2931381e-40)
(0.00025095093 -0.00032191004 -2.9149836e-23 0.00083771113 3.8950876e-23 1.1353386e-40)
(0.00018729054 -0.00025418027 -1.7058813e-24 0.00081860824 -3.4889344e-24 1.2735231e-41)
(0.00014201652 -0.00019783381 3.0535508e-23 0.00079475215 -9.0085044e-23 1.1627126e-41)
(0.00028338884 -4.6800546e-05 9.3865176e-23 7.8757913e-06 -1.2314631e-23 1.6688133e-40)
(0.0013464635 -0.00024612496 -8.6071364e-22 4.5235341e-05 1.5507138e-22 2.6583868e-39)
(0.0023729942 -0.00044615421 -6.7240916e-22 8.5394167e-05 1.3332895e-22 3.1807999e-39)
(0.0031188738 -0.000613149 9.6384163e-22 0.00012526069 -2.0114198e-22 7.8042881e-40)
(0.0035112623 -0.0007452222 7.2902421e-22 0.00016857238 -1.6375994e-22 1.6290841e-40)
(0.0035746305 -0.00084245191 -5.3545611e-22 0.00021751769 1.1795897e-22 1.6895344e-39)
(0.0033797221 -0.00090591962 1.7424308e-22 0.00027350545 -6.6137723e-23 7.1520087e-40)
(0.0030133125 -0.00093621989 1.0242701e-21 0.00033655921 -3.6193242e-22 8.0588954e-40)
(0.0025593767 -0.00093420995 4.4983247e-22 0.00040505286 -1.7622777e-22 1.0206551e-40)
(0.0020872712 -0.00090237853 -4.4292581e-22 0.00047589244 2.2501895e-22 2.6304043e-40)
(0.0016460174 -0.00084549049 -6.0158105e-22 0.00054499846 3.5660181e-22 3.1584429e-40)
(0.0012638595 -0.0007702563 -1.642683e-23 0.00060800617 1.1802738e-23 3.2935425e-43)
(0.00095157206 -0.00068430374 1.7357058e-22 0.00066102931 -1.5088432e-22 5.1221632e-41)
(0.00070761221 -0.00059493084 -6.2343874e-24 0.00070128532 1.9765382e-23 7.7318965e-41)
(0.00052339486 -0.00050809344 -6.7957788e-24 0.00072743405 3.2171743e-23 2.0926499e-40)
(0.00038756338 -0.00042788057 5.1659633e-24 0.00073958686 -4.2037243e-23 3.7802676e-40)
(0.00028882039 -0.0003564892 6.1549036e-23 0.00073901928 -1.2107225e-22 1.1117797e-40)
(0.00021742035 -0.00029456591 -3.51121e-23 0.00072770114 1.0190075e-22 2.891206e-40)
(0.00016564995 -0.00024179481 -8.9778688e-23 0.0007082753 2.4708261e-22 5.6179987e-40)
(0.00012763005 -0.00019732279 2.9811923e-23 0.00068485267 -7.2286329e-23 1.2705528e-41)
(0.00030183974 -2.8638906e-05 -2.4435249e-22 2.7886288e-06 2.0366568e-23 4.9867133e-40)
(0.0013706814 -0.00014954333 -1.9304541e-22 1.6516003e-05 2.0677699e-23 5.3821201e-40)
(0.0023630487 -0.00028050003 1.4783433e-21 3.4548785e-05 -1.8733343e-22 6.574049e-39)
(0.00303134 -0.00040415098 1.1027766e-21 5.7954577e-05 -1.5905975e-22 7.1966609e-40)
(0.0033280822 -0.00051704152 4.9515639e-22 8.9563554e-05 -7.7269916e-23 3.5316682e-40)
(0.0033027393 -0.00061371126 9.99786e-23 0.00013122957 -2.0334675e-23 3.4161185e-42)
(0.0030447084 -0.00068804248 -9.3983969e-22 0.00018366112 2.07175e-22 1.4765689e-39)
(0.0026501017 -0.00073458352 0 0.00024584937 0 0)
(0.0022027849 -0.0007505393 -5.7690487e-22 0.00031489849 2.4747216e-22 1.2223027e-39)
(0.0017648798 -0.00073699249 -9.9401386e-23 0.00038638432 6.4687372e-23 2.7663685e-40)
(0.0013746266 -0.00069869415 2.833817e-22 0.00045513587 -1.629337e-22 6.8281156e-41)
(0.0010494299 -0.00064274931 3.0616089e-23 0.00051621723 -3.8597246e-23 1.5218515e-40)
(0.00079157006 -0.0005768865 -1.3560859e-22 0.00056580491 1.3156944e-22 1.7756779e-40)
(0.00059432336 -0.00050796107 -1.0238967e-22 0.00060171421 1.3276884e-22 3.7919338e-40)
(0.00044701895 -0.00044107388 6.5851665e-23 0.00062348746 -6.6482027e-23 4.664832e-41)
(0.00033844187 -0.00037935547 9.1345041e-23 0.00063211276 -1.1692122e-22 4.3366087e-41)
(0.00025866808 -0.00032423141 -8.1534877e-23 0.00062952274 1.3388715e-22 4.0452023e-41)
(0.0001997574 -0.00027592502 -1.09516e-22 0.00061805504 2.3349779e-22 4.7009492e-40)
(0.00015575877 -0.00023404025 8.3762877e-24 0.00060025374 -1.8378264e-24 5.5046573e-41)
(0.00012229929 -0.00019789083 1.4962381e-23 0.0005791208 -4.9692167e-23 6.5036916e-41)
(0.00031334172 -8.2656181e-06 -1.6123264e-22 2.5014249e-07 4.1089944e-24 2.4394478e-40)
(0.0013554135 -4.8914794e-05 6.8985551e-22 1.9329027e-06 -2.4679566e-23 1.3532139e-39)
(0.0022853827 -0.00011516657 1.0545434e-21 6.826081e-06 -6.4738104e-23 9.8133487e-39)
(0.0028645973 -0.00020361548 -1.2385057e-21 1.7951744e-05 1.0634814e-22 2.7040077e-39)
(0.0030727272 -0.00030572088 4.4844254e-22 3.8555636e-05 -4.892931e-23 6.8526907e-41)
(0.0029803982 -0.00040801412 1.8478781e-22 7.1299267e-05 9.1659881e-25 2.4954642e-39)
(0.0026887256 -0.00049634579 4.8550571e-23 0.0001171947 -9.7831704e-24 9.0718852e-43)
(0.0022955863 -0.00055971271 -6.9176209e-22 0.00017483795 1.5884443e-22 8.4384775e-40)
(0.0018786697 -0.00059273905 -1.5722457e-23 0.00024040797 5.4057129e-24 1.3644455e-43)
(0.001489603 -0.00059604829 2.5873788e-22 0.00030842625 -1.3369263e-22 3.2144436e-40)
(0.0011555647 -0.00057481959 2.0356854e-23 0.00037298329 -2.0600436e-23 4.5893041e-41)
(0.00088504335 -0.00053649974 -9.322796e-23 0.00042898619 2.5263686e-23 5.9372293e-40)
(0.00067473207 -0.00048863858 -2.0816848e-22 0.00047302692 1.6837993e-22 6.7485972e-41)
(0.00051551277 -0.00043743663 -1.2827911e-24 0.0005036818 1.6067149e-23 7.7325105e-41)
(0.00039665098 -0.00038715831 7.0677405e-23 0.00052129296 -9.2023955e-23 7.5802319e-41)
(0.00030818034 -0.0003402209 4.7117645e-23 0.00052743789 -7.4130331e-23 7.3439855e-41)
(0.00024191501 -0.0002976391 1.0826366e-23 0.00052431985 -3.5058125e-23 1.1870276e-40)
(0.00019163226 -0.00025955931 -7.5184933e-23 0.00051426477 1.0537036e-22 9.5869797e-41)
(0.0001528449 -0.0002257302 -1.5268208e-23 0.00049944138 -9.816758e-24 4.0702761e-40)
(0.00012232749 -0.00019567269 4.1679564e-23 0.00048176232 -1.2753417e-22 6.7226204e-40)
(2.0868589e-06 -2.6078595e-07 2.0852946e-23 3.1849446e-07 -4.1724433e-24 2.3837827e-40)
(9.8361289e-06 -4.1170507e-06 -2.9756439e-23 2.114871e-06 8.2451439e-24 2.2948558e-40)
(2.2032317e-05 -9.5144663e-06 6.609313e-23 4.2162858e-06 -2.477244e-23 1.3181973e-39)
(7.0636991e-05 -2.0079814e-05 1.8452843e-22 6.047733e-06 -3.9379156e-23 4.4329516e-39)
(0.00015502965 -3.3130008e-05 -1.3187476e-22 7.6952078e-06 2.2488349e-23 1.1529524e-39)
(0.00027710052 -4.7746274e-05 1.6627722e-22 9.1602138e-06 -2.2605808e-23 1.2739221e-39)
(0.00044086191 -6.3433574e-05 -2.2848277e-22 1.0444715e-05 2.9076553e-23 1.3994183e-39)
(0.00064741319 -7.9696691e-05 -2.3575407e-22 1.157513e-05 2.4719291e-23 1.4794997e-39)
(0.00089582426 -9.6133662e-05 2.9694082e-22 1.2579888e-05 -3.0900258e-23 1.5645496e-39)
(0.0011844961 -0.00011244826 -2.3074722e-22 1.3481127e-05 2.2632798e-23 7.9693958e-40)
(0.0015114197 -0.00012841747 -1.1495198e-23 1.4295643e-05 1.9242417e-25 9.261889e-42)
(0.0018742076 -0.00014386847 6.6692113e-23 1.5036295e-05 -7.124257e-24 2.9355688e-41)
(0.0022702083 -0.00015866509 -1.1458203e-23 1.5712932e-05 5.5640042e-25 4.6493277e-42)
(0.0026966138 -0.00017269947 3.6353751e-22 1.6333464e-05 -3.2743544e-23 1.3963161e-39)
(0.003150524 -0.00018588944 4.2060493e-25 1.6905201e-05 6.8804031e-25 3.0135262e-42)
(0.0036290121 -0.00019818356 -5.3720203e-22 1.7436193e-05 5.0388631e-23 2.8725657e-39)
(0.0041292121 -0.00020956551 9.9940461e-23 1.7935048e-05 -1.0508173e-23 6.0731139e-41)
(0.0046483318 -0.0002200343 2.4333814e-22 1.840813e-05 -2.4102154e-23 7.3050225e-40)
(0.005183597 -0.00022963394 -3.9676299e-22 1.886175e-05 4.1980302e-23 2.0708219e-39)
(0.005731846 -0.00023866633 -2.2043279e-22 1.929189e-05 2.4796992e-23 7.7748757e-40)
(2.363533e-06 -1.0908853e-06 6.8717776e-24 2.8027094e-06 -2.5427476e-24 2.3615114e-41)
(1.2539243e-05 -1.4107525e-05 -1.8844907e-22 1.8636411e-05 1.420851e-22 7.6747027e-39)
(2.8139078e-05 -3.203008e-05 3.7395513e-23 3.714357e-05 -3.0921068e-23 6.9268486e-40)
(8.3111341e-05 -6.5010181e-05 1.9855515e-22 5.3280753e-05 -1.2202806e-22 3.7052241e-39)
(0.0001748879 -0.00010516272 2.7597628e-22 6.7766836e-05 -1.3274318e-22 4.1899876e-39)
(0.00030476748 -0.00014978838 3.3386593e-23 8.0594866e-05 -1.3405264e-23 3.9362098e-41)
(0.00047629395 -0.00019740878 -8.8819946e-22 9.1785286e-05 3.0822552e-22 2.0958209e-38)
(0.00069000227 -0.00024655949 -3.1370174e-23 0.0001015724 1.3018549e-23 6.0705781e-42)
(0.00094445643 -0.00029605992 5.0352694e-22 0.0001102061 -1.5364319e-22 3.5778774e-39)
(0.0012375955 -0.0003450398 -1.2164251e-22 0.00011788126 3.3672051e-23 1.9894515e-40)
(0.001566953 -0.00039284176 -4.624822e-22 0.00012474582 1.270548e-22 2.2074366e-39)
(0.0019296789 -0.00043895418 9.7436998e-23 0.00013091218 -2.4980654e-23 1.0050376e-40)
(0.0023226493 -0.00048297107 4.1165618e-22 0.00013646509 -9.2390278e-23 2.3669877e-39)
(0.0027425627 -0.00052456647 1.7065546e-22 0.00014147072 -4.2549608e-23 2.7046734e-40)
(0.0031859876 -0.0005634851 3.4236439e-22 0.00014598815 -9.1318102e-23 7.8268561e-40)
(0.0036494264 -0.0005995557 -2.7114561e-22 0.00015008074 6.8385652e-23 6.6191302e-40)
(0.0041294771 -0.00063270846 -2.5988999e-22 0.00015381728 6.4860471e-23 7.2392845e-40)
(0.0046227692 -0.00066291247 2.6356859e-22 0.00015725273 -7.465056e-23 4.188655e-40)
(0.0051249952 -0.00069028351 2.4172119e-22 0.00016044927 -6.6745863e-23 7.3178393e-40)
(0.0056310761 -0.00071597765 9.4230071e-23 0.00016339527 -2.4975951e-23 3.1064028e-40)
(3.0380426e-06 -2.7923809e-06 5.2873441e-24 7.4746094e-06 -2.6484771e-24 1.243661e-41)
(1.8954185e-05 -2.9154674e-05 1.4313069e-22 4.9748602e-05 -1.5319987e-22 3.2708367e-39)
(4.2360751e-05 -6.4429233e-05 -3.1329882e-23 9.907696e-05 4.0377443e-23 1.7129849e-40)
(0.00011066893 -0.00012341569 -2.1573304e-22 0.00014206784 1.8169143e-22 4.0557644e-39)
(0.00021772798 -0.0001934631 7.9556339e-23 0.00018052637 -6.6835979e-23 1.1505798e-40)
(0.00036364588 -0.00027021207 1.0553214e-22 0.00021435069 -8.5822201e-23 6.078756e-41)
(0.00055102211 -0.00035122033 -1.3132928e-22 0.00024358918 6.9707018e-23 3.6143746e-40)
(0.00077932426 -0.00043411669 -3.4396315e-22 0.00026886553 2.0088244e-22 7.2346532e-40)
(0.0010461483 -0.00051700501 1.5057863e-22 0.00029084368 -7.3289314e-23 2.0201529e-40)
(0.0013485354 -0.00059848136 3.1990116e-22 0.00031004558 -1.3327391e-22 1.1468203e-39)
(0.0016831297 -0.00067747538 8.9657338e-23 0.00032686947 -6.1954661e-23 4.3246957e-41)
(0.0020461841 -0.00075314396 3.9172404e-22 0.00034161682 -1.3047772e-22 2.1277294e-39)
(0.0024336579 -0.00082480587 3.3297879e-23 0.00035451089 -1.2363739e-23 8.8266583e-42)
(0.0028412955 -0.00089189779 -5.8391211e-22 0.00036571898 1.9771028e-22 3.4220333e-39)
(0.0032646496 -0.00095395666 4.3304384e-23 0.00037538272 -2.8371374e-23 1.9000836e-41)
(0.003699146 -0.0010106425 -2.7368603e-22 0.00038365024 7.6519263e-23 1.333072e-39)
(0.0041403927 -0.0010617794 -3.8752072e-22 0.00039068361 1.5319773e-22 5.4909977e-40)
(0.0045840109 -0.0011072541 6.3064785e-22 0.0003966433 -2.4509214e-22 1.8219369e-39)
(0.0050231141 -0.0011472121 3.3402485e-22 0.00040179296 -1.3752011e-22 3.7117564e-40)
(0.0054497387 -0.0011841292 6.6520908e-23 0.00040628254 -3.0071292e-23 7.9710933e-42)
(4.4752777e-06 -5.7749567e-06 -7.9094019e-24 1.3763556e-05 9.9549646e-24 1.8255645e-41)
(3.1075871e-05 -5.1769303e-05 -3.3167297e-22 9.1779812e-05 4.1943562e-22 1.0854657e-38)
(6.8768945e-05 -0.00011163028 -2.4083717e-23 0.00018263215 3.0950167e-23 1.4832504e-40)
(0.00015914982 -0.0002018579 5.5687889e-23 0.00026168676 -6.1644242e-23 9.4637758e-41)
(0.00029108689 -0.00030569673 -8.928383e-24 0.00033205805 2.2768051e-24 2.4425122e-41)
(0.00046292633 -0.00041722739 2.8379638e-22 0.00039336049 -2.0810605e-22 1.782792e-39)
(0.00067580994 -0.0005330377 3.1404308e-22 0.00044564964 -2.0519746e-22 1.6196718e-39)
(0.0009276186 -0.00064993328 -9.5069987e-23 0.00049007419 4.5996327e-23 2.5517391e-40)
(0.0012144937 -0.00076538594 -3.4941188e-22 0.00052786491 1.8267138e-22 1.6228539e-39)
(0.0015321062 -0.00087750723 -7.0574794e-22 0.00056000391 3.8085087e-22 3.4427736e-39)
(0.0018757419 -0.0009848359 -1.5145558e-23 0.00058725137 -8.3327168e-24 7.8545846e-41)
(0.0022402941 -0.0010862018 8.9979949e-22 0.00061018752 -4.1955402e-22 5.6258085e-39)
(0.0026203435 -0.0011806352 -3.6464537e-22 0.00062924049 1.394132e-22 1.6625597e-39)
(0.0030102373 -0.0012673132 -2.3625844e-22 0.00064472684 1.0354756e-22 3.2825872e-40)
(0.0034040948 -0.0013455307 -2.8895175e-23 0.00065690186 3.1924882e-23 7.0826504e-41)
(0.0037958855 -0.0014147285 5.6150716e-22 0.00066601541 -2.4615421e-22 1.3471458e-39)
(0.0041799172 -0.0014745758 -3.1892189e-22 0.00067233437 1.593517e-22 9.0943179e-41)
(0.0045506718 -0.0015248853 -7.3231371e-22 0.00067619856 3.0822619e-22 2.8998499e-39)
(0.0048983369 -0.0015658503 4.9323954e-22 0.00067843663 -2.1433608e-22 1.4583127e-39)
(0.0052117943 -0.0016014878 4.2522904e-22 0.00067997785 -1.7039129e-22 1.3558463e-39)
(7.1570968e-06 -1.0285121e-05 3.5519998e-23 2.098013e-05 -3.4519035e-23 2.3373629e-40)
(5.1567263e-05 -8.342395e-05 1.1448618e-23 0.00014009083 -2.9062672e-24 1.0575377e-40)
(0.00011274711 -0.00017647816 -4.5766791e-22 0.0002783049 6.5506882e-22 8.9078426e-39)
(0.00023609201 -0.00030395608 -2.628939e-22 0.00039818469 2.7919152e-22 2.7543602e-39)
(0.00040427769 -0.00044570229 1.7530701e-22 0.00050415387 -1.395859e-22 1.664578e-39)
(0.00061325031 -0.00059423542 2.1845537e-22 0.00059531469 -1.7601477e-22 7.8428845e-40)
(0.00086205812 -0.00074512689 -2.8416083e-22 0.00067171531 1.8559487e-22 1.8349115e-39)
(0.0011463886 -0.00089445516 -4.3358498e-22 0.00073513398 2.4886796e-22 4.0265205e-39)
(0.0014603567 -0.0010391663 6.4315377e-22 0.00078749374 -3.8418737e-22 4.1324243e-39)
(0.00179771 -0.0011769632 1.8410741e-22 0.00083036276 -7.4530395e-23 9.6172154e-40)
(0.0021518403 -0.0013060475 -5.835733e-22 0.0008649862 3.8579538e-22 3.2081199e-40)
(0.0025157825 -0.0014249647 2.5531407e-22 0.00089233738 -1.1611928e-22 7.4062183e-40)
(0.0028823207 -0.0015325036 0 0.00091315486 0 0)
(0.003244077 -0.0016276279 2.4979652e-22 0.0009279925 -1.2173197e-22 2.9004343e-40)
(0.0035935436 -0.0017094417 -1.8772817e-22 0.00093728749 8.9212392e-23 1.5490105e-40)
(0.0039232079 -0.0017772182 -2.882575e-22 0.00094143474 1.4378455e-22 1.8831188e-40)
(0.0042262836 -0.0018305272 1.0692607e-22 0.00094080934 -8.6756761e-23 2.6440096e-40)
(0.0044967147 -0.0018692442 -8.6863825e-23 0.00093594317 5.1740471e-23 9.5986227e-42)
(0.0047225896 -0.0018938184 4.1772637e-22 0.00092866741 -1.8072729e-22 1.5693225e-39)
(0.0048894384 -0.0019096474 -3.3856549e-22 0.00092194727 1.654844e-22 9.2000075e-41)
(1.1641817e-05 -1.6401556e-05 3.4064496e-23 2.8441789e-05 -2.864048e-23 1.876796e-40)
(8.3438168e-05 -0.00012440212 1.6442458e-22 0.0001898098 -2.1888498e-22 7.0197329e-40)
(0.00018024498 -0.00025930395 -2.2071054e-22 0.0003759229 2.9276098e-22 1.6712949e-39)
(0.00034943559 -0.00042960892 -3.629192e-22 0.00053646342 4.0808638e-22 1.4006693e-39)
(0.00056634709 -0.00061239463 -1.0761907e-22 0.00067701828 1.5715899e-22 1.1052841e-39)
(0.00082369249 -0.00079850842 -3.2849321e-22 0.0007960317 2.8841209e-22 6.8794312e-40)
(0.001117603 -0.00098245109 -1.5250505e-22 0.00089360655 9.3901722e-23 7.9434174e-40)
(0.001440857 -0.0011597089 2.6462573e-22 0.00097225855 -1.5916722e-22 1.4652573e-39)
(0.0017848978 -0.0013268675 6.3375252e-22 0.001034725 -3.776907e-22 5.0172977e-39)
(0.002140959 -0.0014813789 1.9562055e-22 0.0010833018 -1.2036246e-22 2.1049149e-40)
(0.0025000722 -0.0016212756 -1.8587098e-22 0.0011198683 9.8692479e-23 3.3382189e-40)
(0.002853094 -0.001744998 -3.4312733e-23 0.001145943 -7.6305998e-24 2.9069874e-40)
(0.0031908831 -0.0018512896 -8.8856276e-22 0.0011627232 4.858979e-22 2.7700281e-39)
(0.0035044769 -0.0019391288 -2.7619325e-22 0.0011711414 1.443515e-22 2.8651e-40)
(0.0037852139 -0.0020076905 4.6360051e-22 0.0011719402 -2.6756477e-22 1.367428e-40)
(0.004024944 -0.0020563622 -4.6262534e-22 0.0011657477 2.4956426e-22 2.8399313e-40)
(0.0042169944 -0.0020848725 -1.6337408e-22 0.0011530549 8.034725e-23 9.0655451e-41)
(0.0043565469 -0.0020934284 3.6673613e-22 0.0011344571 -1.5480764e-22 1.408171e-39)
(0.0044321659 -0.0020831132 5.575361e-22 0.0011129163 -2.7813338e-22 1.0689443e-39)
(0.0044264105 -0.002060257 6.7845639e-23 0.0010949869 -3.1676164e-23 2.0802517e-41)
(1.8523943e-05 -2.404064e-05 -9.6071506e-23 3.5528692e-05 7.8000759e-23 1.1104105e-39)
(0.00012968957 -0.00017377018 -1.0632577e-22 0.00023631984 1.0786429e-22 8.8507344e-40)
(0.00027688515 -0.00035775315 2.7043016e-22 0.00046578686 -3.4133908e-22 4.0903906e-40)
(0.00050602289 -0.00057464455 4.1188867e-22 0.00066210854 -4.2637202e-22 1.8572027e-39)
(0.00078390007 -0.00079929891 5.3811388e-24 0.00083183313 -4.8426361e-24 3.6858412e-43)
(0.0010989022 -0.0010207609 -1.1194835e-21 0.00097279195 9.2305196e-22 1.0843062e-38)
(0.0014432612 -0.0012324871 -4.3982181e-22 0.0010853366 3.7579568e-22 1.5610377e-40)
(0.0018061001 -0.0014296104 3.4123444e-22 0.0011728707 -2.3001809e-22 1.1896935e-39)
(0.0021756458 -0.0016086606 3.9202216e-22 0.001239081 -2.6298518e-22 7.2783357e-40)
(0.0025402829 -0.0017671673 -3.8399441e-22 0.0012871383 2.1377545e-22 1.9971105e-39)
(0.0028885837 -0.0019033435 -1.132275e-21 0.0013197139 7.1334772e-22 2.9139833e-39)
(0.0032094647 -0.0020159093 7.4563057e-22 0.0013390295 -4.5100396e-22 1.1980672e-39)
(0.0034925033 -0.0021039871 4.4393596e-22 0.0013468973 -2.3139918e-22 1.4339944e-39)
(0.003728265 -0.002167036 -6.1680665e-22 0.0013447783 3.3975954e-22 1.1840348e-39)
(0.0039085726 -0.0022048095 2.7154232e-22 0.0013338536 -1.5628832e-22 7.9566706e-41)
(0.0040268025 -0.002217337 4.5122643e-22 0.0013150807 -2.3204711e-22 8.8174528e-40)
(0.004078939 -0.0022049787 1.7220084e-22 0.0012890756 -9.67412e-23 3.0120712e-41)
(0.0040643292 -0.0021686075 -2.9542431e-22 0.0012562455 1.8160094e-22 3.8364051e-41)
(0.0039761052 -0.0021102144 -6.8939569e-23 0.0012202125 2.2621929e-23 2.1825075e-40)
(0.0037959416 -0.0020362936 3.8825863e-22 0.0011921057 -2.2337051e-22 8.9348593e-41)
(2.8389499e-05 -3.2958367e-05 -2.8165739e-24 4.1690741e-05 -3.0669567e-24 2.0788035e-41)
(0.00019292047 -0.00022940629 -3.875608e-22 0.00027551871 4.099972e-22 2.9096836e-39)
(0.00040699367 -0.00046686918 -3.0884162e-22 0.00053944667 3.3140438e-22 4.4002358e-39)