/*--------------------------------*- C++ -*----------------------------------*\
  =========                 |
  \\      /  F ield         | OpenFOAM: The Open Source CFD Toolbox
   \\    /   O peration     | Website:  https://openfoam.org
    \\  /    A nd           | Version:  6
     \\/     M anipulation  |
\*---------------------------------------------------------------------------*/
FoamFile
{
    version     2.0;
    format      ascii;
    class       volVectorField;
    location    "250";
    object      UMean;
}
// * * * * * * * * * * * * * * * * * * * * * * * * * * * * * * * * * * * * * //

dimensions      [0 1 -1 0 0 0 0];

internalField   nonuniform List<vector> 
9200
(
(0.0015909811 0.00099797072 -6.0657531e-20)
(0.015509995 -0.0033881564 4.7962846e-20)
(0.041545733 -0.0079738531 -3.9653477e-20)
(0.076988572 -0.012543337 -6.2693097e-20)
(0.11996775 -0.016870928 1.9485246e-20)
(0.16923435 -0.020521608 3.4075288e-20)
(0.22369748 -0.02320773 -1.2747866e-20)
(0.28234951 -0.024786023 9.6418279e-21)
(0.34424848 -0.025199919 1.7710546e-20)
(0.40848652 -0.024456323 1.5653068e-21)
(0.47416665 -0.022614312 -2.2666688e-20)
(0.54039413 -0.019774146 2.1790853e-20)
(0.60627976 -0.016066318 -4.2540361e-20)
(0.67095291 -0.011640429 -2.2339325e-20)
(0.73358264 -0.0066533978 6.2423316e-21)
(0.7934043 -0.0012597677 -2.6624105e-20)
(0.84976467 0.0044113427 2.6747926e-20)
(0.90224418 0.010402816 2.3711228e-20)
(0.95047481 0.016843974 -2.6670992e-22)
(0.99180078 0.020403534 -1.6055721e-21)
(0.0059652974 -0.001821227 -1.7475498e-20)
(0.029227087 -0.010426077 4.1243889e-20)
(0.065551681 -0.017036628 2.4096517e-20)
(0.11182134 -0.02205892 -1.1979896e-19)
(0.16586004 -0.025672699 -1.31235e-20)
(0.22616015 -0.027675778 7.6258742e-20)
(0.29136367 -0.027982045 -3.6905655e-20)
(0.36018394 -0.026635551 -8.7833943e-21)
(0.43139445 -0.023750796 3.5932595e-20)
(0.50380588 -0.019493681 -4.5419103e-20)
(0.57625545 -0.01407368 -3.2004327e-20)
(0.64761437 -0.0077334101 7.59658e-20)
(0.71680845 -0.00073682217 4.03711e-20)
(0.78284721 0.0066424741 -7.1767065e-20)
(0.84485721 0.014131169 1.5439037e-20)
(0.90211417 0.021460915 -3.8785874e-20)
(0.95408252 0.028382207 -1.4671778e-20)
(1.0005131 0.034737047 7.487918e-20)
(1.0413119 0.040118127 3.1919969e-20)
(1.0747366 0.041424225 -8.4938432e-20)
(0.011745602 -0.0045497073 3.7384121e-20)
(0.046668508 -0.016916642 2.3545037e-21)
(0.095056773 -0.024809597 2.2645152e-20)
(0.15343822 -0.02937829 1.012386e-21)
(0.21934178 -0.031293138 -4.1728489e-20)
(0.29097635 -0.030649049 1.9417534e-20)
(0.36668278 -0.027621828 1.3744956e-20)
(0.4448639 -0.022500565 -5.2399543e-20)
(0.52399004 -0.015623691 5.9846372e-20)
(0.60259541 -0.0073616214 1.5160186e-20)
(0.67928912 0.0018908902 -5.717373e-20)
(0.75278397 0.011728376 -1.9302157e-20)
(0.82193458 0.021751127 9.2868384e-21)
(0.88577693 0.031581375 2.4669015e-20)
(0.94356262 0.040877102 -1.1931188e-20)
(0.99478092 0.049340865 2.9271369e-20)
(1.0391705 0.056733673 -2.127016e-20)
(1.0767482 0.06292194 -7.3284535e-20)
(1.1076852 0.067641125 -2.4273282e-20)
(1.1311665 0.069026041 5.0359226e-20)
(0.019026454 -0.0069383721 2.4805951e-20)
(0.067948128 -0.022164555 5.21598e-20)
(0.1300412 -0.030254301 2.0410693e-20)
(0.20155458 -0.033224488 1.3606895e-20)
(0.27974089 -0.032322986 1.8013473e-20)
(0.36250956 -0.02801101 -4.9483689e-20)
(0.44788492 -0.020790116 -2.6697002e-20)
(0.53396071 -0.011251184 0)
(0.61893442 -1.999833e-06 1.5215518e-20)
(0.70113265 0.012352578 -6.5438517e-21)
(0.77904833 0.025221926 -1.0251149e-19)
(0.85138885 0.038049193 -1.6373253e-20)
(0.91712281 0.050333162 6.8316801e-20)
(0.97551582 0.061647403 4.7821316e-22)
(1.0261483 0.071654168 -1.6439059e-21)
(1.0689113 0.080111 2.2909126e-20)
(1.1039818 0.086877163 -5.3742891e-21)
(1.1317966 0.091941909 -6.3612656e-20)
(1.1529349 0.095283599 -4.7774032e-20)
(1.167394 0.095955245 7.1175527e-20)
(0.027832677 -0.0087051691 -3.8528765e-21)
(0.092959369 -0.025419946 -4.8629243e-21)
(0.17010523 -0.032299119 5.7814076e-20)
(0.25534849 -0.032338156 1.9258792e-20)
(0.34570593 -0.027444436 -3.3272037e-20)
(0.43879795 -0.018514722 1.2371618e-20)
(0.53235709 -0.0064356068 2.7455948e-21)
(0.6242253 0.0078562017 3.5235416e-20)
(0.71242611 0.023460338 5.9145816e-21)
(0.79522237 0.039539186 -1.4011458e-20)
(0.87117446 0.055334787 6.3251057e-20)
(0.93919428 0.070193097 -6.0439108e-20)
(0.99858125 0.08358661 -1.379218e-19)
(1.049032 0.095128865 -5.8121814e-21)
(1.0906211 0.10457868 8.643055e-20)
(1.1237537 0.11183349 0)
(1.1490993 0.11691825 1.061045e-20)
(1.1675205 0.11998817 -1.5938367e-20)
(1.1799588 0.12122719 -9.0222379e-21)
(1.1869881 0.12024758 2.1490256e-20)
(0.038099199 -0.0095455503 -5.1830232e-21)
(0.12134451 -0.02592124 4.4330807e-21)
(0.21445999 -0.029923845 -8.9467223e-21)
(0.31350026 -0.025608989 2.8941243e-20)
(0.41532243 -0.015608641 -3.0442497e-20)
(0.51731325 -0.0013125331 -1.7520886e-20)
(0.61699742 0.015967941 3.8043523e-20)
(0.71209194 0.034936428 4.7666202e-21)
(0.8006177 0.054416701 -2.5864217e-20)
(0.8809815 0.073386666 7.2732056e-20)
(0.95203836 0.090997692 3.2267801e-22)
(1.0131277 0.10659605 -8.3808179e-20)
(1.0640733 0.11973539 0)
(1.1051449 0.13017417 4.09487e-20)
(1.1369865 0.13785837 5.6761091e-21)
(1.1605226 0.14289173 -8.0040904e-20)
(1.1768529 0.14550172 -2.0229471e-20)
(1.1871568 0.1460171 -1.279786e-20)
(1.192587 0.14478056 -1.5152477e-20)
(1.194 0.14173706 4.1537863e-20)
(0.049657968 -0.0091533696 -1.7302216e-20)
(0.15247861 -0.022954166 -2.968148e-21)
(0.26193683 -0.022249634 3.0628785e-20)
(0.37425189 -0.012186978 3.7629496e-20)
(0.48624346 0.0038463748 -2.0402152e-20)
(0.59517826 0.023939563 -7.1517651e-20)
(0.69852446 0.046354993 -2.9238636e-20)
(0.7940689 0.069470917 8.1789367e-20)
(0.88005714 0.09190525 9.1540651e-21)
(0.95527989 0.11255187 -2.5681244e-20)
(1.0191128 0.13059202 1.3993198e-20)
(1.0715077 0.14549885 -4.5038307e-21)
(1.1129341 0.15702466 0)
(1.1442805 0.16516809 2.8108103e-20)
(1.1667305 0.17012616 -8.1795589e-20)
(1.1816311 0.17223773 -3.2441295e-20)
(1.1903709 0.17192854 8.3321607e-20)
(1.1942818 0.16967168 -4.6225093e-21)
(1.1945591 0.16591021 3.5933846e-21)
(1.1921126 0.16077437 2.7955835e-20)
(0.062231927 -0.0072486875 -3.2536075e-20)
(0.1854755 -0.015923581 -8.3077406e-20)
(0.31103228 -0.0086365952 1.8808411e-21)
(0.43551027 0.0084140938 7.2045808e-20)
(0.55586312 0.031108305 6.4102783e-20)
(0.66941248 0.057033782 -7.3129735e-20)
(0.77378322 0.084080329 1.1343619e-22)
(0.86707543 0.11039416 8.8732057e-20)
(0.94800982 0.13451281 5.0464914e-20)
(1.0159895 0.15539056 -5.6151109e-20)
(1.0710888 0.17238494 -9.5426292e-20)
(1.1139774 0.18522675 -3.2605699e-21)
(1.1457937 0.19396747 4.342691e-20)
(1.1679894 0.19890757 -6.7495212e-21)
(1.1821685 0.20051607 -1.3113054e-20)
(1.1899428 0.19935194 2.0023739e-20)
(1.1928172 0.19599785 4.4989228e-20)
(1.1921159 0.19101597 -4.4811212e-20)
(1.1889411 0.1848874 -1.0477165e-19)
(1.1841127 0.17783252 2.532159e-20)
(0.075405511 -0.00360843 -3.5584537e-20)
(0.21914932 -0.0044292649 -1.7516778e-19)
(0.35988396 0.011233775 8.4573058e-20)
(0.49485181 0.036255872 9.5147934e-20)
(0.62135887 0.065872541 5.9303937e-20)
(0.73701158 0.09725089 8.8795473e-21)
(0.83984616 0.12802549 -1.0921243e-19)
(0.92853345 0.15626319 0)
(1.0024983 0.18059217 -7.1149294e-20)
(1.0619277 0.20019617 -1.5729991e-20)
(1.1076868 0.21475608 5.6337266e-20)
(1.1411684 0.22436936 1.12598e-20)
(1.1641056 0.22944895 -4.6817979e-20)
(1.1783786 0.23061261 -5.0259721e-20)
(1.185844 0.22857759 2.4986583e-20)
(1.1882047 0.22407221 4.6031822e-20)
(1.1869275 0.21777221 -5.697563e-20)
(1.1832087 0.21026513 -1.0992013e-19)
(1.1779776 0.20201546 -3.0931509e-21)
(1.1718973 0.19327722 2.7585393e-20)
(0.088608078 0.0019185076 -3.8636407e-21)
(0.25201908 0.011720099 8.9327633e-20)
(0.40630829 0.037363044 -1.5062725e-20)
(0.5496095 0.071000551 -8.6988145e-20)
(0.67982984 0.10738917 4.6377807e-20)
(0.79511828 0.14343026 4.9971947e-20)
(0.89418019 0.17668981 5.7013676e-21)
(0.97648381 0.20536138 -1.0225666e-19)
(1.042323 0.22836327 -2.5772627e-21)
(1.0927497 0.24527826 5.1944767e-20)
(1.1294116 0.25623274 6.1427614e-21)
(1.1543359 0.26175694 -2.0292637e-20)
(1.1697035 0.26263725 -7.7579879e-20)
(1.1776483 0.2597771 -6.3417691e-21)
(1.1801059 0.25408221 4.4486384e-20)
(1.1787215 0.24637883 3.7790793e-20)
(1.1748138 0.23736671 2.0104987e-20)
(1.1693854 0.22760162 -5.4338399e-20)
(1.1631659 0.21749284 1.2909913e-20)
(1.1566477 0.20729899 8.4109805e-20)
(-0.0013204928 0.0014507042 -9.0368133e-22)
(-0.0047596548 0.0031911907 1.9157931e-21)
(-0.010791786 0.0041060302 1.6269656e-21)
(-0.017684519 0.0044656227 -1.3816221e-21)
(-0.024505931 0.0044410983 -2.151618e-21)
(-0.030827386 0.0041482721 2.2838083e-21)
(-0.036376164 0.0036715592 -8.0536819e-21)
(-0.040976726 0.0030720429 -6.9546362e-21)
(-0.044533328 0.0023932022 1.2600027e-20)
(-0.047004321 0.0016657146 -1.0855167e-20)
(-0.048381992 0.00091097664 -2.0233335e-22)
(-0.048679748 0.00014366225 4.0540819e-21)
(-0.047923639 -0.00062634193 -6.6863371e-22)
(-0.04614658 -0.0013924019 2.474955e-20)
(-0.043384729 -0.0021497524 2.7931671e-22)
(-0.039676975 -0.0028940265 -4.4026297e-20)
(-0.03506733 -0.0036206382 8.1738406e-21)
(-0.029596668 -0.0043275271 2.5466287e-20)
(-0.023275175 -0.0050132152 -4.6686199e-20)
(-0.016165071 -0.0056287564 -2.944546e-20)
(-0.0016792806 0.004223721 -5.6292323e-21)
(-0.0053945969 0.009268761 9.9570761e-21)
(-0.011188943 0.011905383 -1.0445355e-20)
(-0.017496692 0.012919751 5.330201e-21)
(-0.023484528 0.01281149 6.3482923e-21)
(-0.028774862 0.011920498 8.7685235e-22)
(-0.033130588 0.010494643 -2.6531529e-20)
(-0.036402011 0.0087132074 -2.2632735e-21)
(-0.038510853 0.0067037848 2.2584158e-20)
(-0.039426795 0.0045563777 -5.600227e-21)
(-0.039149169 0.0023337185 -2.3977412e-20)
(-0.037695376 7.8778259e-05 5.3523238e-21)
(-0.035093277 -0.002179572 2.4425641e-20)
(-0.031375877 -0.0044220585 1.1150377e-20)
(-0.026577543 -0.0066349322 2.3678479e-20)
(-0.020734476 -0.0088058325 -2.1216748e-20)
(-0.013894535 -0.010921914 -2.3111943e-20)
(-0.0061088665 -0.012976608 2.2763693e-20)
(0.0026851666 -0.014955271 2.8385241e-20)
(0.01267831 -0.016689818 1.6559002e-20)
(-0.0023275686 0.006615035 -4.5712175e-21)
(-0.0064988372 0.014448253 -4.9888259e-21)
(-0.011760136 0.018502734 1.0128599e-22)
(-0.016868158 0.020001735 1.0292047e-22)
(-0.021178881 0.019728804 7.3947008e-21)
(-0.02441307 0.018223238 1.1660347e-20)
(-0.026402754 0.015879162 -4.2813886e-21)
(-0.027048484 0.012981782 -2.0929097e-20)
(-0.02630614 0.0097343563 7.255853e-21)
(-0.024167925 0.0062804577 1.4172628e-20)
(-0.020647662 0.0027202368 6.521669e-21)
(-0.015771697 -0.0008777292 1.9587959e-20)
(-0.0095729267 -0.0044675694 1.8711303e-21)
(-0.0020864806 -0.0080191212 -3.627498e-20)
(0.0066540606 -0.011511273 1.4889106e-21)
(0.016615138 -0.014925435 -2.3265927e-20)
(0.027740236 -0.018244199 -2.6363385e-20)
(0.039954834 -0.021458862 4.8994165e-20)
(0.05344327 -0.024516155 2.7128689e-20)
(0.06889104 -0.0270513 4.1956833e-22)
(-0.0031432007 0.0084143843 -5.660635e-21)
(-0.0077905026 0.018230046 -1.0743101e-20)
(-0.012147835 0.023226638 4.4611701e-21)
(-0.015413387 0.024945482 4.5877671e-21)
(-0.017204595 0.024385321 2.0977436e-21)
(-0.017380072 0.022246277 8.437763e-21)
(-0.015870125 0.019041628 1.0496653e-20)
(-0.012647719 0.015143039 -1.564323e-21)
(-0.0077190973 0.010815971 -1.2644461e-20)
(-0.001111003 0.0062483774 -3.1792007e-20)
(0.0071389934 0.0015715555 1.4538694e-22)
(0.016987606 -0.0031245409 4.3963794e-20)
(0.028390215 -0.0077802241 -1.9551483e-20)
(0.041302428 -0.01235668 -1.3178205e-20)
(0.055684193 -0.016827914 3.4345714e-22)
(0.071498083 -0.021173112 3.4527208e-20)
(0.088673124 -0.025377705 -1.6183095e-20)
(0.1070934 -0.029440548 -5.6402868e-20)
(0.12707125 -0.033244911 4.8042701e-20)
(0.14999867 -0.036108728 3.4816287e-20)
(-0.0039626445 0.0094780897 -4.9969472e-22)
(-0.0088840311 0.020260509 -1.31557e-20)
(-0.011852507 0.025592417 -3.7653196e-20)
(-0.012582551 0.027192683 -6.7899966e-21)
(-0.011002037 0.026191978 -3.4098805e-21)
(-0.0071368414 0.023403356 7.0610554e-21)
(-0.001038936 0.019425106 -5.3155121e-21)
(0.0072270058 0.014690446 -9.7743789e-21)
(0.017588714 0.0095094446 2.3826877e-20)
(0.029971366 0.0041020314 5.3787275e-21)
(0.044301794 -0.001377701 -2.7598779e-20)
(0.060508435 -0.0068240571 1.1780889e-20)
(0.078521769 -0.012166958 0)
(0.098274867 -0.017362113 1.2903504e-20)
(0.11970646 -0.022382212 -1.0325908e-20)
(0.14276011 -0.027209391 -1.5347493e-20)
(0.16733721 -0.0318422 -1.1168522e-21)
(0.19325827 -0.036307796 -2.546269e-21)
(0.22092358 -0.040423618 4.7868441e-20)
(0.25258098 -0.043048857 -1.1672193e-20)
(-0.0045988676 0.0097383817 -7.7592792e-21)
(-0.009323996 0.020357766 2.6231267e-20)
(-0.010265386 0.025342417 -1.1627222e-20)
(-0.007685594 0.026445698 -2.9580439e-20)
(-0.0018486485 0.024842172 -2.9118837e-20)
(0.0070332304 0.021405772 -1.6163609e-20)
(0.01876903 0.016781302 -8.6690364e-22)
(0.033185952 0.011434456 6.0375867e-21)
(0.050130795 0.0056992365 2.1081347e-20)
(0.069466223 -0.00018655811 7.8979144e-21)
(0.091065774 -0.0060562141 -7.6447898e-21)
(0.11481131 -0.011795382 -1.9660401e-21)
(0.14058926 -0.017328827 -4.0776248e-20)
(0.16828795 -0.022610708 -1.3504624e-20)
(0.19779937 -0.027616285 2.0239954e-20)
(0.22902031 -0.032336 -2.2499202e-20)
(0.26180131 -0.036792144 -9.4975142e-21)
(0.29587422 -0.041068911 3.1666812e-20)
(0.33165319 -0.044953133 5.2540922e-20)
(0.37229377 -0.046733125 3.5845255e-21)
(-0.0048571878 0.0092000834 1.7232512e-20)
(-0.0086178022 0.01851419 1.4894026e-20)
(-0.0067040484 0.022461275 5.3965978e-20)
(7.5625098e-05 0.022697291 2.5094778e-20)
(0.011114883 0.020355263 1.9776053e-22)
(0.026005067 0.016317307 -4.2429271e-20)
(0.044403942 0.011234787 -2.5975339e-20)
(0.06601777 0.0055760823 1.1204887e-20)
(0.090594257 -0.00032352844 1.5393019e-20)
(0.11791221 -0.0062255149 -1.387082e-20)
(0.1477703 -0.011963138 -4.7077449e-20)
(0.17997811 -0.017423281 3.1631326e-20)
(0.21434853 -0.022533389 2.1128939e-20)
(0.25069206 -0.027252576 -2.9250646e-20)
(0.2888167 -0.031564852 1.2447149e-20)
(0.32853177 -0.035475826 2.553704e-20)
(0.36960126 -0.039041576 8.6128256e-21)
(0.4116416 -0.042434532 -1.2719132e-20)
(0.45499145 -0.045489176 -1.4477077e-20)
(0.50364262 -0.045903465 7.1893648e-21)
(-0.0045461569 0.0079287705 1.1561036e-20)
(-0.0062625504 0.014879589 -2.4982011e-20)
(-0.00044786571 0.017165621 8.509518e-21)
(0.011567228 0.016230563 3.5659693e-20)
(0.02884115 0.013086569 5.4878366e-20)
(0.050765542 0.0085740737 2.1510795e-20)
(0.076837423 0.0033126675 -6.2043109e-21)
(0.10662356 -0.0022586755 -1.3041516e-20)
(0.13975175 -0.0078276817 -6.6424713e-21)
(0.17589104 -0.013174419 3.6427078e-20)
(0.21473321 -0.018148321 -4.9465064e-21)
(0.25597853 -0.022651278 -1.7791914e-20)
(0.29932486 -0.026625702 -2.0784659e-20)
(0.34445973 -0.030047085 -5.0322807e-20)
(0.39105933 -0.032919291 2.4497358e-20)
(0.43879643 -0.035274448 -1.4861686e-20)
(0.48730803 -0.037215793 2.752456e-20)
(0.53608033 -0.039039338 2.2250112e-20)
(0.58530835 -0.040750537 -8.8625205e-20)
(0.63962736 -0.039618928 2.2867637e-22)
(-0.0034846211 0.006036875 2.262771e-20)
(-0.0017707046 0.0097387301 -2.7580567e-20)
(0.0092161196 0.0098867913 -4.6928247e-20)
(0.027655381 0.0076121741 -2.8619067e-20)
(0.052285302 0.0037347876 -2.1566533e-21)
(0.082293079 -0.00099427502 1.385109e-20)
(0.11700136 -0.0060259425 -3.0057608e-21)
(0.15581816 -0.010982187 1.9132697e-20)
(0.1982227 -0.015600862 9.3540679e-21)
(0.24373826 -0.019704007 -1.2040453e-20)
(0.29190738 -0.023178112 9.5273647e-21)
(0.34227393 -0.025959295 -2.5331254e-20)
(0.3943703 -0.028022671 8.764409e-21)
(0.44770897 -0.029375742 1.776375e-20)
(0.5017815 -0.030054422 -2.9424623e-21)
(0.55606855 -0.030124969 1.8599756e-21)
(0.61002417 -0.02973847 -5.302334e-22)
(0.66298154 -0.029298466 2.0801149e-20)
(0.71495753 -0.029005559 3.9988116e-21)
(0.77099452 -0.026209805 -1.8582884e-21)
(-0.0015024878 0.0036724166 2.463988e-20)
(0.0053101764 0.003497012 5.9911002e-20)
(0.02293956 0.0012686734 -5.110837e-20)
(0.049110232 -0.0022884894 -1.0413e-20)
(0.082253568 -0.006618865 2.1275851e-20)
(0.12134801 -0.011107511 2.2467949e-21)
(0.16552571 -0.015315771 -3.1291858e-20)
(0.21400845 -0.018963035 7.3536866e-21)
(0.26609008 -0.021870345 7.4730941e-21)
(0.3211045 -0.023932643 -2.7689445e-20)
(0.37839827 -0.025103161 1.3609093e-21)
(0.43731331 -0.025380713 -3.9336459e-20)
(0.49717748 -0.024799323 -3.8474701e-20)
(0.55730126 -0.023419917 6.9559742e-20)
(0.61698054 -0.021323021 5.8867668e-21)
(0.67550349 -0.018607859 -1.6041388e-20)
(0.73213557 -0.015433163 2.0403015e-20)
(0.78604585 -0.012103423 -9.5872678e-22)
(0.83677424 -0.0086421445 2.0863954e-20)
(0.88801863 -0.0035235965 -2.1054041e-20)
(-0.0077073449 -0.0059123097 6.1886204e-20)
(0.002219045 -0.006434682 1.645e-20)
(0.013564615 -0.006853345 -3.6654253e-20)
(0.025973866 -0.0070981099 1.7661521e-20)
(0.039170339 -0.0072524275 0)
(0.053088743 -0.0073452017 0)
(0.067665564 -0.0073793722 -2.3702984e-20)
(0.082816737 -0.0073629434 -1.6915584e-20)
(0.098467091 -0.0073056867 1.9699334e-20)
(0.11455285 -0.0072147447 1.8599048e-20)
(0.13101527 -0.0070955724 1.04199e-21)
(0.14779899 -0.0069529688 -1.0403311e-20)
(0.16485244 -0.0067911168 8.5365977e-21)
(0.18212746 -0.0066135633 1.8254049e-20)
(0.19957868 -0.0064233445 -5.3804606e-21)
(0.21716317 -0.0062230954 -1.0093754e-20)
(0.23484023 -0.0060151157 -4.2646844e-21)
(0.2525712 -0.0058014215 -4.2937288e-21)
(0.27031936 -0.0055837923 7.0098013e-22)
(0.28804987 -0.0053638072 1.2139771e-21)
(0.30572969 -0.0051428725 2.5773863e-21)
(0.32332768 -0.0049222428 6.5033991e-21)
(0.34081453 -0.0047030376 1.5580567e-22)
(0.35816285 -0.0044862529 -3.3599042e-21)
(0.3753472 -0.0042727705 1.3240169e-22)
(0.39234412 -0.0040633655 -5.5748937e-22)
(0.40913217 -0.0038587118 1.196525e-21)
(0.42569192 -0.0036593878 9.7946483e-22)
(0.44200599 -0.0034658809 -1.2920539e-21)
(0.458059 -0.0032785931 -1.0275845e-22)
(0.47383759 -0.0030978458 -3.3580043e-23)
(0.48933034 -0.0029238857 -3.3183928e-22)
(0.50452776 -0.0027568903 -4.0965841e-22)
(0.51942218 -0.0025969748 8.6483992e-23)
(0.53400774 -0.0024441978 -1.2853261e-22)
(0.5482803 -0.002298569 -2.0014232e-22)
(0.5622374 -0.0021600562 2.2787996e-22)
(0.57587818 -0.0020285924 2.5873734e-22)
(0.58920334 -0.0019040856 -2.9871802e-23)
(0.60221544 -0.001786423 -1.6250552e-22)
(0.61491778 -0.0016754998 1.7571031e-23)
(0.62731846 -0.001571175 -2.6611483e-23)
(0.63941849 -0.0014734856 8.1100065e-23)
(0.6512496 -0.0013820643 -1.1873953e-23)
(0.6627633 -0.0012981714 -1.3186446e-22)
(0.67416512 -0.001218616 4.5164329e-24)
(0.68494469 -0.0011554777 5.563026e-24)
(0.69671062 -0.0010764894 -5.089228e-24)
(0.70507003 -0.0010899212 2.6278367e-23)
(0.72241716 -0.00091887287 3.7047635e-22)
(0.02236255 -0.017404618 -1.3824206e-20)
(0.031329312 -0.018989859 -6.6447285e-20)
(0.042194528 -0.020220022 -3.2334161e-20)
(0.054092422 -0.020917666 4.0308785e-20)
(0.066631496 -0.02136089 1.5307168e-20)
(0.079826556 -0.021633561 -1.9139796e-20)
(0.093646169 -0.02173652 5.122303e-21)
(0.10800926 -0.021691812 2.6129872e-20)
(0.1228481 -0.021528531 -1.4572355e-22)
(0.13810847 -0.021267184 -7.9298261e-21)
(0.15373871 -0.020923157 -1.2921836e-20)
(0.16968885 -0.020510195 -8.8242825e-21)
(0.18591182 -0.020040378 1.7904749e-20)
(0.20236326 -0.019523956 9.5017511e-21)
(0.21900089 -0.018969725 -1.6261551e-20)
(0.23578427 -0.018385357 -6.0115348e-21)
(0.25267473 -0.017777574 3.120462e-21)
(0.26963527 -0.017152294 8.1618086e-21)
(0.28663048 -0.016514761 6.9370896e-21)
(0.3036266 -0.015869644 -7.054829e-21)
(0.32059147 -0.015221115 -3.3462888e-21)
(0.33749458 -0.01457291 1.5377533e-21)
(0.35430718 -0.013928368 6.2161206e-22)
(0.37100226 -0.01329047 1.2389534e-21)
(0.38755465 -0.01266186 2.3023838e-22)
(0.40394106 -0.012044868 -3.6625117e-22)
(0.42014014 -0.011441524 -7.4426125e-22)
(0.43613244 -0.010853574 1.0549677e-21)
(0.4519005 -0.010282497 8.6277835e-22)
(0.4674288 -0.0097295143 -2.5444384e-22)
(0.48270376 -0.0091956081 5.893954e-22)
(0.49771367 -0.0086815376 -2.2538957e-22)
(0.51244872 -0.008187856 -4.061811e-22)
(0.52690087 -0.0077149292 -6.1946444e-22)
(0.54106384 -0.0072629552 4.1150041e-22)
(0.55493303 -0.0068319845 -9.8201798e-23)
(0.56850548 -0.0064219421 2.1265724e-22)
(0.58177984 -0.006032649 -4.6255665e-22)
(0.59475626 -0.005663851 4.3727918e-22)
(0.60743676 -0.0053152305 6.123269e-23)
(0.61982407 -0.0049864939 -6.404955e-23)
(0.63192568 -0.0046772379 2.093379e-22)
(0.64374211 -0.0043875917 2.8064231e-22)
(0.65530424 -0.0041164732 2.1184788e-22)
(0.66656368 -0.0038676659 2.2452333e-22)
(0.67772308 -0.0036316533 -1.8627627e-23)
(0.68827817 -0.0034444862 1.145912e-22)
(0.6998152 -0.0032099902 1.0112493e-22)
(0.70800422 -0.0032504466 -2.0306244e-22)
(0.72504666 -0.0027425771 -1.2869146e-23)
(0.08082034 -0.027855485 1.0184113e-20)
(0.087886272 -0.030513284 3.7929076e-21)
(0.097689402 -0.032500127 -1.3599178e-20)
(0.1085316 -0.033571975 -1.5940533e-21)
(0.11973744 -0.034265552 1.5942694e-20)
(0.13147798 -0.03471464 -1.5505286e-20)
(0.14379255 -0.034898743 -3.1242771e-20)
(0.15660215 -0.034848139 1.5252988e-20)
(0.16985019 -0.034610499 1.8977112e-20)
(0.18350017 -0.034217579 -1.2044096e-20)
(0.19751333 -0.033692196 1.0415165e-21)
(0.21184892 -0.033055301 8.4494911e-21)
(0.2264677 -0.032325665 -1.5696142e-20)
(0.24133188 -0.031519283 3.6755219e-21)
(0.25640444 -0.030649945 7.7659424e-21)
(0.27164918 -0.029729782 -4.53101e-22)
(0.28703084 -0.028769518 -3.3103576e-23)
(0.30251514 -0.02777867 -7.6089414e-21)
(0.31806888 -0.026765732 4.3600748e-21)
(0.33366003 -0.025738317 8.6379365e-21)
(0.3492578 -0.024703273 -3.8882952e-21)
(0.36483275 -0.023666763 -2.1761836e-21)
(0.38035692 -0.022634326 8.9992712e-22)
(0.3958039 -0.021610925 -1.7673354e-21)
(0.41114889 -0.020600983 1.3148394e-21)
(0.42636883 -0.019608414 6.9597937e-22)
(0.44144239 -0.018636641 1.7661897e-21)
(0.45635007 -0.017688624 -2.145457e-21)
(0.47107419 -0.016766879 2.4349583e-21)
(0.48559887 -0.015873503 5.8610001e-22)
(0.4999101 -0.015010193 5.8842086e-22)
(0.51399564 -0.014178282 3.0369097e-22)
(0.52784502 -0.013378756 9.9931065e-22)
(0.54144948 -0.012612295 -1.5354256e-21)
(0.55480196 -0.011879296 4.2597269e-22)
(0.56789701 -0.011179913 2.0710083e-22)
(0.58073074 -0.010514091 -7.5242844e-23)
(0.59330086 -0.0098815975 2.3955083e-23)
(0.60560652 -0.0092820778 -3.9749064e-22)
(0.6176487 -0.0087150679 2.1855266e-22)
(0.62942909 -0.0081801426 -3.0413163e-23)
(0.6409541 -0.007676691 5.2414724e-22)
(0.65222325 -0.0072049844 -2.4355204e-22)
(0.66326592 -0.0067632814 3.8667277e-23)
(0.67403385 -0.0063578872 7.0836768e-23)
(0.68472427 -0.005973138 -9.1051876e-23)
(0.69484456 -0.0056684526 -1.526775e-22)
(0.70593808 -0.0052857416 4.9814029e-22)
(0.71379639 -0.0053534559 1.8042941e-22)
(0.73024793 -0.0045246263 -8.4984623e-22)
(0.16481182 -0.036530523 1.7833726e-21)
(0.16906148 -0.040244409 -1.1784399e-20)
(0.17707973 -0.04290721 6.5989745e-21)
(0.18625822 -0.044261663 -1.3994292e-20)
(0.19543577 -0.045170809 -2.0687569e-21)
(0.20498643 -0.045808154 9.8865239e-21)
(0.21506847 -0.046108811 -1.0787918e-20)
(0.22560165 -0.04610194 1.1700909e-21)
(0.23653747 -0.045851264 1.3319165e-20)
(0.24786229 -0.045397157 3.7802105e-21)
(0.25955421 -0.044766668 -6.3587798e-21)
(0.27158332 -0.043985326 -3.1820333e-21)
(0.2839194 -0.043076786 -5.5723628e-21)
(0.29653238 -0.042061488 -6.7506982e-21)
(0.30939135 -0.040957212 2.8308214e-21)
(0.32246487 -0.039779784 3.4592385e-22)
(0.33572144 -0.038543392 1.5494277e-21)
(0.34912979 -0.037260784 -3.3823828e-21)
(0.36265905 -0.035943457 -4.5449963e-21)
(0.37627898 -0.034601823 2.5035702e-21)
(0.38996017 -0.033245326 3.4833418e-21)
(0.40367421 -0.031882529 -1.8087075e-21)
(0.41739387 -0.030521181 1.6742469e-21)
(0.4310932 -0.029168268 -4.9841888e-22)
(0.44474767 -0.027830049 -4.2618573e-21)
(0.45833427 -0.02651209 -3.0575002e-21)
(0.47183158 -0.025219292 -2.8286918e-22)
(0.48521978 -0.023955912 3.2404441e-22)
(0.49848078 -0.022725599 -2.2059874e-21)
(0.51159816 -0.021531416 -1.0462543e-21)
(0.52455718 -0.020375877 2.1712292e-22)
(0.53734481 -0.019260981 -1.3805126e-21)
(0.54994966 -0.018188251 -5.6146028e-23)
(0.56236198 -0.017158774 -5.0144652e-22)
(0.57457357 -0.016173249 -4.4249788e-22)
(0.58657783 -0.01523203 -6.7326416e-22)
(0.59836962 -0.014335175 -1.0349533e-21)
(0.60994536 -0.013482498 -1.6475156e-23)
(0.62130284 -0.012673633 -3.5393796e-24)
(0.63244166 -0.01190806 -6.0691943e-22)
(0.64336212 -0.01118531 -2.4736176e-23)
(0.65406911 -0.010504649 -4.1371041e-22)
(0.66456087 -0.0098665633 -6.0280356e-22)
(0.6748647 -0.0092687435 4.8197595e-22)
(0.68493264 -0.0087199911 1.3806788e-23)
(0.6949542 -0.0081988254 2.3757694e-22)
(0.70445358 -0.0077869323 -1.7413879e-22)
(0.71491251 -0.007267845 -3.3845819e-22)
(0.72229768 -0.007362835 -1.8931512e-23)
(0.73790073 -0.0062389139 4.8321045e-22)
(0.27037622 -0.042636494 -2.2738017e-20)
(0.27090131 -0.047380461 4.9718379e-20)
(0.27625991 -0.050627123 1.0694406e-20)
(0.28307092 -0.052198416 -1.6596139e-20)
(0.28951487 -0.053324654 -2.4507287e-21)
(0.29615503 -0.054196043 2.3947357e-21)
(0.30331613 -0.054686547 -2.0565425e-21)
(0.31091822 -0.054813845 -4.8535089e-21)
(0.31890947 -0.054650691 -4.1525795e-21)
(0.32729794 -0.0542428 -1.2585611e-20)
(0.33608006 -0.053619032 1.8821474e-20)
(0.34523605 -0.052806803 6.9696728e-21)
(0.35474327 -0.051832496 -1.711219e-20)
(0.36457828 -0.050719619 9.9935946e-21)
(0.37471546 -0.049489008 7.9946286e-21)
(0.38512728 -0.048159499 -4.1925601e-22)
(0.39578521 -0.046748275 -2.8293278e-21)
(0.40666022 -0.045271032 -4.2396965e-21)
(0.4177231 -0.043742132 -1.5816754e-21)
(0.42894479 -0.042174733 -1.3981097e-21)
(0.44029669 -0.040580893 -3.3430603e-21)
(0.4517509 -0.038971642 0)
(0.46328045 -0.037357039 -1.4836381e-21)
(0.47485941 -0.035746211 3.9847224e-21)
(0.48646313 -0.034147387 5.6715489e-21)
(0.49806826 -0.032567929 -9.1104994e-22)
(0.50965292 -0.031014354 -3.2668108e-21)
(0.52119671 -0.029492367 3.4317306e-21)
(0.5326808 -0.02800689 5.7475486e-23)
(0.54408791 -0.026562099 3.7534825e-21)
(0.55540235 -0.025161464 -5.0939798e-22)
(0.56661002 -0.023807788 1.7958319e-21)
(0.57769837 -0.022503266 -8.9998606e-22)
(0.58865638 -0.021249527 4.0457388e-22)
(0.59947455 -0.020047698 -5.3140892e-22)
(0.61014486 -0.01889846 5.8308849e-22)
(0.62066071 -0.017802108 5.3164396e-22)
(0.63101699 -0.01675862 4.4669075e-22)
(0.64120994 -0.015767737 -1.1024643e-21)
(0.65123755 -0.014828995 7.8848165e-22)
(0.6610985 -0.013941986 -4.1543206e-22)
(0.67079597 -0.013105959 -1.3443641e-21)
(0.6803267 -0.012321701 1.7160669e-21)
(0.68971555 -0.011586452 -5.5654282e-23)
(0.69891508 -0.010911457 -1.9503133e-22)
(0.70810519 -0.010269871 -7.1171467e-24)
(0.71683151 -0.0097641159 -1.8957434e-22)
(0.72649783 -0.0091241994 -5.823698e-22)
(0.73329276 -0.0092462275 7.9352281e-22)
(0.74783022 -0.007861394 -4.9590232e-23)
(0.39254093 -0.045223011 -1.9071668e-20)
(0.38847777 -0.051027117 1.3205011e-20)
(0.39020516 -0.05480857 3.7492429e-21)
(0.39386284 -0.056621858 -8.0680909e-21)
(0.39690049 -0.058047289 1.2655436e-20)
(0.3999767 -0.05925341 8.161652e-21)
(0.40360761 -0.060057352 -1.28647e-20)
(0.40773047 -0.060462023 -6.3081344e-21)
(0.41227471 -0.060536369 1.3152827e-20)
(0.41725799 -0.060325221 -1.6403955e-20)
(0.42269247 -0.059858034 -1.4453628e-20)
(0.42856638 -0.059162651 1.5151785e-20)
(0.4348611 -0.058266361 6.9937024e-21)
(0.44155661 -0.057194578 -5.0865084e-21)
(0.44863011 -0.055970629 -1.4050813e-21)
(0.45605603 -0.054616052 -3.6533712e-21)
(0.46380704 -0.053150868 4.8776976e-21)
(0.47185481 -0.051593712 3.6856057e-21)
(0.48017048 -0.049961904 -3.1406052e-21)
(0.48872505 -0.048271514 3.1254751e-21)
(0.49748973 -0.04653742 2.9375078e-21)
(0.50643626 -0.04477335 -3.3609141e-21)
(0.51553712 -0.042991915 3.6753381e-22)
(0.52476576 -0.041204628 -3.1962341e-21)
(0.53409676 -0.039421931 8.0607574e-21)
(0.54350593 -0.037653214 6.4832229e-21)
(0.55297044 -0.035906841 1.020304e-21)
(0.56246888 -0.034190178 -1.832458e-21)
(0.57198131 -0.032509628 4.2165355e-21)
(0.58148927 -0.030870674 7.9804619e-21)
(0.59097583 -0.029277926 2.3905703e-21)
(0.60042558 -0.027735173 3.6716902e-21)
(0.60982459 -0.026245445 2.1281585e-21)
(0.6191604 -0.024811077 8.4392544e-22)
(0.62842202 -0.023433776 -2.4782852e-22)
(0.63759989 -0.022114695 3.0542889e-21)
(0.64668583 -0.020854509 6.8844462e-22)
(0.6556731 -0.019653493 3.167367e-22)
(0.66455629 -0.018511622 5.6949713e-23)
(0.67333172 -0.017428612 1.1879216e-21)
(0.68199637 -0.016404236 4.2909659e-23)
(0.69055161 -0.015437834 5.6124374e-22)
(0.69899269 -0.014530587 -1.265576e-22)
(0.70734179 -0.013679407 -3.846045e-22)
(0.71555232 -0.012897913 -1.9392429e-22)
(0.72379311 -0.012154425 -5.3203399e-22)
(0.73163515 -0.011570237 2.2727179e-22)
(0.74039085 -0.010827665 -1.5718592e-22)
(0.74650932 -0.010976249 -4.5356366e-22)
(0.75981316 -0.0093707164 2.7751352e-22)
(0.52521232 -0.043368774 3.4682835e-21)
(0.51591556 -0.050273481 -1.9299352e-20)
(0.51307464 -0.054596915 -2.552736e-21)
(0.51280327 -0.056839143 5.6774236e-21)
(0.51190455 -0.058786814 3.5258821e-21)
(0.51094191 -0.060516444 5.2160353e-22)
(0.51059157 -0.061819149 7.0663852e-21)
(0.51085077 -0.062698831 8.0932415e-21)
(0.51162733 -0.06321038 1.0080323e-20)
(0.5129259 -0.063388966 -1.1790574e-20)
(0.514764 -0.063262996 -2.2777479e-20)
(0.51713492 -0.06286084 -4.4437419e-21)
(0.52002032 -0.062210253 1.6711265e-20)
(0.52339933 -0.061338161 1.3337248e-20)
(0.52724872 -0.06027042 -5.7651156e-21)
(0.53154239 -0.059031563 9.5860172e-22)
(0.53625216 -0.057644812 -4.1295269e-21)
(0.54134869 -0.056132136 2.99859e-21)
(0.54680197 -0.05451424 -2.9318007e-22)
(0.55258181 -0.052810538 -1.957462e-21)
(0.55865815 -0.051039156 8.4256337e-21)
(0.56500142 -0.049216931 -4.6851122e-22)
(0.57158275 -0.047359415 5.8122135e-22)
(0.57837421 -0.045480879 -4.8342399e-22)
(0.58534898 -0.04359432 -4.489476e-21)
(0.59248144 -0.04171148 4.3827834e-21)
(0.59974732 -0.039842866 1.8508592e-21)
(0.60712375 -0.03799778 -3.4293963e-21)
(0.61458931 -0.036184364 -4.0840756e-21)