/*--------------------------------*- C++ -*----------------------------------*\
  =========                 |
  \\      /  F ield         | OpenFOAM: The Open Source CFD Toolbox
   \\    /   O peration     | Website:  https://openfoam.org
    \\  /    A nd           | Version:  6
     \\/     M anipulation  |
\*---------------------------------------------------------------------------*/
FoamFile
{
    version     2.0;
    format      ascii;
    class       volSymmTensorField;
    location    "250";
    object      UPrime2Mean;
}
// * * * * * * * * * * * * * * * * * * * * * * * * * * * * * * * * * * * * * //

dimensions      [0 2 -2 0 0 0 0];

internalField   nonuniform List<symmTensor> 
9200
(
(7.9359385e-05 -6.1599907e-05 2.8744204e-22 4.9434191e-05 -1.5364916e-22 4.653232e-39)
(0.00048963949 -0.00039196718 7.3802494e-22 0.00031498525 -5.5072897e-22 5.0623331e-39)
(0.00099085942 -0.00076821265 8.900922e-23 0.00059909867 -6.7432344e-23 2.7754168e-39)
(0.0015635041 -0.0011318619 -1.1137355e-21 0.00082868218 7.8264178e-22 5.5336548e-39)
(0.0021292762 -0.0014555899 5.3784298e-23 0.0010124597 -4.4337867e-23 8.1126449e-40)
(0.0026490731 -0.0017248208 4.7040483e-22 0.001150183 -3.117466e-22 1.2801064e-40)
(0.0030956749 -0.0019343496 -1.023768e-22 0.0012465338 7.0503515e-23 3.6762265e-40)
(0.0034469922 -0.0020843747 9.3016403e-23 0.0013094078 -6.2291107e-23 2.4759478e-40)
(0.0036875627 -0.0021777067 4.567701e-22 0.0013464037 -2.7666246e-22 7.0649165e-40)
(0.0038091456 -0.0022185322 3.5579285e-23 0.0013639889 -2.1661522e-23 2.0161083e-42)
(0.0038108133 -0.0022118365 -4.9417275e-22 0.0013675079 3.0288546e-22 3.7961113e-40)
(0.0036989212 -0.0021630451 4.1456921e-22 0.0013612446 -2.6345881e-22 5.2367776e-41)
(0.00348664 -0.0020777959 -7.400134e-22 0.0013485185 4.9681145e-22 8.1308036e-40)
(0.0031928726 -0.0019618008 -3.762971e-22 0.0013318197 2.5757229e-22 5.2437061e-41)
(0.0028405853 -0.0018207566 9.779035e-23 0.0013129569 -7.2138171e-23 6.6672562e-42)
(0.0024547017 -0.0016602662 -3.6957863e-22 0.0012931994 2.876068e-22 7.0411298e-41)
(0.0020597285 -0.0014857672 3.2559021e-22 0.0012734802 -2.74502e-22 8.5253587e-41)
(0.0016773706 -0.0013025567 2.4338296e-22 0.0012550638 -2.1477908e-22 3.4510236e-40)
(0.0013260956 -0.0011155483 -8.0066055e-24 0.001239618 1.7367695e-23 6.3462449e-41)
(0.0010263132 -0.00092815333 -4.3189672e-24 0.0012148248 1.5303229e-23 7.8664482e-41)
(0.00010475048 -7.0021309e-05 2.9953919e-23 4.8066545e-05 -1.1467031e-23 8.1869451e-41)
(0.0006247017 -0.00043298178 7.8164832e-22 0.00030102655 -5.0844514e-22 5.3996675e-39)
(0.0012431143 -0.00083608654 -2.5285076e-22 0.00056554941 1.696257e-22 2.932882e-39)
(0.00190744 -0.0012094121 -1.9995713e-21 0.00077548646 1.2491734e-21 1.2805374e-38)
(0.0025267006 -0.0015274938 -6.972427e-23 0.00093999718 4.412033e-23 1.6155224e-40)
(0.0030554768 -0.0017774761 1.5495986e-21 0.0010604599 -9.1339102e-22 4.2380103e-39)
(0.0034655342 -0.0019570937 -6.3823119e-22 0.0011429767 3.7232845e-22 1.4562903e-40)
(0.0037386406 -0.0020699103 -1.9292529e-22 0.0011961213 1.1158176e-22 5.2105859e-41)
(0.003867061 -0.002121904 7.3456478e-22 0.0012277173 -4.2745107e-22 3.984238e-40)
(0.0038533162 -0.0021200332 -8.9304022e-22 0.0012441539 5.282779e-22 4.5785272e-40)
(0.0037093372 -0.002071582 -6.3533022e-22 0.0012504397 3.8528947e-22 5.6479719e-40)
(0.003455173 -0.0019837804 1.3767452e-21 0.0012503051 -8.6854659e-22 2.8730516e-39)
(0.0031170137 -0.0018636125 6.4317998e-22 0.0012463383 -4.3197416e-22 2.0209315e-40)
(0.0027245713 -0.0017177508 -1.0174364e-21 0.0012401481 7.2975038e-22 9.9651545e-40)
(0.0023081171 -0.0015525526 1.8346011e-22 0.0012325222 -1.4188467e-22 8.2907797e-41)
(0.0018955882 -0.0013740683 -4.0898447e-22 0.0012235668 3.5453526e-22 2.2163236e-40)
(0.0015101336 -0.0011880402 -1.6936869e-22 0.0012128643 1.730614e-22 6.9618117e-41)
(0.0011683732 -0.00099978754 5.2358354e-22 0.0011996861 -5.8213057e-22 1.1262095e-39)
(0.00088043608 -0.00081360537 2.4935668e-22 0.0011818488 -3.3037112e-22 2.1461348e-40)
(0.00065326589 -0.00063375248 -1.0820926e-22 0.0011482001 1.3408077e-22 1.6079522e-39)
(0.000133436 -7.6011237e-05 -2.5184891e-22 4.4270371e-05 1.0720635e-22 2.1041123e-39)
(0.00076883287 -0.00045693254 -4.2012859e-22 0.0002722828 2.3339827e-22 2.1934079e-39)
(0.0015025359 -0.00086896266 -4.787108e-22 0.00050547066 2.7891532e-22 5.482631e-39)
(0.0022444426 -0.0012352433 1.6017715e-23 0.00068782187 -8.8009159e-24 5.9523032e-43)
(0.002892891 -0.0015335963 1.7585737e-23 0.00082865005 -8.3434745e-24 3.939339e-39)
(0.0033994706 -0.0017543087 5.4297982e-22 0.00093090206 -2.8931416e-22 1.1016996e-39)
(0.0037397723 -0.0018988504 5.2973344e-23 0.0010015632 -2.641212e-23 4.5604345e-40)
(0.0039050128 -0.0019742879 -9.2549996e-22 0.0010491415 4.9639892e-22 2.9143797e-40)
(0.0039006909 -0.0019894376 1.0981417e-21 0.0010809318 -6.0370503e-22 5.5057273e-40)
(0.0037446751 -0.0019533656 3.6233327e-22 0.0011025332 -2.0900701e-22 6.0350061e-40)
(0.0034645753 -0.0018747867 -1.0001739e-21 0.0011179752 6.0252712e-22 1.2482073e-39)
(0.0030945163 -0.0017618217 -3.1482808e-22 0.0011298838 2.0317451e-22 4.0757528e-40)
(0.0026713708 -0.0016219895 1.135991e-22 0.0011396787 -7.8835391e-23 1.1033383e-39)
(0.002230856 -0.0014623213 2.7431097e-22 0.001147793 -2.1162471e-22 1.5903019e-40)
(0.0018040701 -0.0012894883 -9.6563663e-23 0.0011538963 8.3185391e-23 1.2146907e-40)
(0.0014149867 -0.0011098696 2.2501783e-22 0.0011571161 -2.2381661e-22 9.6561614e-41)
(0.0010792158 -0.00092952697 -1.5541223e-22 0.0011562566 1.8200153e-22 3.7161763e-41)
(0.00080405166 -0.00075404506 -3.1862099e-22 0.0011499344 4.3827354e-22 9.0183582e-40)
(0.00058973955 -0.00058812978 -1.1331567e-23 0.0011363304 1.2072435e-23 8.0949754e-40)
(0.0004321033 -0.00043614926 1.111483e-22 0.0011115955 -2.3872323e-22 9.3021431e-41)
(0.00016445532 -7.8685578e-05 -2.0007535e-22 3.8383597e-05 7.3726254e-23 1.0450282e-39)
(0.0009146497 -0.00045981658 3.073152e-22 0.00023172715 -1.5075101e-22 1.9521955e-40)
(0.0017535393 -0.00086119213 2.7262095e-22 0.00042557205 -1.3442141e-22 2.2578098e-40)
(0.0025515771 -0.0012045729 5.9463519e-22 0.00057599947 -2.8385031e-22 2.4348955e-39)
(0.003200105 -0.0014722857 5.2368929e-22 0.00069204525 -2.4869641e-22 1.0832169e-39)
(0.0036528733 -0.0016587161 -9.2235675e-22 0.00077777149 4.3818636e-22 8.2761537e-40)
(0.0038954093 -0.0017690708 -5.1677425e-22 0.00084022551 2.4987024e-22 2.3561013e-40)
(0.0039342681 -0.0018131565 0 0.00088698897 0 0)
(0.0037927846 -0.0018014641 5.6616707e-22 0.00092406647 -3.0724072e-22 3.0348642e-39)
(0.0035065693 -0.0017438594 -2.4653799e-22 0.00095562972 1.4518146e-22 1.1496544e-39)
(0.0031184716 -0.001649264 -1.4495344e-21 0.00098422172 8.6381261e-22 1.0212864e-39)
(0.0026733268 -0.0015257246 -1.8591017e-22 0.0010109895 1.1703603e-22 2.0548529e-40)
(0.0022129647 -0.0013806692 7.1810894e-22 0.0010359475 -5.3377107e-22 1.3848043e-39)
(0.0017721597 -0.0012211637 4.0034488e-23 0.0010582693 -2.6197287e-23 5.7187758e-40)
(0.0013761012 -0.0010540353 -1.1162433e-23 0.001076594 1.0908668e-23 4.0272973e-43)
(0.0010396241 -0.0008858102 1.2037276e-22 0.0010893415 -1.3894204e-22 7.0889349e-41)
(0.00076805504 -0.00072249285 4.5132645e-25 0.0010949916 2.7356781e-24 8.2800482e-41)
(0.00055920984 -0.00056926376 -2.1471325e-22 0.0010922194 3.6049868e-22 2.1723153e-40)
(0.00040583602 -0.00043016114 -1.1976356e-22 0.0010803908 2.5095058e-22 1.5107464e-40)
(0.00029821381 -0.00030815175 6.1032023e-23 0.0010610263 -1.8451626e-22 9.4307357e-40)
(0.00019639217 -7.7288503e-05 1.5126179e-22 3.0958154e-05 -4.8195477e-23 4.1110763e-40)
(0.0010529725 -0.00043902876 6.3032636e-22 0.00018350189 -2.5141448e-22 3.7039992e-39)
(0.0019784833 -0.00081036865 4.9794962e-22 0.0003342519 -2.0514204e-22 2.3478177e-40)
(0.0028053474 -0.001117617 5.5380463e-22 0.00045191076 -2.2623867e-22 1.302957e-39)
(0.0034233907 -0.0013483256 -8.5343258e-22 0.00054470939 3.5255827e-22 2.0532043e-39)
(0.0037950473 -0.0015010523 3.3086864e-23 0.00061709443 -1.0653697e-23 1.9533164e-40)
(0.0039221181 -0.0015836709 4.9029549e-23 0.00067527492 -2.1341763e-23 1.6456812e-42)
(0.0038312286 -0.0016070274 6.9887483e-22 0.00072514894 -3.2514265e-22 7.3433346e-40)
(0.0035656773 -0.001581488 9.4577389e-23 0.00077085962 -4.6710719e-23 6.6257442e-42)
(0.0031777958 -0.0015161671 -2.5456466e-22 0.00081473987 1.4406863e-22 3.9715643e-40)
(0.0027216049 -0.0014190991 8.2970874e-22 0.00085757265 -5.1417477e-22 2.7703699e-39)
(0.0022463868 -0.0012976758 -6.0519155e-22 0.00089888089 3.9847096e-22 2.3962677e-40)
(0.0017918891 -0.0011590556 -1.1431744e-21 0.00093726485 8.9191423e-22 1.6999236e-39)
(0.001385724 -0.0010103455 -3.7930649e-23 0.00097078346 3.4864751e-23 3.5943017e-42)
(0.001043073 -0.00085848366 4.0976835e-22 0.00099735291 -4.5793322e-22 1.3754197e-39)
(0.00076829837 -0.00070989091 0 0.0010151284 0 0)
(0.00055773689 -0.00057003059 5.1610858e-23 0.0010227829 -7.4415907e-23 3.5778825e-41)
(0.00040285599 -0.00044304845 -2.605925e-23 0.001019566 5.7057575e-23 5.3217697e-41)
(0.00029296315 -0.00033161648 -2.6383816e-23 0.0010059988 5.7697954e-23 1.400268e-41)
(0.00021721859 -0.0002369082 1.2677628e-23 0.00098630859 -5.3923488e-23 9.5676662e-41)
(0.00022751727 -7.1366081e-05 3.30836e-22 2.2767209e-05 -8.5239791e-23 1.662534e-39)
(0.0011740872 -0.00039418976 3.2581738e-23 0.00013271109 -1.0695751e-23 3.0772705e-42)
(0.002160486 -0.00071851507 -9.3556741e-23 0.00024100084 3.1597214e-23 1.3625764e-41)
(0.0029859518 -0.00098063265 9.6802162e-23 0.00032804993 -3.1159928e-23 2.6922588e-40)
(0.0035456904 -0.0011731951 -5.8814314e-22 0.00040076689 2.0626612e-22 5.0514155e-40)
(0.0038176843 -0.0012978217 -2.8332037e-22 0.00046319968 1.0312737e-22 4.5679975e-41)
(0.0038251059 -0.0013629185 2.0157802e-22 0.00052001581 -6.1835546e-23 1.4386926e-39)
(0.0036167488 -0.0013780411 -7.328067e-24 0.00057499933 8.292998e-24 1.1254342e-40)
(0.0032545332 -0.0013515094 -4.7993301e-22 0.00063019278 2.3831179e-22 1.1903739e-39)
(0.0028030231 -0.0012904514 8.3397934e-22 0.00068596911 -4.3337445e-22 3.5137386e-40)
(0.0023208524 -0.0012014901 -2.2453397e-23 0.00074132122 3.1634673e-23 6.1819478e-40)
(0.0018547487 -0.0010913549 -6.644573e-22 0.00079421899 4.8278163e-22 1.7068127e-39)
(0.0014366181 -0.00096713236 0 0.00084205106 0 0)
(0.0010836014 -0.00083607583 1.6262404e-22 0.00088211592 -1.8438172e-22 9.1503821e-40)
(0.00080041424 -0.00070508802 8.3142953e-24 0.00091209178 -1.7425028e-23 5.0073734e-41)
(0.00058291864 -0.00058010409 -1.9803679e-22 0.00093041067 3.1135631e-22 1.0641414e-39)
(0.00042188699 -0.00046559479 -4.4865333e-23 0.00093643442 8.0386263e-23 2.2268481e-41)
(0.00030618931 -0.00036434834 -1.3827951e-23 0.00093035428 3.756424e-23 3.5701812e-41)
(0.00022491993 -0.00027760801 -1.8054605e-23 0.00091373382 5.0678978e-23 1.3909746e-41)
(0.00016848474 -0.00020524718 3.2643648e-23 0.00089171016 -1.2418136e-22 1.3283446e-40)
(0.00025598189 -6.0879829e-05 1.2752929e-22 1.4728717e-05 -2.4538413e-23 2.6329015e-40)
(0.0012689979 -0.00032743075 -9.160916e-22 8.4781841e-05 2.3052673e-22 5.7254619e-39)
(0.0022857249 -0.00059204061 -8.0680144e-23 0.00015511165 2.2914017e-23 5.3460895e-40)
(0.0030800906 -0.00080509537 -2.4370641e-22 0.00021576776 7.1844496e-23 2.6888281e-39)
(0.0035601783 -0.00096314242 -1.8423894e-22 0.00027201097 5.1142138e-23 3.7215008e-41)
(0.0037253414 -0.0010685702 -1.0436833e-21 0.00032695513 3.2344366e-22 4.9318719e-40)
(0.0036225895 -0.0011275099 -5.1221437e-22 0.00038347369 1.8040513e-22 3.973328e-40)
(0.0033215175 -0.0011458808 9.9288306e-22 0.00044325704 -3.7393941e-22 3.2176789e-40)
(0.0028979867 -0.0011285286 1.702621e-22 0.00050635452 -8.7539832e-23 4.0753647e-40)
(0.002422076 -0.0010800979 -2.1889859e-22 0.00057129988 9.9324826e-23 1.3951571e-40)
(0.0019500569 -0.001005956 1.0231273e-22 0.00063544682 -3.7738634e-23 5.2295905e-40)
(0.001520619 -0.00091256277 -1.9848328e-23 0.00069544928 2.6026663e-23 1.325562e-40)
(0.0011549761 -0.00080719535 0 0.00074785181 0 0)
(0.00085980623 -0.00069720753 1.0968436e-22 0.00078968021 -1.1373626e-22 3.2212993e-41)
(0.00063160589 -0.00058915787 -2.3395157e-22 0.00081890588 3.0438893e-22 4.3830295e-40)
(0.00046112959 -0.00048812244 -7.6075854e-23 0.00083469398 1.1601885e-22 3.7862878e-41)
(0.00033701438 -0.00039736683 1.3210044e-22 0.00083737231 -2.6286309e-22 5.2302446e-40)
(0.00024821816 -0.00031841 -2.8818975e-23 0.00082813119 3.8508128e-23 1.1217274e-40)
(0.00018525286 -0.00025145042 -1.6835289e-24 0.00080927398 -3.4499402e-24 1.2582425e-41)
(0.00014047014 -0.00019574082 3.0206045e-23 0.00078571551 -8.9069842e-23 1.1496258e-41)
(0.00028002523 -4.624512e-05 9.2736217e-23 7.7823127e-06 -1.2166426e-23 1.6487893e-40)
(0.001330574 -0.00024321443 -8.5046798e-22 4.4699407e-05 1.5322382e-22 2.6265118e-39)
(0.0023451379 -0.00044089172 -6.6440089e-22 8.4382907e-05 1.3173794e-22 3.1426362e-39)
(0.0030824497 -0.00060593347 9.5248341e-22 0.00012377775 -1.9875778e-22 7.7110677e-40)
(0.0034704692 -0.00073647401 7.204902e-22 0.00016657769 -1.6182588e-22 1.6098772e-40)
(0.0035333222 -0.0008325905 -5.2924656e-22 0.00021494623 1.165772e-22 1.6692893e-39)
(0.003340878 -0.00089535091 1.722093e-22 0.00027027676 -6.5354157e-23 7.0662037e-40)
(0.0029788705 -0.00092534032 1.0124424e-21 0.00033259389 -3.5768505e-22 7.9634398e-40)
(0.0025302862 -0.00092340164 4.4466423e-22 0.00040029196 -1.7417001e-22 1.0087327e-40)
(0.0020636798 -0.00089198922 -4.378677e-22 0.00047031425 2.2239626e-22 2.5992931e-40)
(0.0016275173 -0.00083580714 -5.9474339e-22 0.00053862934 3.5246345e-22 3.1217028e-40)
(0.0012497331 -0.00076148376 -1.6241126e-23 0.000600923 1.1666271e-23 3.2552734e-43)
(0.00094099351 -0.000676556 1.7161897e-22 0.00065335307 -1.4914616e-22 5.0627468e-41)
(0.00069978633 -0.00058823678 -6.1725113e-24 0.00069316761 1.953685e-23 7.6391389e-41)
(0.00051763422 -0.00050241391 -6.7336439e-24 0.00071904013 3.180127e-23 2.0675453e-40)
(0.0003833163 -0.00042313094 5.1272844e-24 0.00073107886 -4.1555026e-23 3.7349179e-40)
(0.00028566731 -0.00035256148 6.0878776e-23 0.00073054305 -1.1969588e-22 1.0985876e-40)
(0.00021505405 -0.00029134659 -3.4742436e-23 0.00071937871 1.007451e-22 2.8566215e-40)
(0.00016385125 -0.00023917561 -8.8818739e-23 0.00070019756 2.442929e-22 5.5513116e-40)
(0.00012624624 -0.00019520659 2.948615e-23 0.00067706317 -7.1473354e-23 1.255998e-41)
(0.00029826006 -2.8299221e-05 -2.4143398e-22 2.7555392e-06 2.0123458e-23 4.9269172e-40)
(0.0013545275 -0.00014777513 -1.9080549e-22 1.6320165e-05 2.043642e-23 5.3177342e-40)
(0.0023353514 -0.00027718822 1.4608242e-21 3.4138654e-05 -1.851036e-22 6.4952345e-39)
(0.0029959972 -0.00039938659 1.08981e-21 5.7266183e-05 -1.5717308e-22 7.1109892e-40)
(0.0032894855 -0.0005109599 4.8938464e-22 8.8500056e-05 -7.6358273e-23 3.4895042e-40)
(0.003264642 -0.00060651475 9.8815572e-23 0.0001296732 -2.0094676e-23 3.3760029e-42)
(0.0030097776 -0.00068000543 -9.2897671e-22 0.00018148718 2.0474563e-22 1.4589574e-39)
(0.0026198633 -0.00072604124 0 0.00024294677 0 0)
(0.0021777868 -0.00074185447 -5.7029899e-22 0.00031119178 2.4457353e-22 1.2077051e-39)
(0.0017449588 -0.00072850896 -9.8273774e-23 0.00038185098 6.3929808e-23 2.7332059e-40)
(0.0013591925 -0.00069069502 2.8016662e-22 0.00044981403 -1.6104581e-22 6.7494203e-41)
(0.0010377076 -0.0006354314 3.0278153e-23 0.00051020185 -3.8147442e-23 1.5035993e-40)
(0.00078277177 -0.00057035531 -1.3409236e-22 0.00055923398 1.3005267e-22 1.7545459e-40)
(0.00058774846 -0.0005022428 -1.0125791e-22 0.00059474918 1.3124126e-22 3.7465993e-40)
(0.00044209542 -0.00043613698 6.5112578e-23 0.00061629317 -6.5725547e-23 4.6094473e-41)
(0.00033472947 -0.00037513397 9.0327599e-23 0.00062484097 -1.1559277e-22 4.2863445e-41)
(0.00025584142 -0.00032064463 -8.0636278e-23 0.00062230167 1.3236799e-22 3.9989569e-41)
(0.00019758204 -0.0002728912 -1.0832682e-22 0.00061098512 2.3085214e-22 4.6452426e-40)
(0.0001540679 -0.00023148333 8.2784807e-24 0.00059340576 -1.8195952e-24 5.4386056e-41)
(0.00012097548 -0.00019574353 1.4805356e-23 0.00057253099 -4.9131485e-23 6.4260002e-41)
(0.00030962816 -8.1674502e-06 -1.5930543e-22 2.4716311e-07 4.0598524e-24 2.4101868e-40)
(0.0013394593 -4.8333748e-05 6.8166415e-22 1.909821e-06 -2.438507e-23 1.3369996e-39)
(0.0022586342 -0.00011379629 1.0420172e-21 6.744371e-06 -6.3963471e-23 9.6956128e-39)
(0.0028312512 -0.00020119645 -1.2239431e-21 1.77369e-05 1.0507905e-22 2.6716468e-39)
(0.0030371507 -0.00030210238 4.4321349e-22 3.8094909e-05 -4.834805e-23 6.7722468e-41)
(0.0029460761 -0.00040320865 1.8267579e-22 7.0449378e-05 8.9897118e-25 2.4655263e-39)
(0.002657928 -0.00049053206 4.7990082e-23 0.00011580219 -9.6679193e-24 8.9663569e-43)
(0.0022694311 -0.00055319424 -6.8381905e-22 0.00017276809 1.5698926e-22 8.3381371e-40)
(0.0018573761 -0.00058587571 -1.5542708e-23 0.00023757286 5.3426244e-24 1.3487086e-43)
(0.0014728048 -0.00058918591 2.5579787e-22 0.00030480332 -1.3213273e-22 3.1761226e-40)
(0.0011425972 -0.00056823845 2.012901e-23 0.00036861901 -2.035902e-23 4.5342625e-41)
(0.00087515801 -0.00053039052 -9.21636e-23 0.00042398538 2.4984838e-23 5.8660227e-40)
(0.00066722919 -0.00048310344 -2.0582973e-22 0.00046753232 1.6644747e-22 6.6718852e-41)
(0.00050980438 -0.0004325065 -1.2739767e-24 0.00049785076 1.5878737e-23 7.6397295e-41)
(0.00039227611 -0.00038281615 6.9894441e-23 0.0005152771 -9.0971086e-23 7.4903723e-41)
(0.00030479398 -0.0003364233 4.6599543e-23 0.00052136923 -7.3284018e-23 7.2565755e-41)
(0.00023926631 -0.00029433237 1.0713763e-23 0.00051830405 -3.4655466e-23 1.1727951e-40)
(0.00018954137 -0.00025668914 -7.4350358e-23 0.00050838013 1.0418517e-22 9.4741284e-41)
(0.00015118289 -0.000223246 -1.5087163e-23 0.00049374105 -9.6961213e-24 4.021433e-40)
(0.00012100183 -0.00019352993 4.1239714e-23 0.00047627746 -1.2609079e-22 6.6422046e-40)
(2.0618256e-06 -2.5766182e-07 2.0602638e-23 3.1467565e-07 -4.1223311e-24 2.3551832e-40)
(9.7180976e-06 -4.0676467e-06 -2.9399337e-23 2.0894927e-06 8.1461954e-24 2.2673202e-40)
(2.1767934e-05 -9.4002853e-06 6.5299827e-23 4.1657012e-06 -2.4475442e-23 1.3023857e-39)
(6.9789406e-05 -1.9838918e-05 1.8231498e-22 5.9752265e-06 -3.8907558e-23 4.3797698e-39)
(0.00015316996 -3.2732802e-05 -1.3029437e-22 7.603053e-06 2.2219607e-23 1.1391236e-39)
(0.00027377802 -4.7174338e-05 1.6428613e-22 9.0506751e-06 -2.2336131e-23 1.2586417e-39)
(0.00043557905 -6.2674583e-05 -2.2575226e-22 1.0320032e-05 2.873097e-23 1.3826423e-39)
(0.00063966088 -7.8744393e-05 -2.329392e-22 1.143722e-05 2.4426121e-23 1.4617577e-39)
(0.00088510642 -9.498673e-05 2.934057e-22 1.2430319e-05 -3.0535321e-23 1.5457997e-39)
(0.0011703379 -0.00011110901 -2.2800719e-22 1.3321192e-05 2.2366461e-23 7.8739133e-40)
(0.0014933725 -0.00012689093 -1.1357388e-23 1.4126429e-05 1.9013639e-25 9.1507465e-42)
(0.0018518535 -0.00014216181 6.5907546e-23 1.4858726e-05 -7.0410476e-24 2.9005237e-41)
(0.0022431635 -0.00015678715 -1.1322452e-23 1.5527807e-05 5.4995391e-25 4.5935513e-42)
(0.0026645302 -0.00017066038 3.5928681e-22 1.6141485e-05 -3.2364117e-23 1.3796056e-39)
(0.0031130906 -0.00018370035 4.1389574e-25 1.6706976e-05 6.7996915e-25 2.9773713e-42)
(0.003585955 -0.00019585624 -5.3099837e-22 1.7232231e-05 4.9809122e-23 2.8382149e-39)
(0.0040802937 -0.00020711191 9.8796842e-23 1.7725751e-05 -1.0387464e-23 6.0007267e-41)
(0.0045933501 -0.0002174664 2.4057584e-22 1.819382e-05 -2.382726e-23 7.217674e-40)
(0.005122385 -0.00022696317 -3.9231276e-22 1.8642671e-05 4.1503152e-23 2.0460695e-39)
(0.0056642764 -0.00023590035 -2.1799467e-22 1.906831e-05 2.4516165e-23 7.6819308e-40)
(2.3351795e-06 -1.0778088e-06 6.789401e-24 2.7690992e-06 -2.5123687e-24 2.3332538e-41)
(1.2388772e-05 -1.3938235e-05 -1.8618771e-22 1.8412774e-05 1.4038007e-22 7.5826163e-39)
(2.780142e-05 -3.1645756e-05 3.6946675e-23 3.6697974e-05 -3.05497e-23 6.8437343e-40)
(8.2114321e-05 -6.4230518e-05 1.9617525e-22 5.2642049e-05 -1.2056772e-22 3.6607855e-39)
(0.00017279092 -0.0001039025 2.726715e-22 6.6955425e-05 -1.3115742e-22 4.1397365e-39)
(0.00030111553 -0.00014799525 3.2987262e-23 7.9631299e-05 -1.3245479e-23 3.8890078e-41)
(0.0004705911 -0.00019504859 -8.7759098e-22 9.0689855e-05 3.0456112e-22 2.0706907e-38)
(0.00068174808 -0.00024361602 -3.0997739e-23 0.00010036253 1.2864691e-23 5.9983529e-42)
(0.00093316978 -0.00029253141 4.9754234e-22 0.00010889614 -1.5182932e-22 3.5350141e-39)
(0.0012228223 -0.00034093515 -1.201998e-22 0.00011648317 3.3275809e-23 1.9656152e-40)
(0.0015482708 -0.0003881779 -4.5701741e-22 0.00012326968 1.2556536e-22 2.181007e-39)
(0.001906702 -0.00043375429 9.6288987e-23 0.0001293667 -2.4688888e-23 9.9300228e-41)
(0.0022950317 -0.00047726327 4.0681577e-22 0.00013485787 -9.1315978e-23 2.3386227e-39)
(0.00271 -0.00051838281 1.6866234e-22 0.00013980856 -4.2056493e-23 2.6723034e-40)
(0.0031482188 -0.00055686069 3.3839282e-22 0.00014427707 -9.0262881e-23 7.733338e-40)
(0.0036062344 -0.00059252767 -2.6801541e-22 0.00014832598 6.7599278e-23 6.5399546e-40)
(0.0040806872 -0.00062531473 -2.5690991e-22 0.0001520232 6.4118214e-23 7.1526646e-40)
(0.0045682488 -0.00065519123 2.6057565e-22 0.00015542302 -7.3796417e-23 4.138694e-40)
(0.0050646651 -0.00068227144 2.3900826e-22 0.00015858681 -6.5988454e-23 7.2303265e-40)
(0.0055649209 -0.00070769726 9.3191722e-23 0.0001615029 -2.4696533e-23 3.0691862e-40)
(3.0015931e-06 -2.7588884e-06 5.2239588e-24 7.3849506e-06 -2.6168381e-24 1.2287928e-41)
(1.8726754e-05 -2.8804833e-05 1.4141344e-22 4.9151631e-05 -1.5136173e-22 3.2315918e-39)
(4.1852633e-05 -6.3656415e-05 -3.0954254e-23 9.7888561e-05 3.9893433e-23 1.6924342e-40)
(0.00010934233 -0.00012193648 -2.1314838e-22 0.00014036524 1.7951628e-22 4.0071072e-39)
(0.00021512023 -0.00019114677 7.8607129e-23 0.00017836553 -6.603968e-23 1.1368328e-40)
(0.00035929472 -0.00026698101 1.0427806e-22 0.00021178895 -8.4803557e-23 6.0070139e-41)
(0.00054443625 -0.00034702694 -1.2976334e-22 0.00024068323 6.8878588e-23 3.57104e-40)
(0.00077002118 -0.0004289424 -3.3988509e-22 0.00026566439 1.9850745e-22 7.1483393e-40)
(0.0010336768 -0.00051085437 1.4879427e-22 0.00028738825 -7.2424509e-23 1.995973e-40)
(0.0013324823 -0.00059137606 3.1611426e-22 0.00030637025 -1.3170532e-22 1.1330793e-39)
(0.0016631245 -0.00066945007 8.8614689e-23 0.00032300368 -6.122924e-23 4.2733735e-41)
(0.0020219037 -0.00074424349 3.8710576e-22 0.00033758621 -1.2895329e-22 2.1022214e-39)
(0.0024048299 -0.00081508325 3.2907868e-23 0.00035033828 -1.2219828e-23 8.7209817e-42)
(0.0028077004 -0.00088141268 -5.7709309e-22 0.00036142502 1.9541949e-22 3.3810395e-39)
(0.003226123 -0.00094277412 4.2810207e-23 0.00037098625 -2.8041314e-23 1.8773826e-41)
(0.0036555797 -0.00099883143 -2.7051449e-22 0.0003791682 7.5644362e-23 1.3170906e-39)
(0.0040917323 -0.0010494106 -3.8308207e-22 0.00038613091 1.5143632e-22 5.4255429e-40)
(0.0045302547 -0.0010943993 6.2347153e-22 0.0003920328 -2.4228618e-22 1.8001961e-39)
(0.0049643436 -0.0011339408 3.3025727e-22 0.00039713424 -1.3594899e-22 3.6675999e-40)
(0.0053861355 -0.0011704811 6.576652e-23 0.00040158287 -2.9724165e-23 7.8765128e-42)
(4.4215768e-06 -5.7056651e-06 -7.8144242e-24 1.3598418e-05 9.8352969e-24 1.8038307e-41)
(3.0703097e-05 -5.1148208e-05 -3.276958e-22 9.0678592e-05 4.1440532e-22 1.0724463e-38)
(6.7944747e-05 -0.00011029199 -2.3794353e-23 0.00018044215 3.0578318e-23 1.4654526e-40)
(0.00015724458 -0.00019944056 5.5022922e-23 0.00025855188 -6.0908072e-23 9.3504471e-41)
(0.00028760675 -0.00030204085 -8.8201514e-24 0.00032808544 2.2484274e-24 2.4132112e-41)
(0.00045739974 -0.00041224566 2.8041161e-22 0.00038866207 -2.0562699e-22 1.7614136e-39)
(0.00066775453 -0.00052668462 3.1030497e-22 0.00044033648 -2.0275938e-22 1.6002527e-39)
(0.00091658031 -0.00064220227 -9.3936317e-23 0.00048424322 4.544962e-23 2.5211237e-40)
(0.0012000675 -0.00075630109 -3.4526818e-22 0.00052159791 1.8051258e-22 1.603396e-39)
(0.0015139418 -0.00086711546 -6.9741984e-22 0.00055337048 3.7636889e-22 3.4015502e-39)
(0.0018535478 -0.00097320163 -1.4958649e-23 0.00058031162 -8.235738e-24 7.7603381e-41)
(0.0022138422 -0.0010734034 8.8923836e-22 0.00060299426 -4.1464864e-22 5.5584284e-39)
(0.0025894723 -0.0011667621 -3.6036709e-22 0.00062184106 1.3779035e-22 1.6426255e-39)
(0.0029748542 -0.0012524646 -2.3350696e-22 0.0006371645 1.0234559e-22 3.2432906e-40)
(0.0033641785 -0.0013298135 -2.857079e-23 0.00064921653 3.155207e-23 6.9977122e-41)
(0.0037514866 -0.0013982558 5.5503219e-22 0.00065824377 -2.4331549e-22 1.3310402e-39)
(0.004131154 -0.0014574636 -3.1527107e-22 0.0006645097 1.5751306e-22 8.9874114e-41)
(0.0044977267 -0.0015072514 -7.2396136e-22 0.00066834988 3.0470152e-22 2.8651657e-39)
(0.0048415075 -0.0015478089 4.8767125e-22 0.00067058288 -2.1189864e-22 1.440876e-39)
(0.0051515169 -0.001583105 4.2042531e-22 0.0006721261 -1.6845688e-22 1.3396156e-39)
(7.0712124e-06 -1.0161698e-05 3.5093775e-23 2.072837e-05 -3.4104778e-23 2.3093188e-40)
(5.0948979e-05 -8.2423435e-05 1.1309669e-23 0.00013841037 -2.8696778e-24 1.0448941e-40)
(0.00011139733 -0.00017436394 -4.5219772e-22 0.00027496914 6.4723214e-22 8.801098e-39)
(0.00023327033 -0.00030031981 -2.5975173e-22 0.00039341745 2.7585353e-22 2.7213217e-39)
(0.00039945484 -0.00044037921 1.7320728e-22 0.00049812659 -1.3791439e-22 1.6446037e-39)
(0.00060594902 -0.00058715185 2.1585392e-22 0.0005882096 -1.7391898e-22 7.7488393e-40)
(0.00085181604 -0.00073626312 -2.8077453e-22 0.00066371364 1.8338563e-22 1.812898e-39)
(0.0011327982 -0.00088383895 -4.2842544e-22 0.00072639502 2.4591219e-22 3.9782137e-39)
(0.0014430841 -0.0010268622 6.3554247e-22 0.00077815308 -3.7964732e-22 4.0828803e-39)
(0.0017764983 -0.0011630629 1.8191944e-22 0.00082053655 -7.364922e-23 9.5018214e-40)
(0.0021265136 -0.001290664 -5.7674948e-22 0.00085477504 3.8127033e-22 3.1702697e-40)
(0.0024862494 -0.0014082277 2.5231303e-22 0.00088182966 -1.1476051e-22 7.3174037e-40)
(0.0028485767 -0.0015145565 0 0.0009024296 0 0)
(0.003206205 -0.0016086256 2.4689118e-22 0.00091712156 -1.2031736e-22 2.8657095e-40)
(0.0035517149 -0.0016895483 -1.8555369e-22 0.00092633708 8.8179341e-23 1.5304697e-40)
(0.003877681 -0.0017566054 -2.8493712e-22 0.00093046588 1.4212294e-22 1.8606453e-40)
(0.0041773947 -0.0018093702 1.0571103e-22 0.00092987821 -8.5745842e-23 2.6123068e-40)
(0.0044448674 -0.0018477182 -8.5874026e-23 0.00092509935 5.1142096e-23 9.4847468e-42)
(0.004668323 -0.0018720918 4.1300783e-22 0.00091793864 -1.7868081e-22 1.5505266e-39)
(0.004833468 -0.001887824 -3.347205e-22 0.00091132538 1.6358661e-22 9.0913625e-41)
(1.1502141e-05 -1.6204762e-05 3.3655596e-23 2.8100509e-05 -2.8296678e-23 1.8542805e-40)
(8.2438425e-05 -0.00012291097 1.6245884e-22 0.00018753393 -2.1626649e-22 6.9358533e-40)
(0.0001780898 -0.00025620025 -2.1807296e-22 0.00037141997 2.8925906e-22 1.6512548e-39)
(0.00034526655 -0.00042447553 -3.5860036e-22 0.00053004572 4.0322213e-22 1.3839154e-39)
(0.00055960609 -0.00060509144 -1.0636829e-22 0.00066893166 1.5530665e-22 1.0920507e-39)
(0.00081391295 -0.00078900632 -3.245956e-22 0.00078654041 2.8498498e-22 6.7970654e-40)
(0.0011043685 -0.00097078748 -1.5068316e-22 0.00088297281 9.2780715e-23 7.8481001e-40)
(0.0014238407 -0.0011459752 2.6147835e-22 0.00096071352 -1.5727599e-22 1.4476771e-39)
(0.0017638774 -0.0013111958 6.2624944e-22 0.0010224661 -3.7322257e-22 4.9571162e-39)
(0.0021158186 -0.0014639309 1.9331768e-22 0.0010704979 -1.1894468e-22 2.079692e-40)
(0.002470803 -0.0016022352 -1.8368375e-22 0.0011066652 9.7532683e-23 3.2981858e-40)
(0.0028197958 -0.0017245666 -3.3896261e-23 0.0011324672 -7.5415891e-24 2.8721038e-40)
(0.0031537628 -0.0018296821 -8.7820814e-22 0.0011490864 4.8022721e-22 2.7368689e-39)
(0.0034638448 -0.0019165702 -2.729855e-22 0.0011574433 1.4267258e-22 2.8307987e-40)
(0.0037414789 -0.0019844138 4.5825053e-22 0.0011582711 -2.6445704e-22 1.3512883e-40)
(0.0039786063 -0.0020326052 -4.573019e-22 0.0011521896 2.4667638e-22 2.8061173e-40)
(0.0041686267 -0.0020608742 -1.6150003e-22 0.0011396836 7.9422512e-23 8.9570927e-41)
(0.0043067713 -0.0020694228 3.6254912e-22 0.0011213408 -1.5304525e-22 1.3912912e-39)
(0.0043817296 -0.0020593199 5.5122374e-22 0.0011000885 -2.7496133e-22 1.056169e-39)
(0.0043762659 -0.00203682 6.7074919e-23 0.0010824036 -3.1314841e-23 2.0553521e-41)
(1.8301789e-05 -2.3752297e-05 -9.4918078e-23 3.5102505e-05 7.7064128e-23 1.097088e-39)
(0.00012813695 -0.00017168882 -1.0504702e-22 0.00023348813 1.065669e-22 8.7445476e-40)
(0.00027357874 -0.00035347557 2.6722458e-22 0.00046021217 -3.3728077e-22 4.0422722e-40)
(0.00049999605 -0.00056778715 4.0698611e-22 0.00065419558 -4.2128938e-22 1.8349516e-39)
(0.0007745898 -0.00078978157 5.3170871e-24 0.00082190825 -4.784926e-24 3.6416393e-43)
(0.0010858892 -0.0010086357 -1.1061894e-21 0.0009612068 9.1207495e-22 1.0713057e-38)
(0.0014262226 -0.0012178844 -4.3464094e-22 0.0010724374 3.7135083e-22 1.5426405e-40)
(0.0017848454 -0.0014127181 3.3719232e-22 0.0011589617 -2.27291e-22 1.1754238e-39)
(0.0021501256 -0.001589707 3.8740165e-22 0.0012244209 -2.598793e-22 7.1911151e-40)
(0.0025105858 -0.0017464083 -3.7946046e-22 0.0012719467 2.1125221e-22 1.9731521e-39)
(0.0028549319 -0.0018810544 -1.1190245e-21 0.0013041776 7.0497105e-22 2.8791277e-39)
(0.003172209 -0.0019923784 7.3693179e-22 0.0013233075 -4.4572247e-22 1.1837396e-39)
(0.0034521126 -0.0020795107 4.3875929e-22 0.0013311263 -2.2869884e-22 1.4168014e-39)
(0.0036853137 -0.002141914 -6.096554e-22 0.0013290766 3.3580604e-22 1.1698615e-39)
(0.0038637238 -0.0021793418 2.684097e-22 0.0013183246 -1.5447354e-22 7.8619621e-41)
(0.0039807885 -0.0021918203 4.4603595e-22 0.0012998159 -2.2936859e-22 8.7118613e-40)
(0.0040325298 -0.002179702 1.7022931e-22 0.0012741583 -9.5624537e-23 2.9762811e-41)
(0.0040182929 -0.002143847 -2.9205328e-22 0.0012417535 1.7950208e-22 3.7914758e-41)
(0.0039312779 -0.0020862204 -6.8165985e-23 0.0012061816 2.2375184e-23 2.1563274e-40)
(0.003753368 -0.0020132404 3.8384991e-22 0.0011784422 -2.208063e-22 8.8297464e-41)
(2.8049239e-05 -3.2563304e-05 -2.7817274e-24 4.1190913e-05 -3.0312592e-24 2.0541229e-41)
(0.00019061312 -0.00022666106 -3.8292582e-22 0.0002722201 4.050929e-22 2.8747996e-39)