/*--------------------------------*- C++ -*----------------------------------*\
  =========                 |
  \\      /  F ield         | OpenFOAM: The Open Source CFD Toolbox
   \\    /   O peration     | Website:  https://openfoam.org
    \\  /    A nd           | Version:  6
     \\/     M anipulation  |
\*---------------------------------------------------------------------------*/
FoamFile
{
    version     2.0;
    format      ascii;
    class       volScalarField;
    location    "275";
    object      p;
}
// * * * * * * * * * * * * * * * * * * * * * * * * * * * * * * * * * * * * * //

dimensions      [0 2 -2 0 0 0 0];

internalField   nonuniform List<scalar> 
9200
(
-0.37794897
-0.36660248
-0.35650881
-0.34755953
-0.33881983
-0.3303036
-0.32208912
-0.31414387
-0.30640056
-0.29878723
-0.29123095
-0.28366266
-0.27602422
-0.26827561
-0.26040559
-0.25244945
-0.24448353
-0.23659565
-0.22981071
-0.22841071
-0.39580967
-0.38201201
-0.36997471
-0.35950563
-0.34939391
-0.339621
-0.33025565
-0.3212346
-0.31245835
-0.30382855
-0.29525203
-0.28664657
-0.27794848
-0.26911859
-0.26014779
-0.25106105
-0.24188822
-0.23262902
-0.22396635
-0.21806618
-0.41408735
-0.39781568
-0.38388067
-0.37196224
-0.36053381
-0.34952621
-0.33898692
-0.32881423
-0.31887445
-0.30904672
-0.29922675
-0.28933248
-0.27931082
-0.26914083
-0.25883354
-0.2484276
-0.23796179
-0.22744505
-0.21727665
-0.20857164
-0.43234794
-0.41362138
-0.39785403
-0.38454786
-0.37182297
-0.35954323
-0.34772698
-0.33623354
-0.324903
-0.31360734
-0.30225191
-0.2907785
-0.2791684
-0.26744027
-0.2556434
-0.2438476
-0.23211942
-0.22049773
-0.20925002
-0.19911739
-0.44996153
-0.4288831
-0.41140014
-0.39678331
-0.38277166
-0.3691513
-0.3559113
-0.34288268
-0.3298998
-0.3168546
-0.30369178
-0.29040517
-0.27703356
-0.26365076
-0.25035228
-0.23724102
-0.22440706
-0.2119089
-0.19993477
-0.18899211
-0.46610361
-0.44288184
-0.42385892
-0.40802086
-0.39271589
-0.37765242
-0.3628027
-0.34799507
-0.33309232
-0.31804268
-0.30286308
-0.28762411
-0.27243566
-0.25742889
-0.24273795
-0.22848486
-0.21476425
-0.20163204
-0.18921419
-0.17784749
-0.47976906
-0.45473129
-0.43440572
-0.41744653
-0.40082794
-0.38419653
-0.36753551
-0.35071128
-0.33365953
-0.31642419
-0.29912262
-0.28191595
-0.26498436
-0.24850349
-0.23262579
-0.21746914
-0.20310921
-0.18957714
-0.17693977
-0.16539829
-0.48979407
-0.4634013
-0.44208375
-0.424127
-0.40618098
-0.38786431
-0.36921386
-0.35018629
-0.33083864
-0.31134549
-0.29194193
-0.27287927
-0.25439331
-0.23668092
-0.21988684
-0.2041009
-0.18936026
-0.17565681
-0.16299942
-0.15147536
-0.49483643
-0.46761661
-0.44560703
-0.42672649
-0.40739905
-0.38727745
-0.36651218
-0.34520745
-0.32358119
-0.30195415
-0.28067261
-0.26005543
-0.24036326
-0.22178285
-0.204425
-0.18833282
-0.17349422
-0.15985756
-0.14737775
-0.13604452
-0.4935457
-0.46596033
-0.44342799
-0.4235797
-0.40276038
-0.38074052
-0.35784965
-0.33438531
-0.31074012
-0.28736418
-0.26467762
-0.24302144
-0.22263836
-0.20367204
-0.1861789
-0.17014677
-0.15551465
-0.14219308
-0.13009022
-0.11911094
-0.26506698
-0.26974126
-0.27224967
-0.27300081
-0.2727867
-0.27179419
-0.27010475
-0.26780591
-0.26496988
-0.2616514
-0.25789451
-0.25373671
-0.24921113
-0.24434782
-0.23917506
-0.23372173
-0.22801871
-0.22208653
-0.21592421
-0.2096173
-0.26779962
-0.27205865
-0.27426031
-0.27479278
-0.27439559
-0.27324687
-0.27142615
-0.2690173
-0.26608894
-0.26269298
-0.25887104
-0.25465852
-0.25008665
-0.24518348
-0.2399747
-0.23448816
-0.22876222
-0.22281575
-0.21654146
-0.20991341
-0.27312909
-0.27657606
-0.27817974
-0.27828449
-0.27752837
-0.27607409
-0.27399768
-0.27137573
-0.26826992
-0.26472653
-0.26078237
-0.25646863
-0.25181274
-0.24683892
-0.24156802
-0.23602502
-0.23025968
-0.22428977
-0.21781617
-0.21058113
-0.28081551
-0.28309997
-0.28383812
-0.28331413
-0.28202511
-0.28011417
-0.27765336
-0.27470941
-0.27133436
-0.26756665
-0.26343621
-0.25896814
-0.25418433
-0.24910333
-0.24373913
-0.23811158
-0.23228239
-0.22627392
-0.21954069
-0.21145514
-0.2905566
-0.29138734
-0.29102392
-0.28968268
-0.28769178
-0.28517357
-0.28219692
-0.27881727
-0.27507525
-0.27100004
-0.26661334
-0.26193196
-0.25697029
-0.25173992
-0.24624675
-0.24050227
-0.23457615
-0.22850396
-0.22148102
-0.21236502
-0.30203856
-0.30118598
-0.29951975
-0.2971892
-0.29433677
-0.29106538
-0.28744296
-0.28351392
-0.2793069
-0.27483943
-0.2701224
-0.26516336
-0.25996789
-0.25453918
-0.24887396
-0.24297241
-0.23690423
-0.23072439
-0.22339708
-0.21314383
-0.31498247
-0.31227085
-0.30913489
-0.30566401
-0.30180625
-0.29764829
-0.29326097
-0.28867731
-0.28391124
-0.2789678
-0.2738464
-0.26854333
-0.26305356
-0.25737072
-0.25148247
-0.24537718
-0.23911737
-0.23278061
-0.22516315
-0.21378128
-0.3291723
-0.32446693
-0.31972747
-0.31499322
-0.31001358
-0.30486194
-0.29961238
-0.29428569
-0.28888108
-0.28338915
-0.27779497
-0.27208054
-0.26622723
-0.26021659
-0.25402661
-0.24763674
-0.24110673
-0.23456014
-0.22674446
-0.21446557
-0.34445501
-0.33764181
-0.3311871
-0.32509018
-0.31889441
-0.31265862
-0.30646199
-0.3003126
-0.29419204
-0.28807331
-0.28192353
-0.27570627
-0.26938381
-0.26291737
-0.25626252
-0.24937139
-0.24226828
-0.23505939
-0.22648739
-0.21304989
-0.3607317
-0.35168775
-0.34340158
-0.3358374
-0.32831914
-0.32089081
-0.31363666
-0.30654974
-0.29959151
-0.29271571
-0.2858712
-0.27900481
-0.27206423
-0.264998
-0.25775029
-0.25025668
-0.24246005
-0.23415378
-0.22368701
-0.20801829
-0.20246659
-0.1935183
-0.18456506
-0.17567086
-0.166782
-0.15794017
-0.14919888
-0.14059317
-0.13215233
-0.12390498
-0.1158769
-0.10809028
-0.10056427
-0.09331521
-0.086356702
-0.079699626
-0.073352274
-0.067320449
-0.061607563
-0.056214746
-0.051140971
-0.04638319
-0.041936491
-0.037794256
-0.033948342
-0.03038927
-0.027106412
-0.024088192
-0.021322275
-0.018795765
-0.016495385
-0.014407656
-0.012519061
-0.010816198
-0.0092859264
-0.0079154935
-0.0066926662
-0.0056058304
-0.004644169
-0.0037975855
-0.0030575239
-0.0024149804
-0.0018676847
-0.0013989947
-0.0010444928
-0.00069461495
-0.0006879229
-8.0126834e-05
-0.0017060538
0.0024523272
-0.20347662
-0.19413108
-0.1850688
-0.17618893
-0.16728205
-0.15841004
-0.14964431
-0.14101634
-0.13255294
-0.12428325
-0.11623338
-0.10842538
-0.10087837
-0.093608799
-0.086630308
-0.079953845
-0.073587768
-0.06753794
-0.061807824
-0.056398593
-0.05130925
-0.04653677
-0.042076252
-0.03792108
-0.034063105
-0.030492834
-0.027199617
-0.024171852
-0.021397173
-0.018862648
-0.016554963
-0.014460598
-0.012565993
-0.010857704
-0.0093225477
-0.0079477283
-0.0067209705
-0.0056306185
-0.0046658149
-0.0038164237
-0.0030738488
-0.0024290502
-0.0018797005
-0.0014091656
-0.0010527487
-0.00070153596
-0.00069132539
-8.5942843e-05
-0.0016914956
0.0024237398
-0.20559531
-0.19539914
-0.18611942
-0.17730824
-0.16837777
-0.15944507
-0.15063173
-0.14195974
-0.1334493
-0.12513172
-0.1170343
-0.10917899
-0.10158504
-0.09426921
-0.087245435
-0.080524882
-0.074116117
-0.068025188
-0.062255713
-0.056808984
-0.051684097
-0.046878088
-0.04238609
-0.038201495
-0.034316142
-0.030720503
-0.02740388
-0.024354604
-0.021560236
-0.019007756
-0.016683758
-0.014574623
-0.012666691
-0.010946416
-0.0094005091
-0.0080160753
-0.0067807382
-0.0056827448
-0.0047111432
-0.0038557054
-0.0031077452
-0.0024581372
-0.0019044363
-0.0014300022
-0.0010696104
-0.00071554794
-0.0006983155
-9.7432589e-05
-0.0016629189
0.0023671791
-0.20866392
-0.19709105
-0.18749037
-0.17887815
-0.16995828
-0.1609489
-0.15208142
-0.14336049
-0.13479101
-0.1264094
-0.11824667
-0.1103248
-0.10266335
-0.09527991
-0.088189133
-0.081402705
-0.074929651
-0.068776426
-0.062946983
-0.05744288
-0.052263419
-0.047405784
-0.042865201
-0.038635114
-0.034707368
-0.031072407
-0.027719474
-0.024636812
-0.021811875
-0.019231518
-0.016882195
-0.014750141
-0.012821539
-0.011082684
-0.0095201296
-0.0081208197
-0.0068722225
-0.0057624322
-0.0047803489
-0.0039156007
-0.0031593604
-0.002502369
-0.0019420016
-0.0014615985
-0.0010951584
-0.00073671393
-0.00070899218
-0.00011454814
-0.0016210715
0.0022838693
-0.2124558
-0.19893631
-0.18891242
-0.18070099
-0.17187711
-0.16279369
-0.15388316
-0.14512961
-0.13650654
-0.12805756
-0.11982219
-0.11182357
-0.10408164
-0.096615485
-0.089441127
-0.082571286
-0.076015833
-0.069781962
-0.063874246
-0.058294746
-0.053043154
-0.048116954
-0.043511585
-0.039220627
-0.035235995
-0.031548141
-0.028146267
-0.025018534
-0.022152275
-0.019534196
-0.01715058
-0.014987473
-0.013030856
-0.011266818
-0.0096816973
-0.0082622268
-0.0069956642
-0.0058698973
-0.0048736259
-0.0039962824
-0.0032288478
-0.0025618813
-0.0019925158
-0.0015040596
-0.0011294883
-0.00076510577
-0.00072350138
-0.00013718855
-0.001567097
0.0021756956
-0.21662367
-0.20065443
-0.19011645
-0.18254358
-0.1739619
-0.16483609
-0.15590486
-0.14715311
-0.13850316
-0.13000019
-0.12169755
-0.11362283
-0.105797
-0.098240992
-0.090973082
-0.084007776
-0.077356357
-0.071027226
-0.065025983
-0.059355533
-0.054016248
-0.04900614
-0.04432105
-0.03995484
-0.035899606
-0.032145893
-0.028682913
-0.025498778
-0.02258071
-0.019915266
-0.017488537
-0.015286353
-0.013294459
-0.011498691
-0.0098851311
-0.0084402484
-0.0071510399
-0.0060051357
-0.0049909842
-0.0040977717
-0.0033162374
-0.0026367109
-0.0020560211
-0.0015574312
-0.0011726544
-0.00080076616
-0.0007419979
-0.00016521246
-0.0015024432
0.0020451123
-0.22077
-0.20206385
-0.19089075
-0.18412822
-0.17601216
-0.16694911
-0.15803146
-0.14931881
-0.14068502
-0.13215945
-0.12380785
-0.1156677
-0.10776329
-0.10011791
-0.092752786
-0.085685177
-0.078928578
-0.072493209
-0.066386214
-0.060611791
-0.055171359
-0.050063766
-0.045285497
-0.040830894
-0.036692386
-0.032860723
-0.029325216
-0.026073975
-0.023094148
-0.020372149
-0.017893878
-0.015644929
-0.013610783
-0.01177699
-0.010129331
-0.0086539711
-0.0073375972
-0.0061675343
-0.0051319309
-0.0042196793
-0.0034212288
-0.0027266336
-0.0021323576
-0.0016216102
-0.0012246062
-0.00084367404
-0.0007646186
-0.00019846902
-0.0014287597
0.0018950086
-0.22463393
-0.20356018
-0.19145962
-0.18526749
-0.17781365
-0.16904539
-0.16021934
-0.15157048
-0.14299015
-0.1344797
-0.12610393
-0.11791297
-0.10993885
-0.10220841
-0.094746202
-0.087573008
-0.080705332
-0.074155834
-0.067933707
-0.062044875
-0.05649218
-0.051275616
-0.046392573
-0.041838084
-0.037605082
-0.033684654
-0.030066307
-0.026738228
-0.023687535
-0.020900528
-0.018362923
-0.016060074
-0.013977184
-0.012099488
-0.010412438
-0.0089018514
-0.0075540689
-0.0063560661
-0.0052956476
-0.004361367
-0.003543339
-0.0028312997
-0.0022212885
-0.0016964563
-0.0012852891
-0.00089383174
-0.00079155267
-0.00023686646
-0.0013478463
0.0017286741
-0.22587326
-0.2053881
-0.19251863
-0.18589768
-0.17893126
-0.17074462
-0.16219503
-0.15367528
-0.14520196
-0.13676855
-0.1284227
-0.12022226
-0.11221038
-0.10441972
-0.096878792
-0.089612491
-0.082641181
-0.075980796
-0.069643308
-0.063637032
-0.057966836
-0.052634395
-0.047638471
-0.042975189
-0.038638321
-0.034619574
-0.03090888
-0.027494677
-0.024364195
-0.021503719
-0.018898849
-0.016534745
-0.014396346
-0.012468579
-0.010736549
-0.0091857085
-0.0078020148
-0.006572057
-0.0054832539
-0.004523775
-0.0036833529
-0.0029513599
-0.002323349
-0.0017823985
-0.0013550595
-0.00095146218
-0.0008231874
-0.00028011361
-0.001261861
0.0015503781
-0.21601264
-0.2046342
-0.19363636
-0.18554898
-0.17849321
-0.17108082
-0.16313746
-0.1549836
-0.14679816
-0.13860722
-0.13043847
-0.12234941
-0.11439553
-0.10661976
-0.099057941
-0.091741618
-0.08469746
-0.077946933
-0.071506735
-0.065389221
-0.05960269
-0.054151687
-0.049037335
-0.044257668
-0.039807968
-0.035681103
-0.031867855
-0.028357254
-0.025136892
-0.022193231
-0.01951189
-0.017077919
-0.014876046
-0.012890912
-0.011107276
-0.0095102029
-0.0080852386
-0.0068185447
-0.0056971075
-0.0047086619
-0.0038425065
-0.0030875944
-0.0024389351
-0.0018794883
-0.0014337478
-0.0010160408
-0.00085933278
-0.00032655266
-0.0011733641
0.0013656229
-0.19387469
-0.19858181
-0.19330866
-0.18440443
-0.1769019
-0.16989422
-0.16239411
-0.15453709
-0.14658902
-0.13861309
-0.13062888
-0.12268927
-0.11485354
-0.10716904
-0.09967477
-0.092405217
-0.085390018
-0.078653431
-0.072214674
-0.066088362
-0.06028482
-0.054810386
-0.049667744
-0.044856283
-0.040372447
-0.036210081
-0.032360786
-0.028814262
-0.025558636
-0.022580791
-0.019866663
-0.017401527
-0.015170264
-0.013157598
-0.011348317
-0.0097274691
-0.008280548
-0.0069936302
-0.0058535901
-0.0048480349
-0.0039660851
-0.0031965792
-0.0025340637
-0.0019619351
-0.0015019272
-0.0010746797
-0.00089045882
-0.00037295301
-0.0010829362
0.0011823119
-0.18332595
-0.18914688
-0.18567399
-0.17693537
-0.16973263
-0.16347668
-0.15677704
-0.1496339
-0.14234319
-0.13497994
-0.1275539
-0.12011364
-0.11272088
-0.10542667
-0.098273563
-0.091299881
-0.084539297
-0.078020075
-0.071765272
-0.065793141
-0.060117424
-0.054747631
-0.049689376
-0.044944728
-0.040512568
-0.036388948
-0.032567452
-0.029039546
-0.025794931
-0.022821868
-0.020107499
-0.017638145
-0.015399581
-0.013377293
-0.011556706
-0.0099233978
-0.008463288
-0.0071627956
-0.0060090508
-0.0049898629
-0.0040944239
-0.0033117536
-0.0026359563
-0.0020514454
-0.001576241
-0.001139955
-0.00092403552
-0.00042746554
-0.0009820717
0.00098467661
-0.17458786
-0.17780932
-0.17553233
-0.16851177
-0.16215944
-0.1565974
-0.15066454
-0.14425144
-0.13762476
-0.13087961
-0.12402787
-0.11711193
-0.11019228
-0.10332181
-0.096545205
-0.089903141
-0.083432209
-0.077163891
-0.071124537
-0.065335682
-0.05981429
-0.054572974
-0.049620292
-0.044961082
-0.040596798
-0.036525864
-0.032744028
-0.029244723
-0.026019411
-0.023057927
-0.020348801
-0.017879571
-0.015637065
-0.013607674
-0.011777591
-0.010133035
-0.0086604552
-0.0073466981
-0.0061792211
-0.0051460972
-0.0042366306
-0.0034400723
-0.0027500576
-0.0021521469
-0.0016602759
-0.0012139391
-0.00096305417
-0.00048885932
-0.00087372104
0.00076820401
-0.16490976
-0.16552251
-0.16369115
-0.15874666
-0.15362427
-0.14880486
-0.14366312
-0.13806173
-0.13217809
-0.12611303
-0.11989421
-0.11356207
-0.10717374
-0.10078274
-0.094435608
-0.088175008
-0.082040027
-0.076065111
-0.070279803
-0.06470892
-0.059372728
-0.054287093
-0.049463726
-0.044910467
-0.0406316
-0.03662819
-0.032898423
-0.029437958
-0.026240275
-0.023297023
-0.020598345
-0.018133199
-0.015889655
-0.013855176
-0.01201687
-0.010361729
-0.0088768419
-0.0075495791
-0.0063678048
-0.0053199199
-0.0043953915
-0.0035837365
-0.0028781424
-0.00226532
-0.0017550993
-0.0012968353
-0.001008754
-0.00055461233
-0.00076544283
0.00054295371
-0.15434058
-0.15307348
-0.15126417
-0.14803457
-0.14420541
-0.14019084
-0.13584613
-0.1310887
-0.12600202
-0.12066914
-0.11513321
-0.10943723
-0.10363419
-0.09777649
-0.091911569
-0.086083372
-0.080332726
-0.074696476
-0.069206993
-0.063892167
-0.058775474
-0.053876056
-0.049208879
-0.044784957
-0.040611623
-0.03669283
-0.033029464
-0.029619685
-0.026459265
-0.023541924
-0.020859671
-0.018403118
-0.016161792
-0.014124423
-0.012279211
-0.010614072
-0.009116873
-0.0077756214
-0.0065786864
-0.005514875
-0.0045738831
-0.0037455305
-0.0030226111
-0.0023929288
-0.0018623853
-0.0013896787
-0.0010626345
-0.00062409525
-0.00066327496
0.00031703023
-0.14255405
-0.14049517
-0.13880041
-0.13684513
-0.13418681
-0.13100824
-0.12745065
-0.12351786
-0.11923198
-0.11464886
-0.10981939
-0.10478828
-0.099603936
-0.094316401
-0.088972947
-0.083617744
-0.078292259
-0.073034741
-0.06787963
-0.062857315
-0.057994064
-0.053312013
-0.048829229
-0.044559853
-0.040514305
-0.036699523
-0.033119249
-0.029774326
-0.026663023
-0.023781354
-0.021123411
-0.01868168
-0.016447353
-0.014410624
-0.012560965
-0.010887387
-0.0093786769
-0.0080236116
-0.0068111774
-0.0057306802
-0.0047721264
-0.0039256835
-0.0031838359
-0.00253539
-0.0019826499
-0.0014927855
-0.0011256778
-0.00069686679
-0.00057320985
9.9086093e-05
-0.12986011
-0.1279304
-0.12658371
-0.12554052
-0.12384582
-0.12147691
-0.11867961
-0.11552548
-0.11201135
-0.10816678
-0.10404171
-0.099682529
-0.095132187
-0.090435604
-0.085638692
-0.080785093
-0.075915918
-0.071069682
-0.066281884
-0.061584596
-0.057006225
-0.052571383
-0.048300858
-0.044211661
-0.040317142
-0.036627171
-0.033148352
-0.029884287
-0.026835852
-0.024001503
-0.021377583
-0.018958628
-0.016737678
-0.014706573
-0.01285623
-0.011176915
-0.0096584908
-0.0082906381
-0.0070630822
-0.0059657301
-0.0049889939
-0.0041234411
-0.0033613561
-0.002692436
-0.0021158483
-0.0016060834
-0.0011985592
-0.00077251155
-0.00050114775
-0.00010156879
-0.11697447
-0.11562491
-0.11476687
-0.11437947
-0.11344033
-0.11180663
-0.1097201
-0.10728312
-0.10448897
-0.10134947
-0.097906705
-0.094205014
-0.090284236
-0.086183676
-0.081944408
-0.077608345
-0.073215618
-0.068804072
-0.064409188
-0.060063747
-0.055797472
-0.051636761
-0.047604557
-0.043720295
-0.039999932
-0.036456041
-0.033097958
-0.029931982
-0.026961606
-0.02418778
-0.021609192
-0.01922255
-0.01702288
-0.015003815
-0.013157871
-0.011476721
-0.0099514463
-0.0085727673
-0.0073312732
-0.0062175808
-0.0052226115
-0.0043373939
-0.0035541407
-0.0028633238
-0.002261526
-0.0017292446
-0.0012816541
-0.0008508195
-0.00045210874
-0.00027608469
-0.10444022
-0.10375716
-0.10341498
-0.10352161
-0.10317052
-0.10217412
-0.10072918
-0.098939414
-0.096801358
-0.094317318
-0.091519622
-0.088447244
-0.085135525
-0.08161943
-0.077935453
-0.074121132
-0.070214192
-0.066251108
-0.062266506
-0.058292929
-0.054360515
-0.050496661
-0.046725781
-0.04306916
-0.03954489
-0.03616788
-0.032949928
-0.029899844
-0.02702363
-0.024324684
-0.021804044
-0.019460638
-0.01729156
-0.015292338
-0.013457205
-0.011779364
-0.010251245
-0.0088647322
-0.0076113999
-0.0064826835
-0.0054701208
-0.0045652705
-0.0037604131
-0.0030466933
-0.0024187038
-0.0018616103
-0.0013749234
-0.00093179466
-0.00042945612
-0.00041731904
-0.092542918
-0.092445929
-0.092572184
-0.093066459
-0.093176718
-0.092715167
-0.091830873
-0.090613785
-0.089062727
-0.087175245
-0.084974585
-0.082492697
-0.079759657
-0.076805335
-0.073661765
-0.070362358
-0.066940881
-0.063431136
-0.059866136
-0.056277414
-0.052694686
-0.049145539
-0.045655126
-0.042245934
-0.038937633
-0.035746998
-0.03268791
-0.029771401
-0.027005763
-0.024396703
-0.021947525
-0.019659352
-0.017531354
-0.015561004
-0.013744324
-0.012076138
-0.010550322
-0.0091600352
-0.0078979419
-0.0067563991
-0.0057276663
-0.0048039062
-0.0039776106
-0.0032405206
-0.0025858329
-0.0020021386
-0.0014778352
-0.0010155485
-0.00043431601
-0.00052096488
-0.081422968
-0.081781997
-0.082290687
-0.083087561
-0.083558661
-0.083534217
-0.083125227
-0.082403799
-0.081368338
-0.080013476
-0.07835481
-0.076416929
-0.074224142
-0.07180105
-0.069174579
-0.066373763
-0.063428511
-0.060369019
-0.057225604
-0.054028043
-0.050804917
-0.047583253
-0.044388215
-0.041242822
-0.038167716
-0.035181017
-0.032298233
-0.029532243
-0.026893336
-0.0243893
-0.022025548
-0.019805289
-0.017729723
-0.015798252
-0.014008708
-0.012357588
-0.010840282
-0.0094513006
-0.00818449
-0.007033218
-0.0059905631
-0.0050493672
-0.0042024729
-0.0034421759
-0.0027608312
-0.002149399
-0.0015893367
-0.0011021445
-0.00046528663
-0.00058638561
-0.071140869
-0.07182785
-0.072622909
-0.073644821
-0.074391089
-0.074713777
-0.074695758
-0.074392557
-0.073800484
-0.072911756
-0.071735641
-0.070289805
-0.068592688
-0.066663571
-0.064524195
-0.062198726
-0.059712876
-0.057093163
-0.054366564
-0.051560238
-0.048700942
-0.045814478
-0.042925343
-0.040056426
-0.03722873
-0.034461153
-0.031770338
-0.029170585
-0.026673818
-0.024289613
-0.022025264
-0.019885901
-0.017874636
-0.015992736
-0.014239815
-0.012614046
-0.011112364
-0.0097306824
-0.0084640942
-0.0073070512
-0.0062535355
-0.0052971418
-0.0044311937
-0.0036485342
-0.0029411649
-0.0023015957
-0.0017078673
-0.0011914318
-0.00051854096
-0.00061690654
-0.061708547
-0.062616276
-0.063609022
-0.06478496
-0.065730965
-0.066319585
-0.066612833
-0.066652493
-0.066432424
-0.065942697
-0.065187358
-0.064177938
-0.062927307
-0.061449577
-0.059761402
-0.057882032
-0.05583264
-0.053635749
-0.051314807
-0.048893842
-0.0463971
-0.043848533
-0.041271357
-0.038687707
-0.036118337
-0.033582358
-0.031097026
-0.028677594
-0.026337215
-0.024086908
-0.021935566
-0.019890015
-0.017955109
-0.01613386
-0.01442759
-0.012836107
-0.011357889
-0.0099902687
-0.0087296249
-0.0075715475
-0.0065109914
-0.005542372
-0.0046596116
-0.003856124
-0.0031239638
-0.0024566175
-0.0018314171
-0.0012829133
-0.00058836357
-0.00061937357
-0.053111185
-0.054155516
-0.055271446
-0.056539452
-0.057619507
-0.058402337
-0.058934141
-0.059245818
-0.05932918
-0.059172605
-0.058775925
-0.058145478
-0.057289151
-0.056216272
-0.054938693
-0.053470904
-0.051829534
-0.050032891
-0.048100637
-0.046053428
-0.043912554
-0.041699557
-0.039435809
-0.037142123
-0.034838432
-0.032543496
-0.030274655
-0.028047622
-0.025876341
-0.023772888
-0.021747422
-0.019808192
-0.017961575
-0.016212158
-0.014562849
-0.013015015
-0.011568628
-0.010222431
-0.0089740993
-0.0078203924
-0.0067572906
-0.00578009
-0.0048834133
-0.0040612927
-0.003306154
-0.0026121122
-0.0019576326
-0.001375689
-0.00066805308
-0.00060296588
-0.045317989
-0.046434641
-0.047614518
-0.048923584
-0.050082441
-0.050997889
-0.051704069
-0.052223435
-0.052546452
-0.052660419
-0.052561941
-0.052253155
-0.051737733
-0.051020802
-0.050109877
-0.049015034
-0.04774855
-0.046324569
-0.044758842
-0.043068457
-0.041271506
-0.039386735
-0.037433197
-0.035429884
-0.033395386
-0.031347584
-0.029303376
-0.027278444
-0.025287057
-0.023341929
-0.021454118
-0.019632976
-0.017886138
-0.016219552
-0.014637547
-0.013142922
-0.011737067
-0.010420084
-0.0091909307
-0.008047546
-0.0069869676
-0.0060054213
-0.0050983153
-0.0042603611
-0.0034845901
-0.0027655786
-0.0020839618
-0.0014684928
-0.00075100348
-0.00057748398
-0.03828758
-0.039428755
-0.040627473
-0.041937844
-0.043130948
-0.044127838
-0.044953553
-0.045624136
-0.046129411
-0.046456254
-0.046598996
-0.046556563
-0.046329259
-0.045918719
-0.045328733
-0.044565457
-0.043637189
-0.042554138
-0.041328242
-0.039972977
-0.0385031
-0.036934342
-0.035283107
-0.033566163
-0.031800309
-0.030002073
-0.028187429
-0.02637154
-0.024568537
-0.022791337
-0.021051497
-0.019359117
-0.017722785
-0.016149552
-0.014644956
-0.013213069
-0.011856573
-0.010576852
-0.0093740942
-0.0082474035
-0.0071948864
-0.0062137321
-0.0053002005
-0.0044497473
-0.0036561679
-0.0029144624
-0.0022078186
-0.0015598059
-0.00083169663
-0.0005515437
-0.03197253
-0.033103934
-0.03428855
-0.035570779
-0.036763707
-0.037800981
-0.038700874
-0.039474675
-0.040112176
-0.040600419
-0.040932332
-0.041104555
-0.041114872
-0.040962188
-0.040647258
-0.04017293
-0.039544022
-0.03876719
-0.037850822
-0.036804923
-0.035640923
-0.034371457
-0.033010106
-0.031571131
-0.030069199
-0.028519094
-0.026935435
-0.025332424
-0.023723607
-0.022121669
-0.020538257
-0.018983843
-0.017467626
-0.015997466
-0.014579862
-0.013219951
-0.011921548
-0.010687197
-0.0095182424
-0.0084149023
-0.0073763401
-0.0064007225
-0.0054852063
-0.0046260492
-0.0038179068
-0.0030562446
-0.0023267354
-0.0016480104
-0.00090633936
-0.00053118576
-0.026322786
-0.027420957
-0.028568569
-0.029802053
-0.030969414
-0.032015344
-0.032953146
-0.033790658
-0.034518114
-0.035123193
-0.035598151
-0.035938163
-0.036139278
-0.036198416
-0.03611401
-0.035886255
-0.035517077
-0.035010069
-0.034370463
-0.03360507
-0.032722169
-0.031731355
-0.030643345
-0.029469767
-0.028222926
-0.026915569
-0.025560622
-0.024170943
-0.022759091
-0.021337111
-0.019916335
-0.018507225
-0.017119233
-0.015760706
-0.014438819
-0.013159536
-0.011927606
-0.010746576
-0.0096188283
-0.0085456213
-0.0075271319
-0.0065624947
-0.0056497832
-0.0047860993
-0.0039670076
-0.0031885165
-0.0024384774
-0.0017315331
-0.00097298795
-0.00051928922
-0.02128797
-0.022337954
-0.023433745
-0.024605184
-0.025729302
-0.026760402
-0.027708158
-0.028577943
-0.029360755
-0.030045252
-0.030623584
-0.031090142
-0.031439921
-0.031668535
-0.031772763
-0.031750809
-0.031602318
-0.031328374
-0.030931525
-0.030415781
-0.029786565
-0.029050624
-0.028215905
-0.027291401
-0.026286972
-0.025213146
-0.024080913
-0.022901494
-0.021686126
-0.020445851
-0.019191316
-0.0179326
-0.016679054
-0.015439178
-0.014220516
-0.013029589
-0.011871851
-0.010751663
-0.0096722935
-0.0086359305
-0.0076436916
-0.0066956412
-0.0057907618
-0.00492702
-0.0041009019
-0.0033090428
-0.0025411036
-0.0018089471
-0.0010311921
-0.00051588076
-0.016819268
-0.017812649
-0.018848134
-0.019950068
-0.021019633
-0.02201944
-0.022956502
-0.023834449
-0.024645232
-0.02537869
-0.026027284
-0.026585142
-0.02704676
-0.027407016
-0.027661637
-0.027807439
-0.02784238
-0.027765599
-0.027577478
-0.027279678
-0.026875149
-0.026368089
-0.025763886
-0.025069016
-0.024290926
-0.023437878
-0.02251879
-0.021543051
-0.020520323
-0.019460355
-0.018372789
-0.017266986
-0.016151859
-0.015035729
-0.013926204
-0.012830077
-0.01175325
-0.010700681
-0.0096763481
-0.0086832237
-0.0077232635
-0.006797393
-0.0059054678
-0.0050463121
-0.0042173218
-0.0034158302
-0.002632987
-0.0018790228
-0.0010813717
-0.00051909067
-0.012870485
-0.01380376
-0.014775321
-0.015804858
-0.01681369
-0.017771566
-0.018683534
-0.019551983
-0.020369891
-0.021128371
-0.021820463
-0.022440408
-0.02298262
-0.023441697
-0.023812807
-0.024091903
-0.024275795
-0.024362209
-0.024349871
-0.024238574
-0.024029221
-0.023723832
-0.023325532
-0.022838502
-0.022267914
-0.021619826
-0.020901066
-0.020119095
-0.019281849
-0.018397575
-0.017474661
-0.016521469
-0.015546176
-0.014556626
-0.013560187
-0.01256364
-0.011573077
-0.010593817
-0.0096303411
-0.0086862424
-0.0077641809
-0.0068658472
-0.0059919043
-0.0051420009
-0.004314411
-0.0035072146
-0.0027128239
-0.0019407486
-0.0011242117
-0.00052629938
-0.0093996097
-0.010272814
-0.011180403
-0.012138069
-0.013083949
-0.013993909
-0.014871511
-0.015718244
-0.01652811
-0.017293495
-0.018008166
-0.018666724
-0.019263789
-0.019794015
-0.020252393
-0.020634439
-0.02093627
-0.02115467
-0.021287184
-0.021332197
-0.021289003
-0.021157847
-0.020939938
-0.020637457
-0.020253521
-0.019792139
-0.019258136
-0.018657054
-0.017995044
-0.017278736
-0.016515095
-0.015711277
-0.014874484
-0.014011817
-0.013130143
-0.012235964
-0.011335301
-0.010433598
-0.0095356266
-0.0086454147
-0.0077661727
-0.0069002352
-0.0060489817
-0.0052128266
-0.0043908746
-0.0035819741
-0.0027796606
-0.0019933522
-0.0011602854
-0.00053504979
-0.0063686402
-0.0071844386
-0.0080307083
-0.0089196732
-0.0098035326
-0.010663367
-0.011501591
-0.012319017
-0.013110604
-0.013869946
-0.014591595
-0.015270645
-0.015902107
-0.016480912
-0.01700215
-0.017461221
-0.01785391
-0.01817645
-0.018425613
-0.018598797
-0.018694103
-0.018710392
-0.018647336
-0.018505437
-0.018286048
-0.017991351
-0.017624329
-0.017188713
-0.016688903
-0.016129887
-0.015517129
-0.01485645
-0.014153908
-0.013415665
-0.012647861
-0.011856489
-0.011047271
-0.010225545
-0.0093961646
-0.0085633999
-0.0077308463
-0.0069013429
-0.0060768751
-0.0052585411
-0.0044462137
-0.0036395032
-0.0028329854
-0.0020363635
-0.001189968
-0.00054352882
-0.0037453671
-0.0045079655
-0.00529724
-0.0061223452
-0.006947237
-0.0077574282
-0.0085544238
-0.0093385057
-0.01010549
-0.01085007
-0.01156757
-0.012253634
-0.012903754
-0.01351327
-0.014077545
-0.01459209
-0.015052621
-0.015455124
-0.01579593
-0.016071803
-0.016280015
-0.016418414
-0.016485486
-0.0164804
-0.016403046
-0.016254051
-0.016034781
-0.015747321
-0.015394444
-0.01497955
-0.014506608
-0.01398006
-0.013404725
-0.012785697
-0.012128232
-0.011437629
-0.010719113
-0.0099777246
-0.0092182014
-0.0084448721
-0.0076615501
-0.0068714323
-0.0060769861
-0.005279895
-0.0044807225
-0.0036798069
-0.0028727042
-0.002069592
-0.0012134596
-0.00055060984
-0.0015041201
-0.0022193212
-0.0029575531
-0.003725345
-0.0044964161
-0.0052599927
-0.0060168411
-0.0067668114
-0.007506457
-0.0082314387
-0.0089377911
-0.009621704
-0.010279175
-0.010906006
-0.011497932
-0.012050708
-0.012560164
-0.013022251
-0.013433112
-0.013789157
-0.014087132
-0.014324192
-0.01449796
-0.014606596
-0.014648835
-0.014624038
-0.014532209
-0.014374014
-0.014150771
-0.013864432
-0.013517548
-0.013113216
-0.012655012
-0.01214691
-0.011593192
-0.01099835
-0.010366975
-0.0097036521
-0.0090128457
-0.0082987832
-0.0075653411
-0.0068159319
-0.0060533769
-0.0052798364
-0.004496473
-0.0037042938
-0.0028997701
-0.0020936163
-0.001231267
-0.00055592015
0.0003792073
-0.00029441743
-0.00098781607
-0.0017051413
-0.0024281663
-0.0031492254
-0.0038684838
-0.0045854255
-0.0052972161
-0.0060003366
-0.006691448
-0.0073672404
-0.0080241934
-0.0086585697
-0.0092665041
-0.0098440662
-0.010387298
-0.010892256
-0.011355067
-0.011771988
-0.012139473
-0.012454236
-0.012713315
-0.012914138
-0.013054574
-0.013132994
-0.013148309
-0.013100003
-0.012988159
-0.012813459
-0.012577185
-0.012281193
-0.011927874
-0.0115201
-0.011061165
-0.010554698
-0.01000458
-0.0094148376
-0.0087895434
-0.0081326966
-0.0074481064
-0.0067392714
-0.0060092443
-0.0052605498
-0.004494849
-0.0037137369
-0.0029145187
-0.0021084273
-0.0012432063
-0.00055896339
0.0019017988
0.0012619526
0.00060536896
-7.0354326e-05
-0.00075340808
-0.0014385709
-0.0021255119
-0.0028134182
-0.0034999454
-0.004182239
-0.0048574778
-0.0055227787
-0.006175043
-0.0068109505
-0.0074270155
-0.0080196282
-0.0085850831
-0.0091196106
-0.0096194214
-0.010080756
-0.01049994
-0.010873441
-0.011197927
-0.011470333
-0.011687915
-0.011848315
-0.011949611
-0.011990366
-0.011969667
-0.011887155
-0.011743038
-0.011538097
-0.011273675
-0.010951652
-0.010574401
-0.010144727
-0.0096658007
-0.0091410709
-0.008574167
-0.0079687913
-0.0073286014
-0.0066570876
-0.0059574335
-0.0052324248
-0.0044841185
-0.0037146005
-0.0029219055
-0.002117713
-0.001251882
-0.00056105431
0.0031044163
0.0024923468
0.001865896
0.0012242881
0.00057430794
-8.0781274e-05
-0.00074026367
-0.0014030758
-0.0020672443
-0.0027304325
-0.0033902294
-0.0040440958
-0.0046892789
-0.0053228082
-0.0059415265
-0.006542115
-0.0071211137
-0.0076749457
-0.0081999513
-0.0086924274
-0.0091486734
-0.0095650404