/*--------------------------------*- C++ -*----------------------------------*\
  =========                 |
  \\      /  F ield         | OpenFOAM: The Open Source CFD Toolbox
   \\    /   O peration     | Website:  https://openfoam.org
    \\  /    A nd           | Version:  6
     \\/     M anipulation  |
\*---------------------------------------------------------------------------*/
FoamFile
{
    version     2.0;
    format      ascii;
    class       surfaceScalarField;
    location    "57";
    object      phi;
}
// * * * * * * * * * * * * * * * * * * * * * * * * * * * * * * * * * * * * * //

dimensions      [0 3 -1 0 0 0 0];

internalField   nonuniform List<scalar> 
18180
(
0.00031943353
-0.00016455662
-0.00015487662
0.0013120314
-0.0013726355
0.00038003785
0.0030393194
-0.0033452078
0.00161792
0.0055613976
-0.0059948911
0.0034728131
0.008936666
-0.0092667865
0.0058915183
0.01321982
-0.013117388
0.0088342343
0.018459174
-0.017509154
0.0122698
0.024693671
-0.022407764
0.016173266
0.031949721
-0.027778985
0.020522936
0.040238104
-0.033586047
0.025297663
0.049551284
-0.039787885
0.030474705
0.059861476
-0.046338225
0.036028033
0.071119891
-0.053185495
0.041927081
0.083257606
-0.060273599
0.048135884
0.09618868
-0.06754364
0.054612566
0.10981602
-0.074936704
0.061309362
0.12403945
-0.08239755
0.068174119
0.13877096
-0.089878921
0.075147413
0.15400841
-0.097363477
0.082126029
-0.10484879
0.088907632
0.16994957
0.00039829908
-0.00056285549
0.0016127673
-0.0025871034
0.0036964755
-0.0054289158
0.0067002363
-0.0089986517
0.010670734
-0.013237284
0.015646846
-0.018093499
0.021655607
-0.023517915
0.028708237
-0.029460394
0.03679649
-0.035867238
0.045889758
-0.042679314
0.055933333
-0.049831461
0.066848222
-0.057253114
0.078532718
-0.06486999
0.090865845
-0.072606726
0.10371245
-0.080390248
0.11692936
-0.088153605
0.13037155
-0.095839746
0.14389905
-0.10340642
0.15737578
-0.11084022
-0.11807185
0.17059884
0.0004815185
-0.0010443737
0.0019221826
-0.0040277672
0.0043602364
-0.0078669694
0.0078302441
-0.012468659
0.012358831
-0.017765871
0.017959256
-0.023693924
0.024626313
-0.030184972
0.032332052
-0.037166132
0.041022742
-0.044557929
0.050617591
-0.052274163
0.061009573
-0.060223443
0.072068545
-0.068312086
0.083646523
-0.076447968
0.0955847
-0.084544904
0.10772147
-0.092527017
0.11990037
-0.1003325
0.13197678
-0.10791616
0.14382137
-0.115251
0.15531246
-0.12233131
-0.12910736
0.16634796
0.00056714693
-0.0016115204
0.0022316759
-0.0056922959
0.0050087944
-0.010644088
0.0089082128
-0.016368077
0.01392685
-0.022784508
0.020041939
-0.029809013
0.027205682
-0.037348716
0.035341912
-0.045302362
0.044345223
-0.053561239
0.054082938
-0.062011877
0.064399952
-0.070540457
0.075126114
-0.079038248
0.086085447
-0.087407301
0.097106208
-0.095565665
0.10803065
-0.10345146
0.11872335
-0.1110252
0.12907718
-0.11826999
0.13901596
-0.12518978
0.14849119
-0.13180654
-0.13811994
0.15750378
0.00065192656
-0.0022634467
0.0025282345
-0.0075686035
0.0056120149
-0.013727868
0.0098787385
-0.020634801
0.015285864
-0.028191634
0.021765305
-0.036288454
0.029219157
-0.044802567
0.037518885
-0.05360209
0.046508203
-0.062550557
0.056009516
-0.071513191
0.065833304
-0.080364245
0.075789372
-0.088994315
0.085698602
-0.097316531
0.095403783
-0.10527085
0.10477821
-0.11282588
0.1137312
-0.11997819
0.1222102
-0.126749
0.13019953
-0.13317911
0.1377159
-0.13932292
-0.14522451
0.14482047
0.00073171235
-0.0029951587
0.0027960244
-0.0096329152
0.0061348803
-0.017066724
0.010680551
-0.025180471
0.016342749
-0.033853832
0.0230018
-0.042947504
0.030507034
-0.052307801
0.038680008
-0.061775063
0.04732215
-0.071192699
0.056225876
-0.080416916
0.065187662
-0.089326031
0.074021267
-0.09782792
0.082569305
-0.10586457
0.090711725
-0.11341327
0.098370268
-0.12048443
0.10550872
-0.12711665
0.11212952
-0.13336979
0.11826757
-0.13931716
0.12398276
-0.1450381
-0.15060399
0.12936223
0.00080181111
-0.0037969696
0.0030177689
-0.011848873
0.0065408307
-0.020589785
0.011252934
-0.029892574
0.017010853
-0.039611751
0.023641698
-0.049578349
0.030945459
-0.059611562
0.038703147
-0.069532751
0.04668918
-0.079178732
0.054686026
-0.088413762
0.06249879
-0.097138795
0.069967509
-0.10529664
0.076975476
-0.11287254
0.083452662
-0.11989045
0.089374246
-0.12640601
0.094754998
-0.1324974
0.099640919
-0.13825571
0.10409975
-0.143776
0.10821194
-0.14915029
-0.15445987
0.11206782
0.00085710518
-0.0046540744
0.00317569
-0.014167457
0.006794497
-0.024208592
0.011541237
-0.034639314
0.017218953
-0.045289467
0.023605445
-0.055964841
0.030460844
-0.066466961
0.037540566
-0.076612473
0.044611154
-0.08624932
0.051466172
-0.09526878
0.057939355
-0.10361198
0.063913019
-0.1112703
0.069320726
-0.11828024
0.074144356
-0.12471408
0.078406665
-0.13066832
0.082161037
-0.13625177
0.085480326
-0.141575
0.088446527
-0.1467422
0.091142565
-0.15184633
-0.15696567
0.093648373
0.0008912351
-0.005545309
0.0032515512
-0.016527773
0.006863955
-0.027820995
0.011502033
-0.039277391
0.016919158
-0.050706591
0.022852964
-0.061898646
0.029037888
-0.072651884
0.035221685
-0.08279627
0.041182478
-0.092210113
0.046742992
-0.10082929
0.051779439
-0.10864843
0.05622386
-0.11571472
0.060060147
-0.12211653
0.063315102
-0.12796904
0.066046557
-0.13339978
0.068330792
-0.13853601
0.070251118
-0.14349532
0.07188902
-0.1483801
0.073318413
-0.15327572
-0.15825007
0.07460281
0.00090068059
-0.0064459893
0.0032361708
-0.018863262
0.0067343415
-0.031319166
0.011118575
-0.043661623
0.016101325
-0.055689342
0.021393595
-0.067190915
0.026721287
-0.077979577
0.031843047
-0.087918029
0.03656564
-0.096932707
0.040753728
-0.10501738
0.044332425
-0.11222712
0.047282771
-0.11866507
0.049631659
-0.12446542
0.051438594
-0.12977597
0.052781773
-0.13474296
0.053745627
-0.13949986
0.054411223
-0.14416092
0.054850168
-0.14881904
0.0551218
-0.15354735
0.055272115
-0.15840039
-0.00020280233
0.0002028023
4.1502733e-11
-0.00067910348
0.00047630112
5.2748845e-11
-0.0013450165
0.00066591303
5.8551226e-11
-0.0021362666
0.00079125005
6.2991442e-11
-0.0030011533
0.00086488667
6.2406926e-11
-0.0038974527
0.00089629943
5.4706261e-11
-0.0047901764
0.0008927237
4.421206e-11
-0.0056496962
0.00085951982
2.650565e-11
-0.0064502691
0.00080057289
8.0926006e-12
-0.0071688823
0.00071861327
-1.8330604e-11
-0.007784332
0.0006154498
-4.4322019e-11
-0.0082764851
0.0004921532
-7.9112252e-11
-0.0086256969
0.00034921198
-1.1276141e-10
-0.0088123756
0.00018667892
-1.5536441e-10
-0.0088167248
4.3493788e-06
-1.9700833e-10
-0.0086187662
-0.00019795836
-2.4701736e-10
-0.0081986037
-0.00042016214
-2.9558652e-10
-0.0075360168
-0.00066258659
-3.5076717e-10
-0.0066100509
-0.00092596547
-4.0434067e-10
-0.0011966665
-0.0054133839
-4.5664437e-10
-0.00018834751
0.00039114983
-0.00062618539
0.00091413903
-0.0012309687
0.0012706964
-0.0019385262
0.0014988075
-0.0026965399
0.0016229004
-0.0034615972
0.0016613568
-0.004197037
0.0016281635
-0.0048711347
0.0015336175
-0.0054556597
0.001385098
-0.0059247369
0.0011876905
-0.0062539279
0.00094464077
-0.006419486
0.00065771138
-0.0063977495
0.00032747548
-0.0061646592
-4.6411334e-05
-0.0056954316
-0.00046487824
-0.0049644765
-0.00092891335
-0.0039456126
-0.0014390261
-0.0026119878
-0.0019962114
-0.00093592746
-0.0026020258
-0.0032266015
0.0010940076
-0.00015920358
0.00055035344
-0.00051972868
0.0012746642
-0.0010022694
0.0017532371
-0.0015433701
0.0020399084
-0.0020898882
0.0021694186
-0.002596395
0.0021678636
-0.0030232256
0.0020549942
-0.0033348066
0.0018451985
-0.003498306
0.0015485975
-0.0034825541
0.0011719387
-0.0032571566
0.00071924323
-0.0027917715
0.00019232633
-0.0020554738
-0.00040882217
-0.0010162396
-0.0010856455
0.00035948539
-0.0018406032
0.0021070654
-0.0026764933
0.0042636376
-0.0035955983
0.0068678035
-0.0046003773
0.0099595571
-0.0056937795
-0.0068255151
0.013558471
-0.00011771322
0.0006680667
-0.00036737802
0.001524329
-0.00067404749
0.0020599067
-0.00097528607
0.002341147
-0.0012168724
0.002411005
-0.001350664
0.0023016553
-0.0013329354
0.0020372655
-0.0011229189
0.001635182
-0.00068160565
0.0011072843
2.9209756e-05
0.00046112334
0.0010477157
-0.0002992627
0.0024127318
-0.0011726897
0.0041642544
-0.0021603448
0.0063439394
-0.0032653305
0.0089956089
-0.0044922726
0.012165809
-0.0058466936
0.015904188
-0.0073339767
0.020263192
-0.008959382
0.025297859
-0.010728446
-0.012566559
0.031038902
-6.690919e-05
0.00073497595
-0.00017902688
0.0016364468
-0.0002659638
0.0021468436
-0.00026625594
0.0023414392
-0.00012431032
0.0022690594
0.00021123442
0.0019661106
0.00078883907
0.0014596609
0.0016552356
0.00076878558
0.0028563992
-9.3879245e-05
0.0044383347
-0.0011208122
0.0064476409
-0.0023085688
0.0089319252
-0.0036569739
0.011940129
-0.0051685485
0.015522854
-0.0068480556
0.019732733
-0.0087021516
0.024625046
-0.010739006
0.030258596
-0.012967527
0.036696222
-0.015397008
0.044005569
-0.018037793
-0.020790261
0.052229271
-9.8415838e-06
0.00074481762
3.5203696e-05
0.0015914016
0.0002015976
0.0019804498
0.00055016743
0.0019928694
0.0011381509
0.001681076
0.0020203567
0.0010839048
0.0032501294
0.00022988833
0.0048802326
-0.00086131761
0.006963506
-0.0021771526
0.0095532378
-0.0037105438
0.012703371
-0.0054587021
0.016468606
-0.0074222083
0.020904318
-0.0096042608
0.026066394
-0.012010131
0.03201112
-0.014646878
0.038795473
-0.017523359
0.046478291
-0.020650345
0.055122337
-0.024041054
0.064798133
-0.027713589
-0.031549308
0.07555718
5.1028392e-05
0.00069378934
0.00026682854
0.0013756016
0.00071105435
0.0015362241
0.0014443333
0.0012595905
0.0025256526
0.00059975678
0.0040131191
-0.00040356155
0.0059645534
-0.0017215459
0.0084378756
-0.0033346397
0.011491232
-0.0052305087
0.015182959
-0.0074022714
0.019571312
-0.0098470552
0.024713927
-0.012564822
0.030667074
-0.015557408
0.037484754
-0.018827811
0.045217743
-0.022379867
0.053913036
-0.026218652
0.063614636
-0.030351945
0.074366933
-0.034793351
0.086223647
-0.039570304
-0.044565955
0.099240294
0.00011419259
0.00057959688
0.00051013102
0.00097966325
0.0012497873
0.00079656787
0.0023938383
0.00011553964
0.0040027828
-0.0010091876
0.0061372815
-0.0025380602
0.008858132
-0.0044423964
0.012226086
-0.006702594
0.016301438
-0.0093058607
0.021143269
-0.012244102
0.026808397
-0.015512184
0.033350044
-0.019106469
0.040816228
-0.023023592
0.049247949
-0.027259531
0.058677272
-0.03180919
0.069125694
-0.036667073
0.080603938
-0.041830189
0.093115053
-0.047304466
0.10666589
-0.053121141
-0.059200134
0.12130007
0.00017899705
0.00040059999
0.00076206629
0.00039659417
0.0018100482
-0.00025141386
0.0033833556
-0.0014577677
0.005542962
-0.003168794
0.008350137
-0.0053452352
0.011865813
-0.0079580724
0.016149652
-0.010986433
0.021258751
-0.01441496
0.02724601
-0.018231361
0.034158187
-0.02242436
0.042033682
-0.026981964
0.050900098
-0.031890009
0.060771594
-0.037131027
0.071646026
-0.042683622
0.083501938
-0.048522985
0.09629636
-0.05462461
0.10996614
-0.060974249
0.12444141
-0.067596405
-0.074496178
0.13973745
0.00024572345
0.0010223556
0.0023888618
0.0044039073
0.0071266316
0.010615631
0.014927359
0.020114193
0.026222169
0.033288471
0.041338816
0.050384886
0.060421958
0.071426815
0.083355759
0.096142136
0.10969164
0.12386481
0.13839443
0.15280589
-0.0034601813
-0.001953202
-6.8104801e-10
-0.0012239994
-0.0022361811
-7.5854193e-10
0.0012729486
-0.0024969471
-8.3146252e-10
0.0039736753
-0.0027007258
-8.8573095e-10
0.0068514141
-0.0028777379
-9.2826698e-10
0.0098889489
-0.0030375339
-9.3501547e-10
0.013067419
-0.0031784687
-9.2012561e-10
0.016368865
-0.0033014459
-8.7478784e-10
0.019777659
-0.0034087934
-7.9904345e-10
0.02327966
-0.003502
-6.9346805e-10
0.026861662
-0.0035820016
-5.4967998e-10
0.030511328
-0.0036496655
-3.6899035e-10
0.034217109
-0.0037057807
-1.4662739e-10
0.037968112
-0.0037510033
1.101881e-10
0.041754001
-0.003785889
3.9723418e-10
0.04556493
-0.0038109303
6.9772197e-10
0.049391503
-0.0038265736
9.9531362e-10
0.053224735
-0.0038332333
1.2623367e-09
0.05705604
-0.0038313063
1.4705463e-09
0.060877222
-0.0038211842
1.5836324e-09
0.064680482
-0.0038032619
1.5654785e-09
0.068458426
-0.0037779447
1.3786846e-09
0.072204077
-0.0037456528
9.9055438e-10
0.0759109
-0.0037068235
3.7938834e-10
0.079572813
-0.0036619123
-4.6361314e-10
0.083184207
-0.0036113924
-1.5186741e-09
0.086739963
-0.0035557533
-2.7439943e-09
0.090235466
-0.0034954991
-4.0487273e-09
0.093666616
-0.0034311453
-5.3169164e-09
0.09702984
-0.0033632173
-6.367742e-09
0.10032209
-0.003292248
-7.0103364e-09
0.10354088
-0.0032187762
-6.989607e-09
0.10668423
-0.0031433461
-6.0903406e-09
0.10975074
-0.0030665077
-4.0619127e-09
0.11273956
-0.0029888185
-7.9021531e-10
0.1156504
-0.002910847
3.820529e-09
0.11848357
-0.0028331784
9.5879301e-09
0.12123998
-0.0027564223
1.626872e-08
0.12392119
-0.0026812302
2.3196199e-08
0.12652945
-0.0026082986
2.9675289e-08
0.12906787
-0.0025384494
3.4553323e-08
0.13154033
-0.0024725019
3.6771775e-08
0.13395221
-0.0024119084
3.5216959e-08
0.13630923
-0.0023570541
2.9128235e-08
0.13862251
-0.0023133002
1.8225294e-08
0.14089557
-0.0022730602
3.0742021e-09
0.14316959
-0.0022740015
-1.5062008e-08
0.14539533
-0.0022257107
-3.2773021e-08
0.14783183
-0.0024364485
-5.1089882e-08
-0.0021994616
-4.9830307e-08
0.0029277222
-0.0037869166
0.0050396567
-0.0043481157
0.00739915
-0.0048564404
0.0099436651
-0.0052452408
0.012652177
-0.0055862495
0.015512462
-0.0058978187
0.018507858
-0.006173865
0.021622027
-0.0064156146
0.024841024
-0.0066277909
0.02815217
-0.0068131461
0.031543419
-0.0069732503
0.03500338
-0.0071096263
0.038521294
-0.0072236952
0.042086923
-0.0073166327
0.045690468
-0.0073894337
0.049322526
-0.0074429881
0.052974064
-0.0074781115
0.0566364
-0.0074955701
0.060301201
-0.0074961065
0.063960478
-0.007480462
0.067606609
-0.0074493922
0.071232343
-0.0074036791
0.074830829
-0.0073441387
0.07839563
-0.0072716248
0.081920748
-0.0071870303
0.085400641
-0.0070912853
0.088830242
-0.006985354
0.092204973
-0.0068702306
0.095520762
-0.0067469342
0.098774048
-0.0066165035
0.10196179
-0.0064799939
0.10508149
-0.0063384731
0.10813117
-0.0061930205
0.11110939
-0.0060447281
0.11401527
-0.0058947039
0.1168485
-0.0057440788
0.11960934
-0.005594019
0.12229866
-0.0054457403
0.12491797
-0.0053005434
0.1274695
-0.0051598199
0.12995626
-0.0050252146
0.13238212
-0.0048983656
0.13475239
-0.0047821786
0.13707276
-0.0046774243
0.13935427
-0.0045948028
0.14160041
-0.0045192058
0.14385197
-0.004525561
0.14606054
-0.0044342744
0.14848038
-0.0048562921
-0.0043942395
0.015143736
-0.0053721819
0.0169902
-0.0061945799
0.01906074
-0.0069269806
0.021285357
-0.0074698571
0.023652465
-0.007953358
0.026158528
-0.0084038816
0.028791015
-0.0088063524
0.03153652
-0.0091611195
0.034384023
-0.0094752942
0.037323384
-0.0097525069
0.040344575
-0.0099944407
0.043437832
-0.010202883
0.046593736
-0.010379599
0.049803146
-0.010526042
0.053057156
-0.010643444
0.056347092
-0.010732924
0.059664516
-0.010795536
0.063001235
-0.010832289
0.066349314
-0.010844186
0.069701102
-0.01083225
0.07304925
-0.01079754
0.07638674
-0.01074117
0.079706913
-0.010664312
0.083003494
-0.010568205
0.086270615
-0.010454151
0.089502842
-0.010323513
0.092695194
-0.010177706
0.095843158
-0.010018195
0.098942707
-0.0098464829
0.10199031
-0.0096641064
0.10498294
-0.0094726257
0.10791809
-0.0092736233
0.11079377
-0.0090687012
0.11360853
-0.0088594813
0.11636143
-0.0086476122
0.11905213
-0.0084347788
0.12168084
-0.0082227215
0.12424835
-0.0080132574
0.12675614
-0.0078083335
0.12920636
-0.0076100352
0.13160197
-0.0074208298
0.13394679
-0.0072431766
0.13624604
-0.0070814302
0.13850538
-0.0069367654
0.14073571
-0.0068251317
0.14294066
-0.0067241543
0.14516
-0.0067449011
0.14734766
-0.0066219378
0.14974712
-0.0072557504
-0.0065939599
0.032236908
-0.0065701871
0.033667931
-0.0076256032
0.035290601
-0.0085496504
0.037031957
-0.0092112133
0.038892761
-0.0098141626
0.040879428
-0.010390549
0.042984883
-0.010911807
0.045199687
-0.011375923
0.047516351
-0.011791958
0.049927744
-0.0121639
0.052426258
-0.012492955
0.055004043
-0.012780668
0.057653198
-0.013028755
0.060365803
-0.013238647
0.063133926
-0.013411567
0.065949665
-0.013548663
0.068805197
-0.013651067
0.071692818
-0.01371991
0.07460499
-0.013756358
0.077534379
-0.013761639
0.080473896
-0.013737057
0.083416735
-0.013684009
0.086356413
-0.013603989
0.089286796
-0.013498588
0.092202136
-0.013369492
0.095097093
-0.01321847
0.097966762
-0.013047374
0.10080668
-0.012858118
0.10361288
-0.012652674
0.10638183
-0.01243306
0.10911053
-0.012201326
0.11179647
-0.011959559
0.11443763
-0.011709869
0.11703255
-0.011454398
0.11958027
-0.011195328
0.12208038
-0.010934889
0.12453305
-0.010675392
0.12693904
-0.010419251
0.12929977
-0.010169059
0.13161733
-0.0099275965
0.13389465
-0.0096981546
0.13613549
-0.00948402
0.13834505
-0.00929099
0.14052897
-0.0091206759
0.14269797
-0.0089941358
0.14485595
-0.0088821366
0.14704121
-0.0089301552
0.14921133
-0.0087920588
0.15159381
-0.0096382321
-0.008813623
0.052884549
-0.0072254654
0.053740974
-0.0084820277
0.054751939
-0.0095606152
0.055851901
-0.010311176
0.0570558
-0.011018061
0.058378032
-0.011712781
0.059817208
-0.012350983
0.061368556
-0.012927271
0.063027963
-0.013451365
0.064790931
-0.013926868
0.066652046
-0.01435407
0.06860515
-0.014733771
0.070643594
-0.015067199
0.072760402
-0.015355456
0.074948363
-0.015599527
0.07720011
-0.015800411
0.079508213
-0.01595917
0.081865256
-0.016076953
0.084263907
-0.01615501
0.086696985
-0.016194717
0.089157511
-0.016197582
0.091638759
-0.016165258
0.094134304
-0.016099534
0.096638057
-0.016002341
0.099144302
-0.015875737
0.10164772
-0.015721891
0.10414343
-0.015543081
0.10662698
-0.015341666
0.10909438
-0.015120082
0.11154214
-0.01488082
0.11396724
-0.014626421
0.11636715
-0.014359465
0.11873985
-0.014082573
0.12108385
-0.0137984
0.12339818
-0.013509659
0.12568242
-0.013219127
0.12793671
-0.012929682
0.1301618
-0.012644341
0.13235909
-0.012366344
0.13453066
-0.012099173
0.13667946
-0.01184695
0.13880924
-0.0116138
0.1409252
-0.011406956
0.14303304
-0.011228509
0.14514335
-0.011104446
0.14726041
-0.010999199
0.14942069
-0.011090434
0.15158652
-0.010957894
0.1539654
-0.012017107
-0.011075667
0.075500497
-0.0071687827
0.075620564
-0.0086020949
0.075860815
-0.0098008661
0.076178004
-0.010628365
0.076600332
-0.011440389
0.077144735
-0.012257183
0.077814339
-0.013020587
0.078609183
-0.013722115
0.07952768
-0.014369862
0.080566783
-0.014965971
0.081722357
-0.015509644
0.082989219
-0.016000634
0.084361306
-0.016439285
0.085831964
-0.016826113
0.087394153
-0.017161716
0.089040568
-0.017446827
0.090763755
-0.017682357
0.092556213
-0.01786941
0.094410497
-0.018009294
0.09631929
-0.01810351
0.098275475
-0.018153766
0.10027219
-0.018161969
0.10230287
-0.018130218
0.10436132
-0.018060788
0.1064417
-0.017956124
0.10853862
-0.01781881
0.1106471
-0.017651563
0.11276264
-0.017457202
0.1148812
-0.017238637
0.11699922
-0.016998849
0.11911368
-0.016740874
0.12122202
-0.016467803
0.12332221
-0.016182769
0.12541277
-0.015888956
0.12749272
-0.015589614
0.12956167
-0.015288075
0.13161979
-0.014987797
0.13366785
-0.014692407
0.13570731
-0.014405806
0.13774033
-0.01413219
0.1397699
-0.013876524
0.14179989
-0.013643785
0.14383558
-0.013442642
0.14588278
-0.013275716
0.14795205
-0.013173714
0.15004818
-0.013095332
0.1522056
-0.013247855
0.1543922
-0.013144492
0.15679272
-0.014417622
-0.013411387
0.098325999
-0.0062544878
0.097572301
-0.0078483968
0.09691031
-0.0091388748
0.096341135
-0.010059191
0.095901068
-0.011000322
0.095601412
-0.011957527
0.095447615
-0.012866791
0.095443789
-0.013718289
0.095589577
-0.014515649
0.095881815
-0.01525821
0.096316251
-0.01594408
0.096887588
-0.01657197
0.097589459
-0.017141156
0.098414757
-0.017651412
0.099355936
-0.018102894
0.10040517
-0.018496059
0.10155448
-0.018831669
0.10279587
-0.019110796
0.10412139
-0.01933482
0.10552329
-0.019505407
0.10699402
-0.019624496
0.10852634
-0.019694288
0.11011335
-0.019717228
0.11174854
-0.019695982
0.11342583
-0.019633415
0.1151396
-0.019532572
0.11688467
-0.019396639
0.11865641
-0.019228935
0.12045064
-0.019032877
0.12226376
-0.018811962
0.12409264
-0.01856976
0.12593473
-0.01830989
0.12778799
-0.018036029
0.12965095
-0.017751912
0.13152268
-0.017461348
0.13340285
-0.017168247
0.13529172
-0.016876667
0.13719018
-0.016590867
0.13909981
-0.01631543
0.1410229
-0.016055285
0.14296264
-0.015816262
0.14492307
-0.015604215
0.14690968
-0.015429246
0.14892852
-0.015294555
0.15099017
-0.015235371
0.15310009
-0.015205253
0.1552906
-0.015438361
0.15753561
-0.015389503
0.15999573
-0.016877739
-0.015861514
0.11948684
-0.0044412547
0.11780568
-0.0061672428
0.1161785
-0.0075116932
0.11468931
-0.0085699993
0.11337443
-0.0096854418
0.11223144
-0.010814537
0.11126588
-0.011901238
0.11048415
-0.012936551
0.10988574
-0.013917241
0.10946617
-0.014838643
0.10921974
-0.01569765
0.10913989
-0.016492123
0.10921915
-0.017220414
0.10944933
-0.017881588
0.10982183
-0.018475395
0.11032786
-0.019002089
0.11095854
-0.019462356
0.11170506
-0.019857309
0.11255871
-0.020188469
0.11351103
-0.020457728
0.11455386
-0.020667324
0.11567938
-0.020819815
0.11688021
-0.020918055
0.11814939
-0.02096516
0.11948045
-0.020964481
0.12086745
-0.020919567
0.12230495
-0.020834145
0.12378809
-0.020712075
0.12531255
-0.020557334
0.12687458
-0.02037399
0.128471
-0.020166181
0.13009922
-0.019938106
0.13175721
-0.019694024
0.13344356
-0.019438256
0.13515742
-0.019175209
0.13689857
-0.018909404
0.13866744
-0.018645531
0.14046509
-0.018388516
0.14229331
-0.018143649
0.14415465
-0.01791663
0.14605256
-0.017714175
0.14799139
-0.017543043
0.14997693
-0.017414784
0.1520156
-0.017333223
0.15411814
-0.017337911
0.15629073
-0.017377846
0.15856365
-0.017711282
0.16091705
-0.017742906
0.16348711
-0.019447793
-0.018475911
0.1371664
-0.0018701998
0.13465746
-0.0036583085
0.13210922
-0.0049634563
0.12976357
-0.0062243423
0.12764764
-0.0075695187
0.12574291
-0.0089098031
0.12405228
-0.010210608
0.12258092
-0.01146519
0.12132737
-0.012663691
0.12028596
-0.013797235
0.1194493
-0.014860985
0.11880914
-0.015851965
0.11835661
-0.016767882
0.1180823
-0.017607276
0.11797647
-0.018369569
0.11802926
-0.019054878
0.1182308
-0.019663897
0.11857135
-0.020197855
0.11904136
-0.020658478
0.11963158
-0.021047955
0.12033315
-0.021368887
0.12113759
-0.021624257
0.12203693
-0.021817396
0.1230237
-0.021951934
0.124091
-0.022031772
0.12523247
-0.022061041
0.12644238
-0.022044059
0.12771561
-0.0219853
0.12904764
-0.021889362
0.13043459
-0.021760939
0.1318732
-0.0216048
0.13336087
-0.021425776
0.13489561
-0.021228761
0.13647607
-0.021018712
0.13810154
-0.020800682
0.13977199
-0.020579847
0.14148803
-0.020361577
0.14325101
-0.020151495
0.14506301
-0.01995565
0.14692692
-0.019780541
0.14884656
-0.019633812
0.15082667
-0.019523155
0.15287348
-0.019461593
0.15499386
-0.019453603
0.15719884
-0.019542894
0.15949542
-0.019674419
0.16191191
-0.020127771
0.16443478
-0.020265781
0.16717587
-0.022188884
-0.021312435
0.15027537
0.00066031522
0.1469938
-0.00037673373
0.14370519
-0.0016748494
0.14066708
-0.0031862353
0.13788277
-0.0047852008
0.13534607
-0.0063731069
0.13305894
-0.0079234779
0.13102154
-0.0094277909
0.12923151
-0.010873665
0.12768376
-0.012249478
0.12637055
-0.01354778
0.1252826
-0.014764018
0.12440985
-0.015895132
0.12374176
-0.016939187
0.12326748
-0.017895289
0.12297604
-0.018763436
0.12285652
-0.019544374
0.12289817
-0.020239504
0.12309051
-0.020850827
0.12342345
-0.021380889
0.12388729
-0.021832726
0.12447285
-0.022209821
0.1251715
-0.022516049
0.1259752
-0.022755636
0.12687654
-0.02293311
0.12786875
-0.023053251
0.12894575
-0.023121054
0.13010212
-0.023141677
0.13133318
-0.023120413
0.13263489
-0.023062654
0.13400396
-0.022973866
0.13543776
-0.022859579
0.13693438
-0.022725381
0.1384926
-0.02257693
0.14011189
-0.022419976
0.14179245
-0.022260406
0.14353519
-0.022104313
0.14534177
-0.021958075
0.14721465
-0.021828536
0.14915715
-0.021723037
0.15117353
-0.021650193
0.15326903
-0.021618654
0.15545039
-0.021642955
0.15772499
-0.021728204
0.16010435
-0.021922249
0.16259598
-0.022166048
0.16522729
-0.022759088
0.16798808
-0.023026563
0.17097435
-0.025175156
-0.024431308
0.18924442
0.0052481563
-0.19383226
0.18544817
0.0034195204
0.18207029
0.0017030328
0.17894
-5.5948049e-05
0.17601995
-0.0018651488
0.17328514
-0.0036383018
0.17071746
-0.005355793
0.16830799
-0.0070183195
0.16605293
-0.0086186069
0.16395022
-0.010146767
0.16199809
-0.011595654
0.16019455
-0.012960472
0.15853705
-0.014237637
0.15702244
-0.015424572
0.15564691
-0.016519764
0.15440615
-0.017522673
0.15329537
-0.018433599
0.15230946
-0.019253589
0.15144301
-0.019984377
0.15069045
-0.020628328
0.1500461
-0.021188377
0.14950425
-0.021667974
0.14905923
-0.022071032
0.14870547
-0.022401869
0.14843752
-0.022665158
0.14825014
-0.022865873
0.14813832
-0.023009236
0.14809732
-0.023100675
0.14812268
-0.023145777
0.14821028
-0.023150254
0.14835634
-0.023119921
0.14855743
-0.023060669
0.14881051
-0.022978469
0.14911296
-0.022879379
0.14946255
-0.022769566
0.1498575
-0.022655352
0.15029648
-0.02254329
0.15077864
-0.022440244
0.15130369
-0.022353582
0.15187186
-0.022291205
0.15248404
-0.022262378
0.15314178
-0.022276389
0.15384762
-0.022348796
0.1546045
-0.022485081
0.15541818
-0.022735933
0.15629121
-0.023039075
0.15724089
-0.023708773
0.15825092
-0.02403659
0.15940211
-0.026326341
-0.025615529
0.21718196
0.0086323854
-0.22056619
0.21372285
0.0068786329
0.21052499
0.0049008959
0.20743525
0.0030337914
0.20440487
0.0011652253
0.20146485
-0.00069828041
0.19863215
-0.0025230891
0.19591136
-0.0042975347
0.19330848
-0.0060157253
0.19083043
-0.0076687151
0.18848252
-0.009247739
0.18626825
-0.010746206
0.18418975
-0.012159134
0.18224784
-0.013482662
0.18044212
-0.014714052
0.17877114
-0.015851686
0.1772325
-0.016894957
0.17582306
-0.017844153
0.17453907
-0.018700392
0.1733763
-0.019465549
0.17233011
-0.020142192
0.17139565
-0.020733508
0.17056786
-0.021243245
0.16984163
-0.021675642
0.16921185
-0.022035372
0.16867345
-0.022327474
0.16822151
-0.022557302
0.1678513
-0.022730463
0.1675583
-0.022852774
0.16733826
-0.022930219
0.16718726
-0.022968913
0.16710167
-0.022975087
0.16707828
-0.022955075
0.16711422
-0.022915324
0.16720707
-0.022862415
0.16735483
-0.022803111
0.16755597
-0.022744428
0.16780945
-0.022693728
0.16811479
-0.022658914
0.16847205
-0.022648464
0.16888196
-0.02267229
0.16934595
-0.022740381
0.1698663
-0.022869151
0.17044614
-0.023064917
0.17109
-0.023379793
0.17180281
-0.023751887
0.17259353
-0.024499489
0.17346498
-0.024908038
0.17443984
-0.027301204
-0.026687858
0.24406883
0.011343048
-0.24677949
0.24123244
0.0097150196
0.23839358
0.0077397535
0.23556166
0.0058657106
0.23269974
0.0040271467
0.22982859
0.0021728663
0.22697945
0.00032605564
0.22417168
-0.0014897683
0.2214213
-0.0032653417
0.21874431
-0.0049917304
0.21615468
-0.0066581073
0.21366351
-0.0082550322
0.21127952
-0.0097751488
0.20900941
-0.011212554
0.20685796
-0.012562599
0.2048282
-0.013821927
0.20292166
-0.014988418
0.20113857
-0.016061062
0.19947805
-0.017039867
0.19793828
-0.017925781
0.1965167
-0.018720607
0.19521011
-0.019426924
0.19401487
-0.020048006
0.19292698
-0.020587745
0.19194218
-0.021050578
0.19105612
-0.021441411
0.19026437
-0.021765552
0.18956255
-0.022028646
0.1889464
-0.022236618
0.1884118
-0.022395619
0.18795488
-0.022511993
0.18757204
-0.022592244
0.18725998
-0.022643023
0.18701579
-0.022671132
0.18683692
-0.022683544
0.18672126
-0.022687446
0.18666714
-0.022690316
0.18667343
-0.022700011
0.18673948
-0.022724968
0.18686527
-0.022774258
0.1870514
-0.022858419
0.18729922
-0.022988202
0.18761076
-0.02318069
0.18798935
-0.023443507
0.18843821
-0.023828647
0.18896488
-0.024278554
0.18956879
-0.025103401
0.19027469
-0.025613936
0.19103625
-0.028062766
-0.027620919
0.26954691
0.013364609
-0.27156847
0.26739102
0.011870911
0.26506196
0.01006882
0.26263612
0.0082915491
0.26012165
0.0065416141
0.25752874
0.0047657724
0.25488354
0.0029712644
0.25221023
0.0011835335
0.24952889
-0.00058400025
0.24685942
-0.0023222605
0.24422119
-0.0040198764
0.24163142
-0.0056652638
0.23910496
-0.0072486815
0.2366544
-0.0087620033
0.2342902
-0.010198399
0.23202067
-0.011552395
0.22985216
-0.012819906
0.22778925
-0.013998153
0.22583495
-0.015085566
0.22399088
-0.016081707
0.22225745
-0.01698718
0.22063407
-0.017803548
0.2191193
-0.018533236
0.21771101
-0.019179448
0.2164065
-0.019746078
0.21520272
-0.020237623
0.21409627
-0.020659108
0.21308363
-0.021016001
0.21216117
-0.021314156
0.21132529
-0.021559741
0.21057249
-0.021759195
0.20989944
-0.021919191
0.20930302
-0.022046611
0.20878044
-0.022148547
0.20832921
-0.02223231
0.20794724
-0.022305476
0.20763287
-0.022375955
0.20738495
-0.022452082
0.20720279
-0.022542818
0.20708635
-0.022657818
0.20703616
-0.022808226
0.20705355
-0.023005587
0.20714034
-0.023267484
0.20730004
-0.023603207
0.2075347
-0.024063304
0.20785396
-0.024597813
0.20824876
-0.0254982
0.20876256
-0.026127744
0.20928559
-0.028585793
-0.028383677
0.29322596
0.014687073
-0.29454843
0.29175602
0.013340858
0.29004354
0.011781296
0.28815564
0.010179452
0.28612731
0.0085699401
0.28396945
0.0069236319
0.2817005
0.0052402104
0.27934379
0.0035402464
0.27692068
0.0018391138
0.27445132
0.00014709713
0.27195601
-0.0015245684
0.26945463
-0.0031638798
0.2669656
-0.0047596524
0.26450563
-0.006302035
0.26208959
-0.0077823617
0.2597304
-0.0091931999
0.25743897
-0.010528476
0.2552243
-0.011783485
0.25309357
-0.012954841
0.25105229
-0.014040419
0.2491044
-0.015039294
0.24725251
-0.01595166
0.24549802
-0.016778744
0.24384129
-0.01752272
0.24228183
-0.018186611
0.24081841
-0.018774203
0.23944925
-0.019289953
0.23817215
-0.019738902
0.2369846
-0.020126601
0.23588389
-0.020459036
0.23486726
-0.020742567
0.23393196
-0.020983887
0.23307533
-0.021189985
0.23229492
-0.021368135
0.23158852
-0.021525907
0.23095424
-0.021671195
0.23039057
-0.021812289
0.22989645
-0.021957966
0.22947131
-0.022117673
0.22911512
-0.022301632
0.22882845
-0.022521555
0.22861265
-0.022789782
0.22846942
-0.023124258
0.22840237
-0.023536151
0.2284126
-0.024073541
0.22851119
-0.024696397
0.22868208
-0.025669091
0.22898312
-0.026428783
0.22925079
-0.028853464