/*--------------------------------*- C++ -*----------------------------------*\
  =========                 |
  \\      /  F ield         | OpenFOAM: The Open Source CFD Toolbox
   \\    /   O peration     | Website:  https://openfoam.org
    \\  /    A nd           | Version:  6
     \\/     M anipulation  |
\*---------------------------------------------------------------------------*/
FoamFile
{
    version     2.0;
    format      ascii;
    class       surfaceScalarField;
    location    "166";
    object      phi_0;
}
// * * * * * * * * * * * * * * * * * * * * * * * * * * * * * * * * * * * * * //

dimensions      [0 3 -1 0 0 0 0];

internalField   nonuniform List<scalar> 
18180
(
0.00031872941
-0.00016316045
-0.00015556896
0.0013092116
-0.0013669176
0.00037643538
0.0030328889
-0.0033336233
0.001609946
0.0055497759
-0.0059759647
0.0034590777
0.0089182006
-0.0092390878
0.0058706631
0.013192818
-0.013079541
0.0088049238
0.018421948
-0.017459856
0.012230725
0.024644613
-0.022345818
0.016123153
0.031887381
-0.027703339
0.020460572
0.040161294
-0.033495834
0.025221921
0.049459183
-0.039682471
0.030384583
0.059753739
-0.046217246
0.03592269
0.070996752
-0.053048891
0.041805879
0.083119959
-0.060121631
0.047998424
0.096038135
-0.067376889
0.054458713
0.10965492
-0.074756054
0.061139265
0.12387086
-0.082204149
0.067988215
0.13859859
-0.089674137
0.074946408
0.15383668
-0.097148886
0.081910788
-0.10462602
0.088678947
0.16978376
0.00039749724
-0.00056065769
0.0016095953
-0.0025790157
0.0036893194
-0.0054133474
0.006687446
-0.0089740913
0.010650656
-0.013202298
0.015617875
-0.01804676
0.021616266
-0.023458246
0.028657266
-0.029386819
0.036732955
-0.035779028
0.045813157
-0.042576036
0.055843703
-0.049713018
0.066746221
-0.057119764
0.07841968
-0.06472235
0.090743797
-0.072445749
0.10358408
-0.080217175
0.11679793
-0.087969901
0.1302408
-0.095647018
0.143773
-0.10320634
0.1572586
-0.11063448
-0.11786195
0.17049452
0.00048062361
-0.0010412813
0.0019186989
-0.004017091
0.0043524803
-0.0078471287
0.0078165658
-0.012438177
0.012337668
-0.0177234
0.017929212
-0.023638304
0.024586256
-0.03011529
0.032281218
-0.037081781
0.04096085
-0.044458661
0.050544933
-0.052160119
0.060927081
-0.060095166
0.07197782
-0.068170503
0.083549813
-0.076294343
0.095484826
-0.084380762
0.1076217
-0.092354052
0.11980427
-0.10015247
0.13188802
-0.10773076
0.14374349
-0.11506181
0.15524872
-0.1221397
-0.12891434
0.1663011
0.00056616987
-0.0016074512
0.0022279431
-0.0056788642
0.0050006127
-0.010619798
0.0088940132
-0.016331577
0.013905261
-0.022734648
0.020011887
-0.029744929
0.027166494
-0.037269897
0.035293425
-0.045208712
0.044287867
-0.053453102
0.054017788
-0.06189004
0.064328732
-0.07040611
0.075051144
-0.078892915
0.086009537
-0.087252737
0.097032511
-0.095403736
0.10796248
-0.10328402
0.11866397
-0.11085396
0.12902966
-0.11809645
0.13898298
-0.12501513
0.14847492
-0.13163164
-0.13794524
0.15750582
0.00065088645
-0.0022583376
0.0025243424
-0.0075523202
0.0056036361
-0.013699092
0.0098644677
-0.020592409
0.015264615
-0.028134796
0.021736416
-0.036216729
0.029182489
-0.04471597
0.037474903
-0.053501126
0.046458012
-0.062436212
0.055954848
-0.071386876
0.065776443
-0.080227704
0.075733023
-0.088849495
0.085645728
-0.097165441
0.095357405
-0.10511541
0.10474122
-0.11266783
0.1137062
-0.11981894
0.12219937
-0.12658962
0.13020456
-0.13302033
0.137738
-0.13916508
-0.14506762
0.14486037
0.00073063605
-0.0029889737
0.0027920871
-0.0096137712
0.006126576
-0.017033581
0.010666715
-0.025132548
0.016322654
-0.033790735
0.022975249
-0.042869324
0.030474436
-0.052215157
0.038642406
-0.061669096
0.047281196
-0.071075002
0.056183741
-0.080289421
0.065146893
-0.089190857
0.073984605
-0.097687207
0.082539487
-0.10572032
0.090691303
-0.11326723
0.098361454
-0.12033798
0.1055133
-0.12697079
0.11214879
-0.13322511
0.11830239
-0.13917393
0.12403361
-0.14489629
-0.15046333
0.12942933
0.00080073142
-0.0037897051
0.0030139169
-0.011826957
0.0065328959
-0.02055256
0.011240054
-0.029839706
0.016992701
-0.039543382
0.023618549
-0.049495172
0.03091822
-0.059514828
0.038673323
-0.069424199
0.046658778
-0.079060456
0.054657402
-0.088288045
0.062474463
-0.097007917
0.069949958
-0.1051627
0.076966964
-0.11273733
0.083455099
-0.11975536
0.089389106
-0.12627199
0.094783308
-0.13236499
0.099683295
-0.1381251
0.10415648
-0.14364712
0.10828309
-0.1490229
-0.1543336
0.11215335
0.00085605893
-0.004645764
0.0031720614
-0.014142959
0.0067872272
-0.024167726
0.011529804
-0.034582283
0.017203437
-0.045217014
0.023586552
-0.055878287
0.030439879
-0.066368155
0.037519332
-0.076503653
0.044591802
-0.086132927
0.051451006
-0.095147249
0.057930634
-0.10348754
0.063912776
-0.11114484
0.069330642
-0.1181552
0.074165688
-0.12459041
0.078440247
-0.13054655
0.082207325
-0.13613207
0.085539487
-0.14145726
0.088518543
-0.14662618
0.091227337
-0.15173169
-0.15685208
0.093745818
0.00089026256
-0.0055360266
0.0032482839
-0.01650098
0.0068576233
-0.027777065
0.011492466
-0.039217126
0.016906812
-0.05063136
0.022838898
-0.061810373
0.029023672
-0.07255293
0.035209253
-0.082689233
0.04117393
-0.092097604
0.046740397
-0.10071372
0.051784655
-0.1085318
0.056238404
-0.11559859
0.060085133
-0.12200192
0.063351238
-0.12785651
0.066094202
-0.13328951
0.068390041
-0.13842791
0.070321905
-0.14338913
0.071971215
-0.14827549
0.073411901
-0.15317238
-0.15814773
0.07470755
0.00089981841
-0.006435845
0.003233381
-0.018834543
0.006729165
-0.031272849
0.011111178
-0.043599139
0.016092487
-0.055612668
0.021384624
-0.067102511
0.026713886
-0.077882191
0.031839117
-0.087814464
0.036567085
-0.096825572
0.040762269
-0.1049089
0.04434947
-0.112119
0.047309343
-0.11855847
0.049668396
-0.12436098
0.051485801
-0.12967392
0.052839509
-0.13464322
0.0538138
-0.1394022
0.054489688
-0.14406501
0.054938794
-0.14872459
0.055220518
-0.1534541
0.05538095
-0.15830816
-0.00020237834
0.00020237832
2.4995587e-11
-0.00067774672
0.00047536834
2.2828347e-11
-0.0013424262
0.0006646795
1.4362076e-11
-0.0021322948
0.00078986857
1.2231892e-11
-0.002995774
0.00086347914
1.2379915e-11
-0.0038907414
0.00089496737
1.2794876e-11
-0.004782297
0.00089155562
1.2518196e-11
-0.0056408943
0.00085859723
1.1423957e-11
-0.0064408693
0.00079997501
9.9208718e-12
-0.0071592902
0.00071842085
7.7733055e-12
-0.0077750384
0.00061574824
5.7767166e-12
-0.0082680738
0.0004930354
3.6264644e-12
-0.0086188547
0.00035078088
1.9104663e-12
-0.0088079046
0.00018904987
3.4219407e-13
-0.008815557
7.6523525e-06
-8.0494547e-13
-0.0086219791
-0.00019357788
-1.7269726e-12
-0.0082074358
-0.00041454328
-2.3359286e-12
-0.0075518842
-0.00065555158
-2.819752e-12
-0.006634568
-0.00091731617
-3.1603681e-12
-0.0011862335
-0.0054483346
-3.6902519e-12
-0.00018797456
0.00039035287
-0.00062500731
0.0009124011
-0.0012287538
0.001268426
-0.0019351954
0.0014963101
-0.0026921404
0.0016204242
-0.0034562855
0.0016591125
-0.0041910688
0.0016263389
-0.0048648606
0.001532389
-0.0054495257
0.0013846402
-0.0059192884
0.0011881836
-0.0062498168
0.00094627664
-0.0064174812
0.00066069975
-0.0063987491
0.0003320488
-0.0061697064
-3.9992782e-05
-0.0057057323
-0.00045632183
-0.0049814185
-0.0009178916
-0.0039707861
-0.0014251757
-0.0026472055
-0.0019791322
-0.00098324669
-0.0025812749
-0.003201788
0.0010323078
-0.00015892792
0.0005492808
-0.00051889166
0.0012723648
-0.0010007704
0.0017503047
-0.0015412599
0.0020367997
-0.0020873505
0.0021665148
-0.0025937359
0.0021654979
-0.003020869
0.0020534719
-0.0033332942
0.0018448143
-0.0034983024
0.0015496484
-0.0034848545
0.0011747357
-0.0032626977
0.00072411988
-0.0028016457
0.00019964773
-0.0020709448
-0.00039865212
-0.0010387602
-0.0010721774
0.00032825343
-0.0018233354
0.0020652284
-0.0026548666
0.0042090439
-0.0035689912
0.0067980198
-0.0045681081
0.0098718474
-0.0056551026
-0.0067797479
0.013449807
-0.00011756699
0.00066684779
-0.00036699862
0.0015217965
-0.00067351373
0.0020568198
-0.00097482568
0.0023381117
-0.0012168539
0.002408543
-0.0013515938
0.0023002378
-0.0013354592
0.0020373373
-0.0011278275
0.0016371826
-0.00068984352
0.0011116644
1.6532947e-05
0.00046835921
0.0010293112
-0.00028865837
0.0023871165
-0.0011581576
0.0041297355
-0.0021412711
0.0062985974
-0.0032410393
0.0089372804
-0.0044620185
0.012092068
-0.0058096546
0.015812325
-0.007289248
0.020150194
-0.0089059771
0.025160386
-0.010665295
-0.012492633
0.030873271
-6.6907636e-05
0.00073375543
-0.00017916646
0.0016340553
-0.00026653364
0.002144187
-0.00026769107
0.0023392691
-0.0001271935
0.0022680455
0.00020616818
0.0019668761
0.00078069554
0.0014628099
0.001642952
0.00077492609
0.0028387327
-8.4116256e-05
0.0044138499
-0.001106758
0.0064146971
-0.0022895056
0.0088886651
-0.0036321255
0.011884467
-0.0051370732
0.01545247
-0.0068090416
0.019645065
-0.0086546136
0.024517292
-0.010681882
0.030127714
-0.01289967
0.03653893
-0.015317193
0.043818337
-0.017944702
-0.02068256
0.052008264
-9.9845877e-06
0.00074374002
3.4535162e-05
0.0015895356
0.00019989064
0.0019788316
0.00054676664
0.0019923931
0.0011322486
0.0016825635
0.0020109835
0.0010881413
0.0032361433
0.00023765008
0.0048603089
-0.00084923943
0.0069361266
-0.002159934
0.0095166835
-0.0036873149
0.012655715
-0.0054285373
0.01640771
-0.0073841208
0.020827838
-0.009557201
0.025971786
-0.011952989
0.031895662
-0.01457849
0.038656295
-0.017442514
0.046312416
-0.020555792
0.054926726
-0.023931503
0.064569719
-0.027587695
-0.031405623
0.075292782
5.0751371e-05
0.00069298865
0.00026565803
0.0013746289
0.000708255
0.0015362346
0.0014390315
0.0012616166
0.0025168222
0.00060477275
0.0039995692
-0.00039460571
0.0059449185
-0.0017076991
0.0084106085
-0.0033149295
0.011454601
-0.0052039266
0.01513505
-0.0073677639
0.019510033
-0.0098035204
0.024637025
-0.012511112
0.03057216
-0.015492336
0.037369337
-0.018750167
0.045079283
-0.022288436
0.053749012
-0.026112243
0.063422632
-0.030229412
0.074144743
-0.034653614
0.085969379
-0.039412331
-0.044388538
0.098952295
0.00011379639
0.00057919227
0.00050850376
0.00097992154
0.0012459831
0.00079875522
0.002386779
0.00012082069
0.0039912432
-0.00099969137
0.0061198794
-0.0025232419
0.0088333245
-0.0044211443
0.012192172
-0.0066737766
0.016256565
-0.0092683202
0.021085455
-0.012196654
0.02673556
-0.015453625
0.033260038
-0.019035591
0.040706903
-0.022939201
0.049117214
-0.027160478
0.05852318
-0.031694403
0.068946536
-0.036535599
0.080398361
-0.041681237
0.092882193
-0.047137446
0.10640554
-0.052935674
-0.058995712
0.12101271
0.00017849592
0.00040069634
0.00076003032
0.00039838714
0.0018053399
-0.00024655434
0.0033747155
-0.0014485549
0.0055289982
-0.0031539742
0.0083293234
-0.0053235671
0.011836496
-0.0079283165
0.016110066
-0.010947347
0.021207053
-0.014365307
0.027180316
-0.018169917
0.034076634
-0.022349942
0.041934497
-0.026893454
0.050781684
-0.031786388
0.06063262
-0.037011414
0.07148553
-0.042547313
0.083319425
-0.048369494
0.0960919
-0.054453712
0.10974047
-0.060786016
0.12419605
-0.067391253
-0.074274665
0.139475
0.00024512739
0.0010199499
0.0023833415
0.0043938644
0.0071105533
0.01059191
0.014894318
0.020070124
0.026165389
0.033217393
0.041252034
0.05028127
0.060300761
0.071287771
0.083199172
0.095968943
0.10950345
0.12366384
0.13818337
0.15258766
-0.0035077057
-0.0019406289
-6.742834e-12
-0.0012859167
-0.0022217889
-7.3375148e-12
0.001194697
-0.0024806138
-7.1813407e-12
0.0038772364
-0.0026825394
-6.7557549e-12
0.0067348978
-0.0028576614
-6.0776333e-12
0.0097503753
-0.0030154774
-5.6960168e-12
0.012904734
-0.0031543589
-5.2031052e-12
0.016179952
-0.0032752177
-4.6737211e-12
0.019560327
-0.0033803751
-3.8905405e-12
0.023031641
-0.0034713136
-2.8311691e-12
0.026580606
-0.0035489657
-1.4433233e-12
0.030194799
-0.0036141929
3.5167697e-13
0.033862576
-0.003667777
2.6600952e-12
0.037572941
-0.0037103648
5.6036116e-12
0.041315442
-0.0037425011
9.2573116e-12
0.045080108
-0.0037646655
1.368866e-11
0.048857397
-0.0037772892
1.8864082e-11
0.052638166
-0.0037807688
2.4725284e-11
0.056413646
-0.0037754809
3.1057151e-11
0.06017544
-0.0037617932
3.7591681e-11
0.063915513
-0.0037400738
4.3853886e-11
0.06762621
-0.0037106966
4.9316267e-11
0.071300256
-0.0036740464
5.3232053e-11
0.074930776
-0.0036305199
5.4860414e-11
0.078511303
-0.0035805267
5.3288753e-11
0.08203579
-0.0035244875
4.7762657e-11
0.085498623
-0.0034628326
3.75041e-11
0.088894621
-0.0033959983
2.2191591e-11
0.092219045
-0.0033244239
1.7526256e-12
0.095467592
-0.0032485474
-2.297943e-11
0.098636396
-0.003168803
-5.0586817e-11
0.10172201
-0.0030856168
-7.8270332e-11
0.10472142
-0.0029994046
-1.025131e-10
0.10763199
-0.0029105698
-1.1827651e-10
0.11045149
-0.0028195018
-1.2037849e-10
0.11317807
-0.0027265762
-1.0284952e-10
0.11581022
-0.0026321556
-6.1467224e-11
0.11834681
-0.0025365921
6.8000425e-12
0.12078705
-0.0024402349
9.9868723e-11
0.12313048
-0.0023434303
2.1161313e-10
0.12537704
-0.0022465643
3.2754668e-10
0.12752703
-0.0021499882
4.2725918e-10
0.12958142
-0.0020543918
4.8335567e-10
0.13154118
-0.0019597637
4.6728233e-10
0.13341041
-0.001869225
3.5268346e-10
0.13518761
-0.0017771966
1.2730955e-10
0.13689722
-0.0017096197
-2.0290906e-10
0.13849512
-0.001597898
-5.7548016e-10
0.14018213
-0.0016870013
-9.9521915e-10
-0.0013312397
-1.0154012e-09
0.0028529239
-0.003761245
0.0049500712
-0.0043189363
0.0072929312
-0.0048234737
0.0098190617
-0.0052086699
0.012507402
-0.0055460012
0.015345625
-0.0058537013
0.018316992
-0.0061257257
0.021405096
-0.006363321
0.024595916
-0.0065711959
0.027876692
-0.0067520895
0.031235291
-0.0069075646
0.034660232
-0.0070391338
0.038140658
-0.0071482029
0.041666222
-0.0072359293
0.045227008
-0.0073032864
0.04881348
-0.0073511381
0.052416461
-0.00738027
0.056027105
-0.0073914129
0.059636893
-0.0073852687
0.063237631
-0.0073625313
0.06682146
-0.0073239022
0.070380864
-0.0072701013
0.073908691
-0.0072018736
0.077398163
-0.007119992
0.080842894
-0.0070252574
0.084236902
-0.0069184952
0.08757462
-0.0068005511
0.090850906
-0.0066722845
0.094061044
-0.0065345613
0.097200743
-0.0063882466
0.10026614
-0.0062341979
0.10325378
-0.006073258
0.10616062
-0.0059062496
0.10898403
-0.0057339714
0.11172172
-0.005557195
0.11437181
-0.0053766655
0.11693276
-0.005193103
0.11940337
-0.0050072073
0.12178281
-0.0048196732
0.12407057
-0.0046311901
0.12626653
-0.0044425291
0.12837094
-0.0042543908
0.1303847
-0.0040681523
0.13230873
-0.0038837951
0.13414703
-0.0037075288
0.13589813
-0.0035282947
0.13758601
-0.003397498
0.13916757
-0.0031794546
0.14083842
-0.0033578568
-0.0026600262
0.015021144
-0.0053325821
0.016852245
-0.006150037
0.018905783
-0.0068770112
0.021111829
-0.0074147161
0.023458749
-0.0078929217
0.025942891
-0.0083378431
0.028551636
-0.0087344707
0.031271504
-0.009083189
0.034091395
-0.0093910864
0.037001078
-0.0096617725
0.039990433
-0.0098969195
0.043049599
-0.0100983
0.046169052
-0.010267656
0.049339536
-0.010406414
0.052552022
-0.010515772
0.055797698
-0.010596814
0.059067975
-0.010650547
0.062354489
-0.010677928
0.06564912
-0.010679899
0.068944
-0.010657412
0.072231543
-0.010611445
0.075504461
-0.010543019
0.078755789
-0.010453201
0.081978905
-0.010343108
0.085167552
-0.010213904
0.088315851
-0.010066794
0.091418317
-0.0099030171
0.094469868
-0.0097238358
0.09746583
-0.0095305232
0.10040194
-0.0093243551
0.10327434
-0.0091065953
0.10607957
-0.0088784887
0.10881457
-0.0086412515
0.11147666
-0.0083960652
0.11406354
-0.0081440732
0.11657325
-0.0078863799
0.11900421
-0.0076240549
0.12135514
-0.0073581391
0.12362513
-0.0070896676
0.12581361
-0.0068196696
0.12792038
-0.0065492978
0.12994559
-0.0062796018
0.13189008
-0.0060126397
0.13375469
-0.0057484012
0.13554326
-0.0054961014
0.13725441
-0.0052394476
0.13891116
-0.0050542506
0.14047275
-0.0047410371
0.14212416
-0.0050092737
-0.0039970501
0.032056562
-0.0065158736
0.03347176
-0.0075652344
0.035077264
-0.0084825152
0.036800098
-0.00913755
0.038640947
-0.0097337714
0.04060611
-0.010303006
0.042688414
-0.010816775
0.044878336
-0.011273111
0.0471683
-0.011681051
0.049551078
-0.012044551
0.052018963
-0.012364804
0.054563997
-0.012643335
0.057178171
-0.012881829
0.059853441
-0.013081684
0.062581746
-0.013244077
0.065355041
-0.013370109
0.068165344
-0.01346085
0.071004779
-0.013517363
0.073865612
-0.013540732
0.076740293
-0.013532092
0.079621487
-0.01349264
0.082502116
-0.013423648
0.085375384
-0.013326469
0.088234809
-0.013202534
0.091074247
-0.013053342
0.09388791
-0.012880457
0.096670384
-0.012685491
0.099416639
-0.012470091
0.10212204
-0.012235921
0.10478233
-0.011984651
0.10739368
-0.011717937
0.1099526
-0.011437412
0.11245602
-0.011144673
0.11490123
-0.010841274
0.11728587
-0.010528718
0.11960795
-0.01020846
0.12186581
-0.0098819133
0.12405813
-0.0095504527
0.12618391
-0.0092154487
0.12824251
-0.0088782683
0.13023365
-0.0085404429
0.13215742
-0.0082033724
0.13401457
-0.007869787
0.13580588
-0.0075397093
0.13753501
-0.0072252367
0.13920077
-0.0069052092
0.1408248
-0.0066782808
0.14236981
-0.0062860407
0.14400552
-0.0066449825
-0.0053582057
0.052648557
-0.0071561659
0.053489142
-0.0084058196
0.054483254
-0.0094766279
0.055565207
-0.010219503
0.056749816
-0.010918381
0.058051377
-0.011604566
0.059468398
-0.012233796
0.060996013
-0.012800726
0.062630011
-0.013315048
0.064365794
-0.013780334
0.066197842
-0.014196851
0.068119884
-0.014565377
0.070125157
-0.014887102
0.072206558
-0.015163085
0.074356741
-0.015394259
0.076568192
-0.01558156
0.07883332
-0.015725977
0.081144529
-0.015828572
0.083494293
-0.015890496
0.085875207
-0.015913006
0.088280045
-0.015897478
0.090701806
-0.015845409
0.093133749
-0.015758413
0.095569434
-0.015638218
0.098002746
-0.015486654
0.10042792
-0.015305628
0.10283955
-0.015097121
0.10523261
-0.014863156
0.10760247
-0.014605785
0.10994489
-0.014327064
0.11225599
-0.014029037
0.11453229
-0.013713719
0.11677071
-0.013383085
0.11896848
-0.013039052
0.12112325
-0.012683482
0.12323297
-0.012318178
0.12529594
-0.01194489
0.12731082
-0.011565327
0.12927656
-0.011181195
0.13119249
-0.010794198
0.1330583
-0.010406247
0.13487402
-0.010019095
0.13664037
-0.0096361377
0.13835812
-0.0092574606
0.14003077
-0.0088978891
0.14165742
-0.0085318595
0.14325804
-0.0082788955
0.14479975
-0.007827752
0.14643338
-0.0082786144
-0.0067667322
0.075221763
-0.0070851472
0.07532672
-0.0085107763
0.075551083
-0.0097009911
0.075851369
-0.010519788
0.076255612
-0.011322624
0.076780665
-0.012129619
0.077429564
-0.012882695
0.078202238
-0.013573401
0.079096996
-0.014209807
0.08011069
-0.014794027
0.081239076
-0.015325237
0.082476858
-0.015803159
0.083817852
-0.016228096
0.085255277
-0.016600511
0.086781958
-0.016920941
0.088390442
-0.017190044
0.09007311
-0.017408645
0.091822284
-0.017577746
0.09363032
-0.017698532
0.09548968
-0.017772366
0.097392998
-0.017800796
0.099333132
-0.017785543
0.10130321
-0.017728494
0.10329668
-0.017631684
0.10530731
-0.017497281
0.10732923
-0.017327556
0.10935698
-0.01712487
0.11138546
-0.016891636
0.11340998
-0.016630304
0.11542625
-0.016343328
0.11743036
-0.016033152
0.11941882
-0.01570218
0.12138851
-0.01535277
0.12333667
-0.014987215
0.12526093
-0.014607738
0.12715924
-0.014216495
0.12902994
-0.013815582
0.13087166
-0.013407046
0.13268339
-0.012992934
0.13446449
-0.012575293
0.13621466
-0.012156419
0.137934
-0.011738429
0.13962323
-0.011325372
0.14128321
-0.010917439
0.14291732
-0.010532004
0.14452509
-0.010139629
0.14612464
-0.0098784399
0.14768825
-0.0093913593
0.14934538
-0.0099357526
-0.008254743
0.098025298
-0.0061581503
0.097258022
-0.0077435003
0.096581728
-0.0090246973
0.095997288
-0.0099353483
0.095540831
-0.010866166
0.095223587
-0.011812375
0.095050925
-0.012710033
0.095026848
-0.013549323
0.095150887
-0.014333846
0.095419779
-0.015062919
0.095829162
-0.01573462
0.096373627
-0.016347624
0.097046689
-0.016901158
0.097841115
-0.017394937
0.098749223
-0.017829048
0.099763039
-0.01820386
0.10087443
-0.018520034
0.10207521
-0.018778524
0.10335725
-0.018980571
0.10471256
-0.019127676
0.10613335
-0.019221594
0.10761212
-0.019264307
0.10914164
-0.019258016
0.11071506
-0.019205103
0.11232589
-0.019108114
0.11396806
-0.018969724
0.1156359
-0.018792706
0.11732416
-0.018579902
0.11902805
-0.018334192
0.12074318
-0.018058458
0.1224656
-0.01775557
0.12419177
-0.017428351
0.12591856
-0.017079561
0.12764323
-0.016711891
0.12936345
-0.016327948
0.13107721
-0.015930257
0.1327829
-0.015521274
0.13447925
-0.015103402
0.13616536
-0.014679043
0.13784067
-0.014250599
0.13950502
-0.013820767
0.14115863
-0.013392038
0.14280237
-0.012969112
0.14443725
-0.012552327
0.14606668
-0.012161425
0.14769069
-0.011763647
0.14932553
-0.011513279
0.15094911
-0.011014939
0.15266835
-0.011654987
-0.0098639978
0.11918907
-0.0043345066
0.11749646
-0.0060508966
0.11585694
-0.0073851794
0.11435442
-0.0084328197
0.11302511
-0.0095368653
0.11186655
-0.010653812
0.11088419
-0.011727674
0.11008432
-0.01274945
0.10946634
-0.013715869
0.10902566
-0.014622243
0.10875648
-0.015465435
0.10865212
-0.016243267
0.108705
-0.016954034
0.1089068
-0.017596737
0.1092488
-0.018171044
0.10972205
-0.018677113
0.11031753
-0.019115515
0.11102623
-0.019487228
0.11183927
-0.019793613
0.11274798
-0.020036377
0.11374393
-0.020217545
0.11481905
-0.020339429
0.11596564
-0.020404603
0.11717639
-0.020415856
0.11844445
-0.020376175
0.11976341
-0.020288689
0.12112735
-0.020156645
0.12253082
-0.019983364
0.12396883
-0.019772203
0.12543689
-0.019526524
0.12693099
-0.019249663
0.12844754
-0.018944901
0.12998342
-0.018615448
0.13153595
-0.018264419
0.13310284
-0.01789484
0.13468222
-0.017509635
0.1362726
-0.01711165
0.13787287
-0.016703669
0.13948229
-0.016288469
0.14110053
-0.015868836
0.14272764
-0.015447881
0.14436409
-0.01502849
0.146011
-0.01461602
0.14766967
-0.014210997
0.1493436
-0.013835353
0.15103351
-0.013453559
0.1527538
-0.013233563
0.15448825
-0.012749394
0.15632111
-0.013487842
-0.011645844
0.13689603
-0.0017555376
0.13437807
-0.003532937
0.13181951
-0.0048266124
0.12946244
-0.0060757554
0.12733409
-0.007408511
0.12541582
-0.0087355418
0.12371046
-0.010022319
0.12222311
-0.011262097
0.12095221
-0.01244497
0.11989199
-0.013562025
0.11903495
-0.014608392
0.11837273
-0.015581051
0.11789635
-0.016477651
0.11759627
-0.017296658
0.11746263
-0.018037404
0.11748542
-0.018699899
0.11765461
-0.01928471
0.1179603
-0.019792913
0.11839274
-0.020226056
0.11894248
-0.020586121
0.11960041
-0.020875472
0.1203578
-0.021096814
0.12120635
-0.02125316
0.12213828
-0.02134778
0.12314626
-0.021384159
0.12422353
-0.021365957
0.12536384
-0.021296953
0.12656148
-0.021181008
0.1278113
-0.021022024
0.12910867
-0.020823897
0.1304495
-0.020590487
0.13183019
-0.020325589
0.13324764
-0.020032907
0.13469926
-0.019716033
0.13618287
-0.019378452
0.13769677
-0.019023532
0.13923966
-0.018654545
0.14081068
-0.018274688
0.14240936
-0.017887152
0.14403566
-0.017495133
0.14568996
-0.017102183
0.14737308
-0.01671161
0.1490865
-0.016329439
0.15083193
-0.015956424
0.15261309
-0.015616519
0.1544315
-0.015271963
0.1562998
-0.015101864
0.1582078
-0.014657393
0.16021747
-0.015497514
-0.013660322
0.15005216
0.0007799623
0.14676321
-0.00024399366
0.14346588
-0.0015292766
0.1404181
-0.0030279795
0.13762321
-0.0046136206
0.13507495
-0.0061872811
0.13277516
-0.0077225236
0.13072391
-0.0092108513
0.12891877
-0.010639835
0.12735455
-0.011997799
0.12602341
-0.01327725
0.12491594
-0.014473588
0.12402198
-0.015583689
0.12333086
-0.016605538
0.1228316
-0.017538143
0.12251309
-0.018381387
0.12236425
-0.019135872
0.12237417
-0.019802836
0.1225322
-0.020384083
0.12282801
-0.020881931
0.12325169
-0.021299152
0.1237938
-0.021638921
0.1244454
-0.021904765
0.12519813
-0.022100507
0.12604418
-0.022230213
0.12697637
-0.022298141
0.1279881
-0.022308685
0.12907341
-0.022266321
0.13022695
-0.022175564
0.13144398
-0.022040917
0.13272032
-0.021866834
0.13405241
-0.021657682
0.13543723
-0.021417721
0.13687228
-0.021151081
0.13835558
-0.020861757
0.13988566
-0.020553606
0.14146148
-0.020230375
0.14308251
-0.019895716
0.14474863
-0.019553272
0.14646018
-0.019206679
0.14821796
-0.018859969
0.15002325
-0.018516891
0.15187797
-0.018184165
0.15378433
-0.01786278
0.15574644
-0.017578635
0.15776651
-0.017292027
0.15985605
-0.01719141
0.16200933
-0.016810666
0.16427108
-0.017759266
-0.015972398
0.18890888
0.0053820601
-0.19351098
0.18509884
0.0035660402
0.18170681
0.0018627538
0.17856169
0.00011714184
0.17562614
-0.001678066
0.17287512
-0.0034362605
0.17029041
-0.0051378126
0.16786301
-0.0067834567
0.16558905
-0.0083658758
0.16346637
-0.0098751201
0.16149311
-0.011303991
0.15966716
-0.012647638
0.15798588
-0.013902406
0.15644597
-0.015065631
0.15504352
-0.016135691
0.15377405
-0.01711192
0.15263265
-0.017994465
0.151614
-0.018784193
0.15071255
-0.019482628
0.1499225
-0.020091886
0.14923797
-0.02061462
0.148653
-0.021053951
0.14816165
-0.021413413
0.14775804
-0.021696893
0.14743639
-0.021908568
0.1471911
-0.022052847
0.14701672
-0.022134309
0.14690805
-0.022157647
0.14686009
-0.022127612
0.14686814
-0.022048961
0.14692772
-0.021926416
0.14703466
-0.021764622
0.14718506
-0.02156812
0.14737531
-0.021341326
0.14760207
-0.021088518
0.1478623
-0.020813842
0.14815326
-0.020521327
0.14847245
-0.020214914
0.14881772
-0.019898536
0.14918717
-0.019576126
0.14957924
-0.019252044
0.1499927
-0.018930355
0.15042679
-0.018618251
0.15088098
-0.018316966
0.15135588
-0.018053537
0.15185135
-0.017787496
0.15237186
-0.017711927
0.15291312
-0.017351923
0.1534981
-0.018344246
-0.016565185
0.21685776
0.0087803877
-0.22025609
0.21338388
0.0070399239
0.21017107
0.0050755625
0.20706576
0.0032224513
0.20401917
0.0013685261
0.20106225
-0.00047934392
0.1982119
-0.0022874547
0.19547261
-0.0040441701
0.19285029
-0.0057435609
0.19035178
-0.0073766088
0.18798227
-0.008934483
0.18574517
-0.01041053
0.18364245
-0.011799694
0.18167484
-0.013098013
0.17984178
-0.014302632
0.17814165
-0.015411795
0.17657192
-0.016424728
0.17512925
-0.017341527
0.17380971
-0.018163083
0.17260883
-0.018891008
0.17152177
-0.019527562
0.1705434
-0.020075581
0.16966839
-0.020538409
0.16889132
-0.020919822
0.16820672
-0.021223962
0.16760914
-0.021455265
0.16709322
-0.021618392
0.16665374
-0.021718167
0.16628564
-0.021759509
0.16598405
-0.021747376
0.16574435
-0.021686718
0.16556216
-0.021582426
0.16543334
-0.021439304
0.16535405
-0.021262039
0.16532073
-0.021055193
0.16533008
-0.020823194
0.16537911
-0.020570363
0.16546513
-0.020300935
0.16558574
-0.020019144
0.16573886
-0.019729238
0.16592271
-0.019435903
0.16613593
-0.019143566
0.16637748
-0.018859808
0.16664689
-0.018586374
0.166944
-0.018350644
0.16727004
-0.018113535
0.16762423
-0.01806612
0.16801488
-0.017742571
0.16842395
-0.018753316
-0.017039174
0.24376668
0.011504338
-0.24649063
0.24091625
0.0098903582
0.23806304
0.0079287693
0.23521608
0.0060694097
0.23233828
0.0042463251
0.22945047
0.0024084723
0.22658385
0.00057915864
0.22375774
-0.0012180564
0.22098804
-0.0029738644
0.2182907
-0.0046792656
0.21567957
-0.0063233514
0.21316565
-0.0078966096
0.21075755
-0.0093915951
0.20846183
-0.010802295
0.20628312
-0.012123927
0.20422431
-0.013352984
0.20228675
-0.014487166
0.20047048
-0.015525255
0.19877441
-0.016467017
0.19719652
-0.017313115
0.19573399
-0.018065028
0.19438336
-0.018724959
0.1931407
-0.019295748
0.19200168
-0.019780795
0.19096168
-0.020183971
0.19001596
-0.020509537
0.18915963
-0.020762064
0.18838782
-0.02094636
0.1876957
-0.02106739
0.18707854
-0.021130215
0.18653175
-0.02113993
0.18605094
-0.021101612
0.18563192
-0.021020278
0.18527073
-0.020900855
0.18496369
-0.020748157
0.18470739
-0.020566888
0.18449868
-0.020361651
0.18433472
-0.020136974
0.18421297
-0.019897398
0.18413122
-0.019647489
0.18408759
-0.019392266
0.18408057
-0.019136552
0.184109
-0.018888232
0.18417244
-0.018649822
0.18427002
-0.018448215
0.18440442
-0.018247944
0.18456928
-0.018230972
0.18478646
-0.017959755
0.18499208
-0.018958934
-0.017371911
0.26927444
0.013537287
-0.27130739
0.2671064
0.012058399
0.26476464
0.010270527
0.26232542
0.0085086318
0.25979667
0.0067750715
0.25718858
0.0050165634
0.25452727
0.0032404722
0.25183691
0.0014723071
0.24913749
-0.00027444876
0.24644883
-0.0019906028
0.24379021
-0.0036647315
0.24117877
-0.005285168
0.23862923
-0.0068420586
0.23615409
-0.0083271527
0.23376363
-0.0097334741
0.23146603
-0.011055382
0.22926746
-0.012288597
0.22717232
-0.013430116
0.22518341
-0.014478107
0.22330213
-0.01543183
0.22152864
-0.016291542
0.21986209
-0.017058404
0.21830072
-0.017734382
0.21684208
-0.018322155
0.21548313
-0.018825016
0.21422037
-0.019246776
0.21304998
-0.019591677
0.21196792
-0.019864297
0.21097
-0.020069471
0.21005199
-0.020212205
0.20920967
-0.020297614
0.20843891
-0.020330851
0.2077357
-0.020317065
0.20709619
-0.020261351
0.20651677
-0.020168732
0.20599403
-0.020044146
0.20552483
-0.019892452
0.20510631
-0.019718458
0.20473591
-0.019527
0.20441139
-0.019322968
0.20413083
-0.019111702
0.20389272
-0.018898447
0.20369581
-0.018691317
0.20353978
-0.018493798
0.20342317
-0.018331607
0.20334989
-0.018174664
0.20330876
-0.01818984
0.203333
-0.017983992
0.2033174
-0.018943337
-0.017541212
0.2929852
0.014868426
-0.29431634
0.29150596
0.013537638
0.28978347
0.011993017
0.28788484
0.010407262
0.28584494
0.0088149787
0.28367457
0.0071869317
0.28139215
0.0055228901
0.27902093
0.0038435317
0.2765822
0.00216428
0.27409613
0.0004954681
0.27158291
-0.0011515192
0.26906228
-0.0027645388
0.26655256
-0.004332336
0.26407034
-0.0058449282
0.26163035
-0.0072934872
0.25924537
-0.0086703971
0.25692614
-0.0099693755
0.2546815
-0.011185475
0.25251842
-0.012315029
0.25044218
-0.013355589
0.2484565
-0.01430586
0.24656371
-0.015165609
0.2447649
-0.015935577
0.24306013
-0.01661738
0.24144851
-0.017213404
0.23992845
-0.01772671
0.2384977
-0.018160925
0.23715355
-0.018520147
0.23589292
-0.018808849
0.23471251
-0.019031787
0.23360881
-0.019193919
0.23257829
-0.01930033
0.2316174
-0.019356171
0.23072265
-0.01936661
0.22989072
-0.019336793
0.2291184
-0.019271827
0.22840273
-0.019176782
0.22774098
-0.01905671
0.2271307
-0.018916719
0.22656973
-0.018762006
0.22605625
-0.018598219
0.22558884
-0.018431032
0.22516625
-0.018268731
0.22478834
-0.018115884
0.22445326
-0.017996535
0.22416578
-0.017887183
0.22391106
-0.017935116
0.22373064
-0.017803577
0.2234857