/*--------------------------------*- C++ -*----------------------------------*\
  =========                 |
  \\      /  F ield         | OpenFOAM: The Open Source CFD Toolbox
   \\    /   O peration     | Website:  https://openfoam.org
    \\  /    A nd           | Version:  6
     \\/     M anipulation  |
\*---------------------------------------------------------------------------*/
FoamFile
{
    version     2.0;
    format      ascii;
    class       volScalarField;
    location    "118";
    object      p;
}
// * * * * * * * * * * * * * * * * * * * * * * * * * * * * * * * * * * * * * //

dimensions      [0 2 -2 0 0 0 0];

internalField   nonuniform List<scalar> 
9200
(
-0.37800807
-0.3666613
-0.35656738
-0.34761789
-0.338878
-0.33036157
-0.32214691
-0.31420149
-0.30645799
-0.29884447
-0.29128798
-0.28371946
-0.27608075
-0.26833186
-0.26046152
-0.25250503
-0.24453872
-0.23665042
-0.22986501
-0.22846449
-0.39586915
-0.38207116
-0.37003359
-0.35956429
-0.34945235
-0.33967923
-0.33031368
-0.32129243
-0.31251596
-0.30388593
-0.29530915
-0.2867034
-0.278005
-0.26917476
-0.26020357
-0.25111642
-0.24194315
-0.23268348
-0.22402034
-0.21811963
-0.41414719
-0.39787517
-0.38393987
-0.3720212
-0.36059253
-0.34958471
-0.33904519
-0.32887225
-0.31893222
-0.3091042
-0.29928392
-0.2893893
-0.27936725
-0.26919684
-0.2588891
-0.24848268
-0.23801638
-0.22749915
-0.21733024
-0.20862468
-0.43240812
-0.41368119
-0.39791353
-0.38460711
-0.37188197
-0.35960198
-0.34778546
-0.33629174
-0.32496088
-0.31366487
-0.30230905
-0.29083521
-0.27922465
-0.26749603
-0.25569865
-0.24390232
-0.23217361
-0.22055141
-0.20930316
-0.19916997
-0.45002201
-0.42894319
-0.41145993
-0.39684283
-0.38283091
-0.36921026
-0.35596994
-0.34294098
-0.32995771
-0.31691208
-0.30374879
-0.29046168
-0.27708953
-0.26370619
-0.25040715
-0.23729533
-0.22446082
-0.21196213
-0.19998747
-0.18904427
-0.46616434
-0.44294217
-0.42391894
-0.4080806
-0.39277532
-0.37771153
-0.36286143
-0.34805339
-0.33315016
-0.31810001
-0.30291987
-0.28768032
-0.27249128
-0.25748392
-0.24279239
-0.22853873
-0.21481757
-0.20168482
-0.18926646
-0.17789927
-0.47982994
-0.45479178
-0.43446589
-0.41750641
-0.40088749
-0.38425569
-0.36759423
-0.3507695
-0.3337172
-0.31648127
-0.29917908
-0.28197178
-0.26503956
-0.24855808
-0.23267978
-0.21752255
-0.20316208
-0.18962949
-0.17699163
-0.1654497
-0.48985499
-0.46346185
-0.44214399
-0.42418692
-0.40624053
-0.38792342
-0.36927245
-0.3502443
-0.33089603
-0.31140222
-0.29199798
-0.27293465
-0.25444805
-0.23673502
-0.21994035
-0.20415385
-0.18941269
-0.17570874
-0.16305089
-0.15152639
-0.49489726
-0.46767709
-0.44566721
-0.42678634
-0.40745847
-0.38733637
-0.36657051
-0.34526512
-0.32363817
-0.30201043
-0.28072818
-0.2601103
-0.24041748
-0.22183646
-0.20447802
-0.18838531
-0.17354621
-0.15990908
-0.14742882
-0.13609518
-0.4936063
-0.46602061
-0.44348796
-0.42363931
-0.40281953
-0.38079909
-0.35790757
-0.33444252
-0.3107966
-0.28741992
-0.26473265
-0.24307578
-0.22269206
-0.20372514
-0.18623145
-0.1701988
-0.15556621
-0.1422442
-0.13014092
-0.11916125
-0.26512326
-0.26979765
-0.27230611
-0.27305725
-0.2728431
-0.27185053
-0.270161
-0.26786206
-0.26502591
-0.26170729
-0.25795023
-0.25379225
-0.24926646
-0.24440293
-0.23922992
-0.23377633
-0.22807303
-0.22214054
-0.2159779
-0.20967065
-0.26785598
-0.2721151
-0.2743168
-0.27484926
-0.27445203
-0.27330324
-0.27148245
-0.26907349
-0.26614501
-0.2627489
-0.2589268
-0.2547141
-0.25014203
-0.24523864
-0.24002962
-0.23454282
-0.2288166
-0.22286983
-0.21659522
-0.20996683
-0.27318561
-0.27663264
-0.27823634
-0.27834106
-0.27758489
-0.27613055
-0.27405406
-0.271432
-0.26832606
-0.26478254
-0.26083822
-0.2565243
-0.25186822
-0.24689419
-0.24162305
-0.2360798
-0.23031419
-0.224344
-0.21787007
-0.21063467
-0.28087226
-0.28315673
-0.28389487
-0.28337085
-0.28208177
-0.28017074
-0.27770985
-0.27476579
-0.27139062
-0.26762277
-0.26349218
-0.25902393
-0.25423994
-0.24915873
-0.24379431
-0.23816652
-0.23233707
-0.22632833
-0.21959478
-0.21150885
-0.29061362
-0.29144433
-0.29108087
-0.28973957
-0.2877486
-0.2852303
-0.28225355
-0.27887379
-0.27513164
-0.27105629
-0.26666944
-0.2619879
-0.25702604
-0.25179548
-0.2463021
-0.24055739
-0.23463102
-0.22855856
-0.22153533
-0.21241894
-0.30209589
-0.30124323
-0.29957692
-0.29724628
-0.29439376
-0.29112227
-0.28749975
-0.28357059
-0.27936344
-0.27489583
-0.27017865
-0.26521945
-0.26002381
-0.2545949
-0.24892947
-0.2430277
-0.23695928
-0.23077917
-0.22345158
-0.21319795
-0.31504013
-0.31232839
-0.30919231
-0.30572131
-0.30186344
-0.29770537
-0.29331793
-0.28873413
-0.28396793
-0.27902435
-0.2739028
-0.26859957
-0.26310962
-0.2574266
-0.25153814
-0.24543263
-0.23917257
-0.23283556
-0.22521781
-0.21383558
-0.32923031
-0.32452477
-0.31978515
-0.31505077
-0.31007099
-0.30491922
-0.29966951
-0.29434269
-0.28893793
-0.28344586
-0.27785152
-0.27213693
-0.26628344
-0.2602726
-0.25408241
-0.24769231
-0.24116204
-0.23461518
-0.22679921
-0.21451998
-0.34451337
-0.33769996
-0.33124506
-0.32514797
-0.31895205
-0.3127161
-0.30651932
-0.30036979
-0.29424908
-0.28813018
-0.28198024
-0.27576281
-0.26944015
-0.2629735
-0.25631842
-0.24942703
-0.24232364
-0.23511444
-0.22654212
-0.21310429
-0.36079042
-0.35174623
-0.34345984
-0.33589546
-0.32837703
-0.32094852
-0.3136942
-0.30660711
-0.29964872
-0.29277274
-0.28592805
-0.27906147
-0.27212066
-0.26505419
-0.25780622
-0.25031231
-0.24251536
-0.23420874
-0.22374162
-0.20807255
-0.20251954
-0.19357074
-0.18461696
-0.17572221
-0.16683278
-0.15799036
-0.14924846
-0.14064214
-0.13220069
-0.12395271
-0.115924
-0.10813676
-0.10061012
-0.09336045
-0.086401332
-0.079743653
-0.073395708
-0.067363301
-0.061649844
-0.056256467
-0.051182141
-0.046423821
-0.041976589
-0.037833828
-0.033987393
-0.030427801
-0.027144421
-0.024125673
-0.021359219
-0.018832156
-0.016531204
-0.014442877
-0.01255365
-0.010850115
-0.0093191211
-0.007947908
-0.0067242314
-0.0056364651
-0.0046737795
-0.0038260613
-0.0030847423
-0.002440786
-0.0018919429
-0.0014214278
-0.0010651567
-0.00071253718
-0.00070496633
-9.0355533e-05
-0.0017248459
0.0024663679
-0.20352968
-0.1941836
-0.18512078
-0.17624037
-0.16733292
-0.15846031
-0.14969399
-0.1410654
-0.13260138
-0.12433107
-0.11628057
-0.10847195
-0.10092432
-0.093654126
-0.086675023
-0.079997957
-0.073631287
-0.067580876
-0.061850187
-0.056440394
-0.0513505
-0.046577479
-0.042116428
-0.037960729
-0.034102232
-0.030531439
-0.0272377
-0.024209406
-0.021434189
-0.018899111
-0.016590853
-0.014495889
-0.012600651
-0.01089169
-0.0093558113
-0.0079802114
-0.0067526041
-0.0056613217
-0.0046954938
-0.003844968
-0.0031011358
-0.0024549246
-0.0019040274
-0.0014316673
-0.0010734803
-0.00071952601
-0.00070843053
-9.6238417e-05
-0.0017103164
0.002437702
-0.20564857
-0.19545183
-0.18617156
-0.17735985
-0.16842881
-0.15949552
-0.15068158
-0.14200898
-0.13349793
-0.12517971
-0.11708167
-0.10922574
-0.10163116
-0.09431471
-0.087290322
-0.080569164
-0.074159803
-0.068068289
-0.062298239
-0.056850947
-0.051725506
-0.046918954
-0.04242642
-0.038241296
-0.034355418
-0.030759256
-0.027442109
-0.024392303
-0.021597395
-0.01904436
-0.016719788
-0.014610052
-0.012701487
-0.010980538
-0.0094339092
-0.0080486944
-0.0068125077
-0.0057135837
-0.0047409578
-0.0038843856
-0.0031351682
-0.0024841478
-0.0019288994
-0.00145264
-0.0010904763
-0.00073367197
-0.00071554268
-0.00010785976
-0.0016817946
0.0023809847
-0.20871744
-0.19714396
-0.18754272
-0.17892999
-0.17000956
-0.16099959
-0.15213151
-0.14340998
-0.13483989
-0.12645765
-0.11829429
-0.1103718
-0.10270972
-0.095325658
-0.088234266
-0.081447231
-0.074973578
-0.068819765
-0.062989744
-0.057485075
-0.052305057
-0.047446874
-0.042905752
-0.038675133
-0.03474686
-0.031111373
-0.027757912
-0.024674718
-0.021849239
-0.019268325
-0.016918426
-0.01478577
-0.012856533
-0.011117004
-0.0095537263
-0.0081536351
-0.0069041879
-0.005793467
-0.0048103597
-0.0039444774
-0.0031869803
-0.0025285768
-0.0019666621
-0.0014844335
-0.0011162191
-0.00075503229
-0.00072639575
-0.00012516662
-0.0016400214
0.0022974412
-0.21250962
-0.19898945
-0.18896499
-0.18075308
-0.17192865
-0.16284466
-0.15393354
-0.14517939
-0.13655571
-0.12810611
-0.11987012
-0.11187087
-0.10412832
-0.096661536
-0.089486561
-0.082616111
-0.076060056
-0.069825594
-0.063917297
-0.058337226
-0.053085074
-0.048158323
-0.043552412
-0.039260918
-0.035275754
-0.031587371
-0.028184967
-0.025056698
-0.022189894
-0.019571256
-0.017187063
-0.015023351
-0.013066099
-0.011301385
-0.0097155402
-0.0082952881
-0.0070278756
-0.0059011784
-0.0049038834
-0.0040254065
-0.0032567159
-0.0025883381
-0.0020174257
-0.001527144
-0.0011507954
-0.00078367025
-0.00074112701
-0.00014805053
-0.0015861312
0.002188959
-0.21667776
-0.20070778
-0.19016923
-0.1825959
-0.17401372
-0.16488735
-0.15595554
-0.1472032
-0.13855265
-0.13004906
-0.1217458
-0.11367046
-0.105844
-0.098287377
-0.091018851
-0.084052933
-0.077400912
-0.071071187
-0.06506936
-0.059398336
-0.054058487
-0.049047825
-0.044362188
-0.039995439
-0.03593967
-0.032185424
-0.028721911
-0.025537237
-0.022618621
-0.019952616
-0.017525307
-0.015322517
-0.013329986
-0.011533542
-0.0099192574
-0.008473593
-0.0071835349
-0.0060367012
-0.0050215272
-0.0041271826
-0.0033443937
-0.0026634572
-0.0020812213
-0.0015808065
-0.0011942488
-0.00081961821
-0.00075988081
-0.00017636075
-0.0015215604
0.0020579945
-0.22082427
-0.20211736
-0.19094369
-0.18418074
-0.17606422
-0.16700063
-0.15808241
-0.14936918
-0.14073481
-0.13220864
-0.12385642
-0.11571566
-0.10781063
-0.10016464
-0.0927989
-0.085730681
-0.078973479
-0.072537515
-0.066429935
-0.060654935
-0.055213937
-0.050105786
-0.045326967
-0.040871821
-0.036732775
-0.032900576
-0.029364531
-0.026112749
-0.023132372
-0.02040981
-0.017930957
-0.015681401
-0.013646617
-0.011812147
-0.010163765
-0.0086876232
-0.0073704008
-0.0061994098
-0.0051627856
-0.0042494038
-0.0034497008
-0.0027536976
-0.0021578771
-0.0016453056
-0.0012465169
-0.00086284353
-0.00078278207
-0.00020993633
-0.0014479454
0.0019074392
-0.22468825
-0.20361382
-0.19151271
-0.18532016
-0.17786589
-0.16909712
-0.16027053
-0.15162111
-0.14304022
-0.13452918
-0.12615282
-0.11796125
-0.10998653
-0.10225547
-0.094792653
-0.087618853
-0.080750576
-0.074200484
-0.06797777
-0.062088361
-0.056535097
-0.051317973
-0.046434378
-0.041879344
-0.0376458
-0.033724833
-0.030105947
-0.026777324
-0.023726079
-0.020938507
-0.018400318
-0.016096863
-0.014013334
-0.012134961
-0.010447187
-0.0089358211
-0.0075871918
-0.006388263
-0.0053268263
-0.0043914184
-0.0035721408
-0.0028586964
-0.0022471427
-0.0017204881
-0.0013075319
-0.0009133359
-0.00081000687
-0.00024867449
-0.0013670708
0.0017405846
-0.22592741
-0.20544172
-0.19257178
-0.18595043
-0.17898359
-0.17079648
-0.16224638
-0.15372611
-0.14525224
-0.13681827
-0.12847184
-0.12027081
-0.11225834
-0.10446707
-0.096925547
-0.089658647
-0.082686741
-0.076025764
-0.069687692
-0.063680838
-0.058010073
-0.052677072
-0.047680594
-0.043016764
-0.038679353
-0.034660065
-0.030948829
-0.027534081
-0.024403045
-0.021542003
-0.018936549
-0.016571838
-0.0144328
-0.012504358
-0.010771606
-0.0092199871
-0.0078354491
-0.0066045683
-0.0055147504
-0.0045541479
-0.0037124801
-0.0029790859
-0.0023495355
-0.0018067652
-0.0013776331
-0.0009713015
-0.00084192665
-0.00029226899
-0.0012810812
0.0015617055
-0.2160665
-0.20468761
-0.19368937
-0.18560164
-0.17854547
-0.17113266
-0.16318884
-0.15503449
-0.14684854
-0.13865707
-0.13048777
-0.12239815
-0.11444369
-0.10666735
-0.099104939
-0.091788029
-0.084743284
-0.077992173
-0.071551396
-0.065433308
-0.05964621
-0.054194648
-0.049079742
-0.044299527
-0.039849283
-0.035721876
-0.031908085
-0.028396938
-0.025176022
-0.022231794
-0.019549869
-0.017115291
-0.014912781
-0.012926972
-0.011142616
-0.0095447677
-0.0081189624
-0.0068513492
-0.0057289015
-0.0047393368
-0.0038719406
-0.003115632
-0.0024654371
-0.0019041742
-0.0014566367
-0.0010362008
-0.00087833898
-0.0003390423
-0.0011925355
0.0013763146
-0.19392856
-0.19863501
-0.19336145
-0.18445692
-0.17695404
-0.16994596
-0.16244542
-0.15458794
-0.1466394
-0.13866297
-0.13067823
-0.12273809
-0.11490181
-0.10721675
-0.099721914
-0.09245179
-0.085436019
-0.078698861
-0.072259535
-0.066132659
-0.060328559
-0.054853572
-0.049710382
-0.044898378
-0.040414002
-0.036251097
-0.032401263
-0.028854194
-0.025598016
-0.022619607
-0.019904897
-0.017439156
-0.015207258
-0.013193919
-0.01138392
-0.0097622998
-0.0083145404
-0.0070267064
-0.0058856591
-0.0048789883
-0.003995801
-0.0032249021
-0.0025608527
-0.0019869118
-0.0015250974
-0.0010951348
-0.00090968487
-0.00038576541
-0.0011019822
0.0011923301
-0.18337915
-0.18919937
-0.18572612
-0.17698729
-0.16978425
-0.16352794
-0.15682792
-0.14968437
-0.14239323
-0.13502952
-0.12760301
-0.12016225
-0.11276898
-0.10547424
-0.098320603
-0.091346382
-0.084585254
-0.078065488
-0.071810139
-0.065837466
-0.060161209
-0.054790879
-0.049732091
-0.044986912
-0.040554223
-0.036430074
-0.032608046
-0.029079603
-0.025834442
-0.022860819
-0.020145872
-0.017675917
-0.015436722
-0.013413764
-0.011592463
-0.0099583851
-0.0084974403
-0.0071960354
-0.0060412873
-0.0050209882
-0.0041243162
-0.0033402585
-0.00266293
-0.0020766165
-0.0015995927
-0.001160628
-0.0009433673
-0.0004405953
-0.0010007633
0.00099391087
-0.17464035
-0.17786112
-0.17558379
-0.16856308
-0.16221051
-0.15664815
-0.15071495
-0.14430149
-0.13767442
-0.13092885
-0.12407667
-0.11716027
-0.11024015
-0.1033692
-0.096592092
-0.089949521
-0.083478076
-0.077209242
-0.071169368
-0.065379994
-0.059858082
-0.054616248
-0.049663049
-0.045003323
-0.040638522
-0.036567069
-0.032784712
-0.029284877
-0.026059026
-0.023096988
-0.02038729
-0.017917462
-0.015674329
-0.013644273
-0.011813479
-0.010168158
-0.0086947469
-0.0073800814
-0.0062116054
-0.005177375
-0.00426668
-0.0034687402
-0.0027771966
-0.0021774939
-0.0016837871
-0.0012348142
-0.00098245288
-0.00050231662
-0.00089191277
0.00077651296
-0.1649615
-0.16557364
-0.16374192
-0.15879732
-0.15367474
-0.14885505
-0.14371299
-0.13811128
-0.1322273
-0.12616185
-0.11994264
-0.11361008
-0.10722132
-0.10082988
-0.094482278
-0.088221205
-0.082085743
-0.07611034
-0.07032454
-0.064753163
-0.059416473
-0.054330341
-0.049506475
-0.044952715
-0.040673346
-0.03666943
-0.032939151
-0.029478166
-0.026279952
-0.023336154
-0.020636909
-0.018171172
-0.015927006
-0.013891866
-0.012052854
-0.010396951
-0.0089112372
-0.0075830703
-0.0064003016
-0.0053513151
-0.0044255628
-0.0036125322
-0.0029054115
-0.0022908072
-0.0017787324
-0.0013178766
-0.0010281709
-0.00056837113
-0.00078301314
0.0005502321
-0.15439153
-0.15312391
-0.15131428
-0.14808456
-0.14425523
-0.14024042
-0.13589543
-0.13113771
-0.12605072
-0.12071751
-0.11518121
-0.10948485
-0.10368142
-0.097823304
-0.091957956
-0.08612932
-0.080378225
-0.074741517
-0.06925157
-0.063936275
-0.058819109
-0.053919214
-0.049251557
-0.044827152
-0.040653331
-0.036734045
-0.033070179
-0.02965989
-0.026498947
-0.023581068
-0.020898255
-0.018441116
-0.016199174
-0.014161149
-0.012315234
-0.010649339
-0.0091513173
-0.007809166
-0.006611241
-0.0055463329
-0.0046041216
-0.003774399
-0.0030499546
-0.0024185002
-0.0018860833
-0.0014108283
-0.001082005
-0.00063810264
-0.00068010781
0.00032319965
-0.14260419
-0.14054489
-0.13884985
-0.13689445
-0.13423598
-0.1310572
-0.12749935
-0.1235663
-0.11928015
-0.11469672
-0.10986692
-0.10483546
-0.099650759
-0.094362845
-0.089018996
-0.083663386
-0.078337481
-0.073079534
-0.067923985
-0.062901225
-0.058037523
-0.053355016
-0.048871771
-0.044601929
-0.040555908
-0.036740646
-0.033159884
-0.029814462
-0.026702644
-0.023820444
-0.021161948
-0.018719638
-0.016484699
-0.014447319
-0.012596962
-0.010922631
-0.0094131021
-0.0080571411
-0.0068437209
-0.0057621311
-0.0048023618
-0.0039545536
-0.003211182
-0.0025609722
-0.0020063385
-0.0015139665
-0.0011449229
-0.00071104635
-0.00058919415
0.00010409364
-0.12990943
-0.1279794
-0.12663248
-0.12558917
-0.12389434
-0.12152523
-0.11872772
-0.11557335
-0.11205896
-0.10821412
-0.10408875
-0.099729252
-0.095178572
-0.090481637
-0.085684358
-0.080830379
-0.075960812
-0.071114172
-0.066325961
-0.06162825
-0.057049449
-0.05261417
-0.048343201
-0.044253553
-0.040358575
-0.036668136
-0.03318884
-0.029924283
-0.026875342
-0.024040469
-0.021416001
-0.018996472
-0.016774914
-0.014743161
-0.012892124
-0.011212059
-0.0096928187
-0.0083240731
-0.0070955338
-0.0059970919
-0.0050191427
-0.0041522278
-0.0033886183
-0.0027179403
-0.0021394383
-0.0016272018
-0.0012175879
-0.00078676458
-0.00051618629
-9.7746474e-05
-0.11702298
-0.1156732
-0.11481498
-0.11442747
-0.1134882
-0.11185433
-0.10976761
-0.10733042
-0.10453603
-0.10139627
-0.097953237
-0.094251255
-0.090330165
-0.086229274
-0.08198966
-0.07765324
-0.073260144
-0.068848217
-0.064452939
-0.060107096
-0.055840408
-0.051679276
-0.047646643
-0.043761943
-0.040041133
-0.036496784
-0.033138232
-0.029971772
-0.027000896
-0.024226551
-0.021647419
-0.019260205
-0.01705993
-0.015040218
-0.013193581
-0.011511682
-0.0099855922
-0.0086060208
-0.0073635438
-0.0062487623
-0.0052525802
-0.0043660011
-0.0035812209
-0.002888649
-0.0022849153
-0.0017501919
-0.0013003658
-0.00086502898
-0.00046612065
-0.00027344108
-0.104488
-0.10380478
-0.10346246
-0.10356898
-0.10321778
-0.10222121
-0.1007761
-0.098986132
-0.09684786
-0.094363586
-0.091565635
-0.088492985
-0.085180976
-0.081664574
-0.077980273
-0.074165613
-0.070258321
-0.066294874
-0.062309896
-0.058335932
-0.054403121
-0.050538859
-0.046767561
-0.043110512
-0.039585804
-0.036208344
-0.032989928
-0.029939365
-0.027062655
-0.024363192
-0.021842009
-0.019498032
-0.017328348
-0.015328479
-0.013492651
-0.011814059
-0.010285122
-0.0088977149
-0.0076433973
-0.0065135892
-0.0054998107
-0.0045935963
-0.0037872065
-0.0030717304
-0.0024417829
-0.0018822694
-0.0013932132
-0.00094583272
-0.0004423838
-0.0004158182
-0.092590075
-0.092492936
-0.092619052
-0.093113226
-0.09322337
-0.092761672
-0.091877209
-0.090659937
-0.089108677
-0.087220976
-0.085020077
-0.082537934
-0.079804621
-0.07685001
-0.073706135
-0.070406407
-0.066984592
-0.063474498
-0.059909136
-0.05632004
-0.052736927
-0.049187383
-0.045696562
-0.042286949
-0.038978215
-0.035787135
-0.032727586
-0.0298106
-0.027044466
-0.024434887
-0.021985166
-0.019696418
-0.017567811
-0.01559681
-0.01377943
-0.012110487
-0.010583849
-0.0091926608
-0.0079295759
-0.006786935
-0.0057569797
-0.0048318489
-0.0040040118
-0.0032651598
-0.0026084912
-0.0020223909
-0.0014956
-0.0010292858
-0.00044612682
-0.00052054482
-0.081469547
-0.081828418
-0.082336969
-0.083133742
-0.083604729
-0.083580146
-0.083170996
-0.082449394
-0.081413743
-0.080058674
-0.078399782
-0.076461659
-0.074268614
-0.071845247
-0.069218485
-0.066417363
-0.063471789
-0.060411959
-0.057268194
-0.054070269
-0.050846767
-0.047624714
-0.044429274
-0.041283465
-0.038207931
-0.035220788
-0.032337543
-0.029571075
-0.026931671
-0.024427112
-0.022062811
-0.019841973
-0.01776579
-0.01583366
-0.014043408
-0.012391522
-0.010873383
-0.0094834913
-0.0082156786
-0.0070632979
-0.0060194094
-0.0050768317
-0.004228383
-0.0034663137
-0.0027829642
-0.0021691332
-0.0016064831
-0.0011154611
-0.0004759788
-0.00058696077
-0.071186876
-0.071873698
-0.072668622
-0.073690433
-0.07443659
-0.074759143
-0.074740971
-0.074437603
-0.073845349
-0.072956423
-0.071780095
-0.070334028
-0.068636664
-0.066707285
-0.06456763
-0.062241865
-0.059755706
-0.057135667
-0.054408726
-0.051602045
-0.04874238
-0.045855533
-0.042966001
-0.040096672
-0.037268548
-0.034500527
-0.031809251
-0.029209016
-0.026711746
-0.024327013
-0.022062108
-0.019922157
-0.017910265
-0.016027695
-0.014274054
-0.012647506
-0.011144978
-0.009762372
-0.0084947672
-0.0073366007
-0.0062818361
-0.0053240452
-0.004456526
-0.0036720798
-0.0029626817
-0.0023207153
-0.0017243182
-0.0012042266
-0.00052814341
-0.00061837144
-0.061753984
-0.062661563
-0.063654181
-0.064830019
-0.065775915
-0.066364403
-0.066657502
-0.066697001
-0.066476758
-0.065986841
-0.065231295
-0.064221654
-0.062970786
-0.061492803
-0.059804359
-0.057924703
-0.05587501
-0.053677802
-0.051356528
-0.048935215
-0.046438109
-0.043889164
-0.041311595
-0.038727534
-0.036157736
-0.033621312
-0.031135515
-0.028715597
-0.026374708
-0.024123865
-0.021971957
-0.019925806
-0.017990262
-0.016168329
-0.014461325
-0.012869048
-0.011389966
-0.010021404
-0.008759726
-0.0076005065
-0.0065386826
-0.0055686472
-0.004684296
-0.0038790041
-0.0031447918
-0.0024750468
-0.0018471177
-0.0012951114
-0.00059693756
-0.00062160536
-0.053156074
-0.054200263
-0.055316069
-0.056583975
-0.057663921
-0.05844662
-0.05897828
-0.059289798
-0.05937299
-0.059216231
-0.058819352
-0.05818869
-0.057332133
-0.056259008
-0.054981168
-0.053513101
-0.051871437
-0.050074486
-0.048141906
-0.046094354
-0.043953121
-0.041739749
-0.039475608
-0.037181513
-0.034877393
-0.032582009
-0.030312699
-0.028085174
-0.025913376
-0.023809377
-0.021783335
-0.019843492
-0.017996222
-0.016246106
-0.014596047
-0.013047401
-0.011600132
-0.010252973
-0.0090035858
-0.0078487157
-0.0067843246
-0.0058056866
-0.0049073977
-0.0040834538
-0.0033262419
-0.0026297998
-0.0019725529
-0.0013872455
-0.00067568662
-0.00060582848
-0.045362357
-0.046478872
-0.047658625
-0.04896759
-0.050126335
-0.051041653
-0.05174769
-0.052266901
-0.052589751
-0.052703537
-0.052604863
-0.052295867
-0.051780221
-0.051063049
-0.050151869
-0.049056754
-0.047789983
-0.046365697
-0.044799649
-0.043108926
-0.04131162
-0.039426475
-0.037472545
-0.035468823
-0.033433894
-0.03138564
-0.029340958
-0.027315527
-0.025323614
-0.023377931
-0.021489532
-0.019667764
-0.017920257
-0.016252956
-0.014670181
-0.013174726
-0.011767969
-0.010450003
-0.009219772
-0.0080752015
-0.0070133111
-0.006030305
-0.0051215653
-0.0042817695
-0.0035039079
-0.0027824971
-0.0020980963
-0.0014793916
-0.0007578055
-0.00058083336
-0.038331449
-0.03947249
-0.040671084
-0.04198135
-0.04317434
-0.0441711
-0.044996671
-0.0456671
-0.046172209
-0.046498873
-0.046641423
-0.046598783
-0.046371258
-0.045960481
-0.045370243
-0.044606699
-0.043678148
-0.042594796
-0.041368582
-0.040012982
-0.038542751
-0.036973621
-0.035321994
-0.033604638
-0.031838351
-0.030039659
-0.028224535
-0.02640814
-0.024604602
-0.022826836
-0.021086394
-0.019393375
-0.017756359
-0.016182394
-0.01467701
-0.013244273
-0.011886854
-0.010606127
-0.0094022698
-0.0082743705
-0.0072205187
-0.0062378828
-0.0053226973
-0.0044703864
-0.0036747047
-0.0029306063
-0.0022211828
-0.0015700563
-0.00083778545
-0.00055523613
-0.032015918
-0.033147189
-0.034331681
-0.035613801
-0.036806612
-0.037843756
-0.038743504
-0.03951715
-0.040154485
-0.04064255
-0.040974272
-0.04114629
-0.041156388
-0.04100347
-0.040688291
-0.040213697
-0.039584508
-0.038807377
-0.037890693
-0.03684446
-0.035680107
-0.034410269
-0.033048524
-0.031609134
-0.030106766
-0.0285562
-0.026972054
-0.025368529
-0.023759168
-0.022156652
-0.020572626
-0.019017558
-0.017500642
-0.016029733
-0.014611322
-0.01325054
-0.011951194
-0.010715816
-0.0095457398
-0.008441169
-0.0074012506
-0.0064241313
-0.0055069439
-0.004645917
-0.0038356676
-0.0030716261
-0.0023393612
-0.0016576403
-0.00091183245
-0.00053508757
-0.026365709
-0.027463748
-0.028611236
-0.029844608
-0.031011849
-0.032057645
-0.032995302
-0.033832658
-0.034559948
-0.035164849
-0.035639615
-0.035979423
-0.036180319
-0.036239225
-0.03615457
-0.035926551
-0.035557092
-0.035049787
-0.034409865
-0.033644138
-0.032760884
-0.031769696
-0.030681291
-0.029507294
-0.028260012
-0.026952189
-0.025596748
-0.024206546
-0.02279414
-0.021371571
-0.019950169
-0.01854039
-0.017151683
-0.01579239
-0.014469678
-0.013189504
-0.01195661
-0.010774532
-0.0096456421
-0.0085711838
-0.0075513187
-0.0065851625
-0.0056707663
-0.0048052057
-0.0039840097
-0.0032031609
-0.0024504074
-0.0017405825
-0.00097799152
-0.00052328667
-0.021330444
-0.022380298
-0.023475963
-0.024647287
-0.025771282
-0.026802247
-0.027749855
-0.028619483
-0.029402128
-0.030086445
-0.030664586
-0.031130939
-0.031480499
-0.03170888
-0.03181286
-0.031790642
-0.031641869
-0.031367628
-0.030970463
-0.030454383
-0.029824811
-0.029088494
-0.028253377
-0.027328451
-0.026323575
-0.025249277
-0.024116542
-0.022936592
-0.02172066
-0.020479784
-0.01922461
-0.017965211
-0.016710935
-0.015470274
-0.014250769
-0.013058934
-0.011900212
-0.010778957
-0.0096984252
-0.0086607921
-0.0076671605
-0.0067175772
-0.0058110041
-0.0049453843
-0.0041171722
-0.0033229854
-0.0025523867
-0.0018174623
-0.0010357955
-0.00051988704
-0.016861308
-0.017854561
-0.018889921
-0.019991735
-0.021061175
-0.022060843
-0.022997756
-0.023875545
-0.024686159
-0.025419436
-0.026067837
-0.026625489
-0.027086887
-0.027446909
-0.027701281
-0.027846817
-0.027881477
-0.027804397
-0.027615958
-0.027317821
-0.026912933
-0.026405494
-0.025800888
-0.025105592
-0.02432705
-0.023473522
-0.022553925
-0.021577645
-0.020554342
-0.019493762
-0.018405544
-0.017299044
-0.016183171
-0.015066241
-0.013955856
-0.012858802
-0.011780973
-0.010727319
-0.0097018058
-0.008707395
-0.0077460279
-0.0068186144
-0.005924991
-0.0050639617
-0.0042328948
-0.0034291125
-0.0026436748
-0.0018870524
-0.0010856456
-0.00052304805
-0.01291211
-0.013845258
-0.014816693
-0.015846108
-0.016854811
-0.017812546
-0.018724363
-0.019592651
-0.020410387
-0.021168685
-0.021860582
-0.02248032
-0.023022311
-0.023481153
-0.023852012
-0.024130841
-0.024314449
-0.024400562
-0.024387904
-0.024276267
-0.024066552
-0.02376078
-0.023362073
-0.022874612
-0.022303565
-0.02165499
-0.020935713
-0.020153192
-0.019315361
-0.018430464
-0.017506884
-0.016552982
-0.015576929
-0.014586562
-0.013589247
-0.012591756
-0.011600175
-0.010619812
-0.0096551405
-0.0087097415
-0.0077862622
-0.0068863789
-0.0060107379
-0.0051589705
-0.0043293275
-0.0035198831
-0.0027229687
-0.0019483411
-0.0011282104
-0.0005301764
-0.0094408388
-0.010313916
-0.011221378
-0.012178919
-0.013124667
-0.014034484
-0.014911932
-0.015758503
-0.016568195
-0.017333395
-0.01804787
-0.018706218
-0.019303061
-0.019833049
-0.020291174
-0.020672952
-0.020974497
-0.021192594
-0.021324784
-0.021369454
-0.021325896
-0.021194352
-0.020976032
-0.020673113
-0.020288712
-0.019826837
-0.019292308
-0.018690667
-0.018028061
-0.017311119
-0.0165468
-0.015742259
-0.014904691
-0.014041194
-0.013158628
-0.012263489
-0.011361792
-0.010458972
-0.0095597915
-0.0086682678
-0.0077876002
-0.00692011
-0.0060671627
-0.0052291577
-0.0044051807
-0.0035940787
-0.0027893148
-0.0020005546
-0.0011640509
-0.00053883499
-0.0064094943
-0.0072251664
-0.0080713081
-0.0089601454
-0.0098438699
-0.010703559
-0.011541627
-0.012358888
-0.0131503
-0.013909455
-0.014630905
-0.015309744
-0.015940981
-0.016519546
-0.017040529
-0.01749933
-0.01789173
-0.018213963
-0.0184628
-0.018635638
-0.018730575
-0.018746473
-0.018683
-0.018540658
-0.018320798
-0.0180256
-0.017658045
-0.017221861
-0.016721446
-0.016161784
-0.015548337
-0.014886922
-0.014183592
-0.013444504
-0.012675795
-0.01188345
-0.011073183
-0.010250327
-0.0094197266
-0.0085856414
-0.0077516571
-0.0069206014
-0.0060944473
-0.0052742811
-0.0044599599
-0.0036510962
-0.0028422008
-0.0020432211
-0.0011935342
-0.00054722352
-0.0037858686
-0.0045483414
-0.0053374871
-0.0061624621
-0.0069872163
-0.0077972599
-0.008594098
-0.0093780128
-0.010144819
-0.010889211
-0.01160651
-0.01229236
-0.012942253
-0.013551527
-0.014115545
-0.014629817
-0.015090057
-0.015492251
-0.015832728
-0.01610825
-0.01631609
-0.016454093
-0.016520743
-0.016515209
-0.016437379
-0.016287876
-0.016068065
-0.015780029
-0.015426537
-0.015010988
-0.014537347
-0.01401005
-0.013433915
-0.012814031
-0.012155648
-0.011464058
-0.010744483
-0.010001954
-0.0092412009
-0.008466545
-0.0076817899
-0.0068901228
-0.0060940005
-0.0052950973
-0.0044939636
-0.0036909432
-0.0028815325
-0.0020761489
-0.0012168561
-0.00055422218
-0.0015442996
-0.0022593756
-0.002997478
-0.0037651373
-0.0045360683
-0.0052994952
-0.0060561842
-0.0068059853
-0.0075454513
-0.0082702422
-0.0089763917
-0.0096600889
-0.010317331
-0.010943918
-0.011535584
-0.012088084
-0.012597247
-0.013059021
-0.013469551
-0.013825242
-0.014122841
-0.014359501
-0.014532844
-0.014641025
-0.014682782
-0.014657471
-0.014565094
-0.014406316
-0.01418245
-0.013895446
-0.013547852
-0.013142762
-0.012683748
-0.012174778
-0.011620131
-0.011024292
-0.010391847
-0.0097273747
-0.0090353318
-0.0083199385
-0.0075850631
-0.0068341096
-0.0060698907
-0.0052945591
-0.0045092673
-0.0037150294
-0.0029082623
-0.0020999149
-0.0012345204
-0.00055946058
0.00033932197
-0.00033417788
-0.0010274464
-0.001744637
-0.0024675199
-0.0031884275
-0.0039075248
-0.0046242956
-0.0053359048
-0.0060388327
-0.0067297394
-0.0074053143
-0.0080620361
-0.0086961666
-0.0093038395
-0.0098811236
-0.01042406
-0.010928703
-0.011391179
-0.011807743
-0.012174849
-0.012489208
-0.012747858
-0.012948222
-0.013088171
-0.013166072
-0.013180832
-0.013131936
-0.013019462
-0.01284409
-0.012607098
-0.01231034
-0.0119562
-0.01154755
-0.011087677
-0.010580204
-0.010029007
-0.0094381091
-0.0088115737
-0.008153394
-0.007467372
-0.0067569991
-0.0060253211
-0.0052748564
-0.0045072582
-0.0037241303
-0.0029227266
-0.0021145096
-0.0012463425
-0.00056244296
0.0018621591
0.0012224376
0.00056598489
-0.00010960189
-0.00079251156
-0.0014775212
-0.0021642994
-0.0028520332
-0.0035383773
-0.0042204765
-0.0048955089
-0.0055605904
-0.0062126216
-0.0068482814
-0.007464083
-0.0080564156
-0.0086215725
-0.009155783
-0.0096552564
-0.010116232
-0.010535034
-0.010908127
-0.01123218
-0.011504124
-0.011721214
-0.01188109
-0.011981827
-0.012021985
-0.01200065
-0.011917459
-0.011772617
-0.011566901
-0.011301652
-0.010978745
-0.010600547
-0.010169861
-0.0096898501
-0.0091639587
-0.0085958102
-0.0079891007
-0.0073474815
-0.0066744368
-0.005973144
-0.0052463846
-0.0044962088
-0.0037247124
-0.0029298817
-0.0021236209
-0.0012549264
-0.00056448373
0.0030649918
0.0024530468
0.0018267273
0.0011852572
0.00053542239
-0.00011951245
-0.000778831
-0.0014414695
-0.0021054537
-0.0027684463
-0.0034280356
-0.0040816814
-0.0047266302
-0.0053599105
-0.0059783639
-0.0065786709
-0.00715737
-0.0077108833
-0.0082355496
-0.0087276647
-0.0091835261
-0.0095994836
-0.0099719933