/*--------------------------------*- C++ -*----------------------------------*\
  =========                 |
  \\      /  F ield         | OpenFOAM: The Open Source CFD Toolbox
   \\    /   O peration     | Website:  https://openfoam.org
    \\  /    A nd           | Version:  6
     \\/     M anipulation  |
\*---------------------------------------------------------------------------*/
FoamFile
{
    version     2.0;
    format      ascii;
    class       volScalarField;
    location    "245";
    object      pPrime2Mean;
}
// * * * * * * * * * * * * * * * * * * * * * * * * * * * * * * * * * * * * * //

dimensions      [0 4 -4 0 0 0 0];

internalField   nonuniform List<scalar> 
9200
(
0.045927105
0.038074451
0.03142602
0.027097433
0.023642041
0.020729396
0.018215879
0.016028239
0.014117714
0.012445262
0.010978555
0.0096904998
0.0085582315
0.0075623315
0.0066862268
0.0059157467
0.0052388954
0.004645664
0.0041285883
0.0036779055
0.03725435
0.030826967
0.025451809
0.021918364
0.019083152
0.016686173
0.014614603
0.01281088
0.011236237
0.0098594343
0.0086543955
0.00759907
0.0066746523
0.005864982
0.0051560828
0.0045358332
0.0039937918
0.0035209562
0.0031089156
0.0027456752
0.02912215
0.024065671
0.019886309
0.017101626
0.014849144
0.012935444
0.011277212
0.0098320667
0.0085710775
0.007470588
0.0065104664
0.0056733112
0.0049439304
0.0043089566
0.0037565729
0.0032763321
0.002859053
0.002496625
0.0021808924
0.0019011617
0.021756045
0.017972756
0.014875689
0.012771982
0.011048754
0.0095731555
0.0082892698
0.0071689768
0.0061926345
0.0053435698
0.0046069404
0.0039693283
0.0034185361
0.0029434753
0.0025341192
0.0021814864
0.0018776217
0.0016154656
0.0013880482
0.001187275
0.015359218
0.012711966
0.010554537
0.0090455875
0.0077843344
0.0066907513
0.0057334165
0.0048970764
0.0041703911
0.0035426736
0.0030034084
0.0025423062
0.0021494815
0.0018156502
0.0015323063
0.0012918439
0.0010875973
0.00091376542
0.0007649828
0.00063581737
0.010110722
0.0084259682
0.0070422043
0.006026312
0.005148106
0.0043713328
0.0036853886
0.0030859552
0.0025685318
0.0021270695
0.0017542144
0.0014418921
0.0011818944
0.00096636065
0.00078811839
0.00064087221
0.00051924859
0.00041873287
0.00033550188
0.00026619893
0.0061602823
0.0052329525
0.0044401867
0.003803505
0.0032201714
0.0026877352
0.0022119888
0.0017970875
0.0014435118
0.001148295
0.00090603906
0.00071004633
0.00055326695
0.00042897451
0.00033117094
0.00025476125
0.0001955551
0.00015018466
0.00011607224
9.1257338e-05
0.0036244873
0.0032242976
0.0028302593
0.0024502632
0.0020667514
0.0017005929
0.0013689253
0.0010815057
0.00084171695
0.00064809499
0.00049609624
0.00037970395
0.0002926176
0.00022899543
0.00018382284
0.00015301362
0.00013334617
0.00012235275
0.0001183232
0.00012010967
0.0025835523
0.0024620051
0.0022710604
0.0020197278
0.0017367815
0.0014555019
0.0011986105
0.00097821515
0.00079844145
0.00065789504
0.00055201742
0.00047497935
0.00042093003
0.00038467587
0.00036194168
0.00034937647
0.00034443144
0.00034522596
0.00035051941
0.00035949845
0.0030778537
0.0029766301
0.0027944868
0.0025416135
0.0022586225
0.0019796023
0.0017265101
0.0015104322
0.0013342483
0.0011955069
0.001089038
0.0010088687
0.00094934502
0.00090564569
0.00087391473
0.00085118572
0.00083522728
0.00082439561
0.00081752687
0.0008137325
0.10896931
0.09164754
0.075744298
0.065688134
0.057703396
0.051001292
0.045231063
0.040203477
0.035801384
0.031932711
0.02852224
0.025507699
0.022836928
0.020465831
0.018356861
0.016477858
0.014801143
0.013301928
0.011956936
0.010752705
0.10758217
0.090392204
0.074671096
0.064730451
0.056845747
0.050229081
0.044532795
0.039570771
0.035227203
0.031410903
0.028047366
0.025074921
0.022441924
0.020104733
0.018026201
0.016174534
0.014522417
0.013045424
0.011720145
0.010533581
0.10475272
0.087906833
0.07257927
0.062885831
0.055205934
0.048762463
0.043215244
0.03838399
0.034155933
0.03044208
0.027169665
0.024278437
0.021717941
0.01944555
0.017424995
0.015625258
0.014019764
0.012584812
0.011297068
0.01014377
0.10053041
0.084251791
0.069529256
0.060211534
0.052835796
0.046648376
0.041321381
0.03668276
0.032624304
0.02906044
0.025921132
0.023148342
0.020693452
0.018515385
0.016579197
0.01485501
0.013317285
0.011943368
0.010710395
0.0096054494
0.095030524
0.079530787
0.065609401
0.056786575
0.049806223
0.043950736
0.03890925
0.03452009
0.030680948
0.027310777
0.024343169
0.021723034
0.019404193
0.017347609
0.015520068
0.013893157
0.012442587
0.011147001
0.009984655
0.0089423079
0.088409748
0.073881187
0.06093428
0.052711916
0.046207163
0.040750127
0.036051369
0.03196145
0.028385139
0.025246879
0.022484687
0.020047073
0.01789083
0.015979408
0.014281687
0.012771001
0.011424484
0.010222189
0.0091442368
0.0081774517
0.080858322
0.067467729
0.055639516
0.048105958
0.042143576
0.03714018
0.032831535
0.029081959
0.025804311
0.022929346
0.020400177
0.018169484
0.016197512
0.014450604
0.012900073
0.011521276
0.01029294
0.0091965373
0.0082145941
0.007334865
0.07259314
0.060476685
0.04987742
0.043100899
0.037732185
0.033224639
0.029342205
0.025964109
0.023012109
0.020423933
0.018148354
0.016142699
0.014371089
0.012803131
0.011412895
0.010178063
0.0090792056
0.008099297
0.0072235809
0.0064416019
0.06384991
0.053108915
0.043811478
0.037837892
0.033097154
0.029113528
0.02568111
0.022694746
0.020085702
0.0177992
0.015790116
0.014020818
0.012459651
0.011079801
0.0098583984
0.0087757462
0.0078146112
0.0069598074
0.0061996529
0.0055255357
0.054874611
0.045574253
0.03761052
0.032460894
0.028364097
0.02491751
0.021946067
0.019360466
0.017101861
0.015123306
0.013386065
0.011857791
0.010511263
0.0093234331
0.0082746839
0.0073482134
0.0065295544
0.0058065116
0.0051714885
0.0046162533
0.0094823593
0.0082159556
0.0071422682
0.0062102308
0.0054141174
0.0047322832
0.0041459469
0.0036389965
0.0031983339
0.0028133224
0.0024753479
0.0021775097
0.0019142683
0.0016811193
0.0014743488
0.0012908552
0.0011280124
0.00098356705
0.00085556217
0.00074228084
0.00064220284
0.00055397144
0.00047636775
0.00040829066
0.00034874142
0.00029681157
0.0002516735
0.00021257287
0.00017882262
0.00014979779
0.00012493135
0.00010371022
8.5671896e-05
7.0400991e-05
5.7526166e-05
4.6716889e-05
3.7680502e-05
3.0159024e-05
2.3926551e-05
1.8785636e-05
1.4566438e-05
1.1119069e-05
8.324366e-06
6.0580164e-06
4.2710059e-06
2.799425e-06
1.7807941e-06
8.1946775e-07
1.0787924e-06
1.7872388e-06
0.0092984336
0.0080740214
0.0070310439
0.0061225986
0.0053458576
0.004679662
0.0041054178
0.0036076218
0.0031738454
0.0027939836
0.002459866
0.0021649571
0.0019039874
0.001672637
0.0014673173
0.0012850114
0.0011231516
0.00097952482
0.00085220408
0.00073949515
0.00063989588
0.00055206435
0.00047479405
0.00040699437
0.00034767542
0.00029593636
0.00025095602
0.00021198557
0.00017834256
0.00014940599
0.00012461207
0.00010345051
8.5461047e-05
7.0230211e-05
5.7388222e-05
4.6605835e-05
3.7591454e-05
3.0087972e-05
2.38702e-05
1.8741285e-05
1.4531871e-05
1.1092478e-05
8.3042788e-06
6.0432606e-06
4.2606262e-06
2.7926718e-06
1.7772258e-06
8.1735102e-07
1.0723694e-06
1.7527737e-06
0.0089747799
0.0078259287
0.0068385373
0.0059733716
0.005231426
0.0045928138
0.0040395226
0.003557263
0.0031349344
0.0027634846
0.0024355776
0.0021453342
0.0018879547
0.001659433
0.0014563874
0.0012759395
0.0011156145
0.00097326423
0.00084700859
0.00073518927
0.0006363326
0.00054912002
0.00047236459
0.00040499229
0.00034602736
0.00029458096
0.00024984217
0.00021107081
0.00017759177
0.00014879014
0.00012410729
0.00010303715
8.5122973e-05
6.9954172e-05
5.7163333e-05
4.6423148e-05
3.74436e-05
2.9968875e-05
2.3774844e-05
1.8665528e-05
1.4472288e-05
1.1046247e-05
8.2690841e-06
6.017227e-06
4.2422426e-06
2.7806806e-06
1.7709842e-06
8.1362258e-07
1.0595339e-06
1.685452e-06
0.0085312863
0.0074870108
0.0065785787
0.0057759451
0.0050827864
0.0044816312
0.0039561216
0.0034939916
0.0030862017
0.0027253175
0.0024051877
0.0021207929
0.0018679265
0.0016429703
0.0014427952
0.001264691
0.0011062979
0.00096554912
0.00084062449
0.00072991205
0.00063197526
0.00054552599
0.00046940275
0.00040255304
0.00034401933
0.00029292821
0.00024848179
0.0002099509
0.00017666959
0.00014803065
0.00012348176
0.00010252207
8.4699118e-05
6.9605801e-05
5.6877531e-05
4.6189301e-05
3.7252952e-05
2.9814185e-05
2.3650103e-05
1.856574e-05
1.4393296e-05
1.0984591e-05
8.2219059e-06
5.9821886e-06
4.2174416e-06
2.7645285e-06
1.7626037e-06
8.0873817e-07
1.0402798e-06
1.5887235e-06
0.0079875048
0.007072877
0.0062653935
0.0055439492
0.0049119338
0.0043556532
0.0038624171
0.0034231488
0.0030316031
0.0026824781
0.0023710624
0.0020932835
0.0018455602
0.0016246838
0.0014277938
0.0012523622
0.0010961585
0.00095721025
0.00083376896
0.00072427885
0.00062734857
0.00054172702
0.00046628338
0.0003999908
0.00034191327
0.00029119536
0.0002470542
0.00020877309
0.00017569641
0.00014722543
0.00012281475
0.00010196914
8.4240699e-05
6.9225955e-05
5.656324e-05
4.5929886e-05
3.7039594e-05
2.9639565e-05
2.350811e-05
1.8451248e-05
1.4301998e-05
1.091286e-05
8.1667129e-06
5.9410297e-06
4.1882328e-06
2.7455746e-06
1.7527392e-06
8.0328125e-07
1.0147909e-06
1.4676546e-06
0.0073601355
0.0065977078
0.005911806
0.0052884682
0.0047276267
0.0042209917
0.0037623695
0.003347375
0.0029730756
0.002636544
0.0023346003
0.0020641045
0.001822075
0.0016057102
0.0014124302
0.0012399056
0.0010860517
0.00094900741
0.00082711014
0.00071887194
0.00062295588
0.000538155
0.00046337454
0.00039761726
0.00033997153
0.00028960198
0.00024574212
0.00020768865
0.00017479678
0.0001464765
0.00012218939
0.00010144578
8.3802074e-05
6.8858241e-05
5.6255255e-05
4.5672508e-05
3.6825297e-05
2.9462074e-05
2.3362134e-05
1.8332292e-05
1.4206219e-05
1.0836965e-05
8.1078965e-06
5.8969447e-06
4.1568313e-06
2.7253075e-06
1.7420766e-06
7.9787405e-07
9.8336497e-07
1.3283945e-06
0.0066654852
0.0060756884
0.0055292346
0.0050161924
0.0045327244
0.0040782152
0.0036555323
0.0032661813
0.0029105736
0.0025879579
0.0022965978
0.0020342625
0.0017985729
0.0015871631
0.0013977749
0.0012283166
0.0010768829
0.00094175003
0.00082136209
0.00071431449
0.00061933607
0.00053527219
0.0004610699
0.00039576547
0.00033847416
0.00028838215
0.00024474016
0.00020685849
0.00017410305
0.00014589218
0.0001216939
0.00010102342
8.3440843e-05
6.8548852e-05
5.599042e-05
4.544639e-05
3.6633097e-05
2.9299752e-05
2.3226202e-05
1.8219682e-05
1.4114209e-05
1.0763117e-05
8.0500493e-06
5.8532505e-06
4.1255123e-06
2.7052362e-06
1.7312762e-06
7.9311531e-07
9.4640474e-07
1.1775964e-06
0.0059238763
0.0055230201
0.0051264386
0.0047261636
0.0043211924
0.0039210176
0.0035372462
0.0031768078
0.0028429663
0.0025367564
0.0022577913
0.0020048474
0.0017762811
0.0015702776
0.0013849966
0.0012186602
0.0010695983
0.00093626423
0.00081723671
0.00071121372
0.00061700279
0.00053351007
0.0004597297
0.00039473454
0.00033766827
0.00028773906
0.00024421459
0.00020641806
0.00017372508
0.00014556118
0.00012139957
0.00010075913
8.3202438e-05
6.8333786e-05
5.5797112e-05
4.527378e-05
3.6480337e-05
2.9166031e-05
2.3110637e-05
1.812129e-05
1.4031903e-05
1.0695738e-05
7.9964017e-06
5.8122524e-06
4.0958128e-06
2.686361e-06
1.7206629e-06
7.8939905e-07
9.0436708e-07
1.0219411e-06
0.0051554586
0.0049466891
0.0046942081
0.0043973635
0.0040701924
0.0037307636
0.0033939887
0.0030696339
0.0027633014
0.0024778238
0.0022143298
0.0019728764
0.001752828
0.0015531303
0.0013725128
0.0012096217
0.0010630999
0.00093163173
0.000813967
0.00070893099
0.00061542663
0.00053243196
0.00045899565
0.00039423201
0.0003373163
0.00028748065
0.00024401076
0.00020624327
0.00017356362
0.00014540433
0.00012124342
0.0001006029
8.3047261e-05
6.8181773e-05
5.5650721e-05
4.5135388e-05
3.6351979e-05
2.9049268e-05
2.3006514e-05
1.8030346e-05
1.3954249e-05
1.0631124e-05
7.9442958e-06
5.7720972e-06
4.0664503e-06
2.6678506e-06
1.7095236e-06
7.8653366e-07
8.5791791e-07
8.6828485e-07
0.0043908147
0.0043290359
0.0041915631
0.0039917818
0.0037506554
0.0034854187
0.0032086898
0.0029310575
0.0026604558
0.0024019795
0.0021586555
0.0019321484
0.001723132
0.0015315614
0.0013569229
0.0011984256
0.0010551272
0.0009260165
0.00081006681
0.00070626823
0.00061364608
0.00053126996
0.00045825757
0.00039377557
0.00033703902
0.00028731027
0.00024389787
0.00020615552
0.00017348119
0.00014531638
0.00012114534
0.00010049416
8.2929835e-05
6.805896e-05
5.5526296e-05
4.5013052e-05
3.6235003e-05
2.8940315e-05
2.2907561e-05
1.7942698e-05
1.3878619e-05
1.0567714e-05
7.8928939e-06
5.7323758e-06
4.0372757e-06
2.6495693e-06
1.6977647e-06
7.8433306e-07
8.0881616e-07
7.2383797e-07
0.0035589504
0.0035822196
0.0035384248
0.0034315366
0.0032813642
0.0031004764
0.0028975276
0.0026819498
0.0024624423
0.0022454085
0.0020352752
0.0018351034
0.0016468603
0.0014716171
0.0013097858
0.0011613269
0.0010258986
0.00090296326
0.00079186477
0.00069188202
0.00060226503
0.00052225832
0.00045111591
0.00038811093
0.00033254185
0.00028373655
0.0002410551
0.00020389181
0.00017167671
0.00014387655
0.00011999552
9.957542e-05
8.2195597e-05
6.7472369e-05
5.5058124e-05
4.4640068e-05
3.5938682e-05
2.8705842e-05
2.2723042e-05
1.7798581e-05
1.3767166e-05
1.0482804e-05
7.8293105e-06
5.6866988e-06
4.0049809e-06
2.630883e-06
1.684167e-06
7.8304426e-07
7.5771273e-07
5.9666207e-07
0.002758712
0.0028289563
0.0028437748
0.0028031136
0.0027227769
0.0026119637
0.0024757918
0.0023215086
0.0021568862
0.0019880518
0.0018195801
0.0016549949
0.0014968937
0.0013470261
0.0012064647
0.0010757805
0.00095517605
0.000844586
0.00074375711
0.00065230876
0.00056977673
0.00049564462
0.00042936624
0.00037038177
0.00031812948
0.00027205438
0.00023161479
0.00019628751
0.00016557179
0.0001389925
0.00011610249
9.6484279e-05
7.9751194e-05
6.5547831e-05
5.3550044e-05
4.3464447e-05
3.5027516e-05
2.8004275e-05
2.2186958e-05
1.7392685e-05
1.3463189e-05
1.025856e-05
7.6665691e-06
5.5726756e-06
3.926108e-06
2.5838052e-06
1.6506807e-06
7.7524773e-07
6.9246204e-07
4.756861e-07
0.0020704363
0.002171605
0.0022274283
0.0022377027
0.0022121229
0.0021573938
0.0020766559
0.0019750543
0.0018589767
0.001733893
0.001604149
0.0014733438
0.0013443752
0.0012194174
0.0011000148
0.00098721243
0.00088166173
0.00078370644
0.00069345579
0.00061084474
0.00053568071
0.0004676792
0.00040649114
0.00035172375
0.00030295664
0.00025975433
0.00022167618
0.00018828427
0.00015914982
0.00013385832
0.00011201359
9.3240946e-05
7.7189464e-05
6.3533581e-05
5.197395e-05
4.2237718e-05
3.4078304e-05
2.7274664e-05
2.1630419e-05
1.6972043e-05
1.3148704e-05
1.0026952e-05
7.4986764e-06
5.4552505e-06
3.8446178e-06
2.5355446e-06
1.6146686e-06
7.6847042e-07
6.2148862e-07
3.6202263e-07
0.0014919662
0.0016091757
0.001690238
0.001735887
0.0017504723
0.001738435
0.0017018256
0.001643994
0.001569674
0.0014833671
0.001388906
0.0012896499
0.0011884904
0.0010877712
0.00098930725
0.00089446233
0.00080422234
0.00071925838
0.00063998624
0.00056661964
0.00049921449
0.0004377049
0.00038193212
0.0003316681
0.00028663426
0.00024651683
0.00021097925
0.00017967244
0.00015224322
0.00012834122
0.00010762452
8.976416e-05
7.4447668e-05
6.1381624e-05
5.0293475e-05
4.0932608e-05
3.3070813e-05
2.6502175e-05
2.1042683e-05
1.6528972e-05
1.2818292e-05
9.7841836e-06
7.3230366e-06
5.3325287e-06
3.7593369e-06
2.4848626e-06
1.5758774e-06
7.6153754e-07
5.499137e-07
2.6461702e-07
0.0010267231
0.0011446909
0.001236446
0.0013026262
0.0013436297
0.0013617015
0.0013580555
0.0013346433
0.0012945812
0.0012412291
0.0011777076
0.0011069095
0.0010314717
0.00095367499
0.00087540718
0.00079818888
0.00072321148
0.00065137523
0.00058332993
0.000519516
0.00046020168
0.00040551542
0.00035547349
0.00031000345
0.00026896399
0.00023216143
0.00019936379
0.00017031253
0.00014473248
0.0001223402
0.00010285092
8.5984274e-05
7.1468841e-05
5.9045787e-05
4.8471511e-05
3.951953e-05
3.198164e-05
2.5668438e-05
2.0409449e-05
1.6052429e-05
1.2463509e-05
9.5238445e-06
7.1348651e-06
5.2009186e-06
3.6677379e-06
2.429737e-06
1.5333323e-06
7.5316422e-07
4.8065438e-07
1.8815674e-07
0.00067040613
0.00077686856
0.00086707603
0.00094079852
0.00099592492
0.0010327677
0.0010516655
0.0010534689
0.0010399065
0.0010131842
0.00097559969
0.0009294373
0.00087690659
0.00082004084
0.00076062807
0.0007001936
0.00064000581
0.00058108957
0.00052424665
0.00047008151
0.00041902807
0.00037137527
0.00032729051
0.00028684083
0.00025001161
0.00021672301
0.00018684426
0.00016020613
0.00013661166
0.00011584544
9.76815e-05
8.1889959e-05
6.8242509e-05
5.6516874e-05
4.6500288e-05
3.7992113e-05
3.0805683e-05
2.4769444e-05
1.9727611e-05
1.5540026e-05
1.2082526e-05
9.244516e-06
6.9330639e-06
5.059492e-06
3.5691413e-06
2.3693889e-06
1.4868674e-06
7.4242469e-07
4.1610609e-07
1.3426076e-07
0.00041146015
0.00049889415
0.00057872269
0.00064979787
0.00070879258
0.00075462855
0.00078679476
0.00080525346
0.00081063049
0.00080409323
0.0007871044
0.0007612787
0.00072829799
0.00068981969
0.0006473965
0.00060242928
0.0005561461
0.00050959455
0.00046364355
0.0004189931
0.00037618895
0.0003356391
0.00029763101
0.00026234838
0.00022988709
0.00020026996
0.00017346015
0.00014937326
0.0001278882
0.00010885672
9.2111765e-05
7.7474751e-05
6.4761668e-05
5.3788205e-05
4.4373901e-05
3.6345411e-05
2.9538969e-05
2.3802111e-05
1.8994843e-05
1.4990045e-05
1.1674087e-05
8.9452677e-06
6.7169411e-06
4.9076624e-06
3.4631473e-06
2.3032742e-06
1.4365775e-06
7.2848113e-07
3.5810894e-07
1.0163836e-07
0.00023493933
0.00030015652
0.00036436092
0.00042582385
0.00048096236
0.00052793238
0.00056556951
0.00059316228
0.00061052054
0.00061796554
0.00061619996
0.00060618326
0.00058904303
0.00056599335
0.00053825939
0.00050701959
0.00047336544
0.00043827706
0.00040261
0.00036709105
0.00033232062
0.00029877959
0.00026683888
0.00023677056
0.00020875957
0.0001829155
0.00015928404
0.00013785775
0.00011858616
0.00010138498
8.614439e-05
7.2736474e-05
6.102163e-05
5.0854108e-05
4.208664e-05
3.4574209e-05
2.8177029e-05
2.2762787e-05
1.8208273e-05
1.4400295e-05
1.123656e-05
8.6248977e-06
6.4856277e-06
4.7447636e-06
3.3493403e-06
2.2309349e-06
1.3826692e-06
7.1067859e-07
3.0772644e-07
8.6407665e-08
0.00012520455
0.00016816752
0.00021457448
0.00026250238
0.00030868689
0.00035104581
0.00038805986
0.00041859021
0.00044190359
0.00045770094
0.00046606441
0.00046737413
0.0004622352
0.00045141115
0.00043575884
0.00041617186
0.00039353533
0.00036869066
0.00034241123
0.00031538744
0.00028821885
0.00026141185
0.00023538146
0.00021045608
0.00018688424
0.00016484248
0.00014444383
0.00012574655
0.00010876264
9.3466074e-05
7.9800521e-05
6.768642e-05
5.7027362e-05
4.7715725e-05
3.9637528e-05
3.2676533e-05
2.6717595e-05
2.1649309e-05
1.736604e-05
1.3769286e-05
1.0768821e-05
8.282597e-06
6.2385744e-06
4.5704301e-06
3.2275649e-06
2.1522382e-06
1.3255587e-06
6.8876315e-07
2.6531214e-07
8.3080301e-08
6.7494468e-05
9.0168074e-05
0.0001188911
0.0001518344
0.00018631931
0.00022038328
0.00025244405
0.00028118342
0.00030557311
0.00032491976
0.0003388582
0.00034730953
0.00035043363
0.00034858196
0.00034224857
0.00033202163
0.00031854045
0.00030245922
0.0002844172
0.00026501635
0.00024480617
0.00022427397
0.00020383983
0.0001838552
0.00016460444
0.00014630835
0.00012912926
0.0001131769
9.8514902e-05
8.5167405e-05
7.312568e-05
6.2354441e-05
5.2797766e-05
4.4384512e-05
3.7033134e-05
3.0655874e-05
2.5162319e-05
2.0462313e-05
1.6468288e-05
1.3096977e-05
1.0270809e-05
7.9183629e-06
5.975859e-06
4.3848223e-06
3.0980848e-06
2.0674911e-06
1.2658872e-06
6.6295336e-07
2.3067292e-07
8.5905435e-08
4.8831014e-05
5.4239876e-05
6.6871811e-05
8.5154504e-05
0.00010706315
0.00013094805
0.00015537786
0.00017906135
0.00020088283
0.00021995678
0.00023564736
0.00024755801
0.00025550977
0.00025951491
0.00025974569
0.00025649947
0.00025016339
0.00024118178
0.00023002738
0.00021717666
0.00020309023
0.00018819829
0.00017289045
0.00015750921
0.0001423468
0.00012764444
0.00011359379
0.0001003398
8.7984642e-05
7.6592415e-05
6.6194136e-05
5.6792938e-05
4.8369155e-05
4.0885181e-05
3.4289972e-05
2.8523088e-05
2.3518252e-05
1.920636e-05
1.5517993e-05
1.2385369e-05
9.7439428e-06
7.5332809e-06
5.6983743e-06
4.1887465e-06
2.9616547e-06
1.9774718e-06
1.2044945e-06
6.3391903e-07
2.0325576e-07
9.0128498e-08
5.8378928e-05
4.9910319e-05
4.8836386e-05
5.389949e-05
6.3684465e-05
7.6923047e-05
9.2452222e-05
0.00010914668
0.00012595665
0.00014196597
0.00015642448
0.00016875744
0.000178564
0.00018560933
0.00018981026
0.00019121496
0.00018997894
0.00018633987
0.00018059324
0.00017306983
0.00016411578
0.00015407576
0.00014327986
0.00013203361
0.0001206111
0.00010925067
9.8152956e-05
8.7480739e-05
7.7360273e-05
6.7883721e-05
5.9112369e-05
5.1080328e-05
4.3798497e-05
3.7258575e-05
3.1436964e-05
2.6298434e-05
2.1799462e-05
1.7891177e-05
1.4521891e-05
1.1639176e-05
9.1915836e-06
7.1298285e-06
5.4080114e-06
3.9837424e-06
2.8195455e-06
1.8833849e-06
1.1423436e-06
6.0264308e-07
1.8225147e-07
9.274321e-08
8.7433768e-05
6.8382619e-05
5.6268227e-05
5.0136317e-05
4.9083146e-05
5.2211061e-05
5.8661593e-05
6.7545022e-05
7.7972001e-05
8.9108354e-05
0.00010021099
0.00011064674
0.00011990329
0.00012759482
0.00013346127
0.00013736103
0.00013925858
0.00013920873
0.00013733917
0.00013383263
0.00012890964
0.0001228126
0.00011579182
0.00010809412
9.9953563e-05
9.1584723e-05
8.3177952e-05
7.4896651e-05
6.6876139e-05
5.9223885e-05
5.2020789e-05
4.5323255e-05
3.9165801e-05
3.3564005e-05
2.851758e-05
2.4013436e-05
2.0028604e-05
1.6532928e-05
1.3491466e-05
1.0866554e-05
8.6195557e-06
6.7122189e-06
5.1078687e-06
3.7721824e-06
2.6735726e-06
1.7868068e-06
1.0804635e-06
5.7026166e-07
1.666535e-07
9.2565435e-08
0.00012921371
0.0001025265
8.197667e-05
6.6867351e-05
5.6690685e-05
5.0866845e-05
4.8824006e-05
4.9922205e-05
5.3474328e-05
5.879275e-05
6.5222365e-05
7.2161312e-05
7.9077232e-05
8.5520434e-05
9.1132217e-05
9.564748e-05
9.8892164e-05
0.00010077659
0.00010128576
0.00010046771
9.8420693e-05
9.5280337e-05
9.1207207e-05
8.637555e-05
8.0963552e-05
7.5145233e-05
6.9084095e-05
6.2928426e-05
5.6808202e-05
5.0833359e-05
4.5093264e-05
3.9657146e-05
3.4575279e-05
2.9880721e-05
2.5591399e-05
2.1712394e-05
1.8238278e-05
1.5155376e-05
1.24439e-05
1.007985e-05
8.0366967e-06
6.2867833e-06
4.8024924e-06
3.5573916e-06
2.5261324e-06
1.6896295e-06
1.019906e-06
5.3790298e-07
1.5529882e-07
8.9743933e-08
0.00017856679
0.00014672965
0.00012009171
9.8157479e-05
8.0704024e-05
6.7400959e-05
5.791669e-05
5.1839004e-05
4.8685147e-05
4.7938284e-05
4.9074246e-05
5.157949e-05
5.4967353e-05
5.8793592e-05
6.2669138e-05
6.6268685e-05
6.9335084e-05
7.1679937e-05
7.3180909e-05
7.3776328e-05
7.3457734e-05
7.226112e-05
7.0257559e-05
6.7543805e-05
6.4233397e-05
6.0448633e-05
5.6313631e-05
5.1948646e-05
4.7465632e-05
4.2965072e-05
3.8533932e-05
3.4244635e-05
3.0154881e-05
2.6308159e-05
2.2734777e-05
1.9453261e-05
1.6471963e-05
1.3790783e-05
1.1402874e-05
9.2962734e-06
7.4553966e-06
5.8623742e-06
4.4981571e-06
3.3438185e-06
2.3802929e-06
1.5940649e-06
9.6177338e-07
5.0660657e-07
1.4698472e-07
8.5063898e-08
0.00023166513
0.00019668524
0.00016595732
0.00013913515
0.000116186
9.6961221e-05
8.1313473e-05
6.9017895e-05
5.977336e-05
5.3229154e-05
4.9004492e-05
4.6701588e-05
4.5918827e-05
4.6265064e-05
4.7373011e-05
4.8910217e-05
5.0587229e-05
5.2162923e-05
5.3447045e-05
5.4300094e-05
5.4630885e-05
5.4392216e-05
5.3575179e-05
5.2202627e-05
5.032227e-05
4.7999838e-05
4.531267e-05
4.234394e-05
3.917774e-05
3.5895065e-05
3.2570756e-05
2.9271342e-05
2.605372e-05
2.2964551e-05
2.0040273e-05
1.7307586e-05
1.4784288e-05
1.2480339e-05
1.0399061e-05
8.538377e-06
6.8920242e-06
5.4507168e-06
4.2031351e-06
3.1372204e-06
2.2399129e-06
1.5026974e-06
9.0729312e-07
4.7731425e-07
1.4064792e-07
7.9385304e-08
0.00028572629
0.00024916511
0.00021597428
0.00018591446
0.00015906888
0.00013541215
0.00011492738
9.75314e-05
8.3070078e-05
7.1336876e-05
6.2085818e-05
5.5039405e-05
4.9897544e-05
4.6348641e-05
4.4081187e-05
4.2794388e-05
4.2207366e-05
4.2066677e-05
4.2151943e-05
4.2279393e-05
4.2303346e-05
4.2115774e-05
4.164423e-05
4.0848475e-05
3.9716184e-05
3.8258073e-05
3.6502832e-05
3.4492151e-05
3.2276062e-05
2.9908814e-05
2.7445361e-05
2.4938542e-05
2.2436953e-05
1.998348e-05
1.7614437e-05
1.5359209e-05
1.324033e-05
1.1273874e-05
9.4700875e-06
7.8341647e-06
6.367103e-06
5.0666031e-06
3.9278768e-06
2.9448146e-06
2.1097635e-06
1.4185742e-06
8.5793191e-07
4.5093348e-07
1.3556095e-07
7.3380162e-08
0.00033877618
0.00030180651
0.00026742769
0.00023547564
0.00020609533
0.00017933851
0.00015527302
0.00013391465
0.00011521906
9.909434e-05
8.5408813e-05
7.3994626e-05
6.4652551e-05
5.7159346e-05
5.127636e-05
4.675819e-05
4.3360994e-05
4.0850153e-05
3.9007002e-05
3.7634256e-05
3.655996e-05
3.5639885e-05
3.4758409e-05
3.3828029e-05
3.2787705e-05
3.160028e-05
3.0249255e-05
2.8735192e-05
2.707199e-05
2.5283256e-05
2.3398942e-05
2.1452365e-05
1.9477703e-05
1.750799e-05
1.5573625e-05
1.3701353e-05
1.1913672e-05
1.0228605e-05
8.6597674e-06
7.2166542e-06
5.90509e-06
4.7278042e-06
3.6850007e-06
2.7753107e-06
1.9955815e-06
1.3452728e-06
8.1548909e-07
4.2841852e-07
1.3144101e-07
6.750594e-08
0.00038945598
0.00035292553
0.00031832086
0.0002855309
0.00025472521
0.00022599879
0.00019946866
0.00017521374
0.00015326547
0.00013361617
0.00011622329
0.00010100985
8.7865963e-05
7.6652826e-05
6.7208152e-05
5.9352231e-05
5.289431e-05
4.7639074e-05
4.339297e-05
3.9969991e-05
3.7196661e-05
3.4916002e-05
3.2990383e-05
3.1303217e-05
2.9759537e-05
2.8285575e-05
2.6827482e-05
2.5349398e-05
2.383105e-05
2.2265105e-05
2.0654444e-05
1.9009503e-05
1.7345834e-05
1.5681945e-05
1.4037488e-05
1.2431819e-05
1.0882919e-05
9.4066632e-06
8.016386e-06
6.7227151e-06
5.5336094e-06
4.4545833e-06
3.4889985e-06
2.6387475e-06
1.9039967e-06
1.286899e-06
7.8213234e-07
4.1083352e-07
1.2843245e-07
6.2068271e-08
0.0004368688
0.00040136122
0.00036722679
0.00033439243
0.00030302864
0.00027325027
0.0002451977
0.00021898537
0.00019469239
0.0001723681
0.00015203418
0.0001336831
0.0001172774
0.0001027511
9.0012415e-05
7.8947259e-05
6.9423429e-05
6.1295251e-05
5.4408626e-05
4.8606089e-05
4.373168e-05
3.9635333e-05
3.6176654e-05
3.3227899e-05
3.0676119e-05
2.8424419e-05
2.6392393e-05
2.4515803e-05
2.2745637e-05
2.1046679e-05
1.9395746e-05
1.7779739e-05
1.6193637e-05
1.4638553e-05
1.3119942e-05
1.1646018e-05
1.0226423e-05
8.871166e-06
7.5898255e-06
6.3910026e-06
5.2819963e-06
4.2686914e-06
3.3555623e-06
2.5460637e-06
1.8422753e-06
1.2479618e-06
7.6033616e-07
3.9936026e-07
1.2697932e-07
5.7270573e-08
0.00048045962
0.0004463485
0.00041316081
0.00038085176
0.00034957881
0.0003194616
0.00029064641
0.00026326331
0.00023741755
0.00021319343
0.00019065503
0.00016984379
0.0001507765
0.00013344494
0.00011781661
0.00010383617
9.1427562e-05
8.0496791e-05
7.0935341e-05
6.2623945e-05
5.5436583e-05
4.9244457e-05
4.391979e-05
3.9339245e-05
3.5386856e-05
3.1956342e-05
2.8952771e-05
2.6293564e-05
2.3908853e-05
2.1741284e-05
1.9745345e-05
1.7886324e-05
1.6139024e-05
1.4486321e-05
1.2917695e-05
1.1427783e-05
1.0015057e-05
8.6806464e-06
7.4273442e-06
6.258816e-06
5.1790025e-06
4.1917281e-06
3.3004423e-06
2.5083308e-06
1.8178275e-06
1.2330886e-06
7.5270845e-07
3.9523748e-07
1.2765909e-07
5.3236112e-08
0.00051992068
0.00048741526
0.00045547358
0.00042407307
0.00039335096
0.00036342267
0.00033442947
0.00030650375
0.00027976158
0.00025430549
0.00023022452
0.00020759156
0.00018646084
0.00016686648
0.00014882203
0.00013232037
0.00011733429
0.00010381764
9.1707166e-05
8.0924864e-05
7.1380755e-05
6.2975945e-05
5.5605837e-05
4.9163309e-05
4.3541746e-05
3.863776e-05
3.4353525e-05
3.0598633e-05
2.7291443e-05
2.4359909e-05
2.1741925e-05
1.9385233e-05
1.7246966e-05
1.5292903e-05
1.3496531e-05
1.1837993e-05
1.0302988e-05
8.8817096e-06
7.5678498e-06
6.3577216e-06
5.2495192e-06
4.242742e-06
3.3377374e-06
2.5355756e-06
1.8374296e-06
1.2465454e-06
7.6169486e-07
3.9962784e-07
1.3103143e-07
5.0022583e-08
0.00055511801
0.00052430055
0.00049376349
0.00046350284
0.0004336328
0.00040425984
0.0003755141
0.00034752209
0.00032040057
0.00029425856
0.0002691971
0.00024530678
0.00022266515
0.00020133488
0.00018136258
0.00016277781
0.00014559256
0.00012980124
0.00011538121
0.00010229385
9.0486069e-05
7.9892318e-05
7.0436863e-05
6.2036309e-05
5.4602219e-05
4.8043719e-05
4.2269959e-05
3.7192342e-05
3.2726437e-05
2.8793515e-05
2.5321681e-05
2.2246606e-05
1.9511873e-05
1.7068973e-05
1.4877023e-05
1.2902246e-05
1.11173e-05
9.5005088e-06
8.0350501e-06
6.7081699e-06
5.5104427e-06
4.4351343e-06
3.477639e-06
2.6351925e-06
1.9061515e-06
1.2915559e-06
7.8916464e-07
4.1341758e-07
1.3752066e-07
4.7638646e-08
0.00058602857
0.00055688381
0.00052779946
0.00049878794
0.00046994031
0.00044135219
0.00041313985
0.00038541953
0.00035830257
0.00033189686
0.00030630653
0.00028162986
0.00025795686
0.00023536749
0.00021393008
0.0001937
0.00017471848
0.00015701181
0.00014059096
0.00012545166
0.00011157484
9.8927613e-05
8.7464545e-05
7.7129358e-05
6.7856855e-05
5.9575028e-05
5.2207252e-05
4.5674462e-05
3.9897214e-05
3.4797565e-05
3.0300686e-05
2.6336189e-05
2.2839119e-05
1.9750629e-05
1.7018344e-05
1.4596443e-05
1.2445512e-05
1.0532206e-05
8.8287779e-06
7.3125284e-06
5.9652187e-06
4.7724994e-06
3.723355e-06
2.8097466e-06
2.0258556e-06
1.3693333e-06
8.358315e-07
4.3692686e-07
1.4730464e-07
4.6055826e-08
0.00061269849
0.00058513674
0.00055746687
0.00052971675
0.00050195561
0.00047426806
0.00044675602
0.0004195237
0.0003926739
0.00036630902
0.00034053071
0.00031543818
0.00029112625
0.00026768366
0.00024519148
0.00022372169
0.00020333568
0.00018408308
0.00016600078
0.00014911231
0.00013342752
0.00011894269
0.00010564093
9.3493051e-05
8.2458699e-05
7.2487804e-05
6.3522256e-05
5.5497721e-05
4.834554e-05
4.1994604e-05
3.637315e-05
3.1410395e-05
2.703797e-05
2.3191104e-05
1.9809542e-05
1.6838197e-05
1.4227543e-05
1.1933775e-05
9.9187653e-06
8.1498726e-06
6.5996186e-06
5.2453099e-06
4.0685941e-06
3.055144e-06
2.1939258e-06
1.4782575e-06
9.0076861e-07
4.6967609e-07
1.6025303e-07
4.5217395e-08
0.00063518043
0.0006090534
0.00058269115
0.0005561365
0.00052943895
0.00050267307
0.00047592735
0.000449294
0.00042286628
0.00039673905
0.00037100846
0.00034577074
0.00032112051
0.00029714948
0.00027394491
0.00025158826
0.00023015367
0.0002097066
0.00019030259