/*--------------------------------*- C++ -*----------------------------------*\
  =========                 |
  \\      /  F ield         | OpenFOAM: The Open Source CFD Toolbox
   \\    /   O peration     | Website:  https://openfoam.org
    \\  /    A nd           | Version:  6
     \\/     M anipulation  |
\*---------------------------------------------------------------------------*/
FoamFile
{
    version     2.0;
    format      ascii;
    class       volVectorField;
    location    "245";
    object      U;
}
// * * * * * * * * * * * * * * * * * * * * * * * * * * * * * * * * * * * * * //

dimensions      [0 1 -1 0 0 0 0];

internalField   nonuniform List<vector> 
9200
(
(0.0010393462 0.0014199821 -5.9201837e-20)
(0.013676067 -0.0020583666 4.6042531e-20)
(0.038313166 -0.0058665678 -3.8501732e-20)
(0.072274436 -0.0097635046 -6.0257746e-20)
(0.11376474 -0.013490028 1.8826962e-20)
(0.16158088 -0.016605657 3.2743876e-20)
(0.21467148 -0.018817284 -1.2268006e-20)
(0.27206607 -0.019973889 9.2688598e-21)
(0.33285622 -0.02001122 1.6803425e-20)
(0.39616347 -0.018929049 1.4848071e-21)
(0.46111555 -0.016779812 -2.1456334e-20)
(0.52683686 -0.013657726 2.067e-20)
(0.59245067 -0.0096879917 -4.0422135e-20)
(0.6570913 -0.0050157684 -2.1133896e-20)
(0.7199247 0.00020557125 5.904651e-21)
(0.780175 0.0058241067 -2.5131668e-20)
(0.83717058 0.011712826 2.5217106e-20)
(0.89046874 0.017918527 2.2243191e-20)
(0.93967069 0.024573428 -2.9929509e-22)
(0.98205185 0.028293398 -1.6691855e-21)
(0.0052521803 -0.001346273 -1.7059352e-20)
(0.026962501 -0.0089890259 3.9747709e-20)
(0.061670115 -0.014809763 2.3576293e-20)
(0.10629489 -0.019172267 -1.1569757e-19)
(0.15873565 -0.022213993 -1.2727087e-20)
(0.21753351 -0.023720681 7.3297076e-20)
(0.28137295 -0.023595091 -3.5476397e-20)
(0.349006 -0.021868959 -8.3905563e-21)
(0.41923919 -0.018645517 3.4287537e-20)
(0.49090943 -0.014080832 -4.3259574e-20)
(0.5628723 -0.0083759412 -3.0338478e-20)
(0.63400845 -0.0017665836 7.1921423e-20)
(0.70324328 0.0054884066 3.829404e-20)
(0.7695758 0.013118645 -6.7976543e-20)
(0.83211244 0.020852097 1.4623688e-20)
(0.89010035 0.02841972 -3.6733393e-20)
(0.94296915 0.035569688 -1.3777193e-20)
(0.99043229 0.042140901 7.0974779e-20)
(1.032356 0.047715324 2.9641974e-20)
(1.0669348 0.049139704 -8.3478319e-20)
(0.010858426 -0.0040424157 3.6773455e-20)
(0.043953412 -0.015431076 2.5047354e-21)
(0.090515433 -0.022552281 2.2341708e-20)
(0.14711139 -0.026497356 9.811682e-22)
(0.21134254 -0.027886294 -4.0773933e-20)
(0.28146766 -0.026795111 1.8576403e-20)
(0.35587039 -0.023382724 1.3420298e-20)
(0.43299006 -0.017921532 -5.03277e-20)
(0.51132476 -0.010735645 5.7261854e-20)
(0.58942612 -0.0021838744 1.4256687e-20)
(0.66590914 0.0073479119 -5.4300704e-20)
(0.73948034 0.01746027 -1.82374e-20)
(0.80897596 0.027756569 9.0591591e-21)
(0.87340262 0.037859278 2.3444732e-20)
(0.9319736 0.04742405 -1.1362502e-20)
(0.98413365 0.056148979 2.7877721e-20)
(1.029574 0.063789179 -2.0188241e-20)
(1.0682645 0.070204397 -7.0123572e-20)
(1.1003321 0.075119384 -2.3796247e-20)
(1.1249112 0.076641244 4.8659771e-20)
(0.017957214 -0.0064221631 2.4508014e-20)
(0.064776994 -0.020694799 5.1039222e-20)
(0.12485228 -0.028060845 1.9881694e-20)
(0.19446965 -0.030464063 1.2990096e-20)
(0.27094931 -0.029094839 1.7275703e-20)
(0.35224878 -0.024388975 -4.772017e-20)
(0.43643138 -0.016825969 -2.5646855e-20)
(0.52162007 -0.0069766665 0)
(0.60602894 0.004567036 1.3920617e-20)
(0.68798705 0.017211735 -5.8523393e-21)
(0.76597516 0.030373926 -9.7934936e-20)
(0.83867445 0.043499636 -1.5774815e-20)
(0.90501524 0.056086621 6.5103188e-20)
(0.96421568 0.067704139 4.844261e-22)
(1.0158035 0.078007719 -1.5725562e-21)
(1.0596155 0.086746797 2.1957488e-20)
(1.0957773 0.093772232 -5.2647191e-21)
(1.12468 0.099065339 -6.1029707e-20)
(1.1468647 0.10259709 -4.5851175e-20)
(1.1622957 0.10341386 6.9520427e-20)
(0.02657942 -0.0082056878 -3.91942e-21)
(0.089344018 -0.024033505 -5.1256308e-21)
(0.16430753 -0.030264986 5.6599407e-20)
(0.24758119 -0.029810017 1.8539324e-20)
(0.3362416 -0.024513025 -3.1955066e-20)
(0.42795125 -0.015239857 1.2163839e-20)
(0.52047261 -0.0028513595 2.6402861e-21)
(0.61166356 0.011737099 3.3609168e-20)
(0.6995471 0.027640145 5.6599501e-21)
(0.78236836 0.044028773 -1.3204739e-20)
(0.85865404 0.060147728 6.0154032e-20)
(0.92726909 0.075340475 -5.800935e-20)
(0.98745674 0.089072865 -1.3216611e-19)
(1.038853 0.10094902 -5.5773025e-21)
(1.0814725 0.11071709 8.3150753e-20)
(1.1156655 0.11826406 0)
(1.1420548 0.12360583 1.0118953e-20)
(1.1614668 0.12689057 -1.5459767e-20)
(1.1748179 0.12829871 -8.5994527e-21)
(1.1826673 0.12744917 2.0992224e-20)
(0.036666908 -0.0090895794 -5.4309123e-21)
(0.11731511 -0.024685356 4.3578744e-21)
(0.20811868 -0.028140176 -8.7629837e-21)
(0.30515702 -0.023414952 2.8472394e-20)
(0.40533538 -0.013075589 -2.9392663e-20)
(0.50607146 0.001522618 -1.6927023e-20)
(0.60490489 0.019095143 3.7364231e-20)
(0.69954958 0.038365258 4.7595451e-21)
(0.78800391 0.058167649 -2.4436056e-20)
(0.86863404 0.077483008 6.9867554e-20)
(0.94023972 0.095458646 5.2393875e-22)
(1.0020955 0.11143157 -8.0444309e-20)
(1.0539569 0.12494291 0)
(1.0960273 0.1357375 3.9542113e-20)
(1.1288922 0.14374844 5.5236004e-21)
(1.1534278 0.14906894 -7.7566391e-20)
(1.170699 0.15191914 -1.9586917e-20)
(1.1818623 0.15262369 -1.2467632e-20)
(1.1880592 0.15152607 -1.4709391e-20)
(1.190146 0.14858494 4.0420532e-20)
(0.048058868 -0.0087674049 -1.7277958e-20)
(0.1480831 -0.021931992 -2.2198274e-21)
(0.25514069 -0.020797833 3.0380503e-20)
(0.36546383 -0.010412791 3.7484308e-20)
(0.4759042 0.0059015903 -1.9944733e-20)
(0.58374265 0.026269309 -6.9163029e-20)
(0.68644184 0.048977212 -2.7995795e-20)
(0.78176202 0.072417791 7.8929207e-20)
(0.86790195 0.095212481 8.5778128e-21)
(0.94358915 0.11624962 -2.4873481e-20)
(1.0081258 0.13469828 1.3642211e-20)
(1.061387 0.15001556 -4.3194489e-21)
(1.1037693 0.1619366 0)
(1.1360975 0.17044428 2.720348e-20)
(1.1595046 0.17572309 -7.9322407e-20)
(1.175302 0.1781037 -3.1475525e-20)
(1.184857 0.17800814 8.1054567e-20)
(1.1894921 0.17590946 -4.2969809e-21)
(1.1904029 0.17225559 3.5561076e-21)
(1.188508 0.16719299 2.7111582e-20)
(0.06048525 -0.0069573638 -3.2414615e-20)
(0.18077772 -0.01517038 -8.1624318e-20)
(0.30388929 -0.0075835259 2.5797757e-21)
(0.42642555 0.0097033575 7.0161809e-20)
(0.54535148 0.032631555 6.2424374e-20)
(0.657981 0.058820045 -7.157452e-20)
(0.76190882 0.086176509 -2.8275182e-22)
(0.8551829 0.11285231 8.5522543e-20)
(0.93645345 0.13737838 4.8828067e-20)
(1.0050415 0.1586937 -5.4218404e-20)
(1.0609356 0.17613563 -9.233421e-20)
(1.1047242 0.18941355 -3.1589824e-21)
(1.1374759 0.19855944 4.2127864e-20)
(1.1605873 0.20385857 -6.6056275e-21)
(1.1756247 0.2057702 -1.2868786e-20)
(1.1841776 0.2048492 1.9690807e-20)
(1.1877427 0.20167898 4.3880614e-20)
(1.1876453 0.19682589 -4.385943e-20)
(1.1849953 0.19077885 -1.0232202e-19)
(1.180625 0.18377381 2.4566885e-20)
(0.073537215 -0.0034329734 -3.4979749e-20)
(0.21422687 -0.0039890253 -1.7388611e-19)
(0.35251657 0.011839376 8.2103239e-20)
(0.48562797 0.037018337 9.2767513e-20)
(0.61085379 0.066835552 5.7970566e-20)
(0.72576726 0.098481178 8.6107092e-21)
(0.82834802 0.12959696 -1.0624009e-19)
(0.91718997 0.15824269 0)
(0.99162743 0.18302814 -6.8748585e-20)
(1.0517521 0.20311207 -1.5202408e-20)
(1.0983384 0.21814861 5.4703463e-20)
(1.1327008 0.22821083 1.0973379e-20)
(1.1565109 0.2336926 -4.5613851e-20)
(1.1716067 0.23519947 -4.9081359e-20)
(1.1798203 0.23344336 2.4287678e-20)
(1.182845 0.22915324 4.4822888e-20)
(1.1821488 0.22300987 -5.5600404e-20)
(1.178936 0.21560823 -1.0751121e-19)
(1.1741468 0.20742225 -3.151362e-21)
(1.1684567 0.19871882 2.7046398e-20)
(0.086650445 0.001961386 -3.5448989e-21)
(0.24696018 0.011816634 8.791324e-20)
(0.39884739 0.037492309 -1.6479247e-20)
(0.54040464 0.071218381 -8.4309145e-20)
(0.66949902 0.10778893 4.516437e-20)
(0.78421952 0.14411543 4.9175453e-20)
(0.88318939 0.17775668 5.5356779e-21)
(0.96577869 0.2068849 -9.9502486e-20)
(1.0321763 0.23038802 -2.5048779e-21)
(1.0833328 0.24781553 5.050354e-20)
(1.120807 0.25926301 5.9854753e-21)
(1.1465558 0.2652362 -1.9717206e-20)
(1.1627107 0.26650533 -7.5704624e-20)
(1.1713765 0.26396622 -6.2554017e-21)
(1.1744762 0.2585243 4.3533351e-20)
(1.1736548 0.25101089 3.702201e-20)
(1.1702383 0.24213396 1.979344e-20)
(1.1652402 0.23245876 -5.2994837e-20)
(1.1594014 0.22240419 1.295745e-20)
(1.1532251 0.212238 8.2659089e-20)
(-0.0012932614 0.0014346597 -1.1234453e-21)
(-0.0047459601 0.0031874146 2.0646968e-21)
(-0.010771358 0.0041359039 8.794983e-22)
(-0.017754286 0.0045395358 -2.4411022e-21)
(-0.024740317 0.0045654164 -1.4114818e-21)
(-0.031299591 0.0043260384 1.5460012e-21)
(-0.037161326 0.0039035379 -6.8700791e-21)
(-0.04214744 0.0033577216 -5.9573036e-21)
(-0.046157774 0.0027313811 1.1171996e-20)
(-0.049146188 0.0020548305 -9.7427472e-21)
(-0.051100652 0.0013493004 -1.9833046e-22)
(-0.052030442 0.00062942193 3.6673434e-21)
(-0.051957736 -9.4889422e-05 -6.3295584e-22)
(-0.05091188 -0.00081693028 2.2818741e-20)
(-0.048925777 -0.0015318445 3.0401105e-22)
(-0.046035341 -0.0022351738 -4.0882866e-20)
(-0.042281798 -0.0029222677 7.5385609e-21)
(-0.037703444 -0.0035910382 2.3864108e-20)
(-0.032308696 -0.0042399861 -4.3852371e-20)
(-0.026156967 -0.0048211126 -2.7739202e-20)
(-0.0016521998 0.0041808661 -5.3716021e-21)
(-0.0053974809 0.0092681377 1.0865439e-20)
(-0.011218509 0.012007443 -1.0191541e-20)
(-0.017658025 0.013153763 3.9229726e-21)
(-0.023856431 0.013195412 4.8121423e-21)
(-0.029433316 0.012462724 7.1324166e-22)
(-0.034152319 0.011197013 -2.2509485e-20)
(-0.037860376 0.0095738965 -2.0370236e-21)
(-0.040474297 0.007718987 2.0163536e-20)
(-0.04195892 0.0057212303 -5.0473592e-21)
(-0.042308948 0.0036428646 -2.1762586e-20)
(-0.041537336 0.0015267129 4.8973161e-21)
(-0.039667712 -0.00059830505 2.2635418e-20)
(-0.036729081 -0.0027127604 1.0308389e-20)
(-0.032752035 -0.0048026883 2.1854282e-20)
(-0.027769173 -0.0068555074 -1.9770726e-20)
(-0.021824798 -0.0088582184 -2.1672941e-20)
(-0.014966275 -0.010804223 2.1184615e-20)
(-0.0071290243 -0.012678999 2.6810362e-20)
(0.0018742863 -0.014317221 1.5854764e-20)
(-0.0023034291 0.0065602323 -4.3568685e-21)
(-0.0065392235 0.014480195 -5.6387546e-21)
(-0.011892131 0.018710542 3.072395e-22)
(-0.017211098 0.020428179 1.0959884e-21)
(-0.021819141 0.020400323 6.6918392e-21)
(-0.02543104 0.019151665 1.0665167e-20)
(-0.02787723 0.017066287 -3.722763e-21)
(-0.029053268 0.014423782 -1.8896161e-20)
(-0.028909036 0.011424352 6.5413161e-21)
(-0.02743105 0.0082099049 1.2862568e-20)
(-0.024627714 0.0048797762 5.8340841e-21)
(-0.02052011 0.001502239 1.8159102e-20)
(-0.015135988 -0.0018768626 1.7295912e-21)
(-0.0085054025 -0.0052272468 -3.3864523e-20)
(-0.0006568982 -0.0085276087 1.202017e-21)
(0.0083810098 -0.011759108 -2.2139207e-20)
(0.018556858 -0.014904094 -2.4466299e-20)
(0.029802168 -0.01795375 4.5819704e-20)
(0.042304949 -0.020855114 2.5349344e-20)
(0.056738553 -0.023247762 1.2239287e-22)
(-0.0031290275 0.0083689696 -5.2833065e-21)
(-0.0078963985 0.018336512 -8.4815251e-21)
(-0.012438985 0.023587808 4.3593043e-21)
(-0.016026534 0.025609657 4.1463445e-21)
(-0.018235023 0.025382744 2.0105705e-21)
(-0.018912651 0.023589321 7.3209943e-21)
(-0.017984717 0.020730272 9.3124763e-21)
(-0.01541671 0.017170377 -1.3511353e-21)
(-0.011207049 0.013171314 -1.1481945e-20)
(-0.0053752364 0.0089189316 -2.9071873e-20)
(0.0020481067 0.0045434376 6.1892265e-23)
(0.011026501 0.00013431178 4.0697814e-20)
(0.021522215 -0.0042489498 -1.8383169e-20)
(0.033497838 -0.0085675832 -1.2296086e-20)
(0.046920496 -0.012795544 5.5348947e-22)
(0.061760076 -0.016911852 3.2302638e-20)
(0.07795299 -0.020901666 -1.4829541e-20)
(0.095392237 -0.024763372 -5.3339176e-20)
(0.11439842 -0.028379713 4.5765001e-20)
(0.13634535 -0.031073089 3.3013162e-20)
(-0.0039704094 0.0094657318 -6.8788995e-22)
(-0.0090916576 0.020487791 -1.2534739e-20)
(-0.012364471 0.026159086 -3.414453e-20)
(-0.01355254 0.028143337 -5.7241611e-21)
(-0.01253324 0.027555006 -3.6222736e-21)
(-0.0093167251 0.025188063 6.3051026e-21)
(-0.0039456463 0.021627411 -4.6461954e-21)
(0.0035261256 0.017298959 -8.8070261e-21)
(0.013036817 0.012508752 2.1899706e-20)
(0.024521237 0.0074744432 5.0567069e-21)
(0.037915531 0.002348905 -2.5290289e-20)
(0.053157436 -0.0027627827 1.1078277e-20)
(0.070186856 -0.0077908727 0)
(0.088946567 -0.012691301 1.2089574e-20)
(0.10938542 -0.017436916 -9.7016161e-21)
(0.13145739 -0.022009893 -1.4337117e-20)
(0.15507405 -0.026408642 -1.5738955e-21)
(0.18006758 -0.030659416 -2.2181546e-21)
(0.20685339 -0.034576528 4.6147056e-20)
(0.23766356 -0.037019862 -1.0470123e-20)
(-0.0046450977 0.0097808619 -7.5356671e-21)
(-0.0096772505 0.020747879 2.4516397e-20)
(-0.01106438 0.026160976 -1.0499345e-20)
(-0.0090968327 0.027724444 -2.7469278e-20)
(-0.0039797216 0.026601694 -2.7548143e-20)
(0.0040961812 0.023648408 -1.4921567e-20)
(0.014954147 0.019496457 -6.9059629e-22)
(0.028436231 0.014604706 5.549978e-21)
(0.044403142 0.0093034474 1.9615877e-20)
(0.062730489 0.0038284167 7.3530844e-21)
(0.083304307 -0.0016547534 -7.1862203e-21)
(0.10601896 -0.0070322363 -2.010231e-21)
(0.13077356 -0.012229095 -3.8191704e-20)
(0.15746942 -0.017199749 -1.2693643e-20)
(0.18601198 -0.02191973 1.8750603e-20)
(0.21631175 -0.026379713 -2.102167e-20)
(0.24823221 -0.030602218 -8.9730565e-21)
(0.28151865 -0.034670601 3.0440461e-20)
(0.31660701 -0.038364812 5.0472062e-20)
(0.35665012 -0.039964092 3.3559659e-21)
(-0.0049617682 0.0093139983 1.6783302e-20)
(-0.009166269 0.019097709 1.4467937e-20)
(-0.0078593649 0.023563366 5.1145481e-20)
(-0.0018585401 0.024328943 2.3387979e-20)
(0.0082957215 0.022523783 1.8251772e-22)
(0.022221937 0.019014385 -3.9388451e-20)
(0.039597438 0.014440936 -2.4313856e-20)
(0.060147899 0.0092663604 1.0465816e-20)
(0.083639108 0.0038232296 1.4401585e-20)
(0.10986668 -0.0016512972 -1.311371e-20)
(0.13864562 -0.006991007 -4.4038708e-20)
(0.16980169 -0.012082844 2.9618494e-20)
(0.20316403 -0.016854155 2.0020549e-20)
(0.23855944 -0.02126399 -2.7551151e-20)
(0.27581228 -0.025296397 1.1650133e-20)
(0.31474808 -0.028957161 2.4197609e-20)
(0.35514543 -0.032303045 8.072393e-21)
(0.39663384 -0.035506668 -1.1764209e-20)
(0.43957698 -0.038392633 -1.4190296e-20)
(0.48798507 -0.038634392 5.8727605e-21)
(-0.0047307761 0.008123673 1.1093844e-20)
(-0.0070586004 0.015671176 -2.3352717e-20)
(-0.0020293664 0.018562032 8.6200534e-21)
(0.009032519 0.018216225 3.3587963e-20)
(0.025256359 0.01565115 5.2124331e-20)
(0.046066334 0.011695604 2.0276507e-20)
(0.070984518 0.0069609535 -5.8639343e-21)
(0.099601941 0.0018829531 -1.2286283e-20)
(0.13156893 -0.0032271958 -6.2057454e-21)
(0.16657566 -0.0081496544 3.424083e-20)
(0.20433423 -0.012733316 -4.5104369e-21)
(0.24456483 -0.016879182 -1.6643297e-20)
(0.28698468 -0.02052868 -1.9693569e-20)
(0.33129996 -0.023656405 -4.7443729e-20)
(0.37720456 -0.026265524 2.3238699e-20)
(0.42438767 -0.028387851 -1.4095981e-20)
(0.4724997 -0.030127608 2.5993393e-20)
(0.52103614 -0.031783175 2.104082e-20)
(0.57021391 -0.033350662 -8.5570382e-20)
(0.62470913 -0.032058822 -1.080715e-22)
(-0.0037710519 0.0063146393 2.1925053e-20)
(-0.0028657666 0.010735096 -2.6165527e-20)
(0.0071421038 0.011564137 -4.501329e-20)
(0.024450231 0.0099249904 -2.7253778e-20)
(0.047870847 0.0066523071 -2.0439867e-21)
(0.076628698 0.0024906189 1.3050095e-20)
(0.11007672 -0.0020153929 -2.8337702e-21)
(0.14765205 -0.0064879009 1.8118535e-20)
(0.18886095 -0.010663499 8.868561e-21)
(0.23325193 -0.014362416 -1.1380171e-20)
(0.28039147 -0.017468943 8.8779103e-21)
(0.32984601 -0.019916798 -2.3903263e-20)
(0.38116878 -0.021678688 8.0504749e-21)
(0.43389082 -0.022759864 1.6756388e-20)
(0.48751933 -0.023194288 -2.6395124e-21)
(0.54154713 -0.023046877 1.6618975e-21)
(0.59543542 -0.022469429 -3.1957589e-22)
(0.6485178 -0.021870086 1.9590416e-20)
(0.70082236 -0.021445042 4.0433997e-21)
(0.75745147 -0.018499059 -5.7334497e-22)
(-0.0019110144 0.0040273481 2.369211e-20)
(0.0038694294 0.0046765207 5.7159955e-20)
(0.020315309 0.0031879654 -4.9244219e-20)
(0.045178282 0.00029442776 -9.945414e-21)
(0.076965147 -0.0034241496 2.0256344e-20)
(0.11469622 -0.0073535829 2.1433716e-21)
(0.15753882 -0.011054953 -2.9815159e-20)
(0.2047483 -0.014244134 6.9848104e-21)
(0.25564948 -0.016737922 7.1097859e-21)
(0.30960471 -0.01842695 -2.6254074e-20)
(0.36598646 -0.01926009 1.2927321e-21)
(0.42415956 -0.019231857 -3.7174106e-20)
(0.48347099 -0.018372191 -3.6341006e-20)
(0.54324563 -0.016738263 6.5683463e-20)
(0.6027881 -0.014407288 5.5627471e-21)
(0.66138882 -0.011475883 -1.5188792e-20)
(0.71830782 -0.008102028 1.9363959e-20)
(0.77269898 -0.004592847 -9.1888113e-22)
(0.82408832 -0.00096802841 2.0364574e-20)
(0.87621964 0.0043280896 -1.9554143e-20)
(-0.018836425 -0.0050997018 5.8352032e-20)
(-0.010224666 -0.0056349249 1.5783662e-20)
(-0.00022120934 -0.0060688775 -3.5139547e-20)
(0.010823207 -0.0063341068 1.6790228e-20)
(0.022642443 -0.0065120438 0)
(0.035177856 -0.0066300865 0)
(0.048369627 -0.0066909696 -2.2974938e-20)
(0.062138036 -0.0067025358 -1.6502863e-20)
(0.076412671 -0.00667417 1.9122585e-20)
(0.091134026 -0.0066126612 1.8174026e-20)
(0.10624712 -0.0065232011 1.0524249e-21)
(0.12170016 -0.0064103532 -1.0317631e-20)
(0.13744484 -0.0062780762 8.3268756e-21)
(0.15343594 -0.0061297173 1.8233708e-20)
(0.1696307 -0.0059681399 -5.2274146e-21)
(0.18598846 -0.0057958293 -1.017493e-20)
(0.20247049 -0.0056149567 -4.3195853e-21)
(0.21903974 -0.0054274311 -4.4257366e-21)
(0.2356608 -0.0052349445 7.3667155e-22)
(0.25229979 -0.0050390073 1.2286033e-21)
(0.26892438 -0.0048409746 2.5666297e-21)
(0.28550378 -0.004642066 6.6539428e-21)
(0.30200881 -0.0044433808 2.489443e-22)
(0.31841193 -0.0042459084 -3.4514682e-21)
(0.33468729 -0.0040505364 1.5558763e-22)
(0.35081082 -0.0038580563 -5.7709749e-22)
(0.36676028 -0.0036691681 1.2434355e-21)
(0.38251524 -0.0034844843 1.0522431e-21)
(0.3980572 -0.0033045332 -1.2987921e-21)
(0.41336952 -0.0031297631 -1.2218736e-22)
(0.42843748 -0.0029605459 3.5750186e-23)
(0.44324823 -0.0027971815 -3.5187551e-22)
(0.45779076 -0.0026399032 -4.0565359e-22)
(0.4720559 -0.0024888821 5.5412834e-23)
(0.48603621 -0.0023442336 -1.3809014e-22)
(0.49972602 -0.002206023 -2.2343128e-22)
(0.51312131 -0.0020742726 2.5571874e-22)
(0.52621972 -0.001948968 2.9501905e-22)
(0.53902045 -0.0018300674 -8.2711086e-24)
(0.55152463 -0.0017175055 -1.5517336e-22)
(0.5637342 -0.0016112212 3.0406526e-23)
(0.57565577 -0.0015111141 -4.0144602e-23)
(0.58728951 -0.0014172554 9.2203135e-23)
(0.59866442 -0.0013293086 2.1977153e-23)
(0.60973489 -0.0012485573 -1.1394426e-22)
(0.62069291 -0.0011717921 -6.7611911e-24)
(0.63106088 -0.0011112431 -7.2430841e-26)
(0.64234937 -0.0010339464 -3.5610555e-24)
(0.6504273 -0.0010508035 2.945374e-23)
(0.66700813 -0.00087555726 3.6050609e-22)
(0.010445864 -0.015017607 -1.2746814e-20)
(0.018179692 -0.01664101 -6.3302319e-20)
(0.027779209 -0.017915411 -3.0541934e-20)
(0.038385137 -0.018672069 3.8476005e-20)
(0.049620977 -0.019183586 1.4662609e-20)
(0.061506618 -0.01952943 -1.8204924e-20)
(0.074012807 -0.019709863 4.6722001e-21)
(0.087062654 -0.019746489 2.5447183e-20)
(0.10059312 -0.019667278 9.1993293e-23)
(0.11455399 -0.019491697 -7.6591232e-21)
(0.12889715 -0.019234356 -1.3021014e-20)
(0.14357598 -0.018908308 -8.5245284e-21)
(0.15854661 -0.018524969 1.777233e-20)
(0.17376751 -0.018093997 8.9295427e-21)
(0.18919894 -0.017623675 -1.6522434e-20)
(0.20480271 -0.017121227 -6.0390568e-21)
(0.22054208 -0.016592992 3.214504e-21)
(0.23638169 -0.016044566 8.3716305e-21)
(0.25228746 -0.015480927 6.9832253e-21)
(0.26822666 -0.014906536 -6.972714e-21)
(0.28416785 -0.014325408 -3.1685451e-21)
(0.30008102 -0.013741169 1.3605333e-21)
(0.31593756 -0.013157093 3.8682755e-22)
(0.33171044 -0.012576136 1.2113948e-21)
(0.34737418 -0.012000953 1.8368341e-22)
(0.36290501 -0.011433918 -3.2661604e-22)
(0.37828084 -0.010877135 -7.2434825e-22)
(0.3934814 -0.010332448 9.7156505e-22)
(0.4084882 -0.0098014491 8.2482884e-22)
(0.42328458 -0.0092854958 -1.5147306e-22)
(0.43785573 -0.0087857162 5.5306019e-22)
(0.45218863 -0.0083030248 -2.3880901e-22)
(0.46627208 -0.0078381363 -3.7069841e-22)
(0.48009664 -0.0073915809 -6.0999021e-22)
(0.49365459 -0.0069637217 4.4171697e-22)
(0.5069399 -0.0065547725 -1.5476746e-23)
(0.51994817 -0.006164818 1.6124683e-22)
(0.53267664 -0.0057938332 -4.4174677e-22)
(0.54512407 -0.0054417115 3.718941e-22)
(0.55729114 -0.0051082743 6.7175124e-23)
(0.56917933 -0.004793357 -1.028539e-22)
(0.58079472 -0.0044966757 1.7613625e-22)
(0.59213705 -0.0042184592 2.333954e-22)
(0.60323459 -0.0039577179 1.6926384e-22)
(0.61404188 -0.0037182972 1.676708e-22)
(0.62474806 -0.0034906417 -2.6097763e-23)
(0.63488191 -0.0033112005 8.4042802e-23)
(0.64593106 -0.0030818578 7.6290698e-23)
(0.65382946 -0.0031323453 -1.9466349e-22)
(0.6700913 -0.0026124279 -3.8026672e-23)
(0.067614675 -0.024029142 9.452828e-21)
(0.073589655 -0.026749045 3.2950982e-21)
(0.08226549 -0.028805563 -1.2162197e-20)
(0.091947801 -0.029968499 -1.2257894e-21)
(0.10198319 -0.030767858 1.4970584e-20)
(0.11254631 -0.031330885 -1.4887119e-20)
(0.12367594 -0.031636064 -2.9842264e-20)
(0.13529679 -0.031712998 1.4493518e-20)
(0.14735692 -0.031607628 1.8181962e-20)
(0.15982339 -0.031350048 -1.1598513e-20)
(0.17266056 -0.030961812 1.019055e-21)
(0.18583078 -0.030462745 8.6860135e-21)
(0.1992978 -0.029870543 -1.5253537e-20)
(0.21302652 -0.02920023 2.9095137e-21)
(0.22698238 -0.028464751 7.5194334e-21)
(0.24113136 -0.027675495 3.1598592e-23)
(0.2554401 -0.026842549 2.6556433e-22)
(0.26987601 -0.025974887 -7.4150834e-21)
(0.28440726 -0.025080555 3.8616809e-21)
(0.29900293 -0.02416681 8.4749019e-21)
(0.31363308 -0.023240224 -3.8351747e-21)
(0.32826886 -0.022306764 -2.2130359e-21)
(0.34288265 -0.021371846 1.0124438e-21)
(0.35744813 -0.020440377 -1.7155317e-21)
(0.37194042 -0.019516784 1.353225e-21)
(0.38633612 -0.018605036 7.1845894e-22)
(0.40061342 -0.017708665 1.5268374e-21)
(0.41475215 -0.016830773 -1.9526601e-21)
(0.42873383 -0.015974058 2.2235661e-21)
(0.44254167 -0.015140823 5.5188486e-22)
(0.45616064 -0.014332994 4.0322464e-22)
(0.46957739 -0.013552148 3.2134452e-22)
(0.48278029 -0.012799528 8.7324865e-22)
(0.4957594 -0.012076073 -1.3708583e-21)
(0.50850641 -0.011382444 3.7065492e-22)
(0.52101464 -0.010719054 1.0941223e-22)
(0.53327896 -0.010086103 -4.5172031e-23)
(0.54529587 -0.0094836064 8.6732931e-23)
(0.5570633 -0.0089114446 -3.7184874e-22)
(0.56858107 -0.0083693773 1.8293436e-22)
(0.57984979 -0.0078571853 -3.4987057e-23)
(0.5908746 -0.0073744504 3.9004005e-22)
(0.60165442 -0.0069216018 -1.8544336e-22)
(0.61221613 -0.006497051 4.7323276e-23)
(0.62251461 -0.0061071867 4.360325e-23)
(0.63273357 -0.0057363215 -7.359885e-23)
(0.64241396 -0.0054443954 -1.2082337e-22)
(0.65299945 -0.0050704883 3.8808795e-22)
(0.66054947 -0.005154232 1.7270409e-22)
(0.67619304 -0.0043069973 -8.3039581e-22)
(0.15021526 -0.031460423 1.5010124e-21)
(0.15354687 -0.035257388 -1.1566609e-20)
(0.1606162 -0.038010913 6.6441968e-21)
(0.16880588 -0.03947909 -1.3324739e-20)
(0.17698221 -0.040520681 -1.9758304e-21)
(0.18552343 -0.041302271 9.1599381e-21)
(0.19458417 -0.041757227 -9.7662155e-21)
(0.20408689 -0.041913701 1.5662774e-21)
(0.21398765 -0.041833321 1.2903796e-20)
(0.22427595 -0.041554325 3.4031984e-21)
(0.2349325 -0.041102034 -6.2096944e-21)
(0.24593017 -0.040500439 -2.8638087e-21)
(0.25724154 -0.039771738 -5.8409049e-21)
(0.26883907 -0.038935045 -6.455312e-21)
(0.28069418 -0.038006964 3.2356921e-21)
(0.29277758 -0.037002291 8.462111e-22)
(0.30505969 -0.035934314 1.3679573e-21)
(0.31751093 -0.034815011 -3.385041e-21)
(0.3301019 -0.033655238 -4.2428841e-21)
(0.34280356 -0.032464884 2.3616499e-21)
(0.3555875 -0.031252986 3.225134e-21)
(0.36842606 -0.030027805 -1.5636184e-21)
(0.38129252 -0.02879689 1.5867259e-21)
(0.39416125 -0.027567121 -3.9123946e-22)
(0.40700783 -0.026344732 -3.9196381e-21)
(0.41980915 -0.025135341 -3.0332802e-21)
(0.43254354 -0.023943965 -1.9026244e-22)
(0.4451908 -0.022775038 4.2858948e-22)
(0.45773228 -0.021632429 -2.2106022e-21)
(0.47015089 -0.020519465 -8.5497041e-22)
(0.48243117 -0.019438953 2.2837644e-22)
(0.49455925 -0.018393208 -1.2498668e-21)
(0.50652283 -0.017384085 6.2632981e-24)
(0.51831122 -0.016413013 -4.2420801e-22)
(0.52991528 -0.015481035 -4.7193578e-22)
(0.5413274 -0.014588846 -5.1995545e-22)
(0.55254146 -0.013736843 -8.4132887e-22)
(0.56355289 -0.012925165 -5.4496416e-23)
(0.57435852 -0.012153759 -3.9160391e-24)
(0.58495699 -0.011422403 -5.1972177e-22)
(0.59534773 -0.010730899 -9.160718e-23)
(0.60553459 -0.010078771 -3.3239232e-22)
(0.61551539 -0.0094667123 -4.3759704e-22)
(0.62531512 -0.0088926237 3.784153e-22)
(0.63488917 -0.0083653904 1.4820893e-23)
(0.6444136 -0.0078635666 1.8237453e-22)
(0.65344684 -0.007469324 -1.3246542e-22)
(0.66336941 -0.0069629343 -2.6690832e-22)
(0.67042146 -0.0070791323 -4.4693287e-23)
(0.68517832 -0.0059326646 4.6229414e-22)
(0.25468562 -0.036552746 -2.0900307e-20)
(0.25447016 -0.041393497 4.7585949e-20)
(0.25907328 -0.044745644 1.0348095e-20)
(0.26508407 -0.046442028 -1.5765314e-20)
(0.27070927 -0.047714299 -2.0227948e-21)
(0.27651988 -0.048747759 2.623224e-21)
(0.28283542 -0.049413701 -1.6608196e-21)
(0.28957683 -0.049728081 -4.686141e-21)
(0.29669649 -0.049761412 -4.0159158e-21)
(0.30420538 -0.049557034 -1.2207636e-20)
(0.31210209 -0.049141668 1.789775e-20)
(0.32036927 -0.048540783 6.5219885e-21)
(0.32898689 -0.047778945 -1.678052e-20)
(0.33793391 -0.046877999 1.0317572e-20)
(0.34718696 -0.04585728 8.3849903e-21)
(0.35672062 -0.044734293 -8.7923764e-22)
(0.36650832 -0.043525047 -3.1222231e-21)
(0.37652275 -0.042244228 -3.8197296e-21)
(0.38673627 -0.040905339 -1.389257e-21)
(0.39712115 -0.039520832 -1.2304183e-21)
(0.40764993 -0.038102201 -3.0257587e-21)
(0.41829563 -0.036660048 0)
(0.42903197 -0.035204134 -1.3451902e-21)
(0.43983356 -0.033743401 3.9309493e-21)
(0.45067606 -0.032286007 5.4052632e-21)
(0.46153631 -0.030839333 -9.4112529e-22)
(0.4723924 -0.029410006 -2.9274407e-21)
(0.48322379 -0.028003913 3.0258348e-21)
(0.49401138 -0.026626222 2.5447535e-22)
(0.50473751 -0.025281404 3.4352411e-21)
(0.51538602 -0.023973266 -5.3459717e-22)
(0.52594224 -0.022704984 1.7173448e-21)
(0.53639301 -0.021479138 -7.9964228e-22)
(0.54672665 -0.020297766 2.9094031e-22)
(0.55693295 -0.019162403 -4.3403818e-22)
(0.56700317 -0.018074138 5.6231534e-22)
(0.57692999 -0.017033672 4.570974e-22)
(0.58670756 -0.016041373 3.8255466e-22)
(0.59633141 -0.01509736 -9.593587e-22)
(0.60579881 -0.014201525 6.8355167e-22)
(0.61510779 -0.013353792 -3.6957209e-22)
(0.6242607 -0.012553719 -1.1033129e-21)
(0.63325411 -0.011802339 1.4078087e-21)
(0.64211075 -0.011097157 -6.2005473e-23)
(0.65078679 -0.010449478 -1.5815861e-22)
(0.65944873 -0.0098326026 -7.8243812e-24)
(0.66767721 -0.0093492162 -1.2621394e-22)
(0.67677302 -0.0087261743 -4.6581957e-22)
(0.68320486 -0.00887361 8.788293e-22)
(0.69685025 -0.0074648636 -4.4315514e-23)
(0.37635124 -0.038368152 -1.7495096e-20)
(0.37170972 -0.044270214 1.2832047e-20)
(0.37286684 -0.048161595 2.9754578e-21)
(0.37591039 -0.050098832 -7.6353703e-21)
(0.3783052 -0.051669952 1.2055978e-20)
(0.38072287 -0.053042353 7.7914098e-21)
(0.38367594 -0.054030019 -1.2647689e-20)
(0.3871005 -0.054633081 -6.0679757e-21)
(0.39092916 -0.054917982 1.2697337e-20)
(0.39518235 -0.054927111 -1.5304971e-20)
(0.39987417 -0.054687491 -1.4063188e-20)
(0.40499498 -0.054224628 1.4129631e-20)
(0.41052853 -0.053563635 6.8193825e-21)
(0.41645708 -0.052727923 -4.203765e-21)
(0.42276004 -0.05173899 -1.8545611e-21)
(0.42941393 -0.050616723 -4.0581715e-21)
(0.43639337 -0.049379675 5.3047596e-21)
(0.44367184 -0.0480452 3.6682082e-21)
(0.45122212 -0.046629521 -3.2408292e-21)
(0.45901666 -0.045147787 3.1379482e-21)
(0.46702794 -0.043614131 2.7666791e-21)
(0.47522877 -0.042041698 -3.211112e-21)
(0.48359254 -0.040442673 3.7056555e-22)
(0.49209341 -0.038828288 -3.2571637e-21)
(0.50070649 -0.037208835 7.2454101e-21)
(0.50940797 -0.035593676 6.1080567e-21)
(0.51817527 -0.03399125 8.0973082e-22)
(0.52698706 -0.032409091 -1.7683222e-21)
(0.53582336 -0.030853852 3.7021737e-21)
(0.54466562 -0.029331325 7.188513e-21)
(0.55349665 -0.027846485 2.3049293e-21)
(0.56230076 -0.026403524 3.3164831e-21)
(0.57106363 -0.025005906 1.995619e-21)
(0.57977242 -0.023656414 7.4557837e-22)
(0.58841568 -0.022357219 -2.6374536e-22)
(0.59698336 -0.021109933 2.7203081e-21)
(0.60546681 -0.019915691 6.1992082e-22)
(0.61385881 -0.018775209 2.9487721e-22)
(0.62215343 -0.017688893 5.6232384e-23)
(0.63034651 -0.016656867 9.8966276e-22)
(0.63843461 -0.015679276 4.7019994e-23)
(0.64641849 -0.014755822 4.4247275e-22)
(0.65429344 -0.013887954 -1.2621754e-22)
(0.66207968 -0.013072909 -2.7734696e-22)
(0.66973452 -0.012324312 -1.5218551e-22)
(0.67741339 -0.011610795 -4.2207621e-22)
(0.68472318 -0.011053494 1.6139136e-22)
(0.69287137 -0.010332285 -1.2723513e-22)
(0.69859419 -0.010509382 -5.0126406e-22)
(0.71095653 -0.0088817096 2.4586848e-22)
(0.50927424 -0.03597426 3.6471429e-21)
(0.49953032 -0.042960639 -1.8958298e-20)
(0.49627548 -0.047383434 -2.3083846e-21)
(0.49555584 -0.049736738 5.4869464e-21)
(0.49416944 -0.051818001 3.0528114e-21)
(0.49269563 -0.053705366 -4.988712e-23)
(0.49181218 -0.055187602 6.1896655e-21)
(0.4915144 -0.05626535 7.6251006e-21)
(0.49171155 -0.056990482 9.8580386e-21)
(0.4924106 -0.057395521 -1.1250039e-20)
(0.49363091 -0.057506247 -2.1579418e-20)
(0.49536764 -0.057348361 -3.9353464e-21)
(0.49760454 -0.056947073 1.593814e-20)
(0.50032288 -0.056326949 1.2808956e-20)
(0.50350151 -0.055511671 -5.9066945e-21)
(0.50711637 -0.054523783 1.3817051e-21)
(0.51114124 -0.053384719 -3.6600824e-21)
(0.51554859 -0.052114872 2.2443734e-21)
(0.52031012 -0.050733578 -2.9123015e-22)
(0.52539717 -0.049259094 -1.865409e-21)
(0.53078107 -0.047708588 7.8265854e-21)
(0.53643346 -0.046098136 -2.9308745e-22)
(0.54232652 -0.044442714 4.1818079e-22)
(0.5484332 -0.042756186 -6.5646663e-22)
(0.55472741 -0.041051305 -4.3029361e-21)
(0.5611841 -0.039339708 4.2085136e-21)
(0.56777944 -0.037631927 1.9031211e-21)
(0.57449086 -0.035937402 -3.3081899e-21)