/*--------------------------------*- C++ -*----------------------------------*\
  =========                 |
  \\      /  F ield         | OpenFOAM: The Open Source CFD Toolbox
   \\    /   O peration     | Website:  https://openfoam.org
    \\  /    A nd           | Version:  6
     \\/     M anipulation  |
\*---------------------------------------------------------------------------*/
FoamFile
{
    version     2.0;
    format      ascii;
    class       surfaceScalarField;
    location    "105";
    object      phi_0;
}
// * * * * * * * * * * * * * * * * * * * * * * * * * * * * * * * * * * * * * //

dimensions      [0 3 -1 0 0 0 0];

internalField   nonuniform List<scalar> 
18180
(
0.00031875093
-0.00016320291
-0.00015554803
0.0013092978
-0.001367092
0.00037654503
0.0030330857
-0.003333977
0.0016101892
0.0055501315
-0.005976543
0.0034594971
0.0089187657
-0.0092399345
0.0058713003
0.013193644
-0.013080698
0.0088058196
0.018423088
-0.017461363
0.012231919
0.024646115
-0.022347713
0.016124685
0.031889289
-0.027705652
0.020462478
0.040163645
-0.033498593
0.025224237
0.049462002
-0.039685695
0.030387338
0.059757038
-0.046220946
0.03592591
0.071000522
-0.053053068
0.041809583
0.083124174
-0.060126277
0.048002625
0.096042745
-0.067381986
0.054463415
0.10965986
-0.074761575
0.061144462
0.12387602
-0.082210059
0.067993894
0.13860387
-0.089680394
0.074952548
0.15384195
-0.097155441
0.081917362
-0.10463283
0.08868593
0.16978885
0.00039752176
-0.00056072467
0.0016096924
-0.0025792626
0.0036895384
-0.0054138231
0.0066878376
-0.0089748421
0.010651271
-0.013203367
0.015618762
-0.018048189
0.02161747
-0.023460072
0.028658827
-0.029389069
0.036734901
-0.035781727
0.045815503
-0.042579195
0.055846449
-0.04971664
0.066749345
-0.057123842
0.078423143
-0.064726865
0.090747537
-0.072450671
0.10358802
-0.080222467
0.11680196
-0.087975517
0.13024481
-0.095652909
0.14377687
-0.10321245
0.15726219
-0.11064077
-0.11786836
0.17049773
0.00048065099
-0.0010413757
0.0019188055
-0.0040174172
0.0043527177
-0.0078477353
0.0078169847
-0.012439109
0.012338316
-0.017724699
0.017930132
-0.023640005
0.024587483
-0.030117422
0.032282776
-0.037084362
0.040962747
-0.044461698
0.050547159
-0.052163608
0.060929609
-0.06009909
0.071980601
-0.068174834
0.083552778
-0.076299042
0.095487889
-0.084385783
0.10762476
-0.092359342
0.11980722
-0.10015797
0.13189074
-0.10773643
0.14374589
-0.1150676
0.15525068
-0.12214556
-0.12892024
0.16630255
0.00056619978
-0.0016075755
0.0022280574
-0.0056792748
0.0050008633
-0.010620541
0.0088944482
-0.016332694
0.013905923
-0.022736174
0.020012808
-0.02974689
0.027167695
-0.037272309
0.035294911
-0.045211578
0.044289625
-0.053456412
0.054019785
-0.061893768
0.064330916
-0.070410221
0.075053443
-0.078897361
0.086011867
-0.087257465
0.097034774
-0.095408689
0.10796457
-0.10328914
0.1186658
-0.1108592
0.12903112
-0.11810176
0.138984
-0.12502047
0.14847543
-0.13163699
-0.13795058
0.15750577
0.00065091831
-0.0022584938
0.0025244616
-0.0075528182
0.0056038928
-0.013699972
0.009864905
-0.020593706
0.015265267
-0.028136536
0.021737301
-0.036218924
0.029183613
-0.044718621
0.037476251
-0.053504216
0.046459551
-0.062439712
0.055956525
-0.071390742
0.065778188
-0.080231883
0.075734753
-0.088853927
0.085647352
-0.097170064
0.095358831
-0.10512017
0.10474236
-0.11267267
0.11370697
-0.11982381
0.12219971
-0.1265945
0.13020442
-0.13302518
0.13773733
-0.1391699
-0.14507241
0.14485916
0.00073066903
-0.0029891628
0.0027922077
-0.0096143568
0.0061268305
-0.017034595
0.010667139
-0.025134015
0.01632327
-0.033792667
0.022976063
-0.042871717
0.030475435
-0.052217994
0.038643559
-0.06167234
0.047282452
-0.071078605
0.056185034
-0.080293324
0.065148145
-0.089194994
0.073985732
-0.097691514
0.082540406
-0.10572474
0.090691934
-0.1132717
0.098361731
-0.12034246
0.10551317
-0.12697525
0.1121482
-0.13322954
0.11830133
-0.13917831
0.12403206
-0.14490063
-0.15046763
0.12942729
0.0008007645
-0.0037899273
0.0030140349
-0.011827627
0.0065331392
-0.020553699
0.011240449
-0.029841325
0.016993257
-0.039545475
0.023619259
-0.049497719
0.030919056
-0.05951779
0.038674239
-0.069427523
0.046659712
-0.079064078
0.054658282
-0.088291894
0.062475211
-0.097011924
0.0699505
-0.1051668
0.076967229
-0.11274147
0.08345503
-0.1197595
0.089388657
-0.12627609
0.094782447
-0.13236904
0.099682004
-0.13812909
0.10415475
-0.14365106
0.10828092
-0.14902679
-0.15433746
0.11215074
0.00085609099
-0.0046460183
0.0031721726
-0.014143709
0.0067874501
-0.024168977
0.011530155
-0.03458403
0.017203913
-0.045219233
0.023587132
-0.055880938
0.030440522
-0.066371181
0.037519984
-0.076506985
0.044592397
-0.086136491
0.051451474
-0.09515097
0.057930904
-0.10349135
0.063912787
-0.11114869
0.069330342
-0.11815902
0.074165039
-0.12459419
0.078439223
-0.13055027
0.082205913
-0.13613573
0.085537681
-0.14146086
0.088516344
-0.14662972
0.091224748
-0.1517352
-0.15685555
0.093742842
0.00089029235
-0.0055363106
0.003248384
-0.016501801
0.0068578175
-0.02777841
0.011492759
-0.039218971
0.01690719
-0.050633664
0.022839329
-0.061813077
0.029024109
-0.07255596
0.035209635
-0.082692511
0.041174194
-0.09210105
0.046740479
-0.10071726
0.051784498
-0.10853537
0.056237961
-0.11560215
0.060084371
-0.12200543
0.063350135
-0.12785996
0.066092747
-0.13329289
0.06838823
-0.13843121
0.070319742
-0.14339237
0.071968703
-0.14827868
0.073409044
-0.15317554
-0.15815086
0.07470435
0.00089984483
-0.0064361555
0.0032334666
-0.018835422
0.0067293237
-0.031274268
0.011111405
-0.043601052
0.016092758
-0.055615017
0.0213849
-0.067105219
0.026714114
-0.077885174
0.031839238
-0.087817636
0.036567042
-0.096828854
0.04076201
-0.10491222
0.04434895
-0.11212231
0.047308531
-0.11856173
0.049667273
-0.12436417
0.051484358
-0.12967704
0.052837744
-0.13464627
0.053811716
-0.13940518
0.054487289
-0.14406795
0.054936084
-0.14872748
0.055217501
-0.15345695
0.055377623
-0.15831098
-0.00020239133
0.00020239132
9.0956908e-12
-0.00067778825
0.00047539692
-1.2037612e-11
-0.0013425055
0.00066471728
-3.3089409e-11
-0.0021324163
0.00078991087
-4.7293839e-11
-0.0029959385
0.00086352223
-5.6730364e-11
-0.0038909466
0.00089500812
-6.3568569e-11
-0.0047825378
0.0008915913
-6.8554843e-11
-0.0056411631
0.00085862535
-7.1834081e-11
-0.0064411562
0.00079999314
-7.3742243e-11
-0.0071595826
0.0007184265
-7.3312974e-11
-0.0077753213
0.00061573879
-7.1406804e-11
-0.0082683293
0.00049300801
-6.6213916e-11
-0.0086190616
0.00035073241
-5.9215381e-11
-0.0088080384
0.00018897679
-4.8097336e-11
-0.0088155891
7.5506999e-06
-3.4738911e-11
-0.0086218765
-0.00019371254
-1.6633984e-11
-0.0082071607
-0.00041471585
4.3287866e-12
-0.0075513933
-0.00065576746
3.0726234e-11
-0.0066338119
-0.00091758139
6.0304661e-11
-0.0011865532
-0.0054472589
9.4639216e-11
-0.00018798598
0.0003903773
-0.00062504339
0.00091245433
-0.0012288216
0.0012684955
-0.0019352973
0.0014963866
-0.002692275
0.0016204999
-0.003456448
0.0016591811
-0.0041912513
0.0016263946
-0.0048650523
0.0015324264
-0.005449713
0.0013846538
-0.0059194546
0.001188168
-0.0062499418
0.00094622603
-0.0064175415
0.00066060766
-0.0063987172
0.00033190814
-0.0061695504
-4.0189966e-05
-0.0057054153
-0.00045658445
-0.0049808982
-0.00091822962
-0.0039700139
-0.0014256002
-0.0026461261
-0.0019796553
-0.00098179738
-0.0025819101
-0.003202547
0.0010341965
-0.00015893638
0.00054931367
-0.00051891733
0.0012724353
-0.0010008164
0.0017503945
-0.0015413247
0.0020368949
-0.0020874284
0.0021666036
-0.0025938175
0.0021655702
-0.0030209413
0.0020535184
-0.0033333407
0.0018448258
-0.0034983028
0.0015496159
-0.0034847844
0.0011746497
-0.0032625286
0.00072397015
-0.002801344
0.00019942314
-0.002070472
-0.00039896387
-0.001038072
-0.00107259
0.00032920773
-0.0018238642
0.0020665066
-0.0026555285
0.0042107115
-0.0035698051
0.0068001509
-0.0045690947
0.0098745253
-0.0056562845
-0.0067811458
0.013453124
-0.00011757149
0.00066688516
-0.00036701032
0.0015218741
-0.00067353025
0.0020569144
-0.00097484006
0.0023382047
-0.0012168549
0.0024086185
-0.0013515659
0.0023002812
-0.0013353826
0.0020373351
-0.0011276782
0.0016371213
-0.0006895925
0.0011115302
1.691952e-05
0.00046813764
0.0010298727
-0.00028898301
0.0023878982
-0.0011586023
0.0041307889
-0.0021418546
0.0062999811
-0.0032417822
0.0089390604
-0.0044629435
0.012094319
-0.0058107866
0.015815128
-0.0072906146
0.020153642
-0.0089076082
0.02516458
-0.010667223
-0.012494889
0.030878322
-6.6907719e-05
0.00073379288
-0.00017916231
0.0016341287
-0.00026651645
0.0021442686
-0.00026764756
0.0023393358
-0.00012710586
0.0022680768
0.00020632241
0.001966853
0.00078094368
0.0014627138
0.0016433265
0.00077473842
0.0028392715
-8.4414756e-05
0.0044145969
-0.0011071878
0.0064157024
-0.0022900885
0.0088899852
-0.0036328852
0.011886166
-0.0051380352
0.015454617
-0.0068102338
0.01964774
-0.0086560659
0.024520579
-0.010683626
0.030131707
-0.012901742
0.036543728
-0.015319629
0.043824048
-0.017947542
-0.020685845
0.052015005
-9.9802537e-06
0.00074377313
3.4555469e-05
0.001589593
0.00019994257
0.0019788815
0.00054687022
0.0019924081
0.0011324286
0.0016825184
0.0020112693
0.0010880122
0.00323657
0.00023741311
0.0048609169
-0.00084960842
0.0069369623
-0.0021604602
0.0095177994
-0.0036880248
0.01265717
-0.0054294591
0.016409569
-0.0073852847
0.020830173
-0.0095586388
0.025974674
-0.011954735
0.031899187
-0.014580578
0.038660543
-0.017444983
0.046317479
-0.020558678
0.054932696
-0.023934846
0.064576689
-0.027591536
-0.031410005
0.07530085
5.0759804e-05
0.00069301333
0.00026569369
0.0013746591
0.00070834035
0.0015362348
0.0014391932
0.0012615552
0.0025170917
0.00060461996
0.0039999829
-0.000394879
0.005945518
-0.001708122
0.0084114412
-0.0033155316
0.01145572
-0.0052047389
0.015136513
-0.0073688184
0.019511905
-0.0098048506
0.024639373
-0.012512753
0.030575059
-0.015494324
0.037372862
-0.018752538
0.045083512
-0.022291229
0.053754021
-0.026115492
0.063428496
-0.030233153
0.074151529
-0.034657879
0.085977144
-0.039417151
-0.044393951
0.098961089
0.00011380847
0.00057920486
0.00050855341
0.00097991412
0.0012460993
0.00079868895
0.0023869946
0.00012065988
0.0039915957
-0.00099998108
0.006120411
-0.0025236944
0.0088340825
-0.0044217935
0.012193208
-0.0066746572
0.016257937
-0.0092694675
0.021087222
-0.012198104
0.026737786
-0.015455414
0.033262789
-0.019037756
0.040710244
-0.022941779
0.049121209
-0.027163503
0.058527889
-0.031697909
0.068952011
-0.036539614
0.080404643
-0.041685785
0.092889309
-0.047142545
0.10641349
-0.052941334
-0.05900195
0.12102149
0.00017851122
0.00040069363
0.00076009252
0.00039833283
0.0018054838
-0.0002467023
0.0033749796
-0.0014488359
0.0055294251
-0.0031544267
0.0083299598
-0.0053242291
0.011837392
-0.0079292258
0.016111277
-0.010948542
0.021208634
-0.014366824
0.027182325
-0.018171795
0.034079128
-0.022352217
0.04193753
-0.026896159
0.050785305
-0.031789554
0.06063687
-0.037015069
0.071490439
-0.042551477
0.083325007
-0.048374182
0.096098154
-0.054458931
0.10974737
-0.060791763
0.12420355
-0.067397516
-0.074281427
0.13948303
0.0002451456
0.0010200235
0.0023835104
0.0043941716
0.0071110452
0.010592636
0.014895329
0.020071473
0.026167127
0.033219568
0.041254689
0.050284441
0.06030447
0.071292026
0.083203964
0.095974244
0.10950921
0.12366999
0.13818984
0.15259434
-0.0035062453
-0.0019410138
1.8334464e-10
-0.0012840164
-0.0022222291
2.5443454e-10
0.0011970961
-0.0024811129
3.2738207e-10
0.0038801904
-0.0026830947
3.9858966e-10
0.0067384639
-0.0028582739
4.7255446e-10
0.0097546132
-0.0030161499
5.4497196e-10
0.012909706
-0.0031550934
6.1856001e-10
0.016185721
-0.0032760161
6.8529649e-10
0.01956696
-0.0033812395
7.3789474e-10
0.023039206
-0.0034722462
7.683207e-10
0.026589174
-0.0035499688
7.6835327e-10
0.030204442
-0.0036152691
7.3374782e-10
0.03387337
-0.0036689289
6.5870955e-10
0.037584965
-0.0037115953
5.4150104e-10
0.041328778
-0.0037438136
3.7920371e-10
0.045094842
-0.0037660634
1.7487957e-10
0.048873618
-0.0037787767
-6.8479913e-11
0.052655969
-0.0037823504
-3.4046687e-10
0.056433131
-0.0037771618
-6.3051936e-10
0.060196712
-0.0037635792
-9.2030139e-10
0.063938684
-0.0037419715
-1.1926101e-09
0.067651399
-0.0037127136
-1.4232537e-09
0.071327592
-0.0036761912
-1.5923652e-09
0.074960396
-0.0036328022
-1.6749359e-09
0.078543355
-0.0035829575
-1.6556908e-09
0.082070436
-0.0035270793
-1.5164772e-09
0.085536037
-0.0034655996
-1.2557894e-09
0.088934994
-0.0033989566
-8.6985051e-10
0.092262586
-0.0033275916
-3.7884058e-10
0.095514531
-0.0032519451
2.0290644e-10
0.098686984
-0.003172454
8.3089042e-10
0.10177653
-0.0030895476
1.4771464e-09
0.10478017
-0.0030036452
2.0773668e-09
0.10769532
-0.0029151539
2.6021974e-09
0.11051979
-0.0028244677
2.975866e-09
0.11325175
-0.0027319675
3.1855851e-09
0.11588977
-0.0026380216
3.1497089e-09
0.11843276
-0.0025429889
2.8950466e-09
0.12087998
-0.0024472264
2.3410129e-09
0.12323107
-0.0023510895
1.5731611e-09
0.12548604
-0.0022549753
5.3300908e-10
0.12764529
-0.0021592469
-6.7451806e-10
0.12970991
-0.0020646136
-1.9685934e-09
0.13168098
-0.0019710725
-3.1555695e-09
0.13356279
-0.0018818029
-4.0762041e-09
0.13535397
-0.0017911697
-4.5706733e-09
0.13707938
-0.0017254056
-4.4352667e-09
0.13869479
-0.0016154071
-3.6189072e-09
0.14040228
-0.0017074871
-2.1788976e-09
-0.0013553123
6.5482755e-10
0.0028552127
-0.0037620301
0.0049528115
-0.0043198279
0.0072961789
-0.0048244802
0.0098228698
-0.0052097856
0.012511824
-0.0055472282
0.01535072
-0.0058550453
0.018322817
-0.0061271911
0.021411713
-0.0063649117
0.024603389
-0.0065729161
0.027885087
-0.0067539439
0.031244676
-0.006909558
0.034670678
-0.0070412713
0.03815224
-0.0071504901
0.041679016
-0.0072383722
0.045241094
-0.0073058915
0.048828944
-0.007353913
0.05243339
-0.0073832228
0.056045593
-0.007394553
0.059657037
-0.0073886064
0.063259537
-0.0073660785
0.066845237
-0.0073276722
0.070406633
-0.0072741091
0.073936578
-0.0072061364
0.077428305
-0.0071245291
0.080875438
-0.0070300909
0.084272009
-0.0069236501
0.087612465
-0.0068060557
0.09089168
-0.0066781708
0.094104954
-0.0065408658
0.097248019
-0.0063950104
0.10031703
-0.0062414679
0.10330857
-0.0060810869
0.10621962
-0.0059146973
0.10904758
-0.005743106
0.1117902
-0.0055670935
0.11444565
-0.0053874152
0.11701243
-0.005204803
0.11948941
-0.0050199704
0.12187581
-0.0048336279
0.12417121
-0.0046464829
0.12637556
-0.004459329
0.1284892
-0.0042728902
0.13051317
-0.004088583
0.13244851
-0.0039064051
0.13429939
-0.0037326831
0.13606446
-0.0035562452
0.13776814
-0.0034290824
0.13936722
-0.0032144861
0.14105859
-0.0033988637
-0.0027081601
0.015024886
-0.0053337918
0.016856455
-0.0061513968
0.01891051
-0.0068785356
0.021117122
-0.007416397
0.023464656
-0.0078947628
0.025949465
-0.0083398536
0.028558931
-0.0087366575
0.031279577
-0.0090855582
0.034100306
-0.0093936446
0.037010889
-0.009664527
0.040001209
-0.0098998778
0.043061407
-0.01010147
0.046181963
-0.010271046
0.049353625
-0.010410034
0.052567366
-0.010519632
0.055814378
-0.010600926
0.059086077
-0.010654922
0.062374105
-0.010682581
0.065670345
-0.010684846
0.068966937
-0.010662671
0.072256301
-0.010617036
0.075531157
-0.010548965
0.078784549
-0.010459528
0.082009864
-0.010349845
0.085200857
-0.010221084
0.088351661
-0.010074454
0.091456806
-0.0099112009
0.094511227
-0.0097325912
0.097510266
-0.0095399049
0.10044968
-0.0093344252
0.10332564
-0.009117424
0.10613471
-0.0088901556
0.10887386
-0.0086538469
0.11154044
-0.0084096914
0.11413219
-0.0081588463
0.11664721
-0.0079024314
0.11908394
-0.0076415343
0.12144119
-0.0073772165
0.1237181
-0.0071105366
0.12591416
-0.0068425513
0.12802928
-0.0065744471
0.1300637
-0.0063073089
0.13201837
-0.0060432538
0.13389426
-0.0057822964
0.13569541
-0.0055338278
0.13742055
-0.0052813846
0.13909312
-0.0051016598
0.14067227
-0.0047936312
0.14234428
-0.005070875
-0.0040692578
0.032062061
-0.0065175309
0.03347774
-0.0075670755
0.035083766
-0.0084845615
0.036807163
-0.0091397939
0.038648619
-0.0097362187
0.040614434
-0.010305669
0.042697441
-0.010819664
0.044888118
-0.011276235
0.047178892
-0.011684418
0.049562537
-0.012048172
0.052031349
-0.01236869
0.054577374
-0.012647496
0.057192606
-0.012886278
0.059869005
-0.013086432
0.062598512
-0.013249139
0.065373087
-0.013375501
0.068184755
-0.013466589
0.071025642
-0.013523468
0.073888021
-0.013547225
0.076764347
-0.013538997
0.079647294
-0.013499983
0.08252979
-0.013431461
0.085405049
-0.013334787
0.088266599
-0.013211395
0.091108307
-0.013062792
0.093924398
-0.012890545
0.096709473
-0.012696276
0.099458518
-0.012481636
0.10216691
-0.0122483
0.10483043
-0.011997946
0.10744525
-0.011732243
0.11000793
-0.011452836
0.11251542
-0.011161336
0.11496504
-0.010859312
0.11735448
-0.010548287
0.11968179
-0.010229737
0.12194535
-0.0099050983
0.12414391
-0.009575774
0.12627654
-0.0092431664
0.12834267
-0.0089086792
0.13034211
-0.0085738894
0.13227505
-0.0082402443
0.13414235
-0.0079105535
0.13594492
-0.0075848731
0.13768663
-0.0072755357
0.1393664
-0.0069611542
0.1410063
-0.0067415612
0.14256894
-0.0063562683
0.14422536
-0.0067272924
-0.0054545238
0.052655752
-0.0071582783
0.053496818
-0.0084081416
0.054491443
-0.0094791857
0.055573942
-0.010222293
0.056759136
-0.010921413
0.058061323
-0.011607856
0.059479016
-0.012237357
0.061007351
-0.012804569
0.062642118
-0.013319186
0.064378724
-0.013784778
0.066211652
-0.014201617
0.068134633
-0.014570478
0.070140909
-0.014892553
0.07222338
-0.015168903
0.074374704
-0.015400463
0.076587371
-0.015588168
0.078853794
-0.015733012
0.081166384
-0.015836058
0.08351762
-0.01589846
0.085900103
-0.01592148
0.088306615
-0.015906495
0.090730162
-0.015855008
0.093164013
-0.015768639
0.095601738
-0.01564912
0.098037232
-0.015498286
0.10046474
-0.015318056
0.10287888
-0.015110415
0.10527464
-0.014877398
0.10764741
-0.014621068
0.10999296
-0.014343491
0.11230744
-0.014046727
0.11458741
-0.013732806
0.11682979
-0.01340372
0.11903189
-0.013061408
0.12119136
-0.012707755
0.12330621
-0.012344591
0.12537481
-0.011973694
0.12739584
-0.01159681
0.12936836
-0.011215685
0.13129175
-0.010832069
0.13316579
-0.010447931
0.13499063
-0.010065084
0.1367671
-0.0096870237
0.13849611
-0.0093138787
0.14018134
-0.0089607686
0.14182204
-0.0086018476
0.14343859
-0.008358114
0.14499803
-0.0079157131
0.14665253
-0.0083817872
-0.0068872211
0.075230266
-0.0070876944
0.075335681
-0.0085135565
0.075560526
-0.0097040307
0.075861324
-0.010523091
0.076266115
-0.011326205
0.076791755
-0.012133496
0.077441281
-0.012886883
0.078214626
-0.013577915
0.079110103
-0.014214663
0.080124566
-0.014799241
0.081253774
-0.015330825
0.082492435
-0.015809139
0.083834369
-0.016234487
0.085272798
-0.016607333
0.086800552
-0.016928216
0.08841018
-0.017197797
0.09009407
-0.017416902
0.091844548
-0.017586537
0.093653977
-0.017707889
0.095514825
-0.017782328
0.097419733
-0.017811403
0.099361567
-0.017796842
0.10133347
-0.017740539
0.10332888
-0.017644534
0.1053416
-0.017511004
0.10736577
-0.017342229
0.10939594
-0.017140578
0.11142702
-0.016908478
0.11345434
-0.016648391
0.11547364
-0.016362787
0.11748103
-0.016054124
0.11947306
-0.015724828
0.12144661
-0.015377277
0.12339899
-0.015013788
0.12532785
-0.014636615
0.12723121
-0.014247945
0.12910742
-0.01384991
0.13095521
-0.013444601
0.13277364
-0.013034112
0.13456212
-0.012620548
0.13632047
-0.012206276
0.13804887
-0.011793485
0.13974819
-0.011386344
0.14141941
-0.010985099
0.14306612
-0.010607479
0.14468798
-0.010223707
0.14630354
-0.0099736807
0.14788501
-0.0094971776
0.1495632
-0.010059977
-0.0083994833
0.098034478
-0.0061610824
0.097267613
-0.007746692
0.096591753
-0.0090281702
0.096007775
-0.0099391138
0.095551814
-0.010870244
0.095235103
-0.011816785
0.095063012
-0.012714793
0.095039548
-0.013554451
0.095164246
-0.014339361
0.095433844
-0.015068839
0.095843985
-0.015740966
0.096389263
-0.016354417
0.097063196
-0.01690842
0.097858556
-0.017402692
0.098767662
-0.017837322
0.099782547
-0.018212682
0.10089508
-0.018529436
0.10209708
-0.01878854
0.10338043
-0.018991239
0.10473715
-0.019139041
0.10615945
-0.019233704
0.10763982
-0.019277218
0.10917107
-0.019271789
0.11074635
-0.019219809
0.11235918
-0.019123832
0.11400349
-0.018986544
0.11567364
-0.018810728
0.11736441
-0.018599242
0.119071
-0.01835498
0.12078905
-0.018080843
0.12251465
-0.017779718
0.12424427
-0.017454452
0.12597482
-0.017107831
0.12770361
-0.016742574
0.12942832
-0.016361322
0.13114701
-0.015966639
0.13285812
-0.015561024
0.13456045
-0.01514693
0.13625316
-0.014726817
0.13793577
-0.014303156
0.13960822
-0.013878725
0.14127083
-0.013456103
0.14292462
-0.013040132
0.14457074
-0.012631215
0.14621277
-0.01224951
0.14785093
-0.011861864
0.14950188
-0.011624635
0.15114345
-0.011138751
0.15288395
-0.011800473
-0.010033079
0.11919816
-0.0043377542
0.11750591
-0.0060544353
0.11586676
-0.0073890263
0.11436464
-0.0084369894
0.11303577
-0.0095413797
0.11187768
-0.010658693
0.11089583
-0.011732943
0.11009651
-0.012755127
0.10947912
-0.013721976
0.10903909
-0.014628802
0.10877059
-0.01547247
0.10866698
-0.016250802
0.10872065
-0.016962095
0.10892331
-0.01760535
0.10926623
-0.018180241
0.10974047
-0.018686926
0.11033702
-0.019125981
0.11104686
-0.019498386
0.11186113
-0.019805507
0.11277115
-0.020049058
0.11376851
-0.020231069
0.11484515
-0.020353859
0.11599337
-0.02042001
0.11720589
-0.020432321
0.11847584
-0.020393788
0.11979685
-0.020307553
0.121163
-0.020176878
0.12256885
-0.020005096
0.12400946
-0.019795583
0.12548034
-0.019551724
0.12697749
-0.019276873
0.12849738
-0.018974341
0.13003692
-0.018647364
0.13159344
-0.018299095
0.13316471
-0.017932595
0.1347489
-0.017550834
0.13634459
-0.017156709
0.13795072
-0.01675306
0.13956664
-0.016342736
0.14119208
-0.015928599
0.14282721
-0.015513855
0.1444726
-0.015101494
0.14612951
-0.014697038
0.14779938
-0.014301087
0.14948592
-0.013936052
0.15119001
-0.013565958
0.1529265
-0.013361121
0.15467908
-0.01289133
0.15653341
-0.013654801
-0.011839345
0.1369043
-0.0017590253
0.13438662
-0.0035367496
0.13182836
-0.0048307728
0.12947164
-0.0060802712
0.12734367
-0.0074134025
0.12542581
-0.0087408338
0.1237209
-0.010028035
0.12223403
-0.011268259
0.12096366
-0.012451603
0.11990401
-0.013569155
0.11904759
-0.014616045
0.11838604
-0.015589255
0.11791038
-0.016486434
0.11761108
-0.017306052
0.11747828
-0.018047444
0.11750198
-0.018710621
0.11767215
-0.019296155
0.11797889
-0.019805125
0.11841247
-0.020239086
0.11896344
-0.020600027
0.11962268
-0.020890315
0.12038149
-0.021112665
0.12123158
-0.021270101
0.12216516
-0.021365899
0.12317493
-0.021403561
0.12425414
-0.021386757
0.12539654
-0.021319282
0.12659646
-0.021205015
0.12784875
-0.021047878
0.12914882
-0.020851789
0.13049258
-0.020620635
0.13187648
-0.02035824
0.13329746
-0.02006834
0.13475293
-0.019754569
0.13624079
-0.019420454
0.13775937
-0.019069414
0.13930744
-0.01870478
0.14088419
-0.018329813
0.14248924
-0.017947786
0.14412263
-0.017561982
0.14578484
-0.017176065
0.1474768
-0.016793459
0.14920014
-0.016420378
0.15095672
-0.016057663
0.15275048
-0.01572981
0.15458307
-0.015398556
0.15646764
-0.015245681
0.15839386
-0.014817555
0.16042518
-0.015686119
-0.013878285
0.15005899
0.00077632322
0.14677027
-0.00024803032
0.1434732
-0.0015337024
0.14042572
-0.0030327892
0.13763115
-0.0046188336
0.13508324
-0.0061929248
0.13278383
-0.0077286244
0.13073301
-0.0092174346
0.12892833
-0.010646928
0.12736461
-0.01200543
0.12603401
-0.013285448
0.12492714
-0.014482384
0.12403382
-0.015593117
0.1233434
-0.016615632
0.1228449
-0.017548941
0.12252721
-0.01839293
0.12237926
-0.019148206
0.12239015
-0.019816011
0.12254921
-0.020398155
0.12284615
-0.020896961
0.12327105
-0.021315211
0.12381447
-0.021656089
0.1244675
-0.02192313
0.12522177
-0.022120169
0.12606949
-0.022251287
0.12700349
-0.022320756
0.1280172
-0.022332986
0.12910466
-0.022292475
0.13026054
-0.022203758
0.13148011
-0.022071365
0.13275926
-0.021899777
0.13409442
-0.021693398
0.1354826
-0.021456522
0.13692135
-0.021193325
0.13840875
-0.02090785
0.13994335
-0.020604014
0.14152419
-0.020285626
0.1431508
-0.019956416
0.14482313
-0.019620116
0.14654161
-0.019280463
0.14830716
-0.018941614
0.15012115
-0.01860745
0.15198568
-0.018284905
0.15390308
-0.017975069
0.15587772
-0.017704446
0.15791193
-0.01743277
0.16001775
-0.017351496
0.16218926
-0.016989067
0.16447282
-0.017969683
-0.016214742
0.18891913
0.0053779871
-0.1935208
0.18510952
0.0035615846
0.18171792
0.0018578982
0.17857325
0.00011188151
0.17563816
-0.0016837496
0.17288764
-0.0034423965
0.17030344
-0.00514443
0.16787659
-0.0067905837
0.1656032
-0.0083735416
0.16348113
-0.009883356
0.16150851
-0.01131283
0.15968324
-0.012657113
0.15800268
-0.013912554
0.15646354
-0.01507649
0.1550619
-0.016147304
0.1537933
-0.017124332
0.15265282
-0.018007726
0.15163517
-0.018798358
0.15073477
-0.019497758
0.14994586
-0.020108051
0.14926255
-0.020631895
0.14867888
-0.021072423
0.14818893
-0.021433179
0.14778682
-0.021718062
0.1474668
-0.021931264
0.14722325
-0.02207721
0.14705076
-0.022160499
0.14694413
-0.022185843
0.14689839
-0.022158018
0.14690884
-0.022081809
0.14697103
-0.021961968
0.14708081
-0.021803177
0.1472343
-0.021610018
0.14742793
-0.021386953
0.14765839
-0.021138315
0.14792269
-0.020868311
0.14821811
-0.020581041
0.14854222
-0.020280529
0.14889291
-0.019970803
0.14926835
-0.019655907
0.14966707
-0.019340335
0.15008792
-0.019028295
0.15053022
-0.018727211
0.15099357
-0.018438419
0.15147875
-0.018189622
0.15198568
-0.017939703
0.15251928
-0.01788509
0.15307482
-0.017544612
0.15367722
-0.018572085
-0.016825794
0.21686768
0.0087758847
-0.22026557
0.21339424
0.0070350181
0.21018189
0.0050702516
0.20707705
0.0032167169
0.20403095
0.0013623491
0.20107455
-0.00048599351
0.19822473
-0.0022946087
0.19548601
-0.0040518592
0.19286428
-0.0057518171
0.19036639
-0.007385466
0.18799754
-0.008943977
0.18576112
-0.010420699
0.18365915
-0.011810577
0.18169231
-0.013109653
0.17986008
-0.014315075
0.17816084
-0.015425091
0.17659204
-0.016438932
0.17515039
-0.0173567
0.17383192
-0.018179292
0.1726322
-0.018908327
0.17154638
-0.019546076
0.17056934
-0.020095384
0.16969577
-0.020559606
0.16892024
-0.020942532
0.16823729
-0.021248319
0.1676415
-0.021481421
0.16712752
-0.021646521
0.16669014
-0.021748461
0.16632431
-0.02179219
0.1660252
-0.021782694
0.16578819
-0.021724956
0.16560892
-0.021623907
0.16548329
-0.021484395
0.1654075
-0.021311158
0.165378
-0.021108813
0.16539154
-0.020881858
0.16544519
-0.02063469
0.16553629
-0.020371632
0.16566251
-0.020097022
0.16582183
-0.019815225
0.16601257
-0.019531075
0.16623342
-0.01924915
0.16648349
-0.01897728
0.1667624
-0.018717322
0.16707014
-0.018497363
0.16740807
-0.018277631
0.16777575
-0.01825277
0.16818127
-0.017950131
0.16860808
-0.018998904
-0.017318608
0.24377592
0.011499429
-0.24649946
0.24092591
0.0098850235
0.23807314
0.0079230206
0.23522664
0.0060632166
0.23234933
0.004239664
0.22946202
0.0024013147
0.22659594
0.00057147248
0.22377038
-0.0012263043
0.22100128
-0.0029827086
0.21830455
-0.0046887425
0.21569407
-0.0063334999
0.21318085
-0.0079074704
0.21077348
-0.0094032117
0.20847854
-0.010814714
0.20630067
-0.012137198
0.20424274
-0.013367164
0.20230612
-0.014502314
0.20049086
-0.015541437
0.19879587
-0.016484306
0.19721914
-0.017331594
0.19575785
-0.018084788
0.19440857
-0.0187461
0.19316735
-0.019318386
0.19202988
-0.01980506
0.19099156
-0.020210007
0.19004765
-0.020537508
0.18919328
-0.020792157
0.18842361
-0.020978783
0.1877338
-0.021102382
0.18711915
-0.021168045
0.1865751
-0.021180904
0.18609727
-0.021146077
0.1856815
-0.021068628
0.18532388
-0.020953538
0.18502075
-0.020805685
0.18476874
-0.020629844
0.18456475
-0.0204307
0.18440599
-0.020212876
0.18429
-0.019981025
0.18421461
-0.01973984
0.18417803
-0.019494495
0.18417886
-0.01924998
0.18421602
-0.019014439
0.18428922
-0.018790523
0.1843977
-0.018605844
0.18454434
-0.018424268
0.18472297
-0.018431404
0.18495553
-0.018182687
0.18517898
-0.019222352
-0.017670633
0.26928277
0.01353203
-0.27131537
0.2671151
0.012052693
0.26477373
0.01026439
0.26233492
0.0085020297
0.25980661
0.0067679741
0.25719898
0.0050089419
0.25453816
0.0032322942
0.25184832
0.0014635382
0.24914945
-0.00028384485
0.24646138
-0.0020006656
0.24380338
-0.0036755023
0.2411926
-0.0052966903
0.23864377
-0.0068543792
0.23616937
-0.008340322
0.23377972
-0.009747547
0.23148298
-0.011070418
0.22928533
-0.012304662
0.22719117
-0.013447281
0.22520332
-0.014496453
0.22332317
-0.015451445
0.2215509
-0.016312524
0.21988567
-0.017080863
0.21832572
-0.017758443
0.21686862
-0.018347957
0.21551133
-0.018852714
0.21425037
-0.019276548
0.21308194
-0.019623723
0.21200199
-0.019898842
0.21100638
-0.02010677
0.21009089
-0.020252548
0.20925131
-0.020341327
0.20848354
-0.020378308
0.2077836
-0.020368688
0.20714768
-0.020317621
0.2065722
-0.020230197
0.20605378
-0.02011143
0.20558935
-0.019966267
0.20517609
-0.01979962
0.20481151
-0.019616442
0.20449343
-0.01942176
0.20422002
-0.01922108
0.20398986
-0.019019827
0.20380181
-0.018826385
0.20365568
-0.018644398
0.20355014
-0.018500305
0.2034893
-0.018363419
0.20346209
-0.018404202
0.20350203
-0.01822262
0.20350414
-0.019224469
-0.01785947
0.29299256
0.014862902
-0.29432343
0.29151361
0.013531647
0.28979142
0.011986573
0.28789312
0.010400332
0.28585357
0.0088075264
0.28368359
0.0071789269
0.28140158
0.0055142994
0.2790308
0.0038343183
0.27659255
0.0021544056
0.27410699
0.00048489333
0.27159433
-0.0011628384
0.26907429
-0.0027766505
0.2665652
-0.0043452903
0.26408366
-0.0058587792
0.2616444
-0.0073082937
0.25926021
-0.0086862234
0.25694184
-0.009986292
0.25469811
-0.011203559
0.25253603
-0.012334366
0.25046086
-0.013376275
0.24847633
-0.014328
0.24658479
-0.015189323
0.24478735
-0.015960997
0.24308405
-0.016644655
0.24147404
-0.017242703
0.23995571
-0.017758222
0.23852685
-0.018194863
0.23718476
-0.018556753
0.23592639
-0.018848396
0.23474842
-0.019074584
0.23364741
-0.019240315
0.23261983
-0.019350724
0.23166215
-0.019411014
0.23077095
-0.019426415
0.22994289
-0.019402144
0.22917486
-0.019343391
0.22846391
-0.01925532
0.22780738
-0.019143092
0.22720288
-0.01901194
0.22664833
-0.018867208
0.22614197
-0.018714721
0.22568249
-0.018560345
0.22526875
-0.018412646
0.22490073
-0.01827638
0.22457672
-0.018176296
0.22430169
-0.018088387
0.22406085