/*--------------------------------*- C++ -*----------------------------------*\
  =========                 |
  \\      /  F ield         | OpenFOAM: The Open Source CFD Toolbox
   \\    /   O peration     | Website:  https://openfoam.org
    \\  /    A nd           | Version:  6
     \\/     M anipulation  |
\*---------------------------------------------------------------------------*/
FoamFile
{
    version     2.0;
    format      ascii;
    class       volScalarField;
    location    "105";
    object      pPrime2Mean;
}
// * * * * * * * * * * * * * * * * * * * * * * * * * * * * * * * * * * * * * //

dimensions      [0 4 -4 0 0 0 0];

internalField   nonuniform List<scalar> 
9200
(
0.1066344
0.088350609
0.072873357
0.062802226
0.054767835
0.047999663
0.042162276
0.037084827
0.032653636
0.028777592
0.025381158
0.022400958
0.019783418
0.017482983
0.01546074
0.013683422
0.012122882
0.010755689
0.0095648978
0.008529122
0.086364504
0.071407464
0.058901971
0.050687647
0.044102392
0.038539929
0.033736611
0.029558112
0.025913944
0.022731054
0.019948346
0.017514059
0.015383975
0.013520055
0.011889403
0.010463525
0.0092179215
0.0081315458
0.0071851342
0.0063513347
0.067360164
0.055602013
0.045886817
0.039420821
0.034197349
0.029765287
0.025929705
0.022591511
0.019682934
0.017148386
0.014940428
0.013017978
0.011345137
0.0098903417
0.0086257571
0.0075268677
0.0065722274
0.0057429984
0.0050204355
0.0043798554
0.050149485
0.04136124
0.034170936
0.029294954
0.025308609
0.021901834
0.018943378
0.016367104
0.014126583
0.012182214
0.01049867
0.0090440196
0.007789309
0.0067083385
0.0057775618
0.0049760336
0.0042853325
0.003689229
0.0031717522
0.002714201
0.035208467
0.029069083
0.024070264
0.020583005
0.017676901
0.015164736
0.01297203
0.011062221
0.0094078346
0.0079829174
0.0067620463
0.0057205351
0.0048348881
0.004083261
0.003445843
0.0029050874
0.002445751
0.0020546729
0.0017196507
0.001428174
0.022956639
0.019060179
0.015865097
0.013529136
0.011519116
0.0097493948
0.0081935419
0.0068399699
0.0056767213
0.0046883991
0.0038568713
0.0031626894
0.0025864439
0.002109832
0.0017163716
0.0013917568
0.0011238957
0.00090271278
0.00071962322
0.00056696628
0.01374472
0.011611753
0.0097937662
0.0083432903
0.0070234327
0.0058267172
0.0047643312
0.0038438829
0.003064655
0.0024182958
0.0018912944
0.0014676053
0.0011307717
0.00086538237
0.00065789562
0.00049694663
0.00037328619
0.00027954714
0.00021005418
0.00016042423
0.007845548
0.0069379773
0.0060480846
0.0051969105
0.0043449952
0.003538447
0.0028142388
0.0021925206
0.0016790914
0.0012691184
0.00095127857
0.00071139165
0.0005350241
0.00040905054
0.00032237349
0.00026606342
0.00023315935
0.00021838369
0.00021807518
0.00022976825
0.0054464549
0.0051840199
0.0047655201
0.0042145278
0.0035982
0.0029907345
0.0024415146
0.0019758096
0.0016010972
0.0013128897
0.001100123
0.00094935197
0.00084743019
0.00078289937
0.0007464645
0.00073093101
0.00073088924
0.0007423913
0.00076285225
0.00079060544
0.0066409198
0.0064209233
0.0060204133
0.0054652341
0.0048486028
0.0042458321
0.0037041222
0.0032462613
0.0028769962
0.002589687
0.0023721618
0.002210887
0.002093324
0.0020089449
0.0019494331
0.0019084573
0.0018812974
0.0018645025
0.001855646
0.0018529042
0.25401976
0.21361407
0.17652428
0.15307501
0.13445935
0.11883726
0.10538969
0.093674745
0.083418873
0.074407074
0.066463679
0.059443249
0.053223966
0.047702852
0.042792226
0.038417
0.034512563
0.03102107
0.027888232
0.025082655
0.25077539
0.21067834
0.17401422
0.15083487
0.13245291
0.11703039
0.10375551
0.092193655
0.082074447
0.07318496
0.065351198
0.058429133
0.052298161
0.046856364
0.042017001
0.037705839
0.033859111
0.030419819
0.027333383
0.024569519
0.24415833
0.20486618
0.16912162
0.14651982
0.12861629
0.1135983
0.10067153
0.089415044
0.079565574
0.070915344
0.063294439
0.056562162
0.050600692
0.045310488
0.04060686
0.036417391
0.032680041
0.029339488
0.026341358
0.023655992
0.23428464
0.19631897
0.16198796
0.14026391
0.1230709
0.10865098
0.096238538
0.085431908
0.075978516
0.067678604
0.060368652
0.05391315
0.048198578
0.043129019
0.038622877
0.034610399
0.031031961
0.027834668
0.024965223
0.022393742
0.22142432
0.18527947
0.15282002
0.13225211
0.11598275
0.1023382
0.090592619
0.080368631
0.071427489
0.063580036
0.056671251
0.05057253
0.045176052
0.040390674
0.036138835
0.032354196
0.028980061
0.025966525
0.023262819
0.020838419
0.20594416
0.17206911
0.14188587
0.12272067
0.10756239
0.094848652
0.083903686
0.074378724
0.066051596
0.058745999
0.05231727
0.046645227
0.041629001
0.037183254
0.033235308
0.029722893
0.026592634
0.023797897
0.021292071
0.019044779
0.1882893
0.15707322
0.12950273
0.11194654
0.098055348
0.086401445
0.07636791
0.067638146
0.060008917
0.053318684
0.047434712
0.04224656
0.037661431
0.03360073
0.029997445
0.026794007
0.023940748
0.021394335
0.019113515
0.017069857
0.16896703
0.14072735
0.11602672
0.10023879
0.087734523
0.077239144
0.068201526
0.060339913
0.053471875
0.047452178
0.04216131
0.037499691
0.03338356
0.029741925
0.026514189
0.02364817
0.021098473
0.018825258
0.016793367
0.014978077
0.14852845
0.12350113
0.10184014
0.087927537
0.076890342
0.067619185
0.059633309
0.052687448
0.04662138
0.041307371
0.03664015
0.032531888
0.028908656
0.025707784
0.02287577
0.020366503
0.018139676
0.016159724
0.014398528
0.012835155
0.1275486
0.10588524
0.087337984
0.075349761
0.065817027
0.057800951
0.050892735
0.044884116
0.039637934
0.035044707
0.031014047
0.02747041
0.024350158
0.021599354
0.019172031
0.01702878
0.015135675
0.013464041
0.011995249
0.010708952
0.022122079
0.019169662
0.016665282
0.014490069
0.012630971
0.01103775
0.0096668431
0.0084809017
0.0074495683
0.0065481968
0.0057568307
0.0050594756
0.0044432802
0.0038977774
0.0034143179
0.0029856574
0.0026056425
0.0022689742
0.0019710348
0.0017077602
0.0014755419
0.0012711533
0.0010916917
0.00093453369
0.00079730069
0.00067783147
0.00057416054
0.00048450061
0.00040722809
0.00034087074
0.00028409695
0.00023570596
0.00019461889
0.00015987007
0.00013059898
0.00010604205
8.5525196e-05
6.8455838e-05
5.4316441e-05
4.2655671e-05
3.3086367e-05
2.5266887e-05
1.8927871e-05
1.3783703e-05
9.7325799e-06
6.3811437e-06
4.0905148e-06
1.860312e-06
2.4958283e-06
3.9864024e-06
0.02169148
0.0188378
0.016405622
0.014285893
0.01247235
0.010915884
0.0095733864
0.008408937
0.0073937476
0.0065044222
0.0057220486
0.0050314933
0.004420541
0.0038791618
0.0033990037
0.0029730252
0.002595212
0.0022603626
0.0019639311
0.0017019079
0.0014707281
0.0012672
0.0010884503
0.00093188011
0.00079513144
0.0006760605
0.00057271651
0.00048332452
0.00040627129
0.00034009324
0.00028346596
0.00023519459
0.00019420517
0.00015953604
0.00013032998
0.00010582611
8.5352531e-05
6.8318454e-05
5.4207802e-05
4.2570438e-05
3.3020174e-05
2.5216185e-05
1.8889769e-05
1.3755921e-05
9.7132258e-06
6.3688282e-06
4.0842057e-06
1.8567562e-06
2.4799214e-06
3.9067256e-06
0.020933015
0.018257164
0.015955759
0.013937857
0.012206209
0.010714655
0.0094214591
0.0082935511
0.0073052542
0.006435646
0.0056677791
0.0049880663
0.0043854019
0.0038505002
0.0033755032
0.0029537009
0.0025793037
0.002247267
0.0019531589
0.0016930569
0.0014634649
0.0012612472
0.0010835769
0.00092789403
0.00079187339
0.00067339873
0.00057054243
0.00048154894
0.0004048212
0.000338909
0.00028249895
0.00023440527
0.00019356136
0.00015901157
0.00012990352
0.00010548025
8.5073031e-05
6.8093649e-05
5.4028095e-05
4.2427929e-05
3.290835e-05
2.5129683e-05
1.8824195e-05
1.370774e-05
9.6795302e-06
6.3473593e-06
4.0734327e-06
1.8506821e-06
2.4481825e-06
3.7511641e-06
0.019892898
0.017463186
0.015347501
0.013476641
0.011859832
0.010456501
0.0092287632
0.0081482941
0.0071942419
0.0063494782
0.0055998412
0.0049337706
0.0043415626
0.0038148535
0.0033463897
0.0029298667
0.002559774
0.0022312655
0.0019400564
0.0016823374
0.0014547027
0.0012540902
0.0010777337
0.00092312436
0.00078797933
0.00067021794
0.0005679422
0.00047942119
0.00040307815
0.00033747957
0.00028132565
0.00023344166
0.00019276991
0.00015836188
0.00012937093
0.00010504466
8.4718e-05
6.7805638e-05
5.3795923e-05
4.2242323e-05
3.2761598e-05
2.5015373e-05
1.8737022e-05
1.3643388e-05
9.6343982e-06
6.3186809e-06
4.0590641e-06
1.8429214e-06
2.4006483e-06
3.5277794e-06
0.0186172
0.01649231
0.014613862
0.012933725
0.011460764
0.010163169
0.0090115606
0.0079850729
0.007069393
0.0062523831
0.0055232622
0.0048727003
0.0042924739
0.0037751939
0.0033142514
0.0029037832
0.0025385936
0.0022140681
0.0019260984
0.0016710134
0.0014455179
0.00124664
0.0010716874
0.00091821241
0.00078398278
0.0006669596
0.00056527925
0.00047723892
0.00040128472
0.00033600163
0.00028010475
0.00023243116
0.00019193255
0.00015766782
0.0001287961
0.00010456955
8.4326624e-05
6.7484823e-05
5.3534701e-05
4.2031503e-05
3.2593448e-05
2.4883365e-05
1.863568e-05
1.3568209e-05
9.5814903e-06
6.2852264e-06
4.0421487e-06
1.8345265e-06
2.3378332e-06
3.2483794e-06
0.017145977
0.015378049
0.013784936
0.012335034
0.011029354
0.0098487118
0.0087788074
0.0078097134
0.0069348636
0.0061476701
0.0054409378
0.0048075316
0.0042406471
0.0037338648
0.003281249
0.0028774169
0.0025175293
0.002197244
0.0019126643
0.0016602861
0.0014369478
0.0012397854
0.0010661941
0.00091379723
0.00078042045
0.00066407181
0.0005629255
0.0004753091
0.00039969288
0.00033468094
0.00027900332
0.00023150872
0.00019115772
0.00015701602
0.00012824785
0.00010410926
8.3941559e-05
6.716445e-05
5.3270144e-05
4.1815195e-05
3.2418872e-05
2.474488e-05
1.8528429e-05
1.3488145e-05
9.5248573e-06
6.2496675e-06
4.0237776e-06
1.826614e-06
2.2605812e-06
2.927298e-06
0.015518517
0.014154083
0.012887689
0.011696476
0.010572479
0.0095145258
0.0085294343
0.0076209807
0.0067904015
0.0060361896
0.005354523
0.0047403996
0.0041884384
0.0036932535
0.0032496779
0.002852901
0.0024985178
0.002182521
0.0019012747
0.001651479
0.0014301337
0.0012345026
0.0010620825
0.00091057774
0.00077787814
0.0006620426
0.00056128528
0.00047396488
0.0003985757
0.00033374013
0.00027820197
0.00023082008
0.00019056241
0.00015649989
0.00012780038
0.00010372235
8.3608751e-05
6.6880315e-05
5.3029929e-05
4.1614597e-05
3.2253932e-05
2.4611921e-05
1.8424065e-05
1.3409478e-05
9.4687332e-06
6.2147589e-06
4.0050189e-06
1.8202641e-06
2.1700603e-06
2.5800621e-06
0.01378333
0.012858861
0.011942839
0.011016043
0.010076304
0.009146096
0.0082526971
0.0074125047
0.006633388
0.0059180042
0.0052656789
0.004673766
0.0041386124
0.003656133
0.0032221516
0.0028326065
0.0024836561
0.0021717213
0.001893492
0.0016459183
0.0014261918
0.0012317244
0.0010601276
0.00090919406
0.00077688188
0.00066130214
0.00056070867
0.00047348985
0.0003981618
0.00033336268
0.00027784725
0.00023048174
0.00019023877
0.00015619194
0.00012751039
0.00010345295
8.3362295e-05
6.6658586e-05
5.2833975e-05
4.1444736e-05
3.2109835e-05
2.4492728e-05
1.8328514e-05
1.3336363e-05
9.4158048e-06
6.1821962e-06
3.986255e-06
1.8161369e-06
2.0676389e-06
2.2222955e-06
0.011987811
0.011509982
0.01092981
0.010245045
0.0094877456
0.0087001361
0.007917205
0.0071619599
0.0064477003
0.0057812602
0.0051654926
0.004600738
0.0040856999
0.0036180784
0.0031950394
0.0028135248
0.0024704385
0.0021627543
0.0018875741
0.0016421559
0.0014239231
0.0012304625
0.0010595184
0.00090898369
0.00077689267
0.00066141357
0.00056084273
0.0004735996
0.00039822255
0.00033336511
0.00027779215
0.00023037611
0.00019009287
0.00015601731
0.00012731842
0.00010325397
8.3165095e-05
6.6470222e-05
5.2659743e-05
4.1288302e-05
3.1973467e-05
2.4377534e-05
1.8234645e-05
1.3263726e-05
9.3625044e-06
6.1496145e-06
3.9655871e-06
1.8135958e-06
1.9551802e-06
1.8700086e-06
0.010198967
0.01006655
0.0097546487
0.0092957822
0.0087394075
0.0081254643
0.0074832743
0.0068377014
0.0062074553
0.0056046078
0.0050364117
0.004506943
0.004017955
0.0035695052
0.0031605347
0.0027893103
0.0024537185
0.0021514579
0.0018801661
0.0016374984
0.0014211744
0.0012290035
0.0010588976
0.00090887663
0.00077707096
0.00066172115
0.00056117758
0.00047389945
0.00039845378
0.00033351403
0.00027785843
0.00023036773
0.0001900224
0.00015589925
0.00012716732
0.0001030833
8.2986513e-05
6.6293281e-05
5.2491834e-05
4.1134767e-05
3.1837876e-05
2.4261935e-05
1.8139837e-05
1.3190059e-05
9.3080628e-06
6.1163809e-06
3.9426652e-06
1.8120407e-06
1.8369718e-06
1.5397569e-06
0.0082493565
0.0083235758
0.0082319308
0.0079887361
0.0076440088
0.0072267817
0.0067567758
0.0062560951
0.0057452301
0.0052392802
0.004748738
0.0042809193
0.0038405815
0.0034303777
0.0030514038
0.0027036794
0.0023864936
0.0020986535
0.001838666
0.0016048654
0.0013955011
0.0012087954
0.0010429826
0.00089633505
0.00076718052
0.00065391476
0.00055501
0.00046902127
0.00039459094
0.00033045167
0.00027542813
0.00022843746
0.00018848863
0.00015468063
0.00012619983
0.00010231645
8.2380299e-05
6.5815941e-05
5.2118022e-05
4.0844242e-05
3.161432e-05
2.4092536e-05
1.8013612e-05
1.3100121e-05
9.2444438e-06
6.0808918e-06
3.9145151e-06
1.812129e-06
1.7151732e-06
1.2497348e-06
0.0063904198
0.0065726372
0.0066159965
0.0065254243
0.0063423656
0.0060878558
0.0057731361
0.0054151655
0.0050322402
0.0046387672
0.0042455399
0.0038609167
0.003491096
0.0031402891
0.0028111154
0.0025050076
0.0022225179
0.0019635529
0.0017275608
0.0015136737
0.0013208123
0.0011477625
0.00099323059
0.00085588412
0.00073438208
0.00062739771
0.00053363592
0.00045184681
0.00038083614
0.00031947328
0.00026669713
0.00022152001
0.00018303
0.00015039173
0.00012284575
9.970693e-05
8.0361759e-05
6.4264801e-05
5.0935135e-05
3.9950472e-05
3.0946379e-05
2.3600904e-05
1.76575e-05
1.2851338e-05
9.0720966e-06
5.9790395e-06
3.8394397e-06
1.7971236e-06
1.562562e-06
9.7589333e-07
0.0047936874
0.0050439827
0.0051814935
0.0052087936
0.005152546
0.0050281802
0.0048423192
0.0046069619
0.0043371487
0.0040457228
0.003742911
0.0034372176
0.0031355155
0.0028429854
0.0025633307
0.002299077
0.0020518168
0.001822407
0.0016111406
0.0014178877
0.0012422061
0.0010834271
0.00094072174
0.00081315202
0.00069971124
0.00059935546
0.00051102854
0.00043368218
0.00036629197
0.00030787006
0.00025747503
0.00021421934
0.00017727455
0.00014587462
0.00011931759
9.6965677e-05
7.8244354e-05
6.2640114e-05
4.9698037e-05
3.9017143e-05
3.0249855e-05
2.3088919e-05
1.7286911e-05
1.2592753e-05
8.8922374e-06
5.8734406e-06
3.7578411e-06
1.7841063e-06
1.3984629e-06
7.2079559e-07
0.0034521666
0.0037358229
0.0039307931
0.0040401325
0.0040769143
0.0040515203
0.0039681879
0.0038346842
0.0036621531
0.0034611587
0.0032407064
0.0030087158
0.0027720228
0.0025361845
0.0023055197
0.0020832866
0.0018718496
0.0016728254
0.0014872205
0.0013155562
0.0011579728
0.0010143153
0.00088420279
0.00076708609
0.00066229352
0.00056906876
0.00048660173
0.00041405393
0.00035057921
0.00029534069
0.00024752438
0.00020634986
0.00017107838
0.00014101874
0.0001155311
9.4029131e-05
7.5980615e-05
6.0906801e-05
4.8381101e-05
3.8025749e-05
2.9511563e-05
2.2547231e-05
1.689539e-05
1.2319622e-05
8.7019258e-06
5.7610363e-06
3.6691519e-06
1.7701908e-06
1.2346413e-06
5.0481183e-07
0.0023735288
0.0026555656
0.0028741056
0.0030309779
0.0031289008
0.0031732316
0.0031664439
0.003113024
0.0030203033
0.0028961649
0.0027479349
0.0025824252
0.0024058587
0.0022236287
0.0020402105
0.0018592171
0.0016834852
0.0015151614
0.0013557966
0.0012064414
0.0010677334
0.00093997429
0.00082319529
0.00071721433
0.0006216838
0.00053613123
0.00045999356
0.00039264597
0.00033342626
0.00028165504
0.00023665249
0.00019775192
0.0001643105
0.00013571753
0.00011140037
9.0828518e-05
7.3515921e-05
5.9021819e-05
4.6950681e-05
3.6950205e-05
2.8711477e-05
2.1960598e-05
1.6471535e-05
1.2023384e-05
8.4951578e-06
5.6370414e-06
3.5711332e-06
1.7523641e-06
1.0778353e-06
3.3860007e-07
0.0015473546
0.0018001937
0.0020139828
0.0021881103
0.0023186081
0.0024063224
0.0024518354
0.0024570672
0.0024260801
0.0023640507
0.0022763713
0.0021684176
0.0020454002
0.0019121211
0.0017728101
0.0016310816
0.001489945
0.0013518333
0.00121865
0.0010918284
0.00097239445
0.00086102682
0.00075811292
0.00066379967
0.00057803882
0.00050062681
0.0004312397
0.00036946348
0.00031482028
0.00026679079
0.0002248332
0.00018839908
0.00015694625
0.00012994916
0.00010690677
8.7348417e-05
7.0837792e-05
5.6975245e-05
4.5398997e-05
3.5784465e-05
2.7844925e-05
2.1325379e-05
1.6012532e-05
1.1701694e-05
8.2702491e-06
5.4995926e-06
3.4634282e-06
1.7284953e-06
9.334658e-07
2.2576957e-07
0.00094685338
0.0011538628
0.0013425936
0.00151021
0.0016494253
0.0017578021
0.0018340332
0.0018779781
0.0018911055
0.0018761568
0.001836566
0.001776133
0.0016988235
0.0016085512
0.0015089864
0.001403444
0.0012948326
0.0011856343
0.0010779069
0.00097330652
0.00087312117
0.0007783097
0.00068954265
0.00060724261
0.00053162256
0.00046272173
0.00040043817
0.00034455825
0.00029478296
0.00025075101
0.00021205897
0.00017827855
0.00014897104
0.00012369932
0.00010203741
8.3577868e-05
6.7937297e-05
5.4760048e-05
4.3720657e-05
3.4524474e-05
2.690889e-05
2.0639301e-05
1.5516676e-05
1.1353115e-05
8.0262343e-06
5.3474181e-06
3.3462793e-06
1.6966857e-06
8.054561e-07
1.6314313e-07
0.00053760551
0.00069193715
0.00084361625
0.00098848942
0.0011184421
0.0012292129
0.0013180158
0.0013831509
0.0014241722
0.001441837
0.0014377982
0.0014143165
0.0013740527
0.0013198753
0.0012546818
0.0011812604
0.0011021946
0.0010198045
0.00093611463
0.00085284289
0.00077140569
0.00069293387
0.00061829543
0.00054812221
0.00048283828
0.00042268847
0.0003677662
0.00031803979
0.00027337695
0.00023356701
0.00019834105
0.00016738949
0.00014037744
0.00011695764
9.678123e-05
7.9506443e-05
6.4805311e-05
5.2368651e-05
4.1909618e-05
3.3165555e-05
2.5899841e-05
1.9899727e-05
1.4982034e-05
1.0976145e-05
7.7621749e-06
5.1794761e-06
3.2201619e-06
1.6554671e-06
6.9571463e-07
1.4141795e-07
0.00028349399
0.00038538063
0.00049511109
0.00060812732
0.00071696047
0.00081676999
0.00090396239
0.00097584961
0.0010307135
0.0010678578
0.001087481
0.0010904841
0.0010783002
0.001052737
0.0010158238
0.0009696776
0.00091639464
0.00085796703
0.00079622477
0.00073279986
0.00066910704
0.00060633813
0.00054546633
0.00048725773
0.00043228777
0.00038096046
0.0003335292
0.00029011797
0.00025074221
0.00021532877
0.00018373453
0.00015576341
0.00013118154
0.00010973059
9.1139137e-05
7.5132129e-05
6.1438593e-05
4.9797587e-05
3.9962726e-05
3.17051e-05
2.4815762e-05
1.9105177e-05
1.4407585e-05
1.0570087e-05
7.4777883e-06
4.9954964e-06
3.0860049e-06
1.6042826e-06
6.0433575e-07
1.4738385e-07
0.00015030511
0.00020449844
0.00027266281
0.00035048976
0.0004318348
0.00051212582
0.00058763261
0.00065525464
0.00071258396
0.0007580005
0.0007906544
0.00081036969
0.00081753354
0.00081298494
0.00079789913
0.00077367336
0.0007418252
0.00070390594
0.00066142961
0.00061582024
0.00056837557
0.00052024382
0.00047241174
0.0004257016
0.00038077512
0.00033814246
0.00029817465
0.00026111828
0.00022711127
0.00019619918
0.00016835115
0.00014347515
0.0001214322
0.00010204917
8.513014e-05
7.0466188e-05
5.7843579e-05
4.7050427e-05
3.7881947e-05
3.0144253e-05
2.365742e-05
1.8256283e-05
1.3793935e-05
1.0135576e-05
7.1738221e-06
4.7962459e-06
2.9452356e-06
1.5436381e-06
5.3007946e-07
1.6701734e-07
0.00010789252
0.00012154359
0.00015193711
0.0001953787
0.00024722581
0.00030363291
0.00036122914
0.00041698125
0.00046827739
0.00051304719
0.00054980622
0.00057763306
0.0005961189
0.0006053054
0.00060561099
0.00059774843
0.00058264144
0.00056134756
0.00053498946
0.00050469641
0.00047155789
0.0004365892
0.00040070718
0.00036471512
0.00032929537
0.00029500827
0.00026229585
0.00023148918
0.00020281829
0.00017642365
0.00015236847
0.00013065134
0.00011121841
9.3975036e-05
7.8796447e-05
6.5537214e-05
5.4039529e-05
4.4140155e-05
3.5676134e-05
2.8489187e-05
2.2429271e-05
1.7356417e-05
1.3143744e-05
9.674863e-06
6.8522358e-06
4.5836186e-06
2.799751e-06
1.4750602e-06
4.709584e-07
1.8846451e-07
0.00013105915
0.00011213153
0.00011037331
0.00012283126
0.00014626751
0.00017772577
0.00021446761
0.00025385047
0.00029341698
0.00033102451
0.00036492019
0.00039376392
0.00041662528
0.00043296483
0.00044260009
0.00044565752
0.00044251571
0.0004337458
0.00042005381
0.00040222703
0.00038108663
0.00035744802
0.00033208983
0.00030573034
0.00027901147
0.00025248893
0.00022662799
0.00020180357
0.00017830391
0.00015633677
0.00013603744
0.00011747786
0.00010067624
8.5606721e-05
7.2208684e-05
6.039542e-05
5.0061941e-05
4.1091817e-05
3.3362999e-05
2.6752536e-05
2.1140457e-05
1.6412346e-05
1.2462139e-05
9.1920198e-06
6.5162775e-06
4.3605576e-06
2.6517837e-06
1.4008026e-06
4.2465099e-07
2.0395751e-07
0.00019955238
0.00015577748
0.00012812502
0.00011435345
0.00011240349
0.0001201834
0.00013567081
0.00015677602
0.00018141686
0.00020764198
0.00023371412
0.00025815503
0.00027977155
0.00029766853
0.00031124687
0.00032018622
0.0003244155
0.00032407557
0.00031947775
0.00031106156
0.00029935365
0.00028493005
0.00026838335
0.00025029556
0.00023121657
0.0002116483
0.00019203397
0.00017275197
0.00015411362
0.00013636416
0.00011968613
0.0001042047
8.9994052e-05
7.7084629e-05
6.5470491e-05
5.5116632e-05
4.5965879e-05
3.794518e-05
3.0971173e-05
2.495492e-05
1.9805883e-05
1.543495e-05
1.1757145e-05
8.6931526e-06
6.1705532e-06
4.1309497e-06
2.5038061e-06
1.3235123e-06
3.8876777e-07
2.1022779e-07
0.00029759039
0.00023587627
0.00018843623
0.00015363214
0.00013031641
0.00011713859
0.00011274966
0.0001156454
0.0001242165
0.00013685387
0.00015202528
0.00016832452
0.00018450983
0.0001995346
0.0002125667
0.00022299443
0.0002304202
0.00023464454
0.00023564307
0.00023353855
0.0002285707
0.00022106542
0.00021140547
0.00020000383
0.0001872808
0.00017364496
0.00015947842
0.00014512601
0.00013088833
0.00011701803
0.00010371891
9.1147288e-05
7.9415131e-05
6.8594357e-05
5.8721974e-05
4.9805577e-05
4.1828912e-05
3.4757227e-05
2.8542231e-05
2.3126511e-05
1.8447371e-05
1.4440014e-05
1.1040183e-05
8.186642e-06
5.8210974e-06
3.8994986e-06
2.3584486e-06
1.2458849e-06
3.6096834e-07
2.0757354e-07
0.00041318419
0.00033935727
0.00027762821
0.00022683114
0.00018647373
0.00015578712
0.00013398641
0.00012010107
0.0001129996
0.0001114719
0.00011429134
0.00012025731
0.00012823352
0.00013718443
0.00014620493
0.00015454039
0.00016159669
0.00016694142
0.00017029718
0.00017152862
0.00017062462
0.00016767739
0.0001628602
0.00015640507
0.00014858182
0.00013967917
0.00012998849
0.00011979057
0.00010934545
9.8885213e-05
8.8609463e-05
7.8683233e-05
6.9236846e-05
6.0367374e-05
5.2141284e-05
4.4597877e-05
3.7753202e-05
3.1604139e-05
2.6132431e-05
2.1308479e-05
1.7094798e-05
1.3449066e-05
1.0326645e-05
7.6834822e-06
5.4755457e-06
3.6717175e-06
2.2185509e-06
1.1704834e-06
3.3911955e-07
1.9828156e-07
0.00053742685
0.00045619016
0.00038485093
0.00032259359
0.00026936209
0.00022481117
0.00018858859
0.00016016291
0.00013882725
0.00012375971
0.00011406849
0.0001088229
0.00010708452
0.00010794057
0.0001105353
0.00011409557
0.00011794986
0.00012154054
0.00012442963
0.0001262982
0.00012694039
0.00012625295
0.00012422162
0.00012090556
0.000116421
0.00011092507
0.00010460075
9.7643356e-05
9.024912e-05
8.2605925e-05
7.4886362e-05
6.7242895e-05
5.9805013e-05
5.2678055e-05
4.5943453e-05
3.9660044e-05
3.3866174e-05
2.8582293e-05
2.3813817e-05
1.9554053e-05
1.5787018e-05
1.2490127e-05
9.6364496e-06
7.1976556e-06
5.1433647e-06
3.4540118e-06
2.0872965e-06
1.0996977e-06
3.2150137e-07
1.8514981e-07
0.00066384503
0.00057885726
0.00050171721
0.00043186045
0.00036949564
0.00031456464
0.00026702172
0.00022666761
0.00019313918
0.00016595145
0.00014452756
0.00012821756
0.00011631961
0.00010810589
0.00010284981
9.9850783e-05
9.8455745e-05
9.8076645e-05
9.8203438e-05
9.84122e-05
9.836835e-05
9.7825383e-05
9.6619765e-05
9.46628e-05
9.1930345e-05
8.8451266e-05
8.429545e-05
7.9562113e-05
7.4368919e-05
6.8842388e-05
6.3109793e-05
5.7292732e-05
5.1502321e-05
4.5835964e-05
4.0375508e-05
3.5186603e-05
3.0319014e-05
2.5807661e-05
2.1674177e-05
1.7928775e-05
1.457226e-05
1.1598129e-05
8.9944271e-06
6.7464399e-06
4.8360881e-06
3.2538455e-06
1.9684245e-06
1.0358545e-06
3.0704743e-07
1.7057698e-07
0.00078784727
0.00070185687
0.00062190096
0.0005475921
0.00047927848
0.00041708152
0.00036115487
0.00031153135
0.00026810471
0.00023065789
0.00019888112
0.0001723805
0.00015068945
0.00013328597
0.0001196128
0.00010909773
0.00010117299
9.5293161e-05
9.0950798e-05
8.7689016e-05
8.5110566e-05
8.2883234e-05
8.0741716e-05
7.8486258e-05
7.5978584e-05
7.3135685e-05
6.9922139e-05
6.6341594e-05
6.2428026e-05
5.8237242e-05
5.3839068e-05
4.9310471e-05
4.472983e-05
4.0172391e-05
3.5706931e-05
3.1393522e-05
2.7282293e-05
2.341301e-05
1.9815327e-05
1.6509531e-05
1.3507629e-05
1.0814712e-05
8.4302792e-06
6.3504571e-06
4.5674083e-06
3.07986e-06
1.8663978e-06
9.8136632e-07
2.9546992e-07
1.5624086e-07
0.0009062745
0.00082126887
0.00074075009
0.0006644555
0.00059278729
0.0005259674
0.00046426546
0.00040786257
0.00035682985
0.00031114723
0.00027071326
0.00023534632
0.00020478837
0.00017871426
0.00015674456
0.00013845975
0.00012341518
0.00011115616
0.00010123279
9.3213356e-05
8.6695894e-05
8.1317354e-05
7.67601e-05
7.2755703e-05
6.9086139e-05
6.5582626e-05
6.2122497e-05
5.862456e-05
5.5043417e-05
5.1363226e-05
4.7591312e-05
4.3752014e-05
3.9881025e-05
3.6020451e-05
3.221469e-05
2.8507177e-05
2.4937993e-05
2.1542254e-05
1.8349206e-05
1.5381905e-05
1.2657364e-05
1.0187114e-05
7.977898e-06
6.0332887e-06
4.3529902e-06
2.9418426e-06
1.7864544e-06
9.388508e-07
2.8721374e-07
1.4314764e-07
0.001017043
0.00093439146
0.0008549404
0.00077851672
0.00070552216
0.00063622472
0.00057094947
0.00050996116
0.00045344253
0.00040150701
0.00035420333
0.00031151217
0.00027334466
0.0002395455
0.00020989961
0.00018414025
0.00016195884
0.0001430159
0.00012695275
0.00011340341
0.00010200585
9.2412214e-05
8.4297539e-05
7.7366591e-05
7.1358749e-05
6.6050813e-05
6.1257891e-05
5.6832526e-05
5.2662403e-05
4.8666934e-05
4.47931e-05
4.1010886e-05
3.7308615e-05
3.3688464e-05
3.0162332e-05
2.6748238e-05
2.3467308e-05
2.034138e-05
1.7391239e-05
1.4635412e-05
1.2089477e-05
9.7658469e-06
7.6738081e-06
5.8204734e-06
4.2098647e-06
2.8504221e-06
1.7344533e-06
9.1113775e-07
2.8324345e-07
1.3181226e-07
0.0011188646
0.001039445
0.00096217863
0.00088695929
0.00081415636
0.00074404874
0.00067697603
0.00061324001
0.00055308483
0.00049670573
0.00044425072
0.00039581499
0.0003514364
0.00031109453
0.00027471255
0.00024216059
0.00021326077
0.00018779375
0.00016550665
0.00014612194
0.00012934674
0.00011488206
0.00010243162
9.1709751e-05
8.2448183e-05
7.4401307e-05
6.7349987e-05
6.110377e-05
5.5501649e-05
5.0411515e-05
4.5728517e-05
4.1372607e-05
3.7285507e-05
3.3427369e-05
2.9773361e-05
2.6310358e-05
2.3033904e-05
1.9945538e-05
1.7050553e-05
1.4356215e-05
1.1870432e-05
9.6008948e-06
7.5545124e-06
5.7377218e-06
4.1552799e-06
2.8164016e-06
1.7164766e-06
9.0113133e-07
2.8476014e-07
1.2244088e-07
0.001211027
0.0011353324
0.0010609534
0.0009878359
0.00091630101
0.00084661757
0.00077911399
0.00071409792
0.00065183906
0.00059257541
0.0005365135
0.0004838222
0.00043462678
0.00038900581
0.00034698989
0.00030856161
0.00027365689
0.00024216772
0.00021394647
0.00018881143
0.00016655324
0.00014694211
0.00012973522
0.00011468413
0.00010154182
9.0068932e-05
8.003917e-05
7.124354e-05
6.349341e-05
5.6622372e-05
5.0486977e-05
4.4966463e-05
3.9961653e-05
3.5393204e-05
3.1199414e-05
2.7333787e-05
2.376251e-05
2.0462013e-05
1.7416703e-05
1.4616975e-05
1.2057542e-05
9.7361432e-06
7.6525194e-06
5.8081776e-06
4.2048919e-06
2.8496446e-06
1.7381543e-06
9.1151038e-07
2.929226e-07
1.1506994e-07
0.0012932217
0.0012214481
0.0011503299
0.001079857
0.0010102956
0.00094189381
0.00087495431
0.0008097714
0.00074661663
0.00068574336
0.00062738634
0.00057175591
0.00051903197
0.0004693598
0.0004228472
0.00037956232
0.00033953251
0.00030274422
0.00026914435
0.00023864273
0.00021111573
0.00018641087
0.00016435223
0.0001447462
0.0001273877
0.00011206611
9.8570991e-05
8.6697268e-05
7.6249574e-05
6.7045785e-05
5.8919606e-05
5.1722207e-05
4.5322988e-05
3.9609544e-05
3.4486974e-05
2.9876674e-05
2.571478e-05
2.1950393e-05
1.8543729e-05
1.5464322e-05
1.2689343e-05
1.0202164e-05
7.9910845e-06
6.048716e-06
4.3702649e-06
2.9574916e-06
1.8037105e-06
9.4427057e-07
3.0860183e-07
1.096517e-07
0.0013653992
0.0012975144
0.0012297721
0.001162201
0.001095013
0.0010284304
0.00096272404
0.00089816451
0.00083501082
0.00077351391
0.00071391594
0.00065644532
0.00060131121
0.0005486993
0.00049876823
0.00045164638
0.00040742927
0.00036617768
0.00032791682
0.00029263644
0.00026029202
0.00023080696
0.00020407567
0.00017996745
0.00015833099
0.00013899932
0.00012179482
0.00010653432
9.3033834e-05
8.1112891e-05
7.0598258e-05
6.1326961e-05
5.3148567e-05
4.5926707e-05
3.9539897e-05
3.3881708e-05
2.8860414e-05
2.4398207e-05
2.0430122e-05
1.690277e-05
1.3773003e-05
1.1006623e-05
8.5771171e-06
6.4648799e-06
4.655415e-06
3.1425376e-06
1.9146401e-06
1.0000665e-06
3.3212637e-07
1.060854e-07
0.0014276685
0.001363466
0.0012990132
0.0012343748
0.0011697115
0.0011052202
0.0010411382
0.00097770835
0.0009151698
0.00085376082
0.00079371789
0.00073527183
0.00067864308
0.00062403795
0.00057164489
0.0005216311
0.00047413916
0.00042928429
0.00038715206
0.00034779701
0.00031124191
0.00027747799
0.00024646601
0.00021813816
0.00019240079
0.00016913776
0.00014821436
0.00012948148
0.00011278003
9.7945296e-05
8.4811038e-05
7.3213299e-05
6.2993681e-05
5.4002063e-05
4.6098715e-05
3.9155777e-05
3.3058159e-05
2.7703903e-05
2.3004089e-05
1.8882382e-05
1.5274311e-05
1.2126408e-05
9.3952028e-06
7.046526e-06
5.0537813e-06
3.4006662e-06
2.0685457e-06
1.0776467e-06
3.6310988e-07
1.0423038e-07
0.0014801576
0.0014192937
0.001357883
0.0012960251
0.0012338348
0.0011714856
0.0011091836
0.0010471436
0.00098558276
0.0009247218
0.00086478453
0.00080599486
0.00074857295
0.0006927321
0.00063867527
0.00058659188
0.00053665426
0.00048901461
0.00044380197
0.0004011199
0.0003610445
0.00032362323
0.00028887435
0.00025678717
0.00022732308
0.00020041734
0.00017598149
0.00015390646
0.00013406604
0.0001163207
0.00010052152
8.6514149e-05
7.4142571e-05
6.3252541e-05
5.3694651e-05
4.532688e-05
3.8016623e-05
3.1642179e-05
2.6093715e-05
2.1273757e-05
1.7097279e-05
1.3491466e-05
1.0395198e-05
7.7586259e-06
5.5417167e-06
3.7166867e-06