/*--------------------------------*- C++ -*----------------------------------*\
  =========                 |
  \\      /  F ield         | OpenFOAM: The Open Source CFD Toolbox
   \\    /   O peration     | Website:  https://openfoam.org
    \\  /    A nd           | Version:  6
     \\/     M anipulation  |
\*---------------------------------------------------------------------------*/
FoamFile
{
    version     2.0;
    format      ascii;
    class       volVectorField;
    location    "30";
    object      U;
}
// * * * * * * * * * * * * * * * * * * * * * * * * * * * * * * * * * * * * * //

dimensions      [0 1 -1 0 0 0 0];

internalField   nonuniform List<vector> 
9200
(
(0.0011414424 0.0013680013 -6.0032005e-20)
(0.014127282 -0.0022914774 4.6788992e-20)
(0.039300367 -0.0062773218 -3.9094639e-20)
(0.073947274 -0.010355551 -6.1139456e-20)
(0.1162468 -0.014269817 1.9149317e-20)
(0.16497662 -0.01757722 3.3258041e-20)
(0.21906554 -0.019983424 -1.2495333e-20)
(0.27752126 -0.021337756 9.4461841e-21)
(0.33941121 -0.021577229 1.702916e-20)
(0.40383033 -0.020703581 1.5079585e-21)
(0.46987738 -0.018771813 -2.182254e-20)
(0.53664612 -0.015879118 2.1043839e-20)
(0.60322865 -0.012153877 -4.1119427e-20)
(0.66872907 -0.0077444028 -2.1560985e-20)
(0.73228577 -0.0028069534 6.0179488e-21)
(0.7930997 0.0025042567 -2.5713778e-20)
(0.85048144 0.0080603135 2.587493e-20)
(0.90397576 0.013904584 2.3124395e-20)
(0.95318471 0.020171914 -1.3016084e-22)
(0.99542041 0.023532221 -1.4521094e-21)
(0.0054287931 -0.0014403162 -1.729713e-20)
(0.027636821 -0.0093262918 4.0347302e-20)
(0.063032076 -0.015359442 2.3937122e-20)
(0.10849298 -0.019919081 -1.1726975e-19)
(0.16188696 -0.023150958 -1.2929138e-20)
(0.22172939 -0.0248418 7.4260538e-20)
(0.28667705 -0.024896176 -3.5989888e-20)
(0.3554514 -0.023349069 -8.5081357e-21)
(0.4268259 -0.020307697 3.4811814e-20)
(0.49960252 -0.015932607 -4.3971247e-20)
(0.57260117 -0.010429627 -3.0899934e-20)
(0.6446677 -0.0040392831 7.340267e-20)
(0.71469564 0.0029752099 3.9075427e-20)
(0.7816572 0.010339898 -6.9555232e-20)
(0.84463892 0.017780402 1.5018913e-20)
(0.90287651 0.025026982 -3.7716955e-20)
(0.95579687 0.031828603 -1.4070602e-20)
(1.0031178 0.038025484 7.3321721e-20)
(1.0447208 0.04321135 3.1076981e-20)
(1.0788512 0.044291761 -8.4977133e-20)
(0.01112495 -0.0041727145 3.7240751e-20)
(0.044888542 -0.015852785 2.5361003e-21)
(0.092302072 -0.023206282 2.2691999e-20)
(0.14988678 -0.027349345 9.9360062e-22)
(0.21520632 -0.028916519 -4.1423117e-20)
(0.2864859 -0.027989056 1.8785779e-20)
(0.36207266 -0.024731612 1.3633893e-20)
(0.44036652 -0.019423591 -5.1070872e-20)
(0.51982476 -0.012396487 5.8170364e-20)
(0.5989586 -0.0040164881 1.4553695e-20)
(0.67634522 0.0053235605 -5.5396419e-20)
(0.75065848 0.015218168 -1.8700502e-20)
(0.82070961 0.02526616 8.9984159e-21)
(0.88548978 0.035087449 2.4054319e-20)
(0.94420763 0.04433748 -1.1728575e-20)
(0.99631429 0.052716664 2.8641391e-20)
(1.0415173 0.059984613 -2.0698246e-20)
(1.0798102 0.066006881 -7.2314235e-20)
(1.111351 0.070522029 -2.4639806e-20)
(1.1353269 0.071683496 4.9702519e-20)
(0.018328223 -0.0065799555 2.4796686e-20)
(0.066005697 -0.021173285 5.1682417e-20)
(0.1271025 -0.028773512 2.0121286e-20)
(0.19785555 -0.031359391 1.3098681e-20)
(0.27554076 -0.030142941 1.7461769e-20)
(0.3580737 -0.025570362 -4.8338776e-20)
(0.44347274 -0.018131655 -2.6008845e-20)
(0.52981439 -0.0084089886 0)
(0.61526765 0.002994827 1.4308885e-20)
(0.6981209 0.015476557 -6.1118562e-21)
(0.77682164 0.028444581 -9.98855e-20)
(0.85002801 0.041339225 -1.5991328e-20)
(0.91665936 0.053655519 6.6796996e-20)
(0.97593574 0.064963266 2.8851833e-22)
(1.027399 0.07492176 -1.6153925e-21)
(1.0709107 0.083287048 2.257309e-20)
(1.1066287 0.089918601 -5.4601711e-21)
(1.1349802 0.094807155 -6.2777723e-20)
(1.1565444 0.097936912 -4.7308423e-20)
(1.1713318 0.098383409 7.108786e-20)
(0.027067346 -0.0083791611 -3.9502638e-21)
(0.090890564 -0.024533742 -5.1829405e-21)
(0.16704378 -0.030981425 5.7246008e-20)
(0.25158532 -0.030677897 1.8733672e-20)
(0.34154106 -0.025496979 -3.2336822e-20)
(0.43452391 -0.016320834 1.2316354e-20)
(0.52824515 -0.0040260339 2.6798714e-21)
(0.62051305 0.010456528 3.4216755e-20)
(0.70930682 0.026227833 5.7663867e-21)
(0.79283743 0.042448085 -1.3572936e-20)
(0.86961011 0.058354859 6.1727183e-20)
(0.93848276 0.073288644 -5.918904e-20)
(0.99870632 0.086716716 -1.3538466e-19)
(1.0499378 0.098248717 -5.7207733e-21)
(1.0922233 0.10764163 8.5420856e-20)
(1.1259512 0.11479348 0)
(1.1517849 0.11973208 1.0366835e-20)
(1.17059 0.12261693 -1.588996e-20)
(1.1833178 0.12363985 -8.8590941e-21)
(1.1905607 0.12243391 2.1497317e-20)
(0.037280682 -0.0092640579 -5.4427668e-21)
(0.11919219 -0.02516632 4.4041567e-21)
(0.21134316 -0.028799287 -8.8556309e-21)
(0.30975832 -0.024180534 2.8787534e-20)
(0.41128714 -0.01391337 -2.9770767e-20)
(0.51329259 0.00062441282 -1.7165749e-20)
(0.61326091 0.018127677 3.7787578e-20)
(0.70885891 0.037301095 4.7847044e-21)
(0.79804918 0.056964891 -2.5089973e-20)
(0.87917703 0.076090499 7.1301747e-20)
(0.95103809 0.093821699 3.5001139e-22)
(1.0129194 0.10949772 -8.2486306e-20)
(1.0646031 0.12266704 0)
(1.1063299 0.13308577 4.0639544e-20)
(1.1387282 0.14070054 5.6862973e-21)
(1.162718 0.1456187 -7.9577598e-20)
(1.1794045 0.14807339 -2.0091176e-20)
(1.1899779 0.1484001 -1.2787797e-20)
(1.1956053 0.14695031 -1.5104389e-20)
(1.1971617 0.14368598 4.1445671e-20)
(0.048802746 -0.0089259397 -1.7411164e-20)
(0.15028957 -0.022348877 -2.3296479e-21)
(0.25883344 -0.021336242 3.0656375e-20)
(0.37061232 -0.011002656 3.7817494e-20)
(0.48241981 0.0052854396 -2.0180188e-20)
(0.59148092 0.025623995 -7.0194007e-20)
(0.69520827 0.048275768 -2.8532919e-20)
(0.79132396 0.071613846 8.0333873e-20)
(0.87800525 0.094247218 8.8757848e-21)
(0.95397713 0.11505946 -2.5303671e-20)
(1.0185577 0.13322232 1.3784703e-20)
(1.0716533 0.148202 -4.479838e-21)
(1.1137026 0.1597474 0)
(1.1455778 0.16785764 2.7845606e-20)
(1.1684585 0.17273368 -8.1223583e-20)
(1.1836976 0.1747209 -3.2234542e-20)
(1.1926955 0.17425299 8.3012721e-20)
(1.1967986 0.17181101 -4.4537053e-21)
(1.1972167 0.16784664 3.6262599e-21)
(1.1948747 0.16250274 2.7844046e-20)
(0.061357945 -0.0070817074 -3.2651847e-20)
(0.18329738 -0.01547754 -8.2437857e-20)
(0.30800812 -0.0079401232 2.476329e-21)
(0.43204491 0.0093556831 7.1003797e-20)
(0.55231627 0.032300333 6.3237501e-20)
(0.66608435 0.058480933 -7.2457862e-20)
(0.77090326 0.085780124 -1.3554606e-22)
(0.8647977 0.11233219 8.7230244e-20)
(0.94641524 0.13666085 4.9761543e-20)
(1.0150947 0.15770752 -5.5402286e-20)
(1.0708595 0.17482009 -9.4329118e-20)
(1.1143446 0.1877242 -3.2283139e-21)
(1.1466695 0.19647101 4.3061299e-20)
(1.1692809 0.20136491 -6.7570853e-21)
(1.1837883 0.20288197 -1.3142584e-20)
(1.1918149 0.20158987 2.0086653e-20)
(1.1948803 0.19808026 4.4873753e-20)
(1.1943227 0.19292345 -4.4815268e-20)
(1.1912566 0.18660795 -1.0472253e-19)
(1.1865124 0.17936271 2.5246393e-20)
(0.074531042 -0.0035048335 -3.5348272e-20)
(0.21702762 -0.0041433526 -1.7517387e-19)
(0.35699785 0.01171896 8.3157295e-20)
(0.49161924 0.036967805 9.3920814e-20)
(0.6181343 0.066836723 5.8701514e-20)
(0.73407423 0.098482957 8.7512429e-21)
(0.83739297 0.12952562 -1.0794195e-19)
(0.9266802 0.15801324 0)
(1.0012882 0.18255654 -7.0244216e-20)
(1.0613457 0.20232564 -1.556434e-20)
(1.107677 0.21699338 5.583681e-20)
(1.1416518 0.22665516 1.121126e-20)
(1.1649952 0.23172722 -4.6564327e-20)
(1.1795911 0.23283449 -5.0082142e-20)
(1.1873071 0.23070353 2.4834781e-20)
(1.1898599 0.2260724 4.5832425e-20)
(1.1887301 0.21962577 -5.6832692e-20)
(1.1851259 0.21195845 -1.0983423e-19)
(1.1799855 0.20354077 -3.1408648e-21)
(1.1739786 0.19463201 2.7626197e-20)
(0.087750841 0.0019591559 -3.6664562e-21)
(0.24999469 0.011853014 8.877532e-20)
(0.40360906 0.037652487 -1.6120652e-20)
(0.54665246 0.071505432 -8.5593027e-20)
(0.6769527 0.10815209 4.5829247e-20)
(0.79257133 0.14447371 4.9745018e-20)
(0.89212469 0.17801276 5.6352467e-21)
(0.97499929 0.20693931 -1.01279e-19)
(1.0414215 0.23015245 -2.5533885e-21)
(1.0923942 0.24722242 5.152266e-20)
(1.1295352 0.25827054 6.106714e-21)
(1.1548592 0.26382869 -2.0131018e-20)
(1.1705478 0.26468997 -7.7213418e-20)
(1.1787439 0.2617674 -6.3466056e-21)
(1.1813961 0.25597713 4.437895e-20)
(1.1801631 0.24815507 3.7735436e-20)
(1.1763751 0.23900897 2.0118106e-20)
(1.1710437 0.22910058 -5.4261426e-20)
(1.1649042 0.2188434 1.2985604e-20)
(1.1584531 0.20849889 8.4258621e-20)
(-0.0013165253 0.0014603837 -1.1300634e-21)
(-0.0048289665 0.0032414892 2.0952802e-21)
(-0.010953011 0.0042030144 9.2950036e-22)
(-0.018045006 0.0046099091 -2.4330867e-21)
(-0.025134292 0.0046325391 -1.4742458e-21)
(-0.031783983 0.0043854353 1.6115502e-21)
(-0.03771893 0.0039521015 -7.0630715e-21)
(-0.042758085 0.0033932399 -6.1261914e-21)
(-0.046799393 0.0027522012 1.1480012e-20)
(-0.049795469 0.0020596234 -1.0014376e-20)
(-0.05173335 0.0013368985 -2.0020416e-22)
(-0.052621488 0.0005987026 3.780476e-21)
(-0.052481217 -0.00014508584 -6.4814827e-22)
(-0.051340926 -0.00088785648 2.3525272e-20)
(-0.049232393 -0.0016248737 3.0451273e-22)
(-0.046190259 -0.002351786 -4.2242875e-20)
(-0.042254458 -0.003064013 7.8155117e-21)
(-0.037461787 -0.0037595602 2.4701832e-20)
(-0.031818006 -0.0044370172 -4.5454937e-20)
(-0.025381022 -0.0050469685 -2.8784158e-20)
(-0.0016807111 0.0042546551 -5.4866228e-21)
(-0.0054870644 0.0094227711 1.1014434e-20)
(-0.011396853 0.012198809 -1.0387004e-20)
(-0.01792826 0.01335352 4.0615102e-21)
(-0.024207466 0.013384556 4.9737583e-21)
(-0.02984777 0.012628141 7.3431527e-22)
(-0.03460878 0.01132955 -2.3133054e-20)
(-0.038334562 0.00966699 -2.0896827e-21)
(-0.040939936 0.0077676925 2.070369e-20)
(-0.042388269 0.0057215407 -5.1841785e-21)
(-0.042673018 0.0035912388 -2.2373022e-20)
(-0.041805939 0.0014197379 5.0367847e-21)
(-0.03980941 -0.00076415241 2.3268197e-20)
(-0.036711041 -0.0029412774 1.0620505e-20)
(-0.032539817 -0.0050980496 2.2564601e-20)
(-0.027326602 -0.0072222232 -2.0410429e-20)
(-0.021114087 -0.0093010313 -2.2384275e-20)
(-0.013948135 -0.011328118 2.1961658e-20)
(-0.0057590564 -0.013288896 2.775494e-20)
(0.0036520447 -0.015013341 1.6376818e-20)
(-0.0023408057 0.0066723587 -4.4481057e-21)
(-0.0066386175 0.014713642 -5.7002641e-21)
(-0.012060311 0.018997789 3.0280303e-22)
(-0.01743751 0.020725201 1.0671889e-21)
(-0.022082739 0.020677206 6.8430473e-21)
(-0.025705883 0.019387565 1.0905198e-20)
(-0.028134019 0.017246482 -3.8171036e-21)
(-0.029260083 0.014537572 -1.9363647e-20)
(-0.029031884 0.011463548 6.7084332e-21)
(-0.02743415 0.0081677823 1.319372e-20)
(-0.024473598 0.0047503444 6.0172348e-21)
(-0.020169586 0.001279714 1.8625347e-20)
(-0.014548065 -0.0021984287 1.7781744e-21)
(-0.0076371582 -0.0056542444 -3.4809893e-20)
(0.00053670924 -0.0090669942 1.2773596e-21)
(0.0099471094 -0.012418437 -2.2732431e-20)
(0.020544533 -0.015691496 -2.5303223e-20)
(0.032261423 -0.018877835 4.7392316e-20)
(0.045293712 -0.021923541 2.6285986e-20)
(0.060342281 -0.024458564 2.03258e-22)
(-0.0031761334 0.0085050593 -5.3990981e-21)
(-0.0080033513 0.018616347 -8.7637136e-21)
(-0.01258476 0.023928322 4.4370673e-21)
(-0.016182017 0.02595549 4.2372966e-21)
(-0.018365478 0.025695539 2.0489914e-21)
(-0.018980354 0.023841976 7.4958554e-21)
(-0.017949607 0.020903349 9.5282733e-21)
(-0.015236611 0.017249476 -1.3818055e-21)
(-0.010837813 0.013145208 -1.1748212e-20)
(-0.0047707715 0.0087782532 -2.9780363e-20)
(0.0029357859 0.0042797851 7.8724956e-23)
(0.012247455 -0.00026044773 4.1721254e-20)
(0.02312848 -0.0047831025 -1.8817163e-20)
(0.035543407 -0.0092498742 -1.2624e-20)
(0.049461338 -0.013635422 5.1799695e-22)
(0.064854131 -0.017919633 3.3249095e-20)
(0.081659493 -0.022088658 -1.5366035e-20)
(0.099769618 -0.026141955 -5.4939127e-20)
(0.1195128 -0.02996063 4.7156251e-20)
(0.14230859 -0.032851368 3.4047449e-20)
(-0.0040247613 0.0096091765 -6.817313e-22)
(-0.0091969924 0.020775917 -1.2770932e-20)
(-0.012468467 0.02650218 -3.4881622e-20)
(-0.01360454 0.028479879 -5.8714784e-21)
(-0.01248231 0.027841312 -3.6723348e-21)
(-0.009111202 0.025392759 6.4411032e-21)
(-0.0035329041 0.021727621 -4.7461543e-21)
(0.0041999585 0.017277369 -8.9841065e-21)
(0.014027054 0.012351583 2.2360501e-20)
(0.025884848 0.0071700218 5.1437919e-21)
(0.03971113 0.0018866731 -2.5919587e-20)
(0.055445167 -0.003392951 1.1310776e-20)
(0.073028245 -0.0085991434 0)
(0.092404168 -0.013688215 1.2385295e-20)
(0.11352237 -0.018633661 -9.9468564e-21)
(0.13633701 -0.023418551 -1.4741399e-20)
(0.16075888 -0.028042579 -1.4816793e-21)
(0.18661599 -0.032534063 -2.3329336e-21)
(0.21432603 -0.036706735 4.7301246e-20)
(0.24617946 -0.039399703 -1.0957491e-20)
(-0.0047008977 0.0099152884 -7.6611211e-21)
(-0.0097644849 0.021005874 2.5006173e-20)
(-0.011099101 0.026454756 -1.0728684e-20)
(-0.0090057902 0.027991701 -2.8003398e-20)
(-0.0036946399 0.02679692 -2.8052312e-20)
(0.0046418386 0.023738396 -1.5211573e-20)
(0.015826174 0.019456544 -7.0108401e-22)
(0.029700267 0.014415835 5.6457325e-21)
(0.046125273 0.008950201 1.9971811e-20)
(0.064977214 0.0032975622 7.4982327e-21)
(0.086142515 -0.002375222 -7.3207557e-21)
(0.10951557 -0.0079537629 -2.0151154e-21)
(0.13499489 -0.013362984 -3.9028862e-20)
(0.16248037 -0.01855743 -1.2977633e-20)
(0.19187483 -0.023512962 1.9261226e-20)
(0.22308508 -0.028220812 -2.1583102e-20)
(0.25596963 -0.032704532 -9.200276e-21)
(0.29026452 -0.037050281 3.1105483e-20)
(0.32639747 -0.041040828 5.1676663e-20)
(0.36757997 -0.042934676 3.453811e-21)
(-0.0050103866 0.0094252403 1.7041786e-20)
(-0.0092121008 0.0192915 1.4694393e-20)
(-0.0077889482 0.023761145 5.2058885e-20)
(-0.0015767218 0.024472693 2.3832771e-20)
(0.0088743369 0.022569768 1.8600617e-22)
(0.023178405 0.018930219 -4.0106161e-20)
(0.041010011 0.014202231 -2.4765783e-20)
(0.062092762 0.0088540074 1.0640272e-20)
(0.086190677 0.003221487 1.4656887e-20)
(0.11309766 -0.0024560575 -1.3313224e-20)
(0.14262651 -0.0080112096 -4.4890508e-20)
(0.17459993 -0.013330296 3.0210923e-20)
(0.20884276 -0.018340384 2.0381258e-20)
(0.24517594 -0.023000394 -2.8121883e-20)
(0.28341602 -0.027294311 1.1924896e-20)
(0.32337875 -0.031227889 2.472881e-20)
(0.36483136 -0.034857989 8.2831729e-21)
(0.40738787 -0.038359521 -1.2113883e-20)
(0.45139073 -0.041564365 -1.4423992e-20)
(0.50089322 -0.042133835 6.3013882e-21)
(-0.0047614115 0.0082009635 1.1281254e-20)
(-0.0070339013 0.015774245 -2.3819972e-20)
(-0.0018100274 0.018627269 8.7172557e-21)
(0.009561462 0.018194347 3.4195288e-20)
(0.026195865 0.01550361 5.3031096e-20)
(0.047510393 0.01139368 2.0625481e-20)
(0.073021537 0.0064828078 -5.9782202e-21)
(0.10231535 0.0012112724 -1.2470746e-20)
(0.13503726 -0.0041068238 -6.3371857e-21)
(0.17087204 -0.0092498642 3.4837555e-20)
(0.2095253 -0.014065754 -4.6448238e-21)
(0.25070914 -0.018455018 -1.6979929e-20)
(0.29413075 -0.022358883 -2.003008e-20)
(0.33948403 -0.025751816 -4.8384809e-20)
(0.38644805 -0.028636782 2.3699457e-20)
(0.43469467 -0.03104513 -1.4401967e-20)
(0.48385555 -0.033079906 2.6625609e-20)
(0.53340478 -0.035039406 2.1539359e-20)
(0.58352738 -0.036929414 -8.7128987e-20)
(0.63891382 -0.035983384 -1.0890977e-23)
(-0.003771373 0.0063510346 2.2258589e-20)
(-0.0027369374 0.010730271 -2.6641447e-20)
(0.0075606661 0.011473711 -4.5753419e-20)
(0.025289994 0.0097121363 -2.7715173e-20)
(0.049245482 0.006286894 -2.0773545e-21)
(0.07864161 0.0019501863 1.3226302e-20)
(0.11282232 -0.0027478266 -2.8498673e-21)
(0.15121572 -0.0074259174 1.8391595e-20)
(0.19331848 -0.011818615 8.9835384e-21)
(0.23866831 -0.015745025 -1.1557355e-20)
(0.28681898 -0.019089023 9.0864994e-21)
(0.33732195 -0.021784403 -2.4315524e-20)
(0.38971303 -0.02380423 8.2565576e-21)
(0.44350337 -0.025154199 1.7089222e-20)
(0.49817801 -0.025868609 -2.6986175e-21)
(0.55320578 -0.026012214 1.6925876e-21)
(0.60802357 -0.025734975 -3.0343923e-22)
(0.66194089 -0.025441766 2.0035459e-20)
(0.71495047 -0.025335532 4.1241154e-21)
(0.7721338 -0.022738137 -1.0583019e-21)
(-0.0018676415 0.0040196789 2.4083616e-20)
(0.0041389458 0.0045567714 5.8153286e-20)
(0.020987528 0.0029344396 -5.002954e-20)
(0.046396543 -0.00011411863 -1.0103686e-20)
(0.078851096 -0.0040068394 2.0548048e-20)
(0.11735743 -0.0081242885 2.1748639e-21)
(0.16106927 -0.012023959 -3.0245215e-20)
(0.20922743 -0.015419916 7.0611928e-21)
(0.26114077 -0.018128238 7.2553195e-21)
(0.31615361 -0.020039658 -2.6686945e-20)
(0.37361793 -0.02110381 1.3247146e-21)
(0.43287556 -0.021316481 -3.783023e-20)
(0.4932483 -0.020709207 -3.7034914e-20)
(0.55403432 -0.019340904 6.7032979e-20)
(0.6145111 -0.017290466 5.6880918e-21)
(0.67394273 -0.01465569 -1.5606302e-20)
(0.73156573 -0.011594104 1.9785155e-20)
(0.78651549 -0.0084104533 -9.393053e-22)
(0.8382973 -0.0051280101 2.0576068e-20)
(0.89061842 -0.00019819586 -2.0281967e-20)
(-0.017708096 -0.0053457762 6.0662357e-20)
(-0.0086636161 -0.0059115345 1.6375421e-20)
(0.0018478404 -0.0063755687 -3.6559186e-20)
(0.013470628 -0.0066670619 1.7567053e-20)
(0.025936375 -0.0068701767 0)
(0.039189754 -0.0070132227 0)
(0.053175762 -0.0070986041 -2.4097126e-20)
(0.067818367 -0.0071340622 -1.7318485e-20)
(0.083050868 -0.0071291253 2.0195273e-20)
(0.098818083 -0.0070906961 1.9205912e-20)
(0.1150698 -0.0070240477 1.0949712e-21)
(0.13175937 -0.0069338526 -1.0900647e-20)
(0.1488442 -0.0068242107 8.9470004e-21)
(0.16628547 -0.0066986292 1.9355196e-20)
(0.18404763 -0.0065601508 -5.7157166e-21)
(0.20209818 -0.0064114614 -1.0843599e-20)
(0.22040767 -0.0062549553 -4.6131326e-21)
(0.23894966 -0.0060927869 -4.6713475e-21)
(0.25770086 -0.0059269168 7.6498266e-22)
(0.27664133 -0.0057591476 1.3500137e-21)
(0.29575472 -0.0055911498 2.9227512e-21)
(0.3150286 -0.0054244803 7.3883742e-21)
(0.33445486 -0.0052605934 1.0950547e-22)
(0.35403009 -0.0051008438 -3.939121e-21)
(0.37375602 -0.0049464828 1.3608887e-22)
(0.39363991 -0.0047986443 -6.7892314e-22)
(0.41369484 -0.0046583219 1.4911876e-21)
(0.43393989 -0.0045263351 1.1979051e-21)
(0.45440009 -0.0044032843 -1.8159432e-21)
(0.47510599 -0.0042894963 -1.0696244e-22)
(0.49609283 -0.0041849639 -2.3393335e-22)
(0.51739917 -0.0040892845 -4.8799401e-22)
(0.53906476 -0.0040016078 -7.261233e-22)
(0.56112786 -0.0039206021 2.681551e-22)
(0.58362179 -0.0038444521 -2.1461764e-22)
(0.60657097 -0.0037708967 -3.169263e-22)
(0.62998661 -0.0036973147 3.703947e-22)
(0.65386244 -0.0036208566 4.1147826e-22)
(0.67817077 -0.0035386152 -1.8178973e-22)
(0.70285959 -0.0034478148 -4.2818096e-22)
(0.72784968 -0.0033460045 -3.7505191e-23)
(0.75303704 -0.0032311701 3.0346645e-23)
(0.77828282 -0.0031018747 9.2681384e-23)
(0.803448 -0.0029567888 -3.1008707e-22)
(0.8282836 -0.0027955305 -3.8095225e-22)
(0.85276959 -0.0026142646 1.282888e-22)
(0.87603657 -0.0024197422 6.8969391e-23)
(0.89966382 -0.0021810039 -6.7731151e-24)
(0.917528 -0.0020168791 2.2415966e-23)
(0.94621027 -0.0015061099 5.8181032e-22)
(0.012654751 -0.015772844 -1.3327938e-20)
(0.02083666 -0.017484596 -6.5748448e-20)
(0.030970053 -0.018846967 -3.1902103e-20)
(0.042180922 -0.019679989 4.0174196e-20)
(0.05408373 -0.020264664 1.5339059e-20)
(0.066704056 -0.020683527 -1.9167071e-20)
(0.080018536 -0.020935686 5.0354008e-21)
(0.093953747 -0.021042342 2.6706559e-20)
(0.10845029 -0.021031914 -3.3718839e-23)
(0.12346243 -0.020924217 -8.141807e-21)
(0.13894694 -0.020734084 -1.3550529e-20)
(0.15486243 -0.020474877 -9.1592927e-21)
(0.1711708 -0.020158422 1.8837513e-20)
(0.18783699 -0.019794847 9.9439307e-21)
(0.20482851 -0.019392955 -1.7362898e-20)
(0.22211534 -0.018960558 -6.4490663e-21)
(0.23967004 -0.018504648 3.3693322e-21)
(0.2574678 -0.018031542 8.8713888e-21)
(0.2754866 -0.017547008 7.6304761e-21)
(0.29370749 -0.017056366 -7.8940491e-21)
(0.31211486 -0.016564562 -3.8697112e-21)
(0.33069676 -0.016076214 1.8789796e-21)
(0.34944536 -0.015595645 9.1360473e-22)
(0.36835731 -0.015126888 1.5087905e-21)
(0.38743419 -0.014673676 3.3609957e-22)
(0.40668286 -0.014239394 -5.1620921e-22)
(0.42611583 -0.013827016 -1.0025724e-21)
(0.44575138 -0.013439001 1.5799206e-21)
(0.46561352 -0.01307716 1.2964491e-21)
(0.48573162 -0.012742497 -6.156406e-22)
(0.50613961 -0.012435021 1.0105533e-21)
(0.5268746 -0.012153574 -3.308864e-22)
(0.54797494 -0.011895665 -8.16946e-22)
(0.5694775 -0.011657371 -1.1704556e-21)
(0.59141442 -0.011433331 6.8619712e-22)
(0.61380924 -0.011216854 -5.3861787e-22)
(0.63667271 -0.011000171 6.8512519e-22)
(0.65999862 -0.010774826 -1.1409591e-21)
(0.68375995 -0.010532182 1.3542563e-21)
(0.70790602 -0.010263981 1.1196696e-22)
(0.7323596 -0.0099629242 8.6561105e-23)
(0.7570193 -0.0096230002 7.1108692e-22)
(0.78174946 -0.0092399237 9.723578e-22)
(0.80641471 -0.008809713 7.7868644e-22)
(0.83077073 -0.0083312819 9.1009275e-22)
(0.85480148 -0.0077930901 6.191426e-23)
(0.87764811 -0.0072155647 3.6878851e-22)
(0.90088126 -0.0065055822 2.3105305e-22)
(0.9184403 -0.0060186513 -1.3421018e-22)
(0.94672367 -0.0044973145 2.1828576e-22)
(0.071784264 -0.025334333 9.852717e-21)
(0.078235066 -0.028191236 3.5226287e-21)
(0.087486546 -0.030386533 -1.2933171e-20)
(0.097817442 -0.031669547 -1.3936281e-21)
(0.10855341 -0.032583979 1.5768492e-20)
(0.11987781 -0.033262796 -1.5591917e-20)
(0.13183782 -0.033682299 -3.1448335e-20)
(0.14436128 -0.033871119 1.5379712e-20)
(0.1573996 -0.033875947 1.9298972e-20)
(0.17092455 -0.033727481 -1.2334723e-20)
(0.18490562 -0.033447597 1.0783351e-21)
(0.19931051 -0.033056581 8.9265843e-21)
(0.21410882 -0.032572772 -1.639748e-20)
(0.22927203 -0.032011933 3.7380814e-21)
(0.24477284 -0.031387837 8.2276235e-21)
(0.26058544 -0.030712805 -4.6644006e-22)
(0.27668572 -0.029997967 -5.0901402e-23)
(0.2930515 -0.029253454 -8.3053921e-21)
(0.30966286 -0.02848858 4.9185347e-21)
(0.32650238 -0.027711987 9.6650104e-21)
(0.34355553 -0.026931745 -4.4095447e-21)
(0.36081108 -0.026155427 -2.468599e-21)
(0.37826148 -0.025390142 9.6001181e-22)
(0.39590328 -0.024642543 -2.1566161e-21)
(0.4137376 -0.023918799 1.5621878e-21)
(0.43177046 -0.023224526 8.4443692e-22)
(0.45001312 -0.022564672 2.6673978e-21)
(0.46848221 -0.021943353 -3.2351905e-21)
(0.48719977 -0.021363635 3.8473352e-21)
(0.50619284 -0.020827265 9.3910466e-22)
(0.52549276 -0.020334382 1.381651e-21)
(0.54513388 -0.019883207 4.4414854e-22)
(0.56515175 -0.019469789 2.1113918e-21)
(0.58558062 -0.019087832 -3.3554826e-21)
(0.60645031 -0.018728669 1.0252379e-21)
(0.62778262 -0.018381445 8.1170099e-22)
(0.64958734 -0.018033512 -2.907907e-22)
(0.67185834 -0.017671069 -2.3932914e-22)
(0.69456981 -0.017279984 -1.0481179e-21)
(0.71767356 -0.016846712 7.1174855e-22)
(0.74109608 -0.016359245 -4.3948928e-23)
(0.76474091 -0.015807662 2.113579e-21)
(0.78847844 -0.015184889 -9.7033884e-22)
(0.81218022 -0.014484322 3.4414325e-24)
(0.83561083 -0.013704315 3.7978105e-22)
(0.85876191 -0.012825603 -2.9021519e-22)
(0.88079477 -0.011882591 -3.9094148e-22)
(0.90326372 -0.010719827 1.3421589e-21)
(0.92022963 -0.0099253298 1.1844155e-22)
(0.94773563 -0.0074262861 -1.2947786e-21)
(0.15689375 -0.033366343 1.6282007e-21)
(0.16073634 -0.037334092 -1.1871701e-20)
(0.16842285 -0.040265223 6.7701011e-21)
(0.17730769 -0.041888568 -1.3882681e-20)
(0.18622047 -0.043079415 -2.063242e-21)
(0.19554946 -0.044012401 9.7351792e-21)
(0.2054618 -0.044617933 -1.0553557e-20)
(0.21588293 -0.044922424 1.4024958e-21)
(0.22677159 -0.044988378 1.3585821e-20)
(0.23812225 -0.044854878 3.7681157e-21)
(0.24992102 -0.044547659 -6.5647036e-21)
(0.26214623 -0.04409126 -3.2289567e-21)
(0.27477638 -0.043508689 -5.9100101e-21)
(0.28779051 -0.042820017 -7.0662542e-21)
(0.30116736 -0.042042926 3.0410032e-21)
(0.31488576 -0.041193435 3.7842622e-22)
(0.32892524 -0.040286208 1.677992e-21)
(0.34326643 -0.039334756 -3.6665838e-21)
(0.3578915 -0.038351625 -5.0581371e-21)
(0.3727845 -0.037348553 2.8277059e-21)
(0.38793186 -0.036336581 4.0421521e-21)
(0.40332276 -0.035326121 -2.2210104e-21)
(0.41894963 -0.034326995 2.0134892e-21)
(0.43480853 -0.033348427 -6.9381271e-22)
(0.45089958 -0.032398999 -5.5647857e-21)
(0.46722734 -0.031486551 -3.8494271e-21)
(0.4838011 -0.030618027 -5.0662063e-22)
(0.50063504 -0.029799245 2.4945657e-22)
(0.51774825 -0.029034608 -3.0583993e-21)
(0.53516437 -0.028326737 -1.9479366e-21)
(0.552911 -0.027676067 3.0351204e-22)
(0.5710185 -0.027080433 -2.5795599e-21)
(0.5895184 -0.026534708 -2.8354899e-22)
(0.60844108 -0.026030556 -1.1559659e-21)
(0.62781295 -0.025556393 -7.3713788e-22)
(0.64765318 -0.025097609 -1.9460838e-21)
(0.66797005 -0.024637107 -2.9978882e-21)
(0.68875726 -0.02415615 1.35956e-22)
(0.70999051 -0.023635485 -6.2276143e-24)
(0.73162485 -0.023056581 -1.8871683e-21)
(0.75359183 -0.02240295 3.4187603e-22)
(0.77580175 -0.0216609 -1.4899331e-21)
(0.79813337 -0.020820662 -2.5491223e-21)
(0.82046789 -0.019873069 1.8230114e-21)
(0.84258235 -0.018816108 1.1826934e-23)
(0.86447916 -0.017622902 8.7228129e-22)
(0.8853486 -0.016341979 -5.2895723e-22)
(0.90672083 -0.014756274 -9.0239824e-22)
(0.92283412 -0.013677448 -5.8701832e-23)
(0.9492152 -0.010254591 8.2805803e-22)
(0.26403527 -0.039096493 -2.1744685e-20)
(0.26436304 -0.044126678 4.9180126e-20)
(0.26960962 -0.04768031 1.0668429e-20)
(0.27634845 -0.04955798 -1.6403146e-20)
(0.28273598 -0.051006667 -2.2522778e-21)
(0.28935055 -0.052219967 2.5793769e-21)
(0.2965284 -0.053066132 -1.9039537e-21)
(0.30419432 -0.053558937 -4.9117244e-21)
(0.31230243 -0.053769539 -4.2226533e-21)
(0.32086857 -0.053742186 -1.2869445e-20)
(0.32989705 -0.053504117 1.9216232e-20)
(0.33937606 -0.053081411 7.1313329e-21)
(0.34929141 -0.052499531 -1.782283e-20)
(0.3596286 -0.051781426 1.0553685e-20)
(0.37037146 -0.050947703 8.4813858e-21)
(0.38150253 -0.050017319 -4.5000422e-22)
(0.39300406 -0.049007934 -3.0075713e-21)
(0.40485864 -0.04793608 -4.6495384e-21)
(0.4170497 -0.046817308 -1.7767923e-21)
(0.42956201 -0.045666316 -1.605707e-21)
(0.44238218 -0.044497039 -3.8939644e-21)
(0.45549913 -0.043322703 0)
(0.46890453 -0.042155843 -1.8198444e-21)
(0.48259325 -0.041008274 4.7416398e-21)
(0.49656372 -0.039891028 7.129137e-21)
(0.51081829 -0.038814222 -1.089057e-21)
(0.52536354 -0.037786866 -4.6729444e-21)
(0.54021037 -0.036816583 5.221663e-21)
(0.55537404 -0.035909245 -2.971071e-22)
(0.57087389 -0.035068525 6.0698295e-21)
(0.58673276 -0.034295392 -7.0719438e-22)
(0.60297602 -0.033587591 3.0531295e-21)
(0.61963005 -0.032939184 -1.7952585e-21)
(0.6367203 -0.032340229 1.0728513e-21)
(0.65426878 -0.031776708 -1.3271187e-21)
(0.67229113 -0.03123079 1.2300522e-21)
(0.69079338 -0.030681469 1.4048912e-21)
(0.70976869 -0.030105607 1.251012e-21)
(0.72919414 -0.029479309 -3.1650157e-21)
(0.7490284 -0.028779467 2.3666296e-21)
(0.76920883 -0.027985411 -1.2291014e-21)
(0.78965369 -0.02707987 -4.6353936e-21)
(0.81025173 -0.026050507 5.9997814e-21)
(0.83089576 -0.024885691 -5.6956272e-23)
(0.85137805 -0.023583274 -6.7770054e-22)
(0.87171391 -0.022109022 -9.0129857e-25)
(0.89113029 -0.020525606 -8.3007882e-22)
(0.91112536 -0.018555961 -1.5726112e-21)
(0.92616594 -0.017222356 7.5486393e-22)
(0.95111804 -0.012947666 -1.1534446e-22)
(0.38816371 -0.041547056 -1.8223105e-20)
(0.38408473 -0.047648415 1.3183255e-20)
(0.38588693 -0.051752107 3.2892681e-21)
(0.38966493 -0.053889395 -7.9366346e-21)
(0.39282874 -0.055659642 1.2549478e-20)
(0.39604978 -0.057235339 8.1339034e-21)
(0.39985912 -0.058427638 -1.3063717e-20)
(0.40419875 -0.059234977 -6.357749e-21)
(0.40900254 -0.059724129 1.3331589e-20)
(0.41429517 -0.059938105 -1.648865e-20)
(0.42009648 -0.059904464 -1.4824684e-20)
(0.42640241 -0.059649395 1.5440199e-20)
(0.4332024 -0.059198943 7.2527977e-21)
(0.44048502 -0.058577702 -5.1830613e-21)
(0.44823664 -0.057808574 -1.5214371e-21)
(0.4564414 -0.056913078 -3.8764797e-21)
(0.46508238 -0.055911634 5.1736783e-21)
(0.47414243 -0.054823701 3.9655099e-21)
(0.4836048 -0.05366785 -3.3821739e-21)
(0.49345369 -0.052461813 3.423643e-21)
(0.50367473 -0.051222537 3.3449405e-21)
(0.51425552 -0.049966198 -3.878282e-21)
(0.52518604 -0.048708184 4.1883702e-22)
(0.53645906 -0.04746305 -3.6792271e-21)
(0.5480705 -0.046244424 1.0491713e-20)
(0.56001976 -0.045064846 8.4090665e-21)
(0.57230992 -0.043935547 1.5858124e-21)
(0.58494792 -0.04286612 -2.4962966e-21)
(0.59794446 -0.0418641 6.6524146e-21)
(0.61131386 -0.040934447 1.2899909e-20)
(0.62507346 -0.040078946 3.7371228e-21)
(0.63924281 -0.0392956 6.606153e-21)
(0.65384235 -0.038578073 3.860492e-21)
(0.66889175 -0.037915301 1.7584399e-21)
(0.68440774 -0.037291386 -4.0432331e-22)
(0.70040158 -0.036685867 7.0966716e-21)
(0.71687632 -0.036074455 1.6669128e-21)
(0.73382394 -0.035430221 7.6759868e-22)
(0.75122255 -0.034725193 1.2942479e-22)
(0.76903428 -0.033932164 3.7003719e-21)
(0.78720252 -0.033026649 7.460712e-23)
(0.80565397 -0.031988038 2.027187e-21)
(0.82428829 -0.030801588 -2.7430696e-22)
(0.84301096 -0.029453335 -1.6554339e-21)
(0.86163128 -0.02794128 -7.3035246e-22)
(0.88017858 -0.026224205 -1.8665564e-21)
(0.89792271 -0.024378911 9.057635e-22)
(0.91632196 -0.022070702 -4.3466882e-22)
(0.93011689 -0.020516259 -4.5000605e-22)
(0.95338875 -0.015475914 6.6863967e-22)
(0.52302321 -0.039735967 3.5906112e-21)
(0.51384783 -0.046931807 -1.9395645e-20)
(0.51121659 -0.051570948 -2.4267494e-21)
(0.51120807 -0.05413794 5.6561927e-21)
(0.5105752 -0.056438696 3.2818968e-21)
(0.50988773 -0.058550958 1.7334257e-22)
(0.50983835 -0.060259812 6.7266192e-21)
(0.51043042 -0.061565152 8.0521385e-21)
(0.5115752 -0.062519246 1.0254119e-20)
(0.51328317 -0.06315484 -1.191356e-20)
(0.51557896 -0.063498096 -2.3077907e-20)
(0.51846319 -0.063575427 -4.442493e-21)
(0.52192509 -0.063413009 1.7182949e-20)
(0.52595192 -0.063036623 1.3830475e-20)
(0.5305291 -0.062471443 -6.0678932e-21)
(0.53563976 -0.061741783 1.029122e-21)
(0.54126562 -0.060871123 -4.4074015e-21)
(0.54738792 -0.059882177 3.3099029e-21)
(0.55398812 -0.058796883 -3.1707159e-22)
(0.56104844 -0.05763637 -2.1663861e-21)
(0.56855234 -0.056420943 9.5697225e-21)
(0.57648502 -0.055170053 -6.2411297e-22)
(0.58483379 -0.053902253 7.7507732e-22)
(0.59358848 -0.052635118 -4.1467588e-22)
(0.60274176 -0.051385129 -5.4991019e-21)
(0.61228936 -0.050167494 5.5185959e-21)
(0.62223031 -0.048995891 2.2410292e-21)
(0.63256698 -0.047882116 -4.6039998e-21)
(0.64330507 -0.046835611 -5.4149229e-21)
(0.65445337 -0.045862889 -9.2086659e-21)