/*--------------------------------*- C++ -*----------------------------------*\
  =========                 |
  \\      /  F ield         | OpenFOAM: The Open Source CFD Toolbox
   \\    /   O peration     | Website:  https://openfoam.org
    \\  /    A nd           | Version:  6
     \\/     M anipulation  |
\*---------------------------------------------------------------------------*/
FoamFile
{
    version     2.0;
    format      ascii;
    class       volScalarField;
    location    "202";
    object      pMean;
}
// * * * * * * * * * * * * * * * * * * * * * * * * * * * * * * * * * * * * * //

dimensions      [0 2 -2 0 0 0 0];

internalField   nonuniform List<scalar> 
9200
(
-0.39378032
-0.38183844
-0.37117872
-0.36175529
-0.3525374
-0.34352905
-0.33481301
-0.32635411
-0.31808151
-0.30992134
-0.30180014
-0.29364973
-0.28541426
-0.27705732
-0.26857213
-0.2599987
-0.25141814
-0.2429219
-0.23551744
-0.233417
-0.41213382
-0.39774259
-0.38514541
-0.37419459
-0.36358713
-0.3532962
-0.34339497
-0.33381816
-0.32446415
-0.31523456
-0.30603803
-0.29679586
-0.28744947
-0.27796598
-0.26834327
-0.25861334
-0.24881312
-0.23894863
-0.22969487
-0.22319332
-0.43082972
-0.41397819
-0.39949717
-0.38709216
-0.37514929
-0.36359301
-0.35247587
-0.34169604
-0.33112054
-0.32063182
-0.31013104
-0.29954329
-0.28882393
-0.27796103
-0.2669745
-0.25591112
-0.24481677
-0.23370583
-0.22297646
-0.21374231
-0.44941387
-0.43013129
-0.4138367
-0.40003909
-0.38677736
-0.37391167
-0.36146746
-0.3493075
-0.33727705
-0.32525623
-0.31316047
-0.30094274
-0.28859578
-0.27614904
-0.2636612
-0.25120952
-0.23886584
-0.22667186
-0.21489592
-0.20428414
-0.46723554
-0.44563476
-0.42764701
-0.41253267
-0.39795747
-0.38370783
-0.3697837
-0.35602498
-0.34227731
-0.32844654
-0.3144923
-0.30042305
-0.28629082
-0.27218039
-0.25819536
-0.24444381
-0.23101818
-0.2179766
-0.20550792
-0.19412614
-0.48345068
-0.45974964
-0.44024693
-0.42390336
-0.40800407
-0.39226362
-0.37667097
-0.36107059
-0.34534371
-0.32945843
-0.3134507
-0.29740778
-0.28145279
-0.2657262
-0.25036753
-0.23550074
-0.22121955
-0.20757662
-0.19469736
-0.18292405
-0.4970372
-0.47157183
-0.45079314
-0.43331858
-0.41607226
-0.39871483
-0.38125408
-0.36358107
-0.34565739
-0.32755198
-0.30940378
-0.29139067
-0.27370422
-0.25652627
-0.24001111
-0.22427518
-0.20939036
-0.1953825
-0.18231656
-0.17039683
-0.50681813
-0.48005693
-0.45831423
-0.43983139
-0.42122404
-0.4021349
-0.38263483
-0.36271431
-0.34246307
-0.32208428
-0.30183517
-0.28198194
-0.26276842
-0.24439381
-0.22700105
-0.21067555
-0.1954486
-0.18130566
-0.16825257
-0.15637692
-0.51144163
-0.48391708
-0.46150996
-0.44209261
-0.42207352
-0.40114131
-0.37949048
-0.35726738
-0.33472752
-0.31222147
-0.29011591
-0.26874113
-0.24836173
-0.22916296
-0.21125074
-0.19466167
-0.17937657
-0.16533712
-0.15249421
-0.14083519
-0.50955434
-0.48172765
-0.45882316
-0.43842913
-0.4168962
-0.39404313
-0.37025244
-0.34586962
-0.32132662
-0.29710169
-0.27363176
-0.25126499
-0.23024417
-0.2107085
-0.1927076
-0.17622177
-0.16118267
-0.14749443
-0.13506034
-0.12378018
-0.27578066
-0.28019127
-0.28228889
-0.28267696
-0.28207823
-0.28066432
-0.27852831
-0.27576423
-0.27244676
-0.2686331
-0.26436998
-0.25969746
-0.25465111
-0.24926343
-0.24356512
-0.23758755
-0.23136422
-0.2249182
-0.2182506
-0.2114517
-0.27868208
-0.28265747
-0.28443827
-0.28460375
-0.28382028
-0.2822508
-0.27998631
-0.27711659
-0.27371243
-0.26982791
-0.26550715
-0.26078794
-0.2557038
-0.25028507
-0.24455971
-0.2385579
-0.23232053
-0.225869
-0.21909566
-0.21197387
-0.28433348
-0.28746075
-0.28862573
-0.28835601
-0.28721065
-0.28533698
-0.28282191
-0.27974703
-0.27617549
-0.2721553
-0.26772533
-0.26291877
-0.25776504
-0.25229039
-0.24651765
-0.24047382
-0.23421095
-0.2277495
-0.22078767
-0.21305811
-0.29246816
-0.29438578
-0.2946618
-0.29375251
-0.29206924
-0.28973945
-0.28684526
-0.28345716
-0.27962777
-0.27539654
-0.27079489
-0.26584939
-0.26058349
-0.25501735
-0.24916674
-0.24305306
-0.23673969
-0.23025213
-0.22304311
-0.21446673
-0.30275055
-0.30316241
-0.30231069
-0.30057045
-0.29817766
-0.29523889
-0.29183209
-0.2880151
-0.28382815
-0.27930063
-0.27445491
-0.26930868
-0.26387733
-0.2581737
-0.25220514
-0.24598441
-0.23958208
-0.23303723
-0.22554876
-0.2159523
-0.31483296
-0.31351057
-0.3113301
-0.30858498
-0.30532031
-0.3016235
-0.29757053
-0.29320693
-0.28855987
-0.28364619
-0.27847672
-0.27305918
-0.26739962
-0.26150205
-0.25536448
-0.24898828
-0.24244341
-0.23578841
-0.22799987
-0.2172828
-0.32840657
-0.32518017
-0.32150708
-0.31760555
-0.3133231
-0.30873162
-0.30390909
-0.29888834
-0.2936809
-0.28829033
-0.28271523
-0.27695141
-0.27099384
-0.2648367
-0.25846887
-0.25188017
-0.2451333
-0.23830928
-0.23022685
-0.21840184
-0.34323139
-0.33797555
-0.33268156
-0.32750182
-0.32208422
-0.31648834
-0.31079455
-0.30502246
-0.29916808
-0.29321981
-0.28716127
-0.2809735
-0.27463755
-0.26813541
-0.26144648
-0.2545522
-0.24751308
-0.24045618
-0.23216055
-0.21945635
-0.35913532
-0.35174636
-0.34472599
-0.3381707
-0.33152314
-0.32482963
-0.31817498
-0.31156526
-0.30497831
-0.29838448
-0.29174912
-0.28503471
-0.27820337
-0.27121717
-0.26403373
-0.25660816
-0.24896684
-0.24121994
-0.23214642
-0.21829261
-0.37600454
-0.36636821
-0.35750997
-0.34947526
-0.34148965
-0.33358606
-0.32585379
-0.31828344
-0.31083262
-0.30345245
-0.29609027
-0.28869238
-0.28120714
-0.27358507
-0.26577368
-0.2577132
-0.24935163
-0.24049107
-0.22952051
-0.21346264
-0.20375552
-0.19418669
-0.18464814
-0.1752161
-0.16583288
-0.15653899
-0.1473906
-0.13842398
-0.12966789
-0.12115011
-0.11289555
-0.10492504
-0.097255896
-0.089902366
-0.082875688
-0.07618418
-0.069833403
-0.06382631
-0.058163402
-0.052842872
-0.047860777
-0.04321121
-0.03888649
-0.034877354
-0.031173163
-0.027762108
-0.024631418
-0.021767568
-0.019156477
-0.01678371
-0.01463465
-0.01269468
-0.010949335
-0.0093844472
-0.0079862812
-0.0067416508
-0.0056380372
-0.0046636786
-0.0038077463
-0.0030602434
-0.0024128962
-0.0018569513
-0.0013911124
-0.00099819641
-0.00071894042
-0.00043313642
-0.00051841289
7.3153321e-05
-0.0018120064
0.0027513852
-0.2050094
-0.19501222
-0.18534813
-0.17592171
-0.16650857
-0.15717125
-0.14798631
-0.13898616
-0.1301966
-0.12164609
-0.11335994
-0.10535888
-0.097660169
-0.090278125
-0.083224045
-0.076506294
-0.070130469
-0.064099564
-0.058414103
-0.053072293
-0.048070196
-0.043401897
-0.039059697
-0.03503431
-0.031315062
-0.027890104
-0.024746619
-0.021871031
-0.019249208
-0.016866655
-0.014708702
-0.012760671
-0.011008039
-0.0094365802
-0.0080325023
-0.0067825635
-0.0056741912
-0.0046955718
-0.0038358265
-0.0030849101
-0.0024345011
-0.0018758011
-0.0014074516
-0.0010122627
-0.00073070167
-0.00044314456
-0.00052458588
6.5211346e-05
-0.0017996039
0.0027221789
-0.20757319
-0.19667104
-0.18676078
-0.17738903
-0.16793197
-0.15851033
-0.14925586
-0.14019117
-0.13133455
-0.12271683
-0.11436488
-0.1062993
-0.098537453
-0.09109402
-0.083980579
-0.077205693
-0.070775141
-0.064692063
-0.058957096
-0.05356852
-0.048522437
-0.04381294
-0.039432312
-0.035371222
-0.03161893
-0.028163503
-0.024992027
-0.022090814
-0.019445611
-0.017041798
-0.014864573
-0.012899124
-0.011130794
-0.0095452272
-0.0081284992
-0.006867242
-0.0057487609
-0.0047611244
-0.0038933412
-0.0031352573
-0.002478446
-0.0019140078
-0.0014404561
-0.0010405662
-0.00075429692
-0.00046309758
-0.0005369079
4.960321e-05
-0.001775096
0.0026643454
-0.21120084
-0.19886099
-0.1885969
-0.17941007
-0.1699415
-0.16041524
-0.15107999
-0.14194112
-0.13300045
-0.12429415
-0.1158533
-0.1076987
-0.099848052
-0.092316923
-0.085117654
-0.078259349
-0.071748233
-0.06558783
-0.059779073
-0.054320463
-0.049208248
-0.044436609
-0.03999786
-0.035882651
-0.032080182
-0.028578426
-0.025364341
-0.022424092
-0.019743258
-0.017307037
-0.015100435
-0.013108442
-0.011316202
-0.0097091558
-0.0082731837
-0.0069947235
-0.0058608931
-0.00485958
-0.0039796197
-0.0032106908
-0.0025442048
-0.001971106
-0.0014897146
-0.0010827457
-0.00078940725
-0.00049271793
-0.00055516713
2.6591203e-05
-0.0017389145
0.0025790915
-0.21557123
-0.20124037
-0.19052476
-0.18172641
-0.17233556
-0.16270969
-0.15330509
-0.14410803
-0.13508796
-0.12628834
-0.11774938
-0.10949334
-0.10153849
-0.093901997
-0.086597706
-0.079635827
-0.073023472
-0.066764916
-0.060861703
-0.055312806
-0.050114823
-0.045262179
-0.040747337
-0.036561014
-0.032692409
-0.029129428
-0.025858916
-0.022866882
-0.020138714
-0.017659394
-0.015413693
-0.013386353
-0.011562263
-0.0099266043
-0.0084649982
-0.0071636284
-0.0060093645
-0.0049898536
-0.0040937
-0.0033103582
-0.0026310232
-0.0020464295
-0.0015546393
-0.0011382847
-0.00083558227
-0.00053160761
-0.00057908648
-3.4132799e-06
-0.001691805
0.0024683016
-0.22025746
-0.20347252
-0.192227
-0.18405413
-0.17489352
-0.16520771
-0.15576087
-0.14654301
-0.13747277
-0.12859505
-0.11996431
-0.11160787
-0.10354529
-0.09579585
-0.088375825
-0.08129738
-0.074569153
-0.06819669
-0.062182598
-0.056526705
-0.051226269
-0.046276212
-0.041669347
-0.037396613
-0.033447322
-0.029809397
-0.02646962
-0.023413872
-0.020627357
-0.018094833
-0.015800809
-0.013729747
-0.011866236
-0.01019515
-0.0087017997
-0.00737206
-0.0061924965
-0.0051504604
-0.0042342699
-0.0034331016
-0.0027378812
-0.0021390821
-0.0016344445
-0.0012064982
-0.00089223046
-0.00057925085
-0.00060831579
-3.9896056e-05
-0.0016347395
0.0023344253
-0.22481267
-0.20534361
-0.19346674
-0.18608575
-0.177382
-0.16775152
-0.15830453
-0.14910814
-0.14003493
-0.13111413
-0.12241275
-0.11396854
-0.10580499
-0.097944034
-0.09040519
-0.083203622
-0.076350367
-0.069852923
-0.063715526
-0.057939345
-0.052522704
-0.047461347
-0.042748701
-0.038376138
-0.03433324
-0.030608068
-0.027187425
-0.024057116
-0.021202191
-0.018607189
-0.016256355
-0.014133845
-0.012223916
-0.010511099
-0.0089803475
-0.0076171793
-0.0064078069
-0.0053392347
-0.0043994447
-0.0035772856
-0.0028633643
-0.0022478453
-0.0017280853
-0.0012864975
-0.00095860415
-0.00063502219
-0.00064244161
-8.2303646e-05
-0.0015688403
0.002180328
-0.22894742
-0.20722719
-0.19446133
-0.18763277
-0.1795797
-0.17024111
-0.16087874
-0.15173361
-0.14269858
-0.13377588
-0.12503165
-0.11651679
-0.10826312
-0.10029655
-0.092640304
-0.085313349
-0.078329972
-0.07170029
-0.065430715
-0.059524222
-0.053980602
-0.048796757
-0.043967004
-0.039483367
-0.035335881
-0.031512881
-0.028001295
-0.024786926
-0.021854719
-0.01918902
-0.016773814
-0.014592948
-0.01263033
-0.010870116
-0.0092968695
-0.0078957136
-0.0066524646
-0.0055537363
-0.0045871299
-0.0037411209
-0.003005952
-0.0023714358
-0.0018344852
-0.0013773912
-0.0010339747
-0.00069833521
-0.00068110749
-0.00013015212
-0.0014953666
0.0020092411
-0.23032451
-0.20931204
-0.19585707
-0.18861835
-0.18105207
-0.17229472
-0.16320751
-0.15418592
-0.14524827
-0.13639007
-0.12766095
-0.11911997
-0.1108106
-0.10276516
-0.095011241
-0.087572323
-0.080466869
-0.073708528
-0.067306689
-0.061266856
-0.055590938
-0.050277571
-0.045322454
-0.040718693
-0.036457124
-0.03252665
-0.028914555
-0.025606821
-0.022588424
-0.019843616
-0.017356188
-0.015109711
-0.013087762
-0.011274117
-0.0096529339
-0.0082089109
-0.0069274327
-0.0057946808
-0.0047978304
-0.0039249364
-0.0031658282
-0.0025099184
-0.0019536132
-0.0014790661
-0.0011181819
-0.00076893392
-0.00072423845
-0.00018278338
-0.0014160302
0.0018253874
-0.22070637
-0.20869141
-0.19713613
-0.18851267
-0.1809032
-0.17293903
-0.16447007
-0.15582203
-0.14717358
-0.13855327
-0.12999219
-0.12155004
-0.11328342
-0.1052357
-0.097442487
-0.089934533
-0.082737113
-0.075869827
-0.069347116
-0.063178773
-0.057370316
-0.051923362
-0.046836035
-0.042103364
-0.037717679
-0.033668996
-0.029945388
-0.026533348
-0.023418129
-0.020584067
-0.018014879
-0.015693939
-0.013604526
-0.011730051
-0.010054252
-0.0085613736
-0.0072363289
-0.006064819
-0.0050335401
-0.0041300698
-0.0033437681
-0.0026635878
-0.0020853687
-0.0015910763
-0.001210571
-0.00084582317
-0.00077122389
-0.00023808553
-0.0013332103
0.0016344636
-0.19898431
-0.20266245
-0.19672097
-0.18735257
-0.17934968
-0.17181349
-0.16380574
-0.15547185
-0.14707468
-0.13867936
-0.13030953
-0.12202079
-0.11387381
-0.1059167
-0.098188616
-0.090723586
-0.083550175
-0.076691066
-0.070163475
-0.063979683
-0.058147419
-0.052670247
-0.047547976
-0.04277709
-0.038351146
-0.034261191
-0.030496146
-0.027043186
-0.023888106
-0.021015654
-0.01840985
-0.016054275
-0.013932335
-0.012027498
-0.010323507
-0.0088045609
-0.0074554945
-0.0062618985
-0.0052103325
-0.0042882223
-0.0034847255
-0.0027886571
-0.0021953595
-0.001687222
-0.0012912277
-0.00091578843
-0.00081190927
-0.0002928955
-0.0012466243
0.001444898
-0.18803496
-0.1928184
-0.18872467
-0.17962979
-0.17200608
-0.1652756
-0.15811717
-0.15054253
-0.14284152
-0.13509105
-0.12730599
-0.11953814
-0.11185093
-0.10429655
-0.096918206
-0.089754218
-0.082837661
-0.076195675
-0.069849752
-0.063816211
-0.058106565
-0.052727883
-0.047683192
-0.042971903
-0.038590225
-0.034531584
-0.030787024
-0.027345601
-0.02419476
-0.021320692
-0.01870866
-0.016343311
-0.014208955
-0.012289817
-0.010570264
-0.0090350075
-0.0076692833
-0.0064589977
-0.0053909355
-0.0044526951
-0.0036334678
-0.002922228
-0.0023137981
-0.0017916459
-0.0013786823
-0.00099300752
-0.00085457292
-0.00035702253
-0.0011461962
0.0012392256
-0.17880519
-0.18112973
-0.17828469
-0.17095977
-0.16424635
-0.15826006
-0.15191205
-0.14510817
-0.13810778
-0.13100684
-0.1238227
-0.11660139
-0.10940531
-0.10228871
-0.095297266
-0.088472023
-0.081849349
-0.075459986
-0.0693291
-0.063476662
-0.057917752
-0.052662858
-0.047718242
-0.043086334
-0.038766137
-0.034753634
-0.031042188
-0.027622944
-0.024485206
-0.021616809
-0.019004455
-0.016634041
-0.014490947
-0.012560308
-0.010827252
-0.0092771185
-0.0078956537
-0.0066691676
-0.0055847452
-0.0046302204
-0.0037948596
-0.0030678499
-0.0024434567
-0.0019063849
-0.0014750124
-0.0010782797
-0.00090166499
-0.00042800913
-0.0010354388
0.001012787
-0.16863415
-0.16852914
-0.16619502
-0.16096578
-0.15552544
-0.15033102
-0.14481613
-0.13886121
-0.13263812
-0.12624769
-0.11972258
-0.11310706
-0.10646035
-0.099837534
-0.093286364
-0.086850219
-0.08056829
-0.074474631
-0.068597955
-0.062961861
-0.057585064
-0.052481619
-0.047661219
-0.043129553
-0.03888868
-0.034937411
-0.031271706
-0.027885068
-0.024768923
-0.021912995
-0.019305656
-0.016934259
-0.014785447
-0.012845434
-0.01110026
-0.0095360241
-0.0081390953
-0.0068962831
-0.0057950516
-0.0048235347
-0.0039711223
-0.0032272493
-0.0025856387
-0.0020322465
-0.001580847
-0.0011713327
-0.0009541117
-0.00050269402
-0.00092208071
0.00077592984
-0.15759301
-0.15578558
-0.15355333
-0.1500526
-0.14593759
-0.14159347
-0.13691565
-0.13183885
-0.12644384
-0.12081368
-0.11499601
-0.10903755
-0.10299345
-0.096917729
-0.090859268
-0.084862979
-0.078970101
-0.073217394
-0.067636721
-0.062255081
-0.057094718
-0.052173261
-0.047503942
-0.043095877
-0.038954395
-0.035081393
-0.031475696
-0.028133441
-0.025048453
-0.022212612
-0.019616213
-0.017248306
-0.015097011
-0.013149817
-0.011393854
-0.0098161345
-0.0084037832
-0.0071442237
-0.006025395
-0.0050358071
-0.0041650373
-0.0034028023
-0.0027423322
-0.0021707801
-0.001697463
-0.001272789
-0.0010130796
-0.00058000459
-0.00081200432
0.00053681947
-0.14539842
-0.14294145
-0.14090056
-0.13869062
-0.13577232
-0.13230383
-0.12845009
-0.12422924
-0.11966362
-0.11480926
-0.10972064
-0.10444629
-0.099037057
-0.093544556
-0.088017508
-0.082501258
-0.077037954
-0.071666049
-0.066419767
-0.061328905
-0.056418802
-0.051710371
-0.047220217
-0.042960835
-0.038940864
-0.035165385
-0.031636245
-0.028352406
-0.0253103
-0.022504189
-0.019926514
-0.01756824
-0.015419179
-0.013468294
-0.011703985
-0.010114344
-0.0086873979
-0.0074113133
-0.0062746147
-0.0052662783
-0.0043761483
-0.0035942645
-0.0029134457
-0.0023219466
-0.001824947
-0.0013825295
-0.0010792032
-0.00065905214
-0.00071101888
0.00030401687
-0.13237539
-0.130144
-0.128514
-0.12723757
-0.12530689
-0.12268214
-0.11962213
-0.11620891
-0.11244129
-0.10834972
-0.10398693
-0.099402504
-0.094642129
-0.089752729
-0.084781595
-0.079773578
-0.074770666
-0.069811839
-0.064932658
-0.060164885
-0.05553628
-0.051070514
-0.046787179
-0.042701888
-0.03882644
-0.035169044
-0.031734584
-0.028524924
-0.025539224
-0.022774277
-0.020224843
-0.017883987
-0.015743395
-0.013793686
-0.012024706
-0.01042579
-0.0089860187
-0.007694435
-0.0065402695
-0.0055130644
-0.0046030234
-0.0038005574
-0.0030981827
-0.0024851324
-0.0019629187
-0.0015001247
-0.0011528893
-0.00073900925
-0.00062496322
8.6664838e-05
-0.11922656
-0.11763587
-0.11654259
-0.11594688
-0.11479589
-0.1129361
-0.11061677
-0.10794763
-0.10492446
-0.10156047
-0.097900187
-0.09399073
-0.089874269
-0.085592249
-0.08118761
-0.076703502
-0.072180971
-0.067658513
-0.06317192
-0.058753936
-0.054433907
-0.05023756
-0.046186905
-0.042300229
-0.038592165
-0.035073833
-0.031753028
-0.028634464
-0.025720045
-0.023009158
-0.020498984
-0.01818481
-0.016060344
-0.014118014
-0.012349266
-0.01074483
-0.0092949845
-0.0079897859
-0.0068192934
-0.0057737214
-0.0048437348
-0.0040201719
-0.0032953763
-0.0026594262
-0.0021107449
-0.0016250295
-0.0012343701
-0.00081935866
-0.00055896339
-0.00010656615
-0.10647711
-0.10559226
-0.10505121
-0.10497481
-0.10443569
-0.10323955
-0.10158849
-0.099591454
-0.097247293
-0.094559895
-0.091563757
-0.088300305
-0.084807095
-0.081121007
-0.077280344
-0.073324226
-0.069291469
-0.065219285
-0.061142785
-0.057094708
-0.053105076
-0.049200872
-0.045405836
-0.04174035
-0.038221418
-0.034862707
-0.031674663
-0.028664677
-0.025837296
-0.023194469
-0.020735812
-0.018458898
-0.01635954
-0.014432087
-0.012669705
-0.011064652
-0.0096085349
-0.0082925474
-0.0071076991
-0.0060449844
-0.0050956359
-0.004250983
-0.0035033402
-0.0028435077
-0.0022674553
-0.001756544
-0.0013236183
-0.00089995152
-0.0005166983
-0.00026863076
-0.094400048
-0.09412958
-0.094085042
-0.094419416
-0.094363921
-0.093726144
-0.092659487
-0.091257876
-0.089522028
-0.087450991
-0.085069952
-0.082413014
-0.079512284
-0.076399462
-0.073108239
-0.069673551
-0.06613049
-0.062513799
-0.058857095
-0.055192279
-0.051549173
-0.047955195
-0.044435069
-0.041010623
-0.037700667
-0.034520956
-0.031484217
-0.028600236
-0.025876003
-0.023315897
-0.020921906
-0.018693867
-0.016629727
-0.014725812
-0.012977091
-0.011377445
-0.0099199147
-0.0085969433
-0.0074006004
-0.0063227637
-0.0053553392
-0.0044902181
-0.0037198339
-0.0030356121
-0.0024317125
-0.0018937815
-0.001420287
-0.00098093551
-0.00049985723
-0.00039511531
-0.083128002
-0.083336177
-0.083696602
-0.084353579
-0.084678871
-0.084499062
-0.083928817
-0.083043413
-0.081842748
-0.080322745
-0.078500698
-0.076403072
-0.074055988
-0.07148574
-0.068720834
-0.065791737
-0.062729646
-0.059565856
-0.056331478
-0.053056793
-0.049770658
-0.046500143
-0.043270211
-0.04010345
-0.037019872
-0.034036791
-0.031168765
-0.028427612
-0.025822481
-0.023359969
-0.021044287
-0.018877452
-0.016859503
-0.014988746
-0.013261988
-0.011674788
-0.0102217
-0.0088965021
-0.0076924185
-0.0066023031
-0.0056188355
-0.0047345429
-0.0039421246
-0.0032335696
-0.0026018373
-0.0020356587
-0.0015236809
-0.0010626125
-0.00050785781
-0.00048495411
-0.072716619
-0.073271974
-0.07393753
-0.074836536
-0.075454398
-0.075640084
-0.075479492
-0.075030708
-0.074291219
-0.073254295
-0.071930644
-0.070339541
-0.068501012
-0.066435863
-0.064167293
-0.061720837
-0.05912344
-0.056402706
-0.053586522
-0.050702713
-0.047778454
-0.044839756
-0.041911111
-0.03901519
-0.036172577
-0.033401576
-0.030718082
-0.02813552
-0.025664844
-0.02331459
-0.021090977
-0.018998047
-0.017037836
-0.015210572
-0.013514887
-0.011948038
-0.010506131
-0.0091843416
-0.0079771191
-0.0068783738
-0.0058816485
-0.0049801816
-0.0041670771
-0.0034348649
-0.0027758498
-0.0021808857
-0.0016327445
-0.0011452555
-0.00053790881
-0.000540654
-0.063174508
-0.063967288
-0.064846538
-0.065914043
-0.066746689
-0.067214376
-0.06738152
-0.067291967
-0.066940495
-0.06631802
-0.065429774
-0.064288644
-0.062908864
-0.061305886
-0.059497682
-0.057504767
-0.055349493
-0.053055438
-0.050646969
-0.048148875
-0.045585953
-0.042982503
-0.040361895
-0.037746229
-0.035156034
-0.032610025
-0.030124901
-0.027715227
-0.02539336
-0.023169435
-0.021051406
-0.019045129
-0.017154478
-0.0153815
-0.013726591
-0.01218868
-0.010765433
-0.0094534501
-0.0082484576
-0.0071454825
-0.006139008
-0.0052230562
-0.0043912632
-0.003636714
-0.0029515202
-0.0023279597
-0.0017460729
-0.0012289287
-0.00058544744
-0.00056788665
-0.054484223
-0.055428088
-0.056444341
-0.057616368
-0.058596088
-0.05927201
-0.059692198
-0.05988917
-0.059855462
-0.059580119
-0.059063928
-0.058314351
-0.057340426
-0.056152638
-0.054764001
-0.05319015
-0.051448807
-0.049559294
-0.047542174
-0.045418888
-0.04321136
-0.040941596
-0.03863125
-0.036301253
-0.03397148
-0.031660473
-0.029385196
-0.027160852
-0.025000759
-0.022916266
-0.020916739
-0.01900958
-0.017200294
-0.015492592
-0.013888523
-0.012388624
-0.010992089
-0.0096969421
-0.0085002086
-0.0073980752
-0.0063860263
-0.0054589341
-0.0046110811
-0.0038361499
-0.0031264315
-0.0024751719
-0.0018619547
-0.001313362
-0.00064488994
-0.00057445878
-0.046612676
-0.047641434
-0.048733626
-0.049957524
-0.051027368
-0.051848153
-0.052455438
-0.052872931
-0.053091657
-0.053099434
-0.05289363
-0.052477295
-0.051855057
-0.051033024
-0.050019719
-0.048826226
-0.047465818
-0.045953579
-0.044306132
-0.042541345
-0.040677974
-0.038735302
-0.036732772
-0.03468961
-0.032624492
-0.030555231
-0.028498517
-0.026469686
-0.024482542
-0.022549231
-0.02068016
-0.018883967
-0.017167528
-0.015536014
-0.013992973
-0.012540439
-0.011179065
-0.0099082646
-0.0087263585
-0.0076307118
-0.0066178538
-0.005683564
-0.0048228692
-0.0040301114
-0.0032980454
-0.0026206327
-0.0019784491
-0.0013979081
-0.00071053883
-0.00056885947
-0.039516486
-0.040580678
-0.041702142
-0.042936778
-0.044050748
-0.044963677
-0.045701661
-0.046281697
-0.046694038
-0.04692596
-0.046972398
-0.046833005
-0.046508868
-0.046002442
-0.045318371
-0.04446369
-0.043447578
-0.042281099
-0.040977009
-0.039549537
-0.038014107
-0.036387025
-0.034685152
-0.032925584
-0.031125317
-0.029300945
-0.027468371
-0.025642563
-0.02383734
-0.022065198
-0.020337186
-0.018662823
-0.017050059
-0.015505271
-0.014033307
-0.012637543
-0.011319984
-0.010081362
-0.0089212558
-0.0078382047
-0.0068298051
-0.0058927874
-0.0050230027
-0.004215522
-0.0034637683
-0.0027623164
-0.0020934915
-0.0014815875
-0.00077742726
-0.00055874232
-0.033146475
-0.034210363
-0.035326803
-0.036541551
-0.037663987
-0.03862666
-0.039448617
-0.040141853
-0.040696487
-0.041099869
-0.041345394
-0.04143028
-0.04135294
-0.041112953
-0.040711789
-0.040153045
-0.039442306
-0.03858699
-0.037596232
-0.036480742
-0.035252604
-0.033925032
-0.032512101
-0.031028467
-0.029489079
-0.027908888
-0.026302565
-0.024684246
-0.023067302
-0.021464137
-0.019886024
-0.018342987
-0.016843705
-0.015395478
-0.014004205
-0.012674415
-0.011409308
-0.010210828
-0.0090797446
-0.008015735
-0.0070174605
-0.0060826281
-0.0052079715
-0.0043893568
-0.0036210127
-0.00289812
-0.0022050075
-0.0015631927
-0.00084188429
-0.0005497514
-0.027451054
-0.028489911
-0.029577247
-0.030750484
-0.031854924
-0.032834443
-0.033702895
-0.034468629
-0.035122119
-0.035651285
-0.036048739
-0.036310109
-0.036431942
-0.036411707
-0.036248422
-0.035942915
-0.035497765
-0.034917233
-0.034207215
-0.033375171
-0.032429998
-0.031381855
-0.030241966
-0.029022389
-0.027735773
-0.026395111
-0.025013475
-0.023603769
-0.022178496
-0.020749543
-0.019328
-0.017924
-0.016546601
-0.015203697
-0.013901966
-0.012646848
-0.011442554
-0.010292093
-0.0091973183
-0.0081589785
-0.0071767699
-0.0062493769
-0.0053744499
-0.0045487027
-0.0037672524
-0.0030259285
-0.0023110116
-0.0016414152
-0.00090169308
-0.00054499439
-0.022378503
-0.023376265
-0.024418643
-0.02553618
-0.026604015
-0.02757587
-0.028461794
-0.029267519
-0.029984218
-0.030600731
-0.031109483
-0.031505212
-0.031783304
-0.031939809
-0.031971988
-0.031878562
-0.031659729
-0.031317145
-0.030853942
-0.03027471
-0.029585439
-0.028793414
-0.027907081
-0.026935874
-0.025890032
-0.024780387
-0.023618149
-0.02241467
-0.021181233
-0.019928834
-0.01866799
-0.017408569
-0.016159642
-0.014929364
-0.013724888
-0.012552303
-0.011416604
-0.010321682
-0.0092703337
-0.0082642809
-0.0073041917
-0.0063897015
-0.0055193829
-0.0046908281
-0.0039000833
-0.0031436853
-0.0024096776
-0.0017149546
-0.00095586223
-0.00054523157
-0.017878828
-0.018826093
-0.019814119
-0.020867713
-0.021886812
-0.022833635
-0.02371544
-0.024536091
-0.025287667
-0.025960145
-0.026546193
-0.027040204
-0.027436975
-0.02773173
-0.027920581
-0.028000768
-0.027970705
-0.027830018
-0.027579587
-0.027221585
-0.026759473
-0.026197947
-0.025542867
-0.024801149
-0.023980632
-0.023089915
-0.022138188
-0.02113504
-0.020090258
-0.019013639
-0.017914795
-0.016802982
-0.015686938
-0.014574747
-0.013473724
-0.012390324
-0.011330079
-0.01029755
-0.0092963047
-0.0083289048
-0.0073968966
-0.0065008097
-0.0056401146
-0.0048132859
-0.0040173066
-0.0032494729
-0.0024993813
-0.0017825958
-0.0010041722
-0.00054958677
-0.01390484
-0.014797229
-0.015726471
-0.016712538
-0.017675993
-0.018586347
-0.019448788
-0.02026585
-0.021030601
-0.021734259
-0.022370018
-0.022932317
-0.0234158
-0.023815336
-0.024126397
-0.024345278
-0.024469162
-0.02449618
-0.024425481
-0.024257301
-0.023992992
-0.023635026
-0.023186966
-0.022653414
-0.02203993
-0.021352927
-0.020599535
-0.019787464
-0.018924837
-0.018020023
-0.017081465
-0.016117511
-0.015136263
-0.014145421
-0.01315216
-0.012163016
-0.011183796
-0.0102195
-0.0092742727
-0.0083513527
-0.0074530426
-0.0065806788
-0.0057345751
-0.0049140638
-0.0041170464
-0.0033416122
-0.0025787365
-0.0018432619
-0.0010467166
-0.0005564285
-0.010413597
-0.011250363
-0.012120051
-0.013038498
-0.013943444
-0.014810628
-0.015643681
-0.01644417
-0.017206157
-0.017922108
-0.018585903
-0.019192288
-0.019736057
-0.020212073
-0.020615565
-0.020942322
-0.021188762
-0.021352
-0.021429938
-0.021421336
-0.02132588
-0.021144212
-0.020877942
-0.020529641
-0.020102804
-0.019601792
-0.019031745
-0.018398488
-0.017708402
-0.016968297
-0.016185259
-0.015366511
-0.01451926
-0.013650557
-0.012767161
-0.011875418
-0.010981152
-0.010089568
-0.0092051733
-0.0083317071
-0.0074720801
-0.0066283222
-0.0058015079
-0.0049917753
-0.0041979028
-0.0034187836
-0.0026466449
-0.0018960611
-0.0010836039
-0.00056409364
-0.0073664395
-0.0081495468
-0.0089616824
-0.0098151151
-0.010661895
-0.011483053
-0.012281023
-0.013056648
-0.013804928
-0.014519513
-0.015195038
-0.015826702
-0.016409645
-0.016938957
-0.017409912
-0.017818127
-0.018159626
-0.018430912
-0.018629052
-0.018751759
-0.018797469
-0.018765392
-0.018655554
-0.018468817
-0.018206886
-0.017872284
-0.017468315
-0.016999002
-0.016469008
-0.01588354
-0.015248238
-0.014569051
-0.013852112
-0.013103611
-0.012329662
-0.011536184
-0.010728781
-0.0099126337
-0.0090924039
-0.0082721419
-0.0074552048
-0.0066441822
-0.005840804
-0.0050459364
-0.0042591738
-0.003480197
-0.0027023926
-0.0019403604
-0.0011148746
-0.00057129561
-0.0047302872
-0.005463325
-0.0062216532
-0.0070144086
-0.0078055497
-0.0085805871
-0.0093410144
-0.010087114
-0.010814725
-0.011518583
-0.012194069
-0.012836901
-0.013442667
-0.014006825
-0.014524881
-0.014992513
-0.015405629
-0.015760431
-0.016053492
-0.016281838
-0.016443025
-0.016535202
-0.016557167
-0.016508413
-0.016389153
-0.016200336
-0.015943641
-0.015621451
-0.015236813
-0.014793376
-0.014295322
-0.013747268
-0.013154169
-0.012521209
-0.011853689
-0.011156907
-0.010436048
-0.0096960675
-0.0089415838
-0.0081767751
-0.0074052791
-0.006630101
-0.0058535051
-0.0050769886
-0.0043008831
-0.0035256159
-0.0027456542
-0.0019757875
-0.0011405017
-0.00057720164
-0.0024792977
-0.0031674981
-0.0038774285
-0.0046155652
-0.0053557066
-0.0060871002
-0.0068104846
-0.0075256931
-0.0082292899
-0.008916964
-0.0095847887
-0.010229005
-0.01084568
-0.011430704
-0.011979918
-0.01248921
-0.012954559
-0.013372091
-0.013738145
-0.014049348
-0.014302686
-0.014495569
-0.014625897
-0.014692111
-0.014693245
-0.014628958
-0.014499552
-0.014305985
-0.014049855
-0.013733378
-0.013359344
-0.012931061
-0.012452286
-0.011927134
-0.011359991
-0.010755414
-0.010118017
-0.0094523713
-0.0087628875
-0.008053708
-0.0073285958
-0.0065908284
-0.005843076
-0.0050873573
-0.004324646
-0.0035560509
-0.0027770352
-0.0020026497
-0.0011607685
-0.00058153369
-0.00058818087
-0.0012368931
-0.0019041784
-0.0025941262
-0.003288608
-0.0039799837
-0.0046683846
-0.0053532702
-0.0060318079
-0.0067004961
-0.0073560202
-0.0079951047
-0.0086142782
-0.0092098683
-0.009778092
-0.010315119
-0.010817111
-0.011280262
-0.01170086
-0.012075342
-0.012400362
-0.012672854
-0.012890094
-0.01304976
-0.013149991
-0.013189431
-0.013167271
-0.013083278
-0.012937811
-0.012731823
-0.012466851
-0.012144984
-0.011768825
-0.011341432
-0.010866247
-0.010347019
-0.0097877081
-0.0091923879
-0.0085651378
-0.0079099317
-0.007230523
-0.0065303295
-0.0058123024
-0.0050788669
-0.0043315333
-0.003572008
-0.0027966521
-0.0020207837
-0.0011754075
-0.00058387359
0.00093951397
0.00032299245
-0.00030917248
-0.00095931932
-0.0016157195
-0.0022731708
-0.0029313096
-0.0035892968
-0.0042447839
-0.0048949246
-0.0055369118
-0.0061678849
-0.0067847796
-0.0073843235
-0.0079630932
-0.008517557
-0.0090441036
-0.0095390763
-0.0099988165
-0.010419715
-0.010798268
-0.01113113
-0.011415178
-0.01164757
-0.011825803
-0.01194777
-0.012011812
-0.01201676
-0.011961974
-0.011847363
-0.011673399
-0.011441113
-0.011152084
-0.010808405
-0.010412636
-0.0099677427
-0.009477022
-0.0089440167
-0.0083724157
-0.0077659472
-0.0071282631
-0.0064628203
-0.0057727442
-0.0050607582
-0.0043288001
-0.0035790734
-0.0028087194
-0.0020332823
-0.0011865926
-0.00058534587
0.0021466383
0.0015566349
0.00095324659
0.00033574792
-0.00028911754
-0.0009180912
-0.0015504291
-0.0021850445
-0.0028199554
-0.003452826
-0.0040812522
-0.0047027087
-0.0053144667
-0.005913591
-0.0064969723
-0.0070613535
-0.0076033507
-0.0081194798
-0.0086061901
-0.0090599062
-0.009477073