/*--------------------------------*- C++ -*----------------------------------*\
  =========                 |
  \\      /  F ield         | OpenFOAM: The Open Source CFD Toolbox
   \\    /   O peration     | Website:  https://openfoam.org
    \\  /    A nd           | Version:  6
     \\/     M anipulation  |
\*---------------------------------------------------------------------------*/
FoamFile
{
    version     2.0;
    format      ascii;
    class       volVectorField;
    location    "202";
    object      U;
}
// * * * * * * * * * * * * * * * * * * * * * * * * * * * * * * * * * * * * * //

dimensions      [0 1 -1 0 0 0 0];

internalField   nonuniform List<vector> 
9200
(
(0.0010393465 0.0014199821 -5.9201841e-20)
(0.013676068 -0.0020583673 4.6042534e-20)
(0.03831317 -0.0058665691 -3.8501735e-20)
(0.072274442 -0.0097635067 -6.025775e-20)
(0.11376475 -0.013490031 1.8826963e-20)
(0.1615809 -0.01660566 3.2743878e-20)
(0.2146715 -0.018817288 -1.2268007e-20)
(0.27206609 -0.019973894 9.2688607e-21)
(0.33285624 -0.020011226 1.6803426e-20)
(0.3961635 -0.018929055 1.4848071e-21)
(0.46111559 -0.016779819 -2.1456335e-20)
(0.5268369 -0.013657735 2.0670001e-20)
(0.59245071 -0.0096880013 -4.0422138e-20)
(0.65709134 -0.005015779 -2.1133897e-20)
(0.71992475 0.00020555963 5.9046514e-21)
(0.78017505 0.0058240939 -2.5131669e-20)
(0.83717063 0.011712812 2.5217108e-20)
(0.8904688 0.017918512 2.2243198e-20)
(0.93967075 0.024573411 -2.9929586e-22)
(0.9820519 0.02829338 -1.6691863e-21)
(0.0052521809 -0.0013462732 -1.7059353e-20)
(0.026962503 -0.008989027 3.9747711e-20)
(0.06167012 -0.014809765 2.3576295e-20)
(0.1062949 -0.01917227 -1.1569758e-19)
(0.15873566 -0.022213997 -1.2727088e-20)
(0.21753353 -0.023720685 7.3297079e-20)
(0.28137297 -0.023595096 -3.5476399e-20)
(0.34900603 -0.021868964 -8.3905567e-21)
(0.41923922 -0.018645523 3.4287539e-20)
(0.49090946 -0.01408084 -4.3259577e-20)
(0.56287234 -0.0083759491 -3.0338479e-20)
(0.6340085 -0.0017665924 7.1921427e-20)
(0.70324333 0.0054883968 3.8294042e-20)
(0.76957585 0.013118635 -6.7976546e-20)
(0.83211249 0.020852085 1.4623689e-20)
(0.8901004 0.028419707 -3.6733396e-20)
(0.9429692 0.035569674 -1.3777195e-20)
(0.99043234 0.042140885 7.0974786e-20)
(1.0323561 0.047715306 2.9641976e-20)
(1.0669348 0.049139685 -8.3478334e-20)
(0.010858427 -0.0040424161 3.6773457e-20)
(0.043953416 -0.015431078 2.5047358e-21)
(0.09051544 -0.022552283 2.234171e-20)
(0.1471114 -0.026497359 9.8116825e-22)
(0.21134255 -0.027886298 -4.0773936e-20)
(0.28146769 -0.026795115 1.8576404e-20)
(0.35587042 -0.023382729 1.3420299e-20)
(0.43299009 -0.017921538 -5.0327703e-20)
(0.51132479 -0.010735651 5.7261857e-20)
(0.58942616 -0.0021838814 1.4256688e-20)
(0.66590919 0.007347904 -5.4300708e-20)
(0.73948039 0.017460261 -1.8237402e-20)
(0.80897601 0.027756559 9.0591588e-21)
(0.87340267 0.037859267 2.3444734e-20)
(0.93197365 0.047424038 -1.1362504e-20)
(0.98413371 0.056148965 2.7877724e-20)
(1.029574 0.063789164 -2.0188244e-20)
(1.0682646 0.07020438 -7.0123576e-20)
(1.1003322 0.075119365 -2.3796248e-20)
(1.1249112 0.076641223 4.865976e-20)
(0.017957215 -0.0064221637 2.4508015e-20)
(0.064776999 -0.0206948 5.1039225e-20)
(0.12485229 -0.028060848 1.9881695e-20)
(0.19446967 -0.030464067 1.2990097e-20)
(0.27094933 -0.029094843 1.7275704e-20)
(0.35224881 -0.02438898 -4.7720172e-20)
(0.43643141 -0.016825974 -2.5646856e-20)
(0.5216201 -0.006976672 0)
(0.60602898 0.00456703 1.3920617e-20)
(0.68798709 0.017211729 -5.8523398e-21)
(0.76597521 0.030373918 -9.7934942e-20)
(0.8386745 0.043499628 -1.5774816e-20)
(0.90501529 0.056086611 6.5103194e-20)
(0.96421573 0.067704128 4.8442533e-22)
(1.0158035 0.078007707 -1.5725563e-21)
(1.0596155 0.086746783 2.1957491e-20)
(1.0957773 0.093772217 -5.2647198e-21)
(1.12468 0.099065322 -6.1029713e-20)
(1.1468647 0.10259707 -4.585117e-20)
(1.1622957 0.10341384 6.9520411e-20)
(0.026579421 -0.0082056885 -3.9194202e-21)
(0.089344025 -0.024033507 -5.1256314e-21)
(0.16430755 -0.030264989 5.659941e-20)
(0.24758121 -0.02981002 1.8539325e-20)
(0.33624162 -0.024513029 -3.1955068e-20)
(0.42795127 -0.015239861 1.2163839e-20)
(0.52047264 -0.002851364 2.6402863e-21)
(0.6116636 0.011737094 3.360917e-20)
(0.69954714 0.02764014 5.6599505e-21)
(0.7823684 0.044028767 -1.320474e-20)
(0.85865409 0.060147721 6.0154037e-20)
(0.92726914 0.075340467 -5.8009354e-20)
(0.98745679 0.089072856 -1.3216612e-19)
(1.0388531 0.10094901 -5.577303e-21)
(1.0814725 0.11071708 8.3150761e-20)
(1.1156656 0.11826404 0)
(1.1420548 0.12360582 1.0118954e-20)
(1.1614669 0.12689055 -1.5459769e-20)
(1.1748179 0.12829869 -8.5994534e-21)
(1.1826673 0.12744915 2.0992222e-20)
(0.036666911 -0.00908958 -5.4309126e-21)
(0.11731511 -0.024685358 4.3578746e-21)
(0.20811869 -0.028140179 -8.7629841e-21)
(0.30515703 -0.023414955 2.8472395e-20)
(0.40533541 -0.013075592 -2.9392665e-20)
(0.50607149 0.0015226146 -1.6927024e-20)
(0.60490493 0.019095139 3.7364233e-20)
(0.69954962 0.038365253 4.7595453e-21)
(0.78800395 0.058167644 -2.4436058e-20)
(0.86863409 0.077483002 6.9867559e-20)
(0.94023976 0.09545864 5.2393815e-22)
(1.0020956 0.11143156 -8.0444316e-20)
(1.0539569 0.1249429 0)
(1.0960273 0.13573749 3.9542117e-20)
(1.1288922 0.14374842 5.5236011e-21)
(1.1534278 0.14906892 -7.7566398e-20)
(1.1706991 0.15191913 -1.9586919e-20)
(1.1818623 0.15262367 -1.2467633e-20)
(1.1880592 0.15152605 -1.4709393e-20)
(1.190146 0.14858492 4.0420536e-20)
(0.048058871 -0.0087674055 -1.7277959e-20)
(0.14808311 -0.021931994 -2.2198273e-21)
(0.25514071 -0.020797835 3.0380505e-20)
(0.36546386 -0.010412794 3.748431e-20)
(0.47590423 0.005901588 -1.9944734e-20)
(0.58374269 0.026269307 -6.9163033e-20)
(0.68644188 0.048977209 -2.7995797e-20)
(0.78176206 0.072417788 7.8929212e-20)
(0.86790199 0.095212477 8.5778138e-21)
(0.94358919 0.11624961 -2.4873483e-20)
(1.0081259 0.13469827 1.3642212e-20)
(1.0613871 0.15001555 -4.3194495e-21)
(1.1037693 0.16193659 0)
(1.1360975 0.17044427 2.7203483e-20)
(1.1595046 0.17572308 -7.9322414e-20)
(1.1753021 0.17810369 -3.1475528e-20)
(1.184857 0.17800812 8.1054574e-20)
(1.1894921 0.17590944 -4.2969812e-21)
(1.1904029 0.17225557 3.5561079e-21)
(1.188508 0.16719297 2.7111588e-20)
(0.060485253 -0.0069573643 -3.2414616e-20)
(0.18077773 -0.015170381 -8.1624321e-20)
(0.3038893 -0.0075835273 2.5797758e-21)
(0.42642558 0.0097033562 7.0161812e-20)
(0.54535151 0.032631554 6.2424378e-20)
(0.65798103 0.058820043 -7.1574524e-20)
(0.76190886 0.086176508 -2.8275146e-22)
(0.85518294 0.11285231 8.552255e-20)
(0.93645349 0.13737837 4.8828071e-20)
(1.0050415 0.1586937 -5.4218409e-20)
(1.0609356 0.17613563 -9.2334217e-20)
(1.1047243 0.18941354 -3.1589827e-21)
(1.1374759 0.19855943 4.2127867e-20)
(1.1605874 0.20385856 -6.6056282e-21)
(1.1756247 0.20577019 -1.2868787e-20)
(1.1841777 0.20484918 1.9690809e-20)
(1.1877427 0.20167896 4.3880618e-20)
(1.1876453 0.19682587 -4.3859434e-20)
(1.1849954 0.19077883 -1.0232203e-19)
(1.180625 0.18377379 2.4566891e-20)
(0.073537219 -0.0034329737 -3.4979751e-20)
(0.21422688 -0.0039890259 -1.7388612e-19)
(0.35251658 0.011839376 8.2103243e-20)
(0.485628 0.037018337 9.2767518e-20)
(0.61085382 0.066835553 5.7970569e-20)
(0.72576729 0.098481179 8.6107097e-21)
(0.82834805 0.12959696 -1.062401e-19)
(0.91719001 0.15824269 0)
(0.99162747 0.18302814 -6.874859e-20)
(1.0517521 0.20311206 -1.520241e-20)
(1.0983384 0.2181486 5.4703467e-20)
(1.1327008 0.22821082 1.097338e-20)
(1.156511 0.2336926 -4.5613855e-20)
(1.1716068 0.23519946 -4.9081363e-20)
(1.1798204 0.23344335 2.4287681e-20)
(1.182845 0.22915323 4.4822892e-20)
(1.1821489 0.22300985 -5.5600409e-20)
(1.178936 0.21560822 -1.0751122e-19)
(1.1741469 0.20742223 -3.1513619e-21)
(1.1684567 0.1987188 2.7046401e-20)
(0.08665045 0.001961386 -3.5448992e-21)
(0.2469602 0.011816634 8.7913243e-20)
(0.39884741 0.03749231 -1.6479247e-20)
(0.54040467 0.071218383 -8.430915e-20)
(0.66949905 0.10778893 4.5164372e-20)
(0.78421955 0.14411544 4.9175456e-20)
(0.88318943 0.17775669 5.5356783e-21)
(0.96577873 0.2068849 -9.9502493e-20)
(1.0321763 0.23038802 -2.5048781e-21)
(1.0833328 0.24781553 5.0503544e-20)
(1.120807 0.25926301 5.9854758e-21)
(1.1465558 0.26523619 -1.9717208e-20)
(1.1627107 0.26650533 -7.570463e-20)
(1.1713765 0.26396622 -6.2554021e-21)
(1.1744762 0.25852429 4.3533354e-20)
(1.1736548 0.25101088 3.7022013e-20)
(1.1702383 0.24213394 1.9793441e-20)
(1.1652403 0.23245874 -5.2994842e-20)
(1.1594014 0.22240417 1.295745e-20)
(1.1532252 0.21223799 8.2659096e-20)
(-0.0012932615 0.0014346599 -1.1234448e-21)
(-0.0047459605 0.003187415 2.0646969e-21)
(-0.010771359 0.0041359043 8.7949991e-22)
(-0.017754288 0.0045395362 -2.4411029e-21)
(-0.024740318 0.0045654168 -1.4114821e-21)
(-0.031299594 0.0043260387 1.5460004e-21)
(-0.037161328 0.0039035383 -6.8700804e-21)
(-0.042147443 0.0033577219 -5.9573026e-21)
(-0.046157777 0.0027313813 1.1171997e-20)
(-0.049146191 0.0020548306 -9.7427482e-21)
(-0.051100655 0.0013493005 -1.9832972e-22)
(-0.052030444 0.00062942193 3.6673446e-21)
(-0.051957738 -9.4889504e-05 -6.3295549e-22)
(-0.050911882 -0.00081693045 2.2818743e-20)
(-0.048925779 -0.0015318448 3.0401045e-22)
(-0.046035342 -0.0022351741 -4.0882871e-20)
(-0.042281798 -0.0029222682 7.5385622e-21)
(-0.037703443 -0.0035910388 2.386411e-20)
(-0.032308694 -0.0042399868 -4.3852374e-20)
(-0.026156964 -0.0048211135 -2.7739204e-20)
(-0.0016522 0.0041808665 -5.371603e-21)
(-0.0053974813 0.0092681385 1.0865439e-20)
(-0.01121851 0.012007444 -1.0191543e-20)
(-0.017658026 0.013153764 3.9229737e-21)
(-0.023856433 0.013195413 4.8121431e-21)
(-0.029433318 0.012462725 7.1324173e-22)
(-0.034152321 0.011197014 -2.2509487e-20)
(-0.037860378 0.0095738971 -2.0370241e-21)
(-0.040474299 0.0077189874 2.0163539e-20)
(-0.041958922 0.0057212305 -5.0473597e-21)
(-0.04230895 0.0036428645 -2.1762588e-20)
(-0.041537337 0.0015267126 4.8973166e-21)
(-0.039667713 -0.00059830562 2.2635419e-20)
(-0.036729082 -0.0027127612 1.030839e-20)
(-0.032752034 -0.0048026895 2.1854284e-20)
(-0.027769171 -0.0068555089 -1.9770727e-20)
(-0.021824796 -0.0088582202 -2.1672943e-20)
(-0.014966272 -0.010804225 2.1184617e-20)
(-0.007129019 -0.012679002 2.6810364e-20)
(0.0018742933 -0.014317224 1.5854764e-20)
(-0.0023034293 0.0065602329 -4.3568691e-21)
(-0.006539224 0.014480196 -5.6387549e-21)
(-0.011892132 0.018710544 3.0723949e-22)
(-0.017211099 0.020428181 1.0959886e-21)
(-0.021819142 0.020400324 6.6918404e-21)
(-0.025431041 0.019151666 1.0665169e-20)
(-0.027877232 0.017066288 -3.7227633e-21)
(-0.029053269 0.014423783 -1.8896165e-20)
(-0.028909037 0.011424352 6.5413169e-21)
(-0.02743105 0.0082099049 1.2862569e-20)
(-0.024627714 0.0048797758 5.8340856e-21)
(-0.020520109 0.0015022382 1.8159104e-20)
(-0.015135986 -0.0018768638 1.7295914e-21)
(-0.0085053994 -0.0052272485 -3.3864526e-20)
(-0.00065689376 -0.0085276109 1.2020175e-21)
(0.0083810157 -0.01175911 -2.2139209e-20)
(0.018556865 -0.014904097 -2.4466302e-20)
(0.029802178 -0.017953754 4.5819709e-20)
(0.042304961 -0.020855118 2.5349346e-20)
(0.056738567 -0.023247767 1.2239283e-22)
(-0.0031290277 0.0083689703 -5.2833072e-21)
(-0.007896399 0.018336513 -8.4815269e-21)
(-0.012438986 0.023587809 4.3593049e-21)
(-0.016026535 0.025609659 4.1463451e-21)
(-0.018235024 0.025382746 2.0105708e-21)
(-0.018912651 0.023589322 7.3209949e-21)
(-0.017984717 0.020730273 9.3124771e-21)
(-0.01541671 0.017170378 -1.3511351e-21)
(-0.011207048 0.013171314 -1.1481945e-20)
(-0.0053752344 0.0089189313 -2.9071876e-20)
(0.0020481099 0.0045434367 6.1892617e-23)
(0.011026506 0.00013431033 4.0697818e-20)
(0.021522221 -0.0042489518 -1.838317e-20)
(0.033497846 -0.0085675859 -1.2296087e-20)
(0.046920506 -0.012795547 5.5348917e-22)
(0.061760088 -0.016911856 3.2302643e-20)
(0.077953005 -0.020901671 -1.4829543e-20)
(0.095392254 -0.024763377 -5.333918e-20)
(0.11439844 -0.028379719 4.5765006e-20)
(0.13634537 -0.031073097 3.3013171e-20)
(-0.0039704097 0.0094657326 -6.8788996e-22)
(-0.0090916582 0.020487792 -1.253474e-20)
(-0.012364471 0.026159087 -3.4144534e-20)
(-0.01355254 0.028143339 -5.7241616e-21)
(-0.01253324 0.027555007 -3.6222744e-21)
(-0.0093167245 0.025188064 6.3051031e-21)
(-0.0039456449 0.021627412 -4.6461953e-21)
(0.003526128 0.01729896 -8.807026e-21)
(0.013036821 0.012508752 2.1899708e-20)
(0.024521242 0.0074744423 5.0567067e-21)
(0.037915538 0.0023489034 -2.5290293e-20)
(0.053157445 -0.002762785 1.1078277e-20)
(0.070186867 -0.0077908758 0)
(0.088946581 -0.012691305 1.2089575e-20)
(0.10938544 -0.017436921 -9.7016172e-21)
(0.13145741 -0.022009899 -1.4337119e-20)
(0.15507407 -0.026408648 -1.573893e-21)
(0.1800676 -0.030659423 -2.218156e-21)
(0.20685342 -0.034576537 4.6147064e-20)
(0.23766359 -0.037019871 -1.047013e-20)
(-0.004645098 0.0097808626 -7.5356679e-21)
(-0.009677251 0.02074788 2.45164e-20)
(-0.011064381 0.026160978 -1.0499346e-20)
(-0.0090968326 0.027724445 -2.746928e-20)
(-0.0039797207 0.026601695 -2.7548146e-20)
(0.0040961831 0.023648409 -1.4921568e-20)
(0.01495415 0.019496457 -6.9059587e-22)
(0.028436236 0.014604705 5.5499778e-21)
(0.044403148 0.0093034463 1.9615877e-20)
(0.062730498 0.0038284149 7.3530849e-21)
(0.083304318 -0.001654756 -7.1862206e-21)
(0.10601898 -0.0070322398 -2.0102305e-21)
(0.13077357 -0.012229099 -3.8191707e-20)
(0.15746944 -0.017199754 -1.2693644e-20)
(0.186012 -0.021919737 1.8750606e-20)
(0.21631178 -0.02637972 -2.1021672e-20)
(0.24823224 -0.030602226 -8.9730563e-21)
(0.28151868 -0.034670611 3.044046e-20)
(0.31660705 -0.038364823 5.0472073e-20)
(0.35665017 -0.039964104 3.3559668e-21)
(-0.0049617685 0.009313999 1.6783304e-20)
(-0.0091662694 0.01909771 1.4467938e-20)
(-0.0078593649 0.023563367 5.1145486e-20)
(-0.0018585392 0.024328944 2.3387981e-20)
(0.0082957236 0.022523784 1.8251773e-22)
(0.022221941 0.019014385 -3.9388453e-20)
(0.039597443 0.014440936 -2.4313858e-20)
(0.060147906 0.0092663592 1.0465817e-20)
(0.083639118 0.0038232275 1.4401586e-20)
(0.10986669 -0.0016513001 -1.311371e-20)
(0.13864563 -0.0069910108 -4.4038711e-20)
(0.16980171 -0.012082849 2.9618496e-20)
(0.20316405 -0.016854161 2.0020549e-20)
(0.23855946 -0.021263997 -2.7551153e-20)
(0.27581231 -0.025296405 1.1650134e-20)
(0.31474812 -0.02895717 2.4197609e-20)
(0.35514547 -0.032303055 8.0723932e-21)
(0.39663389 -0.03550668 -1.176421e-20)
(0.43957703 -0.038392645 -1.4190296e-20)
(0.48798512 -0.038634405 5.8727579e-21)
(-0.0047307763 0.0081236735 1.1093845e-20)
(-0.0070586005 0.015671176 -2.3352719e-20)
(-0.0020293657 0.018562033 8.6200544e-21)
(0.0090325208 0.018216225 3.3587965e-20)
(0.025256363 0.01565115 5.2124336e-20)
(0.04606634 0.011695603 2.0276509e-20)
(0.070984526 0.0069609521 -5.8639351e-21)
(0.099601952 0.0018829508 -1.2286283e-20)
(0.13156895 -0.0032271989 -6.2057463e-21)
(0.16657568 -0.0081496585 3.4240832e-20)
(0.20433425 -0.012733321 -4.5104381e-21)
(0.24456485 -0.016879188 -1.6643299e-20)
(0.2869847 -0.020528687 -1.969357e-20)
(0.33129999 -0.023656413 -4.7443731e-20)
(0.3772046 -0.026265533 2.3238699e-20)
(0.42438771 -0.028387861 -1.4095981e-20)
(0.47249975 -0.03012762 2.5993395e-20)
(0.52103619 -0.031783188 2.104082e-20)
(0.57021397 -0.033350676 -8.5570371e-20)
(0.62470919 -0.032058837 -1.0807401e-22)
(-0.003771052 0.0063146396 2.1925055e-20)
(-0.0028657663 0.010735096 -2.6165529e-20)
(0.0071421052 0.011564137 -4.5013293e-20)
(0.024450234 0.00992499 -2.725378e-20)
(0.047870853 0.0066523061 -2.0439868e-21)
(0.076628706 0.0024906171 1.3050095e-20)
(0.11007673 -0.0020153954 -2.8337699e-21)
(0.14765206 -0.0064879043 1.8118536e-20)
(0.18886096 -0.010663504 8.8685611e-21)
(0.23325196 -0.014362421 -1.1380171e-20)
(0.2803915 -0.017468949 8.8779119e-21)
(0.32984604 -0.019916805 -2.3903264e-20)
(0.38116882 -0.021678697 8.0504772e-21)
(0.43389086 -0.022759873 1.6756388e-20)
(0.48751937 -0.023194299 -2.6395135e-21)
(0.54154718 -0.023046889 1.661898e-21)
(0.59543548 -0.022469442 -3.1957655e-22)
(0.64851786 -0.0218701 1.9590418e-20)
(0.70082242 -0.021445057 4.0434004e-21)
(0.75745153 -0.018499076 -5.7334212e-22)
(-0.0019110144 0.0040273483 2.3692112e-20)
(0.0038694303 0.0046765205 5.7159959e-20)
(0.020315311 0.0031879648 -4.9244223e-20)
(0.045178286 0.00029442649 -9.9454146e-21)
(0.076965154 -0.0034241515 2.0256345e-20)
(0.11469623 -0.0073535856 2.1433717e-21)
(0.15753883 -0.011054956 -2.9815161e-20)
(0.20474832 -0.014244139 6.9848104e-21)
(0.25564951 -0.016737928 7.1097868e-21)
(0.30960474 -0.018426956 -2.6254075e-20)
(0.36598649 -0.019260097 1.2927324e-21)
(0.4241596 -0.019231865 -3.7174107e-20)
(0.48347103 -0.0183722 -3.6341008e-20)
(0.54324567 -0.016738274 6.5683467e-20)
(0.60278814 -0.014407299 5.5627474e-21)
(0.66138887 -0.011475895 -1.5188792e-20)
(0.71830787 -0.0081020416 1.9363962e-20)
(0.77269904 -0.0045928619 -9.188813e-22)
(0.82408838 -0.00096804442 2.0364576e-20)
(0.8762197 0.0043280726 -1.9554152e-20)
(-0.018836421 -0.0050997028 5.8352034e-20)
(-0.01022466 -0.005634926 1.5783667e-20)
(-0.00022120096 -0.0060688788 -3.513956e-20)
(0.010823218 -0.0063341081 1.6790231e-20)
(0.022642456 -0.0065120452 0)
(0.035177872 -0.0066300879 0)
(0.048369646 -0.0066909711 -2.2974936e-20)
(0.062138059 -0.0067025374 -1.6502859e-20)
(0.076412698 -0.0066741717 1.9122587e-20)
(0.091134056 -0.0066126631 1.8174025e-20)
(0.10624716 -0.0065232031 1.0524245e-21)
(0.1217002 -0.0064103553 -1.0317632e-20)
(0.13744488 -0.0062780784 8.3268777e-21)
(0.15343599 -0.0061297196 1.8233713e-20)
(0.16963075 -0.0059681423 -5.227416e-21)
(0.18598853 -0.0057958318 -1.0174933e-20)
(0.20247056 -0.0056149592 -4.3195864e-21)
(0.21903982 -0.0054274336 -4.425738e-21)
(0.23566088 -0.0052349471 7.3667184e-22)
(0.25229988 -0.0050390099 1.2286037e-21)
(0.26892447 -0.0048409772 2.5666304e-21)
(0.28550389 -0.0046420686 6.6539449e-21)
(0.30200893 -0.0044433834 2.4894443e-22)
(0.31841205 -0.0042459111 -3.4514694e-21)
(0.33468742 -0.0040505391 1.5558767e-22)
(0.35081097 -0.003858059 -5.7709771e-22)
(0.36676044 -0.0036691708 1.243436e-21)
(0.38251541 -0.003484487 1.0522434e-21)
(0.39805738 -0.003304536 -1.298793e-21)
(0.41336972 -0.0031297659 -1.2218735e-22)
(0.4284377 -0.0029605487 3.5749764e-23)
(0.44324846 -0.0027971845 -3.5187576e-22)
(0.45779101 -0.0026399063 -4.0565418e-22)
(0.47205616 -0.0024888853 5.5413245e-23)
(0.4860365 -0.002344237 -1.380903e-22)
(0.49972633 -0.0022060266 -2.2343151e-22)
(0.51312164 -0.0020742764 2.5571906e-22)
(0.52622008 -0.0019489721 2.950195e-22)
(0.53902084 -0.0018300718 -8.2714272e-24)
(0.55152504 -0.0017175101 -1.5517415e-22)
(0.56373465 -0.001611226 3.0406535e-23)
(0.57565626 -0.0015111192 -4.0144714e-23)
(0.58729004 -0.0014172608 9.2203827e-23)
(0.598665 -0.0013293143 2.1977064e-23)
(0.60973552 -0.0012485633 -1.1394619e-22)
(0.6206936 -0.0011717985 -6.761384e-24)
(0.63106162 -0.0011112501 -7.2346257e-26)
(0.6423502 -0.0010339538 -3.5613345e-24)
(0.65042818 -0.001050812 2.9453658e-23)
(0.66700918 -0.00087556695 3.6050851e-22)
(0.010445873 -0.015017611 -1.2746815e-20)
(0.018179702 -0.016641013 -6.3302335e-20)
(0.027779221 -0.017915415 -3.0541938e-20)
(0.038385152 -0.018672073 3.8476012e-20)
(0.049620995 -0.01918359 1.4662609e-20)
(0.061506638 -0.019529434 -1.8204928e-20)
(0.074012831 -0.019709867 4.6722075e-21)
(0.087062681 -0.019746494 2.5447182e-20)
(0.10059315 -0.019667283 9.198996e-23)
(0.11455403 -0.019491703 -7.6591248e-21)
(0.12889719 -0.019234362 -1.3021013e-20)
(0.14357603 -0.018908314 -8.5245308e-21)
(0.15854666 -0.018524975 1.7772334e-20)
(0.17376756 -0.018094003 8.9295461e-21)
(0.189199 -0.017623682 -1.6522437e-20)
(0.20480278 -0.017121234 -6.0390582e-21)
(0.22054215 -0.016592999 3.2145047e-21)
(0.23638177 -0.016044573 8.3716324e-21)
(0.25228755 -0.015480934 6.9832272e-21)
(0.26822675 -0.014906543 -6.9727164e-21)
(0.28416796 -0.014325416 -3.1685466e-21)
(0.30008113 -0.013741177 1.3605343e-21)
(0.31593768 -0.013157101 3.8682851e-22)
(0.33171057 -0.012576143 1.2113954e-21)
(0.34737432 -0.012000961 1.8368371e-22)
(0.36290516 -0.011433926 -3.2661642e-22)
(0.378281 -0.010877144 -7.2434881e-22)
(0.39348157 -0.010332456 9.7156627e-22)
(0.40848838 -0.0098014577 8.2482978e-22)
(0.42328478 -0.0092855045 -1.5147402e-22)
(0.43785594 -0.0087857252 5.530611e-22)
(0.45218886 -0.0083030342 -2.3880918e-22)
(0.46627233 -0.007838146 -3.7069932e-22)
(0.48009691 -0.007391591 -6.0999135e-22)
(0.49365488 -0.0069637323 4.4171747e-22)
(0.50694021 -0.0065547836 -1.5477883e-23)
(0.5199485 -0.0061648296 1.61248e-22)
(0.532677 -0.0057938455 -4.4174853e-22)
(0.54512446 -0.0054417244 3.7189655e-22)
(0.55729156 -0.0051082879 6.7175348e-23)
(0.56917978 -0.0047933714 -1.0285389e-22)
(0.58079521 -0.0044966908 1.7613804e-22)
(0.59213758 -0.0042184752 2.3339826e-22)
(0.60323516 -0.0039577349 1.6926642e-22)
(0.61404251 -0.0037183153 1.6767408e-22)
(0.62474875 -0.0034906611 -2.6098392e-23)
(0.63488265 -0.0033112215 8.4046134e-23)
(0.64593189 -0.0030818803 7.6294167e-23)
(0.65383033 -0.0031323708 -1.946679e-22)
(0.67009236 -0.0026124569 -3.8026299e-23)
(0.067614691 -0.024029147 9.4528295e-21)
(0.073589674 -0.026749051 3.2950959e-21)
(0.082265511 -0.02880557 -1.2162196e-20)
(0.091947824 -0.029968505 -1.2257936e-21)
(0.10198321 -0.030767865 1.4970589e-20)
(0.11254634 -0.031330893 -1.4887118e-20)
(0.12367597 -0.031636072 -2.9842272e-20)
(0.13529682 -0.031713007 1.4493523e-20)
(0.14735696 -0.031607637 1.8181965e-20)
(0.15982343 -0.031350057 -1.1598515e-20)
(0.17266061 -0.030961821 1.0190551e-21)
(0.18583083 -0.030462755 8.6860116e-21)
(0.19929785 -0.029870553 -1.5253542e-20)
(0.21302659 -0.02920024 2.9095152e-21)
(0.22698245 -0.028464762 7.5194353e-21)
(0.24113143 -0.027675506 3.1598436e-23)
(0.25544018 -0.02684256 2.6556375e-22)
(0.26987609 -0.025974898 -7.4150859e-21)
(0.28440736 -0.025080567 3.8616836e-21)
(0.29900303 -0.024166821 8.474905e-21)
(0.31363319 -0.023240236 -3.8351762e-21)
(0.32826898 -0.022306776 -2.2130365e-21)
(0.34288277 -0.021371858 1.0124437e-21)
(0.35744827 -0.020440389 -1.7155327e-21)
(0.37194057 -0.019516797 1.3532255e-21)
(0.38633627 -0.01860505 7.1845921e-22)
(0.40061358 -0.017708678 1.5268399e-21)
(0.41475233 -0.016830787 -1.9526628e-21)
(0.42873402 -0.015974073 2.2235695e-21)
(0.44254188 -0.015140837 5.5188565e-22)
(0.45616086 -0.014333009 4.0322675e-22)
(0.46957762 -0.013552164 3.2134475e-22)
(0.48278055 -0.012799544 8.7325125e-22)
(0.49575967 -0.01207609 -1.3708625e-21)
(0.5085067 -0.011382461 3.7065633e-22)
(0.52101495 -0.010719072 1.0941376e-22)
(0.5332793 -0.010086122 -4.5172572e-23)
(0.54529623 -0.0094836266 8.6732295e-23)
(0.5570637 -0.0089114659 -3.7185056e-22)
(0.5685815 -0.0083693997 1.8293576e-22)
(0.57985025 -0.007857209 -3.4987185e-23)
(0.59087509 -0.0073744755 3.9004488e-22)
(0.60165495 -0.0069216284 -1.8544588e-22)
(0.61221671 -0.0064970793 4.7323717e-23)
(0.62251524 -0.0061072169 4.3604188e-23)
(0.63273426 -0.0057363538 -7.3600537e-23)
(0.64241471 -0.0054444305 -1.2082779e-22)
(0.65300028 -0.0050705259 3.8809953e-22)
(0.66055034 -0.0051542745 1.7270806e-22)
(0.6761941 -0.0043070457 -8.3040137e-22)
(0.15021529 -0.031460431 1.5010097e-21)
(0.1535469 -0.035257396 -1.1566611e-20)
(0.16061623 -0.038010921 6.6441863e-21)
(0.16880591 -0.039479099 -1.3324731e-20)
(0.17698225 -0.040520691 -1.9758298e-21)
(0.18552347 -0.041302282 9.1599435e-21)
(0.19458421 -0.041757239 -9.7662108e-21)
(0.20408693 -0.041913713 1.5662878e-21)
(0.2139877 -0.041833333 1.2903798e-20)
(0.224276 -0.041554338 3.403201e-21)
(0.23493256 -0.041102047 -6.2096943e-21)
(0.24593023 -0.040500452 -2.8638119e-21)
(0.25724161 -0.039771752 -5.8409073e-21)
(0.26883914 -0.038935059 -6.4553133e-21)
(0.28069426 -0.038006979 3.235694e-21)
(0.29277766 -0.037002306 8.4621008e-22)
(0.30505978 -0.03593433 1.3679584e-21)
(0.31751103 -0.034815027 -3.3850418e-21)
(0.330102 -0.033655254 -4.2428863e-21)
(0.34280367 -0.032464901 2.361651e-21)
(0.35558762 -0.031253002 3.225136e-21)
(0.36842619 -0.030027821 -1.56362e-21)
(0.38129266 -0.028796908 1.586727e-21)
(0.3941614 -0.027567138 -3.9124018e-22)
(0.40700798 -0.02634475 -3.9196419e-21)
(0.41980931 -0.025135359 -3.033282e-21)
(0.43254371 -0.023943984 -1.9026317e-22)
(0.44519099 -0.022775057 4.2858904e-22)
(0.45773247 -0.021632449 -2.210604e-21)
(0.4701511 -0.020519486 -8.549728e-22)
(0.4824314 -0.019438974 2.2837658e-22)
(0.49455949 -0.01839323 -1.2498696e-21)
(0.50652309 -0.017384108 6.2626457e-24)
(0.5183115 -0.016413037 -4.2420958e-22)
(0.52991558 -0.015481059 -4.7193633e-22)
(0.54132771 -0.014588872 -5.1995859e-22)
(0.5525418 -0.01373687 -8.4133373e-22)
(0.56355326 -0.012925193 -5.4496047e-23)
(0.57435892 -0.012153789 -3.9160482e-24)
(0.58495742 -0.011422434 -5.1972543e-22)
(0.59534819 -0.010730932 -9.1606684e-23)
(0.60553508 -0.010078806 -3.3239582e-22)
(0.61551593 -0.0094667493 -4.3760315e-22)
(0.6253157 -0.0088926631 3.7842084e-22)
(0.63488981 -0.0083654325 1.4821117e-23)
(0.64441429 -0.0078636116 1.8237847e-22)
(0.65344759 -0.007469373 -1.3247016e-22)
(0.66337024 -0.0069629868 -2.6691581e-22)
(0.67042234 -0.0070791916 -4.4689306e-23)
(0.68517937 -0.005932732 4.6229748e-22)
(0.25468566 -0.036552756 -2.0900314e-20)
(0.2544702 -0.041393507 4.7585928e-20)
(0.25907332 -0.044745654 1.0348077e-20)
(0.26508411 -0.04644204 -1.5765306e-20)
(0.27070931 -0.047714312 -2.0227931e-21)
(0.27651993 -0.048747773 2.6232437e-21)
(0.28283547 -0.049413716 -1.6608048e-21)
(0.28957688 -0.049728096 -4.6861417e-21)
(0.29669655 -0.049761427 -4.0159139e-21)
(0.30420544 -0.049557049 -1.2207631e-20)
(0.31210215 -0.049141684 1.789776e-20)
(0.32036935 -0.0485408 6.5219909e-21)
(0.32898697 -0.047778963 -1.678053e-20)
(0.337934 -0.046878017 1.031758e-20)
(0.34718705 -0.045857299 8.3849907e-21)
(0.35672071 -0.044734312 -8.7923431e-22)
(0.36650842 -0.043525066 -3.1222217e-21)
(0.37652286 -0.042244247 -3.8197321e-21)
(0.38673638 -0.040905359 -1.3892578e-21)
(0.39712127 -0.039520852 -1.2304191e-21)
(0.40765006 -0.038102221 -3.0257608e-21)
(0.41829576 -0.03666007 0)
(0.42903211 -0.035204155 -1.3451914e-21)
(0.43983371 -0.033743423 3.9309513e-21)
(0.45067622 -0.032286029 5.4052673e-21)
(0.46153648 -0.030839356 -9.4112561e-22)
(0.47239258 -0.02941003 -2.9274447e-21)
(0.48322399 -0.028003937 3.0258398e-21)
(0.49401159 -0.026626247 2.54474e-22)
(0.50473773 -0.02528143 3.4352469e-21)
(0.51538625 -0.023973293 -5.3459749e-22)
(0.52594249 -0.022705011 1.7173475e-21)
(0.53639327 -0.021479167 -7.9964442e-22)
(0.54672693 -0.020297796 2.9094205e-22)
(0.55693325 -0.019162434 -4.3404014e-22)
(0.56700349 -0.01807417 5.6231682e-22)
(0.57693034 -0.017033706 4.5709955e-22)
(0.58670794 -0.016041409 3.8255671e-22)
(0.59633181 -0.015097397 -9.5936422e-22)
(0.60579923 -0.014201565 6.8355618e-22)
(0.61510825 -0.013353834 -3.6957474e-22)
(0.62426119 -0.012553763 -1.1033236e-21)
(0.63325465 -0.011802386 1.4078246e-21)
(0.64211134 -0.011097207 -6.2006084e-23)
(0.65078743 -0.010449532 -1.581612e-22)
(0.65944942 -0.0098326601 -7.8245473e-24)
(0.66767796 -0.0093492789 -1.2621844e-22)
(0.67677385 -0.0087262415 -4.6583116e-22)
(0.68320574 -0.0088736861 8.7882658e-22)
(0.69685129 -0.0074649497 -4.4315904e-23)
(0.37635129 -0.038368164 -1.7495098e-20)
(0.37170977 -0.044270226 1.2832031e-20)
(0.3728669 -0.048161609 2.9754686e-21)
(0.37591045 -0.050098848 -7.6353769e-21)
(0.37830526 -0.051669969 1.2056e-20)
(0.38072293 -0.053042371 7.7914196e-21)
(0.383676 -0.054030036 -1.2647697e-20)
(0.38710057 -0.054633098 -6.0679692e-21)
(0.39092923 -0.054917999 1.2697324e-20)
(0.39518242 -0.054927129 -1.5304987e-20)
(0.39987424 -0.054687511 -1.4063198e-20)
(0.40499506 -0.054224648 1.4129625e-20)
(0.41052861 -0.053563655 6.8193858e-21)
(0.41645717 -0.052727944 -4.2037662e-21)
(0.42276014 -0.051739012 -1.854555e-21)
(0.42941403 -0.050616745 -4.058167e-21)
(0.43639348 -0.049379698 5.3047591e-21)
(0.44367196 -0.048045223 3.6682095e-21)
(0.45122224 -0.046629545 -3.2408301e-21)
(0.45901679 -0.045147812 3.137949e-21)
(0.46702808 -0.043614156 2.7666807e-21)
(0.47522891 -0.042041723 -3.2111138e-21)
(0.48359269 -0.040442699 3.7056567e-22)
(0.49209357 -0.038828314 -3.2571647e-21)
(0.50070665 -0.037208862 7.2454181e-21)
(0.50940815 -0.035593704 6.1080622e-21)
(0.51817546 -0.033991278 8.0973272e-22)
(0.52698725 -0.032409121 -1.7683238e-21)
(0.53582357 -0.030853882 3.7021806e-21)
(0.54466584 -0.029331356 7.1885259e-21)
(0.55349689 -0.027846517 2.3049324e-21)
(0.56230101 -0.026403557 3.3164903e-21)
(0.5710639 -0.02500594 1.9956229e-21)
(0.57977271 -0.02365645 7.4558058e-22)
(0.58841598 -0.022357256 -2.6374565e-22)
(0.59698369 -0.021109973 2.7203178e-21)
(0.60546716 -0.019915732 6.1992322e-22)
(0.61385918 -0.018775252 2.9487836e-22)
(0.62215383 -0.017688938 5.623259e-23)
(0.63034694 -0.016656915 9.8966963e-22)
(0.63843507 -0.015679327 4.7020183e-23)
(0.64641899 -0.014755875 4.4247709e-22)
(0.65429397 -0.013888011 -1.2621858e-22)
(0.66208027 -0.01307297 -2.7735081e-22)
(0.66973515 -0.012324377 -1.5218783e-22)
(0.67741408 -0.011610865 -4.22084e-22)
(0.68472393 -0.01105357 1.6139644e-22)
(0.69287219 -0.010332367 -1.2723787e-22)
(0.69859507 -0.010509474 -5.012623e-22)
(0.71095757 -0.008881814 2.4587067e-22)
(0.50927429 -0.035974274 3.6471545e-21)
(0.49953038 -0.042960654 -1.8958291e-20)
(0.49627554 -0.047383452 -2.3083823e-21)
(0.4955559 -0.049736757 5.4869766e-21)
(0.4941695 -0.051818021 3.0527868e-21)
(0.4926957 -0.053705385 -4.9894238e-23)
(0.49181226 -0.055187621 6.1896975e-21)
(0.49151447 -0.056265369 7.6251009e-21)
(0.49171163 -0.056990502 9.858027e-21)
(0.49241068 -0.057395543 -1.1250045e-20)
(0.493631 -0.05750627 -2.1579418e-20)
(0.49536773 -0.057348384 -3.9353357e-21)
(0.49760463 -0.056947096 1.5938142e-20)
(0.50032298 -0.056326973 1.2808958e-20)
(0.50350161 -0.055511696 -5.9066896e-21)
(0.50711648 -0.054523808 1.3817031e-21)
(0.51114135 -0.053384745 -3.6600827e-21)
(0.51554871 -0.052114898 2.2443727e-21)
(0.52031024 -0.050733605 -2.9123023e-22)
(0.5253973 -0.049259122 -1.8654098e-21)
(0.53078121 -0.047708616 7.8265907e-21)
(0.53643361 -0.046098165 -2.930884e-22)
(0.54232667 -0.044442743 4.1818173e-22)
(0.54843336 -0.042756217 -6.56466e-22)
(0.55472758 -0.041051336 -4.3029391e-21)
(0.56118428 -0.03933974 4.2085168e-21)
(0.56777963 -0.03763196 1.9031218e-21)
(0.57449106 -0.035937436 -3.3081929e-21)
(0.58129733 -0.03426454 -4.111644e-21)