/*--------------------------------*- C++ -*----------------------------------*\
  =========                 |
  \\      /  F ield         | OpenFOAM: The Open Source CFD Toolbox
   \\    /   O peration     | Website:  https://openfoam.org
    \\  /    A nd           | Version:  6
     \\/     M anipulation  |
\*---------------------------------------------------------------------------*/
FoamFile
{
    version     2.0;
    format      ascii;
    class       volScalarField;
    location    "56";
    object      p;
}
// * * * * * * * * * * * * * * * * * * * * * * * * * * * * * * * * * * * * * //

dimensions      [0 2 -2 0 0 0 0];

internalField   nonuniform List<scalar> 
9200
(
-0.38300562
-0.37163362
-0.36151814
-0.35255038
-0.34379311
-0.33526002
-0.32702928
-0.31906798
-0.31130827
-0.30367767
-0.29610269
-0.28851376
-0.28085231
-0.27307801
-0.26517937
-0.25719162
-0.24919124
-0.2412664
-0.23444018
-0.23299049
-0.4008995
-0.38707327
-0.37501191
-0.36452266
-0.35439175
-0.34460026
-0.33521673
-0.32617733
-0.31738187
-0.30873136
-0.30013205
-0.29150124
-0.28277492
-0.27391373
-0.2649086
-0.2557847
-0.2465723
-0.23727173
-0.22856461
-0.22261377
-0.41920967
-0.40290686
-0.38894604
-0.37700612
-0.36555702
-0.35452901
-0.34396917
-0.33377505
-0.32381219
-0.31395909
-0.30411094
-0.29418536
-0.28412919
-0.27392162
-0.26357402
-0.25312553
-0.24261559
-0.23205384
-0.22183894
-0.21308441
-0.4375008
-0.41874107
-0.4029466
-0.3896178
-0.37687063
-0.36456814
-0.35272812
-0.34120906
-0.32985029
-0.31852326
-0.30713309
-0.29562157
-0.28397029
-0.2721984
-0.26035586
-0.24851319
-0.23673766
-0.22506884
-0.21377402
-0.20359377
-0.45514128
-0.43402833
-0.41651738
-0.40187683
-0.38784095
-0.3741948
-0.3609268
-0.34786718
-0.33484976
-0.32176625
-0.30856155
-0.29522994
-0.2818109
-0.26837907
-0.25503082
-0.24186982
-0.22898682
-0.21644082
-0.20442009
-0.19343207
-0.47130466
-0.44804783
-0.42899646
-0.4131335
-0.39780183
-0.38270867
-0.3678257
-0.35298069
-0.33803628
-0.32294102
-0.30771252
-0.29242229
-0.27718125
-0.26212158
-0.24737829
-0.23307409
-0.21930408
-0.2061244
-0.19366108
-0.18225115
-0.48498369
-0.45991123
-0.43955713
-0.42257166
-0.40592331
-0.38925749
-0.3725571
-0.35568846
-0.33858771
-0.32129971
-0.30394301
-0.28668005
-0.26969222
-0.25315617
-0.23722508
-0.22201726
-0.20760863
-0.19403027
-0.18134902
-0.16976629
-0.4950125
-0.46858636
-0.44724057
-0.4292559
-0.41127648
-0.39292003
-0.37422359
-0.35514446
-0.33574083
-0.31618885
-0.29672525
-0.27760285
-0.25905865
-0.24129035
-0.22444317
-0.20860711
-0.19381927
-0.18007132
-0.16737201
-0.15580867
-0.5000468
-0.47279578
-0.45075841
-0.43184796
-0.41248298
-0.39231588
-0.37149808
-0.35013522
-0.32844716
-0.30675672
-0.28541206
-0.26473352
-0.2449828
-0.2263472
-0.20893766
-0.19279724
-0.17791355
-0.16423461
-0.15171509
-0.14034461
-0.49873458
-0.47112066
-0.4485608
-0.42868015
-0.4078189
-0.38574803
-0.36279892
-0.33927138
-0.31556052
-0.29211876
-0.26936814
-0.24765089
-0.2272105
-0.20819084
-0.19064826
-0.17457029
-0.15989556
-0.14653419
-0.13439402
-0.12337953
-0.26986937
-0.27455291
-0.27706522
-0.27781597
-0.27759895
-0.27660144
-0.27490499
-0.27259725
-0.26975048
-0.26641943
-0.26264815
-0.25847415
-0.25393052
-0.24904734
-0.24385286
-0.23837599
-0.23264766
-0.2266884
-0.22049718
-0.21415981
-0.2726098
-0.27687671
-0.27908136
-0.27961289
-0.27921242
-0.27805842
-0.27623054
-0.27381271
-0.27087363
-0.26746518
-0.26362899
-0.25940047
-0.2548108
-0.24988806
-0.24465789
-0.23914818
-0.23339733
-0.22742427
-0.22112119
-0.21446187
-0.27795412
-0.28140638
-0.28301132
-0.28311407
-0.28235392
-0.28089385
-0.27880997
-0.2761789
-0.27306237
-0.26950666
-0.26554853
-0.26121915
-0.25654595
-0.25155312
-0.24626147
-0.24069599
-0.23490655
-0.22891094
-0.2224089
-0.21514125
-0.28566121
-0.28794743
-0.28868444
-0.28815697
-0.28686279
-0.28494525
-0.28247644
-0.27952311
-0.27613729
-0.27235737
-0.26821326
-0.26373
-0.25892947
-0.25383016
-0.24844603
-0.2427969
-0.23694455
-0.23091148
-0.22415055
-0.21603115
-0.2954273
-0.2962557
-0.29588828
-0.29454164
-0.29254413
-0.29001822
-0.2870328
-0.28364331
-0.27989031
-0.27580292
-0.27140279
-0.26670664
-0.2617288
-0.25648083
-0.25096855
-0.24520338
-0.23925503
-0.23315925
-0.22610966
-0.21695923
-0.30693718
-0.30607793
-0.30440454
-0.3020664
-0.29920561
-0.29592514
-0.29229295
-0.2883534
-0.28413503
-0.27965526
-0.27492489
-0.26995135
-0.26474015
-0.25929436
-0.25361067
-0.24768911
-0.24159933
-0.23539651
-0.22804364
-0.21775633
-0.31991083
-0.31718826
-0.31404188
-0.31056104
-0.30669297
-0.30252437
-0.29812611
-0.29353109
-0.28875312
-0.28379709
-0.27866225
-0.27334473
-0.26783937
-0.26213965
-0.25623313
-0.25010801
-0.24382663
-0.2374668
-0.22982445
-0.21840997
-0.33413154
-0.32941115
-0.32465809
-0.31991149
-0.31491954
-0.30975563
-0.30449385
-0.29915487
-0.29373767
-0.28823267
-0.28262469
-0.27689552
-0.27102629
-0.26499834
-0.25878947
-0.25237895
-0.24582627
-0.23925516
-0.2314141
-0.21910472
-0.34944595
-0.34261396
-0.33614261
-0.33003104
-0.32382101
-0.3175713
-0.31136112
-0.30519836
-0.29906432
-0.29293169
-0.2867673
-0.28053438
-0.27419487
-0.26770971
-0.2610342
-0.25412023
-0.24699177
-0.23975505
-0.23115482
-0.21768742
-0.36575508
-0.35668878
-0.3483831
-0.34080203
-0.33326755
-0.32582356
-0.31855431
-0.31145257
-0.30447944
-0.29758823
-0.29072739
-0.28384334
-0.27688338
-0.26979572
-0.26252429
-0.25500453
-0.24717918
-0.23884187
-0.22834376
-0.21264407
-0.20697333
-0.19797895
-0.18897754
-0.18003364
-0.17109335
-0.16219846
-0.15340285
-0.14474186
-0.13624499
-0.12794111
-0.11985627
-0.11201287
-0.10443027
-0.097125007
-0.09011084
-0.083398786
-0.076997242
-0.070912084
-0.065146759
-0.059702395
-0.054577923
-0.049770215
-0.045274232
-0.041083192
-0.037188741
-0.033581144
-0.030249476
-0.027181811
-0.024365427
-0.021786984
-0.019432715
-0.017288597
-0.015340513
-0.013574401
-0.011976398
-0.01053296
-0.0092309929
-0.0080579356
-0.0070019959
-0.0060518765
-0.005198274
-0.0044298412
-0.0037468835
-0.0031209573
-0.0026194117
-0.0020408121
-0.0019894819
-0.00079590604
-0.003326562
0.0039060445
-0.20799273
-0.19859955
-0.18948885
-0.18055969
-0.1716015
-0.16267644
-0.15385643
-0.1451732
-0.13665377
-0.12832755
-0.12022088
-0.11235606
-0.10475242
-0.097426574
-0.090392354
-0.083660837
-0.077240487
-0.07113724
-0.065354596
-0.059893727
-0.054753598
-0.049931103
-0.045421215
-0.041217154
-0.037310562
-0.033691691
-0.030349593
-0.027272321
-0.024447116
-0.021860608
-0.019498991
-0.0173482
-0.015394077
-0.013622519
-0.012019618
-0.010571787
-0.0092658912
-0.0080893258
-0.0070302577
-0.006077349
-0.0052212542
-0.0044505868
-0.0037655859
-0.0031378234
-0.0026342816
-0.0020543805
-0.0019988295
-0.00080846623
-0.0033136663
0.0038672615
-0.21012963
-0.19988263
-0.19055404
-0.1816946
-0.17271322
-0.16372754
-0.15486003
-0.14613288
-0.13756646
-0.12919233
-0.12103807
-0.11312587
-0.10547518
-0.098102953
-0.091023302
-0.084247531
-0.077784315
-0.071639782
-0.065817587
-0.060319027
-0.05514316
-0.050286943
-0.045745389
-0.041511726
-0.037577586
-0.033933189
-0.030567538
-0.027468622
-0.024623609
-0.022019041
-0.019641022
-0.01747539
-0.015507884
-0.0137243
-0.012110625
-0.010653171
-0.0093387023
-0.0081545145
-0.0070886786
-0.0061297613
-0.0052683228
-0.0044928841
-0.0038035501
-0.0031718917
-0.0026642088
-0.0020814851
-0.0020175141
-0.00083320131
-0.0032880484
0.0037903394
-0.21322248
-0.20159401
-0.19194387
-0.18328541
-0.17431557
-0.16525341
-0.15633206
-0.14755629
-0.13893102
-0.13049294
-0.1222734
-0.11429461
-0.10657633
-0.099136364
-0.091989541
-0.085147693
-0.078619962
-0.072412887
-0.066530465
-0.060974265
-0.055743554
-0.050835443
-0.046245041
-0.041965634
-0.037988861
-0.034304916
-0.030902747
-0.027770257
-0.024894508
-0.02226192
-0.019858456
-0.017669808
-0.015681561
-0.01387935
-0.012249004
-0.010776673
-0.0094489649
-0.0082530201
-0.0071767586
-0.0062085977
-0.0053389507
-0.0045561928
-0.0038602253
-0.0032226054
-0.0027086264
-0.0021215599
-0.0020449857
-0.00086949707
-0.0032497453
0.0036767408
-0.21704089
-0.20346014
-0.19338609
-0.18513143
-0.17625928
-0.16712362
-0.15815979
-0.14935204
-0.14067364
-0.1321685
-0.12387652
-0.11582109
-0.10802236
-0.10049962
-0.093269102
-0.086343672
-0.079733328
-0.073445358
-0.06748439
-0.061852499
-0.056549355
-0.051572373
-0.046916883
-0.042576309
-0.038542367
-0.034805264
-0.031353911
-0.02817613
-0.025258866
-0.022588392
-0.020150501
-0.017930697
-0.015914364
-0.014086929
-0.012434009
-0.010941539
-0.009595915
-0.0083840676
-0.0072937127
-0.0063130644
-0.0054323365
-0.0046397052
-0.0039347982
-0.0032891483
-0.002766716
-0.0021737806
-0.0020804881
-0.00091640964
-0.0031990108
0.0035287805
-0.2212329
-0.20519762
-0.19460881
-0.18699616
-0.17836879
-0.16919187
-0.16020827
-0.15140337
-0.14269896
-0.13414048
-0.1257817
-0.11765053
-0.10976813
-0.10215567
-0.094831624
-0.087810672
-0.081104238
-0.074720826
-0.068666103
-0.062943003
-0.057551882
-0.052490696
-0.047755182
-0.043339059
-0.039234228
-0.035430993
-0.031918285
-0.028683878
-0.025714612
-0.022996611
-0.020515482
-0.018256512
-0.01620485
-0.014345673
-0.012664336
-0.011146514
-0.0097783368
-0.0085464744
-0.0074383861
-0.0064420304
-0.0055473693
-0.0047423285
-0.0040261908
-0.0033704574
-0.002837429
-0.002237106
-0.0021230845
-0.00097277323
-0.0031362263
0.0033494534
-0.22539617
-0.20662288
-0.19539869
-0.188599
-0.1804404
-0.17132835
-0.16235982
-0.15359545
-0.14490856
-0.13632858
-0.12792172
-0.1197258
-0.11176535
-0.10406391
-0.096642887
-0.089519759
-0.082708172
-0.076218466
-0.070057867
-0.064230616
-0.058738131
-0.053579216
-0.048750265
-0.044245485
-0.04005712
-0.036175691
-0.032590228
-0.029288515
-0.026257322
-0.023482633
-0.020949866
-0.018644076
-0.016550149
-0.014652976
-0.012937613
-0.011389424
-0.0099942304
-0.0087383908
-0.0076090589
-0.0065938879
-0.0056825376
-0.004862634
-0.0041330433
-0.0034652364
-0.0029195209
-0.002310341
-0.0021717161
-0.001037334
-0.0030618443
0.0031422286
-0.2292647
-0.20813033
-0.19598047
-0.18975181
-0.18225807
-0.17344385
-0.16456918
-0.15587043
-0.14723873
-0.13867541
-0.13024565
-0.12199995
-0.11397063
-0.10618476
-0.098667132
-0.091438746
-0.084516282
-0.077912537
-0.071636807
-0.065695075
-0.0600902
-0.054822146
-0.049888228
-0.045283355
-0.041000288
-0.037029893
-0.033361409
-0.029982699
-0.026880513
-0.024040724
-0.021448572
-0.019088875
-0.01694624
-0.015005246
-0.013250618
-0.011667375
-0.010240984
-0.0089574508
-0.0078035791
-0.0067666698
-0.0058360337
-0.0049989518
-0.0042538024
-0.0035720373
-0.0030116302
-0.0023922113
-0.0022252733
-0.001108843
-0.0029763635
0.0029110207
-0.23048894
-0.20995797
-0.19704593
-0.19038885
-0.18338431
-0.17515502
-0.16655978
-0.15799252
-0.14946999
-0.14098572
-0.13258762
-0.12433391
-0.11626805
-0.10842297
-0.10082743
-0.093506554
-0.086480908
-0.079766587
-0.073375687
-0.067316602
-0.061594236
-0.056210255
-0.051163361
-0.046449571
-0.0420625
-0.037993649
-0.034232688
-0.030767746
-0.027585689
-0.024672386
-0.022012964
-0.01959205
-0.017393992
-0.015403062
-0.013603638
-0.011980372
-0.010518346
-0.009203174
-0.0080212657
-0.0069595245
-0.0060068632
-0.0051501692
-0.0043872616
-0.0036895736
-0.0031124371
-0.0024813012
-0.0022826023
-0.0011854734
-0.0028808191
0.0026611048
-0.22060273
-0.20918477
-0.19815105
-0.19003104
-0.1829403
-0.17548923
-0.16750425
-0.15930647
-0.15107508
-0.14283625
-0.13461794
-0.12647795
-0.1184721
-0.11064361
-0.10302859
-0.095658841
-0.08856126
-0.081757503
-0.075264417
-0.069094465
-0.063256009
-0.057753609
-0.052588352
-0.047758186
-0.043258255
-0.039081237
-0.03521767
-0.031656286
-0.028384327
-0.025387845
-0.022651995
-0.0201613
-0.017899904
-0.015851791
-0.014000998
-0.012331786
-0.010828825
-0.0094772951
-0.0082631669
-0.0071728932
-0.0061949365
-0.0053157309
-0.0045324767
-0.003816538
-0.0032204396
-0.0025756628
-0.0023423638
-0.0012636656
-0.002777945
0.0023996117
-0.19846655
-0.20311382
-0.19780338
-0.18887161
-0.18133746
-0.17429387
-0.16675515
-0.15885723
-0.15086602
-0.14284488
-0.1348136
-0.12682537
-0.11893979
-0.11120449
-0.10365874
-0.096337293
-0.089270027
-0.082481398
-0.075990787
-0.069812932
-0.063958235
-0.05843306
-0.053240074
-0.048378594
-0.043844936
-0.03963277
-0.035733466
-0.032136435
-0.028829465
-0.025799039
-0.023030637
-0.020509017
-0.018218476
-0.016143091
-0.01426693
-0.012574241
-0.01104964
-0.0096782229
-0.0084458411
-0.007338815
-0.0063453978
-0.0054519309
-0.0046549437
-0.0039266311
-0.0033151874
-0.0026621177
-0.0023931432
-0.0013409561
-0.0026665439
0.0021371954
-0.18786132
-0.19361629
-0.19010947
-0.18135146
-0.17412176
-0.16783337
-0.16109916
-0.15391936
-0.1465896
-0.13918506
-0.13171576
-0.12423054
-0.11679141
-0.10944967
-0.10224815
-0.095225413
-0.088415368
-0.08184648
-0.075541972
-0.069520228
-0.063795074
-0.058376064
-0.053268802
-0.048475301
-0.043994333
-0.039821789
-0.035951038
-0.032373277
-0.02907788
-0.026052727
-0.02328452
-0.020759074
-0.018461599
-0.016376943
-0.014489825
-0.012785032
-0.011247617
-0.0098630254
-0.0086173657
-0.0074971753
-0.0064907299
-0.0055846579
-0.0047746601
-0.0040348384
-0.0034068888
-0.00274805
-0.0024360551
-0.0014256087
-0.0025243531
0.0018510589
-0.17905979
-0.18221589
-0.17990614
-0.17287272
-0.16649901
-0.16090804
-0.15494411
-0.1484982
-0.14183634
-0.13505368
-0.12816238
-0.1212051
-0.11424256
-0.10732789
-0.100506
-0.09381783
-0.087300177
-0.080984719
-0.07489797
-0.069061598
-0.063492658
-0.058203811
-0.053203621
-0.048496881
-0.044084949
-0.039966103
-0.036135895
-0.032587503
-0.029312079
-0.026299093
-0.023536651
-0.0210118
-0.018710818
-0.016619473
-0.014723262
-0.013007627
-0.011458159
-0.010060741
-0.0088018069
-0.0076681754
-0.0066481771
-0.0057287935
-0.0049048073
-0.004152507
-0.003506256
-0.0028411301
-0.0024807541
-0.0015177117
-0.0023612612
0.001533112
-0.16931193
-0.16986606
-0.16800296
-0.16304829
-0.15790879
-0.15306405
-0.14789466
-0.1422641
-0.13634892
-0.13024998
-0.12399525
-0.11762543
-0.11119777
-0.10476598
-0.098376821
-0.09207319
-0.085894376
-0.079875006
-0.074044779
-0.068428645
-0.06304696
-0.057915649
-0.053046432
-0.048447117
-0.044121907
-0.040071734
-0.036294601
-0.03278593
-0.02953891
-0.026544838
-0.023793449
-0.021273229
-0.018971711
-0.016875749
-0.01497177
-0.013245999
-0.011684678
-0.010274223
-0.0090014736
-0.0078535919
-0.0068190112
-0.005885101
-0.005045728
-0.004279402
-0.0036129749
-0.0029397492
-0.0025276565
-0.0016114399
-0.002187501
0.001197433
-0.1586662
-0.15735216
-0.15551444
-0.15227515
-0.14843167
-0.14439511
-0.14002577
-0.1352425
-0.13012772
-0.12476414
-0.11919547
-0.11346519
-0.10762625
-0.10173107
-0.095827295
-0.089959095
-0.084167491
-0.078489489
-0.072957602
-0.067599844
-0.062439783
-0.057496618
-0.05278533
-0.048316909
-0.044098617
-0.040134287
-0.036424636
-0.032967602
-0.029758679
-0.026791257
-0.024056948
-0.02154591
-0.019247147
-0.017148797
-0.015238388
-0.013503089
-0.011929924
-0.010505957
-0.0092185318
-0.0080552314
-0.0070046574
-0.0060545958
-0.0051980563
-0.0044156857
-0.003727004
-0.0030430414
-0.0025769185
-0.0017037839
-0.0020100273
0.00085524075
-0.1468027
-0.14470897
-0.14299032
-0.14102502
-0.1383539
-0.13515617
-0.1315766
-0.12762053
-0.12330945
-0.11869887
-0.11383967
-0.10877694
-0.10355958
-0.098237577
-0.092858206
-0.087465817
-0.082102064
-0.076805347
-0.071610233
-0.066547219
-0.061642659
-0.056918743
-0.052393555
-0.048081218
-0.043992084
-0.040132984
-0.036507502
-0.033116272
-0.029957299
-0.02702628
-0.024316928
-0.021821289
-0.019530048
-0.017432819
-0.01551842
-0.013775122
-0.012190883
-0.010753545
-0.0094510677
-0.0082715445
-0.0072038307
-0.0062361599
-0.005360791
-0.0045603466
-0.0038474771
-0.0031497701
-0.002628457
-0.0017923409
-0.0018360453
0.00051825819
-0.13403642
-0.13208104
-0.13071461
-0.1296611
-0.12795437
-0.12556848
-0.12275147
-0.11957617
-0.11603914
-0.11216962
-0.10801766
-0.1036295
-0.099048422
-0.094319822
-0.089489547
-0.084601287
-0.079696264
-0.074813125
-0.069987492
-0.065251536
-0.060633739
-0.056158761
-0.051847406
-0.047716663
-0.043779825
-0.040046659
-0.036523619
-0.033214109
-0.030118757
-0.027235711
-0.024560951
-0.022088587
-0.019811165
-0.017719961
-0.015805249
-0.014056569
-0.012462964
-0.011013189
-0.0096959421
-0.0084999269
-0.0074143515
-0.0064279327
-0.0055323256
-0.0047119097
-0.0039731786
-0.0032585287
-0.002682132
-0.0018749425
-0.0016732648
0.000199089
-0.1210841
-0.11971456
-0.11883996
-0.11844235
-0.11749172
-0.11584266
-0.11373826
-0.11128188
-0.10846669
-0.10530425
-0.10183671
-0.09810853
-0.09415938
-0.090028677
-0.08575802
-0.081389423
-0.076962961
-0.072516518
-0.068085679
-0.06370333
-0.05939926
-0.055199909
-0.05112823
-0.047203639
-0.043442035
-0.039855892
-0.036454406
-0.033243686
-0.030226986
-0.027404963
-0.024775951
-0.022336246
-0.020080395
-0.018001478
-0.016091384
-0.014341068
-0.012740803
-0.011280393
-0.0099493987
-0.008737241
-0.0076335906
-0.0066276896
-0.0057107675
-0.0048687138
-0.0041027641
-0.0033679808
-0.0027378044
-0.0019500725
-0.0015289185
-9.0143225e-05
-0.10848802
-0.10778812
-0.10743155
-0.10752838
-0.10716632
-0.10615576
-0.1046944
-0.1028867
-0.10072913
-0.098223819
-0.095403072
-0.092305971
-0.088967905
-0.085423816
-0.081710209
-0.077864928
-0.073925931
-0.069929636
-0.065910674
-0.061901661
-0.057932806
-0.054031541
-0.050222289
-0.046526309
-0.042961638
-0.039543091
-0.036282328
-0.03318798
-0.030265816
-0.027518954
-0.02494809
-0.022551752
-0.020326565
-0.01826752
-0.016368233
-0.014621203
-0.013018059
-0.011549779
-0.010206909
-0.0089796947
-0.0078583831
-0.0068327935
-0.0058939265
-0.0050289409
-0.0042348163
-0.0034769754
-0.0027953607
-0.0020171291
-0.0014088505
-0.00033932034
-0.096532723
-0.096420551
-0.096533778
-0.097018711
-0.097118479
-0.096643669
-0.095744086
-0.09451026
-0.092940962
-0.091033573
-0.088811315
-0.086306199
-0.083548357
-0.080567701
-0.077396281
-0.074067464
-0.070615225
-0.067073598
-0.063475555
-0.059852618
-0.05623455
-0.052648971
-0.04912104
-0.045673215
-0.04232511
-0.03909341
-0.035991862
-0.033031323
-0.030219866
-0.027562922
-0.025063468
-0.022722235
-0.020537943
-0.018507533
-0.016626426
-0.014888753
-0.013287601
-0.011815229
-0.010463279
-0.0092229196
-0.0080850922
-0.0070402521
-0.0060793737
-0.0051906785
-0.0043679147
-0.0035846178
-0.0028547353
-0.002076455
-0.0013168162
-0.00054163916
-0.085357788
-0.085702596
-0.086199079
-0.086986936
-0.08744792
-0.087410879
-0.086987459
-0.086250242
-0.085197572
-0.083823925
-0.082144866
-0.08018502
-0.077968729
-0.075520619
-0.072867656
-0.070038878
-0.067064165
-0.063973863
-0.060798451
-0.057567675
-0.054310103
-0.051052779
-0.047820867
-0.044637358
-0.041522835
-0.038495325
-0.035570209
-0.032760198
-0.030075367
-0.027523237
-0.025108905
-0.022835202
-0.020702884
-0.01871084
-0.016856311
-0.015135112
-0.013541858
-0.012070167
-0.010712869
-0.0094621511
-0.0083097508
-0.0072468283
-0.0062645305
-0.005351988
-0.0045006952
-0.0036902876
-0.0029159014
-0.0021291913
-0.0012540516
-0.00069452617
-0.075023225
-0.07569664
-0.076479987
-0.077493021
-0.078229395
-0.078539945
-0.078508121
-0.078189851
-0.077581375
-0.076674759
-0.075479229
-0.074012467
-0.072292926
-0.070339894
-0.068175125
-0.065822813
-0.063308661
-0.060659178
-0.057901446
-0.055062707
-0.05216969
-0.049248178
-0.046322654
-0.043415975
-0.040549081
-0.037740778
-0.035007585
-0.032363634
-0.029820642
-0.027387929
-0.025072481
-0.02287906
-0.020810347
-0.018867107
-0.017048377
-0.01535166
-0.01377313
-0.01230782
-0.010949814
-0.0096923905
-0.0085281832
-0.007449126
-0.0064467257
-0.0055109284
-0.0046318558
-0.0037935776
-0.0029788077
-0.0021769814
-0.0012192086
-0.00079992208
-0.065540683
-0.066435346
-0.067416677
-0.068583713
-0.069519891
-0.070096656
-0.070376525
-0.070401634
-0.070165761
-0.069658834
-0.068884846
-0.067855329
-0.066583148
-0.065082405
-0.063369749
-0.061464435
-0.059387644
-0.057161885
-0.054810604
-0.052357887
-0.049828002
-0.04724487
-0.044631668
-0.042010487
-0.039402019
-0.036825277
-0.034297392
-0.031833451
-0.029446406
-0.027147025
-0.024943901
-0.022843502
-0.020850263
-0.018966706
-0.017193588
-0.015530063
-0.013973856
-0.012521439
-0.011168191
-0.0099085429
-0.0087361017
-0.0076436471
-0.0066232159
-0.0056655357
-0.0047601079
-0.0038941633
-0.0030432713
-0.0022215894
-0.0012086982
-0.00086380478
-0.056895167
-0.057926817
-0.059031501
-0.060290464
-0.061360634
-0.062131746
-0.062650435
-0.062947899
-0.063015875
-0.062842599
-0.062427845
-0.061777935
-0.060900739
-0.059805559
-0.058504229
-0.057011224
-0.055343166
-0.053518355
-0.051556429
-0.049478036
-0.047304478
-0.045057281
-0.042757767
-0.04042669
-0.038083909
-0.035748085
-0.033436427
-0.031164486
-0.028946005
-0.026792812
-0.024714774
-0.022719789
-0.020813826
-0.019000994
-0.017283648
-0.015662515
-0.01413683
-0.012704489
-0.011362184
-0.010105536
-0.0089291876
-0.0078268328
-0.0067911888
-0.0058137793
-0.0048840972
-0.0039916397
-0.0031088591
-0.0022645233
-0.0012173881
-0.0008949926
-0.049055713
-0.050159983
-0.051328697
-0.052628507
-0.053777331
-0.054681085
-0.055374282
-0.055879632
-0.056187526
-0.056285127
-0.056168978
-0.055841188
-0.055305402
-0.054566708
-0.05363259
-0.052513095
-0.051220477
-0.049768856
-0.048173959
-0.046452841
-0.044623566
-0.042704856
-0.040715716
-0.038675068
-0.036601414
-0.034512528
-0.032425177
-0.030354876
-0.028315693
-0.026320099
-0.024378862
-0.022500992
-0.020693721
-0.018962534
-0.017311216
-0.015741943
-0.014255383
-0.012850809
-0.011526216
-0.010278427
-0.0091031695
-0.0079951086
-0.0069477711
-0.0059535274
-0.0050023329
-0.0040853798
-0.0031748051
-0.0023067581
-0.0012395113
-0.00090348209
-0.041980791
-0.043109822
-0.044297407
-0.045598266
-0.04678113
-0.047766267
-0.048579028
-0.049235679
-0.049725969
-0.050036646
-0.050161975
-0.050100847
-0.049853527
-0.049421605
-0.048808826
-0.048021308
-0.047067312
-0.045957007
-0.044702295
-0.043316612
-0.041814663
-0.04021213
-0.038525365
-0.036771058
-0.034965912
-0.033126338
-0.031268171
-0.029406406
-0.027554972
-0.025726541
-0.023932386
-0.02218227
-0.020484386
-0.018845331
-0.017270113
-0.015762194
-0.014323554
-0.012954764
-0.011655081
-0.010422518
-0.0092539111
-0.0081449454
-0.0070900612
-0.0060825441
-0.0051131553
-0.0041744559
-0.0032399989
-0.0023486144
-0.0012695735
-0.00089872514
-0.035622859
-0.036742312
-0.03791579
-0.03918823
-0.040370674
-0.041396077
-0.042282974
-0.043042839
-0.043665396
-0.044137564
-0.044452204
-0.044605914
-0.044596432
-0.04442261
-0.04408515
-0.043586851
-0.042932484
-0.042128653
-0.041183697
-0.040107566
-0.038911632
-0.037608463
-0.036211565
-0.03473512
-0.033193692
-0.031601935
-0.029974326
-0.028324892
-0.026666976
-0.025013019
-0.023374384
-0.021761213
-0.020182318
-0.018645112
-0.017155577
-0.015718258
-0.014336285
-0.013011418
-0.011744092
-0.010533479
-0.0093775186
-0.0082729459
-0.0072151923
-0.0061985298
-0.0052147566
-0.0042576421
-0.0033030518
-0.0023897965
-0.0013030398
-0.0008882783
-0.029931785
-0.031018167
-0.032154615
-0.033378026
-0.034534639
-0.03556854
-0.036493252
-0.037316763
-0.038029241
-0.038618253
-0.039075984
-0.039397563
-0.039578986
-0.039617117
-0.039510326
-0.039258753
-0.038864265
-0.038330397
-0.037662317
-0.03686677
-0.035951969
-0.034927428
-0.033803776
-0.032592546
-0.031305937
-0.029956563
-0.028557193
-0.027120511
-0.025658866
-0.024184061
-0.022707147
-0.021238257
-0.019786467
-0.018359686
-0.016964585
-0.015606554
-0.014289678
-0.013016748
-0.011789274
-0.010607512
-0.0094704774
-0.0083759596
-0.0073204287
-0.0062992001
-0.0053052491
-0.0043334876
-0.0033624153
-0.0024295423
-0.0013366556
-0.00087712551
-0.024857158
-0.025895494
-0.026980082
-0.028141164
-0.029254263
-0.030273155
-0.03120769
-0.032063366
-0.032831114
-0.033499488
-0.034060568
-0.034508693
-0.034838802
-0.035046446
-0.03512834
-0.035082623
-0.034908872
-0.034608105
-0.034182799
-0.033636887
-0.032975713
-0.032205937
-0.031335407
-0.030373009
-0.029328481
-0.028212221
-0.027035056
-0.025808024
-0.024542151
-0.023248236
-0.021936647
-0.020617139
-0.019298694
-0.017989384
-0.016696268
-0.015425308
-0.014181322
-0.012967943
-0.011787612
-0.010641565
-0.0095298337
-0.0084512354
-0.007403293
-0.0063823978
-0.0053827681
-0.0044004343
-0.0034165129
-0.0024668175
-0.0013683894
-0.00086773565
-0.020350169
-0.021332025
-0.022356264
-0.023447566
-0.024505841
-0.025493247
-0.026416937
-0.027280637
-0.028076235
-0.02879347
-0.029424735
-0.029964102
-0.030406006
-0.030745261
-0.030977523
-0.031099537
-0.03110919
-0.031005546
-0.030788905
-0.030460846
-0.030024229
-0.029483157
-0.02884291
-0.02810985
-0.02729129
-0.026395352
-0.025430793
-0.024406811
-0.023332856
-0.022218432
-0.021072906
-0.019905319
-0.018724223
-0.017537524
-0.01635236
-0.015174987
-0.014010699
-0.012863763
-0.011737372
-0.010633612
-0.0095534315
-0.0084966218
-0.0074617349
-0.0064462387
-0.005445602
-0.0044569583
-0.0034638606
-0.0025004964
-0.0013971198
-0.0008606648
-0.016364704
-0.017286562
-0.018246828
-0.019265472
-0.020262751
-0.021208031
-0.022106464
-0.022960511
-0.023763088
-0.024505216
-0.025179866
-0.025781221
-0.026303629
-0.026741622
-0.027090292
-0.027345518
-0.027504033
-0.027563481
-0.0275225
-0.027380794
-0.027139168
-0.026799537
-0.026364914
-0.025839356
-0.025227895
-0.024536439
-0.023771649
-0.022940797
-0.022051603
-0.02111207
-0.02013031
-0.019114375
-0.018072087
-0.017010888
-0.015937695
-0.014858776
-0.013779644
-0.012704965
-0.011638491
-0.010582992
-0.0095402099
-0.00851082
-0.007494345
-0.0064892943
-0.0054923506
-0.0045017227
-0.0035031706
-0.0025295073
-0.0014222584
-0.00085537185
-0.012858836
-0.013720716
-0.014616962
-0.015563489
-0.016497566
-0.017394736
-0.018258638
-0.019090808
-0.019885187
-0.020634074
-0.021331169
-0.021971009
-0.022548151
-0.023057175
-0.023492996
-0.023851052
-0.024127376
-0.024318666
-0.024422373
-0.024436788
-0.0243611
-0.02419544
-0.0239409
-0.023599528
-0.023174299
-0.022669065
-0.022088474
-0.02143788
-0.020723218
-0.019950873
-0.019127538
-0.018260064
-0.017355307
-0.016419985
-0.015460527
-0.014482948
-0.013492725
-0.012494692
-0.011492943
-0.010490756
-0.0094905163
-0.0084936625
-0.0075005976
-0.0065108039
-0.0055221061
-0.0045337413
-0.0035334508
-0.002552948
-0.0014434674
-0.00085093835
-0.0097948288
-0.010599383
-0.011434261
-0.012311859
-0.01318368
-0.014030538
-0.014854898
-0.015657598
-0.016433537
-0.017176228
-0.017880153
-0.018540344
-0.019151743
-0.019709207
-0.020207746
-0.02064268
-0.021009705
-0.021304964
-0.021525131
-0.021667502
-0.021730068
-0.021711574
-0.021611563
-0.021430404
-0.021169298
-0.020830267
-0.020416115
-0.019930375
-0.019377236
-0.018761444
-0.018088192
-0.017363002
-0.016591599
-0.015779774
-0.014933252
-0.014057564
-0.01315792
-0.012239096
-0.011305323
-0.010360193
-0.0094065686
-0.0084465144
-0.0074811941
-0.0065109641
-0.0055346924
-0.0045525754
-0.0035541296
-0.0025701977
-0.0014605404
-0.00084653057
-0.0071405533
-0.0078919745
-0.0086698126
-0.009483344
-0.010295982
-0.011093024
-0.011876001
-0.012645202
-0.013396382
-0.014124161
-0.014823791
-0.015490853
-0.016120767
-0.016708797
-0.017250226
-0.017740479
-0.018175183
-0.018550226
-0.018861841
-0.019106682
-0.019281909
-0.019385246
-0.019415048
-0.019370343
-0.019250867
-0.019057082
-0.018790171
-0.018452023
-0.018045192
-0.017572844
-0.017038679
-0.016446847
-0.015801845
-0.015108411
-0.014371405
-0.013595692
-0.012786023
-0.011946916
-0.011082544
-0.010196631
-0.0092923467
-0.0083722265
-0.0074380591
-0.0064909554
-0.0055307069
-0.0045583816
-0.0035650817
-0.0025809475
-0.0014733579
-0.00084157453
-0.0048710347
-0.00557511
-0.0063018584
-0.0070578873
-0.0078165061
-0.0085667706
-0.009309452
-0.010044391
-0.010768082
-0.011476112
-0.012164449
-0.012829213
-0.013466333
-0.014071529
-0.014640455
-0.015168779
-0.015652237
-0.016086683
-0.016468154
-0.01679295
-0.017057697
-0.017259423
-0.017395618
-0.017464293
-0.017464029
-0.017394016
-0.017254075
-0.01704467
-0.016766902
-0.016422487
-0.016013718
-0.015543408
-0.015014818
-0.014431583
-0.01379761
-0.013116983
-0.012393852
-0.011632326
-0.010836357
-0.010009635
-0.009155478
-0.0082767403
-0.0073756915
-0.0064540625
-0.005512435
-0.0045526423
-0.003567191
-0.0025856316
-0.001482211
-0.00083594189
-0.0029618969
-0.0036244419
-0.0043063209
-0.0050117252
-0.0057221313
-0.0064297412
-0.0071347077
-0.0078364913
-0.0085321986
-0.0092182406
-0.0098912103
-0.010547729
-0.011184203
-0.011796816
-0.012381617
-0.012934587
-0.013451673
-0.01392883
-0.014362077
-0.014747558
-0.015081603
-0.015360796
-0.015582038
-0.015742605
-0.015840209
-0.015873046
-0.015839842
-0.015739882
-0.01557303
-0.015339738
-0.015041032
-0.014678486
-0.01425419
-0.013770691
-0.013230925
-0.012638141
-0.011995808
-0.011307519
-0.010576885
-0.0098074294
-0.0090024782
-0.008165062
-0.0072977903
-0.0064028763
-0.0054815512
-0.0045362961
-0.0035608408
-0.0025842174
-0.0014868641
-0.0008293059
-0.00141778
-0.0020465668
-0.0026915821
-0.0033552365
-0.0040255157
-0.0046970972
-0.0053696235
-0.0060422466
-0.0067125635
-0.0073776521
-0.0080346237
-0.0086805251
-0.0093121831
-0.0099261968
-0.010518995
-0.011086877
-0.011626039
-0.012132611
-0.012602691
-0.013032404
-0.01341795
-0.013755664
-0.014042072
-0.014273957
-0.014448414
-0.014562908
-0.014615332
-0.014604047
-0.014527923
-0.014386364
-0.01417933
-0.013907333
-0.013571427
-0.013173175
-0.012714613
-0.012198187
-0.011626687
-0.01100316
-0.01033082
-0.0096129465
-0.0088527799
-0.0080534174
-0.0072176874
-0.0063481573
-0.0054465691
-0.0045159263
-0.0035509957
-0.0025803322
-0.001489852
-0.00082306573
-0.00019630702
-0.00079735379
-0.0014122203
-0.0020416641
-0.0026787677
-0.0033201914
-0.003965182
-0.004612632
-0.0052605092
-0.0059064114
-0.0065478606
-0.0071822463
-0.0078067404
-0.0084182911
-0.0090136545
-0.0095894196
-0.010142028
-0.010667798
-0.011162959
-0.011623688
-0.012046157
-0.012426584
-0.012761281
-0.013046717
-0.013279574
-0.013456808
-0.013575706
-0.013633945
-0.013629637
-0.013561378
-0.013428278
-0.013229978
-0.012966665
-0.012639064
-0.01224842
-0.011796458