/*--------------------------------*- C++ -*----------------------------------*\
  =========                 |
  \\      /  F ield         | OpenFOAM: The Open Source CFD Toolbox
   \\    /   O peration     | Website:  https://openfoam.org
    \\  /    A nd           | Version:  6
     \\/     M anipulation  |
\*---------------------------------------------------------------------------*/
FoamFile
{
    version     2.0;
    format      ascii;
    class       volScalarField;
    location    "226";
    object      pPrime2Mean;
}
// * * * * * * * * * * * * * * * * * * * * * * * * * * * * * * * * * * * * * //

dimensions      [0 4 -4 0 0 0 0];

internalField   nonuniform List<scalar> 
9200
(
0.049772705
0.041261018
0.034054698
0.029363051
0.025617989
0.022461296
0.019737272
0.017366509
0.015296148
0.013483865
0.01189461
0.010499008
0.0092722661
0.0081933249
0.0072442113
0.0064095574
0.0056763542
0.0050337491
0.0044736644
0.0039855572
0.040369843
0.033403284
0.027577304
0.023747691
0.020675008
0.018077407
0.015832569
0.013878091
0.012171946
0.010680265
0.0093747698
0.0082315481
0.0072302031
0.0063532061
0.0055853976
0.0049136306
0.0043265821
0.0038144914
0.0033682515
0.0029748777
0.031553106
0.026072707
0.021543057
0.018525191
0.016084289
0.014010678
0.012214023
0.010648376
0.0092823637
0.0080903311
0.0070504399
0.0061438116
0.0053539637
0.0046663942
0.004068285
0.0035483063
0.0030965046
0.0027040898
0.002362229
0.0020593375
0.02356705
0.019466852
0.016110475
0.013830865
0.011963776
0.010365188
0.0089744583
0.0077610886
0.006703768
0.005784401
0.0049868772
0.0042966323
0.0037004289
0.0031862368
0.0027431818
0.0023615279
0.002032655
0.0017489174
0.0015027677
0.0012854362
0.016631993
0.013763285
0.011425511
0.0097906899
0.0084244824
0.0072401204
0.0062035066
0.0052980768
0.0045115077
0.003832184
0.0032486803
0.0027498223
0.0023248808
0.0019637859
0.0016573174
0.0013972361
0.0011763246
0.00098830543
0.0008273712
0.000687638
0.010942096
0.0091167186
0.0076176091
0.0065173207
0.0055664308
0.0047256078
0.0039833066
0.0033348017
0.0027751712
0.0022978201
0.0018947477
0.0015571828
0.0012762198
0.0010433381
0.00085076974
0.00069170129
0.00056032054
0.00045174672
0.00036184511
0.00028698182
0.0066597081
0.0056553205
0.0047968391
0.004107661
0.0034764962
0.0029006364
0.0023862928
0.0019379085
0.0015559507
0.0012371614
0.00097566178
0.00076417883
0.00059506978
0.00046105105
0.00035563357
0.00027330937
0.0002095513
0.00016072281
0.00012403943
9.7381461e-05
0.0039112453
0.0034781801
0.003051881
0.0026409791
0.0022264849
0.0018309461
0.0014728525
0.0011627049
0.00090410905
0.00069543618
0.00053173959
0.00040649251
0.00031287257
0.00024456168
0.00019614134
0.00016319955
0.00014226018
0.00013066212
0.00012656106
0.00012871892
0.0027836707
0.0026525263
0.0024463218
0.0021748994
0.0018694528
0.0015659591
0.0012889432
0.0010514437
0.0008578698
0.00070667371
0.00059290114
0.00051023732
0.00045235439
0.00041364148
0.00038948391
0.0003762673
0.00037124432
0.00037238917
0.00037836601
0.00038829989
0.0033207338
0.0032114754
0.0030147376
0.0027416276
0.0024361268
0.0021350656
0.0018621288
0.0016292443
0.0014394761
0.0012901397
0.001175627
0.0010894749
0.0010255733
0.00097871659
0.0009447447
0.00092045912
0.00090345513
0.00089196203
0.00088472661
0.00088079293
0.11812334
0.099345656
0.082105937
0.071204787
0.062549218
0.055284137
0.049029278
0.043579492
0.038807771
0.034614299
0.03091753
0.02764995
0.024755013
0.022184912
0.019898943
0.017862238
0.016044793
0.014419735
0.01296183
0.011656485
0.11661935
0.097984588
0.080942337
0.070166428
0.061619311
0.054446857
0.048272163
0.042893454
0.038185181
0.034048489
0.030402603
0.027180662
0.02432668
0.021793342
0.019540376
0.017533314
0.015742544
0.014141586
0.012705062
0.011418885
0.11355159
0.095289891
0.078674306
0.068166408
0.059841333
0.052856646
0.04684356
0.041606621
0.037023577
0.032997951
0.029450854
0.026316967
0.02354159
0.021078512
0.01888841
0.016937659
0.015197449
0.013642086
0.012246275
0.010996185
0.10897367
0.091327015
0.075367378
0.065266815
0.057271493
0.050564402
0.044790068
0.039761968
0.035362794
0.031499776
0.028096987
0.025091508
0.02243063
0.020069821
0.017971198
0.01610237
0.014435649
0.012946476
0.011610067
0.010412425
0.1030106
0.086208413
0.071117343
0.061553324
0.05398666
0.047639433
0.04217463
0.037416981
0.033255573
0.029602548
0.026385909
0.023545936
0.021032563
0.018803472
0.016822653
0.015059304
0.013487093
0.012082865
0.010823048
0.0096932976
0.095832284
0.080083027
0.066048432
0.057135403
0.050084362
0.044169116
0.039075882
0.034642653
0.030766196
0.0273646
0.024370669
0.021728584
0.019391504
0.017319806
0.01547975
0.013842427
0.012383049
0.011079988
0.0099116876
0.0088638753
0.087644981
0.07312947
0.060307691
0.05214143
0.045678402
0.040254973
0.035584684
0.031520443
0.027967786
0.024851649
0.022110363
0.019692627
0.017555344
0.015662025
0.013981568
0.012487259
0.011156033
0.0099678038
0.008903613
0.0079501903
0.078683858
0.065549702
0.054060258
0.046714732
0.040895333
0.036009486
0.031801281
0.02813979
0.024940199
0.022135002
0.019668665
0.017494929
0.015574896
0.013875615
0.012368975
0.011030778
0.0098399589
0.0087780576
0.0078290557
0.0069816093
0.069204471
0.057561499
0.047483388
0.041008353
0.035869777
0.031551947
0.027831641
0.024594866
0.021767115
0.019289006
0.017111623
0.015194168
0.013502325
0.012007021
0.01068346
0.0095102856
0.0084688119
0.0075425726
0.0067188786
0.005988369
0.059473512
0.049392365
0.040760135
0.035178384
0.030737942
0.02700236
0.023781843
0.020979586
0.0185318
0.016387592
0.014504972
0.012848871
0.011389774
0.010102693
0.0089663549
0.0079625389
0.0070755568
0.0062921815
0.0056041514
0.005002509
0.010279446
0.0089066499
0.0077427239
0.006732317
0.0058692307
0.0051300084
0.0044942973
0.0039446383
0.003466838
0.0030493704
0.0026829017
0.0023599539
0.0020745242
0.0018217307
0.0015975478
0.0013986128
0.0012220782
0.0010654999
0.00092675504
0.00080398059
0.00069552673
0.0005999209
0.00051584003
0.00044208885
0.00037758323
0.00032133714
0.00027245238
0.0002301104
0.00019356577
0.0001621406
0.00013521992
0.00011224743
9.2721741e-05
7.6192657e-05
6.225779e-05
5.0559047e-05
4.0779422e-05
3.2639523e-05
2.5894731e-05
2.0331276e-05
1.5765305e-05
1.2034565e-05
9.0101307e-06
6.5573662e-06
4.6235064e-06
3.0305389e-06
1.9287266e-06
8.8690542e-07
1.1687918e-06
1.9319526e-06
0.010080015
0.0087527627
0.0076221446
0.0066373259
0.0057952511
0.0050729898
0.0044503932
0.0039106621
0.0034403291
0.0030284452
0.0026661573
0.0023463842
0.0020634155
0.0018125697
0.001589957
0.001392307
0.0012168353
0.0010611418
0.000923136
0.00080097961
0.00069304243
0.00059786798
0.0005141466
0.00044069441
0.00037643691
0.00032039627
0.00027168129
0.00022947938
0.00019305012
0.00016171984
0.00013487712
0.00011196864
9.2495446e-05
7.6009397e-05
6.2109788e-05
5.0439914e-05
4.0683911e-05
3.2563324e-05
2.5834306e-05
2.0283726e-05
1.5728252e-05
1.2006068e-05
8.9886089e-06
6.5415623e-06
4.6123948e-06
3.0233174e-06
1.9249161e-06
8.8465084e-07
1.1618003e-06
1.8946128e-06
0.0097290545
0.0084837606
0.0074134331
0.0064755573
0.0056712238
0.0049788812
0.0043790112
0.0038561311
0.0033982137
0.0029954516
0.002639897
0.0023251804
0.0020461012
0.0017983182
0.0015781667
0.0013825262
0.0012087135
0.001054399
0.00091754316
0.00079634665
0.00068921028
0.0005947029
0.00051153611
0.00043854403
0.00037466744
0.00031894154
0.0002704862
0.0002284982
0.00019224501
0.0001610596
0.00013433606
0.00011152564
9.2133178e-05
7.5713637e-05
6.1868856e-05
5.0244209e-05
4.0525532e-05
3.2435758e-05
2.5732179e-05
2.0202596e-05
1.566445e-05
1.195657e-05
8.9509349e-06
6.5137038e-06
4.5927315e-06
3.0105061e-06
1.9182582e-06
8.8068503e-07
1.1478302e-06
1.8216783e-06
0.0092481196
0.0081162556
0.0071315692
0.0062615159
0.0055101002
0.0048583879
0.0042886538
0.0037876095
0.0033454624
0.00295416
0.0026070388
0.0022986624
0.0020244736
0.0017805522
0.0015635077
0.0013704024
0.0011986782
0.0010460937
0.0009106747
0.00079067231
0.00068452763
0.0005908426
0.00050835644
0.00043592663
0.00037251369
0.00031716956
0.00026902821
0.0002272983
0.00019125723
0.00016024625
0.00013366628
0.0001109742
9.1679448e-05
7.5340733e-05
6.1562938e-05
4.9993907e-05
4.032147e-05
3.2270185e-05
2.5598663e-05
2.0095791e-05
1.5579907e-05
1.1890588e-05
8.9004543e-06
6.4762235e-06
4.5662134e-06
2.9932561e-06
1.9093212e-06
8.7549526e-07
1.1268766e-06
1.7168891e-06
0.0086584194
0.0076671705
0.0067919691
0.0060099682
0.005324871
0.004721836
0.0041871128
0.003710871
0.0032863477
0.0029078022
0.0025701333
0.002268931
0.0020003172
0.0017608161
0.0015473286
0.0013571155
0.0011877587
0.0010371197
0.00090330231
0.00078461865
0.000679559
0.00058676552
0.00050501079
0.0004331801
0.00037025735
0.00031531394
0.00026750009
0.00022603798
0.00019021616
0.00015938502
0.00013295297
0.00011038294
9.118926e-05
7.4934554e-05
6.1226841e-05
4.9716473e-05
4.0093273e-05
3.2083404e-05
2.5446769e-05
1.9973309e-05
1.5482235e-05
1.1813851e-05
8.8414159e-06
6.4322077e-06
4.5349891e-06
2.9730194e-06
1.8988012e-06
8.6970499e-07
1.0991417e-06
1.5857371e-06
0.0079780899
0.0071518904
0.0064085403
0.0057329326
0.0051250283
0.0045758453
0.0040786736
0.0036287684
0.0032229586
0.0028580781
0.0025306859
0.0022373838
0.0019749441
0.0017403331
0.0015307564
0.0013436903
0.0011768757
0.0010282948
0.00089614505
0.0007788123
0.00067484602
0.00058293641
0.00050189517
0.0004306398
0.00036818063
0.00031361082
0.00026609836
0.0002248799
0.00018925569
0.00015858558
0.00013228548
0.00010982428
9.0721004e-05
7.4541933e-05
6.0897925e-05
4.944154e-05
3.9864304e-05
3.1893717e-05
2.529073e-05
1.9846131e-05
1.5379823e-05
1.1732695e-05
8.7785226e-06
6.3850755e-06
4.5014273e-06
2.9513862e-06
1.8874272e-06
8.6397899e-07
1.0649529e-06
1.434888e-06
0.0072248453
0.0065858099
0.0059936706
0.0054376702
0.0049136779
0.0044210341
0.0039628512
0.003540769
0.0031552417
0.0028054619
0.002489554
0.0022051056
0.0019495428
0.0017203044
0.0015149455
0.0013312007
0.0011670055
0.0010204918
0.00088997276
0.000773925
0.00067096951
0.00057985335
0.00049943371
0.00042866445
0.00036658514
0.00031231228
0.00026503251
0.00022399723
0.00018851826
0.00015796446
0.00013175867
0.00010937507
9.0336617e-05
7.4212527e-05
6.0615788e-05
4.9200506e-05
3.965931e-05
3.17205e-05
2.5145606e-05
1.9725858e-05
1.528152e-05
1.1653778e-05
8.7166976e-06
6.3383802e-06
4.4679635e-06
2.9299702e-06
1.8759012e-06
8.5895708e-07
1.0247541e-06
1.2715544e-06
0.0064207485
0.0059865117
0.0055568641
0.0051231493
0.0046842852
0.0042505721
0.0038345983
0.003443883
0.0030819715
0.0027499929
0.0024475344
0.0021732757
0.0019254405
0.0017020656
0.0015011596
0.0013207976
0.0011591707
0.0010146031
0.00088555431
0.00077061238
0.00066848389
0.00057798198
0.00049801504
0.00042757666
0.00036573729
0.0003116373
0.00026448171
0.00022353589
0.00018812216
0.00015761714
0.00013144928
0.00010909668
9.0084946e-05
7.3985026e-05
6.0410917e-05
4.9017265e-05
3.9496905e-05
3.1578159e-05
2.5022466e-05
1.9620926e-05
1.5193685e-05
1.1581835e-05
8.659396e-06
6.2945858e-06
4.4362379e-06
2.9098376e-06
1.8645647e-06
8.550589e-07
9.7904972e-07
1.1029796e-06
0.0055876546
0.0053616073
0.0050881634
0.0047665948
0.0044120981
0.004044263
0.0036792606
0.0033276843
0.0029956142
0.0026861276
0.0024004543
0.0021386624
0.0019000683
0.0016835336
0.001487685
0.0013110577
0.0011521826
0.0010096349
0.00088205959
0.00076818334
0.00066681631
0.0005768498
0.00049725146
0.00042705995
0.00036537999
0.00031137799
0.00026427852
0.0002233615
0.00018795988
0.00015745784
0.00013128901
0.00010893486
8.9923019e-05
7.3825475e-05
6.0256572e-05
4.8870843e-05
3.9360729e-05
3.1454023e-05
2.4911583e-05
1.9523954e-05
1.51108e-05
1.1512818e-05
8.6037094e-06
6.2516615e-06
4.4048436e-06
2.8900747e-06
1.852638e-06
8.5207124e-07
9.2857126e-07
9.3659667e-07
0.0047585891
0.0046919616
0.0045431923
0.0043268299
0.0040656161
0.0037782267
0.0034783368
0.0031774303
0.0028841137
0.0026039156
0.002340123
0.002094546
0.0018679204
0.0016602023
0.0014708388
0.0012989759
0.0011435945
0.0010036002
0.00087788082
0.00076534205
0.00066492704
0.00057562661
0.00049648343
0.00042659306
0.00036510345
0.00031121384
0.00026417358
0.00022328108
0.00018788287
0.00015737282
0.00013119128
0.00010882412
8.9801646e-05
7.369724e-05
6.0125736e-05
4.8741558e-05
3.9236661e-05
3.1338153e-05
2.4806137e-05
1.9430414e-05
1.5029995e-05
1.1445012e-05
8.5487107e-06
6.2091476e-06
4.3736068e-06
2.8705255e-06
1.8400161e-06
8.4978766e-07
8.7523104e-07
7.8021386e-07
0.0038565367
0.003882348
0.0038351815
0.0037194901
0.0035568599
0.0033609077
0.0031410016
0.0029073693
0.0026694471
0.0024341815
0.0022063761
0.0019893543
0.0017852537
0.00159524
0.0014197637
0.0012587853
0.0011119369
0.00097863752
0.00085817681
0.00074977361
0.0006526149
0.00056588123
0.00048876319
0.00042047189
0.00036024578
0.00030735519
0.00026110538
0.00022083883
0.00018593681
0.0001558206
0.00012995215
0.00010783435
8.9010902e-05
7.30657e-05
5.9621837e-05
4.8340223e-05
3.8917902e-05
3.1085992e-05
2.4607751e-05
1.9275505e-05
1.4910227e-05
1.1353792e-05
8.4804192e-06
6.1601085e-06
4.3389324e-06
2.8504992e-06
1.825374e-06
8.4847831e-07
8.197543e-07
6.4255211e-07
0.0029892652
0.0030659538
0.0030822766
0.0030383238
0.0029513627
0.002831353
0.0026838223
0.0025166286
0.002338202
0.0021551881
0.0019725499
0.0017941111
0.0016226919
0.0014601926
0.0013077793
0.0011660742
0.0010352991
0.0009153848
0.00080605804
0.00070690674
0.0006174278
0.00053706112
0.00046521404
0.00040127893
0.00034464593
0.00029471247
0.00025089043
0.00021261178
0.0001793329
0.0001505381
0.00012574208
0.00010449192
8.6368113e-05
7.0985221e-05
5.7991752e-05
4.706964e-05
3.7933248e-05
3.0327928e-05
2.4028562e-05
1.8837025e-05
1.4581886e-05
1.1111604e-05
8.3046735e-06
6.0369931e-06
4.2537608e-06
2.7996899e-06
1.7891558e-06
8.4011598e-07
7.4900906e-07
5.1166309e-07
0.0022433975
0.0023534905
0.0024142207
0.0024254568
0.002397828
0.0023385963
0.0022511456
0.0021410532
0.0020152479
0.0018796617
0.0017390085
0.0015971928
0.0014573595
0.0013218687
0.0011923975
0.0010700813
0.00095562851
0.0008494134
0.00075155545
0.00066198483
0.00058049297
0.00050677132
0.00044044103
0.00038107569
0.00032821881
0.0002813975
0.00024013323
0.00020395052
0.00017238384
0.00014498323
0.0001213187
0.00010098367
8.359746e-05
6.8806937e-05
5.6287487e-05
4.5743289e-05
3.6907055e-05
2.9539227e-05
2.3427011e-05
1.8382408e-05
1.4242034e-05
1.0861342e-05
8.123272e-06
5.9101357e-06
4.1657114e-06
2.7475697e-06
1.7501815e-06
8.3284693e-07
6.7211744e-07
3.8875202e-07
0.0016165376
0.0017439003
0.0018319492
0.0018815193
0.001897412
0.0018844423
0.0018448171
0.0017821663
0.0017016246
0.0016080738
0.0015056706
0.001398059
0.0012883762
0.0011791657
0.0010723973
0.00096955176
0.00087169976
0.00077957028
0.00069361515
0.0006140667
0.00054098586
0.00047430114
0.00041384017
0.0003593552
0.00031054363
0.00026706458
0.0002285525
0.00019462825
0.00016490831
0.00013901229
0.00011656907
9.7221647e-05
8.0631002e-05
6.6478858e-05
5.4469635e-05
4.4331604e-05
3.5817382e-05
2.8703791e-05
2.2791434e-05
1.790331e-05
1.3884784e-05
1.0598874e-05
7.9333893e-06
5.7774729e-06
4.0735061e-06
2.6927911e-06
1.7081776e-06
8.253936e-07
5.9462535e-07
2.8350085e-07
0.0011123851
0.0012404703
0.0013400704
0.0014118867
0.0014564038
0.001476059
0.0014721574
0.001446813
0.0014034056
0.001345579
0.0012767173
0.0011999584
0.0011181629
0.0010338055
0.00094893476
0.00086520098
0.00078389741
0.00070600133
0.00063221818
0.00056302608
0.00049871618
0.00043942779
0.00038517833
0.00033588893
0.00029140585
0.00025151855
0.00021597489
0.00018449399
0.00015677694
0.00013251596
0.00011140189
9.3130417e-05
7.7407042e-05
6.3950964e-05
5.2497986e-05
4.2802521e-05
3.4638858e-05
2.7801705e-05
2.2106321e-05
1.738775e-05
1.350097e-05
1.0317244e-05
7.7298319e-06
5.6351064e-06
3.9744023e-06
2.6331604e-06
1.6620886e-06
8.1636289e-07
5.1969296e-07
2.0098239e-07
0.0007262665
0.00084180977
0.00093969856
0.0010196812
0.0010794974
0.0011194894
0.001140018
0.0011420035
0.0011273207
0.0010983618
0.0010576185
0.0010075686
0.00095060892
0.00088894542
0.00082451812
0.0007589822
0.00069371414
0.00062982617
0.00056818845
0.0005094569
0.00045410235
0.00040243815
0.00035464569
0.00031079736
0.00027087691
0.00023479727
0.00020241615
0.00017354952
0.00014798334
0.0001254836
0.00010580491
8.8697704e-05
7.3914216e-05
6.1213277e-05
5.0364104e-05
4.1149116e-05
3.3365935e-05
2.6828603e-05
2.136829e-05
1.6833126e-05
1.3088599e-05
1.0014905e-05
7.5114024e-06
5.4820249e-06
3.867661e-06
2.5678321e-06
1.6117357e-06
8.0475232e-07
4.499119e-07
1.429463e-07
0.00044565999
0.00054053301
0.00062714553
0.00070424846
0.00076824909
0.00081798078
0.00085288619
0.00087292282
0.00087876939
0.00087169191
0.00085327671
0.00082527515
0.00078951171
0.00074778449
0.00070177813
0.0006530126
0.00060282049
0.00055233855
0.00050250964
0.00045409331
0.00040768159
0.00036371699
0.00032251113
0.00028426299
0.00024907621
0.00021697509
0.00018791925
0.0001618167
0.00013853571
0.00011791508
9.9773348e-05
8.3916566e-05
7.0144985e-05
5.8258591e-05
4.8061613e-05
3.9366044e-05
3.1994316e-05
2.578115e-05
2.057482e-05
1.6237575e-05
1.2646307e-05
9.6908443e-06
7.2773486e-06
5.3175909e-06
3.7528478e-06
2.4962167e-06
1.5572225e-06
7.8965557e-07
3.8726569e-07
1.0798802e-07
0.00025437664
0.00032514038
0.00039479768
0.00046147099
0.0005212834
0.00057223704
0.00061306757
0.00064300254
0.00066183574
0.00066991564
0.00066800438
0.00065714273
0.00063855393
0.00061355519
0.0005834758
0.0005495944
0.00051309533
0.00047504206
0.0004363629
0.0003978464
0.00036014388
0.00032377693
0.00028914773
0.00025655111
0.00022618737
0.00019817499
0.00017256311
0.00014934326
0.00012846029
0.00010982243
9.3310253e-05
7.8784768e-05
6.6094367e-05
5.5080841e-05
4.5584389e-05
3.7447703e-05
3.0519195e-05
2.4655416e-05
1.9722817e-05
1.5598733e-05
1.2172333e-05
9.3437651e-06
7.026731e-06
5.1410839e-06
3.6295134e-06
2.4178185e-06
1.4987727e-06
7.7036458e-07
3.3288988e-07
9.1891673e-08
0.00013547354
0.00018209685
0.00023244806
0.00028444033
0.00033453928
0.00038048818
0.00042063862
0.00045375508
0.00047904246
0.00049617658
0.00050524669
0.00050666531
0.000501089
0.00048934625
0.00047236684
0.00045112041
0.00042656741
0.00039962082
0.00037111978
0.00034181337
0.00031235199
0.00028328493
0.00025506222
0.00022803989
0.00020248723
0.00017859538
0.00015648658
0.00013622365
0.00011781921
0.0001012447
8.6438716e-05
7.33147e-05
6.176788e-05
5.1681375e-05
4.2931465e-05
3.5392028e-05
2.8938173e-05
2.3449099e-05
1.8810298e-05
1.4915011e-05
1.1665476e-05
8.9728018e-06
6.7589619e-06
4.9521119e-06
3.4974915e-06
2.3324946e-06
1.4368364e-06
7.4660519e-07
2.8714561e-07
8.8695226e-08
7.2955098e-05
9.7572952e-05
0.00012874458
0.00016448583
0.000201896
0.00023884776
0.00027362468
0.00030479703
0.00033124981
0.00035223131
0.00036734572
0.00037650772
0.00037989107
0.00037787731
0.0003710027
0.00035990556
0.00034527971
0.00032783508
0.0003082653
0.00028722353
0.00026530592
0.00024304107
0.00022088458
0.00019921751
0.00017834807
0.00015851548
0.0001398955
0.0001226068
0.00010671805
9.2255124e-05
7.9208244e-05
6.7538876e-05
5.7186151e-05
4.8072737e-05
4.0110069e-05
3.3202893e-05
2.7253113e-05
2.2162952e-05
1.7837466e-05
1.41864e-05
1.1125696e-05
8.5779695e-06
6.4741373e-06
4.7508564e-06
3.3570716e-06
2.2405793e-06
1.3721062e-06
7.1861415e-07
2.4979965e-07
9.214633e-08
5.2756167e-05
5.8650218e-05
7.2371319e-05
9.221421e-05
0.00011598629
0.00014189928
0.00016840059
0.00019408983
0.00021775726
0.00023844279
0.0002554571
0.0002683704
0.00027698893
0.00028132637
0.00028156996
0.0002780426
0.00027116457
0.00026141816
0.00024931644
0.00023537644
0.00022009791
0.00020394759
0.00018734804
0.00017067071
0.00015423238
0.00013829449
0.00012306467
0.00010869984
9.5310535e-05
8.2965957e-05
7.1699475e-05
6.151423e-05
5.2388671e-05
4.4281832e-05
3.7138211e-05
3.0892162e-05
2.5471743e-05
2.0801984e-05
1.6807601e-05
1.3415113e-05
1.0554563e-05
8.1604691e-06
6.1732417e-06
4.5382017e-06
3.2090771e-06
2.1429178e-06
1.3054903e-06
6.8711628e-07
2.2023136e-07
9.7068261e-08
6.3133063e-05
5.3977116e-05
5.2835029e-05
5.8342877e-05
6.8968421e-05
8.3336869e-05
0.0001001867
0.0001182975
0.00013653101
0.00015389389
0.00016957286
0.00018294486
0.0001935755
0.00020121044
0.00020575986
0.0002072764
0.0002059291
0.00020197608
0.00019573816
0.00018757439
0.0001778604
0.00016697017
0.00015526178
0.00014306661
0.00013068186
0.0001183659
0.00010633615
9.4768939e-05
8.380094e-05
7.353186e-05
6.4027913e-05
5.5325853e-05
4.7437289e-05
4.035303e-05
3.4047336e-05
2.8481883e-05
2.360939e-05
1.937681e-05
1.5728065e-05
1.2606305e-05
9.9557588e-06
7.7230145e-06
5.8583453e-06
4.3158303e-06
3.0548937e-06
2.0408198e-06
1.2380317e-06
6.5317565e-07
1.9755026e-07
1.0017997e-07
9.4651254e-05
7.4018521e-05
6.0903863e-05
5.4272336e-05
5.3145687e-05
5.6550882e-05
6.3556713e-05
7.3198251e-05
8.4511176e-05
9.6591037e-05
0.00010863217
0.00011994814
0.00012998363
0.00013832054
0.00014467716
0.00014890026
0.00015095169
0.00015089125
0.00014885775
0.00014504966
0.00013970642
0.00013309108
0.00012547529
0.00011712676
0.00010829937
9.922575e-05
9.0112239e-05
8.1135892e-05
7.2443275e-05
6.4150733e-05
5.6345786e-05
4.9089391e-05
4.2418787e-05
3.6350688e-05
3.0884631e-05
2.6006295e-05
2.1690678e-05
1.7905011e-05
1.461136e-05
1.1768867e-05
9.3356356e-06
7.2702033e-06
5.5328298e-06
4.0863302e-06
2.8964995e-06
1.9359996e-06
1.1708477e-06
6.1802344e-07
1.8066366e-07
1.0018325e-07
0.00013996002
0.00011104565
8.8783285e-05
7.2417092e-05
6.139763e-05
5.5096404e-05
5.2893078e-05
5.4093562e-05
5.7952798e-05
6.3725215e-05
7.0700522e-05
7.8226204e-05
8.5725155e-05
9.2709955e-05
9.8791884e-05
0.00010368376
0.00010719713
0.00010923506
0.00010978162
0.00010888916
0.00010666454
0.00010325504
9.8834965e-05
9.3593405e-05
8.7723656e-05
8.1414445e-05
7.4843035e-05
6.817015e-05
6.1536615e-05
5.5061497e-05
4.884154e-05
4.295164e-05
3.7446144e-05
3.2360738e-05
2.7714716e-05
2.3513464e-05
1.975099e-05
1.6412392e-05
1.3476155e-05
1.0916221e-05
8.7038084e-06
6.808928e-06
5.2016468e-06
3.8533239e-06
2.7365052e-06
1.8305162e-06
1.1050831e-06
5.8288423e-07
1.6832168e-07
9.7238428e-08
0.00019347519
0.0001589751
0.00013011033
0.00010634343
8.7433558e-05
7.3022622e-05
6.2750816e-05
5.6171016e-05
5.275973e-05
5.1956553e-05
5.3193141e-05
5.5912707e-05
5.9587649e-05
6.3736407e-05
6.7937278e-05
7.1837737e-05
7.5159187e-05
7.7697599e-05
7.9320589e-05
7.9961549e-05
7.9611559e-05
7.8309878e-05
7.6133773e-05
7.3188315e-05
6.9596731e-05
6.5491701e-05
6.1007829e-05
5.6275486e-05
5.1416006e-05
4.6538249e-05
4.1736398e-05
3.708885e-05
3.2658032e-05
2.8490959e-05
2.4620367e-05
2.1066223e-05
1.7837483e-05
1.4933955e-05
1.2348151e-05
1.0067054e-05
8.0737365e-06
6.3488105e-06
4.8716201e-06
3.6216514e-06
2.57825e-06
1.7267776e-06
1.0419407e-06
5.4888871e-07
1.5924039e-07
9.2210678e-08
0.00025104783
0.00021313851
0.00017983793
0.00015077053
0.00012590143
0.00010506954
8.8114888e-05
7.4793496e-05
6.4778802e-05
5.7690503e-05
5.3115701e-05
5.0623093e-05
4.9777261e-05
5.0154171e-05
5.1355691e-05
5.3021496e-05
5.483791e-05
5.6543683e-05
5.7932737e-05
5.8854037e-05
5.9208933e-05
5.8946454e-05
5.8057135e-05
5.6565921e-05
5.4524675e-05
5.2004767e-05
4.9090109e-05
4.5870906e-05
4.243832e-05
3.8880124e-05
3.5277393e-05
3.170217e-05
2.8216039e-05
2.4869481e-05
2.1701896e-05
1.8742127e-05
1.6009376e-05
1.351436e-05
1.1260613e-05
9.245831e-06
7.4631844e-06
5.9025811e-06
4.5517354e-06
3.39757e-06
2.4259307e-06
1.6275962e-06
9.8276017e-07
5.1706339e-07
1.5228983e-07
8.605608e-08
0.00030966214
0.00027003678
0.00023406462
0.00020148605
0.00017239171
0.00014675412
0.00012455477
0.00010570336
9.0032693e-05
7.7318769e-05
6.7294851e-05
5.9660039e-05
5.4088959e-05
5.02438e-05
4.7786869e-05
4.6392122e-05
4.5755132e-05
4.5601245e-05
4.5691675e-05
4.5827345e-05
4.585048e-05
4.5644133e-05
4.5129928e-05
4.4264394e-05
4.3034305e-05
4.145139e-05
3.954684e-05
3.7365904e-05
3.4962849e-05
3.2396486e-05
2.9726358e-05
2.7009701e-05
2.4299128e-05
2.1641056e-05
1.9074766e-05
1.6632032e-05
1.4337199e-05
1.2207618e-05
1.0254332e-05
8.4829175e-06
6.8944109e-06
5.4862875e-06
4.2533346e-06
3.1889166e-06
2.2847312e-06
1.5362858e-06
9.2914089e-07
4.883981e-07
1.4670028e-07
7.9527937e-08
0.00036717849
0.00032710883
0.00028984751
0.00025521654
0.00022337335
0.00019437408
0.00016829212
0.00014514448
0.00012488302
0.000107408
9.2576622e-05
8.0206842e-05
7.0082636e-05
6.1961959e-05
5.5586085e-05
5.0688989e-05
4.7006364e-05
4.4283924e-05
4.2284701e-05
4.0794923e-05
3.9628296e-05
3.862859e-05
3.7670595e-05
3.6659578e-05
3.552949e-05
3.4240158e-05
3.2773787e-05
3.1131052e-05
2.9327069e-05
2.738745e-05
2.5344665e-05
2.3234808e-05
2.1094893e-05
1.8960678e-05
1.6865056e-05
1.4836952e-05
1.2900687e-05
1.1075735e-05
9.3767932e-06
7.8141022e-06
6.3939303e-06
5.1192002e-06
3.9901049e-06
3.0051416e-06
2.1608795e-06
1.4567331e-06
8.8304128e-07
4.6393285e-07
1.4217644e-07
7.3140283e-08
0.00042212417
0.00038252947
0.00034502225
0.00030948201
0.00027609276
0.00024495749
0.00021620296
0.00018991464
0.00016612654
0.00014483027
0.00012597965
0.00010949115
9.524562e-05
8.3092531e-05
7.2855936e-05
6.4341009e-05
5.7340973e-05
5.1644121e-05
4.7040678e-05
4.3329066e-05
4.0321307e-05
3.7847319e-05
3.5758002e-05
3.3927073e-05
3.2251684e-05
3.0651963e-05
2.9069623e-05
2.7465859e-05
2.5818751e-05
2.4120389e-05
2.2373911e-05
2.0590634e-05
1.8787398e-05
1.6984236e-05
1.5202412e-05
1.3462858e-05
1.1785015e-05
1.0186034e-05
8.6803197e-06
7.2793417e-06
5.9916833e-06
4.8232846e-06
3.7777586e-06
2.8571328e-06
2.0615687e-06
1.3933955e-06
8.4681668e-07
4.4482527e-07
1.388783e-07
6.723303e-08
0.00047352715
0.00043504034
0.00039804202
0.0003624529
0.0003284579
0.00029618156
0.00026577598
0.00023736515
0.00021103476
0.00018683828
0.00016479914
0.00014490911
0.00012712757
0.00011138294
9.7575676e-05
8.5582103e-05
7.5258892e-05
6.6448135e-05
5.8982802e-05
5.2692232e-05
4.7407408e-05
4.2965714e-05
3.9215027e-05
3.6016949e-05
3.3249119e-05
3.0806581e-05
2.8602248e-05
2.6566552e-05
2.4646422e-05
2.2803727e-05
2.1013367e-05
1.9261157e-05
1.7541657e-05
1.5856062e-05
1.4210262e-05
1.2613127e-05
1.1075072e-05
9.6069033e-06
8.2189598e-06
6.9205213e-06
5.7194587e-06
4.622114e-06
3.6333046e-06
2.756749e-06
1.9946783e-06
1.3511643e-06
8.2315228e-07
4.3235872e-07
1.3728533e-07
6.2027739e-08
0.00052078596
0.00048381223
0.00044783952
0.00041281923
0.00037892211
0.00034627786
0.000315045
0.00028536449
0.00025735039
0.00023109403
0.00020666484
0.0001841077
0.00016344077
0.00014465511
0.00012771546
0.00011256178
9.9111634e-05
8.7263108e-05
7.6898578e-05
6.7888768e-05
6.0097099e-05
5.3383989e-05
4.7610972e-05
4.2644405e-05
3.8358637e-05
3.4638523e-05
3.1381221e-05
2.8497271e-05
2.5910993e-05
2.356026e-05
2.1395773e-05
1.9379932e-05
1.7485434e-05
1.5693722e-05
1.3993381e-05
1.2378582e-05
1.0847642e-05
9.4017545e-06
8.0439119e-06
6.7780513e-06
5.6084077e-06
4.5390917e-06
3.5738105e-06
2.7159893e-06
1.9682404e-06
1.3350563e-06
8.1487532e-07
4.278766e-07
1.3801942e-07
5.7655476e-08
0.00056356712
0.00052833345
0.00049371091
0.000459675
0.00042637452
0.00039393457
0.00036250828
0.00033223912
0.00030325288
0.00027566068
0.000249559
0.00022502684
0.00020212293
0.00018088425
0.00016132544
0.00014343877
0.00012719473
0.00011254326
9.9415798e-05
8.772779e-05
7.7381708e-05
6.8270371e-05
6.0280426e-05
5.3295788e-05
4.7200928e-05
4.1883822e-05
3.7238478e-05
3.3166943e-05
2.9580766e-05
2.6401895e-05
2.3563046e-05
2.1007601e-05
1.8689114e-05
1.6570504e-05
1.4623032e-05
1.2825168e-05
1.1161398e-05
9.6210692e-06
8.1973195e-06
6.8861231e-06
5.6854919e-06
4.5948519e-06
3.6145493e-06
2.7457161e-06
1.9895966e-06
1.3496936e-06
8.2463496e-07
4.3263843e-07
1.4168304e-07
5.4175762e-08
0.00060172554
0.0005683212
0.00053522088
0.00050242022
0.00047004301
0.00043820466
0.00040704623
0.00037670484
0.00034730703
0.00031897097
0.00029180615
0.00026591076
0.00024136882
0.00021824827
0.00019659958
0.00017645478
0.00015782685
0.00014070972
0.00012507884
0.00011089232
9.8092643e-05
8.6608741e-05
7.6358542e-05
6.7251667e-05
5.9192283e-05
5.2081914e-05
4.582212e-05
4.0316902e-05
3.5474779e-05
3.1210449e-05
2.7446015e-05
2.4111779e-05
2.1146609e-05
1.8497942e-05
1.6121473e-05
1.3980592e-05
1.2045656e-05
1.0293158e-05
8.7048465e-06
7.2668753e-06
5.9690027e-06
4.8039024e-06
3.7665542e-06
2.8539348e-06
2.0642357e-06
1.3985657e-06
8.5445372e-07
4.476029e-07
1.4873276e-07
5.15959e-08
0.00063523635
0.00060364493
0.00057211904
0.00054067214
0.00050940293
0.00047841504
0.00044783452
0.00041778734
0.00038839419
0.000359772
0.00033203365
0.00030528563
0.00027962551
0.00025513993
0.00023190296
0.00020997458
0.00018939948
0.00017020614
0.00015240644
0.00013599575
0.00012095338
0.00010724369
9.481744e-05
8.3613636e-05
7.3561623e-05
6.4583369e-05
5.6595843e-05
4.9513368e-05
4.3249866e-05
3.7720876e-05
3.2845323e-05
2.8546936e-05
2.4755333e-05
2.1406746e-05
1.844442e-05
1.5818695e-05
1.3486852e-05
1.1412742e-05
9.5662796e-06
7.9228454e-06
6.4626504e-06
5.1701189e-06
4.0332861e-06
3.0434135e-06
2.1941671e-06
1.4829813e-06
9.0510045e-07
4.7311449e-07
1.5935888e-07
4.9883968e-08
0.00066414963
0.00063427395
0.00060428113
0.00057420136
0.00054410967
0.00051409777
0.00048427613
0.00045475771
0.00042565394
0.0003970758
0.00036913346
0.00034193447
0.00031558158
0.00029017098
0.00026579053
0.00024251824
0.00022042064
0.00019955151
0.00017995084
0.00016164411
0.000144642
0.00012894048
0.00011452123
0.00010135263
8.9390945e-05
7.858191e-05
6.8862556e-05
6.0163172e-05
5.2409357e-05
4.552406e-05
3.9429519e-05
3.4049036e-05
2.9308528e-05
2.5137806e-05
2.1471577e-05
1.8250142e-05
1.5419824e-05
1.2933144e-05
1.0748773e-05
8.8313177e-06
7.1509813e-06
5.6831479e-06
4.407904e-06
3.309697e-06
2.3765417e-06
1.6011743e-06
9.7556366e-07
5.0864946e-07
1.7341771e-07
4.8978213e-08
0.00068852257
0.00066020197
0.00063162643
0.00060284238
0.00057390344
0.00054489044
0.0005158993
0.00048702998
0.00045838356
0.00043006284
0.00040217207
0.00037481553
0.0003480958
0.00032211225
0.00029695946
0.00027272574
0.00024949142
0.00022732747
0.00020629407
0.00018643953
0.00016779933