/*--------------------------------*- C++ -*----------------------------------*\
  =========                 |
  \\      /  F ield         | OpenFOAM: The Open Source CFD Toolbox
   \\    /   O peration     | Website:  https://openfoam.org
    \\  /    A nd           | Version:  6
     \\/     M anipulation  |
\*---------------------------------------------------------------------------*/
FoamFile
{
    version     2.0;
    format      ascii;
    class       volScalarField;
    location    "253";
    object      pMean;
}
// * * * * * * * * * * * * * * * * * * * * * * * * * * * * * * * * * * * * * //

dimensions      [0 2 -2 0 0 0 0];

internalField   nonuniform List<scalar> 
9200
(
-0.39058903
-0.37876717
-0.36822155
-0.35889371
-0.34977221
-0.34086306
-0.33224812
-0.32389277
-0.31572686
-0.30767692
-0.2996696
-0.29163654
-0.28352142
-0.2752871
-0.26692592
-0.25847692
-0.25002026
-0.24164665
-0.23436708
-0.23240784
-0.4088432
-0.39457161
-0.3820873
-0.37123359
-0.36072606
-0.35053955
-0.34074634
-0.33128157
-0.32204402
-0.31293533
-0.30386379
-0.29474997
-0.28553426
-0.27618252
-0.26669123
-0.25709095
-0.2474172
-0.23767472
-0.22854012
-0.22215981
-0.42745479
-0.41072014
-0.39634919
-0.38404227
-0.3722031
-0.36075742
-0.34975677
-0.33909933
-0.32865197
-0.31829649
-0.30793295
-0.29748499
-0.28690628
-0.27618305
-0.26533345
-0.25440259
-0.24343494
-0.23244379
-0.2218275
-0.21270001
-0.44597372
-0.42680322
-0.41061491
-0.39691636
-0.38376285
-0.37101528
-0.35869766
-0.34667205
-0.33478269
-0.32290804
-0.31096152
-0.29889383
-0.28669541
-0.27439353
-0.26204498
-0.2497255
-0.2375059
-0.22542729
-0.21375782
-0.20324263
-0.46375344
-0.44225795
-0.42437196
-0.40935791
-0.39489631
-0.38077352
-0.3669873
-0.35337575
-0.33978225
-0.32610983
-0.31231513
-0.29840365
-0.28442474
-0.27046099
-0.25661435
-0.24299188
-0.22968551
-0.21675347
-0.20438448
-0.19309122
-0.47995385
-0.45634943
-0.43694343
-0.42070176
-0.40492227
-0.38931829
-0.3738754
-0.35843482
-0.34287408
-0.32715724
-0.31131645
-0.29543558
-0.27963512
-0.26405363
-0.24882956
-0.23408648
-0.21991829
-0.20637831
-0.19359206
-0.18190071
-0.49355629
-0.46817711
-0.44748976
-0.43011909
-0.41299931
-0.39578823
-0.37848868
-0.36098677
-0.34323886
-0.32530884
-0.3073313
-0.28948076
-0.27194647
-0.25490904
-0.23852238
-0.22290322
-0.2081242
-0.19421226
-0.18123271
-0.16938923
-0.50338642
-0.47669948
-0.45504248
-0.43666569
-0.41819166
-0.39925823
-0.37992943
-0.36018891
-0.34011981
-0.31991955
-0.29984089
-0.28014702
-0.26108017
-0.24283905
-0.22556697
-0.20935024
-0.19422131
-0.18016697
-0.16719364
-0.15538887
-0.50809434
-0.48063122
-0.45830424
-0.43899511
-0.41911544
-0.39834663
-0.37687432
-0.35483634
-0.33248064
-0.31015178
-0.28821233
-0.26699026
-0.2467494
-0.22767528
-0.20987481
-0.1933859
-0.17819081
-0.16423255
-0.15146284
-0.13986949
-0.50632731
-0.47854927
-0.4557198
-0.43543578
-0.4140467
-0.39136159
-0.36775229
-0.34355461
-0.31919259
-0.2951388
-0.27182679
-0.24960326
-0.22871099
-0.20929009
-0.19139155
-0.17499717
-0.16004011
-0.14642578
-0.13405847
-0.12283896
-0.273621
-0.27808476
-0.28026519
-0.28072644
-0.28020524
-0.27887628
-0.27683029
-0.27415999
-0.27093957
-0.26722573
-0.26306466
-0.25849589
-0.25355452
-0.24827255
-0.24268018
-0.23680828
-0.23068983
-0.22434739
-0.21778165
-0.21108193
-0.27648839
-0.28052096
-0.2823866
-0.28262605
-0.28192045
-0.28043579
-0.27826076
-0.27548394
-0.27217569
-0.26838965
-0.26416944
-0.25955237
-0.25457149
-0.2492567
-0.24363547
-0.23773753
-0.23160325
-0.22525353
-0.21858079
-0.21155853
-0.2820749
-0.28526661
-0.28652002
-0.28632579
-0.2852589
-0.28346977
-0.28104313
-0.27805954
-0.27458189
-0.27065781
-0.26632577
-0.26161855
-0.25656518
-0.25119149
-0.2455199
-0.23957704
-0.23341446
-0.22705209
-0.22018868
-0.21255881
-0.29011922
-0.29211079
-0.29247996
-0.29164834
-0.29004454
-0.28779918
-0.28499236
-0.28169379
-0.27795598
-0.27381819
-0.26931153
-0.26446227
-0.25929355
-0.25382521
-0.24807264
-0.24205696
-0.23584119
-0.22945021
-0.2223371
-0.21385966
-0.30029249
-0.30078879
-0.3000355
-0.29837569
-0.29606392
-0.29320992
-0.28988983
-0.286161
-0.28206374
-0.27762739
-0.27287421
-0.26782168
-0.26248501
-0.25687678
-0.25100405
-0.24487932
-0.23857299
-0.23212342
-0.22472879
-0.21522918
-0.31225386
-0.31102617
-0.30894937
-0.30628781
-0.30310625
-0.29949519
-0.29552901
-0.29125301
-0.28669466
-0.28187092
-0.27679265
-0.27146754
-0.26590153
-0.26009848
-0.25405613
-0.2477756
-0.24132683
-0.23476761
-0.22707204
-0.21644847
-0.32570053
-0.3225779
-0.31901309
-0.31519837
-0.31100153
-0.30649744
-0.30176264
-0.29683
-0.29171153
-0.28641109
-0.28092745
-0.27525651
-0.26939324
-0.26333171
-0.25706055
-0.2505693
-0.24392061
-0.23719481
-0.22920611
-0.21747043
-0.34039735
-0.33525248
-0.33007027
-0.32498034
-0.31965102
-0.31414469
-0.30854045
-0.30285815
-0.29709442
-0.29123815
-0.28527321
-0.27918085
-0.2729422
-0.26653914
-0.25995078
-0.25315818
-0.24622169
-0.23926766
-0.23106877
-0.21845031
-0.35617606
-0.34890316
-0.34199682
-0.33553392
-0.32897744
-0.3223762
-0.31581387
-0.30929695
-0.30280402
-0.29630596
-0.28976847
-0.28315429
-0.27642552
-0.2695441
-0.26246721
-0.25514937
-0.24761654
-0.2399781
-0.23100567
-0.21723579
-0.37292583
-0.36340892
-0.354666
-0.34672614
-0.33883474
-0.33102695
-0.32339106
-0.31591816
-0.30856663
-0.30128813
-0.29403031
-0.28673956
-0.27936411
-0.27185408
-0.26415633
-0.25621012
-0.24796243
-0.2392136
-0.2283446
-0.21236516
-0.2034957
-0.19405196
-0.1846314
-0.17530778
-0.16602421
-0.15682145
-0.14775512
-0.13886126
-0.13016871
-0.12170545
-0.11349654
-0.1055631
-0.097922807
-0.090590337
-0.0835774
-0.076892834
-0.070542746
-0.064530668
-0.058857685
-0.053522584
-0.048522008
-0.043850627
-0.039501318
-0.035465351
-0.031732592
-0.0282917
-0.025130335
-0.022235366
-0.019593066
-0.017189307
-0.015009744
-0.013039988
-0.011265766
-0.0096730655
-0.0082482695
-0.0069782795
-0.0058506346
-0.0048536026
-0.0039763572
-0.0032088813
-0.0025428445
-0.0019694428
-0.0014871835
-0.0010789927
-0.00078456832
-0.00048584787
-0.0005525851
4.2253613e-05
-0.0017906508
0.0026911026
-0.20470043
-0.19483461
-0.18529183
-0.17597558
-0.1666645
-0.15742097
-0.14832054
-0.13939541
-0.1306716
-0.1221777
-0.11393918
-0.10597703
-0.098308904
-0.090949532
-0.083910689
-0.077201261
-0.070827401
-0.064792681
-0.059098218
-0.053742818
-0.048723133
-0.044033833
-0.039667783
-0.035616234
-0.031869021
-0.02841477
-0.025241102
-0.022334838
-0.019682202
-0.017269015
-0.015080878
-0.013103349
-0.011322097
-0.0097230564
-0.0082925554
-0.0070174429
-0.0058852063
-0.0048840635
-0.0040031404
-0.0032323731
-0.0025633851
-0.0019873291
-0.0015026512
-0.0010922737
-0.00079562295
-0.0004952337
-0.00055819962
3.4740185e-05
-0.0017778137
0.002662021
-0.2071745
-0.19641466
-0.1866315
-0.17737275
-0.16802184
-0.15869876
-0.14953321
-0.14054768
-0.13176085
-0.12320364
-0.11490299
-0.10687979
-0.099151795
-0.091734084
-0.084638718
-0.077874784
-0.071448624
-0.065363964
-0.05962204
-0.054221742
-0.049159773
-0.044430821
-0.040027743
-0.035941756
-0.032162642
-0.028678951
-0.025478216
-0.022547156
-0.019871884
-0.017438103
-0.015231291
-0.013236877
-0.011440407
-0.0098276847
-0.0083849167
-0.0070988293
-0.0059567922
-0.0049469097
-0.0040581985
-0.0032804897
-0.0026053044
-0.0020236974
-0.0015339889
-0.0011190721
-0.00081786085
-0.00051398914
-0.00056944684
1.9962222e-05
-0.0017524856
0.0026044441
-0.21068945
-0.19850421
-0.18837385
-0.17930285
-0.16994489
-0.16052282
-0.15128187
-0.14222725
-0.1333614
-0.12472055
-0.11633577
-0.10822808
-0.10041557
-0.092914211
-0.085736812
-0.078892995
-0.072389552
-0.066230596
-0.060417669
-0.054949889
-0.049824118
-0.045035144
-0.040575867
-0.0364375
-0.032609778
-0.02908117
-0.025839096
-0.022870139
-0.020160257
-0.017694981
-0.015459608
-0.013439382
-0.011619654
-0.0099860376
-0.0085245488
-0.0072217275
-0.0060647621
-0.005041582
-0.0041410355
-0.003352791
-0.0026682121
-0.002078202
-0.0015808903
-0.0011591182
-0.00085104362
-0.00054190528
-0.0005861776
-1.8611949e-06
-0.001715162
0.0025195821
-0.21494323
-0.20077592
-0.19019975
-0.18151971
-0.17224315
-0.16272663
-0.15342162
-0.14431397
-0.13537392
-0.12664499
-0.11816722
-0.10996307
-0.10205115
-0.094448991
-0.087170891
-0.080227566
-0.073626681
-0.067373101
-0.061468981
-0.055913914
-0.050705125
-0.045837653
-0.041304562
-0.037097147
-0.033205153
-0.029617
-0.026320008
-0.023300619
-0.020544614
-0.018037323
-0.015763821
-0.013709113
-0.011858308
-0.01019677
-0.0087102661
-0.0073850893
-0.006208188
-0.0051672579
-0.0042509222
-0.0034486313
-0.002751537
-0.0021503382
-0.0016429101
-0.001212021
-0.00089483092
-0.00057867882
-0.00060820007
-3.0381251e-05
-0.0016666687
0.0024093195
-0.21952497
-0.20290446
-0.19180156
-0.18374963
-0.17470573
-0.16513281
-0.15578991
-0.146666
-0.13768048
-0.12887831
-0.12031371
-0.11201405
-0.1039992
-0.09628875
-0.088899389
-0.08184375
-0.075131006
-0.068767278
-0.062755776
-0.057096949
-0.051788682
-0.046826519
-0.042203885
-0.037912309
-0.033941661
-0.030280395
-0.026915783
-0.023834155
-0.021021121
-0.018461802
-0.016141028
-0.014043534
-0.012154143
-0.010457924
-0.0089403413
-0.0075873909
-0.006385725
-0.0053227509
-0.0043868131
-0.0035670903
-0.0028544705
-0.0022393981
-0.0017194297
-0.0012772427
-0.00094876142
-0.00062390658
-0.00063526589
-6.5158915e-05
-0.0016080735
0.002276107
-0.22399775
-0.20468248
-0.19294747
-0.18569116
-0.17710587
-0.16758977
-0.15824949
-0.14915061
-0.14016598
-0.13132486
-0.12269398
-0.11431106
-0.10619975
-0.098382253
-0.090878427
-0.083703862
-0.076870092
-0.07038516
-0.064253892
-0.058478065
-0.053056628
-0.047985951
-0.043260076
-0.038870976
-0.034808805
-0.031062166
-0.027618368
-0.024463681
-0.021583579
-0.018962977
-0.016586454
-0.014438455
-0.012503487
-0.010766283
-0.0092119654
-0.0078261813
-0.0065952393
-0.0055062084
-0.004547104
-0.0037067839
-0.0029758229
-0.0023443635
-0.0018095822
-0.001354053
-0.001012228
-0.00067708493
-0.00066707252
-0.00010572187
-0.0015406052
0.0021228146
-0.22807791
-0.206488
-0.19385625
-0.18715598
-0.17922371
-0.17000008
-0.16074582
-0.15170073
-0.14275736
-0.13391776
-0.12524781
-0.11679824
-0.10860092
-0.10068195
-0.093064819
-0.085768859
-0.078808805
-0.072195287
-0.065935276
-0.060032343
-0.054486894
-0.049296454
-0.044455958
-0.039958039
-0.035793314
-0.031950674
-0.028417567
-0.025180276
-0.022224185
-0.019534032
-0.017094153
-0.014888698
-0.012901835
-0.011117938
-0.0095217515
-0.0080985363
-0.0068342152
-0.005715475
-0.0047299577
-0.0038661547
-0.0031142828
-0.0024641393
-0.0019124608
-0.0014417118
-0.0010846378
-0.00073774613
-0.00070337353
-0.00015166524
-0.0014656318
0.0019526856
-0.22942723
-0.20852105
-0.19518411
-0.18806992
-0.18062456
-0.17198225
-0.16300342
-0.15408299
-0.14523894
-0.13646637
-0.12781451
-0.11934217
-0.11109278
-0.10309869
-0.09538771
-0.087983588
-0.080905175
-0.07416658
-0.067777713
-0.061744644
-0.05606988
-0.050752668
-0.045789325
-0.041173565
-0.036896818
-0.032948549
-0.029316578
-0.025987382
-0.022946391
-0.020178266
-0.017667164
-0.015396976
-0.013351552
-0.011514902
-0.0098713748
-0.0084058192
-0.0071037362
-0.0059513894
-0.0049360029
-0.0040456549
-0.0032701552
-0.0025989083
-0.0020281484
-0.0015402153
-0.0011659348
-0.00080573073
-0.00074418711
-0.00020240489
-0.0013849551
0.0017699522
-0.21976021
-0.20787356
-0.19643065
-0.18791525
-0.1804174
-0.17256446
-0.16420145
-0.15565302
-0.14709791
-0.13856415
-0.13008216
-0.12171118
-0.11350761
-0.1055147
-0.097768137
-0.090298813
-0.083132288
-0.076288538
-0.06978246
-0.063624363
-0.057820326
-0.052372556
-0.047279781
-0.042537636
-0.038139047
-0.034074604
-0.030332926
-0.026901018
-0.023764604
-0.020908449
-0.018316653
-0.015972928
-0.013860845
-0.011964063
-0.010266526
-0.0087526441
-0.0074074574
-0.0062167601
-0.0051673068
-0.004246707
-0.0034443081
-0.0027490632
-0.0021566445
-0.0016492179
-0.0012555621
-0.00088013843
-0.00078898743
-0.00025592045
-0.0013009908
0.0015802718
-0.19795431
-0.20183987
-0.19603311
-0.18675829
-0.17885626
-0.17142661
-0.16352119
-0.15528342
-0.14697679
-0.13866601
-0.13037391
-0.12215554
-0.11407131
-0.10616915
-0.098488202
-0.091062577
-0.083921058
-0.077086647
-0.070576964
-0.064404759
-0.058578285
-0.053101664
-0.047975287
-0.043196221
-0.038758608
-0.034654056
-0.030872027
-0.027400207
-0.024224859
-0.021331161
-0.018703521
-0.016325861
-0.014181883
-0.01225531
-0.010530093
-0.0089906062
-0.0076218141
-0.0064094061
-0.0053400052
-0.0044010739
-0.0035817624
-0.0028708902
-0.0022636393
-0.0017426022
-0.0013337037
-0.00094782055
-0.00082774585
-0.00030903524
-0.0012136303
0.0013919669
-0.18708571
-0.19207829
-0.18810971
-0.17908665
-0.1715478
-0.16491298
-0.15784703
-0.15035937
-0.14274107
-0.13506866
-0.12735597
-0.11965416
-0.1120263
-0.10452436
-0.097191426
-0.090065801
-0.083180684
-0.076563445
-0.07023589
-0.064214728
-0.058511922
-0.053135032
-0.048087607
-0.043369593
-0.038977738
-0.034905999
-0.03114593
-0.027687073
-0.02451733
-0.021623306
-0.018990644
-0.01660433
-0.014448967
-0.012509036
-0.010769117
-0.0092140947
-0.0078293441
-0.0066008743
-0.00551554
-0.004560982
-0.0037263917
-0.0030007527
-0.0023787426
-0.0018440198
-0.0014185094
-0.001022632
-0.00086857776
-0.00037122421
-0.0011131142
0.0011879145
-0.17795505
-0.1804604
-0.17772988
-0.1704663
-0.16382568
-0.15792491
-0.15166058
-0.14493548
-0.13801042
-0.1309812
-0.12386406
-0.11670431
-0.10956395
-0.10249697
-0.095548833
-0.088760515
-0.082168429
-0.075803467
-0.069691032
-0.063851411
-0.058300064
-0.053047907
-0.048101665
-0.043464253
-0.039135169
-0.035110887
-0.031385252
-0.027949869
-0.024794478
-0.021907316
-0.019275455
-0.016885121
-0.014721988
-0.012771442
-0.011018827
-0.0094496596
-0.0080498276
-0.0068057493
-0.0057045845
-0.0047342155
-0.0038839162
-0.0031428866
-0.0025052652
-0.0019559292
-0.0015123611
-0.0011056288
-0.00091404239
-0.00044027712
-0.0010028419
0.00096348473
-0.16788338
-0.16792307
-0.16569029
-0.16051846
-0.15514221
-0.15002338
-0.14458371
-0.13870006
-0.13254539
-0.12622055
-0.11975718
-0.11319879
-0.10660416
-0.10002808
-0.093518035
-0.087117277
-0.08086497
-0.074795248
-0.068936989
-0.063314041
-0.057945429
-0.052845574
-0.048024576
-0.043488557
-0.039240025
-0.035278245
-0.031599627
-0.028198107
-0.025065525
-0.022191994
-0.019566242
-0.017175947
-0.015008039
-0.013048983
-0.011285036
-0.0097024751
-0.0082878155
-0.0070279796
-0.0059105121
-0.0049236006
-0.0040566509
-0.0032991141
-0.0026446054
-0.002079233
-0.001615976
-0.0011966343
-0.00096512906
-0.00051316155
-0.00089050775
0.00072896719
-0.15693739
-0.15523888
-0.15309189
-0.14964581
-0.14558842
-0.14131073
-0.13670006
-0.13168764
-0.12635478
-0.12078455
-0.11502367
-0.10911812
-0.10312261
-0.097090844
-0.091071397
-0.085108993
-0.079244786
-0.073515554
-0.067953264
-0.062585092
-0.057433532
-0.052516518
-0.047847631
-0.043436369
-0.039288467
-0.035406233
-0.031788911
-0.028433045
-0.025332851
-0.022480581
-0.019866876
-0.017481099
-0.015311655
-0.013346284
-0.01157233
-0.0099769882
-0.0085475331
-0.0072715059
-0.0061369323
-0.0051323822
-0.0042474568
-0.0034718935
-0.0027988346
-0.0022155644
-0.0017307113
-0.0012963545
-0.0010230714
-0.00058889425
-0.00078202548
0.0004925149
-0.14482507
-0.14244834
-0.14047722
-0.13831861
-0.13545272
-0.13204267
-0.12824863
-0.12408584
-0.11957661
-0.11477693
-0.10974055
-0.10451523
-0.099151335
-0.09370015
-0.088210112
-0.082726326
-0.077290803
-0.071941957
-0.066714053
-0.061637009
-0.056736351
-0.052033237
-0.047544569
-0.043283172
-0.039258045
-0.035474644
-0.031935196
-0.028639044
-0.025582989
-0.022761646
-0.020167791
-0.017792693
-0.015626444
-0.013658255
-0.011876741
-0.010270179
-0.0088267511
-0.0075347454
-0.0063827799
-0.005359897
-0.0044559739
-0.0036610761
-0.0029679548
-0.0023649761
-0.00185674
-0.0014047578
-0.0010885741
-0.00066667669
-0.00068324125
0.00026270734
-0.13186837
-0.12969779
-0.1281249
-0.12689548
-0.12501237
-0.12243919
-0.11943214
-0.11607115
-0.11235463
-0.10831284
-0.10399798
-0.099458957
-0.09474092
-0.089890389
-0.084954375
-0.079977486
-0.075001532
-0.070065402
-0.065204642
-0.060451077
-0.055832599
-0.051373066
-0.047092314
-0.043006235
-0.039126943
-0.03546298
-0.032019578
-0.028798951
-0.025800605
-0.023021667
-0.020457219
-0.018100619
-0.015943828
-0.013977712
-0.01219233
-0.010577207
-0.0091215807
-0.0078146226
-0.0066456629
-0.0056043173
-0.0046808316
-0.0038656484
-0.003151237
-0.0025269242
-0.0019937495
-0.0015214867
-0.0011620979
-0.00074576452
-0.00060000631
4.8720983e-05
-0.11877258
-0.11723051
-0.11618465
-0.11563093
-0.11452264
-0.11270842
-0.11043602
-0.10781369
-0.10483668
-0.10151794
-0.097901506
-0.094033931
-0.089956916
-0.085711475
-0.081340172
-0.076885906
-0.072389542
-0.067889441
-0.063421335
-0.059017975
-0.054708781
-0.050519617
-0.046472682
-0.042586492
-0.03887595
-0.035352465
-0.032024145
-0.028896024
-0.025970325
-0.023246751
-0.020722786
-0.018394004
-0.016254378
-0.01429658
-0.01251227
-0.01089237
-0.0094273192
-0.0081073082
-0.006922503
-0.0058631991
-0.0049201131
-0.0040841215
-0.0033475418
-0.0027005314
-0.0021411426
-0.00164604
-0.0012439041
-0.00082570241
-0.00053742532
-0.00014073754
-0.10606651
-0.10522234
-0.10472138
-0.10468188
-0.10418066
-0.10302478
-0.10141528
-0.09946002
-0.097157406
-0.094511001
-0.091554865
-0.08832993
-0.084873305
-0.081221484
-0.077412406
-0.073484872
-0.069477478
-0.065427287
-0.061369311
-0.057336252
-0.053358154
-0.049462084
-0.045671917
-0.042008218
-0.03848821
-0.03512581
-0.031931737
-0.028913668
-0.026076443
-0.023422304
-0.020951152
-0.018660835
-0.016547422
-0.014605502
-0.012828455
-0.011208729
-0.0097380974
-0.0084078933
-0.0072092398
-0.0061332203
-0.0051711288
-0.0043143411
-0.0035551647
-0.0028844693
-0.0022979471
-0.001777726
-0.0013339628
-0.00090637231
-0.0004991136
-0.00029860332
-0.094025685
-0.093790192
-0.093780083
-0.094146691
-0.094124609
-0.093522355
-0.092492459
-0.091128045
-0.089429446
-0.087395411
-0.085050732
-0.082429082
-0.079562154
-0.076481284
-0.073219824
-0.069812407
-0.066293855
-0.062698722
-0.059060504
-0.055411027
-0.051780092
-0.048195151
-0.044681015
-0.041259643
-0.037950021
-0.034768108
-0.031726864
-0.028836325
-0.026103746
-0.023533772
-0.021128656
-0.018888495
-0.016811483
-0.014894175
-0.013131755
-0.011518293
-0.010046997
-0.0087104562
-0.0075008591
-0.0064101803
-0.0054303971
-0.0045534553
-0.0037718003
-0.003076921
-0.0024627832
-0.0019156268
-0.0014318899
-0.0009879146
-0.00048664689
-0.00042048416
-0.082784307
-0.083022891
-0.083413202
-0.084098379
-0.084453064
-0.084304573
-0.083766833
-0.082914485
-0.081747121
-0.080260407
-0.078471295
-0.07640587
-0.07408989
-0.071549305
-0.068812305
-0.065909068
-0.062870529
-0.059727764
-0.056511722
-0.053252583
-0.049979151
-0.046718483
-0.043495584
-0.040333131
-0.037251261
-0.034267451
-0.031396449
-0.02865029
-0.02603835
-0.023567468
-0.021242096
-0.019064491
-0.017034928
-0.015151932
-0.013412517
-0.011812432
-0.010346398
-0.0090083432
-0.0077916148
-0.0066891713
-0.0056937725
-0.0047980091
-0.0039946093
-0.0032756238
-0.0026338904
-0.0020585891
-0.0015369181
-0.0010705831
-0.00049927765
-0.00050540086
-0.072398987
-0.072980874
-0.073672534
-0.074596315
-0.075240061
-0.075453364
-0.075321511
-0.074902074
-0.074192301
-0.073185251
-0.07189134
-0.07032952
-0.068519497
-0.066481769
-0.064239243
-0.061817175
-0.059242264
-0.056541894
-0.053743769
-0.050875579
-0.047964415
-0.045036247
-0.042115566
-0.039225089
-0.036385483
-0.033615172
-0.030930202
-0.028344174
-0.025868239
-0.023511141
-0.021279317
-0.019177026
-0.017206524
-0.015368246
-0.013661023
-0.012082297
-0.01062834
-0.0092944776
-0.008075288
-0.0069647908
-0.0059566175
-0.0050440783
-0.0042203213
-0.0034779397
-0.0028091769
-0.002205221
-0.0016478899
-0.0011545654
-0.00053400585
-0.00055602526
-0.062879006
-0.063694956
-0.064597084
-0.065686447
-0.066541944
-0.067034008
-0.067226573
-0.067163066
-0.066838083
-0.066242367
-0.065380912
-0.064266333
-0.062912587
-0.061334857
-0.059550848
-0.057580822
-0.055446891
-0.053172422
-0.050781597
-0.048299051
-0.04574947
-0.043157083
-0.040545231
-0.037936018
-0.035350021
-0.032806034
-0.030320868
-0.027909227
-0.025583628
-0.023354385
-0.021229641
-0.019215446
-0.017315874
-0.015533166
-0.013867903
-0.012319193
-0.010884865
-0.0095616666
-0.0083454557
-0.0072313728
-0.0062139964
-0.0052874276
-0.0044453603
-0.0036809458
-0.0029862843
-0.0023538971
-0.0017632787
-0.0012398125
-0.00058603638
-0.00057826572
-0.054207451
-0.055171567
-0.056207913
-0.057399287
-0.058399233
-0.059096706
-0.059539393
-0.059759487
-0.059749379
-0.059497977
-0.059005877
-0.058280314
-0.057330095
-0.05616547
-0.05479922
-0.053246749
-0.051525559
-0.049654767
-0.047654755
-0.045546805
-0.043352713
-0.041094391
-0.038793439
-0.036470761
-0.034146246
-0.031838479
-0.029564499
-0.027339613
-0.025177264
-0.023088949
-0.021084193
-0.019170569
-0.017353758
-0.015637647
-0.014024459
-0.012514897
-0.011108313
-0.0098028747
-0.0085957398
-0.00748321
-0.0064608696
-0.0055236763
-0.0046659812
-0.0038815373
-0.0031626628
-0.0025027788
-0.0018812435
-0.0013259274
-0.00064956018
-0.00058020564
-0.046351697
-0.047398172
-0.04850804
-0.049749106
-0.050836893
-0.051676761
-0.052303982
-0.05274201
-0.052981759
-0.053010942
-0.052826773
-0.052432117
-0.051831412
-0.051030565
-0.050037898
-0.048864291
-0.047522816
-0.046028368
-0.044397395
-0.042647605
-0.040797624
-0.038866624
-0.036873969
-0.03483884
-0.032779894
-0.030714959
-0.028660766
-0.026632721
-0.024644722
-0.022709029
-0.02083618
-0.019034957
-0.01731239
-0.015673807
-0.014122911
-0.012661892
-0.011291551
-0.010011442
-0.0088200111
-0.0077147412
-0.0066922635
-0.0057484475
-0.0048783969
-0.0040765281
-0.0033356517
-0.0026498532
-0.0019997203
-0.0014121381
-0.00071869661
-0.00057059844
-0.039268767
-0.040348477
-0.041485514
-0.042735417
-0.043865339
-0.044795193
-0.045550862
-0.04614915
-0.046580225
-0.046831281
-0.046897132
-0.046777284
-0.046472667
-0.04598557
-0.045320464
-0.044484209
-0.043485805
-0.042336143
-0.041047816
-0.039634899
-0.038112684
-0.036497358
-0.034805693
-0.033054717
-0.031261387
-0.029442284
-0.027613324
-0.025789516
-0.02398474
-0.022211578
-0.020481182
-0.018803187
-0.017185672
-0.01563515
-0.014156608
-0.012753562
-0.011428154
-0.010181247
-0.009012543
-0.0079206949
-0.0069034019
-0.0059574868
-0.0050788834
-0.00426274
-0.0035025548
-0.0027929882
-0.0021165394
-0.0014973561
-0.00078836773
-0.00055729169
-0.032909835
-0.033987333
-0.035117516
-0.036345867
-0.037482512
-0.038460224
-0.039297891
-0.040007368
-0.040578706
-0.040999194
-0.041262133
-0.041364625
-0.041304955
-0.041082566
-0.040698786
-0.040157058
-0.039462815
-0.03862332
-0.037647557
-0.036546095
-0.035330887
-0.034015028
-0.032612494
-0.031137862
-0.029606025
-0.028031899
-0.026430144
-0.024814911
-0.023199605
-0.021596687
-0.020017506
-0.018472175
-0.01696948
-0.015516831
-0.014120251
-0.012784388
-0.011512569
-0.010306859
-0.009168141
-0.0080962029
-0.007089807
-0.0061467529
-0.0052638595
-0.0044370721
-0.0036607051
-0.0029299969
-0.0022295471
-0.0015802916
-0.00085487792
-0.00054600942
-0.027223622
-0.028274435
-0.029373921
-0.030559303
-0.031676427
-0.032669333
-0.033551765
-0.034331968
-0.035000368
-0.035544837
-0.035957914
-0.036235136
-0.036372951
-0.036368716
-0.036221332
-0.035931498
-0.035501662
-0.034935951
-0.034240127
-0.033421519
-0.032488899
-0.031452312
-0.030322881
-0.029112576
-0.027833978
-0.02650003
-0.025123774
-0.023718105
-0.022295537
-0.02086799
-0.019446602
-0.018041572
-0.016662037
-0.015315984
-0.014010189
-0.0127502
-0.011540335
-0.010383712
-0.0092822901
-0.0082369216
-0.0072473993
-0.0063124984
-0.0054299546
-0.0045965598
-0.0038075214
-0.003058705
-0.0023367079
-0.0016595824
-0.00091606542
-0.00053981323
-0.022158677
-0.023166966
-0.024220111
-0.025348514
-0.026427694
-0.027411492
-0.02830988
-0.029128518
-0.029858544
-0.030488762
-0.03101154
-0.031421546
-0.031714089
-0.03188513
-0.031931832
-0.031852814
-0.03164816
-0.031319413
-0.030869586
-0.030303151
-0.029625986
-0.028845267
-0.027969338
-0.027007546
-0.025970052
-0.024867628
-0.023711437
-0.022512809
-0.021283014
-0.020033059
-0.018773487
-0.017514208
-0.01626435
-0.015032137
-0.013824801
-0.012648518
-0.011508376
-0.010408361
-0.0093513645
-0.0083392016
-0.0073726315
-0.0064513759
-0.0055740904
-0.0047384423
-0.0039405666
-0.00317702
-0.0024361721
-0.0017339028
-0.0009710479
-0.00053931552
-0.017665246
-0.018621806
-0.019619399
-0.020682738
-0.02171201
-0.022669514
-0.023562457
-0.024394658
-0.025158169
-0.025842939
-0.026441596
-0.026948477
-0.027358319
-0.027666278
-0.027868387
-0.027961801
-0.027944842
-0.027817037
-0.027579166
-0.0272333
-0.026782795
-0.026232248
-0.025587424
-0.024855151
-0.024043185
-0.023160062
-0.022214915
-0.021217291
-0.020176955
-0.019103693
-0.018007122
-0.01689652
-0.015780661
-0.014667676
-0.013564939
-0.012478973
-0.011415385
-0.010378817
-0.0093729175
-0.0084003318
-0.0074626889
-0.006560598
-0.0056936073
-0.0048602618
-0.0040576278
-0.0032830091
-0.002526315
-0.0018020347
-0.0010197347
-0.00054343984
-0.013696338
-0.014596969
-0.015534742
-0.016529572
-0.017502174
-0.018422108
-0.019294532
-0.020121952
-0.020897419
-0.021612128
-0.022259243
-0.022833162
-0.023328484
-0.023740022
-0.024063188
-0.024294207
-0.024430187
-0.024469178
-0.024410244
-0.024253531
-0.0240003
-0.023652932
-0.023214902
-0.022690728
-0.022085892
-0.021406733
-0.020660322
-0.019854318
-0.018996808
-0.018096134
-0.017160729
-0.016198945
-0.015218898
-0.014228316
-0.013234414
-0.012243778
-0.011262271
-0.010294959
-0.0093460524
-0.0084188631
-0.007515765
-0.006638166
-0.0057864502
-0.0049600138
-0.0041568332
-0.0033749962
-0.0026057672
-0.0018629144
-0.0010623386
-0.00055035553
-0.010209201
-0.011053312
-0.011930641
-0.012856993
-0.013770191
-0.014645997
-0.015488031
-0.016297842
-0.01706948
-0.017795396
-0.018469447
-0.019086348
-0.019640861
-0.020127805
-0.020542361
-0.020880263
-0.021137868
-0.021312227
-0.021401165
-0.021403371
-0.021318451
-0.021146964
-0.020890444
-0.020551379
-0.02013319
-0.019640166
-0.019077385
-0.018450614
-0.017766188
-0.017030879
-0.016251752
-0.015436013
-0.01459087
-0.013723384
-0.012840335
-0.011948101
-0.011052545
-0.010158921
-0.0092717894
-0.0083949474
-0.0075313663
-0.0066831372
-0.0058513963
-0.0050363371
-0.0042368041
-0.0034516813
-0.0026734595
-0.0019156741
-0.0010990619
-0.00055823943
-0.0071653067
-0.0079550038
-0.0087740202
-0.0096346156
-0.01048887
-0.011317824
-0.012123909
-0.01290796
-0.01366497
-0.014388577
-0.0150734
-0.015714616
-0.01630734
-0.016846628
-0.017327719
-0.017746186
-0.018098004
-0.018379622
-0.018588047
-0.018720929
-0.018776636
-0.018754309
-0.018653901
-0.018476203
-0.018222848
-0.017896289
-0.017499768
-0.017037248
-0.016513339
-0.015933203
-0.015302445
-0.014626989
-0.013912952
-0.013166518
-0.012393808
-0.011600755
-0.010792986
-0.0099757137
-0.0091536392
-0.0083308568
-0.0075107715
-0.0066960233
-0.0058883937
-0.0050887954
-0.0042968792
-0.0035123115
-0.0027287188
-0.0019597137
-0.0011300124
-0.00056569882
-0.0045317505
-0.0052707472
-0.0060353136
-0.00683459
-0.0076325346
-0.0084146583
-0.0091824571
-0.0099362134
-0.010671761
-0.011383828
-0.012067783
-0.01271933
-0.013334037
-0.013907338
-0.014434711
-0.014911799
-0.015334474
-0.015698891
-0.016001577
-0.016239503
-0.016410169
-0.016511664
-0.016542722
-0.01650277
-0.016391958
-0.016211168
-0.015962017
-0.015646828
-0.015268592
-0.014830909
-0.014337917
-0.013794198
-0.01320468
-0.012574528
-0.011909035
-0.011213498
-0.010493112
-0.0097528472
-0.0089973475
-0.0082308211
-0.007456941
-0.0066787512
-0.0058985568
-0.0051178926
-0.004337137
-0.0035566993
-0.0027712662
-0.0019946975
-0.001155209
-0.0005718417
-0.0022827249
-0.0029763681
-0.0036920035
-0.0044361181
-0.0051824943
-0.0059203754
-0.0066505055
-0.0073727213
-0.0080835849
-0.0087787794
-0.0094543706
-0.010106589
-0.010731488
-0.011324939
-0.011882763
-0.012400821
-0.012875061
-0.013301574
-0.01367666
-0.013996903
-0.014259239
-0.014461027
-0.014600111
-0.014674877
-0.014684297
-0.01462797
-0.014506139
-0.014319702
-0.014070202
-0.0137598
-0.013391238
-0.012967784
-0.012493155
-0.01197144
-0.011407004
-0.010804388
-0.010168205
-0.0095030277
-0.0088132771
-0.0081031132
-0.0073763216
-0.0066362072
-0.0058854707
-0.0051261593
-0.0043592846
-0.0035859352
-0.0028017773
-0.0020209876
-0.0011749801
-0.00057637094
-0.0003931782
-0.0010469123
-0.0017194616
-0.0024149281
-0.0031151636
-0.0038125229
-0.0045071441
-0.0051984916
-0.0058837325
-0.0065593616
-0.0072220593
-0.0078685435
-0.0084953325
-0.0090987412
-0.0096749699
-0.010220168
-0.010730473
-0.011202052
-0.011631159
-0.012014195
-0.012347775
-0.012628788
-0.012854462
-0.013022425
-0.013130761
-0.013178058
-0.013163452
-0.013086653
-0.012947964
-0.012748283
-0.012489096
-0.012172445
-0.01180089
-0.011377451
-0.010905542
-0.010388886
-0.0098314282
-0.0092372324
-0.0086103764
-0.0079548395
-0.0072743861
-0.0065724504
-0.0058520042
-0.0051154925
-0.0043644562
-0.0036005792
-0.0028204128
-0.0020384517
-0.0011890748
-0.00057885261
0.0011334879
0.0005122646
-0.00012482265
-0.00078012521
-0.0014418982
-0.0021049356
-0.0027688804
-0.0034328987
-0.0040946429
-0.004751265
-0.0053999551
-0.006037848
-0.0066618725
-0.0072687466
-0.0078550343
-0.0084171882
-0.0089515779
-0.0094545241
-0.0099223418
-0.010351392
-0.010738135
-0.011079189
-0.011371389
-0.011611847
-0.011798011
-0.011927726
-0.011999277
-0.012011443
-0.011963528
-0.011855388
-0.01168744
-0.011460666
-0.011176598
-0.010837284
-0.010445248
-0.010003422
-0.0095150791
-0.0089837418
-0.0084130875
-0.0078068392
-0.0071686498
-0.006501983
-0.005809976
-0.0050953646
-0.0043601109
-0.0036063944
-0.0028315365
-0.0020503027
-0.0011997541
-0.00058044959
0.0023397038
0.0017452523
0.0011372151
0.00051485643
-0.00011507167
-0.00074930972
-0.0013871194
-0.0020274187
-0.0026682274
-0.0033072094
-0.0039419594
-0.004569949
-0.0051884449
-0.0057945046
-0.0063850091
-0.006956689
-0.007506145
-0.0080298742
-0.0085243042