/*--------------------------------*- C++ -*----------------------------------*\
  =========                 |
  \\      /  F ield         | OpenFOAM: The Open Source CFD Toolbox
   \\    /   O peration     | Website:  https://openfoam.org
    \\  /    A nd           | Version:  6
     \\/     M anipulation  |
\*---------------------------------------------------------------------------*/
FoamFile
{
    version     2.0;
    format      ascii;
    class       surfaceScalarField;
    location    "31";
    object      phi_0;
}
// * * * * * * * * * * * * * * * * * * * * * * * * * * * * * * * * * * * * * //

dimensions      [0 3 -1 0 0 0 0];

internalField   nonuniform List<scalar> 
18180
(
0.00032391433
-0.00017299806
-0.00015091627
0.0013299592
-0.0014076935
0.00040164868
0.0030801764
-0.0034167165
0.0016664992
0.0056351972
-0.0061122706
0.0035572498
0.0090538665
-0.0094391908
0.0060205215
0.013391127
-0.013353644
0.0090163837
0.018695223
-0.017817621
0.012513526
0.025004591
-0.02279614
0.016486772
0.032344584
-0.028254058
0.020914066
0.040724286
-0.034153412
0.02577371
0.050133766
-0.040451655
0.031042175
0.060542142
-0.047100768
0.036692392
0.071896876
-0.054047229
0.042692494
0.084124768
-0.061232879
0.049004987
0.097135242
-0.068596751
0.055586278
0.11082644
-0.076077981
0.062386778
0.12509359
-0.083619608
0.069352461
0.13984439
-0.091172957
0.076422158
0.15507207
-0.098719314
0.083491639
-0.10625586
0.090359053
0.17096887
0.00040337954
-0.00057637759
0.0016328535
-0.0026371675
0.0037417702
-0.0055256331
0.0067811559
-0.0091516564
0.010797704
-0.013455738
0.015829947
-0.018385888
0.021904098
-0.023891772
0.029029949
-0.029921992
0.037197155
-0.036421264
0.0463723
-0.043328557
0.056497214
-0.050576568
0.067488893
-0.058092447
0.079241276
-0.065799612
0.091628944
-0.073620546
0.10451251
-0.081480315
0.11774506
-0.089310532
0.13117868
-0.097053229
0.14467146
-0.10466573
0.1580866
-0.11213446
-0.11939144
0.17122219
0.00048716646
-0.0010635441
0.0019441604
-0.0040941615
0.0044091483
-0.0079906209
0.0079164606
-0.012658969
0.012492146
-0.018031424
0.018148386
-0.024042127
0.024878271
-0.030621657
0.032651455
-0.037695177
0.041411127
-0.045180936
0.051072809
-0.052990239
0.06152537
-0.061029129
0.072634394
-0.069201471
0.08424777
-0.077412988
0.096203044
-0.08557582
0.10833575
-0.093613023
0.12048763
-0.10146241
0.13251345
-0.10907906
0.14428459
-0.11643687
0.15568144
-0.12353131
-0.13031509
0.16660509
0.00057329178
-0.0016368358
0.0022551418
-0.0057760115
0.0050602032
-0.010795682
0.0089973797
-0.016596145
0.01406231
-0.023096355
0.020230328
-0.030210145
0.027451046
-0.037842375
0.035645043
-0.045889174
0.044703119
-0.054239012
0.054488489
-0.062775609
0.064841927
-0.071382567
0.075589497
-0.079949041
0.086552121
-0.088375612
0.097555926
-0.096579625
0.1084422
-0.1044993
0.11907579
-0.11209599
0.129351
-0.11935427
0.13919409
-0.12627995
0.14855982
-0.13289704
-0.13920792
0.15745265
0.0006584461
-0.0022952819
0.0025526163
-0.0076701816
0.0056644694
-0.013907535
0.0099680029
-0.020899679
0.015418634
-0.028546986
0.021945571
-0.036737081
0.029447564
-0.045344368
0.037792246
-0.054233855
0.046819262
-0.063266028
0.056347057
-0.072303404
0.066182631
-0.081218141
0.076133132
-0.089899542
0.08601788
-0.09826036
0.095679321
-0.10624107
0.10499161
-0.11381159
0.11386598
-0.12097036
0.12225256
-0.12774084
0.13013874
-0.13416614
0.13754448
-0.14030278
-0.14619713
0.1445337
0.00073843609
-0.003033718
0.0028206009
-0.0097523465
0.0061866664
-0.017273601
0.010766728
-0.02547974
0.016467725
-0.034247984
0.023166602
-0.043435958
0.030708856
-0.052886622
0.038912027
-0.062437026
0.047573712
-0.071927713
0.056483065
-0.081212758
0.065434225
-0.0901693
0.07423977
-0.098705087
0.082742383
-0.10676297
0.090823248
-0.11432193
0.098406277
-0.12139462
0.10545803
-0.12802212
0.11198391
-0.13426673
0.1180217
-0.14020392
0.12363368
-0.14591477
-0.1514721
0.12890866
0.00080853198
-0.00384225
0.0030417196
-0.011985534
0.0065901006
-0.020821982
0.011332773
-0.030222412
0.017123127
-0.040038338
0.023784459
-0.05009729
0.031112784
-0.060214947
0.038885356
-0.070209598
0.046873452
-0.079915809
0.054857373
-0.089196679
0.062641257
-0.097953184
0.070065426
-0.10612926
0.077014594
-0.11371214
0.083421003
-0.12072834
0.089262586
-0.1272362
0.094556957
-0.13331649
0.099352695
-0.13906246
0.1037196
-0.14457083
0.1077395
-0.14993467
-0.15523593
0.11150333
0.00086359226
-0.0047058422
0.0031981518
-0.014320094
0.0068394135
-0.024463244
0.0116117
-0.034994699
0.017314269
-0.045740907
0.023720971
-0.056503992
0.030588198
-0.067082174
0.037668245
-0.077289645
0.044725523
-0.086973087
0.051552675
-0.096023831
0.057983777
-0.10438429
0.063902598
-0.11204808
0.069244962
-0.1190545
0.073995422
-0.1254788
0.078179426
-0.13142021
0.081852717
-0.13698978
0.085089952
-0.1422997
0.087974274
-0.14745515
0.090589109
-0.15254951
-0.1576611
0.093014274
0.00089723719
-0.0056030794
0.0032716708
-0.016694527
0.0069028352
-0.028094408
0.011560559
-0.039652423
0.016994282
-0.051174629
0.022937868
-0.062447578
0.029122568
-0.073266873
0.035293912
-0.083460989
0.04122901
-0.092908184
0.046750839
-0.10154566
0.05173698
-0.10937043
0.056121641
-0.11643274
0.059891279
-0.12282414
0.063075242
-0.12866276
0.065733559
-0.13407852
0.067944145
-0.13920036
0.069791304
-0.14414686
0.071356909
-0.14902075
0.072714785
-0.15390738
-0.15887429
0.073927971
0.00090597286
-0.0065090523
0.0032532345
-0.019041789
0.006765868
-0.031607041
0.011163337
-0.044049892
0.016154284
-0.056165576
0.021446402
-0.067739696
0.02676319
-0.078583662
0.031862072
-0.088559872
0.036549863
-0.097595975
0.040692404
-0.1056882
0.044216818
-0.11289484
0.047106566
-0.11932249
0.049390963
-0.12510854
0.051131599
-0.1304034
0.052408205
-0.13535513
0.053306127
-0.14009829
0.053906775
-0.14474751
0.054281653
-0.14939563
0.054489703
-0.15411543
0.054576352
-0.15896094
-0.00020568078
0.00020568079
8.1443538e-13
-0.00068837839
0.00048269762
1.1999039e-11
-0.0013628505
0.00067447215
3.2326409e-11
-0.0021638361
0.00080098548
6.2970652e-11
-0.0030388545
0.00087501832
1.0395399e-10
-0.0039450378
0.00090618318
1.5465152e-10
-0.0048468405
0.00090180252
2.1509928e-10
-0.0057141247
0.00086728395
2.8460153e-10
-0.0065206535
0.00080652849
3.6370724e-10
-0.0072429113
0.00072225742
4.5142091e-10
-0.0078591612
0.00061624936
5.4896358e-10
-0.0083486877
0.00048952593
6.5425359e-10
-0.0086911976
0.00034250922
7.6967135e-10
-0.0088663676
0.00017516918
8.9097383e-10
-0.0088535717
-1.2796875e-05
1.0199815e-09
-0.0086318968
-0.00022167604
1.1509217e-09
-0.0081804052
-0.00045149276
1.2902885e-09
-0.0074777161
-0.00070269057
1.4217597e-09
-0.0065015688
-0.00097614879
1.5550223e-09
-0.0012580565
-0.0052435139
1.6824846e-09
-0.00019088152
0.00039656232
-0.00063425716
0.00092607328
-0.0012462792
0.0012864942
-0.0019617908
0.0015164971
-0.0027276647
0.0016408922
-0.0034997908
0.0016783094
-0.0042408773
0.001642889
-0.0049185969
0.0015450036
-0.0055041142
0.0013920458
-0.0059709217
0.0011890649
-0.0062938998
0.00093922755
-0.0064485527
0.00064417882
-0.0064103827
0.00030433924
-0.0061543903
-8.0823109e-05
-0.0056547305
-0.00051245662
-0.0048846185
-0.00099178805
-0.0038165353
-0.0015195759
-0.0024221504
-0.0020970754
-0.00067215086
-0.0027261482
-0.0033766127
0.0014464053
-0.00016108198
0.00055764431
-0.0005255075
0.0012904988
-0.0010127728
0.0017737595
-0.0015584471
0.0020621714
-0.0021085317
0.0021909768
-0.0026168108
0.0021865885
-0.0030428624
0.0020689407
-0.0033503518
0.001852493
-0.0035056541
0.0015473481
-0.0034767502
0.001160161
-0.0032323221
0.00069479955
-0.0027410096
0.00015286638
-0.0019707588
-0.00046591162
-0.00088829404
-0.0011632878
0.0005413273
-0.0019420779
0.0023550188
-0.0028054795
0.0045916481
-0.0037562052
0.0072917131
-0.0047971403
0.010497255
-0.0059316898
-0.0071092085
0.014229851
-0.00011872261
0.00067636694
-0.00037009115
0.0015418674
-0.00067809369
0.0020817621
-0.00097933624
0.002363414
-0.0012186893
0.0024303298
-0.0013471179
0.0023150171
-0.0013199923
0.0020418151
-0.0010956006
0.0016281014
-0.00063392889
0.0010856764
0.0001043132
0.00042191896
0.0011584946
-0.0003593818
0.0025687198
-0.0012573588
0.0043763811
-0.0022735729
0.0066246456
-0.0034115522
0.009358968
-0.0046764003
0.012627659
-0.0060741701
0.016482274
-0.0076108205
0.02097732
-0.0092921862
0.026170028
-0.011124398
-0.013032654
0.032093474
-6.6952719e-05
0.00074331966
-0.00017828252
0.0016531972
-0.00026266792
0.0021661475
-0.00025770798
0.002358454
-0.00010685585
0.0022794777
0.00024223737
0.0019659239
0.00083906969
0.0014449828
0.001731475
0.00073569608
0.0029666102
-0.00014945875
0.0045917479
-0.0012032187
0.0066548417
-0.0024224756
0.0092049375
-0.0038074546
0.012292491
-0.0053611264
0.015969678
-0.0070887387
0.020290736
-0.0089974582
0.025312558
-0.011095993
0.031095562
-0.013393824
0.037704203
-0.015900827
0.045207777
-0.018627972
-0.021475846
0.053650969
-8.9279554e-06
0.00075224762
3.9443885e-05
0.0016048253
0.0002123993
0.0019931921
0.00057167729
0.0019991761
0.0011754972
0.0016756578
0.0020797175
0.0010617037
0.0033388042
0.00018589609
0.0050067168
-0.00093221651
0.0071375594
-0.0022803014
0.009785942
-0.0038516013
0.013007176
-0.0056437095
0.01685735
-0.0076576287
0.021393216
-0.0098969925
0.026671973
-0.012367495
0.032751093
-0.015076579
0.039688537
-0.018033437
0.047543853
-0.02124914
0.05638021
-0.024737184
0.066268291
-0.028516053
-0.03246787
0.077260316
5.281916e-05
0.00069942847
0.00027435045
0.0013832941
0.00072899109
0.0015385515
0.0014782498
0.0012499173
0.0025820936
0.00057181403
0.0040996934
-0.00045589613
0.0060900037
-0.0018044141
0.0086121237
-0.0034543365
0.011725402
-0.0053935796
0.015489375
-0.007615574
0.019963448
-0.010117783
0.025206312
-0.012900493
0.031275132
-0.015965812
0.038224561
-0.019316924
0.046105697
-0.022957715
0.054965405
-0.026893145
0.064846972
-0.031130706
0.07579338
-0.035683592
0.08785624
-0.040578914
-0.045701017
0.10108939
0.00011675172
0.00058267675
0.0005205982
0.00097944758
0.001274202
0.00078494764
0.0024390783
8.5041001e-05
0.0040766671
-0.0010657747
0.0062486369
-0.0026278659
0.0090168214
-0.0045725986
0.012442998
-0.0068805134
0.016588426
-0.0095390078
0.021513031
-0.012540178
0.027274284
-0.015879036
0.033925789
-0.019551998
0.041515594
-0.023555617
0.05008428
-0.02788561
0.059662958
-0.032536394
0.070271531
-0.037501717
0.081918365
-0.042777541
0.094603263
-0.048368489
0.10832875
-0.054304402
-0.060506014
0.12313375
0.0001822211
0.00040045565
0.00077512821
0.00038654048
0.0018402051
-0.00028012924
0.0034386346
-0.0015133885
0.0056322302
-0.0032593703
0.0084831185
-0.0054787542
0.012053047
-0.0081425273
0.01640238
-0.011229846
0.021588726
-0.014725354
0.027665213
-0.018616665
0.034678456
-0.022892279
0.042666245
-0.027539787
0.051655024
-0.032544396
0.061657176
-0.037887762
0.072668131
-0.043547349
0.084663356
-0.049496943
0.097596161
-0.055710346
0.11139904
-0.062171365
0.12599688
-0.068902246
-0.075907139
0.14139801
0.00024953939
0.0010377285
0.0024240985
0.0044679599
0.007229111
0.010766741
0.015137739
0.020394665
0.026583377
0.033740421
0.041890317
0.051042922
0.06119102
0.072308245
0.084347174
0.097237009
0.11087912
0.12512992
0.13971931
0.15417122
-0.0032139775
-0.0020295387
2.4291409e-09
-0.00088929619
-0.0023246838
2.5837999e-09
0.00170921
-0.0025985088
2.7040484e-09
0.0045241028
-0.0028148954
2.7712438e-09
0.0075290012
-0.0030049011
2.7401904e-09
0.010707443
-0.0031784441
2.6051881e-09
0.014041236
-0.0033337953
2.3307781e-09
0.01751306
-0.0034718262
1.8818143e-09
0.021107994
-0.0035949357
1.2141855e-09
0.024812679
-0.0037046852
2.8237086e-10
0.028614754
-0.0038020733
-9.0891353e-10
0.032502803
-0.003888047
-2.3672608e-09
0.036466307
-0.0039634996
-4.0638196e-09
0.040495525
-0.0040292122
-5.9818674e-09
0.044581422
-0.0040858891
-8.0666011e-09
0.048715632
-0.0041341992
-1.0266699e-08
0.052890442
-0.0041747975
-1.2486026e-08
0.057098799
-0.0042083428
-1.4624077e-08
0.061334333
-0.0042355177
-1.6534106e-08
0.065591397
-0.0042570454
-1.8068563e-08
0.069865121
-0.0042737051
-1.9040604e-08
0.074151484
-0.0042863434
-1.9277408e-08
0.078447387
-0.0042958853
-1.8582761e-08
0.082750744
-0.0043033396
-1.6804276e-08
0.087060559
-0.004309801
-1.3792048e-08
0.091377014
-0.0043164455
-9.4843155e-09
0.095701534
-0.0043245165
-3.8518798e-09
0.10003683
-0.0043352977
2.9951974e-09
0.10438689
-0.0043500696
1.0895659e-08
0.10875691
-0.0043700433
1.9511376e-08
0.11315315
-0.0043962716
2.8467985e-08
0.11758265
-0.0044295306
3.7216703e-08
0.12205278
-0.0044701814
4.5237777e-08
0.12657075
-0.0045180155
5.1904695e-08
0.13114279
-0.0045721012
5.6723756e-08
0.13577338
-0.0046306514
5.9221994e-08
0.14046426
-0.0046909376
5.9153739e-08
0.14521348
-0.0047492735
5.6439163e-08
0.15001452
-0.0048010886
5.1215066e-08
0.15485556
-0.0048410907
4.38596e-08
0.15971906
-0.0048635367
3.4831423e-08
0.16458152
-0.0048624793
2.4739611e-08
0.16941381
-0.0048323063
1.4153213e-08
0.17418092
-0.0047671156
3.6579842e-09
0.17884447
-0.0046635419
-6.307783e-09
0.18335467
-0.0045101783
-1.5388579e-08
0.18767831
-0.0043236257
-2.3213379e-08
0.19169704
-0.0040186969
-2.9385871e-08
0.19559691
-0.0038998381
-3.4139186e-08
-0.0028817327
-3.4974642e-08
0.0033608933
-0.0039440266
0.0055649128
-0.0045287033
0.0080289176
-0.0050625135
0.010689876
-0.0054758537
0.013527147
-0.0058421719
0.016529334
-0.0061806314
0.019680476
-0.0064849374
0.022964879
-0.006756229
0.026369322
-0.0069993784
0.029881923
-0.0072172859
0.033491493
-0.0074116439
0.037187579
-0.0075841323
0.040960457
-0.0077363777
0.044801048
-0.0078698029
0.048700854
-0.0079856955
0.052651948
-0.0080852933
0.056646974
-0.008169823
0.060679164
-0.0082405333
0.064742376
-0.0082987296
0.068831139
-0.0083458079
0.072940714
-0.0083832806
0.077067171
-0.0084128006
0.081207465
-0.0084361786
0.08535952
-0.0084553952
0.089522323
-0.0084726037
0.093695997
-0.00849012
0.097881877
-0.008510396
0.10208255
-0.0085359668
0.10630184
-0.0085693645
0.11054479
-0.0086129897
0.11481745
-0.0086689341
0.11912667
-0.0087387501
0.12347966
-0.0088231752
0.12788347
-0.0089218269
0.13234427
-0.009032897
0.13686651
-0.0091528887
0.14145201
-0.0092764428
0.14609904
-0.0093963012
0.1508014
-0.0095034492
0.15554774
-0.0095874295
0.16032108
-0.0096368809
0.16509862
-0.0096400122
0.16985201
-0.0095856956
0.17454707
-0.0094621768
0.17914639
-0.0092628647
0.18360109
-0.0089648801
0.18787929
-0.008601828
0.19186362
-0.0080030227
0.19573874
-0.0077749538
-0.0057632329
0.015903042
-0.0056172182
0.017847041
-0.006472702
0.02002617
-0.0072416424
0.022370102
-0.0078197859
0.024867719
-0.0083397887
0.027516383
-0.0088292956
0.03030431
-0.0092728646
0.033218759
-0.009670678
0.036249455
-0.010030074
0.039387078
-0.010354909
0.04262248
-0.010647046
0.045946849
-0.010908502
0.049351812
-0.011141341
0.05282939
-0.01134738
0.056371974
-0.01152828
0.059972352
-0.011685671
0.063623736
-0.011821207
0.067319809
-0.011936606
0.071054778
-0.012033699
0.074823436
-0.012114466
0.078621233
-0.012181078
0.082444358
-0.012235925
0.08628982
-0.01228164
0.090155538
-0.012321113
0.094040428
-0.012357494
0.097944486
-0.012394178
0.10186886
-0.012434768
0.10581589
-0.012482995
0.10978912
-0.012542594
0.11379325
-0.012617119
0.11783399
-0.012709681
0.12191785
-0.012822613
0.12605174
-0.012957064
0.13024246
-0.013112546
0.13449605
-0.013286486
0.13881699
-0.013473827
0.14320732
-0.013666768
0.14766571
-0.013854701
0.15218667
-0.014024408
0.15675976
-0.014160515
0.16136916
-0.014246277
0.16599341
-0.014264263
0.17060571
-0.014198003
0.17517355
-0.014030015
0.17966135
-0.013750665
0.18402218
-0.013325706
0.18822624
-0.012805894
0.19215944
-0.011936222
0.19600065
-0.011616162
-0.0086616011
0.033386509
-0.0069102531
0.03492001
-0.008006203
0.036654209
-0.0089758409
0.038516423
-0.0096819999
0.040508037
-0.010331403
0.042636354
-0.010957612
0.044895083
-0.011531594
0.0472755
-0.012051095
0.049770884
-0.012525458
0.052374942
-0.012958967
0.055080964
-0.013353067
0.057882059
-0.013709597
0.060771379
-0.01403066
0.063742152
-0.014318154
0.066787728
-0.014573856
0.069901632
-0.014799575
0.073077644
-0.014997219
0.076309874
-0.015168837
0.079592839
-0.015316664
0.082921544
-0.015443171
0.086291567
-0.015551101
0.089699146
-0.015643504
0.093141268
-0.015723763
0.09661576
-0.015795604
0.10012137
-0.015863108
0.10365787
-0.015930677
0.1072261
-0.016002997
0.11082803
-0.016084927
0.11446679
-0.01618135
0.1181466
-0.016296931
0.1218727
-0.01643578
0.12565111
-0.016601022
0.12948831
-0.016794265
0.13339078
-0.017015017
0.13736438
-0.017260089
0.14141363
-0.017523074
0.14554085
-0.017793992
0.14974535
-0.018059193
0.15402253
-0.018301595
0.15836327
-0.018501255
0.16275337
-0.018636377
0.16717329
-0.018684182
0.1715984
-0.01862311
0.17599852
-0.018430139
0.18034069
-0.018092833
0.18458082
-0.017565836
0.18869193
-0.016917003
0.19256525
-0.015809541
0.19637009
-0.015421004
-0.011597567
0.054404768
-0.0076640524
0.055365446
-0.0089668801
0.056487521
-0.010097916
0.057706578
-0.010901057
0.059038463
-0.011663287
0.060498349
-0.012417498
0.062085621
-0.013118866
0.063796291
-0.013761765
0.06562704
-0.014356207
0.067574209
-0.014906136
0.069633279
-0.015412137
0.071799052
-0.015875369
0.074065911
-0.016297519
0.076428006
-0.016680249
0.078879361
-0.017025211
0.081413983
-0.017334196
0.084025969
-0.017609205
0.086709624
-0.017852491
0.089459556
-0.018066596
0.092270781
-0.018254396
0.095138816
-0.018419136
0.098059774
-0.018564462
0.10103046
-0.018694446
0.10404845
-0.018813593
0.10711219
-0.01892685
0.11022108
-0.019039567
0.11337553
-0.019157445
0.11657702
-0.019286415
0.11982812
-0.019432454
0.12313248
-0.019601296
0.12649474
-0.019798038
0.12992033
-0.02002661
0.13341522
-0.02028915
0.13698547
-0.020585272
0.14063674
-0.020911354
0.14437355
-0.021259884
0.14819856
-0.021619011
0.15211178
-0.021972412
0.15610974
-0.02229955
0.16018482
-0.022576336
0.16432478
-0.022776338
0.16851239
-0.022871796
0.17272566
-0.022836377
0.17693729
-0.022641773
0.1811175
-0.022273039
0.18522578
-0.021674114
0.18923853
-0.020929756
0.19305413
-0.019625144
0.1968293
-0.019196175
-0.0145968
0.077299037
-0.0077027741
0.077519711
-0.0091875537
0.077865847
-0.010444053
0.078295903
-0.011331113
0.078839241
-0.012206625
0.079513431
-0.013091689
0.080322305
-0.01392774
0.081266728
-0.014706188
0.082345935
-0.015435413
0.083557699
-0.0161179
0.084898756
-0.016753194
0.086364857
-0.017341471
0.087950935
-0.017883597
0.089651409
-0.018380724
0.091460412
-0.018834214
0.093371931
-0.019245714
0.095379939
-0.019617214
0.097478537
-0.01995109
0.099662077
-0.020250137
0.10192527
-0.02051759
0.1042633
-0.02075716
0.10667189
-0.020973055
0.10914745
-0.021170004
0.11168711
-0.021353256
0.11428884
-0.021528586
0.11695152
-0.021702248
0.119675
-0.021880919
0.12246014
-0.022071555
0.12530887
-0.02228119
0.12822418
-0.022516602
0.13121001
-0.022783867
0.13427116
-0.023087758
0.13741301
-0.023431004
0.1406412
-0.023813458
0.14396109
-0.024231253
0.14737724
-0.024676029
0.15089263
-0.025134401
0.15450798
-0.025587764
0.158221
-0.026012572
0.16202573
-0.026381065
0.16591203
-0.026662637
0.16986521
-0.026824976
0.17386618
-0.026837345
0.17789087
-0.026666464
0.18191305
-0.026295216
0.1858963
-0.025657362
0.18982082
-0.024854276
0.1935936
-0.023397921
0.19735654
-0.022959117
-0.017690757
0.10026028
-0.0068736652
0.099597594
-0.0085248697
0.099031526
-0.0098779843
0.098564807
-0.010864394
0.098234835
-0.011876653
0.098053452
-0.012910306
0.09802673
-0.013901017
0.098159585
-0.014839043
0.098452483
-0.015728311
0.098903062
-0.016568478
0.099507896
-0.017358029
0.10026257
-0.018096148
0.10116167
-0.018782693
0.10219908
-0.019418138
0.10336836
-0.020003488
0.10466286
-0.020540215
0.10607593
-0.021030282
0.10760102
-0.021476183
0.10923184
-0.021880961
0.11096247
-0.022248215
0.11278744
-0.022582126
0.11470185
-0.022887469
0.11670147
-0.023169627
0.11878281
-0.023434594
0.12094318
-0.023688958
0.12318081
-0.023939872
0.12549485
-0.024194961
0.12788549
-0.024462194
0.13035394
-0.024749643
0.13290246
-0.025065126
0.13553431
-0.025415716
0.13825361
-0.025807059
0.14106517
-0.02624256
0.14397415
-0.026722442
0.14698568
-0.027242776
0.15010426
-0.027794611
0.15333321
-0.028363348
0.15667394
-0.028928497
0.16012532
-0.029463951
0.16368301
-0.02993876
0.16733902
-0.030318643
0.17108123
-0.03056719
0.17489356
-0.030649677
0.17875529
-0.030528191
0.18264391
-0.030183836
0.18652734
-0.029540792
0.19038982
-0.028716754
0.19414795
-0.027156051
0.19792748
-0.026738645
-0.020916974
0.12139058
-0.0051304984
0.11978632
-0.006920609
0.11824196
-0.0083336277
0.11684225
-0.0094646845
0.11562407
-0.010658469
0.1145855
-0.011871739
0.11373268
-0.013048198
0.11307269
-0.014179052
0.11260582
-0.015261434
0.11232835
-0.016291008
0.11223537
-0.017265051
0.11232115
-0.018181935
0.1125791
-0.019040641
0.11300196
-0.019840997
0.11358215
-0.020583671
0.11431195
-0.021270016
0.11518369
-0.021902029
0.11618988
-0.022482369
0.11732329
-0.023014369
0.11857711
-0.023502035
0.11994503
-0.023950051
0.12142135
-0.024363786
0.12300103
-0.024749307
0.1246798
-0.025113365
0.12645422
-0.025463384
0.12832177
-0.025807413
0.13028085
-0.026154044
0.13233091
-0.026512257
0.13447244
-0.026891168
0.13670697
-0.027299658
0.13903707
-0.027745819
0.14146625
-0.028236234
0.14399876
-0.02877507
0.14663935
-0.029363037
0.1493929
-0.029996327
0.15226392
-0.030665629
0.155256
-0.031355426
0.15837121
-0.032043704
0.16160947
-0.032702215
0.164968
-0.033297294
0.16844082
-0.033791463
0.17201832
-0.034144688
0.17568733
-0.034318687
0.17943042
-0.034271279
0.18322879
-0.033982203
0.18705469
-0.033366692
0.19089643
-0.032558493
0.19468077
-0.030940393
0.19851667
-0.030574543
-0.024318787
0.13888009
-0.0026125832
0.13643156
-0.0044720797
0.13395231
-0.005854378
0.13168267
-0.0071950433
0.12964943
-0.0086252267
0.12783462
-0.01005693
0.12624175
-0.011455329
0.12487653
-0.012813834
0.12373816
-0.014123062
0.12282171
-0.015374556
0.12212055
-0.01656389
0.12162723
-0.017688615
0.12133369
-0.018747106
0.12123141
-0.019738716
0.12131158
-0.020663842
0.12156534
-0.021523773
0.12198391
-0.022320602
0.12255875
-0.023057207
0.12328164
-0.023737255
0.1241448
-0.024365196
0.125141
-0.024946252
0.12626364
-0.025486425
0.12750682
-0.02599249
0.12886544
-0.026471983
0.13033525
-0.026933188
0.13191291
-0.027385078
0.13359609
-0.027837226
0.13538348
-0.028299646
0.13727485
-0.028782534
0.13927105
-0.029295861
0.14137403
-0.029848795
0.14358672
-0.030448924
0.14591292
-0.031101268
0.14835704
-0.031807159
0.15092377
-0.032563064
0.15361766
-0.03335952
0.15644259
-0.034180349
0.1594012
-0.035002319
0.16249441
-0.035795421
0.1657208
-0.036523689
0.16907625
-0.037146908
0.17255342
-0.037621865
0.17614189
-0.037907154
0.17982729
-0.037956683
0.18359434
-0.037749249
0.1874194
-0.037191754
0.19129467
-0.036433758
0.19515722
-0.034802948
0.19909882
-0.034516143
-0.027944625
0.15167389
-0.00011524569
0.14844106
-0.0012392522
0.14520999
-0.0026233097
0.14223548
-0.0042205273
0.13952046
-0.0059102119
0.13705941
-0.0075958767
0.13485499
-0.0092509102
0.13290792
-0.010866767
0.13121641
-0.012431545
0.12977601
-0.013934158
0.12857975
-0.015367635
0.12761912
-0.016727979
0.12688483
-0.018012823
0.1263672
-0.019221083
0.12605625
-0.020352888
0.12594194
-0.021409462
0.12601435
-0.022393014
0.12626382
-0.023306682
0.12668108
-0.024154506
0.1272573
-0.024941416
0.12798426
-0.025673214
0.1288544
-0.026356568
0.12986091
-0.026999001
0.1309978
-0.027608874
0.13225998
-0.028195363
0.1336433
-0.028768397
0.13514464
-0.02933857
0.13676197
-0.029916973
0.13849435
-0.030514922
0.14034203
-0.031143536
0.14230637
-0.031813133
0.14438983
-0.032532388
0.14659586
-0.033307291
0.14892862
-0.034139924
0.15139274
-0.035027187
0.15399287
-0.035959645
0.15673319
-0.036920668
0.15961694
-0.037886069
0.16264589
-0.038824374
0.16581987
-0.039697673
0.16913638
-0.040463411
0.17259011
-0.041075597
0.17617308
-0.041490121
0.17987366
-0.041657263
0.18367982
-0.04155541
0.1875714
-0.041083335
0.19154497
-0.040407333
0.19554468
-0.038802649
0.19965387
-0.038625334
-0.03184288
0.19135646
0.004378113
-0.19584982
0.18765187
0.0024653426
0.1843683
0.0006602599
0.18133689
-0.0011891235
0.17852033
-0.003093645
0.17589389
-0.0049694363
0.17344011
-0.0067971328
0.17115066
-0.008577318
0.16902229
-0.010303169
0.16705351
-0.01196538
0.16524322
-0.013557346
0.16359012
-0.015074876
0.16209242
-0.016515129
0.16074777
-0.017876429
0.15955322
-0.019158341
0.15850537
-0.020361611
0.15760042
-0.021488061
0.15683428
-0.02254054
0.15620266
-0.023522893
0.15570119
-0.024439947
0.15532547
-0.025297486
0.15507114
-0.026102241
0.15493401
-0.02686187
0.15491007
-0.027584937
0.15499559
-0.028280877
0.15518712
-0.028959933
0.1554816
-0.029633052
0.15587634
-0.030311705
0.15636902
-0.031007603
0.15695773
-0.031732246
0.15764088
-0.032496289
0.15841716
-0.033308663
0.15928535
-0.034175483
0.16024421
-0.035098789
0.16129227
-0.036075238
0.16242756
-0.037094942
0.16364753
-0.038140635
0.16494881
-0.039187346
0.16632716
-0.040202726
0.1677774
-0.041147914
0.16929336
-0.041979369
0.17086769
-0.04264993
0.17249206
-0.043114491
0.17415628
-0.043321484
0.17585104
-0.043250167
0.17756109
-0.042793385
0.17928724
-0.04213348
0.18098503
-0.040500448
0.18273599
-0.040376285
-0.033396097
0.21921051
0.0076703841
-0.22250278
0.21584797
0.0058278849
0.21274794
0.003760291
0.2097603
0.0017985128
0.20683655
-0.00016988968
0.20400776
-0.0021406433
0.20129134
-0.0040807166
0.1986925
-0.0059784821
0.19621779
-0.0078284553
0.19387472
-0.0096223073
0.19166926
-0.011351887
0.18960564
-0.013011263
0.18768676
-0.014596243
0.18591425
-0.016103917
0.18428858
-0.017532677
0.18280921
-0.018882241
0.18147473
-0.020153575
0.18028301
-0.021348822
0.17923138
-0.022471263
0.17831672
-0.023525292
0.17753562
-0.024516382
0.17688444
-0.025451063
0.17635946
-0.026336891
0.17595695
-0.027182422
0.17567323
-0.027997163
0.1755048
-0.028791504
0.17544835
-0.029576602
0.17550084
-0.030364187
0.1756595
-0.031166265
0.17592189
-0.031994639
0.17628584
-0.03286024
0.17674939
-0.033772214
0.17731068
-0.034736774
0.17796779
-0.035755895
0.17871854
-0.036825985
0.17956031
-0.037936717
0.18048991
-0.039070232
0.18150344
-0.040200881
0.18259633
-0.041295615
0.18376331
-0.042314889
0.18499843
-0.043214491
0.186295
-0.043946502
0.18764558
-0.044465068
0.18904155
-0.044717449
0.19047443
-0.044683056
0.19193323
-0.044252183
0.19341461
-0.043614861
0.19489642
-0.041982257
0.19640709
-0.041886955
-0.034813201
0.24594576
0.010295663
-0.24857104
0.24319978
0.0085738693
0.24045335
0.006506717
0.23771841
0.004533455
0.23495894
0.0025895828
0.23219538
0.00062291068
0.22945907
-0.001344403
0.2267699
-0.0032893167
0.22414435
-0.005202899
0.22159887
-0.0070768314
0.21914799
-0.0089010083
0.21680346
-0.010666735
0.21457473
-0.012367506
0.21246924
-0.01399843
0.2104926
-0.015556041
0.20864873
-0.017038372
0.20694008
-0.018444925
0.20536784
-0.019776582
0.20393214
-0.021035555
0.20263218
-0.02222534
0.20146648
-0.023350679
0.20043293
-0.024417517
0.19952901
-0.025432963
0.19875184
-0.026405251
0.19809835
-0.02734368
0.19756539
-0.028258539
0.19714977
-0.029160978
0.19684839
-0.030062808
0.1966583
-0.030976178
0.19657674
-0.031913083
0.19660116
-0.032884656
0.19672915
-0.033900202
0.19695838
-0.034966005
0.19728645
-0.036083965
0.1977107
-0.037250237
0.19822805
-0.038454067
0.19883487
-0.039677048
0.19952693
-0.040892942
0.20029947
-0.042068162
0.20114731
-0.043162731
0.2020649
-0.04413208
0.20304635
-0.044927946
0.20408526
-0.045503977
0.20517479
-0.045806981
0.2063074
-0.045815665
0.20747677
-0.045421549
0.20867446
-0.044812557
0.20990385
-0.04321165
0.21113023
-0.043113335
-0.036064859
0.27122429
0.012245305
-0.27317394
0.26914515
0.01065301
0.26689629
0.0087555788
0.26455502
0.0068747315
0.26213075
0.0050138451
0.2596338
0.0031198687
0.25709024
0.0011991557
0.25452442
-0.00072349669
0.25195688
-0.0026353637
0.24940807
-0.0045280186
0.24689778
-0.0063907185
0.24444376
-0.008212714
0.24206144
-0.0099851879
0.2397641
-0.011701086
0.23756288
-0.013354828
0.23546689
-0.01494238
0.23348329
-0.016461325
0.23161752
-0.017910811
0.22987346
-0.019291494
0.22825362
-0.020605497
0.2267593
-0.021856365
0.2253908
-0.023049017
0.22414754
-0.024189701
0.22302823
-0.02528594
0.22203102
-0.02634647
0.22115363
-0.027381154
0.22039351
-0.028400855
0.21974792
-0.029417216
0.21921408
-0.030442338
0.21878925
-0.031488254
0.21847079
-0.032566196
0.21825616
-0.033685568
0.21814285
-0.034852698
0.21812829
-0.036069404
0.21820965
-0.037331595
0.21838368
-0.038628104
0.21864664
-0.039940004
0.21899423
-0.041240535
0.21942177
-0.042495705
0.21992437
-0.043665322
0.22049704
-0.044704755
0.22113488
-0.045565783
0.22183273
-0.04620183
0.22258564
-0.046559894
0.22338726
-0.046617286
0.2242357
-0.046269989
0.22511839
-0.045695245
0.22606144
-0.0441547
0.22697357
-0.044025459
-0.037118289
0.2946918
0.013514318
-0.29596081
0.29327902
0.012065787
0.29162814
0.010406461
0.28980614
0.0086967312
0.28784886
0.0069711254
0.28576763
0.0052011021
0.2835811
0.0033856883
0.28131289
0.001544706
0.27898446
-0.0003069309
0.27661628
-0.0021598369
0.27422935
-0.0040037858
0.27184404
-0.0058274121
0.2694793
-0.0076204434
0.26715237
-0.0093741587
0.26487873
-0.011081188
0.26267194
-0.012735584
0.26054358
-0.014332971
0.25850337
-0.015870595
0.25655917
-0.017347298
0.25471718
-0.018763509
0.25298203
-0.020121214
0.25135694
-0.021423923
0.24984386
-0.022676627
0.24844367
-0.023885748
0.24715629
-0.025059084
0.24598085
-0.026205716
0.24491589
-0.027335893
0.24395948
-0.028460808
0.24310942
-0.029592276
0.24236335
-0.030742191
0.24171891
-0.031921756
0.24117376
-0.033140412
0.24072557
-0.034404506
0.24037195
-0.035715786
0.24011028
-0.037069931
0.23993756
-0.038455383
0.23985028
-0.039852719
0.23984444
-0.041234703
0.23991577
-0.042567028
0.24005991
-0.043809464
0.24027272
-0.044917563
0.24055043
-0.045843498
0.24088934
-0.04654074
0.24128647
-0.046957027
0.24173696
-0.047067767
0.2422429
-0.046775936
0.24278885
-0.046241191
0.24341977
-0.044785622
0.24399759
-0.044603276
-0.037944626
0.31655688
0.01417004