/*--------------------------------*- C++ -*----------------------------------*\
  =========                 |
  \\      /  F ield         | OpenFOAM: The Open Source CFD Toolbox
   \\    /   O peration     | Website:  https://openfoam.org
    \\  /    A nd           | Version:  6
     \\/     M anipulation  |
\*---------------------------------------------------------------------------*/
FoamFile
{
    version     2.0;
    format      ascii;
    class       volVectorField;
    location    "31";
    object      U;
}
// * * * * * * * * * * * * * * * * * * * * * * * * * * * * * * * * * * * * * //

dimensions      [0 1 -1 0 0 0 0];

internalField   nonuniform List<vector> 
9200
(
(0.001133644 0.0013717731 -5.9964434e-20)
(0.014092038 -0.0022738026 4.672863e-20)
(0.039222445 -0.0062459119 -3.9046098e-20)
(0.073814451 -0.010309984 -6.1068532e-20)
(0.11604896 -0.014209438 1.9122803e-20)
(0.16470521 -0.017501569 3.3216289e-20)
(0.21871361 -0.019892141 -1.2476562e-20)
(0.27708366 -0.021230453 9.4314927e-21)
(0.33888475 -0.021453419 1.701161e-20)
(0.403214 -0.020562617 1.5061269e-21)
(0.46917255 -0.018612844 -2.1793492e-20)
(0.53585668 -0.015701058 2.1013659e-20)
(0.60236104 -0.011955385 -4.1062276e-20)
(0.66779222 -0.0075238931 -2.152636e-20)
(0.73129089 -0.002562615 6.0086774e-21)
(0.79205987 0.0027744092 -2.5666266e-20)
(0.84941122 0.0083584076 2.5821094e-20)
(0.90289074 0.014233017 2.305246e-20)
(0.95210041 0.020532871 -1.4376112e-22)
(0.99434932 0.023923384 -1.4697018e-21)
(0.005415006 -0.0014330981 -1.7277838e-20)
(0.027583655 -0.0093000719 4.029909e-20)
(0.062924069 -0.015316592 2.3907408e-20)
(0.10831802 -0.019860709 -1.1714354e-19)
(0.16163546 -0.023077497 -1.2912595e-20)
(0.22139387 -0.024753604 7.4183768e-20)
(0.28625229 -0.024793451 -3.5948558e-20)
(0.35493466 -0.023231763 -8.4988175e-21)
(0.42621716 -0.020175436 3.4770004e-20)
(0.49890461 -0.015784662 -4.3914342e-20)
(0.57181984 -0.010264885 -3.085524e-20)
(0.64381155 -0.0038562532 7.3284326e-20)
(0.71377588 0.0031783618 3.9012393e-20)
(0.78068722 0.010565281 -6.9427775e-20)
(0.84363374 0.018030299 1.4986984e-20)
(0.90185207 0.025303711 -3.7636963e-20)
(0.95476934 0.032134399 -1.4046185e-20)
(1.0021029 0.038362451 7.3129994e-20)
(1.0437332 0.043580616 3.0959098e-20)
(1.0779012 0.044689601 -8.4856307e-20)
(0.011103945 -0.0041625286 3.7202745e-20)
(0.044814447 -0.015819633 2.5332202e-21)
(0.092160009 -0.02315481 2.2662912e-20)
(0.14966555 -0.027282193 9.9260498e-22)
(0.21489777 -0.028835156 -4.1369646e-20)
(0.28608462 -0.027894523 1.8769544e-20)
(0.3615762 -0.024624493 1.361621e-20)
(0.43977564 -0.019303905 -5.1011278e-20)
(0.51914356 -0.012263665 5.809767e-20)
(0.59819446 -0.003869369 1.4530386e-20)
(0.67550862 0.0054866889 -5.5308885e-20)
(0.74976257 0.015399494 -1.8663592e-20)
(0.81976954 0.025468221 9.0024849e-21)
(0.88452199 0.035312973 2.4005187e-20)
(0.94322891 0.044589186 -1.1699164e-20)
(0.99534089 0.052997063 2.8579372e-20)
(1.0405641 0.06029583 -2.0656321e-20)
(1.0788903 0.066350545 -7.2136092e-20)
(1.1104747 0.070898636 -2.4572727e-20)
(1.1345005 0.07208978 4.9616579e-20)
(0.018298841 -0.0065675165 2.4773192e-20)
(0.065908075 -0.02113545 5.1630603e-20)
(0.12692331 -0.028717121 2.0102109e-20)
(0.19758548 -0.031288468 1.3090663e-20)
(0.27517407 -0.030059772 1.7447372e-20)
(0.35760808 -0.025476394 -4.8289544e-20)
(0.44290952 -0.018027494 -2.5980051e-20)
(0.52915869 -0.0082943325 0)
(0.61452825 0.0031211522 1.4278942e-20)
(0.69730989 0.015616507 -6.0917508e-21)
(0.77595382 0.028600749 -9.9728763e-20)
(0.84912003 0.041514649 -1.5973521e-20)
(0.91572877 0.053853433 6.6660944e-20)
(0.97499991 0.065186838 3.0362613e-22)
(1.0264742 0.075173829 -1.6119339e-21)
(1.0700111 0.083569899 2.2523309e-20)
(1.1057657 0.090233801 -5.4447532e-21)
(1.1341626 0.095155494 -6.2635342e-20)
(1.1557777 0.098318103 -4.718978e-20)
(1.1706178 0.09879484 7.0961475e-20)
(0.027028605 -0.0083654258 -3.9476172e-21)
(0.090767511 -0.024494057 -5.1776763e-21)
(0.16682574 -0.030924551 5.7194112e-20)
(0.2512659 -0.030608918 1.8718627e-20)
(0.34111794 -0.025418621 -3.230699e-20)
(0.43399884 -0.016234515 1.2303831e-20)
(0.52762403 -0.0039319119 2.6767174e-21)
(0.61980577 0.010559536 3.4168524e-20)
(0.70852686 0.026341898 5.7578809e-21)
(0.79200102 0.042576229 -1.3543754e-20)
(0.86873522 0.058500661 6.1601672e-20)
(0.93758793 0.073455901 -5.9093713e-20)
(0.99780943 0.086909085 -1.3512556e-19)
(1.0490551 0.098469385 -5.7092196e-21)
(1.0913682 0.10789305 8.523832e-20)
(1.1251344 0.1150772 0)
(1.1510136 0.12004868 1.0346327e-20)
(1.1698683 0.12296605 -1.5855408e-20)
(1.1826469 0.12402023 -8.8376318e-21)
(1.1899393 0.12284318 2.1456809e-20)
(0.037231884 -0.0092502092 -5.4414394e-21)
(0.11904274 -0.02512809 4.4004627e-21)
(0.21108617 -0.028746847 -8.8482454e-21)
(0.30939133 -0.024119519 2.8762004e-20)
(0.4108122 -0.01384642 -2.9740859e-20)
(0.51271619 0.00069645943 -1.7146723e-20)
(0.61259386 0.018205629 3.7752916e-20)
(0.70811584 0.037387244 4.7824765e-21)
(0.79724761 0.057062674 -2.5038164e-20)
(0.87833616 0.076204075 7.1186691e-20)
(0.95017745 0.093955488 3.6340218e-22)
(1.0120575 0.10965593 -8.2322886e-20)
(1.0637562 0.12285328 0)
(1.1055114 0.1333027 4.055208e-20)
(1.1379479 0.14094974 5.6734657e-21)
(1.1619822 0.14590057 -7.9416457e-20)
(1.1787163 0.14838731 -2.0050542e-20)
(1.1893377 0.14874456 -1.2762234e-20)
(1.1950114 0.14732317 -1.5072568e-20)
(1.1966109 0.14408488 4.1363078e-20)
(0.048743569 -0.0089133387 -1.7400366e-20)
(0.15011387 -0.022315698 -2.3218018e-21)
(0.25853919 -0.02129332 3.0633978e-20)
(0.37020188 -0.010955492 3.7790021e-20)
(0.48190024 0.005334933 -2.0161278e-20)
(0.59086381 0.025676147 -7.0111771e-20)
(0.69450925 0.048332828 -2.8490235e-20)
(0.79056173 0.071679603 8.0221342e-20)
(0.87720026 0.094326438 8.8522857e-21)
(0.95315001 0.11515726 -2.526889e-20)
(1.0177277 0.13334359 1.3772675e-20)
(1.0708374 0.14835086 -4.4672798e-21)
(1.1129141 0.15992684 0)
(1.1448263 0.16806934 2.7794051e-20)
(1.1677498 0.17297799 -8.1071188e-20)
(1.1830342 0.17499698 -3.2173559e-20)
(1.1920772 0.17455908 8.2855913e-20)
(1.1962234 0.1721447 -4.4402937e-21)
(1.1966815 0.16820524 3.6208718e-21)
(1.1943758 0.16288386 2.7784739e-20)
(0.061288514 -0.0070718144 -3.2632856e-20)
(0.18309678 -0.015453062 -8.2373653e-20)
(0.30768006 -0.0079116041 2.4838159e-21)
(0.43159723 0.0093836844 7.0936976e-20)
(0.55176134 0.032327312 6.3172565e-20)
(0.66543877 0.058508928 -7.2386614e-20)
(0.7701869 0.085813161 -1.4687344e-22)
(0.86403227 0.11237564 8.7093878e-20)
(0.94562269 0.13672063 4.9686652e-20)
(1.0142955 0.15778934 -5.5307661e-20)
(1.0700714 0.17492877 -9.4169335e-20)
(1.1135814 0.18786325 -3.2227596e-21)
(1.145941 0.19664237 4.2986502e-20)
(1.168593 0.201569 -6.7452767e-21)
(1.1831433 0.20311785 -1.3121255e-20)
(1.1912125 0.20185557 2.005586e-20)
(1.1943183 0.19837319 4.4794458e-20)
(1.1937979 0.19324068 -4.4739496e-20)
(1.1907655 0.18694661 -1.0453104e-19)
(1.1860516 0.17972052 2.5191483e-20)
(0.074451994 -0.0034991076 -3.5319201e-20)
(0.21680474 -0.0041310118 -1.7507158e-19)
(0.35664115 0.011728746 8.3074424e-20)
(0.49114229 0.03697227 9.3829204e-20)
(0.61755476 0.066837412 5.8642979e-20)
(0.73341313 0.098484031 8.7400258e-21)
(0.83667342 0.12953303 -1.0780532e-19)
(0.92592566 0.1580338 0)
(1.0005207 0.18259698 -7.0125213e-20)
(1.0605842 0.20239173 -1.5535763e-20)
(1.1069365 0.21708939 5.5746142e-20)
(1.1409428 0.22678353 1.1192596e-20)
(1.164324 0.23188861 -4.6488649e-20)
(1.1789603 0.23302801 -5.0002754e-20)
(1.1867165 0.23092712 2.4790685e-20)
(1.1893073 0.22632329 4.5751351e-20)
(1.1882125 0.21990088 -5.6734175e-20)
(1.18464 0.21225474 -1.0964945e-19)
(1.179528 0.20385548 -3.1422291e-21)
(1.1735469 0.19496301 2.758038e-20)
(0.087663359 0.0019593522 -3.6568909e-21)
(0.24975336 0.011850212 8.8707384e-20)
(0.40323032 0.037640021 -1.6148274e-20)
(0.54615551 0.07148316 -8.5491399e-20)
(0.67635994 0.10812415 4.5776249e-20)
(0.79190736 0.14444663 4.9698856e-20)
(0.89141468 0.17799434 5.6272962e-21)
(0.97426708 0.2069375 -1.0113661e-19)
(1.0406879 0.23017428 -2.549513e-21)
(1.0916758 0.24727322 5.1441625e-20)
(1.128844 0.25835357 6.0972112e-21)
(1.1542024 0.26394513 -2.0097213e-20)
(1.1699286 0.26483915 -7.7092925e-20)
(1.1781625 0.2619473 -6.3396647e-21)
(1.1808508 0.25618487 4.4311784e-20)
(1.1796509 0.24838744 3.7678889e-20)
(1.1758929 0.23926277 2.0092786e-20)
(1.1705884 0.22937291 -5.4159969e-20)
(1.1644733 0.21913177 1.298466e-20)
(1.1580445 0.20880136 8.4133046e-20)
(-0.0013145426 0.001458187 -1.1293736e-21)
(-0.0048218649 0.0032368374 2.0926027e-21)
(-0.010937384 0.0041971922 9.2568277e-22)
(-0.018019857 0.0046037351 -2.4329858e-21)
(-0.025099998 0.0046265584 -1.4694999e-21)
(-0.031741511 0.0043800226 1.6066564e-21)
(-0.037669619 0.0039475169 -7.0477004e-21)
(-0.042703525 0.0033896689 -6.1128939e-21)
(-0.046741338 0.0027497824 1.1455238e-20)
(-0.049735781 0.0020584683 -9.9924179e-21)
(-0.051673973 0.0013371051 -2.001245e-22)
(-0.052564439 0.00060036524 3.7711712e-21)
(-0.052428586 -0.00014186969 -6.4694301e-22)
(-0.051294889 -0.0008829814 2.3467225e-20)
(-0.049195221 -0.0016182238 3.0453486e-22)
(-0.046164336 -0.0023432358 -4.2130244e-20)
(-0.042242281 -0.0030534301 7.7923981e-21)
(-0.037465983 -0.0037468029 2.4631985e-20)
(-0.03184144 -0.0044219343 -4.5320744e-20)
(-0.025426694 -0.0050295262 -2.8696388e-20)
(-0.0016782786 0.0042483515 -5.477002e-21)
(-0.0054793831 0.0094094578 1.100129e-20)
(-0.011381459 0.012182185 -1.0370551e-20)
(-0.017904767 0.013335959 4.050739e-21)
(-0.024176694 0.013367649 4.9612543e-21)
(-0.029811068 0.012612986 7.3266653e-22)
(-0.034567841 0.011316914 -2.3083869e-20)
(-0.038291324 0.0096574252 -2.0853609e-21)
(-0.040896511 0.0077616147 2.0660109e-20)
(-0.042346899 0.0057192877 -5.1731315e-21)
(-0.042636053 0.0035931096 -2.2323383e-20)
(-0.041775838 0.0014260212 5.0254281e-21)
(-0.039788742 -0.0007531583 2.3216787e-20)
(-0.036702499 -0.0029252503 1.0594888e-20)
(-0.032546237 -0.0050766346 2.2505909e-20)
(-0.027350975 -0.0071950351 -2.0357532e-20)
(-0.021159545 -0.0092676619 -2.2325316e-20)
(-0.014017952 -0.011288134 2.1896692e-20)
(-0.0058569507 -0.013241864 2.7675954e-20)
(0.003521362 -0.014959217 1.6333197e-20)
(-0.0023376114 0.0066627739 -4.4404922e-21)
(-0.0066300573 0.014693511 -5.6946854e-21)
(-0.012045676 0.018972768 3.0305309e-22)
(-0.017417562 0.020698977 1.0688399e-21)
(-0.02205913 0.020652283 6.8306958e-21)
(-0.025680681 0.019365691 1.0885458e-20)
(-0.02810958 0.017228895 -3.8096309e-21)
(-0.029238991 0.014525173 -1.9325478e-20)
(-0.029016907 0.01145703 6.6948913e-21)
(-0.027428212 0.0081677166 1.3167038e-20)
(-0.024479777 0.0047572415 6.0019061e-21)
(-0.020191113 0.0012940684 1.8587826e-20)
(-0.014588334 -0.0021761072 1.7742104e-21)
(-0.0076997346 -0.0056234072 -3.4732756e-20)
(0.00044806775 -0.0090270423 1.2708872e-21)
(0.0098284553 -0.012368717 -2.268395e-20)
(0.020391742 -0.015631301 -2.5233496e-20)
(0.032070275 -0.018806409 4.7261007e-20)
(0.0450593 -0.021840202 2.6207284e-20)
(0.060057356 -0.024363419 1.9616093e-22)
(-0.0031720969 0.0084934115 -5.3895222e-21)
(-0.0079940716 0.018592143 -8.7411517e-21)
(-0.012571856 0.023898513 4.4305384e-21)
(-0.016167801 0.025924709 4.2299024e-21)
(-0.018352745 0.025667 2.0457639e-21)
(-0.018972158 0.023817956 7.4820872e-21)
(-0.017949208 0.020885486 9.5111702e-21)
(-0.015247456 0.017238989 -1.3795696e-21)
(-0.010863526 0.013143053 -1.1727064e-20)
(-0.0048151515 0.0087852341 -2.9723117e-20)
(0.0028687677 0.0042966257 7.7116524e-23)
(0.012153641 -0.00023304333 4.16383e-20)
(0.023003532 -0.0047444142 -1.8782252e-20)
(0.035382808 -0.0091991399 -1.2597218e-20)
(0.049260389 -0.013571816 5.2127377e-22)
(0.064607952 -0.017842251 3.3171076e-20)
(0.081363077 -0.021996506 -1.5321152e-20)
(0.099418008 -0.026033939 -5.4806573e-20)
(0.11910038 -0.029835781 4.704052e-20)
(0.14182589 -0.032710002 3.3961286e-20)
(-0.0040200831 0.0095968701 -6.8213733e-22)
(-0.0091877293 0.020750859 -1.2751373e-20)
(-0.012458849 0.026471869 -3.4821614e-20)
(-0.013598674 0.028449462 -5.8599159e-21)
(-0.01248434 0.027814451 -3.6677146e-21)
(-0.0091253441 0.025372096 6.4303423e-21)
(-0.0035634673 0.021715092 -4.7386343e-21)
(0.0041485478 0.017274449 -8.970689e-21)
(0.013950235 0.012359455 2.2323875e-20)
(0.025777907 0.0071896957 5.1372912e-21)
(0.039569202 0.00191907 -2.5867968e-20)
(0.055263242 -0.0033469422 1.1292274e-20)
(0.072801184 -0.0085386258 0)
(0.092126728 -0.013612256 1.2361263e-20)
(0.11318925 -0.018541266 -9.9268586e-21)
(0.13594286 -0.023308646 -1.4708115e-20)
(0.16029842 -0.027913974 -1.4901905e-21)
(0.18608427 -0.032385388 -2.3231247e-21)
(0.21371791 -0.036536652 4.7206414e-20)
(0.24548495 -0.039208552 -1.0916173e-20)
(-0.0046960542 0.0099037027 -7.6507086e-21)
(-0.0097565789 0.020983201 2.4966003e-20)
(-0.011094987 0.026428321 -1.0710125e-20)
(-0.0090114501 0.027966719 -2.7959943e-20)
(-0.0037156566 0.026777212 -2.8010684e-20)
(0.004600014 0.023726766 -1.5188197e-20)
(0.015758138 0.019455091 -7.0065281e-22)
(0.029600615 0.014426194 5.6385506e-21)
(0.045988548 0.0089737077 1.9944012e-20)
(0.06479791 0.003335375 7.4866379e-21)
(0.085915076 -0.0023220422 -7.3101418e-21)
(0.10923442 -0.0078841971 -2.015174e-21)
(0.13465451 -0.013276019 -3.8961313e-20)
(0.16207531 -0.018452036 -1.2954688e-20)
(0.19139987 -0.023388076 1.9219145e-20)
(0.2225353 -0.028075317 -2.1536979e-20)
(0.2553405 -0.032537221 -9.1817293e-21)
(0.28955229 -0.036859709 3.1051807e-20)
(0.32559908 -0.040825305 5.1577757e-20)
(0.36668762 -0.042694144 3.4457305e-21)
(-0.0050060868 0.009415563 1.7020423e-20)
(-0.0092074513 0.01927407 1.4675676e-20)
(-0.0077932378 0.023742515 5.198402e-20)
(-0.0015977399 0.024457722 2.379676e-20)
(0.0088295932 0.022562139 1.8572779e-22)
(0.023103285 0.018932681 -4.0048908e-20)
(0.040898082 0.014216873 -2.4729015e-20)
(0.061937749 0.0088824866 1.0626625e-20)
(0.085986435 0.0032651837 1.4636571e-20)
(0.11283817 -0.0023959339 -1.3297912e-20)
(0.14230593 -0.0079335446 -4.4822114e-20)
(0.17421265 -0.013234022 3.0163287e-20)
(0.20838353 -0.018224448 2.0352814e-20)
(0.24463997 -0.022863753 -2.8076039e-20)
(0.28279918 -0.027135917 1.1902493e-20)
(0.32267771 -0.031046695 2.4686054e-20)
(0.36404374 -0.034652937 8.2658609e-21)
(0.40651257 -0.038129369 -1.2084492e-20)
(0.45042845 -0.041307266 -1.4405503e-20)
(0.4998413 -0.04184883 6.2649155e-21)
(-0.0047585395 0.0081940902 1.1265909e-20)
(-0.0070348789 0.015764273 -2.3781943e-20)
(-0.0018262585 0.018619508 8.70895e-21)
(0.0095205623 0.018192938 3.4146118e-20)
(0.026122021 0.015511817 5.2956916e-20)
(0.047395891 0.01141396 2.0597294e-20)
(0.072859109 0.0065170547 -5.9687121e-21)
(0.10209812 0.0012610095 -1.2456339e-20)
(0.13475876 -0.0040403094 -6.3262941e-21)
(0.17052623 -0.0091654291 3.4789824e-20)
(0.20910666 -0.013962333 -4.6333743e-21)
(0.25021281 -0.01833158 -1.6952631e-20)
(0.29355271 -0.02221441 -2.0003727e-20)
(0.33882126 -0.025585298 -4.8309547e-20)
(0.38569876 -0.028447224 2.3662916e-20)
(0.43385852 -0.03083157 -1.4377504e-20)
(0.48293374 -0.032841485 2.657436e-20)
(0.53240031 -0.034775285 2.1498487e-20)
(0.58244591 -0.036637973 -8.7002089e-20)
(0.6377601 -0.035662496 -1.9276084e-23)
(-0.0037709327 0.0063475366 2.2231328e-20)
(-0.0027462678 0.010729178 -2.660273e-20)
(0.0075284344 0.011478751 -4.5692917e-20)
(0.0252241 0.0097264312 -2.767772e-20)
(0.049136612 0.0063130218 -2.0746757e-21)
(0.078481281 0.0019901003 1.3212797e-20)
(0.11260278 -0.0026926202 -2.8490173e-21)
(0.15092994 -0.0073541896 1.8369931e-20)
(0.19296022 -0.011729304 8.9747222e-21)
(0.23823221 -0.015637161 -1.1543352e-20)
(0.28630071 -0.018961668 9.06898e-21)
(0.33671843 -0.02163661 -2.4282856e-20)
(0.3890226 -0.023635024 8.2388372e-21)
(0.44272604 -0.024962568 1.7062636e-20)
(0.4973156 -0.025653513 -2.6932695e-21)
(0.55226211 -0.02577263 1.6897579e-21)
(0.60700447 -0.025470036 -3.0417235e-22)
(0.66085418 -0.025150891 1.9998758e-20)
(0.71380691 -0.025017615 4.1179654e-21)
(0.77094613 -0.022390569 -1.0171892e-21)
(-0.001870716 0.0040198107 2.4051799e-20)
(0.0041183077 0.0045651334 5.8072709e-20)
(0.020934912 0.0029529068 -4.9965434e-20)
(0.046300229 -8.3695214e-05 -1.0090935e-20)
(0.078701123 -0.0039627769 2.0524934e-20)
(0.11714498 -0.0080653294 2.1723479e-21)
(0.16078663 -0.011949137 -3.0210991e-20)
(0.20886807 -0.015328412 7.055447e-21)
(0.26069947 -0.018019293 7.2432396e-21)
(0.31562661 -0.019912503 -2.6652256e-20)
(0.37300317 -0.020957617 1.321956e-21)
(0.43217289 -0.021150318 -3.7778184e-20)
(0.49245959 -0.020522014 -3.6979128e-20)
(0.5531637 -0.019131485 6.6924641e-20)
(0.61356491 -0.01705749 5.6780205e-21)
(0.67292948 -0.01439774 -1.5572849e-20)
(0.73049589 -0.011309806 1.9750876e-20)
(0.78540104 -0.0080986433 -9.3765024e-22)
(0.8371519 -0.0047872428 2.0558977e-20)
(0.88945885 0.0001736078 -2.0221771e-20)
(-0.017781293 -0.0053266436 6.0467352e-20)
(-0.0087707373 -0.0058897945 1.6325428e-20)
(0.0017004741 -0.0063512452 -3.6438237e-20)
(0.01327707 -0.0066404525 1.7500134e-20)
(0.025690826 -0.0068413465 0)
(0.038886067 -0.0069821555 0)
(0.052807305 -0.0070653045 -2.3998579e-20)
(0.067378094 -0.0070985366 -1.7246314e-20)
(0.082531294 -0.0070913609 2.0099124e-20)
(0.098211199 -0.0070506624 1.9112517e-20)
(0.114367 -0.0069816987 1.0911474e-21)
(0.13095139 -0.006889124 -1.0846723e-20)
(0.14792099 -0.0067770167 8.8882289e-21)
(0.16523613 -0.0066488608 1.9248142e-20)
(0.18286024 -0.0065076733 -5.6676263e-21)
(0.20075969 -0.0063561127 -1.0777327e-20)
(0.21890368 -0.0061965437 -4.5834082e-21)
(0.23726427 -0.0060310887 -4.6460706e-21)
(0.25581643 -0.0058616742 7.6202145e-22)
(0.27453823 -0.0056900665 1.3367555e-21)
(0.29341101 -0.0055178989 2.8829491e-21)
(0.31241974 -0.0053466914 7.3042372e-21)
(0.33155334 -0.0051778642 1.2541316e-22)
(0.35080509 -0.0050127458 -3.8809827e-21)
(0.37017299 -0.0048525744 1.3827783e-22)
(0.38966028 -0.0046984934 -6.6647766e-22)
(0.40927575 -0.0045515386 1.4608216e-21)
(0.42903413 -0.0044126176 1.1798555e-21)
(0.44895624 -0.0042824774 -1.754359e-21)
(0.46906899 -0.004161662 -1.0878274e-22)
(0.48940501 -0.0040504589 -2.0274841e-22)
(0.51000184 -0.0039488386 -4.7411134e-22)
(0.53090055 -0.0038563918 -6.9407687e-22)
(0.5521437 -0.0037722735 2.4592848e-22)
(0.57377256 -0.0036951661 -2.1003043e-22)
(0.5958236 -0.0036232732 -3.1615848e-22)
(0.61832442 -0.0035543555 3.7399709e-22)
(0.6412894 -0.0034858151 4.2506127e-22)
(0.66471513 -0.0034148297 -1.6550911e-22)
(0.68857684 -0.0033385225 -4.2556271e-22)
(0.71282404 -0.0032541684 -2.480589e-23)
(0.73738258 -0.0031593468 1.3689243e-23)
(0.76214132 -0.0030522235 1.1988495e-22)
(0.78699421 -0.0029311611 -2.7305983e-22)
(0.81171045 -0.002796148 -4.0501814e-22)
(0.83634573 -0.0026433635 1.1374428e-22)
(0.85996836 -0.0024829455 6.6731924e-23)
(0.88455642 -0.0022770117 -1.0950763e-23)
(0.9030975 -0.0021662626 2.6836674e-23)
(0.93488885 -0.001675277 6.8481922e-22)
(0.012489587 -0.015713755 -1.3278547e-20)
(0.020635899 -0.017417947 -6.5541187e-20)
(0.030726451 -0.018772757 -3.1785687e-20)
(0.041888468 -0.019599123 4.0028232e-20)
(0.053737108 -0.020177334 1.5280543e-20)
(0.066297411 -0.020589653 -1.9082987e-20)
(0.079545443 -0.020835268 5.0030981e-21)
(0.09340739 -0.020935392 2.6595281e-20)
(0.10782343 -0.020918386 -2.2025597e-23)
(0.12274728 -0.020804011 -8.0980205e-21)
(0.13813514 -0.020607056 -1.3503014e-20)
(0.15394494 -0.02034083 -9.1000544e-21)
(0.17013783 -0.020017096 1.8737636e-20)
(0.18667787 -0.019645913 9.8453825e-21)
(0.2035316 -0.01923601 -1.7282229e-20)
(0.22066787 -0.018795118 -6.4084699e-21)
(0.23805791 -0.018330143 3.3538886e-21)
(0.25567545 -0.017847307 8.8199235e-21)
(0.27349676 -0.017352278 7.5616396e-21)
(0.29150095 -0.016850272 -7.7936072e-21)
(0.30967018 -0.016346123 -3.7917084e-21)
(0.32798998 -0.015844343 1.8203685e-21)
(0.34644965 -0.015349155 8.5339575e-22)
(0.36504263 -0.014864514 1.4738535e-21)
(0.38376692 -0.014394115 3.1821146e-22)
(0.40262553 -0.013941371 -4.9367992e-22)
(0.42162686 -0.013509381 -9.6910583e-22)
(0.440785 -0.013100863 1.507319e-21)
(0.46011998 -0.012718062 1.2405534e-21)
(0.47965769 -0.012362621 -5.6159124e-22)
(0.49942958 -0.012035425 9.5880624e-22)
(0.51947186 -0.011736417 -3.2145842e-22)
(0.53982421 -0.011464413 -7.7060723e-22)
(0.56052775 -0.011216935 -1.1188933e-21)
(0.58162234 -0.010990099 6.713666e-22)
(0.60314326 -0.010778594 -4.8482303e-22)
(0.62511717 -0.010575789 6.4109239e-22)
(0.64755791 -0.010373979 -1.1079499e-21)
(0.67046204 -0.010164785 1.2995487e-21)
(0.69380535 -0.0099396554 1.1798766e-22)
(0.71753856 -0.0096904833 4.7421705e-23)
(0.74158935 -0.0094100545 7.0261444e-22)
(0.76584904 -0.0090929029 9.7169617e-22)
(0.79021448 -0.0087341214 7.8249981e-22)
(0.81445881 -0.0083337239 9.1637248e-22)
(0.83864018 -0.0078801889 4.1686806e-23)
(0.86183745 -0.0074040969 4.040042e-22)
(0.88601403 -0.0067916468 2.7876886e-22)
(0.90423375 -0.0064637134 -1.9473055e-22)
(0.93556636 -0.0050015823 1.9436986e-22)
(0.071453046 -0.025231178 9.8188544e-21)
(0.077865251 -0.028076346 3.5029601e-21)
(0.087069695 -0.0302597 -1.2866412e-20)
(0.097347353 -0.03153222 -1.3788344e-21)
(0.10802557 -0.032436457 1.5699238e-20)
(0.1192869 -0.033104878 -1.5530695e-20)
(0.13117778 -0.033513935 -3.1307301e-20)
(0.14362568 -0.033692308 1.5301003e-20)
(0.15658161 -0.033686591 1.919896e-20)
(0.17001682 -0.033527393 -1.2268135e-20)
(0.18390019 -0.03323652 1.0729379e-21)
(0.19819877 -0.032834176 8.9055072e-21)
(0.21288141 -0.032338598 -1.6289723e-20)
(0.22791874 -0.03176544 3.6568905e-21)
(0.24328251 -0.031128355 8.1583807e-21)
(0.2589458 -0.030439535 -4.1570213e-22)
(0.27488325 -0.029709973 -1.8114511e-23)
(0.29107126 -0.028949648 -8.2129518e-21)
(0.30748829 -0.028167717 4.8060959e-21)
(0.32411505 -0.027372652 9.536039e-21)
(0.34093493 -0.026572352 -4.3459459e-21)
(0.35793432 -0.025774216 -2.439537e-21)
(0.37510299 -0.024985194 9.655105e-22)
(0.3924345 -0.024211818 -2.105166e-21)
(0.40992667 -0.023460196 1.5369884e-21)
(0.42758193 -0.022735988 8.2908222e-22)
(0.44540778 -0.022044345 2.5324859e-21)
(0.46341704 -0.021389798 -3.0830837e-21)
(0.4816281 -0.020776111 3.656164e-21)
(0.50006486 -0.020206072 8.941948e-22)
(0.51875648 -0.019681229 1.2703328e-21)
(0.5377366 -0.019201598 4.3147559e-22)
(0.55704215 -0.018765353 1.9814334e-21)
(0.57671148 -0.018368548 -3.1602728e-21)
(0.59678179 -0.018004933 9.6471988e-22)
(0.61728599 -0.017665908 7.4253716e-22)
(0.63824893 -0.017340695 -2.6808131e-22)
(0.65968337 -0.017016736 -1.9861374e-22)
(0.68158577 -0.016680343 -1.022651e-21)
(0.70393291 -0.016317512 6.8646174e-22)
(0.72667777 -0.015914938 -4.9968187e-23)
(0.74975148 -0.015460746 2.0379459e-21)
(0.77305003 -0.014945931 -9.4892473e-22)
(0.79647574 -0.014362338 2.3543579e-23)
(0.81980922 -0.01371011 3.6890839e-22)
(0.84311343 -0.012969947 -3.0744869e-22)
(0.86548727 -0.012193107 -4.439623e-22)
(0.88886613 -0.01119011 1.5007012e-21)
(0.90646145 -0.010656735 1.7221385e-22)
(0.93690062 -0.0082561509 -1.5337824e-21)
(0.15635179 -0.033214003 1.6171453e-21)
(0.16015204 -0.037167099 -1.1846583e-20)
(0.16778728 -0.040082912 6.7600181e-21)
(0.17661418 -0.041692649 -1.3834948e-20)
(0.18546533 -0.042870226 -2.0557235e-21)
(0.19472816 -0.043789586 9.6848179e-21)
(0.20456867 -0.044381337 -1.0483717e-20)
(0.21491199 -0.044671997 1.4178097e-21)
(0.22571652 -0.044723948 1.3525348e-20)
(0.23697619 -0.044576153 3.7347527e-21)
(0.24867653 -0.044254254 -6.5325602e-21)
(0.26079522 -0.043782681 -3.194725e-21)
(0.27331003 -0.043184312 -5.9046871e-21)
(0.2861992 -0.042479072 -7.0078403e-21)
(0.29944055 -0.041684487 3.0610712e-21)
(0.31301185 -0.040816402 4.2577067e-22)
(0.32689145 -0.039889301 1.6464853e-21)
(0.34105866 -0.038916496 -3.6377083e-21)
(0.35549412 -0.037910325 -4.9723468e-21)
(0.37018016 -0.036882304 2.7777036e-21)
(0.38510128 -0.035843248 3.9528905e-21)
(0.40024449 -0.034803343 -2.1481517e-21)
(0.41559977 -0.033772207 1.9651e-21)
(0.43116051 -0.032758901 -6.5940923e-22)
(0.44692386 -0.03177193 -5.3736919e-21)
(0.46289122 -0.030819194 -3.7521918e-21)
(0.47906855 -0.029907904 -4.6988464e-22)
(0.49546671 -0.029044437 2.6951259e-22)
(0.51210162 -0.028234127 -2.9578348e-21)
(0.52899428 -0.027480984 -1.8222131e-21)
(0.54617049 -0.026787345 2.9510356e-22)
(0.56366023 -0.026153458 -2.4344937e-21)
(0.58149649 -0.025577068 -2.516299e-22)
(0.5997136 -0.025053026 -1.0824275e-21)
(0.61834493 -0.024573024 -7.1986478e-22)
(0.63741994 -0.024125532 -1.8152261e-21)
(0.65696076 -0.02369601 -2.8203089e-21)
(0.67697845 -0.023267446 1.114786e-22)
(0.69746913 -0.022821227 -6.4394069e-24)
(0.71841082 -0.022338249 -1.8240019e-21)
(0.73975944 -0.021800303 2.7877844e-22)
(0.7614508 -0.021191063 -1.4511604e-21)
(0.78338736 -0.020498126 -2.4642342e-21)
(0.80547899 -0.019710148 1.8118758e-21)
(0.82751682 -0.018827507 1.7680652e-23)
(0.84957037 -0.017823165 8.9740939e-22)
(0.87076741 -0.016769007 -5.7955342e-22)
(0.89300209 -0.015401452 -1.0056958e-21)
(0.9097008 -0.014679961 -4.3605644e-23)
(0.9388486 -0.01139483 9.5533984e-22)
(0.26327135 -0.0388911 -2.1673905e-20)
(0.26355336 -0.043904983 4.9046733e-20)
(0.2687458 -0.047441189 1.0641675e-20)
(0.27542327 -0.049302896 -1.634871e-20)
(0.28174631 -0.050735843 -2.2320069e-21)
(0.28829261 -0.051932918 2.5838373e-21)
(0.29539699 -0.052762569 -1.8821696e-21)
(0.30298383 -0.0532387 -4.8920119e-21)
(0.31100703 -0.053432361 -4.2044183e-21)
(0.31948192 -0.053387661 -1.2810498e-20)
(0.3284122 -0.053131724 1.9096374e-20)
(0.33778546 -0.052690502 7.0749842e-21)
(0.34758682 -0.052089304 -1.7726508e-20)
(0.35780103 -0.051350903 1.0532899e-20)
(0.36841104 -0.050495719 8.4734943e-21)
(0.37939843 -0.049542501 -4.9287869e-22)
(0.39074435 -0.048508689 -3.0195067e-21)
(0.40243016 -0.04741058 -4.564821e-21)
(0.4144379 -0.046263473 -1.7365271e-21)
(0.42675078 -0.045081804 -1.5660307e-21)
(0.43935367 -0.043879239 -3.800458e-21)
(0.45223354 -0.04266874 0)
(0.46537993 -0.041462597 -1.76696e-21)
(0.47878532 -0.040272438 4.6483214e-21)
(0.4924456 -0.039109203 6.9299066e-21)
(0.50636041 -0.037983086 -1.071035e-21)
(0.52053349 -0.036903423 -4.4699125e-21)
(0.534973 -0.035878511 4.9662793e-21)
(0.54969163 -0.034915354 -2.3485882e-22)
(0.56470663 -0.034019318 5.767168e-21)
(0.58003958 -0.03319369 -6.8769507e-22)
(0.5957158 -0.032439177 2.9082036e-21)
(0.61176335 -0.031753366 -1.6907316e-21)
(0.62821156 -0.031130242 9.9158897e-22)
(0.64508888 -0.030559841 -1.240691e-21)
(0.66242037 -0.030028151 1.1791843e-21)
(0.68022457 -0.029517361 1.3291609e-21)
(0.69851016 -0.029006511 1.1890451e-21)
(0.71727248 -0.028472561 -3.0358031e-21)
(0.73649071 -0.027891766 2.2871721e-21)
(0.75612403 -0.027241393 -1.2071029e-21)
(0.77611369 -0.02650095 -4.5171818e-21)
(0.79636978 -0.025654827 5.9158106e-21)
(0.81681121 -0.024688579 -7.7555029e-23)
(0.83724196 -0.023602938 -6.88852e-22)
(0.8577392 -0.022363286 -4.926243e-24)
(0.87746724 -0.021061824 -8.589386e-22)
(0.8982663 -0.019363734 -1.7311334e-21)
(0.91383873 -0.018475649 8.9622918e-22)
(0.94134885 -0.014378032 -1.2574534e-22)
(0.38719789 -0.04128835 -1.8161574e-20)
(0.38307101 -0.047372498 1.315434e-20)
(0.38481847 -0.05145776 3.2615642e-21)
(0.38853417 -0.053577378 -7.9109554e-21)
(0.39163249 -0.055329824 1.2507315e-20)
(0.39478488 -0.056887154 8.1044738e-21)
(0.39852082 -0.058060698 -1.3028463e-20)
(0.40278177 -0.058848978 -6.3325114e-21)
(0.4075014 -0.059318676 1.3275921e-20)
(0.41270397 -0.059512679 -1.6382364e-20)
(0.41840873 -0.059458421 -1.4756592e-20)
(0.42461106 -0.059181945 1.5319883e-20)
(0.43129975 -0.058709126 7.2129743e-21)
(0.4384627 -0.05806436 -5.0899557e-21)
(0.44608547 -0.057270335 -1.5539881e-21)
(0.45415134 -0.056348334 -3.8947506e-21)
(0.46264237 -0.055318524 5.1870238e-21)
(0.47154034 -0.054200098 3.9355712e-21)
(0.48082724 -0.053011341 -3.3674494e-21)
(0.49048588 -0.05176969 3.3934452e-21)
(0.50050035 -0.050491789 3.2833475e-21)
(0.51085656 -0.049193518 -3.8056947e-21)
(0.5215426 -0.047889998 4.1336579e-22)
(0.53254923 -0.046595576 -3.6300066e-21)
(0.54387022 -0.045323782 1.0124992e-20)
(0.55550269 -0.044087252 8.1437635e-21)
(0.56744746 -0.042897588 1.4975225e-21)
(0.57970924 -0.041765158 -2.4108764e-21)
(0.59229682 -0.040698797 6.313253e-21)
(0.60522301 -0.039705406 1.2247273e-20)
(0.61850448 -0.038789446 3.5756463e-21)
(0.63216118 -0.037952341 6.2464762e-21)
(0.64621552 -0.037191843 3.6658323e-21)
(0.660691 -0.036501456 1.6563495e-21)
(0.67561041 -0.035870002 -3.9463546e-22)
(0.69099356 -0.035281495 6.7151466e-21)
(0.70685462 -0.034715404 1.5858758e-21)
(0.72319919 -0.034147396 7.3884848e-22)
(0.74002129 -0.03355058 1.275306e-22)
(0.75730084 -0.032897094 3.5386299e-21)
(0.77500023 -0.032160138 8.0460068e-23)
(0.79306634 -0.031315397 1.9501596e-21)
(0.81141745 -0.030344289 -2.9263328e-22)
(0.82998232 -0.029229392 -1.5982791e-21)
(0.84857928 -0.027971929 -7.2909029e-22)
(0.86729347 -0.026529953 -1.9094154e-21)
(0.88533204 -0.025015503 9.4108931e-22)
(0.9044692 -0.023026431 -4.714818e-22)
(0.91873636 -0.021995968 -5.307044e-22)
(0.94432493 -0.017172011 7.2441186e-22)
(0.5219015 -0.039428163 3.59535e-21)
(0.51267745 -0.046605863 -1.9360166e-20)
(0.50999306 -0.051226145 -2.4165502e-21)
(0.50992405 -0.053774236 5.6420782e-21)
(0.50922688 -0.056055385 3.2616673e-21)
(0.50847208 -0.058147353 1.5294758e-22)
(0.5083511 -0.059835481 6.6790096e-21)
(0.50886657 -0.061119665 8.0147396e-21)
(0.50992956 -0.062052078 1.0219835e-20)
(0.51155016 -0.062665369 -1.1854727e-20)
(0.51375252 -0.06298558 -2.2943363e-20)
(0.51653669 -0.063038969 -4.3959905e-21)
(0.51989138 -0.062851524 1.7068725e-20)
(0.5238032 -0.062448817 1.3735573e-20)
(0.52825687 -0.061855784 -6.0530936e-21)
(0.53323477 -0.06109648 1.0632228e-21)
(0.53871773 -0.060194103 -4.3344645e-21)
(0.54468604 -0.05917107 3.2044576e-21)
(0.55112006 -0.058049007 -3.1443692e-22)
(0.55800081 -0.056848716 -2.1353264e-21)
(0.56531041 -0.055590175 9.3871016e-21)
(0.57303258 -0.054292515 -5.8942915e-22)
(0.58115306 -0.052974 7.3702603e-22)
(0.58965998 -0.051651986 -4.398252e-22)
(0.59854418 -0.050342858 -5.3635991e-21)
(0.60779957 -0.049061932 5.3680685e-21)
(0.61742338 -0.047823303 2.1998632e-21)
(0.62741631 -0.046639624 -4.4526558e-21)
(0.63778269 -0.045521775 -5.2600086e-21)