/*--------------------------------*- C++ -*----------------------------------*\
  =========                 |
  \\      /  F ield         | OpenFOAM: The Open Source CFD Toolbox
   \\    /   O peration     | Website:  https://openfoam.org
    \\  /    A nd           | Version:  6
     \\/     M anipulation  |
\*---------------------------------------------------------------------------*/
FoamFile
{
    version     2.0;
    format      ascii;
    class       volVectorField;
    location    "31";
    object      UMean;
}
// * * * * * * * * * * * * * * * * * * * * * * * * * * * * * * * * * * * * * //

dimensions      [0 1 -1 0 0 0 0];

internalField   nonuniform List<vector> 
9200
(
(0.0054476355 -0.0019621737 -7.0624787e-20)
(0.028289602 -0.01268978 6.1243792e-20)
(0.063999127 -0.022698187 -4.7564806e-20)
(0.10964477 -0.031947928 -7.9559584e-20)
(0.16283151 -0.040448741 2.4013661e-20)
(0.22199459 -0.047805128 4.3284872e-20)
(0.28577173 -0.053768499 -1.6052015e-20)
(0.352901 -0.05825021 1.2209869e-20)
(0.42221264 -0.061247488 2.4030265e-20)
(0.49260124 -0.062816889 2.1250004e-21)
(0.56300612 -0.063063423 -3.1075103e-20)
(0.63240905 -0.062128895 2.956564e-20)
(0.69984443 -0.060179962 -5.7239498e-20)
(0.76441807 -0.057396383 -3.0691528e-20)
(0.82533149 -0.053958995 8.5847312e-21)
(0.88190809 -0.050039972 -3.6945476e-20)
(0.93363126 -0.045782549 3.7312095e-20)
(0.98024957 -0.041170173 3.3746806e-20)
(1.0216121 -0.036094978 -1.0132127e-22)
(1.0555354 -0.033535078 -1.2390273e-21)
(0.010934167 -0.005139459 -2.032457e-20)
(0.044963466 -0.020446051 5.1583844e-20)
(0.092446044 -0.032553335 2.7635032e-20)
(0.15001435 -0.042159995 -1.4816953e-19)
(0.21497564 -0.04974139 -1.5847262e-20)
(0.28548768 -0.05518027 9.6809492e-20)
(0.35990296 -0.058468451 -4.680558e-20)
(0.43667308 -0.059735752 -1.1513008e-20)
(0.51435074 -0.05917474 4.7351542e-20)
(0.59157458 -0.057019077 -6.0400493e-20)
(0.66706549 -0.053535999 -4.3555396e-20)
(0.73964141 -0.049014862 1.039652e-19)
(0.80824311 -0.043754057 5.474447e-20)
(0.8719644 -0.038048582 -9.7939458e-20)
(0.93008166 -0.032179803 2.1047546e-20)
(0.98207677 -0.026410842 -5.2910082e-20)
(1.0276611 -0.020975049 -2.0880977e-20)
(1.0668482 -0.016008924 1.0156909e-19)
(1.0998189 -0.011848426 4.7469172e-20)
(1.1252579 -0.01124929 -9.4678202e-20)
(0.017909588 -0.008082645 4.151984e-20)
(0.065487346 -0.027247411 1.2820205e-21)
(0.1264489 -0.040502171 2.4656854e-20)
(0.19706355 -0.049399688 1.2281412e-21)
(0.27436361 -0.054961048 -4.822644e-20)
(0.35621833 -0.057412631 2.5277511e-20)
(0.44068035 -0.057047351 1.5958025e-20)
(0.52590956 -0.054269526 -6.6750072e-20)
(0.61019566 -0.049515939 7.7754473e-20)
(0.69196526 -0.043236134 2.1427023e-20)
(0.76980013 -0.035884941 -7.7047245e-20)
(0.84246994 -0.027908033 -2.6645135e-20)
(0.90896862 -0.01972509 1.0920846e-20)
(0.96854543 -0.011714517 3.3084003e-20)
(1.0207245 -0.0042017187 -1.5807993e-20)
(1.0653073 0.0025465491 3.8825128e-20)
(1.1023618 0.0083313126 -2.8719981e-20)
(1.1322266 0.013063925 -9.4779782e-20)
(1.155374 0.016550298 -2.7317651e-20)
(1.1713276 0.01710337 6.1969927e-20)
(0.026436477 -0.010523886 2.6800565e-20)
(0.089875765 -0.03236222 5.9829481e-20)
(0.16582976 -0.045473873 2.4055589e-20)
(0.2503004 -0.052378863 1.7920551e-20)
(0.34007969 -0.054722878 2.3152342e-20)
(0.43275341 -0.05314266 -6.1702967e-20)
(0.52608752 -0.048291591 -3.397577e-20)
(0.61798708 -0.040897723 0)
(0.70654942 -0.031676901 2.4210287e-20)
(0.79009933 -0.021311111 -1.1327045e-20)
(0.86722846 -0.010438109 -1.3409257e-19)
(0.93683793 0.00036714512 -2.0518805e-20)
(0.9981712 0.010611808 9.0368199e-20)
(1.0508283 0.019899766 5.1123116e-22)
(1.0947573 0.027939405 -2.1315429e-21)
(1.1302215 0.034543082 2.9396374e-20)
(1.1577492 0.039626192 -6.0725663e-21)
(1.1780871 0.043230539 -8.1193944e-20)
(1.192068 0.045381659 -6.0802707e-20)
(1.199905 0.045168161 8.2266977e-20)
(0.036497704 -0.012166596 -3.3713278e-21)
(0.1179028 -0.035020987 -2.9867331e-21)
(0.21000725 -0.046392272 6.6146501e-20)
(0.30867646 -0.049862943 2.4265159e-20)
(0.41052398 -0.047773807 -4.2426617e-20)
(0.51289178 -0.041233776 1.3781662e-20)
(0.61332053 -0.031305285 3.4742546e-21)
(0.7095584 -0.019069816 4.6488766e-20)
(0.79964967 -0.0055283933 7.6723784e-21)
(0.8819952 0.0084247507 -1.956785e-20)
(0.95540156 0.022015335 8.4522871e-20)
(1.0191151 0.034608152 -7.7152216e-20)
(1.0728294 0.045722132 -1.7734746e-19)
(1.1166609 0.055035284 -7.4164361e-21)
(1.1510961 0.062378535 1.0872912e-19)
(1.1769137 0.06771902 0)
(1.1950963 0.071140938 1.3989021e-20)
(1.2067482 0.072845119 -1.9154268e-20)
(1.2129754 0.073035832 -1.1910968e-20)
(1.2144413 0.071272901 2.4814534e-20)
(0.047980508 -0.012699302 -3.4281447e-21)
(0.14908554 -0.03446634 4.9465183e-21)
(0.25801399 -0.042270135 -1.0208967e-20)
(0.37066631 -0.040813608 3.2132874e-20)
(0.48358073 -0.033181052 -3.7712355e-20)
(0.59394657 -0.020996817 -2.1624021e-20)
(0.69920322 -0.0057541785 4.2681522e-20)
(0.79710761 0.011119057 4.8075189e-21)
(0.88585335 0.028375161 -3.5700089e-20)
(0.96414229 0.044975978 9.2416665e-20)
(1.0312215 0.060102983 -1.0307108e-21)
(1.0868837 0.073167153 -1.0678592e-19)
(1.1314259 0.083807723 0)
(1.1655706 0.091875324 5.0462098e-20)
(1.1903607 0.097401635 6.6903759e-21)
(1.2070422 0.10055949 -9.6748583e-20)
(1.2169483 0.10162306 -2.4575505e-20)
(1.221406 0.1009462 -1.5007418e-20)
(1.2216369 0.098862703 -1.8131321e-20)
(1.2184915 0.095219469 4.9038588e-20)
(0.060667495 -0.011818774 -1.7422532e-20)
(0.18267881 -0.030014395 -8.2099273e-21)
(0.30852287 -0.032298344 3.2277276e-20)
(0.43434835 -0.024493899 3.8528955e-20)
(0.5567711 -0.010436629 -2.3543034e-20)
(0.67297921 0.0077271536 -8.7753867e-20)
(0.78049909 0.028096492 -3.7810917e-20)
(0.87731994 0.048956554 1.0145419e-19)
(0.96202629 0.068905246 1.3109285e-20)
(1.0338561 0.08687751 -3.1222967e-20)
(1.0926982 0.10213959 1.6419567e-20)
(1.1390342 0.11427467 -5.7438861e-21)
(1.1738335 0.12315098 0)
(1.1984163 0.12887239 3.4252072e-20)
(1.2143048 0.13171806 -9.853628e-20)
(1.2230825 0.13207916 -3.8972522e-20)
(1.2262764 0.13040322 9.8583828e-20)
(1.2252744 0.12716024 -6.8643523e-21)
(1.2212638 0.12275757 3.8290952e-21)
(1.2150917 0.11721228 3.3640383e-20)
(0.074234204 -0.0092587371 -3.3302538e-20)
(0.21768989 -0.021126116 -9.302666e-20)
(0.35990357 -0.015938921 -3.0148947e-21)
(0.49751956 -0.00056105727 8.5029205e-20)
(0.62743341 0.020472685 7.5646126e-20)
(0.74704101 0.044541695 -8.3777623e-20)
(0.8541958 0.069419173 2.8543962e-21)
(0.94737525 0.093221581 1.1074708e-19)
(1.025799 0.11453609 6.1669395e-20)
(1.0894438 0.13242401 -6.9348457e-20)
(1.1389758 0.14638153 -1.1650249e-19)
(1.1756202 0.15628465 -3.9515556e-21)
(1.200991 0.16231514 5.2244915e-20)
(1.2169079 0.16487364 -7.7068726e-21)
(1.2252266 0.16449158 -1.4731639e-20)
(1.227701 0.16175202 2.2220844e-20)
(1.2258874 0.15722912 5.2438286e-20)
(1.2210955 0.15145409 -5.116517e-20)
(1.2143717 0.14485275 -1.2115166e-19)
(1.2064502 0.13753822 3.0393401e-20)
(0.088220038 -0.0048202355 -3.9713858e-20)
(0.25284181 -0.0074800116 -1.8372267e-19)
(0.41019959 0.0070011105 1.0161084e-19)
(0.55769883 0.030887067 1.1151792e-19)
(0.69275884 0.059065676 6.8441844e-20)
(0.81323661 0.08855395 1.0724524e-20)
(0.91757801 0.11694461 -1.2955597e-19)
(1.004999 0.14235877 0)
(1.0755575 0.16355432 -8.7531205e-20)
(1.1300991 0.1798873 -1.9316646e-20)
(1.1701104 0.19122051 6.7442756e-20)
(1.1975172 0.19781511 1.3190569e-20)
(1.2144653 0.20021011 -5.4957483e-20)
(1.2231165 0.19910228 -5.8196953e-20)
(1.2254868 0.19524077 2.9714298e-20)
(1.2233376 0.18934564 5.4184586e-20)
(1.2181218 0.18205582 -6.6216351e-20)
(1.2109779 0.17390612 -1.2604062e-19)
(1.2027591 0.16529589 -2.6843983e-21)
(1.1940427 0.15639101 3.1168316e-20)
(0.10201233 0.0016163637 -6.0682216e-21)
(0.28658451 0.011023645 9.8984221e-20)
(0.45717501 0.036386747 -5.1960957e-21)
(0.61222164 0.069348379 -1.0541615e-19)
(0.74992965 0.10442084 5.4693296e-20)
(0.86888215 0.13844564 5.5380696e-20)
(0.96836724 0.16904622 6.8334741e-21)
(1.0485406 0.19456761 -1.2102974e-19)
(1.1104232 0.21413853 -3.0699226e-21)
(1.1557632 0.22756903 6.1732359e-20)
(1.1868134 0.23519332 7.206654e-21)
(1.2060753 0.23770454 -2.4200398e-20)
(1.216059 0.23599439 -9.0245958e-20)
(1.2190905 0.23101355 -6.9157494e-21)
(1.2171836 0.22366557 5.0892075e-20)
(1.2119799 0.21473905 4.2945621e-20)
(1.2047442 0.20487566 2.2178979e-20)
(1.1964034 0.19456554 -6.3342845e-20)
(1.1876093 0.18415216 1.2559306e-20)
(1.17878 0.17383191 9.3735615e-20)
(-0.0015043142 0.0015546075 6.5085186e-22)
(-0.0048259696 0.0031981323 8.528554e-22)
(-0.010869799 0.0038706652 6.8875347e-21)
(-0.017086015 0.0039181989 6.0974457e-21)
(-0.022707711 0.0035390778 -7.3551453e-21)
(-0.027317482 0.0028718265 7.4695495e-21)
(-0.030630545 0.0020164494 -1.6340491e-20)
(-0.032490419 0.0010427158 -1.3934348e-20)
(-0.032833241 -1.2510165e-06 2.2569832e-20)
(-0.031649538 -0.001082327 -1.8609697e-20)
(-0.028962432 -0.0021780052 -2.2965011e-22)
(-0.024814804 -0.0032733267 6.7433498e-21)
(-0.019260358 -0.0043585964 -9.1477461e-22)
(-0.01235755 -0.0054276377 3.8121937e-20)
(-0.0041659492 -0.0064762838 1.0445226e-22)
(0.0052540904 -0.0075007799 -6.5720626e-20)
(0.015838418 -0.0084969696 1.2558047e-20)
(0.027527422 -0.0094629623 3.6470875e-20)
(0.040297489 -0.010397402 -6.6107109e-20)
(0.054066035 -0.011245182 -4.1109886e-20)
(-0.0018601156 0.0044993864 -7.4063481e-21)
(-0.0053414333 0.0092167614 3.4866401e-21)
(-0.010915147 0.011115091 -1.2165798e-20)
(-0.016259141 0.011194971 1.5217055e-20)
(-0.020731037 0.010032454 1.7136609e-20)
(-0.023975518 0.0080328027 2.0244197e-21)
(-0.025751708 0.0054886993 -5.4702146e-20)
(-0.025934742 0.0026043558 -3.8416468e-21)
(-0.024481786 -0.00047924884 3.9477264e-20)
(-0.021397255 -0.0036649989 -9.4534552e-21)
(-0.016713619 -0.0068868482 -3.9390941e-20)
(-0.010480125 -0.010100833 8.5135153e-21)
(-0.0027549724 -0.013278388 3.6830851e-20)
(0.0064000914 -0.016401241 1.6980198e-20)
(0.016923439 -0.019457033 3.6297359e-20)
(0.028752837 -0.022434849 -3.1190847e-20)
(0.04181473 -0.025322854 -3.3009893e-20)
(0.056030745 -0.028114625 3.3628452e-20)
(0.071447957 -0.030794704 3.9157718e-20)
(0.088277005 -0.033177268 2.1338714e-20)
(-0.0024843832 0.0069610496 -6.051384e-21)
(-0.0061772631 0.014137546 -3.7588407e-22)
(-0.010766796 0.016930881 -1.3516121e-21)
(-0.014364353 0.016883017 -6.8993162e-21)
(-0.016562649 0.014887616 1.2302576e-20)
(-0.017126523 0.011583757 1.8599953e-20)
(-0.015900509 0.0074342291 -8.1911335e-21)
(-0.012821383 0.0027623768 -3.5112829e-20)
(-0.0078881431 -0.0022078817 1.2239736e-20)
(-0.0011338027 -0.0073217773 2.3300284e-20)
(0.0073889379 -0.012473672 1.1310615e-20)
(0.017615937 -0.01759293 2.9502744e-20)
(0.029477313 -0.022633438 2.8525223e-21)
(0.042901393 -0.027565723 -5.2943447e-20)
(0.057818283 -0.03236984 3.4880727e-21)
(0.074158073 -0.037028771 -3.0999845e-20)
(0.091827865 -0.041526614 -3.9451396e-20)
(0.11071017 -0.045855329 7.0831306e-20)
(0.13096055 -0.049959868 3.934996e-20)
(0.15334013 -0.053448306 2.4898703e-21)
(-0.0032260672 0.0086853243 -8.2827058e-21)
(-0.007003589 0.01737618 -2.6611285e-20)
(-0.010038947 0.020552585 5.1518352e-21)
(-0.011027782 0.020130683 7.6715176e-21)
(-0.0098824715 0.017230442 2.6992629e-21)
(-0.0065363058 0.012674013 1.6258992e-20)
(-0.00095578807 0.0070593496 1.8778461e-20)
(0.0068325382 0.00080486778 -3.0578401e-21)
(0.016766452 -0.0057984306 -2.0753755e-20)
(0.028767385 -0.01254845 -5.0736647e-20)
(0.042748007 -0.019306551 7.2958761e-22)
(0.058616215 -0.025979549 6.6644528e-20)
(0.076278051 -0.032506361 -2.7638014e-20)
(0.095639121 -0.038847664 -1.9285067e-20)
(0.11660798 -0.044977575 -1.1280731e-21)
(0.13909486 -0.050876151 4.9884681e-20)
(0.16297617 -0.056530408 -2.5544615e-20)
(0.18807341 -0.061942147 -7.744357e-20)
(0.21463776 -0.066999004 6.3611276e-20)
(0.24417255 -0.070993315 4.7166297e-20)
(-0.0038879334 0.0095128843 8.2717779e-22)
(-0.0073794116 0.018550544 -1.7453637e-20)
(-0.0081999102 0.021466566 -6.2159572e-20)
(-0.0057155828 0.020358863 -1.4262123e-20)
(-0.00021111955 0.016465934 -1.8920807e-21)
(0.008176304 0.010731033 1.2348658e-20)
(0.019328538 0.0038438091 -1.0003827e-20)
(0.033104178 -0.0037129693 -1.6537535e-20)
(0.049356312 -0.011602147 3.7262753e-20)
(0.067941506 -0.019588514 7.6185414e-21)
(0.088720228 -0.027509794 -4.3668156e-20)
(0.11155471 -0.03525612 1.6654379e-20)
(0.13630839 -0.042755079 0)
(0.16284545 -0.04996066 1.8540485e-20)
(0.19103294 -0.056844206 -1.4642705e-20)
(0.22074092 -0.063387281 -2.2332193e-20)
(0.2517992 -0.069588977 2.0801055e-21)
(0.28394739 -0.075482083 -4.8219926e-21)
(0.31747817 -0.08090639 5.9591972e-20)
(0.35472883 -0.084724125 -1.9983585e-20)
(-0.0042520101 0.0093892251 -9.2918593e-21)
(-0.0067978204 0.017509124 3.8160535e-20)
(-0.0046118038 0.019456247 -1.9507497e-20)
(0.0022438597 0.017321055 -4.4291254e-20)
(0.013090837 0.012350568 -4.00247e-20)
(0.027566083 0.0055430185 -2.4826771e-20)
(0.045378007 -0.002368642 -2.1071365e-21)
(0.066248966 -0.010872583 9.443892e-21)
(0.089927392 -0.019609991 3.1294727e-20)
(0.11618439 -0.02832932 1.1690779e-20)
(0.14480513 -0.0368567 -1.0831939e-20)
(0.17558322 -0.045074318 -1.6505555e-21)
(0.20831573 -0.052904924 -5.8713169e-20)
(0.24279981 -0.060300801 -1.912479e-20)
(0.27883349 -0.067235201 3.0568133e-20)
(0.31621809 -0.07369674 -3.272419e-20)
(0.35471459 -0.079705716 -1.3115936e-20)
(0.39396335 -0.085351211 4.0074922e-20)
(0.4342277 -0.090467668 6.6699733e-20)
(0.47866004 -0.093415538 5.1621551e-21)
(-0.0041009608 0.0083550005 2.0308501e-20)
(-0.004728626 0.014323543 1.7818734e-20)
(0.001426338 0.014608574 7.3545159e-20)
(0.013626242 0.011126586 3.6982533e-20)
(0.030803257 0.0050312059 3.0409825e-22)
(0.052358419 -0.0026894013 -6.363418e-20)
(0.07781237 -0.011307952 -3.7540497e-20)
(0.10673505 -0.020319513 1.6357851e-20)
(0.13874716 -0.029370978 2.2298171e-20)
(0.17350941 -0.038214941 -1.9140429e-20)
(0.21070612 -0.046681423 -6.8216465e-20)
(0.25003354 -0.054657122 4.5622873e-20)
(0.29119151 -0.062070311 2.8818477e-20)
(0.33387771 -0.068880635 -4.103673e-20)
(0.37778748 -0.075071882 1.7972814e-20)
(0.4226192 -0.080648442 3.4794934e-20)
(0.46803815 -0.085661547 1.2350687e-20)
(0.51357407 -0.090281397 -1.9334647e-20)
(0.55939686 -0.094409553 -1.6412071e-20)
(0.60935145 -0.095922007 1.6331793e-20)
(-0.0032314312 0.0065243087 1.4790448e-20)
(-0.00065147374 0.009253262 -3.6314459e-20)
(0.010636127 0.0072837686 7.6926158e-21)
(0.029265692 0.0022215954 5.0063461e-20)
(0.053800216 -0.0049622203 7.3989832e-20)
(0.083404132 -0.01334876 3.009681e-20)
(0.11739962 -0.022262954 -8.565921e-21)
(0.15518398 -0.031244801 -1.8304712e-20)
(0.19622765 -0.039975568 -9.6781458e-21)
(0.24005271 -0.048235349 5.1641479e-20)
(0.2862096 -0.055877784 -7.977387e-21)
(0.33426116 -0.062811242 -2.5777416e-20)
(0.38377223 -0.068985193 -2.8360819e-20)
(0.43430319 -0.074381531 -7.0298199e-20)
(0.48541072 -0.079009128 3.3210003e-20)
(0.53665821 -0.082902524 -2.0152669e-20)
(0.58759492 -0.086158431 3.8099222e-20)
(0.63764946 -0.089056142 3.0603523e-20)
(0.68687405 -0.091663413 -1.0961038e-19)
(0.73960919 -0.091536528 2.5719493e-21)
(-0.0014622704 0.0040624186 2.7464896e-20)
(0.0059127847 0.0027064112 -3.7396013e-20)
(0.023703066 -0.0019210123 -6.0175322e-20)
(0.04997102 -0.0086359424 -3.8088179e-20)
(0.082938791 -0.016725183 -2.9397762e-21)
(0.12153225 -0.025394216 1.944023e-20)
(0.16486348 -0.034065051 -4.2133232e-21)
(0.21213831 -0.042359541 2.6191446e-20)
(0.26264854 -0.050025236 1.2738425e-20)
(0.31574322 -0.056897407 -1.6636103e-20)
(0.37080075 -0.06287824 1.4037485e-20)
(0.42721117 -0.067920795 -3.5259049e-20)
(0.48436618 -0.072017076 1.3732234e-20)
(0.54165473 -0.075190327 2.4751484e-20)
(0.59846617 -0.077490131 -5.0617117e-21)
(0.65420432 -0.07899228 3.2485627e-21)
(0.70828178 -0.07984351 -2.0262713e-21)
(0.76003786 -0.080416057 2.918572e-20)
(0.80942345 -0.080939021 3.6518396e-21)
(0.86106409 -0.079076298 -1.075566e-20)
(0.001365677 0.0011694186 3.1186243e-20)
(0.015381824 -0.0047857709 7.896711e-20)
(0.041216357 -0.012186875 -6.3979051e-20)
(0.076415162 -0.020371032 -1.3655652e-20)
(0.11888506 -0.02895536 2.8365334e-20)
(0.16731402 -0.037321575 2.9652955e-21)
(0.220591 -0.045034249 -4.1557815e-20)
(0.2777062 -0.051838318 9.9290726e-21)
(0.33774057 -0.05758509 9.9849107e-21)
(0.39983401 -0.062199925 -3.7662794e-20)
(0.46315782 -0.065666567 1.8308349e-21)
(0.52690073 -0.068013712 -5.4357599e-20)
(0.59026499 -0.06930365 -5.3280985e-20)
(0.65246948 -0.069623148 9.6423479e-20)
(0.71275868 -0.069075484 8.127518e-21)
(0.7704147 -0.067777833 -2.1903536e-20)
(0.82475025 -0.065894385 2.7582537e-20)
(0.87504867 -0.063711882 -1.2323987e-21)
(0.92095595 -0.061279394 2.4310586e-20)
(0.96585881 -0.057280141 -3.1376828e-20)
(0.070419295 -0.011556322 8.599575e-20)
(0.08946384 -0.01197678 2.0937818e-20)
(0.11009385 -0.012276512 -4.6831827e-20)
(0.13192213 -0.012367277 2.3533079e-20)
(0.15460029 -0.012345774 0)
(0.178015 -0.012251211 0)
(0.20207507 -0.012088109 -2.8442464e-20)
(0.22666458 -0.011865656 -1.9539446e-20)
(0.25167364 -0.011596311 2.3393281e-20)
(0.27700706 -0.011289679 2.1238115e-20)
(0.30257793 -0.010953059 9.533049e-22)
(0.32830444 -0.010592886 -1.0806453e-20)
(0.35411027 -0.010214889 9.8057863e-21)
(0.37992466 -0.0098239874 1.8017033e-20)
(0.40568189 -0.009424391 -6.2980646e-21)
(0.43132074 -0.0090197426 -9.2990893e-21)
(0.45678426 -0.0086131926 -3.7812049e-21)
(0.48201957 -0.0082074545 -3.282821e-21)
(0.50697766 -0.0078048584 4.4013566e-22)
(0.5316132 -0.0074073959 1.0729924e-21)
(0.55588434 -0.0070167569 2.5441366e-21)
(0.57975263 -0.0066343589 5.2212784e-21)
(0.60318278 -0.0062613716 -4.5878617e-22)
(0.6261425 -0.0058987383 -2.5732702e-21)
(0.64860229 -0.0055471942 -2.506326e-23)
(0.67053517 -0.0052072835 -3.908299e-22)
(0.69191648 -0.0048793747 7.9766905e-22)
(0.71272348 -0.0045636771 4.2810917e-22)
(0.73293509 -0.0042602565 -1.1022054e-21)
(0.7525315 -0.0039690516 2.9451906e-23)
(0.7714938 -0.0036898926 -4.4621807e-22)
(0.78980362 -0.0034225199 -1.5284373e-22)
(0.80744274 -0.0031666052 -3.4693351e-22)
(0.82439282 -0.0029217743 2.4497978e-22)
(0.84063511 -0.00268763 -3.697037e-23)
(0.85615031 -0.0024637775 -1.6307843e-24)
(0.87091854 -0.0022498474 -1.6537539e-23)
(0.88491949 -0.002045518 -5.9386267e-23)
(0.89813266 -0.0018505343 -1.3071053e-22)
(0.91053793 -0.0016647214 -9.9885284e-23)
(0.92211603 -0.0014879947 -6.3595045e-23)
(0.93285003 -0.0013203581 6.7684019e-23)
(0.94272421 -0.0011619189 -5.7539484e-23)
(0.95173196 -0.0010128324 -1.8014303e-22)
(0.95985579 -0.00087349157 -5.2724416e-23)
(0.96713612 -0.00074394379 6.626423e-23)
(0.97346485 -0.0006260267 2.237509e-23)
(0.97923221 -0.00051624557 3.6182798e-24)
(0.98335884 -0.00043334759 2.2956674e-24)
(0.98915858 -0.00030353468 8.720897e-23)
(0.10565527 -0.03397206 -2.1220985e-20)
(0.12315841 -0.03525555 -8.7759795e-20)
(0.14275979 -0.036141274 -4.4496161e-20)
(0.16355323 -0.036394609 5.2635322e-20)
(0.18504479 -0.036329372 1.9614492e-20)
(0.20721146 -0.036059357 -2.5396718e-20)
(0.23000437 -0.035589955 8.1724313e-21)
(0.25331184 -0.034946488 3.0501852e-20)
(0.27703183 -0.034165856 -1.781322e-21)
(0.30108058 -0.033275813 -9.6723212e-21)
(0.32537997 -0.032297166 -1.2034721e-20)
(0.34985458 -0.03124849 -1.0722321e-20)
(0.37443337 -0.030146438 1.847425e-20)
(0.39905002 -0.029005325 1.3200496e-20)
(0.42364229 -0.027837448 -1.4136121e-20)
(0.44815168 -0.026653484 -5.6812792e-21)
(0.47252333 -0.025462707 2.4057583e-21)
(0.4967059 -0.024273134 6.5196687e-21)
(0.52065147 -0.023091679 6.4063648e-21)
(0.54431543 -0.021924273 -7.3466526e-21)
(0.56765636 -0.02077597 -4.3842219e-21)
(0.59063593 -0.019651027 2.6299409e-21)
(0.61321879 -0.018552974 2.1184117e-21)
(0.63537237 -0.017484672 1.3459568e-21)
(0.65706675 -0.016448368 5.137257e-22)
(0.67827439 -0.01544574 -5.9093649e-22)
(0.69896995 -0.014477947 -8.0605309e-22)
(0.71912994 -0.01354567 1.471323e-21)
(0.73873244 -0.012649162 9.9882808e-22)
(0.75775675 -0.011788298 -8.4914834e-22)
(0.77618303 -0.010962625 7.1805504e-22)
(0.79399197 -0.010171421 -1.052644e-22)
(0.81116438 -0.0094137569 -5.2976312e-22)
(0.82768098 -0.0086885625 -5.231433e-22)
(0.84352205 -0.0079946979 1.2138067e-22)
(0.85866737 -0.0073310254 -5.3121401e-22)
(0.87309614 -0.0066964806 4.1504154e-22)
(0.88678713 -0.0060901386 -3.649936e-22)
(0.89971893 -0.0055112702 5.5846729e-22)
(0.91187052 -0.004959383 -8.8137594e-24)
(0.92322167 -0.0044342523 1.8958018e-22)
(0.93375447 -0.003935914 2.1065424e-22)
(0.94345218 -0.003464715 2.5976728e-22)
(0.95230705 -0.0030211385 2.0176394e-22)
(0.96030043 -0.0026063883 2.3728693e-22)
(0.96747125 -0.002220608 5.8665271e-23)
(0.9737105 -0.0018693548 4.9859469e-23)
(0.97940479 -0.0015420942 9.8590628e-24)
(0.98347974 -0.0012950595 1.1428352e-23)
(0.98922349 -0.00090763484 9.6899918e-23)
(0.17249465 -0.054378938 1.5202216e-20)
(0.18708557 -0.056548144 7.2268829e-21)
(0.20463356 -0.057992423 -2.3470472e-20)
(0.22342402 -0.058377751 -4.1354857e-21)
(0.24263388 -0.058283184 2.2520599e-20)
(0.26240576 -0.057886556 -1.9616808e-20)
(0.28277997 -0.05717545 -4.0558975e-20)
(0.30365026 -0.056185265 2.0301982e-20)
(0.32492615 -0.054975685 2.4198042e-20)
(0.3465446 -0.053590021 -1.4932428e-20)
(0.36844331 -0.052059937 1.1794186e-21)
(0.39055783 -0.050414236 6.6936133e-21)
(0.41282618 -0.048679127 -1.8429902e-20)
(0.43518959 -0.046877268 8.8063921e-21)
(0.45759177 -0.04502823 9.2692326e-21)
(0.47997875 -0.043149132 -3.7114685e-21)
(0.50229911 -0.04125496 -2.0385384e-21)
(0.52450403 -0.039358768 -8.6899969e-21)
(0.54654737 -0.037471894 7.5408697e-21)
(0.56838563 -0.035604138 9.415337e-21)
(0.58997798 -0.03376391 -4.0858607e-21)
(0.61128625 -0.031958348 -1.8391407e-21)
(0.63227484 -0.03019342 1.2344746e-22)
(0.65291063 -0.028474008 -2.0023428e-21)
(0.67316289 -0.026803996 9.846081e-22)
(0.69300305 -0.025186334 5.0216498e-22)
(0.7124045 -0.023623116 3.1251204e-21)
(0.7313424 -0.02211565 -3.1403155e-21)
(0.7497933 -0.020664533 3.4674977e-21)
(0.76773492 -0.019269733 7.1900425e-22)
(0.78514576 -0.01793067 1.6168199e-21)
(0.80200481 -0.016646316 1.4523523e-22)
(0.81829118 -0.015415289 1.5357437e-21)
(0.83398386 -0.014235966 -2.1221883e-21)
(0.84906147 -0.0131066 6.2309193e-22)
(0.86350213 -0.012025437 6.9089359e-22)
(0.87728339 -0.010990834 -2.1401692e-22)
(0.8903824 -0.01000137 -3.3287648e-22)
(0.90277615 -0.0090559356 -3.2858695e-22)
(0.91444198 -0.0081538066 2.775192e-22)
(0.92535798 -0.0072946936 1.5823284e-23)
(0.93550447 -0.0064787324 8.1128439e-22)
(0.94486282 -0.0057065708 -3.230586e-22)
(0.95342325 -0.0049790716 -5.1349594e-23)
(0.96116496 -0.0042983105 1.2861472e-22)
(0.96812421 -0.0036645389 -4.8997376e-23)
(0.97419016 -0.0030871331 -2.9124149e-23)
(0.97974275 -0.002548434 2.2356139e-22)
(0.98371716 -0.0021419984 -1.0492505e-23)
(0.9893518 -0.0015029137 -1.8415141e-22)
(0.26538009 -0.071612047 3.7321354e-21)
(0.27592269 -0.074676864 -1.3207638e-20)
(0.29041249 -0.07663437 6.2309885e-21)
(0.30631572 -0.07712991 -1.8519672e-20)
(0.32229081 -0.077050525 -2.6933136e-21)
(0.33867887 -0.0766156 1.4812167e-20)
(0.35565908 -0.075773748 -1.7724556e-20)
(0.3731314 -0.074561937 -1.5722128e-21)
(0.39101418 -0.073058407 1.6010271e-20)
(0.40927009 -0.071318373 6.3156754e-21)
(0.42785713 -0.069381007 -7.2872185e-21)
(0.44672389 -0.067282592 -5.3038975e-21)
(0.46581878 -0.065056871 -3.6502076e-21)
(0.48509176 -0.062733421 -8.6291913e-21)
(0.50449331 -0.060338053 3.5948258e-23)
(0.52397453 -0.057893583 -3.0319267e-21)
(0.54348771 -0.05542021 2.7288743e-21)
(0.56298671 -0.052935734 -3.27235e-21)
(0.58242713 -0.050455773 -6.4161758e-21)
(0.60176652 -0.047993964 3.3578187e-21)
(0.62096446 -0.045562123 5.0502393e-21)
(0.63998269 -0.043170384 -3.3346446e-21)
(0.65878509 -0.040827309 2.1623046e-21)
(0.67733766 -0.038539993 -1.1628697e-21)
(0.69560849 -0.036314162 -6.1883696e-21)
(0.71356756 -0.034154267 -2.993628e-21)
(0.73118662 -0.032063569 -8.4297772e-22)
(0.748439 -0.030044242 -3.5868506e-22)
(0.7652993 -0.028097469 -1.9376235e-21)
(0.78174318 -0.02622355 -2.0831987e-21)
(0.79774702 -0.024422017 1.1732394e-22)
(0.81328765 -0.022691762 -1.9247534e-21)
(0.82834204 -0.021031173 -4.129814e-22)
(0.84288704 -0.019438289 -8.3426334e-22)
(0.85689915 -0.017910955 -1.5233847e-22)
(0.87035442 -0.016446985 -1.3286495e-21)
(0.88322837 -0.015044329 -1.7341759e-21)
(0.89549617 -0.013701222 2.0192999e-22)
(0.90713279 -0.012416315 3.4544196e-25)
(0.91811354 -0.011188773 -7.2127131e-22)
(0.92841442 -0.010018351 3.5610541e-22)
(0.93801351 -0.008905379 -5.222438e-22)
(0.94688983 -0.0078508946 -9.3989295e-22)
(0.95503095 -0.0068562125 5.2862548e-22)
(0.96241329 -0.0059243631 -9.4986625e-24)
(0.96906954 -0.0050557321 2.0141719e-22)
(0.97488661 -0.0042636209 -7.0165727e-23)
(0.98023495 -0.0035232141 -1.536883e-22)
(0.98406415 -0.0029648754 -2.7029238e-23)
(0.98954028 -0.0020838547 1.4381807e-22)
(0.37767393 -0.084639187 -3.540467e-20)
(0.38322838 -0.088630528 6.4187742e-20)
(0.39368443 -0.091059023 1.3021185e-20)
(0.40587775 -0.091681869 -2.2231106e-20)
(0.4178229 -0.091714064 -5.3917954e-21)
(0.43002584 -0.091377328 7.9447181e-22)
(0.44284185 -0.090565713 -4.7660053e-21)
(0.45618363 -0.089309921 -5.9546286e-21)
(0.46996898 -0.087698368 -5.0440929e-21)
(0.48418388 -0.085793264 -1.5020761e-20)
(0.49880761 -0.083638488 2.4884461e-20)
(0.5138013 -0.081275092 9.9205609e-21)
(0.52912226 -0.078742064 -1.9094162e-20)
(0.54472795 -0.076074414 7.6227085e-21)
(0.56057464 -0.073303261 5.2037647e-21)
(0.57661752 -0.070456506 2.68597e-21)
(0.59281172 -0.067559198 -7.9916219e-22)
(0.60911292 -0.064633725 -6.9333998e-21)
(0.62547774 -0.061699994 -2.8146523e-21)
(0.6418641 -0.058775589 -2.4617389e-21)
(0.65823138 -0.055875926 -5.308479e-21)
(0.67454069 -0.053014371 0)
(0.69075488 -0.050202359 -2.3145158e-21)
(0.70683865 -0.047449493 4.1220304e-21)
(0.72275849 -0.044763656 7.0374798e-21)
(0.73848257 -0.042151108 -6.5735037e-22)
(0.75398069 -0.039616599 -5.1488036e-21)
(0.76922402 -0.037163482 5.6560829e-21)
(0.78418497 -0.034793834 -1.1674423e-21)
(0.79883691 -0.032508588 5.2465147e-21)
(0.81315388 -0.03030768 -2.8474673e-22)
(0.8271104 -0.028190207 1.9705024e-21)
(0.84068112 -0.026154596 -1.3213823e-21)
(0.85384063 -0.024198801 9.7899366e-22)
(0.86656323 -0.022320494 -9.5507172e-22)
(0.87882282 -0.02051728 5.2197522e-22)
(0.89059286 -0.018786899 7.6172334e-22)
(0.90184647 -0.017127421 6.1762742e-22)
(0.9125566 -0.015537414 -1.3542164e-21)
(0.92269649 -0.014016073 9.1475346e-22)
(0.93224 -0.012563316 -3.897302e-22)
(0.94116294 -0.011179775 -1.6270605e-21)
(0.94944181 -0.0098669723 1.8723621e-21)
(0.9570614 -0.0086267523 3.8197701e-23)
(0.96399511 -0.0074631878 -1.6423607e-22)
(0.97027163 -0.006376826 7.9504812e-24)
(0.97577556 -0.0053849918 -1.8531872e-22)
(0.98086564 -0.0044557158 -2.9580882e-22)
(0.98451076 -0.0037553354 9.0053287e-23)
(0.98978431 -0.0026454134 -2.7546622e-23)
(0.5024344 -0.092436414 -2.9939126e-20)
(0.50224974 -0.097476052 1.5707127e-20)
(0.50776727 -0.10040411 9.103336e-21)
(0.5154919 -0.10127038 -1.1014203e-20)
(0.52278722 -0.10159618 1.6709225e-20)
(0.53022 -0.10155622 1.0652204e-20)
(0.53832481 -0.100991 -1.4244533e-20)
(0.54704522 -0.099923732 -7.900161e-21)
(0.55628788 -0.098440988 1.6143132e-20)
(0.5660494 -0.096604698 -2.3749537e-20)
(0.5763263 -0.094461386 -1.6942484e-20)
(0.58709002 -0.092055278 2.1916086e-20)
(0.5983034 -0.089428824 8.0745569e-21)
(0.6099281 -0.086621305 -1.0987375e-20)
(0.62192366 -0.083668645 1.6571642e-21)
(0.63424739 -0.080603648 -8.5541381e-22)
(0.64685548 -0.077456236 1.9061477e-21)
(0.65970396 -0.074253566 3.7110783e-21)
(0.67274922 -0.071020129 -2.3881644e-21)
(0.68594845 -0.06777783 2.9467828e-21)
(0.69925997 -0.064546091 3.9597859e-21)
(0.71264344 -0.061341949 -4.2096612e-21)
(0.72606007 -0.058180147 3.3156762e-22)
(0.73947269 -0.055073237 -2.6420264e-21)
(0.75284573 -0.052031681 1.2828228e-20)
(0.76614521 -0.049063967 8.4460716e-21)
(0.77933866 -0.04617673 2.2730968e-21)
(0.79239493 -0.043374884 -2.0749441e-21)
(0.80528404 -0.040661765 6.9846421e-21)
(0.817977 -0.038039289 1.1918915e-20)
(0.8304455 -0.035508126 2.5884016e-21)
(0.84266174 -0.033067887 5.2320975e-21)
(0.85459815 -0.030717334 2.5262259e-21)
(0.86622715 -0.028454602 1.2421211e-21)
(0.877521 -0.026277448 -9.2362097e-23)
(0.88845167 -0.024183489 4.0815678e-21)
(0.89899075 -0.022170464 8.4241616e-22)
(0.90910958 -0.020236458 3.1244271e-22)
(0.91877937 -0.018380115 3.3962831e-23)
(0.92797158 -0.016600791 1.6461324e-21)
(0.93665824 -0.014898686 -7.8811547e-24)
(0.94481313 -0.01327483 8.0922685e-22)
(0.95241051 -0.011731315 -1.8372965e-23)
(0.95943261 -0.010270585 -6.0893585e-22)
(0.96585002 -0.0088978314 -2.0695076e-22)
(0.97168736 -0.0076137731 -4.5405616e-22)
(0.9768274 -0.0064398437 1.9544071e-22)
(0.98161542 -0.005336915 -9.1189657e-23)
(0.98504467 -0.0045062373 -5.8121612e-23)
(0.99007802 -0.0031831546 1.6428889e-22)
(0.63258807 -0.094178366 2.2260906e-21)
(0.62624193 -0.1004299 -2.154165e-20)
(0.62609581 -0.10397324 -4.2357559e-21)
(0.62872926 -0.10535451 6.959648e-21)
(0.6309987 -0.10628065 6.7861235e-21)
(0.63335863 -0.10681684 4.4816202e-21)
(0.63646881 -0.10677219 1.3069085e-20)
(0.64033717 -0.10617399 1.1247057e-20)
(0.64486082 -0.10509837 1.1507151e-20)
(0.6500268 -0.10359919 -1.5373143e-20)
(0.6558378 -0.1017234 -3.071282e-20)
(0.66227217 -0.099518041 -7.8588894e-21)
(0.66929498 -0.097028663 2.1740206e-20)
(0.67686825 -0.094298572 1.6716935e-20)
(0.6849518 -0.091368642 -4.7095359e-21)
(0.69350285 -0.088277022 -1.9105611e-21)
(0.70247693 -0.085059051 -7.1944534e-21)
(0.7118289 -0.081747254 7.9699188e-21)
(0.7215137 -0.07837133 -2.9855566e-22)
(0.73148678 -0.074958138 -2.5100367e-21)
(0.74170449 -0.071531735 1.2095564e-20)
(0.75212437 -0.06811343 -1.6002214e-21)
(0.76270534 -0.064721856 1.6184431e-21)
(0.77340783 -0.061373055 6.592031e-22)
(0.78419385 -0.05808059 -5.4439078e-21)
(0.79502692 -0.05485566 5.2215434e-21)
(0.80587205 -0.05170724 1.3874671e-21)
(0.81669562 -0.048642229 -3.9077873e-21)
(0.8274652 -0.045665622 -3.5229692e-21)
(0.83814941 -0.042780688 -8.4755275e-21)