/*--------------------------------*- C++ -*----------------------------------*\
  =========                 |
  \\      /  F ield         | OpenFOAM: The Open Source CFD Toolbox
   \\    /   O peration     | Website:  https://openfoam.org
    \\  /    A nd           | Version:  6
     \\/     M anipulation  |
\*---------------------------------------------------------------------------*/
FoamFile
{
    version     2.0;
    format      ascii;
    class       surfaceScalarField;
    location    "3";
    object      phi_0;
}
// * * * * * * * * * * * * * * * * * * * * * * * * * * * * * * * * * * * * * //

dimensions      [0 3 -1 0 0 0 0];

internalField   nonuniform List<scalar> 
18180
(
0.00057110032
-0.00058754805
1.6447723e-05
0.0022633906
-0.0032895461
0.0015972558
0.0051130251
-0.007429154
0.0045795195
0.0091485732
-0.012889609
0.008854061
0.014379459
-0.019565022
0.014334136
0.020785514
-0.027331535
0.020925479
0.028308293
-0.036038172
0.028515393
0.036845543
-0.045503449
0.036966199
0.04625028
-0.055515446
0.046110709
0.056335566
-0.065837333
0.055752047
0.066885266
-0.076218631
0.065668931
0.07767
-0.086410889
0.075626155
0.088466395
-0.096185526
0.085389131
0.099076949
-0.10535101
0.094740452
0.10934773
-0.11376668
0.10349589
0.11918154
-0.12135121
0.1115174
0.12854438
-0.12808469
0.11872185
0.13746741
-0.13400458
0.12508154
0.14607627
-0.13920785
0.13059899
-0.14382466
0.13526906
0.15463187
0.00066131276
-0.0012488608
0.0025962847
-0.0052245181
0.0058137393
-0.010646609
0.010308339
-0.017384209
0.016047822
-0.025304504
0.022962252
-0.034245965
0.030937041
-0.044012962
0.039811116
-0.054377524
0.049381402
-0.065085732
0.059413982
-0.075869913
0.069661017
-0.086465666
0.079881271
-0.096631143
0.089861137
-0.10616539
0.09943285
-0.11492272
0.10848699
-0.12282082
0.11697747
-0.12984168
0.12491844
-0.13602566
0.13237511
-0.14146124
0.13944601
-0.14627876
-0.15058183
0.14620318
0.00074889038
-0.0019977512
0.0029071402
-0.0073827679
0.0064482774
-0.014187746
0.011325187
-0.022261119
0.017456158
-0.031435475
0.024715255
-0.041505062
0.032928834
-0.052226541
0.041879185
-0.063327874
0.051315666
-0.074522214
0.060972384
-0.085526631
0.070589996
-0.096083278
0.079938209
-0.10597936
0.088835216
-0.1150624
0.097160917
-0.12324842
0.10486203
-0.13052193
0.11194873
-0.13692839
0.11848414
-0.14256107
0.12456835
-0.14754545
0.13031648
-0.15202689
-0.15611673
0.13585138
0.00083189726
-0.0028296485
0.0031884286
-0.0097392993
0.0069985277
-0.017997845
0.01216519
-0.027427781
0.018550761
-0.037821046
0.025970062
-0.048924364
0.034192181
-0.06044866
0.042950878
-0.072086571
0.051962531
-0.083533867
0.060949065
-0.094513165
0.069661995
-0.10479621
0.077903399
-0.11422076
0.085540264
-0.12269926
0.0925101
-0.13021826
0.098817618
-0.13682945
0.10452392
-0.14263469
0.1097309
-0.14776805
0.11456365
-0.1523782
0.11915267
-0.15661591
-0.16059913
0.12363507
0.00090678304
-0.0037364315
0.0034277811
-0.012260297
0.0074386493
-0.022008713
0.012785676
-0.032774807
0.019271494
-0.044306864
0.026652696
-0.056305566
0.034648259
-0.068444223
0.042956971
-0.080395283
0.051281045
-0.091857941
0.059351692
-0.10258381
0.066951894
-0.11239641
0.073932287
-0.12120115
0.080217698
-0.12898467
0.085803986
-0.13580454
0.090746803
-0.14177226
0.095145266
-0.14703316
0.099123902
-0.15174668
0.10281589
-0.15607018
0.10634925
-0.16014927
-0.16409777
0.10984789
0.00096941628
-0.0047058478
0.0036111346
-0.014902016
0.0077407794
-0.026138358
0.013143827
-0.038177855
0.019563381
-0.050726417
0.026703773
-0.063445959
0.034246108
-0.075986558
0.041871758
-0.088020933
0.049289192
-0.099275375
0.056258746
-0.10955337
0.062610533
-0.1187482
0.068252467
-0.12684309
0.073167725
-0.13389993
0.077403328
-0.14004015
0.081052987
-0.14542192
0.08423799
-0.15021816
0.087089506
-0.1545982
0.089734576
-0.15871525
0.092286596
-0.16270129
-0.16665758
0.094846411
0.0010155273
-0.0057213751
0.0037244446
-0.017610933
0.0078787066
-0.03029262
0.013202723
-0.043501871
0.019384904
-0.056908598
0.026088114
-0.070149169
0.032971704
-0.082870148
0.039718912
-0.09476814
0.04606359
-0.10562005
0.051810603
-0.11530038
0.056846023
-0.12378362
0.061135894
-0.13113296
0.064715072
-0.13747911
0.067669458
-0.14299453
0.070115752
-0.14786822
0.072182459
-0.15228487
0.073994782
-0.15641052
0.075664639
-0.16038511
0.077285456
-0.16432211
-0.16830619
0.078934059
0.0010407229
-0.0067620981
0.0037543079
-0.020324518
0.0078297938
-0.034368106
0.01293489
-0.048606967
0.018712805
-0.062686514
0.024799536
-0.0762359
0.030850679
-0.088921291
0.036569725
-0.10048719
0.041731207
-0.11078154
0.046193783
-0.11976296
0.049901132
-0.12749097
0.052871703
-0.13410353
0.055180702
-0.13978811
0.056938743
-0.14475257
0.058271389
-0.14920086
0.059302587
-0.15331606
0.060143506
-0.15725144
0.060886852
-0.16112846
0.061605425
-0.16504068
-0.1690554
0.062354634
0.0010392591
-0.0078013572
0.0036874704
-0.022972729
0.007576421
-0.038257057
0.012325651
-0.053356197
0.017546141
-0.067907004
0.022863556
-0.081553314
0.027947291
-0.094005026
0.032536369
-0.10507626
0.036455999
-0.11470117
0.039621515
-0.12292847
0.042029875
-0.12989933
0.043741919
-0.13581557
0.044860099
-0.14090629
0.045506405
-0.14539888
0.045804015
-0.14949847
0.045864562
-0.15337661
0.04578125
-0.15716813
0.045627019
-0.16097423
0.045455962
-0.16486963
-0.16890543
0.045305997
0.0010095537
-0.0088109109
0.0035226503
-0.025485826
0.0071208657
-0.041855272
0.011386862
-0.057622193
0.015914979
-0.072435122
0.020338077
-0.085976412
0.02435559
-0.098022539
0.027753766
-0.10847444
0.030413418
-0.11736082
0.032304168
-0.12481922
0.033467781
-0.13106294
0.033995388
-0.13634318
0.034003838
-0.14091474
0.033615349
-0.14501039
0.032942834
-0.14882596
0.032081464
-0.15251524
0.031105683
-0.15619235
0.030070229
-0.15993877
0.029013189
-0.16381259
0.027958594
-0.16785084
-0.00041312296
0.00041312291
3.9410776e-11
-0.0013101944
0.00089707132
8.1690334e-11
-0.0024574387
0.0011472443
9.2601572e-11
-0.0036614251
0.0012039863
8.1978588e-11
-0.004749063
0.0010876379
4.5739872e-11
-0.0055588582
0.00080979512
-2.2408537e-11
-0.0059354411
0.0003765831
-1.3123146e-10
-0.0057261756
-0.00020926527
-2.8445026e-10
-0.0047795949
-0.00094658022
-4.8347871e-10
-0.0029459506
-0.0018336436
-7.2280922e-10
-7.9475321e-05
-0.0028664743
-9.9744653e-10
0.0039583442
-0.0040378182
-1.298326e-09
0.0092937401
-0.0053353944
-1.6211151e-09
0.016034794
-0.0067410522
-1.9569718e-09
0.024265826
-0.0082310296
-2.3022921e-09
0.034041883
-0.0097760538
-2.6457847e-09
0.045384006
-0.01134212
-2.9864087e-09
0.058276369
-0.01289236
-3.3089437e-09
0.072666326
-0.014389953
-3.618098e-09
-0.015781249
0.088447579
-3.8979297e-09
-0.00037361469
0.0007867376
-0.0011738682
0.0016973248
-0.0021762249
0.002149601
-0.0031918794
0.0022196407
-0.0040503235
0.0019460821
-0.0045916937
0.0013511653
-0.0046620841
0.00044697351
-0.0041105702
-0.00076077919
-0.0027884634
-0.0022686871
-0.00055034123
-0.0040717657
0.002743681
-0.0061604966
0.0072235149
-0.0085176521
0.013003911
-0.01111579
0.020179294
-0.013916435
0.028818043
-0.016869779
0.038957557
-0.019915567
0.050600556
-0.02298512
0.063713444
-0.026005247
0.078227734
-0.028904244
-0.031581241
0.094027726
-0.00029693513
0.0010836727
-0.00090953323
0.0023099229
-0.0016324246
0.0028724924
-0.002287393
0.0028746091
-0.0027105952
0.0023692842
-0.002747014
0.0013875842
-0.0022473272
-5.2713343e-05
-0.0010659629
-0.0019421434
0.00093847246
-0.0042731225
0.0039014137
-0.0070347069
0.0079486285
-0.010207711
0.013191743
-0.013760767
0.019723434
-0.017647481
0.027612046
-0.021805047
0.036896809
-0.026154543
0.047584336
-0.030603094
0.05964711
-0.035047894
0.073024549
-0.039382686
0.08762768
-0.043507375
-0.04728568
0.10333212
-0.00019272676
0.0012763995
-0.00054780536
0.0026650015
-0.00088562081
0.0032103079
-0.0010432074
0.0030321957
-0.00086722297
0.0021932997
-0.000211127
0.0007314882
0.0010663284
-0.0013301688
0.0031008667
-0.0039766817
0.0060208455
-0.0071931013
0.0099442699
-0.010958131
0.014974719
-0.015238161
0.02119658
-0.019982628
0.028670135
-0.025121036
0.037427122
-0.030562034
0.047467547
-0.036194968
0.058758553
-0.0418941
0.071236085
-0.047525426
0.084809746
-0.052956347
0.099371634
-0.058069263
-0.062708339
0.11479429
-7.2820453e-05
0.0013492199
-0.00012654642
0.0027187274
-9.9600853e-06
0.0030937215
0.00042165327
0.0026005823
0.0013078975
0.0013070555
0.0027833174
-0.00074393169
0.0049765062
-0.0035233575
0.0080076778
-0.0070078533
0.011985769
-0.011171192
0.017004237
-0.015976599
0.023136362
-0.021370286
0.030430492
-0.027276758
0.038905875
-0.033596419
0.048549865
-0.040206024
0.059317254
-0.046962357
0.071132446
-0.053709293
0.083894999
-0.060287979
0.097488745
-0.066550093
0.11179487
-0.072375391
-0.07760722
0.12669375
5.1510928e-05
0.001297709
0.0003173677
0.0024528707
0.00092134465
0.0024897446
0.0019885038
0.0015334232
0.0036420431
-0.00034648381
0.0060007415
-0.0031026301
0.0091754945
-0.0066981106
0.013265353
-0.011097712
0.018353055
-0.016258895
0.024500006
-0.02212355
0.03174135
-0.02861163
0.040081844
-0.035617251
0.049493307
-0.043007882
0.059914457
-0.050627174
0.07125375
-0.05830165
0.083395553
-0.065851096
0.096209779
-0.073102205
0.10956496
-0.07990527
0.12334492
-0.086155357
-0.091715516
0.13745322
0.00017177288
0.0011259361
0.00075479211
0.0018698514
0.0018485426
0.0013959941
0.003558242
-0.00017627623
0.005988595
-0.0027768368
0.0092386949
-0.00635273
0.013396626
-0.010856041
0.018534052
-0.016235138
0.024700497
-0.02242534
0.031917914
-0.029340967
0.040176271
-0.036869987
0.049431017
-0.044871997
0.059603278
-0.053180143
0.07058343
-0.061607326
0.082238225
-0.069956444
0.094421144
-0.078034015
0.10698534
-0.085666397
0.11979878
-0.092718711
0.13276231
-0.099118889
-0.10477338
0.14582018
0.00028313178
0.00084280432
0.0011674458
0.00098553739
0.0027319295
-0.00016848961
0.0050621706
-0.0025065173
0.0082421073
-0.0059567735
0.012347033
-0.010457655
0.01743685
-0.015945859
0.023549275
-0.022347563
0.030693555
-0.02956962
0.03884544
-0.037492851
0.047944342
-0.04596889
0.057893635
-0.05482129
0.068564769
-0.063851277
0.079805394
-0.072847951
0.091450985
-0.081602035
0.10333872
-0.089921752
0.11532217
-0.097649843
0.12728549
-0.10468203
0.13915704
-0.11099044
-0.11654641
0.15093008
0.00038389472
0.0004589096
0.0015470963
-0.00017766415
0.0035508363
-0.0021722296
0.0064604184
-0.0054160994
0.010336189
-0.0098325437
0.015225267
-0.015346734
0.021153514
-0.021874106
0.028118121
-0.02931217
0.036081667
-0.037533166
0.04496868
-0.046379864
0.054665756
-0.055665965
0.065025988
-0.065181523
0.075877886
-0.074703175
0.087038075
-0.08400814
0.098326263
-0.092890223
0.10958028
-0.10117577
0.12066933
-0.10873889
0.13150466
-0.11551736
0.14204746
-0.12153325
-0.12683841
0.15233945
0.00047535733
0.001894949
0.0043022389
0.0077402005
0.012241793
0.017820539
0.024461826
0.032115855
0.040693398
0.050065582
0.060068548
0.07051318
0.081199136
0.091931447
0.10253712
0.11287874
0.12286171
0.13242589
0.14149164
0.14992229
0.10429282
-0.015845237
-5.5793748e-09
0.1195123
-0.015219471
-5.8677741e-09
0.1337803
-0.014268
-6.0666342e-09
0.14680623
-0.013025923
-6.1850542e-09
0.15843598
-0.011629742
-6.2191631e-09
0.16863586
-0.01019987
-6.1912113e-09
0.17745317
-0.0088173038
-6.1193306e-09
0.18499286
-0.0075396808
-6.0055091e-09
0.19139622
-0.0064033621
-5.8581594e-09
0.19681741
-0.0054211828
-5.6834875e-09
0.20140452
-0.0045870984
-5.496398e-09
0.20528875
-0.0038842286
-5.2958737e-09
0.20858049
-0.0032917323
-5.0960119e-09
0.2113701
-0.0027896036
-4.8915053e-09
0.21373147
-0.0023613655
-4.6917947e-09
0.21572608
-0.0019946104
-4.4842772e-09
0.2174061
-0.0016800187
-4.2772293e-09
0.21881612
-0.0014100111
-4.0563278e-09
0.21999401
-0.0011778877
-3.8333948e-09
0.22097161
-0.0009775991
-3.5922171e-09
0.22177545
-0.00080383503
-3.3485955e-09
0.22242756
-0.00065211008
-3.0835813e-09
0.2229463
-0.00051873097
-2.81992e-09
0.22334698
-0.00040068095
-2.5343902e-09
0.22364247
-0.00029548854
-2.2581674e-09
0.22384359
-0.00020111634
-1.9607731e-09
0.22395947
-0.00011587431
-1.6835087e-09
0.22399782
-3.8351933e-05
-1.3842558e-09
0.22396519
3.2633985e-05
-1.1146942e-09
0.22386711
9.8081673e-05
-8.2019324e-10
0.22370827
0.00015883747
-5.6514944e-10
0.22349265
0.00021562326
-2.8205237e-10
0.22322359
0.00026905792
-4.5376758e-11
0.22290391
0.00031967385
2.1981168e-10
0.22253598
0.000367932
4.3002365e-10
0.22212175
0.0004142331
6.6458331e-10
0.22166282
0.00045892771
8.4092167e-10
0.22116049
0.00050232469
1.0272799e-09
0.2206158
0.00054469734
1.1525363e-09
0.2200295
0.00058629011
1.2941701e-09
0.21940218
0.00062732387
1.4094278e-09
0.21873418
0.00066800007
1.5281274e-09
0.21802567
0.00070850491
1.5868787e-09
0.21727666
0.00074901481
1.6125794e-09
0.21648696
0.0007896973
1.5838148e-09
0.21565623
0.00083072322
1.4955893e-09
0.21478399
0.00087224386
1.3468619e-09
0.21386947
0.00091451847
1.1435407e-09
0.21291227
0.00095719756
9.0721336e-10
0.0010048766
4.8137678e-10
0.10855083
-0.030368339
0.1225916
-0.029260246
0.13583944
-0.027515836
0.14801857
-0.02520505
0.15897824
-0.022589413
0.16866913
-0.019890764
0.17711355
-0.01726172
0.18438952
-0.014815658
0.19061261
-0.012626446
0.19591448
-0.010723053
0.20042544
-0.0090980566
0.20426359
-0.0077223809
0.20753005
-0.0065581946
0.21030878
-0.0055683314
0.21266922
-0.00472181
0.21466976
-0.0039951517
0.21636039
-0.0033706492
0.21778421
-0.002833827
0.21897811
-0.0023717908
0.21997332
-0.0019728007
0.22079596
-0.0016264758
0.22146784
-0.0013239992
0.2220072
-0.0010580822
0.22242927
-0.00082275346
0.22274689
-0.00061311112
0.22297088
-0.00042510732
0.22311039
-0.00025537871
0.22317315
-0.00010111604
0.22316574
4.0040187e-05
0.22309374
0.00017008163
0.22296188
0.00029069803
0.22277418
0.00040333123
0.22253402
0.00050921699
0.22224427
0.00060941989
0.22190734
0.00070486039
0.22152524
0.00079633954
0.22109961
0.00088455766
0.2206318
0.00097013092
0.22012289
0.0010536056
0.21957371
0.0011354698
0.21898487
0.0012161632
0.21835678
0.0012960878
0.21768967
0.0013756148
0.21698359
0.0014550954
0.21623843
0.0015348625
0.2154539
0.0016152565
0.21462956
0.0016965784
0.21376473
0.0017793458
0.21285908
0.0018628513
0.001956301
0.11548535
-0.042521572
0.12742001
-0.041194901
0.13885148
-0.038947308
0.14952722
-0.035880787
0.15929966
-0.032361861
0.16809104
-0.028682141
0.17587922
-0.025049898
0.18269428
-0.021630716
0.18860579
-0.018537957
0.19370536
-0.015822625
0.19809152
-0.013484216
0.20185889
-0.011489753
0.20509195
-0.0097912565
0.20786308
-0.0083394578
0.21023366
-0.0070923926
0.21225643
-0.00601792
0.21397743
-0.0050916537
0.2154371
-0.0042934931
0.2166706
-0.0036052945
0.2177081
-0.0030102928
0.2185751
-0.0024934764
0.21929307
-0.0020419735
0.21988006
-0.0016450706
0.22035125
-0.0012939493
0.22071949
-0.00098134457
0.22099562
-0.00070124094
0.22118887
-0.00044862889
0.22130707
-0.00021931601
0.22135689
-9.7756998e-06
0.221344
0.00018297115
0.22127324
0.00036145508
0.22114874
0.0005278359
0.22097399
0.00068396561
0.22075197
0.00083143939
0.22048519
0.00097163751
0.22017577
0.0011057598
0.21982547
0.0012348555
0.21943576
0.001359847
0.21900781
0.0014815513
0.21854258
0.0016006977
0.2180408
0.0017179428
0.21750301
0.0018338863
0.21692954
0.0019490813
0.21632059
0.0020640496
0.21567616
0.0021792873
0.21499612
0.0022953003
0.21428016
0.0024125332
0.21352774
0.002531763
0.21273869
0.0026519068
0.0027868086
0.12390736
-0.051634639
0.13312678
-0.050414318
0.14220633
-0.048026862
0.15092573
-0.044600181
0.15914272
-0.040578857
0.16674692
-0.036286342
0.17366331
-0.031966284
0.17986278
-0.027830192
0.18535684
-0.024032013
0.19018572
-0.0206515
0.19440659
-0.017705089
0.19808303
-0.015166199
0.20127715
-0.012985367
0.20404545
-0.011107758
0.20643811
-0.0094850585
0.20849992
-0.0080797265
0.21027134
-0.0068630796
0.21178904
-0.0058111939
0.21308577
-0.0049020239
0.21419021
-0.0041147315
0.21512704
-0.0034303015
0.21591726
-0.0028322004
0.21657873
-0.0023065324
0.21712656
-0.0018417815
0.21757363
-0.0014284144
0.21793089
-0.001058505
0.2182077
-0.00072543309
0.21841202
-0.00042364354
0.2185507
-0.00014845438
0.21862958
0.00010409623
0.21865366
0.00033737649
0.21862723
0.0005542628
0.21855397
0.00075722345
0.21843703
0.00094838399
0.21827908
0.0011295839
0.21808242
0.0013024215
0.21784898
0.0014682932
0.2175804
0.0016284259
0.21727805
0.0017839049
0.21694305
0.0019356975
0.21657632
0.0020846738
0.21617858
0.0022316264
0.21575037
0.0023772858
0.21529208
0.0025223399
0.21480393
0.0026674415
0.21428597
0.0028132569
0.21373814
0.0029603672
0.21316009
0.0031098065
0.21255191
0.0032600928
0.0034297467
0.13250425
-0.057445139
0.13874621
-0.056656278
0.1452237
-0.054504353
0.15175807
-0.051134547
0.15821694
-0.04703773
0.16446209
-0.04253149
0.17036859
-0.037872787
0.17584735
-0.033308953
0.18084826
-0.029032922
0.18535562
-0.025158852
0.18938055
-0.02173002
0.19295126
-0.018736916
0.19610378
-0.016137884
0.19887568
-0.013879657
0.20130337
-0.011912749
0.20342165
-0.010198007
0.20526393
-0.0087053552
0.20686205
-0.0074093212
0.20824571
-0.0062856789
0.20944172
-0.0053107406
0.21047371
-0.0044622918
0.21136215
-0.0037206459
0.21212465
-0.0030690321
0.2127763
-0.0024934306
0.21333005
-0.0019821605
0.213797
-0.0015254529
0.21418669
-0.0011151229
0.21450732
-0.00074427447
0.21476595
-0.00040708584
0.21496866
-9.8613779e-05
0.21512069
0.00018534293
0.21522657
0.0004483812
0.21529022
0.0006935813
0.215315
0.00092360499
0.21530383
0.0011407484
0.21525925
0.0013470075
0.21518341
0.0015441275
0.2150782
0.0017336348
0.21494523
0.0019168818
0.21478585
0.0020950694
0.21460125
0.0022692752
0.2143924
0.0024404812
0.2141601
0.0026095868
0.213905
0.0027774411
0.21362759
0.0029448452
0.21332823
0.0031126174
0.21300713
0.0032814682
0.21266425
0.0034526851
0.21229999
0.0036243511
0.0038197222
0.14006268
-0.060054607
0.14337775
-0.059971347
0.14726271
-0.058389312
0.15159015
-0.055461988
0.15624314
-0.051690721
0.16106747
-0.047355818
0.16590115
-0.042706467
0.17060344
-0.038011239
0.17506671
-0.033496195
0.17922062
-0.029312757
0.18302981
-0.025539217
0.1864859
-0.022193
0.18959726
-0.019249245
0.19238083
-0.016663232
0.19485749
-0.014389404
0.19705037
-0.012390884
0.19898441
-0.010639398
0.20068566
-0.0091105777
0.20218009
-0.0077801097
0.2034923
-0.0066229453
0.20464467
-0.0056146611
0.20565705
-0.0047330272
0.2065468
-0.0039587868
0.20732902
-0.003275642
0.20801676
-0.0026699049
0.20862136
-0.0021300549
0.20915263
-0.0016463874
0.20961904
-0.0012106909
0.21002797
-0.00081601395
0.2103858
-0.00045644117
0.21069807
-0.00012693139
0.21096963
0.00017682787
0.21120467
0.00045854086
0.21140687
0.00072139893
0.21157946
0.00096816261
0.21172524
0.0012012251
0.21184669
0.0014226753
0.21194599
0.001634342
0.21202503
0.0018378394
0.2120855
0.0020345952
0.21212888
0.0022258927
0.21215647
0.0024128934
0.2121694
0.002596661
0.21216865
0.0027781932
0.21215506
0.0029584342
0.21212933
0.0031383442
0.21209205
0.0033187482
0.21204355
0.003501184
0.21198464
0.0036832635
0.0038930397
0.14561183
-0.059846263
0.1462934
-0.060652916
0.14779915
-0.059895063
0.15006444
-0.057727272
0.15299228
-0.054618568
0.15642778
-0.05079131
0.16019108
-0.046469771
0.16410504
-0.041925197
0.16801471
-0.03740587
0.17180102
-0.033099064
0.17538499
-0.029123189
0.1787228
-0.025530814
0.18179564
-0.022322077
0.1845996
-0.019467194
0.18713922
-0.016929028
0.18942478
-0.01467644
0.19147147
-0.01268609
0.19329851
-0.010937617
0.19492744
-0.0094090342
0.19638022
-0.0080757309
0.19767782
-0.0069122626
0.1988394
-0.0058946005
0.19988206
-0.005001446
0.20082092
-0.0042145038
0.20166925
-0.0035182381
0.20243867
-0.0028994782
0.20313933
-0.0023470459
0.20378009
-0.0018514479
0.20436869
-0.0014046094
0.20491189
-0.00099964211
0.20541562
-0.0006306668
0.20588509
-0.00029264255
0.20632487
1.8759001e-05
0.20673901
0.00030726706
0.20713106
0.00057610507
0.20750422
0.00082806841
0.2078613
0.0010655914
0.20820485
0.0012908008
0.20853712
0.0015055659
0.20886017
0.001711544
0.20917585
0.0019102113
0.20948584
0.0021029022
0.20979167
0.0022908361
0.21009471
0.0024751521
0.21039622
0.0026569196
0.21069733
0.0028372375
0.21099905
0.0030170243
0.21130216
0.0031980744
0.21160797
0.0033774591
0.0035881305
0.14848085
-0.057397039
0.1469854
-0.059157463
0.14646517
-0.059374834
0.14693467
-0.05819677
0.14831812
-0.056002022
0.15047404
-0.052947232
0.15322515
-0.049220879
0.15637667
-0.045076721
0.159741
-0.040770199
0.16315993
-0.036517994
0.16651632
-0.032479574
0.16973404
-0.028748539
0.17276927
-0.025357301
0.1755988
-0.022296731
0.17821144
-0.019541662
0.18060417
-0.017069171
0.18278145
-0.014863373
0.18475455
-0.012910712
0.18653972
-0.011194209
0.18815579
-0.0096917988
0.18962198
-0.0083784526
0.19095662
-0.0072292386
0.19217653
-0.0062213578
0.19329687
-0.0053348417
0.19433114
-0.0045525095
0.1952913
-0.0038596457
0.19618793
-0.0032436716
0.19703032
-0.0026938362
0.19782666
-0.002200949
0.19858417
-0.0017571562
0.19930923
-0.0013557253
0.20000747
-0.00099088669
0.20068391
-0.00065767787
0.201343
-0.00035182251
0.20198874
-6.9630707e-05
0.20262471
0.00019209887
0.20325415
0.00043614443
0.20388003
0.00066492797
0.20450501
0.00088057792
0.20513159
0.0010849657
0.20576204
0.0012797596
0.20639849
0.0014664561
0.20704291
0.0016464196
0.20769714
0.0018209186
0.20836292
0.0019911375
0.20904186
0.0021582987
0.20973549
0.0023233987
0.21044508
0.0024884835
0.21117252
0.002650021
0.0028459667
0.14832576
-0.05338334
0.14519727
-0.05602898
0.14305901
-0.057236573
0.14204034
-0.057178101
0.14209435
-0.056056023
0.14310966
-0.053962541
0.14493141
-0.051042631
0.14736734
-0.047512655
0.15021388
-0.043616741
0.15328424
-0.039588352
0.15642795
-0.035623284
0.15953836
-0.031858951
0.16254774
-0.028366684
0.16541516
-0.025164144
0.16811519
-0.022241689
0.17063232
-0.01958631
0.17296008
-0.017191129
0.17510102
-0.015051648
0.17706533
-0.013158524
0.17886813
-0.011494594
0.18052663
-0.010036951
0.18205823
-0.0087608414
0.18347948
-0.0076426063
0.18480562
-0.0066609819
0.18605047
-0.0057973618
0.18722644
-0.0050356165
0.18834459
-0.0043618252
0.18941477
-0.0037640085
0.19044569
-0.0032318747
0.19144512
-0.0027565877
0.19241996
-0.0023305586
0.19337634
-0.0019472712
0.19431978
-0.001601118
0.19525522
-0.0012872653
0.19618714
-0.0010015467
0.19711959
-0.00074035295
0.1980563
-0.00050056075
0.19900067
-0.00027944561
0.19995588
-7.463284e-05
0.20092488
0.0001159625
0.20191045
0.00029419312
0.2029152
0.00046170629
0.20394162
0.00062000257
0.20499208
0.00077046162
0.20606884
0.0009143773
0.20717406
0.0010530725
0.20830985
0.0011876066
0.20947806
0.0013202775
0.21068122
0.0014468655
0.0016104599
0.14524158
-0.048702636
0.14093694
-0.051724339
0.13754281
-0.053842444
0.13527349
-0.054908778
0.1341484
-0.054930936
0.13411603
-0.053930174
0.13506205
-0.05198865
0.13681632
-0.049266919
0.13917623
-0.045976656
0.1419358
-0.042347924
0.1449127
-0.038600177
0.14796609
-0.034912346
0.1509998
-0.031400392
0.15395256
-0.028116904
0.15678455
-0.025073676
0.15946857
-0.02227033
0.16198769
-0.019710248
0.16433563
-0.017399587
0.1665161
-0.015338997
0.16854022
-0.013518718
0.17042327
-0.011919994
0.17218201
-0.010519582
0.17383312
-0.0092937209
0.17539239
-0.0082202464
0.17687433
-0.0072793091
0.17829215
-0.006453436
0.17965771
-0.0057273809
0.18098162
-0.0050879161
0.18227335
-0.0045236108
0.18354137
-0.0040246101
0.18479325
-0.0035824305
0.18603575
-0.003189772
0.18727498
-0.0028403514
0.18851647
-0.0025287579
0.18976525
-0.0022503261
0.19102593
-0.002001029
0.19230275
-0.0017773833
0.19359967
-0.0015763691
0.1949204
-0.001395359
0.19626842
-0.0012320556
0.19764705
-0.0010844372
0.19905946
-0.00095070655
0.20050871
-0.00082924689
0.20199774
-0.00071856958
0.20352942
-0.00061730099
0.20510651
-0.00052402028
0.20673176
-0.0004376372
0.20840761
-0.000355579
0.21013739
-0.00028291359
-0.00017114363
0.21675871
-0.042749489
-0.22271186
0.21107807
-0.0460437
0.20562994
-0.048394317
0.20053832
-0.049817151
0.19591777
-0.050310387
0.19186806
-0.049880467
0.18846467
-0.048585264
0.18574101
-0.046543255
0.18368336
-0.04391901
0.18223907
-0.040903628
0.18133045
-0.037691563
0.18086881
-0.034450706
0.18076465
-0.031296227
0.1809336
-0.028285854
0.18129995
-0.025440027
0.18179931
-0.022769695
0.18238021
-0.020291145
0.18300372
-0.018023091
0.1836415
-0.015976784
0.18427345
-0.014150666
0.18488565
-0.012532192
0.18546895
-0.011102886
0.18601786
-0.0098426265
0.18652956
-0.0087319482
0.18700316
-0.0077529118
0.18743907
-0.0068893403
0.18783851
-0.0061268283
0.18820326
-0.0054526642
0.18853536
-0.0048557057
0.18883698
-0.0043262299
0.18911033
-0.0038557795
0.18935756
-0.003437011
0.18958077
-0.0030635546
0.1897819
-0.0027298869
0.18996279
-0.0024312171
0.19012515
-0.0021633872
0.19027055
-0.0019227836
0.19040044
-0.0017062598
0.19051614
-0.0015110669
0.19061888
-0.0013347932
0.19070975
-0.0011753084
0.19078976
-0.0010307127
0.1908598
-0.00089929176
0.1909207
-0.00077946079
0.19097315
-0.00066975715
0.19101778
-0.00056864674
0.19105515
-0.00047500552
0.19108547
-0.00038590597
0.19110991
-0.00030734702
-0.00018560461
0.2341368
-0.037233391
-0.2396529
0.2285591
-0.040465992
0.22312054
-0.042955756
0.21793886
-0.044635477
0.21313615
-0.045507678
0.20883022
-0.045574533
0.20511106
-0.044866108
0.20202793
-0.043460118
0.19958634
-0.041477421
0.19775343
-0.039070723
0.19646866
-0.03640679
0.19565607
-0.033638112
0.19523467
-0.030874833
0.19512531
-0.028176489
0.19525469
-0.025569415
0.19555822
-0.023073217
0.19598168
-0.020714607
0.19648168
-0.018523098
0.1970247
-0.016519795
0.19758546
-0.014711428
0.19814546
-0.013092195
0.19869162
-0.011649048
0.19921516
-0.010366161
0.19971057
-0.009227355
0.20017477
-0.0082171211
0.20060645
-0.0073210205
0.20100548
-0.0065258571
0.20137255
-0.0058197354
0.20170889
-0.0051920421
0.20201604
-0.0046333775
0.20229572
-0.0041354606
0.20254973
-0.0036910225
0.20277987
-0.0032936987
0.20298791
-0.0029379246
0.20317553
-0.0026188389
0.20334434
-0.0023321954
0.20349584
-0.0020742826
0.20363143
-0.0018418521
0.20375242
-0.0016320528
0.20386
-0.0014423723
0.20395527
-0.0012705824
0.20403925
-0.0011146881
0.20411284
-0.00097288252
0.20417687
-0.00084348828
0.20423206
-0.00072495368
0.20427905
-0.00061563685
0.20431841
-0.00051436135
0.2043504
-0.00041789298
0.20437609
-0.00033303751
-0.00020089777
0.25118731
-0.032092019
-0.25632869
0.24590286
-0.03518154
0.2406388
-0.037691691
0.2355451
-0.039541785
0.23074482
-0.040707391
0.22635363
-0.041183343
0.22246704
-0.040979525
0.21914666
-0.040139738
0.21641605
-0.038746803
0.21426331
-0.036917984
0.21264804
-0.034791523
0.21151089
-0.032500966
0.2107833
-0.030147241
0.21039499
-0.027788176
0.21027864
-0.02545307
0.21037264
-0.023167218
0.21062274
-0.020964701
0.21098294
-0.018883302
0.21141564
-0.016952492
0.21189104
-0.01518683
0.2123863
-0.013587451
0.21288445
-0.012147202
0.21337337
-0.01085508
0.21384473
-0.0096987171
0.21429313
-0.0086655163
0.21471532
-0.0077432093
0.21510964
-0.0069201821
0.21547557
-0.0061856689
0.21581338
-0.005529844
0.21612384
-0.0049438403
0.2164081
-0.0044197218
0.21666751
-0.0039504288
0.21690352
-0.0035297079
0.21711763
-0.0031520374
0.21731134
-0.0028125513
0.21748611
-0.0025069666
0.21764334
-0.0022315141
0.21778437
-0.0019828746
0.21791043
-0.0017581187
0.21802271
-0.0015546516
0.21812229
-0.0013701609
0.21821017
-0.0012025668
0.21828726
-0.0010499769
0.2183544
-0.00091062699
0.21841233
-0.0007828772
0.21846168
-0.00066498627
0.21850302
-0.0005557011
0.21853668
-0.0004515527
0.21856359
-0.00035995219
-0.00021705004
0.26820739
-0.027416324
-0.27288309
0.26334019
-0.030314343
0.25839566
-0.032747158
0.25352933
-0.034675457
0.24886972
-0.036047773
0.24452778
-0.036841404
0.24059836
-0.037050104
0.23715089
-0.036692277
0.23422378
-0.035819684
0.2318242
-0.034518409
0.22993177
-0.032899091
0.22850519
-0.031074385
0.22749073
-0.029132786
0.22682986
-0.027127306
0.22646419
-0.025087396
0.226338
-0.02304103
0.22639969
-0.02102639
0.22660294
-0.019086555
0.22690775
-0.017257303
0.22728092
-0.015559996
0.2276959
-0.014002435
0.22813219
-0.012583493
0.22857441
-0.011297301
0.22901137
-0.010135679
0.2294352
-0.0090893437
0.22984058
-0.0081485884
0.23022414
-0.0073037404
0.23058395
-0.0065454801
0.23091915
-0.0058650401
0.23122962
-0.0052543124
0.23151579
-0.0047058934
0.23177845
-0.0042130845
0.2320186
-0.0037698671
0.23223743
-0.0033708612
0.23243615
-0.003011275
0.23261604
-0.0026868517
0.23277834
-0.0023938141
0.23292427
-0.0021288113
0.23305502
-0.0018888663
0.2331717
-0.0016713259
0.23327535
-0.001473812
0.23336695
-0.0012941742
0.23344742
-0.001130445
0.23351758
-0.00098078124
0.23357816
-0.00084345829
0.23362982
-0.00071664473
0.23367311
-0.0005989904
0.23370841
-0.00048685602
0.23373653
-0.00038807728
-0.00023404842
0.28541289
-0.023252234
-0.28957698
0.28102647
-0.025927924
0.27650681
-0.028227499
0.2719835
-0.030152151
0.26757778
-0.031642052
0.26339519
-0.032658813
0.25952812
-0.033183034
0.25605105
-0.033215202
0.25301444
-0.032783073
0.25044211
-0.031946085
0.24833205
-0.030789034
0.24666064
-0.029402972
0.2453897
-0.027861842
0.24447384
-0.026211445
0.24386546
-0.024479017
0.24351697
-0.022692542
0.24338178
-0.020891204
0.24341555
-0.019120325
0.24357784
-0.017419585
0.24383349
-0.015815648
0.24415329
-0.014322239
0.24451381
-0.012944007
0.24489674
-0.011680238
0.24528819
-0.010527122
0.2456778
-0.0094789579
0.24605812
-0.0085289087
0.24642394
-0.0076695575
0.24677179
-0.0068933271
0.24709952
-0.0061927752
0.24740599
-0.0055607858
0.24769079
-0.0049906855
0.24795401
-0.0044763034
0.24819613
-0.0040119933
0.2484179
-0.0035926297
0.24862021
-0.0032135873
0.24880407
-0.0028707092
0.24897053
-0.0025602705
0.24912065
-0.0022789364
0.24925551
-0.0020237205
0.24937612
-0.0017919415
0.24948349
-0.0015811794
0.24957855
-0.0013892316
0.24966217
-0.0012140698
0.24973517
-0.001053783
0.24979828
-0.00090656778
0.24985215
-0.00077051277
0.24989732
-0.00064415552
0.2499342
-0.00052374159
0.2499635
-0.00041737763
-0.00025186277
0.30307331
-0.019608896
-0.30671665
0.29918876
-0.022043374
0.29513882
-0.024177561
0.29102326
-0.026036583