/*--------------------------------*- C++ -*----------------------------------*\
  =========                 |
  \\      /  F ield         | OpenFOAM: The Open Source CFD Toolbox
   \\    /   O peration     | Website:  https://openfoam.org
    \\  /    A nd           | Version:  6
     \\/     M anipulation  |
\*---------------------------------------------------------------------------*/
FoamFile
{
    version     2.0;
    format      ascii;
    class       volVectorField;
    location    "3";
    object      UMean;
}
// * * * * * * * * * * * * * * * * * * * * * * * * * * * * * * * * * * * * * //

dimensions      [0 1 -1 0 0 0 0];

internalField   nonuniform List<vector> 
9200
(
(0.041131712 -0.031474665 -1.2042127e-19)
(0.13815298 -0.1001152 1.542227e-19)
(0.24302148 -0.15762561 -8.8225013e-20)
(0.35298738 -0.20502052 -2.0839619e-19)
(0.46202385 -0.24445828 4.7215629e-20)
(0.56679661 -0.27606229 1.0724335e-19)
(0.66479832 -0.30009893 -3.3237951e-20)
(0.75403777 -0.31712735 2.5338424e-20)
(0.83311976 -0.32779198 8.0025576e-20)
(0.90122996 -0.33277255 6.6079604e-21)
(0.95808676 -0.33278076 -9.4723241e-20)
(1.0038922 -0.32854572 8.2779823e-20)
(1.0392686 -0.32079414 -1.5294028e-19)
(1.0651751 -0.3102307 -8.1282221e-20)
(1.0828096 -0.29751932 2.2236669e-20)
(1.093503 -0.28326848 -8.9494104e-20)
(1.0986279 -0.26801155 8.4626865e-20)
(1.0995709 -0.25211626 6.6351114e-20)
(1.097489 -0.23590852 -4.1592443e-21)
(1.0919501 -0.22161169 -4.8197051e-21)
(0.053654124 -0.035424473 -3.5260414e-20)
(0.17231332 -0.10805974 1.2549362e-19)
(0.29589116 -0.16581131 3.8088859e-20)
(0.42110549 -0.21119693 -3.6225019e-19)
(0.54205838 -0.24716525 -3.0546961e-20)
(0.65540498 -0.27439704 2.6525069e-19)
(0.75870213 -0.29363397 -1.2123676e-19)
(0.8501579 -0.30581902 -3.4023825e-20)
(0.92869523 -0.31189769 1.3625004e-19)
(0.9939176 -0.31278009 -1.7196869e-19)
(1.0460357 -0.30934267 -1.2656386e-19)
(1.0857821 -0.30241658 2.901012e-19)
(1.1143058 -0.29277238 1.443298e-19)
(1.1330486 -0.28110778 -2.4567702e-19)
(1.1436133 -0.26803933 4.8526032e-20)
(1.1476385 -0.25410108 -1.1832057e-19)
(1.1466979 -0.23973743 -5.2416854e-20)
(1.1422766 -0.22524469 1.9361885e-19)
(1.1355747 -0.21101737 9.6431738e-20)
(1.1262643 -0.19916737 -1.0442391e-19)
(0.067776621 -0.038160436 5.5873949e-20)
(0.20985697 -0.11236997 -1.4171396e-20)
(0.35272935 -0.16823477 1.8821638e-20)
(0.49287352 -0.20982146 2.8473218e-21)
(0.62471901 -0.24087461 -7.062113e-20)
(0.74508518 -0.26267181 7.9292677e-20)
(0.85177877 -0.27644823 2.4102574e-20)
(0.94339641 -0.283524 -1.7388031e-19)
(1.0193624 -0.28511746 2.1018895e-19)
(1.0798631 -0.2823209 6.880526e-20)
(1.1257336 -0.27611079 -2.1119895e-19)
(1.1583244 -0.26734507 -7.166609e-20)
(1.1793467 -0.25675964 2.6901235e-20)
(1.1907103 -0.24496999 7.6425523e-20)
(1.194367 -0.23247814 -3.1652798e-20)
(1.1921769 -0.21968545 8.0260612e-20)
(1.1858144 -0.20689806 -6.1451744e-20)
(1.1767455 -0.19428786 -1.6385001e-19)
(1.1660859 -0.18212407 -2.4165836e-20)
(1.1536922 -0.17209452 9.6549588e-20)
(0.083326279 -0.039361743 3.0252414e-20)
(0.25017704 -0.11232479 1.0381426e-19)
(0.41250569 -0.16402684 4.9784012e-20)
(0.56686235 -0.20006656 6.2294402e-20)
(0.70821944 -0.22495191 7.0436699e-20)
(0.83377015 -0.24055736 -1.5790466e-19)
(0.94179029 -0.24858768 -9.0692025e-20)
(1.0314781 -0.25069128 0)
(1.1029518 -0.24829069 9.6699321e-20)
(1.1571364 -0.24257658 -4.603151e-20)
(1.1955963 -0.23453354 -3.337326e-19)
(1.2203459 -0.22495498 -4.6850706e-20)
(1.2336479 -0.2144596 2.0614485e-19)
(1.2378219 -0.20351345 7.1444299e-21)
(1.2350797 -0.19245556 -4.2720338e-21)
(1.2274027 -0.18152583 5.5041842e-20)
(1.2164718 -0.17088148 -5.5147337e-21)
(1.2036659 -0.16057068 -1.4068825e-19)
(1.1899837 -0.15073695 -9.8837351e-20)
(1.1754206 -0.14271476 1.0659435e-19)
(0.10001086 -0.038712506 3.9799391e-21)
(0.29238148 -0.1072575 2.3132727e-20)
(0.47378437 -0.15242612 1.1917095e-19)
(0.64116924 -0.1812602 6.9517286e-20)
(0.79029303 -0.19895839 -1.2159779e-19)
(0.918967 -0.20794721 1.9028298e-20)
(1.0261802 -0.21032873 8.892238e-21)
(1.1119539 -0.20798422 1.2907868e-19)
(1.1772802 -0.20243063 1.9554141e-20)
(1.2239458 -0.19484154 -5.5271269e-20)
(1.2543016 -0.18609852 2.0849103e-19)
(1.2710168 -0.17683339 -1.7099885e-19)
(1.2768428 -0.16747191 -3.7620552e-19)
(1.27441 -0.15827979 -1.4770592e-20)
(1.2660764 -0.14940684 1.9888526e-19)
(1.2538361 -0.14092679 0)
(1.2392867 -0.1328602 2.8044446e-20)
(1.2236605 -0.1251562 -2.8253385e-20)
(1.2078085 -0.11787075 -2.1480252e-20)
(1.191808 -0.11205305 3.2496544e-20)
(0.11744571 -0.035941016 1.661933e-20)
(0.33538392 -0.0966562 7.9825625e-21)
(0.53489963 -0.13293954 -1.8826112e-20)
(0.71368295 -0.15310026 4.7936295e-20)
(0.8685422 -0.16290341 -9.4819395e-20)
(0.99817542 -0.16522643 -5.156827e-20)
(1.1025355 -0.16244115 6.5531904e-20)
(1.1826723 -0.15651868 3.3652672e-21)
(1.2405949 -0.14892483 -1.0016401e-19)
(1.2790221 -0.14067967 2.0894955e-19)
(1.3010871 -0.13244551 -7.453786e-21)
(1.3100486 -0.12460458 -2.2241788e-19)
(1.3090392 -0.11733322 0)
(1.3008749 -0.11067048 8.8514108e-20)
(1.2879398 -0.10457575 9.7215803e-21)
(1.2721401 -0.098973524 -1.5548899e-19)
(1.2549192 -0.093775666 -3.9277257e-20)
(1.2373238 -0.088865874 -2.1264083e-20)
(1.2200414 -0.084247407 -2.641411e-20)
(1.2031808 -0.080725275 6.8817976e-20)
(0.13517243 -0.030847146 -1.1869203e-20)
(0.37795566 -0.080218811 -6.0127259e-20)
(0.59404509 -0.10540421 3.4703954e-20)
(0.78220996 -0.11570719 2.8603352e-20)
(0.94059231 -0.11727161 -4.3640984e-20)
(1.0690511 -0.1132607 -2.0061133e-19)
(1.168736 -0.10613347 -9.7049202e-20)
(1.2418911 -0.097767594 2.2411439e-19)
(1.2916294 -0.089409319 3.7856946e-20)
(1.3216065 -0.081783957 -6.1652622e-20)
(1.335673 -0.075229253 2.9375476e-20)
(1.337563 -0.069811815 -1.1225379e-20)
(1.330654 -0.065429319 0)
(1.3178153 -0.061894612 5.97907e-20)
(1.3013461 -0.058997649 -1.6254004e-19)
(1.2829858 -0.056545781 -6.2315767e-20)
(1.2639782 -0.054377941 1.4846832e-19)
(1.2451693 -0.052346864 -1.4389233e-20)
(1.227086 -0.050430654 4.3654531e-21)
(1.2098373 -0.049219857 4.8883596e-20)
(0.15267329 -0.023323262 -3.0298901e-20)
(0.41877023 -0.057894859 -1.5905108e-19)
(0.64934959 -0.070028032 -5.0123347e-20)
(0.84457913 -0.069643862 1.7809034e-19)
(1.0042139 -0.063007709 1.5269189e-19)
(1.129527 -0.053341022 -1.4511023e-19)
(1.2230538 -0.042962296 2.3948483e-20)
(1.2883381 -0.033447044 2.4244526e-19)
(1.3296136 -0.02564787 1.2331425e-19)
(1.3514112 -0.01986577 -1.3850444e-19)
(1.35818 -0.016032606 -2.1925158e-19)
(1.3539828 -0.013863018 -7.098831e-21)
(1.3422964 -0.012975703 8.9754685e-20)
(1.3259202 -0.012981283 -1.1518435e-20)
(1.3069799 -0.013536851 -2.079508e-20)
(1.2869969 -0.014372277 3.0044628e-20)
(1.2669962 -0.015290202 7.662806e-20)
(1.2476287 -0.016142756 -7.0725726e-20)
(1.2292777 -0.016902612 -1.6726334e-19)
(1.2120336 -0.017970507 4.3382253e-20)
(0.16934259 -0.013371191 -6.5398323e-20)
(0.45636218 -0.029918277 -2.1544821e-19)
(0.69883219 -0.027400956 2.282056e-19)
(0.89860398 -0.015888829 2.2335751e-19)
(1.0572927 -0.0014503068 1.2446563e-19)
(1.1777853 0.012912861 2.2223001e-20)
(1.2641196 0.025280001 -2.4435937e-19)
(1.321164 0.034595383 0)
(1.3542121 0.040563835 -1.7595507e-19)
(1.3685455 0.043413593 -3.8184735e-20)
(1.3690534 0.043668253 1.1851765e-19)
(1.3599667 0.041969952 2.2329592e-20)
(1.3447237 0.038953613 -8.8592491e-20)
(1.3259542 0.03516989 -8.9562081e-20)
(1.3055514 0.031049892 4.5965088e-20)
(1.284796 0.026900746 8.0850679e-20)
(1.2644976 0.022923314 -9.520993e-20)
(1.2451329 0.019242073 -1.7491675e-19)
(1.2269655 0.015877145 -2.5473508e-21)
(1.210057 0.01259647 4.1307066e-20)
(0.18445651 -0.0010904013 -2.2554494e-20)
(0.48913552 0.0032414233 1.5953937e-19)
(0.74044276 0.021571758 7.7314618e-20)
(0.94215526 0.044223188 -2.3124433e-19)
(1.0979111 0.065710877 1.0589801e-19)
(1.2123191 0.083575913 7.9202694e-20)
(1.2909441 0.096571429 1.312624e-20)
(1.339914 0.10437219 -2.1570719e-19)
(1.3654479 0.10737724 -5.4972709e-21)
(1.3734045 0.10641111 1.0915339e-19)
(1.3689334 0.10246334 1.2711676e-20)
(1.3562772 0.096505558 -3.694134e-20)
(1.338721 0.089379645 -1.3902785e-19)
(1.3186561 0.081746191 -1.0276277e-20)
(1.2977156 0.074078417 7.3936414e-20)
(1.2769416 0.066684368 6.0800839e-20)
(1.2569486 0.059742667 3.0341648e-20)
(1.2380685 0.053338082 -8.7178891e-20)
(1.2204706 0.047477241 1.5724648e-20)
(1.2041798 0.042077734 1.2295334e-19)
(-0.0011156011 5.3603153e-05 1.811193e-20)
(0.0028972376 -0.002269663 -1.3709747e-20)
(0.006908165 -0.0055883028 5.8677205e-20)
(0.019292065 -0.0092728043 8.6809359e-20)
(0.037354874 -0.013124558 -5.7524227e-20)
(0.060571015 -0.01693156 5.7486811e-20)
(0.088754553 -0.020532362 -8.5207464e-20)
(0.12136647 -0.023826537 -7.2015327e-20)
(0.15772342 -0.026749846 9.5177634e-20)
(0.19713564 -0.029258843 -7.028929e-20)
(0.23892189 -0.031325256 -1.2239364e-21)
(0.28241193 -0.032933103 2.0335222e-20)
(0.32695724 -0.034076836 -2.3173004e-21)
(0.37194183 -0.034760553 9.0513562e-20)
(0.41679109 -0.034997798 -3.52375e-22)
(0.460979 -0.034811429 -1.1991291e-19)
(0.50403455 -0.034233388 2.085135e-20)
(0.54555301 -0.033304937 4.8910491e-20)
(0.58522152 -0.032078357 -7.60066e-20)
(0.62272224 -0.030598335 -4.0327486e-20)
(-0.0009243809 -3.0234898e-05 -1.5116112e-20)
(0.0043043057 -0.0071877755 -8.1544223e-20)
(0.010307362 -0.017169105 -1.079711e-20)
(0.0249883 -0.028158161 1.0885061e-19)
(0.045456454 -0.039586347 1.1849764e-19)
(0.071080464 -0.050835129 1.2387169e-20)
(0.10157895 -0.061436014 -2.9706802e-19)
(0.13633888 -0.071098599 -1.454945e-20)
(0.1746254 -0.079637237 1.608562e-19)
(0.21571057 -0.08692731 -3.5408777e-20)
(0.2588838 -0.09288926 -1.3172471e-19)
(0.30345349 -0.097480136 2.5645858e-20)
(0.3487577 -0.10068833 9.7744261e-20)
(0.39417556 -0.10253128 4.0392487e-20)
(0.43913595 -0.10305472 7.7590417e-20)
(0.4831252 -0.10233215 -5.7160422e-20)
(0.525692 -0.10046413 -5.1820899e-20)
(0.56645393 -0.097578999 4.8227025e-20)
(0.60515 -0.093834976 4.4662008e-20)
(0.64164538 -0.089367007 1.9151709e-20)
(-0.00042483712 -0.00065911259 -1.3080594e-20)
(0.0073236198 -0.013129507 5.595114e-20)
(0.017247968 -0.029794427 -1.6815212e-20)
(0.036371024 -0.047857058 -8.1774286e-20)
(0.061453995 -0.066467107 5.001966e-20)
(0.091654789 -0.084654807 6.7667261e-20)
(0.12651112 -0.10168848 -4.1607582e-20)
(0.1652748 -0.11711775 -1.3510825e-19)
(0.20711636 -0.13065616 4.7424774e-20)
(0.25123821 -0.1421144 8.6263312e-20)
(0.29687795 -0.15137578 3.5199693e-20)
(0.34330907 -0.15838344 8.8960868e-20)
(0.38985175 -0.16313231 7.7116438e-21)
(0.43588378 -0.16566522 -1.2569666e-19)
(0.48084977 -0.16607131 9.7347699e-21)
(0.52426922 -0.16448488 -5.3792963e-20)
(0.56573912 -0.16108413 -6.8953756e-20)
(0.60493147 -0.15609285 1.0557464e-19)
(0.64168688 -0.14977541 5.1377456e-20)
(0.67620869 -0.14233394 5.8412913e-21)
(0.0005741719 -0.002095903 -2.5609525e-20)
(0.012316645 -0.020550724 -1.7254373e-19)
(0.028053524 -0.043883286 4.8068958e-21)
(0.053617986 -0.068618437 3.2573368e-20)
(0.085312972 -0.093764334 4.9617395e-21)
(0.12199834 -0.11808666 8.678625e-20)
(0.16295965 -0.14065686 9.0059377e-20)
(0.20726344 -0.16091126 -1.8583272e-20)
(0.25395024 -0.1784961 -8.5435933e-20)
(0.30212843 -0.19318403 -1.8190418e-19)
(0.35097014 -0.20484453 1.4122945e-21)
(0.39970999 -0.21342803 2.0226066e-19)
(0.4476553 -0.21895557 -7.4419606e-20)
(0.49419682 -0.22151359 -4.7880705e-20)
(0.53881786 -0.22125119 -5.4564503e-21)
(0.58110213 -0.21837749 1.0055826e-19)
(0.6207329 -0.2131596 -5.0414634e-20)
(0.65747751 -0.20592678 -1.1785039e-19)
(0.69132323 -0.19705028 7.9209139e-20)
(0.722927 -0.18675698 5.7639593e-20)
(0.0023187623 -0.0044849478 1.4800801e-20)
(0.019736562 -0.029667602 -4.1946592e-20)
(0.043133203 -0.059578619 -2.6192241e-19)
(0.076954545 -0.090428477 -8.4757615e-20)
(0.11698703 -0.12125183 2.3307727e-20)
(0.16173027 -0.15065949 5.9669525e-20)
(0.21016569 -0.17761008 -5.7577679e-20)
(0.26113897 -0.20148679 -8.3953846e-20)
(0.31353801 -0.22191366 1.465976e-19)
(0.36636498 -0.23866177 3.1307124e-20)
(0.41872447 -0.25161808 -1.4258372e-19)
(0.46982042 -0.26076808 5.0821628e-20)
(0.51896544 -0.26618395 0)
(0.56559071 -0.26801781 4.766167e-20)
(0.60925369 -0.26649728 -3.4066052e-20)
(0.64964409 -0.26192026 -4.8493499e-20)
(0.68657785 -0.25465165 1.1528047e-20)
(0.71996551 -0.24513156 -1.0833305e-20)
(0.74998205 -0.23383405 7.2714627e-20)
(0.7778062 -0.22095233 -3.5878883e-20)
(0.0050743291 -0.007832264 -1.4609517e-20)
(0.030073477 -0.040417149 1.242104e-19)
(0.062930461 -0.076700983 -8.6070818e-20)
(0.10662122 -0.11296058 -1.5858458e-19)
(0.15641168 -0.14843183 -1.0878918e-19)
(0.21040877 -0.18169303 -9.5458317e-20)
(0.26726117 -0.21168571 -1.9898921e-20)
(0.3255778 -0.2378109 4.5558365e-20)
(0.384087 -0.25972421 1.2368244e-19)
(0.44168735 -0.27723906 4.121369e-20)
(0.49742893 -0.29029735 -3.6261599e-20)
(0.55050869 -0.29895195 -4.400656e-21)
(0.6002782 -0.30335368 -1.6987083e-19)
(0.64625109 -0.30374284 -5.0817447e-20)
(0.68810714 -0.30044201 7.9007966e-20)
(0.72569302 -0.29384722 -7.5656594e-20)
(0.75900849 -0.2844226 -2.6240161e-20)
(0.78815635 -0.27271511 6.3043411e-20)
(0.81353466 -0.25929009 9.2154063e-20)
(0.83686643 -0.24424006 8.643065e-21)
(0.0090927102 -0.012013854 3.1471696e-20)
(0.043791654 -0.052465511 2.9651381e-20)
(0.087860198 -0.094749248 2.0765486e-19)
(0.1428261 -0.13556874 1.3172282e-19)
(0.20348077 -0.17452403 1.2349618e-21)
(0.26753615 -0.21028629 -2.4807558e-19)
(0.33330608 -0.24188137 -1.23812e-19)
(0.39916828 -0.26880414 6.4263661e-20)
(0.46370365 -0.29080084 7.9756437e-20)
(0.52572815 -0.30777578 -6.9353845e-20)
(0.5842689 -0.31976631 -2.2395699e-19)
(0.63855793 -0.32692617 1.4287845e-19)
(0.68803688 -0.32951131 8.3247038e-20)
(0.7323593 -0.32786899 -1.1198764e-19)
(0.77138701 -0.32242685 4.6760642e-20)
(0.80518084 -0.31367945 7.8337787e-20)
(0.83397492 -0.30218048 2.7440191e-20)
(0.85810578 -0.28856812 -4.3493421e-20)
(0.8782151 -0.27348057 -1.7657647e-20)
(0.89654955 -0.25683893 4.4711914e-20)
(0.014586162 -0.016801357 3.467005e-20)
(0.061272782 -0.065253087 -1.2212898e-19)
(0.11824559 -0.11294765 -1.2373421e-20)
(0.18568912 -0.15733017 1.6194214e-19)
(0.25800469 -0.1985034 2.0481581e-19)
(0.33253647 -0.23535165 9.8162009e-20)
(0.40728825 -0.26708453 -2.1971287e-20)
(0.48043531 -0.29336671 -6.7647822e-20)
(0.55044524 -0.31409522 -2.8745916e-20)
(0.61609431 -0.3293144 1.7163162e-19)
(0.67644003 -0.33919669 -2.3376613e-20)
(0.73081221 -0.34402705 -8.0260364e-20)
(0.77881152 -0.34418722 -8.326823e-20)
(0.82030207 -0.34014163 -1.9490572e-19)
(0.85539439 -0.33242218 8.2337113e-20)
(0.88442074 -0.32161005 -4.5669164e-20)
(0.90789267 -0.30832739 8.2391353e-20)
(0.92640992 -0.29327963 6.175451e-20)
(0.94086287 -0.27715259 -1.6566097e-19)
(0.95395613 -0.25964808 1.1202568e-20)
(0.021694959 -0.02187912 5.426861e-20)
(0.082737349 -0.07802669 -1.0755238e-19)
(0.15421066 -0.13026754 -1.4522538e-19)
(0.23511464 -0.17704534 -1.0726612e-19)
(0.31957255 -0.21907626 -9.3873379e-21)
(0.40461609 -0.25556826 7.733983e-20)
(0.48799084 -0.28600802 -2.1700751e-20)
(0.56772424 -0.31030198 8.7171136e-20)
(0.64223015 -0.32855489 4.5301854e-20)
(0.71031336 -0.34099595 -5.4854575e-20)
(0.77113901 -0.34796552 4.0758877e-20)
(0.82421785 -0.34990002 -1.0942905e-19)
(0.8693932 -0.34731413 4.2930793e-20)
(0.90681652 -0.34078331 6.8495908e-20)
(0.93690953 -0.33092455 -1.85716e-20)
(0.96031596 -0.31837571 1.2261951e-20)
(0.97783757 -0.30379132 -1.361457e-20)
(0.99033557 -0.28789318 6.4878432e-20)
(0.99893335 -0.27133099 -2.2169273e-21)
(1.0066609 -0.25370424 -4.1148657e-20)
(0.030470595 -0.026855181 7.3562736e-20)
(0.10820642 -0.089852403 2.1381224e-19)
(0.19560768 -0.14542181 -1.4388889e-19)
(0.29068582 -0.19321484 -3.8764489e-20)
(0.38742303 -0.23464659 9.1356607e-20)
(0.48262062 -0.269348 8.9680302e-21)
(0.5738464 -0.29716439 -1.2883731e-19)
(0.65906237 -0.31830484 3.6313984e-20)
(0.73671599 -0.33312729 2.4204057e-20)
(0.80573579 -0.3420768 -1.1440158e-19)
(0.86549578 -0.34567777 3.6358173e-21)
(0.91578893 -0.34451897 -1.641954e-19)
(0.95679453 -0.33923392 -1.5171531e-19)
(0.9890284 -0.33048086 2.6097579e-19)
(1.0132764 -0.31892159 2.0326739e-20)
(1.0305144 -0.30520249 -4.7175296e-20)
(1.0418161 -0.28995148 6.0250923e-20)
(1.0482584 -0.27377999 -2.1798249e-21)
(1.0510108 -0.25711668 3.5877845e-20)
(1.0525705 -0.24003752 -5.9592446e-20)
(0.66342394 -0.027576027 7.3975208e-20)
(0.7050795 -0.023714891 1.327347e-20)
(0.74213505 -0.020204451 -2.5600512e-20)
(0.77481414 -0.017032273 1.1569333e-20)
(0.80335032 -0.014249431 0)
(0.82809962 -0.011872703 0)
(0.84950761 -0.0098728757 -9.55044e-21)
(0.86801083 -0.0082065593 -6.2865995e-21)
(0.88400783 -0.0068289647 7.3220536e-21)
(0.89785891 -0.0056949399 6.6947562e-21)
(0.90988076 -0.0047616774 3.6705725e-22)
(0.92034245 -0.0039919701 -3.7500057e-21)
(0.92946927 -0.0033552434 3.0230597e-21)
(0.93745047 -0.0028269618 6.8364861e-21)
(0.94444605 -0.0023875631 -1.8616938e-21)
(0.95059217 -0.0020213543 -3.9895635e-21)
(0.95600508 -0.0017155554 -1.7376554e-21)
(0.96078402 -0.001459624 -1.9031734e-21)
(0.96501356 -0.0012448403 3.4170954e-22)
(0.96876554 -0.0010640307 5.0771469e-22)
(0.97210103 -0.00091133368 9.998874e-22)
(0.97507202 -0.00078197616 2.9234471e-21)
(0.97772299 -0.00067206935 2.7232057e-22)
(0.98009208 -0.00057843374 -1.5743228e-21)
(0.98221216 -0.00049845773 1.0951131e-22)
(0.98411166 -0.0004299872 -2.7827489e-22)
(0.98581522 -0.00037123785 6.1733147e-22)
(0.9873443 -0.00032072631 6.0067043e-22)
(0.98871763 -0.0002772147 -5.7133156e-22)
(0.98995159 -0.00023966669 -9.6534899e-23)
(0.99106059 -0.00020721188 1.7359531e-22)
(0.99205727 -0.00017911719 -2.04649e-22)
(0.9929528 -0.0001547633 -1.764473e-22)
(0.99375707 -0.00013362575 -4.8310997e-23)
(0.99447882 -0.00011525904 -8.9111724e-23)
(0.99512583 -9.9283883e-05 -1.6632768e-22)
(0.99570502 -8.5376233e-05 1.9720406e-22)
(0.99622255 -7.3258658e-05 2.4283273e-22)
(0.99668393 -6.2692597e-05 4.9980444e-23)
(0.99709408 -5.3472375e-05 -6.6972941e-23)
(0.99745737 -4.5419677e-05 5.0218721e-23)
(0.99777771 -3.8379173e-05 -5.9060958e-23)
(0.99805857 -3.2214598e-05 8.7925795e-23)
(0.99830297 -2.6805281e-05 1.0530253e-22)
(0.99851352 -2.2043472e-05 -4.0696825e-23)
(0.99869256 -1.7830376e-05 -4.3182629e-23)
(0.99884134 -1.4077569e-05 -1.0131246e-23)
(0.99896314 -1.0686254e-05 -4.3823071e-24)
(0.9990513 -7.6655439e-06 1.2458894e-24)
(0.99913021 -3.9164389e-06 -8.8067037e-24)
(0.67972431 -0.080608216 -2.1691388e-20)
(0.71765858 -0.06951599 -6.2772719e-20)
(0.75183592 -0.059374824 -2.8168778e-20)
(0.78227413 -0.050173237 2.652263e-20)
(0.80901554 -0.042077709 8.4912779e-21)
(0.83236226 -0.035140719 -1.0126106e-20)
(0.85270703 -0.029282961 3.0915247e-21)
(0.87041222 -0.024385999 1.0115524e-20)
(0.88581112 -0.020325434 -3.9480851e-22)
(0.89921544 -0.016973647 -2.9829383e-21)
(0.91090432 -0.01420853 -4.6258299e-21)
(0.92111738 -0.011923249 -3.1631742e-21)
(0.93005793 -0.010029453 6.6075747e-21)
(0.93789913 -0.0084558537 3.0485645e-21)
(0.94478921 -0.0071453656 -6.5492875e-21)
(0.95085558 -0.0060520149 -2.3615551e-21)
(0.95620799 -0.005138227 1.3669909e-21)
(0.96094089 -0.004372906 3.5669571e-21)
(0.96513525 -0.0037302583 2.814673e-21)
(0.96886024 -0.0031890113 -2.6182602e-21)
(0.97217496 -0.002731747 -9.478535e-22)
(0.97512992 -0.0023442575 2.1899505e-22)
(0.97776847 -0.0020149515 -2.9181834e-22)
(0.98012792 -0.0017343416 4.3563573e-22)
(0.98224052 -0.0014946288 -1.9880537e-23)
(0.98413418 -0.0012893747 -5.145333e-23)
(0.9858332 -0.0011132436 -2.5853517e-22)
(0.98735873 -0.00096179667 2.2557509e-22)
(0.98872929 -0.00083132888 2.6645802e-22)
(0.98996109 -0.00071873695 1.702879e-22)
(0.99106838 -0.00062141387 1.5820811e-22)
(0.99206373 -0.00053716305 -1.3851699e-22)
(0.99295822 -0.0004641287 -8.3227581e-23)
(0.99376165 -0.00040073871 -2.5997775e-22)
(0.99448275 -0.00034565778 2.8417995e-22)
(0.99512924 -0.00029774861 1.9938921e-22)
(0.99570801 -0.00025603985 -4.959123e-23)
(0.9962252 -0.00021969941 -1.7303172e-22)
(0.9966863 -0.00018801212 2.856033e-23)
(0.99709621 -0.00016036099 5.2062768e-23)
(0.99745931 -0.00013621136 -1.5929956e-22)
(0.99777949 -0.00011509735 1.8704129e-23)
(0.9980602 -9.6610325e-05 2.4245788e-23)
(0.99830448 -8.0388319e-05 3.1135713e-24)
(0.99851492 -6.6108172e-05 -2.3156516e-23)
(0.99869387 -5.347368e-05 -5.0530793e-23)
(0.99884256 -4.2219403e-05 2.5138561e-23)
(0.99896429 -3.2048857e-05 2.5023624e-23)
(0.9990524 -2.2990234e-05 -5.8623111e-23)
(0.99913123 -1.1745564e-05 -5.0392034e-23)
(0.70950658 -0.12855622 1.6570195e-20)
(0.74074067 -0.1114431 7.9661109e-21)
(0.7696994 -0.095628067 -1.9909097e-20)
(0.79605265 -0.08116619 -3.5685425e-21)
(0.81950769 -0.068372883 1.1571106e-20)
(0.84027317 -0.057340637 -8.2067389e-21)
(0.85865029 -0.047961629 -1.5540497e-20)
(0.87487151 -0.04007275 7.1356511e-21)
(0.88915446 -0.033495309 7.969896e-21)
(0.90172331 -0.028038898 -4.7434517e-21)
(0.91278875 -0.023517829 3.9073795e-22)
(0.92253641 -0.019767435 3.2382975e-21)
(0.93112881 -0.016649795 -5.691121e-21)
(0.93870903 -0.014052457 6.4327345e-22)
(0.94540315 -0.011884642 2.6971635e-21)
(0.95132207 -0.010072722 5.6292458e-22)
(0.95656329 -0.0085561323 5.0120039e-22)
(0.96121212 -0.007284448 -2.6283869e-21)
(0.96534275 -0.0062156173 7.119442e-22)
(0.9690193 -0.0053147951 3.0696415e-21)
(0.9722971 -0.0045533379 -1.4247978e-21)
(0.97522388 -0.0039078092 -9.5357081e-22)
(0.97784089 -0.0033590407 6.3218087e-22)
(0.98018388 -0.0028913154 -5.8299867e-22)
(0.98228387 -0.002491694 6.3121264e-22)
(0.98416789 -0.0021494814 3.4326637e-22)
(0.98585954 -0.001855805 8.8872696e-23)
(0.98737945 -0.0016032784 -3.6861526e-22)
(0.98874572 -0.0013857317 4.3974758e-22)
(0.98997425 -0.0011979949 1.5376915e-22)
(0.99107906 -0.0010357226 -2.7737088e-22)
(0.99207253 -0.00089525287 1.8544716e-22)
(0.99296559 -0.00077349074 7.4613959e-23)
(0.99376794 -0.00066781406 -2.0753384e-22)
(0.99448821 -0.00057599535 3.048767e-23)
(0.99513407 -0.0004961373 -2.0202874e-22)
(0.99571235 -0.00042661937 5.6824938e-23)
(0.99622916 -0.00036605336 2.0961472e-22)
(0.99668996 -0.0003132461 -1.2473916e-22)
(0.99709962 -0.00026716831 3.1115264e-24)
(0.99746251 -0.00022692806 -3.185488e-23)
(0.99778251 -0.00019174821 -1.3244588e-22)
(0.99806306 -0.00016094714 4.1656011e-23)
(0.99830719 -0.00013392118 5.6245879e-23)
(0.9985175 -0.00011013131 -4.1676352e-23)
(0.99869633 -8.9083462e-05 -1.4715298e-23)
(0.99884491 -7.0335189e-05 -5.4427191e-23)
(0.99896653 -5.3391009e-05 -9.5668843e-24)
(0.99905455 -3.8301191e-05 5.2835189e-23)
(0.99913327 -1.9564188e-05 1.1783973e-23)
(0.74983032 -0.16904195 4.9550484e-21)
(0.7722821 -0.14766475 -8.6893861e-21)
(0.79431578 -0.12757086 2.3237331e-21)
(0.81518829 -0.10897252 -1.1558391e-20)
(0.83419639 -0.092382655 -1.4340741e-21)
(0.85143437 -0.077941635 7.6247584e-21)
(0.86709134 -0.065543047 -8.080147e-21)
(0.88123902 -0.055020586 -7.1666812e-22)
(0.89394865 -0.046176816 5.7220468e-21)
(0.90533038 -0.038787089 1.8185873e-21)
(0.915504 -0.032625232 -2.4945114e-21)
(0.92458244 -0.0274862 -1.1645237e-21)
(0.93267231 -0.023194816 -2.3731913e-21)
(0.93987485 -0.019605971 -2.3480151e-21)
(0.94628485 -0.016601069 1.6819913e-21)
(0.95198983 -0.014082895 9.5755236e-22)
(0.95706973 -0.011970679 2.7960121e-22)
(0.96159673 -0.010196572 -1.3488803e-21)
(0.96563519 -0.008703524 -1.1488279e-21)
(0.96924189 -0.0074439238 6.6847194e-22)
(0.97246668 -0.0063784054 7.6379033e-22)
(0.97535319 -0.0054746126 -1.0793939e-22)
(0.9779396 -0.0047059849 4.4216794e-22)
(0.98025932 -0.0040506849 8.4735637e-23)
(0.98234165 -0.0034906968 -7.833667e-22)
(0.98421228 -0.0030111031 -1.169358e-21)
(0.98589379 -0.0025995104 1.4742756e-22)
(0.98740605 -0.0022455895 4.3530149e-22)
(0.98876657 -0.0019407048 -9.2949438e-22)
(0.98999079 -0.001677615 1.3205972e-22)
(0.99109238 -0.0014502309 1.2655639e-22)
(0.99208345 -0.0012534182 -1.9445908e-22)
(0.99297473 -0.0010828369 1.6986305e-22)
(0.99377577 -0.00093480883 1.9465218e-23)
(0.99449507 -0.00080620916 -2.957268e-22)
(0.99514021 -0.00069437603 1.8024934e-22)
(0.99571795 -0.00059703594 1.356463e-22)
(0.99623435 -0.00051224135 -1.3282549e-22)
(0.99669484 -0.00043831852 -3.0349234e-24)
(0.99710425 -0.00037382374 -2.6911595e-23)
(0.99746692 -0.0003175061 -2.3828007e-22)
(0.99778673 -0.00026827585 3.9599611e-23)
(0.99806711 -0.0002251773 2.0217987e-22)
(0.99831109 -0.00018736414 -4.8043221e-23)
(0.99852125 -0.00015408082 1.362569e-23)
(0.99869993 -0.0001246346 -1.4821843e-23)
(0.99884837 -9.8406035e-05 -3.9937504e-23)
(0.99896986 -7.4698592e-05 8.6495523e-24)
(0.99905777 -5.3589205e-05 3.9447838e-23)
(0.99913632 -2.7365675e-05 -2.642244e-23)
(0.79733631 -0.20060634 -5.4086192e-20)
(0.80992876 -0.17700245 5.9038233e-20)
(0.8240456 -0.15427099 9.5523231e-21)
(0.83855007 -0.13287096 -1.5976861e-20)
(0.85232973 -0.11356101 -4.6980239e-21)
(0.86536348 -0.09654043 -6.0820558e-22)
(0.87772712 -0.081737682 -2.7679654e-21)
(0.88932769 -0.069027283 -2.4646106e-21)
(0.90008059 -0.058232291 -1.9450588e-21)
(0.90996937 -0.049127096 -5.5085964e-21)
(0.91901029 -0.041472482 8.041612e-21)
(0.92723194 -0.035043963 2.7539555e-21)
(0.93467443 -0.029644168 -6.7256125e-21)
(0.94138803 -0.025105954 4.4323266e-21)
(0.94742885 -0.021290391 3.8288737e-21)
(0.95285506 -0.018081927 -9.8542902e-22)
(0.95772441 -0.015383261 -1.7312147e-21)
(0.96209232 -0.013111627 -7.8094357e-22)
(0.96601047 -0.011196653 -1.7919402e-22)
(0.96952614 -0.0095790409 -1.3948786e-22)
(0.97268201 -0.0082093721 -5.0243653e-22)
(0.97551631 -0.0070467811 0)
(0.97806319 -0.0060575658 -2.0204244e-22)
(0.98035301 -0.0052139102 1.4281247e-21)
(0.98241276 -0.0044928035 1.4737576e-21)
(0.98426638 -0.0038751492 -4.5376045e-22)
(0.98593511 -0.0033450511 -2.7254454e-22)
(0.9874378 -0.002889241 1.2270214e-22)
(0.98879119 -0.0024966127 6.4529323e-22)
(0.99001014 -0.0021578456 5.2130324e-22)
(0.99110785 -0.0018650962 -2.9319461e-22)
(0.99209607 -0.0016117477 4.9714012e-22)
(0.99298529 -0.0013922044 -5.0590987e-23)
(0.99378485 -0.0012017231 -2.0590778e-22)
(0.99450308 -0.0010362736 9.5022015e-23)
(0.99514745 -0.00089242255 1.9207316e-22)
(0.99572464 -0.0007672375 -1.1020949e-23)
(0.99624064 -0.00065820681 -1.0417201e-23)
(0.99670082 -0.00056317215 -3.9619419e-23)
(0.99710999 -0.00048027217 3.0596713e-23)
(0.99747246 -0.00040789443 -5.669744e-23)
(0.99779209 -0.0003446345 1.1460508e-22)
(0.99807231 -0.00028926098 -1.0084575e-22)
(0.99831612 -0.0002406836 -5.8715401e-23)
(0.99852612 -0.00019792923 -9.933048e-26)
(0.99870463 -0.00016010537 -9.2945964e-24)
(0.99885292 -0.00012641534 2.2064743e-23)
(0.99897425 -9.5958913e-05 3.9592024e-23)
(0.99906203 -6.8846147e-05 2.0962182e-23)
(0.99914038 -3.5143875e-05 9.2312483e-24)
(0.84868228 -0.22265227 -4.8409695e-20)
(0.85130433 -0.1988904 1.3205631e-20)
(0.85721323 -0.17523745 1.4706096e-20)
(0.86496893 -0.15246153 -9.2104428e-21)
(0.87312027 -0.13158966 1.1505146e-20)
(0.88154709 -0.11289107 6.3411278e-21)
(0.89022937 -0.096363951 -6.4888474e-21)
(0.89893137 -0.081964659 -3.6386303e-21)
(0.90742332 -0.069574988 6.7986858e-21)
(0.91556288 -0.059003139 -8.8336388e-21)
(0.92326015 -0.050026248 -6.4110854e-21)
(0.93045514 -0.042423092 6.4022019e-21)
(0.93711587 -0.035990732 2.8459723e-21)
(0.94323549 -0.03055193 -1.0968203e-21)
(0.94882572 -0.025955971 -1.3120632e-21)
(0.95391053 -0.02207509 -2.3077652e-21)
(0.95852145 -0.018799803 2.9593053e-21)
(0.96269388 -0.016035455 1.465828e-21)
(0.96646423 -0.013700366 -1.5360631e-21)
(0.96986818 -0.011724846 1.2921175e-21)
(0.97293963 -0.010050228 6.8044466e-22)
(0.97571018 -0.0086276189 -8.8617622e-22)
(0.97820897 -0.0074164611 1.5448214e-22)
(0.98046258 -0.0063831246 -1.4499724e-21)
(0.98249513 -0.0054996847 5.3551353e-22)
(0.98432838 -0.0047429033 1.3114463e-21)
(0.98598193 -0.0040933944 -3.0267674e-22)
(0.98747337 -0.0035349459 -5.0454916e-22)
(0.98881846 -0.0030539677 -9.8768564e-23)
(0.99003133 -0.002639042 4.2440929e-22)
(0.99112464 -0.0022805533 6.5939729e-22)
(0.99210971 -0.0019703849 2.2852009e-22)
(0.99299669 -0.0017016696 3.9967023e-22)
(0.99379468 -0.0014685849 -3.4830788e-24)
(0.99451182 -0.0012661829 -1.6307623e-22)
(0.99515545 -0.0010902485 9.7713561e-23)
(0.99573213 -0.00093718178 5.2103068e-23)
(0.99624778 -0.00080389998 6.2751759e-23)
(0.99670771 -0.00068775451 2.389258e-23)
(0.99711669 -0.00058646181 -1.6436927e-22)
(0.997479 -0.00049804427 3.6830108e-23)
(0.99779849 -0.00042077993 -1.4980369e-22)
(0.99807856 -0.00035315939 -6.9241336e-23)
(0.99832222 -0.00029384662 1.7945117e-22)
(0.99853206 -0.00024164947 3.1802923e-23)
(0.99871041 -0.00019547422 4.9452563e-23)
(0.99885852 -0.00015434665 -1.3737241e-23)
(0.99897967 -0.0001171592 1.948954e-23)
(0.99906731 -8.4064161e-05 -5.3717814e-24)
(0.99914543 -4.2892548e-05 -5.6860646e-23)
(0.90087581 -0.23534337 -1.7122371e-21)
(0.89422175 -0.21326125 -1.5875342e-20)
(0.89222673 -0.19029393 -5.8973908e-21)
(0.89330491 -0.1675439 5.3015448e-21)
(0.89578665 -0.14627031 7.7164934e-21)
(0.89946889 -0.12681338 6.0289962e-21)
(0.90426396 -0.1092719 9.5945706e-21)
(0.90983804 -0.093716262 6.0296948e-21)
(0.91584522 -0.080119518 5.2916441e-21)
(0.92203021 -0.06835614 -6.4163112e-21)
(0.92820358 -0.058248148 -1.1317036e-20)
(0.93421989 -0.049600466 -1.9459188e-21)
(0.93997466 -0.042222032 6.8318859e-21)
(0.94540114 -0.03593842 5.1516713e-21)
(0.95046285 -0.030596579 -2.7959041e-21)
(0.95514581 -0.02606346 1.3801907e-21)
(0.9594519 -0.022222425 -5.4476998e-22)
(0.96339353 -0.018970452 -8.6396664e-22)
(0.96698945 -0.016216924 -1.1498631e-22)
(0.97026175 -0.013883275 -5.0576098e-22)
(0.97323398 -0.01190252 1.4200288e-21)
(0.97592989 -0.010218296 4.0629477e-22)
(0.97837262 -0.0087835016 -3.3631855e-22)
(0.98058425 -0.0075588717 -8.0000294e-22)
(0.98258546 -0.0065116562 -1.0633694e-21)
(0.98439543 -0.0056145079 1.0479639e-21)
(0.98603179 -0.0048445517 9.031984e-22)
(0.98751062 -0.004182621 -8.5820667e-22)
(0.98884655 -0.0036126221 -1.6695062e-21)
(0.99005283 -0.0031210168 -2.6308267e-22)
(0.99114146 -0.0026963934 2.2674037e-22)
(0.99212326 -0.0023291129 6.1685534e-24)
(0.993008 -0.0020110175 5.0434144e-22)