/*--------------------------------*- C++ -*----------------------------------*\
  =========                 |
  \\      /  F ield         | OpenFOAM: The Open Source CFD Toolbox
   \\    /   O peration     | Website:  https://openfoam.org
    \\  /    A nd           | Version:  6
     \\/     M anipulation  |
\*---------------------------------------------------------------------------*/
FoamFile
{
    version     2.0;
    format      ascii;
    class       volScalarField;
    location    "110";
    object      pPrime2Mean;
}
// * * * * * * * * * * * * * * * * * * * * * * * * * * * * * * * * * * * * * //

dimensions      [0 4 -4 0 0 0 0];

internalField   nonuniform List<scalar> 
9200
(
0.10182724
0.084371578
0.069595135
0.059979598
0.052308276
0.045845631
0.040271503
0.035422803
0.031191014
0.027489164
0.024245159
0.021398515
0.018898112
0.016700482
0.0147685
0.013070427
0.011579406
0.010273078
0.0091352318
0.0081453485
0.082481235
0.068201022
0.056261198
0.048417955
0.042129744
0.036817816
0.032230537
0.028239688
0.024758898
0.021718445
0.01906003
0.016734269
0.014698978
0.012917872
0.011359572
0.0099968966
0.0088064689
0.0077682016
0.0068636795
0.0060667462
0.064342937
0.0531162
0.043839832
0.037665357
0.032676872
0.028443755
0.024779976
0.021590962
0.018812045
0.016390191
0.014280154
0.012442754
0.01084376
0.0094530696
0.0082441333
0.0071935605
0.0062808814
0.0054881079
0.0047973251
0.0041849515
0.047916308
0.039524547
0.032658339
0.028001522
0.024193764
0.0209391
0.018112302
0.015650279
0.013508758
0.011649991
0.010040309
0.0086492799
0.0074493025
0.0064153927
0.0055250857
0.0047583874
0.0040977027
0.0035275216
0.0030325768
0.0025950032
0.033655567
0.027792408
0.023018147
0.019686857
0.016910066
0.014509102
0.012412959
0.010586812
0.0090045114
0.0076413603
0.0064731584
0.0054763928
0.004628668
0.0039091463
0.0032989143
0.0027812078
0.0023414526
0.0019670577
0.0016463515
0.0013673795
0.021961042
0.018239075
0.015186676
0.012954291
0.011032677
0.0093401659
0.0078516563
0.0065562018
0.0054424987
0.0044959468
0.0036993117
0.0030340748
0.002481728
0.0020247975
0.001647531
0.0013362436
0.0010793593
0.00086722579
0.000691623
0.00054522533
0.013167409
0.011129067
0.0093913115
0.0080041113
0.0067411283
0.0055953592
0.0045776594
0.003695449
0.0029481824
0.0023279955
0.0018220607
0.0014150931
0.0010913844
0.00083620205
0.0006365855
0.00048164682
0.00036251722
0.00027212725
0.00020503387
0.00015703869
0.0075350432
0.006666745
0.0058150695
0.0049999025
0.0041834641
0.0034099626
0.0027149186
0.002117764
0.0016241927
0.0012296983
0.00092352693
0.00069215327
0.00052177936
0.00039983807
0.00031569059
0.0002607675
0.00022838213
0.00021346046
0.00021248274
0.00022307935
0.005242749
0.0049906427
0.0045891219
0.0040604947
0.003468865
0.0028853195
0.0023572719
0.0019090682
0.0015480087
0.0012699027
0.001064221
0.00091811749
0.00081900508
0.00075589617
0.00071986673
0.00070400199
0.0007030975
0.00071335158
0.00073227334
0.00075825442
0.0063798124
0.0061685925
0.0057844365
0.0052518579
0.0046599542
0.0040809344
0.0035601586
0.0031196118
0.0027639739
0.0024869762
0.0022770079
0.0021211199
0.0020072939
0.0019254259
0.0018675258
0.0018275054
0.0018008225
0.0017841539
0.0017751615
0.0017720856
0.24249159
0.20392163
0.1685164
0.14613186
0.12836121
0.113448
0.10061045
0.089426788
0.07963591
0.071032601
0.063449187
0.056746852
0.050809323
0.045538309
0.040850121
0.036673086
0.032945533
0.029612247
0.026621403
0.023943035
0.23939527
0.20111984
0.16612088
0.14399397
0.12644637
0.11172364
0.099050916
0.08801338
0.078352946
0.069866381
0.062387608
0.055779156
0.049925911
0.044730593
0.04011041
0.035994505
0.032322015
0.02903853
0.026091948
0.023453359
0.23308012
0.19557285
0.16145155
0.13987588
0.12278492
0.1084483
0.096107853
0.085361783
0.07595881
0.06770061
0.060425
0.053997687
0.048306214
0.043255568
0.038764916
0.034765133
0.031197003
0.02800772
0.025145376
0.022581651
0.22365687
0.18741557
0.15464343
0.13390553
0.11749273
0.10372695
0.091877412
0.081560724
0.072535799
0.064611967
0.057633148
0.051469998
0.046014162
0.04117409
0.036871899
0.033041008
0.029624508
0.026571909
0.023832333
0.021377235
0.21138317
0.17687966
0.14589384
0.12625943
0.11072822
0.097702494
0.086489455
0.076728882
0.068192884
0.060700906
0.054104978
0.048282346
0.043130097
0.038561234
0.034501726
0.030888253
0.027666697
0.024789427
0.022207985
0.019893205
0.19660905
0.16427189
0.13545863
0.11716304
0.1026923
0.090555002
0.080106115
0.071012734
0.063062784
0.056087976
0.049950226
0.044534818
0.039745471
0.035500732
0.031731229
0.028377527
0.02538868
0.022720179
0.020327548
0.018181766
0.17975932
0.14995998
0.12364053
0.10688068
0.093619314
0.082493571
0.072914598
0.064580189
0.057296338
0.050908846
0.045291013
0.04033742
0.035959488
0.032082204
0.028641602
0.02558274
0.022858207
0.020426649
0.018248723
0.016297279
0.16131811
0.13435963
0.11077942
0.09570731
0.083769701
0.073749705
0.065121272
0.057615449
0.051058087
0.04531055
0.040258756
0.035807652
0.031877289
0.028399906
0.025317669
0.022580774
0.020145896
0.017975014
0.01603462
0.014301144
0.14181141
0.11791905
0.097240151
0.083957994
0.073420636
0.064569084
0.056944458
0.050312632
0.044520655
0.039446594
0.034989962
0.031066922
0.027606912
0.024550118
0.021845481
0.019448997
0.017322197
0.015431146
0.013749065
0.012256035
0.12178803
0.10110653
0.083399699
0.071954312
0.062852884
0.055199213
0.048603107
0.042865759
0.037856235
0.033470025
0.029620848
0.026236599
0.023256543
0.020629207
0.018310727
0.016263502
0.01445516
0.012858344
0.011455344
0.010226819
0.021116769
0.018298372
0.015907769
0.013831473
0.012057002
0.010536379
0.009228004
0.0080962064
0.0071119931
0.0062518253
0.0054966426
0.0048311698
0.004243134
0.0037225406
0.0032611323
0.0028519949
0.0024892564
0.0021678621
0.001883408
0.0016320192
0.0014102561
0.0012150432
0.0010436143
0.00089346942
0.00076234181
0.00064817163
0.00054908537
0.00046337907
0.00038950449
0.00032605741
0.00027176742
0.0002254886
0.00018619109
0.00015295288
0.00012495209
0.00010145929
8.1830369e-05
6.5498975e-05
5.1970366e-05
4.081301e-05
3.1656648e-05
2.417455e-05
1.8108939e-05
1.3186832e-05
9.3101135e-06
6.1041001e-06
3.9104721e-06
1.7802033e-06
2.383454e-06
3.8178767e-06
0.020705848
0.017981642
0.015659919
0.013636552
0.011905538
0.01041998
0.0091387087
0.0080274164
0.0070586077
0.0062099363
0.0054633381
0.0048043589
0.0042213323
0.0037046808
0.0032464303
0.0028398599
0.0024792301
0.0021595789
0.001876571
0.0016263833
0.0014056174
0.0012112314
0.0010404872
0.00089090797
0.00076024675
0.00064646034
0.0005476893
0.0004622415
0.00038857863
0.00032530474
0.00027115633
0.00022499317
0.00018579014
0.00015262905
0.00012469123
0.00010124982
8.1662832e-05
6.5365631e-05
5.1864889e-05
4.0730229e-05
3.1592335e-05
2.4125265e-05
1.807188e-05
1.3159789e-05
9.2912544e-06
6.0920716e-06
3.9042855e-06
1.7767007e-06
2.3683265e-06
3.7417749e-06
0.019982099
0.017427526
0.01523055
0.013304318
0.011651424
0.010227786
0.008993544
0.0079171105
0.0069739586
0.0061441017
0.00541135
0.004762724
0.0041876157
0.0036771568
0.0032238442
0.0028212724
0.0024639161
0.0021469625
0.0018661848
0.0016178428
0.0013986037
0.0012054788
0.0010357742
0.00088705047
0.00075709169
0.00064388109
0.0005455814
0.00046051905
0.00038717124
0.00032415488
0.00027021705
0.00022422624
0.00018516441
0.00015211918
0.00012427655
0.00010091346
8.1390962e-05
6.5146925e-05
5.1690024e-05
4.059153e-05
3.1483471e-05
2.4041023e-05
1.8007989e-05
1.3112809e-05
9.2583624e-06
6.0710623e-06
3.8936927e-06
1.7706967e-06
2.3381405e-06
3.5931881e-06
0.018989653
0.01666987
0.014650061
0.012864101
0.01132075
0.009981263
0.0088094565
0.0077782704
0.0068677827
0.0060616269
0.0053462706
0.0047106675
0.0041455463
0.0036429176
0.003195854
0.0027983361
0.0024451044
0.0021315348
0.0018535402
0.0016074882
0.0013901319
0.0011985528
0.0010301147
0.00088242682
0.00075331386
0.00064079298
0.00054305525
0.0004584507
0.00038547599
0.00032276405
0.00026907503
0.00022328807
0.00018439369
0.00015148643
0.00012375779
0.00010048916
8.1045107e-05
6.4866344e-05
5.1463826e-05
4.041068e-05
3.1340456e-05
2.3929595e-05
1.7922979e-05
1.3050011e-05
9.2142724e-06
6.0429716e-06
3.8795522e-06
1.7630027e-06
2.292929e-06
3.3798103e-06
0.017772454
0.015743462
0.013949979
0.012345976
0.010939844
0.0097012104
0.0086020106
0.0076223044
0.0067484096
0.0059687227
0.0052729366
0.0046521321
0.0040984498
0.0036048289
0.003164956
0.0027732318
0.0024246962
0.0021149454
0.0018400601
0.0015965391
0.0013812409
0.0011913326
0.0010242486
0.0008776562
0.00074942847
0.00063762243
0.00054046199
0.0004563241
0.00038372735
0.00032132243
0.00026788378
0.00022230193
0.00018357647
0.00015080907
0.00012319683
0.00010002556
8.0663265e-05
6.4553381e-05
5.1209021e-05
4.0205049e-05
3.117644e-05
2.3800814e-05
1.7824084e-05
1.2976602e-05
9.1625583e-06
6.0101793e-06
3.8629025e-06
1.7546468e-06
2.2331791e-06
3.1129133e-06
0.016368654
0.014680261
0.013159018
0.011774685
0.01052814
0.0094010581
0.0083797778
0.0074547995
0.0066198348
0.0058685767
0.0051941401
0.0045896998
0.0040487491
0.0035651513
0.0031332343
0.0027478561
0.0024043956
0.002098708
0.0018270749
0.0015861542
0.0013729313
0.0011846759
0.0010189056
0.0008733554
0.00074595363
0.00063480208
0.0005381608
0.00045443579
0.00038216881
0.00032002889
0.00026680485
0.00022139838
0.00018281767
0.00015017095
0.00012266033
9.9575319e-05
8.0286781e-05
6.424028e-05
5.0950566e-05
3.999379e-05
3.100597e-05
2.3665593e-05
1.7719345e-05
1.2898374e-05
9.1071737e-06
5.9752984e-06
3.8448255e-06
1.7467205e-06
2.1596881e-06
2.80618e-06
0.014815665
0.013512371
0.012302894
0.011165392
0.010092185
0.0090821343
0.0081417396
0.0072745847
0.0064818288
0.0057620148
0.0051114768
0.0045254249
0.0039987096
0.0035261799
0.0031028957
0.0027242599
0.0023860647
0.0020844839
0.0018160473
0.0015776069
0.0013663014
0.0011795221
0.0010148835
0.00087019756
0.0007434537
0.00063280225
0.00053654144
0.00045310704
0.00038106379
0.00031909828
0.00026601256
0.00022071813
0.0001822303
0.00014966238
0.00012221999
9.9195091e-05
7.9960119e-05
6.3961699e-05
5.0715269e-05
3.9797451e-05
3.0844627e-05
2.3535582e-05
1.7617307e-05
1.2821435e-05
9.0522448e-06
5.9410182e-06
3.8263785e-06
1.7402794e-06
2.0735573e-06
2.4744308e-06
0.013159707
0.012276446
0.011401365
0.010516161
0.0096187535
0.008730569
0.0078776311
0.0070755742
0.0063318907
0.0056490987
0.0050265369
0.0044616637
0.0039509783
0.0034905699
0.0030764435
0.0027047151
0.0023717138
0.0020740209
0.0018084765
0.0015721701
0.001362423
0.0011767676
0.0010129273
0.00086879815
0.00074243468
0.00063203694
0.00053594102
0.00045261104
0.00038063264
0.00031870754
0.00026564835
0.00022037369
0.00018190339
0.00014935342
0.0001219307
9.8927589e-05
7.9716318e-05
6.3743017e-05
5.0522469e-05
3.9630637e-05
3.0703315e-05
2.341881e-05
1.7523754e-05
1.2749848e-05
9.0004073e-06
5.9090079e-06
3.8079571e-06
1.7359738e-06
1.9760739e-06
2.1325761e-06
0.011445993
0.010989187
0.010434717
0.0097804909
0.0090571614
0.0083050286
0.0075574758
0.0068364481
0.0061546231
0.0055185072
0.0049308068
0.0043918315
0.0039003294
0.003454093
0.0030504072
0.0026863452
0.0023589466
0.0020653193
0.0018026955
0.0015684581
0.0013601488
0.0011754666
0.0010122607
0.00086852323
0.0007423809
0.00063208828
0.00053602201
0.0004526759
0.0003806569
0.00031868144
0.00026557188
0.00022025284
0.0001817474
0.00014917279
0.00012173586
9.8728027e-05
7.9520122e-05
6.3556659e-05
5.0350784e-05
3.9476941e-05
3.0569619e-05
2.3306042e-05
1.7431951e-05
1.2678831e-05
8.9483013e-06
5.8770441e-06
3.7877687e-06
1.7332112e-06
1.8689963e-06
1.7958967e-06
0.0097388114
0.0096115337
0.0093131463
0.0088745932
0.008343043
0.0077566404
0.007143383
0.0065269927
0.0059253137
0.0053498551
0.0048075257
0.0043022014
0.0038355421
0.0034075905
0.0030173252
0.0026630832
0.0023428407
0.0020543967
0.0017954935
0.0015638922
0.0013574166
0.0011739773
0.0010115832
0.00086834716
0.00074248743
0.00063232749
0.00053629548
0.00045292318
0.00038084491
0.00031879623
0.00026561233
0.00022022586
0.00018166437
0.00014904703
0.00012158082
9.8556186e-05
7.9342303e-05
6.3381723e-05
5.0185574e-05
3.9326379e-05
3.0436967e-05
2.3193134e-05
1.733945e-05
1.2606986e-05
8.895227e-06
5.8445487e-06
3.7654914e-06
1.7314321e-06
1.7564047e-06
1.4802139e-06
0.007878465
0.0079478162
0.0078595481
0.0076269441
0.0072974638
0.0068988427
0.0064499403
0.0059718485
0.0054841117
0.0050011311
0.0045329098
0.0040864179
0.0036661839
0.0032747286
0.002913088
0.002581272
0.0022785958
0.002003916
0.0017558045
0.0015326702
0.0013328421
0.0011546245
0.00099633383
0.00085632349
0.00073300003
0.00062483486
0.00053037231
0.00044823556
0.0003771308
0.00031585009
0.00026327295
0.00021836681
0.0001801864
0.00014787215
0.0001206476
9.7816133e-05
7.8756994e-05
6.2920623e-05
4.9824302e-05
3.9045458e-05
3.0220686e-05
2.3029151e-05
1.7217191e-05
1.2519794e-05
8.8335402e-06
5.8100022e-06
3.7382992e-06
1.7312582e-06
1.6403188e-06
1.2029382e-06
0.006103404
0.0062759665
0.0063166987
0.0062299227
0.0060548583
0.0058116173
0.0055109817
0.0051691359
0.0048035322
0.0044279145
0.0040525764
0.0036854859
0.0033325493
0.0029977766
0.0026836594
0.0023915576
0.0021219923
0.0018748699
0.0016496607
0.0014455347
0.0012614617
0.0010962832
0.00094876605
0.00081764025
0.00070162814
0.00059946572
0.00050991917
0.00043179766
0.0003639632
0.00030533829
0.0002549114
0.00021174081
0.0001749568
0.00014376245
0.00011743308
9.5314754e-05
7.6821751e-05
6.1433217e-05
4.8689801e-05
3.8188074e-05
2.9579804e-05
2.2557326e-05
1.6875353e-05
1.2280908e-05
8.6680563e-06
5.7121074e-06
3.666352e-06
1.716663e-06
1.4946844e-06
9.4098877e-07
0.0045785576
0.0048164107
0.0049471296
0.0049729413
0.0049189953
0.0048000362
0.0046224383
0.0043976553
0.0041400338
0.003861827
0.0035727902
0.0032810332
0.0029931077
0.0027139511
0.0024470906
0.0021949305
0.0019589854
0.0017400691
0.0015384585
0.0013540278
0.0011863547
0.0010348011
0.0008985768
0.00077678825
0.00066847647
0.0005726471
0.00048829419
0.00041441913
0.00035004592
0.00029423321
0.00024608368
0.00020475117
0.00016944563
0.00013943637
0.00011405358
9.2688587e-05
7.4792915e-05
5.9876233e-05
4.7504054e-05
3.7293329e-05
2.8911952e-05
2.206632e-05
1.6519888e-05
1.2032811e-05
8.4955119e-06
5.610713e-06
3.5882305e-06
1.7039935e-06
1.3379656e-06
6.9681524e-07
0.0032973982
0.0035674015
0.0037530754
0.003857235
0.0038921413
0.0038677033
0.0037880061
0.0036604672
0.0034957168
0.0033038342
0.0030934104
0.0028719989
0.0026461182
0.0024210659
0.0022009582
0.0019888995
0.0017871418
0.0015972244
0.0014201055
0.0012562809
0.0011058838
0.00096876634
0.00084456591
0.00073275951
0.0006327077
0.00054369041
0.00046493631
0.00039564685
0.00033501605
0.00028224657
0.00023656268
0.00019722041
0.00016351536
0.00013478824
0.00011042863
8.9876958e-05
7.2625194e-05
5.8216224e-05
4.6242645e-05
3.6343604e-05
2.820459e-05
2.1547246e-05
1.6144666e-05
1.1771002e-05
8.3131182e-06
5.5029148e-06
3.5033933e-06
1.6905077e-06
1.1814035e-06
4.8989402e-07
0.0022672719
0.0025359832
0.0027442591
0.002893819
0.0029871247
0.0030292816
0.0030226771
0.0029715986
0.0028830399
0.0027645222
0.0026230351
0.0024650764
0.0022965805
0.0021226903
0.0019476722
0.0017749702
0.0016072875
0.0014466699
0.001294595
0.0011520639
0.0010196846
0.00089774475
0.00078627475
0.00068510183
0.00059389557
0.0005122066
0.0004394991
0.00037517834
0.00031861377
0.00026915828
0.00022616414
0.00018899592
0.00015704078
0.00012971628
0.00010647617
8.6814197e-05
7.026645e-05
5.6412115e-05
4.4873475e-05
3.5314023e-05
2.7438627e-05
2.0985581e-05
1.5738824e-05
1.1487324e-05
8.1151543e-06
5.384152e-06
3.4097025e-06
1.6733324e-06
1.0314335e-06
3.304154e-07
0.0014782611
0.001719278
0.0019231041
0.0020891606
0.0022135889
0.002297188
0.0023405292
0.0023454499
0.0023158257
0.0022565955
0.002172904
0.0020698792
0.0019524906
0.0018253176
0.0016923932
0.0015571634
0.0014224969
0.0012907131
0.0011636264
0.0010426033
0.00092862205
0.00082233021
0.00072409782
0.0006340659
0.00055218947
0.00047827558
0.00041201648
0.00035301844
0.00030082675
0.00025494697
0.00021486308
0.00018005247
0.00014999839
0.00012419967
0.00010217845
8.3485631e-05
6.7704818e-05
5.4454484e-05
4.3389166e-05
3.4198857e-05
2.6609639e-05
2.0377875e-05
1.5299699e-05
1.1179556e-05
7.900023e-06
5.2526526e-06
3.3068173e-06
1.6504335e-06
8.9324095e-07
2.2183336e-07
0.00090477981
0.001102157
0.0012821266
0.001441993
0.0015747655
0.0016781118
0.0017507925
0.0017926775
0.001805168
0.0017908793
0.0017530879
0.0016954183
0.0016216528
0.0015355237
0.0014405308
0.0013398349
0.0012362091
0.0011320196
0.0010292286
0.00092941518
0.00083380765
0.00074332081
0.00065859478
0.00058003338
0.0005078408
0.00044205555
0.00038258156
0.00032921621
0.00028167536
0.00023961532
0.00020265207
0.00017037767
0.0001423741
0.00011822466
9.75231e-05
7.9880752e-05
6.4931747e-05
5.2336604e-05
4.1784569e-05
3.2994238e-05
2.5714753e-05
1.9721971e-05
1.4825671e-05
1.0846334e-05
7.6668073e-06
5.1072047e-06
3.1949686e-06
1.6199967e-06
7.7059538e-07
1.6112369e-07
0.00051393872
0.00066109525
0.00080574164
0.00094392204
0.0010678726
0.0011735227
0.001258218
0.0013203389
0.0013594597
0.0013763026
0.0013724445
0.0013500414
0.0013116312
0.0012599489
0.0011977575
0.0011277156
0.0010522864
0.00097368198
0.00089383274
0.00081437684
0.00073666513
0.00066177639
0.00059053902
0.00052355637
0.00046123382
0.00040380593
0.0003513629
0.00030387561
0.00026121889
0.00022319274
0.00018954146
0.00015997039
0.00013416058
0.00011178111
9.2499395e-05
7.5989472e-05
6.1938427e-05
5.0051173e-05
4.0053862e-05
3.169567e-05
2.4750579e-05
1.9015338e-05
1.4314889e-05
1.048622e-05
7.4146097e-06
4.946813e-06
3.0746112e-06
1.5806174e-06
6.6535709e-07
1.3942122e-07
0.00027123443
0.00036836851
0.00047300439
0.00058079636
0.00068460423
0.00077980617
0.00086297565
0.00093154905
0.00098388682
0.0010193242
0.0010380501
0.0010409235
0.0010293106
0.0010049351
0.00096973166
0.00092571854
0.00087489445
0.00081915872
0.00076025622
0.00069974318
0.00063896883
0.00057907007
0.0005209755
0.00046541643
0.00041294249
0.00036393995
0.00031865151
0.00027719643
0.00023959043
0.00020576466
0.00017558341
0.0001488603
0.00012537282
0.00010487492
8.7107947e-05
7.1809666e-05
5.8721601e-05
4.7594755e-05
3.8193942e-05
3.0300592e-05
2.3715142e-05
1.8256531e-05
1.3766358e-05
1.0098537e-05
7.1431536e-06
4.7712162e-06
2.9466339e-06
1.531762e-06
5.7766579e-07
1.4414346e-07
0.00014399121
0.00019562606
0.00026060779
0.00033482673
0.00041240992
0.0004889926
0.00056101696
0.00062552521
0.00068021949
0.00072355348
0.00075471578
0.00077353777
0.0007803879
0.00077606558
0.00076169089
0.00073859567
0.00070822652
0.00067206234
0.0006315466
0.00058803716
0.00054277156
0.00049684501
0.00045119892
0.00040661803
0.00036373411
0.00032303456
0.00028487414
0.00024948896
0.00021701152
0.00018748612
0.00016088412
0.00013711844
0.00011605708
9.7535326e-05
8.1366614e-05
6.7351841e-05
5.5287211e-05
4.4970593e-05
3.6206555e-05
2.8809999e-05
2.2609102e-05
1.74461e-05
1.3180619e-05
9.6838682e-06
6.8531402e-06
4.5811407e-06
2.812402e-06
1.4739132e-06
5.0639155e-07
1.6194757e-07
0.00010342283
0.00011637746
0.0001453219
0.00018673158
0.00023616897
0.00028996311
0.00034489866
0.00039808173
0.00044701983
0.00048973698
0.00052481628
0.00055137784
0.00056903075
0.00057781379
0.00057812506
0.00057064347
0.00055624921
0.00053595013
0.00051081641
0.00048192462
0.00045031362
0.00041695169
0.00038271341
0.00034836525
0.00031455854
0.00028182833
0.00025059698
0.00022118107
0.00019380083
0.00016859105
0.00014561278
0.00012486536
0.00010629799
8.9820894e-05
7.5315398e-05
6.2643034e-05
5.1653419e-05
4.2190898e-05
3.4100001e-05
2.7229662e-05
2.143662e-05
1.6587195e-05
1.2560165e-05
9.2443298e-06
6.5464213e-06
4.3783854e-06
2.6737279e-06
1.4085291e-06
4.4968443e-07
1.815747e-07
0.00012547117
0.00010734267
0.00010560953
0.00011745412
0.00013978106
0.00016976826
0.00020480359
0.00024236585
0.00028010994
0.00031599098
0.00034833596
0.00037586557
0.00039769131
0.00041329758
0.00042250929
0.00042544608
0.00042246811
0.00041411929
0.00040107227
0.0003840774
0.00036391746
0.00034136999
0.00031717755
0.00029202541
0.00026652611
0.00024121015
0.0002165219
0.0001928196
0.00017037891
0.00014939871
0.00013000873
0.00011227824
9.6225195e-05
8.1825412e-05
6.9021467e-05
5.7730945e-05
4.78539e-05
3.927939e-05
3.1891028e-05
2.5571509e-05
2.0206316e-05
1.5686195e-05
1.1909828e-05
8.7837678e-06
6.2260715e-06
4.1657457e-06
2.5327396e-06
1.3377612e-06
4.053567e-07
1.9566754e-07
0.00019079988
0.00014896499
0.00012252447
0.00010933975
0.00010744154
0.00011483301
0.00012958515
0.00014970424
0.00017320328
0.00019821999
0.00022309629
0.00024642119
0.00026705556
0.00028414453
0.00029711564
0.00030566231
0.00030971579
0.00030940953
0.00030503967
0.00029702475
0.00028586655
0.00027211415
0.00025633253
0.0002390768
0.00022087156
0.00020219585
0.00018347281
0.00016506388
0.00014726656
0.00013031538
0.00011438508
9.9595628e-05
8.6018348e-05
7.368275e-05
6.258358e-05
5.2687776e-05
4.3941043e-05
3.6273867e-05
2.9606822e-05
2.3855099e-05
1.8932314e-05
1.47534e-05
1.1237204e-05
8.3079628e-06
5.8964549e-06
3.946912e-06
2.3917883e-06
1.2641338e-06
3.7112805e-07
2.0114679e-07
0.00028434129
0.00022539162
0.00018007071
0.00014681577
0.00012452864
0.00011192013
0.00010770361
0.00011044405
0.00011860573
0.00013065305
0.00014512368
0.00016067547
0.00017612303
0.00019046711
0.00020291304
0.00021287637
0.00021997691
0.00022402353
0.00022499211
0.00022299903
0.00021827231
0.00021112231
0.00020191377
0.00019104043
0.00017890314
0.00016589171
0.00015237086
0.00013866983
0.00012507578
0.00011183018
9.9127931e-05
8.7118667e-05
7.5909675e-05
6.5570015e-05
5.613539e-05
4.7613387e-05
3.9988773e-05
3.3228602e-05
2.7286948e-05
2.2109123e-05
1.7635348e-05
1.3803798e-05
1.055313e-05
7.824863e-06
5.5632946e-06
3.7263486e-06
2.2533682e-06
1.1902122e-06
3.447358e-07
1.9830498e-07
0.00039464899
0.00032414422
0.00026518994
0.00021667398
0.00017812437
0.00014880708
0.00012797371
0.00011469849
0.00010790171
0.0001064286
0.00010910855
0.00011479566
0.00012240536
0.00013094907
0.0001395626
0.00014752528
0.00015426954
0.00015938205
0.00016259741
0.00016378576
0.00016293583
0.00016013499
0.00015554808
0.0001493961
0.00014193623
0.00013344382
0.00012419686
0.00011446338
0.00010449169
9.4503513e-05
8.4689649e-05
7.5207938e-05
6.6183119e-05
5.7708197e-05
4.9846951e-05
4.2637207e-05
3.6094554e-05
3.0216244e-05
2.4985031e-05
2.03728e-05
1.6343859e-05
1.2857868e-05
9.8722365e-06
7.3449137e-06
5.2338401e-06
3.5092888e-06
2.1201675e-06
1.1184305e-06
3.2409445e-07
1.8929572e-07
0.00051321905
0.00043564697
0.00036752426
0.00030807299
0.00025723819
0.00021469019
0.00018009339
0.000152941
0.0001325586
0.0001181619
0.00010889987
0.00010388432
0.00010221957
0.00010303433
0.00010551163
0.00010891327
0.00011259794
0.00011603299
0.00011879985
0.00012059361
0.00012121723
0.00012057161
0.00011864264
0.00011548636
0.00011121333
0.00010597326
9.9940625e-05
9.3301775e-05
8.6244022e-05
7.8946805e-05
7.1575032e-05
6.4274458e-05
5.7168942e-05
5.0359318e-05
4.3923595e-05
3.7918212e-05
3.2380022e-05
2.7328767e-05
2.2769805e-05
1.8696892e-05
1.5094887e-05
1.1942306e-05
9.2134902e-06
6.8814185e-06
4.917091e-06
3.301817e-06
1.9951998e-06
1.0510545e-06
3.0750749e-07
1.7673488e-07
0.00063387096
0.00055272282
0.00047906693
0.00041236496
0.00035281503
0.00030036158
0.00025496144
0.00021642476
0.00018440519
0.00015844002
0.00013797882
0.00012240137
0.00011103782
0.00010319352
9.8174845e-05
9.5312958e-05
9.3984294e-05
9.3627266e-05
9.3754689e-05
9.3961527e-05
9.3927995e-05
9.3418364e-05
9.227611e-05
9.041617e-05
8.7815147e-05
8.4500302e-05
8.0538122e-05
7.602317e-05
7.1067696e-05
6.579248e-05
6.0319089e-05
5.476373e-05
4.923265e-05
4.3819037e-05
3.8601246e-05
3.3642174e-05
2.8989545e-05
2.4676899e-05
2.0725067e-05
1.714395e-05
1.3934441e-05
1.1090425e-05
8.6005578e-06
6.4508359e-06
4.624026e-06
3.1110305e-06
1.8820101e-06
9.902889e-07
2.9391265e-07
1.6285291e-07
0.00075222088
0.00067011932
0.00059377878
0.00052282976
0.00045760393
0.00039821714
0.00034481639
0.00029743332
0.00025596672
0.00022020957
0.00018986639
0.00016456134
0.00014384916
0.00012723166
0.00011417694
0.00010413875
9.657503e-05
9.0964991e-05
8.6824034e-05
8.3715773e-05
8.1260703e-05
7.9141379e-05
7.7104208e-05
7.4958178e-05
7.2570979e-05
6.9863094e-05
6.6800477e-05
6.3386435e-05
5.9653285e-05
5.5654246e-05
5.145598e-05
4.7132022e-05
4.2757298e-05
3.8403782e-05
3.4137295e-05
3.0015364e-05
2.6086029e-05
2.238743e-05
1.8948041e-05
1.5787378e-05
1.2917029e-05
1.034196e-05
8.0617722e-06
6.0728288e-06
4.3676922e-06
2.9451561e-06
1.7848392e-06
9.3842287e-07
2.830102e-07
1.4920682e-07
0.00086525247
0.00078409385
0.00070721865
0.0006343764
0.00056595054
0.00050215291
0.00044324114
0.00038938832
0.00034066251
0.0002970447
0.00025843822
0.00022466986
0.00019549341
0.0001705986
0.0001496233
0.00013216707
0.00011780541
0.00010610423
9.6633931e-05
8.8982239e-05
8.2765249e-05
7.7636158e-05
7.3291494e-05
6.9474752e-05
6.5977544e-05
6.2638503e-05
5.9340311e-05
5.6005278e-05
5.2589926e-05
4.907904e-05
4.547957e-05
4.1814753e-05
3.8118712e-05
3.4431727e-05
3.0796295e-05
2.7254016e-05
2.3843298e-05
2.0597816e-05
1.7545636e-05
1.4708905e-05
1.210399e-05
9.7420058e-06
7.6294804e-06
5.7698956e-06
4.1630287e-06
2.8135212e-06
1.7086744e-06
8.9794559e-07
2.7521914e-07
1.3673486e-07
0.00097097604
0.00089206692
0.00081621306
0.00074324944
0.00067355927
0.00060739836
0.0005450772
0.00048684867
0.00043288734
0.00038330161
0.00033813814
0.00029737861
0.0002609383
0.00022866906
0.00020036565
0.0001757735
0.00015459806
0.00013651521
0.00012118254
0.00010825056
9.7373562e-05
8.8219322e-05
8.0477435e-05
7.3865871e-05
6.8135627e-05
6.3073429e-05
5.8502577e-05
5.4282134e-05
5.0304733e-05
4.6493332e-05
4.279724e-05
3.918777e-05
3.5653777e-05
3.2197375e-05
2.8829992e-05
2.5568922e-05
2.2434438e-05
1.9447512e-05
1.6628107e-05
1.3994034e-05
1.1560279e-05
9.3388005e-06
7.338556e-06
5.5664151e-06
4.0262879e-06
2.7262648e-06
1.6591034e-06
8.7155365e-07
2.7146734e-07
1.2592435e-07
0.0010681616
0.00099233935
0.00091857267
0.0008467602
0.00077725442
0.00071032157
0.00064628593
0.00058543572
0.00052800407
0.00047417747
0.0004240973
0.00037785455
0.00033548545
0.0002969706
0.00026223672
0.00023115992
0.00020357041
0.00017925882
0.00015798373
0.00013948018
0.00012346849
0.00010966314
9.7781175e-05
8.7549748e-05
7.8712596e-05
7.1035092e-05
6.4307877e-05
5.8348986e-05
5.3004576e-05
4.8148411e-05
4.3680306e-05
3.9523782e-05
3.5623173e-05
3.194044e-05
2.8451904e-05
2.5145089e-05
2.2015814e-05
1.9065638e-05
1.6299714e-05
1.3725081e-05
1.1349392e-05
9.18009e-06
7.2238635e-06
5.4869403e-06
3.9739388e-06
2.6936997e-06
1.6419334e-06
8.6201906e-07
2.729135e-07
1.1697682e-07
0.0011561286
0.0010838637
0.0010128545
0.00094304967
0.00087475554
0.00080822878
0.00074378297
0.00068171188
0.00062227301
0.00056569365
0.00051217105
0.00046186645
0.00041489956
0.00037134544
0.00033123337
0.00029454679
0.00026122457
0.00023116363
0.00020422306
0.00018022936
0.00015898266
0.00014026352
0.00012384006
0.00010947502
9.6932463e-05
8.5983769e-05
7.6412778e-05
6.801984e-05
6.0624756e-05
5.4068552e-05
4.8214189e-05
4.2946306e-05
3.8170171e-05
3.3810011e-05
2.9806921e-05
2.6116535e-05
2.2706615e-05
1.955472e-05
1.6646038e-05
1.3971483e-05
1.1526097e-05
9.3078108e-06
7.3164662e-06
5.5535843e-06
4.0209395e-06
2.7252498e-06
1.6625456e-06
8.719023e-07
2.8067555e-07
1.0993326e-07
0.0012345823
0.0011660615
0.0010981661
0.0010308867
0.00096447752
0.00089917513
0.00083526872
0.00077303923
0.00071274593
0.00065463074
0.00059891784
0.00054580806
0.0004954732
0.00044805202
0.00040364748
0.0003623247
0.00032410981
0.00028898994
0.0002569144
0.00022779712
0.00020152007
0.00017793767
0.0001568819
0.00013816792
0.00012159983
0.00010697647
9.4096887e-05
8.2765165e-05
7.2794701e-05
6.4011526e-05
5.6256793e-05
4.9388342e-05
4.3281429e-05
3.7828702e-05
3.2939538e-05
2.8538894e-05
2.4565817e-05
2.0971751e-05
1.7718766e-05
1.4777839e-05
1.212725e-05
9.7512021e-06
7.6386051e-06
5.7824864e-06
4.1783506e-06
2.8279369e-06
1.7249837e-06
9.0311452e-07
2.9559431e-07
1.0475252e-07
0.0013034753
0.0012386675
0.0011739957
0.0011094871
0.0010453442
0.00098177919
0.00091905071
0.000857417
0.00079712541
0.00073841552
0.00068151854
0.00062665257
0.00057401732
0.00052379011
0.00047612242
0.00043113687
0.00038892467
0.00034954389
0.0003130186
0.00027933905
0.00024846274
0.00022031654
0.00019479962
0.00017178716
0.00015113468
0.00013268269
0.00011626158
0.00010169639
8.8811388e-05
7.7434199e-05
6.7399361e-05
5.855121e-05
5.0746065e-05
4.3853686e-05
3.7758055e-05
3.2357549e-05
2.7564594e-05
2.3304924e-05
1.9516547e-05
1.6148539e-05
1.3159764e-05
1.0517638e-05
8.1969221e-06
6.1789737e-06
4.4500327e-06
3.0042576e-06
1.8306887e-06
9.5628819e-07
3.1799017e-07
1.0134062e-07
0.0013629114
0.0013016194
0.0012400882
0.0011783798
0.0011166476
0.0010550796
0.00099390239
0.00093334764
0.00087364381
0.00081501836
0.00075769708
0.00070190034
0.00064783864
0.00059570894
0.0005456912
0.00049794506
0.00045260667
0.00040978606
0.00036956493
0.00033199539
0.00029709916
0.0002648679
0.00023526411
0.00020822306
0.0001836553
0.00016144992
0.00014147825
0.00012359789
0.0001076569
9.3497939e-05
8.0962244e-05
6.9893216e-05
6.0139568e-05
5.1557928e-05
4.4014851e-05
3.7388239e-05
3.1568201e-05
2.6457397e-05
2.1970948e-05
1.8036006e-05
1.4591064e-05
1.158513e-05
8.9767629e-06
6.7334114e-06
4.8297601e-06
3.2503098e-06
1.977391e-06
1.0302395e-06
3.4750078e-07
9.9563806e-08
0.0014130124
0.0013549079
0.0012962812
0.0012372277
0.0011778567
0.001118334
0.0010588564
0.0009996289
0.00094085883
0.00088275694
0.00082553691
0.00076941252
0.00071459395
0.00066128488
0.00060967906
0.00055995738
0.00051228437
0.00046680535
0.00042364353
0.0003828978
0.00034464083
0.00030891792
0.00027574651
0.00024511638
0.00021699065
0.00019130749
0.00016798241
0.00014691125
0.00012797346
0.00011103575
9.5955921e-05
8.2586541e-05
7.07786e-05
6.0384788e-05
5.1262417e-05
4.3275864e-05
3.6298504e-05
3.0214136e-05
2.4917903e-05
2.0316764e-05
1.632957e-05
1.2886848e-05