/*--------------------------------*- C++ -*----------------------------------*\
  =========                 |
  \\      /  F ield         | OpenFOAM: The Open Source CFD Toolbox
   \\    /   O peration     | Website:  https://openfoam.org
    \\  /    A nd           | Version:  6
     \\/     M anipulation  |
\*---------------------------------------------------------------------------*/
FoamFile
{
    version     2.0;
    format      ascii;
    class       volVectorField;
    location    "110";
    object      U;
}
// * * * * * * * * * * * * * * * * * * * * * * * * * * * * * * * * * * * * * //

dimensions      [0 1 -1 0 0 0 0];

internalField   nonuniform List<vector> 
9200
(
(0.0010396342 0.00141983 -5.9204089e-20)
(0.013677321 -0.0020590304 4.6044538e-20)
(0.038315889 -0.0058677321 -3.8503329e-20)
(0.07227903 -0.0097651762 -6.0260143e-20)
(0.11377154 -0.01349222 1.8827822e-20)
(0.16159016 -0.016608376 3.2745269e-20)
(0.21468346 -0.018820532 -1.2268609e-20)
(0.27208093 -0.01997767 9.2693281e-21)
(0.33287405 -0.020015542 1.6804072e-20)
(0.3961843 -0.018933922 1.484872e-21)
(0.46113934 -0.016785255 -2.1457357e-20)
(0.52686349 -0.013663766 2.0671026e-20)
(0.59247992 -0.0096946642 -4.0424027e-20)
(0.65712287 -0.0050231173 -2.1135063e-20)
(0.71995824 0.00019749373 5.9049586e-21)
(0.78021008 0.0058152418 -2.5133243e-20)
(0.83720673 0.011703109 2.5218878e-20)
(0.89050545 0.017907885 2.2245538e-20)
(0.93970746 0.024561794 -2.9884846e-22)
(0.98208827 0.028280845 -1.6686166e-21)
(0.0052526707 -0.0013465374 -1.7059995e-20)
(0.026964362 -0.0089899673 3.9749333e-20)
(0.061673859 -0.014811296 2.3577251e-20)
(0.10630091 -0.019174347 -1.1570187e-19)
(0.15874427 -0.022216597 -1.2727624e-20)
(0.21754497 -0.023723787 7.329975e-20)
(0.28138742 -0.023598683 -3.54778e-20)
(0.34902357 -0.02187303 -8.3908849e-21)
(0.41925986 -0.018650069 3.4288988e-20)
(0.4909331 -0.014085882 -4.3261536e-20)
(0.56289878 -0.0083815158 -3.0340033e-20)
(0.63403746 -0.0017727245 7.1925506e-20)
(0.70327445 0.0054816457 3.8296175e-20)
(0.76960869 0.013111201 -6.7980844e-20)
(0.83214656 0.020843898 1.462476e-20)
(0.89013517 0.028410694 -3.6736044e-20)
(0.94300414 0.035559764 -1.3777971e-20)
(0.99046693 0.042130008 7.0981025e-20)
(1.0323899 0.047703424 2.9645768e-20)
(1.0669674 0.049126914 -8.3482343e-20)
(0.010859161 -0.0040427772 3.6774719e-20)
(0.043955984 -0.015432243 2.5048086e-21)
(0.090520336 -0.02255409 2.2342622e-20)
(0.14711899 -0.026499711 9.8120247e-22)
(0.21135311 -0.027889137 -4.0775637e-20)
(0.28148138 -0.026798397 1.8577009e-20)
(0.35588733 -0.023386424 1.3420855e-20)
(0.4330102 -0.017925637 -5.0329736e-20)
(0.51134795 -0.010740166 5.7264349e-20)
(0.58945213 -0.0021888407 1.425752e-20)
(0.66593761 0.0073424503 -5.4303714e-20)
(0.73951084 0.017454246 -1.8238673e-20)
(0.80900799 0.027749905 9.0589765e-21)
(0.87343564 0.037851886 2.3446389e-20)
(0.93200705 0.047415841 -1.1363497e-20)
(0.98416699 0.056139871 2.7879779e-20)
(1.0296067 0.063779101 -2.0189596e-20)
(1.0682962 0.070193292 -7.0129451e-20)
(1.1003624 0.075107229 -2.3798572e-20)
(1.1249399 0.076628145 4.8662569e-20)
(0.017958234 -0.0064225983 2.4508795e-20)
(0.064780367 -0.020696117 5.1040979e-20)
(0.12485845 -0.028062808 1.9882355e-20)
(0.19447893 -0.030466526 1.2990429e-20)
(0.27096188 -0.029097716 1.727624e-20)
(0.35226472 -0.02439221 -4.7721887e-20)
(0.43645063 -0.016829531 -2.5647858e-20)
(0.52164247 -0.0069805586 0)
(0.6060542 0.0045627829 1.392171e-20)
(0.68801476 0.017207063 -5.8530636e-21)
(0.76600482 0.030368752 -9.7940256e-20)
(0.83870552 0.043493865 -1.57754e-20)
(0.90504712 0.056080147 6.5107794e-20)
(0.9642478 0.067696857 4.8388649e-22)
(1.0158353 0.077999534 -1.5726722e-21)
(1.0596465 0.08673763 2.1959152e-20)
(1.0958071 0.093762028 -5.2652545e-21)
(1.1247084 0.099054065 -6.1034411e-20)
(1.1468914 0.10258475 -4.5855138e-20)
(1.1623207 0.10340054 6.9524748e-20)
(0.026580759 -0.0082061649 -3.9195007e-21)
(0.089348262 -0.02403488 -5.1257708e-21)
(0.16431504 -0.030266954 5.6601189e-20)
(0.24759217 -0.029812396 1.8539875e-20)
(0.33625612 -0.024515715 -3.1956136e-20)
(0.42796925 -0.015242802 1.2164255e-20)
(0.52049389 -0.002854546 2.6403952e-21)
(0.6116878 0.011733642 3.3610838e-20)
(0.69957384 0.027636352 5.6602417e-21)
(0.78239705 0.044024547 -1.3205744e-20)
(0.85868408 0.060142952 6.015832e-20)
(0.92729986 0.075335024 -5.8012562e-20)
(0.98748764 0.089066617 -1.3217486e-19)
(1.0388835 0.10094187 -5.577692e-21)
(1.0815021 0.11070894 8.3156915e-20)
(1.1156939 0.11825486 0)
(1.1420817 0.12359557 1.0119616e-20)
(1.1614921 0.12687923 -1.5460934e-20)
(1.1748415 0.12828635 -8.6001496e-21)
(1.1826892 0.12743585 2.0993598e-20)
(0.036668593 -0.0090900585 -5.4309402e-21)
(0.11732026 -0.024686676 4.3580019e-21)
(0.20812752 -0.028141982 -8.7632394e-21)
(0.30516963 -0.023417044 2.8473262e-20)
(0.40535171 -0.013077869 -2.9393705e-20)
(0.50609126 0.0015201862 -1.692768e-20)
(0.60492781 0.01909254 3.7365407e-20)
(0.69957512 0.038362411 4.7596181e-21)
(0.78803148 0.058164449 -2.4437835e-20)
(0.86866299 0.077479317 6.9871475e-20)
(0.94026939 0.095454317 5.2347111e-22)
(1.0021253 0.11142646 -8.0449869e-20)
(1.0539862 0.12493689 0)
(1.0960557 0.13573049 3.95451e-20)
(1.1289193 0.14374036 5.5240446e-21)
(1.1534535 0.14905979 -7.7571857e-20)
(1.1707232 0.15190894 -1.9588284e-20)
(1.1818848 0.15261247 -1.2468502e-20)
(1.1880802 0.1515139 -1.4710455e-20)
(1.1901656 0.1485719 4.042329e-20)
(0.04806091 -0.0087678398 -1.7278324e-20)
(0.14808916 -0.021933135 -2.2201354e-21)
(0.25515083 -0.020799304 3.038126e-20)
(0.36547797 -0.010414395 3.7485224e-20)
(0.47592209 0.0058999267 -1.994538e-20)
(0.5837639 0.026267582 -6.9165858e-20)
(0.68646592 0.048975351 -2.7997266e-20)
(0.7817883 0.072415674 7.8933057e-20)
(0.86792973 0.095209949 8.5786239e-21)
(0.94361774 0.1162465 -2.487466e-20)
(1.0081546 0.1346944 1.3642604e-20)
(1.0614153 0.15001079 -4.3198865e-21)
(1.1037967 0.16193082 0)
(1.1361237 0.17043744 2.7205229e-20)
(1.1595294 0.17571517 -7.9327583e-20)
(1.1753253 0.17809472 -3.1477588e-20)
(1.1848787 0.17799815 8.1059895e-20)
(1.1895124 0.17589855 -4.2973899e-21)
(1.1904219 0.17224384 3.5563029e-21)
(1.1885258 0.16718047 2.711354e-20)
(0.060487648 -0.0069577047 -3.2415267e-20)
(0.18078465 -0.01517122 -8.1626564e-20)
(0.30390061 -0.0075844953 2.5794768e-21)
(0.426441 0.0097024237 7.0164123e-20)
(0.54537063 0.032630681 6.2426601e-20)
(0.65800329 0.058819169 -7.1576923e-20)
(0.76193357 0.086175499 -2.8233982e-22)
(0.85520937 0.11285099 8.5527221e-20)
(0.9364809 0.13737654 4.8830618e-20)
(1.0050692 0.15869115 -5.4221643e-20)
(1.060963 0.17613221 -9.2339662e-20)
(1.1047508 0.18940912 -3.1591719e-21)
(1.1375013 0.19855394 4.2130412e-20)
(1.1606114 0.20385198 -6.606046e-21)
(1.1756474 0.20576254 -1.2869544e-20)
(1.1841989 0.20484053 1.9691905e-20)
(1.1877626 0.20166939 4.3883324e-20)
(1.1876639 0.19681547 -4.3862048e-20)
(1.1850129 0.1907677 -1.0232855e-19)
(1.1806415 0.18376201 2.4568709e-20)
(0.073539949 -0.0034331699 -3.4980772e-20)
(0.21423458 -0.0039894449 -1.7388967e-19)
(0.3525289 0.011839059 8.2106189e-20)
(0.48564446 0.037018225 9.2770695e-20)
(0.61087383 0.0668356 5.7972555e-20)
(0.72579014 0.098481249 8.6110941e-21)
(0.82837294 0.12959685 -1.0624471e-19)
(0.91721614 0.15824217 0)
(0.9916541 0.18302699 -6.8752693e-20)
(1.0517786 0.20311007 -1.5203409e-20)
(1.0983642 0.21814562 5.4706559e-20)
(1.1327255 0.22820676 1.0974038e-20)
(1.1565345 0.23368743 -4.5616457e-20)
(1.1716289 0.23519322 -4.9084109e-20)
(1.1798412 0.23343609 2.4289165e-20)
(1.1828645 0.22914504 4.4825636e-20)
(1.1821672 0.22300084 -5.5603767e-20)
(1.1789533 0.21559847 -1.0751757e-19)
(1.1741632 0.20741186 -3.1513491e-21)
(1.1684722 0.19870786 2.7047993e-20)
(0.086653476 0.0019613812 -3.5452368e-21)
(0.24696854 0.01181674 8.791566e-20)
(0.39886051 0.037492767 -1.6478204e-20)
(0.54042186 0.071219204 -8.431273e-20)
(0.66951957 0.10778998 4.5166196e-20)
(0.78424256 0.1441165 4.917696e-20)
(0.88321405 0.17775749 5.5359497e-21)
(0.96580416 0.20688518 -9.9507303e-20)
(1.0322018 0.23038753 -2.5050102e-21)
(1.0833579 0.24781408 5.0506336e-20)
(1.1208312 0.25926047 5.9858127e-21)
(1.1465788 0.26523254 -1.9718314e-20)
(1.1627325 0.26650056 -7.570875e-20)
(1.171397 0.26396041 -6.2556608e-21)
(1.1744955 0.25851753 4.3535674e-20)
(1.1736729 0.25100328 3.7023973e-20)
(1.1702554 0.24212561 1.9794345e-20)
(1.1652565 0.23244977 -5.299829e-20)
(1.1594168 0.22239464 1.2957567e-20)
(1.1532398 0.21222797 8.2663523e-20)
(-0.0012933206 0.0014347249 -1.1234585e-21)
(-0.0047461704 0.0031875505 2.0647714e-21)
(-0.010771815 0.0041360706 8.7963769e-22)
(-0.017755012 0.0045397079 -2.4410497e-21)
(-0.024741291 0.0045655769 -1.4116629e-21)
(-0.031300777 0.0043261757 1.5461948e-21)
(-0.037162674 0.0039036439 -6.8706067e-21)
(-0.042148894 0.0033577903 -5.9577744e-21)
(-0.046159272 0.0027314084 1.1172833e-20)
(-0.049147666 0.0020548128 -9.7434826e-21)
(-0.051102043 0.0013492347 -1.9833885e-22)
(-0.052031677 0.00062930545 3.6676435e-21)
(-0.051958745 -9.5059662e-05 -6.329983e-22)
(-0.05091259 -0.00081715743 2.2820623e-20)
(-0.048926112 -0.001532132 3.0401549e-22)
(-0.046035222 -0.0022355252 -4.0886452e-20)
(-0.042281144 -0.002922687 7.539283e-21)
(-0.03770217 -0.0035915291 2.3866298e-20)
(-0.032306711 -0.0042405528 -4.3856534e-20)
(-0.026154176 -0.0048217555 -2.7741906e-20)
(-0.0016522724 0.0041810531 -5.3719004e-21)
(-0.0053977073 0.009268526 1.0865798e-20)
(-0.011218956 0.012007918 -1.0192045e-20)
(-0.017658695 0.013154251 3.9233635e-21)
(-0.023857293 0.013195863 4.812598e-21)
(-0.029434318 0.012463103 7.1330031e-22)
(-0.034153402 0.011197297 -2.2511208e-20)
(-0.037861474 0.009574068 -2.0371637e-21)
(-0.040475337 0.0077190333 2.0165e-20)
(-0.041959827 0.005721141 -5.0477302e-21)
(-0.042309643 0.0036426307 -2.176423e-20)
(-0.041537737 0.0015263258 4.8976915e-21)
(-0.039667736 -0.00059885427 2.2637127e-20)
(-0.03672864 -0.0027134812 1.0309222e-20)
(-0.032751037 -0.004803591 2.1856161e-20)
(-0.027767523 -0.006856603 -1.9772416e-20)
(-0.021822397 -0.0088595184 -2.1674815e-20)
(-0.014963021 -0.01080574 2.1186637e-20)
(-0.0071248027 -0.012680743 2.6812821e-20)
(0.0018796189 -0.014319192 1.5856126e-20)
(-0.002303524 0.0065605165 -4.3571063e-21)
(-0.0065394737 0.01448078 -5.6388977e-21)
(-0.011892549 0.018711253 3.0722327e-22)
(-0.017211652 0.0204289 1.0958864e-21)
(-0.021819771 0.020400976 6.6922442e-21)
(-0.025431675 0.019152196 1.0665805e-20)
(-0.027877791 0.017066657 -3.7230228e-21)
(-0.029053666 0.014423964 -1.8897413e-20)
(-0.028909181 0.011424324 6.5417673e-21)
(-0.027430846 0.0082096507 1.2863468e-20)
(-0.024627062 0.00487928 5.8345607e-21)
(-0.020518905 0.0015014866 1.8160376e-20)
(-0.015134123 -0.0018778861 1.7297217e-21)
(-0.0085027639 -0.0052285571 -3.3867065e-20)
(-0.00065336932 -0.0085292228 1.2022056e-21)
(0.0083855508 -0.011761044 -2.2140801e-20)
(0.018562537 -0.014906372 -2.4468489e-20)
(0.029809114 -0.017956389 4.5823808e-20)
(0.042313309 -0.020858132 2.5351765e-20)
(0.056748543 -0.023251152 1.225885e-22)
(-0.0031291469 0.0083693143 -5.2836119e-21)
(-0.0078966658 0.018337212 -8.4822991e-21)
(-0.012439341 0.023588645 4.3595064e-21)
(-0.016026897 0.025610488 4.1465894e-21)
(-0.0182353 0.025383468 2.0106705e-21)
(-0.018912739 0.023589867 7.3214786e-21)
(-0.017984508 0.020730591 9.3130709e-21)
(-0.015416092 0.017170431 -1.3512265e-21)
(-0.011205904 0.013171074 -1.1482679e-20)
(-0.0053734424 0.0089183744 -2.9073795e-20)
(0.0020506761 0.004542542 6.1928346e-23)
(0.011029977 0.00013305779 4.0700586e-20)
(0.021526733 -0.0042505823 -1.8384356e-20)
(0.033503538 -0.0085696155 -1.2296967e-20)
(0.046927522 -0.012797998 5.5341012e-22)
(0.061768576 -0.016914754 3.2305152e-20)
(0.077963116 -0.020905041 -1.4830938e-20)
(0.095404136 -0.02476725 -5.3343398e-20)
(0.11441226 -0.028384118 4.576865e-20)
(0.13636141 -0.031078004 3.3015877e-20)
(-0.0039705468 0.0094660947 -6.8787023e-22)
(-0.0090919173 0.020488507 -1.2535362e-20)
(-0.012364711 0.026159921 -3.4146514e-20)
(-0.013552625 0.02814413 -5.7245716e-21)
(-0.012533032 0.027555643 -3.6223912e-21)
(-0.0093160871 0.025188462 6.305478e-21)
(-0.0039444371 0.021627513 -4.6464839e-21)
(0.0035280492 0.01729872 -8.8075358e-21)
(0.013039601 0.012508137 2.1900977e-20)
(0.024525031 0.0074734229 5.0569629e-21)
(0.03792049 0.0023474537 -2.529197e-20)
(0.053163715 -0.0027646895 1.107892e-20)
(0.070194615 -0.0077932592 0)
(0.088955968 -0.012694192 1.2090373e-20)
(0.10939663 -0.017440338 -9.7022767e-21)
(0.13147056 -0.022013874 -1.4338193e-20)
(0.15508934 -0.026413213 -1.5736891e-21)
(0.18008514 -0.030664613 -2.2184448e-21)
(0.20687338 -0.034582386 4.6150134e-20)
(0.23768628 -0.037026358 -1.0471373e-20)
(-0.0046452377 0.0097812008 -7.5359985e-21)
(-0.0096774586 0.020748514 2.4517707e-20)
(-0.011064432 0.026161676 -1.0499967e-20)
(-0.0090965324 0.027725046 -2.7470719e-20)
(-0.0039788865 0.026602079 -2.7549487e-20)
(0.0040977284 0.02364849 -1.4922355e-20)
(0.014956581 0.019496173 -6.9063678e-22)
(0.028439726 0.014604008 5.550255e-21)
(0.044407871 0.0093022963 1.9616875e-20)
(0.062736628 0.0038267803 7.3534835e-21)
(0.08331203 -0.0016569039 -7.1865955e-21)
(0.10602845 -0.0070349281 -2.0102615e-21)
(0.13078497 -0.012232354 -3.8193987e-20)
(0.15748293 -0.017203602 -1.2694417e-20)
(0.18602775 -0.021924204 1.8751961e-20)
(0.21632993 -0.026384835 -2.102317e-20)
(0.24825293 -0.030608019 -8.9736684e-21)
(0.28154202 -0.034677118 3.0442279e-20)
(0.31663313 -0.038372089 5.0475277e-20)
(0.35667924 -0.039972115 3.3562261e-21)
(-0.0049618882 0.0093142767 1.6783992e-20)
(-0.0091663634 0.019098174 1.4468542e-20)
(-0.0078591312 0.02356381 5.114794e-20)
(-0.0018577242 0.024329215 2.3389186e-20)
(0.0082973473 0.022523768 1.8252728e-22)
(0.022224589 0.019014 -3.9390422e-20)
(0.039601323 0.01444012 -2.4315082e-20)
(0.060153218 0.0092650637 1.0466304e-20)
(0.083646059 0.0038214144 1.440229e-20)
(0.10987545 -0.0016536635 -1.311428e-20)
(0.13865639 -0.0069939536 -4.4041046e-20)
(0.16981465 -0.012086398 2.9620118e-20)
(0.20317934 -0.016858342 2.002156e-20)
(0.23857724 -0.021268837 -2.7552719e-20)
(0.2758327 -0.025301927 1.1650874e-20)
(0.31477123 -0.028963399 2.4199066e-20)
(0.35517137 -0.032310016 8.0729564e-21)
(0.3966626 -0.035514403 -1.1765115e-20)
(0.43960854 -0.03840118 -1.4190949e-20)
(0.48801952 -0.038643764 5.8738539e-21)
(-0.0047308473 0.0081238625 1.1094349e-20)
(-0.0070585031 0.015671401 -2.3353973e-20)
(-0.0020287286 0.018562126 8.620319e-21)
(0.009034004 0.018216058 3.3589613e-20)
(0.025258961 0.015650622 5.2126799e-20)
(0.046070303 0.011694642 2.0277462e-20)
(0.070990088 0.0069595026 -5.8642428e-21)
(0.099609333 0.0018809707 -1.22868e-20)
(0.13157835 -0.0032297439 -6.2060986e-21)
(0.1665873 -0.0081527977 3.424248e-20)
(0.20434827 -0.012737081 -4.5107851e-21)
(0.24458142 -0.016883593 -1.6644215e-20)
(0.28700394 -0.020533762 -1.9694521e-20)
(0.33132199 -0.02366218 -4.7446332e-20)
(0.37722941 -0.026272015 2.3239985e-20)
(0.42441536 -0.028395079 -1.4096827e-20)
(0.47253018 -0.030135592 2.5995113e-20)
(0.52106932 -0.031791933 2.1042157e-20)
(0.5702496 -0.033360238 -8.5574591e-20)
(0.6247472 -0.032069267 -1.07828e-22)
(-0.0037710412 0.0063147214 2.1925957e-20)
(-0.0028653869 0.010735037 -2.6166807e-20)
(0.0071432821 0.01156382 -4.50153e-20)
(0.024452559 0.0099243195 -2.7255032e-20)
(0.047874629 0.0066512047 -2.0440778e-21)
(0.076634208 0.0024890286 1.3050586e-20)
(0.11008421 -0.0020175123 -2.8338225e-21)
(0.14766175 -0.0064905814 1.8119297e-20)
(0.18887305 -0.010666767 8.8688909e-21)
(0.23326661 -0.014366294 -1.1380668e-20)
(0.28040887 -0.017473452 8.8784632e-21)
(0.32986622 -0.019921961 -2.3904418e-20)
(0.38119185 -0.021684526 8.0510047e-21)
(0.43391675 -0.0227664 1.6757311e-20)
(0.48754806 -0.023201547 -2.6396553e-21)
(0.54157854 -0.023054882 1.6619702e-21)
(0.59546932 -0.022478199 -3.1951504e-22)
(0.64855394 -0.021879632 1.9591605e-20)
(0.7008604 -0.021455393 4.0436291e-21)
(0.75749102 -0.018510286 -5.7458692e-22)
(-0.0019108856 0.0040273138 2.3693165e-20)
(0.0038701906 0.0046761581 5.716262e-20)
(0.020317176 0.0031872176 -4.9246346e-20)
(0.045181639 0.00029324059 -9.9458425e-21)
(0.076970319 -0.0034258238 2.0257145e-20)
(0.11470349 -0.0073557773 2.1434585e-21)
(0.15754845 -0.01105769 -2.9816355e-20)
(0.20476049 -0.014247433 6.9850344e-21)
(0.2556644 -0.016741798 7.1101754e-21)
(0.30962248 -0.018431418 -2.6255275e-20)
(0.36600714 -0.019265168 1.2928142e-21)
(0.42418317 -0.019237567 -3.7175943e-20)
(0.48349745 -0.018378557 -3.6342924e-20)
(0.54327481 -0.016745316 6.5687189e-20)
(0.60281979 -0.014415061 5.5630915e-21)
(0.66142276 -0.011484415 -1.5189934e-20)
(0.71834366 -0.0081113558 1.9365104e-20)
(0.77273635 -0.0046030015 -9.1893648e-22)
(0.82412677 -0.00097905028 2.0365154e-20)
(0.87625864 0.0043161428 -1.9556044e-20)
(-0.018832642 -0.0051003962 5.8357968e-20)
(-0.010219671 -0.0056356949 1.5785182e-20)
(-0.00021480986 -0.0060697214 -3.5143148e-20)
(0.010831188 -0.0063350139 1.6792167e-20)
(0.022652176 -0.0065130107 0)
(0.035189517 -0.0066311118 0)
(0.048383402 -0.0066920511 -2.2977666e-20)
(0.062154119 -0.006703671 -1.6504827e-20)
(0.076431261 -0.0066753569 1.9125125e-20)
(0.091155328 -0.0066138976 1.8176439e-20)
(0.10627135 -0.0065244852 1.0525243e-21)
(0.12172754 -0.0064116833 -1.0318957e-20)
(0.1374756 -0.0062794508 8.3282546e-21)
(0.15347033 -0.0061311351 1.8236163e-20)
(0.16966896 -0.0059695998 -5.2284595e-21)
(0.18603087 -0.0057973305 -1.0176328e-20)
(0.20251731 -0.0056164987 -4.3201823e-21)
(0.21909128 -0.0054290137 -4.4262164e-21)
(0.23571736 -0.005236568 7.3672289e-22)
(0.2523617 -0.0050406721 1.22883e-21)
(0.26899199 -0.0048426817 2.5672832e-21)
(0.28557746 -0.0046438167 6.6552152e-21)
(0.30208897 -0.0044451769 2.4867845e-22)
(0.31849899 -0.0042477523 -3.4522569e-21)
(0.33478173 -0.0040524309 1.5554706e-22)
(0.35091315 -0.0038600049 -5.7725082e-22)
(0.36687103 -0.0036711748 1.243797e-21)
(0.38263504 -0.0034865538 1.0524256e-21)
(0.39818669 -0.0033066709 -1.2995605e-21)
(0.41350944 -0.0031319752 -1.2215363e-22)
(0.42858863 -0.0029628393 3.5315329e-23)
(0.44341149 -0.0027995641 -3.5206649e-22)
(0.45796712 -0.0026423835 -4.0613399e-22)
(0.47224644 -0.0024914698 5.5741341e-23)
(0.48624217 -0.0023469391 -1.3821599e-22)
(0.49994874 -0.0022088581 -2.2361453e-22)
(0.51336231 -0.0020772501 2.5598865e-22)
(0.5264807 -0.001952102 2.9539374e-22)
(0.53930334 -0.0018333737 -8.5315158e-24)
(0.55183159 -0.0017210014 -1.5583459e-22)
(0.56406767 -0.0016149264 3.0399544e-23)
(0.57601854 -0.0015150503 -4.0218948e-23)
(0.58768463 -0.0014214488 9.2746057e-23)
(0.59909575 -0.0013337851 2.185484e-23)
(0.61020579 -0.00125336 -1.1547478e-22)
(0.62121014 -0.0011769403 -6.8869287e-24)
(0.63162445 -0.0011168487 -4.7283534e-27)
(0.64298038 -0.0010399518 -3.7643615e-24)
(0.65109558 -0.0010575558 2.9395227e-23)
(0.66781548 -0.00088323204 3.6235438e-22)
(0.010452379 -0.015019728 -1.274829e-20)
(0.018187444 -0.016643349 -6.3308571e-20)
(0.027788417 -0.017917966 -3.0545358e-20)
(0.03839598 -0.018674808 3.8480254e-20)
(0.04963361 -0.019186498 1.4664286e-20)
(0.061521205 -0.019532512 -1.8207277e-20)
(0.07402953 -0.019713108 4.6730683e-21)
(0.087081697 -0.019749892 2.5450218e-20)
(0.10061468 -0.019670831 9.1707337e-23)
(0.11457826 -0.019495395 -7.6602497e-21)
(0.12892433 -0.019238194 -1.3022253e-20)
(0.1436063 -0.01891228 -8.5259646e-21)
(0.15858029 -0.018529071 1.7774712e-20)
(0.17380479 -0.018098226 8.9317551e-21)
(0.18924007 -0.017628028 -1.6524239e-20)
(0.20484794 -0.017125702 -6.039916e-21)
(0.22059169 -0.016597588 3.214817e-21)
(0.23643596 -0.016049283 8.3726123e-21)
(0.25234672 -0.015485766 6.984477e-21)
(0.26829121 -0.014911499 -6.9744655e-21)
(0.28423805 -0.014330498 -3.1698652e-21)
(0.30015723 -0.01374639 1.3614995e-21)
(0.31602019 -0.013162452 3.878076e-22)
(0.33179991 -0.012581639 1.2119053e-21)
(0.34747097 -0.01200661 1.8395173e-22)
(0.36300961 -0.01143974 -3.2693678e-22)
(0.37839381 -0.010883134 -7.2479204e-22)
(0.39360334 -0.010338636 9.7253986e-22)
(0.40861977 -0.0098078439 8.2555877e-22)
(0.42342651 -0.0092921149 -1.5222348e-22)
(0.43800881 -0.0087925799 5.5375607e-22)
(0.45235375 -0.0083101558 -2.3893831e-22)
(0.46645023 -0.0078455599 -3.7138014e-22)
(0.48028891 -0.0073993252 -6.1085278e-22)
(0.49386219 -0.0069718178 4.4211848e-22)
(0.50716418 -0.006563255 -1.6276646e-23)
(0.52019066 -0.0061737253 1.6209561e-22)
(0.53293904 -0.005803208 -4.4308127e-22)
(0.5454083 -0.0054516012 3.737344e-22)
(0.55759936 -0.0051187318 6.7357634e-23)
(0.56951397 -0.004804442 -1.0288342e-22)
(0.58115858 -0.0045084539 1.7749631e-22)
(0.59253319 -0.0042310105 2.3554708e-22)
(0.60366684 -0.0039711208 1.7119366e-22)
(0.61451362 -0.0037326821 1.7009417e-22)
(0.62526603 -0.0035060664 -2.6557578e-23)
(0.63544615 -0.0033280015 8.6437482e-23)
(0.64656257 -0.003099859 7.8692702e-23)
(0.65449824 -0.0031525945 -1.9809727e-22)
(0.67089871 -0.0026354242 -3.7622005e-23)
(0.067626174 -0.024032769 9.4538506e-21)
(0.073602439 -0.026753011 3.2956613e-21)
(0.082279811 -0.02880987 -1.2164104e-20)
(0.091963844 -0.029973093 -1.2261948e-21)
(0.10200108 -0.030772724 1.4972553e-20)
(0.1125662 -0.03133602 -1.4888856e-20)
(0.12369799 -0.031641459 -2.9846163e-20)
(0.13532118 -0.031718644 1.4495638e-20)
(0.14738383 -0.031613514 1.8184607e-20)
(0.159853 -0.031356166 -1.1600235e-20)
(0.17269306 -0.030968155 1.0191923e-21)
(0.18586639 -0.030469305 8.6865799e-21)
(0.19933673 -0.029877314 -1.5256094e-20)
(0.213069 -0.029207208 2.9113189e-21)
(0.22702865 -0.028471931 7.5209582e-21)
(0.24118166 -0.027682875 3.0542755e-23)
(0.25549471 -0.026850127 2.6490164e-22)
(0.2699352 -0.025982665 -7.416881e-21)
(0.28447134 -0.025088534 3.8637968e-21)
(0.29907221 -0.024174994 8.4771855e-21)
(0.3137079 -0.023248619 -3.8362455e-21)
(0.3283496 -0.022315378 -2.2134855e-21)
(0.34296969 -0.021380689 1.0123186e-21)
(0.35754191 -0.020449462 -1.7162984e-21)
(0.37204139 -0.019526126 1.3535538e-21)
(0.38644479 -0.018614653 7.1865077e-22)
(0.40073033 -0.017718576 1.528756e-21)
(0.41487791 -0.016841003 -1.9547442e-21)
(0.42886909 -0.015984633 2.2261509e-21)
(0.44268716 -0.015151772 5.5248459e-22)
(0.45631715 -0.014344352 4.0479257e-22)
(0.46974581 -0.013563952 3.2151718e-22)
(0.4829616 -0.01281182 8.7516553e-22)
(0.49595469 -0.0120889 -1.3739464e-21)
(0.50871689 -0.011395857 3.7168975e-22)
(0.52124167 -0.010733111 1.1050923e-22)
(0.53352406 -0.010100867 -4.5560055e-23)
(0.54556074 -0.00949915 8.6306419e-23)
(0.55734985 -0.0089278466 -3.7323841e-22)
(0.56889147 -0.0083867258 1.8399062e-22)
(0.58018646 -0.0078755803 -3.5092985e-23)
(0.59124034 -0.007394002 3.9365256e-22)
(0.60205227 -0.0069424433 -1.8732412e-22)
(0.61264993 -0.0065193139 4.7666706e-23)
(0.62298773 -0.0061310887 4.4288292e-23)
(0.63325272 -0.0057619586 -7.4831285e-23)
(0.64297925 -0.0054723301 -1.2405124e-22)
(0.65363167 -0.0051004202 3.963957e-22)
(0.661219 -0.0051879237 1.7579884e-22)
(0.67700033 -0.00434521 -8.3462394e-22)
(0.1502332 -0.031465654 1.5013226e-21)
(0.15356616 -0.035263041 -1.1567417e-20)
(0.1606371 -0.038017002 6.6445399e-21)
(0.16882859 -0.039485551 -1.3326142e-20)
(0.17700683 -0.040527492 -1.9760487e-21)
(0.18555008 -0.041309433 9.1613377e-21)
(0.19461301 -0.041764732 -9.7680962e-21)
(0.20411807 -0.041921535 1.5659122e-21)
(0.21402134 -0.041841474 1.2905427e-20)
(0.22431232 -0.041562788 3.4040424e-21)
(0.23497174 -0.041110798 -6.2105208e-21)
(0.24597247 -0.040509495 -2.8646326e-21)
(0.2572871 -0.03978108 -5.8410757e-21)
(0.2688881 -0.038944666 -6.456658e-21)
(0.28074692 -0.038016862 3.2352743e-21)
(0.29283426 -0.037012462 8.4521252e-22)
(0.30512058 -0.035944758 1.3686065e-21)
(0.3175763 -0.03482573 -3.3856085e-21)
(0.33017203 -0.033666235 -4.2445209e-21)
(0.34287878 -0.032476166 2.3625638e-21)
(0.35566813 -0.031264561 3.2267079e-21)
(0.36851247 -0.030039686 -1.5648721e-21)
(0.38138509 -0.028809092 1.5875048e-21)
(0.39426041 -0.027579661 -3.9179813e-22)
(0.40711402 -0.026357632 -3.9225309e-21)
(0.41992289 -0.025148626 -3.0346175e-21)
(0.43266536 -0.023957663 -1.9081677e-22)
(0.4453213 -0.022789183 4.2824588e-22)
(0.45787211 -0.021647058 -2.2118914e-21)
(0.47030078 -0.02053462 -8.5674875e-22)
(0.48259191 -0.019454681 2.2848102e-22)
(0.49473172 -0.018409561 -1.2519406e-21)
(0.50670801 -0.017401122 5.7933691e-24)
(0.5185102 -0.016430799 -4.2536129e-22)
(0.53012927 -0.015499642 -4.7236773e-22)
(0.54155774 -0.014608356 -5.2224704e-22)
(0.55278968 -0.013757344 -8.4490219e-22)
(0.56382069 -0.012946758 -5.4247885e-23)
(0.5746478 -0.012176554 -3.9236147e-24)
(0.58526992 -0.011446524 -5.2249633e-22)
(0.59568672 -0.010756487 -9.1296265e-23)
(0.60590243 -0.01010598 -3.3502892e-22)
(0.61591513 -0.0094957297 -4.4214403e-22)
(0.62575057 -0.008923634 3.8254694e-22)
(0.63536373 -0.008398699 1.4989969e-23)
(0.6449339 -0.0078993077 1.8526903e-22)
(0.65401307 -0.0075082869 -1.3594109e-22)
(0.6640021 -0.0070046894 -2.7236719e-22)
(0.67109152 -0.0071261698 -4.1638143e-23)
(0.68598483 -0.0059859224 4.6488782e-22)
(0.25471051 -0.036559644 -2.0902505e-20)
(0.25449644 -0.041400862 4.7590079e-20)
(0.25910122 -0.044753503 1.0348927e-20)
(0.26511387 -0.04645032 -1.5766927e-20)
(0.27074102 -0.047723004 -2.0233419e-21)
(0.27655368 -0.04875688 2.6231465e-21)
(0.2828714 -0.049423231 -1.6613902e-21)
(0.28961514 -0.049738009 -4.6866897e-21)
(0.29673729 -0.049771726 -4.0164123e-21)
(0.30424881 -0.049567725 -1.2209205e-20)
(0.31214833 -0.049152728 1.7900807e-20)
(0.32041851 -0.048552203 6.5233764e-21)
(0.32903931 -0.047790719 -1.6782884e-20)
(0.33798973 -0.046890121 1.0318113e-20)
(0.34724638 -0.045869748 8.3852063e-21)
(0.35678389 -0.044747103 -8.7831419e-22)
(0.36657567 -0.043538202 -3.1219702e-21)
(0.37659446 -0.04225773 -3.8214515e-21)
(0.38681261 -0.040919195 -1.3900488e-21)
(0.39720244 -0.039535051 -1.2311712e-21)
(0.40773649 -0.038116795 -3.0274599e-21)
(0.41838781 -0.036675033 0)
(0.42913015 -0.035219529 -1.3460812e-21)
(0.43993816 -0.033759231 3.9323732e-21)
(0.45078754 -0.032302299 5.4082928e-21)
(0.46165515 -0.03085612 -9.4135168e-22)
(0.47251914 -0.029427326 -2.9304459e-21)
(0.48335903 -0.028021808 3.0295531e-21)
(0.49415576 -0.026644739 2.5348236e-22)
(0.50489176 -0.025300598 3.4394871e-21)
(0.51555092 -0.023993198 -5.348384e-22)
(0.52611867 -0.02272572 1.7194166e-21)
(0.53658194 -0.021500755 -8.012187e-22)
(0.54692917 -0.020320347 2.9219746e-22)
(0.55715026 -0.01918604 -4.3547319e-22)
(0.56723662 -0.018098936 5.6343546e-22)
(0.57718109 -0.017059746 4.5869593e-22)
(0.58697801 -0.016068851 3.8407994e-22)
(0.59662311 -0.015126384 -9.6351324e-22)
(0.6061139 -0.014232257 6.8697081e-22)
(0.61544869 -0.013386411 -3.7159367e-22)
(0.62463019 -0.012588425 -1.1114083e-21)
(0.63365523 -0.011839373 1.4197544e-21)
(0.64254729 -0.011136758 -6.2477279e-23)
(0.65126214 -0.010492039 -1.6008661e-22)
(0.65996946 -0.0098782963 -7.9466022e-24)
(0.66824361 -0.0093990589 -1.2949945e-22)
(0.67740528 -0.0087796024 -4.7439736e-22)
(0.68387452 -0.0089338544 8.7683956e-22)
(0.69765471 -0.007532932 -4.4630494e-23)
(0.37638265 -0.038376683 -1.7496966e-20)
(0.37174254 -0.044279237 1.2832976e-20)
(0.3729013 -0.048171139 2.9762109e-21)
(0.37594671 -0.050108853 -7.636136e-21)
(0.37834346 -0.051680439 1.2057225e-20)
(0.38076315 -0.053053309 7.7922644e-21)
(0.38371837 -0.05404144 -1.2648743e-20)
(0.38714522 -0.054644958 -6.0686826e-21)
(0.3909763 -0.054930305 1.2698869e-20)
(0.39523207 -0.054939872 -1.5307747e-20)
(0.39992662 -0.054700683 -1.4064981e-20)
(0.40505035 -0.054238243 1.4132629e-20)
(0.41058699 -0.053577667 6.8203704e-21)
(0.41651883 -0.052742369 -4.2059344e-21)
(0.4228253 -0.051753847 -1.8538343e-21)
(0.42948291 -0.05063199 -4.0577742e-21)
(0.43646632 -0.049395355 5.3044623e-21)
(0.44374901 -0.048061299 3.6688188e-21)
(0.45130379 -0.046646047 -3.2410976e-21)
(0.45910313 -0.045164753 3.1385016e-21)
(0.46711953 -0.043631551 2.7678159e-21)
(0.47532583 -0.042059594 -3.2123878e-21)
(0.48369544 -0.040461069 3.706511e-22)
(0.49220255 -0.038847213 -3.2578749e-21)
(0.50082233 -0.037228325 7.2513517e-21)
(0.509531 -0.03561377 6.1120946e-21)
(0.51830602 -0.034011994 8.1112658e-22)
(0.52712611 -0.032430538 -1.7695232e-21)
(0.53597136 -0.03087606 3.7071692e-21)
(0.54482328 -0.02935436 7.1979309e-21)
(0.55366476 -0.027870421 2.3071806e-21)
(0.56248018 -0.026428445 3.3217664e-21)
(0.57125534 -0.025031902 1.9985678e-21)
(0.57997749 -0.023683589 7.4720594e-22)
(0.58863531 -0.022385685 -2.6397196e-22)
(0.59721889 -0.021139819 2.7275402e-21)
(0.60571975 -0.019947135 6.217141e-22)
(0.61413083 -0.01880837 2.9574925e-22)
(0.62244644 -0.017723945 5.6392697e-23)
(0.63066263 -0.016694006 9.9483065e-22)
(0.63877626 -0.015718725 4.7172353e-23)
(0.64678842 -0.014797824 4.4573837e-22)
(0.65469467 -0.013932806 -1.2701889e-22)
(0.66251599 -0.013120903 -2.8022105e-22)
(0.67020929 -0.012375929 -1.5392152e-22)
(0.67793311 -0.011666248 -4.2786666e-22)
(0.68528824 -0.011114026 1.6514989e-22)
(0.69350152 -0.010397194 -1.2930422e-22)
(0.6992618 -0.010582653 -4.9991324e-22)
(0.71175689 -0.0089642931 2.4764446e-22)
(0.50931088 -0.035984276 3.6469964e-21)
(0.49956838 -0.042971173 -1.8959482e-20)
(0.4963151 -0.047394497 -2.3086793e-21)
(0.49559725 -0.04974831 5.4873951e-21)
(0.49421274 -0.051830089 3.0533566e-21)
(0.4927409 -0.053717975 -4.9382708e-23)
(0.49185953 -0.055200728 6.1909415e-21)
(0.49156395 -0.056278986 7.6261335e-21)
(0.49176345 -0.057004622 9.8590138e-21)
(0.492465 -0.057410158 -1.1251617e-20)
(0.49368796 -0.057521373 -2.1582921e-20)
(0.4954275 -0.057363972 -3.9365016e-21)
(0.49766739 -0.056963163 1.5940977e-20)
(0.50038891 -0.056343516 1.2811252e-20)
(0.50357093 -0.055528713 -5.9070561e-21)
(0.5071894 -0.054541301 1.3809354e-21)
(0.51121811 -0.053402718 -3.6616881e-21)
(0.51562955 -0.052133359 2.2466446e-21)
(0.52039544 -0.050752565 -2.9128244e-22)
(0.52548714 -0.049278595 -1.8660174e-21)
(0.53087602 -0.047728624 7.8300692e-21)
(0.53653371 -0.046118731 -2.9375943e-22)
(0.54243245 -0.044463897 4.1889075e-22)
(0.54854522 -0.042777993 -6.5596036e-22)
(0.55484595 -0.041073776 -4.3050937e-21)
(0.56130965 -0.039362892 4.2108181e-21)
(0.56791252 -0.037655878 1.9036386e-21)
(0.57463205 -0.035962182 -3.3103587e-21)
(0.58144706 -0.034290182 -4.1136675e-21)