/*--------------------------------*- C++ -*----------------------------------*\
  =========                 |
  \\      /  F ield         | OpenFOAM: The Open Source CFD Toolbox
   \\    /   O peration     | Website:  https://openfoam.org
    \\  /    A nd           | Version:  6
     \\/     M anipulation  |
\*---------------------------------------------------------------------------*/
FoamFile
{
    version     2.0;
    format      ascii;
    class       volScalarField;
    location    "107";
    object      p;
}
// * * * * * * * * * * * * * * * * * * * * * * * * * * * * * * * * * * * * * //

dimensions      [0 2 -2 0 0 0 0];

internalField   nonuniform List<scalar> 
9200
(
-0.37807962
-0.3667325
-0.35663829
-0.34768855
-0.33894842
-0.33043177
-0.32221688
-0.31427124
-0.30652752
-0.29891376
-0.29135701
-0.28378821
-0.2761492
-0.26839995
-0.26052922
-0.2525723
-0.24460552
-0.23671672
-0.22993076
-0.22852956
-0.39594114
-0.38214277
-0.37010488
-0.3596353
-0.3495231
-0.33974973
-0.33038393
-0.32136243
-0.3125857
-0.30395539
-0.2953783
-0.28677221
-0.27807342
-0.26924275
-0.2602711
-0.25118344
-0.24200963
-0.23274941
-0.22408566
-0.21818427
-0.41421962
-0.39794718
-0.38401153
-0.37209257
-0.36066362
-0.34965553
-0.33911573
-0.3289425
-0.31900215
-0.30917379
-0.29935313
-0.28945807
-0.27943556
-0.26926464
-0.25895635
-0.24854936
-0.23808246
-0.22756462
-0.21739508
-0.20868886
-0.43248097
-0.41375359
-0.39798556
-0.38467883
-0.37195339
-0.35967309
-0.34785625
-0.33636218
-0.32503094
-0.3137345
-0.30237821
-0.29090385
-0.27929274
-0.26756352
-0.25576552
-0.24396856
-0.23223921
-0.22061637
-0.20936748
-0.19923365
-0.45009523
-0.42901594
-0.41153229
-0.39691487
-0.38290262
-0.36928162
-0.35604093
-0.34301154
-0.33002781
-0.31698166
-0.3038178
-0.29053008
-0.27715729
-0.26377328
-0.25047356
-0.23736107
-0.22452589
-0.21202656
-0.20005127
-0.18910745
-0.46623784
-0.4430152
-0.42399158
-0.4081529
-0.39284727
-0.37778307
-0.36293253
-0.34812398
-0.33322019
-0.31816942
-0.30298861
-0.28774837
-0.27255861
-0.25755053
-0.24285829
-0.22860393
-0.21488211
-0.20174872
-0.18932974
-0.17796196
-0.47990363
-0.454865
-0.43453873
-0.41757889
-0.40095957
-0.38432731
-0.36766531
-0.35083998
-0.33378702
-0.31655037
-0.29924743
-0.28203937
-0.26510638
-0.24862415
-0.23274512
-0.2175872
-0.20322607
-0.18969285
-0.1770544
-0.16551191
-0.48992874
-0.46353514
-0.4422169
-0.42425946
-0.40631262
-0.38799497
-0.36934338
-0.35031453
-0.3309655
-0.31147088
-0.29206583
-0.27300169
-0.25451429
-0.23680051
-0.22000511
-0.20421793
-0.18947613
-0.17577158
-0.16311316
-0.15158813
-0.49497091
-0.46775031
-0.44574005
-0.42685877
-0.4075304
-0.38740767
-0.3666411
-0.34533493
-0.32370713
-0.30207853
-0.28079543
-0.26017672
-0.2404831
-0.22190133
-0.2045422
-0.18844883
-0.17360912
-0.15997141
-0.14749062
-0.13615647
-0.49367965
-0.46609357
-0.44356053
-0.42371144
-0.40289108
-0.38086995
-0.35797763
-0.33451173
-0.31086492
-0.28748735
-0.26479922
-0.24314153
-0.22275703
-0.20378939
-0.18629503
-0.17026176
-0.15562859
-0.14230604
-0.13020226
-0.11922212
-0.26519134
-0.26986585
-0.27237436
-0.27312549
-0.2729113
-0.27191867
-0.27022905
-0.26793
-0.2650937
-0.26177491
-0.25801766
-0.25385946
-0.24933342
-0.24446962
-0.23929632
-0.23384241
-0.22813877
-0.22220592
-0.21604289
-0.20973522
-0.26792417
-0.2721834
-0.27438514
-0.27491758
-0.27452031
-0.27337145
-0.27155056
-0.26914148
-0.26621286
-0.26281658
-0.25899429
-0.25478137
-0.25020906
-0.24530541
-0.2400961
-0.23460898
-0.22888242
-0.2229353
-0.2166603
-0.21003148
-0.27325402
-0.27670112
-0.27830483
-0.27840952
-0.2776533
-0.27619888
-0.27412229
-0.2715001
-0.26839402
-0.26485033
-0.26090583
-0.25659169
-0.25193537
-0.24696109
-0.24168966
-0.23614611
-0.23038018
-0.22440963
-0.21793532
-0.21069948
-0.28094095
-0.28322545
-0.28396356
-0.2834395
-0.28215034
-0.28023923
-0.27777823
-0.27483404
-0.27145873
-0.26769071
-0.26355993
-0.25909148
-0.25430726
-0.2492258
-0.2438611
-0.23823302
-0.23240326
-0.22639418
-0.21966026
-0.21157387
-0.29068265
-0.29151333
-0.29114982
-0.28980844
-0.28781738
-0.28529897
-0.28232211
-0.27894221
-0.27519991
-0.2711244
-0.26673736
-0.26205562
-0.25709354
-0.25186274
-0.2463691
-0.2406241
-0.23469743
-0.22862465
-0.22160106
-0.2124842
-0.30216531
-0.30131256
-0.29964615
-0.29731541
-0.29446277
-0.29119116
-0.28756849
-0.28363919
-0.27943189
-0.27496411
-0.27024674
-0.26528735
-0.26009149
-0.25466235
-0.24899667
-0.24309462
-0.23702591
-0.23084549
-0.22351755
-0.21326346
-0.31510995
-0.31239806
-0.30926184
-0.30579071
-0.30193269
-0.29777447
-0.29338688
-0.28880293
-0.28403656
-0.27909281
-0.27397108
-0.26866765
-0.26317749
-0.25749423
-0.25160553
-0.24549975
-0.23923939
-0.23290207
-0.22528398
-0.21390131
-0.32930055
-0.3245948
-0.319855
-0.31512045
-0.3101405
-0.30498856
-0.29973869
-0.2944117
-0.28900677
-0.28351452
-0.27791999
-0.2722052
-0.26635149
-0.26034042
-0.25414997
-0.24775958
-0.24122901
-0.23468182
-0.2268655
-0.21458586
-0.34458404
-0.33777037
-0.33131525
-0.32521796
-0.31902184
-0.3127857
-0.30658874
-0.30043902
-0.29431813
-0.28819904
-0.2820489
-0.27583126
-0.26950837
-0.26304146
-0.2563861
-0.2494944
-0.24239066
-0.23518108
-0.22660838
-0.21317014
-0.36086153
-0.35181703
-0.34353037
-0.33596577
-0.32844711
-0.3210184
-0.31376387
-0.30667658
-0.29971798
-0.2928418
-0.28599688
-0.27913006
-0.27218899
-0.26512222
-0.25787393
-0.25037967
-0.24258233
-0.23427528
-0.22380773
-0.20813824
-0.20258363
-0.1936342
-0.18467977
-0.17578436
-0.16689424
-0.1580511
-0.14930847
-0.14070141
-0.13225921
-0.12401047
-0.115981
-0.108193
-0.10066561
-0.09341519
-0.086455332
-0.079796924
-0.073448261
-0.067415149
-0.061701
-0.056306944
-0.051231954
-0.04647298
-0.042025105
-0.037881709
-0.034034645
-0.030474426
-0.027190418
-0.024171034
-0.021403934
-0.018876208
-0.016574569
-0.014485522
-0.012595536
-0.010891193
-0.0093593318
-0.0079871792
-0.0067624787
-0.0056735881
-0.0047096618
-0.0038605654
-0.0031177172
-0.0024720431
-0.0019213197
-0.0014485863
-0.001090165
-0.00073421544
-0.00072558207
-0.00010266899
-0.0017476045
0.0024835628
-0.20359389
-0.19424717
-0.1851837
-0.17630262
-0.16739448
-0.15852116
-0.14975411
-0.14112478
-0.13266001
-0.12438894
-0.11633768
-0.1085283
-0.10097991
-0.093708971
-0.086729128
-0.080051331
-0.073683942
-0.067632824
-0.061901443
-0.05649097
-0.051400409
-0.046626734
-0.042165038
-0.038008703
-0.034149575
-0.030578154
-0.027283785
-0.024254856
-0.021478991
-0.018943249
-0.016634303
-0.014538619
-0.012642622
-0.010932852
-0.0093961059
-0.0080195663
-0.0067909349
-0.005698528
-0.0047314595
-0.0038795556
-0.0031341943
-0.0024862655
-0.0019334878
-0.0014589093
-0.0010985711
-0.00074128664
-0.00072912099
-0.00010863314
-0.0017331101
0.0024548006
-0.20571303
-0.1955156
-0.18623468
-0.17742231
-0.16849059
-0.15955659
-0.15074191
-0.14206858
-0.13355677
-0.1252378
-0.11713899
-0.1092823
-0.10168697
-0.094369768
-0.087344636
-0.080622746
-0.074212663
-0.06812044
-0.062349694
-0.056901718
-0.051775609
-0.046968399
-0.042475217
-0.038289454
-0.034402944
-0.030806151
-0.027488372
-0.024437928
-0.02164237
-0.01908867
-0.016763408
-0.014652951
-0.012743626
-0.011021868
-0.00947437
-0.0080882151
-0.006851004
-0.0057509554
-0.0047770891
-0.0039191389
-0.0031683928
-0.002515655
-0.001958526
-0.0014800477
-0.0011157307
-0.00075559545
-0.00073638123
-0.00012041396
-0.0017046547
0.0023978917
-0.20878223
-0.19720799
-0.18760609
-0.17899273
-0.17007163
-0.16106095
-0.15219215
-0.14346987
-0.13489904
-0.12651605
-0.11835192
-0.11042867
-0.10276583
-0.095381018
-0.08828888
-0.081501108
-0.07502673
-0.068872204
-0.063041483
-0.057536127
-0.052355436
-0.047496591
-0.042954819
-0.038723557
-0.034794647
-0.031158526
-0.02780443
-0.024720595
-0.021894463
-0.019312881
-0.016962291
-0.014828911
-0.012898913
-0.011158574
-0.0095944265
-0.0081933946
-0.006942923
-0.0058310776
-0.00484673
-0.0039794705
-0.0032204452
-0.002560325
-0.0019965294
-0.0015120815
-0.0011417107
-0.00077719212
-0.00074744856
-0.00013795402
-0.001662972
0.0023140618
-0.21257476
-0.19905376
-0.18902863
-0.18081613
-0.17199106
-0.16290636
-0.15399453
-0.14523964
-0.13661522
-0.12816487
-0.11992812
-0.11192811
-0.1041848
-0.096717263
-0.08954154
-0.082670351
-0.076113568
-0.069878389
-0.063969388
-0.058388626
-0.053135796
-0.048208378
-0.043601811
-0.03930967
-0.035323866
-0.031634844
-0.028231801
-0.025102888
-0.022235428
-0.01961612
-0.017231232
-0.015066796
-0.01310878
-0.011343254
-0.0097565399
-0.0083353469
-0.00706691
-0.0059390888
-0.0049405545
-0.0040607014
-0.0032904838
-0.0026203902
-0.0020475973
-0.0015550958
-0.001176587
-0.00080612931
-0.00076244954
-0.00016113368
-0.0016091839
0.0022052019
-0.21674323
-0.20077235
-0.19023311
-0.18265925
-0.17407645
-0.16494939
-0.15601688
-0.14726383
-0.13861254
-0.13010821
-0.12180419
-0.1137281
-0.10590089
-0.098343511
-0.091074236
-0.084107579
-0.077454826
-0.071124382
-0.065121847
-0.059450128
-0.054109596
-0.049098263
-0.044411966
-0.040044565
-0.035988151
-0.032233262
-0.028769105
-0.025583783
-0.02266451
-0.01999783
-0.017569824
-0.015366308
-0.013373013
-0.011575756
-0.0099606013
-0.0085139964
-0.0072229146
-0.006074958
-0.0050585461
-0.0041628272
-0.0033785132
-0.0026958627
-0.0021117471
-0.0016091126
-0.0012203903
-0.00084242704
-0.00078151594
-0.00018979304
-0.0015447146
0.0020737702
-0.22088997
-0.20218215
-0.19100778
-0.18424433
-0.17612723
-0.16706299
-0.15814409
-0.14943017
-0.14079507
-0.13226817
-0.12391522
-0.11577371
-0.10786793
-0.10022119
-0.092854705
-0.085785747
-0.079027814
-0.072591129
-0.066482839
-0.060707142
-0.055265457
-0.050156631
-0.045377147
-0.040921346
-0.03678165
-0.032948804
-0.029412112
-0.026159678
-0.02317864
-0.020455401
-0.01797585
-0.015725566
-0.013690017
-0.011854734
-0.010205482
-0.0087284004
-0.0074101557
-0.0062380438
-0.0052001841
-0.0042854308
-0.0034842055
-0.0027864909
-0.0021887922
-0.0016740018
-0.0012730434
-0.00088603826
-0.00080475786
-0.00022375616
-0.0014711823
0.001922662
-0.22475401
-0.20367875
-0.19157697
-0.18538394
-0.17792912
-0.16915974
-0.1603325
-0.15168241
-0.14310082
-0.13458907
-0.12621198
-0.11801968
-0.11004422
-0.10231243
-0.094848869
-0.087674333
-0.080805328
-0.074254515
-0.068031091
-0.062140982
-0.056587029
-0.051369228
-0.046484965
-0.041929271
-0.037695074
-0.033773457
-0.030153921
-0.026824643
-0.023772734
-0.020984483
-0.018445595
-0.016141411
-0.014057116
-0.012177931
-0.010489288
-0.0089769844
-0.0076273351
-0.0064272883
-0.0053646194
-0.0044278438
-0.0036070477
-0.0028918956
-0.002278466
-0.0017495942
-0.0013344628
-0.0009369376
-0.00083233585
-0.0002629096
-0.0013903554
0.0017551701
-0.22599297
-0.20550665
-0.19263614
-0.1860143
-0.17904695
-0.17085926
-0.16230855
-0.15378763
-0.1453131
-0.13687845
-0.12853132
-0.12032958
-0.11231638
-0.10452439
-0.096982133
-0.089714505
-0.082741875
-0.076080181
-0.069741401
-0.063733849
-0.058062394
-0.052728714
-0.047731566
-0.043067075
-0.038729007
-0.034709067
-0.030997178
-0.027581774
-0.024450072
-0.021588349
-0.018982195
-0.016616755
-0.014476952
-0.012547698
-0.010814079
-0.0092615254
-0.0078759706
-0.0066439757
-0.00555293
-0.0045909649
-0.0037477837
-0.0030126865
-0.0023812638
-0.0018362794
-0.0014049667
-0.00099531068
-0.00086460141
-0.00030692599
-0.001304359
0.0015755773
-0.2161317
-0.20475228
-0.19375356
-0.18566538
-0.17860875
-0.17119542
-0.16325103
-0.15509609
-0.14690953
-0.13871741
-0.13054745
-0.12245714
-0.11450199
-0.10672494
-0.099161819
-0.091844196
-0.084798739
-0.078046921
-0.071605442
-0.065486659
-0.059698875
-0.054246635
-0.04913106
-0.044350182
-0.039899282
-0.03577122
-0.031956776
-0.02844497
-0.025223387
-0.022278479
-0.019595853
-0.017160546
-0.014957272
-0.012970655
-0.011185434
-0.0095866534
-0.0081598353
-0.006891113
-0.005767443
-0.0047765218
-0.0039076184
-0.0031496127
-0.0024975502
-0.0019340772
-0.0014843545
-0.0010606
-0.00090133809
-0.00035410703
-0.0012157552
0.0013894079
-0.19399379
-0.19869944
-0.19342537
-0.18452047
-0.17701717
-0.17000859
-0.16250753
-0.15464951
-0.14670038
-0.13872335
-0.13073798
-0.12279718
-0.11496024
-0.1072745
-0.099778971
-0.092508155
-0.085491689
-0.07875384
-0.072313825
-0.066186266
-0.06038149
-0.054905832
-0.04976198
-0.04494932
-0.040464291
-0.036300737
-0.032450252
-0.028902528
-0.025645687
-0.022666599
-0.01995119
-0.017484723
-0.015252063
-0.013237918
-0.011427057
-0.0098045088
-0.0083557402
-0.0070668009
-0.0059245355
-0.0049165127
-0.0040318226
-0.0032592311
-0.0025933159
-0.0020171696
-0.0015531578
-0.0011198932
-0.00093295095
-0.00040122307
-0.0011250479
0.0012045995
-0.18344362
-0.18926295
-0.18578924
-0.17705015
-0.16984675
-0.16359
-0.15688951
-0.14974547
-0.1424538
-0.13508954
-0.12766244
-0.12022108
-0.11282719
-0.10553182
-0.098377535
-0.091402659
-0.084640872
-0.078120445
-0.071864438
-0.065891106
-0.060214196
-0.054843217
-0.049783784
-0.045037964
-0.040604636
-0.036479849
-0.032657179
-0.02912809
-0.025882271
-0.022907976
-0.020192336
-0.017721659
-0.015481706
-0.013457946
-0.011635787
-0.010000784
-0.0085388346
-0.0072363289
-0.0060803676
-0.005058722
-0.0041605527
-0.0033748094
-0.0026956187
-0.0021071117
-0.0016278747
-0.0011856522
-0.00096676264
-0.00045644184
-0.0010233997
0.0010052208
-0.17470396
-0.17792384
-0.17564607
-0.1686252
-0.16227234
-0.15670959
-0.15077597
-0.14436207
-0.13773452
-0.13098845
-0.12413574
-0.11721879
-0.11029809
-0.10342655
-0.096648839
-0.090005653
-0.083533586
-0.077264125
-0.071223622
-0.065433619
-0.059911079
-0.054668617
-0.049714794
-0.045054444
-0.040689019
-0.036616941
-0.032833954
-0.029333482
-0.026106982
-0.023144279
-0.020433894
-0.01796335
-0.015719465
-0.013688611
-0.011856964
-0.010210722
-0.0087363105
-0.0074205491
-0.0062508652
-0.0052152942
-0.0043031078
-0.0035034898
-0.0028100871
-0.0022082037
-0.0017122636
-0.0012600847
-0.0010059295
-0.00051856299
-0.00091393945
0.00078669211
-0.16502417
-0.16563551
-0.16380338
-0.15885864
-0.15373583
-0.14891579
-0.14377337
-0.13817127
-0.13228685
-0.12622096
-0.12000126
-0.1136682
-0.10727891
-0.10088692
-0.094538763
-0.088277117
-0.082141071
-0.076165077
-0.070378681
-0.064806705
-0.059469414
-0.05438268
-0.049558211
-0.045003847
-0.040723871
-0.036719345
-0.032988449
-0.029526838
-0.026327986
-0.02338353
-0.020683606
-0.018217159
-0.015972246
-0.013936314
-0.012096453
-0.010439636
-0.0089529265
-0.007623669
-0.0064396978
-0.0053893769
-0.0044621394
-0.0036474378
-0.0029384606
-0.0023216885
-0.0018073582
-0.00134335
-0.0010516708
-0.00058498782
-0.0008042861
0.00055915004
-0.15445317
-0.15318492
-0.1513749
-0.14814506
-0.14431554
-0.14030043
-0.13595511
-0.13119704
-0.12610967
-0.12077605
-0.11523931
-0.10954249
-0.10373858
-0.097879966
-0.0920141
-0.08618493
-0.080433291
-0.074796029
-0.069305519
-0.063989656
-0.058871916
-0.053971446
-0.049303208
-0.044878219
-0.04070381
-0.036783929
-0.033119461
-0.029708559
-0.026546987
-0.023628461
-0.020944976
-0.018487135
-0.016244452
-0.01420564
-0.012358883
-0.010692077
-0.0091930653
-0.0078498288
-0.0066507069
-0.0055844704
-0.0046407796
-0.0038093931
-0.0030830946
-0.0024494844
-0.0019147883
-0.0014364338
-0.0011054487
-0.0006550237
-0.00070048268
0.00033076265
-0.14266479
-0.14060503
-0.13890967
-0.13695413
-0.13429549
-0.13111645
-0.12755831
-0.12362494
-0.11933845
-0.11475465
-0.10992446
-0.10489258
-0.099707432
-0.094419058
-0.08907473
-0.083718625
-0.078392212
-0.073133744
-0.067977666
-0.062954367
-0.05809012
-0.053407061
-0.048923258
-0.044652853
-0.040606262
-0.036790422
-0.03320907
-0.029863047
-0.026750612
-0.023867774
-0.021208613
-0.018765607
-0.016529934
-0.014491772
-0.012640578
-0.010965341
-0.0094548263
-0.0080977847
-0.0068831725
-0.0058002596
-0.0048390158
-0.0039895497
-0.0032443254
-0.0025919702
-0.0020350331
-0.0015396115
-0.0011682157
-0.00072818113
-0.00060853965
0.00011023471
-0.12996906
-0.12803869
-0.12669151
-0.12564806
-0.12395306
-0.12158373
-0.11878595
-0.11563129
-0.1121166
-0.10827142
-0.10414569
-0.099785806
-0.095234716
-0.090537354
-0.08573963
-0.08088519
-0.076015146
-0.071168017
-0.066379304
-0.061681083
-0.057101761
-0.052665954
-0.048394448
-0.044304255
-0.040408724
-0.036717721
-0.033237848
-0.029972701
-0.026923152
-0.024087648
-0.021462523
-0.019042303
-0.016820016
-0.014787486
-0.012935614
-0.011254647
-0.0097344238
-0.0083646006
-0.0071348726
-0.0060351112
-0.0050556907
-0.004187122
-0.0034216597
-0.0027488439
-0.0021680133
-0.0016527714
-0.0012406187
-0.00080399139
-0.00053438144
-9.3053163e-05
-0.11708172
-0.11573167
-0.11487322
-0.11448558
-0.11354615
-0.11191208
-0.10982511
-0.10738766
-0.10459299
-0.10145292
-0.098009559
-0.094307223
-0.090385756
-0.086284462
-0.08204443
-0.077707577
-0.073314033
-0.068901644
-0.06450589
-0.060159559
-0.055892373
-0.051730732
-0.04769758
-0.043812351
-0.040091001
-0.036546101
-0.033186982
-0.03001994
-0.027048463
-0.024273493
-0.021693708
-0.019305807
-0.017104805
-0.015084318
-0.013236848
-0.011554047
-0.010026975
-0.0086463267
-0.0074026616
-0.0062865614
-0.0052889086
-0.0044006769
-0.0036140412
-0.0029193353
-0.0023132475
-0.0017755552
-0.0013230135
-0.00088220771
-0.00048307053
-0.00027019004
-0.1045459
-0.10386245
-0.10351994
-0.10362633
-0.10327497
-0.10227822
-0.10083289
-0.09904268
-0.096904147
-0.094419589
-0.09162133
-0.088548349
-0.085235988
-0.081719215
-0.07803452
-0.074219448
-0.070311729
-0.066347842
-0.06236241
-0.058387978
-0.054454685
-0.050589931
-0.046818128
-0.043160563
-0.039635325
-0.036257322
-0.033038348
-0.029987209
-0.0271099
-0.024409815
-0.021887981
-0.019543317
-0.017372905
-0.015372259
-0.013535595
-0.011856099
-0.010326177
-0.0089376901
-0.0076821814
-0.0065510517
-0.0055357993
-0.0046279294
-0.0038196779
-0.0031020669
-0.0024697388
-0.0019072837
-0.0014153502
-0.00096280627
-0.00045801641
-0.0004139626
-0.092647188
-0.092549843
-0.092675784
-0.093169834
-0.093279838
-0.092817963
-0.091933296
-0.0907158
-0.089164296
-0.087276329
-0.085075142
-0.082592688
-0.079859044
-0.076904083
-0.073759838
-0.070459719
-0.067037495
-0.063526978
-0.059961178
-0.05637163
-0.052788051
-0.049238026
-0.045746711
-0.042336591
-0.039027335
-0.035835718
-0.032775614
-0.029858053
-0.027091322
-0.02448112
-0.022030744
-0.019741306
-0.017611967
-0.015640183
-0.01382196
-0.012152107
-0.010624476
-0.0092322008
-0.0079679172
-0.0068239471
-0.00579251
-0.004865716
-0.0040360066
-0.0032950135
-0.0026359369
-0.0020469133
-0.0015171021
-0.0010458989
-0.00046040555
-0.00052001094
-0.081525914
-0.081884594
-0.082392983
-0.083189635
-0.083660488
-0.083635737
-0.083226393
-0.082504581
-0.081468699
-0.080113379
-0.078454216
-0.0765158
-0.074322441
-0.071898741
-0.069271627
-0.066470133
-0.063524168
-0.060463929
-0.057319739
-0.054121375
-0.050897418
-0.047674894
-0.044478969
-0.041332658
-0.038256606
-0.035268928
-0.032385129
-0.029618085
-0.02697808
-0.024472894
-0.022107933
-0.019886396
-0.017809472
-0.015876549
-0.014085444
-0.012432636
-0.010913493
-0.0095225014
-0.0082534774
-0.0070997545
-0.006054371
-0.005110117
-0.0042597809
-0.0034955586
-0.0028097731
-0.0021930282
-0.0016272365
-0.0011315665
-0.0004889003
-0.00058764136
-0.071242535
-0.071929176
-0.072723943
-0.073745636
-0.074491661
-0.074814052
-0.074795695
-0.074492125
-0.073899652
-0.073010487
-0.0718339
-0.070387554
-0.068689891
-0.066760193
-0.0646202
-0.062294078
-0.059807543
-0.057187109
-0.054459754
-0.051652644
-0.048792533
-0.045905223
-0.043015211
-0.040145384
-0.037316744
-0.034548187
-0.031856355
-0.02925554
-0.026757664
-0.024372295
-0.02210672
-0.01996606
-0.017953415
-0.016070038
-0.01431553
-0.012688044
-0.011184495
-0.0098007721
-0.0085319384
-0.0073724118
-0.0063161339
-0.0053566485
-0.0044872223
-0.0037006061
-0.0029887437
-0.0023438665
-0.0017442303
-0.0012197029
-0.00053974546
-0.000620139
-0.061808966
-0.06271637
-0.063708835
-0.064884554
-0.065830318
-0.066418647
-0.066711567
-0.066750872
-0.066530417
-0.06604027
-0.065284476
-0.064274566
-0.063023411
-0.06154512
-0.05985635
-0.057976349
-0.055926292
-0.053728701
-0.051407023
-0.048985289
-0.046487744
-0.043938341
-0.041360295
-0.038775738
-0.036205425
-0.033668463
-0.031182106
-0.028761601
-0.026420099
-0.02416861
-0.02201602
-0.019969147
-0.018032834
-0.016210078
-0.014502188
-0.012908953
-0.011428831
-0.01005913
-0.0087962012
-0.0076355995
-0.0065722395
-0.005600487
-0.0047142054
-0.0039067232
-0.0031700189
-0.0024973623
-0.0018661217
-0.0013098667
-0.00060729375
-0.00062430776
-0.053210404
-0.054254423
-0.055370078
-0.056637863
-0.057717676
-0.058500218
-0.059031702
-0.059343031
-0.059426017
-0.059269034
-0.058871913
-0.058240992
-0.057384156
-0.056310734
-0.055032576
-0.053564174
-0.051922155
-0.050124828
-0.048191853
-0.046143888
-0.04400222
-0.041788394
-0.03952378
-0.037229189
-0.034924552
-0.032628627
-0.030358751
-0.028130633
-0.025958211
-0.023853555
-0.021826817
-0.019886237
-0.01803818
-0.016287222
-0.014636257
-0.013086631
-0.011638298
-0.010289977
-0.0090393137
-0.0078830359
-0.006817083
-0.0058367023
-0.0049364577
-0.0041103012
-0.0033505726
-0.0026512176
-0.001990613
-0.0014012259
-0.00068490584
-0.0006093005
-0.045416059
-0.046532407
-0.04771201
-0.049020851
-0.050179462
-0.051094624
-0.051800486
-0.05231951
-0.052642157
-0.052755724
-0.052656814
-0.052347564
-0.051831646
-0.051114183
-0.050202694
-0.049107249
-0.04784013
-0.046415476
-0.044849039
-0.043157907
-0.04136017
-0.039474574
-0.037520172
-0.035515953
-0.033480505
-0.031431705
-0.02938645
-0.027360418
-0.025367871
-0.023421518
-0.021532409
-0.019709886
-0.017961575
-0.016293411
-0.014709708
-0.01321325
-0.011805403
-0.010486249
-0.0092547159
-0.0081087104
-0.0070452309
-0.0060604555
-0.0051497344
-0.0043077042
-0.0035273059
-0.0028029841
-0.0021152057
-0.0014925773
-0.0007660192
-0.00058489803
-0.038384546
-0.039525423
-0.040723867
-0.042034006
-0.043226859
-0.044223461
-0.045048859
-0.0457191
-0.046224009
-0.046550456
-0.046692773
-0.046649883
-0.04642209
-0.046011027
-0.045420485
-0.044656617
-0.043727722
-0.042644006
-0.041417407
-0.040061402
-0.038590743
-0.037021162
-0.035369062
-0.033651208
-0.031884397
-0.030085155
-0.028269451
-0.026452445
-0.024648262
-0.022869812
-0.021128646
-0.019434855
-0.017797015
-0.016222166
-0.014715832
-0.013282067
-0.011923534
-0.010641592
-0.009436405
-0.0083070431
-0.007251575
-0.0062671437
-0.005349953
-0.0044953889
-0.003697157
-0.002950156
-0.0022373607
-0.0015824588
-0.0008451384
-0.00055971884
-0.032068431
-0.033199541
-0.034383883
-0.035665872
-0.036858543
-0.037895526
-0.038795101
-0.039568559
-0.040205694
-0.040693543
-0.041025033
-0.041196803
-0.041206635
-0.041053434
-0.040737954
-0.040263039
-0.039633509
-0.038856017
-0.037938951
-0.036892313
-0.035727533
-0.034457244
-0.033095025
-0.031655134
-0.030152238
-0.028601115
-0.027016381
-0.025412235
-0.023802216
-0.022199004
-0.020614238
-0.019058381
-0.017540621
-0.016068807
-0.014649423
-0.01328759
-0.011987103
-0.010750485
-0.0095790516
-0.0084729916
-0.007431431
-0.0064524924
-0.0055332793
-0.0046699852
-0.0038571802
-0.0030902532
-0.002354646
-0.0016692929
-0.00091846633
-0.00053982487
-0.026417659
-0.027515539
-0.028662876
-0.029896113
-0.03106321
-0.032108844
-0.033046325
-0.033883493
-0.034610581
-0.035215267
-0.035689802
-0.036029362
-0.036229993
-0.036288617
-0.036203662
-0.035975323
-0.035605525
-0.035097859
-0.034457556
-0.033691424
-0.032807742
-0.031816102
-0.030727219
-0.029552717
-0.028304902
-0.026996515
-0.025640477
-0.024249644
-0.022836569
-0.021413289
-0.01999113
-0.018580544
-0.017190974
-0.015830756
-0.014507048
-0.0132258
-0.01199174
-0.010808397
-0.0096781244
-0.0086021518
-0.0075806211
-0.006612625
-0.0056961872
-0.0048283515
-0.0040046039
-0.0032208964
-0.002464851
-0.0017515339
-0.0009840356
-0.00052814054
-0.02138185
-0.022431547
-0.023527062
-0.024698245
-0.025822093
-0.026852893
-0.027800323
-0.028669761
-0.029452203
-0.030136303
-0.030714211
-0.031180316
-0.031529612
-0.031757711
-0.03186139
-0.031838853
-0.031689741
-0.031415138
-0.03101759
-0.030501105
-0.029871104
-0.029134332
-0.028298733
-0.027373297
-0.026367881
-0.025293011
-0.024159671
-0.022979078
-0.021762464
-0.020520863
-0.019264917
-0.018004693
-0.016749535
-0.015507929
-0.014287406
-0.013094473
-0.011934563
-0.010812017
-0.0097300797
-0.00869091
-0.0076955925
-0.0067441527
-0.0058355274
-0.0049676313
-0.0041368806
-0.0033398716
-0.002566048
-0.0018277686
-0.0010413574
-0.0005247516
-0.016912192
-0.017905288
-0.018940496
-0.020042167
-0.021111455
-0.022110956
-0.023047688
-0.023925285
-0.024735693
-0.025468752
-0.026116919
-0.026674322
-0.027135454
-0.027495193
-0.027749263
-0.027894479
-0.027928797
-0.027851355
-0.027662532
-0.027363987
-0.026958666
-0.026450768
-0.025845676
-0.025149864
-0.024370775
-0.023516668
-0.022596456
-0.021619522
-0.020595525
-0.019534205
-0.018445199
-0.017337857
-0.016221083
-0.015103187
-0.013991763
-0.012893588
-0.01181455
-0.010759583
-0.0097326429
-0.0087366757
-0.0077736061
-0.0068443239
-0.0059486433
-0.0050853433
-0.0042517593
-0.0034451999
-0.0026566164
-0.0018967722
-0.0010908109
-0.00052785331
-0.012962491
-0.013895485
-0.014866766
-0.015896034
-0.016904581
-0.017862146
-0.01877378
-0.019641873
-0.020459402
-0.021217479
-0.02190914
-0.022528627
-0.02307035
-0.023528907
-0.023899463
-0.024177969
-0.024361234
-0.024446983
-0.024433937
-0.024321889
-0.024111737
-0.023805502
-0.023406303
-0.02291832
-0.022346719
-0.021697556
-0.020977654
-0.020194468
-0.01935593
-0.018470279
-0.017545895
-0.016591134
-0.015614162
-0.01462281
-0.013624436
-0.012625805
-0.011632992
-0.010651297
-0.0096851792
-0.0087382073
-0.0078130122
-0.0069112529
-0.0060335549
-0.005179529
-0.0043473974
-0.0035352282
-0.0027352539
-0.0019575329
-0.0011330444
-0.00053488401
-0.0094907399
-0.010363664
-0.011270971
-0.012228362
-0.01317395
-0.014083593
-0.014960856
-0.015807229
-0.016616712
-0.017381689
-0.018095925
-0.01875402
-0.019350592
-0.019880293
-0.020338113
-0.020719566
-0.021020765
-0.021238494
-0.021370294
-0.021414549
-0.02137055
-0.021238537
-0.021019719
-0.020716272
-0.02033131
-0.019868837
-0.019333673
-0.018731356
-0.018068031
-0.017350322
-0.016585184
-0.015779768
-0.014941264
-0.014076763
-0.01319312
-0.012296821
-0.011393874
-0.010489703
-0.0095890609
-0.0086959504
-0.0078135578
-0.006944188
-0.0060891892
-0.0052489428
-0.0044225118
-0.0036087415
-0.002801007
-0.0020092752
-0.0011686042
-0.00054343106
-0.0064589413
-0.0072744607
-0.0081204475
-0.0090091304
-0.0098926914
-0.010752204
-0.011590084
-0.012407146
-0.013198345
-0.013957274
-0.014678484
-0.015357067
-0.015988031
-0.016566307
-0.017086981
-0.017545454
-0.017937505
-0.018259368
-0.01850781
-0.018680229
-0.01877472
-0.018790145
-0.018726168
-0.018583291
-0.018362861
-0.018067057
-0.017698858
-0.017261987
-0.016760841
-0.016200399
-0.015586119
-0.014923814
-0.014219532
-0.013479424
-0.01270962
-0.011916098
-0.011104564
-0.010280342
-0.0094482651
-0.0086125829
-0.0077768672
-0.0069439327
-0.0061157361
-0.0052933505
-0.0044766132
-0.0036651403
-0.0028533623
-0.0020515254
-0.0011978477
-0.00055170954
-0.0038348889
-0.0045972096
-0.0053861995
-0.006211017
-0.0070356045
-0.0078454694
-0.0086421169
-0.0094258294
-0.010192421
-0.010936584
-0.01165364
-0.012339232
-0.01298885
-0.013597831
-0.014161538
-0.014675479
-0.015135368
-0.015537187
-0.015877266
-0.016152366
-0.016359755
-0.016497279
-0.01656342
-0.016557344
-0.016478936
-0.01632882
-0.016108355
-0.015819623
-0.015465388
-0.015049047
-0.01457456
-0.01404636
-0.013469258
-0.012848339
-0.012188845
-0.011496064
-0.010775207
-0.010031298
-0.0092690583
-0.0084927973
-0.0077063084
-0.0069127656
-0.006114614
-0.0053135151
-0.0045100057
-0.0037044342
-0.002892226
-0.0020840895
-0.0012209651
-0.0005586079
-0.0015929302
-0.0023078546
-0.0030458002
-0.0038132991
-0.0045840604
-0.0053473061
-0.006103802
-0.0068533985
-0.0075926471
-0.0083172071
-0.0090231109
-0.0097065472
-0.010363512
-0.010989804
-0.011581156
-0.012133323
-0.01264213
-0.013103527
-0.013513655
-0.013868919
-0.014166063
-0.014402239
-0.014575067
-0.0146827
-0.014723874
-0.014697941
-0.014604902
-0.014445417
-0.014220799
-0.013932992
-0.013584541
-0.013178534
-0.01271854
-0.012208522
-0.011652751
-0.011055707
-0.010421968
-0.0097561057
-0.0090625674
-0.0083455643
-0.0076089545
-0.0068561318
-0.0060898976
-0.0053123967
-0.0045247679
-0.0037280361
-0.0029185487
-0.0021075432
-0.0012384564
-0.00056375851
0.00029104756
-0.0003823011
-0.0010754121
-0.0017924398
-0.0025151504
-0.0032358746
-0.0039547768
-0.004671341
-0.0053827305
-0.0060854255
-0.0067760843
-0.0074513961
-0.008107838
-0.0087416712
-0.0093490278
-0.0099259757
-0.010468554
-0.010972817
-0.011434888
-0.011851021
-0.012217668
-0.012531539
-0.012789669
-0.01298948
-0.013128839
-0.013206112
-0.013220203
-0.013170593
-0.013057357
-0.012881172
-0.012643313
-0.012345627
-0.011990497
-0.011580788
-0.011119779
-0.010611091
-0.010058591
-0.0094662942
-0.0088382576
-0.0081784654
-0.0074907111
-0.0067784767
-0.0060447996
-0.0052921905
-0.004522294
-0.0037367226
-0.0029326693
-0.0021218756
-0.001250137
-0.00056666645
0.0018141823
0.001174612
0.00051831761
-0.00015710405
-0.00083983905
-0.0015246633
-0.0022112445
-0.0028987695
-0.0035848919
-0.0042667561
-0.0049415385
-0.0056063549
-0.006258104
-0.0068934644
-0.0075089472
-0.0081009413
-0.0086657376
-0.0091995649
-0.0096986302
-0.010159172
-0.010577511
-0.010950112
-0.011273641
-0.011545027
-0.011761522
-0.011920763
-0.012020824
-0.012060262
-0.012038157
-0.011954146
-0.011808428
-0.011601776
-0.011335526
-0.01101155
-0.010632208
-0.010200297
-0.0097189753
-0.0091916792
-0.0086220255
-0.0080137025
-0.0073703541
-0.0066954565
-0.0059921799
-0.0052633002
-0.0045108594
-0.003736965
-0.0029395443
-0.0021307767
-0.00125861
-0.00056864605
0.0030172759
0.0024054817
0.0017793209
0.0011380175
0.00048835899
-0.00016638903
-0.00082550922
-0.0014879377
-0.0021516988
-0.002814455
-0.0034737929
-0.0041271721
-0.0047718372
-0.0054048165
-0.0060229496
-0.0066229162
-0.0072012529
-0.007754381
-0.008278637
-0.0087703156
-0.0092257119
-0.0096411745
-0.010013157
-0.010338277
-0.010613378
-0.010835586