/*--------------------------------*- C++ -*----------------------------------*\
  =========                 |
  \\      /  F ield         | OpenFOAM: The Open Source CFD Toolbox
   \\    /   O peration     | Website:  https://openfoam.org
    \\  /    A nd           | Version:  6
     \\/     M anipulation  |
\*---------------------------------------------------------------------------*/
FoamFile
{
    version     2.0;
    format      ascii;
    class       surfaceScalarField;
    location    "107";
    object      phi_0;
}
// * * * * * * * * * * * * * * * * * * * * * * * * * * * * * * * * * * * * * //

dimensions      [0 3 -1 0 0 0 0];

internalField   nonuniform List<scalar> 
18180
(
0.000318748
-0.00016319712
-0.00015555089
0.0013092861
-0.0013670682
0.0003765301
0.0030330588
-0.0033339288
0.0016101561
0.005550083
-0.0059764642
0.00345944
0.0089186887
-0.0092398192
0.0058712135
0.013193531
-0.01308054
0.0088056976
0.018422933
-0.017461158
0.012231756
0.02464591
-0.022347455
0.016124477
0.031889029
-0.027705337
0.020462218
0.040163325
-0.033498217
0.025223922
0.049461618
-0.039685256
0.030386963
0.059756588
-0.046220442
0.035925471
0.071000008
-0.053052499
0.041809079
0.0831236
-0.060125644
0.048002053
0.096042117
-0.067381292
0.054462774
0.10965919
-0.074760823
0.061143754
0.12387532
-0.082209254
0.067993121
0.13860315
-0.089679541
0.074951711
0.15384123
-0.097154548
0.081916467
-0.1046319
0.088684979
0.16978815
0.00039751842
-0.00056071553
0.0016096792
-0.002579229
0.0036895086
-0.0054137583
0.0066877842
-0.0089747398
0.010651187
-0.013203222
0.015618641
-0.018047994
0.021617306
-0.023459823
0.028658614
-0.029388763
0.036734636
-0.035781359
0.045815184
-0.042578765
0.055846075
-0.049716147
0.06674892
-0.057123287
0.078422671
-0.06472625
0.090747028
-0.07245
0.10358748
-0.080221746
0.11680141
-0.087974752
0.13024426
-0.095652107
0.14377634
-0.10321162
0.1572617
-0.11063991
-0.11786749
0.17049729
0.00048064726
-0.0010413628
0.001918791
-0.0040173727
0.0043526854
-0.0078476526
0.0078169276
-0.012438982
0.012338228
-0.017724522
0.017930007
-0.023639773
0.024587315
-0.030117131
0.032282563
-0.03708401
0.040962488
-0.044461284
0.050546856
-0.052163133
0.060929265
-0.060098555
0.071980222
-0.068174244
0.083552374
-0.076298402
0.095487472
-0.084385099
0.10762435
-0.092358621
0.11980682
-0.10015722
0.13189037
-0.10773566
0.14374556
-0.11506681
0.15525041
-0.12214476
-0.12891943
0.16630236
0.00056619572
-0.0016075585
0.0022280419
-0.0056792189
0.0050008292
-0.01062044
0.0088943889
-0.016332542
0.013905833
-0.022735966
0.020012682
-0.029746623
0.027167532
-0.037271981
0.035294709
-0.045211187
0.044289385
-0.053455961
0.054019513
-0.06189326
0.064330618
-0.070409661
0.07505313
-0.078896756
0.086011549
-0.087256821
0.097034465
-0.095408015
0.10796429
-0.10328844
0.11866555
-0.11085849
0.12903092
-0.11810104
0.13898386
-0.12501974
0.14847536
-0.13163626
-0.13794985
0.15750578
0.00065091398
-0.0022584725
0.0025244454
-0.0075527504
0.0056038579
-0.013699852
0.0098648454
-0.020593529
0.015265178
-0.028136299
0.02173718
-0.036218625
0.02918346
-0.04471826
0.037476068
-0.053503795
0.046459342
-0.062439235
0.055956297
-0.071390216
0.06577795
-0.080231314
0.075734518
-0.088853323
0.085647131
-0.097169435
0.095358637
-0.10511952
0.1047422
-0.11267201
0.11370686
-0.11982315
0.12219966
-0.12659383
0.13020444
-0.13302452
0.13773742
-0.13916924
-0.14507176
0.14485932
0.00073066453
-0.0029891371
0.0027921913
-0.0096142771
0.0061267958
-0.017034457
0.010667081
-0.025133815
0.016323186
-0.033792404
0.022975952
-0.042871391
0.030475299
-0.052217607
0.038643402
-0.061671898
0.047282281
-0.071078114
0.056184858
-0.080292792
0.065147975
-0.089194431
0.073985579
-0.097690927
0.082540281
-0.10572414
0.090691848
-0.11327109
0.098361693
-0.12034185
0.10551318
-0.12697464
0.11214828
-0.13322893
0.11830148
-0.13917771
0.12403227
-0.14490004
-0.15046705
0.12942756
0.00080075997
-0.0037898971
0.0030140188
-0.011827536
0.006533106
-0.020553544
0.011240395
-0.029841104
0.016993181
-0.03954519
0.023619163
-0.049497372
0.030918942
-0.059517387
0.038674114
-0.06942707
0.046659585
-0.079063585
0.054658162
-0.08829137
0.062475109
-0.097011378
0.069950426
-0.10516624
0.076967193
-0.1127409
0.083455039
-0.11975893
0.089388718
-0.12627553
0.094782564
-0.13236849
0.09968218
-0.13812855
0.10415499
-0.14365052
0.10828121
-0.14902626
-0.15433693
0.1121511
0.00085608657
-0.0046459836
0.0031721574
-0.014143607
0.0067874197
-0.024168807
0.011530107
-0.034583792
0.017203848
-0.04521893
0.023587053
-0.055880577
0.030440435
-0.066370768
0.037519896
-0.076506531
0.044592316
-0.086136005
0.05145141
-0.095150463
0.057930867
-0.10349083
0.063912786
-0.11114816
0.069330383
-0.1181585
0.074165127
-0.12459368
0.078439363
-0.13054977
0.082206105
-0.13613523
0.085537927
-0.14146037
0.088516643
-0.14662924
0.091225101
-0.15173472
-0.15685508
0.093743247
0.00089028823
-0.0055362719
0.0032483703
-0.016501689
0.0068577909
-0.027778227
0.011492719
-0.03921872
0.016907139
-0.05063335
0.022839271
-0.061812708
0.02902405
-0.072555547
0.035209583
-0.082692064
0.041174158
-0.09210058
0.046740468
-0.10071677
0.051784519
-0.10853489
0.056238022
-0.11560166
0.060084475
-0.12200495
0.063350285
-0.12785949
0.066092945
-0.13329243
0.068388477
-0.13843076
0.070320037
-0.14339193
0.071969045
-0.14827825
0.073409433
-0.15317511
-0.15815043
0.074704786
0.00089984125
-0.0064361131
0.0032334549
-0.018835302
0.0067293021
-0.031274074
0.011111374
-0.043600791
0.016092721
-0.055614697
0.021384862
-0.06710485
0.026714083
-0.077884767
0.031839222
-0.087817204
0.036567048
-0.096828406
0.040762045
-0.10491177
0.044349021
-0.11212186
0.047308641
-0.11856129
0.049667426
-0.12436374
0.051484555
-0.12967662
0.052837984
-0.13464586
0.053812
-0.13940478
0.054487616
-0.14406755
0.054936453
-0.14872709
0.055217912
-0.15345656
0.055378076
-0.1583106
-0.00020238956
0.00020238957
-2.5217951e-11
-0.00067778259
0.00047539305
-4.6653864e-11
-0.0013424947
0.00066471215
-6.4037724e-11
-0.0021323998
0.00078990514
-7.9973446e-11
-0.0029959161
0.00086351639
-9.3446539e-11
-0.0038909186
0.00089500261
-1.0415328e-10
-0.004782505
0.00089158648
-1.1319903e-10
-0.0056411265
0.00085862157
-1.2084325e-10
-0.0064411171
0.00079999072
-1.2845707e-10
-0.0071595428
0.00071842579
-1.3524449e-10
-0.0077752828
0.00061574015
-1.4256434e-10
-0.0082682945
0.00049301183
-1.4832951e-10
-0.0086190335
0.00035073911
-1.542401e-10
-0.0088080203
0.00018898686
-1.5719611e-10
-0.0088155848
7.564675e-06
-1.5966611e-10
-0.0086218906
-0.00019369405
-1.5755316e-10
-0.0082071983
-0.00041469218
-1.5412179e-10
-0.0075514603
-0.00065573787
-1.4423714e-10
-0.0066339152
-0.00091754507
-1.3244504e-10
-0.0011865094
-0.0054474057
-1.1541455e-10
-0.00018798442
0.00039037398
-0.00062503847
0.00091244708
-0.0012288124
0.001268486
-0.0019352834
0.0014963762
-0.0026922567
0.0016204896
-0.0034564259
0.0016591718
-0.0041912264
0.001626387
-0.0048650262
0.0015324213
-0.0054496875
0.001384652
-0.005919432
0.0011881702
-0.0062499248
0.000946233
-0.0064175333
0.00066062029
-0.0063987216
0.0003319274
-0.0061695718
-4.0162992e-05
-0.0057054586
-0.00045654854
-0.0049809692
-0.00091818343
-0.0039701192
-0.0014255422
-0.0026462733
-0.0019795839
-0.000981995
-0.0025818234
-0.0032024434
0.001033939
-0.00015893522
0.00054930919
-0.00051891382
0.0012724257
-0.0010008101
0.0017503823
-0.0015413158
0.0020368819
-0.0020874178
0.0021665916
-0.0025938064
0.0021655604
-0.0030209315
0.0020535121
-0.0033333344
0.0018448243
-0.0034983027
0.0015496204
-0.003484794
0.0011746614
-0.0032625516
0.00072399062
-0.0028013852
0.00019945382
-0.0020705365
-0.00039892131
-0.0010381658
-0.0010725337
0.00032907765
-0.001823792
0.0020663324
-0.0026554382
0.0042104842
-0.0035696941
0.0067998604
-0.0045689601
0.0098741604
-0.0056561233
-0.0067809552
0.013452672
-0.00011757087
0.00066688006
-0.00036700872
0.0015218635
-0.00067352799
0.0020569016
-0.00097483809
0.002338192
-0.0012168548
0.0024086082
-0.0013515697
0.0023002753
-0.0013353931
0.0020373354
-0.0011276985
0.0016371297
-0.00068962672
0.0011115486
1.6866836e-05
0.00046816788
0.0010297962
-0.00028893872
0.0023877916
-0.0011585417
0.0041306454
-0.0021417751
0.0062997926
-0.0032416809
0.0089388179
-0.0044628174
0.012094012
-0.0058106323
0.015814746
-0.0072904283
0.020153172
-0.0089073858
0.025164008
-0.01066696
-0.012494581
0.030877634
-6.6907706e-05
0.00073378776
-0.00017916287
0.0016341187
-0.00026651878
0.0021442575
-0.00026765348
0.0023393267
-0.00012711779
0.0022680725
0.0002063014
0.0019668561
0.00078090988
0.0014627269
0.0016432755
0.00077476401
0.0028391981
-8.4374064e-05
0.0044144951
-0.0011071292
0.0064155654
-0.002290009
0.0088898054
-0.0036327816
0.011885934
-0.0051379041
0.015454325
-0.0068100713
0.019647375
-0.008655868
0.024520132
-0.010683388
0.030131163
-0.01290146
0.036543075
-0.015319297
0.04382327
-0.017947155
-0.020685397
0.052014086
-9.9808443e-06
0.00074376861
3.455271e-05
0.0015895851
0.00019993551
0.0019788747
0.00054685613
0.0019924061
0.0011324041
0.0016825246
0.0020112304
0.0010880298
0.0032365119
0.00023744539
0.004860834
-0.00084955815
0.0069368485
-0.0021603885
0.0095176474
-0.0036879281
0.012656972
-0.0054293335
0.016409316
-0.0073851261
0.020829855
-0.0095584429
0.025974281
-0.011954497
0.031898706
-0.014580294
0.038659964
-0.017444646
0.046316789
-0.020558285
0.054931883
-0.02393439
0.06457574
-0.027591013
-0.031409408
0.075299751
5.0758653e-05
0.00069300997
0.00026568884
0.0013746549
0.00070832874
0.0015362348
0.0014391712
0.0012615636
0.002517055
0.00060464076
0.0039999265
-0.00039484178
0.0059454363
-0.0017080644
0.0084113277
-0.0033154496
0.011455567
-0.0052046282
0.015136314
-0.0073686747
0.01951165
-0.0098046694
0.024639053
-0.01251253
0.030574664
-0.015494053
0.037372382
-0.018752215
0.045082936
-0.022290848
0.053753339
-0.026115049
0.063427697
-0.030232643
0.074150604
-0.034657298
0.085976086
-0.039416495
-0.044393214
0.098959892
0.00011380682
0.00057920315
0.00050854665
0.00097991512
0.0012460835
0.00079869796
0.0023869653
0.00012068177
0.0039915476
-0.00099994162
0.0061203386
-0.0025236328
0.0088339793
-0.0044217051
0.012193067
-0.0066745373
0.01625775
-0.0092693112
0.021086982
-0.012197906
0.026737483
-0.015455171
0.033262414
-0.019037461
0.040709789
-0.022941428
0.049120665
-0.027163091
0.058527248
-0.031697431
0.068951266
-0.036539067
0.080403787
-0.041685165
0.09288834
-0.04714185
0.10641241
-0.052940563
-0.0590011
0.12102029
0.00017850914
0.00040069401
0.00076008404
0.00039834022
0.0018054642
-0.00024668215
0.0033749436
-0.0014487976
0.005529367
-0.003154365
0.0083298731
-0.0053241389
0.01183727
-0.0079291019
0.016111112
-0.010948379
0.021208418
-0.014366618
0.027182051
-0.01817154
0.034078788
-0.022351907
0.041937117
-0.02689579
0.050784812
-0.031789123
0.060636292
-0.037014571
0.07148977
-0.04255091
0.083324247
-0.048373544
0.096097302
-0.05445822
0.10974643
-0.06079098
0.12420253
-0.067396663
-0.074280506
0.13948194
0.00024514312
0.0010200134
0.0023834874
0.0043941297
0.0071109781
0.010592537
0.014895191
0.020071289
0.02616689
0.033219272
0.041254328
0.050284009
0.060303965
0.071291447
0.083203311
0.095973522
0.10950842
0.12366915
0.13818896
0.15259343
-0.0035064445
-0.0019409611
-1.2381951e-10
-0.0012842756
-0.0022221688
-7.4379918e-11
0.001196769
-0.0024810446
-1.8714466e-11
0.0038797877
-0.0026830188
4.241436e-11
0.0067379777
-0.0028581902
1.1423527e-10
0.0097540355
-0.003016058
2.0521039e-10
0.012909028
-0.003154993
3.1262797e-10
0.016184935
-0.0032759071
4.3191452e-10
0.019566056
-0.0033811216
5.5476714e-10
0.023038174
-0.0034721192
6.73758e-10
0.026588006
-0.0035498322
7.8156268e-10
0.030203128
-0.0036151227
8.7343118e-10
0.033871899
-0.0036687723
9.4038645e-10
0.037583326
-0.0037114282
9.7527599e-10
0.041326961
-0.0037436354
9.6749847e-10
0.045092833
-0.0037658737
9.1099086e-10
0.048871408
-0.0037785748
7.9787638e-10
0.052653543
-0.0037821359
6.2677861e-10
0.056430476
-0.0037769338
3.9604953e-10
0.060193813
-0.003763337
1.1265561e-10
0.063935527
-0.003741714
-2.1558405e-10
0.067647968
-0.0037124398
-5.7064239e-10
0.071323868
-0.0036758998
-9.3421487e-10
0.074956362
-0.0036324919
-1.2773872e-09
0.07853899
-0.0035826268
-1.5744125e-09
0.082065718
-0.0035267264
-1.7904235e-09
0.085530943
-0.0034652226
-1.9006981e-09
0.088929498
-0.0033985532
-1.8742285e-09
0.092256659
-0.0033271593
-1.7003242e-09
0.095508141
-0.0032514812
-1.3641273e-09
0.098680097
-0.0031719553
-8.8226478e-10
0.10176911
-0.0030890105
-2.6401529e-10
0.10477217
-0.0030030654
4.3960294e-10
0.1076867
-0.002914527
1.1974137e-09
0.11051049
-0.0028237885
1.927582e-09
0.11324171
-0.00273123
2.5933105e-09
0.11587893
-0.0026372192
3.0943565e-09
0.11842104
-0.0025421141
3.4120906e-09
0.12086731
-0.0024462705
3.4432852e-09
0.12321735
-0.0023500427
3.2001089e-09
0.12547117
-0.0022538263
2.6062483e-09
0.12762915
-0.0021579825
1.6925933e-09
0.12969237
-0.002063218
4.8556148e-10
0.1316619
-0.0019695285
-8.7523558e-10
0.13354199
-0.0018800855
-2.2670791e-09
0.13533125
-0.0017892613
-3.5247481e-09
0.1370545
-0.0017232487
-4.3375644e-09
0.13866752
-0.0016130141
-4.6282854e-09
0.14037221
-0.0017046858
-4.3712668e-09
-0.0013520214
-2.1717177e-09
0.0028549007
-0.0037619228
0.004952438
-0.0043197061
0.0072957362
-0.0048243428
0.0098223508
-0.0052096333
0.012511221
-0.0055470608
0.015350025
-0.0058548619
0.018322023
-0.0061269912
0.021410811
-0.0063646947
0.024602371
-0.0065726816
0.027883943
-0.0067536911
0.031243397
-0.0069092865
0.034669255
-0.0070409802
0.038150661
-0.0071501787
0.041677273
-0.0072380397
0.045239175
-0.0073055371
0.048826837
-0.0073535356
0.052431083
-0.0073828214
0.056043073
-0.0073941262
0.059654292
-0.0073881528
0.063256552
-0.0073655964
0.066841998
-0.0073271598
0.070403122
-0.0072735643
0.073932779
-0.0072055568
0.077424199
-0.0071239121
0.080871006
-0.0070294334
0.084267228
-0.0069229487
0.087607312
-0.0068053064
0.090886128
-0.0066773693
0.094098976
-0.0065400069
0.097241583
-0.0063940885
0.1003101
-0.0062404764
0.10330111
-0.0060800185
0.10621159
-0.0059135438
0.10903892
-0.0057418579
0.11178087
-0.0055657403
0.11443559
-0.0053859449
0.11700157
-0.0052032023
0.11947768
-0.005018224
0.12186313
-0.0048317186
0.12415748
-0.004644391
0.12636068
-0.0044570318
0.12847306
-0.0042703616
0.13049564
-0.0040857914
0.13242942
-0.0039033164
0.13427859
-0.0037292472
0.13604175
-0.0035524274
0.13774327
-0.0034247676
0.13933996
-0.0032096997
0.14102853
-0.0033932587
-0.0027015819
0.015024376
-0.0053336268
0.016855881
-0.0061512113
0.018909866
-0.0068783276
0.021116401
-0.0074161677
0.023463852
-0.0078945117
0.025948569
-0.0083395794
0.028557937
-0.0087363593
0.031278478
-0.0090852352
0.034099092
-0.0093932959
0.037009552
-0.0096641516
0.039999741
-0.0098994747
0.043059799
-0.010101038
0.046180204
-0.010270584
0.049351705
-0.010409541
0.052565275
-0.010519107
0.055812105
-0.010600366
0.059083611
-0.010654327
0.062371432
-0.010681948
0.065667453
-0.010684173
0.068963812
-0.010661955
0.072252928
-0.010616276
0.07552752
-0.010548157
0.078780631
-0.010458668
0.082005647
-0.010348929
0.085196321
-0.010220107
0.088346785
-0.010073412
0.091451565
-0.0099100872
0.094505595
-0.0097313994
0.097504216
-0.0095386274
0.10044318
-0.0093330533
0.10331865
-0.009115948
0.1061272
-0.0088885643
0.10886578
-0.0086521278
0.11153175
-0.0084078303
0.11412284
-0.0081568271
0.11663713
-0.0079002363
0.11907307
-0.0076391429
0.12142945
-0.0073746059
0.12370542
-0.0071076808
0.12590045
-0.0068394206
0.12801442
-0.0065710072
0.13004758
-0.0063035206
0.13200086
-0.0060390697
0.13387521
-0.0057776653
0.13567464
-0.0055286742
0.13739786
-0.0052756563
0.13906828
-0.0050951836
0.14064503
-0.0047864463
0.14231423
-0.0050624568
-0.0040593909
0.032061312
-0.0065173049
0.033476925
-0.0075668244
0.03508288
-0.0084842824
0.0368062
-0.0091394879
0.038647574
-0.009735885
0.0406133
-0.010305306
0.042696211
-0.01081927
0.044886785
-0.011275809
0.047177449
-0.011683959
0.049560976
-0.012047679
0.052029661
-0.01236816
0.054575552
-0.012646929
0.057190639
-0.012885672
0.059866884
-0.013085786
0.062596228
-0.01324845
0.065370629
-0.013374767
0.06818211
-0.013465808
0.071022799
-0.013522637
0.073884968
-0.013546342
0.07676107
-0.013538057
0.079643778
-0.013498984
0.08252602
-0.013430398
0.085401008
-0.013333656
0.088262269
-0.01321019
0.091103668
-0.013061506
0.093919429
-0.012889173
0.09670415
-0.012694808
0.099452815
-0.012480065
0.1021608
-0.012246615
0.10482388
-0.011996136
0.10743823
-0.011730294
0.1100004
-0.011450733
0.11250733
-0.011159062
0.11495635
-0.010856848
0.11734514
-0.010545613
0.11967173
-0.010226828
0.12193451
-0.0099019263
0.12413221
-0.0095723088
0.12626391
-0.0092393731
0.128329
-0.0089045178
0.13032731
-0.0085693141
0.13225899
-0.0082352023
0.1341249
-0.0079049812
0.13592594
-0.0075787019
0.13766593
-0.0072686644
0.13934379
-0.0069535126
0.14098152
-0.0067329174
0.14254175
-0.0063466752
0.14419534
-0.0067160453
-0.0054413634
0.052654772
-0.0071579904
0.053495773
-0.008407825
0.054490327
-0.009478837
0.055572752
-0.010221913
0.056757867
-0.010921
0.058059968
-0.011607408
0.05947757
-0.012236872
0.061005806
-0.012804046
0.062640469
-0.013318622
0.064376963
-0.013784173
0.06620977
-0.014200968
0.068132624
-0.014569783
0.070138763
-0.014891811
0.072221089
-0.015168111
0.074372257
-0.015399618
0.076584758
-0.015587269
0.078851005
-0.015732055
0.081163407
-0.015835039
0.083514442
-0.015897376
0.085896711
-0.015920327
0.088302995
-0.015905268
0.090726299
-0.015853702
0.093159891
-0.015767247
0.095597338
-0.015647636
0.098032535
-0.015496704
0.10045973
-0.015316365
0.10287353
-0.015108607
0.10526892
-0.01487546
0.10764129
-0.014618987
0.10998641
-0.014341254
0.11230043
-0.014044317
0.1145799
-0.013730203
0.11682175
-0.013400905
0.11902325
-0.013058356
0.12118208
-0.012704438
0.12329623
-0.012340979
0.12536406
-0.011969753
0.12738425
-0.011592502
0.12935584
-0.011210965
0.13127821
-0.010826886
0.13315113
-0.010442228
0.13497472
-0.010058795
0.13674981
-0.0096800679
0.13847727
-0.0093061694
0.14016079
-0.0089521787
0.14179956
-0.0085922881
0.14341394
-0.0083472938
0.14497096
-0.0079036986
0.14662261
-0.0083676908
-0.0068707597
0.075229108
-0.0070873472
0.07533446
-0.0085131776
0.07555924
-0.0097036163
0.075859968
-0.010522641
0.076264685
-0.011325717
0.076790244
-0.012132967
0.077439685
-0.012886312
0.078212939
-0.0135773
0.079108318
-0.014214001
0.080122676
-0.014798531
0.081251772
-0.015330064
0.082490314
-0.015808324
0.083832119
-0.016233616
0.085270412
-0.016606404
0.086798019
-0.016927225
0.088407491
-0.017196741
0.090091215
-0.017415778
0.091841516
-0.01758534
0.093650755
-0.017706616
0.0955114
-0.017780972
0.097416092
-0.01780996
0.099357694
-0.017795305
0.10132935
-0.0177389
0.1033245
-0.017642785
0.10533693
-0.017509137
0.1073608
-0.017340232
0.10939063
-0.017138441
0.11142136
-0.016906186
0.1134483
-0.016645929
0.11546718
-0.016360137
0.11747413
-0.016051266
0.11946567
-0.015721741
0.1214387
-0.015373934
0.1233905
-0.01501016
0.12531873
-0.01463267
0.1272214
-0.014243646
0.12909686
-0.013845215
0.13094382
-0.013439462
0.13276133
-0.013028476
0.1345488
-0.012614355
0.13630603
-0.012199455
0.13803319
-0.011785956
0.13973113
-0.011378009
0.14140082
-0.010975854
0.14304581
-0.010597168
0.14466574
-0.010212223
0.14627912
-0.0099606728
0.14785815
-0.0094827249
0.14953346
-0.010043006
-0.00837971
0.098033227
-0.0061606829
0.097266307
-0.0077462569
0.096590387
-0.0090276968
0.096006347
-0.0099386005
0.095550318
-0.010869688
0.095233534
-0.011816184
0.095061366
-0.012714144
0.095037818
-0.013553752
0.095162427
-0.014338609
0.095431929
-0.015068032
0.095841966
-0.015740102
0.096387133
-0.016353491
0.097060948
-0.016907431
0.09785618
-0.017401636
0.09876515
-0.017836195
0.09977989
-0.018211481
0.10089227
-0.018528155
0.1020941
-0.018787176
0.10337728
-0.018989787
0.1047338
-0.019137494
0.10615589
-0.019232056
0.10763605
-0.019275461
0.10916706
-0.019269915
0.11074209
-0.019217808
0.11235464
-0.019121693
0.11399867
-0.018984255
0.1156685
-0.018808276
0.11735892
-0.01859661
0.11906515
-0.01835215
0.1207828
-0.018077794
0.12250797
-0.017776429
0.12423712
-0.017450894
0.12596716
-0.017103975
0.12769539
-0.016738386
0.12941948
-0.016356764
0.1311375
-0.015961666
0.13284787
-0.015555588
0.13454938
-0.015140974
0.13624119
-0.01472028
0.1379228
-0.014295965
0.13959414
-0.013870797
0.14125552
-0.013447342
0.14290794
-0.013030424
0.14455252
-0.012620435
0.14619283
-0.012237477
0.14782906
-0.01184845
0.14947781
-0.011609427
0.15111693
-0.011121842
0.15285452
-0.011780599
-0.010009982
0.11919692
-0.0043373117
0.11750462
-0.006053953
0.11586543
-0.007388502
0.11436325
-0.0084364212
0.11303432
-0.0095407646
0.11187617
-0.010658028
0.11089425
-0.011732225
0.11009485
-0.012754353
0.10947738
-0.013721144
0.10903726
-0.014627909
0.10876867
-0.015471512
0.10866495
-0.016249775
0.10871852
-0.016960997
0.10892106
-0.017604177
0.10926385
-0.018178988
0.10973796
-0.01868559
0.11033436
-0.019124556
0.11104405
-0.019496866
0.11185815
-0.019803888
0.11276799
-0.020047331
0.11376516
-0.020229228
0.1148416
-0.020351895
0.1159896
-0.020417913
0.11720187
-0.02043008
0.11847157
-0.020391391
0.1197923
-0.020304986
0.12115814
-0.020174124
0.12256367
-0.020002138
0.12400392
-0.0197924
0.12547442
-0.019548292
0.12697116
-0.019273166
0.12849059
-0.018970328
0.13002963
-0.018643011
0.13158561
-0.018294362
0.13315628
-0.017927438
0.13473982
-0.017545203
0.13633478
-0.017150547
0.13794011
-0.016746303
0.13955514
-0.016335311
0.14117959
-0.015920421
0.14281363
-0.01550483
0.1444578
-0.015091511
0.14611334
-0.014685963
0.14778168
-0.014288777
0.1494665
-0.013922297
0.15116865
-0.013550607
0.15290293
-0.013343701
0.15465303
-0.012871947
0.15650443
-0.013631996
-0.011812915
0.13690318
-0.00175855
0.13438545
-0.00353623
0.13182716
-0.0048302059
0.12947039
-0.006079656
0.12734236
-0.0074127361
0.12542445
-0.0087401128
0.12371948
-0.010027256
0.12223254
-0.01126742
0.1209621
-0.0124507
0.11990237
-0.013568183
0.11904586
-0.014615002
0.11838423
-0.015588137
0.11790847
-0.016485238
0.11760906
-0.017304773
0.11747615
-0.018046076
0.11749972
-0.018709161
0.11766976
-0.019294596
0.11797636
-0.019803462
0.11840978
-0.020237312
0.11896059
-0.020598134
0.11961965
-0.020888294
0.12037826
-0.021110507
0.12122814
-0.021267795
0.1221615
-0.021363433
0.12317103
-0.021400921
0.12424997
-0.021383926
0.12539209
-0.021316242
0.1265917
-0.021201747
0.12784365
-0.021044358
0.12914335
-0.02084799
0.13048671
-0.020616528
0.13187017
-0.02035379
0.13329067
-0.020063508
0.13474562
-0.019749311
0.1362329
-0.019414719
0.13775084
-0.019063144
0.1392982
-0.018697911
0.14087417
-0.018322273
0.14247835
-0.017939491
0.14411077
-0.017552837
0.1457719
-0.017165959
0.14746265
-0.016782267
0.14918464
-0.016407947
0.15093969
-0.01604383
0.15273173
-0.015714335
0.15456239
-0.015381268
0.15644473
-0.015226043
0.15836847
-0.014795685
0.16039683
-0.01566036
-0.013848517
0.15005806
0.00077681902
0.14676931
-0.00024748032
0.1434722
-0.0015330995
0.14042468
-0.0030321341
0.13763007
-0.0046181235
0.13508211
-0.006192156
0.13278265
-0.0077277933
0.13073177
-0.0092165378
0.12892703
-0.010645961
0.12736324
-0.01200439
0.12603257
-0.013284332
0.12492562
-0.014481186
0.12403221
-0.015591833
0.12334169
-0.016614257
0.12284309
-0.017547471
0.12252529
-0.018391358
0.12237722
-0.019146527
0.12238797
-0.019814217
0.1225469
-0.020396239
0.12284368
-0.020894915
0.12326841
-0.021313025
0.12381165
-0.021653752
0.12446449
-0.02192063
0.12521855
-0.022117493
0.12606605
-0.022248419
0.1269998
-0.022317678
0.12801323
-0.022329678
0.1291004
-0.022288914
0.13025596
-0.02219992
0.13147519
-0.022067219
0.13275395
-0.02189529
0.13408869
-0.02168853
0.13547642
-0.021451231
0.13691467
-0.021187561
0.13840151
-0.020901557
0.13993549
-0.020597127
0.14151565
-0.020278073
0.14314149
-0.019948115
0.14481297
-0.019610972
0.14653051
-0.019270369
0.14829499
-0.018930447
0.15010779
-0.018595068
0.15197098
-0.018271136
0.15388688
-0.017959727
0.15585981
-0.017687262
0.15789209
-0.017413551
0.15999568
-0.017329638
0.16216471
-0.016964709
0.1644453
-0.017940948
-0.016181646
0.18891774
0.005378542
-0.19351946
0.18510807
0.0035621916
0.18171641
0.0018585597
0.17857167
0.00011259808
0.17563653
-0.0016829754
0.17288593
-0.0034415606
0.17030167
-0.0051435286
0.16787474
-0.0067896129
0.16560128
-0.0083724975
0.16347912
-0.0098822342
0.16150642
-0.011311626
0.15968105
-0.012655823
0.15800039
-0.013911172
0.15646115
-0.015075011
0.1550594
-0.016145722
0.15379068
-0.017122642
0.15265007
-0.01800592
0.15163229
-0.01879643
0.15073175
-0.019495698
0.14994268
-0.02010585
0.1492592
-0.020629543
0.14867536
-0.021069908
0.14818521
-0.021430488
0.1477829
-0.02171518
0.14746266
-0.021928175
0.14721887
-0.022073894
0.14704613
-0.022156934
0.14693922
-0.022182004
0.14689318
-0.022153878
0.14690329
-0.022077335
0.14696513
-0.021957125
0.14707452
-0.021797922
0.14722759
-0.021604305
0.14742076
-0.021380728
0.14765072
-0.021131516
0.14791446
-0.02086087
0.14820927
-0.020572879
0.14853271
-0.020271556
0.14888266
-0.019960919
0.14925728
-0.019644994
0.14965509
-0.01932826
0.15007493
-0.019014904
0.15051611
-0.018712319
0.15097821
-0.018421825
0.15146198
-0.018171035
0.15196735
-0.01791892
0.15249916
-0.017861448
0.15305276
-0.017518305
0.15365279
-0.018540974
-0.016790208
0.21686633
0.0087764983
-0.22026428
0.21339283
0.0070356865
0.21018042
0.0050709751
0.20707552
0.003217498
0.20402935
0.0013631905
0.20107288
-0.00048508775
0.19822298
-0.0022936343
0.19548418
-0.0040508119
0.19286238
-0.0057506926
0.1903644
-0.0073842597
0.18799546
-0.0089426841
0.18575895
-0.010419314
0.18365687
-0.011809095
0.18168993
-0.013108068
0.17985759
-0.01431338
0.17815823
-0.01542328
0.1765893
-0.016436998
0.17514751
-0.017354634
0.1738289
-0.018177085
0.17262901
-0.018905969
0.17154303
-0.019543555
0.17056581
-0.020092688
0.16969204
-0.02055672
0.1689163
-0.02093944
0.16823313
-0.021245003
0.16763709
-0.02147786
0.16712285
-0.021642691
0.16668518
-0.021744336
0.16631904
-0.021787739
0.16601959
-0.021777883
0.16578221
-0.021719746
0.16560254
-0.021618253
0.16547649
-0.021478246
0.16540021
-0.021304456
0.16537019
-0.021101493
0.16538317
-0.020873845
0.16543619
-0.020625899
0.16552659
-0.020361966
0.16565205
-0.020086372
0.16581052
-0.019803465
0.16600032
-0.01951806
0.16622013
-0.019234715
0.16646903
-0.018961225
0.16674664
-0.018699433
0.16705293
-0.018477325
0.16738924
-0.018255226
0.16775508
-0.018227289
0.16815857
-0.017921796
0.16858297
-0.018965373
-0.017280454
0.24377466
0.011500098
-0.24649826
0.24092459
0.0098857502
0.23807177
0.0079238036
0.2352252
0.0060640602
0.23234782
0.0042405713
0.22946045
0.0024022896
0.22659429
0.00057251934
0.22376866
-0.001225181
0.22099947
-0.0029815041
0.21830267
-0.0046874519
0.2156921
-0.0063321178
0.21317878
-0.0079059913
0.21077131
-0.0094016297
0.20847627
-0.010813022
0.20629828
-0.012135391
0.20424023
-0.013365233
0.20230348
-0.014500251
0.20048808
-0.015539234
0.19879295
-0.016481952
0.19721606
-0.017329078
0.1957546
-0.018082097
0.19440513
-0.018743222
0.19316372
-0.019315304
0.19202603
-0.019801756
0.19098749
-0.020206462
0.19004333
-0.0205337
0.1891887
-0.020788059
0.18841873
-0.020974368
0.18772861
-0.021097616
0.18711362
-0.021162892
0.18656919
-0.021175321
0.18609095
-0.021140016
0.18567474
-0.021062035
0.18531664
-0.02094635
0.18501298
-0.020797832
0.18476038
-0.020621246
0.18455574
-0.020421264
0.18439628
-0.0202025
0.1842795
-0.01996959
0.18420324
-0.019727211
0.1841657
-0.019480517
0.18416546
-0.019234474
0.18420142
-0.018997192
0.18427329
-0.018771302
0.18438029
-0.018584318
0.18452526
-0.018400195
0.18470201
-0.018404043
0.18493247
-0.018152256
0.18515349
-0.019186391
-0.017629851
0.26928163
0.013532746
-0.27131428
0.26711392
0.01205347
0.26477249
0.010265226
0.26233362
0.0085029288
0.25980525
0.0067689407
0.25719756
0.0050099799
0.25453668
0.003233408
0.25184676
0.0014647324
0.24914782
-0.00028256524
0.24645967
-0.0019992952
0.24380158
-0.0036740355
0.24119071
-0.0052951212
0.23864179
-0.0068527014
0.23616729
-0.0083385286
0.23377753
-0.0097456306
0.23148067
-0.011068371
0.22928289
-0.012302475
0.2271886
-0.013444944
0.22520061
-0.014493955
0.2233203
-0.015448774
0.22154787
-0.016309667
0.21988246
-0.017077805
0.21832232
-0.017755167
0.21686501
-0.018344444
0.21550749
-0.018848943
0.21424628
-0.019272495
0.21307758
-0.019619359
0.21199735
-0.019894138
0.21100143
-0.02010169
0.21008559
-0.020247052
0.20924564
-0.020335371
0.20847746
-0.02037184
0.20777707
-0.020361648
0.20714067
-0.020309944
0.20656464
-0.020221807
0.20604564
-0.020102241
0.20558055
-0.019956182
0.20516658
-0.019788527
0.20480121
-0.019604214
0.20448225
-0.019408253
0.20420786
-0.019206126
0.20397662
-0.019003236
0.20378736
-0.018807929
0.20363988
-0.018623827
0.20353283
-0.018477269
0.20347029
-0.018337651
0.20344119
-0.018374942
0.20347898
-0.01819005
0.20347868
-0.019186094
-0.017816025
0.29299156
0.014863654
-0.29432247
0.29151257
0.013532463
0.28979034
0.01198745
0.287892
0.010401275
0.28585239
0.0088085413
0.28368236
0.0071800171
0.2814003
0.0055154693
0.27902946
0.003835573
0.27659114
0.0021557503
0.27410551
0.00048633338
0.27159277
-0.001161297
0.26907265
-0.0027750012
0.26656348
-0.0043435262
0.26408184
-0.005856893
0.26164249
-0.0073062775
0.25925819
-0.0086840683
0.2569397
-0.0099839884
0.25469585
-0.011201097
0.25253363
-0.012331733
0.25045832
-0.013373459
0.24847363
-0.014324986
0.24658192
-0.015186094
0.24478429
-0.015957536
0.24308079
-0.016640941
0.24147056
-0.017238714
0.23995199
-0.017753931
0.23852288
-0.018190241
0.23718051
-0.018551768
0.23592183
-0.018843009
0.23474353
-0.019068753
0.23364215
-0.019233993
0.23261416
-0.019343854
0.23165605
-0.019403535
0.23076436
-0.019418256
0.22993578
-0.019393225
0.22916716
-0.019333619
0.22845557
-0.019244591
0.22779833
-0.019131288
0.22719304
-0.018998924
0.22663761
-0.018852827
0.22613028
-0.018698796
0.22566972
-0.018542672
0.22525477
-0.018392983
0.22488541
-0.018254459
0.22455989
-0.018151751
0.22428316
-0.018060921
0.22404043
-0.01813221
0.22387364
-0.018023262