/*--------------------------------*- C++ -*----------------------------------*\
  =========                 |
  \\      /  F ield         | OpenFOAM: The Open Source CFD Toolbox
   \\    /   O peration     | Website:  https://openfoam.org
    \\  /    A nd           | Version:  6
     \\/     M anipulation  |
\*---------------------------------------------------------------------------*/
FoamFile
{
    version     2.0;
    format      ascii;
    class       volVectorField;
    location    "289";
    object      UMean;
}
// * * * * * * * * * * * * * * * * * * * * * * * * * * * * * * * * * * * * * //

dimensions      [0 1 -1 0 0 0 0];

internalField   nonuniform List<vector> 
9200
(
(0.001516539 0.0010549204 -6.0461088e-20)
(0.01526251 -0.0032087038 4.7703703e-20)
(0.041109504 -0.0076894789 -3.9498052e-20)
(0.076352408 -0.012168204 -6.2364451e-20)
(0.11913067 -0.016414682 1.9396412e-20)
(0.16820153 -0.019993158 3.3895616e-20)
(0.22247943 -0.022615248 -1.268311e-20)
(0.28096178 -0.024136635 9.5914967e-21)
(0.34271111 -0.024499714 1.7588132e-20)
(0.40682355 -0.023710427 1.5544435e-21)
(0.47240543 -0.021826957 -2.2503353e-20)
(0.5385646 -0.018948747 2.1639596e-20)
(0.60441355 -0.015205575 -4.2254511e-20)
(0.66908231 -0.010746444 -2.2176655e-20)
(0.73173953 -0.0057277929 6.1967623e-21)
(0.79161904 -0.00030381222 -2.6422704e-20)
(0.84806512 0.0053966641 2.6541345e-20)
(0.90065511 0.011417047 2.3513118e-20)
(0.94901681 0.01788705 -2.7110774e-22)
(0.99048518 0.021468256 -1.6141573e-21)
(0.0058690636 -0.0017571329 -1.741934e-20)
(0.028921485 -0.010232149 4.1041982e-20)
(0.065027871 -0.016736116 2.4026314e-20)
(0.11107555 -0.021669372 -1.1924549e-19)
(0.16489862 -0.025205953 -1.3070005e-20)
(0.224996 -0.027142045 7.585907e-20)
(0.29001544 -0.027390034 -3.671278e-20)
(0.3586755 -0.025992309 -8.7303816e-21)
(0.42975412 -0.023061848 3.5710598e-20)
(0.50206553 -0.018763227 -4.5127679e-20)
(0.57444942 -0.013304781 -3.1779524e-20)
(0.64577828 -0.0069281981 7.5420019e-20)
(0.71497786 0.00010326066 4.0090805e-20)
(0.78105626 0.0075164212 -7.1255542e-20)
(0.84313733 0.015038145 1.5329007e-20)
(0.90049293 0.022399992 -3.8508896e-20)
(0.95258279 0.029352144 -1.4551055e-20)
(0.99915272 0.035736183 7.4352286e-20)
(1.0401034 0.041143354 3.1612557e-20)
(1.0736838 0.042465415 -8.4741393e-20)
(0.011625879 -0.0044812492 3.7301713e-20)
(0.046302111 -0.016716167 2.3747773e-21)
(0.094443928 -0.024504976 2.2604203e-20)
(0.15258443 -0.028989514 1.0081732e-21)
(0.2182623 -0.030833391 -4.1599674e-20)
(0.28969317 -0.030128968 1.9304025e-20)
(0.36522367 -0.027049769 1.3701144e-20)
(0.44326155 -0.021882633 -5.2119951e-20)
(0.52228088 -0.014964058 5.9497596e-20)
(0.60081824 -0.0066628942 1.503826e-20)
(0.67748352 0.0026273049 -5.6786021e-20)
(0.75098867 0.012501885 -1.915847e-20)
(0.82018584 0.02256155 9.2561138e-21)
(0.88410704 0.032428566 2.4503801e-20)
(0.9419987 0.0417606 -1.1854445e-20)
(0.99334409 0.050259607 2.90833e-20)
(1.0378755 0.057685801 -2.1124157e-20)
(1.0756034 0.063904694 -7.2857971e-20)
(1.1066929 0.068650302 -2.420891e-20)
(1.1303223 0.070053698 5.0129895e-20)
(0.018882162 -0.0068687107 2.4765745e-20)
(0.067520189 -0.021966214 5.200858e-20)
(0.12934096 -0.029958298 2.0339305e-20)
(0.20059848 -0.032851974 1.3523659e-20)
(0.27855448 -0.031887354 1.7913912e-20)
(0.36112489 -0.027522223 -4.9245705e-20)
(0.44633928 -0.020255162 -2.6555287e-20)
(0.53229536 -0.010674346 0)
(0.61719285 0.00061458291 1.5040773e-20)
(0.69935867 0.013008312 -6.4505333e-21)
(0.77728413 0.025917178 -1.0189389e-19)
(0.84967306 0.03878472 -1.6292495e-20)
(0.91548891 0.05110958 6.788313e-20)
(0.97399088 0.062464748 4.7905179e-22)
(1.0247523 0.072511567 -1.6342774e-21)
(1.0676569 0.081006488 2.2780705e-20)
(1.1028746 0.087807639 -5.3595029e-21)
(1.1308362 0.092903202 -6.3264095e-20)
(1.1521158 0.09627054 -4.7514553e-20)
(1.166706 0.096961771 7.0952186e-20)
(0.027663553 -0.0086377651 -3.8618564e-21)
(0.092471484 -0.025232849 -4.8983762e-21)
(0.16932284 -0.032024617 5.7650159e-20)
(0.25430031 -0.031996989 1.9161701e-20)
(0.34442873 -0.027048847 -3.3094314e-20)
(0.43733421 -0.018072785 1.2343579e-20)
(0.53075331 -0.0059519194 2.7313836e-21)
(0.62253012 0.0083799213 3.5015956e-20)
(0.71068812 0.024024395 5.8802196e-21)
(0.79348775 0.040145047 -1.3902593e-20)
(0.86948485 0.055984284 6.283312e-20)
(0.937585 0.070887726 -6.0111217e-20)
(0.99708002 0.08432697 -1.3714508e-19)
(1.0476584 0.095914284 -5.780485e-21)
(1.0893865 0.10540704 8.5987949e-20)
(1.1226622 0.11270128 0)
(1.1481486 0.11782073 1.0544124e-20)
(1.1667036 0.12091964 -1.5873781e-20)
(1.1792651 0.12218148 -8.9651846e-21)
(1.186405 0.12121942 2.1423048e-20)
(0.037905914 -0.0094840179 -5.2164754e-21)
(0.12080075 -0.02575446 4.4229318e-21)
(0.21360424 -0.029683142 -8.9219271e-21)
(0.31237436 -0.025312908 2.8877972e-20)
(0.4139747 -0.01526681 -3.0300824e-20)
(0.5157962 -0.0009299348 -1.7440745e-20)
(0.61536556 0.016389951 3.7951854e-20)
(0.71039937 0.035399142 4.7656654e-21)
(0.79891549 0.054922884 -2.5671489e-20)
(0.87931524 0.073939459 7.2345497e-20)
(0.95044616 0.091599689 3.4983787e-22)
(1.0116389 0.1072486 -8.3354231e-20)
(1.0627081 0.12043813 0)
(1.1039145 0.13092493 4.0758884e-20)
(1.1358942 0.13865322 5.6555283e-21)
(1.1595651 0.14372533 -7.9706973e-20)
(1.1760225 0.14636774 -2.014276e-20)
(1.1864424 0.14690865 -1.2753297e-20)
(1.191976 0.14569085 -1.5092683e-20)
(1.1934799 0.14266116 4.1387079e-20)
(0.049442173 -0.0091012844 -1.7298942e-20)
(0.15188544 -0.022816226 -2.8671636e-21)
(0.26101971 -0.022053716 3.059528e-20)
(0.37306596 -0.011947555 3.7609903e-20)
(0.4848482 0.0041237222 -2.0340424e-20)
(0.59363504 0.024253958 -7.1199899e-20)
(0.69689393 0.046708856 -2.9070917e-20)
(0.79240811 0.069868592 8.1403394e-20)
(0.87841682 0.092351555 9.0763009e-21)
(0.95370225 0.11305087 -2.5572238e-20)
(1.0176301 0.13114615 1.3945833e-20)
(1.0701419 0.14610837 -4.4789487e-21)
(1.1116973 0.15768751 0)
(1.1431762 0.16588011 2.7986025e-20)
(1.1657553 0.17088146 -8.1461838e-20)
(1.180777 0.17302933 -3.2310967e-20)
(1.1896268 0.17274897 8.3015675e-20)
(1.1936354 0.17051346 -4.5785803e-21)
(1.1939982 0.1667665 3.588354e-21)
(1.1916262 0.16164055 2.7841902e-20)
(0.061996216 -0.0072093739 -3.2519684e-20)
(0.18484155 -0.015821938 -8.2881315e-20)
(0.31006835 -0.0084944854 1.975161e-21)
(0.4342843 0.0085880775 7.1791565e-20)
(0.5544446 0.031313865 6.3876285e-20)
(0.66786983 0.057274835 -7.2919862e-20)
(0.77218079 0.084363205 5.9971385e-23)
(0.86547056 0.11072588 8.8298939e-20)
(0.94645031 0.13489952 5.0244024e-20)
(1.0145121 0.15583632 -5.5890294e-20)
(1.0697187 0.17289109 -9.5009021e-20)
(1.1127287 0.18579175 -3.2468609e-21)
(1.1446712 0.19458715 4.3251606e-20)
(1.1669905 0.1995757 -6.730103e-21)
(1.1812855 0.20122511 -1.3080091e-20)
(1.1891648 0.20009378 1.997881e-20)
(1.1921324 0.1967645 4.4839623e-20)
(1.1915126 0.19180001 -4.4682771e-20)
(1.1884086 0.18568244 -1.0444107e-19)
(1.183642 0.17863429 2.5219743e-20)
(0.075153388 -0.0035847525 -3.5502922e-20)
(0.21848504 -0.0043698554 -1.7499482e-19)
(0.35888975 0.0113155 8.4239761e-20)
(0.49360707 0.036358766 9.48267e-20)
(0.61994123 0.066002498 5.9124001e-20)
(0.73549418 0.097416915 8.8432681e-21)
(0.8382945 0.12823756 -1.0881132e-19)
(0.92700266 0.15653032 0)
(1.0010313 0.1809209 -7.0825323e-20)
(1.0605545 0.20058966 -1.5658795e-20)
(1.1064252 0.2152139 5.6116788e-20)
(1.1400257 0.22488776 1.1221148e-20)
(1.1630807 0.23002162 -4.6655484e-20)
(1.1774647 0.2312316 -5.0100703e-20)
(1.1850311 0.22923422 2.4892267e-20)
(1.1874814 0.22475788 4.5868679e-20)
(1.1862826 0.21847903 -5.6790046e-20)
(1.1826321 0.21098617 -1.0959505e-19)
(1.1774607 0.2027451 -3.1010064e-21)
(1.171433 0.19401155 2.7512657e-20)
(0.088343899 0.001924294 -3.8206271e-21)
(0.25133639 0.011733126 8.9136763e-20)
(0.40530146 0.037380488 -1.5253881e-20)
(0.54836732 0.071029947 -8.6626619e-20)
(0.67843571 0.10744312 4.6214056e-20)
(0.79364751 0.14352272 4.9864462e-20)
(0.892697 0.17683379 5.6790081e-21)
(0.97503917 0.20556698 -1.0188499e-19)
(1.0409537 0.22863651 -2.5674945e-21)
(1.0914789 0.24562066 5.1750276e-20)
(1.1282504 0.25664167 6.1215359e-21)
(1.153286 0.26222646 -2.0214983e-20)
(1.1687598 0.26315924 -7.7326817e-20)
(1.1768019 0.26034241 -6.330114e-21)
(1.1793462 0.25468166 4.4357774e-20)
(1.1780378 0.24700392 3.7687047e-20)
(1.1741963 0.23801004 2.0062945e-20)
(1.1688261 0.22825708 -5.4157089e-20)
(1.1626579 0.21815562 1.2916328e-20)
(1.1561858 0.2079655 8.3914035e-20)
(-0.001316818 0.001448539 -9.3333802e-22)
(-0.0047578067 0.0031906811 1.9358873e-21)
(-0.01078903 0.0041100616 1.5260964e-21)
(-0.017693934 0.0044755971 -1.524597e-21)
(-0.024537561 0.0044578748 -2.0517381e-21)
(-0.03089111 0.0041722613 2.1842427e-21)
(-0.03648212 0.0037028643 -7.893957e-21)
(-0.041134712 0.0031105947 -6.820048e-21)
(-0.044752544 0.0024388388 1.2407317e-20)
(-0.047293361 0.0017182251 -1.0705048e-20)
(-0.04874887 0.00097012759 -2.0179315e-22)
(-0.049131918 0.0002092146 4.0018923e-21)
(-0.048468033 -0.00055462342 -6.6381905e-22)
(-0.046789648 -0.0013147431 2.4488991e-20)
(-0.044132483 -0.0020663669 2.8264916e-22)
(-0.040535024 -0.0028051156 -4.3602097e-20)
(-0.036040909 -0.0035263944 8.0881108e-21)
(-0.030690662 -0.0042281393 2.5250076e-20)
(-0.024494232 -0.0049088694 -4.6303779e-20)
(-0.017513459 -0.0055197664 -2.9215204e-20)
(-0.0016756261 0.0042179378 -5.5944656e-21)
(-0.0053949861 0.0092686769 1.0079658e-20)
(-0.011192933 0.011919156 -1.0411103e-20)
(-0.017518463 0.012951331 5.1402983e-21)
(-0.023534716 0.0128633 6.1409918e-21)
(-0.028863719 0.01199367 8.5477341e-22)
(-0.033268469 0.010589427 -2.5988762e-20)
(-0.036598815 0.0088293557 -2.2327415e-21)
(-0.038775816 0.0068407844 2.22575e-20)
(-0.039768501 0.0047135723 -5.5256186e-21)
(-0.039575575 0.0025103853 -2.3678525e-20)
(-0.038213841 0.00027417429 5.2909214e-21)
(-0.035710588 -0.001966183 2.4184054e-20)
(-0.032098281 -0.004191392 1.1036753e-20)
(-0.027410779 -0.0063876744 2.3432307e-20)
(-0.021683795 -0.0085426398 -2.102161e-20)
(-0.014964709 -0.010643422 -2.2917752e-20)
(-0.007304157 -0.012683449 2.2550599e-20)
(0.0013607602 -0.014648093 2.8172714e-20)
(0.011220328 -0.01636964 1.6463967e-20)
(-0.002324311 0.0066076395 -4.5422915e-21)
(-0.0065042873 0.014452563 -5.0765325e-21)
(-0.011777948 0.018530777 1.2907902e-22)
(-0.016914437 0.020059283 2.3693306e-22)
(-0.021265283 0.019819424 7.299851e-21)
(-0.024550443 0.018348527 1.152605e-20)
(-0.026601732 0.016039362 -4.2060032e-21)
(-0.027319026 0.013176377 -2.0654756e-20)
(-0.026657396 0.009962418 7.1594276e-21)
(-0.024608277 0.0065408329 1.3995838e-20)
(-0.021184763 0.0030116625 6.4288808e-21)
(-0.016412486 -0.00055655701 1.9395138e-20)
(-0.010323651 -0.0041179585 1.8520299e-21)
(-0.0029527019 -0.007642363 -3.5949694e-20)
(0.0056674605 -0.011108633 1.4501949e-21)
(0.015503958 -0.014498145 -2.3113879e-20)
(0.026500956 -0.017793458 -2.6107377e-20)
(0.038584751 -0.020985853 4.8565778e-20)
(0.051940175 -0.024022105 2.6888569e-20)
(0.067251085 -0.02653802 3.7946505e-22)
(-0.003141288 0.0084082557 -5.6097153e-21)
(-0.007804793 0.018244413 -1.0437906e-20)
(-0.012187125 0.023275377 4.4474235e-21)
(-0.01549613 0.025035111 4.528198e-21)
(-0.017343649 0.024519921 2.0859798e-21)
(-0.017586891 0.022427518 8.2870572e-21)
(-0.016155485 0.019269507 1.033685e-20)
(-0.013021389 0.015416624 -1.5355537e-21)
(-0.0081897898 0.01113382 -1.2487582e-20)
(-0.0016864532 0.0066087636 -3.142493e-20)
(0.0064519879 0.0019726053 1.341195e-22)
(0.016183166 -0.0026847649 4.3523057e-20)
(0.027463392 -0.0073036854 -1.9393821e-20)
(0.040249214 -0.011845349 -1.3059165e-20)
(0.054501549 -0.016283753 3.7180061e-22)
(0.070183957 -0.020598063 3.4227006e-20)
(0.087226462 -0.024773672 -1.6000435e-20)
(0.10551435 -0.028809372 -5.5989428e-20)
(0.12536108 -0.032588362 4.773533e-20)
(0.14815618 -0.035429178 3.4572959e-20)
(-0.0039636923 0.0094764221 -5.250913e-22)
(-0.0089120499 0.02029118 -1.3071902e-20)
(-0.011921595 0.025668888 -3.7179708e-20)
(-0.012713449 0.027320972 -6.6461641e-21)
(-0.01120867 0.026375916 -3.4385425e-21)
(-0.0074310126 0.023644199 6.9590411e-21)
(-0.001431191 0.019722303 -5.2251891e-21)
(0.0067275791 0.01504246 -9.6438365e-21)
(0.016974444 0.0099141954 2.3566809e-20)
(0.029235881 0.004557132 5.3352714e-21)
(0.04343998 -0.00087480261 -2.7287253e-20)
(0.059516431 -0.0062759959 1.1686073e-20)
(0.077396989 -0.011576414 0)
(0.097016031 -0.016731796 1.2793666e-20)
(0.11831365 -0.021714854 -1.0241661e-20)
(0.14123483 -0.026507728 -1.5211145e-20)
(0.16568232 -0.031108952 -1.1785293e-21)
(0.19147821 -0.035545558 -2.5019906e-21)
(0.21902483 -0.039634564 4.7636144e-20)
(0.2505679 -0.042235255 -1.1509976e-20)
(-0.0046051062 0.0097441144 -7.7291032e-21)
(-0.0093716671 0.020410411 2.5999848e-20)
(-0.010373209 0.02545288 -1.1475017e-20)
(-0.007876038 0.026618263 -2.9295542e-20)
(-0.0021362328 0.025079616 -2.8906875e-20)
(0.0066368812 0.021708411 -1.5995998e-20)
(0.018254219 0.017147707 -8.4311128e-22)
(0.032544986 0.011862275 5.9717848e-21)
(0.049357859 0.0061856179 2.0883585e-20)
(0.068557249 0.00035525513 7.8243906e-21)
(0.090018378 -0.0054622453 -7.5829067e-21)
(0.1136248 -0.011152604 -1.9720036e-21)
(0.13926465 -0.016640628 -4.0427469e-20)
(0.16682801 -0.021880509 -1.3395184e-20)
(0.19620868 -0.026847546 2.0038969e-20)
(0.22730532 -0.031532211 -2.2299812e-20)
(0.25997019 -0.035956825 -9.4267397e-21)
(0.29393696 -0.040205471 3.1501318e-20)
(0.32962274 -0.044064052 5.2261733e-20)
(0.37018269 -0.045819657 3.5536818e-21)
(-0.0048713007 0.009215456 1.7171892e-20)
(-0.0086918167 0.018592935 1.4836526e-20)
(-0.0068599562 0.02261 5.3585358e-20)
(-0.00018538683 0.02291748 2.4864449e-20)
(0.010734443 0.0206479 1.9570354e-22)
(0.025494541 0.016681272 -4.2018918e-20)
(0.043755314 0.01166745 -2.5751125e-20)
(0.065225642 0.0060740783 1.1105151e-20)
(0.089655673 0.00023606869 1.5259226e-20)
(0.11682648 -0.0056082329 -1.3768649e-20)
(0.14653894 -0.011292159 -4.6667377e-20)
(0.17860482 -0.0167026 3.1359698e-20)
(0.2128392 -0.021766987 2.0979364e-20)
(0.24905478 -0.026444428 -2.9021302e-20)
(0.28706178 -0.030718936 1.2339593e-20)
(0.32667169 -0.034596144 2.5356287e-20)
(0.36765047 -0.038132224 8.5398953e-21)
(0.40961633 -0.04149963 -1.2590267e-20)
(0.4529113 -0.044531511 -1.4438376e-20)
(0.50152966 -0.044922517 7.0116914e-21)
(-0.0045710709 0.0079550722 1.149799e-20)
(-0.0063699758 0.014986412 -2.4762141e-20)
(-0.00066128623 0.017354064 8.5244346e-21)
(0.011225173 0.016498524 3.5380117e-20)
(0.028357389 0.013432654 5.4506715e-20)
(0.050131393 0.0089953182 2.134423e-20)
(0.076047584 0.0038049967 -6.1583778e-21)
(0.10567601 -0.0016997706 -1.2939599e-20)
(0.13864749 -0.0072068549 -6.5835361e-21)
(0.17463395 -0.012496337 3.6132048e-20)
(0.21332989 -0.017417577 -4.8876598e-21)
(0.25443827 -0.021872344 -1.763691e-20)
(0.29765957 -0.02580292 -2.0637419e-20)
(0.34268384 -0.029184675 -4.9934282e-20)
(0.38918965 -0.032021378 2.4327504e-20)
(0.43685199 -0.034345115 -1.4758356e-20)
(0.48530967 -0.036259256 2.7317933e-20)
(0.53405014 -0.038060133 2.2086921e-20)
(0.58327138 -0.039751938 -8.8212962e-20)
(0.63761418 -0.038598706 1.8323276e-22)
(-0.0035232744 0.0060743588 2.2532888e-20)
(-0.0019184811 0.0098731877 -2.738961e-20)
(0.0089362351 0.010113146 -4.6669828e-20)
(0.027222852 0.0079242843 -2.8434824e-20)
(0.05168958 0.0041285014 -2.1414492e-21)
(0.081528681 -0.00052399519 1.3742997e-20)
(0.11606689 -0.0054847264 -2.9825509e-21)
(0.15471616 -0.010375691 1.8995838e-20)
(0.19695935 -0.014934574 9.2885496e-21)
(0.24232315 -0.01898317 -1.1951349e-20)
(0.29035333 -0.022407671 9.4397223e-21)
(0.34059681 -0.025143871 -2.5138549e-20)
(0.39258878 -0.027166563 8.6680652e-21)
(0.44584423 -0.028482941 1.7627808e-20)
(0.49985684 -0.02912866 -2.9015798e-21)
(0.55410891 -0.029169794 1.8332453e-21)
(0.60805545 -0.028757526 -5.0180559e-22)
(0.66102968 -0.02829602 2.0637763e-20)
(0.71305001 -0.027985282 4.0048287e-21)
(0.76916691 -0.025169254 -1.6848874e-21)
(-0.0015576177 0.003720314 2.451198e-20)
(0.0051157503 0.0036561845 5.9539753e-20)
(0.022585422 0.0015276783 -5.0856807e-20)
(0.048579623 -0.0019399296 -1.03499e-20)
(0.081539906 -0.0061877442 2.113827e-20)
(0.12045036 -0.010600926 2.2328381e-21)
(0.16444789 -0.014740781 -3.1092581e-20)
(0.21275881 -0.018326229 7.3039074e-21)
(0.26468114 -0.021177734 7.4240665e-21)
(0.31955262 -0.02318966 -2.7495745e-20)
(0.37672332 -0.02431465 1.3517089e-21)
(0.43553824 -0.024550936 -3.9044654e-20)
(0.49532782 -0.023931994 -3.8186764e-20)
(0.55540448 -0.022518241 6.9036646e-20)
(0.6150653 -0.020389756 5.843041e-21)
(0.67359875 -0.017645412 -1.5926331e-20)
(0.73026954 -0.01444384 2.0262797e-20)
(0.78424471 -0.011089885 -9.5334969e-22)
(0.8350623 -0.007606537 2.0796564e-20)
(0.88642638 -0.0024640262 -2.0851633e-20)
(-0.0092091931 -0.0058026498 6.1409274e-20)
(0.00053978979 -0.0063267563 1.6360079e-20)
(0.011704244 -0.0067474826 -3.6449846e-20)
(0.023929313 -0.0069950091 1.7543942e-20)
(0.036939931 -0.0071525142 0)
(0.050671703 -0.0072486982 0)
(0.065061614 -0.0072864736 -2.3604735e-20)
(0.080026185 -0.0072738226 -1.6859888e-20)
(0.095490889 -0.0072204647 1.9621503e-20)
(0.11139253 -0.0071334947 1.8541692e-20)
(0.12767285 -0.0070183319 1.0433982e-21)
(0.144277 -0.0068797438 -1.0391749e-20)
(0.16115383 -0.0067218829 8.508296e-21)
(0.17825559 -0.0065482692 1.8251304e-20)
(0.19553725 -0.0063619155 -5.3598072e-21)
(0.2129562 -0.0061654367 -1.0104708e-20)
(0.23047199 -0.005961115 -4.2720931e-21)
(0.24804619 -0.0057509522 -4.311543e-21)
(0.26564226 -0.005536716 7.0579662e-22)
(0.28322546 -0.0053199761 1.2159509e-21)
(0.30076289 -0.0051021319 2.5759347e-21)
(0.31822342 -0.0048844335 6.5237147e-21)
(0.33557777 -0.0046679974 1.6837457e-22)
(0.35279854 -0.0044538188 -3.3722606e-21)
(0.36986022 -0.0042427804 1.355306e-22)
(0.38673928 -0.0040356594 -5.6013545e-22)
(0.40341417 -0.0038331333 1.2028555e-21)
(0.41986531 -0.0036357849 9.8928611e-22)
(0.43607518 -0.0034441073 -1.2929632e-21)
(0.45202824 -0.0032585087 -1.0538034e-22)
(0.46771093 -0.0030793174 -2.4224043e-23)
(0.48311165 -0.0029067872 -3.3454313e-22)
(0.49822069 -0.0027411031 -4.0911795e-22)
(0.51303018 -0.0025823879 8.2290985e-23)
(0.52753407 -0.0024307078 -1.2982238e-22)
(0.54172799 -0.0022860801 -2.0328512e-22)
(0.55560927 -0.0021484799 2.3163675e-22)
(0.56917687 -0.0020178472 2.6363349e-22)
(0.58243125 -0.001894097 -2.6956815e-23)
(0.59537481 -0.0017771227 -1.6151604e-22)
(0.60801065 -0.0016668255 1.9303163e-23)
(0.62034668 -0.0015630699 -2.8437756e-23)
(0.63238378 -0.0014658974 8.2598398e-23)
(0.64415333 -0.0013749449 -7.3057984e-24)
(0.65560721 -0.001291476 -1.2944614e-22)
(0.66694915 -0.0012122971 2.9945391e-24)
(0.67767317 -0.0011495083 4.8025306e-24)
(0.68937467 -0.0010707482 -4.8830025e-24)
(0.6976961 -0.0010846423 2.6706878e-23)
(0.71493981 -0.00091302747 3.6913087e-22)
(0.020754415 -0.017082495 -1.3678814e-20)
(0.029554796 -0.018672886 -6.6022878e-20)
(0.040249208 -0.01990902 -3.2092303e-20)
(0.051972754 -0.020614627 4.0061454e-20)
(0.064335959 -0.021067067 1.5220186e-20)
(0.077354315 -0.021349613 -1.9013637e-20)
(0.090996684 -0.021463026 5.0615625e-21)
(0.10518256 -0.021429294 2.6037745e-20)
(0.11984483 -0.021277358 -1.1364407e-22)
(0.13492983 -0.021027586 -7.8932952e-21)
(0.15038639 -0.020695256 -1.293522e-20)
(0.16616496 -0.020294024 -8.7838312e-21)
(0.18221893 -0.019835876 1.788688e-20)
(0.19850432 -0.019330985 9.4245325e-21)
(0.21497918 -0.018788078 -1.6296757e-20)
(0.23160337 -0.018214765 -6.0152488e-21)
(0.24833849 -0.017617717 3.1331528e-21)
(0.26514776 -0.017002808 8.1901236e-21)
(0.28199596 -0.016375247 6.9433155e-21)
(0.29884945 -0.015739674 -7.0437477e-21)
(0.31567617 -0.015100241 -3.3223026e-21)
(0.33244569 -0.014460668 1.5138377e-21)
(0.34912927 -0.013824286 5.8992831e-22)
(0.3656999 -0.013194072 1.2352344e-21)
(0.38213237 -0.012572672 2.2395587e-22)
(0.39840333 -0.011962421 -3.6090248e-22)
(0.4144913 -0.011365361 -7.4157402e-22)
(0.43037676 -0.010783249 1.0437127e-21)
(0.44604209 -0.010217581 8.5765713e-22)
(0.46147162 -0.0096695948 -2.4054812e-22)
(0.4766516 -0.0091402939 5.8449202e-22)
(0.49157015 -0.008630458 -2.272005e-22)
(0.50621727 -0.008140662 -4.0139276e-22)
(0.52058473 -0.0076712939 -6.181859e-22)
(0.53466605 -0.0072225741 4.1557807e-22)
(0.54845644 -0.0067945752 -8.7038193e-23)
(0.56195276 -0.0063872437 2.0571948e-22)
(0.57515346 -0.0060004212 -4.5974838e-22)
(0.58805849 -0.0056338736 4.2845555e-22)
(0.6006697 -0.005287302 6.2034608e-23)
(0.61298965 -0.0049604304 -6.9286128e-23)
(0.62502565 -0.0046528713 2.0485738e-22)
(0.6367781 -0.0043647675 2.742664e-22)
(0.64827754 -0.0040950493 2.0610122e-22)
(0.65947596 -0.0038475087 2.1685116e-22)
(0.6705742 -0.003612624 -1.9635704e-23)
(0.68107244 -0.0034264994 1.1046873e-22)
(0.69254363 -0.0031926989 9.7773574e-23)
(0.70069344 -0.0032345089 -2.0192899e-22)
(0.71763053 -0.0027250135 -1.6264108e-23)
(0.079038261 -0.027339127 1.0085427e-20)
(0.085956971 -0.030005307 3.7257291e-21)
(0.095607974 -0.032001553 -1.340526e-20)
(0.10629365 -0.033085693 -1.5443569e-21)
(0.11734154 -0.033793545 1.5811509e-20)
(0.12892319 -0.034258008 -1.5421866e-20)
(0.14107785 -0.034458451 -3.1053775e-20)
(0.15372703 -0.034425057 1.5150499e-20)
(0.16681477 -0.034205267 1.8869807e-20)
(0.18030503 -0.033830611 -1.1983966e-20)
(0.1941595 -0.033323736 1.0384853e-21)
(0.20833782 -0.032705441 8.4814094e-21)
(0.22280117 -0.031994351 -1.5636413e-20)
(0.23751212 -0.031206331 3.5721504e-21)
(0.25243399 -0.030355058 7.7326764e-21)
(0.26753086 -0.02945256 -3.8769166e-22)
(0.28276773 -0.028509477 7.2011173e-24)
(0.29811055 -0.027535253 -7.5827806e-21)
(0.31352631 -0.02653832 4.2928174e-21)
(0.32898312 -0.025526245 8.6159353e-21)
(0.34445031 -0.024505838 -3.8811266e-21)
(0.35989852 -0.023483234 -2.1811567e-21)
(0.37529984 -0.022463957 9.1511103e-22)
(0.39062786 -0.021452961 -1.7603446e-21)
(0.40585778 -0.020454673 1.3200195e-21)
(0.42096649 -0.01947301 6.9901295e-22)
(0.4359326 -0.018511412 1.7338896e-21)
(0.45073651 -0.017572859 -2.1194394e-21)
(0.46536043 -0.01665989 2.4064313e-21)
(0.47978839 -0.015774629 5.8148274e-22)
(0.4940062 -0.014918807 5.6342896e-22)
(0.50800148 -0.014093786 3.0607328e-22)
(0.52176362 -0.013300591 9.822988e-22)
(0.53528369 -0.012539933 -1.5132175e-21)
(0.54855446 -0.011812247 4.1850765e-22)
(0.56157032 -0.011117721 1.9391793e-22)
(0.57432721 -0.010456334 -7.1184839e-23)
(0.58682268 -0.0098278892 3.2426841e-23)
(0.5990557 -0.0092320615 -3.940303e-22)
(0.61102711 -0.0086684175 2.1374603e-22)
(0.62273846 -0.00813656 -3.10304e-23)
(0.63419596 -0.007635904 5.0604969e-22)
(0.64539908 -0.0071667423 -2.3571037e-22)
(0.65637684 -0.006727354 3.9835385e-23)
(0.66708143 -0.0063240554 6.716165e-23)
(0.67770822 -0.0059411799 -8.8696613e-23)
(0.68776914 -0.0056382163 -1.4837882e-22)
(0.69879411 -0.0052566933 4.8328887e-22)
(0.70661081 -0.0053265707 1.7938687e-22)
(0.72295332 -0.0044952574 -8.472214e-22)
(0.16284204 -0.035846323 1.7452686e-21)
(0.16696781 -0.03957142 -1.1755009e-20)
(0.17485801 -0.042246464 6.6050768e-21)
(0.18390306 -0.043616264 -1.3903937e-20)
(0.19294549 -0.044543283 -2.0562166e-21)
(0.20235994 -0.045200094 9.7884725e-21)
(0.21230415 -0.045521573 -1.0650041e-20)
(0.22269828 -0.045536745 1.2235556e-21)
(0.23349441 -0.04530905 1.3263111e-20)
(0.24467936 -0.044878574 3.7293334e-21)
(0.25623156 -0.044272133 -6.338661e-21)
(0.26812147 -0.043515047 -3.1390894e-21)
(0.28031927 -0.042630776 -5.6086021e-21)
(0.29279522 -0.041639581 -6.7108363e-21)
(0.30551872 -0.040559082 2.885458e-21)
(0.31845862 -0.039404967 4.134367e-22)
(0.3315837 -0.038191302 1.5249386e-21)
(0.34486289 -0.036930731 -3.3827415e-21)
(0.35826553 -0.035634666 -4.5042268e-21)
(0.37176154 -0.034313447 2.4844183e-21)
(0.38532164 -0.032976464 3.4484971e-21)
(0.39891754 -0.031632237 -1.7756332e-21)
(0.41252206 -0.030288491 1.6624361e-21)
(0.4261093 -0.028952196 -4.8395521e-22)
(0.43965475 -0.027629608 -4.2156754e-21)
(0.45313538 -0.026326301 -3.0542317e-21)
(0.46652973 -0.025047189 -2.7037207e-22)
(0.47981795 -0.023796555 3.3815257e-22)
(0.49298185 -0.022578078 -2.2066102e-21)
(0.50600493 -0.021394855 -1.0204409e-21)
(0.51887236 -0.020249441 2.1864156e-22)
(0.53157098 -0.019143877 -1.3628822e-21)
(0.54408929 -0.01807973 -4.7724003e-23)
(0.55641741 -0.017058135 -4.9102331e-22)
(0.56854702 -0.016079836 -4.4647046e-22)
(0.58047137 -0.015145233 -6.5257541e-22)
(0.5921852 -0.014254431 -1.008824e-21)
(0.60368478 -0.013407287 -2.1606056e-23)
(0.61496779 -0.012603476 -3.5902091e-24)
(0.62603369 -0.011842521 -5.9515224e-22)
(0.63688267 -0.011123988 -3.3760297e-23)
(0.64751947 -0.010447177 -4.0273666e-22)
(0.65794227 -0.0098126039 -5.8050921e-22)
(0.66817808 -0.0092179866 4.680006e-22)
(0.67817937 -0.0086721382 1.3943638e-23)
(0.68813384 -0.0081535826 2.3012746e-22)
(0.69757031 -0.0077440714 -1.6851502e-22)
(0.70795686 -0.0072266976 -3.2880262e-22)
(0.71529707 -0.0073245495 -2.2408038e-23)
(0.73078594 -0.0061975857 4.8038782e-22)
(0.2682588 -0.041815504 -2.2490021e-20)
(0.26868395 -0.046572531 4.9430611e-20)
(0.2739406 -0.049833429 1.0647671e-20)
(0.28064362 -0.051421602 -1.6484021e-20)
(0.28697709 -0.052567547 -2.3929796e-21)
(0.2935053 -0.053460807 2.4255701e-21)
(0.30055229 -0.053974987 -2.0031403e-21)
(0.30803824 -0.054127531 -4.8309229e-21)
(0.31591187 -0.053990892 -4.1341369e-21)
(0.32418164 -0.053610464 -1.2534604e-20)
(0.33284428 -0.05301482 1.8696819e-20)
(0.34188032 -0.052231112 6.9092586e-21)
(0.35126749 -0.051285477 -1.7067431e-20)
(0.36098268 -0.0502012 1.0037315e-20)
(0.37100054 -0.048998913 8.0473072e-21)
(0.38129385 -0.047697274 -4.8132967e-22)
(0.39183435 -0.046313306 -2.8688534e-21)
(0.40259323 -0.04486257 -4.1830228e-21)
(0.41354148 -0.043359312 -1.5557089e-21)
(0.42465025 -0.041816594 -1.37548e-21)
(0.43589107 -0.040246398 -3.300241e-21)
(0.44723618 -0.038659697 0)
(0.45865868 -0.037066508 -1.4649548e-21)
(0.47013274 -0.035475935 3.9774658e-21)
(0.48163373 -0.033896197 5.6356142e-21)
(0.49313834 -0.032334658 -9.1510855e-22)
(0.50462468 -0.03079785 -3.2210134e-21)
(0.51607234 -0.029291502 3.3769557e-21)
(0.52746243 -0.027820571 8.4060251e-23)
(0.53877764 -0.026389272 3.7105364e-21)
(0.55000222 -0.025001118 -5.1279856e-22)
(0.56112198 -0.023658967 1.7852402e-21)
(0.57212428 -0.022365061 -8.8644484e-22)
(0.58299804 -0.021121089 3.8923924e-22)
(0.59373364 -0.019928229 -5.182689e-22)
(0.60432296 -0.018787219 5.8028518e-22)
(0.61475933 -0.017698409 5.2158402e-22)
(0.62503752 -0.016661829 4.3803569e-22)
(0.63515367 -0.01567727 -1.0831524e-21)
(0.64510568 -0.014744319 7.7432151e-22)
(0.65489214 -0.01386261 -4.0924332e-22)
(0.66451612 -0.013031435 -1.3118346e-21)
(0.67397434 -0.012251614 1.674468e-21)
(0.68329137 -0.011520422 -5.6511359e-23)
(0.69242025 -0.010849114 -1.9005541e-22)
(0.70153909 -0.010210862 -7.2125856e-24)
(0.71019823 -0.0097081256 -1.8102395e-22)
(0.71978755 -0.0090704862 -5.666415e-22)
(0.72653349 -0.009195943 8.0503477e-22)
(0.74095057 -0.0078078825 -4.8878417e-23)
(0.39035616 -0.044297961 -1.8858912e-20)
(0.38621495 -0.050115286 1.315468e-20)
(0.38786538 -0.053911574 3.6448221e-21)
(0.39144019 -0.055741588 -8.0096964e-21)
(0.39439109 -0.057186679 1.257454e-20)
(0.39737844 -0.058415239 8.1116885e-21)
(0.40091787 -0.059243975 -1.2835415e-20)
(0.4049465 -0.059675419 -6.2757253e-21)
(0.40939417 -0.059778178 1.309136e-20)
(0.41427893 -0.059596757 -1.6255649e-20)
(0.41961318 -0.059160279 -1.4400939e-20)
(0.42538546 -0.058496275 1.5013847e-20)
(0.43157747 -0.057631737 6.9701782e-21)
(0.43816948 -0.056591811 -4.9673838e-21)
(0.44513899 -0.055399577 -1.4657378e-21)
(0.45246073 -0.05407635 -3.7079982e-21)
(0.46010762 -0.052641952 4.9353288e-21)
(0.46805157 -0.051114847 3.683258e-21)
(0.47626396 -0.049512205 -3.1541303e-21)
(0.48471596 -0.047849973 3.1271583e-21)
(0.49337897 -0.046142928 2.9144548e-21)
(0.50222486 -0.044404719 -3.3406985e-21)
(0.51122625 -0.042647899 3.6794293e-22)
(0.52035669 -0.040883945 -3.2044564e-21)
(0.5295908 -0.039123278 7.9507278e-21)
(0.53890447 -0.037375283 6.4325949e-21)
(0.5482749 -0.035648336 9.9188753e-22)
(0.55768068 -0.033949823 -1.823803e-21)
(0.56710186 -0.032286184 4.1471234e-21)
(0.57651998 -0.030662942 7.8735898e-21)
(0.58591809 -0.029084756 2.3790132e-21)
(0.59528071 -0.02755547 3.6237557e-21)
(0.60459387 -0.026078172 2.1102725e-21)
(0.61384507 -0.024655257 8.3065368e-22)
(0.62302324 -0.023288496 -2.4997646e-22)
(0.63211876 -0.021979104 3.0092188e-21)
(0.6411234 -0.020727817 6.7919745e-22)
(0.65003034 -0.01953497 3.137868e-22)
(0.65883411 -0.018400596 5.6852909e-23)
(0.66753094 -0.017324467 1.1611669e-21)
(0.67611779 -0.016306404 4.346434e-23)
(0.68459593 -0.015345798 5.4521579e-22)
(0.69296061 -0.014443864 -1.2651171e-22)
(0.70123375 -0.013597561 -3.7013028e-22)
(0.70936929 -0.012820507 -1.8829171e-22)
(0.71753425 -0.012081063 -5.1719535e-22)
(0.72530447 -0.011500503 2.1838132e-22)
(0.73397818 -0.010760814 -1.531441e-22)
(0.74004326 -0.010913246 -4.6000075e-22)
(0.75322005 -0.0093047253 2.7324307e-22)
(0.5230615 -0.042370898 3.4924205e-21)
(0.5137044 -0.049286626 -1.9253328e-20)
(0.51080762 -0.05362347 -2.5197612e-21)
(0.51047576 -0.055880687 5.6517196e-21)
(0.50951123 -0.057846386 3.4620419e-21)
(0.50847961 -0.059597302 4.4448199e-22)
(0.50805733 -0.060924235 6.9480736e-21)
(0.50824136 -0.061830644 8.0300667e-21)
(0.50893974 -0.062371017 1.0050326e-20)
(0.5101574 -0.062580162 -1.171763e-20)
(0.51191213 -0.062486134 -2.2615803e-20)
(0.51419747 -0.062116941 -4.3751348e-21)
(0.51699535 -0.061499997 1.6606933e-20)
(0.52028521 -0.060661907 1.3265956e-20)
(0.52404408 -0.059628235 -5.7842214e-21)
(0.52824614 -0.058423246 1.0156987e-21)
(0.53286349 -0.05706992 -4.0661762e-21)
(0.53786701 -0.055590014 2.8968099e-21)
(0.54322694 -0.054004047 -2.9291693e-22)
(0.54891329 -0.052331278 -1.9450396e-21)
(0.5548962 -0.050589702 8.3447932e-21)
(0.56114623 -0.048796055 -4.4483811e-22)
(0.56763468 -0.046965811 5.5921933e-22)
(0.57433373 -0.045113187 -5.0677577e-22)
(0.58121665 -0.043251145 -4.4643027e-21)
(0.58825792 -0.041391414 4.359266e-21)
(0.59543332 -0.039544503 1.8579118e-21)
(0.60272001 -0.037719736 -3.4130397e-21)
(0.61009659 -0.035925283 -4.0877955e-21)