/*--------------------------------*- C++ -*----------------------------------*\
  =========                 |
  \\      /  F ield         | OpenFOAM: The Open Source CFD Toolbox
   \\    /   O peration     | Website:  https://openfoam.org
    \\  /    A nd           | Version:  6
     \\/     M anipulation  |
\*---------------------------------------------------------------------------*/
FoamFile
{
    version     2.0;
    format      ascii;
    class       surfaceScalarField;
    location    "13";
    object      phi;
}
// * * * * * * * * * * * * * * * * * * * * * * * * * * * * * * * * * * * * * //

dimensions      [0 3 -1 0 0 0 0];

internalField   nonuniform List<scalar> 
18180
(
0.0003510372
-0.0002178232
-0.00013321395
0.0014376372
-0.0015977045
0.00051110449
0.0033241974
-0.0038092515
0.0019226913
0.0060738168
-0.0067633473
0.004013728
0.0097472222
-0.01040395
0.0067305442
0.014399913
-0.014685764
0.010033074
0.020078577
-0.019568286
0.013889621
0.026817196
-0.025012653
0.018274033
0.034633038
-0.030978132
0.02316229
0.043522901
-0.037419244
0.028529381
0.053460035
-0.044283966
0.034346832
0.064392228
-0.05151301
0.040580817
0.076241527
-0.059040184
0.047190885
0.088906095
-0.066793844
0.054129277
0.10226474
-0.074699468
0.061340822
0.11618457
-0.082683344
0.068763517
0.13053111
-0.09067711
0.076330566
0.14518483
-0.098622583
0.083968869
0.16010938
-0.10649164
0.091567084
-0.11427675
0.098926211
0.17545992
0.00043321919
-0.00065104236
0.0017501252
-0.0029146104
0.0040049578
-0.0060640841
0.0072491759
-0.010007565
0.011528535
-0.014683308
0.01687836
-0.020035589
0.023318548
-0.026008474
0.030848772
-0.032542877
0.039444306
-0.039573665
0.049053
-0.047027938
0.059593957
-0.054824923
0.070958308
-0.062877361
0.083012326
-0.071094202
0.095602861
-0.079384379
0.10856468
-0.08766129
0.12172892
-0.09584758
0.13493135
-0.10387954
0.14802063
-0.11171187
0.16085871
-0.11932971
-0.12667294
0.1732549
0.00051946875
-0.0011705111
0.0020691571
-0.0044642988
0.0046859795
-0.0086809064
0.0084019472
-0.013723533
0.013238587
-0.019519947
0.019200404
-0.025997406
0.026268969
-0.033077039
0.034398216
-0.040672124
0.043511525
-0.048686973
0.053501175
-0.057017589
0.06423057
-0.065554318
0.075539292
-0.074186082
0.087250694
-0.082805604
0.099181334
-0.091315019
0.1111512
-0.099631157
0.12299338
-0.10768976
0.13456178
-0.11544794
0.14573498
-0.12288507
0.15640921
-0.13000394
-0.1367718
0.16650806
0.00060758771
-0.0017780988
0.0023852963
-0.0062420073
0.0053437167
-0.011639327
0.0094860409
-0.017865857
0.01479926
-0.024833167
0.021246314
-0.032444461
0.028760364
-0.040591089
0.037241728
-0.049153487
0.046558012
-0.058003257
0.056547779
-0.067007356
0.067027623
-0.076034163
0.077802045
-0.084960504
0.08867507
-0.093678629
0.099462253
-0.1021022
0.11000162
-0.11017053
0.12016225
-0.11785038
0.12984953
-0.12513522
0.13900644
-0.13204197
0.14760893
-0.13860644
-0.1448464
0.15568353
0.00069397401
-0.0024720727
0.0026844757
-0.0082325089
0.0059460951
-0.014900946
0.010443326
-0.022363088
0.016118687
-0.030508528
0.022884648
-0.039210422
0.030619676
-0.048326116
0.039168569
-0.057702381
0.048347248
-0.067181935
0.05795162
-0.076611729
0.067769561
-0.085852103
0.077594489
-0.094785432
0.087238797
-0.10332294
0.096545386
-0.11140879
0.1053959
-0.11902104
0.1137149
-0.12616938
0.12146982
-0.13289014
0.12866726
-0.13923941
0.13534638
-0.14528555
-0.15108699
0.14158697
0.00077417614
-0.0032462489
0.0029499872
-0.01040832
0.0064567111
-0.01840767
0.011211121
-0.027117498
0.01710341
-0.036400817
0.023990474
-0.046097487
0.03169548
-0.056031122
0.04001308
-0.06601998
0.048719603
-0.075888459
0.05758683
-0.085478955
0.06639733
-0.094662603
0.074959143
-0.10334725
0.083117703
-0.1114815
0.09076351
-0.1190546
0.097834797
-0.12609233
0.10431535
-0.13264993
0.11022842
-0.13880321
0.11562823
-0.14463922
0.12059063
-0.15024796
-0.15570941
0.12521305
0.00084329564
-0.0040895445
0.0031640757
-0.0127291
0.0068385829
-0.022082177
0.011729188
-0.032008103
0.017669615
-0.042341243
0.024461362
-0.052889234
0.031878224
-0.063447984
0.03967702
-0.073818776
0.047612673
-0.083824112
0.055455115
-0.093321396
0.063005201
-0.10221269
0.070107131
-0.11044918
0.076655683
-0.11803005
0.082597571
-0.12499649
0.087927353
-0.13142211
0.092679164
-0.13740174
0.096916085
-0.14304014
0.1007191
-0.14844223
0.10417733
-0.15370619
-0.15891655
0.10738448
0.00089611497
-0.0049856594
0.0033089168
-0.015141902
0.0070569455
-0.025830206
0.011945231
-0.036896389
0.017751779
-0.048147791
0.024228714
-0.059366168
0.031112406
-0.070331677
0.038139155
-0.080845525
0.045063332
-0.090748289
0.051674591
-0.099932656
0.057811066
-0.10834916
0.063366541
-0.11600465
0.068290907
-0.12295441
0.072584518
-0.1292901
0.076288111
-0.13512571
0.079470416
-0.14058405
0.082215667
-0.14578539
0.084612828
-0.15083939
0.086747655
-0.15584102
-0.16086799
0.088699099
0.00092621639
-0.0059118758
0.0033665969
-0.017582282
0.0070814231
-0.029545032
0.011819803
-0.041634769
0.01730985
-0.053637837
0.023265502
-0.065321821
0.029401825
-0.076468
0.035453917
-0.086897617
0.041195385
-0.096489757
0.046452683
-0.10518995
0.051112758
-0.11300924
0.055123126
-0.12001502
0.058485146
-0.12631643
0.061242422
-0.13204737
0.063466862
-0.13735015
0.065244886
-0.14236207
0.066665705
-0.14720621
0.067812904
-0.15198659
0.068759593
-0.15678771
-0.16167474
0.069566342
0.00093031612
-0.0068421919
0.0033290643
-0.01998103
0.0068999501
-0.033115918
0.011341529
-0.046076348
0.016342516
-0.058638824
0.021593915
-0.070573221
0.0268079
-0.081681985
0.031737267
-0.091826984
0.036191121
-0.10094361
0.040043529
-0.10904236
0.043233873
-0.11619958
0.045759573
-0.12254072
0.047663354
-0.12822021
0.049017932
-0.13340195
0.049910918
-0.13824313
0.050432097
-0.14288325
0.05066431
-0.14743842
0.050678287
-0.15200057
0.05053088
-0.1566403
0.05026476
-0.16140862
-0.00022818268
0.00022818278
-6.7290555e-11
-0.0007623889
0.00053420635
-9.3154245e-11
-0.0015083355
0.00074594673
-5.1797858e-11
-0.0023945641
0.00088622851
5.5876856e-11
-0.0033639481
0.00096938387
2.2709529e-10
-0.0043699849
0.0010060364
4.503725e-10
-0.0053741348
0.0010041492
7.2670479e-10
-0.0063436008
0.00096946502
1.0432522e-09
-0.0072495751
0.0009059729
1.4071456e-09
-0.0080658493
0.0008162725
1.801669e-09
-0.0087676787
0.0007018273
2.2412666e-09
-0.0093308327
0.00056315135
2.7021713e-09
-0.0097307944
0.00039995867
3.2044811e-09
-0.0099420922
0.00021129418
3.7150385e-09
-0.0099377929
-4.3034428e-06
4.2613474e-09
-0.0096892933
-0.00024850422
4.7938606e-09
-0.0091663872
-0.00052291126
5.345774e-09
-0.0083365124
-0.0008298806
5.8587779e-09
-0.0071637863
-0.0011727323
6.3728637e-09
-0.0015378998
-0.0056258933
6.8256307e-09
-0.00021055692
0.00043873972
-0.00069851517
0.0010221646
-0.001371447
0.0014188786
-0.0021579879
0.0016727694
-0.0030000784
0.0018114744
-0.0038494684
0.0018554265
-0.0046651712
0.0018198521
-0.0054113153
0.0017156091
-0.0060554259
0.0015500836
-0.0065670469
0.0013278935
-0.0069166024
0.0010513829
-0.0070744331
0.00072098218
-0.0070099685
0.00033549411
-0.0066910094
-0.00010766479
-0.006083158
-0.00061215474
-0.0051495005
-0.0011821615
-0.003850594
-0.0018218177
-0.0021442462
-0.0025362282
1.492128e-05
-0.0033318997
-0.0041794543
0.0026564759
-0.00017545418
0.00061419392
-0.0005714246
0.0014181351
-0.0010997243
0.0019471783
-0.0016897639
0.0022628091
-0.0022821638
0.0024038744
-0.0028257324
0.0023989951
-0.0032751873
0.002269307
-0.0035891857
0.0020296077
-0.0037287208
0.0016896187
-0.0036558122
0.0012549849
-0.0033324211
0.0007279918
-0.0027195163
0.00010807754
-0.0017762619
-0.00060776024
-0.00045933615
-0.0014245905
0.0012776863
-0.0023491772
0.0034848455
-0.0033893206
0.006215973
-0.0045529452
0.009528296
-0.005848551
0.01348222
-0.0072858234
-0.0088159649
0.01811873
-0.00012623132
0.00074042527
-0.00039205428
0.0016839581
-0.00071489751
0.0022700216
-0.0010253282
0.0025732398
-0.0012623661
0.0026409124
-0.0013710856
0.0025077147
-0.0013007256
0.0021989471
-0.0010029952
0.0017318773
-0.0004306852
0.0011173088
0.00046346367
0.00036083615
0.0017276933
-0.00053623776
0.0034119814
-0.0015762105
0.0055686597
-0.0027644384
0.0082529415
-0.0041088722
0.011523438
-0.0056196736
0.015442743
-0.0073086253
0.020077863
-0.0091880653
0.025499827
-0.011270515
0.03178318
-0.013569177
-0.016013002
0.038980217
-6.7102185e-05
0.00080752748
-0.00017416557
0.0017910215
-0.00024442648
0.0023402825
-0.0002096405
0.0025384538
-7.0668296e-06
0.0024383387
0.00042226523
0.0020783827
0.0011349988
0.0014862136
0.0021867347
0.00068014144
0.0036331128
-0.00032906925
0.0055306562
-0.0015367072
0.0079373522
-0.0029429337
0.010913016
-0.004551874
0.014519519
-0.0063709413
0.018820917
-0.0084102702
0.023883521
-0.010682277
0.029776156
-0.01320126
0.036570745
-0.015982655
0.044342629
-0.019042399
0.053171225
-0.022397773
-0.025955686
0.063113909
-2.150453e-06
0.00080967797
6.8653352e-05
0.0017202177
0.00028421609
0.0021247198
0.00071185002
0.00211082
0.0014160828
0.001734106
0.0024597431
0.0010347225
0.0039049152
4.1041543e-05
0.0058138052
-0.0012287485
0.0082493422
-0.0027646062
0.011275433
-0.0045627979
0.014957025
-0.0066245257
0.019359961
-0.0089548096
0.024550542
-0.011561523
0.030594881
-0.014454609
0.037558149
-0.017645545
0.045504056
-0.021147167
0.054495172
-0.024973771
0.064594421
-0.029141647
0.07586885
-0.033672202
-0.038456153
0.088369318
6.5507629e-05
0.00074417037
0.00032558937
0.001460136
0.00084851736
0.0016017919
0.0017010324
0.001258305
0.0029492318
0.00048590654
0.0046591385
-0.00067518416
0.0068971311
-0.002196951
0.0097301057
-0.004061723
0.013225368
-0.0062598685
0.017450324
-0.0087877538
0.022471809
-0.01164601
0.028355066
-0.014838067
0.035162403
-0.01836886
0.04295156
-0.022243767
0.051773891
-0.026467877
0.061672732
-0.031046007
0.072682937
-0.035983976
0.08483314
-0.04129185
0.098154092
-0.046993154
-0.05298082
0.11267876
0.0001341552
0.0006100152
0.00058998611
0.0010043052
0.0014336205
0.00075815754
0.0027313719
-3.9446361e-05
0.0045503302
-0.0013330517
0.0069583568
-0.0030832107
0.010023709
-0.0052623027
0.013814486
-0.0078525006
0.018397774
-0.010843156
0.023838349
-0.014228328
0.030197016
-0.018004678
0.037528575
-0.022169625
0.04587945
-0.026719735
0.055285084
-0.031649401
0.065767231
-0.036950023
0.077331492
-0.042610269
0.089966166
-0.04861865
0.10364429
-0.054969975
0.11833362
-0.061682481
-0.068680047
0.13403284
0.0002032799
0.00040673534
0.00085898707
0.00034859805
0.002031751
-0.00041460634
0.0037869597
-0.001794655
0.0061911938
-0.0037372857
0.0093114883
-0.0062035052
0.013214191
-0.0091650057
0.017963433
-0.012601742
0.023619165
-0.016498889
0.030234795
-0.020843958
0.037854464
-0.025624347
0.046510063
-0.030825224
0.056218101
-0.036427773
0.066976523
-0.042407824
0.0787616
-0.0487351
0.091524971
-0.05537364
0.10519168
-0.062285362
0.11966175
-0.069440041
0.13482216
-0.076842893
-0.084489033
0.15063115
0.0002735214
0.001133224
0.002641309
0.004860382
0.0078536405
0.011683209
0.016407825
0.022080116
0.028743518
0.036428941
0.045151426
0.054907019
0.065670131
0.077391584
0.089997306
0.10338718
0.11743239
0.13196122
0.14668541
0.16112258
-0.0031470807
-0.0024788222
9.7198228e-09
-0.00023602921
-0.0029110616
1.0298375e-08
0.0031068902
-0.0033429301
1.084643e-08
0.0068375054
-0.0037306264
1.1348581e-08
0.01095003
-0.0041125359
1.1738168e-08
0.015452132
-0.0045021151
1.1920453e-08
0.020349249
-0.004897129
1.1976817e-08
0.025646558
-0.0052973208
1.1763021e-08
0.031350158
-0.0057036111
1.1237251e-08
0.037464998
-0.0061148502
1.0367601e-08
0.043992844
-0.0065278542
9.2080958e-09
0.050930873
-0.0069380369
7.7644538e-09
0.058270339
-0.007339472
6.1098855e-09
0.065995249
-0.0077249146
4.2575685e-09
0.074081291
-0.0080860448
2.2832329e-09
0.08249512
-0.0084138285
2.0600874e-10
0.091194047
-0.0086989257
-1.8986022e-09
0.10012618
-0.0089321261
-4.0013559e-09
0.10923096
-0.0091047727
-6.0378598e-09
0.11844006
-0.0092091013
-7.980256e-09
0.1276785
-0.0092384254
-9.791376e-09
0.13686562
-0.0091871115
-1.1448512e-08
0.14591598
-0.0090503407
-1.2944238e-08
0.15473974
-0.0088237501
-1.4246249e-08
0.16324295
-0.0085031946
-1.5367504e-08
0.17132799
-0.0080850218
-1.624608e-08
0.17889529
-0.0075672894
-1.691134e-08
0.18584745
-0.0069521432
-1.7269409e-08
0.19209648
-0.0062490047
-1.7373389e-08
0.19757391
-0.0054774197
-1.7123274e-08
0.20224177
-0.0046678417
-1.6606877e-08
0.20610064
-0.0038588567
-1.5759084e-08
0.20919142
-0.0030907643
-1.470131e-08
0.21158889
-0.0023974564
-1.3436834e-08
0.21338879
-0.0017998891
-1.2091699e-08
0.2146927
-0.0013038927
-1.0704416e-08
0.21559544
-0.00090273512
-9.3448122e-09
0.21617786
-0.00058241184
-8.0389713e-09
0.21650469
-0.0003268175
-6.7955619e-09
0.21662574
-0.00012104361
-5.610029e-09
0.21657846
4.7283696e-05
-4.4663314e-09
0.21639064
0.00018782438
-3.3697388e-09
0.21608285
0.00030778689
-2.3304716e-09
0.21567048
0.000412375
-1.3651796e-09
0.21516527
0.00050520925
-4.9059806e-10
0.21457626
0.00058900716
2.9061956e-10
0.21391096
0.00066529878
9.7298098e-10
0.21317428
0.00073667616
1.5586189e-09
0.21237435
0.00079992997
2.0359604e-09
0.00087721484
2.5042577e-09
0.0050784387
-0.004900785
0.0079132952
-0.005745918
0.011152466
-0.0065821005
0.014744607
-0.0073227681
0.018688194
-0.008056123
0.022994689
-0.0088086103
0.027670281
-0.0095727201
0.032720345
-0.010347385
0.038151563
-0.01113483
0.043969624
-0.011932911
0.050177149
-0.012735379
0.056772454
-0.013533341
0.063748316
-0.014315334
0.071090714
-0.015067313
0.078777782
-0.015773112
0.086779103
-0.01641515
0.095055395
-0.016975217
0.1035586
-0.017435334
0.11223241
-0.017778577
0.12101307
-0.017989768
0.12983049
-0.018055843
0.1386092
-0.017965822
0.14726919
-0.01771033
0.15572629
-0.01728085
0.16389226
-0.01666916
0.17167498
-0.015867743
0.17897973
-0.014872038
0.18571263
-0.013685051
0.19178732
-0.01232369
0.19713453
-0.010824631
0.20171294
-0.009246252
0.20551767
-0.0076635831
0.20858281
-0.0061559118
0.21097611
-0.0047907557
0.21278693
-0.0036107089
0.21411175
-0.0026287141
0.21504179
-0.0018327687
0.21565555
-0.0011961693
0.21601642
-0.00068769042
0.21617354
-0.0002781645
0.21616405
5.677485e-05
0.21601562
0.00033624957
0.21574883
0.00057458455
0.21537905
0.00078214836
0.2149181
0.00096616368
0.21437504
0.0011320608
0.21375746
0.0012828808
0.2130703
0.0014238375
0.21232183
0.0015483988
0.0017010715
0.020392256
-0.0071743103
0.023033671
-0.0083873337
0.026028561
-0.0095769901
0.029317798
-0.010612005
0.032906684
-0.011645009
0.036812516
-0.012714443
0.041042932
-0.013803136
0.04560377
-0.014908222
0.050502634
-0.016033694
0.055746433
-0.01717671
0.061339299
-0.018328245
0.067281581
-0.019475623
0.073568809
-0.020602561
0.080190528
-0.021689032
0.087129308
-0.022711892
0.094360037
-0.023645879
0.10184957
-0.024464747
0.10955673
-0.025142499
0.11743277
-0.025654615
0.12542208
-0.025979076
0.1334632
-0.026096962
0.14148982
-0.025992443
0.14943157
-0.025652086
0.15721439
-0.025063667
0.16476038
-0.02421515
0.17198758
-0.023094938
0.17881035
-0.021694808
0.18514171
-0.020016417
0.1908987
-0.018080677
0.19601097
-0.015936904
0.20043132
-0.013666598
0.20414481
-0.01137708
0.20717292
-0.0091840183
0.20957011
-0.0071879422
0.2114137
-0.0054543067
0.21279056
-0.00400557
0.21378502
-0.0028272244
0.2144712
-0.0018823499
0.21490999
-0.0011264797
0.21514925
-0.00051742837
0.21522559
-1.9562359e-05
0.21516651
0.0003953259
0.21499259
0.00074850546
0.2147193
0.0010554401
0.21435854
0.0013269257
0.2139195
0.0015710972
0.21340991
0.0017924713
0.21283481
0.0019989372
0.21220276
0.0021804426
0.0024041841
0.04096546
-0.0091595528
0.043258265
-0.010680139
0.045836915
-0.012155639
0.048641851
-0.013416941
0.051688009
-0.014691167
0.054998019
-0.016024453
0.058581249
-0.017386366
0.062444429
-0.018771401
0.066596016
-0.020185282
0.071044007
-0.0216247
0.075794111
-0.023078349
0.080848951
-0.024530464
0.086207236
-0.025960847
0.091862762
-0.027344558
0.097803488
-0.028652618
0.10401082
-0.029853214
0.11045919
-0.030913119
0.11711596
-0.031799266
0.12394169
-0.032480341
0.13089078
-0.032928166
0.13791238
-0.033118565
0.14495139
-0.033031456
0.15194931
-0.032650005
0.15884464
-0.031958992
0.16557264
-0.030943152
0.17206462
-0.029586918
0.17824733
-0.027877514
0.18404372
-0.025812814
0.18937654
-0.023413496
0.19417534
-0.020735697
0.19838626
-0.017877526
0.20198189
-0.01497271
0.20496722
-0.012169341
0.20737897
-0.0095997012
0.2092781
-0.0073534343
0.21073812
-0.0054655907
0.21183376
-0.003922863
0.21263294
-0.0026815238
0.21319295
-0.0016864916
0.21355984
-0.00088432595
0.21376945
-0.00022917184
0.21384907
0.00031571471
0.21381928
0.00077829517
0.21369569
0.001179028
0.21349037
0.0015322392
0.21321271
0.0018487581
0.21287066
0.0021345291
0.2124694
0.0024001891
0.21201796
0.0026318844
0.0029199852
0.064610269
-0.010655913
0.066357361
-0.01242723
0.068319071
-0.01411735
0.070446005
-0.015543874
0.072765305
-0.017010467
0.075302124
-0.018561272
0.078067019
-0.020151261
0.081068033
-0.021772415
0.084313966
-0.023431215
0.087813029
-0.025123763
0.091571826
-0.026837146
0.095594703
-0.02855334
0.09988306
-0.030249204
0.10443459
-0.031896084
0.10924244
-0.033460468
0.1142945
-0.03490528
0.11957288
-0.0361915
0.12505364
-0.037280022
0.13070688
-0.038133579
0.13649721
-0.0387185
0.14238455
-0.039005904
0.14832511
-0.038972017
0.15427239
-0.038597283
0.16017776
-0.037864358
0.1659903
-0.036755699
0.17165581
-0.035252424
0.17711523
-0.033336931
0.18230381
-0.031001395
0.18715248
-0.028262163
0.19159278
-0.025176
0.19556544
-0.021850183
0.1990304
-0.018437674
0.20197483
-0.015113768
0.20441543
-0.012040306
0.20639406
-0.0093320647
0.20796837
-0.0070398987
0.20920138
-0.005155878
0.21015334
-0.0036334748
0.21087701
-0.0024101697
0.21141614
-0.0014234527
0.21180555
-0.00061857692
0.21207223
4.9028713e-05
0.21223684
0.00061368366
0.21231516
0.0011007095
0.2123195
0.0015279045
0.21225947
0.0019087798
0.21214336
0.0022506463
0.21197656
0.0025669848
0.21176868
0.0028397648
0.0031831738
0.089131281
-0.011417876
0.090107845
-0.013403794
0.091241066
-0.015250572
0.092502948
-0.016805756
0.093931518
-0.018439037
0.095549518
-0.020179272
0.097367421
-0.021969164
0.099394533
-0.023799526
0.10163908
-0.025675763
0.10410808
-0.027592762
0.10680768
-0.029536748
0.10974272
-0.031488377
0.11291607
-0.033422552
0.11632811
-0.035308123
0.11997606
-0.037108423
0.12385326
-0.038782483
0.12794851
-0.040286747
0.13224562
-0.041577133
0.13672331
-0.042611265
0.14135538
-0.04335057
0.14611137
-0.043761892
0.15095749
-0.043818142
0.1558578
-0.043497587
0.16077504
-0.042781602
0.16567088
-0.041651536
0.17050485
-0.040086394
0.17523226
-0.038064344
0.17980184
-0.035570973
0.18415483
-0.032615151
0.18822745
-0.029248624
0.19195762
-0.025580348
0.19529466
-0.021774719
0.19820886
-0.01802797
0.20069681
-0.014528258
0.20278038
-0.011415631
0.20450006
-0.0087595745
0.20590589
-0.00656171
0.20704935
-0.004776937
0.20797798
-0.0033387957
0.20873272
-0.002178197
0.2093472
-0.0012330562
0.20984807
-0.00045183691
0.21025602
0.00020572978
0.21058707
0.00076965578
0.21085383
0.0012611456
0.21106624
0.001696376
0.21123294
0.0020839457
0.21135962
0.0024402994
0.21145662
0.0027427695
0.0031301566
0.11248388
-0.011222997
0.11248648
-0.013406394
0.1126082
-0.015372288
0.11285953
-0.017057093
0.11328216
-0.01886166
0.11388963
-0.020786743
0.11469097
-0.022770506
0.11569599
-0.024804548
0.11691116
-0.026890927
0.11834085
-0.029022456
0.1199892
-0.031185099
0.12185996
-0.033359133
0.12395593
-0.03551853
0.12627864
-0.037630832
0.12882778
-0.03965756
0.13160053
-0.041555229
0.1345908
-0.043277025
0.13778865
-0.044774979
0.14117981
-0.046002425
0.14474567
-0.046916428
0.14846362
-0.04747984
0.1523079
-0.047662429
0.15625085
-0.04744054
0.16026414
-0.046794887
0.16431944
-0.045706836
0.16838786
-0.044154819
0.17243767
-0.042114154
0.17643088
-0.039564181
0.1803203
-0.036504566
0.18404935
-0.032977674
0.18755644
-0.029087444
0.19078368
-0.025001957
0.19368725
-0.020931541
0.19624542
-0.017086423
0.19846083
-0.013631042
0.20035679
-0.010655543
0.20196991
-0.0081748211
0.20334228
-0.00614931
0.20451567
-0.0045121826
0.20552788
-0.0031904149
0.20641114
-0.0021163163
0.20719168
-0.0012323686
0.20789025
-0.00049284132
0.20852314
0.00013676634
0.20910331
0.00068097086
0.20964108
0.0011586069
0.21014556
0.0015794613
0.21062276
0.0019631021
0.21108389
0.0022816391
0.0026994819
0.13278876
-0.0099789169
0.13171637
-0.012333998
0.13072987
-0.01438579
0.12991194
-0.016239163
0.12929735
-0.018247069
0.12888397
-0.020373364
0.12867852
-0.022565057
0.12868979
-0.02481582
0.12892133
-0.027122466
0.12937407
-0.029475194
0.13004896
-0.031859986
0.13094733
-0.034257509
0.13207066
-0.036641851
0.1334202
-0.038980377
0.13499666
-0.041234019
0.13679949
-0.043358056
0.1388261
-0.045303641
0.14107111
-0.047019982
0.14352561
-0.048456925
0.14617686
-0.049567683
0.14900833
-0.05031131
0.1520003
-0.050654402
0.1551311
-0.050571335
0.15837862
-0.050042405
0.16172161
-0.049049834
0.16513978
-0.047572989
0.16861186
-0.045586228
0.1721117
-0.043064025
0.17560379
-0.039996653
0.17904054
-0.036414426
0.18236404
-0.032410946
0.18551309
-0.028151006
0.18843368
-0.023852127
0.19108889
-0.019741638
0.19346429
-0.016006434
0.19556706
-0.012758318
0.19742065
-0.010028412
0.19905769
-0.0077863476
0.20051384
-0.0059683369
0.20182353
-0.0045001026
0.20301738
-0.0033101635
0.20412112
-0.0023361072
0.20515558
-0.0015273004
0.20613734
-0.00084499776
0.20707979
-0.00026147409
0.20799365
0.00024474229
0.20888859
0.00068451856
0.20977097
0.0010807262
0.21065303
0.0013995778
0.0018322583
0.14846071
-0.0078084788
0.14639322
-0.010266511
0.14433583
-0.012328396
0.1425098
-0.01441313
0.14093306
-0.016670332
0.13958682
-0.019027121
0.13847397
-0.021452206
0.13759949
-0.023941348
0.13696348
-0.026486449
0.13656385
-0.029075572
0.13639854
-0.031694674
0.13646622
-0.034325192
0.13676655
-0.036942172
0.13729995
-0.039513786
0.13806732
-0.04200139
0.13906936
-0.044360094
0.14030581
-0.046540091
0.14177455
-0.048488722
0.14347074
-0.05015311
0.14538614
-0.051483087
0.14750888
-0.052434047
0.14982372
-0.052969242
0.15231313
-0.053060747
0.15495896
-0.052688237
0.15774426
-0.051835131
0.16065419
-0.050482919
0.1636749
-0.048606942
0.1667898
-0.046178915
0.16997401
-0.043180867
0.17318969
-0.039630108
0.17638508
-0.035606332
0.17949935
-0.031265277
0.18247242
-0.026825199
0.18525601
-0.022525231
0.18782149
-0.018571908
0.19016182
-0.015098651
0.19228826
-0.012154852
0.19422427
-0.0097223593
0.19599944
-0.0077435043
0.19764464
-0.0061453083
0.19918882
-0.0048543352
0.20065713
-0.0038044256
0.20207049
-0.0029406569
0.20344581
-0.0022203207
0.20479694
-0.0016125991
0.20613509
-0.0010934078
0.20747053
-0.0006509256
0.20881001
-0.00025875538
0.21016695
4.2642945e-05
0.00047255813
0.15880733
-0.005493226
0.15584496
-0.0073041358
0.15292275
-0.0094061918
0.15026952
-0.011759898
0.14788023
-0.014281044
0.14574794
-0.016894826
0.14387469
-0.019578958
0.14225998
-0.022326639
0.1409015
-0.02512797
0.13979623
-0.027970303
0.1389407
-0.030839142
0.13833187
-0.033716358
0.13796793
-0.036578237
0.13784851
-0.039394364
0.13797438
-0.042127255
0.13834696
-0.044732673
0.13896758
-0.047160717
0.13983655
-0.049357691
0.14095211
-0.051268669
0.14230954
-0.05284052
0.14390058
-0.054025083
0.14571333
-0.054781996
0.14773305
-0.055080459
0.14994374
-0.054898933
0.15233044
-0.054221825
0.15488093
-0.053033416
0.15758577
-0.051311777
0.16043514
-0.049028291
0.16341315
-0.046158875
0.16649144
-0.042708396
0.16962581
-0.038740705
0.17275864
-0.034398105
0.17582734
-0.029893895
0.17877586
-0.025473755
0.18156448
-0.021360525
0.18417423
-0.017708401
0.18660563
-0.014586252
0.18887377
-0.011990505
0.19100249
-0.0098722228
0.19301922
-0.0081620383
0.1949512
-0.0067863184
0.19682307
-0.0056762922
0.19865581
-0.0047733954
0.20046673
-0.0040312386
0.20227019
-0.0034160675
0.20407795
-0.0029011626
0.205901
-0.0024739775
0.20774631
-0.0021040624
0.20962917
-0.0018402158
-0.0014319386
0.20286347
-0.0016358983
-0.2067208
0.19977432
-0.0042149822
0.19711314
-0.0067450153
0.19472266
-0.0093694212
0.19255977
-0.012118149
0.1905953
-0.01493036
0.18880781
-0.017791465
0.18718331
-0.020702138
0.18571153
-0.023656191
0.18438335
-0.026642123
0.1831898
-0.029645595
0.18212186
-0.032648415
0.18117058
-0.035626957
0.18032749
-0.038551272
0.17958504
-0.041384809
0.17893706
-0.04408469
0.178379
-0.046602656
0.17790805
-0.048886743
0.17752301
-0.050883629
0.17722396
-0.052541476
0.17701186
-0.053812984
0.17688811
-0.054658244
0.17685436
-0.055046711
0.17691269
-0.054957262
0.1770661
-0.054375233
0.17731909
-0.053286404
0.17767771
-0.051670398
0.17814856
-0.049499143
0.17873649
-0.0467468
0.17944135
-0.043413256
0.18025477
-0.039554129
0.18115812
-0.035301456
0.18212277
-0.030858539
0.18311307
-0.026464056
0.18409148
-0.022338939
0.18502423
-0.018641143
0.18588578
-0.015447809
0.18666108
-0.012765803
0.18734507
-0.010556216
0.18794044
-0.0087574084
0.18845456
-0.0073004333
0.18889674
-0.006118473
0.18927644
-0.005153096
0.18960228
-0.0043570814
0.18988196
-0.0036957442
0.19012175
-0.0031409527
0.19032833
-0.002680558
0.19050388
-0.0022796097
0.19066207
-0.001998408
-0.0015510059
0.22976628
0.0011020173
-0.2325042
0.22698465
-0.001433354
0.22445956
-0.0042199256
0.22205741
-0.006967265
0.2197293
-0.0097900416
0.21749754
-0.012698599
0.21537294
-0.015666869
0.21335459
-0.018683784
0.21144157
-0.021743165
0.20963315
-0.024833703
0.20792698
-0.027939427
0.20631926
-0.031040699
0.20480558
-0.034113271
0.20338153
-0.037127228
0.20204337
-0.040046644
0.2007885
-0.042829826
0.19961597
-0.045430124
0.1985266
-0.047797376
0.19752298
-0.049880008
0.19660913
-0.051627623
0.19579004
-0.052993893
0.19507117
-0.053939376
0.19445812
-0.054433662
0.19395665
-0.054455794
0.19357318
-0.053991758
0.19331545
-0.053028672
0.19319293
-0.051547883
0.19321624
-0.049522448
0.19339508
-0.046925646
0.19373494
-0.043753117
0.19423305
-0.040052235
0.19487504
-0.035943448
0.19563382
-0.031617315
0.19647161
-0.027301849
0.19734512
-0.023212453
0.19821224
-0.019508257
0.19903808
-0.016273655
0.1997987
-0.013526415
0.20048159
-0.011239114
0.20108387
-0.0093596818
0.20160905
-0.0078256153
0.20206404
-0.0065734674
0.20245689
-0.0055459375
0.20279543
-0.004695626
0.20308694
-0.0039872577
0.2033376
-0.0033916105
0.20355381
-0.002896766
0.20373831
-0.0024641111
0.20390359
-0.0021636882
-0.0016767321
0.2551764
0.0032659549
-0.25734034
0.25290994
0.00083310227
0.25063976
-0.0019497399
0.24838591
-0.0047134152
0.24611433
-0.0075184662
0.24383748
-0.010421743
0.24157824
-0.013407632
0.2393491
-0.016454648
0.23715832
-0.019552376
0.23501336
-0.022688753
0.23291985
-0.025845916
0.2308812
-0.029002047
0.2288995
-0.032131568
0.22697636
-0.035204089
0.22511361
-0.038183895
0.22331392
-0.041030135
0.22158131
-0.043697514
0.21992145
-0.046137517
0.21834167
-0.048300222
0.21685067
-0.050136627
0.21545809
-0.051601318
0.21417393
-0.05265521
0.21300807
-0.053267799
0.21197021
-0.053417942
0.21107028
-0.053091823
0.21031913
-0.052277524
0.20972927
-0.050958023
0.20931471
-0.049107886
0.2090894
-0.046700341
0.20906401
-0.043727723
0.20924137
-0.0402296
0.20961205
-0.036314127
0.21015171
-0.032156972
0.21082205
-0.027972186
0.21157566
-0.023966071
0.21236346
-0.020296055
0.21314207
-0.01705226
0.21387893
-0.014263279
0.214554
-0.011914187
0.21515839
-0.0099640707
0.21569133
-0.0083585526
0.21615688
-0.00703902
0.21656134
-0.0059503964
0.21691157
-0.0050458534
0.21721424
-0.0042899263
0.21747534
-0.0036527112
0.21770083
-0.0031222608
0.21789426
-0.0026575382
0.21806601
-0.0023354355
-0.0018093823
0.2788967
0.0048829019
-0.28051364
0.2771608
0.0025689996
0.27525575
-4.4693718e-05
0.27325737
-0.0027150327
0.27117598
-0.005437072
0.26901598
-0.0082617468
0.26679534
-0.011186987
0.26453094
-0.01419025
0.26223543
-0.017256865
0.25992038
-0.020373701
0.25759666
-0.023522196
0.25527375
-0.026679139
0.25295996
-0.029817781
0.25066311
-0.032907236
0.24839112
-0.035911907
0.2461526
-0.038791612
0.24395728
-0.0415022
0.24181636
-0.043996592
0.23974248
-0.046226342
0.23774954
-0.048143688
0.23585221
-0.049703988
0.23406533
-0.050868334
0.23240341
-0.051605874
0.23088035
-0.051894881
0.22950975
-0.051721224
0.22830563
-0.051073407
0.2272833
-0.049935697
0.22645968
-0.048284261
0.22585223
-0.046092897
0.2254761
-0.04335159
0.22533938
-0.040092881
0.22543784
-0.036412586
0.22575103
-0.032470153
0.22624195
-0.02846311
0.22686132
-0.024585445
0.22755517
-0.020989902
0.2282732
-0.017770294
0.22897518
-0.014965258
0.22963373
-0.012572733
0.23023376
-0.010564099
0.23076978
-0.0088945774
0.23124259
-0.0075118245
0.23165634
-0.0063641487
0.23201662
-0.0054061339
0.2323293
-0.0046026118
0.23260005
-0.0039234552
0.23283428
-0.0033564923
0.2330362
-0.0028594581
0.23321413
-0.0025133631
-0.0019487309
0.3008033
0.0059653534
-0.30188575
0.29957583
0.0037964705
0.298112
0.0014191375
0.29647179
-0.0010748178
0.29468844
-0.0036537288
0.29276872
-0.0063420203
0.29072418
-0.0091424501
0.28857112
-0.01203719
0.28632387
-0.015009617
0.28399535
-0.018045184
0.28159857
-0.021125412
0.27914642
-0.024226989
0.27665149
-0.02732285
0.27412638
-0.030382126
0.27158416
-0.033369692
0.26903878
-0.03624623
0.26650537
-0.038968783
0.26400045
-0.041491675
0.26154196
-0.043767855
0.25914898
-0.045750707
0.25684125
-0.047396261
0.25463858
-0.048665659
0.2525602
-0.049527491
0.25062442
-0.049959104
0.24884872
-0.049945528
0.24725038
-0.049475062
0.2458474
-0.048532721
0.24465922
-0.047096079
0.24370618
-0.045139853
0.2430071
-0.042652519
0.24257477
-0.039660545
0.24241009
-0.036247914
0.24249731
-0.032557365
0.24280243
-0.028768229
0.24327658
-0.025059598
0.24386337
-0.021576692
0.2445077
-0.018414621
0.24516304
-0.015620604
0.24579538
-0.013205068
0.24638351
-0.011152234
0.24691698
-0.0094280483
0.2473929
-0.007987745
0.24781295
-0.0067841911
0.2481811
-0.005774291
0.24850223
-0.0049237398
0.24878147
-0.0042026896
0.24902361
-0.003598636
0.24923335
-0.0030691965
0.24941703
-0.0026970446
-0.0020943792
0.32129324
0.0065761791
-0.32190407
0.32051379
0.0045759236
0.31948737
0.0024455596
0.31824229