/*--------------------------------*- C++ -*----------------------------------*\
  =========                 |
  \\      /  F ield         | OpenFOAM: The Open Source CFD Toolbox
   \\    /   O peration     | Website:  https://openfoam.org
    \\  /    A nd           | Version:  6
     \\/     M anipulation  |
\*---------------------------------------------------------------------------*/
FoamFile
{
    version     2.0;
    format      ascii;
    class       surfaceScalarField;
    location    "13";
    object      phi_0;
}
// * * * * * * * * * * * * * * * * * * * * * * * * * * * * * * * * * * * * * //

dimensions      [0 3 -1 0 0 0 0];

internalField   nonuniform List<scalar> 
18180
(
0.0003512614
-0.00021812892
-0.00013313244
0.0014385266
-0.0015990768
0.00051181161
0.0033262108
-0.0038121629
0.0019244788
0.0060774309
-0.0067682649
0.0040170448
0.0097529263
-0.010411336
0.0067358411
0.014408196
-0.014696073
0.010040803
0.020089911
-0.01958195
0.013900236
0.026832007
-0.025030074
0.018287978
0.034651674
-0.030999661
0.023179994
0.043545598
-0.03744517
0.028551246
0.053486876
-0.044314492
0.034373214
0.064423103
-0.051548239
0.040612012
0.076276101
-0.059080105
0.047227107
0.08894378
-0.066838328
0.054170649
0.10230468
-0.074748262
0.061387358
0.11622565
-0.082736079
0.06881511
0.13057198
-0.090733312
0.07638699
0.14522389
-0.098681693
0.084029783
0.16014483
-0.10655301
0.091632071
-0.1143397
0.098994857
0.17548967
0.00043346184
-0.00065159073
0.0017510796
-0.0029166945
0.0040070998
-0.006068183
0.0072529822
-0.010014147
0.011534471
-0.014692825
0.016886861
-0.020048463
0.02332999
-0.026025079
0.030863441
-0.032563524
0.039462358
-0.039598579
0.04907443
-0.047057241
0.05961856
-0.054858621
0.070985656
-0.062915335
0.083041759
-0.071136208
0.095633486
-0.079430055
0.1085954
-0.087710173
0.12175845
-0.095899128
0.1349583
-0.10393316
0.14804355
-0.11176695
0.16087617
-0.11938563
-0.12672913
0.1732656
0.0005197284
-0.0011713191
0.0020701633
-0.0044671294
0.0046882082
-0.0086862279
0.0084058537
-0.013731793
0.013244585
-0.019531557
0.019208842
-0.02601272
0.026280093
-0.033096331
0.034412137
-0.040695568
0.043528184
-0.048714626
0.053520318
-0.057049375
0.064251728
-0.065590031
0.075561781
-0.074225388
0.087273632
-0.082848059
0.099203674
-0.091360097
0.11117178
-0.099678279
0.12301098
-0.10773833
0.1345752
-0.11549738
0.1457431
-0.12293485
0.15641106
-0.13005359
-0.13682096
0.16650289
0.00060786121
-0.0017791803
0.0023863353
-0.0062456035
0.00534598
-0.011645873
0.0094899387
-0.017875751
0.014805129
-0.024846747
0.021254386
-0.032461976
0.02877073
-0.040612675
0.03725431
-0.049179148
0.046572541
-0.058032856
0.056563781
-0.067040615
0.067044429
-0.076070679
0.077818815
-0.084999773
0.088690834
-0.093720079
0.099475969
-0.10214523
0.11001224
-0.11021455
0.12016876
-0.11789485
0.12985105
-0.12517967
0.13900222
-0.13208601
0.14759842
-0.13864979
-0.1448889
0.15566636
0.00069425572
-0.002473436
0.0026855216
-0.0082368693
0.0059483278
-0.014908679
0.010447089
-0.022374512
0.016124217
-0.030523875
0.022892042
-0.039229802
0.030628864
-0.048349496
0.039179293
-0.057729578
0.048359057
-0.06721262
0.057963885
-0.076645443
0.067781501
-0.085888295
0.077605223
-0.094823495
0.087247399
-0.10336225
0.096550947
-0.11144878
0.10539759
-0.11906119
0.113712
-0.12620926
0.12146177
-0.13292944
0.12865366
-0.13927791
0.13532699
-0.14532312
-0.1511236
0.14156169
0.00077445822
-0.0032478942
0.0029510079
-0.010413419
0.0064588388
-0.01841651
0.011214615
-0.027130289
0.017108393
-0.036417652
0.023996904
-0.046118313
0.031703134
-0.056055726
0.040021549
-0.066047994
0.048728314
-0.075919384
0.057595071
-0.0855122
0.066404308
-0.094697532
0.074964038
-0.10338323
0.083119726
-0.11151794
0.090761963
-0.11909102
0.097829103
-0.12612833
0.10430508
-0.13268524
0.11021329
-0.13883765
0.11560809
-0.14467271
0.12056545
-0.15028048
-0.155741
0.12518285
0.00084356882
-0.004091463
0.0031650359
-0.012734886
0.006840529
-0.022092003
0.011732284
-0.032022043
0.017673863
-0.042359232
0.024466592
-0.052911042
0.031884086
-0.06347322
0.039683004
-0.073846911
0.047618143
-0.083854523
0.055459359
-0.093353416
0.06300749
-0.10224566
0.070106777
-0.11048251
0.076652089
-0.11806325
0.08259026
-0.12502919
0.087915988
-0.13145406
0.092663542
-0.13743279
0.096896118
-0.14307023
0.10069479
-0.14847138
0.10414874
-0.15373443
-0.15894394
0.10735168
0.00089636937
-0.0049878323
0.0033097812
-0.015148298
0.0070586378
-0.025840859
0.011947815
-0.03691122
0.017755146
-0.048166563
0.024232584
-0.05938848
0.031116342
-0.070356978
0.038142596
-0.080873165
0.045065644
-0.090777571
0.051675124
-0.099962896
0.057809209
-0.10837975
0.063361772
-0.11603508
0.06828282
-0.1229843
0.072572838
-0.12931921
0.076272685
-0.1351539
0.079451192
-0.1406113
0.08219267
-0.14581171
0.084586127
-0.15086483
0.086717336
-0.15586564
-0.16089185
0.088665244
0.00092644185
-0.0059142741
0.0033673328
-0.017589189
0.0070828011
-0.029556328
0.01182179
-0.041650209
0.017312242
-0.053657015
0.023267941
-0.065344179
0.029403827
-0.076492864
0.035454919
-0.086924258
0.041194804
-0.096517456
0.046449972
-0.10521806
0.051107448
-0.11303723
0.05511486
-0.12004249
0.058473686
-0.12634313
0.061227644
-0.13207316
0.063448735
-0.137375
0.065223445
-0.14238601
0.066641022
-0.14722928
0.067785064
-0.15200887
0.068728675
-0.15680925
-0.16169558
0.069532409
0.00093050419
-0.0068447783
0.0033296469
-0.019988331
0.0069009723
-0.033127653
0.01134287
-0.046092107
0.016343899
-0.058658044
0.021594935
-0.070595215
0.026808064
-0.081705993
0.031736053
-0.091852247
0.036188029
-0.10096943
0.040038131
-0.10906817
0.043225842
-0.11622494
0.045748695
-0.12256534
0.047649518
-0.12824395
0.049001116
-0.13342476
0.049891159
-0.13826504
0.050409465
-0.14290431
0.050638887
-0.14745871
0.050650148
-0.15202013
0.050500084
-0.15665919
0.050231349
-0.16142684
-0.00022840797
0.00022840807
-6.2417132e-11
-0.00076313881
0.00053473095
-8.0361861e-11
-0.0015098276
0.00074668884
-3.2397703e-11
-0.0023969617
0.00088713408
8.1113413e-11
-0.0033673754
0.00097041352
2.5762736e-10
-0.0043745358
0.0010071599
4.8570528e-10
-0.0053798783
0.0010053418
7.6640889e-10
-0.0063505833
0.00097070393
1.0867927e-09
-0.0072578193
0.00090723464
1.4540218e-09
-0.0080753514
0.00081753029
1.8511624e-09
-0.0087784021
0.00070304853
2.2927524e-09
-0.0093426996
0.00056429485
2.7546999e-09
-0.0097436745
0.00040097176
3.2572845e-09
-0.0099557875
0.00021210942
3.7669012e-09
-0.0099520198
-3.7718564e-06
4.3113514e-09
-0.0097036604
-0.00024836415
4.8404604e-09
-0.0091803696
-0.00052329601
5.3879131e-09
-0.0083494219
-0.00083095348
5.8946627e-09
-0.0071747351
-0.001174693
6.4013743e-09
-0.0015409651
-0.0056337768
6.8448237e-09
-0.00021075327
0.00043916136
-0.00069916599
0.0010231437
-0.0013727336
0.0014202565
-0.0021600374
0.0016744379
-0.0030029756
0.0018133518
-0.0038532626
0.0018574471
-0.0046698798
0.001821959
-0.0054169237
0.0017177479
-0.0060618856
0.0015521965
-0.0065742698
0.0013299146
-0.0069244541
0.0010532329
-0.0070827225
0.00072256332
-0.0070184351
0.00033668445
-0.006699308
-0.00010701752
-0.0060908401
-0.00061223966
-0.0051559927
-0.0011832114
-0.0038551737
-0.001824115
-0.0021460155
-0.0025401115
1.7064107e-05
-0.0033377726
-0.0041877528
0.0026638518
-0.00017559669
0.00061475807
-0.00057189055
0.0014194376
-0.0011006273
0.0019489932
-0.001691164
0.0022649747
-0.0022840741
0.0024062619
-0.0028281219
0.002401495
-0.0032779815
0.0022718186
-0.0035922635
0.0020320301
-0.0037319099
0.001691843
-0.0036588819
0.0012568866
-0.0033350731
0.00072942415
-0.0027213737
0.00010886393
-0.0017768555
-0.00060783359
-0.00045809069
-0.0014257823
0.001281469
-0.0023517993
0.0034920042
-0.0033937464
0.0062275063
-0.004559617
0.0095453799
-0.0058579851
0.013506223
-0.0072986156
-0.0088327568
0.018151227
-0.00012630519
0.00074106329
-0.0003922823
0.0016854148
-0.00071530449
0.0022720154
-0.0010258867
0.0025755569
-0.0012629972
0.0026433725
-0.0013716575
0.0025101553
-0.0013010505
0.0022012116
-0.0010028239
0.0017338036
-0.00042970074
0.0011187199
0.0004656546
0.00036153138
0.0017315697
-0.00053649086
0.0034181181
-0.0015776844
0.005577738
-0.0027674534
0.0082657595
-0.0041138037
0.01154092
-0.0056269599
0.015465948
-0.0073187744
0.020107992
-0.009201661
0.025538226
-0.011288219
0.03183134
-0.01359173
-0.016041201
0.039039784
-6.7104155e-05
0.00080816747
-0.00017414035
0.001792451
-0.00024430103
0.0023421762
-0.00020929192
0.0025405478
-6.3177798e-06
0.0024403984
0.00042365143
0.0020801862
0.0011373237
0.0014875393
0.0021903713
0.00068075603
0.0036385123
-0.00032942101
0.0055383551
-0.0015383114
0.0079479796
-0.0029461153
0.010927299
-0.0045570041
0.014538289
-0.0063784431
0.01884511
-0.0084206241
0.023914174
-0.010696024
0.029814403
-0.013219003
0.036617802
-0.016005061
0.04439978
-0.019070196
0.053239796
-0.022431746
-0.025996687
0.063195282
-2.0870861e-06
0.00081025459
6.8914244e-05
0.0017214497
0.00028484315
0.0021262473
0.00071305855
0.0021123325
0.0014181428
0.0017353142
0.002462986
0.0010353431
0.0039097402
4.0785118e-05
0.0058206853
-0.0012301889
0.0082588285
-0.0027675642
0.011288159
-0.0045676417
0.014973708
-0.0066316639
0.019381399
-0.0089646958
0.024577614
-0.011574657
0.030628529
-0.01447154
0.037599368
-0.017666863
0.045553865
-0.021173499
0.054554581
-0.025005776
0.064664385
-0.029180001
0.07595023
-0.03371759
-0.038509329
0.088462873
6.5623927e-05
0.0007446307
0.00032604757
0.0014610261
0.00084957129
0.0016027236
0.0017029786
0.0012589252
0.0029524189
0.00048587392
0.0046639737
-0.00067621163
0.0069040856
-0.0021993268
0.0097397176
-0.0040658208
0.013238243
-0.0062660893
0.017467132
-0.0087965306
0.022493278
-0.01165781
0.028381973
-0.01485339
0.035195554
-0.018388238
0.042991768
-0.022267754
0.051821944
-0.026497039
0.061729351
-0.031080906
0.072748725
-0.036025151
0.08490852
-0.041339795
0.098239236
-0.047048306
-0.05304366
0.11277357
0.0001343107
0.00061032003
0.00059059668
0.0010047402
0.0014350104
0.00075830995
0.0027339037
-3.9968064e-05
0.0045544128
-0.0013346351
0.0069644503
-0.0030862491
0.010032326
-0.0052672025
0.013826192
-0.0078596867
0.018413177
-0.010853075
0.023858094
-0.014241447
0.030221765
-0.018021481
0.037558984
-0.02219061
0.045916144
-0.026745398
0.055328617
-0.031680227
0.065818043
-0.036986465
0.077389864
-0.042652727
0.090032159
-0.048667446
0.10371769
-0.055025324
0.11841385
-0.06174447
-0.068748747
0.13411894
0.00020346303
0.00040685704
0.00085970978
0.00034849345
0.0020333923
-0.00041537252
0.0037899312
-0.001796507
0.0061959449
-0.0037406487
0.0093185071
-0.0062088112
0.013224001
-0.0091726965
0.017976583
-0.012612269
0.023636219
-0.016512711
0.030256307
-0.020861535
0.037880955
-0.025646129
0.046541985
-0.03085164
0.056255801
-0.036459214
0.067020199
-0.042444625
0.078811255
-0.048777521
0.091580372
-0.055421843
0.10525232
-0.062339395
0.11972681
-0.069499811
0.13489048
-0.076908139
-0.084559382
0.15070111
0.00027372462
0.0011340297
0.002643136
0.0048636739
0.0078588662
0.011690858
0.016418398
0.022094107
0.02876139
0.036451101
0.045178186
0.054938557
0.065706451
0.077432476
0.090042312
0.10343558
0.11748317
0.13201315
0.14673708
0.16117255
-0.0031493066
-0.0024844798
9.7280601e-09
-0.00023056917
-0.0029187476
1.0283513e-08
0.0031223651
-0.0033529449
1.0805917e-08
0.0068655348
-0.0037431808
1.1280886e-08
0.010993399
-0.0041278764
1.1641753e-08
0.015513862
-0.0045204748
1.1794283e-08
0.020432526
-0.0049186762
1.1821992e-08
0.025754653
-0.0053221383
1.1580423e-08
0.031486323
-0.0057316806
1.1028467e-08
0.037632344
-0.0061460313
1.0134829e-08
0.044194203
-0.0065618673
8.9549655e-09
0.051168648
-0.0069744529
7.4951609e-09
0.058546353
-0.0073777109
5.8296192e-09
0.066310603
-0.0077642538
3.9717767e-09
0.074436238
-0.0081256372
1.9977754e-09
0.082888969
-0.0084527307
-7.3301642e-11
0.091625104
-0.0087361331
-2.1662274e-09
0.10059172
-0.0089666125
-4.2521419e-09
0.10972725
-0.0091355271
-6.2677368e-09
0.11896242
-0.0092351569
-8.1858043e-09
0.1282213
-0.009258874
-9.9707256e-09
0.13742241
-0.0092011001
-1.1600063e-08
0.14647948
-0.0090570554
-1.306773e-08
0.1553019
-0.0088224018
-1.4340779e-08
0.16379495
-0.0084930386
-1.5433146e-08
0.17186042
-0.0080654477
-1.6281721e-08
0.17939844
-0.0075380108
-1.6917031e-08
0.18631194
-0.0069134753
-1.724451e-08
0.19251411
-0.0062021516
-1.731904e-08
0.19793875
-0.0054246311
-1.7041186e-08
0.20255106
-0.0046122875
-1.6500757e-08
0.20635523
-0.0038041567
-1.5634253e-08
0.20939552
-0.0030402783
-1.4564269e-08
0.21174914
-0.0023536018
-1.3295342e-08
0.21351292
-0.0017637714
-1.1952372e-08
0.21478831
-0.0012753798
-1.0572883e-08
0.21566919
-0.00088086746
-9.223693e-09
0.21623509
-0.00056589639
-7.9290857e-09
0.21654949
-0.00031439315
-6.6961427e-09
0.21666115
-0.00011165308
-5.5198913e-09
0.2166067
5.4459847e-05
-4.3847319e-09
0.21641331
0.0001933924
-3.2963228e-09
0.21610113
0.00031217937
-2.2654266e-09
0.21568524
0.00041589275
-1.3086088e-09
0.21517718
0.00050806185
-4.4246036e-10
0.21458583
0.00059134412
3.3056783e-10
0.2139186
0.00066723514
1.0050558e-09
0.2131803
0.00073829271
1.5831026e-09
0.21237898
0.00080132311
2.0538233e-09
0.0008783137
2.5118717e-09
0.0050917234
-0.0049123512
0.0079342645
-0.0057612886
0.011183187
-0.0066018678
0.014787344
-0.0073473374
0.018745441
-0.0080859732
0.023069166
-0.0088441997
0.027764871
-0.009614382
0.032838023
-0.01039529
0.038295297
-0.011188955
0.044142268
-0.011993001
0.050381311
-0.01280091
0.057010357
-0.013603499
0.064021658
-0.014389012
0.071400531
-0.015143126
0.079124327
-0.015849433
0.087161757
-0.016490161
0.095472604
-0.01704698
0.10400786
-0.017501866
0.11271026
-0.017837927
0.12151517
-0.018040072
0.13035165
-0.018095353
0.13914345
-0.017992902
0.14780982
-0.017723419
0.15626584
-0.017278426
0.16442257
-0.016649768
0.17218728
-0.015830157
0.17946489
-0.014815621
0.18616171
-0.013610299
0.19219238
-0.012232814
0.19748964
-0.010721896
0.20201512
-0.009137767
0.20576737
-0.007556409
0.20878377
-0.0060566744
0.21113445
-0.0047042869
0.21290997
-0.0035392879
0.21420677
-0.0025721806
0.21511521
-0.0017893089
0.2157126
-0.0011632828
0.21606112
-0.00066291427
0.21620889
-0.00025942
0.21619224
7.1107383e-05
0.21603826
0.0003473735
0.21576708
0.00058336114
0.21539379
0.00078917766
0.21492999
0.00097186419
0.2143846
0.0011367311
0.21376509
0.0012867507
0.21307631
0.0014270683
0.21232645
0.0015511837
0.0017032681
0.020431013
-0.007192137
0.023080002
-0.0084102775
0.026084054
-0.00960592
0.02938423
-0.010647513
0.032986038
-0.011687781
0.036906979
-0.012765141
0.041154851
-0.013862253
0.045735588
-0.014976027
0.050656821
-0.016110188
0.055925389
-0.017261569
0.061545245
-0.018420766
0.067516439
-0.019574693
0.073834071
-0.020706645
0.080487139
-0.021796194
0.087457549
-0.022819843
0.09471944
-0.023752052
0.10223885
-0.024566394
0.10997379
-0.025236806
0.11787467
-0.025738807
0.12588511
-0.02605051
0.13394293
-0.026153169
0.14198115
-0.026031124
0.14992878
-0.02567105
0.15771112
-0.02506077
0.16524965
-0.024188299
0.17246179
-0.023042293
0.17926145
-0.021615276
0.18556159
-0.019910442
0.19127989
-0.017951117
0.19634759
-0.015789598
0.20071999
-0.013510158
0.20438524
-0.011221665
0.2073679
-0.0090393326
0.20972484
-0.0070612227
0.21153468
-0.0053491336
0.21288445
-0.0039219518
0.21385784
-0.0027626941
0.21452792
-0.001833364
0.21495449
-0.0010894867
0.21518447
-0.00048939689
0.21525368
1.8907226e-06
0.21518907
0.00041198366
0.21501078
0.00076165063
0.21473399
0.0010659692
0.21437039
0.001335465
0.21392903
0.0015780936
0.21341751
0.0017982693
0.2128408
0.0020037777
0.21220737
0.0021846166
0.0024074761
0.041031552
-0.0091839049
0.043331672
-0.010710397
0.045918637
-0.012192885
0.048733082
-0.013461958
0.051790116
-0.014744816
0.055112537
-0.016087562
0.058709859
-0.017459574
0.062588919
-0.018855087
0.066758236
-0.020279505
0.071225793
-0.021729126
0.075997207
-0.023192179
0.081074907
-0.024652393
0.086457303
-0.026089041
0.092137784
-0.027476675
0.098103802
-0.028785861
0.10433617
-0.029984421
0.11080867
-0.03103889
0.11748796
-0.031916102
0.12433394
-0.03258479
0.13130037
-0.033016939
0.13833581
-0.033188609
0.14538464
-0.033079952
0.15238788
-0.032674285
0.15928354
-0.031956434
0.16600638
-0.03091114
0.17248713
-0.029523035
0.17865197
-0.027780118
0.18442355
-0.025682024
0.1897248
-0.023252366
0.19448627
-0.020551067
0.19865602
-0.017679914
0.20220924
-0.014774881
0.20515371
-0.011983801
0.20752854
-0.0094360505
0.20939611
-0.007216708
0.21083039
-0.0053562267
0.21190571
-0.0038380154
0.21268918
-0.0026168333
0.21323717
-0.0016374787
0.21359488
-0.00084710522
0.21379742
-0.0002006503
0.21387153
0.00033787429
0.21383739
0.00079578633
0.21371032
0.0011930398
0.21350218
0.0015436039
0.21322221
0.0018580702
0.21287823
0.0021422469
0.21247537
0.0024066325
0.21202255
0.0026374434
0.0029243695
0.064698088
-0.01068671
0.066451986
-0.012464296
0.068420957
-0.014161856
0.070555783
-0.015596784
0.072883746
-0.017072779
0.075430116
-0.018633932
0.078205573
-0.020235031
0.081218271
-0.021867786
0.0844771
-0.023538333
0.087990316
-0.025242342
0.091764514
-0.026966377
0.095803959
-0.028691838
0.10010989
-0.030394974
0.10467975
-0.03204653
0.10950634
-0.033612452
0.11457713
-0.035055215
0.11987374
-0.036335495
0.12537168
-0.037414048
0.13104054
-0.038253646
0.13684441
-0.038820807
0.14274274
-0.039086943
0.14869137
-0.039028581
0.15464346
-0.038626377
0.16055007
-0.037863046
0.16635993
-0.036720994
0.17201831
-0.03518142
0.17746559
-0.033227394
0.18263645
-0.030852882
0.18746155
-0.028077473
0.19187283
-0.024962343
0.19581221
-0.021619294
0.19924166
-0.018204329
0.20215075
-0.014892897
0.20455848
-0.011843775
0.20650828
-0.0091665101
0.20805852
-0.0069064734
0.20927218
-0.0050516747
0.21020894
-0.0035535912
0.21092086
-0.0023493952
0.21145092
-0.0013771717
0.21183333
-0.00058305559
0.21209456
7.66481e-05
0.21225485
0.00063549123
0.21232971
0.0011181813
0.21233124
0.001542077
0.21226891
0.0019203934
0.21215089
0.0022602729
0.2119825
0.0025750221
0.21177324
0.0028467032
0.0031886459
0.089230666
-0.011454504
0.090213165
-0.013446794
0.091352393
-0.015301084
0.092620475
-0.016864866
0.094055529
-0.018507832
0.095680364
-0.020258768
0.097505541
-0.022060208
0.099540469
-0.023902714
0.10179348
-0.025791345
0.10427168
-0.02772054
0.10698128
-0.029675979
0.10992714
-0.031637695
0.11311209
-0.033579926
0.11653642
-0.035470854
0.12019715
-0.037273187
0.12408737
-0.038945432
0.12819553
-0.040443656
0.13250507
-0.041723587
0.13699428
-0.042742861
0.14163658
-0.043463105
0.14640114
-0.043851499
0.15125389
-0.043881333
0.15615868
-0.043531165
0.1610781
-0.042782468
0.1659736
-0.041616499
0.17080438
-0.040012199
0.17552519
-0.037948197
0.18008403
-0.035411722
0.18442151
-0.032414954
0.18847363
-0.029014466
0.19217881
-0.025324475
0.19548774
-0.021513255
0.19837265
-0.017777813
0.20083225
-0.014303371
0.20289009
-0.011224353
0.20458767
-0.0086040463
0.20597528
-0.006439292
0.20710417
-0.0046824793
0.20802135
-0.0032665775
0.2087672
-0.0021230163
0.20937476
-0.0011906208
0.20987022
-0.00041880984
0.2102739
0.00023181719
0.21060152
0.00079055978
0.21086549
0.001278104
0.21107561
0.0017102738
0.21124041
0.0020954675
0.21136552
0.0024499192
0.21146114
0.0027510805
0.0031367109
0.1125834
-0.011264334
0.1125907
-0.013454097
0.11271701
-0.015427393
0.11297287
-0.017120722
0.11339996
-0.018934922
0.11401187
-0.020870678
0.11481767
-0.022866013
0.11582726
-0.024912306
0.11704721
-0.02701129
0.11848201
-0.02915534
0.1201359
-0.031329873
0.12201274
-0.033514531
0.1241154
-0.035682589
0.12644541
-0.03780087
0.12900244
-0.039830208
0.13178352
-0.04172652
0.13478241
-0.043442541
0.13798887
-0.044930046
0.14138834
-0.046142334
0.14496189
-0.047036657
0.14868663
-0.047576232
0.15253657
-0.047731275
0.15648392
-0.047478519
0.16050031
-0.046798858
0.16455738
-0.045673561
0.16862604
-0.044080861
0.17267411
-0.041996269
0.17666285
-0.039400467
0.18054418
-0.03629628
0.18426079
-0.032731079
0.18775095
-0.028814635
0.19095744
-0.02471974
0.19383789
-0.02065827
0.19637244
-0.016837914
0.19856545
-0.013417367
0.20044147
-0.010480063
0.20203765
-0.0080354734
0.20339616
-0.0060409924
0.20455848
-0.0044288957
0.20556199
-0.0031265271
0.20643844
-0.0020670701
0.20721363
-0.0011939964
0.20790796
-0.00046251762
0.20853745
0.00016106935
0.20911487
0.00070068901
0.20965037
0.0011747679
0.21015298
0.0015928619
0.21062861
0.0019742909
0.21108837
0.0022913143
0.0027071115
0.13287815
-0.010023549
0.13180902
-0.01238496
0.13082566
-0.014444033
0.13001067
-0.016305737
0.12939878
-0.018323032
0.12898785
-0.02045975
0.12878463
-0.022662788
0.12879795
-0.02492563
0.12903146
-0.027244799
0.12948621
-0.029610086
0.13016328
-0.032006948
0.13106418
-0.034415424
0.13219048
-0.036808896
0.1335436
-0.039153983
0.13512427
-0.04141088
0.13693195
-0.043534204
0.138964
-0.045474584
0.14121484
-0.047180893
0.14367539
-0.04860288
0.14633263
-0.049693903
0.14916979
-0.050413387
0.15216694
-0.05072843
0.15530233
-0.050613904
0.15855387
-0.050050395
0.16190039
-0.049020086
0.16532158
-0.047502051
0.16879588
-0.045470569
0.17229647
-0.04290106
0.17578681
-0.039786614
0.17921822
-0.036162492
0.18253209
-0.03212851
0.18566728
-0.02785493
0.1885707
-0.023561689
0.19120699
-0.019474202
0.19356338
-0.01577376
0.19564847
-0.012565146
0.19748652
-0.0098735241
0.19911049
-0.0076649652
0.20055601
-0.0058744102
0.20185721
-0.0044277327
0.20304437
-0.0032542283
0.20414284
-0.0022924633
0.20517311
-0.0014927911
0.20615151
-0.0008173342
0.20709123
-0.00023902641
0.20800285
0.00026314238
0.20889594
0.00069977895
0.20977676
0.0010934679
0.21065747
0.0014106074
0.0018409549
0.14853252
-0.0078549613
0.14646685
-0.01031929
0.14441128
-0.012388454
0.14258684
-0.014481301
0.14101137
-0.016747559
0.13966603
-0.019114415
0.13855374
-0.021550493
0.13767949
-0.024051388
0.13704345
-0.026608757
0.13664367
-0.029210299
0.1364782
-0.031841482
0.13654591
-0.034483139
0.13684664
-0.037109622
0.137381
-0.039688345
0.13815002
-0.042179899
0.13915449
-0.044538677
0.14039418
-0.046714275
0.14186691
-0.048653621
0.14356769
-0.050303658
0.14548809
-0.051614302
0.14761599
-0.052541291
0.14993598
-0.053048413
0.1524304
-0.053108331
0.15508116
-0.052701151
0.15787144
-0.051810363
0.16078653
-0.050417147
0.1638125
-0.04849653
0.16693217
-0.046020738
0.1701197
-0.042974137
0.17333592
-0.039378717
0.17652796
-0.035320548
0.1796345
-0.030961473
0.18259588
-0.026523063
0.18536499
-0.022243321
0.18791479
-0.018323556
0.19023971
-0.014890066
0.19235206
-0.01198587
0.19427586
-0.0095887647
0.19604086
-0.0076394111
0.19767783
-0.0060647099
0.19921546
-0.00479185
0.20067859
-0.0037555938
0.20208781
-0.0029020196
0.20345982
-0.00218934
0.20480825
-0.001587456
0.20614419
-0.001072796
0.20747779
-0.00063382699
0.20881574
-0.00024447879
0.21017133
5.5015566e-05
0.00048231191
0.15885773
-0.0055401403
0.15589623
-0.0073577871
0.15297488
-0.009467103
0.15032221
-0.011828636
0.14793311
-0.014358451
0.14580057
-0.01698188
0.14392666
-0.019676579
0.14231088
-0.022435605
0.14095097
-0.025248849
0.13984402
-0.028103348
0.1389867
-0.030984166
0.13837617
-0.03387261
0.13801084
-0.036744294
0.13789056
-0.039568057
0.13801629
-0.04230563
0.13838963
-0.044912021
0.13901202
-0.047336666
0.13988377
-0.049525371
0.14100305
-0.051422939
0.14236499
-0.052976241
0.1439611
-0.0541374
0.14577927
-0.054866587
0.14780461
-0.055133667
0.15002113
-0.054917674
0.15241402
-0.054203248
0.15497129
-0.052974424
0.15768357
-0.051208804
0.1605407
-0.048877866
0.16352586
-0.045959299
0.16660934
-0.042462201
0.16974554
-0.038456747
0.17287589
-0.034091822
0.17593773
-0.029584903
0.17887585
-0.025181441
0.18165192
-0.021099624
0.18424847
-0.017486615
0.18666722
-0.01440462
0.18892403
-0.011845577
0.19104309
-0.0097584658
0.19305187
-0.0080734881
0.19497745
-0.0067174372
0.19684422
-0.0056223655
0.1986729
-0.0047306937
0.20048055
-0.0039969888
0.20228136
-0.0033882668
0.20408693
-0.0028783698
0.20590817
-0.0024550644
0.20775196
-0.0020882724
0.20963349
-0.0018265105
-0.0014211414
0.20295038
-0.0016874465
-0.20680308
0.1998655
-0.0042729084
0.1972084
-0.0068099993
0.19482183
-0.0094420643
0.19266254
-0.012199164
0.19070126
-0.015020599
0.18891641
-0.017891725
0.18729387
-0.020813066
0.18582324
-0.023778225
0.1844953
-0.0267754
0.18330097
-0.029789841
0.18223119
-0.032802831
0.18127702
-0.035790122
0.18043003
-0.038721067
0.17968279
-0.041558389
0.17902927
-0.044258502
0.17846513
-0.04677252
0.17798776
-0.049048002
0.17759618
-0.051031363
0.17729069
-0.052670753
0.17707243
-0.053919137
0.17694297
-0.054737122
0.17690413
-0.055094832
0.1769582
-0.054971746
0.17710843
-0.054353478
0.17735958
-0.053225574
0.1777179
-0.051567127
0.17819003
-0.049349993
0.17878058
-0.046549848
0.17948889
-0.043170515
0.18030585
-0.0392737
0.18121195
-0.034997923
0.18217782
-0.030550774
0.18316738
-0.026171008
0.18414307
-0.022075313
0.18507146
-0.018414997
0.18592762
-0.015260787
0.18669716
-0.012615114
0.18737557
-0.010436875
0.18796588
-0.0086638017
0.18847562
-0.0072271735
0.1889141
-0.0060608502
0.18929072
-0.0051073081
0.18961399
-0.0043202603
0.18989152
-0.0036657956
0.19012951
-0.0031163601
0.19033456
-0.002660121
0.19050883
-0.0022625389
0.19066587
-0.0019835487
-0.0015393247
0.22984348
0.0010469142
-0.23257785
0.22706545
-0.0014948735
0.2245436
-0.0042881507
0.22214442
-0.0070428861
0.21981896
-0.009873702
0.21758935
-0.012790992
0.21546628
-0.015768654
0.21344869
-0.018795478
0.21153555
-0.021865081
0.20972602
-0.02496587
0.20801767
-0.028081494
0.20640667
-0.03119183
0.20488861
-0.034272062
0.20345918
-0.037291638
0.20211475
-0.040213961
0.20085294
-0.042996688
0.19967301
-0.045592584
0.19857604
-0.04795104
0.1975649
-0.050020217
0.19664384
-0.051749696
0.19581809
-0.053093387
0.19509331
-0.054012339
0.19447527
-0.054476797
0.19396996
-0.054466432
0.19358402
-0.053967542
0.1933255
-0.052967046
0.19320409
-0.051445723
0.19323051
-0.049376413
0.19341432
-0.046733656
0.1937605
-0.043516693
0.19426546
-0.039778655
0.1949138
-0.035646268
0.19567742
-0.031314398
0.19651783
-0.027011409
0.19739144
-0.02294893
0.19825639
-0.019279944
0.1990784
-0.016082798
0.19983426
-0.013370972
0.20051216
-0.01111478
0.20110969
-0.0092613251
0.20163062
-0.0077481064
0.20208195
-0.0065121774
0.20247168
-0.0054970406
0.20280761
-0.0046561865
0.20309692
-0.0039551047
0.20334572
-0.0033651591
0.20356034
-0.0028747489
0.20374351
-0.0024457038
0.20390759
-0.0021476302
-0.001664121
0.25524135
0.0032082952
-0.25740273
0.25297733
0.00076914375
0.25070925
-0.0020200708
0.24845717
-0.0047908022
0.24618698
-0.0076035162
0.243911
-0.010515014
0.24165198
-0.013509636
0.23942228
-0.016565777
0.23723003
-0.019672827
0.23508262
-0.022818456
0.23298557
-0.025984452
0.2309423
-0.029148559
0.22895493
-0.032284685
0.22702515
-0.035361864
0.22515497
-0.038343774
0.22334725
-0.041188971
0.22160629
-0.043851623
0.21993804
-0.046282794
0.21835013
-0.048432308
0.21685156
-0.050251123
0.2154522
-0.051694033
0.21416227
-0.052722405
0.21299184
-0.053306372
0.21195083
-0.053425422
0.21104938
-0.053066091
0.21029864
-0.052216298
0.20971136
-0.050858445
0.20930172
-0.048966773
0.20908359
-0.046515526
0.20906718
-0.043500286
0.2092545
-0.039965979
0.20963496
-0.036026724
0.21018297
-0.03186241
0.21085924
-0.027687675
0.21161585
-0.023705544
0.2124038
-0.020067893
0.21318028
-0.016859278
0.21391355
-0.014104243
0.21458435
-0.011785581
0.2151844
-0.0098613684
0.21571328
-0.0082769926
0.21617524
-0.0069741377
0.2165766
-0.0058983977
0.21692418
-0.0050037682
0.2172246
-0.0042555254
0.21748379
-0.0036243504
0.21770766
-0.0030986136
0.2178997
-0.0026377411
0.21807021
-0.0023181405
-0.0017957943
0.27894804
0.004823906
-0.28056365
0.27721327
0.0025039073
0.27530906
-0.00011585975
0.27331113
-0.0027928721
0.27122975
-0.0055221368
0.26906923
-0.0083544907
0.26684739
-0.011287798
0.26458102
-0.014299408
0.26228266
-0.017374467
0.2599638
-0.020499596
0.25763527
-0.023655915
0.25530653
-0.026819819
0.25298594
-0.0299641
0.25068143
-0.033057355
0.2484011
-0.036063447
0.24615379
-0.038941655
0.24394951
-0.041647341
0.24179975
-0.044133036
0.23971749
-0.046350046
0.23771692
-0.048250555
0.23581298
-0.049790094
0.23402075
-0.05093017
0.2323549
-0.05164053
0.23082955
-0.051900073
0.22945851
-0.051695046
0.22825604
-0.051013832
0.22723774
-0.049840138
0.22642069
-0.048149728
0.22582237
-0.045917208
0.22545754
-0.043135454
0.22533348
-0.039841917
0.22544473
-0.036137976
0.22576944
-0.032187122
0.2262694
-0.028187636
0.22689459
-0.024330728
0.22759094
-0.020764245
0.22830867
-0.017577007
0.22900835
-0.014803928
0.22966348
-0.01244071
0.23025968
-0.010457568
0.23079194
-0.0088092482
0.23126128
-0.0074434833
0.23167198
-0.0063090952
0.23202962
-0.0053614023
0.23234003
-0.0045659377
0.23260882
-0.0038931467
0.23284138
-0.0033311732
0.23304187
-0.002838224
0.23321852
-0.0024947969
-0.0019341217
0.30084158
0.0059062565
-0.30192393
0.29961393
0.0037315598
0.29814962
0.0013484499
0.29650851
-0.0011517647
0.29472379
-0.0037374182
0.29280213
-0.0064328261
0.29075499
-0.0092406606
0.28859857
-0.01214299
0.28634713
-0.015123026
0.28401352
-0.018165991
0.28161073
-0.021253119
0.27915165
-0.024360746
0.27664895
-0.0274614
0.27411535
-0.030523754
0.27156411
-0.033512199
0.26900939
-0.036386939
0.26646662
-0.039104575
0.26395266
-0.041619069
0.26148574
-0.043883134
0.25908528
-0.045850087
0.25677128
-0.047476095
0.25456378
-0.04872267
0.25248221
-0.049558961
0.25054506
-0.049962921
0.24876998
-0.04991997
0.24717448
-0.049418327
0.24577681
-0.048442471
0.24459662
-0.04696954
0.2436543
-0.044974883
0.24296837
-0.042449529
0.24255085
-0.039424393
0.24240143
-0.035988559
0.24250285
-0.032288543
0.24281974
-0.028504523
0.24330229
-0.024813284
0.24389387
-0.021355823
0.24453976
-0.018222892
0.24519421
-0.015458387
0.24582411
-0.01307061
0.24640905
-0.011042505
0.24693912
-0.009339322
0.24741179
-0.0079161449
0.24782887
-0.0067261765
0.24819441
-0.0057269448
0.24851326
-0.0048847895
0.24879053
-0.0041704108
0.24903097
-0.0035716142
0.24923923
-0.0030464864
0.24942161
-0.0026771782
-0.0020787089
0.32132033
0.0065180908
-0.32193216
0.32053949
0.0045123978