/*--------------------------------*- C++ -*----------------------------------*\
  =========                 |
  \\      /  F ield         | OpenFOAM: The Open Source CFD Toolbox
   \\    /   O peration     | Website:  https://openfoam.org
    \\  /    A nd           | Version:  6
     \\/     M anipulation  |
\*---------------------------------------------------------------------------*/
FoamFile
{
    version     2.0;
    format      ascii;
    class       volScalarField;
    location    "13";
    object      pMean;
}
// * * * * * * * * * * * * * * * * * * * * * * * * * * * * * * * * * * * * * //

dimensions      [0 2 -2 0 0 0 0];

internalField   nonuniform List<scalar> 
9200
(
-0.55046404
-0.53066826
-0.51246029
-0.49671566
-0.48108412
-0.46543231
-0.4499112
-0.4344607
-0.4189759
-0.40337356
-0.38759162
-0.3715924
-0.35536937
-0.3389512
-0.32240523
-0.30584515
-0.28941928
-0.27326425
-0.25819784
-0.24757802
-0.57495549
-0.55282247
-0.53282949
-0.51549346
-0.49826228
-0.48099979
-0.46385034
-0.44673843
-0.4295536
-0.4122191
-0.39469023
-0.37695647
-0.35904575
-0.34102396
-0.32299137
-0.30507757
-0.28741008
-0.27006835
-0.25365484
-0.24005929
-0.59873139
-0.57440673
-0.55277726
-0.53395072
-0.51515184
-0.49623015
-0.47732488
-0.45835642
-0.43922728
-0.41989065
-0.4003446
-0.38062974
-0.36082808
-0.34105574
-0.32145202
-0.30216683
-0.28332947
-0.26501109
-0.24761094
-0.23226708
-0.62108434
-0.59472676
-0.57158801
-0.55132626
-0.53092684
-0.51022189
-0.48935806
-0.46827508
-0.44691881
-0.42530515
-0.40350543
-0.38163564
-0.35984683
-0.33831019
-0.31720058
-0.29668121
-0.27687794
-0.25785223
-0.23988745
-0.22381441
-0.64111247
-0.61295633
-0.58846846
-0.56682871
-0.54478269
-0.5221543
-0.49912263
-0.47568243
-0.45186203
-0.42777626
-0.40359757
-0.37953333
-0.35580669
-0.33263586
-0.31021583
-0.28870544
-0.26821023
-0.24876759
-0.23057194
-0.21422685
-0.65774707
-0.62812219
-0.60248833
-0.5795335
-0.55578759
-0.53109182
-0.5056974
-0.47970113
-0.45325805
-0.42661536
-0.40006498
-0.3739078
-0.34842738
-0.3238679
-0.30041975
-0.27821405
-0.25731637
-0.23772494
-0.21955341
-0.20321188
-0.6697824
-0.6391221
-0.61259466
-0.588403
-0.56291486
-0.53603195
-0.50812968
-0.47946083
-0.45034985
-0.42120042
-0.39242793
-0.36441364
-0.33747694
-0.31185882
-0.28771756
-0.26513455
-0.24412014
-0.22462397
-0.2066825
-0.19053533
-0.6759112
-0.64476495
-0.61766483
-0.59235499
-0.56512564
-0.53599785
-0.50553124
-0.47418898
-0.44249978
-0.41103433
-0.38032063
-0.35079495
-0.32278084
-0.2964858
-0.2720119
-0.24937506
-0.22852261
-0.20935365
-0.19183212
-0.17604651
-0.6747005
-0.64364271
-0.61626082
-0.58991819
-0.56095946
-0.52960519
-0.49666135
-0.4628422
-0.42889057
-0.39552631
-0.36335501
-0.3328272
-0.3042337
-0.27772105
-0.25331907
-0.23097233
-0.21056693
-0.19195747
-0.17504276
-0.1597786
-0.66479915
-0.63427394
-0.60675099
-0.57937303
-0.54871143
-0.51527084
-0.48014772
-0.44431478
-0.40869933
-0.37411726
-0.34119247
-0.31033814
-0.28177627
-0.25557371
-0.23168406
-0.20998658
-0.19031791
-0.17250076
-0.15637739
-0.14178467
-0.36633996
-0.36657093
-0.36253602
-0.35763228
-0.35151132
-0.34410934
-0.33568474
-0.32642257
-0.3164324
-0.30580701
-0.29463305
-0.28298919
-0.27094821
-0.25857953
-0.24595093
-0.23313124
-0.22019259
-0.20719698
-0.19418149
-0.18129734
-0.3714265
-0.3709816
-0.36651559
-0.36135129
-0.35503448
-0.34749509
-0.3389874
-0.32968494
-0.3196885
-0.30908463
-0.29795458
-0.28637226
-0.27440621
-0.26212173
-0.24958182
-0.23685168
-0.2240086
-0.21111222
-0.198071
-0.18486249
-0.3812484
-0.3795241
-0.37424388
-0.3685722
-0.36187595
-0.35406935
-0.34539538
-0.33600665
-0.32598742
-0.31541167
-0.30434969
-0.29286567
-0.28101964
-0.26886898
-0.2564681
-0.24387469
-0.23117198
-0.21842034
-0.20532319
-0.19152912
-0.39519629
-0.39170214
-0.38527614
-0.37885916
-0.37159006
-0.36336235
-0.35440277
-0.3448363
-0.33472486
-0.32412464
-0.31309023
-0.30167195
-0.28991772
-0.27787396
-0.26558392
-0.25309447
-0.24049161
-0.2278442
-0.2146383
-0.20007062
-0.41250654
-0.40689338
-0.39905833
-0.39167617
-0.38363574
-0.37481089
-0.36541044
-0.35552857
-0.34520147
-0.33446411
-0.32335178
-0.31189743
-0.3001339
-0.28809462
-0.27581087
-0.26331745
-0.25069863
-0.23803944
-0.2246478
-0.20919955
-0.43239149
-0.42445174
-0.41501816
-0.40647843
-0.39747415
-0.38786575
-0.37784602
-0.36747871
-0.35677292
-0.34573946
-0.334392
-0.32274465
-0.31081392
-0.29861956
-0.28618143
-0.27352298
-0.26072239
-0.24788398
-0.23420116
-0.21782811
-0.45414763
-0.4437927
-0.43264185
-0.42279001
-0.41265086
-0.40208091
-0.39126135
-0.38022592
-0.36895589
-0.35743858
-0.34566592
-0.33363264
-0.32133903
-0.30879245
-0.29600451
-0.28299215
-0.26982874
-0.25664083
-0.24257678
-0.22532168
-0.47720997
-0.46443804
-0.451516
-0.44024725
-0.42884383
-0.41716537
-0.40538292
-0.39350352
-0.38148324
-0.36928587
-0.35688144
-0.3442454
-0.3313625
-0.31822935
-0.30485291
-0.2912515
-0.27750772
-0.26379725
-0.24931789
-0.23136216
-0.50113891
-0.48598353
-0.47126789
-0.45850823
-0.44573451
-0.432813
-0.41990909
-0.40700625
-0.39403688
-0.38094306
-0.36767504
-0.35419149
-0.3404637
-0.32647749
-0.31223032
-0.29773046
-0.28304766
-0.26835167
-0.25287654
-0.23388527
-0.52560411
-0.50806622
-0.49150629
-0.47715778
-0.46287854
-0.44854349
-0.43431528
-0.42015793
-0.40598518
-0.39172418
-0.37731448
-0.36270951
-0.34788133
-0.33282152
-0.31753617
-0.30203983
-0.28636029
-0.27041877
-0.25310904
-0.23234016
-0.16694011
-0.15002404
-0.13376801
-0.11841552
-0.10386578
-0.090144026
-0.077339338
-0.065501643
-0.054647863
-0.0447881
-0.035926159
-0.028053135
-0.021147474
-0.015177351
-0.010101534
-0.005869722
-0.0024234704
0.00030248274
0.0023787813
0.0038798792
0.0048823001
0.0054628103
0.0056966094
0.0056556274
0.0054070015
0.0050117809
0.0045238757
0.0039892479
0.0034453489
0.0029208564
0.002435807
0.0020022337
0.0016253294
0.001305017
0.0010376647
0.00081765705
0.00063861569
0.00049420658
0.00037858638
0.00028659563
0.000213788
0.0001564215
0.00011126565
7.5909989e-05
4.7331091e-05
2.6220269e-05
2.5552995e-06
1.1920846e-06
-6.0990532e-05
6.9950497e-05
-0.17136479
-0.15361311
-0.13699001
-0.1214919
-0.1067229
-0.092752213
-0.079720573
-0.06767107
-0.056611999
-0.04655576
-0.037508587
-0.029461622
-0.022393209
-0.016271791
-0.011056302
-0.0066964056
-0.003133517
-0.00030215238
0.0018686506
0.0034537558
0.004530173
0.0051752165
0.0054646828
0.0054711351
0.0052623702
0.0049001202
0.004439001
0.0039257044
0.0033984313
0.0028866149
0.0024110276
0.0019843867
0.0016124882
0.0012957566
0.0010309559
0.0008127688
0.00063503328
0.00049156826
0.00037663687
0.00028515331
0.00021272237
0.00015563802
0.00011069509
7.5501902e-05
4.7047673e-05
2.6035708e-05
2.4487778e-06
1.1443398e-06
-6.0970003e-05
6.9851976e-05
-0.1796842
-0.16032977
-0.14303888
-0.12733475
-0.11218931
-0.097764172
-0.084315496
-0.07187368
-0.06042929
-0.05000032
-0.040598928
-0.032217115
-0.024833607
-0.018417875
-0.012929627
-0.0083188318
-0.0045269308
-0.001488243
0.00086863147
0.0026192224
0.0038413998
0.0046134991
0.0050124658
0.0051121083
0.0049815376
0.0046838535
0.0042750864
0.0038033871
0.0033084501
0.0028212092
0.0023638964
0.0019505847
0.0015882623
0.0012783439
0.001018372
0.00080361292
0.00062832564
0.00048662488
0.00037297809
0.00028243991
0.00021071168
0.00015415482
0.00010961124
7.4724527e-05
4.650617e-05
2.5684375e-05
2.2449024e-06
1.0597782e-06
-6.0928462e-05
6.9655024e-05
-0.19050469
-0.16896275
-0.15083492
-0.13501463
-0.11947357
-0.10449838
-0.090537799
-0.07760922
-0.065675201
-0.054762705
-0.04489483
-0.036066534
-0.028258187
-0.021441702
-0.015578857
-0.010620917
-0.0065100831
-0.0031810108
-0.00056221119
0.0014223427
0.0028513779
0.0038043908
0.0043597372
0.0045928297
0.0045745283
0.0043697895
0.0040365888
0.0036250984
0.0031770949
0.0027256173
0.0022949597
0.0019011251
0.0015528127
0.0012528681
0.00099996531
0.00079022234
0.00061851505
0.00047939219
0.00036762142
0.00027846359
0.00020776171
0.00015197586
0.00010801665
7.3579342e-05
4.57074e-05
2.5166125e-05
1.9447078e-06
9.3629137e-07
-6.0856497e-05
6.935443e-05
-0.20228698
-0.17826317
-0.15926756
-0.14352657
-0.12770662
-0.11220567
-0.097735978
-0.084315522
-0.071869806
-0.060435026
-0.05005087
-0.040719211
-0.032424186
-0.025141989
-0.018838358
-0.013467506
-0.0089737139
-0.0052930328
-0.0023547256
-8.2896596e-05
0.0016016164
0.0027792375
0.0035296644
0.0039299844
0.0040529894
0.0039657596
0.0037285437
0.0033939089
0.0030061238
0.0026007719
0.0022046663
0.0018361961
0.001506201
0.0012193376
0.00097572689
0.00077258622
0.00060559347
0.00046986544
0.00036056448
0.00027322335
0.0002038721
0.00014910098
0.00010591108
7.2065809e-05
4.4650761e-05
2.4479613e-05
1.5488312e-06
7.7082678e-07
-6.0741391e-05
6.8943338e-05
-0.21362363
-0.18719295
-0.16743078
-0.1519888
-0.13610762
-0.12021674
-0.10532109
-0.091474913
-0.078567158
-0.066636848
-0.055743237
-0.045900939
-0.037101244
-0.029326714
-0.022549238
-0.016728158
-0.01181168
-0.0077387685
-0.0044407074
-0.0018427658
0.00013385698
0.0015699422
0.0025461612
0.0031410854
0.0034293931
0.0034803567
0.0033566464
0.0031134305
0.0027977189
0.0024479263
0.0020937031
0.0017561619
0.0014486209
0.0011778624
0.00094572803
0.00075075776
0.0005896043
0.00045808096
0.00035183737
0.00026674351
0.00019906192
0.00014554472
0.00010330522
7.0191282e-05
4.3341169e-05
2.362693e-05
1.0605006e-06
5.6062068e-07
-6.0565848e-05
6.8412836e-05
-0.2235209
-0.1951475
-0.17478642
-0.15977022
-0.14409075
-0.12804202
-0.11285847
-0.098688761
-0.08541097
-0.07305625
-0.061699429
-0.051373646
-0.042082343
-0.033816979
-0.026557762
-0.020271499
-0.014912425
-0.010424162
-0.0067414729
-0.0037920058
-0.0014982909
0.00022007497
0.0014442175
0.0022538615
0.0027253993
0.0029302436
0.0029335201
0.0027930883
0.0025588287
0.0022721516
0.0019657439
0.0016636719
0.001381978
0.001129812
0.00091095333
0.00072544547
0.00057105762
0.00044440575
0.00034170363
0.00025921265
0.00019346538
0.0001414018
0.00010026517
6.8000842e-05
4.1808733e-05
2.2626102e-05
4.9333789e-07
3.0693652e-07
-6.0304155e-05
6.7751145e-05
-0.23144288
-0.20223248
-0.18144414
-0.16668714
-0.15138763
-0.13545981
-0.12014901
-0.10574837
-0.092186396
-0.079484621
-0.067722619
-0.056953569
-0.047197888
-0.038458565
-0.030725678
-0.02397514
-0.018168893
-0.013256685
-0.0091780062
-0.0058639494
-0.0032392739
-0.0012246725
0.00026089208
0.0012979171
0.0019642679
0.0023333687
0.0024727514
0.002442965
0.0022967899
0.0020786867
0.001824464
0.0015612611
0.0013079928
0.0010763357
0.0008721588
0.0006971392
0.00055026606
0.00042903592
0.00033028355
0.00025070225
0.00018712295
0.00013669333
9.6800354e-05
6.5496987e-05
4.0052551e-05
2.1472962e-05
-1.5326532e-07
-2.5403728e-10
-5.9929867e-05
6.6943038e-05
-0.23533231
-0.20806218
-0.18749051
-0.17255681
-0.15766061
-0.14217953
-0.12699883
-0.11252771
-0.098812433
-0.085883381
-0.073816361
-0.06268094
-0.052517413
-0.043343632
-0.035161782
-0.027958947
-0.021706997
-0.016363982
-0.011876105
-0.008179696
-0.0052033226
-0.0028701308
-0.0011002875
0.00018660441
0.0010692448
0.0016226431
0.0019164845
0.0020138823
0.0019704696
0.001833752
0.0016426825
0.0014275288
0.0012101786
0.0010049877
0.00082011206
0.00065908488
0.00052233878
0.00040845473
0.00031506035
0.00023941739
0.00017875892
0.000130517
9.2277565e-05
6.2240875e-05
3.7774583e-05
1.9970277e-05
-1.0013251e-06
-4.3356321e-07
-5.9461429e-05
6.5983307e-05
-0.23000873
-0.21005673
-0.19159551
-0.17632264
-0.16193028
-0.14737435
-0.13283559
-0.11870348
-0.10515551
-0.092260098
-0.080096142
-0.068750435
-0.058288779
-0.04875184
-0.040160994
-0.032520482
-0.025817471
-0.020023112
-0.015094473
-0.010976638
-0.0076049391
-0.0049074073
-0.0028073571
-0.001225982
-8.4822495e-05
0.00069201206
0.0011759678
0.001432564
0.0015202761
0.0014897166
0.0013830723
0.0012338524
0.0010670812
0.00090004105
0.0007435148
0.00060330162
0.00048171194
0.00037882148
0.00029340301
0.0002235678
0.00016716383
0.00012206323
8.616171e-05
5.7885453e-05
3.4755309e-05
1.798659e-05
-2.1301832e-06
-1.0096686e-06
-5.894499e-05
6.4916993e-05
-0.21409455
-0.20487951
-0.1905266
-0.17537632
-0.16123625
-0.1473451
-0.13341791
-0.11973545
-0.10652653
-0.093888009
-0.081901792
-0.070658827
-0.060234358
-0.050679528
-0.042025539
-0.034285996
-0.02745703
-0.021518119
-0.016433824
-0.01215581
-0.0086250283
-0.0057741303
-0.003530059
-0.001816684
-0.00055735089
0.00032278509
0.00089476468
0.0012242463
0.0013703407
0.0013847817
0.0013113461
0.0011855166
0.0010344883
0.00087765776
0.00072762745
0.00059158319
0.00047277669
0.00037185991
0.00028792972
0.00021926864
0.00016381306
0.00011948333
8.4209272e-05
5.6440336e-05
3.3744622e-05
1.7304229e-05
-2.3634764e-06
-1.2166477e-06
-5.78949e-05
6.3756054e-05
-0.19917831
-0.19119689
-0.17930797
-0.16574635
-0.15299028
-0.14058671
-0.12809785
-0.11570083
-0.10361862
-0.091959183
-0.08080868
-0.070262235
-0.06040313
-0.051293159
-0.042975192
-0.035474957
-0.028800953
-0.022945001
-0.017883694
-0.013580198
-0.0099862474
-0.0070444071
-0.0046905215
-0.0028562461
-0.0014715298
-0.00046692819
0.00022436988
0.00066488362
0.00091156175
0.0010148314
0.0010179095
0.00095637123
0.00085806344
0.00074347509
0.00062659142
0.00051610194
0.00041672733
0.00033044049
0.00025745245
0.00019694208
0.00014754468
0.00010771133
7.578018e-05
5.0482003e-05
2.9674314e-05
1.453294e-05
-3.7695821e-06
-2.495773e-06
-5.6417713e-05
6.1767553e-05
-0.18489899
-0.17646483
-0.16656717
-0.155342
-0.1442088
-0.13317929
-0.1220296
-0.11087343
-0.099896801
-0.089215534
-0.078921434
-0.069109681
-0.059866361
-0.051259646
-0.043340521
-0.036143868
-0.029688209
-0.02397595
-0.018994469
-0.014717605
-0.011107413
-0.008116189
-0.0056887272
-0.0037646946
-0.0022809986
-0.0011740403
-0.00038173186
0.00015480202
0.00048986929
0.00067216591
0.00074399116
0.00074071778
0.00069059027
0.00061495321
0.00052893914
0.00044250899
0.00036163746
0.00028943712
0.0002270946
0.00017458766
0.0001311869
9.583408e-05
6.7254237e-05
4.4442253e-05
2.5554205e-05
1.1713027e-05
-5.1164115e-06
-3.8936519e-06
-5.4337651e-05
5.914973e-05
-0.16984576
-0.16134504
-0.15288029
-0.14397834
-0.13462694
-0.12499993
-0.1151946
-0.10531776
-0.09549576
-0.085840892
-0.076453973
-0.067431354
-0.058859969
-0.050812505
-0.043346763
-0.036505668
-0.03031683
-0.024792563
-0.019930611
-0.015715298
-0.012118993
-0.0091038836
-0.0066239966
-0.0046273848
-0.0030583513
-0.0018596118
-0.0009742798
-0.00034758543
7.1711406e-05
0.0003301983
0.00046893854
0.0005228443
0.00052035495
0.00048351255
0.00042847221
0.00036636626
0.00030434453
0.0002466008
0.00019525838
0.00015107178
0.00011393741
8.3286505e-05
5.8235609e-05
3.8048507e-05
2.1194155e-05
8.7300928e-06
-6.5111717e-06
-5.3778456e-06
-5.1883749e-05
5.6072285e-05
-0.1544117
-0.14639862
-0.13909124
-0.13212216
-0.1244906
-0.11627531
-0.10779647
-0.09919521
-0.09054682
-0.08194767
-0.073503736
-0.065312503
-0.057459922
-0.050020746
-0.04305768
-0.036620173
-0.030743631
-0.02544927
-0.020744505
-0.016623733
-0.013069476
-0.010053852
-0.0075403382
-0.0054857193
-0.0038421333
-0.0025591058
-0.0015854679
-0.00087106706
-0.00036821747
-3.2890019e-05
0.00017433595
0.00028755484
0.00033510073
0.00033947782
0.00031769687
0.0002819599
0.00024054474
0.00019871962
0.00015956358
0.00012464084
9.4511726e-05
6.9134476e-05
4.805122e-05
3.0823539e-05
1.6259985e-05
5.3647932e-06
-8.110672e-06
-7.0000263e-06
-4.9195657e-05
5.2616527e-05
-0.13871692
-0.13173323
-0.12559146
-0.12017748
-0.11408291
-0.10723423
-0.10003285
-0.09265827
-0.085158825
-0.077610453
-0.070116698
-0.062774391
-0.055667201
-0.048869554
-0.042446702
-0.036452644
-0.03092886
-0.02590398
-0.021393893
-0.017402174
-0.013920877
-0.01093169
-0.0084073993
-0.0063135752
-0.0046103969
-0.0032545212
-0.0022008957
-0.0014044253
-0.00082143208
-0.00041089103
-0.00013544721
3.7786379e-05
0.00013669312
0.0001839492
0.00019719455
0.00018954021
0.00017029198
0.00014574195
0.00011991078
9.5181788e-05
7.2801645e-05
5.3283622e-05
3.662348e-05
2.2707554e-05
1.0705719e-05
1.5903832e-06
-9.945306e-06
-8.7445111e-06
-4.6357294e-05
4.8859516e-05
-0.12314644
-0.11750221
-0.11255454
-0.10840197
-0.10362678
-0.098050133
-0.09205466
-0.085836162
-0.079434525
-0.072907892
-0.066350743
-0.059856039
-0.053503994
-0.047366813
-0.041509993
-0.03599001
-0.030852575
-0.026132062
-0.021851387
-0.018022113
-0.014644904
-0.011710352
-0.0092001258
-0.007088375
-0.0053433012
-0.0039288297
-0.0028062799
-0.0019359512
-0.0012785586
-0.00079648573
-0.00045484733
-0.0002223514
-7.1922927e-05
1.8971363e-05
6.8339671e-05
9.0001332e-05
9.414893e-05
8.8010121e-05
7.6500888e-05
6.2807929e-05
4.8868098e-05
3.5764819e-05
2.3966536e-05
1.3706938e-05
4.5321193e-06
-2.5879794e-06
-1.2025765e-05
-1.0582521e-05
-4.34563e-05
4.4886412e-05
-0.10818882
-0.10388891
-0.10007626
-0.096965071
-0.093304963
-0.088872859
-0.083989296
-0.078841743
-0.073468722
-0.067915472
-0.062263927
-0.056599751
-0.050998204
-0.045527727
-0.040252012
-0.035227955
-0.030503607
-0.026117332
-0.022097471
-0.018462187
-0.015219602
-0.012368303
-0.0098981748
-0.0077915091
-0.0060243063
-0.0045677198
-0.0033895519
-0.0024557233
-0.0017316486
-0.0011834751
-0.0007791652
-0.00048940261
-0.00028828725
-0.0001537647
-6.7749065e-05
-1.5947585e-05
1.2543364e-05
2.5766655e-05
2.9460072e-05
2.7576138e-05
2.2729292e-05
1.6576747e-05
1.0070625e-05
3.8104133e-06
-2.2724511e-06
-7.1749053e-06
-1.4368477e-05
-1.2493969e-05
-4.0583544e-05
4.0779594e-05
-0.094140802
-0.091017743
-0.088214626
-0.085974819
-0.083253228
-0.079824742
-0.075942401
-0.071770302
-0.067345012
-0.062702416
-0.057911139
-0.053047042
-0.04817879
-0.043369725
-0.038680033
-0.034165141
-0.029873604
-0.025846016
-0.022114488
-0.018702271
-0.015623628
-0.012884041
-0.010480739
-0.0084035111
-0.0066357341
-0.0051555686
-0.003937256
-0.0029524384
-0.0021714399
-0.0015644586
-0.0011026396
-0.00075900199
-0.00050918416
-0.00033195838
-0.00020947473
-0.00012723213
-7.3824877e-05
-4.0547772e-05
-2.0944055e-05
-1.035747e-05
-5.5278783e-06
-4.2349543e-06
-5.0421454e-06
-6.9720992e-06
-9.7051962e-06
-1.2167037e-05
-1.6982471e-05
-1.4462616e-05
-3.7818499e-05
3.6612369e-05
-0.081126258
-0.078969122
-0.077021168
-0.075508245
-0.073572146
-0.071006187
-0.068005783
-0.064706639
-0.06114056
-0.05733568
-0.053347927
-0.049242114
-0.045078931
-0.040915466
-0.036807039
-0.032805989
-0.02895968
-0.025309258
-0.021888964
-0.018725588
-0.015838123
-0.013237711
-0.010927892
-0.0089051352
-0.0071595885
-0.0056760267
-0.0044349269
-0.0034136152
-0.0025874224
-0.0019307971
-0.00141834
-0.0010257253
-0.00073047358
-0.00051252857
-0.00035460121
-0.00024226884
-0.00016386068
-0.00011019239
-7.4220441e-05
-5.0673131e-05
-3.5698296e-05
-2.6540253e-05
-2.129003e-05
-1.8589294e-05
-1.7734544e-05
-1.7543485e-05
-1.9862717e-05
-1.647367e-05
-3.5222974e-05
3.2443345e-05
-0.069189053
-0.067797348
-0.06654585
-0.065627528
-0.064340311
-0.062502075
-0.060262573
-0.057730147
-0.054929871
-0.051882695
-0.04863288
-0.04523399
-0.041737888
-0.038194523
-0.034653316
-0.031162221
-0.027765936
-0.024504626
-0.021413106
-0.01852018
-0.015848132
-0.013412451
-0.011221841
-0.0092784873
-0.0075785542
-0.006112875
-0.0048678042
-0.0038261716
-0.0029682874
-0.0022729483
-0.0017184039
-0.0012832461
-0.00094718392
-0.00069165889
-0.00050026532
-0.00035895646
-0.00025605353
-0.00018210164
-0.00012962978
-9.2864995e-05
-6.7439659e-05
-5.0109463e-05
-3.8519789e-05
-3.0939503e-05
-2.6293568e-05
-2.3260921e-05
-2.2986494e-05
-1.8510868e-05
-3.28363e-05
2.8314986e-05
-0.058328641
-0.05752847
-0.056826248
-0.056381153
-0.055619515
-0.05438361
-0.052787423
-0.050915395
-0.048785403
-0.046411649
-0.043827884
-0.041076894
-0.03820148
-0.035243942
-0.032247116
-0.029253619
-0.026304301
-0.023437012
-0.02068574
-0.01807987
-0.015643561
-0.013395315
-0.011347786
-0.0095078161
-0.0078766979
-0.006450628
-0.0052213334
-0.0041768249
-0.003302234
-0.0025806887
-0.0019941863
-0.0015244248
-0.001153554
-0.00086480491
-0.00064296042
-0.00047464542
-0.00034844039
-0.00025484699
-0.00018614885
-0.00013621001
-0.00010024668
-7.4592662e-05
-5.6490854e-05
-4.3858836e-05
-3.5271511e-05
-2.9247505e-05
-2.6309765e-05
-2.0553357e-05
-3.0674069e-05
2.425266e-05
-0.048514087
-0.048161619
-0.047880992
-0.047801421
-0.047455478
-0.046707933
-0.045644689
-0.044330255
-0.042775917
-0.040989853
-0.038996579
-0.03682901
-0.034521177
-0.03210766
-0.029624392
-0.027108063
-0.024594821
-0.022119146
-0.019712998
-0.017405059
-0.015220045
-0.013178177
-0.011294824
-0.0095803689
-0.0080402562
-0.0066752346
-0.0054817685
-0.0044525918
-0.0035773677
-0.0028434179
-0.0022364796
-0.0017414565
-0.0013431222
-0.0010267374
-0.00077854615
-0.000586125
-0.00043857953
-0.0003266045
-0.00024243697
-0.00017973652
-0.00013342363
-9.9496916e-05
-7.4857175e-05
-5.7107116e-05
-4.4503338e-05
-3.5394816e-05
-2.9761954e-05
-2.2569856e-05
-2.8726717e-05
2.026782e-05
-0.039696212
-0.039675319
-0.039709807
-0.039903651
-0.039877831
-0.039517497
-0.038886594
-0.038033466
-0.036963927
-0.035681149
-0.034201812
-0.032550145
-0.03075211
-0.028834895
-0.026827586
-0.024760725
-0.022665248
-0.020571517
-0.018508529
-0.016503183
-0.014579591
-0.012758483
-0.011056765
-0.0094872307
-0.0080584546
-0.0067748449
-0.0056368641
-0.0046413917
-0.0037822089
-0.0030505707
-0.0024358346
-0.0019261103
-0.0015088939
-0.0011716506
-0.00090231036
-0.00068965078
-0.00052355407
-0.00039514341
-0.00029681655
-0.00022220186
-0.0001660623
-0.00012416646
-9.3150548e-05
-7.035449e-05
-5.3759602e-05
-4.1550059e-05
-3.3241328e-05
-2.4513414e-05
-2.6961248e-05
1.6361417e-05
-0.031814844
-0.03203318
-0.032296297
-0.032687308
-0.032900736
-0.03284005
-0.032552234
-0.032072821
-0.031403429
-0.030543369
-0.029502958
-0.028299079
-0.026950599
-0.02547797
-0.023903817
-0.022252645
-0.020550019
-0.018821756
-0.017093242
-0.01538877
-0.013730883
-0.012139774
-0.010632791
-0.0092240694
-0.0079242883
-0.0067405855
-0.0056766104
-0.0047327173
-0.0039062817
-0.0031921182
-0.0025829717
-0.0020700529
-0.001643587
-0.0012933396
-0.0010090891
-0.00078101933
-0.00060001261
-0.0004578427
-0.00034727394
-0.00026208404
-0.00019702928
-0.0001477688
-0.0001107675
-8.3169994e-05
-6.2737165e-05
-4.750838e-05
-3.660992e-05
-2.6315337e-05
-2.5322428e-05
1.252976e-05
-0.024803388
-0.025188701
-0.025611745
-0.026138551
-0.026524574
-0.026689576
-0.026667641
-0.026484386
-0.026138448
-0.025626407
-0.024953653
-0.024131116
-0.023171695
-0.022089974
-0.02090276
-0.019628928
-0.018288807
-0.016903557
-0.015494608
-0.014083092
-0.012689257
-0.011331907
-0.010027899
-0.0087917271
-0.0076352107
-0.006567294
-0.0055939726
-0.0047183422
-0.0039407663
-0.0032591461
-0.0026692762
-0.0021652603
-0.0017399608
-0.0013854528
-0.0010934533
-0.00085569936
-0.00066425606
-0.0005117441
-0.00039148812
-0.00029759392
-0.00022496788
-0.00016929096
-0.00012696291
-9.5014564e-05
-7.1052806e-05
-5.300727e-05
-3.9689914e-05
-2.7880885e-05
-2.3735734e-05
8.7695159e-06
-0.018592589
-0.019089337
-0.019618848
-0.020233282
-0.020738302
-0.021067977
-0.021246727
-0.021292657
-0.021202482
-0.020971057
-0.020600164
-0.020096113
-0.019467001
-0.018722528
-0.017874491
-0.016936748
-0.015924784
-0.014855261
-0.013745578
-0.012613428
-0.011476295
-0.010350966
-0.0092530563
-0.0081965919
-0.0071936618
-0.0062541519
-0.0053855779
-0.0045930227
-0.0038791781
-0.0032444858
-0.0026873643
-0.0022045064
-0.0017912251
-0.0014418243
-0.0011499684
-0.00090902783
-0.00071237988
-0.00055365095
-0.00042689585
-0.00032671561
-0.00024832112
-0.00018755092
-0.00014085444
-0.00010524141
-7.8241623e-05
-5.7724008e-05
-4.2261503e-05
-2.9086159e-05
-2.210948e-05
5.0831387e-06
-0.013113347
-0.01367961
-0.014274864
-0.014940057
-0.015522001
-0.015967153
-0.016292787
-0.016511428
-0.016618723
-0.016608633
-0.016480459
-0.016237101
-0.015882965
-0.015423864
-0.014867475
-0.014223376
-0.013502776
-0.012718206
-0.011883208
-0.011011998
-0.010119076
-0.0092188165
-0.0083250537
-0.0074506955
-0.0066073731
-0.0058051483
-0.0050522901
-0.0043551339
-0.0037180268
-0.0031433612
-0.00263169
-0.0021819131
-0.0017915217
-0.0014568806
-0.0011735285
-0.00093647544
-0.00074047864
-0.00058028057
-0.00045080151
-0.00034728276
-0.00026538278
-0.00020123045
-0.00015144263
-0.00011310775
-8.3763454e-05
-6.1278836e-05
-4.4064609e-05
-2.9778306e-05
-2.0338327e-05
1.4825438e-06
-0.0082987079
-0.0089035019
-0.0095341924
-0.010222698
-0.010849361
-0.011371228
-0.011800339
-0.012145153
-0.012400886
-0.012561242
-0.012623959
-0.012589551
-0.01245973
-0.012237365
-0.011926886
-0.011534385
-0.011067462
-0.01053503
-0.0099471205
-0.0093146484
-0.0086491264
-0.0079623433
-0.0072660273
-0.0065715103
-0.0058894063
-0.0052293217
-0.0045996098
-0.0040071844
-0.0034573996
-0.0029540024
-0.0024991558
-0.0020935306
-0.0017364548
-0.0014261101
-0.0011597582
-0.00093398066
-0.00074491541
-0.0005884755
-0.00046053804
-0.00035709786
-0.00027438337
-0.00020893536
-0.00015765209
-0.00011780218
-8.7020577e-05
-6.3246081e-05
-4.4805707e-05
-2.9779378e-05
-1.8307099e-05
-2.0081038e-06
-0.0040853784
-0.004706353
-0.0053505368
-0.0060425793
-0.0066899925
-0.007258759
-0.0077571238
-0.0081906204
-0.008554485
-0.0088426117
-0.0090518793
-0.009181248
-0.0092305747
-0.0092006108
-0.0090933568
-0.0089121875
-0.008661786
-0.008348041
-0.0079779387
-0.0075594177
-0.0071011763
-0.0066124394
-0.0061027009
-0.0055814521
-0.0050579081
-0.0045407438
-0.0040378548
-0.0035561543
-0.0031014167
-0.0026781756
-0.0022896801
-0.0019379092
-0.0016236416
-0.0013465725
-0.0011054682
-0.00089834381
-0.00072265314
-0.00057547436
-0.00045368248
-0.00035409937
-0.00027361659
-0.00020928898
-0.00015839893
-0.00011849232
-8.7390604e-05
-6.3176398e-05
-4.4172449e-05
-2.889565e-05
-1.589712e-05
-5.3516933e-06
-0.00041466854
-0.0010362131
-0.0016785569
-0.0023604973
-0.0030114261
-0.0036047838
-0.0041460778
-0.0046387693
-0.0050783965
-0.0054593318
-0.0057781053
-0.006032759
-0.006221968
-0.0063450571
-0.006402302
-0.0063950618
-0.0063257701
-0.0061978967
-0.0060159041
-0.005785174
-0.0055118902
-0.0052028858
-0.0048654598
-0.0045071738
-0.0041356338
-0.0037582698
-0.0033821208
-0.0030136394
-0.0026585245
-0.0023215907
-0.0020066807
-0.0017166251
-0.0014532484
-0.0012174196
-0.0010091407
-0.0008276657
-0.00067163791
-0.00053923721
-0.00042832482
-0.00033657822
-0.00026160942
-0.00020106265
-0.00015268872
-0.00011439673
-8.4278039e-05
-6.0632901e-05
-4.1858006e-05
-2.6933502e-05
-1.2995091e-05
-8.4990634e-06
0.0027666786
0.0021550085
0.0015247195
0.00086173087
0.00021914388
-0.00038263645
-0.00094715532
-0.0014764208
-0.0019664304
-0.0024121924
-0.0028102333
-0.0031581404
-0.0034539167
-0.0036960059
-0.0038835382
-0.0040164579
-0.0040955469
-0.0041224282
-0.0040995659
-0.0040302427
-0.0039185027
-0.0037690624
-0.0035871934
-0.003378582
-0.0031491689
-0.0029049778
-0.002651938
-0.0023957131
-0.0021415415
-0.0018940997
-0.0016573936
-0.0014346833
-0.0012284451
-0.0010403709
-0.00087140206
-0.00072179464
-0.00059120752
-0.00047880697
-0.00038337825
-0.00030343694
-0.00023733311
-0.00018334333
-0.00013974653
-0.00010488336
-7.7187101e-05
-5.524359e-05
-3.7597359e-05
-2.3723304e-05
-9.5063646e-06
-1.1392176e-05
0.0055061314
0.0049107715
0.0042987627
0.003659818
0.0030331339
0.002434094
0.0018605534
0.001311513
0.00079045176
0.00030166609
-0.00015158094
-0.00056673895
-0.0009415045
-0.001273847
-0.001562203
-0.0018055891
-0.0020036411
-0.0021566411
-0.0022655436
-0.0023319862
-0.0023582745
-0.0023473416
-0.0023026838
-0.0022282741
-0.0021284554
-0.0020078172
-0.0018710618
-0.0017228653
-0.0015677409
-0.0014099112
-0.0012531969
-0.0011009265
-0.0009558714
-0.0008202109
-0.00069552491
-0.00058281486
-0.00048254845
-0.00039472327
-0.00031894315
-0.00025450111
-0.00020046266
-0.00015574456
-0.00011918413
-8.9599085e-05
-6.5819322e-05
-4.6772845e-05
-3.1217396e-05
-1.915259e-05
-5.3729661e-06
-1.396938e-05
0.0078452682
0.0072697567
0.0066793339
0.0060667751
0.0054603225
0.0048713068
0.0042985762
0.0037418276
0.0032040144
0.0026887469
0.0021989633
0.0017371511
0.0013056752
0.00090675493
0.00054231569
0.00021389554
-7.7398997e-05
-0.00033093005
-0.00054656752
-0.00072471828
-0.00086633828
-0.00097292571
-0.0010464959
-0.0010895374
-0.0011049499
-0.0010959652
-0.0010660549
-0.0010188275
-0.00095792142
-0.00088689774
-0.0008091387
-0.00072775742
-0.0006455233
-0.00056480655
-0.00048754441
-0.00041522938
-0.00034891873
-0.00028926248
-0.00023654626
-0.00019074462
-0.00015157991
-0.00011858261
-9.1147998e-05
-6.8589907e-05
-5.0168276e-05
-3.5193377e-05
-2.2688964e-05
-1.3200922e-05
-5.9234023e-07
-1.6170969e-05
0.0098173519
0.0092627225
0.0086947295
0.0081085565
0.0075239187
0.0069489317
0.0063831462
0.0058267336
0.0052821605
0.0047524049
0.0042400381
0.0037473722
0.0032766839
0.0028301954
0.0024099656
0.0020178165
0.0016552913
0.0013236153
0.0010236532
0.0007558718
0.00052031267
0.00031657815
0.00014382965
8.0052725e-07
-0.00011417637
-0.00020312622
-0.00026837627
-0.00031248817
-0.00033818162
-0.00034825276
-0.00034549131
-0.0003326007
-0.0003121253
-0.00028638855
-0.00025744481
-0.00022704689
-0.00019663008
-0.00016731187
-0.00013990603
-0.00011494813
-9.2729635e-05
-7.3337238e-05
-5.6693127e-05
-4.2598116e-05
-3.0750112e-05
-2.0860503e-05
-1.225386e-05
-6.0281756e-06
4.7273418e-06
-1.7963882e-05
0.011454499
0.010920455
0.010374315
0.0098132154
0.0092503104
0.008691187
0.0081358867
0.0075849046
0.0070402827
0.0065044473
0.0059796084
0.0054678546
0.0049712975
0.0044920555
0.0040321784
0.003593592
0.0031780613
0.0027871545
0.0024222022
0.0020842588
0.0017740689
0.0014920416
0.0012382323
0.0010123353
0.00081368588
0.00064127567
0.0004937785
0.00036958812
0.00026686566
0.00018359493
0.00011764338
6.682546e-05
2.8965343e-05
1.955756e-06
-1.6189976e-05
-2.7295101e-05
-3.2987526e-05
-3.4679596e-05
-3.3559506e-05
-3.0593409e-05
-2.6536637e-05
-2.1952209e-05
-1.7233359e-05
-1.2633014e-05
-8.2707545e-06
-4.2551101e-06
-2.268657e-07
2.1792175e-06
1.0490038e-05
-1.9265875e-05
0.012763168
0.012247266
0.011720435
0.011181163
0.010637718
0.010093801
0.0095497972
0.0090064121
0.0084653361