/*--------------------------------*- C++ -*----------------------------------*\
  =========                 |
  \\      /  F ield         | OpenFOAM: The Open Source CFD Toolbox
   \\    /   O peration     | Website:  https://openfoam.org
    \\  /    A nd           | Version:  6
     \\/     M anipulation  |
\*---------------------------------------------------------------------------*/
FoamFile
{
    version     2.0;
    format      ascii;
    class       volScalarField;
    location    "13";
    object      pPrime2Mean;
}
// * * * * * * * * * * * * * * * * * * * * * * * * * * * * * * * * * * * * * //

dimensions      [0 4 -4 0 0 0 0];

internalField   nonuniform List<scalar> 
9200
(
0.83707541
0.69174129
0.56886668
0.48922293
0.42597248
0.37292069
0.32733416
0.28783187
0.25349488
0.22358
0.19746562
0.17462599
0.1546137
0.13704723
0.12160181
0.10800291
0.096022187
0.085474441
0.076240299
0.068169894
0.67143225
0.55303166
0.45421098
0.38966321
0.33825354
0.29510283
0.25805081
0.22600327
0.19821881
0.17409021
0.15310356
0.13481977
0.11886251
0.10490958
0.092686427
0.081961049
0.072539981
0.0642635
0.056997379
0.05054358
0.51628285
0.4237152
0.3474374
0.29709252
0.25681854
0.22297366
0.19394054
0.16889482
0.14726295
0.12856461
0.11238514
0.098364842
0.086192472
0.075600489
0.066361031
0.058281979
0.051203087
0.044990426
0.039515802
0.034601389
0.37600992
0.30735973
0.25144186
0.21400923
0.18386704
0.15849023
0.13675653
0.11808574
0.10205572
0.08829894
0.076488445
0.066335222
0.057587122
0.050027565
0.043473374
0.03777159
0.032795595
0.0284395
0.024599071
0.021144334
0.25457339
0.20718077
0.16889334
0.14273537
0.12145658
0.10349355
0.088155323
0.075072232
0.063951546
0.054520938
0.046527989
0.039745204
0.033973612
0.029043927
0.024815373
0.021172741
0.018022557
0.015288085
0.012895744
0.010764197
0.15545959
0.12598232
0.10216104
0.085346764
0.071434369
0.059641449
0.049630838
0.041202682
0.034167426
0.028328534
0.023494455
0.019490046
0.016163315
0.013387675
0.011060868
0.0091018727
0.0074471026
0.0060461864
0.0048537187
0.0038258297
0.081568665
0.066079738
0.053251037
0.043615467
0.035383341
0.028356618
0.022463597
0.017628701
0.013737123
0.010648412
0.0082184854
0.0063152418
0.0048265202
0.0036621608
0.0027523879
0.002044447
0.0014989134
0.0010862671
0.0007826913
0.00056909137
0.035130248
0.029241906
0.023755805
0.018961519
0.014575451
0.010781215
0.0076775458
0.0052655245
0.0034765491
0.0022072448
0.0013478467
0.00079928274
0.00048054493
0.00032966713
0.00030135814
0.00036346999
0.00049358168
0.00067633791
0.000901786
0.0011646752
0.017638838
0.016645883
0.014799279
0.012396708
0.0099214087
0.0077346349
0.0060055741
0.0047643793
0.00396186
0.0035143947
0.0033338442
0.0033433354
0.0034827328
0.0037082744
0.0039896504
0.0043065701
0.0046457783
0.0049990252
0.005362494
0.0057358251
0.029774237
0.028820213
0.026946035
0.024433713
0.021885368
0.01963324
0.017815563
0.016446993
0.015473875
0.014816494
0.014395331
0.014143527
0.014009966
0.01395773
0.013961089
0.014002411
0.014069669
0.014154774
0.014252807
0.014360771
2.0434398
1.71778
1.4191723
1.2305486
1.080942
0.95551049
0.84760461
0.75363545
0.67138279
0.59910086
0.53536321
0.47898973
0.42899325
0.38454081
0.34492506
0.30954238
0.27787575
0.24946481
0.22387974
0.20087843
2.0168468
1.6937398
1.3986126
1.2121943
1.0644968
0.94069642
0.834203
0.74148797
0.66035772
0.58908408
0.52625461
0.47070097
0.42144599
0.37766532
0.33865912
0.30383039
0.27266851
0.24471943
0.21955004
0.19692305
1.9626337
1.6461427
1.3585231
1.1768191
1.0330272
0.9125309
0.80888299
0.71866783
0.63975143
0.57044851
0.50938058
0.45540675
0.40757258
0.36507286
0.327224
0.29344314
0.26323268
0.23615113
0.21176663
0.18984289
1.8817574
1.576144
1.3000554
1.1255131
0.98752033
0.87190782
0.77246265
0.68592835
0.61025989
0.5438386
0.4853388
0.43366221
0.38788929
0.3472439
0.31106689
0.27879617
0.24995261
0.22411273
0.20085366
0.17993773
1.7764336
1.4857283
1.2248962
1.0597841
0.92932966
0.82004862
0.72605222
0.64428396
0.57281352
0.51010991
0.45491745
0.40619427
0.36306699
0.32479763
0.29075886
0.26041519
0.23331019
0.20904265
0.18720924
0.16757269
1.6496751
1.3775264
1.1352355
0.98156146
0.86017497
0.75849588
0.67104231
0.59499285
0.52855419
0.47030118
0.41906304
0.37386652
0.33389433
0.29845479
0.26695894
0.238903
0.21385653
0.191443
0.17128888
0.15316472
1.5051383
1.2546938
1.0336671
0.89310805
0.78206282
0.6890415
0.60903984
0.53950001
0.4787843
0.42558852
0.37883919
0.33764201
0.30124449
0.26900848
0.2403894
0.21491991
0.1921986
0.1718744
0.1536108
0.13719631
1.3469866
1.1207966
0.92310307
0.79694909
0.69722196
0.61366763
0.54181481
0.4793898
0.42492484
0.37724848
0.33539436
0.29855542
0.26605113
0.2373032
0.21181703
0.18916681
0.16898442
0.15094636
0.13475859
0.12023487
1.1797425
0.9796858
0.80667952
0.69579406
0.60803891
0.53449392
0.47125658
0.41634935
0.36848442
0.32663138
0.28993791
0.25769021
0.22928503
0.20420893
0.18202238
0.16234674
0.14485393
0.1292555
0.11531097
0.10285598
1.0081233
0.83539345
0.68765413
0.59243203
0.51695813
0.45368528
0.39929108
0.3520963
0.31099779
0.27511027
0.24369877
0.21614562
0.19192749
0.17059875
0.15177877
0.13514201
0.12041116
0.10735344
0.095806567
0.085606981
0.17651218
0.15207216
0.13121618
0.11302846
0.097425536
0.084021519
0.072487268
0.062538232
0.053938905
0.046495042
0.040046051
0.034458669
0.029620785
0.0254363
0.021821475
0.018702489
0.016013863
0.01369749
0.011702051
0.0099826039
0.0085002027
0.0072214788
0.0061181276
0.0051663127
0.0043460189
0.0036403929
0.0030351183
0.0025178599
0.002077808
0.001705334
0.0013917608
0.0011292308
0.00091064678
0.00072964663
0.00058058758
0.00045851514
0.00035912027
0.00027868059
0.00021400197
0.00016235551
0.00012142412
8.9249531e-05
6.418777e-05
4.4870749e-05
3.0169631e-05
1.9173389e-05
1.1145563e-05
5.5544355e-06
1.9667583e-06
2.3414524e-07
0.17326873
0.14963727
0.12937619
0.11164807
0.096413225
0.083297466
0.071980025
0.062188683
0.053700862
0.046333597
0.039935896
0.03438223
0.029566245
0.025395902
0.021790245
0.018677321
0.01599287
0.013679569
0.011686581
0.0099692403
0.0084887483
0.0072117958
0.0061100882
0.0051597739
0.004340814
0.0036363361
0.0030320147
0.0025155187
0.0020760549
0.0017040199
0.0013907662
0.0011284658
0.0009100467
0.00072916705
0.00058019856
0.00045819657
0.00035885839
0.00027846562
0.00021382657
0.0001622139
0.00012131143
8.9161563e-05
6.412077e-05
4.4821379e-05
3.0134837e-05
1.9150359e-05
1.1131737e-05
5.5473702e-06
1.9642039e-06
2.3381609e-07
0.16751609
0.145357
0.12618209
0.10930275
0.094735901
0.082134249
0.071196062
0.061673976
0.053371182
0.046126891
0.039808236
0.034303781
0.029517415
0.025364194
0.021767962
0.018659945
0.015977947
0.013665931
0.011673825
0.0099573727
0.0084779459
0.0072022593
0.0061019589
0.0051530973
0.0043355348
0.0036323147
0.0030290553
0.0025134009
0.0020745629
0.0017029649
0.0013899988
0.0011278783
0.00090956883
0.00072875717
0.00057983475
0.00045786895
0.00035856354
0.00027820304
0.00021359657
0.00016201658
0.00012114612
8.9026818e-05
6.4014373e-05
4.4740583e-05
3.0076468e-05
1.9110957e-05
1.1107695e-05
5.5349513e-06
1.959682e-06
2.33224e-07
0.15948812
0.13939207
0.12177149
0.10612295
0.092504746
0.080615083
0.070191022
0.061026671
0.052965413
0.045879755
0.039662348
0.034220505
0.029471355
0.025339039
0.021753557
0.018650278
0.015969751
0.013657707
0.011665147
0.0099484041
0.0084691085
0.007194015
0.0060946838
0.0051470223
0.0043307339
0.0036287245
0.0030265129
0.002511689
0.0020734523
0.0017022484
0.0013895116
0.0011275049
0.0009092388
0.00072843536
0.00057950936
0.00045754176
0.00035824242
0.00027789748
0.00021331507
0.00016176555
0.00012092941
8.8845989e-05
6.386892e-05
4.4628502e-05
2.9994527e-05
1.9055115e-05
1.1073354e-05
5.5170926e-06
1.9531445e-06
2.3236045e-07
0.14946031
0.13194027
0.11631456
0.10226224
0.08984385
0.078824705
0.069013221
0.060267972
0.052487509
0.045587135
0.039489952
0.034124252
0.029421605
0.02531613
0.021744758
0.018647696
0.015968845
0.013656204
0.011662236
0.0099441343
0.008463958
0.0071885941
0.0060895481
0.0051425759
0.0043271968
0.0036261431
0.0030247984
0.0025106679
0.0020729179
0.0017020034
0.0013893965
0.0011274101
0.00090910285
0.00072823499
0.00057924656
0.00045723231
0.00035790724
0.0002775574
0.00021298776
0.00016146451
0.0001206636
8.8620383e-05
6.3685085e-05
4.4485391e-05
2.9889058e-05
1.8982775e-05
1.1028634e-05
5.4937437e-06
1.9445784e-06
2.3122054e-07
0.13773276
0.12322875
0.11000376
0.097872468
0.086855372
0.076815348
0.067676984
0.05939066
0.05192146
0.045231728
0.039276125
0.034003809
0.029360715
0.025291259
0.021739895
0.018652363
0.01597661
0.013663515
0.011667502
0.009947007
0.0084647826
0.007188017
0.0060882542
0.0051411356
0.0043259979
0.0036253815
0.0030245065
0.0025107642
0.0020732612
0.0017024419
0.001389803
0.0011277001
0.00090923697
0.00072821064
0.00057908541
0.00045696835
0.00035757746
0.00027719613
0.00021262355
0.00016111922
0.00012035223
8.8352084e-05
6.3463968e-05
4.4311762e-05
2.9760193e-05
1.8893879e-05
1.0973407e-05
5.4647682e-06
1.9339103e-06
2.2979191e-07
0.12465318
0.11353022
0.10304729
0.093068616
0.083572908
0.074570159
0.066143922
0.058354921
0.051235747
0.044792233
0.039008235
0.033852972
0.029286913
0.025265538
0.021741847
0.018668148
0.015997356
0.013684017
0.011685137
0.0099608648
0.0084749828
0.0071952015
0.0060932359
0.0051446787
0.0043287036
0.0036276508
0.0030265532
0.0025126572
0.0020749778
0.0017039213
0.0013909867
0.0011285568
0.00090976993
0.00072845301
0.00057908937
0.00045679382
0.00035728307
0.00027683382
0.0002122357
0.00016073812
0.0001200005
8.8044085e-05
6.3207162e-05
4.4108314e-05
2.9608156e-05
1.8788406e-05
1.0907575e-05
5.4300858e-06
1.921114e-06
2.2806563e-07
0.1106597
0.10317454
0.095621285
0.087848543
0.079894928
0.071971917
0.064320718
0.057099679
0.050397114
0.044255106
0.038684839
0.033676901
0.029208528
0.025248456
0.021760142
0.018704031
0.016039252
0.013724957
0.011721452
0.0099911129
0.008499115
0.0072139276
0.0061075773
0.005155678
0.0043372617
0.0036344575
0.0030320825
0.0025172002
0.0020786948
0.0017068962
0.001393274
0.0011302126
0.00091086591
0.00072907723
0.00057933843
0.00045676373
0.00035706139
0.00027649536
0.0002118404
0.00016033148
0.00011961466
8.7700014e-05
6.2916597e-05
4.3875955e-05
2.9433233e-05
1.8666323e-05
1.083098e-05
5.3895179e-06
1.9060927e-06
2.2602566e-07
0.096175606
0.092333112
0.087566548
0.08182966
0.075412754
0.068691076
0.061971872
0.05546359
0.049296416
0.043547307
0.038257854
0.033444773
0.029106712
0.02522946
0.021789888
0.018758864
0.016103471
0.013788807
0.011779483
0.010040861
0.0085400525
0.0072466667
0.0061332863
0.0051756865
0.0043528196
0.0036466132
0.0030416448
0.002524753
0.0020846415
0.0017115141
0.0013967647
0.0011327413
0.00091258477
0.000730134
0.00057987556
0.00045691339
0.00035694034
0.00027620182
0.00021145291
0.00015990983
0.00011920163
8.7324132e-05
6.2594716e-05
4.3615918e-05
2.9235951e-05
1.8527771e-05
1.0743598e-05
5.3430156e-06
1.8888316e-06
2.2366624e-07
0.081723417
0.080716205
0.078151214
0.074311687
0.069594771
0.064337617
0.058806842
0.053226363
0.047765573
0.042542024
0.037633942
0.033090057
0.028935863
0.025178853
0.021813117
0.01882301
0.016186041
0.013875212
0.011860983
0.010112895
0.0086009019
0.0072964044
0.0061729901
0.005206877
0.0043770912
0.0036654197
0.0030561998
0.0025360091
0.0020933156
0.001718135
0.0014017263
0.0011363493
0.00091509068
0.00073175584
0.0005808071
0.00045732647
0.00035698381
0.00027600041
0.00021110684
0.00015949615
0.00011877649
8.6925858e-05
6.2247058e-05
4.3331179e-05
2.9017718e-05
1.837323e-05
1.0645472e-05
5.2904663e-06
1.8692115e-06
2.2098196e-07
0.065871861
0.066656286
0.065857819
0.063774175
0.06079404
0.057147153
0.053027141
0.048637742
0.044159209
0.039731114
0.035457381
0.031412961
0.027647886
0.024191294
0.021055709
0.018240825
0.015736676
0.013526325
0.011588181
0.009897968
0.008430356
0.0071602744
0.0060638944
0.0051192906
0.0043068025
0.0036091404
0.0030112955
0.0025003212
0.0020650495
0.0016957941
0.001384074
0.0011223826
0.00090401478
0.0007229538
0.00057380539
0.00045176169
0.00035257412
0.00027252403
0.00020838645
0.00015738833
0.00011716409
8.5712661e-05
6.1353767e-05
4.2692228e-05
2.8578761e-05
1.8088854e-05
1.0477711e-05
5.2060869e-06
1.8397535e-06
2.1767841e-07
0.050984926
0.052548778
0.052791101
0.051943642
0.050287771
0.047979042
0.045146041
0.041948731
0.038543767
0.035061199
0.031605167
0.02825731
0.025078092
0.022108847
0.019374755
0.016887834
0.01464962
0.012653605
0.010887429
0.0093348086
0.0079771972
0.0067951604
0.0057694555
0.0048818141
0.0041154398
0.0034552552
0.0028879481
0.0024018744
0.0019868773
0.0016340705
0.0013356229
0.0010845704
0.00087467049
0.00070030347
0.00055641493
0.00043848335
0.00034249685
0.00026492908
0.00020270906
0.00015318612
0.00011409138
8.3499935e-05
5.9791572e-05
4.1618049e-05
2.7867028e-05
1.7642076e-05
1.0220917e-05
5.0788684e-06
1.7953935e-06
2.1216359e-07
0.038195949
0.04021698
0.041194984
0.041296173
0.040676328
0.03944014
0.03767542
0.035500853
0.033043809
0.030418186
0.027721163
0.025033961
0.022421326
0.019931828
0.01759946
0.015445662
0.013481361
0.011708982
0.01012437
0.0087185769
0.0074794452
0.0063929776
0.0054444547
0.004619293
0.003903642
0.0032847461
0.0027511061
0.0022924927
0.0018998601
0.0015652084
0.0012814282
0.0010421562
0.0008416587
0.00067474985
0.0005367439
0.00042342886
0.00033104898
0.00025628682
0.00019623993
0.00014839244
0.00011058287
8.097138e-05
5.8005203e-05
4.0389036e-05
2.7052318e-05
1.7130475e-05
9.9268081e-06
4.9331251e-06
1.7446823e-06
2.0580407e-07
0.027421357
0.029655999
0.03109339
0.031852832
0.031993995
0.03158052
0.030671906
0.029350083
0.027710395
0.025845745
0.023840825
0.021770547
0.019698371
0.017675342
0.015740395
0.013921363
0.012236283
0.010694848
0.0092999484
0.0080491909
0.0069363205
0.0059525035
0.0050874222
0.0043301566
0.0036698451
0.0030961298
0.0025994155
0.0021709783
0.0018029679
0.0014883443
0.0012207823
0.00099457161
0.00080453014
0.00064594205
0.00051452053
0.00040638909
0.00031807054
0.00024647577
0.00018888755
0.00014293914
0.00010658848
7.8090806e-05
5.5969076e-05
3.8987581e-05
2.6122974e-05
1.6546712e-05
9.5911122e-06
4.766758e-06
1.6867523e-06
1.9854208e-07
0.018731305
0.020929387
0.022565821
0.023709718
0.024354993
0.024529057
0.024267421
0.023621414
0.022655966
0.021440872
0.02004475
0.018531893
0.016959906
0.015377991
0.013826245
0.012335747
0.010929109
0.0096213418
0.008420924
0.0073309728
0.0063504231
0.0054751476
0.0046989631
0.0040144836
0.0034137965
0.00288896
0.0024323309
0.0020367525
0.0016956329
0.0014029502
0.0011532142
0.00094141019
0.00076294418
0.00061360114
0.00048952071
0.00038718672
0.00030342301
0.00023538895
0.00018057028
0.00013676467
0.00010206246
7.4824833e-05
5.3659326e-05
3.7397134e-05
2.5067925e-05
1.5883857e-05
9.2098277e-06
4.5778673e-06
1.6209302e-06
1.9033549e-07
0.01205647
0.014016872
0.015629743
0.016919146
0.017839323
0.018387189
0.018575773
0.0184312
0.017991994
0.017305301
0.016422078
0.015393414
0.014267835
0.013089249
0.011895604
0.010718246
0.0095818167
0.008504547
0.0074988415
0.0065720569
0.0057273805
0.0049647315
0.004281622
0.0036739282
0.0031365384
0.0026638615
0.0022501955
0.0018899699
0.0015778855
0.0013089773
0.0010786276
0.0008825513
0.00071677178
0.00057760083
0.00046162797
0.000365719
0.00028701889
0.000222954
0.00017122979
0.00012982313
9.6969533e-05
7.1146951e-05
5.1056595e-05
3.560398e-05
2.3877867e-05
1.5135914e-05
8.7794085e-06
4.3646462e-06
1.5464881e-06
1.8111699e-07
0.0071969685
0.0087936539
0.010219569
0.011466815
0.012471114
0.013207689
0.013670205
0.013864436
0.013807317
0.013525696
0.013053132
0.012426537
0.011683527
0.010860321
0.0099901072
0.0091019441
0.0082201507
0.0073641165
0.0065484405
0.0057833185
0.0050750971
0.0044269216
0.0038394087
0.0033112928
0.0028400033
0.0024221464
0.0020538814
0.0017311926
0.0014500704
0.0012066195
0.00099711351
0.0008180176
0.00066599281
0.00053789669
0.00043078662
0.00034192771
0.00026880291
0.00020912165
0.00016082415
0.00012208011
9.1282365e-05
6.7036139e-05
4.8145197e-05
3.3596867e-05
2.2545059e-05
1.4297937e-05
8.2969495e-06
4.12571e-06
1.4629285e-06
1.708665e-07
0.0038832839
0.0050621057
0.0062025884
0.0072788359
0.0082232517
0.0089992117
0.0095865879
0.0099760406
0.010168033
0.010172697
0.010008001
0.0096971725
0.0092664145
0.0087429915
0.0081535934
0.0075230333
0.0068733344
0.0062231849
0.0055877136
0.0049785295
0.0044039653
0.0038694614
0.003378029
0.0029307403
0.0025272005
0.0021659699
0.0018449163
0.0015614897
0.0013129235
0.0010963711
0.00090899318
0.00074800798
0.00061072141
0.00049454597
0.00039701738
0.0003158116
0.00024876187
0.0001938734
0.00014933365
0.00011351715
8.4984909e-05
6.2479226e-05
4.4914838e-05
3.1368114e-05
2.1064065e-05
1.3366303e-05
7.760239e-06
3.8599019e-06
1.3697562e-06
1.5953988e-07
0.0018259575
0.00258842
0.0034020441
0.0042340074
0.0050227498
0.0057283102
0.0063233134
0.0067889281
0.0071143263
0.0072971347
0.0073426248
0.0072620157
0.0070707582
0.0067869837
0.0064300635
0.006019336
0.0055730797
0.00510777
0.004637603
0.0041742658
0.0037269127
0.0033023046
0.0029050628
0.0025379884
0.0022024083
0.0018985102
0.0016256446
0.0013825775
0.0011676897
0.00097912593
0.00081489918
0.00067296256
0.00055125738
0.0004477477
0.00036044832
0.00028744996
0.00022694247
0.00017723484
0.00013677082
0.00010413901
7.8077699e-05
5.7474696e-05
4.1363277e-05
2.8915483e-05
1.9433014e-05
1.2339663e-05
7.168416e-06
3.566813e-06
1.2668136e-06
1.4715171e-07
0.00074893878
0.0011331876
0.0016214961
0.0021813586
0.0027619603
0.0033259875
0.0038446114
0.0042947853
0.0046592772
0.004927523
0.0050955368
0.0051650045
0.0051421883
0.0050368291
0.0048610328
0.0046281841
0.0043519768
0.0040456177
0.0037212271
0.0033894329
0.0030591504
0.0027375197
0.0024299707
0.0021403785
0.0018712746
0.0016240804
0.0013993386
0.0011969229
0.0010162171
0.00085625761
0.00071584407
0.00059362014
0.00048813359
0.00039788133
0.00032134596
0.00025702734
0.00020347061
0.00015929059
0.00012319162
9.3982143e-05
7.0584056e-05
5.2037179e-05
3.749948e-05
2.6244312e-05
1.7654961e-05
1.1219654e-05
6.5222714e-06
3.2467532e-06
1.1541417e-06
1.3371124e-07
0.00040861732
0.00047228811
0.0006647353
0.00095761756
0.0013123108
0.0016975077
0.0020870028
0.0024577352
0.0027902126
0.0030696152
0.0032861738
0.0034348723
0.0035149069
0.0035290511
0.003482917
0.0033841493
0.0032416284
0.0030647478
0.0028628028
0.0026445129
0.0024176829
0.0021890003
0.0019639507
0.0017468318
0.0015408373
0.0013481864
0.0011702743
0.0010078254
0.0008610349
0.00072969277
0.00061328486
0.000511074
0.00042216328
0.00034554616
0.00028014765
0.00022485969
0.00017857228
0.00014020069
0.00010870827
8.3124369e-05
6.2557343e-05
4.6202768e-05
3.3347456e-05
2.3370212e-05
1.5739746e-05
1.0012195e-05
5.8250996e-06
2.9013265e-06
1.032302e-06
1.1930285e-07
0.00060122603
0.00040839537
0.00034936672
0.00040134332
0.00053726716
0.00073307434
0.00096740435
0.0012199574
0.0014720523
0.001707799
0.0019147259
0.0020838804
0.0022097117
0.00228983
0.0023246251
0.0023167651
0.0022706337
0.0021917613
0.0020862951
0.0019605356
0.0018205623
0.0016719549
0.001519613
0.0013676627
0.0012194359
0.0010775046
0.00094375148
0.00081945966
0.00070540913
0.00060196884
0.00050917936
0.00042682365
0.00035448601
0.00029160103
0.00023749504
0.00019142216
0.00015259616
0.00012021863
9.3503275e-05
7.1695747e-05
5.4089144e-05
4.003505e-05
2.8950568e-05
2.0322051e-05
1.3705941e-05
8.7286212e-06
5.0832605e-06
2.5335846e-06
9.0232966e-07
1.0404158e-07
0.0011628461
0.00077551256
0.0005146224
0.00036281683
0.0003028607
0.00031773923
0.00039164838
0.00050845539
0.00065219584
0.00080815783
0.00096357396
0.00110793
0.0012331138
0.0013334583
0.0014056488
0.0014484975
0.0014626197
0.0014500578
0.0014138855
0.0013578261
0.0012859072
0.001202172
0.0011104543
0.0010142229
0.00091648643
0.0008197533
0.00072603174
0.00063686015
0.00055335424
0.00047626247
0.00040602234
0.00034281348
0.00028660528
0.00023719901
0.00019426495
0.00015737564
0.00012603583
9.9709602e-05
7.7844126e-05
5.9890064e-05
4.5318108e-05
3.3631752e-05
2.4376415e-05
1.714543e-05
1.1583255e-05
7.3873024e-06
4.3072094e-06
2.1486453e-06
7.6604217e-07
8.8142007e-08
0.0019655729
0.0014389348
0.0010246092
0.00070986476
0.00048512862
0.00033944876
0.0002622822
0.00024199856
0.00026622351
0.00032273712
0.00040010368
0.00048803898
0.00057768288
0.00066180625
0.0007349131
0.00079322463
0.00083456286
0.00085815955
0.0008644156
0.00085463461
0.00083075434
0.00079509546
0.00075014326
0.00069837004
0.00064210314
0.0005834355
0.00052417507
0.0004658246
0.00040958492
0.00035637309
0.00030684946
0.00026144853
0.00022041047
0.00018381161
0.00015159328
0.00012358894
9.9549575e-05
7.9167369e-05
6.2097284e-05
4.7976128e-05
3.64388e-05
2.7131481e-05
1.9721796e-05
1.3906209e-05
9.4148986e-06
6.0151028e-06
3.5122804e-06
1.7540084e-06
6.2607532e-07
7.1896925e-08
0.002912077
0.002292533
0.001768324
0.0013303372
0.00097454378
0.00069476032
0.00048487017
0.0003373851
0.00024362155
0.00019438098
0.000180451
0.00019293511
0.00022354291
0.00026485716
0.00031053639
0.00035543103
0.00039561591
0.00042835064
0.00045198044
0.00046579223
0.00046984327
0.00046477909
0.00045165602
0.00043178002
0.00040656962
0.00037744733
0.00034575927
0.00031272188
0.00027939054
0.00024664632
0.00021519519
0.00018557598
0.00015817353
0.0001332347
0.00011088605
9.1152118e-05
7.3973902e-05
5.9227103e-05
4.6739565e-05
3.6307444e-05
2.7709614e-05
2.0719971e-05
1.5117482e-05
1.0694012e-05
7.2600659e-06
4.6490502e-06
2.7197356e-06
1.3601459e-06
4.861577e-07
5.5729629e-08
0.0039299147
0.0032547888
0.0026576843
0.0021321691
0.0016779322
0.0012922696
0.00097246709
0.00071446014
0.00051287192
0.00036149074
0.00025362572
0.00018235285
0.00014075901
0.00012219613
0.00012050824
0.00013020686
0.00014658934
0.00016580124
0.00018484569
0.00020154542
0.00021446696
0.0002228183
0.00022633205
0.00022514489
0.00021968264
0.00021055724
0.00019848023
0.00018419379
0.00016841963
0.00015182319
0.00013499131
0.00011841995
0.00010250983
8.7567471e-05
7.3810386e-05
6.1375029e-05
5.0326706e-05
4.0670764e-05
3.2364386e-05
2.5328371e-05
1.9458321e-05
1.463477e-05
1.0731948e-05
7.6250417e-06
5.1959171e-06
3.3376233e-06
1.9574973e-06
9.8083766e-07
3.5117911e-07
4.0188215e-08
0.0049663192
0.0042645336
0.0036245712
0.00304192
0.0025185463
0.0020541076
0.0016483012
0.0012996581
0.0010054881
0.00076219196
0.00056548714
0.00041056074
0.00029224099
0.00020519833
0.00014414685
0.00010402361
8.0137745e-05
6.8284891e-05
6.4823941e-05
6.6714919e-05
7.1520673e-05
7.7377746e-05
8.2943537e-05
8.7327554e-05
9.0014484e-05
9.0785842e-05
8.9645622e-05
8.6753853e-05
8.2369934e-05
7.6806883e-05
7.0395666e-05
6.3459026e-05
5.629298e-05
4.9155003e-05
4.2257334e-05
3.5764527e-05
2.979425e-05
2.4420618e-05
1.9679356e-05
1.557411e-05
1.2083298e-05
9.1669521e-06
6.7731325e-06
4.843637e-06
3.3188331e-06
2.141672e-06
1.2607622e-06
6.3352192e-07
2.2736041e-07
2.5975286e-08
0.0059837608
0.0052769379
0.0046175761
0.0040025187
0.0034349494
0.0029160029
0.0024469433
0.0020281159
0.0016588398
0.0013376
0.0010621717
0.00082969373
0.00063676615
0.00047958557
0.00035409637
0.00025614
0.00018159557
0.00012650554
8.7180907e-05
6.0281291e-05
4.286774e-05
3.2428861e-05
2.6882695e-05
2.4558311e-05
2.4161939e-05
2.4732819e-05
2.5593663e-05
2.6299892e-05
2.6591017e-05
2.6346252e-05
2.5545853e-05
2.4238464e-05
2.2514605e-05
2.0485724e-05
1.8268405e-05
1.5972971e-05
1.3695964e-05
1.1515814e-05
9.4911798e-06
7.6613266e-06
6.0479639e-06
4.6580134e-06
3.4868336e-06
2.5215384e-06
1.7441326e-06
1.1343424e-06
6.7199142e-07
3.3929681e-07
1.2222715e-07
1.3938977e-08
0.0069563288
0.0062600042
0.0055988701
0.0049707301
0.0043792528
0.0038263981
0.0033143388
0.0028445771
0.0024178176
0.0020340778
0.0016927424
0.0013925793
0.0011317768
0.00090801751
0.00071857444
0.00056041592
0.00043031571
0.00032496253
0.00024106414
0.00017543974
0.00012509702
8.7290912e-05
5.9563465e-05
3.9765233e-05
2.6060012e-05
1.6915643e-05
1.1084096e-05
7.5741669e-06
5.6198727e-06
4.6472152e-06
4.2413858e-06
4.1159174e-06
4.084712e-06
4.0375136e-06
3.9189781e-06
3.7113998e-06
3.4208581e-06
3.0665982e-06
2.67327e-06
2.2656592e-06
1.8654617e-06
1.4896588e-06
1.1500697e-06
8.536936e-07
6.0352747e-07
3.9961521e-07
2.4014622e-07
1.2257435e-07
4.4515687e-08
5.0660645e-09
0.0078668513
0.0071916309
0.0065414016
0.0059146634
0.0053150954
0.0047450315
0.0042070761
0.0037033805
0.0032355171
0.0028045382
0.0024109885
0.0020548842
0.0017357084
0.0014524377
0.0012035893
0.00098728168
0.00080130658
0.00064320884
0.00051037102
0.00040009697
0.00030969079
0.00023652693
0.00017810936
0.00013211759
9.6439427e-05
6.9190465e-05
4.8721783e-05
3.3617501e-05
2.2684298e-05
1.493505e-05
9.5685664e-06
5.947278e-06
3.574239e-06
2.0706675e-06
1.1547682e-06
6.2247075e-07
3.3039616e-07
1.8124748e-07
1.1164398e-07
8.2314993e-08
7.0459233e-08
6.400787e-08
5.7489395e-08
4.9185361e-08
3.9278964e-08
2.8732742e-08
1.8671849e-08
1.0101163e-08
3.8158666e-09
4.3909401e-10
0.008704635
0.0080572156
0.0074264906
0.0068114886
0.006215614
0.005641282
0.0050912061
0.0045678213
0.0040731714
0.0036089372
0.003176427
0.0027765361
0.0024097191
0.0020759832
0.0017748996
0.0015056271
0.0012669483
0.0010573171
0.00087491645
0.00071772048
0.00058356132
0.00047019397
0.00037535832
0.00029683459
0.00023249095
0.00018032158
0.00013847498
0.00010527268
7.921892e-05
5.900264e-05
4.3492943e-05
3.1729565e-05
2.290971e-05
1.637254e-05
1.1582426e-05
8.1119113e-06
5.6251521e-06
3.8623396e-06
2.6255828e-06
1.7664166e-06
1.1751136e-06
7.7174041e-07
4.9887071e-07
3.1579378e-07
1.94013e-07
1.1384202e-07
6.1862786e-08
2.9171699e-08
9.9484608e-09
1.1664287e-09
0.009463684
0.0088477137
0.0082418097
0.0076454249
0.0070615382
0.0064924698
0.0059408412
0.0054091268
0.0048995588
0.0044141398
0.0039546224
0.0035224641
0.0031187875
0.0027443559
0.0023995611
0.0020844203
0.0017985847
0.0015413584
0.0013117285
0.0011084036
0.00092986005
0.00077439243
0.00064016639
0.00052527129
0.00042777043
0.00034574661
0.0002773419
0.00022079032
0.00017444318
0.00013678689
0.00010645389
8.2227096e-05
6.3039032e-05
4.7966534e-05
3.622201e-05
2.7142388e-05
2.0176511e-05
1.4871932e-05
1.0861613e-05
7.8512001e-06
5.6072023e-06
3.946322e-06
2.7261045e-06
1.8369125e-06
1.1952251e-06
7.3817477e-07
4.1916775e-07
2.0480081e-07
7.1954696e-08
8.2668733e-09
0.010141298
0.0095580766
0.0089797098
0.0084060138
0.0078394779
0.0072822342
0.0067366998
0.0062052386
0.0056900849
0.0051933472
0.0047169855
0.0042627689
0.0038322332
0.0034266489
0.0030469962
0.0026939459
0.0023678488
0.002068733
0.001796312
0.0015500001
0.001328938
0.0011320243
0.00095795308
0.00080525609
0.00067234593
0.00055755989
0.00045920203
0.00037558175
0.00030504811
0.00024601854
0.0001970019
0.00015661547
0.00012359622
9.6806842e-05
7.5236959e-05
5.8000594e-05
4.4330418e-05
3.356973e-05
2.5162863e-05
1.8644768e-05
1.3630302e-05
9.8037606e-06
6.9089477e-06
4.7401178e-06
3.1338794e-06
1.9623225e-06
1.1271519e-06
5.5570378e-07
1.9665712e-07
2.2506317e-08
0.010736918
0.010185951
0.0096358012
0.0090866122
0.0085403764
0.0079989998
0.0074646451
0.0069394855
0.0064256453
0.0059251995
0.0054401531
0.004972404
0.0045237047
0.0040956288
0.0036895411
0.0033065709
0.0029475902
0.0026131976
0.0023037092
0.0020191575
0.0017592975
0.001523621
0.0013113769
0.0011215987
0.00095313621
0.00080469057
0.00067485166
0.00056213537
0.00046501989
0.00038197944
0.00031151461
0.00025217823
0.00020259667
0.00016148605
0.00012766371
0.00010005504
7.7696302e-05
5.9733833e-05
4.5420487e-05
3.4109835e-05
2.5248836e-05
1.8369554e-05
1.3080476e-05
9.057808e-06
6.0372778e-06
3.8066355e-06
2.1991036e-06
1.0890544e-06
3.8677534e-07
4.4183898e-08
0.011251231
0.010730655
0.010207813
0.009683158
0.0091582103
0.008634646
0.0081143652
0.007599319
0.0070914653
0.0065927658
0.006105169
0.0056305802
0.0051708288
0.004727638
0.0043025944
0.0038971205
0.0035124462
0.0031495871
0.0028093239
0.0024921904
0.0021984648
0.0019281694
0.0016810756
0.0014567169
0.0012544062
0.0010732602
0.00091222661
0.00077011535
0.00064563118
0.00053740681
0.00044403537
0.0003641008
0.00029620553
0.00023899445
0.00019117509
0.00015153327
0.00011894476
9.2382713e-05
7.0921501e-05
5.3737271e-05
4.0105826e-05
2.9398426e-05
2.1076e-05
1.4682521e-05
9.837804e-06
6.2307565e-06
3.6128142e-06
1.7943036e-06
6.3868516e-07
7.2878997e-08
0.011685222
0.011192106
0.010694404
0.010192874
0.0096886038
0.0091830591
0.0086778945
0.0081748406
0.007675671
0.0071821986
0.0066962612
0.0062197001
0.0057543319
0.0053019244
0.0048641677
0.0044426485
0.0040388211
0.0036539824
0.0032892472
0.0029455278
0.002623517
0.0023236765
0.0020462304
0.0017911646
0.0015582323
0.0013469654
0.0011566911
0.00098655389
0.00083554062
0.00070250932
0.00058621926
0.00048536163
0.00039858987
0.00032454815
0.00026189765
0.00020933943
0.00016563395
0.00012961646
0.00010020863
7.6426297e-05
5.738372e-05
4.2294773e-05
3.0471578e-05
2.1321103e-05
1.4340545e-05
9.1120933e-06
5.2976746e-06
2.6365487e-06
9.4001441e-07
1.0717346e-07
0.012039704
0.011570254
0.0110945
0.010613511
0.01012799
0.0096392223
0.0091486507
0.0086578074
0.0081682907
0.0076817601
0.007199925
0.0067245291
0.0062573284
0.0058000717
0.0053544751
0.0049221999
0.0045048243
0.0041038193
0.0037205217
0.0033561109
0.0030115861
0.0026877485
0.0023851853
0.0021042604
0.0018451089
0.0016076377
0.0013915319
0.0011962666
0.0010211236
0.00086521337
0.00072749973
0.00060682815
0.00050195518
0.00041157852
0.00033436661
0.00026898642
0.00021412901
0.00016853179
0.00013099729
0.00010040796
7.5737143e-05
5.6056241e-05
4.0538508e-05
2.8459945e-05
1.9197954e-05
1.2228809e-05
7.1242271e-06
3.5512295e-06
1.2677047e-06
1.4445445e-07
0.012313648
0.011863298
0.011405406
0.010941361
0.010471531
0.0099970606
0.0095192208
0.0090393815
0.0085589919
0.0080795753
0.0076027202
0.007130069
0.0066633009
0.0062041165
0.0057542159
0.0053152796
0.0048889428
0.0044767726
0.0040802413
0.0037007025
0.0033393653
0.0029972733
0.0026752826
0.0023740467
0.0020940025
0.0018353637
0.0015981175
0.0013820281