/*--------------------------------*- C++ -*----------------------------------*\
  =========                 |
  \\      /  F ield         | OpenFOAM: The Open Source CFD Toolbox
   \\    /   O peration     | Website:  https://openfoam.org
    \\  /    A nd           | Version:  6
     \\/     M anipulation  |
\*---------------------------------------------------------------------------*/
FoamFile
{
    version     2.0;
    format      ascii;
    class       volVectorField;
    location    "13";
    object      U;
}
// * * * * * * * * * * * * * * * * * * * * * * * * * * * * * * * * * * * * * //

dimensions      [0 1 -1 0 0 0 0];

internalField   nonuniform List<vector> 
9200
(
(0.0015616214 0.0011822818 -6.3738555e-20)
(0.016049788 -0.0031958362 5.0263891e-20)
(0.043596924 -0.0078870814 -4.1842369e-20)
(0.081322385 -0.012706718 -6.5077508e-20)
(0.1272857 -0.01742141 2.0693456e-20)
(0.18017562 -0.021583806 3.5602514e-20)
(0.23882648 -0.024898931 -1.3610685e-20)
(0.30213944 -0.027221599 1.0328589e-20)
(0.36906229 -0.028497579 1.7831115e-20)
(0.43855634 -0.02873969 1.5986955e-21)
(0.50957381 -0.028015768 -2.3282022e-20)
(0.58105277 -0.02643664 2.2654181e-20)
(0.65192667 -0.02414393 -4.4250021e-20)
(0.721146 -0.02129764 -2.3445476e-20)
(0.78770973 -0.01806296 6.5282166e-21)
(0.85070266 -0.014598896 -2.8415542e-20)
(0.90934808 -0.011036018 2.9039607e-20)
(0.96313105 -0.0073400439 2.7528608e-20)
(1.0116571 -0.0033614406 7.2491095e-22)
(1.0524466 -0.0021288228 -3.2195328e-22)
(0.0061901443 -0.0018313994 -1.8356543e-20)
(0.030567875 -0.01074294 4.3068717e-20)
(0.0690008 -0.017669112 2.5618577e-20)
(0.11818464 -0.023074124 -1.2413567e-19)
(0.17584413 -0.027150458 -1.3875731e-20)
(0.24037451 -0.029695523 7.8268069e-20)
(0.31030048 -0.030626567 -3.8219168e-20)
(0.3841953 -0.029996431 -8.9801308e-21)
(0.4606707 -0.02793227 3.6980656e-20)
(0.53835689 -0.024615545 -4.6954792e-20)
(0.61589805 -0.02027302 -3.3231354e-20)
(0.69196925 -0.015164567 7.971519e-20)
(0.76530869 -0.0095692293 4.2522368e-20)
(0.83475949 -0.0037713205 -7.6661577e-20)
(0.89931507 0.0019517606 1.6839533e-20)
(0.95816104 0.0073363692 -4.2367457e-20)
(1.0107188 0.012146007 -1.5543638e-20)
(1.0567362 0.01623898 8.490293e-20)
(1.0961755 0.019275329 3.8348078e-20)
(1.1275399 0.01846738 -9.2009414e-20)
(0.012289467 -0.0047358049 3.9274369e-20)
(0.048976788 -0.017675285 2.6903934e-21)
(0.10013238 -0.026036639 2.435144e-20)
(0.1620783 -0.031058791 1.0466313e-21)
(0.23220802 -0.033448983 -4.4508818e-20)
(0.30859029 -0.033317263 1.9547684e-20)
(0.38939956 -0.030857625 1.4672872e-20)
(0.47284765 -0.026382881 -5.4238683e-20)
(0.55719635 -0.02025808 6.2020472e-20)
(0.64076345 -0.01288123 1.5742903e-20)
(0.72194636 -0.0046734282 -6.009783e-20)
(0.79926563 0.0039376536 -2.0711011e-20)
(0.87141777 0.012537278 8.7842913e-21)
(0.93732729 0.020742449 2.6829228e-20)
(0.99618953 0.028217641 -1.3406342e-20)
(1.0474959 0.034684596 3.225256e-20)
(1.0910421 0.039934615 -2.3221544e-20)
(1.126944 0.04387106 -8.2871502e-20)
(1.155514 0.046304197 -2.8347407e-20)
(1.1761936 0.045603607 5.5062729e-20)
(0.01995192 -0.0072699938 2.6033414e-20)
(0.071371209 -0.023263509 5.4463266e-20)
(0.13692539 -0.031901575 2.1134274e-20)
(0.2126361 -0.035326262 1.3424919e-20)
(0.29557934 -0.034850882 1.8140524e-20)
(0.38347668 -0.030971839 -5.0884328e-20)
(0.47413685 -0.024228043 -2.7503409e-20)
(0.56541899 -0.015252271 0)
(0.65528182 -0.0046941874 1.5799988e-20)
(0.74182563 0.006803001 -7.1510685e-21)
(0.82334699 0.018617417 -1.084737e-19)
(0.89840328 0.030171823 -1.699318e-20)
(0.96587198 0.040958566 7.440255e-20)
(1.0249928 0.050560408 -5.1741345e-22)
(1.0753849 0.058664384 -1.8127623e-21)
(1.117035 0.065066628 2.5437427e-20)
(1.1502593 0.06967468 -6.2888522e-21)
(1.1756592 0.072529934 -7.1196957e-20)
(1.1939913 0.07367989 -5.4310099e-20)
(1.2054752 0.072319178 7.8368239e-20)
(0.029194522 -0.0091394643 -4.0773688e-21)
(0.0976102 -0.02672638 -5.479571e-21)
(0.17891017 -0.034151673 5.9953285e-20)
(0.26892443 -0.034576343 1.9453141e-20)
(0.3644511 -0.030006073 -3.3803729e-20)
(0.46287672 -0.021397109 1.3008461e-20)
(0.56167808 -0.0096955041 2.8453953e-21)
(0.6584371 0.0041015647 3.6763175e-20)
(0.75093549 0.01903941 6.2243534e-21)
(0.83723361 0.034237448 -1.514924e-20)
(0.91574691 0.048910426 6.860106e-20)
(0.98531218 0.062396071 -6.4514752e-20)
(1.0452278 0.074179078 -1.4988837e-19)
(1.0952588 0.083904474 -6.3708752e-21)
(1.135605 0.091378326 9.5683912e-20)
(1.166836 0.096555755 0)
(1.1898035 0.099523156 1.1628373e-20)
(1.2055506 0.10049457 -1.782808e-20)
(1.215183 0.099711595 -1.0186025e-20)
(1.2194311 0.096852731 2.376542e-20)
(0.039938253 -0.010027556 -5.4776431e-21)
(0.12728781 -0.027276182 4.5927047e-21)
(0.2252111 -0.031738825 -9.2301297e-21)
(0.32949785 -0.02767925 3.0119954e-20)
(0.43674945 -0.017863154 -3.1295259e-20)
(0.5440829 -0.0037663352 -1.8158573e-20)
(0.6487455 0.013218581 3.96578e-20)
(0.74819577 0.031720321 4.9107293e-21)
(0.84024215 0.050503717 -2.7879991e-20)
(0.92314611 0.068509676 7.7592423e-20)
(0.99569717 0.0848779 -3.4931851e-22)
(1.0572516 0.098969167 -9.1474067e-20)
(1.1077242 0.11037537 0)
(1.1475326 0.11891149 4.5404001e-20)
(1.177504 0.12459073 6.3611809e-21)
(1.198756 0.12758657 -8.848325e-20)
(1.2125712 0.12819093 -2.238269e-20)
(1.2202849 0.12678662 -1.4181022e-20)
(1.2231695 0.12375639 -1.689536e-20)
(1.2221687 0.11905942 4.61229e-20)
(0.051995742 -0.0096181651 -1.7921391e-20)
(0.15972071 -0.024181407 -2.7583127e-21)
(0.27456441 -0.023772713 3.1775698e-20)
(0.39247303 -0.013788964 3.9219967e-20)
(0.50998508 0.0022139909 -2.1155635e-20)
(0.62407958 0.022214079 -7.4505171e-20)
(0.73195142 0.044375774 -3.0802971e-20)
(0.83116114 0.0669971 8.6381837e-20)
(0.91980179 0.088644365 1.013836e-20)
(0.99660032 0.10819307 -2.7217013e-20)
(1.0609591 0.12483931 1.4497511e-20)
(1.1129365 0.13810036 -5.1326432e-21)
(1.1531672 0.14779424 0)
(1.1827371 0.15399695 3.0693145e-20)
(1.2030326 0.15698399 -8.9605198e-20)
(1.2155855 0.15716474 -3.5618204e-20)
(1.2219353 0.1550211 9.1613926e-20)
(1.2235237 0.15106558 -5.3756224e-21)
(1.2216136 0.14576065 3.8707796e-21)
(1.2171458 0.13921962 3.125235e-20)
(0.065066723 -0.0076253799 -3.3525995e-20)
(0.19395903 -0.016841973 -8.5609578e-20)
(0.3253721 -0.0096210471 2.0433304e-21)
(0.45564475 0.0075534728 7.4387649e-20)
(0.58144128 0.030363565 6.6582235e-20)
(0.69980144 0.056266828 -7.6163569e-20)
(0.80810937 0.083048387 4.7834029e-22)
(0.9042993 0.10878188 9.4542976e-20)
(0.98702122 0.13197412 5.3809483e-20)
(1.0557063 0.15159091 -6.0513729e-20)
(1.1105436 0.16703782 -1.0300796e-19)
(1.1523799 0.17812008 -3.5306336e-21)
(1.1825634 0.18497718 4.7140647e-20)
(1.2027578 0.18799809 -7.342009e-21)
(1.2147565 0.18772988 -1.4188462e-20)
(1.2203215 0.18479176 2.1579492e-20)
(1.2210625 0.17980589 4.9154717e-20)
(1.2183642 0.17335462 -4.8786087e-20)
(1.2133524 0.1659193 -1.150196e-19)
(1.2068425 0.1576893 2.8368129e-20)
(0.078708977 -0.003825436 -3.6795016e-20)
(0.22875048 -0.0048669577 -1.7986959e-19)
(0.37568213 0.011008252 8.7373964e-20)
(0.51649537 0.036363362 9.8564546e-20)
(0.64821969 0.06621647 6.1694155e-20)
(0.76821126 0.097596368 9.3400125e-21)
(0.874324 0.12803981 -1.1517294e-19)
(0.96514315 0.15556318 0)
(1.0401136 0.17879686 -7.6578473e-20)
(1.0995372 0.19697312 -1.7059847e-20)
(1.1444631 0.20985479 6.0717371e-20)
(1.1765042 0.21763853 1.2158048e-20)
(1.1976159 0.22083759 -5.0583584e-20)
(1.2098758 0.22015772 -5.424042e-20)
(1.2152953 0.21638311 2.7288777e-20)
(1.2156826 0.21028461 5.0292255e-20)
(1.2125634 0.20255762 -6.2162795e-20)
(1.2071548 0.19379118 -1.1963059e-19)
(1.2003811 0.18443604 -2.9468556e-21)
(1.1928832 0.17471385 2.9991176e-20)
(0.092323793 0.001928353 -4.2036634e-21)
(0.26255143 0.011914245 9.2083434e-20)
(0.42323576 0.038077084 -1.4389521e-20)
(0.57229256 0.072244769 -9.0846209e-20)
(0.70738675 0.10895096 4.8561416e-20)
(0.82647173 0.14496535 5.2101454e-20)
(0.92814729 0.17777878 6.0542934e-21)
(1.0118847 0.20557002 -1.0884036e-19)
(1.0780839 0.22730074 -2.7592799e-21)
(1.1279814 0.24264054 5.5788453e-20)
(1.1634524 0.25182622 6.5853595e-21)
(1.1867577 0.25550198 -2.2066255e-20)
(1.2002874 0.25455511 -8.3646936e-20)
(1.2063397 0.24996604 -6.647157e-21)
(1.2069627 0.2426894 4.789834e-20)
(1.203864 0.23357382 4.0674416e-20)
(1.198385 0.22332034 2.1340314e-20)
(1.1915236 0.21247188 -5.9796383e-20)
(1.1839896 0.20141633 1.2730765e-20)
(1.1762482 0.19038719 9.0537179e-20)
(-0.0014587357 0.0016195272 -1.2058332e-21)
(-0.0053447005 0.0035864411 2.3035835e-21)
(-0.012108815 0.0046478779 1.0879031e-21)
(-0.019941847 0.0051013405 -2.6459669e-21)
(-0.027780299 0.0051357372 -1.6479858e-21)
(-0.035148809 0.0048768526 1.767537e-21)
(-0.041748125 0.0044155472 -7.8492383e-21)
(-0.047380156 0.0038171557 -6.7544092e-21)
(-0.051931276 0.0031276907 1.2810023e-20)
(-0.055345545 0.0023790481 -1.1226196e-20)
(-0.05760247 0.0015928433 -1.7872536e-22)
(-0.058702707 0.00078316832 4.3519859e-21)
(-0.058658622 -4.1345169e-05 -7.0387232e-22)
(-0.057487741 -0.00087589997 2.7073106e-20)
(-0.055208465 -0.0017180317 2.707361e-22)
(-0.051839386 -0.0025659103 -4.9553887e-20)
(-0.047402268 -0.0034177234 9.4198984e-21)
(-0.041911595 -0.0042748892 2.9483048e-20)
(-0.035339338 -0.0051397414 -5.4981113e-20)
(-0.027714896 -0.0059572473 -3.518153e-20)
(-0.001854419 0.0047102058 -6.1367339e-21)
(-0.0060439237 0.010409111 1.2048272e-20)
(-0.012536599 0.013469869 -1.1499401e-20)
(-0.019709049 0.014755076 4.5554587e-21)
(-0.026606289 0.014815077 5.5192386e-21)
(-0.032806671 0.014018363 8.1055804e-22)
(-0.038046674 0.012631331 -2.550247e-20)
(-0.042152803 0.010845459 -2.3477729e-21)
(-0.045026557 0.0087955609 2.3078073e-20)
(-0.046620101 0.0065750461 -5.7870015e-21)
(-0.046916103 0.0042471571 -2.5195814e-20)
(-0.045914833 0.0018530463 5.6872279e-21)
(-0.04362573 -0.00058217798 2.6155755e-20)
(-0.040061394 -0.0030446653 1.216423e-20)
(-0.035233085 -0.0055274352 2.6288258e-20)
(-0.029151567 -0.0080257813 -2.3773279e-20)
(-0.021838636 -0.010534958 -2.6191766e-20)
(-0.013317751 -0.013057851 2.6492574e-20)
(-0.0034699692 -0.015587943 3.3223623e-20)
(0.0079951399 -0.01793608 1.9312894e-20)
(-0.0025674771 0.0073618772 -4.954763e-21)
(-0.0072582639 0.01620307 -6.1582421e-21)
(-0.013149576 0.020914554 3.1440415e-22)
(-0.018975097 0.022831189 1.1463142e-21)
(-0.023987562 0.022812618 7.5679349e-21)
(-0.027868653 0.021441525 1.2091544e-20)
(-0.030424611 0.019140277 -4.1863539e-21)
(-0.031530525 0.016212643 -2.1567395e-20)
(-0.03111851 0.012872795 7.4590873e-21)
(-0.029158306 0.0092693225 1.4622294e-20)
(-0.025641235 0.0055029198 7.0255609e-21)
(-0.020570081 0.0016391056 2.0595647e-20)
(-0.013952641 -0.0022822479 2.0054361e-21)
(-0.0057971764 -0.0062395561 -3.9212082e-20)
(0.0038919456 -0.010222268 1.7961734e-21)
(0.015111816 -0.014223762 -2.5464207e-20)
(0.027835496 -0.018239858 -2.9927636e-20)
(0.042013205 -0.022275973 5.6245508e-20)
(0.057903153 -0.026284263 3.1893236e-20)
(0.076392956 -0.029852825 9.1976321e-22)
(-0.0034606398 0.0093377443 -6.0153793e-21)
(-0.0086764147 0.02040548 -1.0063975e-20)
(-0.013563218 0.02622291 4.8642846e-21)
(-0.017339045 0.028458676 4.6659134e-21)
(-0.019541864 0.028202445 2.2588611e-21)
(-0.019998047 0.026207048 8.1659368e-21)
(-0.018613818 0.023020296 1.0379056e-20)
(-0.015335839 0.01903655 -1.4391653e-21)
(-0.0101437 0.014534548 -1.2793027e-20)
(-0.0030374166 0.0097081674 -3.2867271e-20)
(0.0059725466 0.0046891796 2.415896e-22)
(0.016871479 -0.00043658919 4.6230935e-20)
(0.02964376 -0.00561699 -2.0607491e-20)
(0.044274633 -0.010823599 -1.4137763e-20)
(0.060754225 -0.016043327 1.7310858e-22)
(0.079075476 -0.021270377 3.7926964e-20)
(0.099192939 -0.026507271 -1.8371271e-20)
(0.12100295 -0.031771397 -6.3158313e-20)
(0.14488407 -0.036947511 5.4593303e-20)
(0.17252914 -0.041273315 3.9561752e-20)
(-0.0043526077 0.010482762 -6.63622e-22)
(-0.0098763173 0.022631119 -1.3995893e-20)
(-0.013242227 0.028862061 -3.8439479e-20)
(-0.014227104 0.031018018 -6.4630327e-21)
(-0.012704915 0.030324311 -4.0502332e-21)
(-0.0086774725 0.027650057 6.9849583e-21)
(-0.0021760482 0.023630798 -5.0293131e-21)
(0.0067597742 0.018724057 -9.4981823e-21)
(0.018084597 0.013254124 2.417603e-20)
(0.031751327 0.0074471572 5.3504006e-21)
(0.047714799 0.0014575368 -2.8872599e-20)
(0.065931131 -0.0046132909 1.2201168e-20)
(0.086357507 -0.010703024 0)
(0.10895148 -0.016777953 1.3680993e-20)
(0.13367306 -0.022823702 -1.1044013e-20)
(0.16048338 -0.028837497 -1.6684277e-20)
(0.18929357 -0.034835867 -6.1370599e-22)
(0.21991143 -0.040868518 -3.0555726e-21)
(0.25275908 -0.046758938 5.2814435e-20)
(0.29042919 -0.051261379 -1.3875455e-20)
(-0.0050396752 0.010732699 -8.3038272e-21)
(-0.010365245 0.022699103 2.7460258e-20)
(-0.011537128 0.028568688 -1.1818917e-20)
(-0.0089158165 0.0301995 -3.0525213e-20)
(-0.0027358313 0.02885505 -3.0533839e-20)
(0.0068055586 0.025463555 -1.6493106e-20)
(0.019532748 0.020706052 -6.4267435e-22)
(0.035293456 0.015072045 5.9161306e-21)
(0.05395798 0.0089096481 2.1240026e-20)
(0.075411959 0.0024628719 8.0797452e-21)
(0.099550873 -0.0041010817 -7.8123365e-21)
(0.12627583 -0.01067158 -1.8886381e-21)
(0.15548805 -0.01718009 -4.2499363e-20)
(0.18708416 -0.023589511 -1.4158571e-20)
(0.22095583 -0.029885315 2.167743e-20)
(0.25698988 -0.036069423 -2.4190797e-20)
(0.29501568 -0.042177867 -1.0215538e-20)
(0.33471556 -0.048317032 3.3872624e-20)
(0.37645122 -0.054295019 5.7362373e-20)
(0.4236796 -0.058301865 3.9371993e-21)
(-0.0053140224 0.010107012 1.8307799e-20)
(-0.0096171437 0.020629692 1.5801392e-20)
(-0.0077234108 0.025359642 5.6491695e-20)
(-0.00056507282 0.026030252 2.5904857e-20)
(0.011259455 0.023851206 2.0125946e-22)
(0.027346623 0.019753089 -4.3169503e-20)
(0.047361978 0.014420103 -2.6819617e-20)
(0.071024372 0.0083426402 1.1288036e-20)
(0.098094722 0.0018688049 1.5672215e-20)
(0.12836349 -0.0047568346 -1.3932662e-20)
(0.16163668 -0.011366625 -4.8353582e-20)
(0.19772444 -0.017850048 3.2615839e-20)
(0.23643101 -0.024139302 2.1658721e-20)
(0.27754637 -0.030199229 -3.0397651e-20)
(0.32084325 -0.036019704 1.3124088e-20)
(0.36607957 -0.041611696 2.6895434e-20)
(0.41295339 -0.047035938 9.2515803e-21)
(0.46098735 -0.052478026 -1.3893678e-20)
(0.51038403 -0.057810782 -1.5339796e-20)
(0.56530403 -0.060686453 8.7752025e-21)
(-0.004975181 0.0086916278 1.2185192e-20)
(-0.0071016048 0.01661714 -2.6114932e-20)
(-0.0010400487 0.019510676 9.1811258e-21)
(0.011738386 0.018863733 3.7023196e-20)
(0.030281223 0.015749145 5.7308931e-20)
(0.053974826 0.011048141 2.2191582e-20)
(0.082312504 0.0054080509 -6.5467929e-21)
(0.11485966 -0.000713333 -1.315085e-20)
(0.15124089 -0.0069924153 -6.9790265e-21)
(0.19111642 -0.013203784 3.7244394e-20)
(0.23416022 -0.019195609 -5.3871217e-21)
(0.28004275 -0.024871278 -1.84167e-20)
(0.32841726 -0.030176114 -2.1186115e-20)
(0.3789095 -0.035088624 -5.2075897e-20)
(0.43111448 -0.039614667 2.5453766e-20)
(0.48460376 -0.043785908 -1.5645273e-20)
(0.53889814 -0.047699494 2.9405988e-20)
(0.59334853 -0.051646343 2.3830982e-20)
(0.64794936 -0.055673941 -9.405425e-20)
(0.70731861 -0.057095745 5.7657212e-22)
(-0.0038361421 0.0066197968 2.3807301e-20)
(-0.0023100167 0.010997192 -2.8934214e-20)
(0.0092607762 0.011526942 -4.9247631e-20)
(0.0289048 0.0093599197 -2.9863374e-20)
(0.055332211 0.0053598402 -2.2265744e-21)
(0.087710982 0.00030942181 1.3868115e-20)
(0.12534417 -0.0052201119 -2.813499e-21)
(0.16761775 -0.010835885 1.9484217e-20)
(0.21398226 -0.016266879 9.3497634e-21)
(0.26392132 -0.021331008 -1.2227353e-20)
(0.31692325 -0.025914134 1.016031e-20)
(0.37246042 -0.029954065 -2.5873642e-20)
(0.42997471 -0.033428728 9.3782851e-21)
(0.48886863 -0.036348301 1.841923e-20)
(0.54850494 -0.038749954 -3.0326231e-21)
(0.60821896 -0.040697545 1.8540206e-21)
(0.66731114 -0.042329499 -2.407561e-22)
(0.72495833 -0.044024855 2.2100077e-20)
(0.78095711 -0.046005922 4.5144289e-21)
(0.84014142 -0.045722112 -3.9498474e-21)
(-0.0017225526 0.0040577344 2.5922479e-20)
(0.0052249543 0.0042257404 6.2869173e-20)
(0.023855546 0.0021323453 -5.369524e-20)
(0.051734005 -0.0015042015 -1.0824636e-20)
(0.087244853 -0.0061022231 2.178609e-20)
(0.12932949 -0.011024382 2.3096135e-21)
(0.17707763 -0.01581658 -3.2023134e-20)
(0.22965976 -0.020188769 7.2808374e-21)
(0.28630553 -0.023957415 7.983069e-21)
(0.3462679 -0.027016901 -2.8482263e-20)
(0.40879325 -0.02932306 1.509383e-21)
(0.47310338 -0.030879528 -4.0392777e-20)
(0.53838741 -0.031726332 -3.9929076e-20)
(0.6038022 -0.031930446 7.2704538e-20)
(0.6684809 -0.031577245 6.230007e-21)
(0.73154771 -0.030767248 -1.7492727e-20)
(0.79211486 -0.029650934 2.1709512e-20)
(0.84922237 -0.02851237 -1.0358311e-21)
(0.90226925 -0.027383229 2.1480168e-20)
(0.95469912 -0.024770911 -2.4365362e-20)
(-0.018483217 -0.0064570805 7.5544922e-20)
(-0.0073369447 -0.0073365618 2.0129854e-20)
(0.0059502104 -0.0081379459 -4.6338958e-20)
(0.021058387 -0.0087726558 2.359638e-20)
(0.037775121 -0.0093402555 0)
(0.056146524 -0.0098723937 0)
(0.076226568 -0.010366079 -3.3750999e-20)
(0.098040783 -0.010823244 -2.4499225e-20)
(0.12161863 -0.011247366 3.0430063e-20)
(0.14699373 -0.011637549 2.9142479e-20)
(0.17419071 -0.011989597 1.4114107e-21)
(0.20321728 -0.012297643 -1.6319845e-20)
(0.23405911 -0.012554567 1.5320763e-20)
(0.26667411 -0.01275237 2.9164192e-20)
(0.30098692 -0.012882836 -1.0598494e-20)
(0.33688483 -0.012938235 -1.5620811e-20)
(0.37421532 -0.012911957 -6.3525937e-21)
(0.41278542 -0.012799049 -5.2285173e-21)
(0.45236294 -0.0125966 6.0809439e-22)
(0.49267933 -0.012303918 1.7180973e-21)
(0.53343376 -0.01192243 4.1566947e-21)
(0.57429761 -0.011455324 6.9444881e-21)
(0.61491824 -0.010906979 -1.3752983e-21)
(0.65492144 -0.010282365 -2.5076047e-21)
(0.69391219 -0.0095866846 -2.5008547e-22)
(0.73147503 -0.00882563 -1.6534647e-22)
(0.76717733 -0.0080065267 7.3424486e-23)
(0.80058038 -0.0071403349 -6.1067725e-22)
(0.83126355 -0.0062439193 -2.4028299e-22)
(0.85886364 -0.00534142 2.3284987e-22)
(0.88312474 -0.0044633793 -7.6167433e-22)
(0.90394552 -0.0036429141 2.8116119e-22)
(0.92140602 -0.0029096336 1.1374427e-22)
(0.93575934 -0.0022834995 1.9880461e-22)
(0.94738684 -0.0017712774 1.2616295e-22)
(0.95673135 -0.0013670739 2.4015483e-22)
(0.9642316 -0.0010563126 -2.6637195e-22)
(0.97027679 -0.00082090858 -3.0939805e-22)
(0.97518696 -0.00064340431 -7.7798873e-23)
(0.97921301 -0.00050910715 5.7144599e-23)
(0.98254617 -0.00040658171 -5.6879111e-23)
(0.98533017 -0.00032732107 6.1543655e-23)
(0.98767213 -0.00026519552 -8.2141058e-23)
(0.98965399 -0.00021587715 -1.0197337e-22)
(0.99133519 -0.00017636129 2.8769313e-23)
(0.99277443 -0.00014444382 3.7827671e-23)
(0.9939834 -0.0001187252 8.5892216e-24)
(0.99508137 -9.7513381e-05 4.0339461e-24)
(0.99583979 -8.1764004e-05 -5.944181e-25)
(0.99700089 -6.1719593e-05 1.2448091e-23)
(0.019170674 -0.019281718 -1.7371012e-20)
(0.029666167 -0.021895289 -8.1765436e-20)
(0.042832592 -0.02423118 -4.1860019e-20)
(0.057754202 -0.026053208 5.291846e-20)
(0.074061687 -0.027688925 2.0684702e-20)
(0.091885701 -0.029232688 -2.7534626e-20)
(0.11130951 -0.030667009 8.7749748e-21)
(0.13235191 -0.031995678 3.7789481e-20)
(0.15504139 -0.033229806 -1.8083264e-21)
(0.17941494 -0.034366704 -1.3003235e-20)
(0.20549923 -0.035393577 -1.7627772e-20)
(0.23330369 -0.036292965 -1.5864075e-20)
(0.26281696 -0.037043849 2.8738099e-20)
(0.29400159 -0.037622593 2.1342815e-20)
(0.32678875 -0.038004882 -2.3108938e-20)
(0.3610744 -0.038167818 -9.5250105e-21)
(0.39671705 -0.038091783 3.8901658e-21)
(0.43353716 -0.037762019 1.0512629e-20)
(0.47131832 -0.037169792 1.06925e-20)
(0.50980992 -0.036312908 -1.2612372e-20)
(0.5487311 -0.035195455 -8.0659924e-21)
(0.58777496 -0.033826733 5.2060188e-21)
(0.62661224 -0.032219559 4.817632e-21)
(0.66489348 -0.030388434 1.9739022e-21)
(0.70224934 -0.028348401 1.0243691e-21)
(0.73829025 -0.026115698 -9.6950489e-22)
(0.7726083 -0.02371107 -8.2212095e-22)
(0.8047863 -0.021165713 1.7332198e-21)
(0.83441945 -0.01852814 7.5303447e-22)
(0.86115215 -0.015868524 -1.295651e-21)
(0.88472599 -0.013276442 3.4873043e-22)
(0.90502669 -0.010849792 1.8649459e-22)
(0.92211243 -0.008676842 -1.6968938e-22)
(0.93620888 -0.0068178605 1.8858628e-22)
(0.94766857 -0.0052942656 -3.9881818e-22)
(0.9569079 -0.0040898703 -4.4842091e-22)
(0.96434415 -0.0031624374 1.6666612e-22)
(0.97035087 -0.0024589498 1.3966523e-22)
(0.97523774 -0.0019279223 5.8704211e-23)
(0.97924925 -0.0015258417 -5.6062381e-23)
(0.98257298 -0.0012187254 1.7905317e-22)
(0.98535059 -0.00098122411 3.9411146e-24)
(0.98768807 -0.00079503294 1.7918336e-24)
(0.98966669 -0.0006472078 1.3240022e-23)
(0.99134548 -0.00052875509 3.5096371e-23)
(0.99278289 -0.00043307159 4.3134632e-23)
(0.99399043 -0.0003559727 -1.5473293e-23)
(0.99508721 -0.00029236916 -2.2568036e-23)
(0.99584484 -0.00024518314 2.6350866e-23)
(0.99700486 -0.00018505511 5.2123913e-23)
(0.091004871 -0.03166487 1.2461371e-20)
(0.10014777 -0.035888411 5.3710739e-21)
(0.11284091 -0.039582233 -1.9296903e-20)
(0.12724763 -0.04239064 -3.0552048e-21)
(0.14263098 -0.044928103 2.2380572e-20)
(0.15927895 -0.047351185 -2.1316165e-20)
(0.17734423 -0.049609716 -4.5671292e-20)
(0.19683011 -0.051703797 2.3827898e-20)
(0.21775992 -0.053653497 3.0185919e-20)
(0.24017684 -0.055454819 -1.9687105e-20)
(0.26411125 -0.0570862 1.6535364e-21)
(0.28957508 -0.058519049 1.0183369e-20)
(0.31656177 -0.059719405 -2.812614e-20)
(0.34504182 -0.060649001 1.4046769e-20)
(0.37495779 -0.061268305 1.5296209e-20)
(0.40622091 -0.061539936 -6.8467365e-21)
(0.43870919 -0.061431685 -4.0674086e-21)
(0.47226691 -0.060919106 -1.5302622e-20)
(0.50670559 -0.05998744 1.4575128e-20)
(0.54180642 -0.058632537 1.6344629e-20)
(0.57732384 -0.056860512 -6.8460998e-21)
(0.61298948 -0.054686048 -2.5649489e-21)
(0.64851557 -0.052129607 -6.745022e-22)
(0.68359683 -0.049214269 -3.0445473e-21)
(0.71791023 -0.045963576 7.7304474e-22)
(0.75111346 -0.042402199 2.6233408e-22)
(0.7828444 -0.038561021 5.0175314e-21)
(0.81272666 -0.034486788 -3.957873e-21)
(0.8403864 -0.030253744 3.6625373e-21)
(0.86548412 -0.025971616 4.9784803e-22)
(0.88775884 -0.021783109 2.0644697e-21)
(0.90707395 -0.017846794 -2.4027796e-22)
(0.92344808 -0.014308131 8.1283279e-22)
(0.93705619 -0.011268998 -6.93015e-22)
(0.94819683 -0.0087688748 1.9514814e-22)
(0.95723655 -0.0067856808 5.0380894e-22)
(0.96455187 -0.0052538182 -1.2830249e-22)
(0.97048646 -0.0040888323 -3.2285094e-22)
(0.97533004 -0.0032076689 8.605867e-23)
(0.9793149 -0.0025395267 3.5522665e-23)
(0.98262155 -0.0020287312 3.3192627e-23)
(0.98538773 -0.0016335227 2.0596713e-22)
(0.98771725 -0.0013236171 -6.5588281e-23)
(0.98969014 -0.0010775371 -5.0944211e-23)
(0.99136469 -0.00088033864 4.2311674e-23)
(0.99279886 -0.0007210324 8.5287153e-24)
(0.99400387 -0.00059268038 3.7788105e-23)
(0.99509854 -0.00048675384 1.2125677e-23)
(0.99585472 -0.00040829416 -2.3750678e-23)
(0.99701279 -0.00030809288 -2.0187369e-23)
(0.19130574 -0.043042718 2.6584256e-21)
(0.19830263 -0.048668821 -1.3334386e-20)
(0.20984865 -0.053457508 7.1363661e-21)
(0.22318915 -0.056993466 -1.7840863e-20)
(0.23699406 -0.0602254 -2.7178245e-21)
(0.25173848 -0.063360419 1.4758504e-20)
(0.26769632 -0.066297851 -1.8102866e-20)
(0.2848494 -0.069026994 -7.7142055e-22)
(0.30320589 -0.071576333 1.980714e-20)
(0.32281565 -0.073941372 7.7248065e-21)
(0.34371352 -0.076092372 -9.98641e-21)
(0.36591268 -0.077990436 -7.342767e-21)
(0.38941058 -0.079590048 -5.7148525e-21)
(0.41418619 -0.080839946 -1.3432238e-20)
(0.44019502 -0.08168684 -1.2011769e-22)
(0.46736637 -0.082079956 -5.5351088e-21)
(0.49560182 -0.081975141 4.8852231e-21)
(0.52477481 -0.081338403 -5.4863723e-21)
(0.55473131 -0.080148626 -1.178218e-20)
(0.58529188 -0.078398982 6.1522015e-21)
(0.61625473 -0.076096662 9.4608445e-21)
(0.64739932 -0.073260722 -6.6587766e-21)
(0.67848957 -0.069918289 3.7457785e-21)
(0.70927562 -0.066099989 -2.423322e-21)
(0.73949334 -0.061836415 -1.0418985e-20)
(0.76886163 -0.057158198 -3.2613728e-21)
(0.79707932 -0.052102145 -1.6792353e-21)
(0.82382617 -0.046724092 -1.3886539e-21)
(0.8487733 -0.0411154 -7.3145901e-22)
(0.87160781 -0.035415529 -2.6379262e-21)
(0.8920709 -0.029810995 -1.324405e-22)
(0.9100011 -0.024514213 -1.1508187e-21)
(0.92536766 -0.019724991 -5.6288195e-22)
(0.93827921 -0.015588299 -4.5524515e-22)
(0.94896164 -0.012166583 3.9417442e-22)
(0.957713 -0.0094384911 -6.8345634e-22)
(0.96485288 -0.0073216766 -6.2557259e-22)
(0.97068259 -0.0057056941 2.0339794e-22)
(0.97546331 -0.0044797946 3.4707016e-24)
(0.97940959 -0.0035483242 -7.6179345e-23)
(0.98269162 -0.0028352895 2.7714877e-22)
(0.9854414 -0.0022832128 -9.1968748e-23)
(0.98775954 -0.0018501479 -2.6361602e-22)
(0.98972427 -0.0015062153 8.3359933e-23)
(0.99139277 -0.0012305793 -1.1495209e-23)
(0.99282232 -0.0010078841 2.4186572e-23)
(0.9940237 -0.00082848691 2.481347e-23)
(0.99511533 -0.00068035473 -1.0373296e-23)
(0.99586944 -0.00057088343 -1.7866405e-23)
(0.99702466 -0.00043063598 3.2068514e-23)
(0.31317882 -0.052519293 -2.6497219e-20)
(0.31707715 -0.059338982 5.8360293e-20)
(0.32647475 -0.06492896 1.2503624e-20)
(0.33792443 -0.068950218 -2.0794104e-20)
(0.34935222 -0.072702521 -4.2608165e-21)
(0.36137925 -0.07640715 1.8511348e-21)
(0.37444541 -0.079902858 -4.2583162e-21)
(0.38851671 -0.083163838 -6.8279331e-21)
(0.40357177 -0.086221902 -6.0708926e-21)
(0.41966157 -0.089071667 -1.9025598e-20)
(0.43682429 -0.091677287 3.2415929e-20)
(0.45507139 -0.093991337 1.3482296e-20)
(0.4744005 -0.095958536 -2.7981499e-20)
(0.49479594 -0.097516803 1.1884271e-20)
(0.51622408 -0.098601207 8.2031188e-21)
(0.53863082 -0.09914919 4.6778745e-21)
(0.56194062 -0.099105615 -8.8141979e-22)
(0.58605613 -0.098427232 -1.2456004e-20)
(0.61085845 -0.097086194 -5.270504e-21)
(0.63620866 -0.095072105 -4.7150072e-21)
(0.66195023 -0.092392055 -1.0079656e-20)
(0.68791213 -0.089068304 0)
(0.7139119 -0.085133688 -4.3328536e-21)
(0.73975757 -0.080625645 5.9365357e-21)
(0.76524739 -0.075580945 1.0872542e-20)
(0.79016659 -0.070034384 -3.9158864e-22)
(0.81428233 -0.064024943 -8.0644475e-21)
(0.83734008 -0.057610975 8.3277273e-21)
(0.85906713 -0.050891343 -2.806398e-21)
(0.87918844 -0.044023502 5.1042525e-21)
(0.89745656 -0.03722595 2.738839e-22)
(0.91369009 -0.030755614 6.9156196e-22)
(0.9278082 -0.024861975 -7.8284354e-22)
(0.93984683 -0.01973386 8.5438739e-22)
(0.9499487 -0.015462004 -5.4749695e-22)
(0.95833099 -0.012033623 -9.4903974e-23)
(0.9652444 -0.0093577668 2.2044774e-22)
(0.97093791 -0.0073048921 1.4824322e-22)
(0.97563674 -0.0057415589 -2.0063902e-22)
(0.97953277 -0.0045504669 1.0639565e-22)
(0.98278281 -0.0036371407 5.2515434e-24)
(0.98551133 -0.0029293266 -2.8502404e-22)
(0.98781477 -0.0023738505 2.6848726e-22)
(0.98976895 -0.0019326097 5.180382e-23)
(0.99142964 -0.0015789563 -1.2406092e-23)
(0.9928532 -0.0012931926 7.7371725e-24)
(0.99404988 -0.0010630361 -2.6868598e-23)
(0.99513755 -0.00087286169 -4.0980775e-23)
(0.99588897 -0.00073273937 -7.7847111e-24)
(0.99704042 -0.00055248686 -1.0037075e-23)
(0.44931761 -0.058779882 -2.2426783e-20)
(0.44906119 -0.066703108 1.4998178e-20)
(0.45509027 -0.072880133 5.6801176e-21)
(0.46360801 -0.077260717 -9.966166e-21)
(0.4717864 -0.081469237 1.6012741e-20)
(0.48027637 -0.08568476 1.0677275e-20)
(0.48969277 -0.089691865 -1.6087328e-20)
(0.50000966 -0.093454535 -8.774137e-21)
(0.51116448 -0.096998742 1.8883035e-20)
(0.5231945 -0.10031424 -2.7745404e-20)
(0.53613603 -0.10336172 -2.2001436e-20)
(0.5499951 -0.10608849 2.8640451e-20)
(0.5647637 -0.10843207 1.1491898e-20)
(0.58042546 -0.11032231 -1.5607164e-20)
(0.59695223 -0.11168544 2.3784583e-21)
(0.61430167 -0.11244941 -1.2410896e-21)
(0.63241662 -0.11254962 2.6195332e-21)
(0.65122474 -0.1119342 6.0962311e-21)
(0.67063844 -0.11056841 -3.6148663e-21)
(0.69055559 -0.10843739 4.7218038e-21)
(0.71086113 -0.10554688 7.1103458e-21)
(0.73142951 -0.10192105 -7.3269014e-21)
(0.75212749 -0.097597514 4.5998039e-22)
(0.77281643 -0.092620187 -3.0856543e-21)
(0.79335266 -0.087031993 2.308869e-20)
(0.81358474 -0.080871435 1.2857557e-20)
(0.83334742 -0.074177526 4.303268e-21)
(0.85245466 -0.067005997 -2.2458474e-21)
(0.87069645 -0.0594544 9.6785873e-21)
(0.88784547 -0.051686243 1.3333412e-20)
(0.90367714 -0.043938918 1.3978994e-21)
(0.91800085 -0.036502593 3.9714239e-21)
(0.93069322 -0.029669715 1.0441992e-21)
(0.94172035 -0.023672215 6.8859549e-22)
(0.95113981 -0.018633761 2.039217e-22)
(0.95908242 -0.014558107 1.3000342e-21)
(0.96572282 -0.011354496 1.7109726e-22)
(0.97125064 -0.0088820127 -3.2060125e-24)
(0.97584929 -0.0069903055 -2.0090253e-23)
(0.97968373 -0.0055442271 4.2912373e-22)
(0.98289462 -0.0044330493 -3.6746376e-23)
(0.98559719 -0.0035709131 2.2961913e-22)
(0.98788268 -0.0028939594 5.7963793e-23)
(0.98982402 -0.0023560927 -2.0149956e-22)
(0.99147518 -0.0019249519 -4.1263102e-23)
(0.99289144 -0.001576526 -6.8753628e-23)
(0.99408238 -0.0012959738 2.1753075e-23)
(0.99516514 -0.0010639643 -1.9233662e-23)
(0.99591328 -0.00089365249 5.9261269e-25)
(0.99706001 -0.00067344603 6.1584135e-23)
(0.59205223 -0.060443618 3.1263722e-21)
(0.5867569 -0.069466265 -2.1513051e-20)
(0.5882117 -0.076144083 -3.1917557e-21)
(0.59272534 -0.080964909 6.7241302e-21)
(0.59688364 -0.08574738 4.9889433e-21)
(0.60117826 -0.09055188 2.0495191e-21)
(0.6063417 -0.095134337 1.1118386e-20)
(0.61239926 -0.099467177 1.1594635e-20)
(0.61925357 -0.10356517 1.3587255e-20)
(0.6269074 -0.10740759 -1.7922604e-20)
(0.63538307 -0.11095296 -3.7236584e-20)
(0.64467695 -0.11414722 -9.4741257e-21)
(0.65477019 -0.11692456 2.9462052e-20)
(0.66563885 -0.11921037 2.39048e-20)
(0.67725342 -0.12092556 -7.2887028e-21)
(0.68957684 -0.12199176 -2.9529303e-21)
(0.7025639 -0.12233727 -1.1804031e-20)
(0.71616084 -0.12190299 1.4106607e-20)
(0.730305 -0.12064765 -4.8701574e-22)
(0.74492472 -0.11855152 -4.3675538e-21)
(0.75993986 -0.11561786 2.1925212e-20)
(0.77526336 -0.11187149 -3.474236e-21)
(0.79080353 -0.10735389 3.4931657e-21)
(0.80646648 -0.10211524 2.2784529e-21)
(0.82215755 -0.096205252 -8.5301645e-21)
(0.83777977 -0.089666977 7.6011945e-21)
(0.85322829 -0.082539294 8.1564238e-22)
(0.86838166 -0.074872542 -4.4914792e-21)
(0.88309347 -0.066756361 -1.8875212e-21)