/*--------------------------------*- C++ -*----------------------------------*\
  =========                 |
  \\      /  F ield         | OpenFOAM: The Open Source CFD Toolbox
   \\    /   O peration     | Website:  https://openfoam.org
    \\  /    A nd           | Version:  6
     \\/     M anipulation  |
\*---------------------------------------------------------------------------*/
FoamFile
{
    version     2.0;
    format      ascii;
    class       volScalarField;
    location    "311";
    object      pPrime2Mean;
}
// * * * * * * * * * * * * * * * * * * * * * * * * * * * * * * * * * * * * * //

dimensions      [0 4 -4 0 0 0 0];

internalField   nonuniform List<scalar> 
9200
(
0.036209
0.030020724
0.02478129
0.021369755
0.018646145
0.01635011
0.014368529
0.012643691
0.011137178
0.0098182343
0.0086613959
0.0076453304
0.0067520358
0.005966228
0.0052748642
0.0046667918
0.0041325693
0.0036643158
0.003256126
0.0029002337
0.029378566
0.024313032
0.020076617
0.0172914
0.015056246
0.01316631
0.011532732
0.010110168
0.0088680789
0.0077818636
0.0068309929
0.0059981122
0.0052684254
0.0046292193
0.0040694991
0.0035797269
0.0031516846
0.0027782824
0.0024528752
0.0021659792
0.022973743
0.018988174
0.015693779
0.013498358
0.011722155
0.01021279
0.0089046554
0.0077643776
0.0067691783
0.005900443
0.005142337
0.0044811777
0.0039050211
0.0034033569
0.0029668901
0.0025873979
0.002257649
0.0019712493
0.0017217585
0.0015007382
0.017172106
0.014189579
0.011747822
0.010088802
0.0087294175
0.0075650161
0.0065515889
0.0056670118
0.0048958433
0.0042249862
0.0036427854
0.0031387039
0.0027031594
0.0023274343
0.0020036377
0.0017246938
0.0014843279
0.0012769659
0.0010971012
0.000938347
0.012133617
0.010046141
0.0083446655
0.0071541345
0.0061585616
0.0052949301
0.0045385493
0.0038774547
0.0033027675
0.0028061233
0.0023792862
0.0020141868
0.0017030607
0.0014386037
0.0012141132
0.0010235866
0.00086175605
0.00072403152
0.00060616909
0.00050388069
0.0079992374
0.0066701559
0.0055782391
0.0047760842
0.0040821445
0.0034679167
0.0029251381
0.0024504882
0.0020404996
0.0016904762
0.001394677
0.001146774
0.00094031488
0.000769105
0.00062748045
0.00051046121
0.00041379015
0.00033388603
0.00026771898
0.00021263544
0.0048868439
0.0041546532
0.003528416
0.0030249606
0.0025632014
0.0021413024
0.0017639519
0.0014345356
0.0011535311
0.00091867806
0.00072577347
0.00056956343
0.00044449467
0.00034525304
0.00026708896
0.00020596057
0.00015853838
0.00012214286
9.4725092e-05
7.4730362e-05
0.0028882407
0.0025715685
0.0022595635
0.0019583003
0.0016538659
0.0013628396
0.0010988843
0.00086982711
0.00067844577
0.00052366314
0.00040193875
0.00030854036
0.0002384902
0.00018715907
0.00015056414
0.00012545382
0.00010926029
0.00010001366
9.6348976e-05
9.7350563e-05
0.0020666106
0.0019697185
0.0018178408
0.001617938
0.0013926769
0.001168461
0.00096338531
0.00078714875
0.00064311694
0.0005302579
0.00044500364
0.00038275359
0.00033887148
0.00030923039
0.00029042582
0.00027978433
0.00027526909
0.0002753749
0.00027910774
0.00028581443
0.0024538009
0.0023731874
0.0022283803
0.0020272956
0.0018020098
0.0015796047
0.0013775948
0.0012048792
0.0010638328
0.00095257402
0.0008670357
0.00080249098
0.00075445062
0.00071907766
0.00069329782
0.00067474247
0.00066162756
0.00065263747
0.00064683976
0.000643521
0.085857038
0.072210634
0.059681399
0.051758527
0.045467471
0.040186808
0.035640252
0.031678747
0.028210016
0.025161534
0.022474054
0.020098528
0.017993869
0.016125346
0.014463383
0.012982647
0.011661336
0.010479922
0.0094200664
0.0084711633
0.084764685
0.071222059
0.05883627
0.051004381
0.044792114
0.039578747
0.035090433
0.031180571
0.027757938
0.024750709
0.022100197
0.019757825
0.017682915
0.015841092
0.014203094
0.012743879
0.011441928
0.010278001
0.0092336527
0.0082986414
0.082536505
0.069264828
0.057188996
0.049551813
0.043500859
0.03842391
0.034053013
0.030246156
0.02691451
0.023987975
0.021409234
0.019130828
0.017113015
0.015322219
0.01372987
0.012311536
0.011046283
0.0099154405
0.0089006233
0.0079917703
0.079211413
0.066386465
0.054787165
0.047445906
0.04163452
0.03675925
0.032561815
0.028906691
0.025708635
0.02290024
0.020426338
0.018241213
0.016306569
0.01459005
0.01306413
0.011705275
0.010493366
0.0094105615
0.0084388439
0.0075680246
0.074880173
0.062668628
0.05170034
0.044748877
0.03924891
0.034635084
0.030662532
0.027203898
0.024178586
0.021522751
0.019184083
0.017119185
0.015291683
0.013670827
0.012230455
0.010948186
0.0098048863
0.0087837347
0.0078676055
0.0070460459
0.069666155
0.058219484
0.048018742
0.041540223
0.036414852
0.032114858
0.028412252
0.025189312
0.022371013
0.019897835
0.017720949
0.015799796
0.014100339
0.01259379
0.011255634
0.01006487
0.0090034828
0.0080557643
0.007206067
0.0064439909
0.063719158
0.053168758
0.043849169
0.037913183
0.033214997
0.029272301
0.025876957
0.022922074
0.020339002
0.018073188
0.016079818
0.014321615
0.012767263
0.011390251
0.010167984
0.0090810524
0.0081126992
0.0072483343
0.0064742181
0.0057806962
0.057209985
0.047663143
0.039311572
0.033971866
0.02974127
0.026189113
0.023129453
0.020467142
0.018140536
0.016100577
0.014306905
0.012725905
0.011329315
0.010093194
0.0089971226
0.0080235236
0.0071570931
0.0063844259
0.0056939361
0.0050774045
0.050324261
0.041860822
0.034534697
0.029827431
0.026091445
0.022951929
0.020246691
0.017892888
0.015836363
0.014033961
0.012450131
0.011055229
0.0098243207
0.0087362894
0.0077731258
0.006919321
0.0061613044
0.0054871196
0.0048876105
0.0043560377
0.043255705
0.035927039
0.029651487
0.025593224
0.02236442
0.019647866
0.017305665
0.015267461
0.013486888
0.011926959
0.01055716
0.0093520124
0.0082900769
0.0073532068
0.0065259577
0.0057951043
0.0051492588
0.0045788258
0.0040778696
0.0036399669
0.0074702147
0.0064724274
0.0056265465
0.0048923275
0.0042652431
0.0037282276
0.0032664712
0.0028672683
0.0025202893
0.0022171454
0.0019510431
0.0017165401
0.0015092687
0.0013256781
0.0011628416
0.0010183161
0.00089003439
0.0007762233
0.00067534403
0.00058604712
0.00050713822
0.00043755182
0.00037633083
0.00032261071
0.00027560725
0.00023460701
0.00019895984
0.00016807297
0.0001414062
0.00011846799
9.881207e-05
8.2034453e-05
6.7770752e-05
5.5693554e-05
4.5509999e-05
3.6959289e-05
2.9810399e-05
2.3859595e-05
1.8928398e-05
1.486076e-05
1.1522394e-05
8.7947843e-06
6.5835917e-06
4.7906483e-06
3.3766634e-06
2.2131048e-06
1.4061418e-06
6.4823149e-07
8.5112837e-07
1.4181177e-06
0.0073253996
0.0063606517
0.0055389342
0.0048232771
0.0042114349
0.0036867248
0.003234484
0.0028424856
0.0025009272
0.0022018386
0.0019387749
0.0017065815
0.0015011028
0.001318933
0.0011572438
0.0010136588
0.00088615627
0.00077299497
0.00067265939
0.00058381791
0.00050529036
0.00043602286
0.00037506804
0.00032156964
0.00027475045
0.00023390301
0.00019838231
0.0001675999
0.00014101928
0.00011815202
9.8554453e-05
8.1824791e-05
6.7600465e-05
5.5555571e-05
4.5398503e-05
3.6869496e-05
2.9738375e-05
2.3802106e-05
1.8882787e-05
1.4824848e-05
1.1494392e-05
8.773233e-06
6.5673011e-06
4.7786708e-06
3.3682285e-06
2.2076024e-06
1.4032249e-06
6.4649042e-07
8.4612092e-07
1.3909247e-06
0.0070706089
0.0061653046
0.0053873189
0.0047057115
0.0041212424
0.0036182323
0.0031824757
0.0028027009
0.0024701511
0.0021776843
0.0019195124
0.0016909967
0.0014883511
0.0013084161
0.0011485262
0.0010064134
0.00088012883
0.00076798199
0.00066849415
0.00058036176
0.00050242698
0.00043365424
0.00037311156
0.00031995574
0.00027342068
0.00023280844
0.00019748209
0.00016686006
0.00014041167
0.00011765335
9.8145519e-05
8.1489784e-05
6.7326381e-05
5.5331718e-05
4.5216089e-05
3.6721283e-05
2.96184e-05
2.370545e-05
1.8805386e-05
1.4763342e-05
1.1446005e-05
8.7356755e-06
6.5386956e-06
4.7574947e-06
3.3532585e-06
2.1978111e-06
1.3981091e-06
6.4341366e-07
8.3611126e-07
1.3378038e-06
0.0067215197
0.0058984835
0.0051826207
0.004550214
0.0040041243
0.0035305779
0.0031166728
0.0027527304
0.0024316165
0.0021474628
0.001895413
0.0016715049
0.0014724184
0.0012952991
0.0011376793
0.00099742288
0.00087267113
0.00076179705
0.00066336881
0.0005761191
0.00049891911
0.00043075711
0.0003707211
0.00031798478
0.00027179642
0.00023147026
0.00019637968
0.00016595183
0.00013966332
0.00011703669
9.7637417e-05
8.1071271e-05
6.6981914e-05
5.5048556e-05
4.4983764e-05
3.6531184e-05
2.9463417e-05
2.3579697e-05
1.8703977e-05
1.4682214e-05
1.1381776e-05
8.6855313e-06
6.5003119e-06
4.7289681e-06
3.3330458e-06
2.1846098e-06
1.3912354e-06
6.393727e-07
8.2109132e-07
1.261472e-06
0.0062935104
0.0055724839
0.0049360556
0.0043675393
0.0038695537
0.0034313032
0.0030427781
0.0026968114
0.0023884691
0.0021135619
0.001868367
0.0016496668
0.0014546329
0.0012807324
0.0011257081
0.0009875669
0.00086455086
0.00075510686
0.00065785903
0.00057158392
0.00049518804
0.00042768864
0.00036819773
0.00031590918
0.00027008817
0.00023006313
0.00019521929
0.00016499369
0.00013887113
0.0001163809
9.7094014e-05
8.0620733e-05
6.6608361e-05
5.4739045e-05
4.4727703e-05
3.631987e-05
2.9289655e-05
2.3437513e-05
1.858838e-05
1.4589019e-05
1.1307463e-05
8.6271418e-06
6.4553741e-06
4.6954372e-06
3.3092284e-06
2.1691086e-06
1.3831453e-06
6.3484376e-07
8.0120091e-07
1.1659213e-06
0.0057996782
0.0051984537
0.0046577168
0.004166416
0.0037244348
0.0033252342
0.0029639269
0.0026370419
0.0023422542
0.0020772446
0.001839496
0.0016265244
0.0014359729
0.001265628
0.0011134528
0.00097760937
0.00085645417
0.00074852087
0.00065250076
0.00056722334
0.00049163765
0.00042479543
0.00036583694
0.00031397923
0.00026850667
0.00022876346
0.00019414778
0.00016410725
0.00013813527
0.00011576808
9.658224e-05
8.0192459e-05
6.624953e-05
5.4438349e-05
4.4475977e-05
3.6109624e-05
2.9114701e-05
2.3292687e-05
1.8469329e-05
1.4492045e-05
1.1229409e-05
8.5653013e-06
6.4074475e-06
4.659499e-06
3.2836109e-06
2.1525229e-06
1.3744064e-06
6.30335e-07
7.7666576e-07
1.055997e-06
0.0052528023
0.0047875365
0.004356582
0.0039520983
0.003571009
0.003212815
0.0028797686
0.0025730418
0.0022929437
0.0020388691
0.0018094381
0.0016028821
0.001417318
0.0012508746
0.0011017674
0.00096834479
0.00084910372
0.00074268535
0.00064786433
0.0005635353
0.00048869868
0.00042244713
0.00036395362
0.00031246147
0.00026727614
0.00022775878
0.00019332111
0.00016342154
0.00013756193
0.00011528516
9.6172927e-05
7.9843865e-05
6.5951728e-05
5.4183623e-05
4.4258241e-05
3.5923981e-05
2.8957119e-05
2.3159769e-05
1.8358144e-05
1.4400024e-05
1.1154278e-05
8.5050345e-06
6.3602525e-06
4.623844e-06
3.2580428e-06
2.1360822e-06
1.3655635e-06
6.2633501e-07
7.4779014e-07
9.3694036e-07
0.0046688338
0.0043524605
0.0040395367
0.0037238194
0.0034045092
0.003089067
0.002786626
0.002502633
0.0022396455
0.0019984657
0.0017787766
0.0015796029
0.0013996403
0.0012374508
0.0010915785
0.00096061809
0.00084325082
0.00073825675
0.00064451584
0.00056100298
0.00048678018
0.00042098761
0.00036283511
0.00031159464
0.00026659396
0.00022721149
0.00019287232
0.00016304502
0.00013723914
0.00011500328
9.5923309e-05
7.9620785e-05
6.5751486e-05
5.4003843e-05
4.4097357e-05
3.5780886e-05
2.8830911e-05
2.3049613e-05
1.8263179e-05
1.4319334e-05
1.1086891e-05
8.4499362e-06
6.3164194e-06
4.5903534e-06
3.2337826e-06
2.1206085e-06
1.3568924e-06
6.2316802e-07
7.1491684e-07
8.1401232e-07
0.0040636259
0.0038986593
0.0036992762
0.0034650022
0.0032069329
0.0029392991
0.0026738375
0.00241823
0.0021768775
0.0019519997
0.0017444737
0.0015543333
0.0013810679
0.0012238382
0.0010816364
0.00095339045
0.00083802754
0.00073450888
0.00064184851
0.00055912105
0.00048546314
0.00042007123
0.00036219781
0.00031114729
0.00026627218
0.0002269697
0.00019267914
0.00016287964
0.00013708855
0.00011486002
9.5783763e-05
7.9483876e-05
6.5617691e-05
5.3874473e-05
4.3974046e-05
3.5665251e-05
2.8724338e-05
2.295315e-05
1.8177494e-05
1.4244725e-05
1.1023335e-05
8.3971475e-06
6.2739039e-06
4.5576071e-06
3.2098504e-06
2.1054692e-06
1.3478435e-06
6.2069311e-07
6.7855301e-07
6.9261389e-07
0.0034615058
0.0034122045
0.0033034273
0.0031456495
0.0029553564
0.0027461403
0.0025279478
0.0023091123
0.0020958735
0.001892235
0.0017005712
0.0015221831
0.0013575918
0.0012067532
0.0010692552
0.00094446846
0.00083164625
0.00072998885
0.00063868557
0.00055694023
0.0004839853
0.00041908887
0.00036155747
0.00031073649
0.00026600961
0.00022679778
0.00019255822
0.00016278353
0.00013700098
0.00011477182
9.5690724e-05
7.9385105e-05
6.5514317e-05
5.3768729e-05
4.3868598e-05
3.5562756e-05
2.8627159e-05
2.2863203e-05
1.809619e-05
1.4172968e-05
1.0961585e-05
8.3454794e-06
6.2320813e-06
4.5253119e-06
3.1861509e-06
2.090574e-06
1.3383496e-06
6.1877237e-07
6.4007417e-07
5.7844006e-07
0.0028066419
0.0028238982
0.0027888283
0.0027042883
0.0025856785
0.0024429161
0.0022828447
0.0021128893
0.0019398929
0.0017688915
0.0016033634
0.001445711
0.0012974749
0.0011594907
0.0010320758
0.00091519303
0.00080856844
0.00071177526
0.00062429446
0.00054555708
0.00047497236
0.00041194589
0.00035589136
0.00030623785
0.00026243459
0.00022395401
0.00019029385
0.00016097864
0.00013556086
0.00011362166
9.4771422e-05
7.8649937e-05
6.4926318e-05
5.3298614e-05
4.3493119e-05
3.5263412e-05
2.8389184e-05
2.2674777e-05
1.7947814e-05
1.4057005e-05
1.0871849e-05
8.277068e-06
6.1808222e-06
4.4884517e-06
3.1600944e-06
2.0754296e-06
1.3274565e-06
6.1759602e-07
5.9995711e-07
4.7787549e-07
0.002175782
0.002230131
0.0022413305
0.0022090657
0.0021455402
0.002058024
0.0019505867
0.001828935
0.001699183
0.0015661515
0.0014334383
0.0013038117
0.001179311
0.0010613072
0.00095063914
0.00084775133
0.00075279895
0.00066572736
0.00058633497
0.00051432083
0.00044931902
0.0003909232
0.00033870412
0.00029222217
0.00025103644
0.00021471142
0.00018282206
0.00015495774
0.00013072537
0.00010975181
9.1685752e-05
7.6199055e-05
6.2987608e-05
5.1771757e-05
4.2296311e-05
3.4330175e-05
2.7665671e-05
2.2117538e-05
1.7521892e-05
1.3734425e-05
1.0630197e-05
8.0987454e-06
6.0513749e-06
4.3977204e-06
3.0973501e-06
2.0379275e-06
1.3009238e-06
6.1128962e-07
5.4857008e-07
3.8210053e-07
0.0016330725
0.001712003
0.0017555874
0.0017635015
0.0017431641
0.0016998687
0.0016361277
0.0015559944
0.0014644937
0.0013659304
0.0012637234
0.0011607024
0.0010591441
0.00096075558
0.00086674816
0.0007779403
0.00069484141
0.00061771927
0.00054665789
0.00048160485
0.00042240804
0.0003688436
0.00032063729
0.00027748084
0.00023904445
0.00020498656
0.00017496151
0.00014862574
0.00012564276
0.00010568711
8.844761e-05
7.3629783e-05
6.0957704e-05
5.0175238e-05
4.1046747e-05
3.3357343e-05
2.6912726e-05
2.1538641e-05
1.7080203e-05
1.3400503e-05
1.0380483e-05
7.9147916e-06
5.9180005e-06
4.3044086e-06
3.0326188e-06
1.9995462e-06
1.272434e-06
6.0580745e-07
4.9256942e-07
2.9199323e-07
0.0011769196
0.001268706
0.0013322505
0.001368059
0.0013794002
0.0013697714
0.0013408176
0.0012951804
0.0012365839
0.001168571
0.0010941576
0.0010159857
0.00093632843
0.00085702742
0.0007795079
0.0007048402
0.00063379752
0.00056690582
0.00050449069
0.00044671926
0.00039363505
0.00034518621
0.00030124824
0.00026164239
0.00022615036
0.00019452625
0.00016650625
0.00014181665
0.0001201804
0.00010132251
8.4974495e-05
7.0877893e-05
5.878705e-05
4.847117e-05
3.9715744e-05
3.2323428e-05
2.6114424e-05
2.0926422e-05
1.6614314e-05
1.3049218e-05
1.0118468e-05
7.7222397e-06
5.7786749e-06
4.2070401e-06
2.9649861e-06
1.9593184e-06
1.2417861e-06
6.0023139e-07
4.3600024e-07
2.1462895e-07
0.00081003547
0.00090260207
0.00097464467
0.0010266475
0.0010588274
0.0010729467
0.0010699808
0.0010514711
0.0010198691
0.00097781955
0.00092777825
0.00087202083
0.00081262085
0.00075137118
0.0006897553
0.00062896757
0.00056994353
0.00051338988
0.00045981667
0.00040956959
0.00036285935
0.00031978701
0.00028036573
0.00024453917
0.00021219693
0.00018318755
0.00015732944
0.00013442007
0.00011424375
9.6578149e-05
8.1199759e-05
6.7888365e-05
5.6430668e-05
4.6623117e-05
3.8274035e-05
3.1205108e-05
2.5252328e-05
2.0266423e-05
1.6112974e-05
1.2671886e-05
9.8375164e-06
7.5160561e-06
5.6296412e-06
4.102795e-06
2.8924665e-06
1.9156542e-06
1.2082097e-06
5.9354964e-07
3.8116457e-07
1.5371642e-07
0.00052905287
0.00061268264
0.00068356758
0.00074153059
0.00078485677
0.00081378594
0.000828596
0.00082996066
0.00081924011
0.00079817054
0.00076856035
0.00073220667
0.00069084718
0.00064608058
0.00059931235
0.00055174112
0.00050436344
0.00045798442
0.00041323394
0.00037058693
0.0003303845
0.00029285404
0.00025812758
0.00022625843
0.00019723584
0.00017099782
0.00014744237
0.00012643718
0.00010782807
9.144625e-05
7.711447e-05
6.4652275e-05
5.3880316e-05
4.4623855e-05
3.6715523e-05
2.9997392e-05
2.432245e-05
1.9555513e-05
1.5573762e-05
1.2266652e-05
9.5362081e-06
7.2951399e-06
5.4700471e-06
3.9909509e-06
2.8145293e-06
1.8679419e-06
1.1715719e-06
5.8503082e-07
3.29959e-07
1.1054097e-07
0.00032485962
0.00039357638
0.0004563304
0.00051222594
0.00055861619
0.00059464738
0.0006199232
0.00063441674
0.00063862059
0.00063345345
0.00062006651
0.00059973008
0.00057376687
0.00054348008
0.00051009038
0.00047469883
0.00043827058
0.00040162889
0.00036545662
0.00033030402
0.0002966002
0.00026466623
0.00023472855
0.0002069322
0.00018135331
0.00015801057
0.00013687582
0.00011788347
0.00010093901
8.5926453e-05
7.2714945e-05
6.1164409e-05
5.1130385e-05
4.2468053e-05
3.503551e-05
2.8696355e-05
2.3321641e-05
1.8791255e-05
1.4994846e-05
1.1832165e-05
9.2135582e-06
7.0587629e-06
5.299352e-06
3.8710487e-06
2.7308606e-06
1.8157524e-06
1.131946e-06
5.7401139e-07
2.8385385e-07
8.4095572e-08
0.00018565724
0.00023691731
0.0002873951
0.0003357353
0.00037910201
0.00041604027
0.00044563649
0.00046733236
0.00048097825
0.00048682679
0.00048543084
0.00047754509
0.00046405621
0.00044591875
0.0004240958
0.00039951362
0.00037303013
0.00034541563
0.00031734262
0.00028938246
0.00026200729
0.00023559548
0.0002104391
0.00018675261
0.00016468212
0.00014431454
0.00012568656
0.00010879309
9.3595149e-05
8.0027065e-05
6.800302e-05
5.7422824e-05
4.8176992e-05
4.0151089e-05
3.3229377e-05
2.7297793e-05
2.2246313e-05
1.7970724e-05
1.4373927e-05
1.1366673e-05
8.8682662e-06
6.8059696e-06
5.116866e-06
3.7425609e-06
2.6411315e-06
1.7587232e-06
1.089495e-06
5.5997181e-07
2.4371882e-07
7.1336197e-08
9.9105355e-05
0.00013286197
0.00016934205
0.00020703449
0.00024335969
0.00027667635
0.00030579024
0.00032980588
0.00034814601
0.00036057495
0.00036715707
0.00036819108
0.00036415253
0.00035564152
0.00034333146
0.0003279246
0.00031011655
0.00029056862
0.00026988869
0.00024861951
0.00022723256
0.0002061262
0.00018562712
0.00016599404
0.00014742298
0.00013005342
0.00011397498
9.9234174e-05
8.5841125e-05
7.3776e-05
6.2995046e-05
5.3436141e-05
4.5023813e-05
3.767366e-05
3.1296184e-05
2.5800015e-05
2.1094568e-05
1.7092129e-05
1.3709476e-05
1.0868959e-05
8.4994139e-06
6.5361009e-06
4.9221429e-06
3.6051913e-06
2.5452152e-06
1.6967476e-06
1.0445496e-06
5.4270999e-07
2.0987298e-07
6.7961661e-08
5.3562862e-05
7.135489e-05
9.392031e-05
0.00011982034
0.00014693906
0.00017373
0.00019894875
0.0002215582
0.00024074877
0.00025597437
0.00026694721
0.00027360469
0.00027607203
0.00027462509
0.00026965186
0.00026161437
0.00025101486
0.00023836737
0.00022417427
0.00020890876
0.00019300286
0.00017683988
0.00016075038
0.00014501112
0.00012984619
0.00011542982
0.00010189028
8.9314535e-05
7.7753256e-05
6.7226048e-05
5.7726591e-05
4.9227602e-05
4.1685482e-05
3.5044564e-05
2.9240909e-05
2.4205604e-05
1.986757e-05
1.6155863e-05
1.300152e-05
1.0338924e-05
8.1069063e-06
6.2491213e-06
4.7152218e-06
3.4590529e-06
2.4433128e-06
1.6300652e-06
9.9761871e-07
5.2239844e-07
1.8220804e-07
6.9474663e-08
3.8798553e-05
4.3003678e-05
5.2905003e-05
6.7265287e-05
8.4484966e-05
0.00010326423
0.00012247717
0.00014110769
0.00015827732
0.00017328872
0.00018564101
0.0001950216
0.00020128904
0.0002044523
0.00020464621
0.000202104
0.00019712956
0.00019007182
0.00018130214
0.00017119493
0.00016011226
0.00014839243
0.00013634192
0.00012423035
0.00011228789
0.0001007047
8.9632047e-05
7.9184492e-05
6.9442982e-05
6.0458486e-05
5.2255933e-05
4.4838254e-05
3.819038e-05
3.2283055e-05
2.7076368e-05
2.252294e-05
1.8570726e-05
1.5165392e-05
1.2252303e-05
9.7780653e-06
7.6918e-06
5.945842e-06
4.4967759e-06
3.3047618e-06
2.3360091e-06
1.5592855e-06
9.4936819e-07
4.9956718e-07
1.6032708e-07
7.2170793e-08
4.6272013e-05
3.955543e-05
3.8668804e-05
4.2622415e-05
5.0297929e-05
6.0696059e-05
7.2901945e-05
8.6030003e-05
9.9253672e-05
0.00011185148
0.00012323261
0.00013294425
0.00014067034
0.00014622546
0.00014954345
0.00015066153
0.00014970135
0.00014684926
0.00014233713
0.00013642476
0.00012938406
0.00012148598
0.0001129901
0.00010413683
9.5141939e-05
8.6193228e-05
7.7448902e-05
6.9037451e-05
6.1058675e-05
5.3585569e-05
4.6666822e-05
4.0329715e-05
3.4583218e-05
2.9421137e-05
2.4825177e-05
2.0767825e-05
1.7214976e-05
1.4128258e-05
1.1467025e-05
9.1900094e-06
7.2566752e-06
5.6281631e-06
4.2682581e-06
3.1435064e-06
2.2242911e-06
1.4853513e-06
9.0055832e-07
4.7499329e-07
1.4361694e-07
7.3722165e-08
6.9122925e-05
5.4077987e-05
4.4501106e-05
3.9641338e-05
3.8784039e-05
4.1221894e-05
4.6279663e-05
5.3257183e-05
6.1454226e-05
7.021391e-05
7.8951031e-05
8.7166829e-05
9.4457611e-05
0.00010051917
0.0001051462
0.00010822663
0.00010973184
0.00010970431
0.00010824392
0.00010549392
0.00010162739
9.6834707e-05
9.1312637e-05
8.5255264e-05
7.8846792e-05
7.2256181e-05
6.5633438e-05
5.9107438e-05
5.2785018e-05
4.6751134e-05
4.1069849e-05
3.5785939e-05
3.0926936e-05
2.6505426e-05
2.2521463e-05
1.8964973e-05
1.5818051e-05
1.3057082e-05
1.0654637e-05
8.5810988e-06
6.8060504e-06
5.2993484e-06
4.0320673e-06
2.9771258e-06
2.10957e-06
1.4094942e-06
8.5199672e-07
4.4957269e-07
1.3128748e-07
7.3222588e-08
0.00010200641
8.0952511e-05
6.4736037e-05
5.2808657e-05
4.4768253e-05
4.0157909e-05
3.8527951e-05
3.9374823e-05
4.2157557e-05
4.6334706e-05
5.139039e-05
5.6850577e-05
6.2295868e-05
6.7371863e-05
7.1795729e-05
7.5358258e-05
7.7921875e-05
7.9415404e-05
7.9826478e-05
7.9192344e-05
7.7589863e-05
7.5125362e-05
7.1924901e-05
6.8125402e-05
6.3866993e-05
5.9286626e-05
5.4513071e-05
4.9663207e-05
4.4839568e-05
4.0128966e-05
3.5602052e-05
3.1313641e-05
2.7303623e-05
2.3598317e-05
2.0212103e-05
1.714921e-05
1.440555e-05
1.1970505e-05
9.8285937e-06
7.9609867e-06
6.3468242e-06
4.9643321e-06
3.7917423e-06
2.8082073e-06
1.9937107e-06
1.3331897e-06
8.0450323e-07
4.241914e-07
1.2240249e-07
7.079095e-08
0.00014086209
0.0001157564
9.4748348e-05
7.7448127e-05
6.3678602e-05
5.3179382e-05
4.568985e-05
4.0885744e-05
3.8387034e-05
3.7786791e-05
3.867228e-05
4.0639071e-05
4.330382e-05
4.6316513e-05
4.9370501e-05
5.2209285e-05
5.462997e-05
5.6483758e-05
5.7673846e-05
5.8151191e-05
5.7908668e-05
5.6974189e-05
5.5403348e-05
5.3272028e-05
5.0669409e-05
4.7691655e-05
4.4436448e-05
4.0998509e-05
3.7466096e-05
3.3918494e-05
3.0424388e-05
2.7041041e-05
2.3814139e-05
2.0778175e-05
1.7957251e-05
1.5366168e-05
1.301169e-05
1.0893892e-05
9.0074989e-06
7.3431767e-06
5.8887059e-06
4.6300417e-06
3.5521865e-06
2.6402227e-06
1.879105e-06
1.2581622e-06
7.5893231e-07
3.996614e-07
1.1597789e-07
6.7020205e-08
0.0001826731
0.00015509577
0.00013086934
0.00010972148
9.1625314e-05
7.646364e-05
6.4120844e-05
5.4420152e-05
4.7124571e-05
4.195801e-05
3.8620672e-05
3.6799325e-05
3.6177662e-05
3.6447552e-05
3.7319587e-05
3.8531733e-05
3.9855761e-05
4.110145e-05
4.2118604e-05
4.2796977e-05
4.3064366e-05
4.2883216e-05
4.224616e-05
4.1170889e-05
3.9694724e-05
3.7869243e-05
3.5755236e-05
3.3418158e-05
3.0924253e-05
2.8337385e-05
2.571662e-05
2.3114516e-05
2.0576066e-05
1.8138219e-05
1.5829869e-05
1.3672236e-05
1.1679508e-05
9.859679e-06
8.2154904e-06
6.7454033e-06
5.4445552e-06
4.3056791e-06
3.3198837e-06
2.4776784e-06
1.7687684e-06
1.1864277e-06
7.16234e-07
3.7671455e-07
1.1113451e-07
6.2544152e-08
0.00022524647
0.00019642676
0.00017026302
0.00014656705
0.00012540361
0.00010675265
9.0601189e-05
7.6884007e-05
6.5479861e-05
5.6226211e-05
4.8929441e-05
4.3371076e-05
3.9314796e-05
3.6515178e-05
3.472681e-05
3.3712666e-05
3.3251351e-05
3.3143034e-05
3.321388e-05
3.331886e-05
3.3342924e-05
3.320067e-05
3.2834732e-05
3.2213133e-05
3.1325915e-05
3.0181312e-05
2.8801768e-05
2.7220019e-05
2.547543e-05
2.361074e-05
2.1669289e-05
1.9692792e-05
1.7719653e-05
1.5783797e-05
1.3913985e-05
1.213352e-05
1.0460304e-05
8.9071371e-06
7.48221e-06
6.1897164e-06
5.0305219e-06
4.0028745e-06
3.1030427e-06
2.3262368e-06
1.666438e-06
1.1203678e-06
6.775467e-07
3.5605454e-07
1.0726452e-07
5.7846698e-08
0.00026702623
0.00023788741
0.00021079018
0.00018560555
0.00016244718
0.00014135579
0.00012238507
0.0001055477
9.0808892e-05
7.8096369e-05
6.7306545e-05
5.830731e-05
5.0941809e-05
4.5034237e-05
4.0396613e-05
3.6835595e-05
3.4159024e-05
3.2181968e-05
3.0732017e-05
2.9653571e-05
2.8810956e-05
2.8090318e-05
2.7400335e-05
2.6671836e-05
2.5856512e-05
2.4924894e-05
2.3863821e-05
2.2673606e-05
2.1365117e-05
1.9956912e-05
1.8472587e-05
1.693843e-05
1.5381436e-05
1.3827727e-05
1.2301365e-05
1.0823542e-05
9.4121063e-06
8.0813782e-06
6.8421946e-06
5.7021347e-06
4.6658701e-06
3.735618e-06
2.91159e-06
2.1927427e-06
1.5766165e-06
1.062785e-06
6.4427353e-07
3.3842305e-07
1.0412443e-07
5.3255018e-08
0.00030694132
0.00027815068
0.00025087748
0.00022503442
0.00020075472
0.00017811321
0.00015720224
0.00013808416
0.00012078386
0.0001052954
9.1585374e-05
7.9593253e-05
6.9232568e-05
6.0394031e-05
5.294984e-05
4.6758435e-05
4.1669526e-05
3.7529189e-05
3.4184856e-05
3.1489875e-05
2.9307432e-05
2.7513693e-05
2.6000047e-05
2.4674455e-05
2.3461914e-05
2.2304131e-05
2.1158527e-05
1.9996716e-05
1.8802626e-05
1.7570413e-05
1.6302309e-05
1.500654e-05
1.3695385e-05
1.2383482e-05
1.1086388e-05
9.8194437e-06
8.5969139e-06
7.431405e-06
6.3335212e-06
5.3117266e-06
4.372373e-06
3.5198747e-06
2.7569375e-06
2.0850959e-06
1.5045162e-06
1.0169024e-06
6.1811222e-07
3.2465099e-07
1.0182158e-07
4.8994135e-08
0.00034428468
0.00031630161
0.00028940046
0.00026352382
0.00023880577
0.0002153368
0.00019322764
0.00017256855
0.00015342194
0.0001358268
0.0001198003
0.00010533658
9.2406256e-05
8.0957387e-05
7.0917723e-05
6.2197427e-05
5.4692354e-05
4.8287727e-05
4.2862101e-05
3.8291354e-05
3.4452522e-05
3.1227266e-05
2.8504844e-05
2.6184473e-05
2.4177016e-05
2.2405987e-05
2.0807897e-05
1.9332011e-05
1.7939608e-05
1.660286e-05
1.5303445e-05
1.4031015e-05
1.278161e-05
1.1556129e-05
1.0358913e-05
9.1964929e-06
8.0765362e-06
7.0070081e-06
5.995537e-06
5.0489798e-06
4.173163e-06
3.3727919e-06
2.6514514e-06
2.0119125e-06
1.4558566e-06
9.862661e-07
6.0100725e-07
3.1566525e-07
1.0070924e-07
4.5222387e-08
0.00037861872
0.0003517372
0.0003255832
0.00030012155
0.00027547618
0.00025174134
0.00022903238
0.00020745184
0.00018708273
0.00016799153
0.0001502288
0.00013382727
0.00011880024
0.0001051413
9.2824906e-05
8.1807496e-05
7.2029178e-05
6.3415911e-05
5.5882189e-05
4.9334016e-05
4.3672055e-05
3.8794761e-05
3.4601373e-05
3.0994617e-05
2.7883012e-05
2.5182705e-05
2.2818786e-05
2.0726078e-05
1.8849433e-05
1.7143578e-05
1.5572584e-05
1.4109057e-05
1.2733117e-05
1.143127e-05
1.0195239e-05
9.0208341e-06
7.9068971e-06
6.8543744e-06
5.8655316e-06
4.9433239e-06
4.0909232e-06
3.3114069e-06
2.6075522e-06
1.9819207e-06
1.4364774e-06
9.745208e-07
5.9501294e-07
3.1244075e-07
1.0124995e-07
4.2041585e-08
0.00040970067
0.00038408526
0.00035891394
0.000334169
0.0003099585
0.00028637341
0.00026352506
0.00024151783
0.00022044321
0.00020038203
0.00018140452
0.00016356816
0.00014691572
0.00013147416
0.00011725421
0.00010425029
9.2441009e-05
8.1790024e-05
7.2247511e-05
6.3752002e-05
5.6232582e-05
4.9611296e-05
4.3805678e-05
3.8731259e-05
3.4303957e-05
3.0442224e-05
2.7068891e-05
2.411263e-05
2.1509027e-05
1.9201234e-05
1.7140246e-05
1.5284833e-05
1.3601178e-05
1.2062295e-05
1.0647289e-05
9.3405229e-06
8.1307551e-06
7.0102957e-06
5.9742208e-06
5.0196785e-06
4.1453025e-06
3.3507555e-06
2.6363673e-06
2.0030323e-06
1.4517246e-06
9.8503173e-07
6.0205974e-07
3.1589507e-07
1.0389235e-07
3.9502729e-08
0.00043742476
0.00041314005
0.00038907617
0.00036523002
0.00034169157
0.00031854472
0.00029589205
0.00027383326
0.00025246038
0.00023185936
0.00021210984
0.00019328325
0.00017544073
0.00015863171
0.00014289296
0.0001282478
0.00011470572
0.00010226235
9.0899873e-05
8.0587846e-05
7.1284452e-05
6.2938022e-05
5.5488855e-05
4.8871199e-05
4.3015322e-05
3.7849557e-05
3.3302251e-05
2.9303523e-05
2.5786772e-05
2.268989e-05
1.9956165e-05
1.7534848e-05
1.538144e-05
1.3457685e-05
1.1731348e-05
1.0175808e-05
8.7695295e-06
7.4954509e-06
6.3403487e-06
5.2942117e-06
4.3496584e-06
3.5014316e-06
2.7459525e-06
2.0810923e-06
1.5056063e-06
1.0203478e-06
6.2362733e-07
3.2673007e-07
1.0897706e-07
3.7616462e-08
0.00046177262
0.00043880641
0.00041588769
0.00039302628
0.00037029394
0.00034776603
0.00032553419
0.00030369001
0.00028232125
0.00026151295
0.00024134718
0.00022190142
0.00020324661
0.0001854458
0.00016855287
0.00015261147
0.00013765412
0.00012370157
0.00011076248
9.8833491e-05
8.7899601e-05
7.7934879e-05
6.8903521e-05
6.0761159e-05
5.3456387e-05
4.6932424e-05
4.1128844e-05
3.5983289e-05
3.1433105e-05
2.7416811e-05
2.3875389e-05
2.0753317e-05
1.7999366e-05
1.5567127e-05
1.34153e-05
1.1507761e-05
9.8134483e-06
8.306091e-06
6.9638423e-06
5.7688418e-06
4.7067516e-06
3.7663048e-06
2.9388654e-06
2.2181448e-06
1.5996068e-06
1.0814371e-06
6.6028689e-07
3.4520283e-07
1.1664877e-07
3.6362287e-08
0.00048278052
0.00046106199
0.00043925817
0.00041739105
0.00039551519
0.00037369728
0.00035201765
0.0003305584
0.00030940056
0.00028862483
0.00026831131
0.00024853823
0.00022938031
0.00021090748
0.00019318368
0.00017626563
0.00016020174
0.00014503113
0.0001307829
0.00011747559
0.000105117
9.3704171e-05
8.3223815e-05
7.3652913e-05
6.495965e-05
5.7104543e-05
5.0041769e-05
4.3720595e-05
3.8086872e-05
3.3084518e-05
2.8656934e-05
2.4748294e-05
2.1304679e-05
1.8275008e-05
1.5611768e-05
1.3271525e-05
1.1215237e-05
9.4083807e-06
7.8209186e-06
6.4271432e-06
5.205426e-06
4.1379158e-06
3.2101887e-06
2.4109957e-06
1.7316891e-06
1.1670412e-06
7.1132064e-07
3.7094247e-07
1.2680917e-07
3.5695983e-08
0.00050048966
0.00047990186
0.00045912865
0.00043820378
0.00041716628
0.00039607491
0.00037499941
0.00035401244
0.0003331875
0.00031259934
0.00029232374
0.00027243654
0.00025301232