/*--------------------------------*- C++ -*----------------------------------*\
  =========                 |
  \\      /  F ield         | OpenFOAM: The Open Source CFD Toolbox
   \\    /   O peration     | Website:  https://openfoam.org
    \\  /    A nd           | Version:  6
     \\/     M anipulation  |
\*---------------------------------------------------------------------------*/
FoamFile
{
    version     2.0;
    format      ascii;
    class       volSymmTensorField;
    location    "311";
    object      UPrime2Mean;
}
// * * * * * * * * * * * * * * * * * * * * * * * * * * * * * * * * * * * * * //

dimensions      [0 2 -2 0 0 0 0];

internalField   nonuniform List<symmTensor> 
9200
(
(6.3841697e-05 -4.9554315e-05 2.3093612e-22 3.9766175e-05 -1.2341533e-22 3.7408743e-39)
(0.00039413117 -0.00031547068 5.9382291e-22 0.00025348239 -4.431108e-22 4.0699811e-39)
(0.00079815836 -0.00061860832 7.0963801e-23 0.00048229073 -5.3823391e-23 2.2312516e-39)
(0.00126034 -0.00091192301 -8.9709591e-22 0.00066736162 6.3020067e-22 4.4492107e-39)
(0.0017177036 -0.001173395 4.3878786e-23 0.00081567656 -3.5992281e-23 6.522102e-40)
(0.0021387156 -0.0013912373 3.7974557e-22 0.0009270022 -2.5142221e-22 1.0318194e-40)
(0.0025013298 -0.0015611915 -8.2979361e-23 0.001005076 5.700703e-23 2.9555291e-40)
(0.0027875675 -0.0016833447 7.5376753e-23 0.0010562297 -5.0356218e-23 1.9905311e-40)
(0.0029847417 -0.0017598881 3.6880793e-22 0.001086563 -2.231396e-22 5.6804907e-40)
(0.0030859576 -0.0017941253 2.875712e-23 0.001101271 -1.7482953e-23 1.6216876e-42)
(0.0030902109 -0.0017900096 -3.997356e-22 0.0011046502 2.4459049e-22 3.0538462e-40)
(0.003002389 -0.0017518565 3.3565089e-22 0.0011001466 -2.1286453e-22 4.2294365e-41)
(0.0028329187 -0.0016841615 -5.9948471e-22 0.0010904326 4.0149635e-22 6.5430902e-40)
(0.0025969133 -0.0015914889 -3.0512416e-22 0.0010775142 2.0831076e-22 4.2381081e-41)
(0.0023128404 -0.0014784011 7.9336781e-23 0.0010628493 -5.8354068e-23 5.3775094e-42)
(0.0020008275 -0.0013493951 -3.0020195e-22 0.0010474614 2.328621e-22 5.695191e-41)
(0.0016807385 -0.0012088453 2.6476823e-22 0.0010321036 -2.2242308e-22 6.8901307e-41)
(0.0013702313 -0.0010610252 1.9837109e-22 0.0010177999 -1.7439163e-22 2.7775328e-40)
(0.0010843979 -0.00090991003 -6.3806632e-24 0.0010058974 1.3921454e-23 5.1014998e-41)
(0.00083999582 -0.0007582316 -3.3740503e-24 0.00098636221 1.2222491e-23 6.3235752e-41)
(8.428475e-05 -5.6340629e-05 2.4031923e-23 3.8674269e-05 -9.1867068e-24 6.5838761e-41)
(0.00050298037 -0.00034856921 6.2886888e-22 0.00024230837 -4.0905696e-22 4.3409217e-39)
(0.0010016635 -0.00067345815 -2.0293786e-22 0.00045540358 1.3617241e-22 2.3576649e-39)
(0.0015381274 -0.00097471154 -1.6109462e-21 0.00062469523 1.0060254e-21 1.0296361e-38)
(0.0020391127 -0.0012317741 -5.649374e-23 0.0007575109 3.568268e-23 1.2988992e-40)
(0.0024679047 -0.0014342189 1.2496864e-21 0.00085492612 -7.3608405e-22 3.4081437e-39)
(0.002801537 -0.0015801369 -5.15299e-22 0.00092182596 3.00288e-22 1.1738723e-40)
(0.0030250384 -0.0016723158 -1.5577699e-22 0.00096509462 8.9991184e-23 4.191007e-41)
(0.0031318658 -0.0017154949 5.9363894e-22 0.00099102052 -3.4493437e-22 3.2070305e-40)
(0.0031237445 -0.0017152132 -7.2226914e-22 0.0010047433 4.2650372e-22 3.6878411e-40)
(0.0030100224 -0.0016772818 -5.1423075e-22 0.0010102953 3.1121476e-22 4.5445458e-40)
(0.0028066583 -0.0016074791 1.1153846e-21 0.0010106819 -7.0199348e-22 2.312106e-39)
(0.0025346515 -0.0015113954 5.2146815e-22 0.0010079899 -3.4928481e-22 1.6313451e-40)
(0.0022179403 -0.00139438 -8.2580656e-22 0.0010035164 5.9048655e-22 8.0332284e-40)
(0.0018810098 -0.0012615381 1.4911439e-22 0.00099789559 -1.1491922e-22 6.6750957e-41)
(0.0015465416 -0.001117738 -3.326535e-22 0.00099120975 2.8724816e-22 1.7882527e-40)
(0.0012334071 -0.00096761047 -1.37716e-22 0.00098311655 1.4013067e-22 5.6089297e-41)
(0.00095522968 -0.00081545574 4.2709295e-22 0.00097302091 -4.7250851e-22 9.0771669e-40)
(0.00072039252 -0.00066475146 2.0366421e-22 0.00095913957 -2.6830034e-22 1.7333707e-40)
(0.0005347305 -0.00051893826 -8.8781041e-23 0.00093237631 1.0955819e-22 1.2929022e-39)
(0.00010738776 -6.1173241e-05 -2.0236547e-22 3.5627691e-05 8.6129891e-23 1.6914674e-39)
(0.00061919516 -0.00036794507 -3.3778826e-22 0.00021922481 1.8765438e-22 1.7631932e-39)
(0.001211078 -0.00070013935 -3.8459848e-22 0.0004071303 2.2410046e-22 4.4072742e-39)
(0.0018105257 -0.00099583472 1.2907118e-23 0.0005542201 -7.0888715e-24 4.7863462e-43)
(0.002335564 -0.0012370913 1.2932521e-23 0.00066794742 -6.1942272e-24 3.1668149e-39)
(0.0027469491 -0.001415994 4.3774001e-22 0.0007506554 -2.3307876e-22 8.8572217e-40)
(0.0030246807 -0.0015336339 4.3136547e-23 0.00080794842 -2.1448602e-23 3.6661103e-40)
(0.0031613074 -0.0015956207 -7.4784983e-22 0.0008466673 4.0053032e-22 2.349517e-40)
(0.0031608954 -0.0016089875 8.8791165e-22 0.00087268344 -4.8728531e-22 4.4363577e-40)
(0.0030375338 -0.0015809807 2.9314071e-22 0.00089050768 -1.6874966e-22 4.8525781e-40)
(0.0028132551 -0.0015185755 -8.1005935e-22 0.00090338914 4.8681854e-22 1.0046835e-39)
(0.0025154588 -0.0014282785 -2.5531065e-22 0.00091344691 1.6428584e-22 3.2781162e-40)
(0.002173881 -0.0013161204 9.1782787e-23 0.00092182683 -6.3588083e-23 8.8693603e-40)
(0.0018174356 -0.001187748 2.2289585e-22 0.00092887729 -1.7132817e-22 1.280741e-40)
(0.0014713931 -0.001048529 -7.8662647e-23 0.00093432753 6.7456314e-23 9.7694937e-41)
(0.0011553233 -0.00090360731 1.8322209e-22 0.00093746574 -1.8141288e-22 7.792811e-41)
(0.00088205723 -0.00075788379 -1.2656649e-22 0.00093731554 1.4750705e-22 3.0057362e-41)
(0.00065769184 -0.00061588676 -2.6035438e-22 0.00093274644 3.5593941e-22 7.2652379e-40)
(0.00048259193 -0.00048144308 -9.6620001e-24 0.00092226646 1.0266971e-23 6.5075737e-40)
(0.00035351934 -0.00035811295 9.1023578e-23 0.00090270902 -1.9394016e-22 7.5231415e-41)
(0.00013237907 -6.3339098e-05 -1.6078204e-22 3.0896996e-05 5.9241228e-23 8.4006883e-40)
(0.0007368345 -0.00037036234 2.4759823e-22 0.00018661644 -1.2144217e-22 1.5712689e-40)
(0.0014138427 -0.00069407118 2.1958147e-22 0.00034285831 -1.0823875e-22 1.8154009e-40)
(0.0020590214 -0.00097138982 4.7869158e-22 0.00046422352 -2.2844394e-22 1.9573715e-39)
(0.0025846183 -0.0011879842 4.2199477e-22 0.00055794954 -2.0029224e-22 8.7083898e-40)
(0.0029529934 -0.0013392328 -7.4429739e-22 0.00062728674 3.5324696e-22 6.6577602e-40)
(0.0031520416 -0.0014292414 -4.1730982e-22 0.00067790014 2.0151669e-22 1.8957109e-40)
(0.0031866068 -0.0014658385 0 0.00071589451 0 0)
(0.0030751224 -0.0014574194 4.577531e-22 0.00074611024 -2.4791092e-22 2.4398658e-39)
(0.0028460321 -0.0014118877 -1.9961494e-22 0.0007719139 1.1723515e-22 9.2423486e-40)
(0.002533757 -0.0013363944 -1.174654e-21 0.00079536007 6.9810073e-22 8.2427214e-40)
(0.0021744648 -0.0012373931 -1.5064514e-22 0.00081737648 9.4594686e-23 1.6523757e-40)
(0.0018020239 -0.0011208461 5.8339277e-22 0.00083797447 -4.3199164e-22 1.114815e-39)
(0.0014446991 -0.0009924341 3.2170992e-23 0.00085648274 -2.1052978e-23 4.5970867e-40)
(0.001123064 -0.00085765837 -9.0893937e-24 0.00087179401 8.8405008e-24 3.2454038e-43)
(0.00084933535 -0.000721792 9.8157457e-23 0.00088261926 -1.126854e-22 5.7127794e-41)
(0.00062802098 -0.00058970153 2.2106246e-25 0.0008877143 2.3182166e-24 6.6561766e-41)
(0.00045751105 -0.00046560059 -1.7549733e-22 0.00088599053 2.9269096e-22 1.7567532e-40)
(0.00033204454 -0.0003527884 -9.8113269e-23 0.00087691467 2.0394598e-22 1.2202557e-40)
(0.00024382004 -0.00025370606 5.0391504e-23 0.00086168638 -1.5027127e-22 7.585296e-40)
(0.00015811916 -6.222772e-05 1.2160622e-22 2.4925312e-05 -3.8747586e-23 3.3047307e-40)
(0.0008485018 -0.00035370733 5.0684297e-22 0.00014781263 -2.021591e-22 2.9775022e-39)
(0.0015957204 -0.00065328119 4.013914e-22 0.00026934363 -1.6529475e-22 1.8896395e-40)
(0.0022646148 -0.00090150212 4.4606168e-22 0.00036428006 -1.8215067e-22 1.0474747e-39)
(0.0027660449 -0.0010882374 -6.8800429e-22 0.00043922417 2.8401567e-22 1.6507592e-39)
(0.0030692311 -0.0012122343 2.6952502e-23 0.00049774758 -8.6713517e-24 1.5702581e-40)
(0.0031750975 -0.0012797636 3.9610151e-23 0.00054485106 -1.7215271e-23 1.3246434e-42)
(0.0031046457 -0.0012995092 5.6501745e-22 0.00058529188 -2.6236379e-22 5.907172e-40)
(0.0028924526 -0.0012797803 7.6543903e-23 0.0006224167 -3.7716619e-23 5.3363838e-42)
(0.0025805493 -0.0012278828 -2.0626895e-22 0.00065811364 1.1638185e-22 3.1936019e-40)
(0.0022125018 -0.0011502561 6.7308226e-22 0.00069301941 -4.1567397e-22 2.2284977e-39)
(0.0018281994 -0.001052826 -4.9105691e-22 0.00072675061 3.2228623e-22 1.9355686e-40)
(0.0014599377 -0.00094133965 -9.2904594e-22 0.00075817405 7.2195162e-22 1.3717213e-39)
(0.0011302625 -0.00082151575 -3.0867837e-23 0.00078571351 2.8241867e-23 2.8980084e-42)
(0.00085167951 -0.0006989538 3.3412673e-22 0.00080767166 -3.7128785e-22 1.1073389e-39)
(0.00062791786 -0.00057885256 0 0.00082253963 0 0)
(0.00045616587 -0.00046565186 4.203373e-23 0.00082922437 -6.0338106e-23 2.8799201e-41)
(0.00032961729 -0.00036273646 -2.1404762e-23 0.00082709872 4.6387077e-23 4.2815614e-41)
(0.000239668 -0.00027230469 -2.1551548e-23 0.00081656525 4.6852377e-23 1.1284356e-41)
(0.00017755658 -0.00019534682 1.0530305e-23 0.00080102978 -4.3912354e-23 7.6949607e-41)
(0.00018321515 -5.7471204e-05 2.6600132e-22 1.8334396e-05 -6.8538553e-23 1.3364518e-39)
(0.00094635991 -0.00031765797 2.6238887e-23 0.00010692176 -8.6125252e-24 2.4745819e-42)
(0.0017430653 -0.00057936783 -7.5390092e-23 0.0001942322 2.5451362e-23 1.0958509e-41)
(0.0024112582 -0.00079117613 7.8432004e-23 0.00026446472 -2.5210364e-23 2.1645417e-40)
(0.0028659596 -0.00094707155 -4.7443701e-22 0.00032317154 1.6622807e-22 4.0623612e-40)
(0.0030888041 -0.0010482903 -2.2880211e-22 0.00037361438 8.3165287e-23 3.6775843e-41)
(0.0030978999 -0.0011015561 1.6333537e-22 0.00041956106 -5.0041967e-23 1.1565781e-39)
(0.0029321576 -0.0011145307 -5.876738e-24 0.00046407182 6.6625722e-24 9.0468996e-41)
(0.0026412708 -0.0010938823 -3.886386e-22 0.00050880419 1.9241359e-22 9.5721381e-40)
(0.0022772724 -0.0010453152 6.7597808e-22 0.00055406782 -3.5022184e-22 2.8374861e-40)
(0.0018875859 -0.00097412675 -1.842376e-23 0.00059905503 2.557136e-23 4.9694752e-40)
(0.0015101453 -0.00088570604 -5.3998091e-22 0.00064212637 3.906528e-22 1.3738201e-39)
(0.001170974 -0.00078574389 0 0.00068116566 0 0)
(0.00088416942 -0.00068008436 1.3274879e-22 0.00071397638 -1.4945064e-22 7.3587321e-40)
(0.00065375023 -0.00057430818 6.8781563e-24 0.00073866278 -1.414889e-23 4.0255865e-41)
(0.00047652052 -0.00047323162 -1.6196162e-22 0.0007539349 2.526965e-22 8.5638455e-40)
(0.00034510847 -0.00038049906 -3.6688837e-23 0.00075925417 6.5269339e-23 1.7965805e-41)
(0.0002505527 -0.00029839962 -1.1391388e-23 0.00075475504 3.0540322e-23 2.87164e-41)
(0.00018403628 -0.00022797324 -1.4829674e-23 0.00074168701 4.1209985e-23 1.1212423e-41)
(0.00013777983 -0.0001691509 2.6919844e-23 0.00072420251 -1.0103065e-22 1.0697696e-40)
(0.0002061764 -4.9036082e-05 1.0250939e-22 1.1863293e-05 -1.9723936e-23 2.1164812e-40)
(0.001023141 -0.00026391641 -7.3692665e-22 6.8317345e-05 1.8543148e-22 4.6025496e-39)
(0.0018446818 -0.00047747256 -6.4589375e-23 0.00012502015 1.8362794e-23 4.2975968e-40)
(0.002488134 -0.00064964111 -1.957043e-22 0.00017394305 5.7712196e-23 2.1614407e-39)
(0.0028787347 -0.00077758063 -1.4884773e-22 0.00021932432 4.1259268e-23 2.9948591e-41)
(0.0030152664 -0.00086317995 -8.4321921e-22 0.00026368145 2.6086787e-22 3.9732689e-40)
(0.0029350676 -0.00091135392 -4.1411558e-22 0.00030934273 1.4553405e-22 3.196429e-40)
(0.0026939107 -0.00092684425 8.0368744e-22 0.00035768517 -3.0192331e-22 2.5994568e-40)
(0.0023528668 -0.0009135157 1.3797103e-22 0.00040876195 -7.0670128e-23 3.2765402e-40)
(0.0019685557 -0.00087506188 -1.7745243e-22 0.00046140015 8.0314053e-23 1.1225377e-40)
(0.0015866029 -0.00081575962 8.285298e-23 0.00051346787 -3.0563763e-23 4.2040451e-40)
(0.0012385123 -0.00074077879 -1.6249471e-23 0.00056225939 2.1053062e-23 1.0656179e-40)
(0.00094168064 -0.00065596868 0 0.00060497117 0 0)
(0.0007017205 -0.00056726366 8.9337869e-23 0.00063918041 -9.2180413e-23 2.6023716e-41)
(0.00051595426 -0.00047997619 -1.9088168e-22 0.00066322359 2.4686814e-22 3.5329797e-40)
(0.00037699869 -0.00039823503 -6.2117964e-23 0.00067640124 9.4155971e-23 3.0583458e-41)
(0.00027570555 -0.00032471218 1.0816098e-22 0.00067895658 -2.1347785e-22 4.2124801e-40)
(0.00020314945 -0.00026066733 -2.3412214e-23 0.00067183523 3.1275245e-23 9.0187723e-41)
(0.00015164063 -0.00020628871 -1.3288909e-24 0.0006568902 -2.8105593e-24 1.0114709e-41)
(0.00011496682 -0.00016099593 2.4761224e-23 0.0006380999 -7.2453971e-23 9.3537503e-42)
(0.0002255817 -3.7254764e-05 7.4513348e-23 6.2692597e-06 -9.774506e-24 1.3254166e-40)
(0.0010730729 -0.00019606789 -6.8473224e-22 3.6021448e-05 1.2334283e-22 2.1116768e-39)
(0.0018932038 -0.00035560057 -5.3487148e-22 6.8006767e-05 1.0601472e-22 2.5263119e-39)
(0.0024908663 -0.0004889315 7.6836052e-22 9.9761878e-05 -1.6015611e-22 6.2042039e-40)
(0.0028071879 -0.0005945455 5.8195393e-22 0.00013427073 -1.3048821e-22 1.2985552e-40)
(0.0028608953 -0.00067250453 -4.2824249e-22 0.00017328944 9.4149588e-23 1.3422538e-39)
(0.0027078249 -0.00072366 1.3917367e-22 0.00021795707 -5.2666438e-23 5.6804755e-40)
(0.0024168901 -0.00074845197 8.1987862e-22 0.00026831115 -2.8877211e-22 6.4177205e-40)
(0.0020550489 -0.0007475056 3.6042961e-22 0.0003230728 -1.4074759e-22 8.1510277e-41)
(0.0016778049 -0.00072273495 -3.5531988e-22 0.00037978641 1.7978169e-22 2.0953535e-40)
(0.0013245477 -0.00067787505 -4.8303955e-22 0.00043519984 2.8515932e-22 2.5244822e-40)
(0.0010181085 -0.00061823352 -1.3203778e-23 0.00048582092 9.4450928e-24 2.6330509e-43)
(0.00076733421 -0.00054987754 1.3966103e-22 0.00052852809 -1.2083294e-22 4.0963394e-41)
(0.00057116797 -0.00047863736 -5.1297613e-24 0.00056107356 1.5817191e-23 6.1411134e-41)
(0.00042285637 -0.00040929073 -5.6649245e-24 0.00058235916 2.5766078e-23 1.662108e-40)
(0.00031337254 -0.00034513436 4.4242435e-24 0.00059244873 -3.3692931e-23 3.0025203e-40)
(0.00023369622 -0.00028795502 4.9824924e-23 0.0005923421 -9.7211585e-23 8.8504683e-41)
(0.00017602425 -0.00023829672 -2.8598893e-23 0.00058360087 8.1856688e-23 2.2977479e-40)
(0.00013416794 -0.00019592856 -7.2921677e-23 0.00056833237 1.9865241e-22 4.4719305e-40)
(0.00010340202 -0.00016018563 2.4117715e-23 0.00054982857 -5.8161452e-23 1.0186254e-41)
(0.00024030924 -2.2800255e-05 -1.9425692e-22 2.2199175e-06 1.6193144e-23 3.9611211e-40)
(0.0010926689 -0.00011913198 -1.5437535e-22 1.3149662e-05 1.6516954e-23 4.2772959e-40)
(0.0018858502 -0.00022352359 1.177165e-21 2.7500474e-05 -1.4903294e-22 5.2222114e-39)
(0.0024217723 -0.00032215918 8.7951496e-22 4.6125571e-05 -1.2663109e-22 5.7251635e-40)
(0.0026616809 -0.00041233454 3.9560453e-22 7.1287745e-05 -6.1583705e-23 2.8078708e-40)
(0.0026442453 -0.00048973322 7.9910361e-23 0.00010447756 -1.6205426e-23 2.7252241e-42)
(0.0024402805 -0.0005494771 -7.5215443e-22 0.00014627938 1.6532298e-22 1.1741883e-39)
(0.0021262876 -0.00058717482 0 0.00019591264 0 0)
(0.0017692654 -0.00060052133 -4.6255456e-22 0.00025108977 1.9752458e-22 9.7173274e-40)
(0.0014190258 -0.0005902964 -7.9844663e-23 0.00030829475 5.1633077e-23 2.1975497e-40)
(0.0011063778 -0.00056022155 2.276225e-22 0.0003634015 -1.3033197e-22 5.4676662e-41)
(0.00084547528 -0.00051592567 2.472175e-23 0.00041245682 -3.0838627e-23 1.2088104e-40)
(0.00063833198 -0.00046356654 -1.0923317e-22 0.00045238442 1.0534963e-22 1.4126928e-40)
(0.00047969699 -0.00040862962 -8.2655187e-23 0.00048141146 1.0635161e-22 3.0139251e-40)
(0.00036110313 -0.00035521369 5.3005085e-23 0.00049914546 -5.3370231e-23 3.7130452e-41)
(0.00027360442 -0.00030584843 7.3632236e-23 0.00050635429 -9.3888745e-23 3.4686584e-41)
(0.00020926083 -0.00026169925 -6.585633e-23 0.00050456786 1.0754082e-22 3.2444149e-41)
(0.0001617064 -0.00022296542 -8.8702261e-23 0.00049564687 1.8760184e-22 3.7432672e-40)
(0.00012616258 -0.00018934553 6.689887e-24 0.00048162349 -1.5123219e-24 4.3719228e-41)
(9.9113555e-05 -0.00016030201 1.2193799e-23 0.00046490268 -3.9957207e-23 5.1701755e-41)
(0.00024950148 -6.5787093e-06 -1.2815741e-22 1.9897406e-07 3.2657019e-24 1.9376094e-40)
(0.001080771 -3.8930495e-05 5.4908971e-22 1.5366952e-06 -1.9623674e-23 1.075074e-39)
(0.0018243991 -9.1628179e-05 8.3930077e-22 5.4241547e-06 -5.1446452e-23 7.7942174e-39)
(0.0022892847 -0.00016204962 -9.8776524e-22 1.426544e-05 8.4560703e-23 2.1487577e-39)
(0.0024582669 -0.00024349873 3.5825746e-22 3.0648114e-05 -3.8941475e-23 5.4671441e-41)
(0.0023869569 -0.00032530013 1.482142e-22 5.6705354e-05 6.3659858e-25 1.9820344e-39)
(0.0021556443 -0.00039616718 3.8864364e-23 9.3268038e-05 -7.7995105e-24 7.2509677e-43)
(0.0018423705 -0.00044726142 -5.5434248e-22 0.00013924707 1.2685874e-22 6.7146426e-40)
(0.0015093006 -0.00047420043 -1.2609942e-23 0.00019162136 4.3178225e-24 1.0924321e-43)
(0.0011979086 -0.00047738936 2.0776517e-22 0.00024603379 -1.0679259e-22 2.5564282e-40)
(0.00093016027 -0.00046089445 1.6394264e-23 0.00029776534 -1.644092e-23 3.6452956e-41)
(0.00071304702 -0.00043062691 -7.4792371e-23 0.0003427329 2.0399942e-23 4.7159744e-40)
(0.00054406771 -0.00039261157 -1.6752554e-22 0.00037818891 1.349439e-22 5.4186978e-41)
(0.00041601259 -0.00035181655 -1.1095032e-24 0.0004029685 1.2821304e-23 6.1413792e-41)
(0.00032033162 -0.00031167298 5.7031188e-23 0.00041732107 -7.3795373e-23 6.0355203e-41)
(0.00024905892 -0.00027413716 3.8073599e-23 0.00042249006 -5.9471452e-23 5.8425787e-41)
(0.00019563716 -0.00024004079 8.8371075e-24 0.00042022644 -2.8092267e-23 9.4291435e-41)
(0.00015507366 -0.00020951626 -6.0645288e-23 0.00041238542 8.4779071e-23 7.6443207e-41)
(0.0001237641 -0.00018237335 -1.215616e-23 0.00040070116 -7.7574985e-24 3.2326668e-40)
(9.9115279e-05 -0.00015823594 3.3933748e-23 0.00038670587 -1.0248887e-22 5.342711e-40)
(1.657533e-06 -2.0719254e-07 1.6560663e-23 2.5299529e-07 -3.313215e-24 1.8933102e-40)
(7.8120051e-06 -3.2698206e-06 -2.3632586e-23 1.6796588e-06 6.5482999e-24 1.8226396e-40)
(1.7498405e-05 -7.5564032e-06 5.2489415e-23 3.3487751e-06 -1.9678313e-23 1.0470219e-39)
(5.6101577e-05 -1.5948497e-05 1.4656711e-22 4.8040981e-06 -3.1288519e-23 3.5208922e-39)
(0.00012313564 -2.6317136e-05 -1.0476559e-22 6.1142158e-06 1.7875928e-23 9.157806e-40)
(0.00022011395 -3.7934729e-05 1.3211774e-22 7.2804448e-06 -1.7975769e-23 1.0118556e-39)
(0.00035024113 -5.0410216e-05 -1.8161941e-22 8.3043306e-06 2.3138926e-23 1.1116697e-39)
(0.00051441295 -6.3352083e-05 -1.8743426e-22 9.2067743e-06 1.9680068e-23 1.1752032e-39)
(0.0007119164 -7.6442509e-05 2.3622243e-22 1.001025e-05 -2.4622221e-23 1.2429258e-39)
(0.00094150942 -8.944733e-05 -1.836612e-22 1.0732227e-05 1.804772e-23 6.3314635e-40)
(0.0012016255 -0.00010219025 -9.131449e-24 1.1385943e-05 1.5311941e-25 7.3559081e-42)
(0.0014903984 -0.00011453461 5.3184658e-23 1.1981517e-05 -5.6896263e-24 2.3339689e-41)
(0.001805752 -0.00012637272 -9.1243428e-24 1.2526692e-05 4.4507474e-25 3.692766e-42)
(0.0021454857 -0.00013761918 2.9026647e-22 1.3027685e-05 -2.6191362e-23 1.1095955e-39)
(0.0025073254 -0.00014820893 3.1113924e-25 1.3490245e-05 5.4900486e-25 2.3934814e-42)
(0.0028889749 -0.00015810122 -4.2999892e-22 1.3920718e-05 4.0366031e-23 2.2830812e-39)
(0.0032881854 -0.00016728308 8.0141317e-23 1.4325895e-05 -8.4200033e-24 4.8300985e-41)
(0.0037027656 -0.0001757536 1.9543684e-22 1.471078e-05 -1.9339794e-23 5.8060361e-40)
(0.0041305394 -0.0001835476 -3.1940022e-22 1.5080338e-05 3.3708149e-23 1.6460166e-39)
(0.0045690183 -0.00019090289 -1.7792495e-22 1.543107e-05 1.9924805e-23 6.1797758e-40)
(1.8772696e-06 -8.6658874e-07 5.4588179e-24 2.2262536e-06 -2.0213298e-24 1.8766525e-41)
(9.9588211e-06 -1.1204369e-05 -1.4966899e-22 1.4801266e-05 1.1284562e-22 6.0954808e-39)
(2.2348546e-05 -2.5439186e-05 2.9698717e-23 2.9501621e-05 -2.4553553e-23 5.5014957e-40)
(6.60124e-05 -5.1638202e-05 1.5773294e-22 4.2325394e-05 -9.6971314e-23 2.9430658e-39)
(0.00013892126 -8.354542e-05 2.1927938e-22 5.3845928e-05 -1.05525e-22 3.3281345e-39)
(0.00024212265 -0.00011902354 2.6534078e-23 6.4058655e-05 -1.0661478e-23 3.1266341e-41)
(0.00037845326 -0.00015690462 -7.0610692e-22 7.2979595e-05 2.4526946e-22 1.6647974e-38)
(0.00054836434 -0.00019603072 -2.4969821e-23 8.0794077e-05 1.0372095e-23 4.8298981e-42)
(0.00075074431 -0.00023546815 4.0070301e-22 8.7699591e-05 -1.2243675e-22 2.842575e-39)
(0.00098398701 -0.00027452868 -9.6844362e-23 9.3849927e-05 2.6850583e-23 1.5805585e-40)
(0.0012461649 -0.00031269233 -3.6848077e-22 9.936161e-05 1.0139395e-22 1.7539945e-39)
(0.001535046 -0.00034955419 7.7678348e-23 0.00010432308 -1.9950249e-23 7.9855977e-41)
(0.0018481801 -0.00038479264 3.2831353e-22 0.00010880089 -7.3851462e-23 1.8804271e-39)
(0.0021829749 -0.00041814916 1.3629133e-22 0.00011284697 -3.403439e-23 2.1492716e-40)
(0.0025367336 -0.00044942096 2.7379587e-22 0.00011650767 -7.3085578e-23 6.2217564e-40)
(0.0029067048 -0.00047847164 -2.1705034e-22 0.00011983284 5.4784919e-23 5.2604951e-40)
(0.0032902109 -0.00050524495 -2.083185e-22 0.00012287663 5.2010199e-23 5.7529953e-40)
(0.0036845955 -0.00052971489 2.1167121e-22 0.0001256822 -5.9862744e-23 3.3308559e-40)
(0.0040864607 -0.00055197202 1.945658e-22 0.00012829831 -5.3610604e-23 5.8160702e-40)
(0.0044918134 -0.00057293012 7.6112609e-23 0.00013071304 -2.0115965e-23 2.4679735e-40)
(2.4129481e-06 -2.2179646e-06 4.2001396e-24 5.936929e-06 -2.1054197e-24 9.8850002e-42)
(1.5053918e-05 -2.3155214e-05 1.1368054e-22 3.9511119e-05 -1.2167669e-22 2.5978092e-39)
(3.3646343e-05 -5.1175077e-05 -2.4887127e-23 7.8695363e-05 3.2075424e-23 1.3605445e-40)
(8.791431e-05 -9.8042735e-05 -1.7139484e-22 0.00011286247 1.4437246e-22 3.2213027e-39)
(0.00017299086 -0.00015372275 6.3259964e-23 0.00014345175 -5.3160977e-23 9.1463166e-41)
(0.00028898551 -0.00021476397 8.3984536e-23 0.00017038426 -6.8315741e-23 4.8444046e-41)
(0.00043799251 -0.00027923655 -1.0444123e-22 0.00019369746 5.54732e-23 2.8711029e-40)
(0.00061962179 -0.00034526481 -2.7386212e-22 0.00021388444 1.6003411e-22 5.7527697e-40)
(0.00083199815 -0.00041134821 1.1990279e-22 0.00023146981 -5.8409455e-23 1.6052849e-40)
(0.0010728061 -0.00047637538 2.5478517e-22 0.0002468653 -1.0627099e-22 9.1110607e-40)
(0.0013394144 -0.00053949833 7.1665156e-23 0.00026038457 -4.9453765e-23 3.4426419e-41)
(0.0016288796 -0.00060004831 3.1224802e-22 0.00027226463 -1.0419638e-22 1.6902105e-39)
(0.0019380225 -0.000657484 2.6577418e-23 0.00028268065 -9.8808283e-24 7.0135941e-42)
(0.0022634903 -0.00071135667 -4.6634075e-22 0.00029176355 1.5815069e-22 2.7187935e-39)
(0.0026017739 -0.00076129634 3.4744057e-23 0.00029962408 -2.2676214e-23 1.5104478e-41)
(0.0029492591 -0.00080702992 -2.1891817e-22 0.00030637833 6.1369863e-23 1.0589546e-39)
(0.0033024709 -0.00084841397 -3.1069066e-22 0.00031215364 1.2273244e-22 4.3670433e-40)
(0.0036579359 -0.00088535304 5.0626448e-22 0.00031707601 -1.9651818e-22 1.4486918e-39)
(0.0040101908 -0.00091795742 2.6860497e-22 0.00032135303 -1.1031086e-22 2.9532234e-40)
(0.0043529761 -0.00094818908 5.3436391e-23 0.00032509681 -2.4072241e-23 6.3455263e-42)
(3.5543539e-06 -4.586649e-06 -6.2808482e-24 1.0931529e-05 7.9034854e-24 1.4522695e-41)
(2.4682714e-05 -4.1117701e-05 -2.6345882e-22 7.2894546e-05 3.3316121e-22 8.6217574e-39)
(5.4631329e-05 -8.8675738e-05 -1.9122617e-23 0.00014507052 2.4574841e-23 1.1780329e-40)
(0.00012646167 -0.0001603862 4.4273319e-23 0.00020790868 -4.9007698e-23 7.5195088e-41)
(0.00023136254 -0.00024296016 -7.0759911e-24 0.00026389113 1.7937084e-24 1.9400002e-41)
(0.00036805501 -0.00033171172 2.2568112e-22 0.00031271372 -1.6553149e-22 1.416124e-39)
(0.00053748519 -0.00042394293 2.4983611e-22 0.00035441783 -1.6330514e-22 1.2865979e-39)
(0.00073800979 -0.00051712487 -7.5604584e-23 0.00038991108 3.660321e-23 2.0266984e-40)
(0.0009666027 -0.00060925439 -2.7818609e-22 0.00042016562 1.455383e-22 1.2891167e-39)
(0.001219862 -0.00069883368 -5.6245574e-22 0.00044595606 3.036927e-22 2.7355317e-39)
(0.0014940766 -0.00078470189 -1.1957618e-23 0.000467881 -6.6594918e-24 6.2383238e-41)
(0.0017852187 -0.00086592738 7.1789148e-22 0.00048639655 -3.3499698e-22 4.4698718e-39)
(0.0020890066 -0.00094173561 -2.9094929e-22 0.00050183836 1.1141444e-22 1.3206537e-39)
(0.0024009659 -0.001011467 -1.8879205e-22 0.00051445382 8.2798372e-23 2.6083737e-40)
(0.002716433 -0.0010745537 -2.3257089e-23 0.00052444196 2.5496935e-23 5.6258661e-41)
(0.0030306161 -0.0011305425 4.4958294e-22 0.00053199789 -1.9708586e-22 1.0707483e-39)
(0.003338983 -0.0011791602 -2.5572117e-22 0.00053733069 1.2757347e-22 7.253494e-41)
(0.0036371236 -0.0012202459 -5.8761478e-22 0.00054070793 2.4719623e-22 2.3046678e-39)
(0.003917209 -0.0012539407 3.9656982e-22 0.00054278584 -1.7208374e-22 1.1590784e-39)
(0.0041704825 -0.0012834328 3.4184408e-22 0.00054429244 -1.3684712e-22 1.077374e-39)
(5.6842638e-06 -8.1685527e-06 2.8210661e-23 1.6662701e-05 -2.741505e-23 1.8564214e-40)
(4.0962568e-05 -6.6264221e-05 9.0710458e-24 0.0001112705 -2.2845625e-24 8.40555e-41)
(8.958902e-05 -0.00014020968 -3.6378621e-22 0.00022108692 5.2059656e-22 7.0767787e-39)
(0.00018766469 -0.00024156003 -2.0896665e-22 0.00031639446 2.2190697e-22 2.1877368e-39)
(0.00032147485 -0.00035433165 1.3928542e-22 0.00040071623 -1.109093e-22 1.3220358e-39)
(0.00048784651 -0.00047260042 1.7377583e-22 0.00047333951 -1.4001897e-22 6.2298715e-40)
(0.00068607173 -0.0005928607 -2.2600975e-22 0.00053429659 1.4764852e-22 1.4573841e-39)
(0.00091276905 -0.00071200358 -3.4495791e-22 0.00058499167 1.9807647e-22 3.1980685e-39)
(0.0011633023 -0.0008276045 5.1226936e-22 0.00062694336 -3.060941e-22 3.2826437e-39)
(0.0014327367 -0.00093783602 1.4651421e-22 0.0006613885 -5.937478e-23 7.6382836e-40)
(0.0017158465 -0.0010412637 -4.6594945e-22 0.00068930785 3.0784381e-22 2.5568507e-40)
(0.0020071128 -0.001136723 2.0363833e-22 0.00071146689 -9.2701122e-23 5.8829356e-40)
(0.0023008061 -0.0012232401 0 0.00072844512 0 0)
(0.0025910552 -0.0012999772 1.996627e-22 0.00074067579 -9.731755e-23 2.3046696e-40)
(0.0028718719 -0.0013662054 -1.5017483e-22 0.00074849992 7.1370491e-23 1.2308956e-40)
(0.0031372495 -0.0014213282 -2.3084972e-22 0.0007522255 1.1507505e-22 1.4973052e-40)
(0.0033817455 -0.0014649836 8.5860418e-23 0.0007521455 -6.9319079e-23 2.1002544e-40)
(0.0036004782 -0.0014970514 -6.9712972e-23 0.00074867933 4.1403221e-23 7.6413691e-42)
(0.0037838852 -0.0015178684 3.3581866e-22 0.0007432833 -1.4522106e-22 1.2468712e-39)
(0.0039205106 -0.0015317238 -2.7189523e-22 0.00073830779 1.3264317e-22 7.330952e-41)
(9.2464313e-06 -1.3026645e-05 2.7052708e-23 2.2589118e-05 -2.2745028e-23 1.490658e-40)
(6.6288506e-05 -9.8824761e-05 1.3068944e-22 0.00015077474 -1.7395314e-22 5.5800815e-40)
(0.00014325965 -0.00020605187 -1.7544189e-22 0.00029867475 2.3266893e-22 1.3275758e-39)
(0.00027785947 -0.0003415028 -2.8873371e-22 0.00042633959 3.245592e-22 1.1131749e-39)
(0.00045056018 -0.00048699912 -8.6032823e-23 0.00053821455 1.2528032e-22 8.7824324e-40)
(0.00065563096 -0.00063528798 -2.6150411e-22 0.0006330602 2.2952678e-22 5.4663113e-40)
(0.00089005066 -0.00078200893 -1.2123399e-22 0.00071094757 7.4658045e-23 6.3088112e-40)
(0.0011481235 -0.00092357612 2.1055676e-22 0.00077386241 -1.2667138e-22 1.1637651e-39)
(0.0014230804 -0.0010572708 5.0473939e-22 0.00082396624 -3.0085093e-22 3.9851587e-39)
(0.0017079723 -0.0011810573 1.5597869e-22 0.00086307052 -9.5959595e-23 1.6722462e-40)
(0.0019956742 -0.0012933567 -1.4821692e-22 0.00089265673 7.8720716e-23 2.6516063e-40)
(0.0022789056 -0.0013929107 -2.7186537e-23 0.00091392056 -6.0955581e-24 2.3087682e-40)
(0.0025503703 -0.0014786981 -7.0995504e-22 0.00092780348 3.881129e-22 2.2011086e-39)
(0.0028028949 -0.0015498811 -2.2082505e-22 0.00093503702 1.1538045e-22 2.2765986e-40)
(0.0030295268 -0.0016057751 3.7113657e-22 0.00093620257 -2.1392374e-22 1.089742e-40)
(0.0032237015 -0.001645862 -3.7056665e-22 0.00093179115 1.996805e-22 2.2591634e-40)
(0.0033800164 -0.0016698943 -1.3094522e-22 0.00092218556 6.4356316e-23 7.2045721e-41)
(0.0034945279 -0.0016780054 2.9421397e-22 0.00090785411 -1.2426389e-22 1.1186384e-39)
(0.0035579852 -0.0016710315 4.4801392e-22 0.0008911593 -2.231791e-22 8.4968528e-40)
(0.0035564843 -0.0016540112 5.4482495e-23 0.00087732377 -2.5416638e-23 1.653036e-41)
(1.4713773e-05 -1.9095365e-05 -7.6293298e-23 2.8219494e-05 6.1940588e-23 8.8193536e-40)
(0.00010305141 -0.00013806399 -8.4406097e-23 0.00018774511 8.5625508e-23 7.0296654e-40)
(0.00022012905 -0.00028434511 2.1532453e-22 0.00037013698 -2.7161613e-22 3.2619579e-40)
(0.00040251593 -0.00045691812 3.2767975e-22 0.00052630045 -3.3909616e-22 1.4755008e-39)
(0.00062391372 -0.00063583655 4.2809611e-24 0.00066143939 -3.8516152e-24 2.9277291e-43)
(0.00087515789 -0.0008124092 -8.9103359e-22 0.0007738212 7.3447232e-22 8.6132404e-39)
(0.0011501238 -0.00098143652 -3.5064896e-22 0.00086370868 2.9935343e-22 1.2444172e-40)
(0.0014401958 -0.0011390409 2.7173893e-22 0.00093378839 -1.8313983e-22 9.4496055e-40)
(0.0017360239 -0.0012824469 3.1250334e-22 0.00098697243 -2.095544e-22 5.7821889e-40)
(0.0020283618 -0.0014096677 -3.0599295e-22 0.0010257642 1.7036293e-22 1.5862255e-39)
(0.002308089 -0.001519255 -9.0390919e-22 0.0010522722 5.6907923e-22 2.3158672e-39)
(0.0025663354 -0.0016101592 5.9561852e-22 0.0010682488 -3.5999266e-22 9.5219796e-40)
(0.0027947335 -0.0016816475 3.54655e-22 0.0010751226 -1.8483401e-22 1.1391016e-39)
(0.0029856799 -0.0017332517 -4.9332774e-22 0.0010740441 2.7154524e-22 9.4085852e-40)
(0.0031325516 -0.0017647354 2.1739763e-22 0.0010659419 -1.249626e-22 6.3299209e-41)
(0.0032299465 -0.0017760803 3.6146075e-22 0.0010515679 -1.8575656e-22 7.0059326e-40)
(0.0032745319 -0.0017675309 1.3807206e-22 0.0010314024 -7.7442789e-23 2.3971139e-41)
(0.0032656515 -0.0017397429 -2.3702912e-22 0.0010057616 1.4533736e-22 3.0621877e-41)
(0.0031976545 -0.0016942735 -5.5492798e-23 0.00097753977 1.8307364e-23 1.7335118e-40)
(0.003055831 -0.0016363058 3.1181136e-22 0.000955632 -1.7900601e-22 7.1251982e-41)
(2.2552994e-05 -2.6181963e-05 -2.2225158e-24 3.3117656e-05 -2.4510605e-24 1.6546657e-41)