/*--------------------------------*- C++ -*----------------------------------*\
  =========                 |
  \\      /  F ield         | OpenFOAM: The Open Source CFD Toolbox
   \\    /   O peration     | Website:  https://openfoam.org
    \\  /    A nd           | Version:  6
     \\/     M anipulation  |
\*---------------------------------------------------------------------------*/
FoamFile
{
    version     2.0;
    format      ascii;
    class       surfaceScalarField;
    location    "188";
    object      phi;
}
// * * * * * * * * * * * * * * * * * * * * * * * * * * * * * * * * * * * * * //

dimensions      [0 3 -1 0 0 0 0];

internalField   nonuniform List<scalar> 
18180
(
0.00031872921
-0.00016316003
-0.00015556917
0.0013092108
-0.0013669159
0.0003764343
0.0030328871
-0.0033336199
0.0016099436
0.0055497726
-0.0059759592
0.0034590737
0.0089181953
-0.0092390798
0.005870657
0.01319281
-0.01307953
0.0088049153
0.018421938
-0.017459841
0.012230713
0.024644599
-0.0223458
0.016123139
0.031887363
-0.027703317
0.020460554
0.040161272
-0.033495808
0.0252219
0.049459156
-0.039682441
0.030384557
0.059753708
-0.046217212
0.03592266
0.070996716
-0.053048852
0.041805844
0.08311992
-0.060121588
0.047998384
0.096038092
-0.067376841
0.054458669
0.10965488
-0.074756002
0.061139216
0.12387081
-0.082204094
0.067988162
0.13859854
-0.089674078
0.07494635
0.15383663
-0.097148824
0.081910726
-0.10462596
0.088678881
0.16978371
0.00039749701
-0.00056065704
0.0016095944
-0.0025790133
0.0036893174
-0.0054133428
0.0066874423
-0.0089740842
0.01065065
-0.013202287
0.015617866
-0.018046746
0.021616254
-0.023458229
0.028657251
-0.029386797
0.036732937
-0.035779003
0.045813135
-0.042576007
0.055843678
-0.049712984
0.066746192
-0.057119726
0.078419647
-0.064722308
0.090743762
-0.072445702
0.10358405
-0.080217126
0.11679789
-0.087969848
0.13024076
-0.095646963
0.14377296
-0.10320628
0.15725856
-0.11063442
-0.11786189
0.17049449
0.00048062335
-0.0010412804
0.0019186979
-0.0040170879
0.004352478
-0.0078471229
0.0078165619
-0.012438168
0.012337662
-0.017723388
0.017929204
-0.023638287
0.024586244
-0.03011527
0.032281204
-0.037081757
0.040960833
-0.044458632
0.050544912
-0.052160086
0.060927057
-0.060095129
0.071977794
-0.068170462
0.083549785
-0.076294299
0.095484798
-0.084380715
0.10762167
-0.092354003
0.11980424
-0.10015242
0.13188799
-0.10773071
0.14374347
-0.11506176
0.1552487
-0.12213965
-0.12891428
0.16630109
0.0005661696
-0.00160745
0.0022279421
-0.0056788603
0.0050006104
-0.010619791
0.0088940091
-0.016331567
0.013905255
-0.022734634
0.020011878
-0.02974491
0.027166483
-0.037269875
0.035293411
-0.045208685
0.04428785
-0.053453071
0.054017769
-0.061890005
0.064328712
-0.070406071
0.075051122
-0.078892873
0.086009516
-0.087252692
0.09703249
-0.095403689
0.10796246
-0.10328397
0.11866395
-0.11085391
0.12902965
-0.1180964
0.13898297
-0.12501508
0.14847491
-0.13163159
-0.13794519
0.15750582
0.00065088616
-0.0022583361
0.0025243413
-0.0075523154
0.0056036337
-0.013699084
0.0098644636
-0.020592397
0.015264609
-0.02813478
0.021736407
-0.036216708
0.029182478
-0.044715946
0.03747489
-0.053501097
0.046457998
-0.062436179
0.055954832
-0.07138684
0.065776427
-0.080227665
0.075733007
-0.088849454
0.085645713
-0.097165398
0.095357391
-0.10511537
0.10474121
-0.11266779
0.11370619
-0.1198189
0.12219937
-0.12658958
0.13020456
-0.13302028
0.137738
-0.13916503
-0.14506757
0.14486038
0.00073063575
-0.0029889718
0.0027920859
-0.0096137656
0.0061265736
-0.017033571
0.010666711
-0.025132534
0.016322648
-0.033790717
0.022975241
-0.042869301
0.030474426
-0.052215131
0.038642395
-0.061669065
0.047281184
-0.071074968
0.056183729
-0.080289385
0.065146881
-0.089190818
0.073984594
-0.097687167
0.082539479
-0.10572028
0.090691297
-0.11326719
0.098361451
-0.12033794
0.1055133
-0.12697075
0.11214879
-0.13322507
0.1183024
-0.13917389
0.12403362
-0.14489625
-0.15046329
0.12942935
0.00080073111
-0.0037897029
0.0030139158
-0.01182695
0.0065328937
-0.020552549
0.011240051
-0.029839691
0.016992695
-0.039543362
0.023618543
-0.049495148
0.030918212
-0.0595148
0.038673315
-0.069424168
0.046658769
-0.079060422
0.054657394
-0.088288009
0.062474456
-0.097007879
0.069949953
-0.10516266
0.076966962
-0.11273729
0.0834551
-0.11975532
0.089389111
-0.12627195
0.094783316
-0.13236495
0.099683307
-0.13812506
0.1041565
-0.14364708
0.10828311
-0.14902286
-0.15433356
0.11215338
0.00085605862
-0.0046457616
0.0031720603
-0.014142952
0.0067872251
-0.024167714
0.011529801
-0.034582267
0.017203432
-0.045216993
0.023586546
-0.055878263
0.030439873
-0.066368127
0.037519326
-0.076503621
0.044591797
-0.086132893
0.051451002
-0.095147214
0.057930631
-0.10348751
0.063912776
-0.11114481
0.069330645
-0.11815516
0.074165694
-0.12459037
0.078440257
-0.13054651
0.082207338
-0.13613203
0.085539504
-0.14145723
0.088518563
-0.14662614
0.091227361
-0.15173166
-0.15685205
0.093745846
0.00089026228
-0.0055360238
0.0032482829
-0.016500973
0.0068576215
-0.027777053
0.011492463
-0.039217109
0.016906808
-0.050631338
0.022838893
-0.061810348
0.029023668
-0.072552901
0.035209249
-0.082689202
0.041173928
-0.092097572
0.046740396
-0.10071368
0.051784656
-0.10853177
0.056238408
-0.11559856
0.06008514
-0.12200189
0.063351249
-0.12785648
0.066094216
-0.13328948
0.068390058
-0.13842787
0.070321925
-0.1433891
0.071971238
-0.14827546
0.073411928
-0.15317235
-0.1581477
0.07470758
0.0008998181
-0.006435842
0.0032333802
-0.018834535
0.0067291634
-0.031272836
0.011111176
-0.043599121
0.016092484
-0.055612646
0.021384622
-0.067102486
0.026713884
-0.077882163
0.031839116
-0.087814434
0.036567086
-0.096825542
0.040762272
-0.10490887
0.044349475
-0.11211897
0.04730935
-0.11855844
0.049668406
-0.12436095
0.051485815
-0.12967389
0.052839526
-0.13464319
0.05381382
-0.13940217
0.054489711
-0.14406499
0.054938819
-0.14872456
0.055220547
-0.15345408
0.055380981
-0.15830813
-0.00020237824
0.00020237824
-2.3286037e-13
-0.00067774635
0.00047536812
2.5978296e-12
-0.0013424255
0.00066467918
4.3020719e-12
-0.0021322937
0.00078986821
5.5802887e-12
-0.0029957725
0.00086347878
6.9780367e-12
-0.0038907396
0.00089496703
8.4797582e-12
-0.0047822949
0.00089155533
9.8470917e-12
-0.0056408919
0.00085859701
1.0950225e-11
-0.0064408668
0.00079997489
1.1615862e-11
-0.0071592877
0.00071842084
1.1787853e-11
-0.0077750361
0.00061574837
1.1418432e-11
-0.0082680718
0.0004930357
1.0526396e-11
-0.0086188532
0.00035078137
9.1282955e-12
-0.0088079038
0.0001890506
7.2543644e-12
-0.0088155571
7.6533507e-06
5.054936e-12
-0.0086219806
-0.00019357657
2.4455427e-12
-0.0082074389
-0.00041454161
-4.5880187e-13
-0.0075518894
-0.0006555495
-3.5694803e-12
-0.0066345758
-0.00091731363
-7.0013307e-12
-0.0011862304
-0.0054483454
-1.0799893e-11
-0.00018797445
0.00039035269
-0.00062500699
0.00091240065
-0.0012287532
0.0012684254
-0.0019351945
0.0014963095
-0.0026921392
0.0016204235
-0.0034562841
0.0016591119
-0.0041910672
0.0016263385
-0.0048648589
0.0015323888
-0.0054495242
0.0013846401
-0.0059192871
0.0011881838
-0.0062498159
0.00094627719
-0.0064174809
0.0006607007
-0.0063987498
0.00033205021
-0.0061697083
-3.9990844e-05
-0.0057057357
-0.00045631927
-0.0049814239
-0.00091788834
-0.0039707939
-0.0014251716
-0.0026472162
-0.0019791272
-0.00098326096
-0.0025812689
-0.0032017807
0.0010322894
-0.00015892785
0.00054928053
-0.00051889142
0.0012723642
-0.00100077
0.0017503039
-0.0015412594
0.0020367989
-0.0020873499
0.002166514
-0.0025937353
0.0021654973
-0.0030208684
0.0020534716
-0.0033332939
0.0018448142
-0.0034983026
0.0015496488
-0.0034848554
0.0011747366
-0.0032626996
0.00072412139
-0.0028016488
0.00019964995
-0.0020709496
-0.00039864907
-0.001038767
-0.0010721734
0.00032824405
-0.0018233304
0.002065216
-0.0026548603
0.0042090278
-0.0035689834
0.0067979992
-0.0045680986
0.0098718216
-0.0056550913
-0.0067797346
0.013449775
-0.00011756694
0.00066684748
-0.00036699851
0.0015217958
-0.0006735136
0.002056819
-0.00097482559
0.0023381109
-0.001216854
0.0024085424
-0.0013515942
0.0023002375
-0.00133546
0.0020373374
-0.001127829
0.0016371833
-0.00068984604
0.0011116658
1.6529131e-05
0.00046836143
0.0010293057
-0.00028865518
0.0023871089
-0.0011581533
0.0041297253
-0.0021412654
0.0062985841
-0.0032410321
0.0089372633
-0.0044620096
0.012092047
-0.0058096438
0.015812298
-0.007289235
0.020150161
-0.0089059616
0.025160346
-0.010665276
-0.012492611
0.030873223
-6.6907632e-05
0.00073375511
-0.0001791665
0.0016340547
-0.00026653382
0.0021441863
-0.00026769151
0.0023392685
-0.00012719437
0.0022680453
0.00020616666
0.0019668765
0.00078069312
0.001462811
0.0016429484
0.00077492799
0.0028387275
-8.4113308e-05
0.0044138427
-0.0011067538
0.0064146875
-0.0022895
0.0088886525
-0.0036321182
0.011884451
-0.005137064
0.015452449
-0.0068090302
0.019645039
-0.0086545998
0.02451726
-0.010681865
0.030127676
-0.012899651
0.036538885
-0.01531717
0.043818283
-0.017944675
-0.020682529
0.0520082
-9.9846259e-06
0.00074373974
3.4534969e-05
0.0015895351
0.00019989014
0.0019788312
0.00054676565
0.001992393
0.0011322469
0.001682564
0.0020109807
0.0010881426
0.0032361393
0.00023765244
0.0048603031
-0.00084923582
0.0069361187
-0.0021599289
0.0095166729
-0.0036873081
0.012655701
-0.0054285284
0.016407693
-0.0073841097
0.020827816
-0.0095571874
0.025971759
-0.011952973
0.031895629
-0.01457847
0.038656255
-0.017442491
0.046312369
-0.020555765
0.05492667
-0.023931471
0.064569653
-0.027587659
-0.031405581
0.075292706
5.0751294e-05
0.00069298844
0.00026565769
0.0013746287
0.00070825419
0.0015362347
0.00143903
0.0012616173
0.0025168197
0.00060477429
0.0039995653
-0.00039460302
0.0059449128
-0.001707695
0.0084106006
-0.0033149236
0.011454591
-0.0052039189
0.015135036
-0.0073677538
0.019510016
-0.0098035077
0.024637002
-0.012511097
0.030572132
-0.015492317
0.037369304
-0.018750144
0.045079244
-0.02228841
0.053748965
-0.026112212
0.063422577
-0.030229377
0.07414468
-0.034653574
0.085969306
-0.039412285
-0.044388487
0.098952213
0.00011379628
0.00057919217
0.00050850329
0.00097992165
0.001245982
0.00079875592
0.002386777
0.0001208223
0.0039912398
-0.00099968853
0.0061198744
-0.0025232375
0.0088333174
-0.004421138
0.012192162
-0.0066737682
0.016256552
-0.0092683093
0.021085439
-0.01219664
0.026735539
-0.015453608
0.033260012
-0.01903557
0.040706872
-0.022939176
0.049117176
-0.027160449
0.058523136
-0.03169437
0.068946485
-0.036535561
0.080398302
-0.041681194
0.092882126
-0.047137398
0.10640546
-0.05293562
-0.058995653
0.12101263
0.00017849578
0.00040069639
0.00076002974
0.0003983877
0.0018053385
-0.00024655288
0.003374713
-0.0014485521
0.0055289942
-0.0031539698
0.0083293175
-0.0053235608
0.011836487
-0.0079283078
0.016110055
-0.010947336
0.021207038
-0.014365292
0.027180297
-0.0181699
0.03407661
-0.022349921
0.041934468
-0.026893428
0.05078165
-0.031786358
0.060632581
-0.03701138
0.071485484
-0.042547273
0.083319373
-0.04836945
0.096091842
-0.054453662
0.10974041
-0.060785961
0.12419598
-0.067391194
-0.074274601
0.13947493
0.00024512722
0.0010199492
0.00238334
0.0043938615
0.0071105487
0.010591903
0.014894309
0.020070112
0.026165373
0.033217373
0.041252009
0.05028124
0.060300727
0.071287731
0.083199127
0.095968893
0.10950339
0.12366378
0.13818331
0.15258759
-0.0035077202
-0.0019406252
-2.122435e-11
-0.0012859354
-0.0022217847
-2.9296063e-11
0.0011946736
-0.002480609
-3.7153307e-11
0.0038772078
-0.0026825341
-4.5548671e-11
0.0067348634
-0.0028576555
-5.2480507e-11
0.0097503344
-0.003015471
-6.1575802e-11
0.012904686
-0.0031543519
-6.8087569e-11
0.016179896
-0.0032752101
-7.4181691e-11
0.019560263
-0.0033803668
-7.9153751e-11
0.023031568
-0.0034713047
-8.2672196e-11
0.026580524
-0.003548956
-8.4652831e-11
0.030194707
-0.0036141826
-8.4676948e-11
0.033862473
-0.003667766
-8.2569015e-11
0.037572826
-0.003710353
-7.792335e-11
0.041315315
-0.0037424885
-7.0701976e-11
0.045079967
-0.003764652
-6.0725582e-11
0.048857242
-0.0037772748
-4.8224234e-11
0.052637995
-0.0037807536
-3.3314159e-11
0.05641346
-0.0037754647
-1.6537216e-11
0.060175236
-0.003761776
1.649652e-12
0.063915291
-0.0037400554
2.0361215e-11
0.067625968
-0.0037106771
3.8817989e-11
0.071299994
-0.0036740256
5.5875503e-11
0.074930492
-0.0036304978
7.0606882e-11
0.078510995
-0.0035805031
8.1854224e-11
0.082035457
-0.0035244624
8.8852564e-11
0.085498263
-0.0034628057
9.0776443e-11
0.088894232
-0.0033959695
8.7386654e-11
0.092218625
-0.003324393
7.8522456e-11
0.095467139
-0.0032485142
6.4734357e-11
0.098635907
-0.0031687673
4.6670324e-11
0.10172148
-0.0030855784
2.5682696e-11
0.10472085
-0.0029993632
3.0596438e-12
0.10763137
-0.002910525
-1.9356962e-11
0.11045083
-0.0028194532
-4.0108896e-11
0.11317735
-0.0027265235
-5.7289397e-11
0.11580945
-0.0026320982
-6.9749746e-11
0.11834598
-0.0025365295
-7.5749961e-11
0.12078614
-0.0024401664
-7.4909402e-11
0.1231295
-0.0023433553
-6.5493114e-11
0.12537598
-0.0022464819
-4.7945533e-11
0.12752588
-0.0021498975
-2.1966791e-11
0.12958017
-0.0020542917
1.0409967e-11
0.13153982
-0.0019596531
4.7235988e-11
0.13340893
-0.0018691022
8.335548e-11
0.13518599
-0.0017770605
1.1274712e-10
0.13689545
-0.0017094663
1.2562236e-10
0.13849318
-0.0015977283
1.1391127e-10
0.14017998
-0.0016868031
6.5520491e-11
-0.0013310064
-3.8242323e-11
0.0028529016
-0.0037612375
0.0049500447
-0.0043189278
0.0072928998
-0.0048234641
0.009819025
-0.0052086593
0.012507359
-0.0055459896
0.015345576
-0.0058536885
0.018316936
-0.0061257118
0.021405032
-0.0063633058
0.024595845
-0.0065711795
0.027876612
-0.0067520718
0.031235201
-0.0069075456
0.034660132
-0.0070391134
0.038140547
-0.007148181
0.0416661
-0.0072359059
0.045226873
-0.0073032614
0.048813332
-0.0073511114
0.052416299
-0.0073802416
0.056026928
-0.0073913827
0.0596367
-0.0073852365
0.063237421
-0.0073624971
0.066821232
-0.0073238658
0.070380617
-0.0072700626
0.073908424
-0.0072018323
0.077397874
-0.007119948
0.080842581
-0.0070252104
0.084236564
-0.0069184451
0.087574256
-0.0068004975
0.090850514
-0.0066722271
0.09406062
-0.0065344998
0.097200287
-0.0063881805
0.10026565
-0.0062341269
0.10325325
-0.0060731815
0.10616005
-0.005906167
0.10898341
-0.005733882
0.11172105
-0.0055570982
0.11437109
-0.0053765604
0.11693198
-0.0051929886
0.11940254
-0.0050070825
0.12178191
-0.0048195367
0.12406959
-0.0046310405
0.12626547
-0.0044423648
0.12836979
-0.00425421
0.13038345
-0.0040679528
0.13230737
-0.0038835745
0.13414555
-0.0037072836
0.13589651
-0.0035280227
0.13758424
-0.0033971909
0.13916562
-0.0031791144
0.14083628
-0.003357459
-0.0026595587
0.015021109
-0.0053325706
0.016852205
-0.0061500241
0.018905738
-0.0068769967
0.021111778
-0.0074147
0.023458693
-0.0078929041
0.025942828
-0.008337824
0.028551566
-0.0087344498
0.031271427
-0.0090831664
0.03409131
-0.009391062
0.037000984
-0.0096617462
0.03999033
-0.0098968913
0.043049486
-0.01009827
0.046168928
-0.010267623
0.049339401
-0.010406379
0.052551875
-0.010515735
0.055797539
-0.010596775
0.059067802
-0.010650505
0.062354302
-0.010677883
0.065648917
-0.010679851
0.06894378
-0.010657361
0.072231306
-0.010611391
0.075504205
-0.010542962
0.078755513
-0.01045314
0.081978608
-0.010343043
0.085167232
-0.010213834
0.088315506
-0.01006672
0.091417946
-0.0099029374
0.09446947
-0.0097237505
0.097465401
-0.0095304316
0.10040148
-0.0093242567
0.10327384
-0.0091064895
0.10607903
-0.0088783746
0.10881399
-0.0086411283
0.11147604
-0.0083959319
0.11406287
-0.0081439286
0.11657254
-0.0078862229
0.11900343
-0.0076238839
0.1213543
-0.0073579526
0.12362423
-0.0070894636
0.12581264
-0.006819446
0.12791932
-0.0065490521
0.12994444
-0.0062793313
0.13188883
-0.006012341
0.13375333
-0.0057480707
0.13554178
-0.0054957338
0.13725279
-0.0052390394
0.13890939
-0.0050537895
0.14047081
-0.0047405259
0.14212202
-0.0050086756
-0.0039963483
0.03205651
-0.0065158578
0.033471703
-0.0075652169
0.035077202
-0.0084824957
0.03680003
-0.0091375287
0.038640874
-0.0097337481
0.040606031
-0.01030298
0.042688328
-0.010816747
0.044878243
-0.011273081
0.0471682
-0.011681019
0.049550969
-0.012044516
0.052018845
-0.012364767
0.05456387
-0.012643295
0.057178033
-0.012881787
0.059853293
-0.013081638
0.062581586
-0.013244028
0.065354868
-0.013370057
0.068165158
-0.013460795
0.07100458
-0.013517304
0.073865398
-0.01354067
0.076740063
-0.013532025
0.07962124
-0.013492569
0.082501851
-0.013423572
0.085375099
-0.013326389
0.088234504
-0.013202448
0.09107392
-0.01305325
0.093887559
-0.012880359
0.096670008
-0.012685386
0.099416236
-0.012469978
0.1021216
-0.0122358
0.10478187
-0.011984521
0.10739318
-0.011717797
0.10995206
-0.011437261
0.11245545
-0.01114451
0.11490061
-0.010841097
0.11728521
-0.010528526
0.11960724
-0.010208252
0.12186504
-0.0098816865
0.12405729
-0.0095502051
0.12618301
-0.0092151778
0.12824153
-0.0088779712
0.1302326
-0.0085401163
0.13215628
-0.0082030125
0.13401333
-0.0078693893
0.13580452
-0.007539269
0.13753354
-0.0072247467
0.13919916
-0.0069046646
0.14082304
-0.0066776652
0.14236787
-0.0062853579
0.14400338
-0.0066441828
-0.0053572691
0.052648488
-0.0071561458
0.053489069
-0.0084057974
0.054483177
-0.0094766035
0.055565124
-0.010219476
0.056749728
-0.010918352
0.058051282
-0.011604534
0.059468297
-0.012233762
0.060995905
-0.01280069
0.062629896
-0.013315009
0.064365671
-0.013780291
0.06619771
-0.014196806
0.068119744
-0.014565328
0.070125007
-0.01488705
0.072206398
-0.01516303
0.07435657
-0.0153942
0.076568009
-0.015581497
0.078833124
-0.01572591
0.081144321
-0.0158285
0.08349407
-0.015890419
0.085874968
-0.015912924
0.088279791
-0.015897391
0.090701534
-0.015845316
0.093133459
-0.015758314
0.095569124
-0.015638113
0.098002415
-0.015486541
0.10042756
-0.015305507
0.10283917
-0.015096991
0.10523221
-0.014863017
0.10760204
-0.014605636
0.10994442
-0.014326903
0.11225549
-0.014028864
0.11453176
-0.013713532
0.11677013
-0.013382883
0.11896787
-0.013038833
0.12112259
-0.012683244
0.12323225
-0.01231792
0.12529518
-0.011944608
0.12730999
-0.011565019
0.12927567
-0.011180858
0.13119153
-0.010793828
0.13305725
-0.01040584
0.13487288
-0.010018647
0.13663914
-0.0096356414
0.13835678
-0.0092569107
0.14002931
-0.0088972765
0.14165582
-0.0085311781
0.14325628
-0.0082781248
0.14479782
-0.0078268965
0.14643125
-0.0082776116
-0.0067655602
0.075221683
-0.0070851229
0.075326635
-0.0085107498
0.075550994
-0.0097009621
0.075851275
-0.010519757
0.076255513
-0.01132259
0.07678056
-0.012129582
0.077429453
-0.012882655
0.078202121
-0.013573357
0.079096872
-0.01420976
0.080110558
-0.014793978
0.081238936
-0.015325184
0.08247671
-0.015803102
0.083817694
-0.016228035
0.085255111
-0.016600446
0.086781781
-0.016920871
0.088390254
-0.01718997
0.09007291
-0.017408566
0.091822072
-0.017577661
0.093630094
-0.017698442
0.09548944
-0.01777227
0.097392743
-0.017800694
0.09933286
-0.017785433
0.10130292
-0.017728377
0.10329637
-0.017631559
0.10530698
-0.017497147
0.10732888
-0.017327414
0.10935661
-0.017124717
0.11138506
-0.016891471
0.11340956
-0.016630127
0.11542579
-0.016343138
0.11742987
-0.016032946
0.1194183
-0.015701959
0.12138795
-0.01535253
0.12333607
-0.014986954
0.12526028
-0.014607455
0.12715855
-0.014216187
0.12902918
-0.013815246
0.13087084
-0.013406679
0.13268252
-0.012992531
0.13446354
-0.012574851
0.13621363
-0.012155933
0.13793288
-0.011737892
0.13962201
-0.011324777
0.14128188
-0.010916779
0.14291588
-0.010531269
0.14452351
-0.010138811
0.1461229
-0.0098775132
0.14768633
-0.0093903299
0.14934326
-0.0099345449
-0.0082533348
0.098025212
-0.0061581223
0.097257932
-0.0077434698
0.096581634
-0.0090246641
0.09599719
-0.0099353123
0.095540727
-0.010866127
0.095223478
-0.011812333
0.095050811
-0.012709988
0.095026728
-0.013549274
0.095150761
-0.014333794
0.095419646
-0.015062862
0.095829021
-0.01573456
0.096373479
-0.016347559
0.097046532
-0.016901089
0.09784095
-0.017394863
0.098749047
-0.017828968
0.099762853
-0.018203775
0.10087423
-0.018519944
0.102075
-0.018778428
0.10335702
-0.018980468
0.10471232
-0.019127567
0.1061331
-0.019221477
0.10761185
-0.019264182
0.10914136
-0.019257882
0.11071476
-0.01920496
0.11232557
-0.019107961
0.11396772
-0.018969561
0.11563553
-0.01879253
0.11732377
-0.018579713
0.11902764
-0.018333989
0.12074274
-0.018058239
0.12246512
-0.017755334
0.12419126
-0.017428095
0.12591801
-0.017079284
0.12764265
-0.016711591
0.12936282
-0.016327621
0.13107653
-0.015929901
0.13278217
-0.015520885
0.13447847
-0.015102976
0.13616451
-0.014678576
0.13783975
-0.014250086
0.13950402
-0.013820202
0.14115754
-0.013391413
0.14280118
-0.012968419
0.14443596
-0.012551558
0.14606525
-0.012160567
0.14768913
-0.01176269
0.14932382
-0.011512195
0.15094722
-0.011013734
0.15266625
-0.011653572
-0.0098623524
0.11918898
-0.0043344756
0.11749637
-0.0060508628
0.11585685
-0.0073851427
0.11435432
-0.0084327799
0.11302501
-0.0095368221
0.11186645
-0.010653765
0.11088408
-0.011727624
0.1100842
-0.012749395
0.10946622
-0.01371581
0.10902554
-0.01462218
0.10875635
-0.015465368
0.10865198
-0.016243195
0.10870485
-0.016953957
0.10890664
-0.017596654
0.10924863
-0.018170956
0.10972187
-0.018677019
0.11031734
-0.019115415
0.11102604
-0.019487121
0.11183907
-0.019793498
0.11274775
-0.020036254
0.11374369
-0.020217414
0.1148188
-0.02033929
0.11596537
-0.020404453
0.11717611
-0.020415697
0.11844415
-0.020376004
0.11976309
-0.020288505
0.12112701
-0.020156448
0.12253045
-0.019983152
0.12396844
-0.019771974
0.12543648
-0.019526278
0.12693054
-0.019249397
0.12844706
-0.018944613
0.12998291
-0.018615135
0.1315354
-0.01826408
0.13310225
-0.01789447
0.13468158
-0.017509232
0.1362719
-0.017111209
0.13787211
-0.016703186
0.13948147
-0.016287938
0.14109964
-0.015868252
0.14272667
-0.015447237
0.14436304
-0.015027778
0.14600985
-0.01461523
0.14766841
-0.014210119
0.14934222
-0.013834372
0.15103199
-0.013452465
0.15275212
-0.013232322
0.15448639
-0.012748012
0.15631904
-0.013486218
-0.011643961
0.13689596
-0.0017555043
0.13437799
-0.0035329006
0.13181942
-0.0048265727
0.12946236
-0.0060757123
0.127334
-0.0074084643
0.12541572
-0.0087354912
0.12371036
-0.010022264
0.12222301
-0.011262038
0.1209521
-0.012444906
0.11989188
-0.013561956
0.11903483
-0.014608318
0.11837261
-0.015580973
0.11789622
-0.016477567
0.11759613
-0.017296568
0.11746248
-0.018037308
0.11748526
-0.018699796
0.11765445
-0.0192846
0.11796012
-0.019792795
0.11839255
-0.02022593
0.11894228
-0.020585987
0.1196002
-0.020875328
0.12035757
-0.02109666
0.12120611
-0.021252996
0.12213802
-0.021347604
0.12314599
-0.021383971
0.12422324
-0.021365755
0.12536352
-0.021296735
0.12656114
-0.021180774
0.12781094
-0.021021771
0.12910829
-0.020823624
0.13044908
-0.020590192
0.13182974
-0.02032527
0.13324716
-0.02003256
0.13469874
-0.019715656
0.13618231
-0.019378041
0.13769616
-0.019023083
0.13923901
-0.018654054
0.14080997
-0.018274148
0.14240859
-0.017886559
0.14403482
-0.01749448
0.14568904
-0.017101461
0.14737208
-0.016710811
0.1490854
-0.016328552
0.15083072
-0.015955437
0.15261176
-0.015615415
0.15443002
-0.015270731
0.15629817
-0.015100464
0.15820599
-0.014655834
0.16021545
-0.015495679
-0.0136582
0.15005209
0.00077999705
0.14676315
-0.00024395512
0.14346581
-0.0015292343
0.14041803
-0.0030279336
0.13762314
-0.0046135708
0.13507487
-0.0061872272
0.13277507
-0.0077224653
0.13072382
-0.0092107883
0.12891868
-0.010639767
0.12735445
-0.011997726
0.12602331
-0.013277172
0.12491584
-0.014473504
0.12402187
-0.015583599
0.12333074
-0.016605441
0.12283148
-0.01753804
0.12251296
-0.018381276
0.12236411
-0.019135754
0.12237402
-0.019802709
0.12253204
-0.020383948
0.12282784
-0.020881786
0.12325151
-0.021298996
0.1237936
-0.021638755
0.12444519
-0.021904587
0.12519791
-0.022100316
0.12604394
-0.022230008
0.12697611
-0.022297921
0.12798782
-0.022308448
0.12907311
-0.022266066
0.13022663
-0.022175289
0.13144363
-0.02204062
0.13271995
-0.021866511
0.13405201
-0.021657332
0.13543679
-0.021417341
0.1368718
-0.021150668
0.13835507
-0.020861305
0.1398851
-0.020553113
0.14146088
-0.020229834
0.14308185
-0.019895122
0.14474791
-0.019552618
0.14645939
-0.019205958
0.1482171
-0.018859171
0.15002229
-0.018516007
0.15187692
-0.018183182
0.15378317
-0.017861686
0.15574517
-0.017577409
0.15776509
-0.017290656
0.15985448
-0.017189851
0.16200757
-0.016808929
0.16426911
-0.017757218
-0.015970038
0.18890878
0.005382099
-0.19351088
0.18509874
0.0035660827
0.18170671
0.0018628001
0.17856158
0.00011719209
0.17562602
-0.0016780116
0.172875
-0.0034362018
0.17029028
-0.0051377493
0.16786288
-0.0067833885
0.16558892
-0.0083658023
0.16346623
-0.0098750412
0.16149297
-0.011303906
0.15966701
-0.012647547
0.15798572
-0.013902309
0.15644581
-0.015065526
0.15504335
-0.016135579
0.15377387
-0.0171118
0.15263245
-0.017994337
0.1516138
-0.018784057
0.15071234
-0.019482482
0.14992228
-0.02009173
0.14923774
-0.020614453
0.14865276
-0.021053772
0.14816139
-0.021413221
0.14775776
-0.021696687
0.1474361
-0.021908347
0.14719079
-0.02205261
0.14701639
-0.022134054
0.1469077
-0.022157372
0.14685973
-0.022127315
0.14686775
-0.02204864
0.1469273
-0.021926068
0.14703422
-0.021764245
0.14718458
-0.02156771
0.1473748
-0.021340879
0.14760152
-0.021088031
0.14786172
-0.020813309
0.14815263
-0.020520743
0.14847178
-0.020214272
0.14881699
-0.019897829
0.14918638
-0.019575347
0.14957839
-0.019251182
0.14999178
-0.018929399
0.15042579
-0.018617188
0.15087988
-0.018315782
0.15135468
-0.018052211
0.15185004
-0.017786013
0.15237043
-0.017710241
0.15291155
-0.017350047
0.15349636
-0.018342028
-0.016562647
0.21685767
0.0087804306
-0.220256
0.21338378
0.0070399707
0.21017097
0.0050756132
0.20706566
0.003222506
0.20401906
0.0013685851
0.20106214
-0.00047928033
0.19821177
-0.0022873863
0.19547248
-0.0040440964
0.19285016
-0.0057434818
0.19035164
-0.0073765239
0.18798213
-0.0089343919
0.18574502
-0.010410433
0.1836423
-0.011799589
0.18167467
-0.013097901
0.1798416
-0.014302512
0.17814147
-0.015411667
0.17657172
-0.016424591
0.17512905
-0.017341381
0.17380949
-0.018162927
0.1726086
-0.01889084
0.17152153
-0.019527382
0.17054315
-0.02007539
0.16966813
-0.020538204
0.16889105
-0.020919602
0.16820642
-0.021223725
0.16760883
-0.02145501
0.16709289
-0.021618118
0.16665339
-0.021717871
0.16628526
-0.021759189
0.16598365
-0.021747031
0.16574393
-0.021686344
0.1655617
-0.02158202
0.16543286
-0.021438862
0.16535354
-0.021261558
0.16532017
-0.021054667
0.16532948
-0.020822619
0.16537847
-0.020569733
0.16546444
-0.020300243
0.165585
-0.020018383
0.16573805
-0.019728397
0.16592184
-0.019434974
0.16613498
-0.019142536
0.16637645
-0.018858663
0.16664577
-0.018585097
0.16694277
-0.018349214
0.16726869
-0.018111936
0.16762275
-0.018064302
0.16801326
-0.01774055
0.16842215
-0.018750925
-0.017036452
0.24376659
0.011504385
-0.24649055
0.24091615
0.009890409
0.23806294
0.0079288241
0.23521598
0.0060694688
0.23233818
0.0042463888
0.22945036
0.0024085408
0.22658374
0.00057923218
0.22375762
-0.0012179774
0.22098792
-0.0029737797
0.21829057
-0.0046791747
0.21567943
-0.0063232541
0.2131655
-0.0078965053
0.2107574
-0.0093914835
0.20846167
-0.010802175
0.20628296
-0.012123799
0.20422414
-0.013352847
0.20228657
-0.01448702
0.20047028
-0.015525099
0.19877421
-0.01646685
0.1971963
-0.017312937
0.19573376
-0.018064837
0.19438312
-0.018724754
0.19314045
-0.019295529
0.19200141
-0.01978056
0.1909614
-0.020183718
0.19001565
-0.020509264
0.1891593
-0.020761771
0.18838748
-0.020946043
0.18769534
-0.021067048
0.18707815
-0.021129845
0.18653134
-0.021139529
0.18605049
-0.021101177
0.18563144
-0.021019805
0.18527022
-0.020900339
0.18496314
-0.020747594
0.18470679
-0.020566272
0.18449804
-0.020360975
0.18433403
-0.020136232
0.18421222
-0.01989658
0.18413041
-0.019646587
0.18408671
-0.019391268
0.18407962
-0.019135445
0.18410795
-0.018887001
0.18417131
-0.018648451
0.18426877
-0.018446679
0.18440306
-0.018246226
0.18456778
-0.01822902
0.18478481
-0.017957584
0.18499026
-0.018956369
-0.017369001
0.26927436
0.013537337
-0.27130731
0.26710632
0.012058453
0.26476456
0.010270585
0.26232533
0.0085086948
0.25979658
0.0067751393
0.25718848
0.0050166362
0.25452717
0.0032405504
0.2518368
0.0014723911
0.24913738
-0.00027435875
0.24644871
-0.0019905063
0.24379008
-0.0036646282
0.24117863
-0.0052850574
0.23862909
-0.0068419402
0.23615394
-0.008327026
0.23376348
-0.0097333386
0.23146587
-0.011055237
0.22926729
-0.012288442
0.22717214
-0.01342995
0.22518322
-0.01447793
0.22330193
-0.015431641
0.22152843
-0.016291339
0.21986186
-0.017058186
0.21830048
-0.017734149
0.21684183
-0.018321905
0.21548286
-0.018824746
0.21422008
-0.019246486
0.21304967
-0.019591365
0.21196759
-0.01986396
0.21096965
-0.020069106
0.21005161
-0.020211811
0.20920927
-0.020297186
0.20843848
-0.020330387
0.20773523
-0.020316559
0.20709569
-0.0202608
0.20651623
-0.02016813
0.20599345
-0.020043487
0.2055242
-0.019891729
0.20510563
-0.019717664
0.20473518
-0.019526126
0.20441059
-0.019322003
0.20412996
-0.019110634
0.20389178
-0.018897262
0.20369478
-0.018689999
0.20353865
-0.01849233
0.20342194
-0.018329963
0.20334854
-0.018172825
0.20330727
-0.018187751
0.20333135
-0.017981667
0.20331558
-0.018940598
-0.017538111
0.29298513
0.014868478
-0.29431627
0.29150589
0.013537695
0.2897834
0.011993078
0.28788476
0.010407329
0.28584485
0.0088150499
0.28367448
0.0071870082
0.28139206
0.0055229723
0.27902083
0.0038436199
0.2765821
0.0021643746
0.27409602
0.00049556948
0.2715828
-0.0011514106
0.26906217
-0.0027644225
0.26655244
-0.0043322115
0.26407021
-0.005844795
0.26163022
-0.0072933447
0.25924522
-0.0086702446
0.25692599
-0.0099692124
0.25468134
-0.011185301
0.25251826
-0.012314842
0.25044201
-0.013355389
0.24845631
-0.014305645
0.2465635
-0.015165379
0.24476469
-0.015935331
0.2430599
-0.016617115
0.24144827
-0.017213119
0.23992819
-0.017726403
0.23849741
-0.018160594
0.23715324
-0.01851979
0.2358926
-0.018808463
0.23471216
-0.019031369
0.23360844
-0.019193465
0.23257789
-0.019299836
0.23161696
-0.019355634
0.23072219
-0.019366024
0.22989021
-0.019336153
0.22911785
-0.019271126
0.22840213
-0.019176013
0.22774033
-0.019055865
0.22713
-0.018915788
0.22656897
-0.018760978
0.22605542
-0.018597081
0.22558792
-0.01842977
0.22516525
-0.018267326
0.22478724
-0.018114319
0.22445206
-0.017994782
0.22416446
-0.017885222
0.2239096
-0.017932891
0.22372903
-0.017801098
0.22348391
-0.018695482