/*--------------------------------*- C++ -*----------------------------------*\
  =========                 |
  \\      /  F ield         | OpenFOAM: The Open Source CFD Toolbox
   \\    /   O peration     | Website:  https://openfoam.org
    \\  /    A nd           | Version:  6
     \\/     M anipulation  |
\*---------------------------------------------------------------------------*/
FoamFile
{
    version     2.0;
    format      ascii;
    class       volScalarField;
    location    "188";
    object      pMean;
}
// * * * * * * * * * * * * * * * * * * * * * * * * * * * * * * * * * * * * * //

dimensions      [0 2 -2 0 0 0 0];

internalField   nonuniform List<scalar> 
9200
(
-0.39495923
-0.38297302
-0.37227114
-0.3628124
-0.3535589
-0.3445139
-0.33576051
-0.32726336
-0.31895135
-0.31075045
-0.30258719
-0.29439343
-0.2861135
-0.27771126
-0.26918025
-0.26056086
-0.25193453
-0.24339299
-0.23594239
-0.23378979
-0.41334943
-0.39891399
-0.38627512
-0.37528843
-0.36464405
-0.35431455
-0.34437341
-0.33475522
-0.32535818
-0.31608392
-0.30684122
-0.29755164
-0.28815697
-0.27862481
-0.26895356
-0.25917572
-0.24932878
-0.23941922
-0.23012144
-0.22357511
-0.43207647
-0.41518176
-0.40066008
-0.38821884
-0.37623766
-0.36464052
-0.35348035
-0.34265531
-0.33203246
-0.32149452
-0.31094304
-0.30030365
-0.28953233
-0.27861783
-0.26758073
-0.25646839
-0.24532723
-0.23417204
-0.2234009
-0.21412734
-0.45068472
-0.43136073
-0.41502688
-0.40119267
-0.38789096
-0.37498164
-0.36249067
-0.35028107
-0.3381985
-0.32612368
-0.31397279
-0.30169963
-0.2892978
-0.27679755
-0.26425826
-0.25175773
-0.23936821
-0.22713162
-0.21531634
-0.20466889
-0.46852188
-0.4468822
-0.42885686
-0.41370547
-0.39908831
-0.38479181
-0.37081673
-0.35700364
-0.34319902
-0.32930975
-0.31529657
-0.30116904
-0.28698017
-0.27281556
-0.2587794
-0.24498018
-0.23151048
-0.21842843
-0.20592292
-0.19450845
-0.48474246
-0.46100574
-0.4414673
-0.42508608
-0.40914253
-0.39335166
-0.37770369
-0.36204427
-0.34625603
-0.33030852
-0.31423912
-0.29813633
-0.28212426
-0.26634407
-0.25093567
-0.23602318
-0.22170024
-0.20801928
-0.19510567
-0.18330207
-0.49832311
-0.47282589
-0.45201346
-0.43450052
-0.41720746
-0.39979596
-0.38227565
-0.36453944
-0.34655083
-0.32838062
-0.31016938
-0.29209622
-0.27435355
-0.25712369
-0.24056106
-0.22478199
-0.20985808
-0.1958148
-0.18271694
-0.17076905
-0.50808586
-0.48129723
-0.45952286
-0.44100084
-0.42234425
-0.40319759
-0.38363425
-0.36364723
-0.3433287
-0.32288395
-0.30257188
-0.28265978
-0.26339208
-0.24496816
-0.22753082
-0.21116514
-0.19590196
-0.1817263
-0.16864374
-0.15674191
-0.51267816
-0.48513092
-0.4626942
-0.44323688
-0.42316628
-0.4021737
-0.38045693
-0.35816544
-0.33555755
-0.31298604
-0.29081911
-0.26938791
-0.24895734
-0.22971252
-0.21175902
-0.19513295
-0.1798146
-0.16574516
-0.15287521
-0.14119192
-0.51074645
-0.48290179
-0.45996959
-0.43953492
-0.41794885
-0.39503373
-0.37117604
-0.34672482
-0.32211496
-0.2978268
-0.27429854
-0.25187885
-0.23081054
-0.21123247
-0.19319377
-0.17667414
-0.16160474
-0.14788919
-0.13543044
-0.12412787
-0.27657847
-0.28096945
-0.28303647
-0.28339751
-0.28277013
-0.28132484
-0.27915558
-0.27635685
-0.27300353
-0.269153
-0.26485218
-0.26014133
-0.2550562
-0.24962947
-0.24389202
-0.23787541
-0.23161333
-0.22512905
-0.21842383
-0.21158829
-0.27949245
-0.28344672
-0.28519618
-0.28533433
-0.2845221
-0.28292129
-0.28062375
-0.27771971
-0.27428011
-0.27035921
-0.26600131
-0.26124437
-0.25612208
-0.25066496
-0.24490113
-0.23886095
-0.23258549
-0.22609635
-0.21928585
-0.21212729
-0.28516783
-0.28827129
-0.2894036
-0.289106
-0.28793166
-0.28602675
-0.28347902
-0.28037041
-0.27676419
-0.27270849
-0.26824234
-0.26339908
-0.25820828
-0.25269633
-0.24688622
-0.2408051
-0.23450518
-0.22800712
-0.22100894
-0.21324255
-0.2933359
-0.2952262
-0.2954678
-0.29452982
-0.29281719
-0.29045621
-0.28752975
-0.28410857
-0.28024534
-0.2759796
-0.27134286
-0.26636181
-0.26106
-0.25545774
-0.2495709
-0.24342102
-0.2370716
-0.23054836
-0.22330392
-0.21469098
-0.30365859
-0.30403926
-0.30315117
-0.30138122
-0.2989585
-0.29598842
-0.29254958
-0.28870003
-0.28447994
-0.27991874
-0.27503884
-0.26985799
-0.26439167
-0.2586528
-0.25264883
-0.24639263
-0.23995484
-0.2333748
-0.22585166
-0.21621942
-0.31578572
-0.31442833
-0.31220957
-0.30943358
-0.30613821
-0.30240972
-0.29832469
-0.29392873
-0.2892489
-0.28430199
-0.27909883
-0.27364715
-0.26795303
-0.26202055
-0.2558478
-0.24943625
-0.24285589
-0.23616551
-0.22834261
-0.217591
-0.32940621
-0.32614148
-0.3224284
-0.31849479
-0.31418072
-0.30955696
-0.30470202
-0.29964872
-0.29440841
-0.28898454
-0.28337565
-0.27757752
-0.27158512
-0.26539266
-0.25898912
-0.25236442
-0.24558128
-0.23872097
-0.23060392
-0.2187459
-0.34427832
-0.33898149
-0.33364621
-0.3284333
-0.32298308
-0.31735412
-0.31162725
-0.30582199
-0.29993411
-0.29395187
-0.28785874
-0.28163572
-0.27526383
-0.26872509
-0.261999
-0.25506716
-0.24799013
-0.24089523
-0.23256385
-0.21982798
-0.36022851
-0.35279668
-0.34573418
-0.33914476
-0.33246356
-0.32573597
-0.3190472
-0.31240321
-0.30578153
-0.29915232
-0.29248079
-0.28572937
-0.27886013
-0.27183522
-0.26461242
-0.25714705
-0.24946565
-0.24167869
-0.23256782
-0.21868301
-0.37714185
-0.36746142
-0.35856058
-0.35049083
-0.34247041
-0.33453143
-0.32676355
-0.31915721
-0.3116697
-0.30425197
-0.29685124
-0.28941378
-0.28188798
-0.27422451
-0.26637115
-0.25826846
-0.24986482
-0.24096298
-0.22995491
-0.21386805
-0.20385149
-0.19423645
-0.18465431
-0.17518222
-0.16576218
-0.15643463
-0.14725592
-0.13826243
-0.12948286
-0.12094495
-0.11267352
-0.10468931
-0.097009514
-0.089648204
-0.08261645
-0.075922378
-0.069571346
-0.063566095
-0.057906909
-0.052591763
-0.047616495
-0.042974987
-0.03865935
-0.034660126
-0.030966489
-0.027566457
-0.024447099
-0.021594744
-0.018995183
-0.016633865
-0.014496074
-0.012567107
-0.01083243
-0.0092778169
-0.0078894889
-0.006654227
-0.0055594912
-0.0045935089
-0.0037454503
-0.0030053261
-0.0023648836
-0.0018153879
-0.0013556154
-0.00096834272
-0.0006946907
-0.00041365902
-0.00050578449
8.4571019e-05
-0.0018198907
0.0027736513
-0.20512353
-0.19507782
-0.18536891
-0.17590179
-0.16645096
-0.15707899
-0.14786283
-0.13883496
-0.13002111
-0.12144969
-0.11314595
-0.10513051
-0.097420501
-0.090030082
-0.082970374
-0.076249547
-0.069872997
-0.063843502
-0.058161366
-0.052824577
-0.047828977
-0.043168436
-0.038835048
-0.034819326
-0.031110409
-0.027696272
-0.024563937
-0.021699681
-0.019089241
-0.016718006
-0.014571204
-0.01263407
-0.01089201
-0.0093307413
-0.0079364248
-0.0066957858
-0.0055962298
-0.0046259312
-0.0037740097
-0.0030304268
-0.0023868816
-0.0018345937
-0.0013722765
-0.00098269903
-0.00070671297
-0.00042389702
-0.00051216378
7.6470747e-05
-0.0018076487
0.0027443989
-0.20772047
-0.19676574
-0.18680852
-0.17739503
-0.16789876
-0.1584407
-0.14915338
-0.14005945
-0.13117705
-0.12253699
-0.11416608
-0.10608484
-0.098310491
-0.090857556
-0.083737437
-0.076958505
-0.070526331
-0.064443838
-0.058711441
-0.053327196
-0.048286981
-0.043584671
-0.039212337
-0.035160444
-0.031418062
-0.027973077
-0.024812409
-0.021922222
-0.019288127
-0.016895386
-0.01472909
-0.012774342
-0.011016408
-0.0094408729
-0.0080337647
-0.0067816805
-0.0056719017
-0.0046924836
-0.0038324319
-0.003081598
-0.0024315748
-0.0018734794
-0.0014058968
-0.0010115586
-0.00073080961
-0.00044429242
-0.00052488282
6.0555962e-05
-0.0017834438
0.0026864707
-0.21138974
-0.19899278
-0.18867928
-0.17944967
-0.16994023
-0.16037548
-0.1510054
-0.14183541
-0.13286709
-0.12413662
-0.11567506
-0.10750313
-0.099638388
-0.092096261
-0.084888913
-0.078025255
-0.071511305
-0.065350367
-0.059543151
-0.054087929
-0.048980722
-0.044215488
-0.039784322
-0.035677668
-0.031884529
-0.028392692
-0.025188947
-0.022259303
-0.019589201
-0.017163714
-0.014967739
-0.012986177
-0.011204091
-0.0096068612
-0.0081803157
-0.0069108552
-0.0057855715
-0.0047923368
-0.0039199817
-0.0031581885
-0.0024983868
-0.0019315357
-0.0014560259
-0.0010545261
-0.00076663197
-0.00047454229
-0.00054370666
3.7104914e-05
-0.0017476843
0.0026010721
-0.21580321
-0.20141193
-0.19064481
-0.18180275
-0.17236969
-0.16270342
-0.15326203
-0.14403194
-0.1349823
-0.12615657
-0.117595
-0.10931979
-0.1013491
-0.093699915
-0.086385948
-0.079417215
-0.072800623
-0.066540229
-0.060637352
-0.055090734
-0.049896743
-0.045049577
-0.040541476
-0.036362945
-0.032502981
-0.028949299
-0.02568857
-0.02270664
-0.019988756
-0.01751977
-0.015284339
-0.01326711
-0.011452889
-0.0098267905
-0.0083743825
-0.0070818077
-0.0059359067
-0.0049243088
-0.0040356111
-0.0032592697
-0.0025864957
-0.0020080365
-0.0015220237
-0.0011110389
-0.00081368901
-0.00051421366
-0.0005683267
6.5521168e-06
-0.001701086
0.0024900875
-0.22052804
-0.20368236
-0.19238415
-0.1841666
-0.17496288
-0.16523537
-0.15575014
-0.14649756
-0.13739602
-0.1284904
-0.11983523
-0.1114578
-0.1033776
-0.095613751
-0.088182398
-0.081095528
-0.074361581
-0.067985892
-0.061970844
-0.056316034
-0.051018492
-0.046072907
-0.041471867
-0.037206095
-0.033264692
-0.02963539
-0.026304789
-0.023258601
-0.020481883
-0.017959257
-0.015675116
-0.013613819
-0.011759868
-0.010098067
-0.0086136687
-0.0072925037
-0.0061211056
-0.0050868046
-0.0041779094
-0.0033835958
-0.0026948034
-0.0021020163
-0.0016030427
-0.0011803576
-0.00087134109
-0.00056274914
-0.00059835518
-3.0560488e-05
-0.0016445855
0.0023559661
-0.2251137
-0.20558783
-0.19365855
-0.18623151
-0.177484
-0.16781126
-0.15832485
-0.14909243
-0.1399865
-0.13103628
-0.12230884
-0.11384199
-0.10565914
-0.097782135
-0.090230355
-0.083018812
-0.076158359
-0.069656292
-0.063516632
-0.05774032
-0.05232545
-0.047267537
-0.042559778
-0.038193325
-0.034157547
-0.030440305
-0.027028216
-0.023906912
-0.021061289
-0.018475745
-0.0161344
-0.014021306
-0.012120628
-0.01041682
-0.0088947743
-0.007539961
-0.006338557
-0.0052775429
-0.0043448883
-0.0035294386
-0.0028218123
-0.0022121825
-0.0016979719
-0.0012615349
-0.00093878866
-0.00061947831
-0.00063333768
-7.3649442e-05
-0.001579266
0.0022015715
-0.22926862
-0.20750025
-0.19468484
-0.1878089
-0.1797112
-0.17033014
-0.16092783
-0.15174574
-0.14267686
-0.13372345
-0.12495179
-0.11641281
-0.10813831
-0.10015416
-0.092483467
-0.085145063
-0.07815307
-0.071517416
-0.065244308
-0.0593365
-0.053793556
-0.048612149
-0.043786363
-0.039308003
-0.035166885
-0.03135114
-0.027847505
-0.024641604
-0.021718221
-0.019061555
-0.016655465
-0.014483683
-0.012530022
-0.010778556
-0.0092137846
-0.007820778
-0.0065853136
-0.0054939784
-0.0045343583
-0.0036949231
-0.0029659249
-0.0023371822
-0.0018056726
-0.0013536236
-0.0010152529
-0.00068377088
-0.00067287711
-0.00012220162
-0.0015063463
0.0020301308
-0.23065597
-0.20960423
-0.19610566
-0.18882093
-0.18120999
-0.17241013
-0.16328289
-0.15422394
-0.1452517
-0.13636187
-0.12760421
-0.11903787
-0.11070635
-0.10264193
-0.094872154
-0.087420381
-0.080304938
-0.073539303
-0.067132672
-0.06109034
-0.055413997
-0.05010205
-0.045149972
-0.040550643
-0.036294682
-0.032370781
-0.028766029
-0.025466224
-0.022456174
-0.01971998
-0.017241297
-0.01500358
-0.012990303
-0.011185156
-0.0095722283
-0.0081361601
-0.0068622939
-0.0057367811
-0.0047467785
-0.0038803326
-0.0031272801
-0.0024770365
-0.0019260716
-0.0014564699
-0.001100535
-0.00075533521
-0.0007168641
-0.00017553159
-0.001427505
0.0018458635
-0.22105589
-0.20899353
-0.19739674
-0.18873335
-0.18108265
-0.17307739
-0.16456929
-0.15588445
-0.14720152
-0.13854924
-0.12995894
-0.1214905
-0.11320059
-0.10513261
-0.097322172
-0.089799949
-0.082591116
-0.075715134
-0.069186279
-0.063014152
-0.057204062
-0.05175741
-0.046672095
-0.041942924
-0.037562007
-0.033519146
-0.029802213
-0.026397513
-0.023290124
-0.020464224
-0.017903388
-0.015590865
-0.013509827
-0.011643593
-0.0099758245
-0.0084907055
-0.0071731018
-0.0060086804
-0.0049841157
-0.0040869737
-0.0033066189
-0.0026320041
-0.0020590311
-0.0015695911
-0.0011939443
-0.00083314111
-0.00076465669
-0.00023149366
-0.0013451079
0.0016544805
-0.1993648
-0.20296631
-0.19697506
-0.1875721
-0.17953195
-0.1719564
-0.16391085
-0.15554144
-0.14711084
-0.13868428
-0.13028573
-0.12197099
-0.11380084
-0.10582342
-0.09807793
-0.090598344
-0.083413151
-0.076544918
-0.070010713
-0.06382264
-0.057988238
-0.052510861
-0.047390108
-0.042622243
-0.038200611
-0.034116049
-0.030357277
-0.026911285
-0.023763693
-0.02089909
-0.018301353
-0.015953937
-0.013840138
-0.011943331
-0.01024718
-0.0087358229
-0.0073940439
-0.0062073977
-0.0051624204
-0.0042465245
-0.0034488704
-0.0027582712
-0.0021701285
-0.0016667568
-0.0012755301
-0.00090394974
-0.00080605386
-0.00028692977
-0.001258808
0.0014644493
-0.18838562
-0.1930918
-0.18895183
-0.17983043
-0.17217537
-0.16540955
-0.15821695
-0.15061018
-0.14287862
-0.13509931
-0.12728751
-0.11949527
-0.11178613
-0.10421238
-0.096817261
-0.089639102
-0.082710929
-0.076059801
-0.069707093
-0.063668979
-0.057956807
-0.052577463
-0.047533783
-0.042824977
-0.038447059
-0.034393257
-0.030654426
-0.027219444
-0.024075587
-0.02120889
-0.018604479
-0.016246875
-0.01412028
-0.012208823
-0.010496795
-0.00896884
-0.0076101448
-0.0064065769
-0.0053448957
-0.0044126836
-0.003599132
-0.0028932119
-0.0022897992
-0.0017722913
-0.0013639632
-0.00098205819
-0.00084939417
-0.00035177268
-0.0011584125
0.0012581786
-0.17911923
-0.18137698
-0.17848964
-0.17114205
-0.16440175
-0.15838386
-0.15200493
-0.14517196
-0.13814374
-0.1310163
-0.1238074
-0.11656335
-0.10934669
-0.10221177
-0.09520432
-0.088365436
-0.081731462
-0.075333086
-0.069195384
-0.063338211
-0.057776507
-0.052520602
-0.047576587
-0.042946712
-0.038629799
-0.034621647
-0.030915443
-0.02750216
-0.024370945
-0.021509479
-0.018904333
-0.016541277
-0.014405587
-0.012482301
-0.010756471
-0.0092133692
-0.0078386898
-0.0066187029
-0.0055404657
-0.0045917944
-0.0037619525
-0.0030401223
-0.0024206163
-0.0018880756
-0.0014612089
-0.0010681709
-0.00089708744
-0.00042347354
-0.0010474761
0.0010309981
-0.16891148
-0.16875302
-0.16638146
-0.16113102
-0.155667
-0.15044465
-0.14490197
-0.13892073
-0.13267236
-0.1262577
-0.11970979
-0.11307317
-0.10640721
-0.099767131
-0.093200768
-0.08675155
-0.080458678
-0.074356177
-0.068472697
-0.062831747
-0.057451927
-0.052347155
-0.047526976
-0.042996919
-0.038758875
-0.034811489
-0.031150555
-0.027769415
-0.024659342
-0.021809917
-0.01920938
-0.016844965
-0.014703207
-0.012770229
-0.01103199
-0.0094745246
-0.0080841461
-0.0068476231
-0.0057523898
-0.0047865601
-0.0039395185
-0.0032006935
-0.002563848
-0.0020148821
-0.0015678634
-0.0011619802
-0.00095003658
-0.00049882348
-0.00093373986
0.00079327698
-0.1578352
-0.15598752
-0.15372379
-0.15020286
-0.14606657
-0.1416979
-0.13699528
-0.1318947
-0.12647673
-0.12082443
-0.11498577
-0.10900777
-0.10294572
-0.096853764
-0.090780891
-0.084772085
-0.078868615
-0.073107236
-0.067519772
-0.062133156
-0.056969542
-0.052046444
-0.047376965
-0.042970081
-0.038830972
-0.03496138
-0.031359977
-0.028022751
-0.02494338
-0.022113609
-0.019523604
-0.017162298
-0.015017707
-0.013077229
-0.011327912
-0.0097567027
-0.0083506701
-0.0070971944
-0.0059841824
-0.0050001221
-0.0041345819
-0.003377271
-0.0027214518
-0.0021542291
-0.0016851742
-0.0012640778
-0.0010093833
-0.00057671689
-0.00082307476
0.00055318494
-0.14561022
-0.1431236
-0.14105693
-0.13882804
-0.13589037
-0.13240029
-0.1285245
-0.1242822
-0.11969574
-0.11482119
-0.10971327
-0.10442081
-0.098994829
-0.093487064
-0.087946345
-0.082418101
-0.076944534
-0.071564111
-0.06631104
-0.061215074
-0.056301482
-0.051591087
-0.047100384
-0.042841746
-0.03882368
-0.035051128
-0.031525796
-0.028246506
-0.025209554
-0.022409069
-0.019837371
-0.017485313
-0.015342601
-0.013398109
-0.011640156
-0.010056766
-0.0086359091
-0.0073657063
-0.0062346479
-0.0052316855
-0.0043466512
-0.0035695754
-0.0028933018
-0.0023060439
-0.0018131958
-0.0013743124
-0.0010757364
-0.00065623175
-0.00072127635
0.00031927621
-0.13256268
-0.13030882
-0.12865773
-0.12736393
-0.12541568
-0.12277188
-0.11969231
-0.11625979
-0.11247329
-0.10836332
-0.10398283
-0.099381637
-0.094605621
-0.089701862
-0.084717755
-0.079698239
-0.074685367
-0.069718156
-0.06483217
-0.060059148
-0.055426803
-0.050958734
-0.046674445
-0.042589446
-0.038715418
-0.035060447
-0.031629291
-0.028423683
-0.025442654
-0.022682875
-0.020138989
-0.017803949
-0.015669341
-0.013725694
-0.011962773
-0.010369844
-0.0089359304
-0.0076500266
-0.0065013267
-0.0054793456
-0.0045742715
-0.0037765039
-0.0030785762
-0.002469687
-0.0019515231
-0.0014922276
-0.0011494824
-0.00073650998
-0.00063417891
0.00010068113
-0.11939425
-0.11778561
-0.11667481
-0.11606359
-0.11489682
-0.11302019
-0.11068353
-0.1079971
-0.10495688
-0.10157617
-0.097899688
-0.093974759
-0.089843726
-0.085548193
-0.081131239
-0.076636106
-0.07210391
-0.067573192
-0.06307977
-0.058656384
-0.054332352
-0.050133351
-0.046081322
-0.042194466
-0.038487319
-0.03497089
-0.031652861
-0.028537828
-0.025627576
-0.022921376
-0.020416297
-0.01810752
-0.015988654
-0.014052039
-0.012289039
-0.010690316
-0.0092460885
-0.0079463621
-0.0067811572
-0.0057406584
-0.0048155113
-0.0039965401
-0.0032760982
-0.0026442345
-0.0020995093
-0.0016172623
-0.0012308432
-0.00081701143
-0.00056691635
-9.3943173e-05
-0.10662879
-0.10572891
-0.10517305
-0.10508301
-0.10452989
-0.10331887
-0.10165247
-0.099639996
-0.097280486
-0.094577945
-0.091567029
-0.088289349
-0.084782623
-0.081083876
-0.077231545
-0.073264868
-0.069222743
-0.065142434
-0.06105909
-0.057005466
-0.053011573
-0.049104364
-0.045307529
-0.041641384
-0.038122849
-0.034765501
-0.031579684
-0.028572684
-0.02574894
-0.023110292
-0.020656251
-0.018384289
-0.016290123
-0.014368014
-0.01261105
-0.011011418
-0.0095606631
-0.0082499277
-0.0070701795
-0.0060123802
-0.0050677396
-0.0042275699
-0.0034841881
-0.0028283691
-0.0022561849
-0.0017487135
-0.0013197921
-0.00089757587
-0.0005231911
-0.00025755864
-0.094538332
-0.094254945
-0.094197688
-0.094520154
-0.094452316
-0.093801416
-0.092721178
-0.091305827
-0.089556217
-0.087471511
-0.08507704
-0.082407066
-0.079493848
-0.076369224
-0.073067005
-0.069622244
-0.066070129
-0.062445474
-0.058781941
-0.055111458
-0.051463856
-0.04786654
-0.044344201
-0.040918619
-0.03760854
-0.034429643
-0.031394568
-0.028513009
-0.02579186
-0.0232354
-0.020845518
-0.018621957
-0.016562573
-0.014663606
-0.012919946
-0.011325404
-0.0098729591
-0.0085550009
-0.0073635546
-0.0062904623
-0.0053276036
-0.0044668497
-0.0037006296
-0.0030203453
-0.0024202284
-0.0018857061
-0.001415996
-0.00097835369
-0.00050473434
-0.00038574362
-0.083254958
-0.083451899
-0.083801283
-0.084447842
-0.084762277
-0.084570898
-0.083988645
-0.08309103
-0.081878062
-0.080345762
-0.078511548
-0.076402026
-0.074043452
-0.071462246
-0.068687031
-0.065748382
-0.06267759
-0.059506033
-0.056264882
-0.052984452
-0.049693626
-0.046419473
-0.043186942
-0.04001859
-0.036934382
-0.033951571
-0.031084644
-0.028345341
-0.025742725
-0.023283305
-0.020971203
-0.018808346
-0.016794689
-0.014928453
-0.01320637
-0.011623931
-0.010175625
-0.0088551774
-0.0076557653
-0.0065702044
-0.0055911447
-0.0047110901
-0.003922729
-0.0032180276
-0.0025899905
-0.0020271825
-0.0015187863
-0.0010596645
-0.00051102472
-0.00047740049
-0.072833946
-0.073379501
-0.074035413
-0.074925267
-0.075533567
-0.075709051
-0.075537841
-0.075078216
-0.074327749
-0.07327979
-0.071945152
-0.070343232
-0.068494172
-0.066418892
-0.064140702
-0.061685236
-0.059079533
-0.056351276
-0.053528421
-0.050638842
-0.047709746
-0.044767158
-0.041835571
-0.038937639
-0.036093915
-0.03332266
-0.030639711
-0.028058429
-0.025589696
-0.02324197
-0.021021392
-0.018931919
-0.01697551
-0.015152315
-0.013460892
-0.011898431
-0.010460976
-0.0091436468
-0.0079408456
-0.0068464419
-0.005853946
-0.0049565699
-0.004147401
-0.0034189461
-0.0027635324
-0.0021718907
-0.0016271451
-0.0011418128
-0.00053934814
-0.00053497514
-0.063283661
-0.06406788
-0.064938679
-0.06599811
-0.066822314
-0.067280995
-0.067438749
-0.067339573
-0.066978316
-0.066345957
-0.065447813
-0.064296875
-0.062907477
-0.061295173
-0.05947803
-0.05747666
-0.055313501
-0.05301221
-0.050597224
-0.048093386
-0.045525536
-0.042917999
-0.040294157
-0.037676106
-0.035084361
-0.032537605
-0.030052497
-0.02764355
-0.025323061
-0.023101101
-0.020985553
-0.018982201
-0.017094846
-0.015325463
-0.013674378
-0.012140457
-0.010721304
-0.0094134647
-0.0082126167
-0.0071137453
-0.0061112986
-0.0051992692
-0.0043712721
-0.0036203678
-0.0029386722
-0.0023183731
-0.0017397127
-0.0012249048
-0.00058522764
-0.0005640518
-0.054586457
-0.055522841
-0.05653167
-0.05769655
-0.058668798
-0.059336759
-0.059748635
-0.059937065
-0.05989464
-0.059610452
-0.059085362
-0.058326913
-0.057344231
-0.056147886
-0.054750979
-0.05316923
-0.051420442
-0.049524013
-0.047500574
-0.045371623
-0.043159132
-0.040885139
-0.038571324
-0.036238623
-0.033906908
-0.031594704
-0.029318948
-0.027094805
-0.024935544
-0.022852464
-0.020854868
-0.018950098
-0.017143592
-0.015438997
-0.013838297
-0.012341968
-0.010949146
-0.0096578005
-0.0084649098
-0.0073666173
-0.0063583706
-0.0054350103
-0.0045907936
-0.0038193771
-0.0031130417
-0.0024649688
-0.0018548252
-0.001308717
-0.00064316267
-0.00057233502
-0.046709076
-0.047731288
-0.04881695
-0.050034506
-0.051097721
-0.051911457
-0.052511378
-0.052921284
-0.053132244
-0.053132113
-0.052918317
-0.052493973
-0.051863781
-0.051033921
-0.050012992
-0.048812153
-0.047444751
-0.04592594
-0.044272408
-0.042502079
-0.040633762
-0.038686779
-0.0366806
-0.034634472
-0.032567073
-0.030496215
-0.02843857
-0.026409448
-0.02442262
-0.02249019
-0.020622514
-0.018828178
-0.017114004
-0.015485102
-0.013944963
-0.012495563
-0.011137502
-0.0098701411
-0.0086917538
-0.0075996624
-0.0065903585
-0.0056595882
-0.0048023501
-0.0040129585
-0.0032841477
-0.0026098336
-0.0019705874
-0.0013926485
-0.0007075234
-0.00056821618
-0.039607987
-0.040666446
-0.041782157
-0.043011153
-0.04411923
-0.045025907
-0.045757358
-0.046330652
-0.046736072
-0.046960925
-0.047000191
-0.046853578
-0.046522231
-0.046008664
-0.045317587
-0.044456099
-0.043433445
-0.042260754
-0.040950841
-0.039517992
-0.037977681
-0.036346255
-0.034640612
-0.032877869
-0.03107504
-0.029248722
-0.027414813
-0.025588266
-0.023782878
-0.022011113
-0.020283982
-0.018610961
-0.016999952
-0.015457283
-0.013987748
-0.012594675
-0.011280016
-0.010044455
-0.0088875251
-0.0078077241
-0.0068026103
-0.0058688798
-0.0050023533
-0.0041980733
-0.003449435
-0.0027509814
-0.0020849737
-0.0014757595
-0.00077338404
-0.00055927725
-0.033233883
-0.034292743
-0.035404106
-0.036613829
-0.037731016
-0.038688133
-0.039504286
-0.040191524
-0.040739987
-0.041137049
-0.041376141
-0.041454524
-0.041370656
-0.041124168
-0.040716582
-0.040151552
-0.039434719
-0.038573559
-0.037577261
-0.036456589
-0.035223675
-0.033891776
-0.032475004
-0.030988044
-0.029445867
-0.027863436
-0.026255425
-0.024635967
-0.023018418
-0.021415161
-0.019837443
-0.018295253
-0.016797233
-0.015350639
-0.013961328
-0.01263378
-0.011371153
-0.010175345
-0.009047082
-0.0079860016
-0.0069907278
-0.006058933
-0.0051873196
-0.0043717246
-0.0036063449
-0.00288634
-0.0021959387
-0.0015568735
-0.00083708275
-0.00055113275
-0.027535061
-0.0285695
-0.029652348
-0.030821099
-0.031920853
-0.032895427
-0.033758714
-0.034519103
-0.035167086
-0.035690598
-0.036082281
-0.036337794
-0.036453724
-0.036427577
-0.036258419
-0.035947122
-0.035496314
-0.034910307
-0.034195046
-0.033358039
-0.032408228
-0.031355817
-0.030212065
-0.028989062
-0.027699484
-0.026356342
-0.024972719
-0.023561522
-0.022135249
-0.020705777
-0.019284178
-0.017880559
-0.016503949
-0.015162208
-0.013861978
-0.01260866
-0.011406424
-0.01025824
-0.009165921
-0.008130178
-0.0071506716
-0.0062260526
-0.0053539399
-0.0045310183
-0.0037523717
-0.0030138163
-0.0023015158
-0.0016347015
-0.00089638234
-0.00054690738
-0.0224597
-0.023453573
-0.024491974
-0.025605497
-0.02666914
-0.027636583
-0.028517903
-0.029318858
-0.030030633
-0.030642084
-0.031145655
-0.031536109
-0.031808862
-0.031959998
-0.031986811
-0.031888063
-0.031663992
-0.031316297
-0.030848153
-0.030264193
-0.029570449
-0.028774249
-0.027884072
-0.026909387
-0.025860461
-0.024748149
-0.023583676
-0.022378407
-0.021143624
-0.019890322
-0.018629008
-0.017369535
-0.016120953
-0.01489139
-0.01368797
-0.012516751
-0.011382693
-0.010289653
-0.0092403924
-0.0082365972
-0.0072789026
-0.006366912
-0.0054991676
-0.0046732337
-0.0038851237
-0.0031313671
-0.0023998871
-0.0017079525
-0.00095025113
-0.00054741605
-0.017957719
-0.018901549
-0.019886041
-0.020936036
-0.021951376
-0.022894254
-0.023771944
-0.024588328
-0.025335495
-0.026003432
-0.026584823
-0.027074079
-0.027466021
-0.027755899
-0.027939852
-0.028015152
-0.02798025
-0.027834803
-0.027579732
-0.027217248
-0.026750847
-0.026185265
-0.025526396
-0.02478119
-0.023957514
-0.023063992
-0.022109835
-0.021104645
-0.020058222
-0.018980363
-0.017880679
-0.016768418
-0.015652306
-0.014540409
-0.013440019
-0.012357568
-0.011298557
-0.010267521
-0.0092679958
-0.0083025118
-0.0073725857
-0.0064787172
-0.0056203482
-0.0047959274
-0.004002407
-0.0032370805
-0.0024894286
-0.0017754126
-0.000998422
-0.00055185655
-0.013981854
-0.014871198
-0.015797289
-0.016780119
-0.017740195
-0.01864701
-0.019505763
-0.020318998
-0.02107979
-0.021779366
-0.02241093
-0.022968936
-0.023448046
-0.023843148
-0.024149737
-0.024364134
-0.02448355
-0.024506145
-0.0244311
-0.024258684
-0.023990283
-0.023628402
-0.023176636
-0.02263962
-0.022022942
-0.02133304
-0.02057707
-0.019762757
-0.018898241
-0.017991897
-0.017052174
-0.01608742
-0.015105728
-0.01411479
-0.013121766
-0.012133174
-0.011154798
-0.010191618
-0.0092477493
-0.0083264068
-0.0074298659
-0.0065594365
-0.0057154064
-0.0048970845
-0.0041023444
-0.0033292762
-0.0025687481
-0.0018359999
-0.0010409444
-0.00055867097
-0.010489094
-0.011323146
-0.012190013
-0.013105539
-0.014007437
-0.014871435
-0.015701171
-0.016498216
-0.017256638
-0.017968908
-0.018628914
-0.019231413
-0.019771214
-0.020243193
-0.020642598
-0.020965237
-0.021207552
-0.021366684
-0.021440557
-0.021427962
-0.021328615
-0.021143185
-0.020873314
-0.020521602
-0.02009157
-0.019587606
-0.019014876
-0.018379223
-0.017687047
-0.016945169
-0.016160687
-0.015340828
-0.014492798
-0.013623646
-0.012740122
-0.011848561
-0.010954771
-0.010063941
-0.0091805576
-0.0083083388
-0.007450173
-0.0066080672
-0.0057830734
-0.004975309
-0.0041835282
-0.0034066274
-0.0026367364
-0.0018888138
-0.0010778924
-0.00056625533
-0.0074407312
-0.008221404
-0.0090309978
-0.0098817846
-0.010725803
-0.011544081
-0.012339053
-0.013111566
-0.01385662
-0.014567873
-0.015239963
-0.015868098
-0.016447429
-0.016973055
-0.017440266
-0.017844693
-0.018182381
-0.01844985
-0.01864419
-0.018763139
-0.018805155
-0.018769476
-0.018656155
-0.018466079
-0.01820098
-0.017863407
-0.017456686
-0.016984864
-0.016452623
-0.015865186
-0.015228205
-0.014547639
-0.013829629
-0.013080364
-0.012305958
-0.011512323
-0.010705055
-0.0098893242
-0.0090697761
-0.0082504456
-0.0074346719
-0.0066250259
-0.0058232188
-0.0050300992
-0.004245241
-0.0034683301
-0.0026926648
-0.0019332091
-0.0011092814
-0.00057336222
-0.0048036199
-0.0055344565
-0.0062904802
-0.0070808266
-0.0078694544
-0.008641874
-0.0093995782
-0.01014285
-0.010867528
-0.011568354
-0.012240711
-0.012880324
-0.013482787
-0.014043567
-0.014558181
-0.01502232
-0.015431905
-0.015783155
-0.016072661
-0.016297468
-0.016455153
-0.016543888
-0.016562494
-0.016510488
-0.016388108
-0.016196326
-0.015936844
-0.015612068
-0.015225064
-0.014779503
-0.014279579
-0.013729923
-0.013135502
-0.012501505
-0.011833235
-0.011135994
-0.010414961
-0.0096750856
-0.0089209776
-0.0081568037
-0.0073861888
-0.0066121238
-0.0058368577
-0.0050618739
-0.0042874867
-0.0035141302
-0.0027361903
-0.0019688
-0.0011350676
-0.00057918078
-0.0025519051
-0.0032380948
-0.0039459177
-0.004681846
-0.0054196842
-0.0061486812
-0.0068695737
-0.0075821936
-0.008283106
-0.0089680019
-0.0096329576
-0.010274218
-0.010887855
-0.011469765
-0.012015799
-0.012521853
-0.012983918
-0.013398132
-0.013760849
-0.014068713
-0.014318727
-0.014508321
-0.014635413
-0.014698469
-0.014696542
-0.014629314
-0.01449711
-0.014300909
-0.01404233
-0.013723609
-0.013347553
-0.012917488
-0.01243718
-0.011910759
-0.011342617
-0.010737315
-0.01009947
-0.0094336516
-0.0087442667
-0.0080354512
-0.0073109598
-0.0065740597
-0.0058274102
-0.0050730192
-0.0043118464
-0.0035450082
-0.0027678928
-0.0019958736
-0.0011555176
-0.00058344001
-0.00066020822
-0.0013070653
-0.0019724061
-0.0026603151
-0.0033526714
-0.0040418367
-0.0047279398
-0.0054104382
-0.0060864998
-0.0067526239
-0.0074054979
-0.0080418489
-0.0086582091
-0.009250911
-0.0098161776
-0.010350186
-0.010849107
-0.011309145
-0.011726599
-0.012097921
-0.012419779
-0.012689123
-0.012903247
-0.01305985
-0.013157087
-0.013193624
-0.013168673
-0.013082022
-0.012934052
-0.012725735
-0.012458625
-0.012134832
-0.011756972
-0.011328118
-0.010851724
-0.010331546
-0.0097715506
-0.0091758153
-0.0085484199
-0.0078933365
-0.0072143141
-0.0065147645
-0.0057976316
-0.0050653329
-0.0043193677
-0.0035614505
-0.0027878722
-0.0020142551
-0.0011703577
-0.00058572755
0.00086786658
0.00025308197
-0.00037726459
-0.0010255068
-0.0016799222
-0.00233531
-0.0029913039
-0.0036470631
-0.0043002389
-0.0049479852
-0.0055874963
-0.0062159132
-0.0068301741
-0.0074270101
-0.0080030026
-0.0085546255
-0.0090782748
-0.009570302
-0.010027058
-0.010444946
-0.010820473
-0.011150309
-0.011431346
-0.011660759
-0.011836061
-0.011955166
-0.012016434
-0.012018716
-0.011961392
-0.011844391
-0.011668204
-0.011433881
-0.011143021
-0.01079773
-0.010400582
-0.0099545553
-0.0094629566
-0.0089293354
-0.0083573849
-0.0077508355
-0.0071133384
-0.0064483482
-0.0057589859
-0.0050479702
-0.0043172302
-0.0035689779
-0.0028002881
-0.0020269931
-0.0011817296
-0.00058715378
0.0020753264
0.0014869662
0.00088529531
0.00026959196
-0.0003534033
-0.00098043223
-0.0016107488
-0.0022432644
-0.0028759966
-0.0035066097
-0.0041326998
-0.0047517429
-0.0053610118
-0.0059575741
-0.006538324
-0.007100009
-0.0076392509
-0.0081525724
-0.0086364311
-0.0090872609