/*--------------------------------*- C++ -*----------------------------------*\
  =========                 |
  \\      /  F ield         | OpenFOAM: The Open Source CFD Toolbox
   \\    /   O peration     | Website:  https://openfoam.org
    \\  /    A nd           | Version:  6
     \\/     M anipulation  |
\*---------------------------------------------------------------------------*/
FoamFile
{
    version     2.0;
    format      ascii;
    class       volVectorField;
    location    "188";
    object      U_0;
}
// * * * * * * * * * * * * * * * * * * * * * * * * * * * * * * * * * * * * * //

dimensions      [0 1 -1 0 0 0 0];

internalField   nonuniform List<vector> 
9200
(
(0.0010393472 0.0014199818 -5.9201846e-20)
(0.013676071 -0.0020583688 4.6042542e-20)
(0.038313176 -0.0058665718 -3.8501738e-20)
(0.072274454 -0.0097635106 -6.025776e-20)
(0.11376477 -0.013490036 1.8826965e-20)
(0.16158092 -0.016605667 3.2743882e-20)
(0.21467153 -0.018817296 -1.2268008e-20)
(0.27206613 -0.019973903 9.2688616e-21)
(0.33285629 -0.020011237 1.6803428e-20)
(0.39616355 -0.018929067 1.4848074e-21)
(0.46111565 -0.016779833 -2.1456339e-20)
(0.52683697 -0.01365775 2.0670005e-20)
(0.59245079 -0.0096880176 -4.0422147e-20)
(0.65709143 -0.005015797 -2.1133903e-20)
(0.71992484 0.00020553988 5.9046527e-21)
(0.78017515 0.0058240723 -2.5131676e-20)
(0.83717073 0.011712788 2.5217115e-20)
(0.8904689 0.017918486 2.2243193e-20)
(0.93967084 0.024573384 -2.9929651e-22)
(0.982052 0.028293351 -1.6691873e-21)
(0.0052521821 -0.0013462739 -1.7059354e-20)
(0.026962508 -0.0089890293 3.9747719e-20)
(0.061670129 -0.014809769 2.3576295e-20)
(0.10629491 -0.019172275 -1.156976e-19)
(0.15873569 -0.022214003 -1.2727089e-20)
(0.21753356 -0.023720693 7.3297088e-20)
(0.28137301 -0.023595105 -3.5476402e-20)
(0.34900608 -0.021868974 -8.3905577e-21)
(0.41923928 -0.018645534 3.4287543e-20)
(0.49090953 -0.014080852 -4.3259583e-20)
(0.56287241 -0.0083759628 -3.0338485e-20)
(0.63400857 -0.0017666074 7.1921442e-20)
(0.70324341 0.0054883803 3.8294051e-20)
(0.76957593 0.013118616 -6.7976564e-20)
(0.83211258 0.020852065 1.4623693e-20)
(0.8901005 0.028419684 -3.6733404e-20)
(0.94296929 0.03556965 -1.3777194e-20)
(0.99043243 0.042140858 7.0974785e-20)
(1.0323562 0.047715277 2.9641986e-20)
(1.0669349 0.049139654 -8.347834e-20)
(0.010858429 -0.004042417 3.6773458e-20)
(0.043953423 -0.015431081 2.5047336e-21)
(0.090515453 -0.022552288 2.2341708e-20)
(0.14711142 -0.026497365 9.8116839e-22)
(0.21134258 -0.027886305 -4.0773936e-20)
(0.28146772 -0.026795123 1.8576407e-20)
(0.35587046 -0.023382738 1.3420299e-20)
(0.43299014 -0.017921548 -5.0327707e-20)
(0.51132485 -0.010735662 5.7261863e-20)
(0.58942623 -0.0021838936 1.425669e-20)
(0.66590926 0.0073478906 -5.4300716e-20)
(0.73948047 0.017460246 -1.8237406e-20)
(0.80897609 0.027756543 9.0591593e-21)
(0.87340276 0.037859249 2.344474e-20)
(0.93197374 0.047424017 -1.1362507e-20)
(0.98413379 0.056148943 2.7877732e-20)
(1.0295741 0.063789139 -2.0188243e-20)
(1.0682646 0.070204353 -7.0123604e-20)
(1.1003323 0.075119334 -2.3796281e-20)
(1.1249113 0.076641189 4.8659836e-20)
(0.017957218 -0.0064221648 2.4508015e-20)
(0.064777007 -0.020694804 5.103923e-20)
(0.12485231 -0.028060853 1.9881698e-20)
(0.19446969 -0.030464073 1.2990101e-20)
(0.27094936 -0.02909485 1.7275707e-20)
(0.35224885 -0.024388988 -4.7720177e-20)
(0.43643146 -0.016825983 -2.5646859e-20)
(0.52162016 -0.0069766817 0)
(0.60602905 0.0045670194 1.3920621e-20)
(0.68798717 0.017211717 -5.852342e-21)
(0.76597528 0.030373905 -9.7934956e-20)
(0.83867458 0.043499613 -1.5774818e-20)
(0.90501537 0.056086595 6.5103207e-20)
(0.96421581 0.06770411 4.8442462e-22)
(1.0158036 0.078007687 -1.5725569e-21)
(1.0596156 0.08674676 2.1957498e-20)
(1.0957774 0.093772192 -5.2647215e-21)
(1.1246801 0.099065294 -6.1029744e-20)
(1.1468648 0.10259704 -4.5851241e-20)
(1.1622958 0.10341381 6.9520529e-20)
(0.026579425 -0.0082056897 -3.9194183e-21)
(0.089344036 -0.024033511 -5.125625e-21)
(0.16430756 -0.030264994 5.6599415e-20)
(0.24758124 -0.029810026 1.8539329e-20)
(0.33624166 -0.024513035 -3.1955073e-20)
(0.42795132 -0.015239868 1.2163839e-20)
(0.5204727 -0.002851372 2.6402864e-21)
(0.61166366 0.011737085 3.3609173e-20)
(0.69954721 0.027640131 5.659951e-21)
(0.78236848 0.044028756 -1.3204742e-20)
(0.85865417 0.060147709 6.0154048e-20)
(0.92726922 0.075340453 -5.8009363e-20)
(0.98745687 0.089072841 -1.3216615e-19)
(1.0388532 0.100949 -5.5773043e-21)
(1.0814726 0.11071706 8.3150785e-20)
(1.1156656 0.11826402 0)
(1.1420549 0.12360579 1.0118959e-20)
(1.1614669 0.12689052 -1.5459773e-20)
(1.174818 0.12829866 -8.5994608e-21)
(1.1826674 0.12744911 2.0992232e-20)
(0.036666915 -0.0090895813 -5.4309067e-21)
(0.11731513 -0.024685362 4.3578751e-21)
(0.20811871 -0.028140184 -8.7629849e-21)
(0.30515707 -0.023414961 2.8472395e-20)
(0.40533545 -0.013075598 -2.9392667e-20)
(0.50607155 0.0015226084 -1.6927024e-20)
(0.60490499 0.019095133 3.7364234e-20)
(0.69954969 0.038365246 4.7595453e-21)
(0.78800402 0.058167636 -2.4436061e-20)
(0.86863416 0.077482993 6.9867567e-20)
(0.94023984 0.095458629 5.2393677e-22)
(1.0020957 0.11143155 -8.044433e-20)
(1.053957 0.12494289 0)
(1.0960274 0.13573747 3.9542124e-20)
(1.1288923 0.1437484 5.5236016e-21)
(1.1534279 0.1490689 -7.7566412e-20)
(1.1706991 0.1519191 -1.9586925e-20)
(1.1818624 0.15262364 -1.2467634e-20)
(1.1880592 0.15152602 -1.470939e-20)
(1.1901461 0.14858489 4.0420526e-20)
(0.048058876 -0.0087674067 -1.7277956e-20)
(0.14808313 -0.021931997 -2.2198406e-21)
(0.25514074 -0.020797839 3.0380502e-20)
(0.36546389 -0.010412798 3.7484306e-20)
(0.47590428 0.0059015838 -1.9944734e-20)
(0.58374274 0.026269302 -6.9163034e-20)
(0.68644194 0.048977204 -2.7995799e-20)
(0.78176213 0.072417783 7.8929218e-20)
(0.86790206 0.095212471 8.5778156e-21)
(0.94358927 0.1162496 -2.4873485e-20)
(1.0081259 0.13469826 1.3642212e-20)
(1.0613871 0.15001554 -4.319451e-21)
(1.1037694 0.16193657 0)
(1.1360976 0.17044425 2.7203486e-20)
(1.1595047 0.17572306 -7.9322424e-20)
(1.1753021 0.17810366 -3.1475532e-20)
(1.184857 0.1780081 8.1054587e-20)
(1.1894922 0.17590941 -4.2969848e-21)
(1.190403 0.17225554 3.5561076e-21)
(1.188508 0.16719294 2.7111573e-20)
(0.06048526 -0.0069573652 -3.2414612e-20)
(0.18077775 -0.015170383 -8.1624328e-20)
(0.30388933 -0.0075835296 2.5797693e-21)
(0.42642562 0.009703354 7.0161807e-20)
(0.54535156 0.032631552 6.2424375e-20)
(0.65798109 0.058820041 -7.1574526e-20)
(0.76190892 0.086176505 -2.8275239e-22)
(0.85518301 0.1128523 8.552256e-20)
(0.93645357 0.13737837 4.8828078e-20)
(1.0050416 0.15869369 -5.4218418e-20)
(1.0609357 0.17613562 -9.2334232e-20)
(1.1047243 0.18941353 -3.1589831e-21)
(1.137476 0.19855942 4.2127872e-20)
(1.1605874 0.20385854 -6.6056297e-21)
(1.1756248 0.20577017 -1.2868789e-20)
(1.1841777 0.20484916 1.9690812e-20)
(1.1877428 0.20167894 4.3880623e-20)
(1.1876454 0.19682584 -4.3859438e-20)
(1.1849954 0.1907788 -1.0232203e-19)
(1.1806251 0.18377376 2.4566884e-20)
(0.073537226 -0.0034329742 -3.4979755e-20)
(0.2142269 -0.0039890268 -1.7388609e-19)
(0.35251662 0.011839375 8.2103238e-20)
(0.48562804 0.037018337 9.2767502e-20)
(0.61085387 0.066835553 5.7970564e-20)
(0.72576735 0.098481179 8.6107098e-21)
(0.82834812 0.12959696 -1.0624011e-19)
(0.91719008 0.15824269 0)
(0.99162754 0.18302814 -6.8748605e-20)
(1.0517522 0.20311206 -1.5202414e-20)
(1.0983385 0.21814859 5.4703476e-20)
(1.1327009 0.22821081 1.0973383e-20)
(1.156511 0.23369258 -4.5613861e-20)
(1.1716068 0.23519945 -4.9081369e-20)
(1.1798204 0.23344333 2.4287681e-20)
(1.1828451 0.2291532 4.4822895e-20)
(1.1821489 0.22300983 -5.5600415e-20)
(1.1789361 0.21560819 -1.0751123e-19)
(1.1741469 0.20742221 -3.1513628e-21)
(1.1684568 0.19871877 2.7046405e-20)
(0.086650459 0.0019613859 -3.5449056e-21)
(0.24696022 0.011816635 8.7913235e-20)
(0.39884744 0.037492312 -1.6479219e-20)
(0.54040472 0.071218385 -8.4309126e-20)
(0.6694991 0.10778894 4.5164365e-20)
(0.78421961 0.14411544 4.9175465e-20)
(0.88318949 0.17775669 5.5356792e-21)
(0.9657788 0.2068849 -9.9502523e-20)
(1.0321764 0.23038802 -2.5048788e-21)
(1.0833329 0.24781553 5.0503557e-20)
(1.1208071 0.259263 5.9854777e-21)
(1.1465559 0.26523618 -1.9717206e-20)
(1.1627108 0.26650531 -7.5704634e-20)
(1.1713766 0.2639662 -6.2554043e-21)
(1.1744763 0.25852427 4.3533357e-20)
(1.1736549 0.25101086 3.7022016e-20)
(1.1702383 0.24213392 1.9793444e-20)
(1.1652403 0.23245872 -5.2994849e-20)
(1.1594015 0.22240415 1.2957452e-20)
(1.1532252 0.21223796 8.265911e-20)
(-0.0012932617 0.00143466 -1.123446e-21)
(-0.0047459611 0.0031874153 2.0646971e-21)
(-0.010771361 0.0041359047 8.7949719e-22)
(-0.01775429 0.0045395365 -2.4411008e-21)
(-0.024740321 0.0045654171 -1.4114829e-21)
(-0.031299597 0.004326039 1.5460036e-21)
(-0.037161332 0.0039035384 -6.8700815e-21)
(-0.042147448 0.0033577219 -5.9573074e-21)
(-0.046157782 0.0027313812 1.1172e-20)
(-0.049146195 0.0020548304 -9.7427508e-21)
(-0.051100659 0.0013493001 -1.9833103e-22)
(-0.052030449 0.00062942144 3.6673442e-21)
(-0.051957742 -9.4890133e-05 -6.3295632e-22)
(-0.050911885 -0.00081693122 2.281875e-20)
(-0.048925781 -0.0015318457 3.0401155e-22)
(-0.046035343 -0.0022351752 -4.0882882e-20)
(-0.042281798 -0.0029222694 7.5385633e-21)
(-0.037703441 -0.0035910401 2.3864118e-20)
(-0.032308691 -0.0042399884 -4.3852389e-20)
(-0.026156959 -0.0048211152 -2.7739214e-20)
(-0.0016522002 0.0041808669 -5.3716027e-21)
(-0.0053974819 0.0092681395 1.086544e-20)
(-0.011218511 0.012007445 -1.0191542e-20)
(-0.017658028 0.013153766 3.9229739e-21)
(-0.023856436 0.013195415 4.8121446e-21)
(-0.029433321 0.012462726 7.1324197e-22)
(-0.034152324 0.011197015 -2.2509494e-20)
(-0.037860382 0.0095738975 -2.037024e-21)
(-0.040474302 0.0077189875 2.0163543e-20)
(-0.041958925 0.0057212302 -5.047361e-21)
(-0.042308953 0.0036428639 -2.1762594e-20)
(-0.04153734 0.0015267116 4.8973179e-21)
(-0.039667714 -0.00059830709 2.2635427e-20)
(-0.036729082 -0.0027127631 1.0308393e-20)
(-0.032752033 -0.0048026919 2.185429e-20)
(-0.027769168 -0.0068555117 -1.9770733e-20)
(-0.021824791 -0.0088582236 -2.1672949e-20)
(-0.014966265 -0.010804229 2.1184623e-20)
(-0.0071290098 -0.012679006 2.6810372e-20)
(0.0018743053 -0.014317229 1.585477e-20)
(-0.0023034295 0.0065602337 -4.3568692e-21)
(-0.0065392247 0.014480198 -5.6387551e-21)
(-0.011892133 0.018710546 3.0723941e-22)
(-0.017211101 0.020428183 1.0959874e-21)
(-0.021819144 0.020400326 6.6918407e-21)
(-0.025431044 0.019151668 1.0665169e-20)
(-0.027877234 0.017066289 -3.7227643e-21)
(-0.029053271 0.014423784 -1.8896166e-20)
(-0.028909038 0.011424352 6.5413181e-21)
(-0.02743105 0.0082099044 1.2862572e-20)
(-0.024627713 0.0048797746 5.8340855e-21)
(-0.020520107 0.0015022364 1.8159109e-20)
(-0.015135983 -0.0018768664 1.7295918e-21)
(-0.0085053939 -0.0052272517 -3.3864536e-20)
(-0.00065688598 -0.008527615 1.2020173e-21)
(0.008381026 -0.011759115 -2.2139216e-20)
(0.018556878 -0.014904103 -2.4466308e-20)
(0.029802194 -0.01795376 4.5819721e-20)
(0.042304981 -0.020855126 2.5349353e-20)
(0.056738591 -0.023247776 1.2239315e-22)
(-0.003129028 0.0083689712 -5.2833077e-21)
(-0.0078963998 0.018336515 -8.4815282e-21)
(-0.012438987 0.023587812 4.3593051e-21)
(-0.016026536 0.025609661 4.1463455e-21)
(-0.018235025 0.025382748 2.0105709e-21)
(-0.018912652 0.023589324 7.3209967e-21)
(-0.017984717 0.020730274 9.3124793e-21)
(-0.015416709 0.017170378 -1.351136e-21)
(-0.011207046 0.013171313 -1.1481949e-20)
(-0.0053752306 0.0089189301 -2.9071882e-20)
(0.0020481156 0.0045434347 6.1892059e-23)
(0.011026514 0.00013430736 4.0697828e-20)
(0.021522232 -0.0042489558 -1.8383175e-20)
(0.03349786 -0.0085675909 -1.229609e-20)
(0.046920523 -0.012795553 5.5348971e-22)
(0.061760108 -0.016911864 3.230265e-20)
(0.07795303 -0.020901679 -1.4829547e-20)
(0.095392283 -0.024763387 -5.3339195e-20)
(0.11439847 -0.02837973 4.5765018e-20)
(0.13634541 -0.031073109 3.3013176e-20)
(-0.0039704101 0.0094657336 -6.8788988e-22)
(-0.009091659 0.020487795 -1.2534741e-20)
(-0.012364472 0.02615909 -3.4144539e-20)
(-0.013552541 0.028143341 -5.7241631e-21)
(-0.01253324 0.027555009 -3.6222738e-21)
(-0.0093167234 0.025188066 6.3051046e-21)
(-0.0039456424 0.021627412 -4.6461973e-21)
(0.0035261324 0.017298959 -8.8070297e-21)
(0.013036827 0.012508751 2.1899713e-20)
(0.024521251 0.0074744401 5.056709e-21)
(0.03791555 0.0023489 -2.5290296e-20)
(0.05315746 -0.0027627895 1.1078281e-20)
(0.070186886 -0.0077908815 0)
(0.088946604 -0.012691312 1.2089578e-20)
(0.10938547 -0.017436929 -9.7016193e-21)
(0.13145745 -0.022009908 -1.4337122e-20)
(0.15507411 -0.02640866 -1.5738955e-21)
(0.18006765 -0.030659436 -2.2181556e-21)
(0.20685347 -0.034576551 4.6147072e-20)
(0.23766365 -0.037019887 -1.0470129e-20)
(-0.0046450984 0.0097808636 -7.5356686e-21)
(-0.0096772517 0.020747882 2.4516403e-20)
(-0.011064381 0.02616098 -1.0499348e-20)
(-0.0090968322 0.027724447 -2.7469284e-20)
(-0.003979719 0.026601697 -2.7548148e-20)
(0.0040961867 0.023648409 -1.492157e-20)
(0.014954156 0.019496457 -6.9059718e-22)
(0.028436245 0.014604704 5.5499803e-21)
(0.04440316 0.0093034439 1.9615883e-20)
(0.062730513 0.0038284112 7.3530865e-21)
(0.083304337 -0.001654761 -7.1862225e-21)
(0.106019 -0.0070322463 -2.010232e-21)
(0.1307736 -0.012229107 -3.8191715e-20)
(0.15746947 -0.017199764 -1.2693647e-20)
(0.18601204 -0.021919748 1.8750609e-20)
(0.21631182 -0.026379733 -2.1021677e-20)
(0.24823229 -0.03060224 -8.9730593e-21)
(0.28151874 -0.034670627 3.0440471e-20)
(0.31660712 -0.038364841 5.0472078e-20)
(0.35665024 -0.039964124 3.3559671e-21)
(-0.0049617689 0.0093139998 1.6783305e-20)
(-0.0091662698 0.019097712 1.4467939e-20)
(-0.0078593646 0.023563368 5.1145491e-20)
(-0.0018585375 0.024328945 2.3387984e-20)
(0.0082957274 0.022523784 1.8251778e-22)
(0.022221947 0.019014384 -3.9388462e-20)
(0.039597453 0.014440934 -2.4313861e-20)
(0.060147919 0.0092663564 1.0465819e-20)
(0.083639136 0.0038232235 1.4401588e-20)
(0.10986672 -0.0016513056 -1.3113714e-20)
(0.13864566 -0.0069910178 -4.4038719e-20)
(0.16980174 -0.012082857 2.9618502e-20)
(0.20316409 -0.016854171 2.0020555e-20)
(0.23855951 -0.021264009 -2.7551159e-20)
(0.27581236 -0.025296419 1.1650136e-20)
(0.31474818 -0.028957186 2.4197617e-20)
(0.35514554 -0.032303072 8.0723953e-21)
(0.39663396 -0.035506699 -1.1764212e-20)
(0.43957711 -0.038392667 -1.41903e-20)
(0.48798521 -0.038634428 5.8727633e-21)
(-0.0047307766 0.0081236741 1.1093846e-20)
(-0.0070586005 0.015671177 -2.3352723e-20)
(-0.0020293644 0.018562034 8.6200535e-21)
(0.0090325243 0.018216225 3.3587971e-20)
(0.025256369 0.015651149 5.2124341e-20)
(0.04606635 0.011695601 2.0276512e-20)
(0.07098454 0.0069609489 -5.8639351e-21)
(0.099601971 0.0018829463 -1.2286286e-20)
(0.13156897 -0.0032272048 -6.2057465e-21)
(0.16657571 -0.0081496659 3.4240838e-20)
(0.20433429 -0.012733331 -4.5104377e-21)
(0.2445649 -0.016879199 -1.6643301e-20)
(0.28698475 -0.0205287 -1.9693575e-20)
(0.33130005 -0.023656427 -4.7443743e-20)
(0.37720466 -0.026265549 2.3238707e-20)
(0.42438778 -0.028387879 -1.4095986e-20)
(0.47249983 -0.030127639 2.5993402e-20)
(0.52103628 -0.03178321 2.1040826e-20)
(0.57021406 -0.0333507 -8.5570397e-20)
(0.62470928 -0.032058863 -1.0807153e-22)
(-0.0037710521 0.0063146399 2.1925057e-20)
(-0.0028657655 0.010735096 -2.6165533e-20)
(0.007142108 0.011564137 -4.5013298e-20)
(0.02445024 0.0099249887 -2.7253784e-20)
(0.047870862 0.0066523038 -2.0439872e-21)
(0.07662872 0.0024906136 1.3050099e-20)
(0.11007675 -0.0020154003 -2.8337713e-21)
(0.14765209 -0.0064879106 1.8118539e-20)
(0.18886099 -0.010663511 8.8685629e-21)
(0.23325199 -0.014362431 -1.1380173e-20)
(0.28039154 -0.01746896 8.8779124e-21)
(0.3298461 -0.019916818 -2.3903269e-20)
(0.38116888 -0.021678711 8.0504763e-21)
(0.43389093 -0.022759889 1.6756393e-20)
(0.48751945 -0.023194317 -2.6395122e-21)
(0.54154726 -0.023046908 1.6618973e-21)
(0.59543556 -0.022469463 -3.1957488e-22)
(0.64851795 -0.021870124 1.9590422e-20)
(0.70082252 -0.021445083 4.0434012e-21)
(0.75745163 -0.018499103 -5.7334728e-22)
(-0.0019110141 0.0040273483 2.3692115e-20)
(0.003869432 0.0046765198 5.7159968e-20)
(0.020315316 0.0031879632 -4.9244228e-20)
(0.045178295 0.00029442389 -9.9454165e-21)
(0.076965168 -0.0034241553 2.025635e-20)
(0.11469625 -0.0073535907 2.1433721e-21)
(0.15753886 -0.011054963 -2.9815165e-20)
(0.20474835 -0.014244147 6.9848115e-21)
(0.25564954 -0.016737937 7.1097876e-21)
(0.30960479 -0.018426967 -2.6254079e-20)
(0.36598654 -0.019260109 1.2927324e-21)
(0.42415966 -0.019231879 -3.7174116e-20)
(0.4834711 -0.018372216 -3.6341017e-20)
(0.54324575 -0.016738291 6.5683485e-20)
(0.60278823 -0.014407318 5.5627488e-21)
(0.66138896 -0.011475916 -1.5188797e-20)
(0.71830797 -0.0081020644 1.9363967e-20)
(0.77269914 -0.0045928866 -9.1888142e-22)
(0.82408848 -0.000968071 2.0364578e-20)
(0.8762198 0.004328044 -1.9554147e-20)
(-0.018836413 -0.0050997045 5.8352057e-20)
(-0.010224649 -0.0056349279 1.578367e-20)
(-0.00022118649 -0.0060688808 -3.5139565e-20)
(0.010823236 -0.0063341103 1.6790236e-20)
(0.022642479 -0.0065120475 0)
(0.0351779 -0.0066300904 0)
(0.048369679 -0.0066909737 -2.297495e-20)
(0.062138097 -0.0067025401 -1.6502873e-20)
(0.076412743 -0.0066741745 1.9122595e-20)
(0.091134108 -0.0066126659 1.8174035e-20)
(0.10624722 -0.0065232059 1.0524256e-21)
(0.12170027 -0.0064103582 -1.0317637e-20)
(0.13744496 -0.0062780814 8.3268801e-21)
(0.15343607 -0.0061297227 1.8233719e-20)
(0.16963084 -0.0059681454 -5.2274176e-21)
(0.18598863 -0.005795835 -1.0174936e-20)
(0.20247067 -0.0056149625 -4.3195879e-21)
(0.21903994 -0.0054274371 -4.4257392e-21)
(0.23566102 -0.0052349506 7.3667195e-22)
(0.25230003 -0.0050390136 1.2286042e-21)
(0.26892464 -0.004840981 2.5666318e-21)
(0.28550406 -0.0046420726 6.6539476e-21)
(0.30200912 -0.0044433875 2.4894386e-22)
(0.31841226 -0.0042459153 -3.451471e-21)
(0.33468765 -0.0040505435 1.5558759e-22)
(0.35081121 -0.0038580636 -5.7709802e-22)
(0.3667607 -0.0036691756 1.2434367e-21)
(0.3825157 -0.0034844919 1.0522438e-21)
(0.39805769 -0.0033045411 -1.2987944e-21)
(0.41337005 -0.0031297712 -1.2218733e-22)
(0.42843805 -0.0029605542 3.574915e-23)
(0.44324884 -0.0027971901 -3.5187615e-22)
(0.45779142 -0.0026399121 -4.05655e-22)
(0.4720566 -0.0024888914 5.5413699e-23)
(0.48603698 -0.0023442432 -1.3809057e-22)
(0.49972685 -0.0022060331 -2.2343198e-22)
(0.51312219 -0.0020742832 2.5571977e-22)
(0.52622067 -0.0019489791 2.9502052e-22)
(0.53902149 -0.0018300792 -8.2717866e-24)
(0.55152575 -0.0017175179 -1.5517546e-22)
(0.56373542 -0.0016112344 3.0406641e-23)
(0.57565709 -0.0015111281 -4.0144975e-23)
(0.58729095 -0.0014172703 9.2205064e-23)
(0.59866599 -0.0013293246 2.1976951e-23)
(0.6097366 -0.0012485744 -1.1394959e-22)
(0.62069478 -0.0011718105 -6.7617508e-24)
(0.63106292 -0.0011112632 -7.2213487e-26)
(0.64235165 -0.0010339678 -3.5618371e-24)
(0.65042972 -0.0010508277 2.9453565e-23)
(0.66701104 -0.00087558463 3.6051281e-22)
(0.010445888 -0.015017616 -1.2746819e-20)
(0.01817972 -0.016641019 -6.3302349e-20)
(0.027779243 -0.017915421 -3.0541948e-20)
(0.038385178 -0.01867208 3.8476023e-20)
(0.049621025 -0.019183597 1.4662615e-20)
(0.061506673 -0.019529442 -1.8204934e-20)
(0.074012872 -0.019709875 4.672203e-21)
(0.087062727 -0.019746503 2.5447196e-20)
(0.10059321 -0.019667292 9.1992998e-23)
(0.11455409 -0.019491712 -7.6591273e-21)
(0.12889725 -0.019234371 -1.302102e-20)
(0.1435761 -0.018908324 -8.5245335e-21)
(0.15854674 -0.018524985 1.777234e-20)
(0.17376765 -0.018094013 8.9295496e-21)
(0.1891991 -0.017623692 -1.6522442e-20)
(0.20480289 -0.017121244 -6.0390603e-21)
(0.22054228 -0.01659301 3.2145055e-21)
(0.2363819 -0.016044584 8.3716346e-21)
(0.25228769 -0.015480945 6.98323e-21)
(0.26822691 -0.014906555 -6.9727201e-21)
(0.28416812 -0.014325428 -3.1685494e-21)
(0.30008131 -0.013741189 1.3605363e-21)
(0.31593788 -0.013157113 3.8683054e-22)
(0.33171078 -0.012576156 1.2113965e-21)
(0.34737455 -0.012000974 1.8368424e-22)
(0.36290541 -0.01143394 -3.2661705e-22)
(0.37828127 -0.010877157 -7.2434967e-22)
(0.39348186 -0.01033247 9.715681e-22)
(0.40848869 -0.0098014723 8.2483114e-22)
(0.42328511 -0.0092855197 -1.5147534e-22)
(0.4378563 -0.0087857408 5.5306236e-22)
(0.45218924 -0.0083030504 -2.3880944e-22)
(0.46627274 -0.0078381628 -3.7070053e-22)
(0.48009736 -0.0073916086 -6.0999296e-22)
(0.49365536 -0.0069637506 4.4171835e-22)
(0.50694073 -0.0065548027 -1.5479117e-23)
(0.51994906 -0.0061648497 1.6124947e-22)
(0.5326776 -0.0057938667 -4.417512e-22)
(0.54512511 -0.0054417468 3.7190003e-22)
(0.55729227 -0.0051083117 6.7175782e-23)
(0.56918055 -0.0047933966 -1.0285424e-22)
(0.58079604 -0.0044967178 1.7614064e-22)
(0.59213849 -0.0042185041 2.3340237e-22)
(0.60323616 -0.0039577658 1.6926999e-22)
(0.61404359 -0.0037183486 1.6767832e-22)
(0.62474994 -0.0034906969 -2.6099533e-23)
(0.63488395 -0.0033112606 8.4050508e-23)
(0.64593334 -0.0030819221 7.6298528e-23)
(0.65383187 -0.0031324177 -1.9467561e-22)
(0.67009421 -0.0026125098 -3.8024443e-23)
(0.067614719 -0.024029156 9.4528323e-21)
(0.073589705 -0.02674906 3.2950996e-21)
(0.082265546 -0.02880558 -1.2162204e-20)
(0.091947863 -0.029968517 -1.2257915e-21)
(0.10198326 -0.030767877 1.4970592e-20)
(0.11254639 -0.031330906 -1.4887127e-20)
(0.12367603 -0.031636085 -2.984228e-20)
(0.13529688 -0.031713021 1.4493526e-20)
(0.14735703 -0.031607651 1.8181971e-20)
(0.15982351 -0.031350072 -1.159852e-20)
(0.17266068 -0.030961836 1.0190555e-21)
(0.18583092 -0.03046277 8.6860166e-21)
(0.19929795 -0.029870569 -1.5253546e-20)
(0.21302669 -0.029200257 2.9095189e-21)
(0.22698257 -0.028464779 7.5194389e-21)
(0.24113155 -0.027675524 3.1595493e-23)
(0.25544031 -0.026842578 2.6556234e-22)
(0.26987624 -0.025974917 -7.4150898e-21)
(0.28440751 -0.025080585 3.861688e-21)
(0.2990032 -0.02416684 8.47491e-21)
(0.31363337 -0.023240255 -3.8351785e-21)
(0.32826917 -0.022306796 -2.2130375e-21)
(0.34288298 -0.021371879 1.0124434e-21)
(0.35744849 -0.02044041 -1.7155343e-21)
(0.37194081 -0.019516818 1.3532261e-21)
(0.38633653 -0.018605072 7.184596e-22)
(0.40061386 -0.017708701 1.5268438e-21)
(0.41475263 -0.016830811 -1.952667e-21)
(0.42873434 -0.015974097 2.2235746e-21)
(0.44254222 -0.015140862 5.5188682e-22)
(0.45616122 -0.014333035 4.0322975e-22)
(0.46957802 -0.01355219 3.2134509e-22)
(0.48278097 -0.012799572 8.7325492e-22)
(0.49576013 -0.012076119 -1.3708684e-21)
(0.50850719 -0.011382491 3.7065833e-22)
(0.52101547 -0.010719104 1.0941579e-22)
(0.53327987 -0.010086155 -4.5173301e-23)
(0.54529684 -0.0094836618 8.6731617e-23)
(0.55706435 -0.0089115031 -3.7185353e-22)
(0.56858221 -0.0083694392 1.8293794e-22)
(0.57985102 -0.0078572511 -3.4987441e-23)
(0.59087593 -0.0073745203 3.9005205e-22)
(0.60165586 -0.0069216764 -1.8544959e-22)
(0.6122177 -0.0064971307 4.7324527e-23)
(0.62251632 -0.0061072722 4.3605352e-23)
(0.63273545 -0.0057364132 -7.3602972e-23)
(0.64241601 -0.0054444953 -1.208345e-22)
(0.65300173 -0.0050705953 3.8811611e-22)
(0.66055188 -0.0051543524 1.72715e-22)
(0.67619595 -0.0043071335 -8.3041113e-22)
(0.15021534 -0.031460444 1.5010126e-21)
(0.15354695 -0.03525741 -1.1566613e-20)
(0.16061628 -0.038010937 6.6441967e-21)
(0.16880597 -0.039479116 -1.3324744e-20)
(0.17698231 -0.040520708 -1.9758314e-21)
(0.18552354 -0.0413023 9.1599431e-21)
(0.19458428 -0.041757257 -9.7662206e-21)
(0.20408701 -0.041913731 1.5662771e-21)
(0.21398778 -0.041833353 1.2903803e-20)
(0.22427609 -0.041554358 3.4032012e-21)
(0.23493265 -0.041102068 -6.2096976e-21)
(0.24593034 -0.040500474 -2.8638114e-21)
(0.25724172 -0.039771774 -5.8409063e-21)
(0.26883926 -0.038935082 -6.4553168e-21)
(0.28069439 -0.038007003 3.2356912e-21)
(0.2927778 -0.03700233 8.4620799e-22)
(0.30505993 -0.035934354 1.3679595e-21)
(0.31751119 -0.034815052 -3.3850431e-21)
(0.33010217 -0.03365528 -4.2428899e-21)
(0.34280385 -0.032464927 2.3616531e-21)
(0.35558781 -0.031253029 3.2251395e-21)
(0.36842639 -0.030027849 -1.5636227e-21)
(0.38129288 -0.028796936 1.5867286e-21)
(0.39416163 -0.027567167 -3.9124137e-22)
(0.40700823 -0.02634478 -3.919648e-21)
(0.41980959 -0.02513539 -3.0332848e-21)
(0.432544 -0.023944015 -1.9026432e-22)
(0.44519129 -0.022775089 4.2858833e-22)
(0.4577328 -0.021632482 -2.2106065e-21)
(0.47015146 -0.02051952 -8.5497635e-22)
(0.48243178 -0.01943901 2.2837679e-22)
(0.49455989 -0.018393267 -1.2498737e-21)
(0.50652352 -0.017384146 6.2617331e-24)
(0.51831196 -0.016413076 -4.2421186e-22)
(0.52991607 -0.015481101 -4.7193726e-22)
(0.54132825 -0.014588915 -5.1996314e-22)
(0.55254237 -0.013736916 -8.4134096e-22)
(0.56355387 -0.012925242 -5.4495624e-23)
(0.57435958 -0.012153841 -3.9160667e-24)
(0.58495814 -0.011422489 -5.1973131e-22)
(0.59534897 -0.010730991 -9.1606275e-23)
(0.60553593 -0.010078869 -3.3240126e-22)
(0.61551684 -0.0094668162 -4.3761219e-22)
(0.6253167 -0.0088927348 3.7842906e-22)
(0.6348909 -0.0083655096 1.4821501e-23)
(0.64441549 -0.0078636945 1.823841e-22)
(0.65344889 -0.0074694634 -1.324774e-22)
(0.6633717 -0.0069630836 -2.6692714e-22)
(0.67042389 -0.0070793003 -4.4682557e-23)
(0.68518123 -0.0059328543 4.6230382e-22)
(0.25468572 -0.036552773 -2.0900317e-20)
(0.25447026 -0.041393526 4.7585961e-20)
(0.25907339 -0.044745675 1.0348097e-20)
(0.26508419 -0.046442061 -1.5765322e-20)
(0.27070939 -0.047714333 -2.0227949e-21)
(0.27652001 -0.048747795 2.6232266e-21)
(0.28283556 -0.049413738 -1.6608206e-21)
(0.28957698 -0.04972812 -4.6861429e-21)
(0.29669665 -0.049761452 -4.0159176e-21)
(0.30420555 -0.049557075 -1.2207642e-20)
(0.31210227 -0.049141711 1.7897761e-20)
(0.32036947 -0.048540827 6.5219932e-21)
(0.3289871 -0.047778991 -1.6780529e-20)
(0.33793413 -0.046878046 1.0317575e-20)
(0.34718719 -0.045857328 8.3849916e-21)
(0.35672087 -0.044734342 -8.7923459e-22)
(0.36650858 -0.043525097 -3.1222224e-21)
(0.37652303 -0.042244279 -3.8197357e-21)
(0.38673657 -0.040905391 -1.3892597e-21)
(0.39712147 -0.039520886 -1.230421e-21)
(0.40765027 -0.038102255 -3.0257647e-21)
(0.41829599 -0.036660104 0)
(0.42903235 -0.035204191 -1.3451933e-21)
(0.43983396 -0.03374346 3.9309543e-21)
(0.45067649 -0.032286067 5.4052737e-21)
(0.46153676 -0.030839394 -9.4112608e-22)
(0.47239288 -0.029410069 -2.927451e-21)
(0.48322431 -0.028003978 3.0258475e-21)
(0.49401193 -0.026626289 2.5447195e-22)
(0.50473809 -0.025281473 3.4352555e-21)
(0.51538664 -0.023973338 -5.3459797e-22)
(0.5259429 -0.022705058 1.7173517e-21)
(0.53639371 -0.021479215 -7.996476e-22)
(0.5467274 -0.020297846 2.9094456e-22)
(0.55693375 -0.019162487 -4.3404304e-22)
(0.56700403 -0.018074226 5.6231918e-22)
(0.57693091 -0.017033765 4.5710288e-22)
(0.58670856 -0.016041471 3.8255992e-22)
(0.59633248 -0.015097463 -9.5937311e-22)
(0.60579996 -0.014201635 6.8356355e-22)
(0.61510903 -0.013353908 -3.6957911e-22)
(0.62426204 -0.012553843 -1.1033406e-21)
(0.63325557 -0.011802471 1.4078493e-21)
(0.64211234 -0.011097299 -6.2007161e-23)
(0.65078852 -0.010449631 -1.5816509e-22)
(0.65945061 -0.0098327661 -7.8248354e-24)
(0.66767926 -0.0093493945 -1.2622491e-22)
(0.67677531 -0.0087263653 -4.6584944e-22)
(0.68320728 -0.0088738252 8.7882245e-22)
(0.69685315 -0.007465106 -4.4316784e-23)
(0.37635137 -0.038368185 -1.7495102e-20)
(0.37170985 -0.044270249 1.2832049e-20)
(0.37286698 -0.048161633 2.9754599e-21)
(0.37591054 -0.050098872 -7.6353754e-21)
(0.37830536 -0.051669994 1.2055986e-20)
(0.38072303 -0.053042396 7.7914134e-21)
(0.38367611 -0.054030064 -1.2647692e-20)
(0.38710068 -0.054633128 -6.067978e-21)
(0.39092935 -0.05491803 1.2697343e-20)
(0.39518255 -0.05492716 -1.530498e-20)
(0.39987437 -0.054687542 -1.4063195e-20)
(0.4049952 -0.054224681 1.4129642e-20)
(0.41052876 -0.053563689 6.8193862e-21)
(0.41645733 -0.052727979 -4.2037724e-21)
(0.4227603 -0.051739047 -1.8545587e-21)
(0.4294142 -0.050616782 -4.0581703e-21)
(0.43639366 -0.049379735 5.3047587e-21)
(0.44367215 -0.048045261 3.6682105e-21)
(0.45122244 -0.046629583 -3.2408302e-21)
(0.459017 -0.045147851 3.1379502e-21)
(0.4670283 -0.043614196 2.7666832e-21)
(0.47522915 -0.042041765 -3.2111166e-21)
(0.48359294 -0.040442741 3.7056586e-22)
(0.49209383 -0.038828358 -3.2571662e-21)
(0.50070693 -0.037208907 7.2454309e-21)
(0.50940844 -0.03559375 6.1080707e-21)
(0.51817577 -0.033991325 8.0973567e-22)
(0.52698758 -0.032409169 -1.7683263e-21)
(0.53582392 -0.030853932 3.7021909e-21)
(0.54466621 -0.029331408 7.1885451e-21)
(0.55349728 -0.02784657 2.3049369e-21)
(0.56230143 -0.026403613 3.3165011e-21)
(0.57106435 -0.025005998 1.9956289e-21)
(0.57977318 -0.023656511 7.4558391e-22)
(0.58841649 -0.02235732 -2.6374614e-22)
(0.59698423 -0.02111004 2.7203329e-21)
(0.60546775 -0.019915803 6.1992701e-22)
(0.61385981 -0.018775327 2.9488025e-22)
(0.62215451 -0.017689018 5.6232951e-23)
(0.63034767 -0.016656999 9.8968067e-22)
(0.63843586 -0.015679417 4.7020541e-23)
(0.64641984 -0.014755972 4.4248391e-22)
(0.6542949 -0.013888115 -1.2622034e-22)
(0.66208127 -0.013073081 -2.773564e-22)
(0.66973625 -0.012324496 -1.5219126e-22)
(0.67741528 -0.011610993 -4.2209557e-22)
(0.68472523 -0.01105371 1.6140409e-22)
(0.69287364 -0.010332517 -1.2724234e-22)
(0.6985966 -0.010509643 -5.0125934e-22)
(0.71095942 -0.0088820037 2.4587572e-22)
(0.50927439 -0.035974299 3.6471436e-21)
(0.49953048 -0.04296068 -1.8958304e-20)
(0.49627564 -0.047383478 -2.3083854e-21)
(0.495556 -0.049736783 5.4869523e-21)
(0.49416961 -0.051818049 3.0528113e-21)
(0.49269582 -0.053705415 -4.9885315e-23)
(0.49181237 -0.055187653 6.1896704e-21)
(0.49151459 -0.056265403 7.6251041e-21)
(0.49171175 -0.056990537 9.8580432e-21)
(0.49241082 -0.057395578 -1.1250045e-20)
(0.49363114 -0.057506305 -2.157943e-20)
(0.49536788 -0.057348421 -3.9353502e-21)
(0.49760479 -0.056947135 1.593815e-20)
(0.50032314 -0.056327013 1.2808964e-20)
(0.50350178 -0.055511737 -5.906696e-21)
(0.50711666 -0.05452385 1.3817025e-21)
(0.51114154 -0.053384787 -3.6600882e-21)
(0.51554891 -0.052114942 2.2443816e-21)
(0.52031045 -0.05073365 -2.9123034e-22)
(0.52539752 -0.049259167 -1.8654112e-21)
(0.53078144 -0.047708663 7.826598e-21)
(0.53643385 -0.046098213 -2.9308986e-22)
(0.54232693 -0.044442792 4.1818334e-22)
(0.54843363 -0.042756267 -6.5646483e-22)
(0.55472786 -0.041051388 -4.3029437e-21)
(0.56118458 -0.039339793 4.2085217e-21)
(0.56777995 -0.037632014 1.9031229e-21)
(0.57449139 -0.035937492 -3.3081974e-21)