/*--------------------------------*- C++ -*----------------------------------*\
  =========                 |
  \\      /  F ield         | OpenFOAM: The Open Source CFD Toolbox
   \\    /   O peration     | Website:  https://openfoam.org
    \\  /    A nd           | Version:  6
     \\/     M anipulation  |
\*---------------------------------------------------------------------------*/
FoamFile
{
    version     2.0;
    format      ascii;
    class       volVectorField;
    location    "188";
    object      UMean;
}
// * * * * * * * * * * * * * * * * * * * * * * * * * * * * * * * * * * * * * //

dimensions      [0 1 -1 0 0 0 0];

internalField   nonuniform List<vector> 
9200
(
(0.0017729031 0.00085879674 -6.1137599e-20)
(0.016114801 -0.0038267039 4.8596141e-20)
(0.042611792 -0.0086688086 -4.0033307e-20)
(0.078543232 -0.013460089 -6.3496243e-20)
(0.12201343 -0.017985906 1.9702339e-20)
(0.17175836 -0.021813039 3.451437e-20)
(0.22667413 -0.024655642 -1.2906117e-20)
(0.28574086 -0.026373003 9.7648275e-21)
(0.34800549 -0.026911085 1.8009703e-20)
(0.4125505 -0.026279146 1.5918545e-21)
(0.47847073 -0.024538454 -2.3065846e-20)
(0.54486514 -0.021791262 2.2160495e-20)
(0.61084041 -0.018169807 -4.3238921e-20)
(0.67552428 -0.013825156 -2.2736859e-20)
(0.73808684 -0.008915396 6.3536939e-21)
(0.79776715 -0.0035959366 -2.7116291e-20)
(0.85391803 0.0020034094 2.725277e-20)
(0.90612756 0.007924233 2.419537e-20)
(0.95403785 0.014294902 -2.5596262e-22)
(0.99501584 0.01780156 -1.5845919e-21)
(0.0062004743 -0.0019778608 -1.7612738e-20)
(0.029973918 -0.010899997 4.1737309e-20)
(0.066831771 -0.017771019 2.4268079e-20)
(0.11364389 -0.023010901 -1.2115155e-19)
(0.16820957 -0.026813335 -1.3254231e-20)
(0.22900511 -0.028980118 7.7235461e-20)
(0.29465848 -0.029428805 -3.7377005e-20)
(0.36387028 -0.028207511 -8.9129471e-21)
(0.4354031 -0.02543445 3.6475113e-20)
(0.50805896 -0.021278768 -4.6131287e-20)
(0.58066903 -0.01595272 -3.2553703e-20)
(0.65210142 -0.0097011916 7.7299581e-20)
(0.72128206 -0.0027898213 4.1056085e-20)
(0.78722394 0.0045067175 -7.3017127e-20)
(0.84906026 0.011914695 1.5707928e-20)
(0.90607617 0.019165992 -3.9462754e-20)
(0.95774755 0.02601187 -1.49668e-20)
(1.0038376 0.032295354 7.6166806e-20)
(1.0442655 0.037612671 3.2671222e-20)
(1.0773095 0.038879762 -8.5419957e-20)
(0.012038181 -0.0047170055 3.7585511e-20)
(0.047563912 -0.017406562 2.3049589e-21)
(0.096554447 -0.02555403 2.2745223e-20)
(0.15552473 -0.030328385 1.0226812e-21)
(0.22197983 -0.032416671 -4.2043288e-20)
(0.29411219 -0.031920028 1.9694928e-20)
(0.37024856 -0.02901983 1.3852024e-20)
(0.44877973 -0.02401067 -5.3082809e-20)
(0.52816688 -0.017235705 6.0698712e-20)
(0.60693847 -0.0090691749 1.5458148e-20)
(0.68370166 9.1235596e-05 -5.8121216e-20)
(0.75717133 0.0098380728 -1.96533e-20)
(0.82620816 0.019770611 9.3619232e-21)
(0.88985781 0.029511004 2.5072767e-20)
(0.94738452 0.038718005 -1.2118733e-20)
(0.99829225 0.047095639 2.9730975e-20)
(1.0423353 0.054406861 -2.1626964e-20)
(1.079546 0.060520282 -7.4326976e-20)
(1.1101101 0.065174895 -2.4430593e-20)
(1.1332294 0.066514649 5.0919666e-20)
(0.019379075 -0.0071086111 2.4904206e-20)
(0.068993926 -0.022649262 5.2529351e-20)
(0.13175243 -0.030977674 2.058515e-20)
(0.2038911 -0.03413484 1.3810308e-20)
(0.28264023 -0.033387588 1.825678e-20)
(0.36589343 -0.02920551 -5.0065274e-20)
(0.45166214 -0.022097441 -2.7043327e-20)
(0.53803049 -0.012660864 0)
(0.62319047 -0.0015088084 1.564256e-20)
(0.70546789 0.010750091 -6.7719038e-21)
(0.78335969 0.023522863 -1.0402077e-19)
(0.85558188 0.036251708 -1.6570609e-20)
(0.92111572 0.048435746 6.9376607e-20)
(0.97924245 0.05964997 4.7616382e-22)
(1.0295599 0.06955885 -1.667436e-21)
(1.071977 0.077922602 2.3222962e-20)
(1.1066875 0.08460326 -5.4104237e-21)
(1.1341436 0.089592696 -6.4464472e-20)
(1.1549368 0.092871708 -4.8408147e-20)
(1.1690754 0.093495493 7.1721329e-20)
(0.028245986 -0.0088698916 -3.8309311e-21)
(0.094151664 -0.025877177 -4.7762868e-21)
(0.17201723 -0.03296995 5.8214658e-20)
(0.25791004 -0.033171903 1.9496063e-20)
(0.34882714 -0.028411177 -3.3706357e-20)
(0.44237505 -0.01959473 1.2440141e-20)
(0.53627644 -0.007617645 2.7803242e-21)
(0.62836799 0.0065763323 3.5771731e-20)
(0.71667344 0.022081892 5.9985558e-21)
(0.79946145 0.038058579 -1.4277503e-20)
(0.87530352 0.053747541 6.4272416e-20)
(0.94312704 0.06849556 -6.1240409e-20)
(1.00225 0.081777315 -1.3981995e-19)
(1.0523889 0.093209453 -5.8896412e-21)
(1.0936381 0.10255431 8.751218e-20)
(1.1264211 0.10971278 0)
(1.1514224 0.11471278 1.0772537e-20)
(1.1695169 0.11771185 -1.6096203e-20)
(1.1816542 0.1188951 -9.161665e-21)
(1.188413 0.11787259 2.1654499e-20)
(0.03857155 -0.0096959236 -5.1012724e-21)
(0.12267335 -0.026328819 4.4578828e-21)
(0.21655127 -0.030512076 -9.0073169e-21)
(0.31625176 -0.026332554 2.9095863e-20)
(0.41861602 -0.016444009 -3.0788718e-20)
(0.52102065 -0.0022475291 -1.7716734e-20)
(0.62098537 0.01493663 3.8267545e-20)
(0.71622824 0.033805644 4.7689534e-21)
(0.80477756 0.053179687 -2.6335206e-20)
(0.88505353 0.072035745 7.3676732e-20)
(0.95592939 0.089526527 2.5630462e-22)
(1.016766 0.10500136 -8.4917539e-20)
(1.0674096 0.11801801 0)
(1.1081517 0.12833946 4.1412574e-20)
(1.139656 0.1359159 5.7264046e-21)
(1.1628623 0.14085457 -8.0856965e-20)
(1.1788824 0.14338533 -2.0441376e-20)
(1.1889029 0.14383834 -1.2906766e-20)
(1.1940802 0.14255598 -1.5298603e-20)
(1.195271 0.13947872 4.1906349e-20)
(0.050185331 -0.0092806557 -1.7310215e-20)
(0.15392819 -0.023291266 -3.2149346e-21)
(0.26417811 -0.022728419 3.0710666e-20)
(0.37715007 -0.012772081 3.7677377e-20)
(0.48965321 0.0031685914 -2.0553003e-20)
(0.59894957 0.023171243 -7.2294174e-20)
(0.70250914 0.045490219 -2.9648509e-20)
(0.79812754 0.068499077 8.2732611e-20)
(0.88406576 0.090814569 9.3441056e-21)
(0.95913534 0.1113324 -2.5947634e-20)
(1.0227362 0.12923783 1.4108949e-20)
(1.0748453 0.1440093 -4.5646375e-21)
(1.1159565 0.15540476 0)
(1.1469792 0.16342808 2.8406435e-20)
(1.1691135 0.16828036 -8.2611212e-20)
(1.1837183 0.1703032 -3.2759793e-20)
(1.1921893 0.16992358 8.4069246e-20)
(1.1958614 0.16761454 -4.7298634e-21)
(1.1959297 0.16381758 3.6056783e-21)
(1.1933014 0.1586576 2.8234264e-20)
(0.062807958 -0.0073447622 -3.2576131e-20)
(0.18702477 -0.016171976 -8.3556616e-20)
(0.31338795 -0.0089838837 1.6503416e-21)
(0.43850628 0.0079889113 7.2667126e-20)
(0.55932972 0.030605957 6.4656301e-20)
(0.67318243 0.056444695 -7.3642625e-20)
(0.77769923 0.083389036 2.4409382e-22)
(0.87099743 0.10958349 8.9790513e-20)
(0.95182095 0.13356779 5.1004724e-20)
(1.0196 0.15430123 -5.6788489e-20)
(1.0744373 0.17114801 -9.644602e-20)
(1.117029 0.183846 -3.2940722e-21)
(1.1485368 0.1924531 4.3855318e-20)
(1.1704305 0.1972748 -6.7969754e-21)
(1.1843266 0.19878333 -1.3193611e-20)
(1.191844 0.19753902 2.0133536e-20)
(1.1944907 0.19412429 4.5354834e-20)
(1.1935902 0.18909994 -4.5125097e-20)
(1.1902423 0.18294448 -1.0557951e-19)
(1.1852629 0.17587316 2.5570485e-20)
(0.07602165 -0.0036662933 -3.5783988e-20)
(0.22077268 -0.0045744503 -1.7559045e-19)
(0.36231363 0.011034055 8.5387572e-20)
(0.4978937 0.036004421 9.5932965e-20)
(0.6248233 0.065554953 5.9743665e-20)
(0.7407198 0.096845156 8.9682066e-21)
(0.84363809 0.12750724 -1.1019267e-19)
(0.93227437 0.15561038 0)
(1.0060834 0.17978882 -7.1941017e-20)
(1.0652835 0.19923454 -1.590398e-20)
(1.1107698 0.21363727 5.6876073e-20)
(1.1439609 0.2231025 1.1354257e-20)
(1.1666102 0.22804944 -4.7215084e-20)
(1.1806118 0.22909992 -5.0648329e-20)
(1.1878305 0.22697293 2.5217073e-20)
(1.1899723 0.22239655 4.6430513e-20)
(1.1885035 0.21604491 -5.7429161e-20)
(1.1846178 0.20850305 -1.1071455e-19)
(1.1792409 0.20023238 -3.0739534e-21)
(1.1730319 0.19148266 2.7763146e-20)
(0.089253679 0.0019043669 -3.9687575e-21)
(0.25368743 0.011688263 8.9794081e-20)
(0.4087688 0.037320414 -1.4595574e-20)
(0.55264514 0.070928713 -8.7871644e-20)
(0.6832368 0.10725734 4.6777983e-20)
(0.79871255 0.14320429 5.0234621e-20)
(0.8978048 0.17633797 5.7560099e-21)
(0.98001422 0.20485894 -1.0316495e-19)
(1.0456692 0.22769554 -2.6011343e-21)
(1.0958553 0.2444415 5.2420064e-20)
(1.1322493 0.2552334 6.1946322e-21)
(1.1569017 0.26060953 -2.0482406e-20)
(1.1720096 0.2613616 -7.8198313e-20)
(1.1797166 0.25839558 -6.3702518e-21)
(1.1819625 0.25261726 4.4800681e-20)
(1.1803925 0.24485124 3.8044327e-20)
(1.1763227 0.23579453 2.0207731e-20)
(1.1707525 0.2259998 -5.4781487e-20)
(1.1644074 0.21587314 1.2894236e-20)
(1.1577764 0.20567017 8.458823e-20)
(-0.0013294733 0.0014559954 -8.3120608e-22)
(-0.004764171 0.003192436 1.8666865e-21)
(-0.010798523 0.0040961782 1.8734704e-21)
(-0.01766151 0.004441247 -1.0322191e-21)
(-0.024428633 0.0044000998 -2.3957053e-21)
(-0.030671659 0.004089647 2.5271277e-21)
(-0.036117227 0.0035950555 -8.4440186e-21)
(-0.040590639 0.0029778297 -7.2835436e-21)
(-0.043997606 0.0022816751 1.3070973e-20)
(-0.04629796 0.0015373892 -1.1222028e-20)
(-0.047485412 0.00076642307 -2.0365349e-22)
(-0.047574731 -1.6535066e-05 4.1816231e-21)
(-0.046593245 -0.00080160814 -6.8039981e-22)
(-0.044575044 -0.0015821851 2.5386306e-20)
(-0.041557362 -0.0023535305 2.7117283e-22)
(-0.037580067 -0.0031113077 -4.5062959e-20)
(-0.032688091 -0.0038509517 8.3833474e-21)
(-0.026923157 -0.0045704116 2.5994665e-20)
(-0.020296035 -0.0052682161 -4.7620758e-20)
(-0.012869872 -0.0058951068 -3.0008161e-20)
(-0.0016882115 0.0042378539 -5.7141953e-21)
(-0.0053936457 0.0092689664 9.6575097e-21)
(-0.011179193 0.011871725 -1.0529059e-20)
(-0.017443486 0.012842577 5.7942866e-21)
(-0.023361879 0.012684878 6.8548946e-21)
(-0.028557712 0.011741679 9.3080904e-22)
(-0.032793634 0.01026301 -2.7857947e-20)
(-0.035921061 0.008429363 -2.3378877e-21)
(-0.037863334 0.006368984 2.3382448e-20)
(-0.038591733 0.0041722241 -5.7825556e-21)
(-0.038107114 0.0019019789 -2.4707832e-20)
(-0.036428346 -0.00039873203 5.5023794e-21)
(-0.033584687 -0.0027010535 2.5016034e-20)
(-0.029610458 -0.004985763 1.1428054e-20)
(-0.024541275 -0.0072391826 2.4280075e-20)
(-0.018414523 -0.0094490245 -2.1693627e-20)
(-0.011279236 -0.011602493 -2.3586506e-20)
(-0.0031878069 -0.013693032 2.3284452e-20)
(0.0059217605 -0.015705956 2.8904615e-20)
(0.016241338 -0.017472269 1.679125e-20)
(-0.0023355295 0.006633108 -4.641907e-21)
(-0.0064855182 0.014437719 -4.7744876e-21)
(-0.011716605 0.018434201 3.336517e-23)
(-0.01675506 0.019861098 -2.2458055e-22)
(-0.020967731 0.019507345 7.6264953e-21)
(-0.024077356 0.017917054 1.1988545e-20)
(-0.025916491 0.015487663 -4.465616e-21)
(-0.026387331 0.012506229 -2.1599533e-20)
(-0.025447738 0.0091770174 7.4914979e-21)
(-0.023091788 0.0056441506 1.4604669e-20)
(-0.019335092 0.0020080484 6.7484255e-21)
(-0.014205731 -0.0016626122 2.0059177e-20)
(-0.0077383003 -0.0053219512 1.917808e-21)
(3.0397338e-05 -0.0089398454 -3.7069917e-20)
(0.0090651206 -0.012495247 1.5835244e-21)
(0.019330648 -0.015969649 -2.3637505e-20)
(0.030768795 -0.019345723 -2.6989018e-20)
(0.043303051 -0.022614802 5.0041061e-20)
(0.057116544 -0.025723519 2.7715493e-20)
(0.072898773 -0.028305657 5.1757301e-22)
(-0.0031478748 0.0084293614 -5.785073e-21)
(-0.0077555794 0.018194934 -1.1488939e-20)
(-0.012051818 0.023107528 4.494764e-21)
(-0.015211179 0.024726445 4.7333425e-21)
(-0.016864772 0.024056383 2.1264921e-21)
(-0.016874647 0.021803358 8.8060587e-21)
(-0.01517276 0.018484735 1.0887178e-20)
(-0.011734541 0.014474448 -1.6346295e-21)
(-0.0065688156 0.010039209 -1.3027844e-20)
(0.00029528637 0.0053676628 -3.2689071e-20)
(0.0088179023 0.00059146686 1.7292239e-22)
(0.018953501 -0.0041992686 4.5040871e-20)
(0.030655193 -0.0089447929 -1.9936778e-20)
(0.043876281 -0.013606275 -1.3469116e-20)
(0.058574347 -0.018157737 2.7419118e-22)
(0.074709551 -0.022578421 3.5260841e-20)
(0.092208484 -0.026853845 -1.6629479e-20)
(0.11095229 -0.03098302 -5.7413232e-20)
(0.13125059 -0.03484939 4.8793855e-20)
(0.15450135 -0.037769416 3.5410932e-20)
(-0.0039600836 0.0094821651 -4.3763034e-22)
(-0.0088155584 0.020185554 -1.3360484e-20)
(-0.011683668 0.025405536 -3.8810308e-20)
(-0.012262661 0.026879169 -7.1414953e-21)
(-0.010497066 0.025742468 -3.3398358e-21)
(-0.0064179437 0.022814783 7.3103588e-21)
(-8.0340255e-05 0.018698813 -5.536244e-21)
(0.0084475085 0.013830192 -1.0093399e-20)
(0.019089871 0.0085203113 2.4462433e-20)
(0.031768748 0.0029898532 5.4849257e-21)
(0.046407901 -0.0026066878 -2.8360089e-20)
(0.062932699 -0.0081634131 1.2012601e-20)
(0.081270515 -0.013610135 0)
(0.10135122 -0.018902487 1.3171928e-20)
(0.1231102 -0.024013107 -1.0531792e-20)
(0.1464876 -0.028924117 -1.5680702e-20)
(0.17138144 -0.033634117 -9.6612531e-22)
(0.19760838 -0.038170558 -2.6544767e-21)
(0.22556374 -0.042351912 4.8436131e-20)
(0.25750055 -0.04503714 -1.2068619e-20)
(-0.0045836214 0.0097243722 -7.8330234e-21)
(-0.0092074971 0.020229111 2.6796808e-20)
(-0.010001888 0.025072466 -1.1999181e-20)
(-0.0072201856 0.026023984 -3.0276672e-20)
(-0.001145848 0.024261904 -2.9636831e-20)
(0.0080018313 0.020666179 -1.6573219e-20)
(0.02002713 0.015885878 -9.2504761e-22)
(0.034752349 0.010388948 6.1983937e-21)
(0.0520197 0.004510614 2.1564641e-20)
(0.07168758 -0.0015106452 8.0775921e-21)
(0.093625404 -0.0075077591 -7.7960199e-21)
(0.11771092 -0.013366205 -1.9514666e-21)
(0.14382635 -0.019010652 -4.1628597e-20)
(0.17185576 -0.024395172 -1.3772075e-20)
(0.2016867 -0.029494935 2.0731122e-20)
(0.23321143 -0.034300306 -2.2986472e-20)
(0.26627623 -0.038833501 -9.6704734e-21)
(0.3006085 -0.04317899 3.2071245e-20)
(0.33661522 -0.047125875 5.3223203e-20)
(0.37745284 -0.048965464 3.6599014e-21)
(-0.0048226984 0.0091625155 1.7380656e-20)
(-0.0084369247 0.018321753 1.5034544e-20)
(-0.0063230397 0.022097819 5.4896141e-20)
(0.00071348794 0.022159193 2.5657658e-20)
(0.012044606 0.019640112 2.0278741e-22)
(0.027252694 0.015427845 -4.3432094e-20)
(0.045989065 0.010177439 -2.6523274e-20)
(0.067953577 0.0043590759 1.1448623e-20)
(0.092887974 -0.0016910759 1.571998e-20)
(0.12056552 -0.0077340329 -1.4120505e-20)
(0.1507795 -0.013602883 -4.8079585e-20)
(0.18333416 -0.019184489 3.2295131e-20)
(0.21803702 -0.024406327 2.1494471e-20)
(0.25469323 -0.029227534 -2.9811116e-20)
(0.29310539 -0.033632107 1.2709994e-20)
(0.33307745 -0.037625596 2.5978767e-20)
(0.3743686 -0.041263856 8.7910531e-21)
(0.41659096 -0.04471925 -1.3034053e-20)
(0.46007493 -0.047829522 -1.4571653e-20)
(0.50880627 -0.04830071 7.6235641e-21)
(-0.0044852718 0.007864494 1.171511e-20)
(-0.0060000232 0.014618534 -2.5519331e-20)
(7.3692911e-05 0.016705102 8.4730644e-21)
(0.012403142 0.015575717 3.6342923e-20)
(0.030023367 0.012240803 5.578661e-20)
(0.052315279 0.007544633 2.1917847e-20)
(0.078767634 0.0021095096 -6.3165624e-21)
(0.1089392 -0.0036245313 -1.3290583e-20)
(0.14245033 -0.0093448627 -6.7864976e-21)
(0.17896314 -0.014831522 3.7148073e-20)
(0.21816265 -0.01993412 -5.0903162e-21)
(0.25974261 -0.02455484 -1.8170712e-20)
(0.30339449 -0.02863642 -2.1144486e-20)
(0.34879965 -0.032154648 -5.1272288e-20)
(0.39562844 -0.035113617 2.4912446e-20)
(0.44354824 -0.037545558 -1.5114206e-20)
(0.49219161 -0.039553383 2.8029519e-20)
(0.5410417 -0.041432326 2.2648921e-20)
(0.59028629 -0.043190919 -8.9632645e-20)
(0.6445472 -0.042112152 3.3973173e-22)
(-0.0033901599 0.0059452718 2.2859436e-20)
(-0.0014095671 0.0094101413 -2.8047229e-20)
(0.0099001033 0.0093336241 -4.7559775e-20)
(0.028712398 0.0068494369 -2.906932e-20)
(0.053741132 0.0027726271 -2.1938093e-21)
(0.084161118 -0.0021435482 1.4115247e-20)
(0.11928501 -0.0073485701 -3.0624813e-21)
(0.15851123 -0.012464344 1.9467154e-20)
(0.20131008 -0.017229141 9.5141817e-21)
(0.24719651 -0.021465595 -1.2258205e-20)
(0.29570517 -0.025060922 9.7415458e-21)
(0.34637249 -0.027952032 -2.5802186e-20)
(0.39872398 -0.030114834 8.9998547e-21)
(0.45226601 -0.031557572 1.8095964e-20)
(0.50648497 -0.032316805 -3.0423711e-21)
(0.56085752 -0.032459232 1.9252991e-21)
(0.61483535 -0.032135704 -5.9970549e-22)
(0.66775149 -0.031748248 2.1200432e-20)
(0.71961911 -0.031498918 3.9841069e-21)
(0.77546083 -0.028752707 -2.2820468e-21)
(-0.0013677609 0.0035553647 2.4952441e-20)
(0.0057853162 0.0031080251 6.0818261e-20)
(0.023805004 0.00063571554 -5.1723142e-20)
(0.050406938 -0.0031403023 -1.0567204e-20)
(0.08399762 -0.007672441 2.1612071e-20)
(0.12354168 -0.012345508 2.2809025e-21)
(0.16815968 -0.016720933 -3.1778854e-20)
(0.21706233 -0.020519268 7.4753373e-21)
(0.26953325 -0.023562952 7.592908e-21)
(0.32489697 -0.025748349 -2.8162811e-20)
(0.38249152 -0.02703013 1.3833931e-21)
(0.44165125 -0.027408525 -4.0049573e-20)
(0.5016977 -0.026918907 -3.9178364e-20)
(0.56193662 -0.025623439 7.0838085e-20)
(0.62166102 -0.023603739 5.9936241e-21)
(0.68015833 -0.020959891 -1.6322563e-20)
(0.73669578 -0.017850875 2.0745681e-20)
(0.79044746 -0.014580313 -9.7186732e-22)
(0.84095788 -0.011172967 2.1028643e-20)
(0.89190977 -0.0061129794 -2.1548689e-20)
(-0.0040371171 -0.0061802972 6.3051727e-20)
(0.0063228208 -0.0066984315 1.6669749e-20)
(0.018111002 -0.0071120521 -3.7153782e-20)
(0.030970358 -0.0073500681 1.7948862e-20)
(0.044621026 -0.0074965963 0)
(0.058995522 -0.0075810372 0)
(0.074029113 -0.0076063983 -2.3943083e-20)
(0.089636304 -0.007580737 -1.7051693e-20)
(0.10574035 -0.0075139525 1.9889538e-20)
(0.12227608 -0.0074133038 1.8739215e-20)
(0.13918348 -0.0072843327 1.0385487e-21)
(0.15640604 -0.0071319161 -1.0431567e-20)
(0.1738911 -0.0069603106 8.6057612e-21)
(0.19158954 -0.0067731291 1.8260756e-20)
(0.20945513 -0.0065734647 -5.430933e-21)
(0.22744418 -0.0063640019 -1.0066982e-20)
(0.24551534 -0.0061470825 -4.2465786e-21)
(0.26362943 -0.0059247583 -4.2501941e-21)
(0.2817493 -0.0056988375 6.8920952e-22)
(0.29983977 -0.0054709217 1.2091535e-21)
(0.3178676 -0.0052424341 2.5809336e-21)
(0.3358015 -0.0050146411 6.4537515e-21)
(0.35361213 -0.0047886687 1.2508976e-22)
(0.37127217 -0.004565515 -3.3297073e-21)
(0.38875629 -0.00434606 1.2475527e-22)
(0.40604125 -0.0041310734 -5.5102283e-22)
(0.42310585 -0.0039212204 1.1810545e-21)
(0.43993101 -0.0037170682 9.5546344e-22)
(0.4564997 -0.0035190907 -1.2898316e-21)
(0.47279698 -0.0033276747 -9.6351041e-23)
(0.48880992 -0.003143125 -5.6444191e-23)
(0.50452759 -0.0029656705 -3.2523154e-22)
(0.51994097 -0.0027954706 -4.1097905e-22)
(0.53504292 -0.0026326217 9.6730805e-23)
(0.54982808 -0.002477164 -1.2538064e-22)
(0.56429283 -0.0023290888 -1.9246187e-22)
(0.57843519 -0.0021883457 2.1869901e-22)
(0.59225484 -0.0020548506 2.46772e-22)
(0.60575294 -0.001928495 -3.69954e-23)
(0.61893255 -0.0018091502 -1.6492344e-22)
(0.63179739 -0.0016966972 1.3338034e-23)
(0.64435606 -0.0015909814 -2.2148403e-23)
(0.65660987 -0.0014920286 7.7438281e-23)
(0.66859141 -0.0013994613 -2.3037614e-23)
(0.68025127 -0.0013145324 -1.3777396e-22)
(0.69179944 -0.0012340567 8.2356847e-24)
(0.70271474 -0.0011700644 7.4215137e-24)
(0.71463811 -0.0010905181 -5.5931495e-24)
(0.72309034 -0.0011028201 2.5231182e-23)
(0.74069015 -0.00093315591 3.7376395e-22)
(0.026292519 -0.018191823 -1.4179515e-20)
(0.035665887 -0.019764478 -6.7484452e-20)
(0.046948513 -0.020980053 -3.2925213e-20)
(0.059272482 -0.021658234 4.0913211e-20)
(0.072241345 -0.022078937 1.5519736e-20)
(0.085868234 -0.022327476 -1.9448104e-20)
(0.100121 -0.022404885 5.270741e-21)
(0.11491718 -0.022333354 2.6355013e-20)
(0.1301875 -0.022142347 -2.2411955e-22)
(0.14587642 -0.021852716 -8.0191002e-21)
(0.16193114 -0.0214801 -1.2889128e-20)
(0.17830053 -0.021038476 -8.9231373e-21)
(0.19493651 -0.020540139 1.7948419e-20)
(0.21179377 -0.019995536 9.6904578e-21)
(0.22882918 -0.019413634 -1.6175515e-20)
(0.24600159 -0.018802249 -6.0024581e-21)
(0.26327166 -0.018168232 3.089448e-21)
(0.28060186 -0.017517607 8.0926117e-21)
(0.29795636 -0.016855705 6.9218743e-21)
(0.31530104 -0.016187263 -7.0819091e-21)
(0.33260349 -0.015516506 -3.4049062e-21)
(0.34983308 -0.014847206 1.596198e-21)
(0.36696097 -0.014182723 6.9904078e-22)
(0.38396017 -0.013526047 1.2480418e-21)
(0.40080562 -0.012879817 2.4559156e-22)
(0.4174742 -0.01224635 -3.7932226e-22)
(0.43394477 -0.01162765 -7.508282e-22)
(0.45019817 -0.011025434 1.0824726e-21)
(0.46621729 -0.010441139 8.7529345e-22)
(0.48198697 -0.0098759442 -2.8840212e-22)
(0.49749402 -0.0093307834 6.0137813e-22)
(0.51272721 -0.0088063644 -2.2096398e-22)
(0.52767714 -0.0083031872 -4.1788268e-22)
(0.54233626 -0.0078215634 -6.2258872e-22)
(0.55669874 -0.0073616365 4.0153528e-22)
(0.57076049 -0.0069234032 -1.2548329e-22)
(0.584519 -0.0065067361 2.2961154e-22)
(0.59797339 -0.006111405 -4.6941918e-22)
(0.61112425 -0.0057371073 4.5884193e-22)
(0.62397406 -0.0053834793 5.9272906e-23)
(0.63652597 -0.0050501853 -5.1252349e-23)
(0.64878793 -0.0047367821 2.2028707e-22)
(0.66076069 -0.0044433664 2.9622324e-22)
(0.67247604 -0.0041688254 2.258911e-22)
(0.68388458 -0.0039169223 2.4327199e-22)
(0.69519343 -0.0036781534 -1.6163958e-23)
(0.70588744 -0.003488438 1.2466509e-22)
(0.71758534 -0.0032522423 1.0931435e-22)
(0.7258702 -0.0032893899 -2.0583145e-22)
(0.74317003 -0.0027854929 -4.5726052e-24)
(0.085175397 -0.029117362 1.0425281e-20)
(0.09260111 -0.031754681 3.9570788e-21)
(0.10277601 -0.033718546 -1.4073075e-20)
(0.11400072 -0.034760354 -1.7155016e-21)
(0.12559256 -0.035419046 1.6263282e-20)
(0.13772139 -0.035830557 -1.570915e-20)
(0.15042675 -0.035974732 -3.1704639e-20)
(0.16362838 -0.035882066 1.5503451e-20)
(0.17726818 -0.035600805 1.9239341e-20)
(0.19130846 -0.035163253 -1.2191044e-20)
(0.20570945 -0.03459264 1.0489239e-21)
(0.22042936 -0.033910291 8.3714888e-21)
(0.23542798 -0.033135331 -1.5842107e-20)
(0.25066661 -0.032284075 3.9281414e-21)
(0.26610745 -0.031370593 7.8472375e-21)
(0.28171356 -0.030407257 -6.1294856e-22)
(0.29744904 -0.029405006 -1.3160032e-22)
(0.31327909 -0.028373533 -7.6728729e-21)
(0.32917004 -0.027321479 4.5244383e-21)
(0.34508948 -0.026256578 8.6917027e-21)
(0.36100635 -0.025185766 -3.9058133e-21)
(0.37689103 -0.024115271 -2.1640301e-21)
(0.39271544 -0.023050673 8.628206e-22)
(0.40845311 -0.021996954 -1.7844194e-21)
(0.42407932 -0.020958536 1.3021803e-21)
(0.43957107 -0.019939312 6.8856585e-22)
(0.45490723 -0.018942673 1.8451246e-21)
(0.4700685 -0.01797153 -2.2090385e-21)
(0.48503746 -0.017028339 2.5046722e-21)
(0.49979855 -0.016115128 5.9738359e-22)
(0.51433808 -0.015233522 6.4949583e-22)
(0.52864417 -0.01438477 2.9786901e-22)
(0.54270674 -0.013569775 1.0408838e-21)
(0.55651743 -0.012789131 -1.589697e-21)
(0.57006959 -0.012043148 4.4421554e-22)
(0.58335815 -0.011331895 2.3931703e-22)
(0.59637967 -0.010655232 -8.5159722e-23)
(0.60913223 -0.010012846 3.2518478e-24)
(0.62161538 -0.0094043038 -4.0594668e-22)
(0.63383049 -0.0088290679 2.3029888e-22)
(0.64577963 -0.0082866452 -2.8904725e-23)
(0.65746959 -0.0077763612 5.6837323e-22)
(0.6689001 -0.0072984353 -2.627151e-22)
(0.68010137 -0.0068510754 3.5812554e-23)
(0.69102412 -0.0064405591 7.9817872e-23)
(0.70187 -0.0060512308 -9.6807361e-23)
(0.71213535 -0.005742337 -1.6318179e-22)
(0.72339641 -0.005356722 5.3443211e-22)
(0.73135638 -0.0054191491 1.8297636e-22)
(0.74807433 -0.0045963882 -8.5625968e-22)
(0.16962557 -0.038202576 1.8764916e-21)
(0.174178 -0.041889063 -1.1856223e-20)
(0.18250918 -0.044521945 6.5840614e-21)
(0.19201377 -0.045838893 -1.4215102e-20)
(0.2015215 -0.04670436 -2.0994027e-21)
(0.21140508 -0.047294135 1.0126142e-20)
(0.22182392 -0.047543906 -1.1124862e-20)
(0.23269694 -0.047483165 1.0394335e-21)
(0.2439741 -0.047176328 1.3456147e-20)
(0.25564075 -0.046664472 3.9045441e-21)
(0.26767413 -0.045975215 -6.4079461e-21)
(0.28004338 -0.045134595 -3.2869796e-21)
(0.2927174 -0.044166746 -5.4838009e-21)
(0.30566526 -0.043092547 -6.8481125e-21)
(0.31885529 -0.041930163 2.6973002e-21)
(0.33225534 -0.040695763 1.809357e-22)
(0.34583328 -0.03940383 1.6092742e-21)
(0.35955727 -0.038067365 -3.381506e-21)
(0.37339597 -0.036698079 -4.6446286e-21)
(0.38731873 -0.035306555 2.5503735e-21)
(0.40129581 -0.033902372 3.568495e-21)
(0.41529858 -0.03249419 -1.8895345e-21)
(0.42929961 -0.031089827 1.70311e-21)
(0.44327286 -0.029696302 -5.3376514e-22)
(0.45719376 -0.028319884 -4.374716e-21)
(0.47103934 -0.026966121 -3.0654873e-21)
(0.48478823 -0.025639875 -3.1340956e-22)
(0.49842079 -0.024345346 2.8956687e-22)
(0.51191908 -0.023086109 -2.2044652e-21)
(0.5252669 -0.021865141 -1.1093368e-21)
(0.53844976 -0.020684858 2.1341162e-22)
(0.5514549 -0.019547157 -1.4235974e-21)
(0.56427123 -0.01845345 -7.6727711e-23)
(0.5768893 -0.017404712 -5.2691851e-22)
(0.58930125 -0.016401528 -4.3278953e-22)
(0.60150078 -0.015444139 -7.2382286e-22)
(0.6134831 -0.014532492 -1.0988073e-21)
(0.62524494 -0.013666294 -3.9362884e-24)
(0.6367844 -0.012845074 -3.4151603e-24)
(0.64810142 -0.012068217 -6.3567545e-22)
(0.65919656 -0.011335162 -2.683042e-24)
(0.67007508 -0.010645091 -4.4052745e-22)
(0.68073534 -0.0099984218 -6.5728547e-22)
(0.69120541 -0.0093927753 5.1612792e-22)
(0.70143622 -0.0088369257 1.3472308e-23)
(0.71162171 -0.0083093807 2.5578129e-22)
(0.7212748 -0.007891666 -1.8788128e-22)
(0.7319106 -0.0073683904 -3.6205309e-22)
(0.73940562 -0.0074563849 -1.0436355e-23)
(0.75528771 -0.0063398979 4.9010774e-22)
(0.27555077 -0.044642834 -2.3344069e-20)
(0.27632008 -0.049354883 5.0421628e-20)
(0.28192783 -0.052566758 1.0808615e-20)
(0.28900274 -0.054096797 -1.6870133e-20)
(0.2957167 -0.055174875 -2.5918562e-21)
(0.30263044 -0.055992815 2.3193824e-21)
(0.31007039 -0.056425462 -2.187047e-21)
(0.31795632 -0.056491062 -4.9087047e-21)
(0.32623501 -0.05626311 -4.1976493e-21)
(0.33491355 -0.055788102 -1.2710262e-20)
(0.34398768 -0.055095606 1.9126106e-20)
(0.35343678 -0.054213679 7.1173131e-21)
(0.36323738 -0.053169302 -1.722157e-20)
(0.37336524 -0.051986533 9.8867509e-21)
(0.38379399 -0.050686701 7.8658922e-21)
(0.39449541 -0.049289085 -2.6756016e-22)
(0.40544034 -0.04781125 -2.7327347e-21)
(0.41659916 -0.04626923 -4.3781958e-21)
(0.42794214 -0.044677667 -1.6451324e-21)
(0.43943979 -0.043049952 -1.4534119e-21)
(0.45106314 -0.04139833 -3.4477019e-21)
(0.462784 -0.039733972 0)
(0.47457513 -0.038067036 -1.5292962e-21)
(0.48641046 -0.036406708 4.0024557e-21)
(0.49826521 -0.034761242 5.7593658e-21)
(0.510116 -0.033137993 -9.0113142e-22)
(0.52194093 -0.031543443 -3.37873e-21)
(0.53371966 -0.029983235 3.565589e-21)
(0.54543344 -0.028462212 -7.4922979e-24)
(0.55706512 -0.026984451 3.8584333e-21)
(0.56859918 -0.025553311 -5.0108755e-22)
(0.58002168 -0.024171474 1.8217155e-21)
(0.59132029 -0.022841004 -9.3307777e-22)
(0.60248421 -0.0215634 4.4204847e-22)
(0.61350417 -0.020339652 -5.6352019e-22)
(0.62437237 -0.019170304 5.8993894e-22)
(0.63508248 -0.018055522 5.5622807e-22)
(0.6456296 -0.016995152 4.6784165e-22)
(0.65601023 -0.015988811 -1.1496577e-21)
(0.66622259 -0.015035918 8.2308539e-22)
(0.67626556 -0.014135957 -4.305556e-22)
(0.68614261 -0.013288073 -1.4238577e-21)
(0.69585054 -0.012492971 1.8177237e-21)
(0.70541489 -0.011747805 -5.3559624e-23)
(0.71478705 -0.011063801 -2.0719101e-22)
(0.72415134 -0.010414066 -6.8838796e-24)
(0.73304183 -0.0099009323 -2.10469e-22)
(0.74289627 -0.0092554498 -6.2080449e-22)
(0.74981094 -0.0093690971 7.6539027e-22)
(0.76464257 -0.007992148 -5.1329691e-23)
(0.39788007 -0.047483654 -1.95916e-20)
(0.39400765 -0.053255455 1.3328011e-20)
(0.3959231 -0.057000655 4.004427e-21)
(0.39978332 -0.058773065 -8.2107958e-21)
(0.40303297 -0.06015045 1.2853128e-20)
(0.40632636 -0.061301734 8.2837528e-21)
(0.41018081 -0.062045086 -1.2936268e-20)
(0.41453396 -0.062384331 -6.3873356e-21)
(0.41931419 -0.062389238 1.3303042e-20)
(0.42453825 -0.062105446 -1.6766386e-20)
(0.43021763 -0.06156321 -1.458239e-20)
(0.43633991 -0.060791145 1.5488877e-20)
(0.44288566 -0.059817256 7.0511907e-21)
(0.4498341 -0.058667619 -5.3776255e-21)
(0.45716171 -0.057366165 -1.2568488e-21)
(0.46484223 -0.055934975 -3.5198734e-21)
(0.4728477 -0.054394555 4.7368581e-21)
(0.48114917 -0.052763961 3.6913431e-21)
(0.48971726 -0.051060877 -3.1075526e-21)
(0.49852247 -0.049301675 3.1213615e-21)
(0.50753562 -0.047501479 2.9938446e-21)
(0.51672806 -0.04567421 -3.4103165e-21)
(0.526072 -0.043832618 3.6653396e-22)
(0.53554065 -0.04198831 -3.1761401e-21)
(0.54510841 -0.040151777 8.3296471e-21)
(0.55475097 -0.038332418 6.6069469e-21)
(0.56444541 -0.036538573 1.089748e-21)
(0.5741703 -0.034777552 -1.8536089e-21)
(0.58390569 -0.033055676 4.3861642e-21)
(0.59363319 -0.031378326 8.2416341e-21)
(0.60333594 -0.029749991 2.418813e-21)
(0.61299862 -0.028174328 3.7888317e-21)
(0.62260741 -0.026654223 2.1718676e-21)
(0.63215 -0.025191863 8.7635865e-22)
(0.64161554 -0.023788803 -2.4257929e-22)
(0.65099463 -0.022446044 3.1644298e-21)
(0.66027926 -0.021164111 7.1104246e-22)
(0.66946285 -0.019943131 3.2394547e-22)
(0.67854014 -0.018782938 5.718624e-23)
(0.68750761 -0.017683115 1.2533035e-21)
(0.69636239 -0.016643309 4.1554086e-23)
(0.70510605 -0.015662743 6.004121e-22)
(0.71373383 -0.014742508 -1.2666956e-22)
(0.72226854 -0.013879411 -4.1997596e-22)
(0.73066232 -0.013087067 -2.0768878e-22)
(0.73908841 -0.012333694 -5.6829525e-22)
(0.74710598 -0.011740637 2.489974e-22)
(0.756062 -0.010991019 -1.670628e-22)
(0.76231095 -0.011130198 -4.3783299e-22)
(0.77592525 -0.0095319643 2.8794921e-22)
(0.53046848 -0.045807387 3.4092973e-21)
(0.52131919 -0.052685159 -1.9411827e-20)
(0.51861477 -0.056975826 -2.63332e-21)
(0.51849124 -0.059181423 5.7402391e-21)
(0.51775335 -0.061085036 3.6818953e-21)
(0.51695929 -0.062762647 7.1007363e-22)
(0.51678476 -0.064006145 7.3555157e-21)
(0.51722764 -0.064820506 8.2476283e-21)
(0.51819529 -0.065261619 1.0153629e-20)
(0.51969158 -0.065365523 -1.1968835e-20)
(0.52173341 -0.065161495 -2.3172584e-20)
(0.52431347 -0.064678781 -4.6114041e-21)
(0.52741274 -0.063945978 1.6966231e-20)
(0.53100964 -0.06299079 1.3511472e-20)
(0.53508023 -0.061839789 -5.7184247e-21)
(0.53959775 -0.060518166 8.1906782e-22)
(0.5445334 -0.059049731 -4.2843433e-21)
(0.54985721 -0.057456974 3.2473204e-21)
(0.55553862 -0.055761049 -2.9382311e-22)
(0.56154693 -0.053981754 -1.9878197e-21)
(0.56785163 -0.052137529 8.6231913e-21)
(0.57442274 -0.050245464 -5.2636355e-22)
(0.58123105 -0.0483213 6.3498985e-22)
(0.58824835 -0.046379442 -4.2635689e-22)
(0.59544755 -0.044432968 -4.5509939e-21)
(0.60280287 -0.042493654 4.4402548e-21)
(0.61028989 -0.040571998 1.8336237e-21)
(0.61788563 -0.03867726 -3.469368e-21)
(0.62556861 -0.036817503 -4.0749842e-21)