/*--------------------------------*- C++ -*----------------------------------*\
  =========                 |
  \\      /  F ield         | OpenFOAM: The Open Source CFD Toolbox
   \\    /   O peration     | Website:  https://openfoam.org
    \\  /    A nd           | Version:  6
     \\/     M anipulation  |
\*---------------------------------------------------------------------------*/
FoamFile
{
    version     2.0;
    format      ascii;
    class       surfaceScalarField;
    location    "165";
    object      phi;
}
// * * * * * * * * * * * * * * * * * * * * * * * * * * * * * * * * * * * * * //

dimensions      [0 3 -1 0 0 0 0];

internalField   nonuniform List<scalar> 
18180
(
0.00031872943
-0.00016316049
-0.00015556894
0.0013092117
-0.0013669177
0.00037643546
0.0030328891
-0.0033336236
0.0016099462
0.0055497762
-0.0059759652
0.0034590781
0.0089182011
-0.0092390886
0.0058706636
0.013192818
-0.013079542
0.0088049246
0.018421949
-0.017459857
0.012230726
0.024644615
-0.02234582
0.016123155
0.031887383
-0.027703341
0.020460573
0.040161296
-0.033495837
0.025221923
0.049459185
-0.039682474
0.030384585
0.059753742
-0.04621725
0.035922693
0.070996755
-0.053048895
0.041805882
0.083119963
-0.060121635
0.047998428
0.096038139
-0.067376894
0.054458717
0.10965493
-0.074756059
0.06113927
0.12387086
-0.082204155
0.06798822
0.13859859
-0.089674142
0.074946413
0.15383669
-0.097148891
0.081910794
-0.10462603
0.088678953
0.16978377
0.00039749726
-0.00056065775
0.0016095954
-0.0025790159
0.0036893196
-0.0054133478
0.0066874463
-0.008974092
0.010650656
-0.013202299
0.015617876
-0.018046761
0.021616267
-0.023458248
0.028657267
-0.029386821
0.036732957
-0.035779031
0.045813159
-0.042576039
0.055843706
-0.049713021
0.066746223
-0.057119768
0.078419683
-0.064722354
0.0907438
-0.072445753
0.10358409
-0.08021718
0.11679793
-0.087969906
0.1302408
-0.095647023
0.143773
-0.10320634
0.1572586
-0.11063449
-0.11786196
0.17049452
0.00048062363
-0.0010412814
0.001918699
-0.0040170913
0.0043524805
-0.0078471293
0.0078165662
-0.012438178
0.012337669
-0.017723401
0.017929213
-0.023638305
0.024586257
-0.030115292
0.03228122
-0.037081784
0.040960852
-0.044458663
0.050544935
-0.052160122
0.060927083
-0.060095169
0.071977822
-0.068170507
0.083549815
-0.076294347
0.095484829
-0.084380767
0.10762171
-0.092354057
0.11980427
-0.10015247
0.13188802
-0.10773077
0.1437435
-0.11506182
0.15524872
-0.12213971
-0.12891434
0.16630111
0.0005661699
-0.0016074513
0.0022279432
-0.0056788646
0.0050006129
-0.010619799
0.0088940135
-0.016331578
0.013905262
-0.02273465
0.020011888
-0.029744931
0.027166495
-0.0372699
0.035293426
-0.045208714
0.044287868
-0.053453105
0.05401779
-0.061890043
0.064328734
-0.070406113
0.075051146
-0.078892919
0.086009539
-0.087252741
0.097032513
-0.09540374
0.10796248
-0.10328402
0.11866397
-0.11085397
0.12902966
-0.11809646
0.13898298
-0.12501514
0.14847492
-0.13163165
-0.13794525
0.15750582
0.00065088648
-0.0022583378
0.0025243425
-0.0075523206
0.0056036363
-0.013699093
0.0098644681
-0.02059241
0.015264616
-0.028134798
0.021736416
-0.036216731
0.02918249
-0.044715973
0.037474904
-0.053501129
0.046458013
-0.062436215
0.055954849
-0.071386879
0.065776444
-0.080227708
0.075733025
-0.088849499
0.085645729
-0.097165445
0.095357406
-0.10511542
0.10474122
-0.11266784
0.1137062
-0.11981895
0.12219937
-0.12658963
0.13020456
-0.13302033
0.137738
-0.13916508
-0.14506762
0.14486037
0.00073063608
-0.0029889739
0.0027920872
-0.0096137717
0.0061265762
-0.017033582
0.010666715
-0.025132549
0.016322655
-0.033790737
0.02297525
-0.042869326
0.030474436
-0.05221516
0.038642407
-0.061669099
0.047281197
-0.071075005
0.056183742
-0.080289425
0.065146894
-0.08919086
0.073984606
-0.097687211
0.082539488
-0.10572033
0.090691304
-0.11326723
0.098361454
-0.12033799
0.1055133
-0.12697079
0.11214879
-0.13322512
0.11830239
-0.13917394
0.12403361
-0.1448963
-0.15046334
0.12942933
0.00080073144
-0.0037897053
0.003013917
-0.011826957
0.0065328961
-0.020552561
0.011240055
-0.029839708
0.016992701
-0.039543384
0.02361855
-0.049495174
0.030918221
-0.059514831
0.038673324
-0.069424202
0.046658779
-0.07906046
0.054657403
-0.088288049
0.062474463
-0.09700792
0.069949958
-0.10516271
0.076966964
-0.11273733
0.083455099
-0.11975537
0.089389106
-0.12627199
0.094783307
-0.13236499
0.099683294
-0.1381251
0.10415648
-0.14364712
0.10828309
-0.1490229
-0.1543336
0.11215335
0.00085605895
-0.0046457642
0.0031720615
-0.01414296
0.0067872274
-0.024167727
0.011529805
-0.034582285
0.017203437
-0.045217016
0.023586552
-0.05587829
0.030439879
-0.066368158
0.037519333
-0.076503655
0.044591803
-0.08613293
0.051451007
-0.095147253
0.057930634
-0.10348755
0.063912776
-0.11114485
0.069330642
-0.1181552
0.074165687
-0.12459041
0.078440246
-0.13054655
0.082207324
-0.13613207
0.085539485
-0.14145726
0.088518541
-0.14662618
0.091227334
-0.15173169
-0.15685208
0.093745815
0.00089026258
-0.0055360268
0.0032482839
-0.016500981
0.0068576235
-0.027777066
0.011492466
-0.039217128
0.016906812
-0.050631362
0.022838898
-0.061810376
0.029023673
-0.072552932
0.035209253
-0.082689236
0.04117393
-0.092097607
0.046740397
-0.10071372
0.051784654
-0.10853181
0.056238404
-0.1155986
0.060085132
-0.12200193
0.063351237
-0.12785652
0.066094201
-0.13328952
0.068390039
-0.13842791
0.070321903
-0.14338913
0.071971212
-0.14827549
0.073411899
-0.15317238
-0.15814773
0.074707547
0.00089981843
-0.0064358452
0.0032333811
-0.018834544
0.0067291651
-0.03127285
0.011111178
-0.04359914
0.016092487
-0.05561267
0.021384625
-0.067102513
0.026713886
-0.077882194
0.031839117
-0.087814467
0.036567085
-0.096825575
0.040762269
-0.1049089
0.044349469
-0.11211901
0.047309342
-0.11855847
0.049668395
-0.12436098
0.0514858
-0.12967392
0.052839508
-0.13464322
0.053813799
-0.1394022
0.054489686
-0.14406502
0.054938791
-0.14872459
0.055220516
-0.1534541
0.055380947
-0.15830816
-0.00020237834
0.00020237828
9.730985e-11
-0.00067774674
0.00047536828
1.3921672e-10
-0.0013424263
0.00066467942
1.6437462e-10
-0.002132295
0.00078986848
1.7784086e-10
-0.0029957742
0.00086347906
1.7901598e-10
-0.0038907416
0.0008949673
1.6774495e-10
-0.0047822973
0.00089155555
1.5149727e-10
-0.0056408945
0.00085859717
1.3071621e-10
-0.0064408696
0.00079997496
1.1061042e-10
-0.0071592904
0.0007184208
9.0712657e-11
-0.0077750387
0.00061574818
7.3827317e-11
-0.0082680741
0.00049303534
5.8720072e-11
-0.0086188549
0.0003507808
4.676397e-11
-0.0088079047
0.00018904978
3.6409291e-11
-0.008815557
7.6522412e-06
2.8624786e-11
-0.008621979
-0.00019357801
2.1819986e-11
-0.0082074356
-0.00041454345
1.6705394e-11
-0.0075518838
-0.00065555178
1.2283456e-11
-0.0066345674
-0.00091731642
8.9398999e-12
-0.0011862338
-0.0054483336
6.1147302e-12
-0.00018797456
0.00039035287
-0.00062500734
0.00091240109
-0.0012287539
0.001268426
-0.0019351954
0.0014963101
-0.0026921405
0.0016204242
-0.0034562856
0.0016591125
-0.0041910689
0.0016263389
-0.0048648607
0.001532389
-0.0054495259
0.0013846401
-0.0059192886
0.0011881835
-0.0062498169
0.00094627656
-0.0064174812
0.00066069965
-0.0063987491
0.00033204866
-0.0061697063
-3.9992974e-05
-0.005705732
-0.00045632208
-0.0049814181
-0.00091789191
-0.0039707854
-0.0014251761
-0.0026472045
-0.0019791327
-0.00098324542
-0.0025812755
-0.0032017887
0.0010323095
-0.00015892794
0.00054928082
-0.00051889168
0.0012723649
-0.0010007704
0.0017503048
-0.00154126
0.0020367997
-0.0020873506
0.0021665148
-0.002593736
0.0021654979
-0.003020869
0.0020534719
-0.0033332942
0.0018448142
-0.0034983024
0.0015496483
-0.0034848544
0.0011747356
-0.0032626976
0.00072411973
-0.0028016454
0.00019964752
-0.0020709444
-0.00039865241
-0.0010387596
-0.0010721778
0.00032825427
-0.0018233359
0.0020652296
-0.0026548672
0.0042090454
-0.0035689919
0.0067980216
-0.0045681089
0.0098718497
-0.0056551036
-0.0067797491
0.01344981
-0.000117567
0.00066684783
-0.00036699863
0.0015217965
-0.00067351374
0.0020568199
-0.00097482568
0.0023381117
-0.0012168539
0.0024085431
-0.0013515938
0.0023002378
-0.0013354591
0.0020373373
-0.0011278274
0.0016371825
-0.00068984328
0.0011116643
1.653331e-05
0.00046835902
0.0010293117
-0.00028865866
0.0023871172
-0.001158158
0.0041297364
-0.0021412716
0.0062985986
-0.0032410399
0.008937282
-0.0044620193
0.01209207
-0.0058096556
0.015812328
-0.0072892492
0.020150197
-0.0089059786
0.02516039
-0.010665296
-0.012492635
0.030873275
-6.6907647e-05
0.00073375548
-0.00017916646
0.0016340554
-0.00026653362
0.0021441871
-0.00026769102
0.0023392692
-0.0001271934
0.0022680455
0.00020616834
0.0019668761
0.00078069578
0.0014628099
0.0016429524
0.00077492593
0.0028387332
-8.4116511e-05
0.0044138506
-0.0011067584
0.006414698
-0.0022895061
0.0088886662
-0.0036321262
0.011884469
-0.005137074
0.015452471
-0.0068090427
0.019645067
-0.0086546149
0.024517294
-0.010681883
0.030127718
-0.012899672
0.036538934
-0.015317195
0.043818342
-0.017944704
-0.020682563
0.05200827
-9.9845928e-06
0.00074374007
3.4535172e-05
0.0015895356
0.00019989069
0.0019788316
0.00054676674
0.0019923931
0.0011322488
0.0016825634
0.0020109837
0.0010881412
0.0032361437
0.00023764989
0.0048603094
-0.00084923974
0.0069361274
-0.0021599345
0.0095166845
-0.0036873155
0.012655716
-0.0054285381
0.016407712
-0.0073841218
0.02082784
-0.0095572023
0.025971789
-0.011952991
0.031895665
-0.014578491
0.038656298
-0.017442516
0.046312421
-0.020555795
0.054926731
-0.023931506
0.064569725
-0.027587698
-0.031405626
0.075292789
5.0751373e-05
0.00069298869
0.00026565805
0.001374629
0.00070825508
0.0015362346
0.0014390316
0.0012616166
0.0025168225
0.00060477264
0.0039995696
-0.00039460593
0.005944919
-0.0017076995
0.0084106092
-0.00331493
0.011454602
-0.0052039273
0.015135051
-0.0073677648
0.019510035
-0.0098035215
0.024637027
-0.012511114
0.030572162
-0.015492338
0.03736934
-0.018750169
0.045079287
-0.022288439
0.053749016
-0.026112245
0.063422637
-0.030229416
0.074144749
-0.034653618
0.085969386
-0.039412335
-0.044388543
0.098952303
0.00011379639
0.00057919229
0.0005085038
0.00097992155
0.0012459832
0.00079875518
0.0023867792
0.00012082058
0.0039912435
-0.0009996916
0.0061198798
-0.0025232423
0.0088333252
-0.0044211448
0.012192173
-0.0066737774
0.016256566
-0.0092683212
0.021085457
-0.012196655
0.026735562
-0.015453626
0.033260041
-0.019035592
0.040706906
-0.022939203
0.049117217
-0.02716048
0.058523184
-0.031694406
0.068946541
-0.036535602
0.080398366
-0.041681241
0.092882199
-0.047137451
0.10640554
-0.052935679
-0.058995717
0.12101272
0.00017849594
0.00040069635
0.00076003037
0.00039838711
0.00180534
-0.00024655445
0.0033747157
-0.0014485551
0.0055289986
-0.0031539745
0.008329324
-0.0053235677
0.011836496
-0.0079283173
0.016110067
-0.010947348
0.021207054
-0.014365308
0.027180318
-0.018169919
0.034076636
-0.022349944
0.041934499
-0.026893456
0.050781687
-0.03178639
0.060632624
-0.037011417
0.071485535
-0.042547316
0.08331943
-0.048369498
0.096091906
-0.054453716
0.10974048
-0.060786021
0.12419606
-0.067391258
-0.074274671
0.13947501
0.0002451274
0.00101995
0.0023833417
0.0043938647
0.0071105537
0.010591911
0.014894319
0.020070126
0.026165391
0.033217395
0.041252036
0.050281273
0.060300765
0.071287775
0.083199176
0.095968948
0.10950345
0.12366384
0.13818338
0.15258766
-0.0035077044
-0.0019406292
5.4018085e-12
-0.0012859151
-0.0022217893
2.1511025e-12
0.0011946991
-0.0024806142
-6.7049529e-13
0.003877239
-0.0026825399
-2.5803936e-12
0.0067349009
-0.0028576619
-3.3814104e-12
0.009750379
-0.003015478
-4.1001941e-12
0.012904739
-0.0031543595
-3.3855077e-12
0.016179957
-0.0032752184
-2.4436302e-12
0.019560333
-0.0033803758
-1.2925593e-12
0.023031647
-0.0034713145
1.7543492e-13
0.026580614
-0.0035489666
2.1023929e-12
0.030194808
-0.0036141939
4.6141832e-12
0.033862586
-0.0036677781
7.7692499e-12
0.037572952
-0.0037103659
1.1618934e-11
0.041315454
-0.0037425023
1.6152246e-11
0.045080121
-0.0037646667
2.1331698e-11
0.048857411
-0.0037772905
2.7015328e-11
0.052638181
-0.0037807702
3.2990579e-11
0.056413664
-0.0037754824
3.892033e-11
0.060175458
-0.0037617948
4.4381082e-11
0.063915534
-0.0037400754
4.8828585e-11
0.067626232
-0.0037106984
5.1634495e-11
0.07130028
-0.0036740483
5.2093539e-11
0.074930802
-0.0036305219
4.9472889e-11
0.078511331
-0.0035805288
4.3087755e-11
0.082035821
-0.0035244898
3.2376974e-11
0.085498656
-0.003462835
1.7072527e-11
0.088894657
-0.0033960009
-2.6992001e-12
0.092219083
-0.0033244266
-2.6169856e-11
0.095467634
-0.0032485503
-5.1840428e-11
0.09863644
-0.0031688061
-7.7250008e-11
0.10172206
-0.0030856202
-9.9009939e-11
0.10472147
-0.0029994083
-1.1280786e-10
0.10763204
-0.0029105738
-1.1373811e-10
0.11045155
-0.0028195061
-9.6852764e-11
0.11317813
-0.0027265809
-5.7918643e-11
0.11581029
-0.0026321608
5.227385e-12
0.11834689
-0.0025365978
9.1645133e-11
0.12078713
-0.0024402411
1.9530237e-10
0.12313057
-0.0023434371
3.0456555e-10
0.12537714
-0.0022465718
4.0110753e-10
0.12752713
-0.0021499964
4.6133409e-10
0.12958153
-0.0020544007
4.5857942e-10
0.13154131
-0.0019597734
3.6813556e-10
0.13341054
-0.0018692358
1.7460092e-10
0.13518775
-0.0017772086
-1.1852392e-10
0.13689738
-0.0017096332
-4.822744e-10
0.1384953
-0.0015979131
-8.3746248e-10
0.14018232
-0.001687019
-1.1661599e-09
-0.0013312608
-9.571348e-10
0.0028529259
-0.0037612457
0.0049500736
-0.0043189371
0.007292934
-0.0048234746
0.009819065
-0.0052086709
0.012507405
-0.0055460023
0.01534563
-0.0058537025
0.018316997
-0.006125727
0.021405101
-0.0063633224
0.024595923
-0.0065711974
0.0278767
-0.0067520911
0.031235299
-0.0069075664
0.034660241
-0.0070391357
0.038140668
-0.007148205
0.041666234
-0.0072359315
0.04522702
-0.0073032887
0.048813494
-0.0073511405
0.052416476
-0.0073802726
0.056027121
-0.0073914157
0.059636911
-0.0073852716
0.06323765
-0.0073625344
0.06682148
-0.0073239055
0.070380887
-0.0072701048
0.073908716
-0.0072018773
0.07739819
-0.0071199959
0.080842923
-0.0070252616
0.084236933
-0.0069184997
0.087574653
-0.0068005559
0.090850942
-0.0066722896
0.094061082
-0.0065345668
0.097200784
-0.0063882525
0.10026618
-0.0062342043
0.10325383
-0.0060732649
0.10616068
-0.005906257
0.10898408
-0.0057339794
0.11172178
-0.0055572037
0.11437187
-0.005376675
0.11693283
-0.0051931133
0.11940345
-0.0050072185
0.12178289
-0.0048196855
0.12407066
-0.0046312035
0.12626663
-0.0044425438
0.12837104
-0.004254407
0.13038481
-0.0040681702
0.13230885
-0.0038838147
0.13414717
-0.0037075506
0.13589828
-0.0035283189
0.13758617
-0.0033975253
0.13916774
-0.0031794849
0.14083861
-0.0033578924
-0.0026600682
0.015021148
-0.0053325832
0.016852249
-0.0061500382
0.018905787
-0.0068770126
0.021111834
-0.0074147175
0.023458755
-0.0078929233
0.025942897
-0.0083378449
0.028551643
-0.0087344726
0.031271511
-0.0090831911
0.034091403
-0.0093910887
0.037001086
-0.0096617749
0.039990442
-0.0098969221
0.043049609
-0.010098303
0.046169063
-0.010267659
0.049339548
-0.010406417
0.052552035
-0.010515776
0.055797713
-0.010596818
0.059067991
-0.01065055
0.062354507
-0.010677932
0.065649138
-0.010679903
0.06894402
-0.010657416
0.072231565
-0.01061145
0.075504485
-0.010543025
0.078755814
-0.010453207
0.081978932
-0.010343114
0.085167581
-0.01021391
0.088315882
-0.010066801
0.09141835
-0.0099030243
0.094469904
-0.0097238435
0.097465869
-0.0095305314
0.10040198
-0.0093243639
0.10327438
-0.0091066048
0.10607961
-0.008878499
0.10881462
-0.0086412626
0.11147672
-0.0083960772
0.1140636
-0.0081440862
0.11657332
-0.007886394
0.11900428
-0.0076240703
0.12135521
-0.0073581559
0.12362521
-0.007089686
0.1258137
-0.0068196897
0.12792048
-0.0065493198
0.1299457
-0.0062796261
0.13189019
-0.0060126664
0.13375481
-0.0057484307
0.13554339
-0.0054961342
0.13725456
-0.005239484
0.13891132
-0.0050542917
0.14047292
-0.0047410827
0.14212436
-0.0050093273
-0.0039971132
0.032056567
-0.0065158751
0.033471765
-0.007565236
0.035077269
-0.008482517
0.036800104
-0.009137552
0.038640954
-0.0097337736
0.040606117
-0.010303008
0.042688422
-0.010816777
0.044878345
-0.011273114
0.04716831
-0.011681054
0.049551089
-0.012044554
0.052018974
-0.012364807
0.054564009
-0.012643338
0.057178184
-0.012881833
0.059853455
-0.013081688
0.062581761
-0.013244081
0.065355056
-0.013370114
0.068165361
-0.013460855
0.071004797
-0.013517368
0.073865632
-0.013540738
0.076740314
-0.013532098
0.07962151
-0.013492646
0.08250214
-0.013423655
0.08537541
-0.013326477
0.088234837
-0.013202541
0.091074277
-0.01305335
0.093887942
-0.012880466
0.096670418
-0.012685501
0.099416676
-0.012470101
0.10212208
-0.012235932
0.10478238
-0.011984663
0.10739372
-0.011717949
0.10995265
-0.011437426
0.11245607
-0.011144688
0.11490128
-0.01084129
0.11728593
-0.010528735
0.11960802
-0.010208479
0.12186588
-0.0098819337
0.1240582
-0.009550475
0.12618399
-0.0092154731
0.12824259
-0.008878295
0.13023375
-0.0085404722
0.13215752
-0.0082034046
0.13401468
-0.0078698226
0.135806
-0.0075397486
0.13753514
-0.0072252805
0.13920092
-0.0069052579
0.14082496
-0.0066783358
0.14236998
-0.0062861017
0.14400571
-0.0066450542
-0.0053582898
0.052648563
-0.0071561678
0.053489148
-0.0084058216
0.054483262
-0.0094766301
0.055565215
-0.010219505
0.056749825
-0.010918384
0.058051385
-0.011604569
0.059468407
-0.012233799
0.060996023
-0.01280073
0.062630021
-0.013315052
0.064365805
-0.013780338
0.066197854
-0.014196856
0.068119897
-0.014565382
0.070125171
-0.014887107
0.072206573
-0.01516309
0.074356757
-0.015394265
0.076568209
-0.015581566
0.078833338
-0.015725984
0.081144548
-0.015828579
0.083494313
-0.015890503
0.085875228
-0.015913014
0.088280068
-0.015897486
0.090701831
-0.015845417
0.093133776
-0.015758422
0.095569463
-0.015638228
0.098002776
-0.015486664
0.10042795
-0.015305639
0.10283958
-0.015097133
0.10523265
-0.014863168
0.10760251
-0.014605798
0.10994493
-0.014327078
0.11225603
-0.014029053
0.11453234
-0.013713736
0.11677076
-0.013383103
0.11896854
-0.013039071
0.12112331
-0.012683503
0.12323303
-0.012318201
0.12529601
-0.011944915
0.12731089
-0.011565355
0.12927664
-0.011181225
0.13119258
-0.010794231
0.13305839
-0.010406283
0.13487412
-0.010019136
0.13664048
-0.0096361821
0.13835824
-0.0092575098
0.14003091
-0.0088979438
0.14165757
-0.0085319204
0.1432582
-0.0082789644
0.14479992
-0.0078278285
0.14643357
-0.0082787042
-0.0067668373
0.075221771
-0.0070851494
0.075326728
-0.0085107788
0.075551092
-0.0097009938
0.075851378
-0.010519791
0.076255621
-0.011322627
0.076780675
-0.012129622
0.077429574
-0.012882699
0.078202249
-0.013573404
0.079097008
-0.014209811
0.080110702
-0.014794032
0.081239089
-0.015325242
0.082476871
-0.015803164
0.083817866
-0.016228102
0.085255293
-0.016600517
0.086781975
-0.016920947
0.08839046
-0.017190051
0.090073129
-0.017408653
0.091822304
-0.017577754
0.093630341
-0.01769854
0.095489702
-0.017772375
0.097393022
-0.017800805
0.099333157
-0.017785553
0.10130324
-0.017728505
0.10329671
-0.017631695
0.10530734
-0.017497293
0.10732927
-0.017327569
0.10935702
-0.017124884
0.1113855
-0.016891651
0.11341002
-0.016630319
0.11542629
-0.016343346
0.11743041
-0.01603317
0.11941887
-0.0157022
0.12138856
-0.015352792
0.12333673
-0.014987238
0.12526099
-0.014607763
0.12715931
-0.014216523
0.12903
-0.013815612
0.13087173
-0.013407079
0.13268347
-0.01299297
0.13446457
-0.012575332
0.13621475
-0.012156463
0.1379341
-0.011738478
0.13962334
-0.011325425
0.14128333
-0.010917498
0.14291745
-0.01053207
0.14452524
-0.010139703
0.14612479
-0.0098785228
0.14768842
-0.0093914514
0.14934557
-0.0099358608
-0.0082548693
0.098025306
-0.0061581528
0.097258031
-0.0077435031
0.096581737
-0.0090247003
0.095997298
-0.0099353516
0.09554084
-0.01086617
0.095223597
-0.011812379
0.095050936
-0.012710037
0.095026859
-0.013549327
0.095150899
-0.014333851
0.095419791
-0.015062924
0.095829175
-0.015734626
0.096373641
-0.01634763
0.097046704
-0.016901165
0.097841131
-0.017394944
0.098749239
-0.017829055
0.099763056
-0.018203868
0.10087445
-0.018520042
0.10207523
-0.018778533
0.10335727
-0.01898058
0.10471258
-0.019127686
0.10613338
-0.019221604
0.10761214
-0.019264318
0.10914166
-0.019258028
0.11071509
-0.019205116
0.11232592
-0.019108128
0.11396809
-0.018969739
0.11563593
-0.018792722
0.1173242
-0.018579919
0.11902809
-0.01833421
0.12074322
-0.018058478
0.12246564
-0.017755592
0.12419181
-0.017428373
0.12591861
-0.017079586
0.12764329
-0.016711918
0.1293635
-0.016327977
0.13107727
-0.015930289
0.13278296
-0.015521309
0.13447933
-0.01510344
0.13616544
-0.014679085
0.13784075
-0.014250645
0.13950511
-0.013820818
0.14115872
-0.013392094
0.14280247
-0.012969174
0.14443737
-0.012552396
0.1460668
-0.012161502
0.14769083
-0.011763732
0.14932569
-0.011513376
0.15094928
-0.011015047
0.15266853
-0.011655113
-0.0098641454
0.11918907
-0.0043345095
0.11749647
-0.0060508997
0.11585695
-0.0073851828
0.11435442
-0.0084328234
0.11302512
-0.0095368692
0.11186656
-0.010653816
0.1108842
-0.011727679
0.11008433
-0.012749454
0.10946635
-0.013715874
0.10902568
-0.014622249
0.10875649
-0.015465442
0.10865214
-0.016243274
0.10870501
-0.016954042
0.10890681
-0.017596744
0.10924881
-0.018171052
0.10972206
-0.018677122
0.11031755
-0.019115525
0.11102625
-0.019487238
0.11183929
-0.019793623
0.112748
-0.020036388
0.11374395
-0.020217557
0.11481907
-0.020339442
0.11596566
-0.020404616
0.11717641
-0.020415871
0.11844448
-0.02037619
0.11976344
-0.020288705
0.12112739
-0.020156663
0.12253085
-0.019983383
0.12396886
-0.019772223
0.12543693
-0.019526546
0.12693103
-0.019249687
0.12844758
-0.018944927
0.12998347
-0.018615476
0.131536
-0.01826445
0.1331029
-0.017894873
0.13468228
-0.017509671
0.13627266
-0.01711169
0.13787293
-0.016703712
0.13948237
-0.016288516
0.14110061
-0.015868888
0.14272773
-0.015447938
0.14436419
-0.015028554
0.14601111
-0.014616091
0.14766979
-0.014211076
0.14934372
-0.013835441
0.15103365
-0.013453657
0.15275395
-0.013233674
0.15448842
-0.012749517
0.15632129
-0.013487988
-0.011646013
0.13689604
-0.0017555407
0.13437808
-0.0035329404
0.13181951
-0.004826616
0.12946245
-0.0060757594
0.1273341
-0.0074085153
0.12541583
-0.0087355464
0.12371047
-0.010022324
0.12222312
-0.011262102
0.12095222
-0.012444976
0.119892
-0.013562031
0.11903496
-0.014608398
0.11837274
-0.015581058
0.11789636
-0.016477659
0.11759628
-0.017296666
0.11746265
-0.018037413
0.11748543
-0.018699909
0.11765463
-0.01928472
0.11796031
-0.019792923
0.11839276
-0.020226067
0.1189425
-0.020586134
0.11960043
-0.020875485
0.12035782
-0.021096827
0.12120637
-0.021253175
0.1221383
-0.021347795
0.12314629
-0.021384176
0.12422356
-0.021365975
0.12536386
-0.021296972
0.12656151
-0.021181029
0.12781133
-0.021022047
0.12910871
-0.020823921
0.13044954
-0.020590514
0.13183023
-0.020325618
0.13324769
-0.020032938
0.13469931
-0.019716067
0.13618292
-0.019378489
0.13769682
-0.019023572
0.13923972
-0.018654589
0.14081075
-0.018274736
0.14240943
-0.017887205
0.14403574
-0.017495191
0.14569005
-0.017102247
0.14737317
-0.016711682
0.1490866
-0.016329518
0.15083204
-0.015956512
0.15261321
-0.015616618
0.15443163
-0.015272074
0.15629995
-0.015101989
0.15820796
-0.014657533
0.16021765
-0.015497678
-0.013660512
0.15005216
0.00077995911
0.14676322
-0.0002439972
0.14346588
-0.0015292805
0.14041811
-0.0030279838
0.13762322
-0.0046136252
0.13507496
-0.0061872861
0.13277516
-0.007722529
0.13072392
-0.0092108571
0.12891878
-0.010639841
0.12735456
-0.011997806
0.12602342
-0.013277258
0.12491595
-0.014473596
0.12402199
-0.015583698
0.12333087
-0.016605547
0.12283161
-0.017538153
0.1225131
-0.018381397
0.12236426
-0.019135883
0.12237419
-0.019802848
0.12253222
-0.020384096
0.12282803
-0.020881944
0.12325171
-0.021299166
0.12379382
-0.021638936
0.12444542
-0.021904781
0.12519815
-0.022100524
0.12604421
-0.022230232
0.12697639
-0.022298161
0.12798813
-0.022308706
0.12907344
-0.022266344
0.13022698
-0.022175589
0.13144401
-0.022040944
0.13272036
-0.021866863
0.13405245
-0.021657713
0.13543727
-0.021417755
0.13687232
-0.021151118
0.13835563
-0.020861797
0.13988571
-0.020553651
0.14146154
-0.020230423
0.14308257
-0.019895769
0.1447487
-0.01955333
0.14646025
-0.019206743
0.14821804
-0.01886004
0.15002333
-0.01851697
0.15187807
-0.018184253
0.15378443
-0.017862878
0.15574656
-0.017578745
0.15776663
-0.017292149
0.15985619
-0.017191549
0.16200948
-0.016810821
0.16427125
-0.017759449
-0.01597261
0.18890889
0.0053820566
-0.19351098
0.18509885
0.0035660362
0.18170682
0.0018627495
0.1785617
0.00011713722
0.17562615
-0.0016780709
0.17287513
-0.0034362659
0.17029042
-0.0051378184
0.16786302
-0.006783463
0.16558906
-0.0083658825
0.16346639
-0.0098751274
0.16149313
-0.011303999
0.15966718
-0.012647647
0.1579859
-0.013902415
0.15644599
-0.01506564
0.15504354
-0.016135701
0.15377407
-0.017111931
0.15263266
-0.017994477
0.15161402
-0.018784206
0.15071257
-0.019482641
0.14992252
-0.020091901
0.14923799
-0.020614635
0.14865303
-0.021053967
0.14816167
-0.02141343
0.14775806
-0.021696911
0.14743642
-0.021908588
0.14719113
-0.022052868
0.14701675
-0.022134332
0.14690808
-0.022157672
0.14686013
-0.022127639
0.14686817
-0.02204899
0.14692776
-0.021926447
0.1470347
-0.021764656
0.1471851
-0.021568157
0.14737535
-0.021341366
0.14760212
-0.021088562
0.14786236
-0.02081389
0.14815331
-0.02052138
0.14847251
-0.020214971
0.14881778
-0.019898599
0.14918724
-0.019576196
0.14957932
-0.019252121
0.14999279
-0.018930441
0.15042688
-0.018618346
0.15088107
-0.018317072
0.15135599
-0.018053656
0.15185146
-0.017787628
0.15237199
-0.017712078
0.15291326
-0.017352091
0.15349826
-0.018344445
-0.016565412
0.21685777
0.0087803838
-0.2202561
0.21338389
0.0070399196
0.21017108
0.0050755578
0.20706577
0.0032224462
0.20401918
0.0013685207
0.20106226
-0.00047934975
0.19821191
-0.002287461
0.19547262
-0.0040441768
0.19285031
-0.0057435681
0.1903518
-0.0073766166
0.18798229
-0.0089344913
0.18574518
-0.010410539
0.18364247
-0.011799703
0.18167485
-0.013098023
0.17984179
-0.014302643
0.17814167
-0.015411806
0.17657193
-0.01642474
0.17512927
-0.017341541
0.17380972
-0.018163097
0.17260885
-0.018891023
0.17152179
-0.019527578
0.17054342
-0.020075599
0.16966842
-0.020538428
0.16889135
-0.020919842
0.16820675
-0.021223983
0.16760916
-0.021455288
0.16709325
-0.021618417
0.16665377
-0.021718193
0.16628567
-0.021759537
0.16598409
-0.021747407
0.16574439
-0.021686751
0.1655622
-0.021582462
0.16543338
-0.021439343
0.1653541
-0.021262083
0.16532078
-0.02105524
0.16533013
-0.020823245
0.16537917
-0.020570419
0.1654652
-0.020300997
0.16558581
-0.020019213
0.16573893
-0.019729313
0.16592279
-0.019435986
0.16613601
-0.019143658
0.16637758
-0.018859911
0.16664699
-0.018586488
0.16694411
-0.018350772
0.16727016
-0.018113678
0.16762436
-0.018066283
0.16801502
-0.017742752
0.16842411
-0.01875353
-0.017039418
0.24376669
0.011504334
-0.24649064
0.24091625
0.0098903535
0.23806305
0.0079287643
0.23521609
0.0060694042
0.23233829
0.0042463193
0.22945048
0.002408466
0.22658386
0.00057915189
0.22375775
-0.0012180636
0.22098805
-0.0029738722
0.21829071
-0.0046792739
0.21567958
-0.0063233603
0.21316566
-0.0078966191
0.21075756
-0.0093916053
0.20846184
-0.010802306
0.20628314
-0.012123938
0.20422433
-0.013352996
0.20228677
-0.014487179
0.2004705
-0.015525269
0.19877443
-0.016467032
0.19719654
-0.017313132
0.19573401
-0.018065046
0.19438339
-0.018724977
0.19314073
-0.019295768
0.1920017
-0.019780817
0.19096171
-0.020183994
0.19001598
-0.020509561
0.18915966
-0.020762091
0.18838785
-0.020946388
0.18769574
-0.02106742
0.18707858
-0.021130248
0.18653179
-0.021139966
0.18605098
-0.021101651
0.18563196
-0.021020321
0.18527078
-0.020900901
0.18496374
-0.020748208
0.18470744
-0.020566944
0.18449874
-0.020361711
0.18433478
-0.020137041
0.18421304
-0.019897471
0.1841313
-0.01964757
0.18408766
-0.019392356
0.18408066
-0.019136651
0.18410909
-0.018888342
0.18417255
-0.018649945
0.18427013
-0.018448353
0.18440455
-0.018248098
0.18456941
-0.018231147
0.18478661
-0.01795995
0.18499224
-0.018959164
-0.017372172
0.26927445
0.013537282
-0.2713074
0.26710641
0.012058394
0.26476465
0.010270522
0.26232543
0.008508626
0.25979668
0.0067750653
0.25718859
0.0050165567
0.25452728
0.003240465
0.25183692
0.0014722994
0.2491375
-0.00027445701
0.24644884
-0.0019906116
0.24379022
-0.003664741
0.24117878
-0.0052851781
0.23862924
-0.0068420694
0.2361541
-0.0083271642
0.23376365
-0.0097334864
0.23146605
-0.011055395
0.22926748
-0.012288611
0.22717234
-0.013430131
0.22518343
-0.014478123
0.22330215
-0.015431848
0.22152866
-0.016291561
0.21986211
-0.017058424
0.21830075
-0.017734404
0.21684211
-0.018322178
0.21548315
-0.01882504
0.21422039
-0.019246802
0.21305001
-0.019591705
0.21196795
-0.019864327
0.21097003
-0.020069503
0.21005202
-0.02021224
0.20920971
-0.020297652
0.20843895
-0.020330893
0.20773574
-0.02031711
0.20709624
-0.0202614
0.20651682
-0.020168786
0.20599408
-0.020044205
0.20552488
-0.019892516
0.20510637
-0.019718529
0.20473598
-0.019527079
0.20441146
-0.019323055
0.20413091
-0.019111798
0.20389281
-0.018898553
0.2036959
-0.018691435
0.20353988
-0.01849393
0.20342329
-0.018331755
0.20335002
-0.018174829
0.2033089
-0.018190027
0.20333315
-0.0179842
0.20331757
-0.018943583
-0.01754149
0.29298521
0.014868421
-0.29431635
0.29150597
0.013537633
0.28978348
0.011993011
0.28788485
0.010407256
0.28584494
0.0088149722
0.28367458
0.0071869246
0.28139216
0.0055228826
0.27902093
0.0038435237
0.27658221
0.0021642713
0.27409614
0.00049545882
0.27158292
-0.0011515292
0.26906229
-0.0027645494
0.26655257
-0.0043323474
0.26407035
-0.0058449404
0.26163036
-0.0072935002
0.25924538
-0.008670411
0.25692616
-0.0099693904
0.25468152
-0.011185491
0.25251844
-0.012315046
0.2504422
-0.013355608
0.24845652
-0.014305879
0.24656372
-0.01516563
0.24476492
-0.0159356
0.24306015
-0.016617404
0.24144854
-0.01721343
0.23992847
-0.017726737
0.23849772
-0.018160954
0.23715357
-0.018520179
0.23589295
-0.018808884
0.23471254
-0.019031825
0.23360884
-0.019193959
0.23257833
-0.019300374
0.23161743
-0.019356219
0.2307227
-0.019366662
0.22989076
-0.01933685
0.22911845
-0.019271889
0.22840278
-0.01917685
0.22774104
-0.019056786
0.22713076
-0.018916802
0.2265698
-0.018762098
0.22605633
-0.018598321
0.22558892
-0.018431145
0.22516634
-0.018268856
0.22478843
-0.018116024
0.22445337
-0.017996692
0.2241659
-0.017887359
0.22391119
-0.017935315
0.22373079
-0.017803799