/*--------------------------------*- C++ -*----------------------------------*\
  =========                 |
  \\      /  F ield         | OpenFOAM: The Open Source CFD Toolbox
   \\    /   O peration     | Website:  https://openfoam.org
    \\  /    A nd           | Version:  6
     \\/     M anipulation  |
\*---------------------------------------------------------------------------*/
FoamFile
{
    version     2.0;
    format      ascii;
    class       volScalarField;
    location    "126";
    object      p;
}
// * * * * * * * * * * * * * * * * * * * * * * * * * * * * * * * * * * * * * //

dimensions      [0 2 -2 0 0 0 0];

internalField   nonuniform List<scalar> 
9200
(
-0.37798217
-0.36663552
-0.35654171
-0.34759231
-0.33885251
-0.33033617
-0.32212158
-0.31417624
-0.30643282
-0.29881938
-0.29126298
-0.28369456
-0.27605597
-0.26830721
-0.260437
-0.25248067
-0.24451453
-0.23662641
-0.22984121
-0.22844092
-0.39584308
-0.38204524
-0.37000779
-0.35953858
-0.34942674
-0.33965371
-0.33028825
-0.32126709
-0.31249071
-0.30386078
-0.29528411
-0.28667849
-0.27798023
-0.26915014
-0.26017912
-0.25109215
-0.24191907
-0.23265961
-0.22399669
-0.21809622
-0.41412096
-0.3978491
-0.38391392
-0.37199536
-0.3605668
-0.34955908
-0.33901966
-0.32884682
-0.3189069
-0.30907901
-0.29925887
-0.28936439
-0.27934252
-0.2691723
-0.25886475
-0.24845854
-0.23799246
-0.22747545
-0.21730676
-0.20860145
-0.43238175
-0.41365498
-0.39788746
-0.38458114
-0.37185611
-0.35957623
-0.34775984
-0.33626624
-0.32493552
-0.31363966
-0.30228401
-0.29081035
-0.2792
-0.26747159
-0.25567443
-0.24387834
-0.23214986
-0.22052789
-0.20927987
-0.19914691
-0.44999551
-0.42891686
-0.41143373
-0.39681675
-0.38280495
-0.36918443
-0.35594425
-0.34291543
-0.32993234
-0.31688689
-0.30372381
-0.29043692
-0.277065
-0.2636819
-0.2503831
-0.23727153
-0.22443725
-0.2119388
-0.19996437
-0.18902138
-0.46613773
-0.44291574
-0.42389264
-0.40805443
-0.39274928
-0.37768563
-0.3628357
-0.34802784
-0.33312482
-0.31807489
-0.30289498
-0.28765569
-0.27246691
-0.25745981
-0.24276853
-0.22851512
-0.2147942
-0.20166169
-0.18924355
-0.17787657
-0.47980327
-0.45476528
-0.43443953
-0.41748017
-0.4008614
-0.38422977
-0.3675685
-0.35074399
-0.33369193
-0.31645626
-0.29915434
-0.28194732
-0.26501537
-0.24853416
-0.23265612
-0.21749914
-0.20313891
-0.18960655
-0.1769689
-0.16542717
-0.4898283
-0.46343532
-0.4421176
-0.42416066
-0.40621444
-0.38789752
-0.36924678
-0.35021888
-0.33087089
-0.31137736
-0.29197342
-0.27291038
-0.25442406
-0.23671131
-0.2199169
-0.20413064
-0.18938971
-0.17568598
-0.16302833
-0.15150403
-0.49487061
-0.46765059
-0.44564084
-0.42676011
-0.40743243
-0.38731055
-0.36654495
-0.34523985
-0.3236132
-0.30198577
-0.28070383
-0.26008626
-0.24039372
-0.22181297
-0.20445479
-0.18836232
-0.17352343
-0.15988651
-0.14740644
-0.13607299
-0.49357974
-0.46599419
-0.44346167
-0.42361319
-0.4027936
-0.38077342
-0.35788218
-0.33441745
-0.31077185
-0.28739549
-0.26470854
-0.24305197
-0.22266853
-0.20370188
-0.18620843
-0.170176
-0.15554361
-0.1422218
-0.1301187
-0.11913921
-0.26509855
-0.26977289
-0.27228132
-0.27303246
-0.27281833
-0.27182579
-0.27013631
-0.26783742
-0.26500133
-0.26168277
-0.25792579
-0.25376789
-0.24924219
-0.24437876
-0.23920587
-0.23375239
-0.22804921
-0.22211686
-0.21595437
-0.20964726
-0.26783126
-0.27209033
-0.27429202
-0.27482448
-0.27442727
-0.27327851
-0.27145775
-0.26904884
-0.26612042
-0.26272438
-0.25890235
-0.25468973
-0.25011774
-0.24521446
-0.24000554
-0.23451886
-0.22879276
-0.22284612
-0.21657165
-0.20994341
-0.27316083
-0.27660784
-0.27821153
-0.27831626
-0.27756011
-0.2761058
-0.27402935
-0.27140733
-0.26830145
-0.26475799
-0.26081374
-0.2564999
-0.2518439
-0.24686996
-0.24159892
-0.23605578
-0.2302903
-0.22432022
-0.21784644
-0.2106112
-0.28084739
-0.28313186
-0.28387
-0.283346
-0.28205694
-0.28014595
-0.27768509
-0.27474108
-0.27136597
-0.26759817
-0.26346765
-0.25899948
-0.25421557
-0.24913444
-0.24377012
-0.23814244
-0.2323131
-0.22630448
-0.21957107
-0.2114853
-0.29058864
-0.29141936
-0.29105592
-0.28971465
-0.28772371
-0.28520545
-0.28222874
-0.27884903
-0.27510693
-0.27103164
-0.26664485
-0.26196338
-0.2570016
-0.25177113
-0.24627784
-0.24053323
-0.23460697
-0.22853463
-0.22151152
-0.2123953
-0.30207078
-0.30121815
-0.29955188
-0.29722128
-0.2943688
-0.29109735
-0.28747487
-0.28354576
-0.27933867
-0.27487111
-0.27015399
-0.26519486
-0.2599993
-0.25457047
-0.24890514
-0.24300346
-0.23693515
-0.23075516
-0.22342769
-0.21317423
-0.31501487
-0.31230319
-0.30916715
-0.30569621
-0.30183839
-0.29768036
-0.29329297
-0.28870923
-0.28394308
-0.27899956
-0.27387809
-0.26857492
-0.26308505
-0.25740211
-0.25151374
-0.24540832
-0.23914837
-0.23281147
-0.22519385
-0.21381178
-0.32920489
-0.32449943
-0.31975988
-0.31502556
-0.31004583
-0.30489412
-0.29964448
-0.29431771
-0.28891302
-0.28342101
-0.27782674
-0.27211222
-0.2662588
-0.26024805
-0.25405795
-0.24766795
-0.2411378
-0.23459105
-0.22677521
-0.21449613
-0.3444878
-0.33767448
-0.33121966
-0.32512265
-0.31892679
-0.31269091
-0.30649419
-0.30034473
-0.29422408
-0.28810525
-0.28195538
-0.27573803
-0.26941545
-0.26294889
-0.25629391
-0.24940264
-0.24229937
-0.23509031
-0.22651812
-0.21308044
-0.36076469
-0.3517206
-0.34343431
-0.33587002
-0.32835166
-0.32092323
-0.31366898
-0.30658196
-0.29962365
-0.29274774
-0.28590313
-0.27903664
-0.27209592
-0.26502956
-0.2577817
-0.25028792
-0.24249112
-0.23418465
-0.22371768
-0.20804876
-0.20249633
-0.19354775
-0.18459421
-0.1756997
-0.16681052
-0.15796836
-0.14922673
-0.14062068
-0.13217949
-0.12393179
-0.11590335
-0.10811639
-0.10059002
-0.093340622
-0.086381772
-0.079724357
-0.073376672
-0.067344521
-0.061631314
-0.056238182
-0.051164098
-0.046406015
-0.041959017
-0.037816486
-0.03397028
-0.030410916
-0.027127766
-0.024109249
-0.021343031
-0.018816211
-0.016515511
-0.014427446
-0.012538497
-0.010835257
-0.0093045797
-0.0079337088
-0.0067104047
-0.0056230461
-0.0046608088
-0.0038135869
-0.0030728175
-0.0024294789
-0.0018813126
-0.0014115961
-0.0010560983
-0.0007046799
-0.00069749027
-8.587793e-05
-0.0017165946
0.002460167
-0.20350642
-0.19416058
-0.18509799
-0.17621782
-0.16731062
-0.15843827
-0.14967221
-0.1410439
-0.13258015
-0.12431011
-0.11625989
-0.10845153
-0.10090418
-0.09363426
-0.086655425
-0.079978624
-0.073612214
-0.067562058
-0.061831621
-0.056422074
-0.051332422
-0.046559639
-0.042098821
-0.037943353
-0.034085086
-0.030514522
-0.027221012
-0.02419295
-0.021417969
-0.018883135
-0.016575129
-0.014480427
-0.012585468
-0.010876802
-0.0093412398
-0.0079659823
-0.0067387475
-0.0056478727
-0.0046824932
-0.0038324635
-0.0030891809
-0.0024435873
-0.0018933669
-0.0014218053
-0.001064392
-0.0007116388
-0.00070092737
-9.1731274e-05
-0.0017020528
0.0024315365
-0.20562522
-0.19542873
-0.1861487
-0.17733722
-0.16840643
-0.15947341
-0.15065972
-0.14198739
-0.13347661
-0.12515868
-0.1170609
-0.10920525
-0.10161095
-0.094294768
-0.087270649
-0.080549756
-0.074140657
-0.068049399
-0.062279601
-0.056832556
-0.051707358
-0.046901045
-0.042408745
-0.038223854
-0.034338206
-0.030742274
-0.027425357
-0.024375784
-0.021581113
-0.019028322
-0.016704002
-0.01459453
-0.012686243
-0.01096559
-0.0094192781
-0.0080344058
-0.0067985916
-0.0057000753
-0.0047278977
-0.0038718215
-0.0031231536
-0.0024727507
-0.0019181791
-0.0014427182
-0.001081329
-0.00072572586
-0.00070798596
-0.00010329472
-0.001673507
0.0023748885
-0.20869398
-0.19712077
-0.18751977
-0.17890726
-0.16998708
-0.16097737
-0.15210955
-0.14338828
-0.13481846
-0.1264365
-0.11827342
-0.1103512
-0.10268939
-0.095305607
-0.088214485
-0.081427716
-0.074954326
-0.068800771
-0.062971003
-0.057466582
-0.052286809
-0.047428866
-0.042887981
-0.038657595
-0.034729554
-0.031094298
-0.027741068
-0.024658108
-0.021832867
-0.019252198
-0.016902552
-0.01477016
-0.012841202
-0.011101969
-0.0095390091
-0.0081392606
-0.0068901861
-0.0057798727
-0.0047972135
-0.0039318271
-0.0031748793
-0.0025170932
-0.0019558551
-0.0014744251
-0.0011069862
-0.00074700073
-0.0007187616
-0.00012051741
-0.0016317015
0.0022914487
-0.21248603
-0.19896615
-0.18894195
-0.18073024
-0.17190606
-0.16282232
-0.15391146
-0.14515757
-0.13653415
-0.12808483
-0.11984911
-0.11185014
-0.10410786
-0.096641352
-0.089466648
-0.082596465
-0.076040674
-0.069806471
-0.063898429
-0.058318608
-0.053066702
-0.048140193
-0.043534519
-0.039243261
-0.03525833
-0.03157018
-0.028168008
-0.025039975
-0.02217341
-0.019555018
-0.017171079
-0.015007632
-0.013050659
-0.011286242
-0.0097007152
-0.008280806
-0.007013766
-0.0058874762
-0.0048906291
-0.0040126478
-0.0032445061
-0.0025767453
-0.0020065093
-0.0015170261
-0.0011414543
-0.00077553059
-0.0007333954
-0.00014329428
-0.0015777745
0.0021831027
-0.21665405
-0.20068439
-0.19014609
-0.18257296
-0.173991
-0.16486488
-0.15593333
-0.14718125
-0.13853095
-0.13002764
-0.12172465
-0.11364958
-0.1058234
-0.098267047
-0.090998791
-0.084033141
-0.077381384
-0.07105192
-0.065050349
-0.059379577
-0.054039975
-0.049029556
-0.044344159
-0.039977647
-0.035922113
-0.0321681
-0.028704822
-0.025520384
-0.02260201
-0.01993625
-0.017509197
-0.015306673
-0.013314422
-0.011518275
-0.0099043083
-0.0084589868
-0.007169301
-0.0060228744
-0.0050081477
-0.0041142981
-0.0033320576
-0.0026517374
-0.0020701775
-0.0015705609
-0.0011847816
-0.00081135223
-0.00075203632
-0.00017147861
-0.0015131678
0.0020523069
-0.22080048
-0.2020939
-0.19092048
-0.18415771
-0.17604139
-0.16697805
-0.15806008
-0.1493471
-0.14071298
-0.13218707
-0.12383513
-0.11569464
-0.10778988
-0.10014416
-0.092778688
-0.085710737
-0.0789538
-0.072518097
-0.066410773
-0.060636027
-0.055195277
-0.05008737
-0.045308792
-0.040853885
-0.036715075
-0.032883112
-0.029347303
-0.026095758
-0.023115623
-0.020393308
-0.017914711
-0.015665422
-0.013630918
-0.011796746
-0.010148681
-0.0086728822
-0.0073560317
-0.0061854471
-0.0051492696
-0.0042363819
-0.0034372263
-0.0027418386
-0.0021466933
-0.0016349195
-0.0012369108
-0.0008544382
-0.0007748145
-0.00020491397
-0.0014395231
0.0019019508
-0.22466444
-0.2035903
-0.19148943
-0.18529707
-0.17784299
-0.16907445
-0.16024809
-0.15159892
-0.14301827
-0.13450749
-0.12613139
-0.11794009
-0.10996563
-0.10223485
-0.094772294
-0.08759876
-0.080730746
-0.074180915
-0.067958458
-0.062069302
-0.056516288
-0.05129941
-0.046416057
-0.041861262
-0.037627956
-0.033707225
-0.030088576
-0.026760192
-0.023709189
-0.020921866
-0.018383934
-0.016080745
-0.013997496
-0.012119421
-0.010431965
-0.0089209409
-0.0075726828
-0.0063741594
-0.0053131682
-0.0043782532
-0.0035595217
-0.0028466916
-0.0022358121
-0.0017099545
-0.0012977802
-0.00090478365
-0.00080191185
-0.00024350225
-0.0013586324
0.0017353262
-0.22590367
-0.20541821
-0.19254848
-0.18592731
-0.17896065
-0.17077375
-0.16222387
-0.15370383
-0.1452302
-0.13679648
-0.1284503
-0.12024953
-0.11223732
-0.10444632
-0.096905055
-0.089638418
-0.082666773
-0.076006055
-0.06966824
-0.063661639
-0.057991123
-0.052658368
-0.047662134
-0.042998544
-0.038661371
-0.034642321
-0.030931323
-0.027516814
-0.024386022
-0.021525228
-0.018920032
-0.016555587
-0.01441683
-0.012488684
-0.010756249
-0.0092049716
-0.0078208036
-0.006590327
-0.005500953
-0.0045408418
-0.0036997185
-0.0029669367
-0.0023380593
-0.0017960847
-0.0013677363
-0.00096260221
-0.00083370664
-0.00028694405
-0.0012726451
0.0015567041
-0.21604288
-0.20466419
-0.19366613
-0.18557855
-0.17852256
-0.17110993
-0.16316631
-0.15501218
-0.14682646
-0.13863521
-0.13046616
-0.12237678
-0.11442258
-0.10664649
-0.09908434
-0.091767688
-0.0847232
-0.077972345
-0.071531822
-0.065413986
-0.059627137
-0.05417582
-0.049061157
-0.044281182
-0.039831177
-0.035704008
-0.031890455
-0.028379548
-0.025158876
-0.022214897
-0.019533229
-0.017098917
-0.014896687
-0.012911175
-0.011127135
-0.0095296267
-0.00810419
-0.0068369793
-0.0057149738
-0.0047258984
-0.0038590445
-0.0031033463
-0.0024538226
-0.0018933537
-0.0014466017
-0.0010273608
-0.00087000212
-0.00033357036
-0.0011841223
0.0013715942
-0.19390493
-0.19861168
-0.1933383
-0.18443391
-0.17693119
-0.16992327
-0.16242292
-0.15456565
-0.14661731
-0.13864111
-0.1306566
-0.12271669
-0.11488066
-0.10719584
-0.099701251
-0.092431378
-0.085415858
-0.07867895
-0.072239874
-0.066113245
-0.06030939
-0.054834645
-0.049691695
-0.04487993
-0.040395791
-0.036233123
-0.032383525
-0.028836696
-0.025580761
-0.022602599
-0.019888145
-0.01742267
-0.015191051
-0.013178007
-0.011368323
-0.0097470422
-0.0082996502
-0.0070122174
-0.0058716108
-0.0048654278
-0.0039827814
-0.0032124913
-0.0025491124
-0.0019759639
-0.0015149391
-0.0010861654
-0.00090125175
-0.00038015176
-0.0010936248
0.0011879064
-0.1833558
-0.18917635
-0.18570326
-0.17696453
-0.16976162
-0.16350547
-0.15680561
-0.14966225
-0.14237129
-0.13500779
-0.12758148
-0.12014094
-0.1127479
-0.10545339
-0.098299986
-0.091326001
-0.084565112
-0.078045584
-0.071790475
-0.065818039
-0.060142019
-0.054771925
-0.049713371
-0.044968425
-0.040535968
-0.036412052
-0.032590257
-0.02906205
-0.025817129
-0.022843752
-0.020129059
-0.017659368
-0.01542045
-0.013397787
-0.011576799
-0.0099430588
-0.00848248
-0.0071814747
-0.0060271655
-0.0050073523
-0.0041112192
-0.003327768
-0.0026511088
-0.0020655834
-0.0015893549
-0.0011515633
-0.00093488827
-0.00043484246
-0.00099256316
0.00098983346
-0.17461731
-0.1778384
-0.17556123
-0.16854058
-0.16218812
-0.1566259
-0.15069285
-0.14427955
-0.13765265
-0.13090726
-0.12405528
-0.11713908
-0.11021917
-0.10334843
-0.096571542
-0.089929193
-0.083457973
-0.077189366
-0.071149719
-0.065360573
-0.05983889
-0.054597282
-0.049644311
-0.044984811
-0.040620237
-0.036549012
-0.032766884
-0.029267282
-0.026041667
-0.023079873
-0.020370426
-0.017900861
-0.015658004
-0.01362824
-0.011797758
-0.010152772
-0.0086797254
-0.0073654576
-0.0061974188
-0.0051636722
-0.0042535141
-0.0034561782
-0.0027653029
-0.0021663838
-0.0016734796
-0.001225661
-0.00097394489
-0.00049642026
-0.00088393291
0.00077284334
-0.1649388
-0.16555123
-0.16371967
-0.15877512
-0.15365262
-0.14883305
-0.14369113
-0.13808956
-0.13220573
-0.12614045
-0.11992141
-0.11358904
-0.10720046
-0.10080922
-0.094461823
-0.088200958
-0.082065706
-0.076090517
-0.070304933
-0.064733773
-0.059397301
-0.054311387
-0.04948774
-0.0449342
-0.040655052
-0.036651358
-0.032921304
-0.029460547
-0.026262567
-0.023319008
-0.020620013
-0.018154535
-0.015910642
-0.013875792
-0.01203709
-0.010381522
-0.0088961702
-0.0075683991
-0.0063860655
-0.0053375607
-0.0044123434
-0.0035999142
-0.0028934608
-0.0022796357
-0.0017683716
-0.0013086507
-0.0010196556
-0.0005623426
-0.00077530776
0.00054701759
-0.15436921
-0.15310182
-0.15129232
-0.14806265
-0.14423339
-0.14021869
-0.13587382
-0.13111623
-0.12602938
-0.12069631
-0.11516017
-0.10946398
-0.10366072
-0.097802785
-0.091937625
-0.086109181
-0.080358284
-0.074721777
-0.069232033
-0.063916944
-0.058799985
-0.0539003
-0.049232853
-0.04480866
-0.040635053
-0.036715983
-0.033052337
-0.029642272
-0.026481559
-0.023563916
-0.020881349
-0.018424468
-0.016182797
-0.01414506
-0.012299453
-0.01063389
-0.0091362285
-0.0077944712
-0.0065969794
-0.0055325509
-0.0045908727
-0.003761749
-0.0030379713
-0.0024072919
-0.0018756942
-0.0014015552
-0.0010735106
-0.00063196533
-0.0006727269
0.00032047384
-0.14258224
-0.14052311
-0.13882819
-0.13687284
-0.13421443
-0.13103574
-0.127478
-0.12354507
-0.11925903
-0.11467574
-0.10984609
-0.10481478
-0.099630236
-0.094342488
-0.088998813
-0.083643382
-0.078317661
-0.073059902
-0.067904546
-0.062881981
-0.058018477
-0.05333617
-0.048853127
-0.04458349
-0.040537676
-0.036722625
-0.033142077
-0.029796874
-0.026685283
-0.023803316
-0.021145063
-0.018703007
-0.016468337
-0.014431243
-0.012581193
-0.010907192
-0.0093980215
-0.0080424527
-0.006829464
-0.005748352
-0.0047891142
-0.0039419029
-0.0031991976
-0.0025497593
-0.0019959538
-0.00150468
-0.0011364843
-0.00070483369
-0.00058218711
0.00010188078
-0.12988783
-0.12795793
-0.12661111
-0.12556785
-0.12387308
-0.12150405
-0.11870663
-0.11555236
-0.11203809
-0.10819337
-0.10406813
-0.099708773
-0.095158241
-0.090461461
-0.085664343
-0.080810531
-0.075941136
-0.071094674
-0.066306643
-0.061609118
-0.057030506
-0.052595419
-0.048324645
-0.044235194
-0.040340418
-0.036650185
-0.033171098
-0.029906757
-0.026858038
-0.024023396
-0.021399168
-0.018979891
-0.016758601
-0.014727132
-0.012876399
-0.011196663
-0.0096777805
-0.0083094258
-0.0070813169
-0.0059833517
-0.0050059329
-0.0041396136
-0.0033766708
-0.0027067617
-0.0021290971
-0.0016179432
-0.0012092448
-0.00078052001
-0.00050959478
-9.9437054e-05
-0.11700171
-0.11565203
-0.11479389
-0.11440643
-0.11346722
-0.11183342
-0.10974679
-0.10730969
-0.1045154
-0.10137576
-0.097932841
-0.094230987
-0.090310034
-0.086209288
-0.081969827
-0.077633563
-0.073240629
-0.068828869
-0.064433764
-0.060088098
-0.055821591
-0.051660644
-0.047628199
-0.043743691
-0.040023078
-0.03647893
-0.033120584
-0.029954336
-0.02698368
-0.024209563
-0.02163067
-0.019243707
-0.017043697
-0.01502427
-0.013177937
-0.011496366
-0.0099706335
-0.0085914529
-0.007349406
-0.006235101
-0.0052394493
-0.0043534657
-0.0035693533
-0.0028775491
-0.0022746624
-0.0017410088
-0.0012921625
-0.0008588036
-0.00045998054
-0.00027461146
-0.10446703
-0.10378389
-0.10344164
-0.10354822
-0.10319706
-0.10220057
-0.10075553
-0.098965655
-0.096827478
-0.094343306
-0.091545467
-0.088472936
-0.085161054
-0.081644788
-0.077960629
-0.074146118
-0.07023898
-0.066275692
-0.06229088
-0.058317086
-0.054384449
-0.050520366
-0.046749251
-0.04309239
-0.039567874
-0.036190612
-0.0329724
-0.029922047
-0.027045555
-0.024346319
-0.021825374
-0.019481648
-0.017312231
-0.015312645
-0.013477122
-0.01179886
-0.010270281
-0.0088832654
-0.0076293791
-0.0065000486
-0.005486802
-0.0045811842
-0.0037754647
-0.003060757
-0.0024316665
-0.0018732131
-0.0013851956
-0.00093968269
-0.00043671943
-0.00041648512
-0.092569393
-0.092472328
-0.092598507
-0.093092726
-0.093202921
-0.092741288
-0.091856899
-0.090639708
-0.089088537
-0.087200932
-0.085000138
-0.082518107
-0.079784913
-0.076830429
-0.073686688
-0.070387101
-0.066965435
-0.063455494
-0.05989029
-0.056301359
-0.052718415
-0.049169045
-0.045678403
-0.042268975
-0.038960431
-0.035769547
-0.0327102
-0.029793423
-0.027027507
-0.024418156
-0.021968673
-0.019680178
-0.017551839
-0.015581123
-0.01376405
-0.012095439
-0.010569161
-0.0091783675
-0.0079157167
-0.0067735564
-0.005744136
-0.0048196048
-0.0039924421
-0.0032543612
-0.0025985596
-0.0020135135
-0.0014878133
-0.0010232675
-0.00044095281
-0.00052073497
-0.081449134
-0.081808074
-0.082316685
-0.083113501
-0.083584538
-0.083560015
-0.083150935
-0.08242941
-0.081393842
-0.080038864
-0.078380071
-0.076442054
-0.074249123
-0.071825876
-0.069199242
-0.066398254
-0.063452821
-0.06039314
-0.057249528
-0.054051763
-0.050828427
-0.047606544
-0.044411281
-0.041265654
-0.038190308
-0.03520336
-0.032320317
-0.029554059
-0.026914873
-0.024410544
-0.022046484
-0.0198259
-0.017749988
-0.015818147
-0.014028205
-0.012376655
-0.010858882
-0.0094693884
-0.0082020145
-0.007050119
-0.0060067703
-0.0050647973
-0.0042170288
-0.0034557352
-0.0027732634
-0.0021604834
-0.0015989681
-0.0011096271
-0.00047129517
-0.0005867126
-0.071166721
-0.071853609
-0.072648589
-0.073670443
-0.074416648
-0.07473926
-0.074721155
-0.07441786
-0.073825685
-0.072936846
-0.071760611
-0.070314646
-0.06861739
-0.066688126
-0.064548593
-0.062222958
-0.059736935
-0.057117039
-0.054390248
-0.051583723
-0.04872422
-0.045837541
-0.042948183
-0.040079035
-0.037251099
-0.034483273
-0.031792199
-0.029192176
-0.026695127
-0.024310625
-0.022045964
-0.019906271
-0.017894655
-0.016012379
-0.014259054
-0.012632847
-0.011130689
-0.0097484885
-0.0084813289
-0.0073236542
-0.0062694362
-0.0053122568
-0.0044454253
-0.0036617611
-0.0029532514
-0.0023123354
-0.0017171086
-0.001198621
-0.00052393774
-0.00061773098
-0.061734075
-0.062641718
-0.063634391
-0.064810272
-0.065756215
-0.066344761
-0.066637925
-0.066677495
-0.066457327
-0.065967493
-0.065212038
-0.064202494
-0.06295173
-0.061473858
-0.059785532
-0.057906002
-0.05585644
-0.053659372
-0.051338243
-0.048917083
-0.046420137
-0.043871358
-0.041293961
-0.038710081
-0.036140471
-0.033604242
-0.031118649
-0.028698944
-0.026358279
-0.024107671
-0.021956012
-0.019910124
-0.01797486
-0.016153227
-0.014446545
-0.012854616
-0.011375913
-0.010007763
-0.0087465381
-0.0075878188
-0.0065265498
-0.0055571343
-0.0046734795
-0.0038689775
-0.0031356639
-0.0024669699
-0.0018402372
-0.001289767
-0.0005931824
-0.00062062728
-0.053136401
-0.054180652
-0.055296513
-0.056564462
-0.057644456
-0.058427212
-0.058958935
-0.059270523
-0.059353789
-0.059197111
-0.058800319
-0.058169751
-0.057313296
-0.056240278
-0.054962552
-0.053494607
-0.051853072
-0.050056257
-0.048123819
-0.046076419
-0.043935342
-0.041722135
-0.039458167
-0.037164251
-0.034860319
-0.032565133
-0.030296028
-0.028068719
-0.025897148
-0.023793389
-0.021767599
-0.019828025
-0.017981041
-0.016231232
-0.014581502
-0.013033212
-0.01158633
-0.010239592
-0.0089906672
-0.0078363066
-0.0067724799
-0.0057944713
-0.0048968882
-0.0040737427
-0.0033174387
-0.0026220483
-0.0019660144
-0.0013821818
-0.00067234358
-0.00060457245
-0.045342912
-0.046459487
-0.047639294
-0.048948304
-0.050107098
-0.051022473
-0.051728572
-0.052247851
-0.052570774
-0.05268464
-0.052586052
-0.052277148
-0.0517616
-0.051044534
-0.050133466
-0.04903847
-0.047771825
-0.046347673
-0.044781765
-0.043091191
-0.04129404
-0.039409059
-0.037455302
-0.035451759
-0.03341702
-0.031368964
-0.029324489
-0.027299277
-0.025307596
-0.023362156
-0.021474015
-0.019652522
-0.017905308
-0.016238321
-0.014655883
-0.013160792
-0.01175443
-0.010436895
-0.0092071361
-0.008063085
-0.0070017691
-0.0060194023
-0.0051113779
-0.0042723886
-0.0034954426
-0.0027750829
-0.0020919023
-0.0014746157
-0.00075482644
-0.00057936309
-0.038312223
-0.039453323
-0.040651971
-0.041962283
-0.043155323
-0.04415214
-0.044977774
-0.04564827
-0.046153453
-0.046480194
-0.046622829
-0.04658028
-0.046352851
-0.045942178
-0.045352051
-0.044588624
-0.043660198
-0.042576977
-0.041350903
-0.039995451
-0.038525375
-0.036956407
-0.035304953
-0.033587777
-0.03182168
-0.030023189
-0.028208275
-0.026392102
-0.024588799
-0.022811281
-0.021071103
-0.019378365
-0.017741648
-0.016168004
-0.014662966
-0.013230602
-0.011873587
-0.010593301
-0.0093899256
-0.0082625558
-0.0072092886
-0.0062273014
-0.0053128403
-0.0044613429
-0.0036665819
-0.0029235316
-0.0022153262
-0.0015655641
-0.00083511861
-0.00055361476
-0.031996904
-0.033128233
-0.034312779
-0.035594947
-0.036787809
-0.03782501
-0.038724822
-0.039498535
-0.040135943
-0.040624086
-0.040955891
-0.041127999
-0.041138193
-0.040985378
-0.040670308
-0.040195831
-0.039566765
-0.038789765
-0.03787322
-0.036827133
-0.035662935
-0.03439326
-0.033031688
-0.031592481
-0.030090304
-0.02853994
-0.026956008
-0.025352708
-0.023743586
-0.022141323
-0.020557567
-0.019002786
-0.017486176
-0.016015596
-0.014597538
-0.013237138
-0.011938206
-0.010703278
-0.0095336928
-0.0084296612
-0.0073903369
-0.0064138753
-0.0054974198
-0.0046372117
-0.003827885
-0.0030648856
-0.002333828
-0.0016534196
-0.00090942618
-0.00053337404
-0.026346899
-0.027444995
-0.028592537
-0.029825958
-0.030993252
-0.032039107
-0.032976827
-0.033814252
-0.034541614
-0.035146593
-0.035621444
-0.035961341
-0.036162333
-0.036221341
-0.036136795
-0.035908891
-0.035539556
-0.035032381
-0.034392598
-0.033627017
-0.032743918
-0.031752894
-0.030664662
-0.029490849
-0.028243761
-0.026936142
-0.025580917
-0.024190945
-0.022778782
-0.021356471
-0.019935344
-0.018525858
-0.017137465
-0.015778508
-0.014456158
-0.013176375
-0.011943903
-0.010762284
-0.0096338948
-0.0085599847
-0.0075407222
-0.0065752314
-0.005661573
-0.0047968343
-0.0039765597
-0.0031967434
-0.0024451788
-0.0017366158
-0.00097579933
-0.00052153098
-0.02131183
-0.022361741
-0.023457462
-0.024628835
-0.025752885
-0.026783909
-0.027731582
-0.028601278
-0.029383996
-0.030068392
-0.030646617
-0.03111306
-0.031462716
-0.031691199
-0.031795288
-0.031773185
-0.031624536
-0.031350425
-0.030953399
-0.030437466
-0.029808051
-0.029071899
-0.028236956
-0.027312216
-0.026307535
-0.025233444
-0.02410093
-0.022921212
-0.021705528
-0.020464915
-0.019210022
-0.017950922
-0.016696966
-0.01545665
-0.014237514
-0.013046078
-0.011887787
-0.010766999
-0.0096869768
-0.0086499002
-0.0076568788
-0.0067079669
-0.0058021356
-0.0049373382
-0.0041100429
-0.0033168752
-0.0025474413
-0.0018137294
-0.0010337782
-0.0005181274
-0.016842885
-0.017836193
-0.018871608
-0.019973475
-0.02104297
-0.022042699
-0.022979677
-0.023857535
-0.024668223
-0.025401579
-0.026050065
-0.026607808
-0.027069302
-0.027429426
-0.027683908
-0.02782956
-0.027864343
-0.027787395
-0.027599095
-0.027301106
-0.026896375
-0.026389102
-0.025784673
-0.025089564
-0.02431122
-0.023457903
-0.02253853
-0.021562486
-0.020539436
-0.019479124
-0.018391192
-0.017284998
-0.016169451
-0.015052873
-0.013942864
-0.012846217
-0.011768827
-0.010715649
-0.0096906528
-0.0086968058
-0.007736055
-0.0068093174
-0.0059164377
-0.0050562289
-0.0042260711
-0.0034232915
-0.00263899
-0.0018835319
-0.0010837723
-0.00052130985
-0.012893869
-0.013827073
-0.014798562
-0.015828031
-0.016836791
-0.017794588
-0.018706471
-0.019574829
-0.02039264
-0.021151018
-0.021843
-0.02246283
-0.023004917
-0.023463862
-0.023834831
-0.024113778
-0.02429751
-0.024383755
-0.024371237
-0.024259749
-0.024050193
-0.023744589
-0.02334606
-0.022858789
-0.022287943
-0.021639581
-0.020920531
-0.020138251
-0.019300677
-0.018416053
-0.017492765
-0.016539174
-0.015563455
-0.014573446
-0.013576515
-0.012579438
-0.011588303
-0.010608424
-0.0096442762
-0.0086994469
-0.0077765888
-0.0068773843
-0.0060024869
-0.0051515357
-0.0043227914
-0.0035143309
-0.0027185215
-0.0019450119
-0.0011264574
-0.00052847349
-0.0094227712
-0.010295904
-0.011203422
-0.012161018
-0.013106824
-0.014016703
-0.014894219
-0.01574086
-0.016550629
-0.01731591
-0.018030471
-0.018688911
-0.019285851
-0.019815943
-0.020274179
-0.020656075
-0.020957745
-0.021175975
-0.021308307
-0.021353127
-0.021309729
-0.021178355
-0.020960215
-0.020657488
-0.020273292
-0.019811633
-0.019277334
-0.018675938
-0.018013594
-0.017296929
-0.016532908
-0.015728684
-0.014891456
-0.014028323
-0.013146148
-0.01225143
-0.011350186
-0.010447855
-0.0095492053
-0.0086582564
-0.0077782134
-0.0069114034
-0.0060591978
-0.0052220027
-0.0043989119
-0.0035887734
-0.0027850824
-0.0019973961
-0.0011623999
-0.00053717243
-0.0063915914
-0.0072073188
-0.0080535168
-0.0089424103
-0.0098261938
-0.010685946
-0.011524083
-0.012341416
-0.013132904
-0.013892142
-0.014613679
-0.01529261
-0.015923946
-0.016502616
-0.017023711
-0.01748263
-0.017875157
-0.018197525
-0.018446504
-0.018619494
-0.018714593
-0.018730662
-0.018667372
-0.018525225
-0.018305571
-0.018010592
-0.017643271
-0.017207336
-0.016707186
-0.016147808
-0.015534663
-0.01487357
-0.014170586
-0.013431869
-0.012663557
-0.011871638
-0.011061831
-0.01023947
-0.0094094046
-0.0085758981
-0.0077425406
-0.0069121648
-0.0060867492
-0.005267385
-0.0044539364
-0.0036460149
-0.0028381605
-0.0020402136
-0.0011919704
-0.00054560074
-0.0037681205
-0.0045306484
-0.0053198508
-0.0061448831
-0.0069696974
-0.0077798056
-0.0085767126
-0.0093607005
-0.010127585
-0.010872059
-0.011589446
-0.01227539
-0.012925383
-0.013534762
-0.014098893
-0.014613284
-0.015073653
-0.015475982
-0.015816603
-0.016092279
-0.016300282
-0.016438458
-0.016505294
-0.016499956
-0.016422335
-0.016273055
-0.01605348
-0.015765697
-0.015412474
-0.014997213
-0.014523878
-0.01399691
-0.013421126
-0.012801617
-0.012143636
-0.011452479
-0.010733368
-0.0099913391
-0.0092311253
-0.0084570508
-0.0076729235
-0.0068819351
-0.0060865468
-0.0052884368
-0.0044881613
-0.0036860619
-0.0028776618
-0.0020732731
-0.0012153665
-0.00055263562
-0.001526693
-0.0022418237
-0.0029799831
-0.0037477009
-0.0045186931
-0.0052821854
-0.0060389441
-0.0067888193
-0.007528364
-0.0082532383
-0.0089594768
-0.0096432685
-0.010300611
-0.010927305
-0.011519085
-0.012071706
-0.012580997
-0.013042908
-0.013453583
-0.01380943
-0.014107194
-0.014344028
-0.014517558
-0.014625939
-0.014667907
-0.014642821
-0.014550685
-0.014392162
-0.014168569
-0.013881857
-0.013534574
-0.013129816
-0.012671157
-0.012162568
-0.011608329
-0.011012926
-0.01038095
-0.0097169819
-0.009025481
-0.0083106709
-0.0075764235
-0.0068261464
-0.0060626562
-0.0052881086
-0.0045036606
-0.0037103237
-0.0029045388
-0.0020971522
-0.0012330934
-0.00055790565
0.00035679948
-0.00031675507
-0.0010100809
-0.0017273308
-0.0024502758
-0.0031712497
-0.0038904174
-0.004607263
-0.0053189516
-0.0060219639
-0.0067129602
-0.0073886304
-0.0080454535
-0.0086796917
-0.0092874792
-0.0098648851
-0.010407951
-0.010912732
-0.011375355
-0.011792075
-0.012159347
-0.012473883
-0.012732722
-0.012933287
-0.01307345
-0.013151578
-0.013166581
-0.013117944
-0.013005746
-0.012830669
-0.012593992
-0.012297569
-0.011943789
-0.011535524
-0.011076061
-0.01056903
-0.010018305
-0.0094279138
-0.0088019224
-0.0081443268
-0.0074589321
-0.0067492329
-0.0060182778
-0.0052685879
-0.0045018201
-0.0037195744
-0.0029191276
-0.0021118416
-0.0012449666
-0.00056091479
0.0018795288
0.0012397527
0.00058324228
-9.2404718e-05
-0.00077537734
-0.0014604539
-0.0021473034
-0.0028351126
-0.0035215369
-0.0042037212
-0.004878844
-0.0055440216
-0.0061961549
-0.0068319233
-0.0074478403
-0.0080402957
-0.0086055831
-0.0091399326
-0.0096395539
-0.010100687
-0.010519656
-0.010892928
-0.011217171
-0.011489317
-0.011706623
-0.011866729
-0.011967711
-0.01200813
-0.011987074
-0.011904181
-0.011759657
-0.01155428
-0.011289394
-0.010966875
-0.010589092
-0.010158849
-0.0096793137
-0.0091539314
-0.0085863283
-0.0079802033
-0.0073392103
-0.0066668361
-0.0059662608
-0.0052402678
-0.0044909102
-0.0037202797
-0.002926384
-0.0021210288
-0.0012535906
-0.00056297757
0.0030822671
0.0024702676
0.0018438902
0.0012023592
0.00055246092
-0.0001025414
-0.00076193161
-0.0014246461
-0.002088711
-0.0027517893
-0.0034114695
-0.0040652119
-0.0047102633
-0.0053436527
-0.0059622222
-0.0065626526
-0.0071414829
-0.0076951359
-0.008219951
-0.0087122243
-0.0091682542
-0.0095843912