/*--------------------------------*- C++ -*----------------------------------*\
  =========                 |
  \\      /  F ield         | OpenFOAM: The Open Source CFD Toolbox
   \\    /   O peration     | Website:  https://openfoam.org
    \\  /    A nd           | Version:  6
     \\/     M anipulation  |
\*---------------------------------------------------------------------------*/
FoamFile
{
    version     2.0;
    format      ascii;
    class       surfaceScalarField;
    location    "126";
    object      phi_0;
}
// * * * * * * * * * * * * * * * * * * * * * * * * * * * * * * * * * * * * * //

dimensions      [0 3 -1 0 0 0 0];

internalField   nonuniform List<scalar> 
18180
(
0.00031873392
-0.00016316935
-0.00015556457
0.0013092297
-0.0013669541
0.00037645836
0.0030329301
-0.0033336974
0.001609997
0.0055498504
-0.0059760859
0.0034591656
0.0089183191
-0.0092392653
0.0058707966
0.013192991
-0.013079783
0.0088051116
0.018422187
-0.017460172
0.012230975
0.024644928
-0.022346215
0.016123475
0.031887781
-0.027703824
0.020460971
0.040161787
-0.033496413
0.025222407
0.049459774
-0.039683147
0.03038516
0.05975443
-0.046218022
0.035923365
0.070997542
-0.053049767
0.041806655
0.083120842
-0.060122605
0.047999305
0.096039101
-0.067377958
0.054459699
0.10965596
-0.074757211
0.061140355
0.12387194
-0.082205388
0.067989406
0.13859969
-0.089675448
0.074947695
0.15383779
-0.09715026
0.081912167
-0.10462745
0.088680411
0.16978483
0.00039750237
-0.00056067174
0.0016096157
-0.0025790674
0.0036893653
-0.0054134471
0.0066875281
-0.0089742487
0.010650785
-0.013202522
0.015618061
-0.018047059
0.021616518
-0.023458629
0.028657593
-0.02938729
0.036733363
-0.035779594
0.045813649
-0.042576698
0.055844279
-0.049713777
0.066746876
-0.057120619
0.078420406
-0.064723297
0.090744581
-0.072446781
0.10358491
-0.080218285
0.11679878
-0.087971078
0.13024164
-0.095648253
0.14377381
-0.10320762
0.15725935
-0.1106358
-0.11786329
0.17049519
0.00048062934
-0.0010413011
0.0019187213
-0.0040171594
0.00435253
-0.0078472559
0.0078166536
-0.012438372
0.012337804
-0.017723672
0.017929405
-0.02363866
0.024586513
-0.030115737
0.032281545
-0.037082322
0.040961248
-0.044459297
0.0505454
-0.05216085
0.060927611
-0.060095988
0.071978403
-0.068171411
0.083550434
-0.076295328
0.095485468
-0.084381815
0.10762234
-0.092355161
0.11980489
-0.10015362
0.13188859
-0.10773195
0.143744
-0.11506303
0.15524913
-0.12214093
-0.12891558
0.16630141
0.00056617614
-0.0016074772
0.0022279671
-0.0056789503
0.0050006652
-0.010619954
0.0088941043
-0.016331811
0.0139054
-0.022734968
0.02001208
-0.02974534
0.027166746
-0.037270403
0.035293736
-0.045209313
0.044288235
-0.053453796
0.054018207
-0.061890821
0.06432919
-0.070406971
0.075051626
-0.078893847
0.086010026
-0.087253728
0.097032985
-0.095404774
0.10796292
-0.10328509
0.11866435
-0.11085506
0.12902997
-0.11809757
0.13898319
-0.12501625
0.14847502
-0.13163276
-0.13794636
0.15750581
0.00065089313
-0.0022583704
0.0025243674
-0.0075524246
0.0056036899
-0.013699277
0.0098645594
-0.020592681
0.015264752
-0.028135161
0.021736601
-0.036217189
0.029182724
-0.044716526
0.037475185
-0.053501774
0.046458335
-0.062436945
0.0559552
-0.071387686
0.065776809
-0.08022858
0.075733386
-0.088850424
0.085646068
-0.09716641
0.095357704
-0.10511641
0.10474146
-0.11266884
0.11370636
-0.11981996
0.12219944
-0.12659065
0.13020453
-0.13302134
0.13773786
-0.13916609
-0.14506862
0.14486011
0.00073064296
-0.0029890133
0.0027921123
-0.009613894
0.0061266294
-0.017033794
0.010666804
-0.025132855
0.016322783
-0.03379114
0.022975419
-0.042869825
0.030474645
-0.052215752
0.038642647
-0.061669776
0.047281459
-0.071075757
0.056184012
-0.080290239
0.065147155
-0.089191724
0.073984841
-0.09768811
0.08253968
-0.10572125
0.090691435
-0.11326817
0.098361512
-0.12033892
0.10551327
-0.12697172
0.11214866
-0.13322604
0.11830217
-0.13917485
0.12403329
-0.1448972
-0.15046424
0.1294289
0.00080073835
-0.0037897517
0.0030139416
-0.011827097
0.0065329469
-0.020552799
0.011240137
-0.029840046
0.016992817
-0.03954382
0.023618698
-0.049495706
0.030918395
-0.059515449
0.038673515
-0.069424896
0.046658974
-0.079061216
0.054657587
-0.088288852
0.06247462
-0.097008757
0.069950071
-0.10516356
0.07696702
-0.1127382
0.083455084
-0.11975623
0.089389012
-0.12627285
0.094783127
-0.13236584
0.099683024
-0.13812594
0.10415612
-0.14364795
0.10828263
-0.14902371
-0.15433441
0.1121528
0.00085606564
-0.0046458173
0.0031720847
-0.014143116
0.0067872739
-0.024167988
0.011529878
-0.034582649
0.017203536
-0.045217479
0.023586673
-0.055878843
0.030440014
-0.066368789
0.037519469
-0.076504351
0.044591927
-0.086133674
0.051451104
-0.095148029
0.05793069
-0.10348834
0.063912778
-0.11114565
0.069330579
-0.118156
0.074165552
-0.1245912
0.078440032
-0.13054733
0.082207029
-0.13613283
0.085539108
-0.14145802
0.088518082
-0.14662692
0.091226794
-0.15173243
-0.15685281
0.093745194
0.0008902688
-0.0055360861
0.0032483048
-0.016501152
0.006857664
-0.027777347
0.011492527
-0.039217513
0.016906891
-0.050631843
0.022838988
-0.06181094
0.029023764
-0.072553565
0.035209333
-0.08268992
0.041173985
-0.092098326
0.046740414
-0.10071446
0.051784622
-0.10853255
0.056238311
-0.11559934
0.060084973
-0.12200266
0.063351007
-0.12785724
0.066093897
-0.13329022
0.068389661
-0.1384286
0.070321452
-0.14338981
0.071970688
-0.14827616
0.073411302
-0.15317304
-0.15814839
0.074706879
0.00089982394
-0.0064359101
0.003233399
-0.018834727
0.0067291982
-0.031273147
0.011111225
-0.04359954
0.016092543
-0.055613161
0.021384682
-0.067103079
0.026713934
-0.077882817
0.031839142
-0.087815129
0.036567076
-0.09682626
0.040762215
-0.1049096
0.044349361
-0.1121197
0.047309172
-0.11855915
0.049668161
-0.12436165
0.051485499
-0.12967457
0.052839139
-0.13464386
0.053813363
-0.13940282
0.054489185
-0.14406563
0.054938226
-0.1487252
0.055219886
-0.1534547
0.055380252
-0.15830875
-0.00020238107
0.00020238103
3.4074533e-11
-0.00067775543
0.00047537434
1.7390248e-11
-0.0013424429
0.00066468742
6.9864834e-12
-0.0021323203
0.00078987743
8.4721746e-12
-0.0029958085
0.00086348816
9.2423917e-12
-0.0038907845
0.00089497591
5.7718846e-12
-0.0047823476
0.0008915631
-4.1552108e-13
-0.0056409507
0.00085860313
-8.6759687e-12
-0.0064409295
0.00079997882
-1.669973e-11
-0.0071593516
0.00071842205
-2.4855121e-11
-0.0077750978
0.00061574628
-3.1679631e-11
-0.0082681275
0.00049302969
-3.7860207e-11
-0.0086188982
0.00035077075
-4.277208e-11
-0.0088079328
0.0001890346
-4.6842881e-11
-0.0088155638
7.6310913e-06
-4.9996635e-11
-0.0086219577
-0.00019360605
-5.2204417e-11
-0.0082073783
-0.0004145794
-5.3684605e-11
-0.0075517815
-0.00065559676
-5.4096123e-11
-0.0066344097
-0.00091737169
-5.3699976e-11
-0.0011863004
-0.0054481093
-5.2196717e-11
-0.00018797696
0.00039035799
-0.00062501489
0.00091241227
-0.001228768
0.0012684406
-0.0019352167
0.0014963262
-0.0026921686
0.0016204401
-0.0034563196
0.0016591268
-0.0041911071
0.0016263506
-0.0048649008
0.0015323969
-0.005449565
0.0013846431
-0.0059193233
0.0011881803
-0.0062498431
0.00094626606
-0.0064174939
0.00066068048
-0.0063987425
0.00033201935
-0.0061696738
-4.0034071e-05
-0.0057056659
-0.00045637683
-0.0049813096
-0.0009179624
-0.0039706244
-0.0014252646
-0.0026469793
-0.0019792418
-0.00098294302
-0.002581408
-0.003201947
0.0010327036
-0.0001589297
0.00054928769
-0.00051889705
0.0012723796
-0.00100078
0.0017503236
-0.0015412735
0.0020368197
-0.0020873669
0.0021665334
-0.0025937531
0.0021655131
-0.0030208842
0.0020534817
-0.003333304
0.0018448167
-0.0034983025
0.0015496416
-0.0034848399
0.0011747177
-0.0032626623
0.00072408852
-0.0028015825
0.00019960068
-0.0020708458
-0.00039871743
-0.001038616
-0.0010722638
0.00032845339
-0.0018234462
0.0020654963
-0.0026550053
0.0042093934
-0.0035691618
0.0067984664
-0.0045683148
0.0098724087
-0.0056553503
-0.0067800409
0.013450503
-0.00011756794
0.00066685563
-0.00036700108
0.0015218128
-0.0006735172
0.0020568397
-0.00097482871
0.0023381312
-0.0012168541
0.0024085589
-0.001351588
0.0023002469
-0.0013354432
0.0020373369
-0.0011277962
0.0016371697
-0.00068979094
0.0011116363
1.6613944e-05
0.00046831279
0.0010294289
-0.0002887264
0.0023872803
-0.0011582508
0.0041299563
-0.0021413934
0.0062988874
-0.003241195
0.0089376535
-0.0044622124
0.01209254
-0.0058098918
0.015812913
-0.0072895344
0.020150917
-0.008906319
0.025161265
-0.010665699
-0.012493105
0.03087433
-6.6907658e-05
0.00073376329
-0.00017916559
0.0016340707
-0.00026653004
0.0021442041
-0.00026768195
0.0023392831
-0.00012717514
0.002268052
0.00020620049
0.0019668713
0.00078074754
0.0014627898
0.0016430305
0.00077488677
0.0028388456
-8.4178805e-05
0.0044140065
-0.0011068481
0.0064149078
-0.0022896278
0.0088889418
-0.0036322847
0.011884823
-0.0051372748
0.01545292
-0.0068092915
0.019645625
-0.008654918
0.024517981
-0.010682247
0.030128551
-0.012900105
0.036539936
-0.015317704
0.043819534
-0.017945297
-0.020683248
0.052009677
-9.9836835e-06
0.00074374697
3.4539413e-05
0.0015895476
0.00019990152
0.001978842
0.00054678835
0.0019923963
0.0011322864
0.001682554
0.0020110434
0.0010881143
0.0032362328
0.00023760043
0.0048604363
-0.00084931676
0.0069363018
-0.0021600443
0.0095169174
-0.0036874637
0.01265602
-0.0054287305
0.0164081
-0.0073843648
0.020828328
-0.0095575024
0.025972392
-0.011953355
0.031896401
-0.014578927
0.038657185
-0.017443032
0.046313478
-0.020556397
0.054927977
-0.023932203
0.06457118
-0.0275885
-0.031406541
0.075294473
5.0753135e-05
0.00069299384
0.0002656655
0.0013746352
0.00070827289
0.0015362347
0.0014390654
0.0012616038
0.0025168787
0.00060474074
0.0039996559
-0.00039466298
0.0059450441
-0.0017077877
0.008410783
-0.0033150557
0.011454836
-0.0052040969
0.015135357
-0.0073679849
0.019510426
-0.0098037992
0.024637517
-0.012511456
0.030572767
-0.015492753
0.037370076
-0.018750664
0.04508017
-0.022289022
0.053750062
-0.026112924
0.063423861
-0.030230196
0.074146166
-0.034654508
0.085971007
-0.039413341
-0.044389673
0.098954139
0.00011379892
0.00057919491
0.00050851416
0.00097991999
0.0012460075
0.00079874134
0.0023868242
0.000120787
0.003991317
-0.00099975208
0.0061199908
-0.0025233367
0.0088334834
-0.0044212803
0.012192389
-0.0066739612
0.016256853
-0.0092685607
0.021085826
-0.012196958
0.026736027
-0.015454
0.033260615
-0.019036045
0.040707603
-0.022939741
0.049118051
-0.027161112
0.058524167
-0.031695138
0.068947684
-0.03653644
0.080399678
-0.04168219
0.092883685
-0.047138515
0.1064072
-0.05293686
-0.058997019
0.12101455
0.00017849913
0.00040069578
0.00076004335
0.00039837576
0.00180537
-0.00024658535
0.0033747708
-0.0014486138
0.0055290877
-0.003154069
0.0083294568
-0.0053237059
0.011836684
-0.0079285071
0.01611032
-0.010947598
0.021207384
-0.014365625
0.027180737
-0.018170311
0.034077156
-0.022350419
0.041935133
-0.026894021
0.050782443
-0.031787051
0.060633511
-0.03701218
0.071486559
-0.042548186
0.083320596
-0.048370477
0.096093211
-0.054454806
0.10974192
-0.060787221
0.12419762
-0.067392566
-0.074276082
0.13947669
0.0002451312
0.0010199653
0.0023833769
0.0043939288
0.0071106564
0.010592062
0.01489453
0.020070407
0.026165754
0.033217849
0.04125259
0.050281935
0.060301539
0.071288663
0.083200176
0.095970054
0.10950465
0.12366513
0.13818473
0.15258906
-0.0035073998
-0.0019407095
-6.653384e-11
-0.0012855186
-0.0022218811
-5.7955402e-11
0.0011951997
-0.0024807183
-4.5243718e-11
0.0038778554
-0.0026826557
-2.7915371e-11
0.0067356451
-0.0028577897
-5.194365e-12
0.0097512633
-0.0030156183
2.4000298e-11
0.012905776
-0.0031545128
5.861837e-11
0.016181161
-0.003275385
9.9500051e-11
0.019561717
-0.0033805562
1.4609546e-10
0.023033226
-0.0034715091
1.9748475e-10
0.026582402
-0.003549176
2.5158734e-10
0.03019682
-0.0036144186
3.0644196e-10
0.033864838
-0.0036680187
3.5897343e-10
0.037575461
-0.003710623
4.0620936e-10
0.041318237
-0.0037427766
4.4391911e-10
0.045083196
-0.0037649589
4.6801685e-10
0.048860796
-0.0037776014
4.7322116e-10
0.052641897
-0.0037811008
4.5485354e-10
0.05641773
-0.0037758337
4.0763364e-10
0.060179898
-0.0037621681
3.2780316e-10
0.06392037
-0.003740472
2.1192424e-10
0.067631489
-0.0037111198
5.944371e-11
0.071305986
-0.0036744963
-1.2862302e-10
0.074936985
-0.0036309985
-3.4661441e-10
0.078518021
-0.0035810362
-5.8610785e-10
0.082043053
-0.0035250306
-8.3240433e-10
0.085506466
-0.0034634122
-1.0677233e-09
0.088903085
-0.0033966178
-1.2674422e-09
0.092228174
-0.0033250871
-1.4058132e-09
0.095477434
-0.0032492588
-1.4521935e-09
0.098647003
-0.0031695674
-1.3806368e-09
0.10173344
-0.0030864399
-1.165919e-09
0.10473374
-0.0030002929
-7.9813649e-10
0.10764527
-0.0029115303
-2.7681548e-10
0.11046581
-0.0028205426
3.7013056e-10
0.11319352
-0.0027277064
1.0989344e-09
0.1158269
-0.0026333855
1.8292429e-09
0.11836483
-0.0025379333
2.4713497e-09
0.12080653
-0.0024417004
2.9076183e-09
0.12315156
-0.0023450351
3.0395111e-09
0.12539988
-0.0022483256
2.7759287e-09
0.12755181
-0.0021519255
2.0875023e-09
0.12960833
-0.0020565288
1.0085942e-09
0.13157046
-0.001962126
-3.3115666e-10
0.13344231
-0.0018718505
-1.7314081e-09
0.13522243
-0.0017801118
-2.9376279e-09
0.13693534
-0.0017129119
-3.6515823e-09
0.1385369
-0.0016015493
-3.6624735e-09
0.14022817
-0.0016912728
-2.8954039e-09
-0.0013362622
-3.7214349e-10
0.0028534035
-0.0037614094
0.0049506455
-0.0043191231
0.0072936118
-0.0048236845
0.0098198597
-0.0052089037
0.012508328
-0.0055462583
0.015346693
-0.0058539829
0.018318213
-0.0061260328
0.021406482
-0.0063636544
0.024597483
-0.0065715564
0.027878452
-0.0067524782
0.031237258
-0.0069079825
0.034662421
-0.007039582
0.038143085
-0.0071486825
0.041668904
-0.0072364416
0.04522996
-0.0073038327
0.048816721
-0.0073517201
0.052420009
-0.0073808893
0.05603098
-0.0073920716
0.059641115
-0.0073859688
0.063242222
-0.0073632753
0.066826443
-0.007324693
0.070386265
-0.0072709419
0.073914537
-0.0072027676
0.077404481
-0.0071209434
0.080849716
-0.0070262708
0.084244261
-0.0069195759
0.087582554
-0.006801705
0.090859454
-0.0066735182
0.09407025
-0.0065358826
0.097210655
-0.0063896642
0.10027681
-0.0062357216
0.10326527
-0.0060748989
0.106173
-0.0059080202
0.10899735
-0.005735886
0.11173608
-0.0055592698
0.11438729
-0.0053789185
0.11694946
-0.0051955549
0.11942141
-0.0050098813
0.1218023
-0.0048225959
0.12409166
-0.0046343918
0.12628938
-0.0044460445
0.12839571
-0.0042582597
0.13041161
-0.0040724227
0.132338
-0.0038885183
0.13417893
-0.0037127808
0.13593295
-0.0035341282
0.13762412
-0.0034040878
0.13920934
-0.0031867626
0.14088447
-0.0033664089
-0.0026700687
0.015021929
-0.0053328356
0.016853128
-0.0061503219
0.018906774
-0.0068773306
0.021112938
-0.0074150683
0.023459987
-0.0078933075
0.025944269
-0.0083382644
0.028553165
-0.008734929
0.031273196
-0.0090836856
0.034093263
-0.0093916226
0.037003134
-0.0096623498
0.039992691
-0.0098975396
0.043052074
-0.010098965
0.046171758
-0.010268367
0.049342489
-0.010407173
0.052555238
-0.010516582
0.055801194
-0.010597676
0.059071769
-0.010651464
0.062358601
-0.010678903
0.065653568
-0.010680936
0.068948808
-0.010658515
0.072236732
-0.010612618
0.075510057
-0.010544266
0.078761817
-0.010454528
0.081985395
-0.010344521
0.085174533
-0.010215409
0.088323358
-0.0100684
0.091426386
-0.0099047329
0.094478539
-0.0097256714
0.097475146
-0.0095324901
0.10041195
-0.0093264663
0.10328509
-0.0091088656
0.10609113
-0.0088809347
0.108827
-0.0086438921
0.11149004
-0.0083989217
0.11407794
-0.0081471698
0.11658876
-0.0078897439
0.11902092
-0.0076277173
0.12137318
-0.0073621352
0.12364462
-0.0070940374
0.12583469
-0.0068244589
0.1279432
-0.0065545592
0.12997034
-0.0062853955
0.13191695
-0.0060190381
0.13378392
-0.005755482
0.13557511
-0.0055039792
0.13728919
-0.0052482015
0.13894924
-0.0050641437
0.14051449
-0.0047520105
0.1421702
-0.0050221223
-0.0040121157
0.032057715
-0.0065162209
0.033473013
-0.0075656203
0.035078627
-0.008482944
0.036801579
-0.0091380203
0.038642556
-0.0097342843
0.040607855
-0.010303564
0.042690306
-0.01081738
0.044880387
-0.011273766
0.047170521
-0.011681757
0.04955348
-0.01204531
0.052021559
-0.012365618
0.054566801
-0.012644207
0.057181197
-0.012882762
0.059856704
-0.013082679
0.06258526
-0.013245138
0.065358823
-0.01337124
0.068169413
-0.013462053
0.071009152
-0.013518643
0.073870309
-0.013542094
0.076745335
-0.01353354
0.079626896
-0.013494179
0.082507917
-0.013425286
0.085381602
-0.013328214
0.088241473
-0.013204392
0.091081387
-0.013055323
0.093895559
-0.012882572
0.096678579
-0.012687753
0.099425419
-0.012472512
0.10213145
-0.012238517
0.10479242
-0.011987439
0.10740449
-0.011720937
0.1099642
-0.011440646
0.11246848
-0.011148167
0.11491461
-0.010845055
0.11730026
-0.01053282
0.11962343
-0.010212919
0.12188249
-0.0098867707
0.12407611
-0.009555756
0.12620332
-0.0092212518
0.1282635
-0.0088846326
0.13025638
-0.0085474394
0.13218206
-0.008211082
0.13404133
-0.0078783071
0.13583499
-0.0075491444
0.13756676
-0.0072357405
0.13923544
-0.0069168883
0.14086279
-0.0066914872
0.14241147
-0.0063006947
0.1440515
-0.0066621519
-0.0053783026
0.052650065
-0.0071566087
0.053490751
-0.0084063062
0.054484971
-0.009477164
0.055567038
-0.010220087
0.05675177
-0.010919016
0.058053462
-0.011605255
0.059470624
-0.012234542
0.06099839
-0.012801532
0.062632549
-0.013315916
0.064368505
-0.013781265
0.066200737
-0.01419785
0.068122976
-0.014566446
0.070128459
-0.014888245
0.072210085
-0.015164305
0.074360506
-0.01539556
0.076572213
-0.015582946
0.078837611
-0.015727452
0.081149111
-0.015830142
0.083499182
-0.015892166
0.085880425
-0.015914783
0.088285615
-0.015899369
0.09070775
-0.015847422
0.093140093
-0.015760557
0.095576206
-0.015640504
0.098009975
-0.015489093
0.10043564
-0.015308234
0.10284779
-0.015099909
0.10524142
-0.014866142
0.1076119
-0.01460899
0.10995497
-0.014330508
0.11226678
-0.014032747
0.11454385
-0.013717721
0.1167831
-0.013387412
0.11898178
-0.013043738
0.12113753
-0.012688569
0.12324832
-0.012323713
0.12531248
-0.011950924
0.12732864
-0.011571921
0.1292958
-0.011188416
0.13121329
-0.010802123
0.13308082
-0.010414966
0.13489845
-0.010028711
0.13666692
-0.0096467728
0.13838702
-0.0092692473
0.1400623
-0.0089110209
0.14169188
-0.0085464714
0.14329582
-0.0082954298
0.14484124
-0.0078461081
0.14647922
-0.0083001375
-0.0067918738
0.075223546
-0.0070856811
0.075328599
-0.008511359
0.075553063
-0.0097016282
0.075853456
-0.010520481
0.076257814
-0.011323375
0.07678299
-0.012130431
0.07743202
-0.012883573
0.078204835
-0.013574347
0.079099744
-0.014210825
0.080113599
-0.01479512
0.081242157
-0.015326409
0.082480123
-0.015804412
0.083821314
-0.016229436
0.08525895
-0.016601941
0.086785856
-0.016922466
0.08839458
-0.017191669
0.090077504
-0.017410377
0.091826951
-0.017579589
0.093635279
-0.017700494
0.095494951
-0.017774455
0.097398603
-0.01780302
0.099339093
-0.017787912
0.10130956
-0.01773102
0.10330343
-0.017634378
0.1053145
-0.017500158
0.10733689
-0.017330633
0.10936515
-0.017128164
0.11139418
-0.016895168
0.11341928
-0.016634097
0.11543618
-0.016347409
0.11744099
-0.01603755
0.11943019
-0.015706929
0.12140069
-0.015357909
0.12334974
-0.014992786
0.12527496
-0.01461379
0.12717433
-0.014223086
0.12904618
-0.013822774
0.13088917
-0.013414911
0.13270231
-0.013001554
0.13448495
-0.012584763
0.13623683
-0.012166848
0.13795806
-0.011749941
0.1396494
-0.011338115
0.14131173
-0.010931575
0.14294848
-0.010547767
0.14455919
-0.010157184
0.14616208
-0.0098983202
0.14772942
-0.0094134439
0.14939095
-0.00996167
-0.0082849471
0.098027223
-0.0061587649
0.097260033
-0.0077441693
0.09658383
-0.0090254252
0.095999487
-0.0099361375
0.095543133
-0.010867021
0.095226001
-0.011813299
0.095053459
-0.012711031
0.09502951
-0.013550398
0.095153688
-0.014335002
0.095422728
-0.01506416
0.09583227
-0.015735951
0.096376905
-0.016349048
0.09705015
-0.01690268
0.097844772
-0.017396563
0.098753088
-0.017830782
0.099767129
-0.01820571
0.10087876
-0.018522005
0.10207979
-0.018780624
0.10336211
-0.018982808
0.10471771
-0.019130059
0.10613882
-0.019224133
0.10761793
-0.019267014
0.10914781
-0.019260904
0.11072162
-0.019208187
0.11233287
-0.01911141
0.11397549
-0.018973251
0.11564381
-0.018796485
0.1173326
-0.018583958
0.11903705
-0.018338551
0.1207528
-0.018063152
0.12247588
-0.017760634
0.12420278
-0.017433824
0.12593036
-0.017085488
0.12765589
-0.016718324
0.12937705
-0.016334943
0.13109184
-0.015937881
0.13279867
-0.015529601
0.13449628
-0.015112517
0.13618377
-0.014689044
0.1378606
-0.014261597
0.13952664
-0.01383289
0.14118213
-0.013405433
0.14282798
-0.012983956
0.14446521
-0.012568809
0.14609727
-0.012179823
0.14772424
-0.011784156
0.14936244
-0.011536526
0.15098978
-0.011040781
0.15271345
-0.011685343
-0.0098992842
0.11919097
-0.0043351874
0.11749844
-0.0060516384
0.115859
-0.0073859858
0.11435656
-0.0084336937
0.11302735
-0.0095378115
0.11186888
-0.010654835
0.11088663
-0.011728779
0.11008687
-0.01275064
0.10946902
-0.013717149
0.10902848
-0.014623618
0.10875944
-0.01546691
0.10865524
-0.016244847
0.10870828
-0.016955724
0.10891026
-0.017598542
0.10925245
-0.018172972
0.10972591
-0.018679171
0.11032162
-0.019117709
0.11103056
-0.019489567
0.11184386
-0.019796106
0.11275283
-0.020039035
0.11374908
-0.020220381
0.11482452
-0.020342455
0.11597145
-0.020407833
0.11718257
-0.020419309
0.11845103
-0.020379868
0.11977042
-0.020292644
0.12113483
-0.020160888
0.12253879
-0.019987922
0.12397735
-0.019777106
0.125446
-0.019531809
0.12694074
-0.019255369
0.12845799
-0.018951075
0.12999464
-0.01862214
0.131548
-0.018271689
0.13311581
-0.017902753
0.1346962
-0.017518269
0.13628769
-0.017121089
0.13788919
-0.016714012
0.13949997
-0.016299829
0.14111971
-0.015881342
0.14274851
-0.015461681
0.14438683
-0.015043755
0.14603583
-0.014632954
0.14769684
-0.014229821
0.1493734
-0.013856388
0.15106628
-0.013477031
0.15278995
-0.013260194
0.15452819
-0.012779022
0.15636553
-0.013522683
-0.011686231
0.13689777
-0.0017562688
0.13437986
-0.0035337363
0.13182136
-0.0048274845
0.12946437
-0.006076702
0.1273361
-0.0074095364
0.12541791
-0.0087366511
0.12371265
-0.010023517
0.1222254
-0.011263389
0.12095461
-0.01244636
0.11989451
-0.013563519
0.1190376
-0.014609996
0.11837552
-0.015582771
0.11789929
-0.016479493
0.11759938
-0.017298627
0.11746591
-0.018039509
0.11748889
-0.018702147
0.11765829
-0.019287109
0.11796419
-0.019795473
0.11839688
-0.020228788
0.11894688
-0.020589037
0.11960508
-0.020878584
0.12036276
-0.021100137
0.12121164
-0.021256712
0.12214391
-0.021351579
0.12315227
-0.021388228
0.12422995
-0.021370319
0.12537069
-0.021301635
0.12656881
-0.021186043
0.12781915
-0.021027445
0.12911709
-0.020829746
0.13045853
-0.020596809
0.13183989
-0.020332436
0.13325809
-0.020040336
0.13471051
-0.019724112
0.13619501
-0.019387256
0.13770989
-0.019033146
0.13925387
-0.018665069
0.14082609
-0.018286232
0.14242611
-0.017899845
0.14405389
-0.017509122
0.14570984
-0.017117637
0.14739481
-0.016728725
0.14911031
-0.016348448
0.15085807
-0.015977579
0.15264186
-0.015640186
0.15446323
-0.015298402
0.15633493
-0.015131893
0.15824674
-0.01469083
0.16026093
-0.015536877
-0.013705819
0.15005359
0.00077919937
0.14676469
-0.0002448399
0.14346741
-0.0015302044
0.1404197
-0.0030289878
0.13762488
-0.0046147134
0.13507669
-0.0061884642
0.13277697
-0.0077238025
0.13072582
-0.0092122313
0.12892078
-0.010641322
0.12735666
-0.011999399
0.12602563
-0.013278969
0.12491829
-0.014475432
0.12402447
-0.015585666
0.12333349
-0.016607654
0.12283439
-0.017540407
0.12251605
-0.018383807
0.1223674
-0.019138458
0.12237752
-0.019805598
0.12253577
-0.020387034
0.12283181
-0.020885082
0.12325575
-0.021302519
0.12379813
-0.021642521
0.12445004
-0.021908616
0.12520309
-0.02210463
0.12604949
-0.022234632
0.12698206
-0.022302883
0.1279942
-0.022313781
0.12907996
-0.022271805
0.130234
-0.022181477
0.13145155
-0.022047302
0.13272848
-0.021873742
0.13406122
-0.021665171
0.13544674
-0.021425856
0.13688257
-0.021159937
0.13836673
-0.020871418
0.13989775
-0.020564169
0.14147463
-0.020241949
0.14309683
-0.019908428
0.14476425
-0.019567265
0.14647724
-0.019222119
0.14823665
-0.018877048
0.15004376
-0.018535828
0.15190053
-0.018205224
0.1538092
-0.017886246
0.15577394
-0.017604919
0.15779696
-0.017321424
0.1598899
-0.01722484
0.16204699
-0.016847915
0.1643133
-0.017803188
-0.01602299
0.18891103
0.0053812062
-0.19351303
0.18510108
0.0035651061
0.18170914
0.0018617358
0.17856411
0.00011603907
0.17562866
-0.0016792575
0.17287774
-0.0034375468
0.17029314
-0.0051391999
0.16786586
-0.0067849508
0.16559202
-0.0083674828
0.16346947
-0.0098768467
0.16149634
-0.011305844
0.15967053
-0.012649625
0.1579894
-0.013904534
0.15644966
-0.015067907
0.15504737
-0.016138125
0.15377809
-0.017114522
0.15263688
-0.017997245
0.15161844
-0.018787163
0.15071721
-0.0194858
0.1499274
-0.020095276
0.14924312
-0.020618242
0.14865843
-0.021057824
0.14816737
-0.021417557
0.14776407
-0.021701331
0.14744277
-0.021913327
0.14719784
-0.022057955
0.14702386
-0.022139801
0.14691561
-0.02216356
0.14686812
-0.022133988
0.14687667
-0.022055849
0.1469368
-0.021933871
0.14704434
-0.021772706
0.14719538
-0.021576905
0.14738634
-0.021350891
0.14761388
-0.021098955
0.14787496
-0.020825256
0.14816685
-0.020533837
0.14848708
-0.020228655
0.14883348
-0.019913665
0.14920418
-0.019592822
0.14959764
-0.019270514
0.15001265
-0.018950836
0.15044846
-0.018641029
0.15090456
-0.018342348
0.15138161
-0.018081969
0.15187947
-0.01781929
0.15240273
-0.017748091
0.15294697
-0.017392159
0.15353559
-0.018391809
-0.016619595
0.21685984
0.0087794437
-0.22025808
0.21338605
0.0070388954
0.21017334
0.0050744491
0.20706813
0.0032212491
0.20402164
0.0013672311
0.20106483
-0.00048073794
0.19821459
-0.0022889545
0.19547542
-0.004045782
0.19285323
-0.0057452917
0.19035485
-0.0073784656
0.18798547
-0.0089364734
0.18574851
-0.010412662
0.18364595
-0.011801975
0.1816785
-0.013100453
0.17984562
-0.014305241
0.17814568
-0.015414582
0.17657614
-0.016427706
0.17513368
-0.017344708
0.17381436
-0.018166482
0.17261373
-0.018894639
0.17152693
-0.019531443
0.17054884
-0.020079734
0.16967413
-0.020542854
0.16889739
-0.020924584
0.16821313
-0.021229069
0.16761592
-0.021460749
0.16710041
-0.021624291
0.16666137
-0.021724519
0.16629375
-0.021766362
0.16599268
-0.021754782
0.16575354
-0.021694736
0.16557196
-0.021591124
0.16544381
-0.021448757
0.16536526
-0.021272336
0.16533273
-0.021066431
0.16534296
-0.020835486
0.16539297
-0.020583838
0.16548005
-0.02031574
0.16560183
-0.020035448
0.16575624
-0.019747232
0.16594154
-0.019455813
0.16615635
-0.019165646
0.16639969
-0.018884367
0.16667108
-0.018613742
0.16697042
-0.018381301
0.16729894
-0.018147815
0.16765595
-0.018105104
0.16804971
-0.017785916
0.16846249
-0.018804591
-0.01709752
0.24376862
0.011503309
-0.24649248
0.24091827
0.0098892398
0.23806516
0.0079275641
0.23521829
0.0060681113
0.2323406
0.0042449287
0.22945289
0.0024069718
0.22658639
0.00057754727
0.22376039
-0.0012197855
0.22099082
-0.0029757186
0.2182936
-0.0046812524
0.21568261
-0.006325479
0.21316883
-0.0078988866
0.21076089
-0.0093940305
0.20846533
-0.010804898
0.2062868
-0.012126709
0.20422818
-0.013355957
0.20229081
-0.014490342
0.20047475
-0.015528648
0.19877891
-0.016470642
0.19720126
-0.01731699
0.19573899
-0.018069171
0.19438865
-0.018729391
0.19314629
-0.019300495
0.19200759
-0.019785883
0.19096795
-0.02018943
0.1900226
-0.020515402
0.18916669
-0.020768374
0.18839532
-0.020953158
0.18770369
-0.021074727
0.18708706
-0.021138147
0.18654084
-0.021148522
0.18606065
-0.021110935
0.18564231
-0.021030415
0.18528187
-0.020911898
0.18497566
-0.020760214
0.18472025
-0.02058008
0.18451253
-0.020376115
0.18434966
-0.020152869
0.18422911
-0.019914905
0.1841487
-0.019666816
0.18410654
-0.019413653
0.18410117
-0.019160274
0.18413142
-0.018914618
0.18419691
-0.018679231
0.18429676
-0.018481154
0.18443373
-0.018284782
0.18460146
-0.018272839
0.18482186
-0.018006316
0.18503121
-0.019013939
-0.017434291
0.26927619
0.013536185
-0.27130906
0.26710822
0.012057203
0.26476655
0.01026924
0.26232741
0.0085072477
0.25979876
0.0067735836
0.25719076
0.0050149655
0.25452955
0.0032387577
0.2518393
0.0014704687
0.24914
-0.00027641865
0.24645146
-0.0019927124
0.24379297
-0.0036669896
0.24118167
-0.0052875837
0.23863228
-0.0068446417
0.23615729
-0.0083299137
0.23376701
-0.0097364246
0.23146958
-0.011058534
0.22927121
-0.012291966
0.22717628
-0.013433715
0.22518759
-0.014481954
0.22330654
-0.015435943
0.22153331
-0.016295942
0.21986703
-0.017063113
0.21830597
-0.017739427
0.21684765
-0.018327566
0.21548904
-0.018830824
0.21422666
-0.019253019
0.21305668
-0.019598397
0.21197506
-0.019871541
0.21097763
-0.020077292
0.21006014
-0.020220664
0.2092184
-0.020306779
0.20844827
-0.020340801
0.20774574
-0.020327887
0.20710699
-0.020273146
0.20652839
-0.020181614
0.20600655
-0.020058244
0.20553835
-0.019907914
0.20512094
-0.019735455
0.20475176
-0.019545725
0.20442858
-0.019343644
0.20414952
-0.019134585
0.20391308
-0.018923833
0.20371801
-0.018719558
0.20356406
-0.018525278
0.20344977
-0.018366862
0.20337909
-0.018214103
0.20334087
-0.018234621
0.20336839
-0.018033837
0.20335651
-0.01900205
-0.017607681
0.29298675
0.014867268
-0.29431783
0.29150757
0.013536382
0.28978514
0.011991666
0.28788658
0.010405809
0.28584675
0.0088134163
0.28367646
0.0071852534
0.28139413
0.005521089
0.279023
0.0038416001
0.27658437
0.0021622098
0.2740984
0.00049325105
0.27158531
-0.0011538924
0.2690648
-0.0027670781
0.26655521
-0.004335052
0.26407313
-0.0058478322
0.2616333
-0.0072965916
0.25924848
-0.0086737153
0.25692943
-0.0099729223
0.25468499
-0.011189267
0.25252212
-0.012319083
0.2504461
-0.013359927
0.24846066
-0.014310502
0.24656813
-0.015170581
0.24476961
-0.015940907
0.24306514
-0.016623099
0.24145387
-0.017219548
0.23993416
-0.017733317
0.23850381
-0.018168041
0.23716009
-0.018527823
0.23589994
-0.018817142
0.23472004
-0.019040761
0.2336169
-0.019203647
0.232587
-0.019310895
0.23162678
-0.019367668
0.23073278
-0.019379146
0.22990165
-0.019350489
0.22913023
-0.019286822
0.22841555
-0.019193234
0.2277549
-0.0190748
0.22714582
-0.018936654
0.2265862
-0.018784024
0.22607421
-0.018622594
0.22560846
-0.018458079
0.22518772
-0.018298823
0.22481188
-0.018149436
0.22447913
-0.018034105
0.22419425
-0.017929228
0.22394243
-0.017982804
0.22376532