/*--------------------------------*- C++ -*----------------------------------*\
  =========                 |
  \\      /  F ield         | OpenFOAM: The Open Source CFD Toolbox
   \\    /   O peration     | Website:  https://openfoam.org
    \\  /    A nd           | Version:  6
     \\/     M anipulation  |
\*---------------------------------------------------------------------------*/
FoamFile
{
    version     2.0;
    format      ascii;
    class       volVectorField;
    location    "126";
    object      U_0;
}
// * * * * * * * * * * * * * * * * * * * * * * * * * * * * * * * * * * * * * //

dimensions      [0 1 -1 0 0 0 0];

internalField   nonuniform List<vector> 
9200
(
(0.001039437 0.0014199342 -5.9202552e-20)
(0.013676463 -0.0020585762 4.6043166e-20)
(0.038314026 -0.0058669353 -3.8502241e-20)
(0.072275886 -0.0097640324 -6.0258502e-20)
(0.11376689 -0.01349072 1.8827237e-20)
(0.16158381 -0.016606515 3.2744318e-20)
(0.21467526 -0.018818309 -1.2268199e-20)
(0.27207076 -0.019975083 9.2690097e-21)
(0.33286185 -0.020012585 1.6803626e-20)
(0.39617005 -0.018930587 1.4848274e-21)
(0.46112306 -0.016781531 -2.1456655e-20)
(0.52684527 -0.013659634 2.0670324e-20)
(0.59245991 -0.0096900989 -4.0422735e-20)
(0.65710127 -0.0050180892 -2.1134265e-20)
(0.71993529 0.00020302038 5.9047483e-21)
(0.78018608 0.0058213072 -2.5132165e-20)
(0.83718199 0.011709757 2.5217666e-20)
(0.89048034 0.017915166 2.2243928e-20)
(0.9396823 0.024569754 -2.9915519e-22)
(0.98206335 0.028289435 -1.6690069e-21)
(0.005252335 -0.0013463564 -1.7059555e-20)
(0.026963088 -0.0089893231 3.9748221e-20)
(0.061671297 -0.014810247 2.3576599e-20)
(0.10629679 -0.019172924 -1.1569893e-19)
(0.15873837 -0.022214815 -1.2727258e-20)
(0.21753713 -0.023721662 7.3297914e-20)
(0.28137752 -0.023596225 -3.547684e-20)
(0.34901155 -0.021870244 -8.3906593e-21)
(0.41924572 -0.018646954 3.4287994e-20)
(0.4909169 -0.014082427 -4.3260193e-20)
(0.56288067 -0.0083777016 -3.0338968e-20)
(0.63401761 -0.0017685228 7.1922711e-20)
(0.70325312 0.0054862715 3.8294716e-20)
(0.76958618 0.013116295 -6.7977903e-20)
(0.83212321 0.020849507 1.4624027e-20)
(0.89011135 0.028416869 -3.6734231e-20)
(0.9429802 0.035566554 -1.3777438e-20)
(0.99044323 0.042137461 7.0976742e-20)
(1.0323667 0.047711566 2.9643176e-20)
(1.0669451 0.049135665 -8.3479602e-20)
(0.010858658 -0.0040425297 3.6773854e-20)
(0.043954224 -0.015431444 2.5047598e-21)
(0.090516981 -0.022552852 2.2342e-20)
(0.14711379 -0.026498099 9.8117895e-22)
(0.21134588 -0.027887192 -4.0774476e-20)
(0.281472 -0.026796148 1.8576591e-20)
(0.35587574 -0.023383892 1.3420475e-20)
(0.43299642 -0.017922828 -5.0328342e-20)
(0.51133208 -0.010737072 5.726264e-20)
(0.58943433 -0.0021854427 1.4256949e-20)
(0.66591813 0.0073461871 -5.4301654e-20)
(0.73948997 0.017458368 -1.8237802e-20)
(0.80898607 0.027754465 9.0591024e-21)
(0.87341305 0.037856944 2.3445256e-20)
(0.93198416 0.047421457 -1.1362817e-20)
(0.98414418 0.056146102 2.7878373e-20)
(1.0295843 0.063785996 -2.0188667e-20)
(1.0682745 0.07020089 -7.0125436e-20)
(1.1003417 0.075115544 -2.3796996e-20)
(1.1249203 0.076637105 4.8660698e-20)
(0.017957536 -0.0064223005 2.4508259e-20)
(0.064778059 -0.020695215 5.1039774e-20)
(0.12485423 -0.028061465 1.9881901e-20)
(0.19447258 -0.030464841 1.29902e-20)
(0.27095328 -0.029095747 1.7275871e-20)
(0.35225382 -0.024389997 -4.7720709e-20)
(0.43643746 -0.016827094 -2.564717e-20)
(0.52162714 -0.0069778955 0)
(0.60603692 0.0045656929 1.3920965e-20)
(0.6879958 0.01721026 -5.8525701e-21)
(0.76598453 0.030372292 -9.7936613e-20)
(0.83868426 0.043497814 -1.5774998e-20)
(0.90502531 0.056084576 6.5104643e-20)
(0.96422582 0.067701839 4.8425486e-22)
(1.0158135 0.078005134 -1.572593e-21)
(1.0596253 0.086743902 2.1958016e-20)
(1.0957867 0.09376901 -5.2648883e-21)
(1.1246889 0.099061778 -6.1031204e-20)
(1.1468731 0.10259319 -4.5852457e-20)
(1.1623036 0.10340965 6.9521844e-20)
(0.026579843 -0.0082058385 -3.9194447e-21)
(0.089345358 -0.024033939 -5.1256718e-21)
(0.1643099 -0.030265608 5.6599967e-20)
(0.24758466 -0.029810768 1.85395e-20)
(0.33624618 -0.024513874 -3.1955407e-20)
(0.42795693 -0.015240787 1.2163967e-20)
(0.52047933 -0.0028523658 2.6403205e-21)
(0.61167122 0.011736007 3.3609696e-20)
(0.69955554 0.027638948 5.660042e-21)
(0.78237742 0.044027438 -1.3205058e-20)
(0.85866353 0.06014622 6.0155389e-20)
(0.92727881 0.075338753 -5.8010359e-20)
(0.9874665 0.089070892 -1.3216887e-19)
(1.0388627 0.10094676 -5.5774255e-21)
(1.0814818 0.11071452 8.3152703e-20)
(1.1156745 0.11826115 0)
(1.1420633 0.12360259 1.0119164e-20)
(1.1614748 0.12688699 -1.5460136e-20)
(1.1748253 0.12829481 -8.5996749e-21)
(1.1826742 0.12744496 2.0992658e-20)
(0.03666744 -0.0090897307 -5.430919e-21)
(0.11731673 -0.024685773 4.3579148e-21)
(0.20812147 -0.028140747 -8.7630646e-21)
(0.305161 -0.023415613 2.8472664e-20)
(0.40534054 -0.013076309 -2.9392994e-20)
(0.50607772 0.00152185 -1.692723e-20)
(0.60491213 0.019094321 3.7364591e-20)
(0.69955765 0.038364359 4.7595654e-21)
(0.78801262 0.058166638 -2.4436622e-20)
(0.86864318 0.077481842 6.9868785e-20)
(0.94024909 0.095457279 5.2378638e-22)
(1.002105 0.11142995 -8.0446062e-20)
(1.0539661 0.12494101 0)
(1.0960363 0.13573529 3.9543057e-20)
(1.1289007 0.14374589 5.5237408e-21)
(1.1534359 0.14906605 -7.7568115e-20)
(1.1707067 0.15191592 -1.958735e-20)
(1.1818694 0.15262014 -1.2467906e-20)
(1.1880658 0.15152222 -1.4709722e-20)
(1.1901522 0.14858082 4.0421387e-20)
(0.048059513 -0.0087675423 -1.7278073e-20)
(0.14808501 -0.021932353 -2.219929e-21)
(0.2551439 -0.020798298 3.0380742e-20)
(0.3654683 -0.010413298 3.7484594e-20)
(0.47590985 0.0059010649 -1.9944937e-20)
(0.58374936 0.026268764 -6.9163921e-20)
(0.68644945 0.048976624 -2.799626e-20)
(0.78177032 0.072417123 7.8930417e-20)
(0.86791072 0.095211681 8.57807e-21)
(0.94359818 0.11624863 -2.487385e-20)
(1.0081349 0.13469705 1.3642331e-20)
(1.061396 0.15001405 -4.319588e-21)
(1.1037779 0.16193477 0)
(1.1361057 0.17044212 2.720403e-20)
(1.1595124 0.17572059 -7.9324035e-20)
(1.1753094 0.17810086 -3.1476174e-20)
(1.1848638 0.17800498 8.1056247e-20)
(1.1894985 0.17590601 -4.2971102e-21)
(1.1904089 0.17225188 3.556169e-21)
(1.1885136 0.16718904 2.7112186e-20)
(0.060486007 -0.0069574715 -3.2414822e-20)
(0.18077991 -0.015170646 -8.1625029e-20)
(0.30389286 -0.0075838321 2.5796866e-21)
(0.42643043 0.0097030626 7.016254e-20)
(0.54535753 0.032631279 6.2425079e-20)
(0.65798804 0.058819768 -7.1575287e-20)
(0.76191663 0.08617619 -2.8262661e-22)
(0.85519126 0.11285189 8.5524015e-20)
(0.93646212 0.1373778 4.8828871e-20)
(1.0050502 0.1586929 -5.4219423e-20)
(1.0609442 0.17613455 -9.2335925e-20)
(1.1047326 0.18941215 -3.159042e-21)
(1.1374839 0.19855771 4.2128665e-20)
(1.1605949 0.20385649 -6.6057599e-21)
(1.1756319 0.20576778 -1.2869026e-20)
(1.1841843 0.20484646 1.9691154e-20)
(1.187749 0.20167595 4.3881468e-20)
(1.1876512 0.1968226 -4.3860255e-20)
(1.1850009 0.19077533 -1.0232407e-19)
(1.1806302 0.18377008 2.4567454e-20)
(0.073538078 -0.0034330355 -3.498007e-20)
(0.2142293 -0.0039891578 -1.7388724e-19)
(0.35252046 0.011839276 8.2104148e-20)
(0.48563318 0.037018302 9.276851e-20)
(0.61086012 0.066835567 5.7971201e-20)
(0.72577448 0.098481201 8.6108306e-21)
(0.82835589 0.12959692 -1.0624157e-19)
(0.91719823 0.15824253 0)
(0.99163585 0.18302778 -6.8749875e-20)
(1.0517604 0.20311144 -1.5202721e-20)
(1.0983465 0.21814766 5.470444e-20)
(1.1327086 0.22820954 1.0973586e-20)
(1.1565184 0.23369097 -4.5614672e-20)
(1.1716137 0.2351975 -4.9082225e-20)
(1.1798269 0.23344106 2.4288146e-20)
(1.1828512 0.22915065 4.4823752e-20)
(1.1821546 0.22300701 -5.5601463e-20)
(1.1789415 0.21560515 -1.0751322e-19)
(1.174152 0.20741897 -3.1513587e-21)
(1.1684616 0.19871536 2.7046902e-20)
(0.086651402 0.0019613845 -3.5450032e-21)
(0.24696282 0.011816668 8.7913987e-20)
(0.39885153 0.037492454 -1.6478947e-20)
(0.54041008 0.071218641 -8.4310248e-20)
(0.6695055 0.10778926 4.5164944e-20)
(0.78422679 0.14411577 4.9175953e-20)
(0.88319718 0.17775694 5.5357642e-21)
(0.96578673 0.20688499 -9.9504027e-20)
(1.0321843 0.23038787 -2.5049199e-21)
(1.0833407 0.24781507 5.0504423e-20)
(1.1208146 0.25926221 5.985581e-21)
(1.146563 0.26523504 -1.9717559e-20)
(1.1627176 0.26650383 -7.5705925e-20)
(1.1713829 0.26396439 -6.2554835e-21)
(1.1744823 0.25852216 4.3534083e-20)
(1.1736605 0.25100849 3.7022629e-20)
(1.1702437 0.24213132 1.9793726e-20)
(1.1652454 0.23245592 -5.2995926e-20)
(1.1594063 0.22240117 1.2957487e-20)
(1.1532298 0.21223483 8.2660491e-20)
(-0.0012932801 0.0014346798 -1.1234664e-21)
(-0.0047460265 0.0031874574 2.0647213e-21)
(-0.010771503 0.0041359565 8.7948377e-22)
(-0.017754516 0.0045395901 -2.4410568e-21)
(-0.024740625 0.004565467 -1.4115443e-21)
(-0.031299966 0.0043260816 1.546107e-21)
(-0.037161752 0.0039035713 -6.8702428e-21)
(-0.0421479 0.0033577432 -5.9574989e-21)
(-0.046158248 0.0027313897 1.1172271e-20)
(-0.049146655 0.002054825 -9.7429864e-21)
(-0.051101092 0.0013492797 -1.9834127e-22)
(-0.052030832 0.00062938524 3.6674325e-21)
(-0.051958055 -9.4943093e-05 -6.329719e-22)
(-0.050912105 -0.00081700193 2.281934e-20)
(-0.048925883 -0.0015319353 3.0401475e-22)
(-0.046035304 -0.0022352847 -4.0884002e-20)
(-0.042281592 -0.0029224001 7.5387876e-21)
(-0.037703042 -0.0035911932 2.3864801e-20)
(-0.03230807 -0.0042401651 -4.3853687e-20)
(-0.026156086 -0.0048213157 -2.7740056e-20)
(-0.0016522227 0.0041809247 -5.3716811e-21)
(-0.0053975524 0.0092682602 1.0865553e-20)
(-0.01121865 0.012007593 -1.0191657e-20)
(-0.017658237 0.013153917 3.9230766e-21)
(-0.023856704 0.013195555 4.8122852e-21)
(-0.029433633 0.012462843 7.1326096e-22)
(-0.034152661 0.011197103 -2.2510061e-20)
(-0.037860723 0.0095739506 -2.0370623e-21)
(-0.040474625 0.0077190016 2.0163998e-20)
(-0.041959207 0.0057212021 -5.0474777e-21)
(-0.042309168 0.0036427908 -2.1763105e-20)
(-0.041537463 0.0015265907 4.8974353e-21)
(-0.03966772 -0.00059847843 2.2635966e-20)
(-0.036728942 -0.0027129879 1.0308653e-20)
(-0.03275172 -0.0048029733 2.1854874e-20)
(-0.027768652 -0.0068558534 -1.977126e-20)
(-0.021824041 -0.0088586289 -2.1673534e-20)
(-0.014965248 -0.010804702 2.1185253e-20)
(-0.0071276916 -0.01267955 2.6811138e-20)
(0.0018759699 -0.014317844 1.5855194e-20)
(-0.002303459 0.0065603218 -4.3569374e-21)
(-0.0065393026 0.01448038 -5.6387979e-21)
(-0.011892263 0.018710767 3.072344e-22)
(-0.017211273 0.020428407 1.0959484e-21)
(-0.02181934 0.020400529 6.6919538e-21)
(-0.025431241 0.019151833 1.0665347e-20)
(-0.027877408 0.017066404 -3.7228454e-21)
(-0.029053394 0.01442384 -1.8896537e-20)
(-0.028909082 0.011424343 6.5414556e-21)
(-0.027430986 0.0082098247 1.2862852e-20)
(-0.024627509 0.0048796196 5.8342277e-21)
(-0.02051973 0.0015020015 1.8159507e-20)
(-0.0151354 -0.0018771858 1.7296324e-21)
(-0.0085045696 -0.0052276605 -3.3865327e-20)
(-0.00065578418 -0.0085281184 1.2020753e-21)
(0.0083824434 -0.011759719 -2.2139712e-20)
(0.018558651 -0.014904813 -2.446699e-20)
(0.029804362 -0.017954583 4.5820998e-20)
(0.042307588 -0.020856067 2.5350107e-20)
(0.056741707 -0.023248833 1.2245433e-22)
(-0.0031290652 0.0083690783 -5.2833994e-21)
(-0.007896483 0.018336733 -8.4817624e-21)
(-0.012439098 0.023588072 4.3593639e-21)
(-0.016026649 0.02560992 4.1464186e-21)
(-0.018235111 0.025382973 2.0105998e-21)
(-0.018912679 0.023589493 7.3211452e-21)
(-0.017984651 0.020730373 9.3126613e-21)
(-0.015416515 0.017170394 -1.351165e-21)
(-0.011206688 0.013171238 -1.1482175e-20)
(-0.0053746702 0.0089187558 -2.9072472e-20)
(0.0020489178 0.0045431549 6.1902758e-23)
(0.011027599 0.00013391588 4.0698685e-20)
(0.021523642 -0.0042494652 -1.8383543e-20)
(0.033499638 -0.0085682249 -1.2296363e-20)
(0.046922714 -0.012796319 5.5346501e-22)
(0.06176276 -0.016912769 3.2303431e-20)
(0.077956187 -0.020902732 -1.4829981e-20)
(0.095395994 -0.024764596 -5.3340507e-20)
(0.11440279 -0.028381104 4.5766152e-20)
(0.13635042 -0.031074641 3.3014019e-20)
(-0.0039704528 0.0094658464 -6.8788299e-22)
(-0.0090917398 0.020488017 -1.2534932e-20)
(-0.012364547 0.02615935 -3.4145152e-20)
(-0.013552567 0.028143588 -5.7242899e-21)
(-0.012533174 0.027555207 -3.6223103e-21)
(-0.0093165238 0.025188189 6.3052186e-21)
(-0.0039452647 0.021627443 -4.6462835e-21)
(0.0035267328 0.017298884 -8.8071821e-21)
(0.013037696 0.012508558 2.1900101e-20)
(0.024522434 0.0074741212 5.0567857e-21)
(0.037917097 0.0023484469 -2.5290816e-20)
(0.053159419 -0.0027633847 1.1078478e-20)
(0.070189306 -0.0077916262 0)
(0.088949536 -0.012692214 1.2089825e-20)
(0.10938896 -0.017437997 -9.7018241e-21)
(0.13146155 -0.02201115 -1.4337456e-20)
(0.15507888 -0.026410085 -1.5738302e-21)
(0.18007312 -0.030661057 -2.2182462e-21)
(0.2068597 -0.034578378 4.6148027e-20)
(0.23767073 -0.037021913 -1.0470518e-20)
(-0.004645142 0.009780969 -7.5357713e-21)
(-0.0096773164 0.02074808 2.4516812e-20)
(-0.011064397 0.026161197 -1.0499542e-20)
(-0.0090967381 0.027724634 -2.7469732e-20)
(-0.0039794581 0.026601816 -2.7548569e-20)
(0.0040966695 0.023648434 -1.4921813e-20)
(0.014954915 0.019496368 -6.9060589e-22)
(0.028437335 0.014604485 5.5500609e-21)
(0.044404635 0.0093030841 1.9616184e-20)
(0.062732428 0.0038279002 7.3532088e-21)
(0.083306745 -0.0016554323 -7.186337e-21)
(0.10602196 -0.0070330863 -2.0102394e-21)
(0.13077716 -0.012230124 -3.8192421e-20)
(0.15747369 -0.017200966 -1.2693886e-20)
(0.18601696 -0.021921143 1.8751031e-20)
(0.21631749 -0.02638133 -2.1022143e-20)
(0.24823875 -0.03060405 -8.9732493e-21)
(0.28152603 -0.034672659 3.0441034e-20)
(0.31661526 -0.03836711 5.0473077e-20)
(0.35665932 -0.039966626 3.3560481e-21)
(-0.0049618062 0.0093140864 1.6783521e-20)
(-0.009166299 0.019097856 1.4468129e-20)
(-0.0078592913 0.023563506 5.1146262e-20)
(-0.0018582827 0.024329029 2.3388359e-20)
(0.0082962347 0.022523779 1.8252069e-22)
(0.022222774 0.019014263 -3.9389062e-20)
(0.039598665 0.014440679 -2.4314242e-20)
(0.060149578 0.0092659511 1.0465966e-20)
(0.083641303 0.0038226566 1.4401804e-20)
(0.10986945 -0.0016520443 -1.3113886e-20)
(0.13864902 -0.0069919374 -4.4039441e-20)
(0.16980578 -0.012083966 2.9619004e-20)
(0.20316886 -0.016855477 2.0020866e-20)
(0.23856506 -0.021265521 -2.7551645e-20)
(0.27581873 -0.025298144 1.1650367e-20)
(0.31475539 -0.028959131 2.4198068e-20)
(0.35515362 -0.032305246 8.0725708e-21)
(0.39664293 -0.035509111 -1.1764495e-20)
(0.43958695 -0.038395332 -1.4190503e-20)
(0.48799595 -0.038637351 5.8731053e-21)
(-0.0047307987 0.008123733 1.1094004e-20)
(-0.0070585698 0.015671247 -2.3353115e-20)
(-0.0020291652 0.018562062 8.6201397e-21)
(0.0090329877 0.018216172 3.3588483e-20)
(0.02525718 0.015650984 5.2125113e-20)
(0.046067587 0.0116953 2.0276806e-20)
(0.070986276 0.0069604955 -5.8640327e-21)
(0.099604275 0.0018823272 -1.2286442e-20)
(0.13157191 -0.0032280003 -6.2058574e-21)
(0.16657934 -0.0081506469 3.4241346e-20)
(0.20433866 -0.012734505 -4.510548e-21)
(0.24457007 -0.016880575 -1.6643586e-20)
(0.28699076 -0.020530285 -1.9693868e-20)
(0.33130691 -0.023658228 -4.7444549e-20)
(0.37721241 -0.026267574 2.3239104e-20)
(0.42439641 -0.028390134 -1.4096248e-20)
(0.47250933 -0.030130129 2.5993936e-20)
(0.52104662 -0.031785941 2.1041242e-20)
(0.57022518 -0.033353686 -8.557171e-20)
(0.62472115 -0.03206212 -1.0799496e-22)
(-0.0037710486 0.0063146653 2.192534e-20)
(-0.0028656469 0.010735077 -2.6165933e-20)
(0.0071424757 0.011564037 -4.5013927e-20)
(0.024450966 0.0099247786 -2.7254174e-20)
(0.047872041 0.006651959 -2.0440153e-21)
(0.076630438 0.0024901167 1.3050245e-20)
(0.11007909 -0.0020160621 -2.8337847e-21)
(0.14765511 -0.0064887473 1.8118772e-20)
(0.18886477 -0.010664531 8.8686629e-21)
(0.23325657 -0.014363641 -1.1380326e-20)
(0.28039697 -0.017470367 8.8780854e-21)
(0.32985239 -0.019918428 -2.3903626e-20)
(0.38117607 -0.021680532 8.0506431e-21)
(0.43389901 -0.022761928 1.6756679e-20)
(0.4875284 -0.023196581 -2.6395578e-21)
(0.54155705 -0.023049405 1.6619206e-21)
(0.59544613 -0.022472199 -3.1955695e-22)
(0.64852921 -0.021873101 1.9590793e-20)
(0.70083437 -0.021448311 4.0434721e-21)
(0.75746396 -0.018502605 -5.7373613e-22)
(-0.0019109739 0.0040273374 2.3692445e-20)
(0.0038696696 0.0046764062 5.71608e-20)
(0.020315898 0.0031877293 -4.9244895e-20)
(0.045179341 0.00029405292 -9.9455493e-21)
(0.07696678 -0.0034246782 2.0256595e-20)
(0.11469852 -0.0073542758 2.1433988e-21)
(0.15754186 -0.011055817 -2.9815533e-20)
(0.20475215 -0.014245176 6.9848789e-21)
(0.25565419 -0.016739146 7.1099096e-21)
(0.30961032 -0.018428361 -2.6254451e-20)
(0.36599299 -0.019261693 1.2927583e-21)
(0.42416702 -0.01923366 -3.7174683e-20)
(0.48347935 -0.018374202 -3.634161e-20)
(0.54325484 -0.016740491 6.5684638e-20)
(0.6027981 -0.014409743 5.5628557e-21)
(0.66139954 -0.011478577 -1.5189152e-20)
(0.71831914 -0.0081049738 1.9364322e-20)
(0.77271078 -0.0045960539 -9.1889863e-22)
(0.82410046 -0.00097150892 2.0364758e-20)
(0.87623195 0.0043243174 -1.955474e-20)
(-0.018835231 -0.0050999212 5.8353906e-20)
(-0.010223089 -0.0056351682 1.5784143e-20)
(-0.00021918913 -0.0060691442 -3.5140685e-20)
(0.010825727 -0.0063343936 1.679084e-20)
(0.022645515 -0.0065123495 0)
(0.035181537 -0.0066304107 0)
(0.048373976 -0.0066913116 -2.2975799e-20)
(0.062143114 -0.0067028948 -1.6503483e-20)
(0.076418541 -0.0066745454 1.9123386e-20)
(0.091140751 -0.0066130523 1.8174787e-20)
(0.10625477 -0.0065236073 1.0524563e-21)
(0.12170881 -0.0064107739 -1.031805e-20)
(0.13745455 -0.0062785109 8.3273104e-21)
(0.15344679 -0.0061301656 1.8234483e-20)
(0.16964278 -0.0059686014 -5.2277439e-21)
(0.18600185 -0.0057963037 -1.0175372e-20)
(0.20248527 -0.0056154439 -4.3197739e-21)
(0.21905601 -0.0054279309 -4.4258885e-21)
(0.23567866 -0.005235457 7.366879e-22)
(0.25231934 -0.0050395327 1.2286749e-21)
(0.26894572 -0.004841513 2.5668357e-21)
(0.28552704 -0.004642618 6.6543447e-21)
(0.30203412 -0.0044439469 2.4886087e-22)
(0.31843941 -0.0042464894 -3.4517173e-21)
(0.33471711 -0.0040511331 1.5557492e-22)
(0.35084313 -0.00385867 -5.7714594e-22)
(0.36679525 -0.0036698001 1.2435498e-21)
(0.38255307 -0.0034851361 1.0523009e-21)
(0.39809809 -0.0033052067 -1.299035e-21)
(0.4134137 -0.0031304603 -1.2217672e-22)
(0.42848521 -0.0029612691 3.5612648e-23)
(0.44329978 -0.0027979334 -3.5193597e-22)
(0.45784645 -0.0026406866 -4.0580568e-22)
(0.47211607 -0.0024897001 5.5516769e-23)
(0.48610126 -0.0023450894 -1.3812999e-22)
(0.49979636 -0.0022069205 -2.2348937e-22)
(0.51319742 -0.0020752155 2.5580426e-22)
(0.52630215 -0.0019499606 2.9513782e-22)
(0.5391098 -0.0018311143 -8.3526129e-24)
(0.55162157 -0.0017186117 -1.5538113e-22)
(0.56383952 -0.0016123924 3.0405033e-23)
(0.57577033 -0.0015123568 -4.0168806e-23)
(0.58741427 -0.0014185775 9.2374646e-23)
(0.5988006 -0.0013307182 2.1940689e-23)
(0.60988354 -0.001250068 -1.1442456e-22)
(0.62085615 -0.0011734103 -6.8010844e-24)
(0.63123871 -0.0011130047 -5.1179325e-26)
(0.64254843 -0.0010358339 -3.6254444e-24)
(0.65063809 -0.0010529265 2.9435448e-23)
(0.66726267 -0.00087797297 3.6108803e-22)
(0.010447921 -0.015018277 -1.2747279e-20)
(0.018182139 -0.016641748 -6.3304295e-20)
(0.027782116 -0.017916218 -3.0543015e-20)
(0.03838856 -0.018672934 3.8477347e-20)
(0.049624966 -0.019184506 1.4663138e-20)
(0.061511223 -0.019530403 -1.8205667e-20)
(0.074018087 -0.019710888 4.6724741e-21)
(0.087068667 -0.019747564 2.5448141e-20)
(0.10059993 -0.019668401 9.1903222e-23)
(0.11456165 -0.019492865 -7.6594785e-21)
(0.12890573 -0.019235569 -1.3021405e-20)
(0.14358556 -0.018909563 -8.5249813e-21)
(0.15855724 -0.018526265 1.7773082e-20)
(0.17377928 -0.018095333 8.9302398e-21)
(0.18921193 -0.01762505 -1.6523004e-20)
(0.20481699 -0.017122641 -6.039328e-21)
(0.22055775 -0.016594444 3.214603e-21)
(0.23639883 -0.016046055 8.3719408e-21)
(0.25230617 -0.015482455 6.9836203e-21)
(0.26824704 -0.014908103 -6.9732662e-21)
(0.28419002 -0.014327015 -3.1689609e-21)
(0.30010508 -0.013742817 1.3608374e-21)
(0.31596365 -0.013158784 3.8713587e-22)
(0.33173869 -0.012577872 1.2115557e-21)
(0.34740474 -0.012002738 1.8376789e-22)
(0.36293803 -0.011435755 -3.2671708e-22)
(0.37831651 -0.010879028 -7.2448821e-22)
(0.3935199 -0.0103344 9.7187238e-22)
(0.40852974 -0.0098034671 8.2505912e-22)
(0.4233294 -0.009287585 -1.5170954e-22)
(0.43790406 -0.0087878831 5.532798e-22)
(0.45224077 -0.0083052768 -2.3884995e-22)
(0.46632834 -0.0078404814 -3.7091356e-22)
(0.48015736 -0.0073940281 -6.1026267e-22)
(0.49372015 -0.0069662807 4.4184412e-22)
(0.50701073 -0.0065574542 -1.5728356e-23)
(0.52002475 -0.0061676342 1.6151404e-22)
(0.53275951 -0.0057967971 -4.4216737e-22)
(0.54521384 -0.0054448373 3.7247266e-22)
(0.55738849 -0.0051115783 6.7232791e-23)
(0.56928501 -0.0047968573 -1.02865e-22)
(0.58090962 -0.0045003923 1.7656259e-22)
(0.59226213 -0.0042224168 2.3407018e-22)
(0.60337106 -0.003961941 1.6986921e-22)
(0.61419079 -0.0037228268 1.6843076e-22)
(0.62491153 -0.0034954963 -2.6242715e-23)
(0.63505995 -0.0033164865 8.4795076e-23)
(0.64613028 -0.0030875207 7.7046517e-23)
(0.6540404 -0.0031387147 -1.9574498e-22)
(0.67034587 -0.0026196645 -3.7897688e-23)
(0.067618306 -0.024030287 9.4531507e-21)
(0.073593692 -0.026750297 3.2952754e-21)
(0.082270012 -0.028806924 -1.2162798e-20)
(0.091952867 -0.02996995 -1.2259175e-21)
(0.10198884 -0.030769395 1.4971206e-20)
(0.11255259 -0.031332507 -1.4887667e-20)
(0.1236829 -0.031637768 -2.9843495e-20)
(0.13530449 -0.031714782 1.4494187e-20)
(0.14736542 -0.031609487 1.8182796e-20)
(0.15983274 -0.03135198 -1.1599057e-20)
(0.17267082 -0.030963815 1.0190983e-21)
(0.18584202 -0.030464817 8.6861926e-21)
(0.19931009 -0.029872682 -1.5254343e-20)
(0.21303994 -0.029202434 2.9100821e-21)
(0.22699699 -0.028467019 7.5199142e-21)
(0.24114724 -0.027677826 3.1266292e-23)
(0.25545734 -0.026844942 2.653558e-22)
(0.2698947 -0.025977343 -7.4156502e-21)
(0.28442749 -0.025083074 3.8623474e-21)
(0.29902481 -0.024169393 8.475622e-21)
(0.3136567 -0.023242874 -3.8355124e-21)
(0.32829435 -0.022309483 -2.2131778e-21)
(0.34291013 -0.021374637 1.0124046e-21)
(0.35747774 -0.020443244 -1.7157734e-21)
(0.3719723 -0.019519732 1.3533289e-21)
(0.38637043 -0.018608071 7.1851955e-22)
(0.40065033 -0.017711793 1.5274421e-21)
(0.41479186 -0.016834002 -1.9533173e-21)
(0.42877654 -0.015977397 2.2243813e-21)
(0.44258761 -0.01514428 5.520741e-22)
(0.45621006 -0.014336581 4.0371892e-22)
(0.46963057 -0.013555876 3.2139918e-22)
(0.48283755 -0.012803411 8.7385342e-22)
(0.49582107 -0.012080126 -1.3718327e-21)
(0.50857289 -0.011386682 3.7098132e-22)
(0.52108634 -0.010723497 1.0975759e-22)
(0.53335637 -0.010090769 -4.529414e-23)
(0.54537952 -0.0094885186 8.6599344e-23)
(0.55715381 -0.0089166269 -3.7228643e-22)
(0.5686791 -0.0083748567 1.8326618e-22)
(0.57995612 -0.0078629925 -3.5020603e-23)
(0.59099009 -0.0073806192 3.9117217e-22)
(0.60178004 -0.0069281736 -1.8603318e-22)
(0.61235308 -0.0065040667 4.743177e-23)
(0.62266396 -0.0061147148 4.3817872e-23)
(0.63289742 -0.0057443924 -7.3986112e-23)
(0.64259234 -0.0054531865 -1.218384e-22)
(0.65319889 -0.0050799064 3.9069898e-22)
(0.66076065 -0.0051648308 1.7367879e-22)
(0.67644757 -0.0043190219 -8.3172778e-22)
(0.15022093 -0.031462075 1.5011097e-21)
(0.15355296 -0.035259173 -1.1566865e-20)
(0.1606228 -0.038012836 6.6443045e-21)
(0.16881305 -0.03948113 -1.3325181e-20)
(0.17698999 -0.040522832 -1.9758993e-21)
(0.18553185 -0.041304533 9.1603796e-21)
(0.19459327 -0.041759597 -9.766808e-21)
(0.20409673 -0.041916175 1.5661626e-21)
(0.21399828 -0.041835896 1.2904311e-20)
(0.22428744 -0.041556998 3.4034645e-21)
(0.23494489 -0.041104802 -6.2099551e-21)
(0.24594353 -0.040503299 -2.8640683e-21)
(0.25725593 -0.039774688 -5.8409593e-21)
(0.26885455 -0.038938083 -6.4557364e-21)
(0.28071084 -0.03801009 3.2355609e-21)
(0.29279548 -0.037005503 8.4589676e-22)
(0.30507892 -0.035937612 1.3681619e-21)
(0.31753157 -0.034818396 -3.3852201e-21)
(0.33012404 -0.03365871 -4.2434e-21)
(0.34282731 -0.032468446 2.361938e-21)
(0.35561296 -0.03125664 3.2256301e-21)
(0.36845334 -0.030031555 -1.5640134e-21)
(0.38132175 -0.028800742 1.5869715e-21)
(0.39419256 -0.027571079 -3.9141546e-22)
(0.40704136 -0.026348804 -3.92055e-21)
(0.41984506 -0.025139535 -3.0337021e-21)
(0.43258201 -0.023948289 -1.904371e-22)
(0.44523201 -0.022779503 4.284814e-22)
(0.45777643 -0.021637048 -2.2110093e-21)
(0.47019822 -0.020524251 -8.5553109e-22)
(0.48248193 -0.01944392 2.2840954e-22)
(0.49461371 -0.018398374 -1.2505211e-21)
(0.50658131 -0.017389467 6.1153053e-24)
(0.51837406 -0.016418633 -4.2457172e-22)
(0.52998286 -0.015486915 -4.7207257e-22)
(0.54140014 -0.014595011 -5.2067744e-22)
(0.55261986 -0.013743322 -8.424545e-22)
(0.56363747 -0.012931988 -5.4418601e-23)
(0.57444988 -0.01216096 -3.9184359e-24)
(0.58505582 -0.01143002 -5.2059391e-22)
(0.59545479 -0.010738976 -9.1511656e-23)
(0.60565074 -0.010087356 -3.3321983e-22)
(0.61564161 -0.0094758622 -4.3902278e-22)
(0.6254526 -0.0089023966 3.7971285e-22)
(0.63503897 -0.0083758822 1.4874153e-23)
(0.64457781 -0.0078748198 1.8328374e-22)
(0.65362551 -0.0074815873 -1.335581e-22)
(0.663569 -0.0069760739 -2.6862359e-22)
(0.67063282 -0.0070939304 -4.3730909e-23)
(0.68543261 -0.0059494236 4.6311156e-22)
(0.25469348 -0.036554924 -2.0901002e-20)
(0.25447846 -0.041395823 4.758725e-20)
(0.2590821 -0.044748126 1.0348357e-20)
(0.26509348 -0.046444647 -1.5765823e-20)
(0.27071929 -0.047717048 -2.0229666e-21)
(0.27653055 -0.04875064 2.6232008e-21)
(0.28284678 -0.049416711 -1.6609992e-21)
(0.28958892 -0.049731217 -4.686314e-21)
(0.29670937 -0.049764669 -4.0160724e-21)
(0.3042191 -0.04956041 -1.2208131e-20)
(0.31211669 -0.049145161 1.7898714e-20)
(0.32038482 -0.048544389 6.522426e-21)
(0.32900344 -0.047782664 -1.6781266e-20)
(0.33795154 -0.046881827 1.0317743e-20)
(0.34720572 -0.045861217 8.385059e-21)
(0.3567406 -0.044738338 -8.7894687e-22)
(0.36652958 -0.043529201 -3.1221437e-21)
(0.37654539 -0.042248491 -3.8202723e-21)
(0.38676038 -0.040909714 -1.3895065e-21)
(0.39714682 -0.039525321 -1.2306556e-21)
(0.40767726 -0.038106808 -3.0262948e-21)
(0.41832473 -0.036664779 0)
(0.42906297 -0.035208994 -1.345471e-21)
(0.43986659 -0.033748399 3.9313985e-21)
(0.45071126 -0.03229115 5.4062185e-21)
(0.46157383 -0.030844633 -9.4119683e-22)
(0.47243242 -0.029415474 -2.9283881e-21)
(0.4832665 -0.028009563 3.027007e-21)
(0.49405698 -0.026632069 2.5416268e-22)
(0.50478622 -0.025287465 3.4365804e-21)
(0.51543809 -0.023979561 -5.3467351e-22)
(0.52599796 -0.022711533 1.7179987e-21)
(0.53645268 -0.021485967 -8.0013952e-22)
(0.5467906 -0.0203049 2.9133644e-22)
(0.55700158 -0.019169871 -4.3449048e-22)
(0.5670769 -0.018081974 5.6266893e-22)
(0.57700929 -0.017041911 4.5760111e-22)
(0.58679298 -0.016050055 3.8303502e-22)
(0.59642354 -0.015106528 -9.6066628e-22)
(0.60589831 -0.014211229 6.8462679e-22)
(0.61521544 -0.013364088 -3.7020766e-22)
(0.62437737 -0.012564669 -1.105855e-21)
(0.63338076 -0.011814017 1.4115606e-21)
(0.64224857 -0.011109638 -6.2154318e-23)
(0.65093684 -0.010462886 -1.5876437e-22)
(0.65961307 -0.0098469905 -7.8628741e-24)
(0.66785594 -0.0093649051 -1.2724542e-22)
(0.67697248 -0.0087429884 -4.6851471e-22)
(0.68341609 -0.0088925641 8.7820226e-22)
(0.6971039 -0.0074862836 -4.4415261e-23)
(0.37636116 -0.038370846 -1.7495685e-20)
(0.37172008 -0.044273063 1.2832339e-20)
(0.37287772 -0.048164609 2.9756955e-21)
(0.37592186 -0.050101997 -7.6356128e-21)
(0.37831729 -0.051673264 1.2056373e-20)
(0.38073559 -0.053045813 7.7916796e-21)
(0.38368934 -0.054033626 -1.2648021e-20)
(0.38711462 -0.054636832 -6.0681985e-21)
(0.39094404 -0.054921873 1.2697821e-20)
(0.39519805 -0.054931141 -1.5305846e-20)
(0.39989073 -0.054691657 -1.4063754e-20)
(0.40501246 -0.054228928 1.4130576e-20)
(0.41054699 -0.053568066 6.8196941e-21)
(0.41647658 -0.052732485 -4.2044486e-21)
(0.42278065 -0.051743682 -1.8543323e-21)
(0.42943571 -0.050621544 -4.0580466e-21)
(0.4364164 -0.049384626 5.3046664e-21)
(0.44369621 -0.048050283 3.6684009e-21)
(0.45124791 -0.046634739 -3.2409141e-21)
(0.45904397 -0.045153144 3.1381228e-21)
(0.46705686 -0.043619631 2.7670375e-21)
(0.47525942 -0.042047348 -3.2115143e-21)
(0.48362503 -0.040448481 3.7059255e-22)
(0.49212787 -0.038834263 -3.2573882e-21)
(0.50074307 -0.037214989 7.2472829e-21)
(0.50944682 -0.03560002 6.1093299e-21)
(0.51821656 -0.033997799 8.1017066e-22)
(0.52703097 -0.032415863 -1.7687011e-21)
(0.5358701 -0.030860864 3.7037486e-21)
(0.5447154 -0.029338599 7.1914829e-21)
(0.55354974 -0.027854044 2.3056398e-21)
(0.56235742 -0.026411396 3.3181495e-21)
(0.57112418 -0.025014118 1.9965495e-21)
(0.57983719 -0.023665 7.4609163e-22)
(0.58848504 -0.022366213 -2.6381715e-22)
(0.59705775 -0.021119376 2.7225883e-21)
(0.6055467 -0.019925626 6.2048611e-22)
(0.61394472 -0.018785685 2.951521e-22)
(0.62224597 -0.017699964 5.6282947e-23)
(0.63044634 -0.016668594 9.9128688e-22)
(0.6385425 -0.015691728 4.7068168e-23)
(0.6465353 -0.014769073 4.4349768e-22)
(0.65442012 -0.013902097 -1.2647005e-22)
(0.66221742 -0.013088035 -2.7824884e-22)
(0.66988438 -0.012340572 -1.5273072e-22)
(0.67757741 -0.011628257 -4.2389549e-22)
(0.68490148 -0.011072549 1.6257184e-22)
(0.69307016 -0.010352714 -1.2788515e-22)
(0.69880478 -0.010532436 -5.008382e-22)
(0.7112089 -0.008907698 2.4643127e-22)
(0.50928581 -0.035977423 3.6470975e-21)
(0.49954234 -0.042963965 -1.8958671e-20)
(0.49628799 -0.047386928 -2.3084775e-21)
(0.49556891 -0.049740392 5.4870899e-21)
(0.49418311 -0.051821818 3.0529825e-21)
(0.49270993 -0.053709347 -4.9727961e-23)
(0.49182713 -0.055191747 6.1900679e-21)
(0.49153004 -0.056269656 7.6254262e-21)
(0.49172794 -0.056994947 9.8583469e-21)
(0.49242778 -0.057400143 -1.1250537e-20)
(0.49364893 -0.057511024 -2.1580523e-20)
(0.49538654 -0.05735329 -3.9357104e-21)
(0.49762438 -0.056952154 1.5939034e-20)
(0.50034373 -0.056332181 1.280968e-20)
(0.50352343 -0.055517053 -5.9068088e-21)
(0.50713943 -0.054529314 1.3814627e-21)
(0.51116551 -0.053390402 -3.6605886e-21)
(0.51557415 -0.052120709 2.2450891e-21)
(0.52033706 -0.050739573 -2.9124665e-22)
(0.52542558 -0.049265251 -1.8656008e-21)
(0.53081105 -0.047714914 7.8276837e-21)
(0.53646512 -0.046104639 -2.9329917e-22)
(0.54235997 -0.044449402 4.1840449e-22)
(0.54846858 -0.042763071 -6.5630727e-22)
(0.55476484 -0.0410584 -4.3036165e-21)
(0.56122375 -0.039347028 4.2092404e-21)
(0.56782147 -0.03763949 1.9032846e-21)
(0.57453545 -0.035945226 -3.308874e-21)