/*--------------------------------*- C++ -*----------------------------------*\
  =========                 |
  \\      /  F ield         | OpenFOAM: The Open Source CFD Toolbox
   \\    /   O peration     | Website:  https://openfoam.org
    \\  /    A nd           | Version:  6
     \\/     M anipulation  |
\*---------------------------------------------------------------------------*/
FoamFile
{
    version     2.0;
    format      ascii;
    class       volSymmTensorField;
    location    "254";
    object      UPrime2Mean;
}
// * * * * * * * * * * * * * * * * * * * * * * * * * * * * * * * * * * * * * //

dimensions      [0 2 -2 0 0 0 0];

internalField   nonuniform List<symmTensor> 
9200
(
(7.8114348e-05 -6.0633438e-05 2.8290295e-22 4.865846e-05 -1.5121997e-22 4.5799856e-39)
(0.00048198077 -0.00038583227 7.2645709e-22 0.00031005227 -5.4209565e-22 4.9826685e-39)
(0.0009754173 -0.0007562204 8.7549792e-23 0.00058973288 -6.6332798e-23 2.73173e-39)
(0.0015392264 -0.0011142404 -1.0963743e-21 0.00081575185 7.7042165e-22 5.4466025e-39)
(0.0020963407 -0.0014329923 5.3000593e-23 0.00099669258 -4.367413e-23 7.9849539e-40)
(0.0026082633 -0.0016981228 4.6315482e-22 0.0011323075 -3.0691802e-22 1.260222e-40)
(0.0030481869 -0.0019045016 -1.008317e-22 0.0012272021 6.9425879e-23 3.6183689e-40)
(0.0033943479 -0.0020523169 9.1611026e-23 0.0012891461 -6.1337963e-23 2.436978e-40)
(0.0036315025 -0.0021443283 4.4973705e-22 0.0013256178 -2.7237853e-22 6.9537855e-40)
(0.0037515129 -0.0021846504 3.5034357e-23 0.0013429823 -2.1327292e-23 1.984459e-42)
(0.0037534406 -0.0021781847 -4.8663534e-22 0.0013465 2.9822507e-22 3.7365571e-40)
(0.0036435193 -0.0021302667 4.0827609e-22 0.0013403875 -2.5941612e-22 5.1562559e-41)
(0.0034346966 -0.0020464419 -7.2881369e-22 0.0013279126 4.8919706e-22 8.0034549e-40)
(0.0031455694 -0.0019323296 -3.7063015e-22 0.0013115264 2.5363981e-22 5.1633803e-41)
(0.002798743 -0.0017935353 9.632183e-23 0.0012930096 -7.1038037e-23 6.5640275e-42)
(0.0024187578 -0.0016355729 -3.6406452e-22 0.0012736119 2.8324143e-22 6.9336983e-41)
(0.0020297503 -0.0014637946 3.2076164e-22 0.0012542518 -2.7035238e-22 8.3947334e-41)
(0.0016531046 -0.0012834158 2.3981811e-22 0.0012361745 -2.1156775e-22 3.3970108e-40)
(0.0013070215 -0.001099275 -7.8750597e-24 0.0012210225 1.7090284e-23 6.2463057e-41)
(0.0010116239 -0.00091472897 -4.2413387e-24 0.0011966586 1.5054454e-23 7.7425734e-41)
(0.00010310875 -6.8923861e-05 2.9477604e-23 4.7313088e-05 -1.1283384e-23 8.0582853e-41)
(0.00061494337 -0.00042621361 7.6939141e-22 0.00029631799 -5.0047146e-22 5.3146681e-39)
(0.0012237712 -0.00082305381 -2.4883756e-22 0.00055671998 1.6693648e-22 2.8866991e-39)
(0.001877875 -0.0011906135 -1.9684334e-21 0.00076340323 1.2296849e-21 1.2603976e-38)
(0.0024876968 -0.0015038207 -6.8670025e-23 0.0009253795 4.3446773e-23 1.5901054e-40)
(0.0030085125 -0.0017500132 1.5255915e-21 0.0010440022 -8.9918847e-22 4.171406e-39)
(0.003412506 -0.0019269527 -6.2840163e-22 0.0011252753 3.665622e-22 1.4336733e-40)
(0.0036817011 -0.0020381392 -1.8995516e-22 0.0011776369 1.0985359e-22 5.1287686e-41)
(0.0038084526 -0.00208945 7.2330677e-22 0.0012087872 -4.2084973e-22 3.9219135e-40)
(0.003795212 -0.0020877289 -8.7940827e-22 0.0012250151 5.2013974e-22 4.5071472e-40)
(0.0036536986 -0.0020401406 -6.2567058e-22 0.001231251 3.7936903e-22 5.5594576e-40)
(0.0034036302 -0.0019537981 1.3559171e-21 0.0012311671 -8.5524274e-22 2.8280602e-39)
(0.0030707791 -0.0018355732 6.3348788e-22 0.0012273116 -4.2537184e-22 1.9897745e-40)
(0.0026843947 -0.0016920318 -1.0021935e-21 0.0012212683 7.1863875e-22 9.8104499e-40)
(0.0022742864 -0.0015294306 1.8073204e-22 0.0012138126 -1.3973521e-22 8.1612467e-41)
(0.0018679736 -0.0013537253 -4.0292598e-22 0.0012050486 3.4917341e-22 2.1820738e-40)
(0.0014882664 -0.001170569 -1.6685557e-22 0.0011945648 1.7043569e-22 6.8534173e-41)
(0.0011515488 -0.00098519973 5.1594821e-22 0.0011816431 -5.7341123e-22 1.1087102e-39)
(0.00086781417 -0.0008018473 2.4574603e-22 0.0011641317 -3.2543668e-22 2.1131418e-40)
(0.00064392171 -0.00062470515 -1.0668175e-22 0.0011310409 1.3214387e-22 1.5826632e-39)
(0.00013134684 -7.4821186e-05 -2.4787439e-22 4.3577189e-05 1.0551326e-22 2.0709824e-39)
(0.00075683953 -0.00044979927 -4.1351871e-22 0.00026802909 2.2972616e-22 2.1588664e-39)
(0.0014791936 -0.00085543711 -4.7115069e-22 0.00049758948 2.7451234e-22 5.3962918e-39)
(0.0022097175 -0.0012160731 1.5768529e-23 0.00067711868 -8.6637128e-24 5.8587172e-43)
(0.0028483254 -0.0015098676 1.7190443e-23 0.00081578035 -8.1616748e-24 3.8773163e-39)
(0.003347337 -0.0017272498 5.3455293e-22 0.0009164724 -2.8480827e-22 1.084361e-39)
(0.0036826904 -0.0018696577 5.2193529e-23 0.00098606906 -2.6017513e-23 4.488633e-40)
(0.0038457019 -0.0019440395 -9.1130647e-22 0.0010329446 4.8872866e-22 2.8691493e-40)
(0.0038417491 -0.0019590675 1.0813555e-21 0.0010642796 -5.9439368e-22 5.4200583e-40)
(0.003688392 -0.0019236609 3.5681166e-22 0.001085586 -2.0578807e-22 5.9400932e-40)
(0.00341279 -0.0018463942 -9.8501901e-22 0.0011008308 5.9328152e-22 1.2286784e-39)
(0.0030485271 -0.0017352585 -3.1008971e-22 0.0011125996 2.0006951e-22 4.0117435e-40)
(0.0026319048 -0.0015976526 1.1185586e-22 0.00112229 -7.7615082e-23 1.0859637e-39)
(0.0021980978 -0.0014404967 2.7022593e-22 0.0011303284 -2.0841117e-22 1.5654901e-40)
(0.0017777413 -0.0012703575 -9.5145129e-23 0.0011363891 8.1933094e-23 1.1956118e-40)
(0.0013944606 -0.0010935149 2.2170424e-22 0.0011396123 -2.20439e-22 9.5071064e-41)
(0.0010636477 -0.00091593824 -1.5312572e-22 0.0011388194 1.7925368e-22 3.6594682e-41)
(0.00079250502 -0.00074312796 -3.14019e-22 0.0011326472 4.317284e-22 8.8778855e-40)
(0.00058129036 -0.00057972021 -1.1207483e-23 0.0011193023 1.193761e-23 7.9675307e-40)
(0.00042590502 -0.00043001911 1.095627e-22 0.001094989 -2.351644e-22 9.160129e-41)
(0.00016188319 -7.745499e-05 -1.9691961e-22 3.7783261e-05 7.2562827e-23 1.0285724e-39)
(0.00090040164 -0.00045264761 3.0253067e-22 0.00022811139 -1.4840251e-22 1.9216469e-40)
(0.0017263418 -0.00084780647 2.6837026e-22 0.0004189447 -1.3232252e-22 2.2222971e-40)
(0.0025121728 -0.0011859064 5.8533859e-22 0.00056704673 -2.7940662e-22 2.3965566e-39)
(0.0031509076 -0.00144954 5.1554275e-22 0.00068130842 -2.4481684e-22 1.0661668e-39)
(0.0035969797 -0.0016331706 -9.0811192e-22 0.00076572647 4.3138479e-22 8.1463027e-40)
(0.0038360976 -0.0017419152 -5.088225e-22 0.00082723719 2.459998e-22 2.3191683e-40)
(0.0038746717 -0.0017854205 0 0.00087330385 0 0)
(0.0037356373 -0.0017740086 5.5751008e-22 0.00090983782 -3.0249399e-22 2.987097e-39)
(0.0034540263 -0.0017173871 -2.427964e-22 0.00094094641 1.4294722e-22 1.131557e-39)
(0.0030720108 -0.0016243353 -1.4276345e-21 0.00096913358 8.5057472e-22 1.0055278e-39)
(0.0026337328 -0.0015027716 -1.8310038e-22 0.00099552887 1.152435e-22 2.0225485e-40)
(0.0021803871 -0.0013600061 7.0740323e-22 0.0010201465 -5.2565181e-22 1.3631564e-39)
(0.0017462309 -0.0012029936 3.9402935e-23 0.0010421722 -2.5784148e-23 5.6287164e-40)
(0.0013560891 -0.0010384551 -1.0998088e-23 0.0010602655 1.0743904e-23 3.9646644e-43)
(0.0010245914 -0.00087281656 1.1861424e-22 0.001072869 -1.3685185e-22 6.9787018e-41)
(0.00075700305 -0.00071199186 4.3028493e-25 0.0010784846 2.7043067e-24 8.1496724e-41)
(0.00055118841 -0.00056108474 -2.1161685e-22 0.0010758056 3.5510673e-22 2.1391397e-40)
(0.00040001604 -0.00042407507 -1.1805844e-22 0.0010642058 2.4721657e-22 1.4875282e-40)
(0.00029392042 -0.00030388838 6.0201675e-23 0.0010451795 -1.8180183e-22 9.2826448e-40)
(0.00019332372 -7.6081064e-05 1.48881e-22 3.0474491e-05 -4.7437009e-23 4.0463356e-40)
(0.0010365929 -0.00043219262 6.2041468e-22 0.00018064189 -2.4746084e-22 3.6456696e-39)
(0.0019478471 -0.00079778973 4.9021705e-22 0.00032905223 -2.0194975e-22 2.3110728e-40)
(0.0027621039 -0.0011003212 5.4516991e-22 0.00044489313 -2.2270405e-22 1.282446e-39)
(0.0033708675 -0.0013275222 -8.4018589e-22 0.00053626448 3.4706601e-22 2.0208972e-39)
(0.0037371063 -0.0014779642 3.2600744e-23 0.00060754264 -1.0496469e-23 1.9225622e-40)
(0.0038625417 -0.0015593914 4.8276829e-23 0.0006648398 -2.1011523e-23 1.6199368e-42)
(0.0037733402 -0.0015824755 6.8818557e-22 0.00071396272 -3.2012012e-22 7.2281015e-40)
(0.0035120959 -0.0015574171 9.3138812e-23 0.0007589909 -4.5991614e-23 6.5224068e-42)
(0.0031303127 -0.0014931849 -2.507165e-22 0.00080222174 1.4185597e-22 3.9091208e-40)
(0.0026811748 -0.0013976851 8.1724349e-22 0.00084442662 -5.0630857e-22 2.7268907e-39)
(0.0022132149 -0.0012781914 -5.9611009e-22 0.00088513597 3.9238968e-22 2.3594463e-40)
(0.0017655886 -0.0011417488 -1.1261641e-21 0.00092297131 8.7835779e-22 1.6736666e-39)
(0.0013655076 -0.00099535285 -3.7370374e-23 0.00095602058 3.4336889e-23 3.5385536e-42)
(0.0010279439 -0.00084583468 4.0378039e-22 0.00098223061 -4.5103373e-22 1.3539262e-39)
(0.00075721319 -0.00069951771 0 0.00099978312 0 0)
(0.00054972282 -0.00056178394 5.0851755e-23 0.0010073693 -7.329495e-23 3.5219123e-41)
(0.00039707982 -0.00043671897 -2.5693776e-23 0.0010042483 5.6210234e-23 5.2383173e-41)
(0.00028875921 -0.00032695766 -2.6002012e-23 0.00099093144 5.6835665e-23 1.3784936e-41)
(0.00021408719 -0.00023365967 1.2511335e-23 0.00097158005 -5.3129891e-23 9.4173787e-41)
(0.00022396612 -7.0252328e-05 3.2563149e-22 2.2411893e-05 -8.3899184e-23 1.6363533e-39)
(0.0011558493 -0.00038805923 3.2073337e-23 0.00013064482 -1.0528754e-23 3.0288972e-42)
(0.0021270859 -0.00070737519 -9.2101466e-23 0.00023725487 3.11047e-23 1.3411708e-41)
(0.0029400079 -0.00096547336 9.533835e-23 0.0003229584 -3.0685165e-23 2.6498951e-40)
(0.0034913987 -0.0011551117 -5.7904356e-22 0.00039455505 2.0305905e-22 4.9720365e-40)
(0.0037595221 -0.0012778776 -2.7896211e-22 0.00045602979 1.0152942e-22 4.4966072e-41)
(0.0037671346 -0.0013420414 1.9853089e-22 0.00051197817 -6.0894685e-23 1.4160432e-39)
(0.0035622305 -0.0013570062 -7.2112889e-24 0.00056612646 8.1620236e-24 1.1077108e-40)
(0.0032057469 -0.0013309591 -4.7265424e-22 0.00062048656 2.3464188e-22 1.1716595e-39)
(0.0027612442 -0.0012709133 8.2139403e-22 0.00067542653 -4.2673153e-22 3.459676e-40)
(0.0022864613 -0.0011833848 -2.2136607e-23 0.00072995532 3.1150405e-23 6.0846005e-40)
(0.0018274266 -0.0010749951 -6.5456862e-22 0.00078207403 4.7543089e-22 1.6801092e-39)
(0.0014155805 -0.00095271849 0 0.00082921075 0 0)
(0.0010678254 -0.00082369551 1.6026181e-22 0.00086870407 -1.8159936e-22 9.0065883e-40)
(0.00078882484 -0.00069472326 8.2024958e-24 0.00089826587 -1.7164541e-23 4.9285532e-41)
(0.00057451902 -0.00057164789 -1.9519022e-22 0.00091634998 3.0668999e-22 1.0474781e-39)
(0.00041583009 -0.00045887471 -4.4220083e-23 0.00092232576 7.9184253e-23 2.1924195e-41)
(0.00030180193 -0.00035915274 -1.3637288e-23 0.00091637956 3.7006494e-23 3.5141269e-41)
(0.00022169566 -0.00027370965 -1.7801377e-23 0.00090004959 4.9927211e-23 1.3693738e-41)
(0.00016606167 -0.00020242402 3.2196322e-23 0.00087839433 -1.2234435e-22 1.3076193e-40)
(0.00025199031 -5.9930658e-05 1.2552035e-22 1.4499078e-05 -2.4151836e-23 2.5914386e-40)
(0.0012493131 -0.000322344 -9.0171594e-22 8.3462889e-05 2.2690825e-22 5.6353058e-39)
(0.0022504452 -0.00058287006 -7.9383436e-23 0.00015270162 2.2547579e-23 5.2619087e-40)
(0.0030327823 -0.00079265837 -2.3984873e-22 0.00021241863 7.0709094e-23 2.6464847e-39)
(0.0035057695 -0.00094830419 -1.8141085e-22 0.0002677928 5.0351321e-23 3.6632188e-41)
(0.0036687016 -0.0010521553 -1.0276647e-21 0.00032189036 3.1843509e-22 4.855064e-40)
(0.0035678037 -0.0011102449 -5.0438076e-22 0.00037754131 1.7761462e-22 3.9109953e-40)
(0.0032715578 -0.0011283976 9.777927e-22 0.00043641122 -3.6818125e-22 3.1682747e-40)
(0.0028546392 -0.0011113796 1.6768937e-22 0.00049854997 -8.6190792e-23 4.0112372e-40)
(0.0023860515 -0.0010637585 -2.1559774e-22 0.00056251497 9.7806953e-23 1.3732873e-40)
(0.0019212184 -0.00099081343 1.0076128e-22 0.00062570113 -3.7166664e-23 5.1472539e-40)
(0.0014982598 -0.00089890024 -1.956468e-23 0.00068481353 2.5629702e-23 1.3046923e-40)
(0.0011380894 -0.00079518137 0 0.00073644858 0 0)
(0.00084730389 -0.0006868971 1.0807179e-22 0.00077767579 -1.1201912e-22 3.1718386e-41)
(0.00062246865 -0.00058050666 -2.305443e-22 0.00080649528 2.9980996e-22 4.3149535e-40)
(0.00045448859 -0.00048101092 -7.4972552e-23 0.00082208254 1.1427959e-22 3.728107e-41)
(0.00033217832 -0.00039162868 1.3021388e-22 0.00082475825 -2.5893715e-22 5.1486752e-40)
(0.0002446648 -0.00031385876 -2.83893e-23 0.00081569285 3.7933174e-23 1.1040789e-40)
(0.00018260323 -0.00024789934 -1.6546152e-24 0.0007971536 -3.3992768e-24 1.2384298e-41)
(0.00013845942 -0.00019301691 2.977753e-23 0.00077398062 -8.7751162e-23 1.1326262e-41)
(0.00027566267 -4.5524738e-05 9.1272516e-23 7.661072e-06 -1.197428e-23 1.6228264e-40)
(0.0013099621 -0.00023943913 -8.3718059e-22 4.4004273e-05 1.5082781e-22 2.5851821e-39)
(0.0023089975 -0.00043406514 -6.5401527e-22 8.3071231e-05 1.2967474e-22 3.0931535e-39)
(0.0030351864 -0.00059657275 9.3774897e-22 0.00012185426 -1.9566538e-22 7.5901838e-40)
(0.0034175288 -0.00072512418 7.0941736e-22 0.00016399038 -1.5931706e-22 1.5849615e-40)
(0.0034797048 -0.00081979534 -5.2118754e-22 0.00021161071 1.147844e-22 1.6430388e-39)
(0.0032904512 -0.0008816367 1.6957026e-22 0.00026608854 -6.433783e-23 6.9549492e-40)
(0.0029341514 -0.00091122115 9.9709007e-22 0.00032744985 -3.521745e-22 7.8396279e-40)
(0.0024925092 -0.00090937317 4.3795484e-22 0.00039411543 -1.7149988e-22 9.9326242e-41)
(0.0020330387 -0.00087850267 -4.3130012e-22 0.00046307684 2.1899291e-22 2.5589384e-40)
(0.001603485 -0.00082323509 -5.8586397e-22 0.00053036504 3.4709261e-22 3.0740241e-40)
(0.0012313794 -0.00075009238 -1.599993e-23 0.00059173135 1.1489143e-23 3.2056089e-43)
(0.0009272471 -0.0006664936 1.6908379e-22 0.00064339088 -1.4688986e-22 4.9856342e-41)
(0.00068961532 -0.00057954125 -6.0918156e-24 0.00068263153 1.9240226e-23 7.5188696e-41)
(0.00051014624 -0.00049503481 -6.6523782e-24 0.00070814456 3.1320356e-23 2.0349948e-40)
(0.000377795 -0.00041695869 5.0762905e-24 0.00072003421 -4.0928984e-23 3.6761175e-40)
(0.00028156775 -0.00034745618 6.0007253e-23 0.00071953871 -1.1790853e-22 1.0814775e-40)
(0.00021197716 -0.00028716105 -3.4261264e-23 0.00070857311 9.9244275e-23 2.8117758e-40)
(0.00016151223 -0.00023576938 -8.7569836e-23 0.00068970882 2.4066947e-22 5.4648194e-40)
(0.00012444665 -0.00019245365 2.9062601e-23 0.00066694789 -7.0417291e-23 1.2371013e-41)
(0.00029361716 -2.7858645e-05 -2.3764939e-22 2.712622e-06 1.9808198e-23 4.8493847e-40)
(0.001333572 -0.00014548155 -1.8789847e-22 1.6066159e-05 2.0123332e-23 5.234245e-40)
(0.0022994155 -0.0002728922 1.4381011e-21 3.3606722e-05 -1.8221177e-22 6.3930419e-39)
(0.0029501349 -0.00039320604 1.072988e-21 5.6373364e-05 -1.5472605e-22 6.9998834e-40)
(0.0032393932 -0.00050307009 4.8189491e-22 8.7120729e-05 -7.5175683e-23 3.4348269e-40)
(0.0032151901 -0.00059717776 9.7306277e-23 0.00012765457 -1.9783351e-23 3.3239577e-42)
(0.0029644288 -0.00066957676 -9.1487689e-22 0.00017866739 2.0159369e-22 1.4361186e-39)
(0.0025806001 -0.00071495556 0 0.00023918157 0 0)
(0.0021453227 -0.00073058218 -5.6172242e-22 0.0003063831 2.4081262e-22 1.1887754e-39)
(0.0017190841 -0.00071749628 -9.6809368e-23 0.00037596937 6.2946884e-23 2.6902064e-40)
(0.0013391425 -0.00068030951 2.7599129e-22 0.00044290874 -1.5859557e-22 6.6472677e-41)
(0.0010224772 -0.00062592879 2.9838924e-23 0.00050239591 -3.756375e-23 1.4799333e-40)
(0.00077133868 -0.00056187289 -1.3212242e-22 0.00055070628 1.280838e-22 1.72714e-40)
(0.00057920337 -0.00049481492 -9.9786981e-23 0.00058570916 1.2925825e-22 3.6878129e-40)
(0.00043569569 -0.00042972299 6.4152438e-23 0.00060695474 -6.474321e-23 4.5376147e-41)
(0.0003299034 -0.00036964846 8.900555e-23 0.00061540112 -1.1386763e-22 4.2211084e-41)
(0.00025216638 -0.00031598306 -7.9468278e-23 0.00061292685 1.303951e-22 3.9389127e-41)
(0.00019475348 -0.00026894756 -1.0678042e-22 0.00060180581 2.2741618e-22 4.5729886e-40)
(0.0001518691 -0.00022815896 8.1515674e-24 0.0005845139 -1.7958186e-24 5.3529635e-41)
(0.00011925383 -0.00019295115 1.4600944e-23 0.00056397373 -4.8403222e-23 6.3252536e-41)
(0.00030481153 -8.04013e-06 -1.5680635e-22 2.4329927e-07 3.9961296e-24 2.3722468e-40)
(0.0013187622 -4.7580156e-05 6.7104019e-22 1.8798895e-06 -2.4003169e-23 1.3159755e-39)
(0.002223928 -0.00011201917 1.0257713e-21 6.6384194e-06 -6.295901e-23 9.5429571e-39)
(0.0027879779 -0.00019805908 -1.2050507e-21 1.7458314e-05 1.0343331e-22 2.6296849e-39)
(0.0029909758 -0.00029740888 4.3642805e-22 3.7497466e-05 -4.7594182e-23 6.6678795e-41)
(0.0029015223 -0.00039697466 1.7993356e-22 6.9347216e-05 8.7635514e-25 2.426709e-39)
(0.0026179433 -0.0004829889 4.726256e-23 0.00011399617 -9.5184085e-24 8.8294097e-43)
(0.0022354684 -0.00054473532 -6.7350724e-22 0.00017008331 1.5458203e-22 8.2080036e-40)
(0.0018297219 -0.00057696776 -1.5309325e-23 0.0002338951 5.2607603e-24 1.3282812e-43)
(0.0014509856 -0.00058027774 2.5197992e-22 0.00030010305 -1.3010858e-22 3.1264269e-40)
(0.0011257512 -0.00055969397 1.9832995e-23 0.00036295632 -2.0045793e-23 4.4628952e-41)
(0.00086231422 -0.00052245748 -9.0781598e-23 0.00041749608 2.4622408e-23 5.7736957e-40)
(0.00065747958 -0.00047591477 -2.0279157e-22 0.00046040152 1.6393868e-22 6.5722669e-41)
(0.00050238566 -0.00042610261 -1.2623101e-24 0.0004902826 1.5634286e-23 7.5194303e-41)
(0.00038658978 -0.00037717516 6.8876904e-23 0.00050746835 -8.960409e-23 7.3738215e-41)
(0.00030039199 -0.00033148907 4.5926068e-23 0.00051349126 -7.2185135e-23 7.1432148e-41)
(0.00023582283 -0.00029003531 1.0567138e-23 0.00051049404 -3.4132732e-23 1.1543409e-40)
(0.0001868228 -0.00025295886 -7.3265811e-23 0.00050073982 1.0264561e-22 9.3277276e-41)
(0.00014902171 -0.0002200169 -1.4852344e-23 0.00048633948 -9.5398077e-24 3.9581037e-40)
(0.00011927786 -0.00019074423 4.066723e-23 0.00046915513 -1.2421616e-22 6.5379292e-40)
(2.0293674e-06 -2.5361093e-07 2.0278094e-23 3.0972412e-07 -4.0573579e-24 2.3181012e-40)
(9.5650596e-06 -4.0035901e-06 -2.8936323e-23 2.0565875e-06 8.0179001e-24 2.2316178e-40)
(2.1425139e-05 -9.2522398e-06 6.4271247e-23 4.1001135e-06 -2.4090348e-23 1.2818843e-39)
(6.8690436e-05 -1.9526574e-05 1.7944503e-22 5.8812132e-06 -3.8296054e-23 4.3108144e-39)
(0.00015075869 -3.2217776e-05 -1.2824518e-22 7.4835595e-06 2.1871118e-23 1.1211932e-39)
(0.00026947001 -4.6432737e-05 1.6170434e-22 8.9086346e-06 -2.1986414e-23 1.238829e-39)
(0.00042872909 -6.1690405e-05 -2.2221151e-22 1.0158346e-05 2.8282769e-23 1.3608902e-39)
(0.00062960873 -7.7509507e-05 -2.2928897e-22 1.1258371e-05 2.4045873e-23 1.4387534e-39)
(0.00087120863 -9.3499391e-05 2.8882109e-22 1.2236338e-05 -3.0061935e-23 1.521488e-39)
(0.0011519785 -0.00010937218 -2.2445346e-22 1.3113757e-05 2.2020943e-23 7.7501065e-40)
(0.0014699694 -0.00012491112 -1.11787e-23 1.3906944e-05 1.8716932e-25 9.0066405e-42)
(0.0018228644 -0.00013994827 6.4889718e-23 1.4628387e-05 -6.9330768e-24 2.8550779e-41)
(0.0022080903 -0.00015435129 -1.1146377e-23 1.5287652e-05 5.4158712e-25 4.5212316e-42)
(0.0026229211 -0.00016801532 3.5377136e-22 1.5892421e-05 -3.1871668e-23 1.3579373e-39)
(0.0030645414 -0.0001808605 4.0525679e-25 1.6449792e-05 6.6949749e-25 2.930493e-42)
(0.0035301099 -0.00019283683 -5.2294599e-22 1.6967586e-05 4.9056828e-23 2.7936718e-39)
(0.0040168439 -0.0002039284 9.7312026e-23 1.7454165e-05 -1.0230758e-23 5.9068526e-41)
(0.0045220325 -0.00021413428 2.3698857e-22 1.7915711e-05 -2.3470317e-23 7.1044077e-40)
(0.0050429824 -0.00022349721 -3.8653139e-22 1.8358353e-05 4.0883523e-23 2.0139724e-39)
(0.0055766227 -0.00023231047 -2.1482594e-22 1.8778132e-05 2.4151444e-23 7.5614068e-40)
(2.2984164e-06 -1.0608534e-06 6.6825894e-24 2.7255198e-06 -2.472975e-24 2.2966126e-41)
(1.2193673e-05 -1.3718735e-05 -1.8325566e-22 1.8122809e-05 1.3816935e-22 7.4632178e-39)
(2.7363616e-05 -3.1147444e-05 3.6364722e-23 3.6120215e-05 -3.0068201e-23 6.7359689e-40)
(8.0821585e-05 -6.3219599e-05 1.9308939e-22 5.1813889e-05 -1.1867412e-22 3.603166e-39)
(0.00017007195 -0.00010226845 2.6838632e-22 6.5903293e-05 -1.2910109e-22 4.0745803e-39)
(0.00029638028 -0.00014567015 3.2469448e-23 7.838182e-05 -1.3038263e-23 3.8278051e-41)
(0.0004631964 -0.00019198808 -8.6383434e-22 8.9269314e-05 2.9980867e-22 2.0381065e-38)
(0.00067104485 -0.00023979901 -3.05147e-23 9.8793503e-05 1.2665116e-23 5.9046841e-42)
(0.00091853394 -0.00028795551 4.8978069e-22 0.00010719722 -1.494764e-22 3.4794354e-39)
(0.0012036646 -0.00033561181 -1.1832859e-22 0.00011466982 3.2761762e-23 1.934708e-40)
(0.0015240434 -0.00038212898 -4.4992876e-22 0.00012135499 1.2363289e-22 2.1467364e-39)
(0.001876904 -0.00042700974 9.479972e-23 0.00012736192 -2.4310298e-23 9.7739654e-41)
(0.0022592138 -0.00046985943 4.0053616e-22 0.00013277288 -8.9921808e-23 2.3018437e-39)
(0.0026677671 -0.00051036113 1.660761e-22 0.00013765214 -4.1416493e-23 2.6303298e-40)
(0.0030992315 -0.00054826658 3.3323839e-22 0.00014205702 -8.8893225e-23 7.6120689e-40)
(0.0035502103 -0.00058340918 -2.6395237e-22 0.00014604909 6.6578436e-23 6.4372873e-40)
(0.0040173992 -0.00061572092 -2.5304097e-22 0.00014969514 6.3154509e-23 7.0403451e-40)
(0.0044975239 -0.0006451715 2.5668889e-22 0.00015304856 -7.268744e-23 4.0739042e-40)
(0.0049863995 -0.00067187327 2.3548392e-22 0.00015616969 -6.5004831e-23 7.1168475e-40)
(0.0054790936 -0.00069694974 9.1842069e-23 0.0001590468 -2.433351e-23 3.0209295e-40)
(2.954333e-06 -2.7154619e-06 5.141772e-24 7.2686987e-06 -2.5758101e-24 1.209513e-41)
(1.843187e-05 -2.8351234e-05 1.3918686e-22 4.8377606e-05 -1.489784e-22 3.1807072e-39)
(4.1193807e-05 -6.2654377e-05 -3.0467206e-23 9.6347678e-05 3.9265854e-23 1.6657883e-40)
(0.00010762223 -0.00012001848 -2.0979699e-22 0.00013815758 1.7669582e-22 3.9440184e-39)
(0.00021173886 -0.00018814325 7.7376197e-23 0.00017556361 -6.5007001e-23 1.1190065e-40)
(0.0003536526 -0.00026279123 1.0265159e-22 0.00020846705 -8.3482389e-23 5.9139503e-41)
(0.00053589615 -0.00034158908 -1.2773259e-22 0.00023691478 6.7804165e-23 3.5148515e-40)
(0.00075795716 -0.00042223221 -3.3459574e-22 0.00026151293 1.9542679e-22 7.0364076e-40)
(0.0010175035 -0.00050287761 1.4647988e-22 0.00028290672 -7.1302682e-23 1.9646195e-40)
(0.0013116633 -0.00058216064 3.1120235e-22 0.00030160322 -1.296704e-22 1.1152622e-39)
(0.0016371791 -0.00065904078 8.7261599e-23 0.00031798929 -6.0288015e-23 4.2068091e-41)
(0.0019904122 -0.00073269829 3.8111477e-22 0.00033235769 -1.2697524e-22 2.0691472e-39)
(0.0023674382 -0.00080247068 3.2401838e-23 0.00034492517 -1.2033073e-23 8.583954e-42)
(0.0027641233 -0.00086780994 -5.6824483e-22 0.0003558541 1.9244633e-22 3.3278848e-39)
(0.0031761464 -0.0009282654 4.2168541e-23 0.00036528193 -2.7612987e-23 1.8479451e-41)
(0.0035990624 -0.00098350591 -2.6639822e-22 0.00037335245 7.450841e-23 1.2963687e-39)
(0.0040286027 -0.0010333599 -3.7731932e-22 0.00038022303 1.4914971e-22 5.3406591e-40)
(0.0044605098 -0.0010777162 6.1415263e-22 0.00038604948 -2.3864311e-22 1.7720027e-39)
(0.0048880879 -0.0011167155 3.2536356e-22 0.00039108791 -1.3390903e-22 3.6103332e-40)
(0.0053036036 -0.0011527648 6.4786804e-23 0.00039548296 -2.9273588e-23 7.7538421e-42)
(4.3519488e-06 -5.6158221e-06 -7.6912795e-24 1.3384302e-05 9.6801447e-24 1.7756446e-41)
(3.0219757e-05 -5.03429e-05 -3.2253895e-22 8.9250758e-05 4.0788298e-22 1.0555653e-38)
(6.6876065e-05 -0.00010855674 -2.3419179e-23 0.00017760256 3.00962e-23 1.4423762e-40)
(0.00015477412 -0.00019630607 5.4160614e-23 0.00025448703 -5.9953434e-23 9.203498e-41)
(0.00028309396 -0.00029730023 -8.6798591e-24 0.00032293416 2.2116714e-24 2.3752197e-41)
(0.000450233 -0.00040578551 2.7602221e-22 0.00038256937 -2.0241202e-22 1.7336942e-39)
(0.00065730802 -0.00051844572 3.054571e-22 0.00043344625 -1.9959731e-22 1.5750737e-39)
(0.00090226481 -0.00063217586 -9.2466155e-23 0.00047668105 4.4740578e-23 2.481428e-40)
(0.0011813574 -0.00074451818 -3.3989374e-22 0.00051346976 1.777123e-22 1.5781667e-39)
(0.001490382 -0.00085363661 -6.8661664e-22 0.00054476653 3.7055442e-22 3.3480971e-39)
(0.0018247598 -0.00095811013 -1.4716491e-23 0.00057130975 -8.1098874e-24 7.6381388e-41)
(0.0021795293 -0.0010568005 8.7553637e-22 0.0005936629 -4.0828371e-22 5.4710594e-39)
(0.0025494243 -0.0011487638 -3.5481639e-22 0.00061224157 1.3568437e-22 1.6167786e-39)
(0.0029289503 -0.0012331991 -2.2993639e-22 0.00062735295 1.0078565e-22 3.1923358e-40)
(0.0033123898 -0.0013094193 -2.8149386e-23 0.00063924468 3.1068314e-23 6.8875804e-41)
(0.0036938779 -0.0013768792 5.466273e-22 0.00064815918 -2.3963069e-22 1.3101556e-39)
(0.0040678777 -0.0014352552 -3.1053108e-22 0.00065435552 1.5512645e-22 8.8487171e-41)
(0.0044290185 -0.0014843634 -7.1311605e-22 0.00065816376 3.0012517e-22 2.8201905e-39)
(0.0047677526 -0.0015243896 4.804388e-22 0.00066038941 -2.0873341e-22 1.4182654e-39)
(0.00507328 -0.0015592399 4.1418602e-22 0.00066193448 -1.6594475e-22 1.3185697e-39)
(6.9598556e-06 -1.000167e-05 3.454114e-23 2.0401942e-05 -3.3567659e-23 2.2729571e-40)
(5.0147301e-05 -8.112616e-05 1.1129566e-23 0.00013623148 -2.8222985e-24 1.0284989e-40)
(0.0001096471 -0.00017162255 -4.4510434e-22 0.0002706439 6.3707033e-22 8.6626888e-39)
(0.00022961136 -0.00029560466 -2.5567717e-22 0.00038723591 2.7152509e-22 2.6784838e-39)
(0.00039320055 -0.00043347645 1.7048464e-22 0.00049031087 -1.3574699e-22 1.6187051e-39)
(0.00059648017 -0.00057796566 2.1248019e-22 0.00057899583 -1.7120101e-22 7.6268989e-40)
(0.00083853257 -0.00072476764 -2.7638304e-22 0.00065333663 1.8052052e-22 1.7843553e-39)
(0.0011151712 -0.00087006986 -4.2173408e-22 0.0007150612 2.4207867e-22 3.9155791e-39)
(0.0014206795 -0.0010109027 6.256699e-22 0.00076603814 -3.7375822e-22 4.0186405e-39)
(0.0017489823 -0.0011450319 1.7908177e-22 0.000807791 -7.2506222e-23 9.3522025e-40)
(0.0020936573 -0.0012707075 -5.6789532e-22 0.00084152927 3.7539941e-22 3.1211702e-40)
(0.0024479335 -0.0013865137 2.4841965e-22 0.00086819823 -1.1299748e-22 7.2022455e-40)
(0.002804794 -0.0014912706 0 0.00088851493 0 0)
(0.0031570623 -0.0015839682 2.4312081e-22 0.00090301686 -1.1848152e-22 2.8206829e-40)
(0.0034974335 -0.0016637324 -1.8273145e-22 0.00091212816 8.6838543e-23 1.5064283e-40)
(0.0038185953 -0.0017298532 -2.8062693e-22 0.00091623191 1.3996621e-22 1.8315021e-40)
(0.0041139399 -0.001781909 1.0413316e-22 0.00091569208 -8.4434006e-23 2.5712005e-40)
(0.0043775664 -0.0018197752 -8.4588764e-23 0.00091102537 5.0365435e-23 9.3370495e-42)
(0.0045978746 -0.0018438853 4.0687918e-22 0.00090401284 -1.7602295e-22 1.5261548e-39)
(0.0047607996 -0.0018594885 -3.2972725e-22 0.00089753721 1.6112277e-22 8.9504311e-41)
(1.1321038e-05 -1.5949599e-05 3.3125426e-23 2.765801e-05 -2.7850914e-23 1.825087e-40)
(8.1142116e-05 -0.0001209775 1.5990983e-22 0.000184583 -2.1287109e-22 6.8270831e-40)
(0.00017529513 -0.00025217574 -2.1465271e-22 0.00036558122 2.8471811e-22 1.6252705e-39)
(0.00033986015 -0.00041781885 -3.5299929e-22 0.00052172389 3.9691402e-22 1.3621905e-39)
(0.00055086379 -0.00059562056 -1.0474509e-22 0.00065844529 1.5290372e-22 1.0748913e-39)
(0.00080122913 -0.00077668312 -3.195404e-22 0.0007742319 2.805402e-22 6.6902641e-40)
(0.0010872024 -0.00095566004 -1.4832062e-22 0.000869182 9.1327021e-23 7.7245128e-40)
(0.0014017677 -0.0011281618 2.5739648e-22 0.00094573996 -1.5482317e-22 1.4248828e-39)
(0.0017366083 -0.0012908671 6.1651735e-22 0.0010065656 -3.6742692e-22 4.8790847e-39)
(0.0020832018 -0.001441296 1.9033019e-22 0.0010538896 -1.1710544e-22 2.046987e-40)
(0.0024328265 -0.0015775327 -1.8084626e-22 0.0010895376 9.6028021e-23 3.2462785e-40)
(0.0027765878 -0.0016980572 -3.3356439e-23 0.0011149847 -7.4260865e-24 2.8268741e-40)
(0.0031055906 -0.0018016441 -8.6477131e-22 0.0011313937 4.7286888e-22 2.6938721e-39)
(0.0034111102 -0.0018872954 -2.688225e-22 0.0011396697 1.4049378e-22 2.7863211e-40)
(0.0036847116 -0.001954204 4.5130609e-22 0.0011405336 -2.6042387e-22 1.330352e-40)
(0.0039184545 -0.0020017689 -4.5039135e-22 0.0011345948 2.4292812e-22 2.7622649e-40)
(0.0041058329 -0.0020297214 -1.5906703e-22 0.0011223297 7.8222083e-23 8.8164624e-41)
(0.0042421424 -0.0020382572 3.5711256e-22 0.0011043164 -1.5075671e-22 1.3694044e-39)
(0.004316235 -0.0020284261 5.4302554e-22 0.001083437 -2.708425e-22 1.0396027e-39)
(0.0043111416 -0.0020063855 6.6074041e-23 0.0010660681 -3.0845675e-23 2.0230653e-41)
(1.8013741e-05 -2.337843e-05 -9.3422576e-23 3.4549911e-05 7.5849726e-23 1.0798142e-39)
(0.0001261237 -0.00016899002 -1.0338912e-22 0.00022981643 1.0488483e-22 8.6068664e-40)
(0.0002692911 -0.00034792876 2.6306683e-22 0.00045298356 -3.3201744e-22 3.9798474e-40)
(0.00049218009 -0.00055889453 4.0062804e-22 0.00064393455 -4.1469807e-22 1.8060999e-39)
(0.00076251472 -0.00077743882 5.2340195e-24 0.0008090377 -4.7100852e-24 3.5843267e-43)
(0.0010690104 -0.00099290987 -1.0889474e-21 0.00094618243 8.9783868e-22 1.0544491e-38)
(0.0014041205 -0.001198944 -4.2791998e-22 0.0010557079 3.6558535e-22 1.5187748e-40)
(0.0017572717 -0.0013908064 3.3194945e-22 0.0011409214 -2.2375389e-22 1.1569216e-39)
(0.0021170151 -0.0015651193 3.8140771e-22 0.0012054052 -2.5585043e-22 7.0780215e-40)
(0.0024720523 -0.0017194762 -3.7357912e-22 0.0012522404 2.0797908e-22 1.9420877e-39)
(0.0028112629 -0.0018521347 -1.1018319e-21 0.0012840226 6.9410334e-22 2.8339302e-39)
(0.0031238581 -0.0019618448 7.2564406e-22 0.0013029101 -4.3886984e-22 1.1651608e-39)
(0.0033996876 -0.0020477471 4.3204185e-22 0.0013106636 -2.2519485e-22 1.3945086e-39)
(0.0036295589 -0.0021093093 -6.0037413e-22 0.0013087021 3.3067551e-22 1.1514832e-39)
(0.003805499 -0.002146285 2.6434343e-22 0.0012981726 -1.5211832e-22 7.7391363e-41)
(0.0039210438 -0.0021586962 4.3929793e-22 0.001280005 -2.2589182e-22 8.5749447e-40)
(0.0039722645 -0.0021468859 1.6766963e-22 0.0012547966 -9.4175086e-23 2.9298632e-41)
(0.0039585038 -0.0021116972 -2.8767615e-22 0.0012229423 1.7677782e-22 3.7331809e-41)
(0.0038730509 -0.0020550621 -6.7161024e-23 0.0011879672 2.2054364e-23 2.1223823e-40)
(0.0036980598 -0.0019833 3.7812456e-22 0.0011607031 -2.1747738e-22 8.6933821e-41)
(2.7608047e-05 -3.2051054e-05 -2.7365837e-24 4.0542826e-05 -2.9849342e-24 2.0221129e-41)
(0.00018762116 -0.00022310136 -3.769156e-22 0.00026794288 3.9873348e-22 2.8295683e-39)