/*--------------------------------*- C++ -*----------------------------------*\
  =========                 |
  \\      /  F ield         | OpenFOAM: The Open Source CFD Toolbox
   \\    /   O peration     | Website:  https://openfoam.org
    \\  /    A nd           | Version:  6
     \\/     M anipulation  |
\*---------------------------------------------------------------------------*/
FoamFile
{
    version     2.0;
    format      ascii;
    class       volVectorField;
    location    "194";
    object      U_0;
}
// * * * * * * * * * * * * * * * * * * * * * * * * * * * * * * * * * * * * * //

dimensions      [0 1 -1 0 0 0 0];

internalField   nonuniform List<vector> 
9200
(
(0.0010393468 0.0014199819 -5.9201844e-20)
(0.01367607 -0.002058368 4.6042536e-20)
(0.038313173 -0.0058665703 -3.8501741e-20)
(0.072274448 -0.0097635084 -6.0257748e-20)
(0.11376476 -0.013490033 1.8826969e-20)
(0.16158091 -0.016605663 3.2743883e-20)
(0.21467151 -0.018817291 -1.2268011e-20)
(0.27206611 -0.019973898 9.2688637e-21)
(0.33285627 -0.020011231 1.6803426e-20)
(0.39616352 -0.018929061 1.4848073e-21)
(0.46111561 -0.016779826 -2.1456338e-20)
(0.52683693 -0.013657742 2.0670006e-20)
(0.59245075 -0.0096880088 -4.0422151e-20)
(0.65709138 -0.0050157872 -2.1133903e-20)
(0.71992479 0.0002055506 5.904653e-21)
(0.7801751 0.005824084 -2.5131676e-20)
(0.83717068 0.011712801 2.5217114e-20)
(0.89046884 0.0179185 2.2243189e-20)
(0.93967079 0.024573399 -2.9929829e-22)
(0.98205195 0.028293367 -1.6691894e-21)
(0.0052521814 -0.0013462735 -1.7059354e-20)
(0.026962505 -0.0089890279 3.9747709e-20)
(0.061670124 -0.014809766 2.3576302e-20)
(0.1062949 -0.019172272 -1.1569757e-19)
(0.15873567 -0.022214 -1.2727091e-20)
(0.21753354 -0.023720689 7.3297079e-20)
(0.28137299 -0.0235951 -3.5476403e-20)
(0.34900605 -0.021868969 -8.3905574e-21)
(0.41923925 -0.018645528 3.4287544e-20)
(0.49090949 -0.014080845 -4.3259583e-20)
(0.56287238 -0.0083759555 -3.0338484e-20)
(0.63400853 -0.0017665993 7.1921439e-20)
(0.70324337 0.0054883892 3.8294051e-20)
(0.76957589 0.013118626 -6.7976562e-20)
(0.83211253 0.020852075 1.4623691e-20)
(0.89010045 0.028419696 -3.6733402e-20)
(0.94296924 0.035569663 -1.3777195e-20)
(0.99043238 0.042140873 7.0974777e-20)
(1.0323561 0.047715293 2.9641982e-20)
(1.0669349 0.049139671 -8.3478333e-20)
(0.010858428 -0.0040424164 3.6773463e-20)
(0.043953419 -0.015431079 2.5047418e-21)
(0.090515446 -0.022552285 2.2341724e-20)
(0.14711141 -0.026497362 9.8116818e-22)
(0.21134257 -0.027886301 -4.0773948e-20)
(0.2814677 -0.026795119 1.8576403e-20)
(0.35587044 -0.023382733 1.3420301e-20)
(0.43299011 -0.017921542 -5.0327709e-20)
(0.51132482 -0.010735657 5.7261865e-20)
(0.58942619 -0.0021838872 1.425669e-20)
(0.66590922 0.0073478978 -5.4300715e-20)
(0.73948042 0.017460254 -1.8237404e-20)
(0.80897605 0.027756552 9.0591626e-21)
(0.87340271 0.037859259 2.3444738e-20)
(0.93197369 0.047424028 -1.1362506e-20)
(0.98413375 0.056148955 2.787773e-20)
(1.0295741 0.063789152 -2.0188242e-20)
(1.0682646 0.070204368 -7.0123596e-20)
(1.1003322 0.07511935 -2.3796276e-20)
(1.1249113 0.076641207 4.8659834e-20)
(0.017957216 -0.006422164 2.4508021e-20)
(0.064777002 -0.020694801 5.1039226e-20)
(0.1248523 -0.02806085 1.9881693e-20)
(0.19446968 -0.030464069 1.299009e-20)
(0.27094934 -0.029094846 1.7275703e-20)
(0.35224883 -0.024388984 -4.7720178e-20)
(0.43643143 -0.016825978 -2.5646861e-20)
(0.52162013 -0.0069766766 0)
(0.60602901 0.0045670249 1.3920622e-20)
(0.68798713 0.017211723 -5.8523412e-21)
(0.76597524 0.030373912 -9.7934952e-20)
(0.83867454 0.043499621 -1.5774819e-20)
(0.90501533 0.056086604 6.51032e-20)
(0.96421577 0.06770412 4.8442806e-22)
(1.0158036 0.078007698 -1.5725567e-21)
(1.0596156 0.086746773 2.1957496e-20)
(1.0957773 0.093772206 -5.2647201e-21)
(1.12468 0.099065309 -6.1029739e-20)
(1.1468648 0.10259705 -4.5851236e-20)
(1.1622958 0.10341382 6.9520523e-20)
(0.026579423 -0.0082056887 -3.9194249e-21)
(0.089344029 -0.024033508 -5.125645e-21)
(0.16430755 -0.030264991 5.6599412e-20)
(0.24758122 -0.029810023 1.8539324e-20)
(0.33624164 -0.024513032 -3.1955074e-20)
(0.4279513 -0.015239864 1.216384e-20)
(0.52047267 -0.002851368 2.6402868e-21)
(0.61166363 0.011737089 3.3609176e-20)
(0.69954718 0.027640136 5.659951e-21)
(0.78236844 0.044028762 -1.3204741e-20)
(0.85865413 0.060147715 6.0154038e-20)
(0.92726918 0.075340461 -5.800936e-20)
(0.98745683 0.089072849 -1.3216614e-19)
(1.0388531 0.10094901 -5.5773039e-21)
(1.0814726 0.11071707 8.3150777e-20)
(1.1156656 0.11826403 0)
(1.1420549 0.12360581 1.011896e-20)
(1.1614669 0.12689054 -1.5459772e-20)
(1.174818 0.12829868 -8.5994605e-21)
(1.1826673 0.12744913 2.099223e-20)
(0.036666912 -0.0090895803 -5.4309241e-21)
(0.11731512 -0.024685359 4.3578748e-21)
(0.2081187 -0.028140181 -8.7629851e-21)
(0.30515705 -0.023414958 2.84724e-20)
(0.40533543 -0.013075595 -2.9392675e-20)
(0.50607152 0.0015226114 -1.6927028e-20)
(0.60490495 0.019095136 3.7364231e-20)
(0.69954965 0.03836525 4.7595445e-21)
(0.78800399 0.05816764 -2.4436058e-20)
(0.86863412 0.077482998 6.9867558e-20)
(0.9402398 0.095458635 5.2394089e-22)
(1.0020956 0.11143155 -8.0444316e-20)
(1.053957 0.12494289 0)
(1.0960274 0.13573748 3.9542118e-20)
(1.1288922 0.14374841 5.5236005e-21)
(1.1534279 0.14906891 -7.7566408e-20)
(1.1706991 0.15191912 -1.9586924e-20)
(1.1818624 0.15262366 -1.2467633e-20)
(1.1880592 0.15152603 -1.4709389e-20)
(1.1901461 0.1485849 4.0420523e-20)
(0.048058872 -0.0087674057 -1.7277967e-20)
(0.14808312 -0.021931995 -2.2198132e-21)
(0.25514072 -0.020797837 3.0380514e-20)
(0.36546387 -0.010412796 3.7484311e-20)
(0.47590425 0.0059015856 -1.9944738e-20)
(0.58374271 0.026269304 -6.9163049e-20)
(0.68644191 0.048977207 -2.7995802e-20)
(0.7817621 0.072417786 7.8929208e-20)
(0.86790202 0.095212474 8.5778125e-21)
(0.94358923 0.11624961 -2.4873482e-20)
(1.0081259 0.13469827 1.3642215e-20)
(1.0613871 0.15001554 -4.3194478e-21)
(1.1037693 0.16193658 0)
(1.1360975 0.17044426 2.7203486e-20)
(1.1595046 0.17572307 -7.9322423e-20)
(1.1753021 0.17810368 -3.1475532e-20)
(1.184857 0.17800811 8.1054585e-20)
(1.1894921 0.17590943 -4.2969854e-21)
(1.190403 0.17225556 3.5561073e-21)
(1.188508 0.16719296 2.7111571e-20)
(0.060485255 -0.0069573645 -3.241463e-20)
(0.18077774 -0.015170382 -8.1624344e-20)
(0.30388932 -0.0075835289 2.5797698e-21)
(0.4264256 0.0097033545 7.0161857e-20)
(0.54535154 0.032631552 6.2424399e-20)
(0.65798106 0.058820042 -7.1574518e-20)
(0.76190889 0.086176506 -2.8274603e-22)
(0.85518297 0.11285231 8.5522536e-20)
(0.93645353 0.13737837 4.8828063e-20)
(1.0050415 0.15869369 -5.4218402e-20)
(1.0609356 0.17613563 -9.2334216e-20)
(1.1047243 0.18941353 -3.1589829e-21)
(1.1374759 0.19855943 4.2127873e-20)
(1.1605874 0.20385855 -6.6056277e-21)
(1.1756248 0.20577018 -1.2868787e-20)
(1.1841777 0.20484917 1.9690809e-20)
(1.1877428 0.20167895 4.3880622e-20)
(1.1876454 0.19682586 -4.3859436e-20)
(1.1849954 0.19077882 -1.0232203e-19)
(1.180625 0.18377378 2.4566882e-20)
(0.073537221 -0.0034329736 -3.4979754e-20)
(0.21422689 -0.0039890268 -1.7388622e-19)
(0.3525166 0.011839375 8.2103323e-20)
(0.48562802 0.037018336 9.276759e-20)
(0.61085384 0.066835552 5.7970583e-20)
(0.72576732 0.098481179 8.61071e-21)
(0.82834808 0.12959696 -1.0624006e-19)
(0.91719004 0.15824269 0)
(0.9916275 0.18302814 -6.8748573e-20)
(1.0517521 0.20311206 -1.5202406e-20)
(1.0983384 0.2181486 5.4703467e-20)
(1.1327008 0.22821082 1.0973378e-20)
(1.156511 0.23369259 -4.5613861e-20)
(1.1716068 0.23519946 -4.9081369e-20)
(1.1798204 0.23344334 2.4287686e-20)
(1.1828451 0.22915322 4.4822899e-20)
(1.1821489 0.22300984 -5.5600415e-20)
(1.1789361 0.2156082 -1.0751123e-19)
(1.1741469 0.20742222 -3.1513623e-21)
(1.1684568 0.19871879 2.7046403e-20)
(0.086650452 0.0019613858 -3.5448902e-21)
(0.24696021 0.011816633 8.7913317e-20)
(0.39884743 0.037492309 -1.6479256e-20)
(0.54040469 0.071218383 -8.4309255e-20)
(0.66949907 0.10778894 4.5164389e-20)
(0.78421958 0.14411544 4.9175416e-20)
(0.88318946 0.17775669 5.5356761e-21)
(0.96577876 0.2068849 -9.9502435e-20)
(1.0321763 0.23038802 -2.5048772e-21)
(1.0833329 0.24781553 5.0503534e-20)
(1.120807 0.259263 5.9854742e-21)
(1.1465558 0.26523619 -1.971722e-20)
(1.1627108 0.26650532 -7.5704648e-20)
(1.1713765 0.26396621 -6.2554009e-21)
(1.1744763 0.25852428 4.3533362e-20)
(1.1736548 0.25101087 3.7022018e-20)
(1.1702383 0.24213393 1.9793443e-20)
(1.1652403 0.23245873 -5.299485e-20)
(1.1594014 0.22240416 1.295745e-20)
(1.1532252 0.21223797 8.2659104e-20)
(-0.0012932616 0.00143466 -1.123444e-21)
(-0.0047459608 0.0031874152 2.064697e-21)
(-0.01077136 0.0041359046 8.7950306e-22)
(-0.017754289 0.0045395365 -2.4411041e-21)
(-0.02474032 0.0045654171 -1.4114823e-21)
(-0.031299595 0.004326039 1.5459988e-21)
(-0.03716133 0.0039035385 -6.8700817e-21)
(-0.042147445 0.0033577219 -5.9573015e-21)
(-0.046157779 0.0027313814 1.1171998e-20)
(-0.049146193 0.0020548306 -9.7427494e-21)
(-0.051100657 0.0013493003 -1.983294e-22)
(-0.052030446 0.0006294217 3.6673454e-21)
(-0.05195774 -9.4889822e-05 -6.3295551e-22)
(-0.050911884 -0.00081693086 2.2818747e-20)
(-0.04892578 -0.0015318453 3.0401048e-22)
(-0.046035343 -0.0022351747 -4.0882878e-20)
(-0.042281798 -0.0029222689 7.5385638e-21)
(-0.037703442 -0.0035910396 2.3864114e-20)
(-0.032308693 -0.0042399877 -4.3852383e-20)
(-0.026156962 -0.0048211145 -2.773921e-20)
(-0.0016522001 0.0041808668 -5.3716046e-21)
(-0.0053974816 0.0092681391 1.086544e-20)
(-0.01121851 0.012007445 -1.0191548e-20)
(-0.017658027 0.013153765 3.922976e-21)
(-0.023856434 0.013195414 4.8121444e-21)
(-0.029433319 0.012462725 7.1324184e-22)
(-0.034152322 0.011197014 -2.2509489e-20)
(-0.03786038 0.0095738974 -2.0370249e-21)
(-0.0404743 0.0077189875 2.0163543e-20)
(-0.041958924 0.0057212304 -5.0473604e-21)
(-0.042308952 0.0036428643 -2.1762592e-20)
(-0.041537338 0.0015267122 4.8973174e-21)
(-0.039667714 -0.0005983063 2.2635422e-20)
(-0.036729082 -0.0027127621 1.0308392e-20)
(-0.032752034 -0.0048026906 2.1854288e-20)
(-0.02776917 -0.0068555103 -1.9770731e-20)
(-0.021824794 -0.0088582218 -2.1672947e-20)
(-0.014966269 -0.010804227 2.1184621e-20)
(-0.0071290148 -0.012679004 2.6810369e-20)
(0.0018742988 -0.014317227 1.5854767e-20)
(-0.0023034294 0.0065602334 -4.3568701e-21)
(-0.0065392244 0.014480197 -5.6387555e-21)
(-0.011892132 0.018710545 3.0723948e-22)
(-0.0172111 0.020428182 1.0959891e-21)
(-0.021819143 0.020400325 6.6918426e-21)
(-0.025431042 0.019151667 1.0665172e-20)
(-0.027877233 0.017066288 -3.722764e-21)
(-0.02905327 0.014423783 -1.8896169e-20)
(-0.028909037 0.011424352 6.5413183e-21)
(-0.02743105 0.0082099048 1.2862571e-20)
(-0.024627714 0.0048797753 5.8340871e-21)
(-0.020520108 0.0015022374 1.8159106e-20)
(-0.015135985 -0.001876865 1.7295917e-21)
(-0.0085053968 -0.00522725 -3.3864532e-20)
(-0.00065689017 -0.0085276128 1.2020179e-21)
(0.0083810205 -0.011759113 -2.2139212e-20)
(0.018556871 -0.0149041 -2.4466307e-20)
(0.029802186 -0.017953757 4.5819717e-20)
(0.04230497 -0.020855122 2.5349351e-20)
(0.056738578 -0.023247771 1.223934e-22)
(-0.0031290279 0.0083689708 -5.2833081e-21)
(-0.0078963994 0.018336514 -8.4815288e-21)
(-0.012438987 0.02358781 4.3593058e-21)
(-0.016026535 0.02560966 4.1463459e-21)
(-0.018235024 0.025382747 2.0105712e-21)
(-0.018912652 0.023589323 7.3209965e-21)
(-0.017984717 0.020730274 9.3124791e-21)
(-0.01541671 0.017170378 -1.3511355e-21)
(-0.011207047 0.013171314 -1.1481948e-20)
(-0.0053752326 0.0089189308 -2.9071881e-20)
(0.0020481126 0.0045434358 6.1892538e-23)
(0.011026509 0.00013430896 4.0697826e-20)
(0.021522226 -0.0042489536 -1.8383173e-20)
(0.033497852 -0.0085675882 -1.2296089e-20)
(0.046920514 -0.01279555 5.5348909e-22)
(0.061760097 -0.01691186 3.2302647e-20)
(0.077953016 -0.020901675 -1.4829546e-20)
(0.095392268 -0.024763382 -5.333919e-20)
(0.11439845 -0.028379724 4.5765014e-20)
(0.13634539 -0.031073102 3.3013173e-20)
(-0.0039704099 0.0094657331 -6.8789007e-22)
(-0.0090916586 0.020487794 -1.2534742e-20)
(-0.012364472 0.026159089 -3.4144538e-20)
(-0.01355254 0.02814334 -5.7241628e-21)
(-0.01253324 0.027555008 -3.6222738e-21)
(-0.009316724 0.025188065 6.3051046e-21)
(-0.0039456438 0.021627412 -4.6461973e-21)
(0.00352613 0.01729896 -8.8070293e-21)
(0.013036824 0.012508751 2.1899712e-20)
(0.024521246 0.0074744412 5.0567083e-21)
(0.037915544 0.0023489018 -2.5290296e-20)
(0.053157452 -0.0027627871 1.1078279e-20)
(0.070186876 -0.0077908784 0)
(0.088946592 -0.012691308 1.2089577e-20)
(0.10938545 -0.017436925 -9.7016185e-21)
(0.13145743 -0.022009903 -1.4337121e-20)
(0.15507409 -0.026408654 -1.5738944e-21)
(0.18006762 -0.030659429 -2.2181558e-21)
(0.20685344 -0.034576543 4.6147068e-20)
(0.23766362 -0.037019879 -1.0470129e-20)
(-0.0046450982 0.0097808631 -7.5356684e-21)
(-0.0096772514 0.020747881 2.4516402e-20)
(-0.011064381 0.026160979 -1.0499347e-20)
(-0.0090968325 0.027724446 -2.7469283e-20)
(-0.0039797199 0.026601696 -2.7548146e-20)
(0.0040961848 0.023648409 -1.492157e-20)
(0.014954152 0.019496457 -6.9059732e-22)
(0.02843624 0.014604705 5.54998e-21)
(0.044403154 0.0093034451 1.9615882e-20)
(0.062730505 0.0038284132 7.353086e-21)
(0.083304327 -0.0016547583 -7.1862218e-21)
(0.10601899 -0.0070322428 -2.0102311e-21)
(0.13077359 -0.012229103 -3.8191713e-20)
(0.15746946 -0.017199759 -1.2693646e-20)
(0.18601202 -0.021919742 1.8750608e-20)
(0.2163118 -0.026379726 -2.1021676e-20)
(0.24823226 -0.030602233 -8.9730586e-21)
(0.28151871 -0.034670618 3.0440468e-20)
(0.31660708 -0.038364831 5.0472074e-20)
(0.3566502 -0.039964113 3.3559668e-21)
(-0.0049617687 0.0093139994 1.6783304e-20)
(-0.0091662696 0.019097711 1.4467938e-20)
(-0.0078593648 0.023563368 5.1145487e-20)
(-0.0018585385 0.024328945 2.3387983e-20)
(0.0082957253 0.022523784 1.8251777e-22)
(0.022221944 0.019014384 -3.938846e-20)
(0.039597448 0.014440935 -2.431386e-20)
(0.060147912 0.0092663579 1.0465818e-20)
(0.083639126 0.0038232256 1.4401587e-20)
(0.1098667 -0.0016513027 -1.3113712e-20)
(0.13864564 -0.0069910141 -4.4038717e-20)
(0.16980172 -0.012082853 2.96185e-20)
(0.20316407 -0.016854165 2.0020552e-20)
(0.23855949 -0.021264002 -2.7551157e-20)
(0.27581234 -0.025296411 1.1650136e-20)
(0.31474815 -0.028957177 2.4197614e-20)
(0.3551455 -0.032303063 8.0723951e-21)
(0.39663392 -0.035506688 -1.1764212e-20)
(0.43957707 -0.038392655 -1.4190298e-20)
(0.48798516 -0.038634416 5.8727629e-21)
(-0.0047307765 0.0081236737 1.1093846e-20)
(-0.0070586005 0.015671177 -2.3352721e-20)
(-0.0020293651 0.018562033 8.6200524e-21)
(0.0090325224 0.018216225 3.3587969e-20)
(0.025256365 0.01565115 5.2124339e-20)
(0.046066344 0.011695602 2.0276511e-20)
(0.070984532 0.0069609506 -5.8639357e-21)
(0.099601961 0.0018829487 -1.2286284e-20)
(0.13156896 -0.0032272016 -6.2057474e-21)
(0.16657569 -0.0081496619 3.4240836e-20)
(0.20433427 -0.012733326 -4.5104396e-21)
(0.24456487 -0.016879193 -1.6643302e-20)
(0.28698473 -0.020528693 -1.9693573e-20)
(0.33130002 -0.023656419 -4.744374e-20)
(0.37720463 -0.026265541 2.3238704e-20)
(0.42438775 -0.028387869 -1.4095984e-20)
(0.47249979 -0.030127629 2.59934e-20)
(0.52103623 -0.031783198 2.1040825e-20)
(0.57021401 -0.033350687 -8.5570393e-20)
(0.62470923 -0.032058849 -1.0807158e-22)
(-0.003771052 0.0063146397 2.1925055e-20)
(-0.002865766 0.010735096 -2.6165531e-20)
(0.0071421065 0.011564137 -4.5013295e-20)
(0.024450236 0.0099249893 -2.7253783e-20)
(0.047870857 0.006652305 -2.043987e-21)
(0.076628712 0.0024906155 1.3050094e-20)
(0.11007674 -0.0020153976 -2.8337686e-21)
(0.14765208 -0.0064879071 1.8118537e-20)
(0.18886098 -0.010663507 8.8685607e-21)
(0.23325197 -0.014362426 -1.1380172e-20)
(0.28039152 -0.017468954 8.8779151e-21)
(0.32984607 -0.019916811 -2.3903268e-20)
(0.38116884 -0.021678703 8.0504798e-21)
(0.43389089 -0.022759881 1.6756392e-20)
(0.48751941 -0.023194307 -2.639514e-21)
(0.54154721 -0.023046898 1.6618984e-21)
(0.59543552 -0.022469452 -3.195768e-22)
(0.6485179 -0.021870111 1.9590422e-20)
(0.70082246 -0.021445069 4.0433999e-21)
(0.75745158 -0.018499088 -5.7334621e-22)
(-0.0019110143 0.0040273482 2.3692114e-20)
(0.003869431 0.0046765201 5.7159963e-20)
(0.020315313 0.003187964 -4.9244227e-20)
(0.04517829 0.00029442534 -9.9454148e-21)
(0.07696516 -0.0034241532 2.0256343e-20)
(0.11469624 -0.0073535879 2.1433717e-21)
(0.15753884 -0.011054959 -2.9815161e-20)
(0.20474833 -0.014244142 6.9848092e-21)
(0.25564952 -0.016737932 7.1097892e-21)
(0.30960476 -0.018426961 -2.6254079e-20)
(0.36598651 -0.019260102 1.2927331e-21)
(0.42415963 -0.019231872 -3.7174114e-20)
(0.48347106 -0.018372208 -3.6341017e-20)
(0.5432457 -0.016738282 6.5683483e-20)
(0.60278818 -0.014407308 5.5627485e-21)
(0.66138891 -0.011475904 -1.5188795e-20)
(0.71830791 -0.008102052 1.9363967e-20)
(0.77269908 -0.0045928731 -9.1888136e-22)
(0.82408843 -0.00096805632 2.0364578e-20)
(0.87621974 0.0043280599 -1.9554147e-20)
(-0.018836417 -0.0050997038 5.8352049e-20)
(-0.010224655 -0.0056349271 1.5783666e-20)
(-0.00022119444 -0.0060688799 -3.5139557e-20)
(0.010823226 -0.0063341094 1.6790234e-20)
(0.022642466 -0.0065120466 0)
(0.035177885 -0.0066300894 0)
(0.048369661 -0.0066909726 -2.2974945e-20)
(0.062138076 -0.0067025389 -1.6502868e-20)
(0.076412718 -0.0066741733 1.9122591e-20)
(0.091134079 -0.0066126645 1.8174032e-20)
(0.10624719 -0.0065232045 1.0524251e-21)
(0.12170023 -0.0064103567 -1.0317634e-20)
(0.13744492 -0.0062780798 8.3268791e-21)
(0.15343602 -0.0061297209 1.8233714e-20)
(0.16963079 -0.0059681436 -5.2274173e-21)
(0.18598857 -0.005795833 -1.0174933e-20)
(0.20247061 -0.0056149604 -4.3195866e-21)
(0.21903987 -0.0054274348 -4.4257375e-21)
(0.23566094 -0.0052349483 7.3667161e-22)
(0.25229995 -0.0050390112 1.2286039e-21)
(0.26892455 -0.0048409785 2.5666314e-21)
(0.28550397 -0.00464207 6.6539458e-21)
(0.30200901 -0.0044433848 2.4894339e-22)
(0.31841215 -0.0042459126 -3.4514701e-21)
(0.33468753 -0.0040505407 1.5558747e-22)
(0.35081108 -0.0038580608 -5.7709785e-22)
(0.36676056 -0.0036691728 1.2434364e-21)
(0.38251554 -0.0034844892 1.0522434e-21)
(0.39805752 -0.0033045383 -1.298794e-21)
(0.41336987 -0.0031297684 -1.2218723e-22)
(0.42843786 -0.0029605514 3.5748974e-23)
(0.44324863 -0.0027971873 -3.5187593e-22)
(0.4577912 -0.0026399092 -4.0565471e-22)
(0.47205636 -0.0024888884 5.5413617e-23)
(0.48603672 -0.0023442401 -1.3809041e-22)
(0.49972657 -0.0022060298 -2.2343168e-22)
(0.51312189 -0.0020742797 2.5571934e-22)
(0.52622035 -0.0019489754 2.9501991e-22)
(0.53902113 -0.0018300751 -8.2716407e-24)
(0.55152536 -0.0017175135 -1.5517482e-22)
(0.563735 -0.0016112296 3.0406545e-23)
(0.57565663 -0.001511123 -4.0144803e-23)
(0.58729045 -0.0014172648 9.2204393e-23)
(0.59866545 -0.0013293187 2.1976989e-23)
(0.609736 -0.0012485681 -1.1394766e-22)
(0.62069413 -0.0011718037 -6.7615368e-24)
(0.6310622 -0.0011112559 -7.233529e-26)
(0.64235085 -0.0010339601 -3.5614507e-24)
(0.65042887 -0.0010508191 2.9453673e-23)
(0.66701002 -0.00087557505 3.6051013e-22)
(0.010445879 -0.015017613 -1.2746818e-20)
(0.01817971 -0.016641016 -6.3302339e-20)
(0.027779231 -0.017915418 -3.0541944e-20)
(0.038385164 -0.018672076 3.8476016e-20)
(0.049621009 -0.019183594 1.4662613e-20)
(0.061506654 -0.019529438 -1.8204931e-20)
(0.074012849 -0.019709871 4.6722029e-21)
(0.087062702 -0.019746498 2.5447191e-20)
(0.10059318 -0.019667287 9.1992447e-23)
(0.11455405 -0.019491707 -7.659126e-21)
(0.12889722 -0.019234366 -1.3021017e-20)
(0.14357606 -0.018908318 -8.524532e-21)
(0.15854669 -0.01852498 1.7772336e-20)
(0.1737676 -0.018094008 8.9295483e-21)
(0.18919905 -0.017623686 -1.6522438e-20)
(0.20480283 -0.017121238 -6.0390589e-21)
(0.22054221 -0.016593004 3.2145047e-21)
(0.23638183 -0.016044577 8.3716327e-21)
(0.25228762 -0.015480939 6.9832283e-21)
(0.26822682 -0.014906548 -6.9727184e-21)
(0.28416803 -0.014325421 -3.1685485e-21)
(0.30008121 -0.013741182 1.3605358e-21)
(0.31593777 -0.013157106 3.8683021e-22)
(0.33171066 -0.012576149 1.2113961e-21)
(0.34737443 -0.012000966 1.8368412e-22)
(0.36290527 -0.011433932 -3.2661687e-22)
(0.37828113 -0.01087715 -7.2434936e-22)
(0.39348171 -0.010332462 9.7156752e-22)
(0.40848853 -0.0098014645 8.2483065e-22)
(0.42328493 -0.0092855116 -1.5147499e-22)
(0.43785611 -0.0087857326 5.5306188e-22)
(0.45218904 -0.0083030418 -2.388093e-22)
(0.46627252 -0.007838154 -3.7070003e-22)
(0.48009711 -0.0073915993 -6.0999219e-22)
(0.4936551 -0.0069637408 4.4171784e-22)
(0.50694045 -0.0065547924 -1.5478657e-23)
(0.51994875 -0.0061648388 1.612488e-22)
(0.53267727 -0.005793855 -4.4174981e-22)
(0.54512476 -0.0054417343 3.7189832e-22)
(0.55729188 -0.0051082984 6.7175547e-23)
(0.56918013 -0.0047933824 -1.0285396e-22)
(0.58079558 -0.0044967026 1.761395e-22)
(0.59213799 -0.0042184878 2.3340052e-22)
(0.60323561 -0.0039577484 1.6926847e-22)
(0.614043 -0.00371833 1.6767663e-22)
(0.62474928 -0.003490677 -2.6098837e-23)
(0.63488324 -0.003311239 8.4048609e-23)
(0.64593254 -0.0030818992 7.6296561e-23)
(0.65383102 -0.003132392 -1.9467149e-22)
(0.67009319 -0.0026124809 -3.8026309e-23)
(0.067614704 -0.024029152 9.4528312e-21)
(0.073589688 -0.026749055 3.2950995e-21)
(0.082265527 -0.028805575 -1.2162203e-20)
(0.091947842 -0.029968511 -1.2257918e-21)
(0.10198323 -0.030767871 1.497059e-20)
(0.11254636 -0.031330899 -1.4887124e-20)
(0.123676 -0.031636078 -2.9842275e-20)
(0.13529685 -0.031713013 1.4493524e-20)
(0.14735699 -0.031607644 1.8181968e-20)
(0.15982347 -0.031350064 -1.1598518e-20)
(0.17266064 -0.030961828 1.0190553e-21)
(0.18583087 -0.030462762 8.6860149e-21)
(0.1992979 -0.02987056 -1.5253543e-20)
(0.21302663 -0.029200248 2.9095182e-21)
(0.2269825 -0.028464769 7.5194372e-21)
(0.24113149 -0.027675514 3.1595823e-23)
(0.25544024 -0.026842568 2.6556257e-22)
(0.26987616 -0.025974906 -7.4150879e-21)
(0.28440743 -0.025080575 3.8616863e-21)
(0.29900311 -0.02416683 8.4749076e-21)
(0.31363327 -0.023240244 -3.8351774e-21)
(0.32826906 -0.022306785 -2.2130369e-21)
(0.34288287 -0.021371867 1.0124434e-21)
(0.35744837 -0.020440399 -1.7155336e-21)
(0.37194068 -0.019516806 1.3532257e-21)
(0.38633639 -0.01860506 7.1845939e-22)
(0.40061371 -0.017708688 1.5268422e-21)
(0.41475246 -0.016830798 -1.9526652e-21)
(0.42873416 -0.015974084 2.2235724e-21)
(0.44254204 -0.015140849 5.518863e-22)
(0.45616103 -0.014333021 4.0322847e-22)
(0.4695778 -0.013552176 3.213449e-22)
(0.48278074 -0.012799557 8.7325316e-22)
(0.49575988 -0.012076103 -1.3708655e-21)
(0.50850693 -0.011382475 3.7065731e-22)
(0.52101519 -0.010719087 1.0941479e-22)
(0.53327956 -0.010086137 -4.5172925e-23)
(0.54529651 -0.0094836423 8.6731943e-23)
(0.55706399 -0.0089114824 -3.718519e-22)
(0.56858182 -0.0083694171 1.8293679e-22)
(0.5798506 -0.0078572275 -3.4987304e-23)
(0.59087547 -0.0073744952 3.9004855e-22)
(0.60165536 -0.0069216495 -1.8544776e-22)
(0.61221716 -0.006497102 4.7324077e-23)
(0.62251572 -0.0061072415 4.3604859e-23)
(0.6327348 -0.0057363803 -7.3601752e-23)
(0.64241529 -0.0054444596 -1.2083092e-22)
(0.65300093 -0.0050705572 3.8810739e-22)
(0.66055104 -0.0051543097 1.727113e-22)
(0.67619493 -0.0043070853 -8.3040543e-22)
(0.15021531 -0.031460437 1.5010128e-21)
(0.15354692 -0.035257403 -1.156661e-20)
(0.16061626 -0.038010929 6.644195e-21)
(0.16880594 -0.039479107 -1.3324742e-20)
(0.17698228 -0.040520699 -1.975831e-21)
(0.1855235 -0.04130229 9.159942e-21)
(0.19458424 -0.041757247 -9.7662194e-21)
(0.20408697 -0.041913721 1.5662768e-21)
(0.21398773 -0.041833342 1.29038e-20)
(0.22427605 -0.041554347 3.4032006e-21)
(0.2349326 -0.041102057 -6.2096965e-21)
(0.24593028 -0.040500462 -2.8638107e-21)
(0.25724166 -0.039771762 -5.8409054e-21)
(0.2688392 -0.038935069 -6.4553153e-21)
(0.28069432 -0.03800699 3.235691e-21)
(0.29277772 -0.037002317 8.4620845e-22)
(0.30505985 -0.035934341 1.367959e-21)
(0.3175111 -0.034815038 -3.3850424e-21)
(0.33010207 -0.033655265 -4.2428883e-21)
(0.34280375 -0.032464912 2.3616522e-21)
(0.35558771 -0.031253014 3.225138e-21)
(0.36842628 -0.030027834 -1.5636216e-21)
(0.38129276 -0.02879692 1.5867279e-21)
(0.3941615 -0.027567151 -3.9124089e-22)
(0.4070081 -0.026344763 -3.9196453e-21)
(0.41980944 -0.025135373 -3.0332835e-21)
(0.43254385 -0.023943998 -1.9026384e-22)
(0.44519113 -0.022775072 4.2858859e-22)
(0.45773263 -0.021632464 -2.2106053e-21)
(0.47015127 -0.020519501 -8.5497473e-22)
(0.48243157 -0.019438991 2.2837668e-22)
(0.49455967 -0.018393247 -1.2498717e-21)
(0.50652328 -0.017384125 6.2621687e-24)
(0.51831171 -0.016413055 -4.242107e-22)
(0.5299158 -0.015481078 -4.7193672e-22)
(0.54132796 -0.014588891 -5.1996073e-22)
(0.55254206 -0.01373689 -8.4133702e-22)
(0.56355354 -0.012925215 -5.4495842e-23)
(0.57435922 -0.012153812 -3.9160563e-24)
(0.58495774 -0.011422458 -5.1972812e-22)
(0.59534854 -0.010730958 -9.1606484e-23)
(0.60553546 -0.010078834 -3.3239848e-22)
(0.61551634 -0.0094667788 -4.3760763e-22)
(0.62531615 -0.0088926948 3.7842495e-22)
(0.6348903 -0.0083654668 1.4821289e-23)
(0.64441483 -0.0078636487 1.823813e-22)
(0.65344817 -0.0074694136 -1.324735e-22)
(0.66337089 -0.0069630304 -2.6692093e-22)
(0.67042304 -0.0070792407 -4.4686264e-23)
(0.68518021 -0.0059327872 4.6229983e-22)
(0.25468569 -0.036552764 -2.0900313e-20)
(0.25447023 -0.041393516 4.7585954e-20)
(0.25907335 -0.044745664 1.0348095e-20)
(0.26508415 -0.04644205 -1.5765319e-20)
(0.27070935 -0.047714322 -2.022795e-21)
(0.27651997 -0.048747783 2.623226e-21)
(0.28283552 -0.049413726 -1.6608204e-21)
(0.28957693 -0.049728107 -4.6861422e-21)
(0.2966966 -0.049761439 -4.0159169e-21)
(0.30420549 -0.049557061 -1.220764e-20)
(0.31210221 -0.049141697 1.7897758e-20)
(0.3203694 -0.048540812 6.5219918e-21)
(0.32898703 -0.047778976 -1.6780526e-20)
(0.33793406 -0.04687803 1.0317573e-20)
(0.34718711 -0.045857312 8.3849906e-21)
(0.35672079 -0.044734325 -8.7923514e-22)
(0.36650849 -0.04352508 -3.1222223e-21)
(0.37652294 -0.042244261 -3.819734e-21)
(0.38673647 -0.040905373 -1.389259e-21)
(0.39712136 -0.039520867 -1.2304203e-21)
(0.40765015 -0.038102237 -3.025763e-21)
(0.41829586 -0.036660085 0)
(0.42903222 -0.035204171 -1.3451925e-21)
(0.43983383 -0.03374344 3.9309528e-21)
(0.45067635 -0.032286046 5.4052707e-21)
(0.46153661 -0.030839373 -9.4112582e-22)
(0.47239272 -0.029410048 -2.9274481e-21)
(0.48322413 -0.028003956 3.0258439e-21)
(0.49401174 -0.026626266 2.5447287e-22)
(0.5047379 -0.02528145 3.4352513e-21)
(0.51538643 -0.023973314 -5.3459771e-22)
(0.52594268 -0.022705033 1.7173496e-21)
(0.53639348 -0.021479189 -7.9964596e-22)
(0.54672715 -0.020297819 2.9094326e-22)
(0.55693348 -0.019162458 -4.3404149e-22)
(0.56700374 -0.018074195 5.6231786e-22)
(0.5769306 -0.017033732 4.5710103e-22)
(0.58670822 -0.016041437 3.8255812e-22)
(0.59633212 -0.015097426 -9.5936811e-22)
(0.60579956 -0.014201596 6.8355948e-22)
(0.6151086 -0.013353867 -3.6957674e-22)
(0.62426158 -0.012553799 -1.1033317e-21)
(0.63325507 -0.011802424 1.4078364e-21)
(0.64211179 -0.011097248 -6.2006574e-23)
(0.65078792 -0.010449576 -1.5816309e-22)
(0.65944995 -0.0098327076 -7.8246655e-24)
(0.66767855 -0.0093493308 -1.2622157e-22)
(0.67677451 -0.0087262973 -4.6583917e-22)
(0.68320643 -0.0088737489 8.7882527e-22)
(0.69685213 -0.0074650202 -4.4316139e-23)
(0.37635133 -0.038368174 -1.7495101e-20)
(0.3717098 -0.044270237 1.2832047e-20)
(0.37286694 -0.04816162 2.9754608e-21)
(0.37591049 -0.050098859 -7.6353743e-21)
(0.37830531 -0.05166998 1.2055984e-20)
(0.38072298 -0.053042382 7.7914125e-21)
(0.38367605 -0.054030049 -1.2647691e-20)
(0.38710062 -0.054633112 -6.0679771e-21)
(0.39092928 -0.054918013 1.2697341e-20)
(0.39518248 -0.054927144 -1.5304977e-20)
(0.3998743 -0.054687525 -1.4063193e-20)
(0.40499513 -0.054224663 1.4129639e-20)
(0.41052868 -0.05356367 6.8193849e-21)
(0.41645724 -0.05272796 -4.2037706e-21)
(0.42276021 -0.051739028 -1.854559e-21)
(0.42941411 -0.050616762 -4.0581702e-21)
(0.43639356 -0.049379714 5.3047585e-21)
(0.44367204 -0.04804524 3.6682097e-21)
(0.45122233 -0.046629562 -3.2408298e-21)
(0.45901688 -0.045147829 3.1379495e-21)
(0.46702818 -0.043614174 2.766682e-21)
(0.47522902 -0.042041742 -3.2111152e-21)
(0.4835928 -0.040442718 3.7056576e-22)
(0.49209369 -0.038828334 -3.2571654e-21)
(0.50070678 -0.037208883 7.245425e-21)
(0.50940828 -0.035593725 6.1080666e-21)
(0.5181756 -0.0339913 8.097343e-22)
(0.52698741 -0.032409143 -1.7683251e-21)
(0.53582373 -0.030853905 3.7021859e-21)
(0.54466601 -0.02933138 7.1885357e-21)
(0.55349707 -0.027846541 2.3049346e-21)
(0.5623012 -0.026403583 3.3164956e-21)
(0.57106411 -0.025005967 1.9956258e-21)
(0.57977293 -0.023656478 7.4558214e-22)
(0.58841622 -0.022357285 -2.6374586e-22)
(0.59698393 -0.021110003 2.7203246e-21)
(0.60546743 -0.019915763 6.1992489e-22)
(0.61385946 -0.018775286 2.9487918e-22)
(0.62215414 -0.017688974 5.6232748e-23)
(0.63034727 -0.016656952 9.8967457e-22)
(0.63843543 -0.015679367 4.7020347e-23)
(0.64641938 -0.014755918 4.4248034e-22)
(0.65429439 -0.013888057 -1.262194e-22)
(0.66208072 -0.013073019 -2.7735365e-22)
(0.66973564 -0.01232443 -1.5218954e-22)
(0.67741462 -0.011610922 -4.2208972e-22)
(0.68472451 -0.011053633 1.6140008e-22)
(0.69287285 -0.010332435 -1.2723986e-22)
(0.69859576 -0.010509551 -5.0126125e-22)
(0.7109584 -0.0088818995 2.4587195e-22)
(0.50927433 -0.035974285 3.6471451e-21)
(0.49953042 -0.042960666 -1.89583e-20)
(0.49627559 -0.047383464 -2.3083853e-21)
(0.49555595 -0.049736768 5.4869516e-21)
(0.49416955 -0.051818033 3.0528111e-21)
(0.49269575 -0.053705398 -4.9885244e-23)
(0.49181231 -0.055187636 6.1896697e-21)
(0.49151453 -0.056265385 7.6251031e-21)
(0.49171168 -0.056990519 9.8580418e-21)
(0.49241074 -0.057395559 -1.1250043e-20)
(0.49363106 -0.057506286 -2.1579427e-20)
(0.4953678 -0.057348401 -3.9353492e-21)
(0.4976047 -0.056947114 1.5938147e-20)
(0.50032305 -0.056326991 1.2808961e-20)
(0.50350169 -0.055511714 -5.9066952e-21)
(0.50711656 -0.054523827 1.381703e-21)
(0.51114144 -0.053384764 -3.6600866e-21)
(0.5155488 -0.052114918 2.2443795e-21)
(0.52031034 -0.050733625 -2.9123028e-22)
(0.5253974 -0.049259142 -1.8654105e-21)
(0.53078132 -0.047708637 7.8265943e-21)
(0.53643372 -0.046098187 -2.9308921e-22)
(0.54232679 -0.044442766 4.1818264e-22)
(0.54843349 -0.042756239 -6.5646529e-22)
(0.55472771 -0.04105136 -4.3029414e-21)
(0.56118442 -0.039339764 4.2085193e-21)
(0.56777978 -0.037631985 1.9031223e-21)
(0.57449121 -0.035937462 -3.3081952e-21)
(0.58129749 -0.034264566 -4.1116461e-21)