/*--------------------------------*- C++ -*----------------------------------*\
  =========                 |
  \\      /  F ield         | OpenFOAM: The Open Source CFD Toolbox
   \\    /   O peration     | Website:  https://openfoam.org
    \\  /    A nd           | Version:  6
     \\/     M anipulation  |
\*---------------------------------------------------------------------------*/
FoamFile
{
    version     2.0;
    format      ascii;
    class       volSymmTensorField;
    location    "194";
    object      UPrime2Mean;
}
// * * * * * * * * * * * * * * * * * * * * * * * * * * * * * * * * * * * * * //

dimensions      [0 2 -2 0 0 0 0];

internalField   nonuniform List<symmTensor> 
9200
(
(0.00010215405 -7.9294727e-05 3.7071371e-22 6.3637606e-05 -1.9823001e-22 5.9956447e-39)
(0.00062972764 -0.00050420518 9.4975305e-22 0.00040525104 -7.0875237e-22 6.5222535e-39)
(0.0012729937 -0.00098743082 1.1608753e-22 0.00077038252 -8.7800175e-23 3.5760746e-39)
(0.0020065582 -0.0014537102 -1.4309556e-21 0.0010650149 1.0060407e-21 7.1287922e-39)
(0.0027295997 -0.001867959 6.7790727e-23 0.0013004641 -5.6308544e-23 1.0452827e-39)
(0.0033919648 -0.0022115586 6.0240131e-22 0.0014764903 -3.9979588e-22 1.6430277e-40)
(0.0039589668 -0.0024779775 -1.3031772e-22 0.0015991876 9.0071352e-23 4.7365488e-40)
(0.0044026633 -0.0026676421 1.184398e-22 0.0016787672 -7.960442e-23 3.1901369e-40)
(0.0047037364 -0.0027843347 5.8477713e-22 0.0017250415 -3.5477295e-22 9.1012129e-40)
(0.0048522043 -0.0028335963 4.5480585e-23 0.0017463532 -2.774882e-23 2.5956672e-42)
(0.0048474815 -0.0028219794 -6.3094454e-22 0.0017495896 3.8768944e-22 4.8864467e-40)
(0.0046982806 -0.0027565836 5.2858613e-22 0.001740265 -3.3695861e-22 6.7016921e-41)
(0.0044219533 -0.0026447607 -9.4272899e-22 0.0017226481 6.3519518e-22 1.0461149e-39)
(0.0040430522 -0.0024939351 -4.7870341e-22 0.0016999376 3.2895256e-22 6.703302e-41)
(0.0035911586 -0.0023114886 1.243029e-22 0.0016744546 -9.2099996e-23 8.5494086e-42)
(0.003098173 -0.002104658 -4.6891673e-22 0.0016478274 3.6669462e-22 8.9907666e-41)
(0.0025952886 -0.0018804425 4.1240346e-22 0.0016212517 -3.4958193e-22 1.0899116e-40)
(0.0021099806 -0.0016456317 3.0720741e-22 0.0015963384 -2.7267292e-22 4.4391785e-40)
(0.0016654649 -0.001406498 -1.0448763e-23 0.0015752219 2.2474751e-23 8.1781112e-41)
(0.0012872147 -0.0011674618 -5.7963854e-24 0.0015423399 1.9907368e-23 1.0137025e-40)
(0.00013479857 -9.0107656e-05 3.8710801e-23 6.1857511e-05 -1.4850624e-23 1.0543745e-40)
(0.0008031203 -0.00055675566 1.0060184e-21 0.00038715263 -6.5441301e-22 6.9575017e-39)
(0.0015963468 -0.0010742158 -3.2658975e-22 0.00072695614 2.1902075e-22 3.7793865e-39)
(0.0024466803 -0.0015525865 -2.5683358e-21 0.00099623856 1.6053555e-21 1.6495514e-38)
(0.0032371767 -0.0019592538 -8.8800308e-23 0.0012068867 5.6346077e-23 2.0812742e-40)
(0.0039097874 -0.0022778702 1.9874015e-21 0.0013607532 -1.172693e-21 5.4580907e-39)
(0.0044287652 -0.0025057244 -8.171512e-22 0.0014657491 4.7747234e-22 1.869064e-40)
(0.0047713579 -0.0026475907 -2.4698164e-22 0.0015329418 1.4309439e-22 6.708932e-41)
(0.0049283654 -0.0027113285 9.3916588e-22 0.0015724146 -5.4771491e-22 5.1242606e-40)
(0.0049037459 -0.0027060347 -1.1404652e-21 0.0015923924 6.7642229e-22 5.8828162e-40)
(0.0047134483 -0.0026411994 -8.104314e-22 0.0015993152 4.9297633e-22 7.2679916e-40)
(0.0043836807 -0.0025262189 1.7536869e-21 0.0015979742 -1.1102843e-21 3.6963015e-39)
(0.0039483202 -0.0023701499 8.1835931e-22 0.0015916904 -5.5185793e-22 2.5882452e-40)
(0.0034455279 -0.0021816252 -1.2924165e-21 0.0015825277 9.3126851e-22 1.2788247e-39)
(0.0029139567 -0.0019688492 2.3255223e-22 0.001571499 -1.8080264e-22 1.0659265e-40)
(0.0023890794 -0.0017396081 -5.1786944e-22 0.001558748 4.5156236e-22 2.8404166e-40)
(0.001900106 -0.0015012667 -2.1456042e-22 0.0015437529 2.2062549e-22 8.9416375e-41)
(0.0014678337 -0.0012606223 6.600799e-22 0.0015255962 -7.3941505e-22 1.4456302e-39)
(0.0011047464 -0.0010231508 3.1374689e-22 0.0015015312 -4.1929829e-22 2.7463344e-40)
(0.00081919548 -0.00079429989 -1.3520748e-22 0.0014574956 1.6859394e-22 2.0713103e-39)
(0.00017166082 -9.7785211e-05 -3.247491e-22 5.6953719e-05 1.3826774e-22 2.7113462e-39)
(0.00098802184 -0.00058733021 -5.4125109e-22 0.00035005896 3.0068794e-22 2.8265481e-39)
(0.0019285859 -0.001115984 -6.1740796e-22 0.00064948429 3.5968175e-22 7.0652119e-39)
(0.0028774329 -0.0015850281 2.0567915e-23 0.00088328101 -1.1307932e-23 7.6668687e-43)
(0.0037041498 -0.0019661466 2.5502392e-23 0.0010635305 -1.1961598e-23 5.0761288e-39)
(0.0043471281 -0.0022470754 6.9674112e-22 0.001194091 -3.7162167e-22 1.4194528e-39)
(0.0047758065 -0.0024299224 6.6958837e-23 0.0012839896 -3.3524292e-23 5.8764565e-40)
(0.0049797878 -0.0025239604 -1.1835035e-21 0.0013441869 6.3616031e-22 3.7396764e-40)
(0.004966994 -0.0025406794 1.4029546e-21 0.0013840655 -7.7327104e-22 7.0701619e-40)
(0.0047610991 -0.0024918592 4.6249829e-22 0.0014108176 -2.6759875e-22 7.7740332e-40)
(0.0043980651 -0.0023888019 -1.2745845e-21 0.0014296123 7.7062046e-22 1.6054441e-39)
(0.0039219427 -0.0022420232 -4.0043709e-22 0.0014438144 2.5955258e-22 5.2480416e-40)
(0.0033800225 -0.0020612441 1.452931e-22 0.0014552424 -1.0108339e-22 1.4218084e-39)
(0.0028178551 -0.0018555372 3.4785811e-22 0.001464454 -2.6985322e-22 2.0437826e-40)
(0.0022748734 -0.0016334884 -1.2198616e-22 0.0014710356 1.0581272e-22 1.56412e-40)
(0.0017812668 -0.0014032801 2.8445176e-22 0.0014738875 -2.8489405e-22 1.2371259e-40)
(0.0013564846 -0.0011726576 -1.9641129e-22 0.001471504 2.3169851e-22 4.7453443e-41)
(0.0010093762 -0.00094872558 -4.0061873e-22 0.0014621463 5.5622261e-22 1.1584428e-39)
(0.00073986163 -0.00073744465 -1.3297818e-23 0.0014435404 1.4230324e-23 1.0430823e-39)
(0.00054227901 -0.00054432851 1.3927808e-22 0.0014108967 -3.0281909e-22 1.187987e-40)
(0.00021150167 -0.00010119362 -2.5794755e-22 4.9364275e-05 9.5065269e-23 1.3466528e-39)
(0.0011749316 -0.00059081339 3.947029e-22 0.00029781391 -1.9365412e-22 2.5110449e-40)
(0.0022496999 -0.0011055499 3.5029459e-22 0.00054662788 -1.7279184e-22 2.9085078e-40)
(0.0032694426 -0.0015450096 7.646569e-22 0.00073943287 -3.6515313e-22 3.1376104e-39)
(0.0040950953 -0.0018867183 6.7244458e-22 0.00088793446 -3.1959913e-22 1.3956956e-39)
(0.0046681472 -0.002123696 -1.181873e-21 0.00099740274 5.6229709e-22 1.0653578e-39)
(0.0049710592 -0.0022628411 -6.6147201e-22 0.0010769193 3.2044918e-22 3.0321108e-40)
(0.0050132833 -0.0023169197 0 0.0011362303 0 0)
(0.0048256547 -0.0022995401 7.233804e-22 0.0011830417 -3.9372794e-22 3.9102837e-39)
(0.0044544937 -0.0022234805 -3.1432214e-22 0.0012226985 1.8583958e-22 1.4813355e-39)
(0.0039550741 -0.0021002859 -1.845701e-21 0.0012584534 1.1043898e-21 1.3082996e-39)
(0.0033848755 -0.0019403619 -2.3674463e-22 0.0012917709 1.4960631e-22 2.6466742e-40)
(0.0027972285 -0.0017533004 9.1092462e-22 0.0013226704 -6.8097157e-22 1.7807e-39)
(0.0022362113 -0.0015482053 5.1616956e-23 0.0013501032 -3.3773391e-23 7.3695563e-40)
(0.001733518 -0.0013338437 -1.4110018e-23 0.0013723473 1.3888933e-23 5.1708794e-43)
(0.0013075777 -0.0011185621 1.5182889e-22 0.0013874108 -1.767e-22 9.1015383e-41)
(0.00096472204 -0.00091000416 9.1600609e-25 0.0013933869 3.2443282e-24 1.0669719e-40)
(0.00070179159 -0.00071472967 -2.6985462e-22 0.0013886235 4.5771592e-22 2.7745584e-40)
(0.00050927783 -0.00053781733 -1.4999275e-22 0.0013723599 3.1815894e-22 1.9330853e-40)
(0.0003746272 -0.00038295755 7.5510791e-23 0.0013466082 -2.3318689e-22 1.2142821e-39)
(0.00025249843 -9.9365733e-05 1.9489396e-22 3.9801726e-05 -6.209521e-23 5.2977622e-40)
(0.0013520612 -0.00056389415 8.1192293e-22 0.00023575647 -3.2385224e-22 4.7731692e-39)
(0.0025370883 -0.0010399026 6.3906804e-22 0.00042919783 -2.634392e-22 3.0200499e-40)
(0.0035926963 -0.0014329236 7.1158699e-22 0.0005799817 -2.9086807e-22 1.6788757e-39)
(0.0043782661 -0.0017272127 -1.0951477e-21 0.00069874857 4.5289159e-22 2.6452366e-39)
(0.0048467606 -0.0019211323 4.1799366e-23 0.00079123534 -1.3475875e-23 2.5169997e-40)
(0.0050017366 -0.0020249676 6.2716856e-23 0.00086542083 -2.7361866e-23 2.1165979e-42)
(0.0048784524 -0.0020527771 8.9301283e-22 0.0009288677 -4.1665056e-22 9.4532223e-40)
(0.0045332445 -0.0020179755 1.2065819e-22 0.00098687695 -5.9798319e-23 8.5142118e-42)
(0.0040336365 -0.0019323567 -3.2418993e-22 0.0010424247 1.8430818e-22 5.1155744e-40)
(0.0034489104 -0.0018063202 1.0547882e-21 0.0010965026 -6.5705164e-22 3.5664964e-39)
(0.0028419286 -0.001649429 -7.6910769e-22 0.0011484958 5.0884115e-22 3.066013e-40)
(0.0022631008 -0.0014709256 -1.4493451e-21 0.0011966192 1.1376278e-21 2.1783001e-39)
(0.0017471851 -0.0012799542 -4.7990357e-23 0.0012384089 4.442029e-23 4.6113105e-42)
(0.0013130326 -0.0010854037 5.1689051e-22 0.0012712322 -5.826311e-22 1.7684466e-39)
(0.00096574037 -0.00089546036 0 0.0012927729 0 0)
(0.00070027362 -0.0007170512 6.5220919e-23 0.0013013828 -9.4674116e-23 4.6016875e-41)
(0.00050551242 -0.00055539554 -3.2503775e-23 0.0012961513 7.2298965e-23 6.8494301e-41)
(0.00036769869 -0.00041381771 -3.3191267e-23 0.0012777887 7.3240917e-23 1.7978202e-41)
(0.00027297627 -0.00029371928 1.5536691e-23 0.0012517241 -6.8154877e-23 1.232024e-40)
(0.00029242925 -9.1723663e-05 4.2620298e-22 2.9261848e-05 -1.0980305e-22 2.1424179e-39)
(0.0015069594 -0.00050612406 4.1874051e-23 0.00017045127 -1.374861e-23 3.9634508e-42)
(0.0027691731 -0.00092171404 -1.201294e-22 0.00030938464 4.0596149e-23 1.7546416e-41)
(0.0038219823 -0.0012568926 1.2328996e-22 0.0004209541 -3.9771897e-23 3.4685879e-40)
(0.0045320866 -0.001502439 -7.5401627e-22 0.00051406539 2.6481764e-22 6.5054563e-40)
(0.0048726858 -0.0016605947 -3.6262018e-22 0.00059391677 1.322698e-22 5.8734758e-41)
(0.0048748653 -0.0017422715 2.5670989e-22 0.0006664857 -7.8894784e-23 1.8538137e-39)
(0.0046022418 -0.0017598287 -9.4763935e-24 0.00073660515 1.0695877e-23 1.4503016e-40)
(0.0041348007 -0.0017240359 -6.1176927e-22 0.00080687042 3.0511011e-22 1.5332283e-39)
(0.0035554307 -0.0016441381 1.0615588e-21 0.00087773891 -5.5410738e-22 4.497491e-40)
(0.0029390061 -0.0015287333 -2.8051473e-23 0.00094790833 4.0432357e-23 7.9662768e-40)
(0.0023448666 -0.0013865413 -8.4245483e-22 0.0010147803 6.1609057e-22 2.1952917e-39)
(0.0018132424 -0.0012267079 0 0.0010750298 0 0)
(0.0013654706 -0.0010585488 2.047965e-22 0.0011252342 -2.3469442e-22 1.178437e-39)
(0.0010070896 -0.00089088371 1.0255096e-23 0.0011624708 -2.2120783e-23 6.4519356e-41)
(0.00073245988 -0.00073125437 -2.486715e-22 0.0011847887 3.9554637e-22 1.3690385e-39)
(0.00052958171 -0.00058530289 -5.634526e-23 0.0011914258 1.0205666e-22 2.8542914e-41)
(0.00038414643 -0.00045650955 -1.7169147e-23 0.0011826742 4.7595974e-23 4.5966924e-41)
(0.00028221907 -0.00034638091 -2.2519951e-23 0.0011605661 6.4196149e-23 1.7851899e-41)
(0.00021159432 -0.0002546765 4.04647e-23 0.0011316674 -1.5718132e-22 1.7071402e-40)
(0.00032892236 -7.82238e-05 1.643563e-22 1.8924892e-05 -3.1625149e-23 3.3929121e-40)
(0.0016281196 -0.00042027553 -1.1793069e-21 0.00010886629 2.96786e-22 7.3779642e-39)
(0.0029283408 -0.0007592687 -1.0459693e-22 0.00019910211 2.9662456e-23 6.8890613e-40)
(0.0039404607 -0.0010316942 -3.1452927e-22 0.00027688032 9.2678933e-23 3.4649768e-39)
(0.0045480935 -0.0012332585 -2.3566207e-22 0.00034895837 6.5555117e-23 4.7879653e-41)
(0.0047520523 -0.0013671131 -1.3349365e-21 0.0004193149 4.1476826e-22 6.3348813e-40)
(0.0046139797 -0.001441191 -6.5448407e-22 0.00049160935 2.3126854e-22 5.1145222e-40)
(0.0042239658 -0.0014631599 1.2663948e-21 0.0005679772 -4.7874541e-22 4.1160632e-40)
(0.0036795589 -0.0014393357 2.1680437e-22 0.00064845003 -1.1210014e-22 5.2505234e-40)
(0.0030703917 -0.0013757981 -2.7857305e-22 0.00073112492 1.2688483e-22 1.7954557e-40)
(0.0024680564 -0.0012795528 1.3041183e-22 0.00081260262 -4.8096142e-23 6.7387048e-40)
(0.001921459 -0.0011589788 -2.4883596e-23 0.00088860882 3.3229726e-23 1.708072e-40)
(0.0014571271 -0.0010234546 0 0.00095475165 0 0)
(0.0010830889 -0.00088240283 1.385922e-22 0.0010072738 -1.4479188e-22 4.1207179e-41)
(0.00079450266 -0.00074418002 -2.9483631e-22 0.0010436384 3.8710469e-22 5.625481e-40)
(0.0005793388 -0.00061521354 -9.5762191e-23 0.0010628367 1.4740147e-22 4.8445416e-41)
(0.00042298745 -0.00049960094 1.6558266e-22 0.001065339 -3.3361418e-22 6.720888e-40)
(0.00031133496 -0.00039920836 -3.6557867e-23 0.0010527055 4.8868543e-23 1.4451309e-40)
(0.00023230241 -0.00031422395 -2.2271281e-24 0.0010279013 -4.3578098e-24 1.6213948e-41)
(0.00017618485 -0.00024363679 3.7793259e-23 0.00099719478 -1.1276493e-22 1.4549619e-41)
(0.00035972237 -5.9404944e-05 1.1958435e-22 9.9971833e-06 -1.5691546e-23 2.1246736e-40)
(0.0017064478 -0.00031210444 -1.0934246e-21 5.7391299e-05 1.9704625e-22 3.3838947e-39)
(0.0030031055 -0.00056536135 -8.5432959e-22 0.00010832835 1.694916e-22 4.0496072e-39)
(0.0039415285 -0.0007764852 1.2210604e-21 0.0001588891 -2.5522762e-22 9.9237396e-40)
(0.0044311519 -0.0009431083 9.2190391e-22 0.00021379886 -2.0758747e-22 2.0641051e-40)
(0.0045046399 -0.0010653301 -6.7540549e-22 0.00027580566 1.4919497e-22 2.1502464e-39)
(0.004252805 -0.0011445437 2.2016921e-22 0.0003466603 -8.3910349e-23 9.1053487e-40)
(0.0037861402 -0.0011815744 1.2904955e-21 0.00042635265 -4.5799959e-22 1.0223847e-39)
(0.0032109999 -0.0011776321 5.6598447e-22 0.00051278563 -2.227011e-22 1.2899468e-40)
(0.0026147953 -0.0011360186 -5.5639157e-22 0.00060201645 2.8421838e-22 3.3357097e-40)
(0.0020589688 -0.0010629053 -7.5474358e-22 0.00068887702 4.4989141e-22 3.9872477e-40)
(0.0015786313 -0.00096688247 -2.0579619e-23 0.00076786471 1.487564e-23 4.1565512e-43)
(0.0011868845 -0.00085764256 2.1713911e-22 0.0008341061 -1.8997971e-22 6.4613853e-41)
(0.00088140551 -0.00074440485 -7.5580656e-24 0.00088413902 2.4911346e-23 9.843481e-41)
(0.0006511255 -0.00063465104 -8.0827805e-24 0.00091632917 4.0503608e-23 2.6641406e-40)
(0.00048160076 -0.00053348276 5.8933406e-24 0.00093087065 -5.2869482e-23 4.8126262e-40)
(0.00035854916 -0.0004436079 7.6359375e-23 0.0009294156 -1.5190445e-22 1.4111339e-40)
(0.00026969702 -0.00036578486 -4.3188383e-23 0.00091447808 1.2776918e-22 3.6778435e-40)
(0.00020535722 -0.00029956888 -1.108617e-22 0.00088940522 3.0944201e-22 7.1314303e-40)
(0.00015816363 -0.00024384686 3.7018477e-23 0.00085937348 -9.0436876e-23 1.5973662e-41)
(0.00038305733 -3.634613e-05 -3.1070595e-22 3.539501e-06 2.5892818e-23 6.3477595e-40)
(0.0017365118 -0.00018962576 -2.4353655e-22 2.0959046e-05 2.6125705e-23 6.8466398e-40)
(0.0029892827 -0.00035554163 1.8757367e-21 4.3856685e-05 -2.3797918e-22 8.3678785e-39)
(0.0038291732 -0.00051205733 1.3962268e-21 7.3580374e-05 -2.0186748e-22 9.1425677e-40)
(0.0041979769 -0.0006546903 6.2543988e-22 0.00011370149 -9.7922189e-23 4.4901703e-40)
(0.0041599813 -0.00077644523 1.2621519e-22 0.0001665416 -2.5772168e-23 4.3236344e-42)
(0.0038294006 -0.0008695743 -1.1844219e-21 0.00023295661 2.6210995e-22 1.8768133e-39)
(0.0033282478 -0.0009272675 0 0.00031161815 0 0)
(0.0027624666 -0.00094614745 -7.2521339e-22 0.000398813 3.1299669e-22 1.5541771e-39)
(0.0022101416 -0.000927763 -1.2464447e-22 0.00048891322 8.1811522e-23 3.5211372e-40)
(0.001719028 -0.00087827353 3.5535797e-22 0.00057537601 -2.0547146e-22 8.5984125e-41)
(0.0013105805 -0.00080675494 3.8116064e-23 0.00065198731 -4.8749791e-23 1.9373228e-40)
(0.00098727096 -0.00072300525 -1.6939767e-22 0.00071396343 1.6569285e-22 2.2556193e-40)
(0.00074034954 -0.00063566577 -1.275187e-22 0.00075860308 1.6711477e-22 4.8229267e-40)
(0.00055621344 -0.0005511295 8.2341929e-23 0.00078538527 -8.3432864e-23 5.9218392e-41)
(0.00042066672 -0.00047328994 1.1399127e-22 0.00079560399 -1.466748e-22 5.4692737e-41)
(0.00032119803 -0.00040389144 -1.0146814e-22 0.00079173052 1.6789792e-22 5.0829438e-41)
(0.00024782519 -0.00034317179 -1.3576778e-22 0.00077673232 2.9270205e-22 5.9645516e-40)
(0.00019308233 -0.00029059868 1.0585195e-23 0.00075382383 -2.2277618e-24 7.0083863e-41)
(0.00015149297 -0.00024528255 1.8389251e-23 0.00072678289 -6.2222747e-23 8.2701214e-41)
(0.0003975798 -1.049384e-05 -2.0505839e-22 3.1782525e-07 5.2266847e-24 3.1055329e-40)
(0.0017165874 -6.2104095e-05 8.7577154e-22 2.457643e-06 -3.1373269e-23 1.7221935e-39)
(0.0028899046 -0.00014628595 1.3388744e-21 8.684984e-06 -8.235904e-23 1.24936e-38)
(0.0036170017 -0.00025852791 -1.5680733e-21 2.2839179e-05 1.3519407e-22 3.4401741e-39)
(0.0038741537 -0.00038777097 5.6648829e-22 4.9031932e-05 -6.2123745e-23 8.6723501e-41)
(0.0037523045 -0.00051682095 2.3217783e-22 9.0610645e-05 1.3614752e-24 3.1769886e-39)
(0.0033802303 -0.00062776715 6.1165485e-23 0.00014880623 -1.2392904e-23 1.1452463e-42)
(0.0028818955 -0.00070681233 -8.7024264e-22 0.00022177587 2.0074489e-22 1.0716805e-39)
(0.0023552283 -0.00074735225 -1.9756054e-23 0.00030462561 6.8303068e-24 1.7185362e-43)
(0.0018649577 -0.00075037231 3.2458792e-22 0.00039039305 -1.6891388e-22 4.0852149e-40)
(0.0014448778 -0.00072256686 2.543601e-23 0.00047160875 -2.6058556e-23 5.8422016e-41)
(0.0011052648 -0.00067342371 -1.1710219e-22 0.00054186996 3.1452218e-23 7.5580759e-40)
(0.000841642 -0.00061249436 -2.6036661e-22 0.00059692444 2.1179592e-22 8.4669792e-41)
(0.00064233234 -0.0005475805 -1.4402281e-24 0.00063503239 2.0327706e-23 9.8447347e-41)
(0.00049372099 -0.00048401734 8.8074359e-23 0.00065667683 -1.15656e-22 9.6187555e-41)
(0.00038322627 -0.00042480495 5.8602003e-23 0.0006638863 -9.3113519e-23 9.3292719e-41)
(0.00030054523 -0.00037118033 1.3276137e-23 0.00065946365 -4.4106628e-23 1.5109728e-40)
(0.00023786263 -0.0003232955 -9.3740616e-23 0.00064635327 1.3183173e-22 1.214178e-40)
(0.00018955169 -0.00028081059 -1.9375653e-23 0.00062729151 -1.2581849e-23 5.1822507e-40)
(0.00015157286 -0.00024310624 5.1297018e-23 0.00060468551 -1.5982284e-22 8.5517134e-40)
(2.6567159e-06 -3.3187591e-07 2.6552017e-23 4.054141e-07 -5.313594e-24 3.0348502e-40)
(1.2523252e-05 -5.2417935e-06 -3.7886502e-23 2.69264e-06 1.0497884e-23 2.9217219e-40)
(2.8051307e-05 -1.2113997e-05 8.4154942e-23 5.3678397e-06 -3.1532211e-23 1.6781242e-39)
(8.9932991e-05 -2.5563698e-05 2.3491449e-22 7.698002e-06 -5.0109475e-23 5.6436157e-39)
(0.00019736354 -4.2170607e-05 -1.6784058e-22 9.7919997e-06 2.8599287e-23 1.467739e-39)
(0.00035272378 -6.0760448e-05 2.1157933e-22 1.1651486e-05 -2.8734886e-23 1.6217584e-39)
(0.00056108389 -8.0698462e-05 -2.9057217e-22 1.3278992e-05 3.6922309e-23 1.7812345e-39)
(0.00082379543 -0.00010135032 -2.9974506e-22 1.4708327e-05 3.1370975e-23 1.8833384e-39)
(0.0011396194 -0.00012220123 3.7723722e-22 1.597591e-05 -3.9169998e-23 1.9912514e-39)
(0.0015064609 -0.00014287169 -2.9293739e-22 1.7110162e-05 2.8661743e-23 1.0142192e-39)
(0.0019216997 -0.00016307597 -1.4631761e-23 1.8132693e-05 2.4436844e-25 1.1792193e-41)
(0.0023822328 -0.00018259276 8.4450373e-23 1.9060068e-05 -9.0036333e-24 3.7322246e-41)
(0.0028846209 -0.00020124779 -1.453725e-23 1.9904996e-05 7.0165027e-25 5.9190513e-42)
(0.0034252259 -0.00021890308 4.5957588e-22 2.0677693e-05 -4.1293015e-23 1.7764555e-39)
(0.0040002936 -0.00023545363 5.8427032e-25 2.138758e-05 8.7057287e-25 3.8365918e-42)
(0.0046060371 -0.00025083374 -6.7684137e-22 2.204501e-05 6.3416614e-23 3.6538178e-39)
(0.0052387492 -0.0002650226 1.2561064e-22 2.2661038e-05 -1.3220872e-23 7.7178827e-41)
(0.0058948188 -0.00027801926 3.051889e-22 2.3243875e-05 -3.0266296e-23 9.2915775e-40)
(0.006570656 -0.00028988001 -4.960351e-22 2.3801658e-05 5.2668353e-23 2.6337003e-39)
(0.0072621872 -0.00030099343 -2.7457911e-22 2.4329924e-05 3.1080385e-23 9.8885658e-40)
(3.0089791e-06 -1.3884971e-06 8.7466328e-24 3.5677437e-06 -3.2334816e-24 3.0043014e-41)
(1.5964909e-05 -1.7961644e-05 -2.3993164e-22 2.3727802e-05 1.8090236e-22 9.7711059e-39)
(3.5826247e-05 -4.0779491e-05 4.7614486e-23 4.7287329e-05 -3.9377806e-23 8.8190055e-40)
(0.00010580774 -8.2757242e-05 2.527187e-22 6.7817321e-05 -1.5524828e-22 4.7167704e-39)
(0.00022261727 -0.00013384186 3.5116828e-22 8.6227934e-05 -1.6879791e-22 5.3338341e-39)
(0.0003878742 -0.00019058272 4.2469285e-23 0.00010250829 -1.7035915e-23 5.0106122e-41)
(0.00060604351 -0.00025108433 -1.1293876e-21 0.00011668486 3.9142483e-22 2.6678141e-38)
(0.00087775019 -0.00031347126 -3.9822802e-23 0.0001290576 1.6505774e-23 7.7107948e-42)
(0.0012011043 -0.00037623199 6.3939486e-22 0.0001399467 -1.9474222e-22 4.5532509e-39)
(0.0015734168 -0.00043825223 -1.543759e-22 0.00014960244 4.2641635e-23 2.5318722e-40)
(0.0019914804 -0.0004986905 -5.8633668e-22 0.00015821515 1.6073245e-22 2.8087512e-39)
(0.0024515995 -0.00055689241 1.2343347e-22 0.00016592979 -3.1570506e-23 1.278872e-40)
(0.0029497311 -0.00061233928 5.2120086e-22 0.00017285581 -1.1662221e-22 3.0124969e-39)
(0.0034816082 -0.00066461535 2.1567171e-22 0.00017907884 -5.3661149e-23 3.4410528e-40)
(0.0040428013 -0.00071339566 4.3188339e-22 0.00018467526 -1.1507484e-22 9.9532633e-40)
(0.0046288009 -0.00075846298 -3.4159674e-22 0.00018972678 8.6063398e-23 8.4199984e-40)
(0.0052352238 -0.00079973019 -3.2682452e-22 0.00019432196 8.15219e-23 9.2096485e-40)
(0.005857735 -0.00083716099 3.305906e-22 0.0001985319 -9.3822436e-23 5.3240932e-40)
(0.0064908014 -0.00087090574 3.022509e-22 0.00020243705 -8.3703161e-23 9.308205e-40)
(0.0071278693 -0.00090244572 1.1726215e-22 0.00020602831 -3.1203892e-23 3.953292e-40)
(3.8678156e-06 -3.5547765e-06 6.729981e-24 9.5155717e-06 -3.3678444e-24 1.5817868e-41)
(2.4131808e-05 -3.7119151e-05 1.8222405e-22 6.3339352e-05 -1.9504605e-22 4.1642653e-39)
(5.3927325e-05 -8.202126e-05 -3.987939e-23 0.00012612899 5.1393143e-23 2.1808141e-40)
(0.00014086132 -0.00015708023 -2.7454906e-22 0.00018081539 2.3117788e-22 5.1634311e-39)
(0.0002770643 -0.00024616322 1.0113045e-22 0.00022968474 -8.492711e-23 1.4631531e-40)
(0.00046262318 -0.00034369612 1.340021e-22 0.00027260326 -1.0893924e-22 7.7041566e-41)
(0.00070078438 -0.00044654855 -1.669144e-22 0.00030963457 8.8514383e-23 4.6006948e-40)
(0.00099080027 -0.00055168545 -4.3648019e-22 0.00034157753 2.547181e-22 9.196404e-40)
(0.0013295376 -0.00065668118 1.9105336e-22 0.00036928326 -9.2881358e-23 2.570231e-40)
(0.0017131554 -0.00075974052 4.0577355e-22 0.00039342221 -1.6878309e-22 1.4595153e-39)
(0.0021373092 -0.00085949616 1.1317621e-22 0.00041450706 -7.8351313e-23 5.4893383e-41)
(0.0025971587 -0.00095487284 4.9632379e-22 0.00043292677 -1.6491194e-22 2.7082887e-39)
(0.0030874956 -0.0010450039 4.2114149e-23 0.00044897018 -1.56108e-23 1.1230926e-41)
(0.0036028439 -0.0011291748 -7.3792113e-22 0.00046285444 2.493259e-22 4.3548483e-39)
(0.0041374924 -0.0012068009 5.4387568e-23 0.00047476357 -3.5817298e-23 2.4162458e-41)
(0.0046855777 -0.0012774556 -3.4515004e-22 0.00048488944 9.6152773e-23 1.6968094e-39)
(0.0052414798 -0.0013409233 -4.8718189e-22 0.00049344141 1.9279283e-22 6.9782915e-40)
(0.0057996142 -0.0013970708 7.9145394e-22 0.00050062678 -3.0808545e-22 2.3160918e-39)
(0.0063512008 -0.0014460952 4.1821695e-22 0.00050678514 -1.727688e-22 4.7145113e-40)
(0.0068859606 -0.0014911579 8.3407279e-23 0.00051212224 -3.7883876e-23 1.0117294e-41)
(5.6978336e-06 -7.3524218e-06 -1.0072124e-23 1.7522967e-05 1.2680726e-23 2.3192279e-41)
(3.9561675e-05 -6.5908446e-05 -4.2219932e-22 0.00011684964 5.339379e-22 1.3818282e-38)
(8.7526131e-05 -0.00014208974 -3.0673858e-23 0.00023248001 3.9418735e-23 1.8884313e-40)
(0.00020249493 -0.00025685954 7.0805147e-23 0.00033302132 -7.8380724e-23 1.2042297e-40)
(0.00037023228 -0.00038884559 -1.1399588e-23 0.00042242044 2.9298014e-24 3.1095256e-41)
(0.00058855894 -0.00053047875 3.6071851e-22 0.00050018221 -2.6442531e-22 2.269399e-39)
(0.00085884509 -0.00067738901 3.9894608e-22 0.0005663832 -2.6054402e-22 2.0616598e-39)
(0.0011783081 -0.00082549204 -1.2083237e-22 0.00062249588 5.8408326e-23 3.2487017e-40)
(0.0015419533 -0.00097155884 -4.4342491e-22 0.00067009862 2.3160077e-22 2.0657293e-39)
(0.0019441919 -0.0011131807 -8.9442216e-22 0.00071045335 4.8230927e-22 4.3806886e-39)
(0.0023789518 -0.0012484979 -1.9434725e-23 0.00074453886 -1.0520762e-23 1.0000176e-40)
(0.002839671 -0.0013760254 1.1386836e-21 0.00077310395 -5.3038188e-22 7.1589553e-39)
(0.0033194025 -0.0014945378 -4.6140578e-22 0.00079670296 1.7603022e-22 2.1162777e-39)
(0.0038109169 -0.0016030003 -2.9835007e-22 0.0008157476 1.3064531e-22 4.1766037e-40)
(0.0043067123 -0.0017005318 -3.6133332e-23 0.00083057078 4.034484e-23 9.0160294e-41)
(0.0047991152 -0.0017864401 7.0718944e-22 0.00084149767 -3.1002469e-22 1.7134171e-39)
(0.0052809032 -0.0018603256 -4.0087956e-22 0.00084887426 2.0072707e-22 1.1513564e-40)
(0.0057451085 -0.0019219761 -9.1960475e-22 0.00085313811 3.8732628e-22 3.6887324e-39)
(0.0061793152 -0.0019716641 6.1770507e-22 0.00085534829 -2.6894313e-22 1.8548691e-39)
(0.00656921 -0.0020145087 5.3262747e-22 0.00085670925 -2.1370604e-22 1.7250994e-39)
(9.1123646e-06 -1.3095008e-05 4.5223394e-23 2.671176e-05 -4.3950321e-23 2.9757945e-40)
(6.5639865e-05 -0.00010619821 1.4622275e-23 0.00017834466 -3.7505379e-24 1.3450787e-40)
(0.00014345576 -0.00022458788 -5.8206082e-22 0.00035422223 8.3332244e-22 1.1337042e-38)
(0.0003002561 -0.00038666705 -3.3434703e-22 0.00050664507 3.5510445e-22 3.5064353e-39)
(0.00051388924 -0.00056672262 2.2308428e-22 0.00064122461 -1.7761704e-22 2.1193178e-39)
(0.00077909451 -0.00075519179 2.7754928e-22 0.00075681723 -2.2362053e-22 9.9834919e-40)
(0.0010945582 -0.00094641143 -3.6109915e-22 0.0008534969 2.3577337e-22 2.3360421e-39)
(0.0014546967 -0.0011353767 -5.5076292e-22 0.00093354495 3.159585e-22 5.1262159e-39)
(0.001851937 -0.0013181975 8.1573489e-22 0.00099942828 -4.8708611e-22 5.2600621e-39)
(0.0022782525 -0.0014919553 2.3377941e-22 0.0010531618 -9.4504819e-23 1.224423e-39)
(0.0027251814 -0.0016543739 -7.3774985e-22 0.0010963483 4.8812763e-22 4.0655756e-40)
(0.0031838287 -0.0018036211 3.232244e-22 0.0011302429 -1.4682579e-22 9.4278075e-40)
(0.0036450042 -0.0019381802 0 0.0011558012 0 0)
(0.0040993384 -0.0020567635 3.1533441e-22 0.0011737423 -1.5363397e-22 3.6904603e-40)
(0.004537327 -0.0021582667 -2.3671876e-22 0.0011846361 1.1248474e-22 1.9708051e-40)
(0.0049494902 -0.0022418058 -3.6293896e-22 0.0011889975 1.8119392e-22 2.3939414e-40)
(0.0053272998 -0.0023068764 1.3414066e-22 0.0011873144 -1.0957345e-22 3.3655977e-40)
(0.0056631988 -0.0023533652 -1.0905244e-22 0.0011802705 6.521536e-23 1.2182565e-41)
(0.0059422385 -0.0023818865 5.2321707e-22 0.0011701931 -2.2651474e-22 1.996999e-39)
(0.0061459185 -0.0023993078 -4.2467053e-22 0.0011608672 2.0811162e-22 1.1661923e-40)
(1.4821552e-05 -2.0881694e-05 4.3374459e-23 3.6211325e-05 -3.6468325e-23 2.3893508e-40)
(0.00010618866 -0.00015833917 2.0912884e-22 0.00024161083 -2.7844507e-22 8.927016e-40)
(0.00022925969 -0.00032991167 -2.8068663e-22 0.00047838473 3.724131e-22 2.1274324e-39)
(0.00044419028 -0.00054633326 -4.6100559e-22 0.00068244034 5.1861193e-22 1.7817382e-39)
(0.00071945251 -0.00077836219 -1.3582742e-22 0.0008608737 1.991094e-22 1.4063641e-39)
(0.0010456481 -0.0010143106 -4.1693633e-22 0.0010117121 3.6621254e-22 8.7533664e-40)
(0.0014177417 -0.0012471618 -1.9392914e-22 0.0011351093 1.1938471e-22 1.0113415e-39)
(0.0018264543 -0.0014711709 3.3609512e-22 0.0012342943 -2.0210022e-22 1.8654749e-39)
(0.0022608346 -0.0016820063 8.0390015e-22 0.0013127787 -4.7899215e-22 6.3872375e-39)
(0.0027096934 -0.001876449 2.4775561e-22 0.0013735112 -1.5246552e-22 2.6789113e-40)
(0.0031616161 -0.0020520285 -2.3538191e-22 0.0014189085 1.2493564e-22 4.2494572e-40)
(0.0036050011 -0.0022068013 -4.382528e-23 0.0014509256 -9.6402447e-24 3.7011574e-40)
(0.0040282874 -0.0023392171 -1.1222746e-21 0.0014711072 6.1394658e-22 3.5244081e-39)
(0.0044201803 -0.0024480316 -3.4852179e-22 0.0014806596 1.8222408e-22 3.64549e-40)
(0.0047698091 -0.0025322565 5.8399865e-22 0.0014805462 -3.3763918e-22 1.7330997e-40)
(0.0050669918 -0.002591179 -5.8232173e-22 0.0014715834 3.1460825e-22 3.6080098e-40)
(0.0053034518 -0.0026245221 -2.054714e-22 0.0014544118 1.0114101e-22 1.1532414e-40)
(0.0054733038 -0.0026326148 4.6065373e-22 0.0014297984 -1.9430446e-22 1.7923416e-39)
(0.0055623463 -0.0026168883 6.9876063e-22 0.0014014935 -3.4926136e-22 1.3594503e-39)
(0.0055484848 -0.0025853779 8.5106722e-23 0.0013778058 -3.9778671e-23 2.6467064e-41)
(2.3580711e-05 -3.0604199e-05 -1.2233459e-22 4.523036e-05 9.9328478e-23 1.4136981e-39)
(0.00016501303 -0.00022112943 -1.354568e-22 0.00030076011 1.3742096e-22 1.1268072e-39)
(0.00035205341 -0.00045503612 3.4314944e-22 0.0005926051 -4.3348387e-22 5.1795216e-40)
(0.00064293322 -0.00073051053 5.2323863e-22 0.00084204521 -5.4186275e-22 2.3635447e-39)
(0.00099522632 -0.0010154857 6.8359315e-24 0.0010574109 -6.153846e-24 4.6919699e-43)
(0.0013940179 -0.0012959928 -1.4212226e-21 0.0012359627 1.1723036e-21 1.3802047e-38)
(0.001829322 -0.0015637063 -5.5713367e-22 0.0013781832 4.7656334e-22 1.9776701e-40)
(0.0022872417 -0.0018124554 4.3291242e-22 0.0014884416 -2.9188623e-22 1.5145182e-39)
(0.002752786 -0.002037863 4.9666389e-22 0.0015714655 -3.3336669e-22 9.2632445e-40)
(0.0032112122 -0.0022368363 -4.8672956e-22 0.0016313234 2.7094398e-22 2.5425086e-39)
(0.0036480647 -0.0024071626 -1.4317277e-21 0.0016714451 9.0284755e-22 3.7067812e-39)
(0.0040493757 -0.0025472819 9.4203487e-22 0.0016946841 -5.7038603e-22 1.5239305e-39)
(0.0044020662 -0.0026561537 5.6080006e-22 0.0017033711 -2.9237344e-22 1.825318e-39)
(0.0046943594 -0.0027331712 -7.7796837e-22 0.001699387 4.2895386e-22 1.5064791e-39)
(0.0049161175 -0.002778107 3.4203328e-22 0.0016842554 -1.9720538e-22 1.0107765e-40)
(0.0050592089 -0.0027910875 5.6792094e-22 0.0016592137 -2.9233018e-22 1.1219952e-39)
(0.0051188253 -0.0027726591 2.1646159e-22 0.0016250655 -1.2187284e-22 3.8245493e-41)
(0.0050944296 -0.0027240136 -3.7102633e-22 0.0015823444 2.2885623e-22 4.852002e-41)
(0.0049776943 -0.0026477373 -8.6198389e-23 0.0015356243 2.8076959e-23 2.7784665e-40)
(0.0047456194 -0.0025520444 4.8698357e-22 0.0014989557 -2.8098414e-22 1.1314058e-40)
(3.6133248e-05 -4.1949635e-05 -3.6167849e-24 5.3066943e-05 -3.8723901e-24 2.6389464e-41)
(0.00024539974 -0.0002918546 -4.9297865e-22 0.00035056601 5.2154718e-22 3.7036512e-39)
(0.00051729142 -0.00059362897 -3.9315359e-22 0.00068612644 4.2188769e-22 5.6023577e-39)