/*--------------------------------*- C++ -*----------------------------------*\
  =========                 |
  \\      /  F ield         | OpenFOAM: The Open Source CFD Toolbox
   \\    /   O peration     | Website:  https://openfoam.org
    \\  /    A nd           | Version:  6
     \\/     M anipulation  |
\*---------------------------------------------------------------------------*/
FoamFile
{
    version     2.0;
    format      ascii;
    class       surfaceScalarField;
    location    "142";
    object      phi;
}
// * * * * * * * * * * * * * * * * * * * * * * * * * * * * * * * * * * * * * //

dimensions      [0 3 -1 0 0 0 0];

internalField   nonuniform List<scalar> 
18180
(
0.00031873065
-0.00016316289
-0.00015556776
0.0013092165
-0.0013669276
0.00037644166
0.0030329002
-0.0033336436
0.0016099599
0.0055497962
-0.0059759978
0.0034591017
0.008918233
-0.0092391363
0.0058706996
0.013192865
-0.013079607
0.0088049751
0.018422014
-0.017459942
0.012230793
0.024644699
-0.022345927
0.016123241
0.03188749
-0.027703472
0.020460681
0.040161428
-0.033495992
0.025222054
0.049459344
-0.039682656
0.030384741
0.059753928
-0.046217458
0.035922874
0.070996967
-0.053049131
0.041806091
0.0831202
-0.060121897
0.047998665
0.096038399
-0.067377181
0.054458982
0.10965521
-0.07475637
0.061139563
0.12387115
-0.082204488
0.06798854
0.13859889
-0.089674495
0.07494676
0.15383698
-0.097149261
0.081911165
-0.10462641
0.088679347
0.16978405
0.00039749865
-0.00056066153
0.0016096009
-0.0025790298
0.0036893319
-0.0054133746
0.0066874684
-0.0089741343
0.010650691
-0.013202359
0.015617926
-0.018046842
0.021616335
-0.023458351
0.028657355
-0.029386948
0.036733067
-0.035779183
0.045813291
-0.042576217
0.05584386
-0.049713225
0.0667464
-0.057119997
0.078419878
-0.064722609
0.090744011
-0.072446031
0.10358431
-0.080217478
0.11679816
-0.087970223
0.13024103
-0.095647356
0.14377322
-0.10320669
0.1572588
-0.11063484
-0.11786232
0.1704947
0.00048062518
-0.0010412867
0.001918705
-0.0040171097
0.0043524938
-0.0078471635
0.0078165898
-0.01243823
0.012337705
-0.017723474
0.017929265
-0.023638401
0.024586326
-0.030115412
0.032281307
-0.037081929
0.040960959
-0.044458834
0.05054506
-0.052160319
0.060927226
-0.06009539
0.071977979
-0.068170751
0.083549982
-0.076294612
0.095485002
-0.08438105
0.10762188
-0.092354355
0.11980444
-0.10015279
0.13188817
-0.10773109
0.14374363
-0.11506214
0.15524883
-0.12214004
-0.12891468
0.16630119
0.00056617159
-0.0016074583
0.0022279497
-0.0056788877
0.0050006271
-0.010619841
0.0088940381
-0.016331641
0.013905299
-0.022734736
0.02001194
-0.029745041
0.027166563
-0.037270036
0.03529351
-0.045208876
0.044287967
-0.053453292
0.054017902
-0.061890253
0.064328857
-0.070406345
0.075051275
-0.078893169
0.086009671
-0.087253008
0.097032641
-0.09540402
0.1079626
-0.10328431
0.11866407
-0.11085426
0.12902974
-0.11809676
0.13898304
-0.12501544
0.14847495
-0.13163195
-0.13794555
0.15750582
0.00065088827
-0.0022583466
0.0025243492
-0.0075523487
0.0056036508
-0.013699142
0.0098644927
-0.020592483
0.015264653
-0.028134896
0.021736466
-0.036216855
0.029182553
-0.044716122
0.03747498
-0.053501303
0.0464581
-0.062436412
0.055954944
-0.071387097
0.065776543
-0.080227944
0.075733122
-0.088849749
0.085645821
-0.097165706
0.095357486
-0.10511569
0.10474128
-0.11266811
0.11370624
-0.11981922
0.12219939
-0.1265899
0.13020456
-0.1330206
0.13773796
-0.13916535
-0.14506789
0.1448603
0.00073063793
-0.0029889845
0.0027920939
-0.0096138047
0.0061265906
-0.017033639
0.010666739
-0.025132632
0.016322689
-0.033790846
0.022975295
-0.042869461
0.030474493
-0.05221532
0.038642472
-0.061669282
0.047281268
-0.071075208
0.056183815
-0.080289645
0.065146965
-0.089191094
0.073984669
-0.097687454
0.08253954
-0.10572058
0.090691339
-0.11326748
0.09836147
-0.12033824
0.10551329
-0.12697104
0.11214875
-0.13322537
0.11830233
-0.13917418
0.12403352
-0.14489654
-0.15046358
0.12942921
0.0008007333
-0.0037897178
0.0030139236
-0.011826995
0.0065329098
-0.020552625
0.011240077
-0.029839799
0.016992733
-0.039543502
0.02361859
-0.049495318
0.030918268
-0.059514998
0.038673376
-0.06942439
0.046658832
-0.079060664
0.054657453
-0.088288266
0.062474505
-0.097008146
0.069949989
-0.10516294
0.076966979
-0.11273757
0.083455095
-0.1197556
0.089389081
-0.12627222
0.094783258
-0.13236522
0.099683221
-0.13812533
0.10415638
-0.14364735
0.10828296
-0.14902312
-0.15433382
0.1121532
0.00085606075
-0.0046457786
0.0031720677
-0.014143002
0.00678724
-0.024167797
0.011529824
-0.034582383
0.017203464
-0.045217141
0.023586585
-0.055878439
0.030439916
-0.066368328
0.037519369
-0.076503843
0.044591837
-0.086133131
0.051451033
-0.095147462
0.057930649
-0.10348776
0.063912777
-0.11114506
0.069330625
-0.11815541
0.074165651
-0.12459063
0.078440188
-0.13054676
0.082207244
-0.13613228
0.085539384
-0.14145747
0.088518417
-0.14662638
0.091227188
-0.15173189
-0.15685228
0.093745647
0.00089026425
-0.0055360428
0.0032482896
-0.016501027
0.0068576344
-0.027777142
0.011492483
-0.039217232
0.016906833
-0.050631492
0.022838922
-0.061810528
0.029023697
-0.072553103
0.035209275
-0.082689421
0.041173945
-0.092097801
0.046740402
-0.10071392
0.051784646
-0.10853201
0.056238379
-0.1155988
0.060085089
-0.12200213
0.063351175
-0.12785671
0.066094119
-0.13328971
0.068389937
-0.13842809
0.070321781
-0.14338931
0.071971071
-0.14827567
0.073411737
-0.15317256
-0.15814791
0.074707367
0.00089981991
-0.0064358628
0.0032333859
-0.018834593
0.006729174
-0.03127293
0.011111191
-0.043599248
0.016092502
-0.055612803
0.02138464
-0.067102666
0.026713899
-0.077882362
0.031839124
-0.087814646
0.036567083
-0.09682576
0.040762255
-0.10490909
0.04434944
-0.11211919
0.047309296
-0.11855865
0.049668332
-0.12436116
0.051485719
-0.1296741
0.052839408
-0.13464339
0.053813681
-0.13940237
0.054489551
-0.14406518
0.054938639
-0.14872476
0.055220345
-0.15345427
0.055380759
-0.15830832
-0.00020237911
0.00020237904
8.9078771e-11
-0.00067774912
0.00047536995
9.9410973e-11
-0.0013424308
0.00066468162
1.0291618e-10
-0.0021323018
0.00078987094
1.0992056e-10
-0.0029957834
0.00086348156
1.1059711e-10
-0.0038907531
0.00089496966
1.040292e-10
-0.0047823108
0.00089155762
9.1783301e-11
-0.0056409097
0.00085859881
7.8107239e-11
-0.0064408857
0.00079997602
6.3846583e-11
-0.0071593069
0.00071842115
5.1688673e-11
-0.0077750546
0.00061574768
4.0984567e-11
-0.0082680885
0.00049303381
3.2491542e-11
-0.0086188666
0.00035077809
2.5455349e-11
-0.0088079123
0.00018904567
1.9735709e-11
-0.0088155588
7.6465184e-06
1.5137265e-11
-0.0086219732
-0.0001935856
1.1182555e-11
-0.00820742
-0.00041455317
8.1231813e-12
-0.0075518561
-0.00065556395
5.5782081e-12
-0.0066345247
-0.00091733137
3.9036015e-12
-0.0011862518
-0.005448273
3.1933199e-12
-0.00018797524
0.00039035428
-0.00062500941
0.00091240415
-0.0012287577
0.00126843
-0.0019352012
0.0014963145
-0.0026921481
0.0016204285
-0.0034562948
0.0016591164
-0.0041910792
0.0016263421
-0.0048648715
0.0015323912
-0.0054495364
0.0013846409
-0.0059192979
0.0011881827
-0.006249824
0.00094627373
-0.0064174846
0.00066069447
-0.0063987473
0.00033204074
-0.0061696975
-4.0004084e-05
-0.0057057141
-0.00045633688
-0.0049813887
-0.00091791097
-0.0039707419
-0.0014252
-0.0026471436
-0.0019791622
-0.00098316369
-0.0025813113
-0.0032018315
0.001032416
-0.00015892844
0.00054928271
-0.00051889316
0.0012723689
-0.001000773
0.0017503099
-0.0015412637
0.0020368052
-0.002087355
0.0021665199
-0.0025937406
0.002165502
-0.0030208731
0.0020534746
-0.0033332968
0.0018448149
-0.0034983024
0.0015496465
-0.0034848505
0.0011747308
-0.003262688
0.0007241113
-0.0028016284
0.00019963486
-0.0020709177
-0.00039866998
-0.0010387208
-0.001072201
0.00032830808
-0.0018233657
0.0020653016
-0.0026549045
0.0042091394
-0.0035690378
0.0067981418
-0.0045681646
0.0098720007
-0.0056551703
-0.006779828
0.013449997
-0.00011756727
0.00066684997
-0.00036699932
0.001521801
-0.0006735147
0.0020568253
-0.00097482651
0.002338117
-0.001216854
0.0024085474
-0.0013515922
0.0023002403
-0.0013354548
0.0020373372
-0.0011278189
0.0016371791
-0.00068982913
0.0011116567
1.6555098e-05
0.00046834654
0.0010293434
-0.00028867696
0.0023871613
-0.0011581831
0.0041297958
-0.0021413045
0.0062986766
-0.0032410818
0.0089373823
-0.0044620715
0.012092197
-0.0058097194
0.015812486
-0.0072893263
0.020150392
-0.0089060705
0.025160626
-0.010665405
-0.012492762
0.03087356
-6.690766e-05
0.00073375762
-0.00017916624
0.0016340595
-0.00026653267
0.0021441917
-0.00026768858
0.002339273
-0.00012718847
0.0022680473
0.00020617702
0.0019668748
0.00078070976
0.0014628045
0.0016429735
0.00077491537
0.0028387635
-8.4133332e-05
0.0044138927
-0.0011067826
0.0064147547
-0.002289539
0.0088887407
-0.003632169
0.011884564
-0.0051371283
0.015452593
-0.0068091099
0.019645218
-0.0086546968
0.02451748
-0.010681981
0.030127943
-0.012899789
0.036539205
-0.015317333
0.043818664
-0.017944864
-0.020682748
0.05200865
-9.9843508e-06
0.00074374195
3.4536309e-05
0.0015895389
0.0001998936
0.0019788345
0.00054677257
0.001992394
0.001132259
0.0016825609
0.0020109998
0.0010881339
0.0032361678
0.00023763654
0.0048603437
-0.00084926054
0.0069361745
-0.0021599641
0.0095167474
-0.0036873556
0.012655798
-0.0054285901
0.016407817
-0.0073841875
0.020827972
-0.0095572834
0.025971952
-0.011953089
0.031895864
-0.014578609
0.038656538
-0.017442655
0.046312706
-0.020555957
0.054927068
-0.023931694
0.064570118
-0.027587915
-0.031405874
0.075293244
5.075185e-05
0.00069299009
0.00026566006
0.0013746307
0.00070825988
0.0015362346
0.0014390408
0.0012616131
0.0025168376
0.00060476403
0.0039995929
-0.00039462134
0.0059449528
-0.0017077233
0.0084106562
-0.0033149639
0.011454665
-0.0052039731
0.015135134
-0.0073678243
0.01951014
-0.0098035965
0.024637159
-0.012511206
0.030572326
-0.01549245
0.037369539
-0.018750302
0.045079526
-0.022288596
0.053749299
-0.026112429
0.063422968
-0.030229626
0.074145132
-0.034653858
0.085969824
-0.039412607
-0.044388848
0.098952799
0.00011379708
0.00057919301
0.0005085066
0.00097992113
0.0012459898
0.00079875144
0.0023867914
0.00012081151
0.0039912633
-0.00099970794
0.0061199098
-0.0025232678
0.0088333679
-0.0044211814
0.012192231
-0.0066738271
0.016256644
-0.0092683859
0.021085557
-0.012196737
0.026735687
-0.015453727
0.033260196
-0.019035715
0.040707094
-0.022939348
0.049117443
-0.027160651
0.05852345
-0.031694603
0.06894685
-0.036535829
0.08039872
-0.041681497
0.0928826
-0.047137738
0.10640599
-0.052935998
-0.058996069
0.12101321
0.0001784968
0.0004006962
0.00076003389
0.00039838404
0.0018053481
-0.00024656281
0.0033747306
-0.001448571
0.0055290227
-0.0031540001
0.0083293599
-0.005323605
0.011836547
-0.0079283686
0.016110136
-0.010947416
0.021207143
-0.014365394
0.027180431
-0.018170025
0.034076776
-0.022350073
0.04193467
-0.026893609
0.050781891
-0.031786569
0.060632864
-0.037011624
0.071485811
-0.042547551
0.083319745
-0.048369762
0.096092258
-0.054454011
0.10974086
-0.060786345
0.12419648
-0.067391612
-0.074275052
0.13947546
0.00024512844
0.0010199541
0.0023833512
0.004393882
0.0071105815
0.010591952
0.014894376
0.020070202
0.026165489
0.033217518
0.041252186
0.050281452
0.060300974
0.071288015
0.083199446
0.095969246
0.10950378
0.12366419
0.13818374
0.15258804
-0.003507622
-0.0019406509
5.5658934e-12
-0.0012858079
-0.0022218141
8.9465787e-12
0.0011948344
-0.0024806423
1.2881896e-11
0.0038774056
-0.0026825712
1.7339361e-11
0.006735102
-0.0028576965
2.3328545e-11
0.0097506179
-0.003015516
2.8208441e-11
0.012905019
-0.003154401
3.6407832e-11
0.016180282
-0.0032752635
4.5059764e-11
0.019560707
-0.0033804246
5.4139214e-11
0.023032074
-0.0034713671
6.2748056e-11
0.026581097
-0.0035490231
7.0064342e-11
0.030195351
-0.0036142546
7.5143148e-11
0.033863194
-0.003667843
7.6905279e-11
0.03757363
-0.0037104353
7.4233669e-11
0.041316206
-0.0037425763
6.5822574e-11
0.045080951
-0.0037647456
5.0527814e-11
0.048858326
-0.0037773743
2.7118938e-11
0.052639185
-0.0037808594
-5.1691931e-12
0.056414762
-0.0037755771
-4.6931593e-11
0.060176658
-0.0037618954
-9.7898658e-11
0.06391684
-0.0037401823
-1.5729602e-10
0.067627652
-0.003710812
-2.230151e-10
0.071301822
-0.003674169
-2.920954e-10
0.074932472
-0.0036306504
-3.5980352e-10
0.078513138
-0.0035806656
-4.2042161e-10
0.082037774
-0.0035246356
-4.6633189e-10
0.085500766
-0.0034629907
-4.8937702e-10
0.088896934
-0.0033961674
-4.8006342e-10
0.092221539
-0.003324605
-4.298837e-10
0.095470281
-0.0032487418
-3.3068703e-10
0.098639293
-0.003169012
-1.7828211e-10
0.10172514
-0.003085842
2.8311248e-11
0.10472478
-0.0029996478
2.8189192e-10
0.10763562
-0.0029108329
5.6892762e-10
0.1104554
-0.0028197869
8.6389931e-10
0.11318229
-0.0027268858
1.1343741e-09
0.11581478
-0.0026324924
1.3359792e-09
0.11835173
-0.0025369592
1.4236985e-09
0.12079237
-0.0024406357
1.3492289e-09
0.12313624
-0.0023438688
1.0808256e-09
0.12538328
-0.0022470451
6.0252223e-10
0.1275338
-0.0021505166
-6.3683792e-11
0.12958877
-0.0020549741
-8.5594491e-10
0.13154918
-0.0019604072
-1.659431e-09
0.13341912
-0.0018699403
-2.3216091e-09
0.13519712
-0.0017779912
-2.6740376e-09
0.13690764
-0.0017105179
-2.5407705e-09
0.13850654
-0.0015988953
-1.8761255e-09
0.14019471
-0.0016881694
-6.0962702e-10
-0.0013326139
1.361652e-09
0.002853055
-0.0037612899
0.0049502282
-0.0043189873
0.0072931172
-0.0048235313
0.0098192797
-0.0052087338
0.012507655
-0.0055460715
0.015345917
-0.0058537783
0.018317326
-0.0061258097
0.021405474
-0.0063634121
0.024596344
-0.0065712944
0.027877173
-0.0067521957
0.031235829
-0.0069076788
0.03466083
-0.0070392562
0.038141321
-0.0071483339
0.041666955
-0.0072360693
0.045227814
-0.0073034356
0.048814366
-0.007351297
0.05241743
-0.0073804391
0.056028164
-0.0073915927
0.059638047
-0.0073854598
0.063238885
-0.0073627343
0.066822821
-0.007324118
0.07038234
-0.0072703307
0.073910288
-0.0072021175
0.07739989
-0.0071202516
0.080844758
-0.0070255339
0.084238912
-0.0069187901
0.087576788
-0.0068008661
0.090853242
-0.0066726213
0.094063559
-0.0065349222
0.097203451
-0.0063886339
0.10026905
-0.0062346144
0.10325692
-0.0060737066
0.106164
-0.0059067338
0.10898767
-0.0057344951
0.11172564
-0.0055577626
0.11437604
-0.0053772819
0.11693732
-0.0051937737
0.1194083
-0.0050079385
0.12178813
-0.0048204721
0.12407633
-0.0046320648
0.12627277
-0.0044434891
0.12837771
-0.0042554468
0.13039205
-0.0040693176
0.13231673
-0.0038850837
0.13415575
-0.0037089618
0.13590764
-0.0035298868
0.13759642
-0.0033992973
0.13917898
-0.0031814511
0.140851
-0.0033601945
-0.0026627717
0.015021359
-0.0053326514
0.016852486
-0.0061501149
0.018906054
-0.0068770985
0.021112132
-0.0074148123
0.023459088
-0.0078930271
0.025943268
-0.0083379583
0.028552054
-0.0087345959
0.031271966
-0.0090833247
0.034091905
-0.0093912329
0.03700164
-0.0096619303
0.03999105
-0.009897089
0.043050275
-0.010098482
0.046169791
-0.01026785
0.049340343
-0.010406621
0.0525529
-0.010515993
0.055798653
-0.01059705
0.059069011
-0.010650797
0.062355613
-0.010678194
0.065650335
-0.010680182
0.068945314
-0.010657713
0.072232961
-0.010611765
0.07550599
-0.01054336
0.078757436
-0.010453564
0.081980678
-0.010343494
0.085169459
-0.010214315
0.088317902
-0.010067233
0.091420521
-0.0099034856
0.094472237
-0.0097243371
0.097468375
-0.0095310604
0.10040467
-0.0093249319
0.10327727
-0.0091072157
0.10608273
-0.0088791573
0.10881796
-0.0086419734
0.11148032
-0.0083968462
0.11406747
-0.0081449199
0.11657749
-0.0078872997
0.11900877
-0.0076250562
0.12136007
-0.0073592315
0.12363046
-0.0070908618
0.12581937
-0.006820978
0.12792662
-0.0065507347
0.12995235
-0.0062811837
0.13189742
-0.0060143864
0.13376267
-0.005750334
0.13555196
-0.0054982519
0.13726391
-0.0052418377
0.13892157
-0.0050569526
0.14048415
-0.0047440352
0.14213674
-0.0050127855
-0.0040011677
0.032056877
-0.0065159685
0.033472102
-0.0075653399
0.035077636
-0.0084826324
0.036800502
-0.0091376786
0.038641387
-0.0097339116
0.040606587
-0.010303158
0.042688931
-0.01081694
0.044878896
-0.01127329
0.047168907
-0.011681244
0.049551735
-0.012044758
0.052019672
-0.012365026
0.054564763
-0.012643573
0.057178998
-0.012882084
0.059854333
-0.013081956
0.062582706
-0.013244367
0.065356074
-0.013370418
0.068166456
-0.013461179
0.071005974
-0.013517712
0.073866896
-0.013541104
0.07674167
-0.013532487
0.079622965
-0.01349306
0.082503701
-0.013424095
0.085377083
-0.013326946
0.08823663
-0.013203041
0.091076198
-0.013053883
0.09389
-0.012881034
0.096672623
-0.012686109
0.099419038
-0.012470752
0.10212461
-0.01223663
0.10478509
-0.011985413
0.10739663
-0.011718757
0.10995577
-0.011438296
0.11245942
-0.011145628
0.11490488
-0.010842307
0.1172898
-0.010529839
0.11961218
-0.010209679
0.12187037
-0.009883241
0.12406304
-0.0095519021
0.12618921
-0.0092170345
0.12824824
-0.008880007
0.13023986
-0.0085423539
0.13216415
-0.0082054777
0.13402188
-0.0078721133
0.13581383
-0.0075422853
0.13754368
-0.0072281047
0.13921025
-0.0069083986
0.14083518
-0.0066818882
0.14238119
-0.0062900446
0.14401808
-0.0066496748
-0.0053636976
0.052648969
-0.0071562869
0.053489581
-0.0084059526
0.054483723
-0.0094767744
0.055565707
-0.010219662
0.05675035
-0.010918555
0.058051946
-0.011604754
0.059469006
-0.012234
0.060996662
-0.012800946
0.062630704
-0.013315285
0.064366535
-0.013780588
0.066198632
-0.014197124
0.068120729
-0.014565669
0.070126059
-0.014887414
0.072207522
-0.015163418
0.07435777
-0.015394615
0.076569291
-0.015581939
0.078834492
-0.01572638
0.081145781
-0.015829001
0.083495628
-0.015890952
0.085876632
-0.015913491
0.088281567
-0.015897994
0.09070343
-0.015845958
0.093135483
-0.015758999
0.095571284
-0.015638843
0.098004721
-0.01548732
0.10043003
-0.015306339
0.1028418
-0.015097882
0.10523502
-0.014863971
0.10760505
-0.01460666
0.10994764
-0.014328005
0.11225893
-0.014030051
0.11453545
-0.013714813
0.11677409
-0.013384267
0.11897212
-0.013040333
0.12112715
-0.012684872
0.12323716
-0.012319691
0.12530046
-0.011946539
0.12731569
-0.011567129
0.12928182
-0.011183168
0.13119817
-0.010796363
0.13306445
-0.010408628
0.13488069
-0.010021721
0.13664762
-0.0096390419
0.13836602
-0.0092606792
0.14003939
-0.0089014752
0.14166684
-0.0085358503
0.14326836
-0.0082834122
0.14481108
-0.0078327674
0.14644591
-0.0082844962
-0.0067736021
0.07522225
-0.0070852931
0.075327233
-0.0085109356
0.075551624
-0.0097011652
0.075851939
-0.010519977
0.076256214
-0.011322829
0.0767813
-0.012129841
0.077430235
-0.012882935
0.078202948
-0.013573659
0.079097747
-0.014210085
0.080111485
-0.014794326
0.081239918
-0.015325557
0.08247775
-0.015803501
0.083818797
-0.016228462
0.085256281
-0.016600902
0.086783023
-0.016921357
0.088391573
-0.017190488
0.090074311
-0.017409118
0.091823559
-0.017578249
0.093631675
-0.017699068
0.09549112
-0.017772937
0.09739453
-0.017801404
0.099334761
-0.01778619
0.10130495
-0.017729184
0.10329852
-0.01763242
0.10530927
-0.017498067
0.10733133
-0.017328397
0.10935921
-0.01712577
0.11138784
-0.0168926
0.11341252
-0.01663134
0.11542896
-0.016344443
0.11743326
-0.016034353
0.11942193
-0.015703478
0.12139184
-0.015354175
0.12334024
-0.014988737
0.12526476
-0.014609392
0.12716337
-0.014218296
0.12903437
-0.013817547
0.13087644
-0.013409195
0.13268856
-0.012995289
0.13447008
-0.01257788
0.13622072
-0.012159268
0.13794057
-0.011741573
0.13963038
-0.011328852
0.141291
-0.010921299
0.14292584
-0.010536309
0.14453441
-0.010144424
0.14613487
-0.009883871
0.14769949
-0.0093973935
0.14935783
-0.0099428351
-0.0082629957
0.098025824
-0.0061583182
0.097258572
-0.0077436831
0.096582303
-0.0090248962
0.095997889
-0.0099355639
0.09554146
-0.0108664
0.095224247
-0.011812628
0.095051617
-0.012710306
0.095027575
-0.013549617
0.095151652
-0.014334162
0.095420584
-0.015063258
0.095830011
-0.015734984
0.096374522
-0.016348013
0.097047634
-0.016901574
0.097842114
-0.017395382
0.098750279
-0.017829522
0.099764156
-0.018204365
0.10087561
-0.018520573
0.10207646
-0.018779098
0.10335857
-0.018981182
0.10471396
-0.019128327
0.10613485
-0.019222287
0.1076137
-0.019265046
0.10914332
-0.019258805
0.11071685
-0.019205945
0.1123278
-0.019109014
0.11397009
-0.018970688
0.11563806
-0.018793738
0.11732647
-0.01858101
0.11903051
-0.018335383
0.12074581
-0.01805974
0.12246841
-0.017756954
0.12419477
-0.017429846
0.12592178
-0.017081181
0.12764669
-0.016713649
0.12936716
-0.016329859
0.1310812
-0.01593234
0.13278721
-0.01552355
0.1344839
-0.015105893
0.13617039
-0.014681775
0.13784611
-0.014253604
0.13951093
-0.013824079
0.14116505
-0.013395697
0.14280936
-0.012973166
0.14444489
-0.012556829
0.14607503
-0.012166451
0.14769986
-0.011769249
0.14933562
-0.01151963
0.15096022
-0.011022
0.15268067
-0.011663282
-0.0098736387
0.11918959
-0.0043346926
0.117497
-0.0060510993
0.11585751
-0.0073853998
0.114355
-0.0084330585
0.11302572
-0.0095371238
0.11186719
-0.010654091
0.11088486
-0.011727976
0.11008502
-0.012749775
0.10946707
-0.013716219
0.10902643
-0.014622619
0.10875729
-0.015465838
0.10865297
-0.016243699
0.1087059
-0.016954496
0.10890774
-0.01759723
0.10924979
-0.018171571
0.1097231
-0.018677675
0.11031865
-0.019116115
0.11102741
-0.019487867
0.11184053
-0.019794294
0.1127493
-0.020037103
0.11374533
-0.020218319
0.11482054
-0.020340256
0.11596722
-0.020405485
0.11717808
-0.020416799
0.11844625
-0.020377183
0.11976533
-0.020289769
0.1211294
-0.020157804
0.122533
-0.019984609
0.12397115
-0.019773542
0.12543938
-0.019527968
0.12693365
-0.019251222
0.12845039
-0.018946588
0.12998649
-0.018617276
0.13153924
-0.018266406
0.13310639
-0.017897002
0.13468604
-0.017511994
0.13627672
-0.01711423
0.13787732
-0.016706495
0.13948712
-0.016291573
0.14110577
-0.015872253
0.14273334
-0.01545165
0.1443703
-0.015032659
0.14601778
-0.014620646
0.14767709
-0.014216139
0.14935174
-0.013841099
0.15104246
-0.013459971
0.15276367
-0.013240839
0.15449916
-0.012757489
0.15633324
-0.013497363
-0.011656878
0.13689651
-0.0017557374
0.13437856
-0.0035331554
0.13182001
-0.0048268507
0.12946297
-0.0060760141
0.12733464
-0.0074087912
0.12541639
-0.0087358449
0.12371106
-0.010022646
0.12222374
-0.01126245
0.12095287
-0.01244535
0.11989268
-0.013562433
0.11903567
-0.01460883
0.1183735
-0.015581521
0.11789715
-0.016478154
0.11759712
-0.017297196
0.11746353
-0.018037979
0.11748637
-0.018700513
0.11765562
-0.019285366
0.11796136
-0.019793612
0.11839387
-0.020226802
0.11894368
-0.020586918
0.11960169
-0.020876322
0.12035915
-0.021097721
0.1212078
-0.02125413
0.12213982
-0.021348817
0.1231479
-0.021385271
0.12422528
-0.021367149
0.12536571
-0.021298232
0.12656348
-0.021182384
0.12781345
-0.021023505
0.12911097
-0.020825495
0.13045197
-0.020592214
0.13183284
-0.02032746
0.1332505
-0.020034937
0.13470233
-0.019718241
0.13618619
-0.019380858
0.13770035
-0.019026159
0.13924354
-0.018657421
0.14081489
-0.018277842
0.14241394
-0.01789062
0.14404064
-0.017498954
0.14569539
-0.017106404
0.14737902
-0.016716285
0.14909301
-0.016334631
0.15083907
-0.015962202
0.15262095
-0.015622984
0.15444017
-0.015279186
0.1563094
-0.015110068
0.15821844
-0.014666529
0.16022935
-0.01550827
-0.013672752
0.15005255
0.00077975382
0.14676362
-0.0002442249
0.1434663
-0.0015295301
0.14041854
-0.0030282551
0.13762367
-0.0046139192
0.13507543
-0.0061876044
0.13277565
-0.0077228731
0.13072443
-0.0092112283
0.12891932
-0.010640241
0.12735512
-0.011998236
0.12602401
-0.01327772
0.12491659
-0.014474092
0.12402266
-0.015584229
0.12333158
-0.016606116
0.12283236
-0.017538762
0.1225139
-0.018382048
0.12236511
-0.019136579
0.12237509
-0.019803591
0.12253318
-0.020384889
0.12282905
-0.020882792
0.1232528
-0.021300071
0.12379498
-0.021639904
0.12444667
-0.021905817
0.12519949
-0.022101633
0.12604563
-0.02223142
0.12697792
-0.022299437
0.12798977
-0.022310077
0.1290752
-0.022267819
0.13022888
-0.02217718
0.13144605
-0.022042662
0.13272255
-0.021868721
0.13405482
-0.021659728
0.13543983
-0.021419944
0.13687509
-0.021153501
0.13835863
-0.020864396
0.13988896
-0.020556493
0.14146508
-0.020233537
0.14308642
-0.019899189
0.1447529
-0.019557095
0.14646484
-0.019210897
0.14822307
-0.018864634
0.15002885
-0.018522064
0.15188414
-0.018189917
0.15379112
-0.01786919
0.15575395
-0.017585815
0.15777483
-0.017300058
0.1598653
-0.017200543
0.16201962
-0.016820843
0.16428261
-0.017771267
-0.015986219
0.18890947
0.0053818268
-0.19351154
0.18509946
0.0035657849
0.18170745
0.0018624756
0.17856235
0.00011684051
0.17562683
-0.0016783915
0.17287583
-0.003436612
0.17029115
-0.0051381917
0.16786379
-0.0067838649
0.16558986
-0.0083663148
0.16346722
-0.0098755919
0.161494
-0.011304497
0.15966809
-0.012648181
0.15798684
-0.013902988
0.15644698
-0.015066253
0.15504457
-0.016136356
0.15377516
-0.017112631
0.1526338
-0.017995225
0.15161522
-0.018785004
0.15071382
-0.019483494
0.14992384
-0.020092812
0.14923938
-0.02061561
0.14865448
-0.021055009
0.14816321
-0.021414545
0.14775969
-0.021698105
0.14743813
-0.021909868
0.14719294
-0.022054242
0.14701867
-0.022135809
0.14691011
-0.022159262
0.14686229
-0.022129354
0.14687047
-0.022050843
0.1469302
-0.021928453
0.1470373
-0.021766831
0.14718788
-0.021570521
0.14737832
-0.02134394
0.14760529
-0.02109137
0.14786576
-0.020816961
0.14815697
-0.020524745
0.14847645
-0.020218668
0.14882202
-0.019902669
0.14919181
-0.019580687
0.14958427
-0.019257089
0.14999815
-0.01893595
0.15043271
-0.018624473
0.15088742
-0.018323899
0.15136291
-0.018061304
0.15185903
-0.017796182
0.1523803
-0.017721808
0.15292237
-0.017362917
0.15350835
-0.018357242
-0.016580049
0.21685833
0.0087801298
-0.22025663
0.21338447
0.0070396429
0.21017169
0.0050752583
0.20706641
0.0032221228
0.20401985
0.0013681723
0.20106296
-0.00047972481
0.19821263
-0.0022878645
0.19547338
-0.0040446105
0.1928511
-0.0057440338
0.19035262
-0.0073771161
0.18798315
-0.0089350268
0.18574608
-0.010411113
0.18364341
-0.011800317
0.18167584
-0.01309868
0.17984283
-0.014303345
0.17814275
-0.015412556
0.17657307
-0.016425541
0.17513046
-0.017342396
0.17381098
-0.018164012
0.17261017
-0.018892
0.17152318
-0.019528622
0.17054488
-0.020076716
0.16966996
-0.020539623
0.16889298
-0.020921123
0.16820847
-0.021225357
0.16761099
-0.021456763
0.16709518
-0.021620004
0.16665582
-0.021719902
0.16628785
-0.021761381
0.16598641
-0.021749399
0.16574686
-0.021688908
0.16556483
-0.021584802
0.1654362
-0.021441887
0.16535711
-0.021264853
0.16532401
-0.021058263
0.1653336
-0.020826553
0.1653829
-0.020574045
0.16546921
-0.02030498
0.16559014
-0.020023599
0.16574361
-0.019734154
0.16592786
-0.019441342
0.16614151
-0.019149598
0.16638355
-0.018866517
0.1666535
-0.01859385
0.16695122
-0.018359019
0.16727793
-0.0181229
0.1676329
-0.018076771
0.16802439
-0.017754414
0.16843448
-0.018767326
-0.017055113
0.24376721
0.011504057
-0.24649114
0.2409168
0.0098900526
0.23806362
0.00792844
0.23521669
0.0060690549
0.23233891
0.0042459436
0.22945113
0.0024080623
0.22658454
0.00057871837
0.22375846
-0.0012185288
0.2209888
-0.002974371
0.21829149
-0.0046798084
0.2156804
-0.0063239327
0.21316652
-0.0078972317
0.21075846
-0.0093922605
0.20846279
-0.010803006
0.20628413
-0.012124687
0.20422537
-0.013353796
0.20228786
-0.014488034
0.20047165
-0.015526182
0.19877564
-0.016468007
0.19719782
-0.017314174
0.19573535
-0.01806616
0.19438481
-0.01872617
0.19314223
-0.019297045
0.19200329
-0.019782185
0.1909634
-0.020185462
0.19001777
-0.020511139
0.18916156
-0.020763788
0.18838987
-0.020948217
0.18769788
-0.021069394
0.18708087
-0.021132382
0.18653424
-0.021142278
0.18605359
-0.02110416
0.18563476
-0.021023048
0.18527377
-0.020903872
0.18496696
-0.020751451
0.1847109
-0.020570493
0.18450246
-0.020365603
0.1843388
-0.020141317
0.18421738
-0.019902181
0.184136
-0.019652769
0.18409276
-0.019398109
0.1840862
-0.019143032
0.18411512
-0.01889544
0.18417913
-0.018657856
0.18427732
-0.018457214
0.18441243
-0.018258008
0.18457807
-0.018242411
0.18479613
-0.017972477
0.18500277
-0.018973963
-0.017388952
0.26927492
0.013536986
-0.27130785
0.2671069
0.012058072
0.26476516
0.010270175
0.26232596
0.0085082536
0.25979724
0.006774665
0.25718918
0.0050161268
0.25452789
0.0032400038
0.25183756
0.0014718048
0.24913817
-0.00027498697
0.24644955
-0.0019911791
0.24379096
-0.0036653484
0.24117956
-0.005285828
0.23863006
-0.0068427643
0.23615496
-0.008327907
0.23376456
-0.0097342802
0.231467
-0.011056243
0.22926849
-0.012289517
0.2271734
-0.013431099
0.22518455
-0.014479158
0.22330333
-0.015432954
0.22152992
-0.016292744
0.21986344
-0.01705969
0.21830216
-0.017735761
0.2168436
-0.018323633
0.21548474
-0.018826602
0.21422209
-0.019248481
0.21305181
-0.019593513
0.21196987
-0.019866276
0.21097208
-0.020071607
0.21005422
-0.020214516
0.20921206
-0.020300118
0.20844147
-0.02033357
0.20773844
-0.020320021
0.20709914
-0.020264573
0.20651994
-0.020172252
0.20599745
-0.020047998
0.20552852
-0.019896676
0.20511031
-0.019723102
0.20474024
-0.019532116
0.20441609
-0.019328617
0.20413593
-0.019117953
0.20389828
-0.018905382
0.20370187
-0.018699032
0.20354642
-0.018502398
0.20343044
-0.018341239
0.20335787
-0.018185439
0.20331754
-0.018202075
0.20334267
-0.017997611
0.20332809
-0.018959379
-0.01755937
0.29298562
0.014868109
-0.29431675
0.2915064
0.013537295
0.28978393
0.011992647
0.28788532
0.010406865
0.28584543
0.0088145518
0.28367508
0.0071864731
0.28139269
0.005522398
0.27902149
0.003843004
0.27658279
0.0021637144
0.27409675
0.00049486237
0.27158357
-0.0011521676
0.26906297
-0.0027652326
0.26655329
-0.004333078
0.2640711
-0.0058457216
0.26163116
-0.0072943353
0.25924622
-0.0086713036
0.25692704
-0.0099703445
0.25468245
-0.011186511
0.25251943
-0.012316137
0.25044325
-0.013356774
0.24845764
-0.014307128
0.24656491
-0.015166967
0.24476619
-0.015937033
0.2430615
-0.016618942
0.24144998
-0.017215082
0.23993001
-0.017728515
0.23849937
-0.018162869
0.23715533
-0.018522244
0.23589484
-0.018811115
0.23471456
-0.019034239
0.23361102
-0.019196577
0.23258067
-0.019303216
0.23161996
-0.019359312
0.23072542
-0.019370035
0.2298937
-0.019340535
0.22912163
-0.019275923
0.22840623
-0.019181277
0.22774478
-0.019061653
0.22713483
-0.018922165
0.22657423
-0.018768021
0.22606116
-0.018604878
0.2255942
-0.018438421
0.22517212
-0.018276951
0.22479477
-0.01812505
0.22446033
-0.018006799
0.22417356
-0.01789867
0.22391963
-0.017948145
0.22374012
-0.017818098
0.22349616
-0.018715424
-0.017549304