/*--------------------------------*- C++ -*----------------------------------*\
  =========                 |
  \\      /  F ield         | OpenFOAM: The Open Source CFD Toolbox
   \\    /   O peration     | Website:  https://openfoam.org
    \\  /    A nd           | Version:  6
     \\/     M anipulation  |
\*---------------------------------------------------------------------------*/
FoamFile
{
    version     2.0;
    format      ascii;
    class       volScalarField;
    location    "264";
    object      pPrime2Mean;
}
// * * * * * * * * * * * * * * * * * * * * * * * * * * * * * * * * * * * * * //

dimensions      [0 4 -4 0 0 0 0];

internalField   nonuniform List<scalar> 
9200
(
0.042633124
0.035344784
0.02917407
0.025156389
0.021949074
0.019245449
0.016912238
0.01488146
0.013107861
0.011555209
0.010193503
0.008997606
0.0079463014
0.0070215742
0.0062080491
0.0054925797
0.0048640371
0.004313134
0.0038329337
0.0034143457
0.034585264
0.028619594
0.0236305
0.020350703
0.01771889
0.015493765
0.013570633
0.011896074
0.010434113
0.0091557605
0.0080368234
0.0070568441
0.006198378
0.005446435
0.0047880506
0.0042119803
0.0037085371
0.0032693673
0.0028866578
0.0025492633
0.027038964
0.022345532
0.01846617
0.01588122
0.013790154
0.012013468
0.010473855
0.0091319901
0.0079610285
0.0069390257
0.0060473086
0.0052697384
0.0045922261
0.0040023744
0.0034892226
0.0030430782
0.0026554213
0.0023187233
0.0020254092
0.0017655496
0.020203493
0.016691638
0.013816689
0.011863682
0.010263732
0.0088935519
0.0077012657
0.0066607883
0.0057539044
0.0049651557
0.0042807831
0.0036883476
0.0031765402
0.0027350777
0.0023546581
0.0020269462
0.0017445563
0.0015009318
0.0012895981
0.0011030392
0.014267368
0.01180983
0.0098069143
0.0084058411
0.0072345685
0.0062188404
0.0053295217
0.0045524773
0.0038772052
0.0032938093
0.0027925503
0.0023638937
0.0019986748
0.0016882816
0.0014248196
0.0012012258
0.0010113076
0.00084967359
0.00071133743
0.00059125455
0.0093967194
0.0078324719
0.0065475727
0.0056040532
0.0047882103
0.0040664222
0.0034288846
0.0028716224
0.0023904901
0.0019799019
0.0016330537
0.0013424655
0.0011005254
0.00089993773
0.00073404067
0.00059698368
0.0004837704
0.00039020124
0.00031272096
0.00024821078
0.0057304673
0.0048692149
0.0041328206
0.0035412058
0.0029989677
0.0025038698
0.0020613374
0.0016752718
0.0013461584
0.0010712746
0.00084563088
0.00066302033
0.00051690073
0.0004010237
0.00030981307
0.00023852932
0.00018327232
0.00014090609
0.00010903115
8.5823982e-05
0.0033767926
0.0030048411
0.0026385268
0.0022851161
0.0019282823
0.001587448
0.0012785822
0.0010107961
0.00078727398
0.0006066877
0.0004648362
0.00035613878
0.00027474266
0.00021521565
0.00017289109
0.00014396386
0.00012543227
0.00011499584
0.00011106043
0.00011255622
0.0024101338
0.0022968791
0.0021190954
0.001885089
0.0016215629
0.0013594766
0.0011199943
0.00091441676
0.00074661874
0.00061533279
0.00051633772
0.00044422047
0.00039354049
0.00035946377
0.00033800819
0.00032605053
0.00032121384
0.00032174339
0.0003264812
0.00033466747
0.0028679771
0.0027736905
0.0026041294
0.0023687059
0.0021051425
0.0018451653
0.001609238
0.0014077149
0.0012433113
0.0011137717
0.0010143005
0.00093934611
0.00088364742
0.00084271461
0.00081295459
0.00079160175
0.00077657485
0.00076634012
0.00075981126
0.00075615827
0.10113204
0.085056653
0.070297579
0.06096483
0.05355442
0.047334317
0.041979018
0.037312921
0.033227307
0.029636736
0.026471407
0.023673531
0.021194705
0.018994008
0.017036598
0.01529263
0.013736417
0.012344956
0.011096645
0.0099789893
0.099844889
0.083891804
0.069301743
0.06007619
0.052758609
0.04661779
0.04133111
0.036725853
0.03269455
0.029152581
0.026030805
0.023271992
0.020828218
0.018658983
0.016729815
0.01501121
0.013477818
0.012106972
0.010876946
0.0097756754
0.097219397
0.081585584
0.067360716
0.058364562
0.051237036
0.045256939
0.040108591
0.035624688
0.031700578
0.028253678
0.025216461
0.022533014
0.020156516
0.018047409
0.016172035
0.014501611
0.013011474
0.01167963
0.010484423
0.0094140047
0.093301431
0.078193998
0.064530576
0.055883075
0.0490378
0.043295313
0.03835133
0.034046188
0.030279465
0.026971753
0.024058054
0.021484512
0.019206009
0.017184426
0.015387334
0.013787008
0.012359746
0.011084526
0.0099401285
0.0089145599
0.088197957
0.073813275
0.060893296
0.052705045
0.046226677
0.040792215
0.036113178
0.032039531
0.028476328
0.025348357
0.02259399
0.020162105
0.018009845
0.016100986
0.014404706
0.012894635
0.011548236
0.010345687
0.0092668137
0.008299317
0.082054358
0.068570877
0.056555192
0.048924152
0.042887125
0.037822414
0.03346142
0.02966546
0.026346156
0.023433391
0.02086964
0.018607122
0.01660574
0.014831576
0.013255751
0.011853519
0.010603661
0.0094876655
0.0084870908
0.0075897008
0.075047155
0.062619663
0.051642107
0.044650261
0.039116537
0.034472789
0.030473808
0.026993673
0.023951516
0.021283073
0.018935554
0.016865041
0.015034644
0.013413129
0.011973874
0.010694013
0.0095538033
0.0085360531
0.0076245564
0.0068079463
0.067377608
0.056132481
0.046295376
0.040006044
0.035023226
0.030839609
0.027236133
0.024100714
0.021360739
0.018958416
0.016846205
0.014984504
0.013340018
0.01188454
0.010594012
0.0094477226
0.0084276413
0.0075179714
0.0067050338
0.0059791326
0.059264437
0.049295715
0.040666702
0.035122479
0.030722402
0.027024961
0.023839077
0.021067161
0.018645422
0.016523024
0.01465809
0.013015695
0.011566465
0.010285519
0.0091516344
0.0081465362
0.0072542333
0.0064606353
0.0057549198
0.0051291125
0.050935893
0.042304073
0.034912739
0.030133138
0.026330617
0.023131522
0.020373392
0.01797335
0.015876783
0.01404012
0.012427415
0.011008651
0.0097585658
0.0086557763
0.0076820802
0.0068218891
0.0060617807
0.0053904422
0.0048008431
0.0042853688
0.0087999922
0.0076246761
0.0066282416
0.0057632917
0.0050245059
0.0043917914
0.0038477128
0.0033773127
0.0029684311
0.002611193
0.0022976014
0.0020212498
0.0017769959
0.0015606585
0.0013687905
0.0011985138
0.0010473919
0.00091333435
0.0007945262
0.00068937532
0.00059647221
0.0005145591
0.00044250606
0.0003792924
0.00032399228
0.0002757635
0.00023383875
0.00019751858
0.00016616578
0.0001392007
0.00011609728
9.6379455e-05
7.961799e-05
6.5427325e-05
5.3462714e-05
4.3417249e-05
3.5019146e-05
2.802879e-05
2.2236328e-05
1.7458324e-05
1.3536963e-05
1.0332971e-05
7.7355757e-06
5.6293162e-06
3.9684348e-06
2.6010554e-06
1.6539354e-06
7.6155762e-07
1.0016617e-06
1.6626725e-06
0.0086293348
0.0074929717
0.0065250254
0.0056819602
0.0049611451
0.0043429378
0.0038100769
0.0033481695
0.0029456768
0.0025932172
0.002283205
0.0020095728
0.0017674282
0.0015527615
0.0013622417
0.0011930692
0.0010428614
0.00090956548
0.00079139413
0.00068677626
0.0005943191
0.00051277864
0.00044103642
0.00037808147
0.0003229962
0.00027494548
0.00023316799
0.00019696938
0.00016571678
0.00013883417
0.00011579854
9.6136407e-05
7.9420643e-05
6.5267459e-05
5.3333568e-05
4.3313266e-05
3.4935759e-05
2.7962246e-05
2.2183545e-05
1.7416775e-05
1.3504576e-05
1.0308053e-05
7.7167479e-06
5.6154813e-06
3.9586991e-06
2.5947154e-06
1.6505817e-06
7.5956385e-07
9.9572195e-07
1.630671e-06
0.0083290454
0.0072627725
0.0063463885
0.0055434702
0.0048549309
0.00426231
0.0037488854
0.0033013899
0.0029095171
0.0025648622
0.0022606133
0.0019913117
0.0017525009
0.0015404619
0.0013520556
0.0011846107
0.0010358308
0.00090372311
0.00078654366
0.00068275467
0.00059098978
0.00051002658
0.00043876478
0.00037620882
0.00032145418
0.00027367692
0.00023212521
0.00019611279
0.00016501356
0.00013825724
0.00011532559
9.5749055e-05
7.9103802e-05
6.5008732e-05
5.3122767e-05
4.3142011e-05
3.4797148e-05
2.7850588e-05
2.2094141e-05
1.7345741e-05
1.3448702e-05
1.0264695e-05
7.6837347e-06
5.5910547e-06
3.9414437e-06
2.5834494e-06
1.6447099e-06
7.5604799e-07
9.8385096e-07
1.56816e-06
0.0079175844
0.0069483151
0.0061051759
0.0053602649
0.0047169798
0.0041591025
0.0036714463
0.0032426216
0.0028642342
0.0025293804
0.0022323471
0.0019684732
0.0017338523
0.0015251249
0.001339386
0.0011741202
0.0010271375
0.00089652045
0.00078058064
0.00067782315
0.00058691598
0.00050666492
0.00043599326
0.0003739254
0.00031957374
0.00027212866
0.00023085046
0.00019506309
0.00016414902
0.00013754508
0.00011473895
9.5265954e-05
7.8706232e-05
6.4681948e-05
5.2854667e-05
4.2922645e-05
3.4618305e-05
2.7705477e-05
2.1977123e-05
1.725213e-05
1.3374596e-05
1.0206848e-05
7.6394655e-06
5.5581688e-06
3.9181579e-06
2.5682692e-06
1.636824e-06
7.5143796e-07
9.6604171e-07
1.4783407e-06
0.0074130872
0.0065640852
0.0058145931
0.0051450006
0.004558433
0.0040421785
0.0035844552
0.0031768332
0.0028135109
0.0024895631
0.0022006128
0.001942877
0.0017130294
0.0015080901
0.001325403
0.0011626213
0.0010176749
0.00088873339
0.00077417491
0.00067255644
0.00058258782
0.00050310911
0.00043307203
0.00037152474
0.00031759962
0.00027050373
0.00022951133
0.00019395795
0.00016323568
0.00013678925
0.00011411278
9.4746849e-05
7.8275845e-05
6.4325335e-05
5.2559613e-05
4.2679123e-05
3.4418033e-05
2.7541578e-05
2.1843856e-05
1.7144679e-05
1.3288914e-05
1.0139527e-05
7.5876623e-06
5.51953e-06
3.8907288e-06
2.5504519e-06
1.6275419e-06
7.4628185e-07
9.4246288e-07
1.3659153e-06
0.0068310283
0.0061232334
0.0054865374
0.0049079624
0.0043874203
0.0039172145
0.0034915938
0.0031064823
0.0027591524
0.0024468824
0.0021667162
0.0019157358
0.001691171
0.0014904192
0.0013110843
0.0011510035
0.0010082416
0.0008810714
0.00076795034
0.00066749827
0.00057847535
0.00049976252
0.00043034487
0.00036929801
0.00031577692
0.00026900727
0.00022827855
0.00019293872
0.00016238995
0.00013608509
0.00011352479
9.4254765e-05
7.7863477e-05
6.3979683e-05
5.2270158e-05
4.2437277e-05
3.4216707e-05
2.7374862e-05
2.1706766e-05
1.703298e-05
1.3198989e-05
1.0068275e-05
7.5324428e-06
5.4781349e-06
3.8612357e-06
2.5313958e-06
1.6175113e-06
7.411643e-07
9.1338717e-07
1.2365906e-06
0.0061865142
0.0056389113
0.0051315985
0.0046553525
0.0042065908
0.0037847365
0.0033924481
0.0030311172
0.0027011197
0.002401753
0.0021314007
0.0018879883
0.0016693043
0.0014731501
0.0012974277
0.0011401947
0.00099968179
0.00087428907
0.00076257275
0.00066322976
0.00057508115
0.0004970563
0.00042817902
0.00036755593
0.00031436697
0.00026785777
0.00022733378
0.00019215563
0.00016173542
0.0001355338
0.00011305737
9.3856467e-05
7.7522958e-05
6.3688168e-05
5.2020745e-05
4.2224432e-05
3.4035875e-05
2.7222208e-05
2.1578979e-05
1.6927154e-05
1.3112543e-05
9.9989063e-06
7.4781101e-06
5.4370925e-06
3.8318129e-06
2.5125178e-06
1.6073545e-06
7.3664772e-07
8.7918322e-07
1.0965413e-06
0.0054983815
0.0051261405
0.0047578995
0.004386277
0.0040103391
0.0036388881
0.0032826914
0.0029481752
0.0026383627
0.0023542093
0.002095351
0.0018606476
0.0016485702
0.0014574312
0.0012855201
0.0011311855
0.0009928758
0.00086915534
0.00075870488
0.00066031636
0.00057288369
0.00049539249
0.00042691021
0.00036657736
0.00031360018
0.00026724472
0.00022683215
0.00019173509
0.00016137465
0.00013521818
0.00011277714
9.3605255e-05
7.7296745e-05
6.3484444e-05
5.1837914e-05
4.2061402e-05
3.3891765e-05
2.7096187e-05
2.1470164e-05
1.6834572e-05
1.3035143e-05
9.9355705e-06
7.4276961e-06
5.3985684e-06
3.8039059e-06
2.4947596e-06
1.5973811e-06
7.3310327e-07
8.4026815e-07
9.5196632e-07
0.0047853214
0.0045913765
0.0043568734
0.0040812227
0.0037774661
0.0034623708
0.0031497709
0.0028487252
0.0025644275
0.0022995021
0.0020549915
0.0018309443
0.0016267665
0.0014414763
0.0012738918
0.0011227546
0.00098680355
0.0008648169
0.00075563393
0.0006581645
0.00057139085
0.00049436519
0.00042620541
0.00036609044
0.00031325576
0.00026698963
0.00022662996
0.00019156182
0.00016121547
0.00013506475
0.00011262562
9.3454743e-05
7.7148121e-05
6.3339529e-05
5.1698868e-05
4.1930328e-05
3.3770466e-05
2.6986039e-05
2.1372072e-05
1.6748989e-05
1.2962126e-05
9.8748529e-06
7.3787539e-06
5.3608586e-06
3.7763366e-06
2.4773588e-06
1.5869343e-06
7.3035717e-07
7.9725298e-07
8.092285e-07
0.0040758094
0.0040182239
0.0038904537
0.0037048933
0.0034809856
0.0032347309
0.002977842
0.0027201421
0.00246899
0.0022291099
0.0020033067
0.0017931212
0.0015991748
0.0014214223
0.0012593841
0.0011123235
0.00097936447
0.00085956726
0.0007519783
0.00065566016
0.00056970842
0.00049326006
0.00042549692
0.00036564638
0.0003129808
0.00026681645
0.00022651242
0.00019146961
0.00016112993
0.00013497557
0.00011252829
9.3348591e-05
7.7034805e-05
6.3221961e-05
5.158043e-05
4.1814351e-05
3.36599e-05
2.6883283e-05
2.1278902e-05
1.6666567e-05
1.2891072e-05
9.8153214e-06
7.3305204e-06
5.3235951e-06
3.7489756e-06
2.460196e-06
1.5759295e-06
7.2824018e-07
7.5176601e-07
6.750251e-07
0.0033039992
0.0033251644
0.0032842941
0.0031849646
0.0030454775
0.0028775033
0.0026890839
0.0024889704
0.0022852317
0.0020838074
0.0018888017
0.0017030518
0.0015283798
0.0013657765
0.0012156212
0.0010778749
0.00095221863
0.00083815211
0.00073506553
0.00064228936
0.00055912762
0.0004848795
0.00041885324
0.00036037498
0.00030879441
0.00026348856
0.0002238643
0.0001893602
0.00015944789
0.00013363302
0.00011145583
9.2491417e-05
7.6349583e-05
6.2674387e-05
5.1143291e-05
4.1466008e-05
3.3383092e-05
2.6664201e-05
2.1106459e-05
1.6531851e-05
1.2786867e-05
9.7359145e-06
7.2710459e-06
5.2808552e-06
3.7187593e-06
2.4426854e-06
1.5632381e-06
7.2697979e-07
7.0439691e-07
5.5685109e-07
0.0025611751
0.0026259692
0.0026395317
0.002601704
0.0025270541
0.0024241284
0.0022976913
0.0021544679
0.002001667
0.0018449729
0.0016886283
0.0015359004
0.0013891971
0.0012501391
0.0011197192
0.00099846538
0.00088656379
0.00078395252
0.00069039573
0.00060553974
0.00052895366
0.00046015844
0.00039864761
0.00034390222
0.00029540158
0.00025263133
0.00021508946
0.00018229103
0.00015377189
0.00012909157
0.00010783547
8.9616457e-05
7.4075887e-05
6.0884066e-05
4.9740243e-05
4.0372157e-05
3.253522e-05
2.6011305e-05
2.0607516e-05
1.6154039e-05
1.2503895e-05
9.5271432e-06
7.1195206e-06
5.1746763e-06
3.6453192e-06
2.39883e-06
1.5321008e-06
7.1967868e-07
6.4384879e-07
4.4439302e-07
0.0019222351
0.0020158159
0.0020674649
0.002076928
0.0020531148
0.0020022523
0.0019272703
0.0018329436
0.0017251973
0.0016091059
0.0014887008
0.0013673195
0.001247649
0.0011317048
0.0010209178
0.00091625603
0.00081832256
0.00072743515
0.00064369435
0.00056703934
0.00049729124
0.00043418612
0.00037740035
0.00032656987
0.0002813051
0.00024120249
0.00020585371
0.00017485292
0.00014780272
0.00012431887
0.00010403406
8.6600858e-05
7.1693802e-05
5.9010894e-05
4.8274405e-05
3.9231144e-05
3.1652256e-05
2.5332557e-05
2.008973e-05
1.5762653e-05
1.2211256e-05
9.3116062e-06
6.9632669e-06
5.06538e-06
3.5694801e-06
2.3538978e-06
1.4986325e-06
7.1333195e-07
5.779477e-07
3.3868402e-07
0.0013852196
0.0014937742
0.0015688767
0.0016111793
0.0016246555
0.0016134261
0.0015794061
0.0015257053
0.0014567146
0.0013766104
0.0012889482
0.0011968436
0.0011029782
0.0010095252
0.00091816707
0.00083016783
0.00074644105
0.00066760842
0.00059405505
0.00052597877
0.00046343127
0.00040635141
0.0003545921
0.00030794205
0.0002661432
0.00022890488
0.00019591528
0.00016685096
0.00014138462
0.00011919151
9.9954682e-05
8.3369125e-05
6.914505e-05
5.7010299e-05
4.6712015e-05
3.8017655e-05
3.0715428e-05
2.4614199e-05
1.9543142e-05
1.5350574e-05
1.1903936e-05
9.0857888e-06
6.7998844e-06
4.9512146e-06
3.4901571e-06
2.3067429e-06
1.4625975e-06
7.068523e-07
5.1145058e-07
2.48037e-07
0.00095331039
0.0010626418
0.0011476973
0.0012090615
0.0012470653
0.0012637896
0.0012603685
0.001238615
0.0012014195
0.0011518992
0.0010929492
0.0010272528
0.00095725566
0.00088507277
0.00081245467
0.00074081109
0.00067124647
0.00060459528
0.00054145981
0.00048224827
0.00042720936
0.00037646225
0.00033002214
0.00028782213
0.00024973142
0.00021557074
0.00018512525
0.00015815548
0.00013440649
0.00011361564
9.5518975e-05
7.985656e-05
6.6376726e-05
5.4839405e-05
4.501862e-05
3.670423e-05
2.9703018e-05
2.3839189e-05
1.8954487e-05
1.490756e-05
1.1574103e-05
8.8437494e-06
6.6249377e-06
4.8288506e-06
3.4050068e-06
2.2554899e-06
1.4230904e-06
6.9904748e-07
4.4706618e-07
1.7680845e-07
0.00062252452
0.00072122926
0.00080487308
0.00087324417
0.00092436264
0.00095851598
0.00097602282
0.00097767404
0.00096507319
0.0009402668
0.00090538652
0.00086255129
0.00081381048
0.0007610498
0.00070592735
0.00064985747
0.00059401622
0.00053935378
0.00048661354
0.00043635595
0.00038898341
0.00034476397
0.00030385305
0.00026631307
0.00023213076
0.00020123238
0.00017349699
0.00014876794
0.00012686284
0.00010758213
9.0716434e-05
7.6052651e-05
6.3379113e-05
5.2489688e-05
4.3187021e-05
3.5284964e-05
2.8610303e-05
2.3003816e-05
1.8320892e-05
1.4431407e-05
1.1220069e-05
8.5841779e-06
6.4374128e-06
4.6974304e-06
3.3134004e-06
2.1994166e-06
1.3799561e-06
6.8905753e-07
3.8702134e-07
1.2650482e-07
0.00038213473
0.00046321136
0.00053724137
0.00060316287
0.00065787792
0.00070038411
0.00073020972
0.00074732082
0.00075229805
0.0007462244
0.00073045687
0.00070649326
0.00067589351
0.00064019475
0.00060083693
0.00055911908
0.00051617999
0.00047299102
0.00043035791
0.00038892981
0.00034921285
0.00031158553
0.00027631462
0.00024357073
0.00021344308
0.00018595312
0.00016106702
0.00013870681
0.00011876046
0.00010109071
8.5542841e-05
7.195135e-05
6.0145676e-05
4.9954921e-05
4.1211718e-05
3.3755258e-05
2.743359e-05
2.2105218e-05
1.76402e-05
1.3920519e-05
1.084067e-05
8.3062128e-06
6.2366695e-06
4.5564106e-06
3.2149674e-06
2.138018e-06
1.3332822e-06
6.7610352e-07
3.33032e-07
9.5932187e-08
0.0002182611
0.00027873796
0.00033828114
0.00039528898
0.00044643107
0.00048999517
0.00052490215
0.00055049262
0.00056659018
0.00057349277
0.00057185224
0.00056255852
0.00054665741
0.00052527486
0.00049954703
0.00047056671
0.00043934608
0.00040679397
0.00037370379
0.00034074951
0.00030848802
0.0002773654
0.00024772582
0.00021982181
0.00019382518
0.00016983787
0.00014790254
0.00012801261
0.00011012154
9.4151401e-05
8.0000565e-05
6.7550546e-05
5.6671986e-05
4.7229778e-05
3.9087363e-05
3.2110234e-05
2.6168703e-05
2.1139987e-05
1.690973e-05
1.3372855e-05
1.0434386e-05
8.0087352e-06
6.0218991e-06
4.405172e-06
3.1093215e-06
2.0708683e-06
1.2832604e-06
6.595762e-07
2.8609788e-07
8.1493654e-08
0.000116382
0.00015621746
0.00019925318
0.00024370605
0.00028654346
0.00032583269
0.00036016484
0.0003884837
0.00041010895
0.00042476301
0.00043252198
0.00043373834
0.00042897317
0.0004189345
0.00040441689
0.00038624893
0.00036525137
0.00034220444
0.00031782533
0.00029275429
0.00026754739
0.00024267435
0.00021852023
0.00019538979
0.00017351377
0.00015305616
0.00013412209
0.00011676588
0.00010099893
8.6797346e-05
7.4109111e-05
6.2860609e-05
5.296256e-05
4.4315238e-05
3.6812984e-05
3.0348005e-05
2.4813493e-05
2.0106079e-05
1.6127731e-05
1.2787012e-05
1.000016e-05
7.6909857e-06
5.7925866e-06
4.243372e-06
2.9963167e-06
1.9978435e-06
1.2302782e-06
6.3923911e-07
2.4656328e-07
7.8104812e-08
6.2793509e-05
8.380741e-05
0.00011043847
0.00014099003
0.00017297396
0.00020456877
0.0002343069
0.00026096557
0.00028359068
0.00030153884
0.00031447109
0.00032231406
0.0003252158
0.0003235021
0.00031763096
0.00030814768
0.00029564501
0.00028072953
0.000263994
0.00024599666
0.00022724712
0.00020819737
0.00018923712
0.00017069248
0.00015282737
0.00013584683
0.00011990165
0.00010509387
9.1482764e-05
7.9090969e-05
6.7910606e-05
5.7909133e-05
4.9034836e-05
4.1221843e-05
3.4394596e-05
2.8471744e-05
2.3369438e-05
1.9004043e-05
1.5294301e-05
1.2162929e-05
9.5379162e-06
7.3529483e-06
5.5487951e-06
4.0711543e-06
2.876195e-06
1.9192275e-06
1.1749321e-06
6.152952e-07
2.142665e-07
8.0441942e-08
4.5448653e-05
5.0445918e-05
6.214881e-05
7.9098733e-05
9.941482e-05
0.00012156602
0.00014422468
0.00016619293
0.00018643557
0.0002041309
0.00021868886
0.00022974134
0.00023712209
0.00024084221
0.00024106122
0.00023805466
0.00023218138
0.00022385329
0.00021350868
0.00020158936
0.00018852245
0.00017470698
0.00016050432
0.00014623226
0.00013216196
0.00011851735
0.0001054764
9.3173772e-05
8.1704479e-05
7.1128187e-05
6.1473881e-05
5.2744654e-05
4.4922424e-05
3.7972439e-05
3.1847449e-05
2.6491458e-05
2.1843023e-05
1.7838059e-05
1.4412161e-05
1.1502428e-05
9.0489479e-06
6.995613e-06
5.2913414e-06
3.8892594e-06
2.749653e-06
1.8357411e-06
1.1180031e-06
5.8836702e-07
1.887098e-07
8.4109096e-08
5.4290147e-05
4.6412976e-05
4.5400113e-05
5.0084841e-05
5.9152447e-05
7.1425877e-05
8.5826353e-05
0.00010130992
0.00011690253
0.00013175405
0.00014516839
0.00015661213
0.00016571318
0.00017225343
0.00017615545
0.00017746364
0.00017632199
0.00017295069
0.00016762362
0.00016064744
0.00015234306
0.00014303011
0.00013301475
0.00012258041
0.0001119814
0.0001014389
9.1139189e-05
8.1233419e-05
7.1838898e-05
6.3041313e-05
5.4897701e-05
4.7439882e-05
4.0678125e-05
3.4604863e-05
2.9198315e-05
2.4425882e-05
2.0247247e-05
1.6617107e-05
1.3487522e-05
1.0809851e-05
8.5363472e-06
6.6212581e-06
5.0219656e-06
3.6991065e-06
2.6178644e-06
1.7484998e-06
1.0603857e-06
5.5936785e-07
1.6915192e-07
8.6332501e-08
8.1238758e-05
6.3544014e-05
5.2288152e-05
4.6585902e-05
4.5597489e-05
4.8489799e-05
5.4466564e-05
6.2702394e-05
7.23721e-05
8.2701649e-05
9.3001507e-05
0.00010268408
0.0001112739
0.0001184128
0.00012385926
0.00012748166
0.00012924678
0.0001292052
0.00012747516
0.00012422593
0.00011966193
0.00011400786
0.00010749587
0.00010035486
9.2801979e-05
8.5036323e-05
7.7234566e-05
6.9548411e-05
6.210353e-05
5.4999778e-05
4.8312362e-05
4.2093764e-05
3.6376153e-05
3.1174113e-05
2.6487489e-05
2.2304227e-05
1.8603088e-05
1.5356142e-05
1.2531001e-05
1.0092733e-05
8.0054912e-06
6.2337719e-06
4.7435264e-06
3.5028853e-06
2.4825065e-06
1.6589624e-06
1.0030336e-06
5.2935241e-07
1.5465988e-07
8.6023886e-08
0.00011999984
9.5221225e-05
7.6139295e-05
6.2107585e-05
5.2653975e-05
4.7240314e-05
4.5336249e-05
4.6348112e-05
4.9638373e-05
5.4568994e-05
6.0532097e-05
6.6969179e-05
7.3386187e-05
7.9365739e-05
8.4574844e-05
8.8767338e-05
9.1781506e-05
9.3533908e-05
9.4010417e-05
9.3255358e-05
9.1359709e-05
8.8449124e-05
8.4672442e-05
8.019123e-05
7.5170754e-05
6.9772455e-05
6.4148053e-05
5.8435189e-05
5.275454e-05
4.7208214e-05
4.1879245e-05
3.683199e-05
3.211322e-05
2.7753723e-05
2.3770239e-05
2.0167574e-05
1.6940766e-05
1.4077186e-05
1.1558512e-05
9.3625039e-06
7.4645561e-06
5.8390083e-06
4.4602257e-06
3.3036686e-06
2.3457939e-06
1.5688788e-06
9.4691928e-07
4.9936664e-07
1.4414637e-07
8.3321986e-08
0.0001657915
0.00013623569
0.00011150561
9.1141653e-05
7.493632e-05
6.2582957e-05
5.3774076e-05
4.812732e-05
4.5194788e-05
4.4496931e-05
4.5547382e-05
4.7869611e-05
5.1011994e-05
5.4562242e-05
5.8159228e-05
6.1500966e-05
6.4348688e-05
6.6527402e-05
6.7923406e-05
6.8479283e-05
6.8186998e-05
6.7079776e-05
6.5223418e-05
6.2707579e-05
5.963752e-05
5.6126667e-05
5.2290168e-05
4.8239615e-05
4.4078931e-05
3.9901418e-05
3.5787853e-05
3.180553e-05
2.8008089e-05
2.4435981e-05
2.1117426e-05
1.8069696e-05
1.5300617e-05
1.2810158e-05
1.0592011e-05
8.6351121e-06
6.9250197e-06
5.4451642e-06
4.1778707e-06
3.1055719e-06
2.2105639e-06
1.4802944e-06
8.930603e-07
4.7037245e-07
1.3648061e-07
7.8945252e-08
0.00021506083
0.00018259011
0.00015406586
0.00012916694
0.00010786254
9.0014671e-05
7.5486778e-05
6.407033e-05
5.5485964e-05
4.9408285e-05
4.5483985e-05
4.3343958e-05
4.2615528e-05
4.29357e-05
4.3963595e-05
4.5390633e-05
4.6948113e-05
4.8412158e-05
4.9606078e-05
5.0400273e-05
5.0709973e-05
5.0491225e-05
4.9735623e-05
4.846425e-05
4.6721277e-05
4.4567623e-05
4.2075006e-05
3.9320587e-05
3.6382404e-05
3.3335647e-05
3.0249814e-05
2.7186705e-05
2.4199189e-05
2.1330645e-05
1.8614966e-05
1.6077003e-05
1.373334e-05
1.1593279e-05
9.6599537e-06
7.9314749e-06
6.4020587e-06
5.063107e-06
3.9041253e-06
2.9139264e-06
2.0803877e-06
1.3955997e-06
8.4258894e-07
4.4323986e-07
1.3065925e-07
7.3674321e-08
0.00026522523
0.00023128836
0.00020047962
0.00017257704
0.00014765754
0.00012569753
0.00010668148
9.0532305e-05
7.7107051e-05
6.6214109e-05
5.7625267e-05
5.1083054e-05
4.6309006e-05
4.3013975e-05
4.0908866e-05
3.9714507e-05
3.9170184e-05
3.9040626e-05
3.9121223e-05
3.924133e-05
3.9265633e-05
3.9093763e-05
3.8658367e-05
3.7921993e-05
3.6873102e-05
3.5521556e-05
3.3893919e-05
3.2028836e-05
2.997272e-05
2.7775916e-05
2.5489441e-05
2.316237e-05
2.0839846e-05
1.8561729e-05
1.6361777e-05
1.4267324e-05
1.2299341e-05
1.04728e-05
8.7972581e-06
7.2775764e-06
5.9147121e-06
4.7065552e-06
3.6486782e-06
2.7354208e-06
1.9596846e-06
1.317615e-06
7.9685956e-07
4.1880656e-07
1.2599329e-07
6.8114664e-08
0.00031445235
0.00028013747
0.00024822719
0.00021856938
0.00019129832
0.00016646204
0.00014412359
0.00012429772
0.00010694335
9.1975213e-05
7.9271186e-05
6.8675537e-05
6.0003416e-05
5.3047671e-05
4.7586836e-05
4.3393163e-05
4.0240333e-05
3.7910571e-05
3.620089e-05
3.4928129e-05
3.3932626e-05
3.3080439e-05
3.2264171e-05
3.1402523e-05
3.0438758e-05
2.9338315e-05
2.8085818e-05
2.6681734e-05
2.5138931e-05
2.3479302e-05
2.1730643e-05
1.9923888e-05
1.8090786e-05
1.6262031e-05
1.4465881e-05
1.2727205e-05
1.106693e-05
9.5018335e-06
8.0445932e-06
6.7040611e-06
5.4856757e-06
4.3919969e-06
3.4232342e-06
2.5781312e-06
1.8537717e-06
1.2496541e-06
7.5753626e-07
3.9795409e-07
1.2221202e-07
6.2677559e-08
0.00036148095
0.00032757454
0.00029545545
0.00026502068
0.00023642745
0.00020976392
0.00018513875
0.00016262525
0.00014225265
0.00012401387
0.00010786946
9.374802e-05
8.154763e-05
7.1139487e-05
6.2373004e-05
5.508141e-05
4.9087672e-05
4.421051e-05
4.0270264e-05
3.7094266e-05
3.4521465e-05
3.2406111e-05
3.0620405e-05
2.9056073e-05
2.7624906e-05
2.6258373e-05
2.490644e-05
2.353577e-05
2.212751e-05
2.0674829e-05
1.9180384e-05
1.7653863e-05
1.6109709e-05
1.4565121e-05
1.3038367e-05
1.1547447e-05
1.0109089e-05
8.7380626e-06
7.4467848e-06
6.2451545e-06
5.1405902e-06
4.1382378e-06
3.24124e-06
2.4513704e-06
1.7687976e-06
1.1955227e-06
7.2662673e-07
3.8166707e-07
1.1944684e-07
5.7640351e-08
0.00040547846
0.000372522
0.00034083995
0.00031036454
0.0002812539
0.00025361463
0.00022757705
0.00020324742
0.00018069917
0.00015997817
0.00014110455
0.00012407137
0.0001088439
9.5360925e-05
8.3537293e-05
7.3267146e-05
6.4427794e-05
5.6884039e-05
5.0492853e-05
4.5108077e-05
4.0584931e-05
3.6784105e-05
3.3575249e-05
3.0839755e-05
2.8472739e-05
2.6384219e-05
2.4499517e-05
2.2758966e-05
2.1117038e-05
1.9541016e-05
1.8009364e-05
1.6509912e-05
1.5037999e-05
1.3594669e-05
1.2185e-05
1.0816638e-05
9.4985608e-06
8.2400894e-06
7.0501456e-06
5.936744e-06
4.9066886e-06
3.9654687e-06
3.1172603e-06
2.3652897e-06
1.7115037e-06
1.1594028e-06
7.0642544e-07
3.7104058e-07
1.1811124e-07
5.3191053e-08
0.00044592967
0.00041426975
0.00038346682
0.00035347938
0.00032445349
0.00029650019
0.00026975526
0.00024433947
0.0002203505
0.00019786663
0.00017694736
0.00015763117
0.00013993368
0.00012384729
0.00010934185
9.6366029e-05
8.4849246e-05
7.4704276e-05
6.5830406e-05
5.8116935e-05
5.1446889e-05
4.5700707e-05
4.0759768e-05
3.6509567e-05
3.2842435e-05
2.9659687e-05
2.6873177e-05
2.4406218e-05
2.2193927e-05
2.0183042e-05
1.8331298e-05
1.660646e-05
1.4985132e-05
1.3451422e-05
1.1995571e-05
1.0612616e-05
9.3011569e-06
8.0622643e-06
6.8985568e-06
5.8134628e-06
4.8106665e-06
3.8937428e-06
3.0659169e-06
2.3301659e-06
1.6887676e-06
1.1455887e-06
6.9935255e-07
3.6722384e-07
1.1874417e-07
4.9445941e-08
0.00048254883
0.00045237952
0.00042273338
0.00039358947
0.00036507515
0.00033729753
0.00031038776
0.00028446869
0.0002596481
0.00023602114
0.00021367049
0.0001926638
0.00017305143
0.00015486509
0.00013811734
0.00012280162
0.00010889267
9.6347681e-05
8.5107954e-05
7.5101087e-05
6.6243566e-05
5.8443594e-05
5.1604076e-05
4.5625569e-05
4.0409091e-05
3.5858657e-05
3.1883439e-05
2.8399494e-05
2.5331017e-05
2.2611109e-05
2.0182104e-05
1.7995481e-05
1.6011436e-05
1.4198203e-05
1.2531172e-05
1.0991918e-05
9.5671792e-06
8.2478692e-06
7.0281518e-06
5.9046264e-06
4.8756397e-06
3.94075e-06
3.100302e-06
2.3553095e-06
1.706881e-06
1.158041e-06
7.0767922e-07
3.712965e-07
1.218681e-07
4.6460774e-08
0.00051521154
0.00048660908
0.00045826683
0.00043018109
0.00040245784
0.00037519589
0.00034851605
0.00032253573
0.00029736333
0.00027310001
0.0002498396
0.00022766617
0.0002066517
0.0001868544
0.00016831752
0.00015106852
0.00013511855
0.00012046242
0.00010707914
9.4932854e-05
8.3974299e-05
7.4142629e-05
6.5367547e-05
5.7571635e-05
5.0672799e-05
4.4586671e-05
3.9228908e-05
3.4517254e-05
3.0373321e-05
2.672401e-05
2.350257e-05
2.0649275e-05
1.8111744e-05
1.5844945e-05
1.3810925e-05
1.1978333e-05
1.0321797e-05
8.8212055e-06
7.4609593e-06
6.2292364e-06
5.1173073e-06
4.1189416e-06
3.2298846e-06
2.4475907e-06
1.7705547e-06
1.1997553e-06
7.33143e-07
3.8408249e-07
1.2787936e-07
4.4245114e-08
0.00054389631
0.00051684649
0.00048985269
0.00046292645
0.0004361523
0.00040961897
0.0003834344
0.00035770645
0.00033253848
0.00030803063
0.00028427957
0.00026137649
0.00023940497
0.00021843922
0.00019854269
0.00017976675
0.0001621497
0.00014571595
0.00013047568
0.00011642494
0.00010354604
9.1808442e-05
8.1169981e-05
7.1578417e-05
6.2973227e-05
5.5287562e-05
4.8450289e-05
4.2388004e-05
3.7026952e-05
3.2294768e-05
2.8121982e-05
2.4443242e-05
2.1198245e-05
1.8332359e-05
1.5796961e-05
1.3549519e-05
1.155345e-05
9.7778082e-06
8.1968475e-06
6.7895113e-06
5.5388854e-06
4.4316683e-06
3.4576538e-06
2.6093992e-06
1.8815238e-06
1.2718622e-06
7.7640983e-07
4.0588087e-07
1.3694484e-07
4.2773309e-08
0.00056864594
0.00054306545
0.00051738457
0.00049162918
0.00046586354
0.00044016619
0.00041463172
0.00038935685
0.000364437
0.00033996721
0.00031604182
0.00029275294
0.00027018855
0.00024843104
0.00022755567
0.00020762924
0.00018870874
0.00017084024
0.00015405798
0.00013838382
0.0001238269
0.00011038375
9.8038727e-05
8.6764717e-05
7.6524261e-05
6.727088e-05
5.8950626e-05
5.1503777e-05
4.4866589e-05
3.8973045e-05
3.3756522e-05
2.9151305e-05
2.5093922e-05
2.152424e-05
1.8386325e-05
1.5629037e-05
1.3206405e-05
1.1077771e-05
9.2077514e-06
7.5660556e-06
6.1271908e-06
4.8701071e-06
3.7777866e-06
2.8369482e-06
2.0373701e-06
1.3728655e-06
8.366245e-07
4.3624934e-07
1.4894532e-07
4.19929e-08
0.00058950918
0.00056526034
0.00054079317
0.00051614741
0.00049136901
0.00046652718
0.00044170405
0.00041698522
0.00039245723
0.00036820811
0.00034432714
0.00032090362
0.00029802538
0.00027577752
0.00025424106