/*--------------------------------*- C++ -*----------------------------------*\
  =========                 |
  \\      /  F ield         | OpenFOAM: The Open Source CFD Toolbox
   \\    /   O peration     | Website:  https://openfoam.org
    \\  /    A nd           | Version:  6
     \\/     M anipulation  |
\*---------------------------------------------------------------------------*/
FoamFile
{
    version     2.0;
    format      ascii;
    class       volScalarField;
    location    "201";
    object      pPrime2Mean;
}
// * * * * * * * * * * * * * * * * * * * * * * * * * * * * * * * * * * * * * //

dimensions      [0 4 -4 0 0 0 0];

internalField   nonuniform List<scalar> 
9200
(
0.055935339
0.046367052
0.038266313
0.032992658
0.028783283
0.025235448
0.02217407
0.019509866
0.01718341
0.015147113
0.013361559
0.011793712
0.010415682
0.0092037794
0.0081377817
0.0072003989
0.0063769959
0.0056553661
0.0050264519
0.0044784733
0.045361196
0.037530275
0.030981605
0.026677278
0.02322402
0.020304948
0.017782506
0.015586531
0.013669766
0.011994121
0.010527789
0.0092438643
0.0081193972
0.0071346608
0.0062725949
0.0055184065
0.0048593567
0.0042844689
0.0037835221
0.0033419506
0.035446305
0.029286396
0.024195296
0.020803745
0.018060957
0.015731193
0.013712852
0.011954261
0.010420132
0.0090815966
0.0079140762
0.0068963191
0.0060097689
0.0052381
0.0045668862
0.0039833812
0.0034763922
0.0030360403
0.002652409
0.0023124871
0.026465736
0.02185765
0.018085726
0.015524311
0.013426823
0.011631325
0.010069591
0.0087073018
0.0075204635
0.0064886937
0.0055938411
0.0048194972
0.004150752
0.0035740617
0.0030771916
0.0026491953
0.002280388
0.0019621857
0.0016861179
0.0014423339
0.018667313
0.015443786
0.012817105
0.010980726
0.0094465396
0.0081169599
0.006953587
0.0059377451
0.0050555245
0.0042938114
0.0036397126
0.0030806279
0.002604471
0.0021999096
0.0018565791
0.0015652256
0.0013177507
0.0011071158
0.00092680803
0.00077022031
0.012269433
0.010218852
0.0085350682
0.0072997505
0.0062326605
0.0052895188
0.0044572555
0.0037304771
0.0031035727
0.0025690592
0.0021178891
0.0017401683
0.0014258697
0.001165415
0.00095008357
0.00077223461
0.00062535666
0.00050398615
0.00040349182
0.00031979688
0.0074547158
0.0063270339
0.0053634583
0.004590419
0.0038829334
0.0032378634
0.0026620695
0.0021604373
0.0017333948
0.001377203
0.0010852036
0.00084919672
0.00066058864
0.00051120481
0.00039377303
0.00030212793
0.00023120721
0.00017694799
0.00013623741
0.00010670222
0.0043653396
0.0038797968
0.0034020375
0.0029419055
0.002478129
0.0020359237
0.0016359196
0.0012897852
0.0010014639
0.00076904936
0.00058694153
0.00044779424
0.0003439507
0.00026833368
0.00021488262
0.00017866876
0.00015581301
0.00014334869
0.00013921952
0.00014204465
0.0030990931
0.0029527574
0.002722336
0.0024190298
0.0020779137
0.0017392566
0.0014304416
0.0011659713
0.00095068969
0.00078279107
0.00065668226
0.0005652713
0.00050146999
0.00045900446
0.00043272205
0.00041859185
0.00041355325
0.00041535178
0.00042250184
0.00043403188
0.0037051288
0.0035831377
0.0033632257
0.0030579909
0.0027168034
0.0023808509
0.0020765508
0.0018171517
0.0016059944
0.0014400115
0.0013128919
0.0012173896
0.0011466693
0.001094916
0.0010574883
0.001030821
0.001012236
0.00099976278
0.00099200753
0.00098790861
0.13280247
0.11168988
0.092306858
0.080050643
0.070319326
0.062151483
0.05511952
0.04899275
0.043628362
0.038914115
0.034758309
0.031085029
0.027830688
0.02494153
0.022371782
0.02008224
0.018039164
0.016212338
0.014573393
0.013105921
0.13111101
0.11015918
0.090998218
0.078882842
0.069273481
0.061209797
0.054267977
0.048221131
0.042928089
0.038277688
0.034179101
0.030557144
0.027348861
0.024501048
0.021968422
0.019712224
0.017699157
0.015899448
0.014284565
0.01283867
0.12766089
0.10712863
0.088447477
0.076633485
0.067273811
0.05942127
0.052661174
0.046773745
0.041621518
0.037096008
0.03310851
0.029585573
0.026465691
0.023696897
0.021234978
0.019042122
0.017085935
0.015337525
0.013768457
0.012363184
0.12251244
0.10267187
0.084728342
0.073372405
0.064383542
0.056843157
0.050351532
0.044698938
0.039753467
0.03541081
0.031585588
0.028207052
0.025215934
0.02256216
0.02020313
0.018102424
0.016228908
0.014554967
0.013052735
0.01170649
0.11580626
0.096915362
0.079948552
0.069195966
0.060689135
0.053553417
0.04740986
0.042061382
0.037383279
0.033276759
0.029660868
0.026468455
0.023643223
0.021137588
0.018911057
0.016928994
0.015161793
0.013583413
0.012167349
0.010897494
0.10773343
0.090026632
0.074247828
0.064227288
0.056300283
0.049650333
0.043924607
0.038940944
0.034583272
0.030759492
0.027394049
0.024424179
0.021797213
0.019468594
0.017400386
0.015560079
0.013919801
0.012455231
0.011142118
0.0099644335
0.098525965
0.082206557
0.067791547
0.058610751
0.051344977
0.045248087
0.039997973
0.035429247
0.031435704
0.027932941
0.024851621
0.02213406
0.0197318
0.01760381
0.015715116
0.014035676
0.012539556
0.011204166
0.010008163
0.0089366348
0.088448325
0.073682263
0.060765423
0.052507542
0.04596554
0.040473176
0.035742695
0.031626885
0.028030391
0.024877315
0.022105216
0.01966208
0.01750417
0.015594432
0.013901254
0.012397423
0.011059249
0.0098659721
0.0087995417
0.007847186
0.077787915
0.064698664
0.053368803
0.046089779
0.040313374
0.035459769
0.031277961
0.027639783
0.024461469
0.021676258
0.019229148
0.017074268
0.015173028
0.013492735
0.012005502
0.010687306
0.0095171337
0.0084764635
0.0075509823
0.0067301203
0.066844655
0.055511616
0.045807565
0.039533026
0.03454169
0.030342856
0.026723108
0.023573606
0.020822633
0.018412971
0.016297406
0.014436504
0.012797074
0.011351009
0.010074381
0.0089466928
0.0079502951
0.0070703043
0.0062973833
0.0056214001
0.011557798
0.010014392
0.0087057485
0.0075696467
0.0065991339
0.0057678498
0.0050529242
0.0044347393
0.0038973471
0.0034277974
0.0030156029
0.0026523612
0.0023313267
0.0020470128
0.0017948939
0.0015711888
0.0013726945
0.0011966607
0.0010406978
0.00090270789
0.00078083289
0.0006734138
0.0005789599
0.00049612442
0.00042368585
0.00036053331
0.00030565509
0.00025812941
0.00021711703
0.00018185502
0.00015165147
0.00012588071
0.00010397899
8.544032e-05
6.9812576e-05
5.6693532e-05
4.5727218e-05
3.6599987e-05
2.90373e-05
2.2799296e-05
1.7679734e-05
1.3496608e-05
1.0105416e-05
7.3550094e-06
5.1867267e-06
3.3998317e-06
2.165407e-06
9.9459171e-07
1.3129103e-06
2.1622543e-06
0.011333486
0.009841328
0.0085701638
0.0074628559
0.0065159866
0.0057037872
0.0050036176
0.0043966023
0.0038676104
0.0034043404
0.0029968465
0.0026371724
0.0023189021
0.0020367742
0.0017864165
0.0015641516
0.0013668475
0.0011918037
0.0010366671
0.00089936777
0.00077806957
0.00067113168
0.00057707852
0.00049457608
0.00042241369
0.00035948969
0.00030480022
0.00025743014
0.00021654584
0.00018138912
0.00015127204
0.00012557222
0.00010372866
8.5237654e-05
6.9648944e-05
5.6561849e-05
4.562167e-05
3.65158e-05
2.8970558e-05
2.2746788e-05
1.7638829e-05
1.346516e-05
1.0081676e-05
7.3375872e-06
5.1744867e-06
3.3918913e-06
2.1612266e-06
9.9212902e-07
1.3049976e-06
2.1203116e-06
0.010938699
0.009538774
0.0083354559
0.0072809742
0.0063765777
0.0055980474
0.0049234529
0.0043354
0.0038203774
0.0033673687
0.0029674463
0.0026134554
0.0022995537
0.0020208633
0.0017732651
0.0015532513
0.0013578039
0.0011843019
0.0010304498
0.00089422155
0.00077381612
0.00066762124
0.00057418522
0.00049219433
0.00042045506
0.00035788039
0.00030347885
0.0002563458
0.00021565647
0.00018066006
0.00015067477
0.00012508333
0.00010332896
8.4911394e-05
6.9383207e-05
5.6346025e-05
4.544703e-05
3.6375153e-05
2.8857971e-05
2.2657361e-05
1.7568516e-05
1.3410624e-05
1.0040181e-05
7.3069197e-06
5.1528572e-06
3.3778257e-06
2.1539361e-06
9.8780716e-07
1.2891899e-06
2.0383903e-06
0.010397664
0.0091253902
0.0080184435
0.0070402798
0.0061954361
0.0054626332
0.0048219564
0.0042584801
0.0037612065
0.0033210929
0.0029306574
0.0025837951
0.0022753882
0.0020010331
0.0017569198
0.0015397465
0.0013466367
0.0011750689
0.0010228214
0.00088792536
0.00076862502
0.0006633455
0.00057066628
0.00048929991
0.00041807509
0.00035592357
0.00030186972
0.00025502219
0.00021456734
0.00017976357
0.00014993674
0.00012447583
0.00010282918
8.4500684e-05
6.9046293e-05
5.607037e-05
4.5222301e-05
3.6192812e-05
2.8710936e-05
2.2539747e-05
1.7475424e-05
1.333798e-05
9.9846185e-06
7.265686e-06
5.1237044e-06
3.3588992e-06
2.1441546e-06
9.8216174e-07
1.2654845e-06
1.9206963e-06
0.0097342529
0.0086202056
0.007636451
0.0067573593
0.0059871449
0.0053091283
0.0047078607
0.0041723056
0.0036948726
0.0032691194
0.0028893216
0.0025505297
0.0022483903
0.0019790004
0.0017388791
0.0015249482
0.0013344894
0.0011650977
0.0010146394
0.00088121457
0.00076312319
0.00065883577
0.00056696936
0.00048626792
0.0004155864
0.00035387846
0.0003001867
0.00025363491
0.00021342189
0.00017881632
0.00014915235
0.00012382574
0.00010229023
8.4054086e-05
6.8676719e-05
5.5765264e-05
4.4971307e-05
3.5987343e-05
2.8543824e-05
2.2404982e-05
1.7367953e-05
1.3253548e-05
9.9196702e-06
7.2172837e-06
5.08939e-06
3.3367054e-06
2.1326398e-06
9.7587749e-07
1.234114e-06
1.7734036e-06
0.0089689145
0.0080405417
0.0072051248
0.006445729
0.0057623726
0.0051449649
0.004585969
0.0040800661
0.0036237055
0.0032133398
0.0028451122
0.0025152118
0.0022200175
0.0019561245
0.0017203954
0.0015099952
0.0013223853
0.0011552971
0.0010067026
0.00087478543
0.00075791241
0.00065460829
0.00056353433
0.00048347076
0.00041330235
0.0003520072
0.00029864786
0.00025236437
0.00021236865
0.00017793989
0.00014842064
0.0001232133
0.0001017768
8.3623463e-05
6.8315841e-05
5.5463497e-05
4.471989e-05
3.577898e-05
2.8372363e-05
2.2265192e-05
1.7255362e-05
1.3164315e-05
9.8505196e-06
7.1654778e-06
5.0525191e-06
3.3129908e-06
2.1201846e-06
9.6968416e-07
1.195455e-06
1.6040062e-06
0.008121632
0.0074037387
0.0067384107
0.0061135693
0.0055246222
0.004970842
0.0044557348
0.0039811582
0.0035476375
0.0031542778
0.0027989826
0.0024790499
0.0021915947
0.0019337446
0.0017027558
0.0014960849
0.0013114128
0.0011466398
0.00099986898
0.00086938638
0.00075363961
0.00065121773
0.00056083333
0.00048130768
0.00041155847
0.00035059013
0.00029748614
0.0002514031
0.00021156587
0.00017726373
0.00014784697
0.00012272382
0.00010135761
8.3263894e-05
6.8007562e-05
5.5199868e-05
4.4495466e-05
3.5589177e-05
2.8213219e-05
2.2133214e-05
1.7147433e-05
1.3077638e-05
9.7826016e-06
7.1141873e-06
5.0157736e-06
3.2895294e-06
2.1075539e-06
9.6428455e-07
1.1500195e-06
1.4206139e-06
0.0072172704
0.0067296004
0.0062470098
0.0057597319
0.0052665593
0.0047790905
0.0043114899
0.0038722236
0.0034652918
0.0030919764
0.0027518257
0.0024433658
0.0021646094
0.001913357
0.0016873755
0.0014845054
0.0013027158
0.0011401239
0.00099499791
0.00086574981
0.00075092387
0.00064918375
0.00055929987
0.00048013834
0.00041065168
0.00034987118
0.00029690101
0.00025091345
0.00021114512
0.00017689398
0.00014751655
0.00012242542
0.00010108686
8.3018278e-05
6.7785664e-05
5.5000832e-05
4.4318629e-05
3.5433864e-05
2.8078622e-05
2.2018355e-05
1.7051178e-05
1.2998732e-05
9.7197169e-06
7.0661188e-06
4.980951e-06
3.2674868e-06
2.0951123e-06
9.6013687e-07
1.0983915e-06
1.2313724e-06
0.0062804229
0.0060267537
0.0057197744
0.0053586279
0.004960364
0.0045470123
0.0041367655
0.0037415463
0.0033682028
0.003020207
0.0026989535
0.0024045294
0.0021361762
0.0018926225
0.0016723307
0.0014736595
0.0012949607
0.0011346345
0.00099115848
0.00086310087
0.00074912297
0.00064797669
0.00055849935
0.00047960797
0.00041029371
0.00034961719
0.00029670461
0.00025074458
0.00021098566
0.00017673423
0.0001473526
0.00012225708
0.00010091615
8.2848337e-05
6.7619973e-05
5.4842698e-05
4.4170878e-05
3.5298692e-05
2.7957544e-05
2.1912237e-05
1.6960325e-05
1.2922986e-05
9.6585469e-06
7.0189496e-06
4.9464393e-06
3.2458136e-06
2.0819713e-06
9.5699157e-07
1.0414105e-06
1.04464e-06
0.0053479921
0.0052736999
0.0051068976
0.0048640115
0.0045706409
0.0042477696
0.0039107674
0.0035725546
0.0032428186
0.0029277854
0.0026311608
0.0023549903
0.0021001107
0.001866481
0.0016534874
0.0014601752
0.0012854032
0.001127944
0.00098654888
0.00085998793
0.00074707261
0.00064666718
0.0005576937
0.00047913337
0.00041002616
0.00034946969
0.00029661806
0.00025068067
0.00021092132
0.00017665724
0.00014725821
0.00012214545
0.00010079036
8.2712994e-05
6.7480166e-05
5.4703351e-05
4.4036322e-05
3.5172457e-05
2.7842278e-05
2.1809726e-05
1.6871603e-05
1.2848432e-05
9.5980143e-06
6.9721345e-06
4.9120217e-06
3.2243181e-06
2.0680061e-06
9.5460795e-07
9.8123683e-07
8.6918134e-07
0.0043332886
0.0043633668
0.0043108933
0.0041811423
0.003998586
0.0037785195
0.0035314508
0.0032688848
0.0030014416
0.0027369399
0.0024807896
0.0022367365
0.0020071929
0.0017934777
0.0015961045
0.0014150347
0.0012498593
0.0010999284
0.00096444512
0.00084253223
0.00073327547
0.00063575273
0.00054905259
0.00047228638
0.00040459599
0.00034515908
0.00029319271
0.00024795588
0.00020875148
0.00017492757
0.00014587822
0.00012104378
9.9910686e-05
8.2010778e-05
6.6920143e-05
5.4257519e-05
4.3682378e-05
3.4892583e-05
2.7622182e-05
2.1637939e-05
1.6738842e-05
1.2747361e-05
9.5223784e-06
6.9178578e-06
4.8736394e-06
3.2022174e-06
2.0517208e-06
9.5329411e-07
9.1872114e-07
7.1476876e-07
0.003358587
0.0034457853
0.0034646046
0.0034154138
0.0033178701
0.0031831498
0.0030174304
0.0028295499
0.0026289954
0.002423245
0.002217885
0.0020172222
0.0018244347
0.0016416659
0.0014702332
0.0013108414
0.0011637441
0.0010288667
0.00090590405
0.0007943938
0.00069377052
0.00060340398
0.0005226268
0.00045075439
0.00038709946
0.00033098281
0.00028174154
0.00023873542
0.0002013519
0.00016900995
0.00014116302
0.0001173011
9.6952027e-05
7.9682093e-05
6.5095933e-05
5.2835889e-05
4.2580871e-05
3.4044713e-05
2.6974498e-05
2.1147696e-05
1.6371811e-05
1.247669e-05
9.3259955e-06
6.7803203e-06
4.7784738e-06
3.1454968e-06
2.0111482e-06
9.4405337e-07
8.3916075e-07
5.6806429e-07
0.00252044
0.0026449815
0.0027136506
0.0027264611
0.0026955788
0.0026291577
0.002530965
0.0024072714
0.0022658746
0.0021134487
0.0019552983
0.0017958195
0.0016385539
0.0014861609
0.0013405316
0.0012029471
0.0010742078
0.00095473744
0.00084467233
0.00074393512
0.00065229171
0.00056939493
0.00049481804
0.00042808047
0.00036866761
0.00031604626
0.00026967695
0.00022902363
0.00019356163
0.00016278392
0.00013620616
0.0001133705
9.3848385e-05
7.7242446e-05
6.3187507e-05
5.1350897e-05
4.1432129e-05
3.3161968e-05
2.630133e-05
2.063904e-05
1.5991624e-05
1.2196774e-05
9.1231245e-06
6.6384776e-06
4.6799989e-06
3.0872503e-06
1.9674445e-06
9.3602095e-07
7.5279307e-07
4.3042143e-07
0.0018160498
0.0019597934
0.0020591032
0.0021149889
0.0021330048
0.0021185655
0.0020741234
0.0020037573
0.0019132458
0.001808081
0.0016929398
0.0015719238
0.0014485652
0.0013257282
0.0012056324
0.0010899467
0.00097987812
0.00087624912
0.00077956965
0.00069010213
0.0006079156
0.00053292961
0.00046494981
0.00040369676
0.00034882905
0.00029996216
0.00025668376
0.00021856631
0.00018517741
0.00015608835
0.000130881
0.00010915328
9.0523502e-05
7.4633452e-05
6.1150589e-05
4.9769306e-05
4.0211466e-05
3.2226226e-05
2.5589534e-05
2.0102557e-05
1.5591633e-05
1.1902941e-05
8.9105682e-06
6.4899933e-06
4.5767676e-06
3.0259549e-06
1.9203037e-06
9.2775315e-07
6.658433e-07
3.1269851e-07
0.0012495597
0.0013939359
0.0015061604
0.0015870396
0.0016372133
0.0016594286
0.0016551338
0.001626702
0.0015779368
0.0015129372
0.0014355109
0.0013491891
0.0012571921
0.0011623059
0.0010668377
0.00097264663
0.00088118963
0.000793568
0.00071057678
0.00063275475
0.00056042993
0.00049375902
0.00043276131
0.0003773474
0.0003273435
0.00028251181
0.0002425677
0.0002071942
0.00017605417
0.00014880061
0.00012508509
0.0001045648
8.6908105e-05
7.1798934e-05
5.8940002e-05
4.8055076e-05
3.8890356e-05
3.1215083e-05
2.4821657e-05
1.952476e-05
1.5161517e-05
1.1587358e-05
8.6824751e-06
6.3304752e-06
4.4656911e-06
2.9591408e-06
1.8685415e-06
9.1768321e-07
5.818607e-07
2.2058352e-07
0.00081569434
0.00094584395
0.0010560838
0.0011461267
0.0012134824
0.0012585418
0.0012816997
0.0012839872
0.0012675139
0.0012349711
0.001189162
0.001132875
0.0010688079
0.0009994442
0.00092696813
0.00085324369
0.00077982121
0.00070795345
0.00063862053
0.00057256118
0.00051030549
0.00045220603
0.00039846659
0.00034916807
0.00030429145
0.00026373795
0.00022734656
0.00019490938
0.00016618478
0.00014090876
0.00011880466
9.9591237e-05
8.2989409e-05
6.8727651e-05
5.6546236e-05
4.6200393e-05
3.7462531e-05
3.0123602e-05
2.3993867e-05
1.89027e-05
1.4699013e-05
1.1248265e-05
8.4374863e-06
6.1587775e-06
4.3459338e-06
2.8858555e-06
1.8119588e-06
9.0468599e-07
5.0374991e-07
1.5603397e-07
0.00050038357
0.00060721608
0.00070473245
0.00079151982
0.00086356398
0.00091955741
0.00095886732
0.00098144314
0.00098804842
0.00098010757
0.00095940532
0.00092791255
0.00088768284
0.00084074041
0.00078898188
0.00073411875
0.00067765161
0.0006208606
0.00056480745
0.00051034738
0.00045814683
0.00040870373
0.00036236846
0.0003193644
0.00027980755
0.00024372449
0.00021106897
0.0001817367
0.00015557867
0.00013241286
0.0001120345
9.4224916e-05
7.8759026e-05
6.541157e-05
5.3962168e-05
4.4199278e-05
3.5923179e-05
2.8948043e-05
2.3103335e-05
1.8234278e-05
1.4202584e-05
1.0884523e-05
8.1747516e-06
5.9741802e-06
4.217006e-06
2.8054365e-06
1.7506737e-06
8.8774591e-07
4.3372082e-07
1.1746099e-07
0.0002854489
0.00036512894
0.00044354961
0.00051859342
0.00058591436
0.00064326829
0.00068922995
0.00072292866
0.00074413244
0.0007532335
0.00075108949
0.00073887176
0.00071795728
0.00068982894
0.00065598342
0.00061786043
0.00057679355
0.00053398026
0.00049046585
0.00044713809
0.00040473016
0.00036382895
0.00032488683
0.00028823514
0.00025409869
0.00022261015
0.00019382408
0.00016773018
0.00014426571
0.00012332672
0.00010477829
8.8463543e-05
7.4211541e-05
6.184402e-05
5.1181032e-05
4.2045524e-05
3.4266963e-05
2.7684034e-05
2.2146614e-05
1.751686e-05
1.3670265e-05
1.049468e-05
7.8932198e-06
5.775876e-06
4.0784045e-06
2.7173282e-06
1.6849372e-06
8.6607036e-07
3.7301885e-07
1.0011057e-07
0.00015185995
0.00020436949
0.00026106042
0.00031958256
0.00037596983
0.00042768577
0.00047287436
0.00051014479
0.00053860264
0.00055788351
0.0005680881
0.00056968097
0.00056340145
0.00055018245
0.00053107098
0.00050715896
0.00047952792
0.00044920594
0.00041713787
0.00038416705
0.00035102564
0.00031833177
0.00028659172
0.00025620578
0.0002274765
0.0002006184
0.00017576838
0.00015299642
0.00013231609
0.0001136946
9.70623e-05
8.2321321e-05
6.9353393e-05
5.802672e-05
4.8201906e-05
3.9736945e-05
3.2491292e-05
2.6329071e-05
2.1121537e-05
1.6748704e-05
1.3100735e-05
1.0077784e-05
7.5922436e-06
5.5634325e-06
3.9299462e-06
2.621372e-06
1.6152531e-06
8.3935313e-07
3.2201019e-07
9.7257034e-08
8.1643802e-05
0.00010939221
0.0001445019
0.00018473977
0.00022684999
0.00026844101
0.0003075809
0.00034266077
0.00037242648
0.00039603269
0.00041303447
0.00042333633
0.00042713436
0.00042485857
0.00041711308
0.00040461692
0.00038815157
0.00036851656
0.00034649299
0.00032281628
0.00029815755
0.00027311175
0.00024819147
0.00022382531
0.0002003597
0.00017806338
0.00015713355
0.00013770314
0.00011984883
0.00010359912
8.8942485e-05
7.583508e-05
6.4208024e-05
5.3973993e-05
4.5033111e-05
3.7278059e-05
3.0598398e-05
2.4884109e-05
2.0028417e-05
1.5929866e-05
1.2493998e-05
9.6338852e-06
7.2719525e-06
5.3370666e-06
3.7719631e-06
2.5179459e-06
1.5423959e-06
8.0786004e-07
2.8038955e-07
1.0183785e-07
5.8993108e-05
6.5675178e-05
8.1151913e-05
0.00010350459
0.00013027226
0.00015944445
0.0001892738
0.00021818466
0.00024481636
0.00026808917
0.000287228
0.00030174978
0.00031143712
0.0003163061
0.00031656809
0.00031258716
0.00030483693
0.00029386078
0.00028023662
0.00026454671
0.00024735375
0.00022918313
0.00021051038
0.00019175336
0.00017326829
0.00015534901
0.00013822869
0.00012208339
0.00010703695
9.3166723e-05
8.0509736e-05
6.9069064e-05
5.882006e-05
4.9716303e-05
4.1695089e-05
3.4682378e-05
2.8597114e-05
2.3354902e-05
1.8871043e-05
1.506291e-05
1.1851878e-05
9.1643772e-06
6.9334833e-06
5.0977914e-06
3.6053909e-06
2.408004e-06
1.4673828e-06
7.7240377e-07
2.4742097e-07
1.0799197e-07
7.0708054e-05
6.0457712e-05
5.9213485e-05
6.5440801e-05
7.742028e-05
9.3606299e-05
0.00011257912
0.00013296563
0.00015348558
0.00017302181
0.00019065976
0.00020569892
0.00021765111
0.00022623081
0.00023133765
0.00023303153
0.00023150335
0.00022704421
0.00022001571
0.00021082238
0.00019988726
0.00018763145
0.00017445801
0.00016073983
0.00014681119
0.00013296258
0.00011943833
0.00010643641
9.4110195e-05
8.2571393e-05
7.1894052e-05
6.21191e-05
5.3259208e-05
4.5303707e-05
3.8223359e-05
3.1974843e-05
2.6504816e-05
2.1753508e-05
1.7657794e-05
1.4153719e-05
1.1178583e-05
8.672362e-06
6.5791999e-06
4.847523e-06
3.4318013e-06
2.2930245e-06
1.3913849e-06
7.3417803e-07
2.2207933e-07
1.1199053e-07
0.00010618372
8.3020902e-05
6.8307889e-05
6.0880213e-05
5.9640596e-05
6.3495134e-05
7.1395771e-05
8.2256832e-05
9.4993683e-05
0.00010858911
0.00012213707
0.00013486569
0.00014615071
0.00015552228
0.00016266406
0.00016740429
0.0001697007
0.00016962119
0.00016732255
0.00016302865
0.00015700932
0.0001495609
0.00014098925
0.00013159573
0.00012166597
0.00011146162
0.00010121464
9.1123939e-05
8.1354094e-05
7.2035627e-05
6.3266622e-05
5.5115277e-05
4.7623132e-05
4.0808671e-05
3.4671096e-05
2.9194073e-05
2.4349304e-05
2.0099802e-05
1.6402824e-05
1.3212372e-05
1.0481322e-05
8.1630636e-06
6.2129457e-06
4.5892004e-06
3.2534374e-06
2.1749455e-06
1.3156614e-06
6.9456626e-07
2.0313331e-07
1.1234765e-07
0.00015715737
0.00012467639
9.9672301e-05
8.1294635e-05
6.8927611e-05
6.1864701e-05
5.9407626e-05
6.0775382e-05
6.5129919e-05
7.1632688e-05
7.9484856e-05
8.7952647e-05
9.6387195e-05
0.00010424059
0.00011107602
0.00011657094
0.0001205139
0.00012279644
0.00012340119
0.0001223876
0.00011987633
0.00011603351
0.00011105554
0.00010515537
9.8550579e-05
9.1453497e-05
8.4063473e-05
7.6561161e-05
6.9104762e-05
6.1827951e-05
5.4839258e-05
4.8222621e-05
4.2038869e-05
3.6327852e-05
3.1111012e-05
2.6394182e-05
2.217044e-05
1.8422879e-05
1.51272e-05
1.2254031e-05
9.7709693e-06
7.6442842e-06
5.8403301e-06
4.3269285e-06
3.0732568e-06
2.0560965e-06
1.2415082e-06
6.5494807e-07
1.8919722e-07
1.0924195e-07
0.00021735201
0.00017858543
0.0001461533
0.0001194508
9.8208633e-05
8.2024277e-05
7.0492578e-05
6.3110338e-05
5.9288682e-05
5.8397283e-05
5.9796915e-05
6.2861413e-05
6.6997512e-05
7.1663805e-05
7.6386279e-05
8.0768795e-05
8.4498411e-05
8.7346098e-05
8.9163431e-05
8.9875968e-05
8.947413e-05
8.8002495e-05
8.554833e-05
8.2230107e-05
7.8186638e-05
7.3567284e-05
6.8523485e-05
6.320184e-05
5.7738711e-05
5.2256377e-05
4.6860562e-05
4.1639206e-05
3.6662275e-05
3.1982405e-05
2.7636178e-05
2.3645841e-05
2.0021284e-05
1.6762141e-05
1.3859874e-05
1.129976e-05
9.0627083e-06
7.1268878e-06
5.4690648e-06
4.0661812e-06
2.895039e-06
1.939203e-06
1.1702911e-06
6.1660162e-07
1.788634e-07
1.0367135e-07
0.00028210398
0.00023950004
0.00020207682
0.00016941161
0.0001414663
0.00011805985
9.9011932e-05
8.4047869e-05
7.2800256e-05
6.4841295e-05
5.9706558e-05
5.6910962e-05
5.596486e-05
5.6391469e-05
5.7743203e-05
5.9615051e-05
6.1654527e-05
6.3568148e-05
6.5124515e-05
6.6154154e-05
6.6546508e-05
6.6244629e-05
6.5238219e-05
6.3555632e-05
6.1255442e-05
5.8418093e-05
5.5138071e-05
5.1516865e-05
4.7656978e-05
4.3657044e-05
3.9608117e-05
3.5591054e-05
3.1674929e-05
2.7916319e-05
2.4359334e-05
2.1036227e-05
1.7968419e-05
1.5167817e-05
1.2638273e-05
1.03771e-05
8.3765477e-06
6.6252229e-06
5.1092853e-06
3.8140227e-06
2.7235267e-06
1.8274467e-06
1.1035333e-06
5.80691e-07
1.7090222e-07
9.675379e-08
0.00034802338
0.00030348669
0.00026305671
0.00022644123
0.00019374292
0.00016493096
0.0001399842
0.00011880083
0.00010119265
8.6907668e-05
7.56458e-05
6.7068592e-05
6.0810112e-05
5.6490491e-05
5.3730045e-05
5.2162242e-05
5.1444911e-05
5.1269412e-05
5.1367475e-05
5.1515518e-05
5.1536425e-05
5.1298994e-05
5.071539e-05
4.973701e-05
4.8349225e-05
4.656543e-05
4.4420847e-05
4.196646e-05
3.9263333e-05
3.637759e-05
3.3376133e-05
3.0323226e-05
2.7277911e-05
2.4292237e-05
2.1410221e-05
1.8667438e-05
1.6091113e-05
1.3700622e-05
1.1508262e-05
9.5202026e-06
7.737533e-06
6.157355e-06
4.7737678e-06
3.5792876e-06
2.5645696e-06
1.724572e-06
1.0430498e-06
5.4834018e-07
1.6448234e-07
8.9380981e-08
0.00041270525
0.00036766636
0.00032578454
0.0002868594
0.00025106851
0.00021847501
0.00018916118
0.00016314593
0.00014037498
0.00012073606
0.00010406845
9.0167365e-05
7.8789816e-05
6.966359e-05
6.249776e-05
5.6993232e-05
5.2852885e-05
4.9790911e-05
4.7541013e-05
4.5863011e-05
4.4547649e-05
4.3419491e-05
4.2337989e-05
4.1196862e-05
3.9922062e-05
3.8468616e-05
3.6816677e-05
3.4967129e-05
3.2937048e-05
3.0755273e-05
2.8458309e-05
2.6086702e-05
2.3681996e-05
2.1284303e-05
1.8930495e-05
1.6652973e-05
1.4478961e-05
1.2430234e-05
1.0523208e-05
8.769301e-06
7.1754786e-06
5.7449611e-06
4.4779155e-06
3.3726179e-06
2.4251867e-06
1.6349648e-06
9.9105665e-07
5.2072839e-07
1.592921e-07
8.2163539e-08
0.00047449432
0.00042998733
0.0003878271
0.00034787797
0.00031034718
0.00027535055
0.00024303043
0.00021348274
0.00018674562
0.00016280952
0.00014162239
0.00012309021
0.00010707892
9.3419204e-05
8.1913187e-05
7.23418e-05
6.4472567e-05
5.8067505e-05
5.2890836e-05
4.8716029e-05
4.5331874e-05
4.2547303e-05
4.0194857e-05
3.8132733e-05
3.624548e-05
3.4443468e-05
3.2661317e-05
3.0855528e-05
2.9001554e-05
2.7090569e-05
2.5126134e-05
2.3120973e-05
2.1093993e-05
1.9067661e-05
1.7065811e-05
1.5111889e-05
1.3227655e-05
1.1432295e-05
9.7419073e-06
8.1692984e-06
6.7240382e-06
5.4127367e-06
4.2393995e-06
3.2062637e-06
2.3134763e-06
1.5636479e-06
9.5021197e-07
4.9916455e-07
1.5551764e-07
7.5499133e-08
0.00053229815
0.0004890351
0.0004474455
0.00040744004
0.00036922687
0.00033294601
0.00029876835
0.00026683318
0.00023723676
0.0002100391
0.00018526646
0.0001629095
0.00014292245
0.00012522476
0.00010970447
9.6222469e-05
8.4617612e-05
7.4712365e-05
6.6318971e-05
5.9245615e-05
5.3302355e-05
4.8306472e-05
4.4087059e-05
4.048865e-05
3.7373822e-05
3.4624715e-05
3.2143554e-05
2.9852247e-05
2.769123e-05
2.5617712e-05
2.3603531e-05
2.1632766e-05
1.9699302e-05
1.7804464e-05
1.595483e-05
1.4160316e-05
1.2432559e-05
1.0783632e-05
9.2250793e-06
7.7672544e-06
6.4189319e-06
5.1871748e-06
4.0773401e-06
3.0935605e-06
2.2383022e-06
1.5161271e-06
9.2353971e-07
4.8509565e-07
1.5369469e-07
6.9638761e-08
0.00058544082
0.00054387762
0.00050343988
0.00046407287
0.00042596867
0.00038927308
0.00035416429
0.00032080066
0.00028931038
0.00025979606
0.00023233569
0.00020697963
0.00018374827
0.00016263145
0.00014358948
0.00012655484
0.00011143478
9.8114725e-05
8.646244e-05
7.6332606e-05
6.7571716e-05
6.0022907e-05
5.3530589e-05
4.7944606e-05
4.3123803e-05
3.8938836e-05
3.5274197e-05
3.2029418e-05
2.911951e-05
2.6474712e-05
2.4039663e-05
2.1772137e-05
1.9641463e-05
1.7626783e-05
1.5715248e-05
1.3900272e-05
1.2179918e-05
1.0555471e-05
9.0302314e-06
7.6085605e-06
6.2951534e-06
5.0945684e-06
4.0109149e-06
3.0479932e-06
2.2086937e-06
1.4980436e-06
9.142189e-07
4.8003311e-07
1.5451498e-07
6.4725168e-08
0.00063354768
0.00059393981
0.0005550191
0.00051675794
0.00047932365
0.0004428569
0.00040752977
0.00037350352
0.00034091954
0.00030990269
0.00028056139
0.0002529844
0.00022723768
0.00020336277
0.00018137606
0.00016126883
0.00014300784
0.00012653683
0.00011177867
9.863832e-05
8.7006147e-05
7.676169e-05
6.7777561e-05
5.9923318e-05
5.3069151e-05
4.7089203e-05
4.1864401e-05
3.7284713e-05
3.3250784e-05
2.9674943e-05
2.6481616e-05
2.3607204e-05
2.0999531e-05
1.8616928e-05
1.6427095e-05
1.4405813e-05
1.2535616e-05
1.0804494e-05
9.2046843e-06
7.7316092e-06
6.382978e-06
5.158089e-06
4.0572766e-06
3.0817629e-06
2.2328978e-06
1.51459e-06
9.2522441e-07
4.8539147e-07
1.586483e-07
6.0819827e-08
0.0006764558
0.00063890387
0.00060169382
0.00056482073
0.00052842377
0.00049263267
0.00045760601
0.00042349789
0.00039045057
0.00035859684
0.00032805977
0.0002989497
0.00027136105
0.00024537014
0.00022103369
0.00019838766
0.00017744661
0.0001582037
0.00014063129
0.00012468229
0.00011029203
9.7380635e-05
8.5855866e-05
7.5616152e-05
6.6553807e-05
5.8558179e-05
5.1518668e-05
4.5327419e-05
3.9881661e-05
3.5085563e-05
3.0851619e-05
2.7101526e-05
2.3766606e-05
2.07878e-05
1.8115317e-05
1.5708007e-05
1.3532537e-05
1.156246e-05
9.7772282e-06
8.1612362e-06
6.7029259e-06
5.3940129e-06
4.2288037e-06
3.203851e-06
2.3170723e-06
1.5696808e-06
9.5882335e-07
5.0224502e-07
1.6660178e-07
5.792719e-08
0.00071413748
0.00067862318
0.00064318266
0.00060783102
0.0005726792
0.00053784371
0.00050346621
0.00046968834
0.00043664573
0.00040446984
0.00037328752
0.00034321848
0.00031437236
0.00028684654
0.00026072426
0.00023607292
0.00021294271
0.00019136564
0.00017135506
0.00015290571
0.00013599437
0.00012058094
0.00010661008
9.4013254e-05
8.2711057e-05
7.2615803e-05
6.3634198e-05
5.5669977e-05
4.8626425e-05
4.2408653e-05
3.6925573e-05
3.2091494e-05
2.7827338e-05
2.406146e-05
2.0730079e-05
1.7777389e-05
1.5155368e-05
1.2823372e-05
1.0747565e-05
8.9002422e-06
7.2591239e-06
5.8066605e-06
4.5293578e-06
3.4173469e-06
2.4634594e-06
1.664775e-06
1.0158714e-06
5.3097633e-07
1.7858489e-07
5.6009466e-08
0.00074664907
0.00071306331
0.00067934595
0.00064553091
0.00061170252
0.00057796386
0.00054443912
0.00051125528
0.00047853761
0.00044641084
0.00041499882
0.00038442243
0.00035479718
0.00032623114
0.00029882311
0.00027266072
0.00024781877
0.00022435768
0.00020232239
0.00018174154
0.00016262711
0.00014497457
0.00012876334
0.00011395787
0.000100509
8.8355777e-05
7.7427431e-05
6.7645635e-05
5.8926796e-05
5.1184337e-05
4.4330891e-05
3.8280282e-05
3.2949274e-05
2.8259001e-05
2.4136094e-05
2.0513464e-05
1.7330787e-05
1.4534689e-05
1.2078703e-05
9.9230286e-06
8.0341437e-06
6.3843448e-06
4.9512087e-06
3.717211e-06
2.6688323e-06
1.7978697e-06
1.0952192e-06
5.7098966e-07
1.9443175e-07
5.4996759e-08
0.00077405517
0.00074221741
0.00071009313
0.00067773449
0.00064520176
0.00061258578
0.0005799944
0.00054753999
0.00051533616
0.00048349848
0.00045214414
0.00042139035
0.0003913524
0.00036214201
0.00033386548
0.00030662207
0.00028050206
0.00025558522
0.00023193918
0.00020961825
0.0001886623
0.00016909622
0.00015092958