/*--------------------------------*- C++ -*----------------------------------*\
  =========                 |
  \\      /  F ield         | OpenFOAM: The Open Source CFD Toolbox
   \\    /   O peration     | Website:  https://openfoam.org
    \\  /    A nd           | Version:  6
     \\/     M anipulation  |
\*---------------------------------------------------------------------------*/
FoamFile
{
    version     2.0;
    format      ascii;
    class       volScalarField;
    location    "85";
    object      pPrime2Mean;
}
// * * * * * * * * * * * * * * * * * * * * * * * * * * * * * * * * * * * * * //

dimensions      [0 4 -4 0 0 0 0];

internalField   nonuniform List<scalar> 
9200
(
0.13146154
0.10889531
0.089794311
0.077368017
0.067457333
0.059110702
0.051913601
0.045655019
0.040194577
0.035419716
0.031237076
0.027568285
0.024347051
0.021516979
0.019029878
0.016844551
0.014926153
0.013245701
0.011782496
0.010510804
0.10640545
0.087949298
0.072519695
0.062387848
0.054268307
0.047412334
0.041494052
0.036347519
0.031860938
0.027943986
0.024521065
0.021528078
0.018910233
0.016620373
0.01461772
0.012866973
0.011337802
0.010004187
0.0088425148
0.0078193112
0.082914831
0.068410308
0.056427598
0.048456066
0.042019774
0.036561564
0.031840371
0.027733681
0.024157647
0.021043398
0.018332103
0.01597277
0.01392083
0.012137106
0.010587083
0.0092404104
0.0080705866
0.0070543879
0.0061688028
0.0053834747
0.061642983
0.050806731
0.041942772
0.035935915
0.031028947
0.026838803
0.023202953
0.020039434
0.017290589
0.014907149
0.012845125
0.011064759
0.0095300398
0.0082084406
0.007070802
0.006091259
0.0052471293
0.0045184889
0.0038857575
0.0033259295
0.043178865
0.035613782
0.029456449
0.025165552
0.021594158
0.018510748
0.01582273
0.013484451
0.011461458
0.0097211804
0.0082317674
0.006962386
0.0058837985
0.0049689333
0.0041933397
0.0035354459
0.0029765808
0.0025006767
0.0020928211
0.0017376451
0.02804159
0.023245714
0.019315781
0.016447496
0.013984186
0.01181953
0.0099200221
0.0082705875
0.0068557224
0.0056557623
0.0046478221
0.0038075742
0.003110917
0.0025352642
0.0020603865
0.0016688072
0.0013458153
0.0010791965
0.00085851565
0.0006743981
0.016665085
0.014045714
0.01181594
0.010041819
0.0084321297
0.0069767481
0.0056883199
0.0045751914
0.0036355524
0.0028583696
0.0022264962
0.0017199055
0.0013182693
0.0010026966
0.00075669019
0.00056647639
0.0004208964
0.00031109687
0.00023023844
0.00017300449
0.0093867813
0.0082788189
0.0071943714
0.0061607461
0.0051299479
0.004157628
0.0032879402
0.0025444584
0.0019332953
0.0014477719
0.0010735432
0.00079302639
0.00058853039
0.00044409889
0.0003463286
0.00028449429
0.00025027705
0.00023739902
0.00024150317
0.00025965153
0.0064381658
0.0061246041
0.0056212095
0.004958375
0.004219058
0.0034931712
0.0028398887
0.0022889263
0.0018484443
0.0015122838
0.0012665676
0.0010947706
0.00098091103
0.00091116874
0.00087440506
0.00086204699
0.00086768214
0.00088665463
0.00091592696
0.00095355663
0.007934339
0.0076706945
0.0071882384
0.0065199267
0.0057801237
0.0050597329
0.0044150323
0.003872626
0.003437391
0.0031006685
0.0028473737
0.0026609954
0.0025263766
0.0024308766
0.0023645648
0.0023199168
0.0022913461
0.0022747827
0.0022673737
0.0022669914
0.31366969
0.26376269
0.21795478
0.1889956
0.16600749
0.14671768
0.13011411
0.11565072
0.10298951
0.091864794
0.082059493
0.073393882
0.065717422
0.058902859
0.05284185
0.047441614
0.042622323
0.038312523
0.03444516
0.030981466
0.30965809
0.26013289
0.21485116
0.1862256
0.16352632
0.14448314
0.12809297
0.11381876
0.10132642
0.090352856
0.080683049
0.072139023
0.064571742
0.057855266
0.051882411
0.046561456
0.041813617
0.037568481
0.033758646
0.030346727
0.30147656
0.25294667
0.20880153
0.18088978
0.15878177
0.14023852
0.12427852
0.11038165
0.098222627
0.087544726
0.078137986
0.069828549
0.062470826
0.055941816
0.050136872
0.044966515
0.040354093
0.036231258
0.032530878
0.029216373
0.28926882
0.24237896
0.19998088
0.17315394
0.15192406
0.13411991
0.11879549
0.10545452
0.09378495
0.083539974
0.074517545
0.066550226
0.059497745
0.053241584
0.047680917
0.04272956
0.038313844
0.03436841
0.030827447
0.027654164
0.27336888
0.22873
0.18864495
0.16324689
0.14315853
0.12631262
0.11181232
0.099191377
0.088154851
0.078469056
0.069942462
0.062416172
0.055756965
0.04985222
0.044606099
0.039936631
0.035773768
0.032055832
0.028720087
0.02572901
0.25423045
0.2123973
0.17512527
0.15146079
0.13274562
0.1170501
0.10353926
0.091782217
0.081504557
0.072488485
0.064555285
0.057556474
0.051367427
0.045882696
0.04101247
0.036679803
0.03281875
0.029371662
0.026280846
0.02350896
0.23240402
0.19385735
0.15981408
0.1381381
0.12098894
0.1066033
0.094218935
0.083444739
0.074029706
0.065774303
0.058514562
0.052114047
0.046458102
0.041449614
0.037005762
0.033055396
0.029537149
0.026397439
0.023585072
0.021064994
0.20851684
0.17364862
0.14315163
0.12366092
0.10822587
0.095272127
0.084118727
0.074417643
0.065943584
0.058517178
0.051990802
0.046241437
0.041165594
0.036675539
0.032696369
0.029163569
0.026021037
0.0232195
0.020715167
0.018477343
0.18325026
0.15235174
0.12561062
0.1084374
0.094815522
0.083374934
0.073521607
0.064952608
0.057470095
0.050916319
0.045161249
0.040096378
0.035630349
0.031685692
0.028196247
0.025104978
0.022362044
0.019923449
0.017754032
0.015827522
0.15731516
0.13057336
0.10767951
0.09288437
0.081121918
0.071232729
0.062711662
0.055301504
0.048832896
0.043170627
0.038203034
0.033836763
0.029993145
0.026605468
0.023616852
0.020978518
0.018648469
0.016591174
0.014783178
0.013198788
0.027325916
0.023679895
0.020586514
0.017899085
0.015601638
0.013632248
0.011937239
0.010470597
0.009194925
0.0080798657
0.0071008383
0.0062381391
0.0054759294
0.0048013001
0.0042035739
0.0036737976
0.0032043553
0.0027886792
0.0024210379
0.0020963805
0.0018102175
0.0015585309
0.0013377046
0.0011444697
0.00097586275
0.0008291923
0.00070201243
0.000592101
0.00049744169
0.00041620836
0.00034675154
0.00028758585
0.00023737859
0.00019493853
0.00015920562
0.00012924049
0.00010421486
8.3401507e-05
6.6166003e-05
5.1955625e-05
4.0296791e-05
3.0771691e-05
2.3051969e-05
1.6787353e-05
1.185805e-05
7.7735791e-06
4.9990997e-06
2.2609614e-06
3.0802864e-06
4.8545234e-06
0.026793348
0.023269669
0.02026575
0.017647078
0.015406079
0.013482223
0.011822403
0.010382372
0.0091266776
0.0080265103
0.0070585845
0.0062042639
0.0054484988
0.0047789235
0.0041852308
0.00365872
0.0031919487
0.0027784713
0.0024126462
0.0020894906
0.0018045691
0.0015539076
0.0013339262
0.0011413864
0.00097335001
0.00082714708
0.00070034959
0.00059075045
0.00049634586
0.00041532011
0.00034603235
0.0002870043
0.00023690908
0.00019456023
0.00015890157
0.00012899688
0.00010402045
8.3247132e-05
6.6044189e-05
5.186028e-05
4.0222944e-05
3.0715305e-05
2.3009762e-05
1.6756744e-05
1.1836891e-05
7.760317e-06
4.9925318e-06
2.2573261e-06
3.0604237e-06
4.7563034e-06
0.025854902
0.022551649
0.019709807
0.017217342
0.015077859
0.01323446
0.011635742
0.01024099
0.0090186008
0.0079428284
0.0069928241
0.0061518689
0.005406291
0.00474465
0.0041572544
0.0036358175
0.0031731783
0.0027630878
0.0024000476
0.002079184
0.0017961479
0.001547035
0.0013283231
0.001136822
0.0009696337
0.00082412208
0.00069788737
0.00058874599
0.00049471363
0.00041399063
0.00034494931
0.0002861221
0.00023619082
0.00019397604
0.00015842723
0.0001286127
0.00010371039
8.2998083e-05
6.5845393e-05
5.1702898e-05
4.0099702e-05
3.062022e-05
2.2937935e-05
1.6704242e-05
1.180047e-05
7.7374939e-06
4.9815375e-06
2.2512645e-06
3.0207901e-06
4.5645656e-06
0.024567543
0.021569403
0.018957721
0.016647466
0.014650343
0.012916333
0.011398788
0.010062867
0.0088829335
0.0078379396
0.0069104885
0.0060863754
0.0053536693
0.0047020773
0.0041226623
0.0036076449
0.0031502148
0.0027443722
0.0023848038
0.0020667787
0.0017860611
0.0015388388
0.0013216655
0.001131414
0.00096523906
0.00082054802
0.00069497733
0.00058637326
0.000492776
0.0004124059
0.00034365142
0.00028505808
0.00023531812
0.00019326043
0.00015784109
0.00012813363
0.00010332015
8.2681706e-05
6.559055e-05
5.1499379e-05
3.9939021e-05
3.0495322e-05
2.2842984e-05
1.6634496e-05
1.1751951e-05
7.7072085e-06
4.9669835e-06
2.2436868e-06
2.9614216e-06
4.2892777e-06
0.022988379
0.020367939
0.018050163
0.015976153
0.014157316
0.012554435
0.01113134
0.0098624163
0.0087301126
0.0077195539
0.0068175299
0.0060126023
0.005294679
0.004654681
0.0040844768
0.0035768401
0.0031253562
0.0027243176
0.0023686334
0.0020537468
0.0017755616
0.0015303786
0.001314844
0.0011259069
0.00096078466
0.00081693609
0.00069203967
0.00058397589
0.00049081256
0.00041079219
0.00034232092
0.00028395823
0.0002344073
0.0001925056
0.0001572158
0.00012761661
0.00010289404
8.2332278e-05
6.530597e-05
5.1269739e-05
3.9755981e-05
3.0351825e-05
2.2733104e-05
1.6553362e-05
1.1695301e-05
7.6720717e-06
4.9499015e-06
2.235736e-06
2.8829519e-06
3.9450265e-06
0.021167418
0.018988856
0.017024381
0.015235444
0.013623858
0.012166005
0.010844307
0.0096466552
0.0085650789
0.0075915623
0.0067173316
0.0059336697
0.0052322478
0.0046051945
0.0040452194
0.0035456988
0.003100666
0.0027047567
0.0023531467
0.0020414901
0.001765859
0.00152269
0.0013087391
0.001121044
0.00095689405
0.00081380618
0.00068950532
0.000581909
0.0004891143
0.00040938668
0.00034115004
0.0002829775
0.00023358259
0.00019181055
0.00015662984
0.00012712341
0.00010248043
8.1987363e-05
6.5020606e-05
5.1036101e-05
3.9567299e-05
3.02022e-05
2.2617423e-05
1.6467359e-05
1.1634915e-05
7.6349498e-06
4.9313529e-06
2.2286177e-06
2.7864425e-06
3.5495203e-06
0.019153805
0.01747404
0.015913839
0.014445131
0.013058554
0.011752794
0.010536343
0.0094140025
0.0083874391
0.0074549162
0.006611829
0.0058521016
0.0051691721
0.0045564554
0.0040076195
0.0035167565
0.0030784442
0.0026877392
0.0023401457
0.002031575
0.0017583023
0.0015169253
0.0013043274
0.0011176476
0.0009542554
0.00081173065
0.00068784758
0.00058056187
0.00048799968
0.00040844848
0.00034034851
0.00028228477
0.00023297924
0.00019128304
0.00015616854
0.00012672124
0.00010213185
8.1687775e-05
6.4765905e-05
5.0822462e-05
3.9391083e-05
3.0059911e-05
2.2505749e-05
1.6383444e-05
1.1575428e-05
7.5988211e-06
4.9123828e-06
2.2234991e-06
2.6733858e-06
3.1219498e-06
0.017008005
0.01587131
0.014744274
0.013602847
0.012444437
0.011296968
0.010194238
0.0091566201
0.0081939646
0.0073096773
0.0065030411
0.0057708935
0.0051088136
0.0045118306
0.0039748448
0.0034928814
0.0030612225
0.0026754605
0.0023315087
0.0020255921
0.0017542273
0.001514198
0.0013025317
0.0011164781
0.00095349178
0.00081121763
0.00068747888
0.00058026757
0.00048773641
0.00040819176
0.00034008683
0.00028201508
0.00023270366
0.00019100643
0.00015589684
0.00012646036
0.00010188698
8.1463027e-05
6.4564198e-05
5.0645555e-05
3.9239717e-05
2.9933985e-05
2.2404507e-05
1.6306065e-05
1.1519649e-05
7.565418e-06
4.8932338e-06
2.2210544e-06
2.5455531e-06
2.6816406e-06
0.014788758
0.014203043
0.01349071
0.012648621
0.011716038
0.010745155
0.0097792951
0.0088469916
0.0079647895
0.0071412454
0.0063799955
0.0056815662
0.0050444504
0.0044658876
0.0039424429
0.0034703887
0.0030459356
0.002665366
0.0023251087
0.002021775
0.0017521721
0.0015133037
0.0013023636
0.0011167277
0.00095394577
0.00081173377
0.00068796767
0.00058067774
0.00048804382
0.00040839072
0.00034018355
0.00028202282
0.00023263915
0.0001908874
0.00015574029
0.00012628159
0.00010169897
8.1276278e-05
6.4386751e-05
5.0483195e-05
3.9096299e-05
2.9811754e-05
2.2304381e-05
1.622854e-05
1.1462848e-05
7.5315773e-06
4.8714077e-06
2.2203925e-06
2.4053399e-06
2.248392e-06
0.012576704
0.012418878
0.012037909
0.011474602
0.010790313
0.010034245
0.0092425672
0.0084460745
0.0076679793
0.0069232878
0.0062210571
0.00556642
0.0049616345
0.0044068542
0.0039008411
0.003441511
0.0030262954
0.0026523802
0.0023168628
0.0020168516
0.0017495257
0.0015121679
0.0013021825
0.0011171048
0.00095460472
0.00081248866
0.0006886996
0.00058131685
0.00048855525
0.00040876374
0.00034042327
0.00028214397
0.00023266146
0.00019083237
0.00015562895
0.00012613311
0.00010152987
8.110013e-05
6.4214141e-05
5.032193e-05
3.8951787e-05
2.9687349e-05
2.2201751e-05
1.614868e-05
1.1403816e-05
7.4963203e-06
4.8463667e-06
2.2206696e-06
2.2581089e-06
1.8425594e-06
0.010164129
0.01026559
0.010157519
0.0098601056
0.0094369868
0.0089238799
0.0083449215
0.0077274691
0.0070969307
0.0064720399
0.0058658423
0.0052874637
0.0047428664
0.0042354056
0.0037665034
0.0033362399
0.0029437805
0.0025876823
0.0022661188
0.0019770403
0.0017182827
0.0014876415
0.0012829217
0.001101972
0.00094270805
0.00080312886
0.00068132881
0.00057550615
0.00048396907
0.00040513974
0.00033755645
0.00027987415
0.00023086343
0.0001894081
0.00015450158
0.00012524219
0.0001008277
8.0548937e-05
6.378388e-05
4.9988675e-05
3.8696289e-05
2.949455e-05
2.2058711e-05
1.6047447e-05
1.1332423e-05
7.4575702e-06
4.8143173e-06
2.2227379e-06
2.1067308e-06
1.4863685e-06
0.0078718604
0.0081059138
0.0081637363
0.0080539253
0.007829891
0.0075174053
0.0071300206
0.0066887145
0.0062161687
0.0057302365
0.0052443129
0.0047687933
0.0043114047
0.0038774149
0.0034701192
0.0030913376
0.0027417926
0.0024213981
0.0021294915
0.0018650099
0.0016266216
0.001412821
0.0012219991
0.001052496
0.00090263862
0.00077077122
0.00065527733
0.00055459747
0.00046724265
0.00039180451
0.00032696276
0.00027149002
0.00022425454
0.00018422098
0.00015044941
0.000122093
9.8394438e-05
7.8681305e-05
6.236141e-05
4.8915317e-05
3.7895294e-05
2.8905941e-05
2.1633045e-05
1.575076e-05
1.1127008e-05
7.3370075e-06
4.7241066e-06
2.2063387e-06
1.9178768e-06
1.1508279e-06
0.0059039506
0.0062200769
0.0063934481
0.0064287661
0.0063609165
0.0062088491
0.0059804104
0.0056904242
0.0053575364
0.0049976536
0.0046234542
0.0042454988
0.0038723346
0.003510416
0.0031643687
0.002837357
0.0025313843
0.0022475366
0.0019861947
0.0017472082
0.0015300342
0.0013338431
0.0011576026
0.0010001425
0.00086020505
0.00073648591
0.00062766547
0.00053243466
0.00044951524
0.00037767589
0.00031574458
0.00026261779
0.00021726688
0.00017874204
0.00014617409
0.00011877447
9.5833709e-05
7.671851e-05
6.0868515e-05
4.7790338e-05
3.705681e-05
2.829048e-05
2.1188168e-05
1.5440954e-05
1.0911543e-05
7.2112831e-06
4.6254416e-06
2.1922234e-06
1.7153735e-06
8.390741e-07
0.0042507951
0.0046061269
0.0048497727
0.0049861862
0.0050329203
0.005002803
0.0049008094
0.0047365145
0.004523733
0.0042755456
0.0040031094
0.0037162503
0.0034234586
0.0031316438
0.0028461841
0.0025711429
0.0023094733
0.0020631976
0.0018335775
0.0016212676
0.0014264458
0.001248919
0.0010882108
0.00094363329
0.00081434501
0.00069939869
0.00059778036
0.0005084414
0.00043032478
0.00036238635
0.00030361189
0.00025303041
0.0002097241
0.00017283548
0.00014157194
0.00011520818
9.3086737e-05
7.4616968e-05
5.9273228e-05
4.6590544e-05
3.6164227e-05
2.7636326e-05
2.0715854e-05
1.5111961e-05
1.0682247e-05
7.0764919e-06
4.5175967e-06
2.1767241e-06
1.5137208e-06
5.7612426e-07
0.0029217193
0.0032733889
0.0035454763
0.0037404225
0.0038624406
0.0039182002
0.0039105875
0.0038451154
0.0037308705
0.0035776124
0.0033944152
0.0031897265
0.0029712694
0.0027457431
0.0025187118
0.0022946721
0.0020771566
0.0018688404
0.0016716564
0.0014869138
0.0013154056
0.0011575048
0.0010132459
0.00088239678
0.00076451823
0.00065901551
0.00056518133
0.00048223237
0.00040933978
0.00034565464
0.00029032892
0.0002425323
0.00020146551
0.0001663704
0.0001365372
0.00011130933
9.0086068e-05
7.2323422e-05
5.7533834e-05
4.5283534e-05
3.5192623e-05
2.6924473e-05
2.0201866e-05
1.4753074e-05
1.0431614e-05
6.9266515e-06
4.3977906e-06
2.1560815e-06
1.3212305e-06
3.7508281e-07
0.0019036712
0.0022181262
0.0024837912
0.0026998841
0.0028619585
0.0029711117
0.0030279651
0.0030348619
0.0029968353
0.0029202949
0.0028119187
0.0026783715
0.0025261188
0.002361122
0.002188636
0.0020131539
0.0018384186
0.0016674566
0.0015026357
0.0013457379
0.0011980367
0.0010603724
0.00093322142
0.00081675973
0.00071091997
0.00061544132
0.00052991346
0.00045381469
0.00038654487
0.00032745349
0.00027586346
0.00023109075
0.00019246048
0.0001593196
0.00013104658
0.00010705854
8.681594e-05
6.9825273e-05
5.5640401e-05
4.386154e-05
3.4135963e-05
2.6150197e-05
1.9642543e-05
1.4361254e-05
1.0157463e-05
6.7593915e-06
4.2655629e-06
2.127641e-06
1.1445482e-06
2.4039539e-07
0.0011636482
0.0014207955
0.0016550997
0.001862987
0.0020356815
0.0021702071
0.0022648946
0.0023195473
0.0023359843
0.0023176013
0.002268652
0.0021938474
0.0020981083
0.0019862936
0.0018629612
0.0017322301
0.0015977153
0.0014625017
0.0013291471
0.0011997083
0.0010757837
0.00095856063
0.00084886699
0.00074722113
0.00065388021
0.000568885
0.00049210091
0.00042325503
0.00036196911
0.00030778858
0.00026020773
0.00021869117
0.0001826919
0.00015166605
0.00012508462
0.00010244258
8.326548e-05
6.7113894e-05
5.3586259e-05
4.23195e-05
3.2990442e-05
2.5310606e-05
1.9035698e-05
1.3934656e-05
9.8585511e-06
6.5731025e-06
4.1212006e-06
2.089049e-06
9.8839455e-07
1.6812658e-07
0.0006593578
0.00085102639
0.0010392739
0.001218915
0.0013800409
0.0015174053
0.0016275341
0.0017083096
0.00175918
0.0017810856
0.0017760757
0.0017469546
0.0016970254
0.0016298501
0.0015490281
0.0014580236
0.0013600467
0.0012579804
0.00115434
0.0010512586
0.00095049357
0.00085344592
0.00076118883
0.00067450088
0.00059390163
0.00051968752
0.00045196677
0.00039069249
0.00033569337
0.00028670167
0.00024337829
0.00020533481
0.00017215252
0.00014339849
0.00011863887
9.7449502e-05
7.9424134e-05
6.4180449e-05
5.1364305e-05
4.065188e-05
3.1751848e-05
2.4402526e-05
1.8378985e-05
1.3471438e-05
9.5337225e-06
6.3664946e-06
3.9652844e-06
2.0384953e-06
8.5492298e-07
1.4673264e-07
0.00034636848
0.00047300148
0.00060922773
0.00074938441
0.00088431392
0.0010080438
0.0011161122
0.0012051844
0.0012731352
0.0013191056
0.0013433452
0.0013469747
0.0013317759
0.0012999956
0.0012541563
0.0011968897
0.0011308015
0.0010583671
0.00098186011
0.00090330722
0.00082446393
0.00074680747
0.00067154216
0.00059961395
0.00053173098
0.00046838791
0.00040989204
0.00035639004
0.00030789416
0.00026430731
0.00022544635
0.00019106338
0.00016086464
0.00013452703
0.00011171222
9.2078262e-05
7.5289044e-05
6.1021549e-05
4.8971324e-05
3.8855958e-05
3.0418051e-05
2.3424378e-05
1.7671306e-05
1.2970841e-05
9.1826858e-06
6.1392617e-06
3.7989593e-06
1.9752994e-06
7.4398393e-07
1.5975653e-07
0.00018252842
0.00025007671
0.00033481129
0.00043139176
0.00053227636
0.0006318195
0.00072539519
0.00080916202
0.00088014169
0.00093633223
0.00097668556
0.0010009891
0.0010097289
0.0010039514
0.00098512032
0.00095497471
0.00091540267
0.0008683333
0.00081564837
0.00075911691
0.00070034984
0.00064077108
0.00058160272
0.00052386132
0.0004683631
0.00041573531
0.00036643203
0.00032075261
0.00027886172
0.00024080974
0.00020655286
0.00017597212
0.00014889118
0.00012509225
0.00010433017
8.6344506e-05
7.0869608e-05
5.7642784e-05
4.6410683e-05
3.6933874e-05
2.8990543e-05
2.2377338e-05
1.6913685e-05
1.2433832e-05
8.8064758e-06
5.8924105e-06
3.6239957e-06
1.9000951e-06
6.5375728e-07
1.8962134e-07
0.00013066425
0.00014800712
0.00018597634
0.00023999693
0.00030437125
0.00037434979
0.00044575392
0.00051482728
0.00057833959
0.00063373161
0.00067916976
0.00071351833
0.00073627732
0.00074750532
0.00074772799
0.00073783581
0.00071898056
0.0006924794
0.00065972931
0.00062213421
0.00058104742
0.00053772893
0.00049331509
0.00044880009
0.00040502686
0.000362686
0.00032232057
0.00028433563
0.00024901068
0.00021651426
0.0001869195
0.00016021984
0.00013634442
0.00011517254
9.6546892e-05
8.0285362e-05
6.619119e-05
5.4061529e-05
4.3694419e-05
3.489414e-05
2.7475522e-05
2.1266094e-05
1.610979e-05
1.1863456e-05
8.4076805e-06
5.6283761e-06
3.4427641e-06
1.8147807e-06
5.8153998e-07
2.2132872e-07
0.00015969172
0.00013669575
0.00013486688
0.00015054869
0.00017977045
0.00021888091
0.00026448565
0.00031331256
0.00036232241
0.00040886627
0.00045077797
0.00048640308
0.0005145952
0.00053469272
0.00054647652
0.00055011031
0.0005460701
0.00053507011
0.00051799109
0.00049581356
0.0004695588
0.0004402398
0.00040882256
0.000376197
0.00034315709
0.00031038885
0.0002784653
0.00024784681
0.0002188859
0.00019183519
0.00016685758
0.00014403773
0.00012339416
0.00010489136
8.8451347e-05
7.3964491e-05
6.1299134e-05
5.0310044e-05
4.0845549e-05
3.2753313e-05
2.588505e-05
2.0099611e-05
1.5266409e-05
1.1265071e-05
7.9905326e-06
5.3509295e-06
3.2580824e-06
1.7221658e-06
5.2432715e-07
2.4489829e-07
0.00024462101
0.00019085786
0.0001569792
0.00014020946
0.00013802696
0.00014784846
0.00016716669
0.00019339389
0.0002239547
0.0002564364
0.00028869156
0.00031889413
0.00034557169
0.00036762146
0.00038430767
0.00039524004
0.0004003371
0.00039977967
0.00039395938
0.00038342597
0.00036883626
0.00035090718
0.00033037504
0.00030796184
0.00028434859
0.00026015583
0.00023593036
0.0002121379
0.00018916052
0.00016729806
0.00014677261
0.00012773519
0.00011027396
9.4423243e-05
8.0172773e-05
6.7476806e-05
5.6262681e-05
4.6438599e-05
3.7900483e-05
3.0537776e-05
2.423831e-05
1.8891959e-05
1.439395e-05
1.0646592e-05
7.5609862e-06
5.065047e-06
3.0731068e-06
1.6255691e-06
4.7919327e-07
2.5599451e-07
0.00036597747
0.00028999666
0.00023162537
0.00018883471
0.00016022366
0.00014412468
0.00013886439
0.00014257955
0.00015327933
0.0001689739
0.00018776893
0.00020792673
0.00022791389
0.00024643923
0.00026247763
0.00027527724
0.00028435155
0.00028945942
0.00029057629
0.00028785948
0.00028161051
0.00027223685
0.00026021546
0.00024605974
0.0002302911
0.00021341543
0.0001959049
0.0001781847
0.00016062458
0.00014353443
0.00012716335
0.00011170158
9.7284417e-05
8.3997826e-05
7.1884827e-05
6.0952413e-05
5.1178473e-05
4.2518437e-05
3.4911402e-05
2.8285567e-05
2.2562944e-05
1.7663224e-05
1.3507008e-05
1.0018756e-05
7.1267844e-06
4.7767453e-06
2.8912287e-06
1.5283975e-06
4.4344173e-07
2.5488379e-07
0.00050896681
0.00041797794
0.00034191668
0.00027933854
0.00022964759
0.00019189462
0.00016510478
0.00014807518
0.00013940561
0.00013759935
0.00014113955
0.00014854217
0.00015840349
0.00016944508
0.00018055055
0.00019079021
0.00019943344
0.00020594995
0.0002100014
0.00021142512
0.0002102119
0.00020647992
0.00020044705
0.00019240312
0.0001826839
0.00017164767
0.00015965514
0.00014705313
0.00013416211
0.00012126735
0.00010861353
9.6402298e-05
8.479221e-05
7.3900723e-05
6.3807556e-05
5.4559053e-05
4.6173087e-05
3.8644146e-05
3.1948344e-05
2.6048102e-05
2.0896394e-05
1.6440491e-05
1.2625023e-05
9.395504e-06
6.697646e-06
4.4930554e-06
2.7161268e-06
1.4339191e-06
4.1474681e-07
2.4452349e-07
0.00066259818
0.00056242033
0.00047445676
0.00039769656
0.00033207941
0.00027717918
0.00023255681
0.00019755264
0.00017129147
0.00015275631
0.00014084401
0.00013440388
0.0001322762
0.00013333363
0.00013651994
0.00014088161
0.00014559132
0.00014996303
0.0001534589
0.00015568849
0.00015640118
0.00015547302
0.00015288982
0.00014872765
0.0001431326
0.00013630066
0.00012845908
0.00011984967
0.0001107147
0.00010128555
9.1774224e-05
8.2367457e-05
7.3223349e-05
6.4470027e-05
5.6206053e-05
4.8502152e-05
4.1403882e-05
3.4934903e-05
2.9100548e-05
2.3891446e-05
1.9287009e-05
1.5258729e-05
1.1772938e-05
8.7944095e-06
6.285523e-06
4.2221031e-06
2.5519107e-06
1.3452005e-06
3.9131343e-07
2.2867502e-07
0.00081888419
0.0007140442
0.0006188901
0.00053272196
0.00045580379
0.00038806405
0.0003294433
0.00027969289
0.00023836262
0.00020485194
0.0001784469
0.00015834359
0.00014367433
0.00013353991
0.00012704307
0.00012331925
0.00012156311
0.00012105012
0.00012115253
0.00012134932
0.00012123006
0.0001204932
0.00011893963
0.00011646248
0.00011303432
0.00010869277
0.00010352563
9.7656381e-05
9.1230761e-05
8.4404908e-05
7.7335423e-05
7.0171502e-05
6.304908e-05
5.6086948e-05
4.9384569e-05
4.3021374e-05
3.7057227e-05
3.1533776e-05
2.6476421e-05
2.1896648e-05
1.7794525e-05
1.4161295e-05
1.0981651e-05
8.2370403e-06
5.9048708e-06
3.9732934e-06
2.4033579e-06
1.2652239e-06
3.7208042e-07
2.1065097e-07
0.00097216004
0.00086605872
0.00076740616
0.00067572165
0.00059143962
0.00051471015
0.00044572084
0.00038451036
0.0003309461
0.00028475872
0.00024556437
0.00021287548
0.00018611493
0.00016463751
0.00014775482
0.00013476036
0.00012495358
0.00011766191
0.0001122601
0.00010818569
0.0001049501
0.0001021453
9.9445947e-05
9.6607607e-05
9.3461641e-05
8.9907412e-05
8.5902727e-05
8.1453254e-05
7.6601691e-05
7.1417265e-05
6.5986095e-05
6.0402747e-05
5.4763207e-05
4.9159343e-05
4.367486e-05
3.8382621e-05
3.3343179e-05
2.8604332e-05
2.4201476e-05
2.0158564e-05
1.6489473e-05
1.3199694e-05
1.0287965e-05
7.74901e-06
5.5727486e-06
3.757441e-06
2.2761008e-06
1.1970559e-06
3.5682288e-07
1.9279837e-07
0.0011185287
0.0010136255
0.00091426136
0.00082011014
0.00073167149
0.00064921951
0.00057308568
0.00050349229
0.00044052609
0.00038416126
0.00033427147
0.00029063148
0.00025292179
0.00022074022
0.00019361784
0.00017103646
0.00015244716
0.00013728898
0.00012500716
0.00011506973
0.00010698174
0.00010029646
9.4623427e-05
8.9632972e-05
8.5057656e-05
8.0690731e-05
7.6382205e-05
7.2033045e-05
6.7588113e-05
6.302843e-05
5.8363286e-05
5.3622642e-05
4.8850182e-05
4.4097247e-05
3.9417804e-05
3.486449e-05
3.0485712e-05
2.6323723e-05
2.2413548e-05
1.8782631e-05
1.5451047e-05
1.2432215e-05
9.7337557e-06
7.3595024e-06
5.3085843e-06
3.5867226e-06
2.1766791e-06
1.1439838e-06
3.4610033e-07
1.7650815e-07
0.0012554204
0.0011534104
0.0010553519
0.00096102977
0.00087094204
0.00078541959
0.00070486284
0.00062959773
0.00055984914
0.00049575632
0.00043737863
0.00038469139
0.00033758414
0.0002958645
0.00025926641
0.00022746021
0.00020006481
0.00017666115
0.0001568068
0.00014005049
0.0001259461
0.00011406522
0.00010400786
9.5410864e-05
8.7953851e-05
8.1362637e-05
7.5410249e-05
6.9915793e-05
6.4741563e-05
5.9788792e-05
5.4992486e-05
5.0315783e-05
4.5744198e-05
4.1280105e-05
3.6937672e-05
3.2738455e-05
2.8707719e-05
2.4871537e-05
2.1254646e-05
1.7879008e-05
1.4762982e-05
1.1921085e-05
9.3640544e-06
7.1000396e-06
5.1334262e-06
3.4742983e-06
2.1123488e-06
1.1095238e-06
3.410372e-07
1.6245742e-07
0.0013812472
0.0012832175
0.0011878467
0.0010950028
0.0010051429
0.00091861119
0.00083582644
0.00075716063
0.00068291464
0.00061332893
0.00054858564
0.00048880168
0.00043402318
0.00038422438
0.00033930996
0.00029911923
0.00026343234
0.00023197843
0.00020444541
0.00018049097
0.000159754
0.00014186606
0.0001264622
0.00011319074
0.00010172152
9.1752438e-05
8.3014043e-05
7.527225e-05
6.8329209e-05
6.2022596e-05
5.6223554e-05
5.083364e-05
4.5781069e-05
4.1016597e-05
3.6509319e-05
3.2242605e-05
2.8210387e-05
2.4413891e-05
2.0858904e-05
1.7553613e-05
1.4506995e-05
1.1727782e-05
9.2237792e-06
7.0022792e-06
5.0685265e-06
3.4334883e-06
2.0905961e-06
1.097254e-06
3.4302378e-07
1.5088608e-07
0.0014951317
0.0014016937
0.0013098806
0.0012196251
0.001131324
0.0010453092
0.00096198561
0.00088173285
0.00080488345
0.00073173084
0.00066252958
0.00059748764
0.00053675926
0.00048044098
0.00042857018
0.00038112501
0.00033802611
0.00029913998
0.00026428436
0.00023323499
0.0002057337
0.00018149719
0.00016022625
0.00014161485
0.0001253588
0.00011116346
9.8750362e-05
8.786237e-05
7.8267452e-05
6.9760925e-05
6.2166329e-05
5.5335068e-05
4.9145023e-05
4.3498387e-05
3.8318957e-05
3.3549132e-05
2.9146823e-05
2.5082459e-05
2.1336221e-05
1.7895611e-05
1.4753421e-05
1.1906167e-05
9.3528376e-06
7.0946391e-06
5.1331102e-06
3.4764024e-06
2.118313e-06
1.1104516e-06
3.5340567e-07
1.4181156e-07
0.0015966946
0.0015080923
0.0014203
0.0013333045
0.001247435
0.0011629972
0.0010803648
0.00099990093
0.00092194055
0.00084679617
0.00077475728
0.00070608321
0.00064099572
0.00057967382
0.00052225026
0.0004688089
0.00041938323
0.00037395637
0.00033246265
0.00029479075
0.00026078815
0.00023026687
0.00020301003
0.0001787791
0.00015732144
0.00013837767
0.00012168872
0.00010700213
9.4077459e-05
8.269055e-05
7.263674e-05
6.3732827e-05
5.5817995e-05
4.8753756e-05
4.2423082e-05
3.6728919e-05
3.1592266e-05
2.6949997e-05
2.2752596e-05
1.8961955e-05
1.554933e-05
1.2493583e-05
9.779633e-06
7.3977259e-06
5.3412898e-06
3.6119867e-06
2.2006255e-06
1.151532e-06
3.7319183e-07
1.3515469e-07
0.0016858769
0.0016020721
0.0015184439
0.0014350275
0.0013520841
0.0012698884
0.0011887745
0.0011090763
0.0010311135
0.0009551955
0.00088162119
0.00081067227
0.0007426067
0.00067765348
0.00061600816
0.00055782902
0.00050323375
0.00045229721
0.0004050504
0.00036148061
0.0003215329
0.00028511282
0.0002520902
0.00022230399
0.0001955678
0.00017167593
0.00015040967
0.00013154347
0.00011485081
0.0001001095
8.7106273e-05
7.5640467e-05
6.5526827e-05
5.6597361e-05
4.8702337e-05
4.1710488e-05
3.5508567e-05
3.0000386e-05
2.5105492e-05
2.0757619e-05
1.6903054e-05
1.3499065e-05
1.0512352e-05
7.9181162e-06
5.6978227e-06
3.8432993e-06
2.3392746e-06
1.2212458e-06
4.0274041e-07
1.307808e-07
0.0017628139
0.0016835528
0.0016039831
0.0015241846
0.0014443556
0.0013647389
0.0012856275
0.0012073211
0.0011301147
0.0010543025
0.00098017624
0.00090802063
0.0008381077
0.00077069192
0.00070600574
0.00064425538
0.00058561669
0.00053023173
0.00047820603
0.00042960684
0.00038446223
0.00034276143
0.00030445609
0.00026946269
0.00023766587
0.0002089226
0.00018306696
0.00015991535
0.00013927188
0.00012093372
0.00010469618
9.0357351e-05
7.7722164e-05
6.6605686e-05
5.6835733e-05
4.8254675e-05
4.0720539e-05
3.4107447e-05
2.8305503e-05
2.3220235e-05
1.8771721e-05
1.4893533e-05
1.153151e-05
8.6429242e-06
6.1943297e-06
4.1650534e-06
2.5311584e-06
1.3179684e-06
4.4152923e-07
1.2851388e-07
0.0018276659
0.0017525248
0.001676709
0.0016003415
0.0015235635
0.0014465893
0.0013696732
0.0012930804
0.0012170789
0.0011419411
0.0010679431
0.00099536137
0.00092446745
0.00085552455
0.00078878307
0.00072447671
0.00066281807
0.0006039949
0.00054816638
0.00049546029
0.00044597052
0.00039975565
0.00035683828
0.00031720533
0.0002808093
0.00024757049
0.00021738003
0.00019010362
0.00016558586
0.00014365493
0.00012412747
0.0001068134
9.1520547e-05
7.8058913e-05
6.6244405e-05
5.5901972e-05
4.6868101e-05
3.8992636e-05
3.2139966e-05
2.6189632e-05
2.1036432e-05
1.6590145e-05
1.2774896e-05
9.528654e-06
6.8014198e-06
4.5583508e-06
2.765104e-06
1.4359552e-06
4.8746347e-07
1.2799599e-07
0.0018806128
0.0018090333
0.0017365067
0.0016632009