/*--------------------------------*- C++ -*----------------------------------*\
  =========                 |
  \\      /  F ield         | OpenFOAM: The Open Source CFD Toolbox
   \\    /   O peration     | Website:  https://openfoam.org
    \\  /    A nd           | Version:  6
     \\/     M anipulation  |
\*---------------------------------------------------------------------------*/
FoamFile
{
    version     2.0;
    format      ascii;
    class       surfaceScalarField;
    location    "9";
    object      phi_0;
}
// * * * * * * * * * * * * * * * * * * * * * * * * * * * * * * * * * * * * * //

dimensions      [0 3 -1 0 0 0 0];

internalField   nonuniform List<scalar> 
18180
(
0.00037959363
-0.00025211232
-0.00012748124
0.0015502801
-0.0017573671
0.00058668077
0.0035780038
-0.0041541008
0.0021263771
0.0065273342
-0.0073532207
0.0044038903
0.010459582
-0.011298508
0.0073662608
0.015429075
-0.015943477
0.010973984
0.021478663
-0.02124494
0.015195352
0.028634921
-0.027159444
0.020003186
0.036903356
-0.033639366
0.025370931
0.046264095
-0.040629782
0.031269042
0.056668619
-0.048066636
0.037662113
0.06803813
-0.055876252
0.044506742
0.080264132
-0.063976219
0.051750217
0.093211702
-0.072277633
0.059330063
0.10672592
-0.080688656
0.067174442
0.12064169
-0.08911926
0.075203489
0.13479622
-0.097486763
0.083332226
0.14904703
-0.10572137
0.09147057
0.16333632
-0.11378476
0.099495467
-0.12166329
0.10720629
0.17779331
0.00046347313
-0.00071558541
0.0018687024
-0.0031625964
0.0042701054
-0.0065555037
0.0077184988
-0.010801614
0.012257227
-0.015837236
0.01791647
-0.02160272
0.024707361
-0.028035831
0.032616498
-0.035068581
0.041601396
-0.042624264
0.051587562
-0.050615948
0.062467827
-0.058946901
0.074104402
-0.067512827
0.086333819
-0.076205637
0.098974607
-0.084918421
0.11183705
-0.093551098
0.12473393
-0.10201614
0.13749075
-0.11024358
0.14995509
-0.11818572
0.161998
-0.12582767
-0.13311763
0.17345235
0.00055127216
-0.0012668575
0.002192077
-0.0048034011
0.0049574399
-0.0093208666
0.0088759732
-0.014720147
0.01396318
-0.020924443
0.020213987
-0.027853526
0.027596182
-0.035418026
0.036045495
-0.043517894
0.045463001
-0.052041771
0.055715538
-0.060868484
0.0666395
-0.069870863
0.078047981
-0.078921308
0.089740713
-0.087898369
0.10151582
-0.096693529
0.11318201
-0.10521729
0.12456957
-0.1134037
0.13553863
-0.12121264
0.14598282
-0.12862991
0.15582214
-0.13566698
-0.14230591
0.16501041
0.00064060849
-0.001907466
0.00251045
-0.0066732425
0.0056155036
-0.01242592
0.0099522546
-0.019056898
0.015497695
-0.026469884
0.022200761
-0.034556592
0.029976442
-0.043193707
0.038703193
-0.052244646
0.048224228
-0.061562805
0.058352967
-0.070997224
0.068882341
-0.080400237
0.079597011
-0.089635978
0.090287123
-0.09858848
0.10076186
-0.10716827
0.11086111
-0.11531654
0.12046379
-0.12300638
0.12949202
-0.13024087
0.13791061
-0.1370485
0.14572082
-0.1434772
-0.14955923
0.15297415
0.0007275888
-0.0026350547
0.0028089437
-0.0087545974
0.0062108703
-0.015827847
0.010887563
-0.023733591
0.016767626
-0.032349946
0.023745719
-0.041534685
0.031679119
-0.051127107
0.040389319
-0.060954845
0.049668711
-0.070842198
0.059291766
-0.080620279
0.069029323
-0.090137794
0.078664122
-0.099270776
0.088005434
-0.10792979
0.096900855
-0.11606369
0.10524378
-0.12365946
0.11297597
-0.13073857
0.12008534
-0.13735023
0.12659991
-0.14356308
0.13257924
-0.14945652
-0.15509941
0.13811941
0.00080750204
-0.0034425568
0.0030701707
-0.011017266
0.0067061832
-0.019463859
0.011618518
-0.028645926
0.017680097
-0.038411525
0.02472741
-0.048581997
0.032561326
-0.058961024
0.040954253
-0.069347771
0.049662654
-0.079550599
0.058443118
-0.089400743
0.067069521
-0.098764197
0.075348672
-0.10754993
0.083132164
-0.11571328
0.090322961
-0.12325448
0.096876173
-0.13021267
0.10279458
-0.13665698
0.10812027
-0.14267592
0.11292415
-0.14836696
0.1172954
-0.15382778
-0.15914382
0.12133982
0.00087528827
-0.004317845
0.0032760448
-0.013418023
0.0070643004
-0.023252115
0.012085651
-0.033667277
0.018154221
-0.044480095
0.025050116
-0.055477892
0.032525825
-0.066436732
0.040319264
-0.07714121
0.048171146
-0.087402481
0.055843648
-0.097073245
0.063137173
-0.10605772
0.069902517
-0.11431527
0.076046818
-0.12185758
0.081532884
-0.12874055
0.086372766
-0.13505256
0.090617281
-0.14090149
0.094343674
-0.14640231
0.097643564
-0.15166685
0.10061289
-0.1567971
-0.16187904
0.10334811
0.00092566855
-0.0052435135
0.0034087843
-0.015901138
0.0072511259
-0.027094456
0.012238861
-0.038655012
0.018129414
-0.050370648
0.02465427
-0.062002748
0.031531353
-0.073313816
0.038483009
-0.084092865
0.045255926
-0.094175398
0.051639192
-0.10345651
0.057477186
-0.11189572
0.062675396
-0.11951348
0.06719878
-0.12638097
0.071063787
-0.13260556
0.074326136
-0.13831491
0.077066869
-0.14364222
0.079379055
-0.1487145
0.081356937
-0.15364473
0.083088452
-0.15852861
-0.16344275
0.084652164
0.00095220611
-0.0061957196
0.0034508184
-0.01839975
0.0072376686
-0.030881306
0.01204204
-0.043459384
0.017571913
-0.055900521
0.02352288
-0.067953715
0.029595749
-0.079386684
0.035517318
-0.090014434
0.0410598
-0.099717881
0.046054938
-0.10845165
0.050400321
-0.1162411
0.054057383
-0.12317054
0.057042338
-0.12936592
0.059412482
-0.1349757
0.061250759
-0.14015318
0.062651254
-0.14504272
0.063707494
-0.14977074
0.064504588
-0.15444182
0.065115213
-0.15913924
-0.1639258
0.065598256
0.00095182682
-0.0071475463
0.0033950443
-0.020842968
0.007014128
-0.03450039
0.011488013
-0.047933269
0.016487052
-0.060899559
0.021687386
-0.073154049
0.026791815
-0.084491112
0.031550386
-0.094773006
0.035776046
-0.10394354
0.039352109
-0.11202771
0.042230606
-0.1191196
0.044422689
-0.12536263
0.0459838
-0.13092704
0.046996867
-0.13598877
0.047556497
-0.14071281
0.04775629
-0.14524251
0.047680278
-0.14969473
0.047398596
-0.15416014
0.046966561
-0.15870721
0.046424957
-0.16338419
-0.00026081168
0.00026081143
3.0583128e-10
-0.00087114068
0.00061032823
8.3406206e-10
-0.0017249341
0.00085379221
1.2768184e-09
-0.0027428139
0.0010178782
1.6647738e-09
-0.0038616176
0.0011188018
2.0131292e-09
-0.0050298333
0.0011682135
2.3150813e-09
-0.0062043181
0.0011744822
2.584437e-09
-0.0073475308
0.00114321
2.8075256e-09
-0.0084252943
0.0010777606
3.0036495e-09
-0.0094049516
0.00097965425
3.1513091e-09
-0.010253778
0.00084882349
3.2776206e-09
-0.01093757
0.00068378818
3.350481e-09
-0.011419362
0.00048178905
3.4031586e-09
-0.011658271
0.00023890627
3.3905462e-09
-0.011608498
-4.9776331e-05
3.3531067e-09
-0.011218686
-0.00038981477
3.2269181e-09
-0.010431709
-0.00078698046
3.0617727e-09
-0.0091836441
-0.0012480672
2.7783167e-09
-0.0074024827
-0.0017811636
2.4392703e-09
-0.0023744473
-0.0050280372
1.9675413e-09
-0.00023892176
0.00049973323
-0.0007927822
0.0011641887
-0.0015582025
0.0016192125
-0.0024559731
0.001915649
-0.0034216679
0.0020844967
-0.0044014028
0.0021479485
-0.0053487295
0.002121809
-0.0062219876
0.0020164682
-0.0069821418
0.0018379149
-0.007590991
0.0015885036
-0.0080096326
0.0012674651
-0.0081971036
0.00087125936
-0.0081091673
0.00039385282
-0.0076972238
-0.00017303699
-0.0069074239
-0.00083957606
-0.0056800696
-0.0016171689
-0.0039494565
-0.0025175935
-0.0016438035
-0.00355372
0.0013149614
-0.0047399283
-0.0060497745
0.0049902887
-0.00019592071
0.00069565398
-0.00063878012
0.0016070482
-0.0012309945
0.0022114269
-0.0018943719
0.0025790265
-0.0025626962
0.0027528211
-0.0031781728
0.0027634251
-0.0036887161
0.0026323523
-0.0040455855
0.0023733377
-0.0042014302
0.0019937597
-0.0041086674
0.001495741
-0.0037181209
0.00087691871
-0.0029778389
0.00013097748
-0.0018321123
-0.00075187364
-0.00022069965
-0.0017844495
0.0019218522
-0.0029821278
0.0046666976
-0.0043620141
0.0080907229
-0.0059416187
0.012275619
-0.0077386161
0.017306813
-0.0097711223
-0.011993566
0.023250605
-0.00013670115
0.00083235517
-0.00042502776
0.0018953749
-0.0007749409
0.0025613401
-0.0011098213
0.002913907
-0.0013614576
0.0030044574
-0.0014673855
0.0028693531
-0.0013687404
0.0025337073
-0.0010083286
0.002012926
-0.00032903798
0.0013144691
0.0007274488
0.00043925428
0.0022216703
-0.00061730272
0.0042171369
-0.001864489
0.0067808519
-0.0033155886
0.0099836305
-0.0049872279
0.013900244
-0.0068987412
0.018609516
-0.0090712862
0.024194238
-0.011526341
0.030740051
-0.014284429
0.038333911
-0.017364982
-0.020699748
0.047040093
-6.7227843e-05
0.00089958306
-0.00017099161
0.0019991387
-0.00022896194
0.0026193105
-0.00016628629
0.0028512314
8.7125213e-05
0.002751046
0.00059832619
0.0023581522
0.0014328219
0.0016992117
0.002655895
0.00078985289
0.0043336923
-0.00036332811
0.0065340159
-0.0017610692
0.0093267549
-0.0034100417
0.01278397
-0.0053217038
0.016979719
-0.0075113373
0.021989605
-0.0099971143
0.027890077
-0.012799213
0.034757732
-0.015938941
0.04266891
-0.019437519
0.051699128
-0.023314647
0.061922929
-0.027588783
-0.032168522
0.073391703
6.9344948e-06
0.00089264861
0.00010480052
0.0019012727
0.00036941614
0.0023546949
0.00087400273
0.0023466449
0.001690165
0.0019348838
0.0028887409
0.0011595764
0.0045405892
4.7363445e-05
0.0067172992
-0.001386857
0.0094915851
-0.003137614
0.012937228
-0.0052067122
0.017128735
-0.0076015484
0.02214066
-0.010333629
0.028046476
-0.013417153
0.034917054
-0.016867692
0.042818849
-0.020701008
0.051812118
-0.024932211
0.061949897
-0.029575297
0.0732784
-0.034643149
0.085840219
-0.040150603
-0.045987917
0.099659615
8.1800639e-05
0.00081084801
0.00038845355
0.0015946199
0.00099119507
0.0017519535
0.0019619092
0.0013759308
0.0033731027
0.00052369048
0.0052980714
-0.00076539223
0.0078109969
-0.0024655621
0.010986717
-0.0045625772
0.014900169
-0.0070510656
0.019625559
-0.0099321023
0.025235052
-0.013211041
0.031796975
-0.016895552
0.039373577
-0.020993755
0.048018389
-0.025512504
0.057773311
-0.03045593
0.068665807
-0.035824707
0.080707207
-0.041616697
0.093893943
-0.047829885
0.10821531
-0.054471971
-0.061431533
0.12365893
0.00015547767
0.00065537039
0.00067240893
0.0010776887
0.0016193025
0.00080506
0.0030668092
-7.157583e-05
0.0050874234
-0.0014969237
0.0077549513
-0.00343292
0.011143606
-0.0058542164
0.015326885
-0.0087458561
0.020376068
-0.012100249
0.026358187
-0.015914221
0.033333525
-0.020186379
0.041352678
-0.024914704
0.050453256
-0.030094333
0.060656393
-0.035715641
0.071963303
-0.04176284
0.084352292
-0.048213695
0.097777259
-0.055041665
0.1121696
-0.062222221
0.12744775
-0.069750128
-0.077538214
0.14355443
0.00022781042
0.00042756003
0.00095464715
0.00035085202
0.0022472023
-0.00048749508
0.0041743211
-0.0019986945
0.0068066418
-0.0041292443
0.010215222
-0.0068415002
0.014469736
-0.01010873
0.019636198
-0.013912319
0.025774193
-0.018238243
0.032933625
-0.023073653
0.041151124
-0.028403879
0.050446229
-0.034209808
0.060817585
-0.040465689
0.072239403
-0.047137459
0.084658413
-0.05418185
0.097991535
-0.061546817
0.11212506
-0.069175188
0.12691764
-0.077014799
0.14221269
-0.085045185
-0.093242079
0.15791656
0.00030007881
0.0012376117
0.0028764937
0.0052816896
0.008518706
0.01265119
0.017737812
0.023828679
0.030961368
0.039156757
0.048414991
0.058711924
0.069996452
0.082189056
0.095181647
0.10883832
0.12299536
0.13745113
0.15190141
0.16586562
-0.0012174157
-0.003810623
1.7101308e-09
0.0033698924
-0.0045873086
6.2432835e-10
0.0087574098
-0.0053875169
-4.0011927e-10
0.014903464
-0.0061460523
-1.3472317e-09
0.021799359
-0.0068958931
-2.3006346e-09
0.029439047
-0.0076396851
-3.2982833e-09
0.03779777
-0.0083587188
-4.2759535e-09
0.046833309
-0.0090355337
-5.2987775e-09
0.056487994
-0.0096546785
-6.3781271e-09
0.066687618
-0.010199617
-7.5012988e-09
0.077341206
-0.010653579
-8.6014689e-09
0.088342447
-0.011001232
-9.6541447e-09
0.099571855
-0.011229398
-1.0612727e-08
0.11089919
-0.011327325
-1.1469349e-08
0.12218613
-0.011286927
-1.2205061e-08
0.13328914
-0.011102992
-1.28207e-08
0.14406262
-0.010773469
-1.331187e-08
0.15436273
-0.010300097
-1.3669873e-08
0.16405227
-0.0096895314
-1.3894824e-08
0.1730072
-0.0089549168
-1.3966528e-08
0.18112467
-0.0081174479
-1.3894034e-08
0.1883318
-0.0072071215
-1.3652375e-08
0.1945935
-0.0062616912
-1.3268315e-08
0.19991669
-0.0053231747
-1.2720874e-08
0.20434889
-0.0044321847
-1.206292e-08
0.20797046
-0.0036215627
-1.1285852e-08
0.21088203
-0.0029115599
-1.0463736e-08
0.21319048
-0.0023084416
-9.5928889e-09
0.21499735
-0.0018068519
-8.7397591e-09
0.21639183
-0.0013944716
-7.8892306e-09
0.21744851
-0.0010566826
-7.075214e-09
0.21822811
-0.00077958738
-6.2716355e-09
0.21877927
-0.00055115473
-5.487974e-09
0.21914055
-0.00036127403
-4.709348e-09
0.21934211
-0.0002015583
-3.9411681e-09
0.21940735
-6.5232231e-05
-3.1852277e-09
0.21935438
5.2971436e-05
-2.4486011e-09
0.21919736
0.00015702216
-1.7429862e-09
0.21894747
0.00024988712
-1.0698839e-09
0.21861365
0.00033381782
-4.3539953e-10
0.21820309
0.00041056333
1.5627026e-10
0.21772158
0.00048150926
6.9276964e-10
0.21717381
0.00054776489
1.1627118e-09
0.21656357
0.00061023654
1.5669883e-09
0.21589393
0.00066964274
1.9021659e-09
0.21516728
0.00072664734
2.1714438e-09
0.21438569
0.00078158537
2.3661144e-09
0.21355022
0.00083546995
2.4758702e-09
0.21266382
0.00088640037
2.5141097e-09
0.00094677061
2.2869058e-09
0.0086769802
-0.0074973145
0.013077645
-0.0089879736
0.018208939
-0.010518811
0.024024127
-0.01196124
0.030521398
-0.013393164
0.037701979
-0.014820267
0.045546506
-0.016203246
0.05401886
-0.017507887
0.063068994
-0.018704812
0.072631462
-0.019762086
0.082624981
-0.020647097
0.092953803
-0.021330054
0.10350973
-0.021785326
0.11417433
-0.021991918
0.12482128
-0.021933881
0.13531892
-0.021600635
0.14553288
-0.020987429
0.15532923
-0.020096446
0.16457866
-0.018938958
0.17316217
-0.017538434
0.18097853
-0.0159338
0.18795268
-0.014181275
0.19404378
-0.012352792
0.19925019
-0.010529583
0.2036093
-0.0087912995
0.20719117
-0.0072034343
0.2100871
-0.0058074895
0.21239639
-0.0046177265
0.21421491
-0.0036253716
0.21562797
-0.0028075372
0.21670765
-0.0021363624
0.2175131
-0.0015850364
0.21809211
-0.0011301584
0.21848276
-0.00075192527
0.21871501
-0.00043381087
0.21881218
-0.00016239795
0.21879237
7.2781772e-05
0.21866975
0.00027963522
0.21845556
0.00046408172
0.21815876
0.00063061587
0.21778659
0.00078272973
0.21734491
0.00092319143
0.21683846
0.0010542175
0.21627108
0.0011776184
0.21564589
0.0012948286
0.21496536
0.0014071759
0.21423163
0.0015153226
0.21344579
0.0016213103
0.21261091
0.0017212792
0.0018401238
0.026659735
-0.010906444
0.030660125
-0.012988364
0.035263756
-0.015122441
0.040422707
-0.017120191
0.046147026
-0.019117483
0.05244979
-0.021123031
0.059321784
-0.02307524
0.06673846
-0.024924563
0.074663663
-0.026630016
0.083047698
-0.028146121
0.091826562
-0.029425961
0.10092312
-0.030426614
0.11024887
-0.031111072
0.1197058
-0.031448847
0.1291884
-0.031416482
0.1385856
-0.030997837
0.14778266
-0.030184494
0.15666329
-0.028977076
0.16511249
-0.027388151
0.1730208
-0.025446745
0.18029045
-0.023203454
0.18684308
-0.020733903
0.19262785
-0.01813756
0.19762777
-0.015529509
0.20186176
-0.013025285
0.20538081
-0.010722481
0.2082589
-0.0086855821
0.21058119
-0.0069400156
0.21243301
-0.0054771936
0.21389241
-0.0042669339
0.21502675
-0.0032707079
0.21589236
-0.0024506406
0.21653541
-0.0017732074
0.21699319
-0.0012097063
0.21729531
-0.00073593817
0.21746501
-0.00033209255
0.21752041
1.7382264e-05
0.21747576
0.00032427898
0.2173424
0.00059744523
0.21712941
0.0008436064
0.21684415
0.001067991
0.21649259
0.0012747451
0.21607962
0.0014671887
0.21560921
0.0016480336
0.21508461
0.0018194265
0.21450843
0.0019833593
0.21388295
0.0021408047
0.21320939
0.0022948608
0.21249107
0.0024396074
0.0026126212
0.049994428
-0.01386078
0.053388904
-0.01638284
0.057224091
-0.018957628
0.061460447
-0.021356548
0.066124194
-0.02378123
0.071240617
-0.026239454
0.076813014
-0.028647637
0.08283197
-0.030943519
0.089278728
-0.033076774
0.096123026
-0.034990418
0.10332214
-0.036625077
0.11082166
-0.037926128
0.1185568
-0.038846214
0.12645404
-0.039346086
0.13443272
-0.039395163
0.14240655
-0.038971668
0.15028478
-0.038062723
0.15797321
-0.03666551
0.16537555
-0.03479049
0.17239579
-0.032466982
0.17894245
-0.029750116
0.18493497
-0.026726423
0.19031156
-0.023514155
0.1950368
-0.020254741
0.19910626
-0.017094745
0.20254618
-0.014162406
0.20540754
-0.011546936
0.20775633
-0.0092888082
0.20966343
-0.007384294
0.21119678
-0.0058002813
0.21241715
-0.0044910804
0.21337682
-0.0034103121
0.2141197
-0.0025160833
0.21468192
-0.0017719297
0.21509264
-0.0011466575
0.21537497
-0.00061442432
0.21554712
-0.00015476606
0.21562348
0.00024792363
0.21561553
0.00060538984
0.21553256
0.00092657357
0.21538212
0.0012184317
0.21517039
0.0014864823
0.21490243
0.0017351448
0.21458243
0.0019680289
0.21421387
0.0021879879
0.21379956
0.0023976769
0.213342
0.0025983576
0.21284264
0.002794221
0.21230511
0.0029771422
0.0031976403
0.075667398
-0.016136474
0.078246254
-0.018961696
0.081104032
-0.021815406
0.084216122
-0.024468637
0.087626399
-0.027191508
0.091369008
-0.029982063
0.095458931
-0.03273756
0.099902627
-0.035387215
0.104699
-0.037873148
0.10983728
-0.040128702
0.11529624
-0.042084036
0.12104431
-0.04367419
0.12704033
-0.04484224
0.1332349
-0.045540652
0.13957174
-0.045732005
0.14598899
-0.045388916
0.15241994
-0.044493671
0.15879327
-0.043038841
0.16503305
-0.041030271
0.17105924
-0.038493176
0.17678973
-0.035480604
0.18214473
-0.032081418
0.18705365
-0.028423084
0.19146339
-0.024664475
0.19534538
-0.020976734
0.19869893
-0.017515963
0.20154909
-0.014397092
0.20393969
-0.011679414
0.20592448
-0.009369083
0.20755918
-0.0074349815
0.20889645
-0.0058283472
0.20998349
-0.0044973562
0.21086132
-0.0033939118
0.21156461
-0.0024752165
0.21212191
-0.0017039597
0.21255623
-0.0010487423
0.21288587
-0.00048440892
0.21312543
8.3641109e-06
0.21328664
0.0004441834
0.21337902
0.00083418859
0.2134104
0.0011870539
0.21338722
0.0015096658
0.21331483
0.0018075361
0.21319769
0.0020851703
0.21303955
0.0023461194
0.21284353
0.0025937012
0.21261245
0.0028294397
0.212348
0.003058666
0.21205429
0.0032708568
0.0035298219
0.10099459
-0.01747145
0.10254074
-0.020507845
0.10424094
-0.023515601
0.10608901
-0.026316715
0.10814065
-0.029243139
0.11043202
-0.032273437
0.11298627
-0.035291813
0.11582321
-0.038224152
0.11895649
-0.041006433
0.1223918
-0.043564002
0.12612641
-0.045818653
0.1301487
-0.047696474
0.13443805
-0.04913159
0.1389658
-0.050068408
0.14369653
-0.050462737
0.14858924
-0.050281626
0.15359807
-0.049502496
0.15867218
-0.048112955
0.16375494
-0.046113031
0.16878285
-0.043521083
0.17368542
-0.040383172
0.17838722
-0.036783227
0.18281307
-0.032848933
0.18689592
-0.028747317
0.19058569
-0.024666504
0.19385594
-0.020786219
0.19670566
-0.017246807
0.19915556
-0.014129322
0.20124097
-0.011454488
0.20300412
-0.0091981309
0.20448847
-0.007312695
0.20573536
-0.0057442505
0.20678237
-0.0044409174
0.20766239
-0.0033552444
0.20840328
-0.0024448499
0.2090279
-0.0016733624
0.20955471
-0.0010112185
0.20999857
-0.0004354877
0.2103715
7.1252456e-05
0.21068337
0.00052231969
0.21094232
0.00092810042
0.21115514
0.0012968403
0.21132754
0.0016351415
0.21146431
0.0019483966
0.21156958
0.0022408501
0.2116468
0.0025164812
0.2116992
0.0027770384
0.21172882
0.0030290525
0.21174031
0.0032593678
0.0035455098
0.12382592
-0.017638444
0.1241565
-0.020838425
0.12456744
-0.02392654
0.12508167
-0.026830949
0.12575397
-0.029915434
0.12661321
-0.03313268
0.12768615
-0.036364751
0.12900102
-0.039539025
0.13058108
-0.042586491
0.13244345
-0.045426377
0.13459908
-0.047974281
0.13705149
-0.050148886
0.13979601
-0.051876109
0.14282006
-0.053092458
0.1461042
-0.053746878
0.14962335
-0.053800775
0.15334768
-0.05322682
0.1572426
-0.052007875
0.16126766
-0.050138094
0.16537455
-0.047627975
0.16950523
-0.044513849
0.17359165
-0.040869649
0.17755866
-0.036815939
0.18133065
-0.032519308
0.184841
-0.028176851
0.18804123
-0.023986455
0.19090649
-0.020112068
0.19343532
-0.016658149
0.19564463
-0.013663799
0.19756277
-0.011116269
0.19922341
-0.0089733401
0.20066149
-0.0071823242
0.20191069
-0.005690117
0.20300189
-0.004446442
0.20396208
-0.0034050497
0.204814
-0.0025252813
0.20557628
-0.0017734989
0.2062641
-0.0011233068
0.20688988
-0.00055452044
0.20746385
-5.1655286e-05
0.20799458
0.00039737207
0.20848926
0.00080216238
0.208954
0.0011704033
0.20939402
0.001508373
0.20981388
0.0018209923
0.21021745
0.0021129104
0.21060844
0.002386051
0.21098926
0.0026482282
0.21136528
0.0028833439
0.003183182
0.14247313
-0.016557144
0.14151805
-0.019883338
0.14060192
-0.023010413
0.1398064
-0.026035431
0.13917148
-0.029280511
0.13871008
-0.032671275
0.13844849
-0.036103167
0.13841752
-0.039508049
0.13864408
-0.042813055
0.13915136
-0.045933661
0.13995857
-0.048781485
0.1410792
-0.051269515
0.14251966
-0.053316568
0.14427883
-0.054851629
0.14634861
-0.055816664
0.14871509
-0.056167255
0.15135965
-0.055871373
0.15425933
-0.054907565
0.15738596
-0.053264719
0.16070376
-0.050945774
0.16416645
-0.047976543
0.16771508
-0.044418271
0.17127848
-0.040379339
0.17477803
-0.036018867
0.17813653
-0.031535345
0.18128873
-0.02713866
0.18418988
-0.023013211
0.18681873
-0.019287001
0.18917503
-0.016020097
0.1912736
-0.013214845
0.19313827
-0.010838007
0.19479724
-0.0088412911
0.19628001
-0.007172892
0.19761518
-0.0057816137
0.19882879
-0.0046186518
0.19994335
-0.0036398438
0.20097772
-0.0028078754
0.20194747
-0.002093053
0.20286543
-0.0014724831
0.20374232
-0.00092854517
0.20458716
-0.00044746101
0.2054076
-1.8282152e-05
0.20621024
0.00036775916
0.2070008
0.00071782138
0.2077843
0.0010374921
0.20856512
0.0013320902
0.2093475
0.0016036651
0.21013433
0.0018614025
0.21093176
0.0020859136
0.0023838674
0.15573845
-0.014379036
0.15361869
-0.017763572
0.15147546
-0.020867189
0.14950987
-0.024069839
0.14773736
-0.027507999
0.1461526
-0.031086515
0.14477734
-0.034727909
0.14363889
-0.038369603
0.14276325
-0.04193741
0.14217579
-0.045346206
0.14190018
-0.048505873
0.14195622
-0.051325554
0.14235801
-0.053718356
0.14311275
-0.055606371
0.14422059
-0.05692451
0.14567546
-0.05762212
0.1474663
-0.05766221
0.14957792
-0.057019187
0.15199057
-0.055677368
0.15467785
-0.05363306
0.15760341
-0.050902095
0.16071746
-0.047532322
0.1639553
-0.043617187
0.16723975
-0.039303309
0.17048848
-0.034784078
0.173625
-0.030275179
0.17658912
-0.025977332
0.17934305
-0.022040927
0.18187132
-0.018548367
0.18417629
-0.015519821
0.18627236
-0.012934076
0.18818107
-0.010750004
0.18992763
-0.0089194523
0.19153821
-0.0073921899
0.19303778
-0.006118222
0.19444868
-0.0050507429
0.19579001
-0.0041492105
0.19707778
-0.0033808165
0.19832533
-0.0027200335
0.1995439
-0.0021471195
0.20074305
-0.0016466076
0.20193097
-0.0012062064
0.2031148
-0.00081606943
0.20430079
-0.00046816749
0.20549453
-0.00015625009
0.20670096
0.00012566684
0.20792492
0.00037970324
0.2091698
0.00061652537
0.21044266
0.00081304928
0.0010915462
0.163395
-0.011908414
0.16029535
-0.014663922
0.15719839
-0.017770226
0.15430727
-0.021178725
0.15161626
-0.024816987
0.14912931
-0.028599558
0.14686604
-0.032464646
0.14484854
-0.036352096
0.14310155
-0.040190423
0.14165237
-0.043897027
0.14052832
-0.047381821
0.13975431
-0.050551544
0.1393507
-0.053314744
0.13933143
-0.055587107
0.13970311
-0.057296186
0.14046528
-0.058384296
0.14161174
-0.058808668
0.14313181
-0.058539256
0.14501068
-0.057556241
0.14722801
-0.055850388
0.14975477
-0.053428855
0.15254927
-0.05032682
0.15555404
-0.046621952
0.15869599
-0.042445268
0.16189181
-0.037979891
0.16505807
-0.03344144
0.16812307
-0.029042335
0.17103541
-0.024953264
0.17376648
-0.021279439
0.17630756
-0.0180609
0.17866448
-0.015290991
0.18085261
-0.012938142
0.18289312
-0.010959953
0.18480984
-0.0093089149
0.1866268
-0.0079351841
0.18836625
-0.0067901899
0.19004766
-0.0058306208
0.1916876
-0.0050207533
0.19330003
-0.0043324718
0.19489683
-0.0037439149
0.19648815
-0.0032379286
0.19808281
-0.0028008642
0.19968854
-0.0024218038
0.20131221
-0.0020918348
0.20296003
-0.0018040733
0.20463754
-0.0015518393
0.20635029
-0.0013330518
0.20810213
-0.0011353065
0.2099014
-0.0009862253
-0.00074634412
0.21224101
-0.0084626321
-0.2156868
0.20947586
-0.01189877
0.20706377
-0.015358139
0.20484825
-0.018963203
0.20276747
-0.022736207
0.20077689
-0.026608975
0.19884458
-0.030532332
0.19695038
-0.034457902
0.1950833
-0.038323346
0.19324019
-0.042053915
0.19142521
-0.045566836
0.18964916
-0.048775494
0.18792853
-0.05159412
0.18628429
-0.053942865
0.18474049
-0.055752385
0.18332291
-0.056966716
0.18205777
-0.057543525
0.18097053
-0.057452022
0.18008481
-0.056670521
0.17942117
-0.05518674
0.17899567
-0.053003363
0.17881796
-0.05014911
0.17888847
-0.046692457
0.17919547
-0.042752265
0.17971324
-0.038497661
0.18040288
-0.034131086
0.18121629
-0.029855744
0.18210223
-0.025839203
0.18301267
-0.022189878
0.18390765
-0.018955879
0.18475786
-0.016141209
0.18554498
-0.013725259
0.18626016
-0.011675128
0.18690162
-0.0099503827
0.18747212
-0.0085056814
0.18797676
-0.0072948329
0.1884216
-0.006275461
0.1888128
-0.0054119462
0.18915619
-0.0046758638
0.18945714
-0.0040448678
0.18972048
-0.0035012688
0.18995051
-0.0030308904
0.19015104
-0.0026223326
0.19032543
-0.0022662267
0.19047672
-0.001955363
0.19060742
-0.0016825364
0.19072035
-0.001445983
0.19081621
-0.0012311704
0.19090164
-0.0010716556
-0.00080884711
0.23768698
-0.0059628386
-0.24018678
0.23511367
-0.0093254593
0.23270912
-0.012953582
0.23034683
-0.016600914
0.22796873
-0.020358108
0.22557909
-0.02421934
0.22317709
-0.028130326
0.22075694
-0.032037752
0.21831851
-0.035884922
0.21586851
-0.039603909
0.21341944
-0.04311777
0.21098955
-0.0463456
0.20860245
-0.049207024
0.20628618
-0.051626593
0.20407177
-0.053537977
0.20199181
-0.054886752
0.20007901
-0.055630726
0.19836497
-0.05573799
0.19687908
-0.055184623
0.19564738
-0.053955043
0.19469141
-0.052047396
0.19402633
-0.04948403
0.19365812
-0.046324248
0.19358013
-0.042674274
0.1937703
-0.038687827
0.19419093
-0.034551723
0.19479208
-0.030456888
0.19551771
-0.026564837
0.19631288
-0.022985047
0.19712964
-0.019772635
0.19793062
-0.016942188
0.19869007
-0.014484713
0.19939285
-0.012377909
0.20003218
-0.010589711
0.20060705
-0.0090805575
0.20111996
-0.0078077408
0.20157518
-0.0067306766
0.20197769
-0.0058144607
0.2023326
-0.0050307728
0.20264479
-0.004357058
0.2029188
-0.0037752745
0.20315875
-0.0032708414
0.20336837
-0.0028319572
0.203551
-0.002448858
0.20370967
-0.0021140263
0.20384694
-0.0018198058
0.20396558
-0.0015646232
0.20406661
-0.0013321992
0.2041561
-0.0011611513
-0.0008749455
0.26142208
-0.0038986517
-0.26348627
0.25920767
-0.007111043
0.25691108
-0.010656996
0.25454698
-0.014236811
0.25207715
-0.017888278
0.24950088
-0.021643076
0.24683026
-0.025459698
0.24407372
-0.029281211
0.24124156
-0.033052761
0.23834974
-0.036712097
0.23541968
-0.040187713
0.23247786
-0.043403773
0.22955559
-0.046284759
0.22668829
-0.048759286
0.22391408
-0.050763767
0.22127233
-0.052245005
0.21880216
-0.053160561
0.21654115
-0.053476979
0.21452423
-0.053167697
0.21278274
-0.052213553
0.21134342
-0.050608079
0.21022677
-0.048367383
0.20944433
-0.045541806
0.20899494
-0.04222488
0.20886126
-0.03855415
0.20900858
-0.034699046
0.20938734
-0.03083565
0.20993915
-0.02711664
0.2106043
-0.0236502
0.21132858
-0.020496909
0.21206765
-0.017681263
0.21278889
-0.015205948
0.21347088
-0.013059902
0.21410161
-0.011220441
0.214676
-0.0096549445
0.21519355
-0.0083252927
0.21565647
-0.0071936
0.21606836
-0.0062263484
0.21643338
-0.0053957894
0.2167558
-0.0046794767
0.21703975
-0.0040592327
0.21728913
-0.0035202214
0.21750752
-0.0030503396
0.21769816
-0.0026395051
0.21786405
-0.0022799169
0.21800782
-0.0019635678
0.21813209
-0.0016888939
0.21823833
-0.0014384408
0.21833162
-0.0012544467
-0.00094479961
0.28340413
-0.0022370614
-0.28506572
0.28156436
-0.005271268
0.27948672
-0.0085793611
0.27723458
-0.011984667
0.27481264
-0.015466341
0.2722173
-0.019047736
0.26945913
-0.022701528
0.2665529
-0.026374982
0.26351509
-0.030014945
0.26036715
-0.033564157
0.25713655
-0.036957115
0.25385618
-0.040123403
0.25056372
-0.042992302
0.24730082
-0.045496387
0.24411177
-0.047574713
0.24104191
-0.04917515
0.23813612
-0.050254767
0.2354374
-0.050778258
0.23298584
-0.050716132
0.23081772
-0.050045442
0.22896469
-0.048755045
0.22745224
-0.046854935
0.22629723
-0.044386789
0.22550408
-0.041431738
0.225061
-0.038111062
0.22493789
-0.034575941
0.2250881
-0.030985863
0.2254538
-0.027482337
0.22597345
-0.024169854
0.22658899
-0.021112442
0.22725085
-0.018343122
0.22792048
-0.015875585
0.22857061
-0.013710025
0.22918389
-0.011833728
0.22975091
-0.010221961
0.23026784
-0.0088422211
0.23073448
-0.0076602403
0.23115274
-0.0066446078
0.23152562
-0.0057686691
0.2318566
-0.0050104545
0.23214927
-0.0043519084
0.23240717
-0.003778122
0.23263365
-0.0032768158
0.23283183
-0.0028376856
0.2330046
-0.0024526881
0.2331546
-0.0021135712
0.23328433
-0.0018186204
0.23339563
-0.0015497456
0.23349263
-0.0013514473
-0.0010183258
0.30372182
-0.00097293906
-0.30498595
0.30224841
-0.0037978543
0.30047649
-0.0068074414
0.29845254
-0.0099607212
0.29620219
-0.013215992
0.29372721
-0.016572749
0.29103537
-0.020009691
0.28814302
-0.023482636
0.28507003
-0.02694195
0.2818406
-0.030334726
0.27848508
-0.0336016
0.27503987
-0.036678189
0.27154652
-0.039498959
0.26805081
-0.042000674
0.26460134
-0.044125242
0.26124793
-0.045821743
0.25803996
-0.0470468
0.25502493
-0.047763224
0.25224735
-0.047938548
0.24974793
-0.047546027
0.24756278
-0.046569899
0.24572207
-0.04501422
0.24424762
-0.042912345
0.2431494
-0.040333509
0.24242148
-0.037383149
0.24203968
-0.034194137
0.24196231
-0.03090849
0.24213482
-0.027654846
0.24249677
-0.024531813
0.24298894
-0.021604607
0.24355863
-0.018912817
0.24416281
-0.016479763
0.24476903
-0.014316245
0.2453549
-0.012419599
0.24590654
-0.010773593
0.24641653
-0.0093522157
0.24688198
-0.0081256942
0.24730284
-0.0070654605
0.24768068
-0.0061465174
0.24801801
-0.0053477836
0.24831773
-0.0046516232
0.24858288
-0.0040432709
0.24881649
-0.003510424
0.24902147
-0.0030426734
0.24920058
-0.002631794
0.24935641
-0.0022694002
0.24949129
-0.0019534971
0.24960739
-0.001665847
0.24970793
-0.0014519908
-0.0010953561
0.32290862
-6.8151726e-05
-0.32381341
0.32176804
-0.0026572766
0.32032058
-0.0053599815
0.31858393