/*--------------------------------*- C++ -*----------------------------------*\
  =========                 |
  \\      /  F ield         | OpenFOAM: The Open Source CFD Toolbox
   \\    /   O peration     | Website:  https://openfoam.org
    \\  /    A nd           | Version:  6
     \\/     M anipulation  |
\*---------------------------------------------------------------------------*/
FoamFile
{
    version     2.0;
    format      ascii;
    class       volScalarField;
    location    "9";
    object      pMean;
}
// * * * * * * * * * * * * * * * * * * * * * * * * * * * * * * * * * * * * * //

dimensions      [0 2 -2 0 0 0 0];

internalField   nonuniform List<scalar> 
9200
(
-0.59731074
-0.57441019
-0.55314249
-0.53482855
-0.51654943
-0.49811047
-0.47969718
-0.46124899
-0.44266039
-0.42386107
-0.40481287
-0.38551106
-0.36598977
-0.34632339
-0.32662609
-0.30705474
-0.28779188
-0.26899331
-0.25143978
-0.23823412
-0.62394862
-0.59881522
-0.57587172
-0.55596314
-0.53601193
-0.51583776
-0.49562466
-0.47530814
-0.45479316
-0.43403348
-0.4130261
-0.39181018
-0.37046832
-0.34912201
-0.32792364
-0.30704741
-0.28665513
-0.2668473
-0.24822114
-0.232624
-0.64939273
-0.62223284
-0.59779297
-0.57639319
-0.55478645
-0.53280008
-0.51062513
-0.48821277
-0.46550461
-0.44250775
-0.4192831
-0.39593798
-0.3726202
-0.34950588
-0.32678442
-0.30464324
-0.28323521
-0.26264023
-0.24326511
-0.22628243
-0.67284346
-0.64386347
-0.61807032
-0.59522719
-0.57191225
-0.5479643
-0.52360262
-0.49882617
-0.47364992
-0.44817023
-0.42254182
-0.39696012
-0.37164605
-0.34682676
-0.32271656
-0.29950156
-0.2773144
-0.25620871
-0.23647142
-0.21897187
-0.69331799
-0.66279389
-0.63581673
-0.6115784
-0.58649401
-0.56043105
-0.53367111
-0.50630368
-0.47845954
-0.45035943
-0.42227463
-0.39449674
-0.36731385
-0.34098758
-0.31573541
-0.29172079
-0.26903866
-0.24770413
-0.22790753
-0.21028264
-0.70968472
-0.67798132
-0.65002675
-0.6244482
-0.59753416
-0.56921503
-0.53988231
-0.50976723
-0.47915963
-0.44843256
-0.41798362
-0.38819317
-0.35939623
-0.331862
-0.30578387
-0.28127977
-0.25839049
-0.2370824
-0.21745806
-0.19994585
-0.72069561
-0.68827324
-0.65959329
-0.63274973
-0.60396933
-0.5732961
-0.54128885
-0.50837453
-0.47503939
-0.44182401
-0.40924629
-0.37775334
-0.34769657
-0.31932142
-0.29277081
-0.26809871
-0.24528134
-0.2242321
-0.20497143
-0.18774517
-0.72502404
-0.69245122
-0.6633654
-0.63538073
-0.6047553
-0.57171069
-0.5370348
-0.50140065
-0.4655172
-0.4300927
-0.39574508
-0.36295639
-0.33206034
-0.30324927
-0.27659505
-0.25207662
-0.22960259
-0.20903554
-0.1903202
-0.17354066
-0.72123736
-0.68909286
-0.65988677
-0.63086101
-0.59844228
-0.56311082
-0.52594136
-0.48788366
-0.44986681
-0.41273775
-0.37717209
-0.34364348
-0.31243237
-0.28365473
-0.2573005
-0.23327267
-0.21141809
-0.19155721
-0.17356776
-0.15739198
-0.7080126
-0.67672523
-0.64753254
-0.6174918
-0.58337103
-0.54598754
-0.5067347
-0.46683032
-0.42737931
-0.38930464
-0.35327683
-0.31971142
-0.2888049
-0.26058461
-0.23496056
-0.21177038
-0.19081388
-0.17188331
-0.15479829
-0.13937382
-0.38866787
-0.38654918
-0.3794116
-0.37193996
-0.3632126
-0.353041
-0.3417595
-0.32959454
-0.31667248
-0.3031052
-0.28900174
-0.27446353
-0.25958611
-0.2444622
-0.22918341
-0.21384273
-0.19853657
-0.18335302
-0.16835815
-0.15372963
-0.39454028
-0.3916816
-0.38409037
-0.37635779
-0.36744073
-0.35714714
-0.3458067
-0.33363135
-0.32073663
-0.30722679
-0.29320413
-0.27876393
-0.26399623
-0.24898844
-0.23382633
-0.21859783
-0.20340203
-0.18832386
-0.17330682
-0.15835091
-0.40586955
-0.40161995
-0.3931797
-0.38493931
-0.37565701
-0.36512772
-0.35366707
-0.34146087
-0.32860451
-0.31518676
-0.30129616
-0.28701567
-0.2724244
-0.25759972
-0.24261694
-0.22755412
-0.21251249
-0.19757709
-0.18250111
-0.1669544
-0.42193618
-0.41577378
-0.40614619
-0.39715832
-0.38732024
-0.37640888
-0.36471895
-0.35240188
-0.33952576
-0.32615759
-0.31236638
-0.29821768
-0.2837754
-0.26910329
-0.25426329
-0.23932056
-0.22437534
-0.20952028
-0.19431455
-0.17798801
-0.44183461
-0.4333989
-0.42232168
-0.41236385
-0.40176879
-0.3902972
-0.37821996
-0.36565001
-0.35262414
-0.33918327
-0.32537267
-0.3112367
-0.29682106
-0.282174
-0.26734394
-0.25238326
-0.23738842
-0.22246758
-0.20703015
-0.18981954
-0.46462418
-0.45371653
-0.44100963
-0.42988736
-0.41833596
-0.40610749
-0.39345022
-0.38043875
-0.36707697
-0.35337699
-0.33935833
-0.3250431
-0.31045821
-0.29563687
-0.28061595
-0.26543778
-0.25019387
-0.23501188
-0.21921485
-0.20108387
-0.48945407
-0.47601261
-0.46157521
-0.44913413
-0.43644684
-0.42326787
-0.4098269
-0.39616121
-0.38224229
-0.36805485
-0.35359351
-0.33885896
-0.3238613
-0.30862206
-0.29317201
-0.27755092
-0.26185034
-0.2462224
-0.229967
-0.21096964
-0.5156256
-0.49968959
-0.48349397
-0.46963356
-0.45567317
-0.44137808
-0.42696157
-0.41242856
-0.39772211
-0.38280129
-0.36763775
-0.35221347
-0.33652516
-0.32058734
-0.30443123
-0.28810456
-0.27171606
-0.25547099
-0.23872674
-0.21904407
-0.54257655
-0.52422637
-0.50627765
-0.49092736
-0.47557707
-0.46000836
-0.44442378
-0.42880123
-0.41305967
-0.39713742
-0.3809888
-0.36458321
-0.34790992
-0.33098006
-0.31382371
-0.29648772
-0.27907887
-0.26180352
-0.24404962
-0.22338714
-0.56986848
-0.54914509
-0.52941051
-0.5124679
-0.49557504
-0.47853324
-0.46153962
-0.44455294
-0.42747724
-0.41024123
-0.39279537
-0.37511204
-0.35719041
-0.33905655
-0.32075738
-0.30235304
-0.28391746
-0.2654245
-0.24593851
-0.22372502
-0.13762358
-0.11914846
-0.10184516
-0.086027008
-0.071580335
-0.058508188
-0.046884371
-0.036726404
-0.027997393
-0.020640257
-0.014581353
-0.0097246706
-0.0059549267
-0.003144583
-0.0011592408
0.00013780661
0.00088068357
0.0011962105
0.0011999806
0.00099335781
0.0006614198
0.0002719598
-0.00012437141
-0.00049281582
-0.00081232284
-0.0010727526
-0.0012718958
-0.0014127209
-0.0015011363
-0.001544369
-0.0015499163
-0.0015249369
-0.0014759428
-0.001408671
-0.0013280587
-0.0012382743
-0.0011427763
-0.0010443857
-0.00094535819
-0.00084745321
-0.00075199804
-0.00065992826
-0.00057188425
-0.0004880672
-0.00040890427
-0.00033292312
-0.00026394861
-0.00018761598
-0.00014667269
-7.0319008e-09
-0.14301545
-0.12352965
-0.10572058
-0.089642651
-0.074855574
-0.061413609
-0.049453448
-0.038986028
-0.029964614
-0.022335406
-0.016028121
-0.010946826
-0.00697579
-0.0039872359
-0.0018462
-0.00041497573
0.00044183928
0.00085256116
0.00093448665
0.00079085438
0.0005087277
0.00015792262
-0.00020893517
-0.00055524811
-0.00085833549
-0.0011066817
-0.0012969685
-0.001431305
-0.0015149546
-0.001554671
-0.0015576088
-0.001530681
-0.001480223
-0.0014118452
-0.0013303937
-0.0012399706
-0.0011439864
-0.0010452259
-0.00094591848
-0.00084780346
-0.00075219296
-0.00066001075
-0.00057188818
-0.00048801899
-0.00040882506
-0.00033282831
-0.00026385167
-0.00018752821
-0.00014659474
-3.7880113e-08
-0.15309003
-0.1317103
-0.11298526
-0.096485321
-0.081097112
-0.066976418
-0.054392947
-0.043347179
-0.033773737
-0.025626426
-0.018842892
-0.013328577
-0.00896779
-0.0056329787
-0.0031886266
-0.0014954977
-0.00041598127
0.00018097345
0.00041587078
0.0003955393
0.00021088423
-6.4338574e-05
-0.00037363853
-0.00067680472
-0.00094794594
-0.0011728336
-0.0013459622
-0.0014677487
-0.0015421891
-0.0015751102
-0.0015729987
-0.0015422897
-0.001488978
-0.0014184308
-0.0013353196
-0.0012436211
-0.001146654
-0.0010471359
-0.00094724615
-0.00084868628
-0.00075273974
-0.00066030801
-0.00057200516
-0.0004880104
-0.00040873576
-0.00033269047
-0.00026369645
-0.00018737559
-0.00014645488
-1.0423996e-07
-0.1661328
-0.14226884
-0.12241297
-0.10551194
-0.089440583
-0.074483302
-0.061116071
-0.049332714
-0.039041996
-0.030209751
-0.022787711
-0.016686049
-0.011791193
-0.0079775474
-0.0051103116
-0.0030493754
-0.0016550287
-0.00079316156
-0.0003393825
-0.0001822986
-0.00022595931
-0.00039131212
-0.00061657257
-0.00085650128
-0.0010806752
-0.0012709907
-0.001418787
-0.0015220202
-0.0015828323
-0.0016056883
-0.0015960902
-0.0015597679
-0.0015022125
-0.0014284317
-0.0013428399
-0.0012492283
-0.0011507812
-0.0010501172
-0.00094934199
-0.00085010183
-0.00075363802
-0.00066081919
-0.00057223395
-0.00048803996
-0.00040863471
-0.00033250812
-0.00026348074
-0.00018715768
-0.00014624666
-2.0765158e-07
-0.18026672
-0.15373789
-0.13274422
-0.11560199
-0.098941167
-0.08315282
-0.068973602
-0.056408574
-0.045338021
-0.035741615
-0.027591715
-0.020808983
-0.015285722
-0.010901166
-0.0075237092
-0.0050142702
-0.0032322744
-0.0020412243
-0.0013130665
-0.000931694
-0.00079564627
-0.00081986145
-0.00093637435
-0.0010939322
-0.001256578
-0.0014013887
-0.0015157175
-0.0015943706
-0.001637091
-0.0016465663
-0.0016270051
-0.001583206
-0.0015199931
-0.0014418971
-0.0013529906
-0.0012568186
-0.0011563868
-0.0010541828
-0.00095221484
-0.00085205566
-0.0007548908
-0.00066154535
-0.00057257427
-0.00048810646
-0.00040852002
-0.00033227934
-0.00026320144
-0.00018687346
-0.00014596094
-3.4979179e-07
-0.19382852
-0.16490165
-0.14295077
-0.12578237
-0.10875555
-0.092287068
-0.07737928
-0.064083901
-0.05226107
-0.041901059
-0.033000819
-0.025499088
-0.019299553
-0.014290037
-0.010345489
-0.0073308086
-0.0051068021
-0.0035361581
-0.0024882017
-0.0018427063
-0.001492912
-0.0013476347
-0.0013323566
-0.0013892493
-0.0014761433
-0.0015645798
-0.0016372419
-0.0016851815
-0.001705241
-0.0016979323
-0.0016658655
-0.0016126796
-0.0015423641
-0.0014588507
-0.0013657824
-0.0012663948
-0.001163469
-0.0010593281
-0.00095585826
-0.00085454057
-0.0007564906
-0.00066247911
-0.00057301895
-0.00048820322
-0.00040838548
-0.00033199899
-0.00026285282
-0.00018652081
-0.00014558533
-5.3285029e-07
-0.20570776
-0.17504536
-0.15241464
-0.13537131
-0.1182559
-0.1013633
-0.085882906
-0.071962122
-0.059469838
-0.048401128
-0.038775873
-0.030558168
-0.023669977
-0.018012145
-0.013469799
-0.009915133
-0.0072130349
-0.0052273784
-0.0038262925
-0.0028864014
-0.0022962315
-0.0019587343
-0.0017928201
-0.0017338419
-0.0017330141
-0.0017558469
-0.0017798381
-0.0017918064
-0.001785283
-0.0017582707
-0.0017115206
-0.0016473149
-0.0015686624
-0.0014787898
-0.0013808345
-0.0012776684
-0.0011718093
-0.0010653877
-0.00096014729
-0.00085746204
-0.00075836608
-0.00066356669
-0.00057352757
-0.00048830002
-0.00040820849
-0.00033165097
-0.00026242161
-0.0001860938
-0.0001451016
-7.5993711e-07
-0.21534921
-0.18417535
-0.16116844
-0.14416638
-0.12715838
-0.11012322
-0.094242618
-0.079798313
-0.066721002
-0.05501165
-0.044705958
-0.035796281
-0.028228688
-0.021921055
-0.016771518
-0.01266212
-0.0094640791
-0.0070442174
-0.0052707824
-0.0040182133
-0.0031710021
-0.0026266649
-0.0022977431
-0.0021127727
-0.002016187
-0.0019671883
-0.0019377613
-0.0019101709
-0.0018743582
-0.0018255944
-0.0017626013
-0.0016861771
-0.001598256
-0.0015012919
-0.0013978678
-0.0012904577
-0.0011812912
-0.0010722883
-0.00096503651
-0.00086079243
-0.00076050054
-0.00066479794
-0.00057409374
-0.00048839255
-0.00040798553
-0.00033123294
-0.00026190346
-0.00018559353
-0.00014449142
-1.0360821e-06
-0.2209236
-0.19182827
-0.16918487
-0.15200989
-0.13523842
-0.1184107
-0.10240783
-0.087624767
-0.074106511
-0.06187523
-0.050977355
-0.04143237
-0.033214913
-0.026265147
-0.020498717
-0.015811719
-0.012085715
-0.0091940403
-0.0070080077
-0.0054022047
-0.0042588717
-0.0034713852
-0.0029467887
-0.0026072982
-0.0023907333
-0.0022498719
-0.0021508483
-0.002070891
-0.0019958051
-0.001917591
-0.0018324585
-0.0017393164
-0.0016386987
-0.0015320311
-0.0014211443
-0.001307963
-0.0011943155
-0.0010818265
-0.00097186531
-0.00086552439
-0.0007636237
-0.00066670351
-0.0005750978
-0.00048874836
-0.00040789988
-0.00033086631
-0.00026137296
-0.00018506325
-0.00014376465
-1.3611106e-06
-0.21823908
-0.19573134
-0.17514901
-0.15793919
-0.14175461
-0.12572979
-0.11017763
-0.095506164
-0.081886269
-0.069387074
-0.058076087
-0.048005974
-0.039189866
-0.031602084
-0.025186861
-0.019864134
-0.015534449
-0.012085023
-0.0093961962
-0.0073473026
-0.0058217269
-0.0047111042
-0.0039185731
-0.003360973
-0.0029699062
-0.0026916377
-0.0024859361
-0.0023241366
-0.0021868324
-0.0020616025
-0.0019410461
-0.0018212224
-0.0017004751
-0.0015785754
-0.0014561176
-0.0013341083
-0.0012136988
-0.0010960169
-0.00098206613
-0.00087266818
-0.00076844004
-0.0006697671
-0.00057686495
-0.00048957967
-0.00040808462
-0.00033062863
-0.00026087363
-0.00018450995
-0.00014294092
-1.702502e-06
-0.20465992
-0.19125764
-0.17423032
-0.15737326
-0.14159067
-0.12622237
-0.11122444
-0.096927638
-0.083548454
-0.071186057
-0.059919658
-0.04981472
-0.040901148
-0.033170431
-0.026582519
-0.021071338
-0.016549511
-0.012914168
-0.010053271
-0.0078515406
-0.006195612
-0.0049783698
-0.0041023917
-0.0034824369
-0.0030469315
-0.002738411
-0.0025129342
-0.0023386101
-0.0021935369
-0.0020635404
-0.0019400687
-0.0018184538
-0.0016965923
-0.0015739931
-0.001451107
-0.001328867
-0.0012083848
-0.0010907611
-0.00097697626
-0.00086783027
-0.00076392088
-0.00066561691
-0.00057311927
-0.00048626466
-0.00040520734
-0.00032821791
-0.00025885025
-0.00018308335
-0.00014145841
-2.0120786e-06
-0.18946795
-0.1775982
-0.16331385
-0.14847077
-0.13440883
-0.12074491
-0.10733229
-0.094409759
-0.082183379
-0.070765904
-0.060248335
-0.050708778
-0.042194456
-0.034717889
-0.02826164
-0.022782501
-0.018215341
-0.014478087
-0.011477362
-0.0091139453
-0.0072877259
-0.0059020164
-0.0048671116
-0.0041029908
-0.0035410818
-0.0031250355
-0.0028105251
-0.002564201
-0.0023620653
-0.0021876017
-0.0020299642
-0.0018824173
-0.0017410933
-0.0016040468
-0.001470559
-0.0013406404
-0.0012146851
-0.0010932431
-0.00097687428
-0.00086605913
-0.00076115252
-0.00066234048
-0.00056968223
-0.00048292019
-0.00040210068
-0.00032552733
-0.00025644458
-0.00018154236
-0.00013932395
-2.6064975e-06
-0.17453476
-0.16308631
-0.15111938
-0.13875901
-0.12653108
-0.11443384
-0.10249023
-0.090884886
-0.079791668
-0.069330418
-0.059600845
-0.050687524
-0.042648175
-0.035510317
-0.029274019
-0.023914771
-0.01938649
-0.015625648
-0.012556109
-0.010094003
-0.0081523087
-0.0066449839
-0.0054904983
-0.0046146451
-0.0039525244
-0.0034496288
-0.003062019
-0.0027556892
-0.002505338
-0.0022928358
-0.0021056643
-0.0019355155
-0.0017771307
-0.0016273846
-0.0014845868
-0.0013479644
-0.0012172912
-0.0010926315
-0.0009741684
-0.00086209198
-0.00075653379
-0.0006575108
-0.00056494941
-0.00047850698
-0.00039811989
-0.00032215133
-0.00025346931
-0.00017968601
-0.00013663035
-3.4678319e-06
-0.15898231
-0.1483442
-0.13820009
-0.12823974
-0.117941
-0.1074248
-0.096947375
-0.086684337
-0.076763503
-0.067302226
-0.058409649
-0.05017659
-0.042668912
-0.035926731
-0.029965704
-0.024778453
-0.020336739
-0.016594782
-0.013493299
-0.010963735
-0.0089324043
-0.007324354
-0.0060667956
-0.0050919548
-0.0043392225
-0.003756517
-0.0033008207
-0.002937947
-0.0026417006
-0.0023926774
-0.0021769509
-0.0019848345
-0.0018098132
-0.0016476712
-0.0014958031
-0.0013526876
-0.0012174971
-0.001089819
-0.00096946238
-0.00085632601
-0.00075031586
-0.00065127744
-0.00055900166
-0.00047305991
-0.00039327423
-0.00031807681
-0.00024992446
-0.00017745635
-0.00013348027
-4.4921746e-06
-0.14332731
-0.13387148
-0.12527419
-0.11734617
-0.1088886
-0.099940523
-0.090903206
-0.081972502
-0.073238198
-0.064805027
-0.056786699
-0.049278652
-0.042352248
-0.036057148
-0.030422055
-0.025454722
-0.021143205
-0.017458409
-0.014357331
-0.011786598
-0.009686078
-0.007992407
-0.0066422269
-0.0055749956
-0.0047352291
-0.0040740734
-0.0035501467
-0.0031296705
-0.0027860062
-0.0024987915
-0.0022528957
-0.0020373695
-0.0018444954
-0.0016689787
-0.0015072862
-0.0013571218
-0.0012170257
-0.0010860776
-0.00096368392
-0.0008494275
-0.00074296796
-0.00064396228
-0.00055205234
-0.00046671305
-0.00038764312
-0.00031334154
-0.00024583267
-0.00017483673
-0.00012992415
-5.6262739e-06
-0.1277032
-0.11974892
-0.11264137
-0.10639546
-0.09958798
-0.092137722
-0.084479324
-0.076828826
-0.06925576
-0.061848256
-0.054717364
-0.047960082
-0.041650737
-0.035845244
-0.030582151
-0.02588162
-0.021745736
-0.018160307
-0.015097354
-0.012517932
-0.010375174
-0.0086173871
-0.0071910243
-0.0060433663
-0.0051247686
-0.0043903653
-0.0038011469
-0.0033244032
-0.0029336009
-0.002607847
-0.0023311163
-0.0020914067
-0.0018799281
-0.0016903786
-0.0015183282
-0.0013607124
-0.0012154305
-0.0010810389
-0.00095652319
-0.00084113235
-0.00073426323
-0.00063537005
-0.00054393402
-0.00045932375
-0.00038110799
-0.0003078459
-0.00024112328
-0.00017175697
-0.00012597114
-6.8167978e-06
-0.11242263
-0.10610068
-0.10043246
-0.095589042
-0.090214746
-0.084148512
-0.07778487
-0.071341489
-0.064880157
-0.058473741
-0.052224634
-0.046227514
-0.040557238
-0.035273023
-0.030420044
-0.026027942
-0.022110293
-0.018665677
-0.01567947
-0.013125992
-0.01097094
-0.0091740171
-0.0076915631
-0.0064790251
-0.0054931319
-0.0046936473
-0.0040446103
-0.0035150265
-0.0030790425
-0.0027157095
-0.0024084769
-0.0021445597
-0.0019142808
-0.0017104504
-0.0015278116
-0.0013625667
-0.0012119881
-0.0010741093
-0.00094748842
-0.00083103027
-0.00072385818
-0.00062521316
-0.00053440701
-0.00045069351
-0.00037350801
-0.00030145914
-0.00023570404
-0.00016813209
-0.00012162696
-8.0043906e-06
-0.097877655
-0.093082713
-0.088730009
-0.085065905
-0.08091845
-0.076094405
-0.070919921
-0.065595479
-0.060178942
-0.054730816
-0.049341474
-0.044099494
-0.039077677
-0.034335883
-0.029922883
-0.02587482
-0.022214075
-0.018949651
-0.016078331
-0.013586201
-0.011450498
-0.0096417267
-0.0081259011
-0.0068667448
-0.0058277117
-0.0049737097
-0.004272427
-0.0036952012
-0.0032174363
-0.0028186291
-0.0024821131
-0.0021946357
-0.0019458629
-0.0017278753
-0.0015346922
-0.0013618451
-0.0012060128
-0.001064721
-0.00093610397
-0.00081871996
-0.00071141299
-0.00061320389
-0.00052322886
-0.00044061967
-0.00036467732
-0.0002940462
-0.00022947833
-0.00016387697
-0.00011689607
-9.1309463e-06
-0.084295202
-0.08080215
-0.077593445
-0.074923123
-0.071817202
-0.068082209
-0.063975905
-0.059670892
-0.055219673
-0.050672408
-0.046106315
-0.041601048
-0.037224864
-0.033035882
-0.029083764
-0.025408323
-0.022038053
-0.018989929
-0.016270012
-0.013874413
-0.011790585
-0.0099989446
-0.0084746881
-0.0071896686
-0.0061142036
-0.0052186968
-0.0044749725
-0.0038572516
-0.0033427478
-0.0029119117
-0.0025483969
-0.0022388361
-0.0019725099
-0.0017409684
-0.0015376455
-0.0013574936
-0.0011966551
-0.0010521809
-0.00092179839
-0.00080372628
-0.00069653058
-0.00059900992
-0.00051012223
-0.00042887237
-0.00035442874
-0.00028545647
-0.0002223366
-0.00015890202
-0.00011177214
-1.0141849e-05
-0.071761361
-0.069328907
-0.067078299
-0.065237076
-0.063006289
-0.060207622
-0.057040907
-0.053648052
-0.050073721
-0.046358586
-0.042566804
-0.038767488
-0.035022312
-0.031385596
-0.027905584
-0.02462322
-0.021570548
-0.018770094
-0.016234994
-0.013969486
-0.011969708
-0.010224844
-0.0087185119
-0.0074302936
-0.0063372785
-0.0054155238
-0.0046413281
-0.0039922436
-0.0034477859
-0.002989844
-0.0026028312
-0.0022736407
-0.001991471
-0.0017475758
-0.0015349765
-0.0013481684
-0.0011828399
-0.0010356208
-0.00090386442
-0.00078546896
-0.00067873251
-0.00058223599
-0.00049476117
-0.00041518458
-0.00034254668
-0.00027551922
-0.00021415345
-0.00015311274
-0.00010623588
-1.0989801e-05
-0.060300704
-0.05870925
-0.057235935
-0.056072257
-0.054565347
-0.052556843
-0.050200046
-0.047607996
-0.044816133
-0.041856038
-0.038779446
-0.035644338
-0.032504431
-0.029408629
-0.026401887
-0.023524118
-0.020808611
-0.018281153
-0.01595979
-0.013854928
-0.011969723
-0.010300785
-0.0088391703
-0.0075715489
-0.0064814594
-0.0055505617
-0.0047597924
-0.0040903486
-0.0035244481
-0.0030458485
-0.0026401405
-0.0022948545
-0.0019994277
-0.0017450771
-0.0015246133
-0.001332225
-0.0011632552
-0.001013987
-0.00088145044
-0.00076325566
-0.00065745357
-0.00056241985
-0.0004767682
-0.00039924993
-0.00032878563
-0.00026404226
-0.00020478639
-0.00014640814
-0.00010025202
-1.163472e-05
-0.049902018
-0.048963012
-0.048103339
-0.047479564
-0.046559561
-0.045205126
-0.043532628
-0.041629957
-0.039523331
-0.037235789
-0.034807606
-0.03228579
-0.029715446
-0.027138981
-0.024596663
-0.022125657
-0.019758542
-0.017522312
-0.015437891
-0.013519936
-0.011776893
-0.010211341
-0.0088206125
-0.0075976194
-0.0065318101
-0.0056101867
-0.0048182987
-0.0041411444
-0.0035639236
-0.00307261
-0.0026543406
-0.0022976382
-0.0019924986
-0.0017303752
-0.0015040905
-0.0013077007
-0.0011363346
-0.0009860253
-0.00085354785
-0.00073627216
-0.00063203447
-0.00053902704
-0.00045571068
-0.00038072045
-0.00031286893
-0.00025081144
-0.00019407625
-0.00013868094
-9.3770342e-05
-1.204524e-05
-0.040528075
-0.040085283
-0.039698449
-0.039493608
-0.039038785
-0.038214805
-0.03710888
-0.035787898
-0.034269799
-0.032570009
-0.03071857
-0.02875223
-0.026707459
-0.024619646
-0.022523488
-0.020452157
-0.018435982
-0.016501436
-0.014670512
-0.012960325
-0.011382927
-0.0099453613
-0.0086499645
-0.0074948862
-0.006474759
-0.0055814706
-0.004804969
-0.0041340402
-0.0035570045
-0.0030622916
-0.0026388787
-0.0022765916
-0.001966284
-0.0016999156
-0.0014705523
-0.001272308
-0.0011002479
-0.00095027034
-0.00081898168
-0.00070357449
-0.00060171572
-0.00051144639
-0.00043109787
-0.00035920457
-0.0002944876
-0.00023558969
-0.00018184661
-0.00012981572
-8.6725353e-05
-1.2196549e-05
-0.032125842
-0.032052544
-0.032021223
-0.03213233
-0.032037132
-0.031634047
-0.030987516
-0.030147391
-0.029124737
-0.027928593
-0.026580224
-0.0251072
-0.023537841
-0.02190052
-0.020223967
-0.018536604
-0.016865415
-0.015235
-0.013666911
-0.012179146
-0.0107858
-0.0094969105
-0.0083185112
-0.0072528885
-0.0062989928
-0.005452974
-0.0047087883
-0.0040588268
-0.0034945172
-0.0030068595
-0.0025868691
-0.0022259177
-0.001915974
-0.0016497536
-0.0014207921
-0.0012234568
-0.0010529116
-0.00090505019
-0.00077641172
-0.00066408885
-0.00056563731
-0.00047899002
-0.00040238123
-0.00033426794
-0.00027330158
-0.00021811816
-0.00016790569
-0.00011968927
-7.9039556e-05
-1.2069752e-05
-0.024632872
-0.024827865
-0.025056541
-0.025398339
-0.025573541
-0.025496597
-0.025214444
-0.024763466
-0.024149372
-0.023376174
-0.022457922
-0.021414324
-0.020266398
-0.019035918
-0.017745701
-0.016419106
-0.015079115
-0.013747515
-0.012444255
-0.011186913
-0.0099902621
-0.0088659818
-0.0078225354
-0.0068652158
-0.0059963413
-0.0052155772
-0.0045203503
-0.0039063186
-0.0033678549
-0.0028985093
-0.002491422
-0.0021396678
-0.0018365267
-0.00157568
-0.0013513387
-0.0011583119
-0.00099202689
-0.00084851118
-0.00072434914
-0.000616623
-0.00052284702
-0.0004408997
-0.00036895964
-0.00030543773
-0.00024894331
-0.00019811901
-0.00015204856
-0.00010817077
-7.0625771e-05
-1.1648945e-05
-0.017981425
-0.018365199
-0.018777711
-0.019281359
-0.01965335
-0.019822528
-0.019822598
-0.019679559
-0.019395206
-0.018969846
-0.018411865
-0.01773452
-0.016952592
-0.016081975
-0.015139972
-0.014144952
-0.01311565
-0.012070487
-0.011027013
-0.010001398
-0.009007981
-0.0080589167
-0.0071639382
-0.0063302567
-0.0055625878
-0.004863295
-0.0042326322
-0.0036690579
-0.0031695915
-0.0027301826
-0.0023460649
-0.0020120751
-0.001722924
-0.001473413
-0.0012585972
-0.0010738952
-0.00091515321
-0.00077867058
-0.00066119449
-0.00055989415
-0.00047232126
-0.00039636292
-0.00033019212
-0.00027221286
-0.00022102607
-0.00017530192
-0.00013406276
-9.5124934e-05
-6.1392338e-05
-1.0920054e-05
-0.0121019
-0.012613057
-0.01314987
-0.013761053
-0.014270493
-0.01461974
-0.014832662
-0.014927435
-0.014903189
-0.014757712
-0.014495154
-0.014123713
-0.013653073
-0.013094146
-0.012459362
-0.011762477
-0.011018059
-0.010240972
-0.0094459178
-0.0086469948
-0.007857282
-0.007088469
-0.0063505693
-0.0056517278
-0.0049981298
-0.004394008
-0.0038417422
-0.0033420352
-0.0028941455
-0.0024961544
-0.0021452448
-0.0018379714
-0.0015705086
-0.0013388642
-0.0011390551
-0.00096724241
-0.00081982632
-0.00069350527
-0.00058530426
-0.00049257917
-0.00041300343
-0.00034454243
-0.00028542081
-0.00023408194
-0.00018915803
-0.00014937477
-0.00011373624
-8.041679e-05
-5.1247848e-05
-9.8689234e-06
-0.0069254213
-0.0075173935
-0.0081329094
-0.0088097608
-0.0094098908
-0.0098858882
-0.010254407
-0.010527856
-0.01070372
-0.010778247
-0.010752597
-0.01063117
-0.010419686
-0.010125023
-0.0097555177
-0.0093208848
-0.0088318659
-0.0082998605
-0.0077365798
-0.0071536965
-0.0065624865
-0.00597349
-0.005396218
-0.0048389198
-0.0043084208
-0.0038100383
-0.0033475724
-0.00292337
-0.0025384469
-0.0021926568
-0.0018848885
-0.0016132742
-0.0013753959
-0.0011684778
-0.00098955599
-0.00083562078
-0.00070372865
-0.00059108405
-0.00049509317
-0.00041339368
-0.00034386506
-0.00028462382
-0.00023400809
-0.00019055235
-0.0001529648
-0.00012006095
-9.0870494e-05
-6.3920623e-05
-4.0108636e-05
-8.4813564e-06
-0.0023856871
-0.0030238554
-0.0036839159
-0.0043949809
-0.0050498267
-0.0056104907
-0.0060884032
-0.0064918045
-0.0068173062
-0.0070603873
-0.0072202313
-0.0072985341
-0.0072980704
-0.0072226151
-0.007077229
-0.0068682586
-0.0066031206
-0.0062900561
-0.0059378911
-0.0055557781
-0.0051529145
-0.0047382581
-0.0043202594
-0.0039066282
-0.0035041425
-0.0031185116
-0.0027542969
-0.0024148913
-0.0021025543
-0.0018184944
-0.0015629876
-0.0013355204
-0.0011349449
-0.00095963602
-0.00080763988
-0.00067680889
-0.00056491639
-0.0004697494
-0.00038917844
-0.00032120587
-0.00026399547
-0.00021588593
-0.00017539177
-0.00014119331
-0.0001121228
-8.7124714e-05
-6.5299161e-05
-4.5532737e-05
-2.7907112e-05
-6.7435305e-06
0.0015796567
0.00092043137
0.00024076371
-0.000481572
-0.0011641795
-0.0017770723
-0.0023279383
-0.0028220604
-0.0032557302
-0.0036242147
-0.0039255117
-0.0041595034
-0.0043268971
-0.0044291975
-0.0044689703
-0.0044498923
-0.0043766355
-0.0042547202
-0.0040903662
-0.0038903188
-0.0036616454
-0.0034115162
-0.0031469827
-0.0028747688
-0.0026010834
-0.0023314643
-0.0020706611
-0.0018225626
-0.001590168
-0.0013756015
-0.0011801637
-0.0010044125
-0.0008482654
-0.00071111358
-0.00059194021
-0.00048943563
-0.00040210318
-0.00032835143
-0.00026657029
-0.00021519017
-0.0001727247
-0.00013779857
-0.00010916243
-8.5696531e-05
-6.6406319e-05
-5.0407043e-05
-3.6914507e-05
-2.5189846e-05
-1.4603539e-05
-4.6443489e-06
0.0050281801
0.0043656039
0.0036839467
0.0029664451
0.0022756328
0.0016348493
0.001039062
0.00048505139
-2.3521377e-05
-0.00048208737
-0.0008880408
-0.0012401412
-0.0015377381
-0.0017807727
-0.0019700095
-0.0021071141
-0.0021946043
-0.0022357768
-0.002234628
-0.0021957513
-0.0021242043
-0.0020253533
-0.0019047068
-0.0017677457
-0.0016197604
-0.0014657006
-0.0013100485
-0.0011567198
-0.0010089972
-0.00086949795
-0.0007401737
-0.00062233957
-0.00051672747
-0.00042355736
-0.00034262027
-0.0002733667
-0.00021499461
-0.00016653176
-0.00012690914
-9.5022693e-05
-6.9782775e-05
-5.0151126e-05
-3.5166027e-05
-2.3957386e-05
-1.5750715e-05
-9.8739138e-06
-5.7028633e-06
-2.8936634e-06
-2.0046332e-07
-2.1788774e-06
0.0080119224
0.007357966
0.0066862317
0.005984292
0.0052988984
0.004647918
0.0040281854
0.003437898
0.002880448
0.0023600117
0.0018793945
0.0014404502
0.0010446421
0.00069302749
0.00038606169
0.00012351307
-9.5531699e-05
-0.000272643
-0.00041001933
-0.00051043829
-0.0005771811
-0.00061393454
-0.00062467692
-0.00061355364
-0.00058474836
-0.00054235608
-0.00049026523
-0.0004320549
-0.00037091208
-0.00030957263
-0.00025028726
-0.00019481233
-0.00014442341
-9.9948353e-05
-6.1815718e-05
-3.011394e-05
-4.6562166e-06
1.4953371e-05
2.9256668e-05
3.8884062e-05
4.4504951e-05
4.6787253e-05
4.636623e-05
4.3821486e-05
3.9666265e-05
3.4321415e-05
2.820941e-05
2.1257354e-05
1.5238472e-05
6.4631201e-07
0.010577208
0.0099393876
0.0092850329
0.0086051523
0.0079340537
0.0072851538
0.0066565894
0.0060475164
0.0054609441
0.0049005405
0.0043690502
0.0038685851
0.0034010255
0.0029679985
0.002570721
0.0022099177
0.0018858033
0.0015980771
0.0013459196
0.0011280048
0.00094253263
0.00078728135
0.00065967595
0.00055686976
0.00047583577
0.0004134631
0.00036665376
0.00033241433
0.00030793784
0.00029067182
0.00027836957
0.00026912314
0.00026137773
0.00025392855
0.00024590205
0.00023672445
0.00022608095
0.00021386938
0.00020015174
0.00018510679
0.00016898604
0.00015207494
0.00013466035
0.00011700332
9.9324404e-05
8.1761348e-05
6.4499075e-05
4.7028681e-05
3.1565851e-05
3.8063509e-06
0.012764289
0.012146844
0.011514015
0.010859539
0.010207996
0.0095692242
0.0089422608
0.0083269004
0.0077257304
0.0071418753
0.0065778677
0.0060358471
0.0055178397
0.0050257374
0.0045611768
0.004125468
0.0037195657
0.0033440493
0.0029991011
0.0026844955
0.0023996028
0.0021434083
0.0019145447
0.0017113376
0.0015318621
0.0013740076
0.001235548
0.0011142143
0.0010077639
0.00091404437
0.00083104881
0.00075695867
0.00069017439
0.00062933207
0.00057330703
0.00052120512
0.000472344
0.00042622652
0.00038250914
0.00034096768
0.00030146295
0.00026390787
0.00022823775
0.00019438276
0.00016225189
0.00013167823
0.00010258156
7.4004884e-05
4.852419e-05
7.2496815e-06
0.014606
0.014010405
0.013400496
0.012772128
0.012142368
0.011518228
0.010899361
0.010285982
0.0096802648
0.0090848116
0.0085018719
0.0079334767
0.0073816274
0.006848278
0.0063352454
0.0058441523
0.005376396
0.0049331226
0.0045151975
0.004123183
0.0037573242
0.0034175465
0.0031034622
0.0028143889
0.0025493762
0.0023072431
0.002086622
0.0018860078
0.0017038099
0.0015384034
0.0013881782
0.0012515816
0.0011271542
0.0010135573
0.00090958942
0.00081419491
0.00072646203
0.00064561401
0.00057099357
0.00050204295
0.00043828116
0.00037927995
0.00032464014
0.00027396668
0.00022685456
0.00018282449
0.00014151617
0.00010152449
6.5707375e-05
1.0884066e-05
0.016132394
0.015558539
0.014971269
0.014368131
0.013760456
0.013153045
0.012545969
0.011939711
0.011336078
0.010737199
0.010145026
0.0095614141
0.0089882472
0.0084274201
0.0078807774
0.0073500694
0.0068369244
0.0063428216
0.005869061
0.0054167366
0.0049867135
0.0045796124
0.0041958
0.0038353876
0.0034982368
0.0031839735
0.0028920092
0.0026215684
0.0023717209
0.0021414175
0.0019295263
0.0017348688
0.0015562528
0.0013925018
0.0012424784
0.0011051013
0.00097935619
0.00086429964
0.00075905762
0.00066281856
0.00057482259