/*--------------------------------*- C++ -*----------------------------------*\
  =========                 |
  \\      /  F ield         | OpenFOAM: The Open Source CFD Toolbox
   \\    /   O peration     | Website:  https://openfoam.org
    \\  /    A nd           | Version:  6
     \\/     M anipulation  |
\*---------------------------------------------------------------------------*/
FoamFile
{
    version     2.0;
    format      ascii;
    class       volVectorField;
    location    "9";
    object      U_0;
}
// * * * * * * * * * * * * * * * * * * * * * * * * * * * * * * * * * * * * * //

dimensions      [0 1 -1 0 0 0 0];

internalField   nonuniform List<vector> 
9200
(
(0.0018784231 0.001107871 -6.7555925e-20)
(0.017707127 -0.0037934466 5.392747e-20)
(0.047537714 -0.0090191121 -4.4805973e-20)
(0.08831877 -0.014455513 -6.8983332e-20)
(0.1379823 -0.019905473 2.2399638e-20)
(0.1951172 -0.024924863 3.797975e-20)
(0.25844776 -0.02922333 -1.4840992e-20)
(0.32674781 -0.032664433 1.1296953e-20)
(0.39881963 -0.035203667 1.8354269e-20)
(0.47346043 -0.03686323 1.6731631e-21)
(0.54944199 -0.037718934 -2.4576483e-20)
(0.62551128 -0.037886705 2.4194292e-20)
(0.70040894 -0.037508767 -4.7247505e-20)
(0.77290212 -0.036739784 -2.5476858e-20)
(0.84182844 -0.035732569 7.1015952e-21)
(0.90614547 -0.03462589 -3.1772554e-20)
(0.96499189 -0.033523728 3.321946e-20)
(1.0178116 -0.03236947 3.3262463e-20)
(1.0642395 -0.030978002 1.5624807e-21)
(1.1020301 -0.032095203 7.4241188e-22)
(0.0068519198 -0.0021365828 -1.9443919e-20)
(0.033236066 -0.011923549 4.5838697e-20)
(0.07459668 -0.019617183 2.7464059e-20)
(0.12744587 -0.025783192 -1.3083861e-19)
(0.18935698 -0.030671111 -1.4890903e-20)
(0.25859148 -0.034095246 8.1859675e-20)
(0.33352315 -0.035989302 -4.0332982e-20)
(0.4125535 -0.036425475 -9.3811901e-21)
(0.4941054 -0.035549757 3.8921256e-20)
(0.57660824 -0.033560467 -4.9715075e-20)
(0.6585019 -0.030697912 -3.548282e-20)
(0.73826531 -0.027230272 8.6194878e-20)
(0.81446225 -0.023437545 4.6176468e-20)
(0.88579658 -0.01959583 -8.46425e-20)
(0.95116935 -0.015963716 1.8972356e-20)
(1.0097286 -0.012774551 -4.8017763e-20)
(1.0609142 -0.01022435 -1.7591744e-20)
(1.1045405 -0.0084086636 9.9351298e-20)
(1.1406891 -0.007583309 4.7375114e-20)
(1.168129 -0.010266335 -1.004288e-19)
(0.013350727 -0.0052290144 4.1360149e-20)
(0.052786317 -0.019309041 2.9158756e-21)
(0.10754645 -0.028588081 2.6227472e-20)
(0.17375328 -0.034437852 1.0976115e-21)
(0.24862016 -0.037644826 -4.788739e-20)
(0.33004358 -0.038351981 2.011156e-20)
(0.41600503 -0.036784588 1.5800047e-20)
(0.5045049 -0.033288433 -5.7234414e-20)
(0.59358535 -0.02825894 6.5672419e-20)
(0.68134837 -0.022119679 1.6883745e-20)
(0.76599366 -0.015310395 -6.4847939e-20)
(0.84587766 -0.0082679222 -2.2841633e-20)
(0.91958035 -0.0014043558 8.4942825e-21)
(0.9859677 0.0049132361 2.9913061e-20)
(1.0442393 0.010378894 -1.5273215e-20)
(1.093952 0.014756657 3.6463054e-20)
(1.1350199 0.017889906 -2.6402294e-20)
(1.1677155 0.019739853 -9.512315e-20)
(1.1925361 0.020197215 -3.1645246e-20)
(1.2091728 0.017795126 6.2161198e-20)
(0.021460826 -0.0078998011 2.7308958e-20)
(0.076422223 -0.025195443 5.7230233e-20)
(0.14626017 -0.034808117 2.2110015e-20)
(0.22677873 -0.039046508 1.3559132e-20)
(0.31484263 -0.039327666 1.8661147e-20)
(0.40796271 -0.036199924 -5.3248929e-20)
(0.50371868 -0.030250879 -2.8898791e-20)
(0.59973275 -0.022161258 0)
(0.6937362 -0.012622099 1.7177607e-20)
(0.78362915 -0.0023080276 -8.1820846e-21)
(0.86755247 0.0081404754 -1.1728705e-19)
(0.94396646 0.018143033 -1.8052437e-20)
(1.0117188 0.027205816 8.2508222e-20)
(1.0700879 0.034942091 -1.2476587e-21)
(1.1187937 0.041083948 -2.028812e-21)
(1.1579731 0.045483309 2.8593264e-20)
(1.1881234 0.048108943 -7.0096971e-21)
(1.2100395 0.049063972 -8.081217e-20)
(1.2246679 0.048459845 -6.2111481e-20)
(1.2324197 0.04556004 8.6053403e-20)
(0.031187806 -0.0098458388 -4.2403079e-21)
(0.10395998 -0.028781831 -5.9308383e-21)
(0.19018912 -0.037142865 6.2590448e-20)
(0.28547214 -0.038292333 2.0023448e-20)
(0.3863671 -0.03436621 -3.5059734e-20)
(0.49001829 -0.026393919 1.3737914e-20)
(0.59365224 -0.015388284 3.0045329e-21)
(0.6946115 -0.0024075416 3.9227586e-20)
(0.79047248 0.011545942 6.6802604e-21)
(0.87914419 0.025561553 -1.6726462e-20)
(0.95895921 0.038844366 7.5601481e-20)
(1.028747 0.050744065 -7.0129276e-20)
(1.087872 0.060777909 -1.6513827e-19)
(1.1362277 0.068640568 -7.0566007e-21)
(1.1741871 0.074199297 1.0637889e-19)
(1.2025156 0.077475217 0)
(1.2222624 0.078618735 1.3183088e-20)
(1.2346511 0.077901252 -1.9764205e-20)
(1.2409379 0.075609307 -1.1788573e-20)
(1.241969 0.071428511 2.5969112e-20)
(0.042436023 -0.010742718 -5.6016729e-21)
(0.13494095 -0.029267592 4.7709283e-21)
(0.23836917 -0.034536894 -9.5833643e-21)
(0.34826816 -0.031052162 3.1473108e-20)
(0.46097899 -0.021736093 -3.2710934e-20)
(0.57335957 -0.0081587774 -1.9117077e-20)
(0.682408 0.0082051537 4.1603762e-20)
(0.78536951 0.025916444 5.0603098e-21)
(0.87989992 0.043694915 -3.0616171e-20)
(0.96418525 0.060463282 8.3970521e-20)
(1.037023 0.075370604 -9.6095599e-22)
(1.0978556 0.087812492 -1.0054415e-19)
(1.146748 0.097436019 0)
(1.184309 0.10412417 5.0040183e-20)
(1.211573 0.10796235 6.9587235e-21)
(1.2298578 0.1091921 -9.7299327e-20)
(1.2406196 0.10816291 -2.4727053e-20)
(1.24533 0.10530185 -1.5490805e-20)
(1.2453559 0.10101565 -1.8679949e-20)
(1.24169 0.095235646 5.0766337e-20)
(0.054997458 -0.010269101 -1.8442909e-20)
(0.16862355 -0.025917642 -2.9521108e-21)
(0.28944743 -0.026108703 3.2922964e-20)
(0.41317413 -0.016508304 4.0738558e-20)
(0.53607602 -0.00085273911 -2.2122042e-20)
(0.65487709 0.018724506 -7.8711783e-20)
(0.76655055 0.040297929 -3.3009313e-20)
(0.86849776 0.062100952 9.2422175e-20)
(0.95873608 0.082669219 1.1339094e-20)
(1.0360076 0.10088277 -2.919995e-20)
(1.0998144 0.11597398 1.5359086e-20)
(1.1503806 0.12752108 -5.7040909e-21)
(1.1885473 0.13541798 0)
(1.2156186 0.13982055 3.3552278e-20)
(1.2331851 0.1410782 -9.7891439e-20)
(1.2429499 0.13966065 -3.8993702e-20)
(1.2465803 0.13609257 9.993327e-20)
(1.2456006 0.13091217 -6.5975194e-21)
(1.2413154 0.12458585 4.0117209e-21)
(1.2346691 0.11718366 3.4704879e-20)
(0.068548916 -0.0081379197 -3.4367287e-20)
(0.20399899 -0.018139915 -8.8458439e-20)
(0.3417441 -0.01125161 1.7863007e-21)
(0.47789605 0.0057509839 7.7592583e-20)
(0.60886592 0.028353524 6.9852348e-20)
(0.73146645 0.053893457 -7.9927959e-20)
(0.8429134 0.080069137 1.0041352e-21)
(0.94105798 0.10490567 1.0174281e-19)
(1.0245643 0.12690524 5.7865968e-20)
(1.0929689 0.14506913 -6.5543529e-20)
(1.1466378 0.15886921 -1.1160985e-19)
(1.1866369 0.1681953 -3.8296347e-21)
(1.214544 0.17327625 5.1165779e-20)
(1.2322346 0.17458295 -7.8094206e-21)
(1.2416761 0.17272807 -1.5004624e-20)
(1.2447564 0.16837552 2.2710743e-20)
(1.2431622 0.16217114 5.3185825e-20)
(1.2383136 0.15470372 -5.2299505e-20)
(1.2313405 0.14644279 -1.2447777e-19)
(1.2230372 0.13753265 3.1454033e-20)
(0.082623507 -0.0041292755 -3.8092483e-20)
(0.23975753 -0.0055639861 -1.8424753e-19)
(0.39323538 0.010285746 9.1177299e-20)
(0.53985016 0.035680366 1.0299974e-19)
(0.67641136 0.065437259 6.4664325e-20)
(0.80009925 0.096468325 9.9168365e-21)
(0.90867277 0.12624022 -1.2242971e-19)
(1.0007221 0.15274955 0)
(1.0757953 0.17465713 -8.2646996e-20)
(1.1343764 0.19126526 -1.8425005e-20)
(1.1777441 0.20243063 6.548989e-20)
(1.2077535 0.20845081 1.2972234e-20)
(1.2265831 0.20993192 -5.4374609e-20)
(1.2364928 0.20765371 -5.8049243e-20)
(1.2396243 0.20245012 2.9751553e-20)
(1.2378644 0.19511731 5.4655032e-20)
(1.2327729 0.18635545 -6.720554e-20)
(1.2255689 0.17674399 -1.2853554e-19)
(1.2171595 0.16671218 -2.6030564e-21)
(1.2081562 0.15644358 3.2006772e-20)
(0.09659781 0.0018951995 -4.6821016e-21)
(0.27430503 0.01195124 9.5071548e-20)
(0.44160852 0.038415246 -1.2963115e-20)
(0.59626794 0.072816574 -9.5781703e-20)
(0.73577983 0.10949865 5.1219743e-20)
(0.85799059 0.14513238 5.4581174e-20)
(0.96148942 0.17716935 6.4635015e-21)
(1.0458403 0.20380788 -1.1634149e-19)
(1.1116233 0.22407984 -2.9595342e-21)
(1.1603113 0.2377575 5.9816023e-20)
(1.1940342 0.2451919 6.9956614e-21)
(1.215291 0.24713434 -2.4142303e-20)
(1.226668 0.24455844 -8.9798668e-20)
(1.2306051 0.23850323 -6.8335111e-21)
(1.2292364 0.22995366 5.1127684e-20)
(1.2243083 0.21976477 4.3321119e-20)
(1.2171661 0.20862709 2.2311407e-20)
(1.2087908 0.19706311 -6.5032544e-20)
(1.1998672 0.18543545 1.2133525e-20)
(1.1908314 0.17395128 9.5687723e-20)
(-0.0016662406 0.0018535439 -1.3501148e-21)
(-0.0061051463 0.0041031357 2.6283787e-21)
(-0.013837759 0.0053280064 1.1825887e-21)
(-0.022818542 0.0058706373 -3.2183121e-21)
(-0.031849968 0.0059441962 -1.7020991e-21)
(-0.040398159 0.0056880648 1.7530115e-21)
(-0.048122388 0.005201016 -8.6776751e-21)
(-0.054789793 0.0045522644 -7.3133417e-21)
(-0.060256591 0.0037887072 1.4392146e-20)
(-0.064437773 0.00294091 -1.276493e-20)
(-0.067281947 0.0020274647 -8.392599e-23)
(-0.068755142 0.0010581012 5.2490993e-21)
(-0.068830107 3.602823e-05 -7.4306878e-22)
(-0.067478878 -0.0010401765 3.2656169e-20)
(-0.064667932 -0.0021747213 1.2319847e-22)
(-0.060357738 -0.0033724496 -6.2175508e-20)
(-0.054507267 -0.0046377598 1.2450784e-20)
(-0.047062795 -0.0059776637 3.8195684e-20)
(-0.037916177 -0.0073985418 -7.2883774e-20)
(-0.027024026 -0.008835858 -4.7545557e-20)
(-0.0021069925 0.0053789388 -7.0335434e-21)
(-0.0068645753 0.011886607 1.3682708e-20)
(-0.014246038 0.015416293 -1.3060167e-20)
(-0.022427075 0.016956354 4.9317388e-21)
(-0.030335387 0.017125457 5.8791863e-21)
(-0.037495472 0.016330765 8.7102824e-22)
(-0.043603455 0.014861218 -2.7610164e-20)
(-0.048450365 0.01291931 -2.7005921e-21)
(-0.051905511 0.010642326 2.5923184e-20)
(-0.053889266 0.0081198336 -6.521626e-21)
(-0.054350544 0.0054064469 -2.8979837e-20)
(-0.053252485 0.0025309481 6.5792039e-21)
(-0.050563205 -0.00049680755 2.9957867e-20)
(-0.04624933 -0.0036802682 1.4514534e-20)
(-0.040271376 -0.0070308636 3.2494801e-20)
(-0.032585776 -0.010562223 -2.9375988e-20)
(-0.023159207 -0.014286054 -3.2662646e-20)
(-0.011960773 -0.01821886 3.4969639e-20)
(0.0012087404 -0.022360723 4.301288e-20)
(0.016766321 -0.02649045 2.4366645e-20)
(-0.0028955911 0.0083708237 -5.6410585e-21)
(-0.008172813 0.018435323 -6.9185697e-21)
(-0.014798683 0.023860962 3.7429786e-22)
(-0.021369482 0.026163269 1.5597094e-21)
(-0.027050967 0.026301577 8.4474319e-21)
(-0.031479962 0.024916262 1.3619767e-20)
(-0.034425359 0.022463507 -4.5112948e-21)
(-0.035726743 0.019263602 -2.4374088e-20)
(-0.035281896 0.015534422 8.3618396e-21)
(-0.033025723 0.011418835 1.622807e-20)
(-0.028912942 0.0070047596 8.7469316e-21)
(-0.022907413 0.002339591 2.2704235e-20)
(-0.014975647 -0.0025587317 2.312898e-21)
(-0.0050832254 -0.0076931631 -4.5095939e-20)
(0.0068090499 -0.013078619 2.9720255e-21)
(0.020741371 -0.018733475 -2.9013812e-20)
(0.036724326 -0.02467563 -3.8135654e-20)
(0.054733111 -0.03092703 7.2061833e-20)
(0.075087981 -0.03743947 4.2287566e-20)
(0.098880888 -0.04373773 2.7827627e-21)
(-0.0038711251 0.010551392 -6.812406e-21)
(-0.0096775814 0.023093123 -1.14762e-20)
(-0.015084292 0.029777892 5.4461208e-21)
(-0.019248948 0.032475101 5.1546715e-21)
(-0.021660737 0.03238807 2.5535022e-21)
(-0.022113791 0.030337832 8.6653883e-21)
(-0.0204828 0.026912536 1.1071975e-20)
(-0.016681518 0.022526276 -1.3205408e-21)
(-0.010655735 0.017462281 -1.3631838e-20)
(-0.002370685 0.011907801 -3.6256964e-20)
(0.0081986847 0.0059798824 6.7922904e-22)
(0.021073461 -0.00025636514 5.141297e-20)
(0.036272294 -0.0067732497 -2.2308101e-20)
(0.053812013 -0.013568628 -1.6111822e-20)
(0.073709628 -0.020655903 -7.8201332e-22)
(0.095978349 -0.028054082 4.5033385e-20)
(0.12058055 -0.035786765 -2.3804792e-20)
(0.14739484 -0.043886168 -7.6502184e-20)
(0.17680918 -0.052228247 6.673526e-20)
(0.21077003 -0.059954177 4.9852115e-20)
(-0.0048258235 0.011752015 -6.6572106e-22)
(-0.010908887 0.025437097 -1.5540347e-20)
(-0.014533728 0.032576384 -4.2515017e-20)
(-0.015491952 0.035199152 -6.9166388e-21)
(-0.013648392 0.034640642 -4.7731094e-21)
(-0.0089878409 0.031839763 7.3991683e-21)
(-0.0015192864 0.027473746 -4.9292406e-21)
(0.0087437087 0.022020534 -9.3378716e-21)
(0.021783877 0.015809155 2.5518272e-20)
(0.03758273 0.0090591169 5.0671753e-21)
(0.056122552 0.0019102544 -3.2665892e-20)
(0.077383492 -0.0055557186 1.2813448e-20)
(0.10134103 -0.013298962 0)
(0.12796248 -0.021308695 1.5196217e-20)
(0.15720604 -0.02959181 -1.2431166e-20)
(0.18901715 -0.038163131 -1.9533933e-20)
(0.22327368 -0.04705159 1.4348935e-21)
(0.25971514 -0.056314705 -4.434689e-21)
(0.29868985 -0.065766023 6.1123413e-20)
(0.34301592 -0.074049066 -1.9810476e-20)
(-0.0055333196 0.01192111 -9.0992405e-21)
(-0.011329353 0.025304407 3.0386004e-20)
(-0.01246133 0.032005852 -1.3007072e-20)
(-0.0093659735 0.034031328 -3.3292454e-20)
(-0.0023044535 0.032736525 -3.3551608e-20)
(0.0085264184 0.029113128 -1.773488e-20)
(0.022960527 0.023880733 -2.9731254e-22)
(0.040859585 0.017547507 5.7609043e-21)
(0.062110209 0.01046605 2.1685926e-20)
(0.086613019 0.002874732 8.52641e-21)
(0.11427383 -0.0050716806 -8.0638211e-21)
(0.14499646 -0.01327874 -1.3656115e-21)
(0.17867382 -0.021695115 -4.5929573e-20)
(0.21517956 -0.030299289 -1.5406661e-20)
(0.25436391 -0.039088273 2.4979936e-20)
(0.29605127 -0.04806924 -2.7818653e-20)
(0.33998747 -0.057275332 -1.1664828e-20)
(0.38573496 -0.066806293 3.794802e-20)
(0.43348993 -0.076465402 6.6252523e-20)
(0.48681539 -0.0843565 4.953348e-21)
(-0.0057710132 0.011109287 1.9791966e-20)
(-0.010378711 0.022776564 1.7104538e-20)
(-0.0081082331 0.028155129 6.1573619e-20)
(-1.0354295e-05 0.029074785 2.8072289e-20)
(0.013260988 0.026811272 2.1473723e-22)
(0.031285645 0.022347041 -4.572491e-20)
(0.053722799 0.01639831 -2.8944536e-20)
(0.080288833 0.0094709874 1.1581615e-20)
(0.11074193 0.0019168059 1.6383556e-20)
(0.14486555 -0.0060239194 -1.3910975e-20)
(0.18245001 -0.014192649 -5.1242777e-20)
(0.22327706 -0.022489979 3.4729037e-20)
(0.26710599 -0.030858379 2.2504642e-20)
(0.31366163 -0.03926935 -3.2658234e-20)
(0.36262787 -0.047713236 1.4564931e-20)
(0.41364817 -0.056192732 2.9614211e-20)
(0.46628458 -0.06474821 1.0629875e-20)
(0.51989562 -0.073537822 -1.6569441e-20)
(0.574447 -0.082432416 -1.6871731e-20)
(0.63402699 -0.089064579 1.3696874e-20)
(-0.0053320354 0.0094413992 1.3204266e-20)
(-0.0075053479 0.018132168 -2.8712573e-20)
(-0.00068423004 0.02140929 9.7757442e-21)
(0.013517274 0.020808378 3.9965979e-20)
(0.034069405 0.017439441 6.1996876e-20)
(0.060325083 0.012221654 2.3702712e-20)
(0.09175243 0.005826099 -7.2428365e-21)
(0.12789199 -0.0012784912 -1.3469855e-20)
(0.16833997 -0.0087659968 -7.7258999e-21)
(0.21271957 -0.016413853 3.9097425e-20)
(0.26065404 -0.024075892 -6.3729706e-21)
(0.31174536 -0.031661413 -1.9773527e-20)
(0.36555721 -0.039119302 -2.2009016e-20)
(0.42160236 -0.046426692 -5.575085e-20)
(0.47933803 -0.053580708 2.7446167e-20)
(0.53817393 -0.060594222 -1.7273805e-20)
(0.59745318 -0.06752996 3.3360732e-20)
(0.65633865 -0.074629101 2.732132e-20)
(0.71456276 -0.081928042 -1.0532336e-19)
(0.77649822 -0.086805037 1.6940714e-21)
(-0.0040292645 0.007087854 2.5475382e-20)
(-0.0021917633 0.011795115 -3.1469691e-20)
(0.010578359 0.012396736 -5.3078534e-20)
(0.03215453 0.010041895 -3.2121203e-20)
(0.061153076 0.0056042785 -2.3680633e-21)
(0.096690066 -0.00010988405 1.4140955e-20)
(0.13802061 -0.0065145048 -2.547181e-21)
(0.18447811 -0.013210878 2.0275047e-20)
(0.23545194 -0.019927451 9.4343604e-21)
(0.29035078 -0.026484565 -1.2671374e-20)
(0.34856984 -0.032771557 1.1362308e-20)
(0.40946723 -0.038728696 -2.710479e-20)
(0.47234843 -0.044333218 1.0566035e-20)
(0.5364585 -0.049589332 1.9811994e-20)
(0.60098469 -0.054520971 -3.2980723e-21)
(0.66507427 -0.059168924 1.9572608e-21)
(0.72783926 -0.06363146 1.0419736e-23)
(0.7882814 -0.068223215 2.5131611e-20)
(0.84596898 -0.073133549 5.1359347e-21)
(0.90537129 -0.075906015 -8.8868725e-21)
(-0.0016912248 0.0042446719 2.7899447e-20)
(0.0060285741 0.0043001996 6.7969101e-20)
(0.026362471 0.0019613061 -5.764888e-20)
(0.056713024 -0.0020928761 -1.1550063e-20)
(0.095355453 -0.0072951432 2.2848981e-20)
(0.14115814 -0.012998313 2.4287143e-21)
(0.19313534 -0.018742795 -3.347816e-20)
(0.25037107 -0.024239143 7.292616e-21)
(0.3119944 -0.029307217 8.7818431e-21)
(0.37713976 -0.033845898 -2.9996797e-20)
(0.44491475 -0.037815305 1.7192449e-21)
(0.51438256 -0.041221553 -4.2650586e-20)
(0.58455724 -0.044103644 -4.2755661e-20)
(0.65441037 -0.0465224 7.8858301e-20)
(0.72288866 -0.048550484 6.8841062e-21)
(0.78894004 -0.050267222 -2.0026079e-20)
(0.8515259 -0.051788045 2.4315387e-20)
(0.90957945 -0.053343133 -1.1761283e-21)
(0.96239916 -0.054933593 2.3082571e-20)
(1.0131361 -0.055099119 -3.0949814e-20)
(-0.013273111 -0.0099839289 1.049811e-19)
(0.0042048753 -0.011638672 2.6987175e-20)
(0.025403052 -0.013205171 -6.4353471e-20)
(0.050036485 -0.014549697 3.4928503e-20)
(0.077868619 -0.015762996 0)
(0.10891719 -0.016856198 0)
(0.14315445 -0.017797394 -4.7480853e-20)
(0.18044558 -0.018563226 -3.3110752e-20)
(0.22058524 -0.019137891 4.126122e-20)
(0.2633047 -0.019506747 3.6983859e-20)
(0.30826353 -0.019658248 1.3388459e-21)
(0.35505037 -0.019586522 -1.6905545e-20)
(0.40319125 -0.019291726 1.6365385e-20)
(0.45215949 -0.018779617 2.3597796e-20)
(0.50138598 -0.018061064 -9.6170881e-21)
(0.55027053 -0.017151517 -8.333474e-21)
(0.59819408 -0.016070607 -2.4366847e-21)
(0.64453302 -0.014842214 -2.1746579e-22)
(0.68867705 -0.013495099 -3.2883825e-22)
(0.73005337 -0.012063827 1.6565937e-22)
(0.76815844 -0.010589354 6.8017469e-22)
(0.80259608 -0.0091183066 -1.7935177e-21)
(0.83311638 -0.0077001462 -1.1899923e-21)
(0.85964547 -0.0063820519 1.5113536e-21)
(0.88229497 -0.0052024862 -2.4906462e-22)
(0.90134298 -0.0041854831 3.0464801e-22)
(0.91718795 -0.0033379153 -6.6923453e-22)
(0.9302872 -0.0026509541 -7.290472e-22)
(0.94109772 -0.0021050383 4.208981e-22)
(0.9500344 -0.0016761069 1.1836263e-22)
(0.95745093 -0.0013406665 -2.6514669e-22)
(0.96363833 -0.0010784668 1.6322463e-22)
(0.96883207 -0.00087308142 9.9082621e-23)
(0.97322068 -0.00071146863 6.3516647e-23)
(0.97695332 -0.00058338366 5.6817574e-23)
(0.98014681 -0.00048092914 1.0272575e-22)
(0.98289233 -0.00039816843 -1.1314155e-22)
(0.9852616 -0.00033071481 -1.3087265e-22)
(0.9873119 -0.00027532635 -3.1164475e-23)
(0.98908968 -0.00022956943 2.5762576e-23)
(0.99063314 -0.00019158058 -2.3931586e-23)
(0.991974 -0.00015990967 2.6091637e-23)
(0.99313872 -0.00013341704 -3.5154738e-23)
(0.9941502 -0.00011119455 -4.3298388e-23)
(0.9950262 -9.2526828e-05 1.2603761e-23)
(0.9957876 -7.6803265e-05 1.617985e-23)
(0.99643504 -6.3628071e-05 3.6174403e-24)
(0.99702283 -5.2353461e-05 1.808182e-24)
(0.99743497 -4.3638623e-05 -2.1646743e-25)
(0.99804067 -3.2065256e-05 5.5895692e-24)
(0.032839517 -0.029691531 -2.5818863e-20)
(0.049413305 -0.034514698 -1.1200886e-19)
(0.070161915 -0.039048511 -6.1438948e-20)
(0.09412303 -0.04291207 7.6685605e-20)
(0.12086609 -0.046407024 3.0144985e-20)
(0.15050938 -0.049569479 -4.1739957e-20)
(0.18307051 -0.052296974 1.5084033e-20)
(0.21842112 -0.054518466 5.1539256e-20)
(0.25637515 -0.056188249 -4.7490191e-21)
(0.29669533 -0.057263059 -1.7471688e-20)
(0.33907702 -0.057708134 -1.7234949e-20)
(0.38314902 -0.057505507 -1.9230496e-20)
(0.42848282 -0.05665498 2.7478346e-20)
(0.47460165 -0.055172661 2.4928999e-20)
(0.52098947 -0.053089446 -1.2912644e-20)
(0.56710059 -0.050449378 -5.5006725e-21)
(0.61237023 -0.047308393 6.6954779e-22)
(0.65622616 -0.043734477 1.403209e-21)
(0.69810382 -0.039809571 2.8242577e-21)
(0.73746722 -0.035632529 -4.0987754e-21)
(0.77383749 -0.031321169 -3.6222762e-21)
(0.80682851 -0.027010643 2.6994677e-21)
(0.83618457 -0.02284553 2.9851785e-21)
(0.86181111 -0.01896502 1.4442057e-22)
(0.88378711 -0.015483911 4.0304763e-22)
(0.90235091 -0.012475379 -2.389158e-22)
(0.91785953 -0.009962329 6.1053672e-23)
(0.93073186 -0.0079211202 2.0973732e-22)
(0.94139262 -0.0062958637 -4.9145933e-23)
(0.9502318 -0.0050167177 -4.0112902e-22)
(0.95758512 -0.0040149524 -2.0084686e-23)
(0.96373138 -0.0032310185 1.0974992e-22)
(0.96889802 -0.002616414 -3.379219e-24)
(0.97326848 -0.0021324914 1.3394141e-22)
(0.97698872 -0.0017487962 -1.8050702e-22)
(0.98017358 -0.001441792 -1.6673254e-22)
(0.98291297 -0.0011937512 5.7334483e-23)
(0.98527783 -0.00099155984 6.8424142e-23)
(0.9873249 -0.00082551778 1.5729651e-23)
(0.98910029 -0.00068833927 -2.3998155e-23)
(0.99064193 -0.00057444345 7.5435146e-23)
(0.9919814 -0.00047948597 2.8437389e-25)
(0.99314503 -0.00040005197 -5.6717092e-25)
(0.99415563 -0.00033341978 4.8799053e-24)
(0.99503093 -0.00027744549 1.4316249e-23)
(0.99579173 -0.0002302977 1.851148e-23)
(0.99643867 -0.00019079355 -6.8324713e-24)
(0.99702601 -0.00015698134 -1.0353005e-23)
(0.99743784 -0.00013086579 9.5341535e-24)
(0.99804307 -9.6145922e-05 2.3113808e-23)
(0.11892464 -0.048374096 1.7809612e-20)
(0.1337182 -0.055931439 9.4596426e-21)
(0.15336568 -0.062982386 -3.2957846e-20)
(0.17591829 -0.068934721 -6.670954e-21)
(0.20050581 -0.07434894 3.4810786e-20)
(0.22742379 -0.079289356 -3.0971499e-20)
(0.25679101 -0.08357125 -6.8026484e-20)
(0.2884892 -0.087073459 3.5910275e-20)
(0.32236334 -0.089722975 4.3357978e-20)
(0.3582329 -0.091448822 -2.690073e-20)
(0.39585756 -0.092191997 2.0118058e-21)
(0.43493673 -0.091920557 7.2155702e-21)
(0.47512135 -0.090631332 -3.1256147e-20)
(0.51602169 -0.08834719 2.1674154e-20)
(0.557214 -0.085114329 1.4578319e-20)
(0.5982478 -0.080999344 -1.1152904e-20)
(0.63865343 -0.076086878 -6.4579768e-21)
(0.67794993 -0.070479593 -9.6037303e-21)
(0.71565517 -0.064301285 1.2233662e-20)
(0.75130105 -0.057702155 6.5078976e-21)
(0.78445612 -0.050863207 -1.8788178e-21)
(0.814756 -0.04399513 2.9016391e-22)
(0.84193821 -0.037327118 -1.4768702e-21)
(0.86587362 -0.03108401 -4.2016406e-22)
(0.88658382 -0.025455605 -6.0447271e-22)
(0.90423548 -0.02056765 -3.4506642e-22)
(0.91910961 -0.0164659 1.3196025e-21)
(0.9315539 -0.013120174 -6.4966975e-22)
(0.94193273 -0.010446188 4.9241336e-22)
(0.95058915 -0.0083348244 2.4757047e-24)
(0.95782487 -0.0066768727 6.1287673e-22)
(0.96389532 -0.0053766884 -1.4514819e-22)
(0.96901267 -0.0043557308 1.5322396e-22)
(0.97335057 -0.0035509741 -9.426456e-23)
(0.97704891 -0.002912446 4.1026333e-23)
(0.98021876 -0.0024013301 1.8274172e-22)
(0.98294769 -0.0019882802 -4.7627572e-23)
(0.98530513 -0.0016515347 -1.3035328e-22)
(0.98734687 -0.0013749727 4.2692917e-23)
(0.98911836 -0.0011464764 1.1804529e-23)
(0.99065709 -0.00095675847 1.4164969e-23)
(0.99199435 -0.00079858639 8.3318006e-23)
(0.99315626 -0.00066627352 -2.6618363e-23)
(0.99416548 -0.00055528619 -2.1792528e-23)
(0.99503964 -0.00046205413 1.7810527e-23)
(0.99579948 -0.00038352297 3.8897034e-24)
(0.99644558 -0.0003177332 1.6367182e-23)
(0.99703216 -0.00026140416 3.7450472e-24)
(0.99744346 -0.00021796138 -8.595275e-24)
(0.99804787 -0.00016008997 -9.1268892e-24)
(0.23536362 -0.065222643 4.6289816e-21)
(0.24753964 -0.074877548 -1.5519634e-20)
(0.26522725 -0.083780181 7.4154702e-21)
(0.28557823 -0.091233218 -2.5564573e-20)
(0.30705122 -0.098084361 -3.9374857e-21)
(0.33013147 -0.10441076 2.3885003e-20)
(0.35509758 -0.10993871 -3.1098367e-20)
(0.38184517 -0.1144969 -4.7974493e-21)
(0.41024903 -0.11798576 2.7290152e-20)
(0.44019801 -0.1203068 1.2742154e-20)
(0.47153223 -0.12137532 -1.2401685e-20)
(0.50403754 -0.12114208 -1.1158559e-20)
(0.53746111 -0.11959644 -2.0087013e-21)
(0.57151867 -0.11676263 -1.5205148e-20)
(0.60589829 -0.1126957 -5.5250479e-21)
(0.64026519 -0.10747703 -1.0600547e-20)
(0.67426645 -0.10121038 5.3492477e-21)
(0.70753492 -0.094021184 -2.5790647e-21)
(0.73969397 -0.086060372 -8.8049702e-21)
(0.77036577 -0.077512043 3.7843984e-21)
(0.79918618 -0.068601108 5.4635709e-21)
(0.82582755 -0.059594626 -4.0584344e-21)
(0.85002818 -0.050790062 1.2733934e-21)
(0.87162289 -0.042487124 -1.2531976e-21)
(0.89056514 -0.034947179 -3.0084734e-21)
(0.90693156 -0.028352475 3.3775031e-22)
(0.92090438 -0.022781084 -6.5402741e-22)
(0.93273625 -0.018208373 -7.739561e-22)
(0.94270941 -0.014533578 5.7633771e-22)
(0.9511019 -0.01161823 -6.9375403e-22)
(0.95816753 -0.0093199721 -1.0396147e-22)
(0.96412849 -0.0075120642 -1.6098215e-22)
(0.96917486 -0.0060891383 -1.9962061e-22)
(0.97346612 -0.0049657446 -1.163933e-22)
(0.97713329 -0.0040735008 1.8352662e-22)
(0.98028191 -0.0033588829 -2.2735299e-22)
(0.98299615 -0.0027811956 -2.0676941e-22)
(0.98534326 -0.0023101485 8.2368398e-23)
(0.98737762 -0.001923255 1.488423e-24)
(0.98914376 -0.0016035915 -2.3413188e-23)
(0.99067853 -0.0013381786 1.1623273e-22)
(0.99201279 -0.001116903 -3.60162e-23)
(0.99317236 -0.00093181015 -1.0879796e-22)
(0.99417971 -0.00077655578 3.3729274e-23)
(0.99505232 -0.0006461457 -4.9310123e-24)
(0.99581084 -0.00053629892 9.727792e-24)
(0.99645578 -0.00044429485 1.0943142e-23)
(0.99704129 -0.00036548588 -3.4864234e-24)
(0.99745183 -0.00030483341 -6.5216987e-24)
(0.99805505 -0.00022380756 1.4326718e-23)
(0.37154961 -0.079204222 -3.6947596e-20)
(0.38016631 -0.090324873 7.4701176e-20)
(0.39481861 -0.10035244 1.6011984e-20)
(0.41205736 -0.10869743 -2.9624302e-20)
(0.42955644 -0.11650686 -8.1619306e-21)
(0.447919 -0.12382717 3.6319971e-22)
(0.46761601 -0.13029702 -8.4820055e-21)
(0.48856693 -0.13570176 -9.6697266e-21)
(0.51066371 -0.13991325 -8.4441716e-21)
(0.53385926 -0.14280377 -2.5536154e-20)
(0.5580755 -0.14426158 4.5344978e-20)
(0.58318544 -0.14421628 1.899599e-20)
(0.60903209 -0.14264379 -3.0706128e-20)
(0.63543636 -0.13956301 6.2150296e-21)
(0.66219826 -0.13503078 1.229743e-21)
(0.68909934 -0.12913542 9.5942427e-21)
(0.71590521 -0.12199086 3.5927316e-21)
(0.74236652 -0.11373427 -1.2357482e-20)
(0.76821911 -0.10452976 -4.9536112e-21)
(0.79318605 -0.09457786 -3.9167134e-21)
(0.81698417 -0.084126799 -6.8237861e-21)
(0.83933787 -0.073478084 0)
(0.86000062 -0.062977249 -2.1413552e-21)
(0.87878161 -0.052984014 7.1707652e-22)
(0.89557043 -0.043824649 2.5153904e-21)
(0.9103509 -0.035740244 4.075107e-22)
(0.92319756 -0.028850884 -2.2221682e-21)
(0.93425546 -0.023151195 2.193416e-21)
(0.94371087 -0.018538105 -1.2244327e-21)
(0.95176387 -0.014855955 8.5672127e-22)
(0.95860959 -0.011938445 2.3358253e-22)
(0.96442867 -0.0096341338 -8.5100467e-23)
(0.96938306 -0.0078150195 -1.6286881e-22)
(0.97361402 -0.0063758306 2.7877598e-22)
(0.97724102 -0.0052312717 -1.677596e-22)
(0.98036242 -0.0043138909 -6.9740155e-23)
(0.98305789 -0.0035720078 6.629266e-23)
(0.98539188 -0.0029669591 4.7360705e-23)
(0.98741691 -0.0024699623 -6.0661616e-23)
(0.98917631 -0.0020593191 3.3373155e-23)
(0.99070611 -0.0017183738 6.1791307e-24)
(0.99203661 -0.0014341402 -1.1118402e-22)
(0.99319326 -0.0011963991 1.0553601e-22)
(0.99419826 -0.00099699675 2.2231991e-23)
(0.99506892 -0.00082951763 -4.7373966e-24)
(0.99582576 -0.0006884485 3.3304109e-24)
(0.99646923 -0.00057032838 -1.0850786e-23)
(0.99705335 -0.00046909129 -1.6238541e-23)
(0.99746293 -0.00039139079 -2.3930397e-24)
(0.9980646 -0.00028720854 -4.462367e-24)
(0.51764781 -0.088894653 -3.0454741e-20)
(0.52164221 -0.10106667 1.7996174e-20)
(0.5320349 -0.11165086 1.0547704e-20)
(0.54514254 -0.12043512 -1.4161629e-20)
(0.55790807 -0.12885772 2.2792844e-20)
(0.57091288 -0.13688194 1.5379187e-20)
(0.58479813 -0.14407418 -2.1044592e-20)
(0.59952409 -0.15019324 -1.2546617e-20)
(0.61498397 -0.15507998 2.6444457e-20)
(0.63117044 -0.15857396 -4.2693947e-20)
(0.64807233 -0.16053544 -2.8351088e-20)
(0.6656381 -0.16086964 4.1489507e-20)
(0.68379314 -0.15953298 1.3278365e-20)
(0.70244925 -0.156532 -2.530393e-20)
(0.72150437 -0.15191821 7.9764765e-21)
(0.74084265 -0.14578008 4.7315307e-21)
(0.76033538 -0.13823463 -4.3975182e-21)
(0.77984011 -0.12942279 3.6042668e-21)
(0.79919816 -0.11951153 -2.4350637e-22)
(0.8182318 -0.10870396 1.605108e-21)
(0.83674382 -0.097253814 4.4243187e-21)
(0.8545222 -0.085476128 -3.5366958e-21)
(0.87135208 -0.073743236 2.2626439e-23)
(0.88703528 -0.06245719 5.6353608e-22)
(0.90141364 -0.051998908 9.438874e-21)
(0.91438926 -0.042667481 3.3121997e-21)
(0.9259337 -0.034632751 1.727746e-21)
(0.9360832 -0.027921761 -1.9752483e-22)
(0.94492288 -0.022443769 2.6389738e-21)
(0.95256775 -0.018039046 3.0100029e-21)
(0.95914701 -0.014527582 -4.6815115e-23)
(0.96479331 -0.01174053 8.2373898e-22)
(0.96963554 -0.0095321671 8.648583e-23)
(0.97379301 -0.0077805278 1.7163475e-22)
(0.97737118 -0.006385242 9.8623837e-23)
(0.98045958 -0.0052658998 3.3558515e-22)
(0.9831324 -0.0043602875 4.0332453e-23)
(0.98545059 -0.0036215596 -1.0355868e-23)
(0.98746444 -0.0030147097 -9.4044909e-24)
(0.98921579 -0.0025133015 1.6201655e-22)
(0.99073967 -0.0020970168 -1.583893e-23)
(0.9920657 -0.0017500021 9.3122138e-23)
(0.99321888 -0.0014597766 2.5200522e-23)
(0.99422109 -0.0012163762 -8.4331974e-23)
(0.9950894 -0.0010119664 -1.7017453e-23)
(0.99584422 -0.00083979397 -2.8004489e-23)
(0.99648591 -0.0006956833 8.5669098e-24)
(0.99706833 -0.00057208398 -7.9943595e-24)
(0.99747674 -0.00047754306 -1.8153059e-25)
(0.99807646 -0.00035020158 2.7378851e-23)
(0.66485848 -0.092861685 1.9099889e-21)
(0.66332986 -0.10589552 -2.4800824e-20)
(0.66831133 -0.11673874 -4.7015084e-21)
(0.6763134 -0.12581056 8.9648725e-21)
(0.68378108 -0.13474438 8.5020599e-21)
(0.69109005 -0.14336883 6.0486551e-21)
(0.69895981 -0.15121096 1.966322e-20)
(0.70741329 -0.15802805 1.7630897e-20)
(0.71634021 -0.16363323 1.7937347e-20)
(0.72573767 -0.16783219 -2.5852164e-20)
(0.7356319 -0.17045718 -5.3961822e-20)
(0.74602601 -0.17138782 -1.5886807e-20)
(0.75690737 -0.17055737 3.8618884e-20)
(0.76825732 -0.16795461 2.8760546e-20)
(0.78005068 -0.16362013 -4.1103191e-21)
(0.79225377 -0.15763739 -8.2635905e-21)
(0.80482354 -0.15012209 -1.4735251e-20)
(0.81770577 -0.14121436 1.9293308e-20)
(0.83083127 -0.13107836 -2.7379684e-22)
(0.84411055 -0.11991128 -3.1479363e-21)
(0.85742855 -0.10795972 1.5712868e-20)
(0.87064185 -0.095535344 -3.2353043e-21)
(0.88358096 -0.083017698 2.7195566e-21)
(0.89606056 -0.070832455 2.3616209e-21)
(0.90789751 -0.059401674 -2.5537688e-21)
(0.91893286 -0.049077377 1.8013534e-21)
(0.92905063 -0.040083046 -6.313691e-22)
(0.93818708 -0.032488642 -5.9927227e-22)
(0.94632903 -0.026229089 7.7070116e-22)