/*--------------------------------*- C++ -*----------------------------------*\
  =========                 |
  \\      /  F ield         | OpenFOAM: The Open Source CFD Toolbox
   \\    /   O peration     | Website:  https://openfoam.org
    \\  /    A nd           | Version:  6
     \\/     M anipulation  |
\*---------------------------------------------------------------------------*/
FoamFile
{
    version     2.0;
    format      ascii;
    class       volVectorField;
    location    "257";
    object      UMean;
}
// * * * * * * * * * * * * * * * * * * * * * * * * * * * * * * * * * * * * * //

dimensions      [0 1 -1 0 0 0 0];

internalField   nonuniform List<vector> 
9200
(
(0.001575956 0.0010094652 -6.0617882e-20)
(0.015460044 -0.0033519364 4.7910542e-20)
(0.041457686 -0.0079164562 -3.9622107e-20)
(0.076860171 -0.012467621 -6.2626764e-20)
(0.1197988 -0.016778842 1.9467316e-20)
(0.16902589 -0.020414948 3.4039024e-20)
(0.22345163 -0.023088146 -1.2734796e-20)
(0.28206942 -0.024654953 9.6316692e-21)
(0.34393818 -0.025058593 1.7685839e-20)
(0.40815087 -0.024305774 1.5631142e-21)
(0.47381117 -0.022455395 -2.2633721e-20)
(0.54002487 -0.019607551 2.1760324e-20)
(0.6059031 -0.015892589 -4.2482666e-20)
(0.67057535 -0.011459991 -2.2306493e-20)
(0.73321063 -0.0064665776 6.2331341e-21)
(0.79304397 -0.0010668217 -2.6583455e-20)
(0.84942164 0.0046102158 2.6706231e-20)
(0.90192345 0.010607524 2.3671243e-20)
(0.95018053 0.017054504 -2.6759755e-22)
(0.99153525 0.020618433 -1.6073049e-21)
(0.005945874 -0.0018082905 -1.7464163e-20)
(0.029165405 -0.010386935 4.1203137e-20)
(0.065445958 -0.016975974 2.4082347e-20)
(0.11167081 -0.021980295 -1.1968725e-19)
(0.16566599 -0.025578493 -1.3112703e-20)
(0.22592519 -0.027568052 7.6178074e-20)
(0.29109155 -0.027862556 -3.6866726e-20)
(0.35987948 -0.026505722 -8.7726944e-21)
(0.43106338 -0.023611741 3.5887788e-20)
(0.50345462 -0.019346249 -4.5360283e-20)
(0.57589093 -0.013918488 -3.1958954e-20)
(0.64724378 -0.0075708895 7.5855642e-20)
(0.71643897 -0.0005672634 4.0314526e-20)
(0.78248573 0.0068188679 -7.1663821e-20)
(0.84451008 0.014314229 1.5416829e-20)
(0.90178695 0.021650454 -3.872997e-20)
(0.95377982 0.028577975 -1.4647411e-20)
(1.0002385 0.034938709 7.4772834e-20)
(1.041068 0.040325054 3.1857922e-20)
(1.0745241 0.041634375 -8.4898663e-20)
(0.011721437 -0.00453589 3.7367488e-20)
(0.046594556 -0.016876179 2.3585957e-21)
(0.094933079 -0.024748113 2.2636887e-20)
(0.1532659 -0.029299821 1.0115357e-21)
(0.21912391 -0.031200345 -4.170249e-20)
(0.29071736 -0.030544078 1.9394624e-20)
(0.36638828 -0.027506366 1.3736113e-20)
(0.44454049 -0.022375844 -5.2343111e-20)
(0.52364507 -0.015490553 5.9775976e-20)
(0.60223671 -0.0072205932 1.5135577e-20)
(0.67892469 0.002039525 -5.7095476e-20)
(0.75242162 0.011884498 -1.9273156e-20)
(0.82158162 0.0219147 9.2806371e-21)
(0.88543989 0.031752368 2.4635669e-20)
(0.94324696 0.041055424 -1.1915699e-20)
(0.99449092 0.0495263 2.923341e-20)
(1.0389091 0.056925847 -2.1240691e-20)
(1.0765172 0.063120295 -7.3198439e-20)
(1.1074849 0.067844813 -2.4260289e-20)
(1.1309961 0.069233459 5.0312939e-20)
(0.01899733 -0.0069243119 2.4797836e-20)
(0.067861754 -0.022124523 5.2129278e-20)
(0.12989986 -0.030194557 2.0396284e-20)
(0.20136161 -0.033149301 1.3590095e-20)
(0.27950143 -0.03223506 1.7993378e-20)
(0.36223009 -0.027912356 -4.9435655e-20)
(0.44757295 -0.020682143 -2.6668399e-20)
(0.53362458 -0.011134757 0)
(0.61858291 0.00012244862 1.5180248e-20)
(0.70077459 0.012484929 -6.5250167e-21)
(0.77869225 0.025362253 -1.0238683e-19)
(0.85104254 0.038197648 -1.6356953e-20)
(0.91679303 0.050489871 6.822927e-20)
(0.97520803 0.061812372 4.7838243e-22)
(1.0258666 0.071827222 -1.6419625e-21)
(1.0686581 0.080291742 2.2883206e-20)
(1.1037583 0.087064966 -5.3713047e-21)
(1.1316028 0.092135932 -6.3542304e-20)
(1.1527696 0.095482799 -4.7721659e-20)
(1.1672552 0.096158398 7.1130449e-20)
(0.027798542 -0.0086915646 -3.8546889e-21)
(0.092860896 -0.025382183 -4.8700798e-21)
(0.16994732 -0.032243715 5.7780992e-20)
(0.25513693 -0.032269296 1.9239196e-20)
(0.34544814 -0.027364592 -3.3236166e-20)
(0.43850251 -0.018425523 1.2365959e-20)
(0.53203339 -0.0063379814 2.7427264e-21)
(0.62388315 0.007961907 3.5191121e-20)
(0.71207532 0.023574185 5.9076461e-21)
(0.79487226 0.039661471 -1.3989485e-20)
(0.87083344 0.055465878 6.3166703e-20)
(0.93886947 0.070333298 -6.0372928e-20)
(0.99827825 0.083736042 -1.3776503e-19)
(1.0487548 0.09528739 -5.805784e-21)
(1.0903719 0.10474587 8.6341217e-20)
(1.1235334 0.11200864 0)
(1.1489074 0.11710041 1.0597063e-20)
(1.1673556 0.12017617 -1.5925332e-20)
(1.1798188 0.1214198 -9.0107225e-21)
(1.1868704 0.12044373 2.1476691e-20)
(0.038060187 -0.0095331309 -5.1897751e-21)
(0.12123476 -0.025887578 4.4310323e-21)
(0.21428727 -0.029875263 -8.9417178e-21)
(0.31327302 -0.025549229 2.8928472e-20)
(0.41505041 -0.015539647 -3.0413902e-20)
(0.51700706 -0.0012353111 -1.750471e-20)
(0.61666805 0.016053117 3.8025021e-20)
(0.71175032 0.03502982 4.7664275e-21)
(0.80027414 0.054518867 -2.5825318e-20)
(0.88064519 0.073498239 7.2654035e-20)
(0.951717 0.091119197 3.2815984e-22)
(1.0128272 0.10672776 -8.3716556e-20)
(1.0637978 0.11987723 0)
(1.1048965 0.1303257 4.0910389e-20)
(1.1367661 0.1380188 5.6719552e-21)
(1.1603293 0.14305998 -7.9973505e-20)
(1.1766853 0.14567651 -2.021197e-20)
(1.1870126 0.14619705 -1.2788866e-20)
(1.1924637 0.14496429 -1.5140408e-20)
(1.1938951 0.14192357 4.1507429e-20)
(0.049614413 -0.009142857 -1.7301555e-20)
(0.15235889 -0.022926325 -2.9477657e-21)
(0.26175172 -0.022210091 3.0622023e-20)
(0.37401253 -0.012138654 3.7625541e-20)
(0.48596185 0.0039023534 -2.0389693e-20)
(0.59486678 0.024003019 -7.1453517e-20)
(0.69819536 0.046426415 -2.9204784e-20)
(0.79373369 0.069551182 8.1711464e-20)
(0.87972606 0.091995331 9.1383695e-21)
(0.95496146 0.11265259 -2.5659243e-20)
(1.0188136 0.13070386 1.3983638e-20)
(1.071232 0.14562187 -4.4988086e-21)
(1.1126845 0.15715845 0)
(1.1440576 0.1653118 2.8083463e-20)
(1.1665336 0.17027861 -8.1728226e-20)
(1.1814587 0.1723975 -3.241499e-20)
(1.1902207 0.17209414 8.3259859e-20)
(1.1941513 0.16984158 -4.6136429e-21)
(1.1944459 0.16608304 3.5923692e-21)
(1.1920144 0.1609492 2.7932839e-20)
(0.062184352 -0.0072407526 -3.2532767e-20)
(0.18534755 -0.015903066 -8.3037828e-20)
(0.31083773 -0.0086079123 1.8998783e-21)
(0.43526282 0.0084492099 7.1994492e-20)
(0.55557681 0.031149794 6.4057068e-20)
(0.66910112 0.057082435 -7.3087375e-20)
(0.77345979 0.084137424 1.0264508e-22)
(0.86675151 0.11046111 8.8644639e-20)
(0.94769505 0.13459086 5.042033e-20)
(1.0156913 0.15548053 -5.6098467e-20)
(1.0708123 0.1724871 -9.5342072e-20)
(1.1137254 0.18534079 -3.257803e-21)
(1.1455671 0.19409254 4.3391528e-20)
(1.1677878 0.19904242 -6.7456019e-21)
(1.1819903 0.20065918 -1.3106401e-20)
(1.1897857 0.19950167 2.0014671e-20)
(1.192679 0.19615259 4.4959032e-20)
(1.1919941 0.19117422 -4.4785288e-20)
(1.1888336 0.18504787 -1.0470493e-19)
(1.1840177 0.17799435 2.5301034e-20)
(0.075354623 -0.003603651 -3.5568065e-20)
(0.21901524 -0.004417274 -1.7513287e-19)
(0.35968329 0.01125027 8.4505787e-20)
(0.49460057 0.03627664 9.5083097e-20)
(0.62107274 0.065898771 5.9267619e-20)
(0.73670531 0.097284399 8.8722249e-21)
(0.83953298 0.12806829 -1.0913147e-19)
(0.92822448 0.15631711 0)
(1.0022022 0.18065852 -7.1083905e-20)
(1.0616506 0.20027559 -1.5715621e-20)
(1.1074322 0.21484849 5.6292766e-20)
(1.1409378 0.22447399 1.1251998e-20)
(1.1638987 0.22956453 -4.6785181e-20)
(1.1781941 0.23073754 -5.0227626e-20)
(1.1856799 0.22871012 2.4967547e-20)
(1.1880587 0.2242106 4.5998894e-20)
(1.1867974 0.21791487 -5.6938173e-20)
(1.1830923 0.21041066 -1.0985451e-19)
(1.1778733 0.20216273 -3.0947364e-21)
(1.1718035 0.19342544 2.7570712e-20)
(0.088554757 0.0019196755 -3.854959e-21)
(0.25188129 0.011722728 8.9289108e-20)
(0.40610508 0.037366565 -1.5101307e-20)
(0.54935878 0.071006484 -8.6915176e-20)
(0.67954845 0.10740006 4.6344756e-20)
(0.79482143 0.14344892 4.9950253e-20)
(0.89388083 0.17671887 5.6968547e-21)
(0.97619223 0.20540288 -1.0218164e-19)
(1.0420466 0.22841842 -2.5752912e-21)
(1.0924932 0.24534737 5.1905512e-20)
(1.1291772 0.25631528 6.1384773e-21)
(1.154124 0.26185171 -2.0276964e-20)
(1.169513 0.2627426 -7.7528802e-20)
(1.1774774 0.2598912 -6.3394167e-21)
(1.1799526 0.2542032 4.4460426e-20)
(1.1785835 0.246505 3.7769853e-20)
(1.1746892 0.23749656 2.0096502e-20)
(1.1692725 0.22773391 -5.4301804e-20)
(1.1630634 0.21762661 1.2911208e-20)
(1.1565545 0.20743351 8.4070292e-20)
(-0.0013197511 0.0014502672 -9.0966711e-22)
(-0.0047592818 0.0031910879 1.9198488e-21)
(-0.01079123 0.0041068439 1.6066066e-21)
(-0.017686419 0.0044676359 -1.4104796e-21)
(-0.024512315 0.0044444844 -2.1314586e-21)
(-0.030840248 0.004153114 2.2637124e-21)
(-0.036397549 0.0036778776 -8.0214437e-21)
(-0.041008613 0.003079824 -6.9274715e-21)
(-0.044577574 0.0024024133 1.2561131e-20)
(-0.047062659 0.0016763131 -1.0824867e-20)
(-0.048456041 0.00092291541 -2.0222432e-22)
(-0.048771012 0.00015689306 4.0435482e-21)
(-0.048033517 -0.00061186657 -6.6766194e-22)
(-0.046276374 -0.0013767276 2.469696e-20)
(-0.043535652 -0.0021329222 2.7998932e-22)
(-0.03985016 -0.0028760811 -4.3940678e-20)
(-0.035263833 -0.0036016164 8.1565373e-21)
(-0.029817475 -0.0043074671 2.5422648e-20)
(-0.023521224 -0.0049921545 -4.6609013e-20)
(-0.016437224 -0.0056067583 -2.9398986e-20)
(-0.001678543 0.0042225537 -5.6222151e-21)
(-0.0053946754 0.009268744 9.9818175e-21)
(-0.011189748 0.011908163 -1.0438442e-20)
(-0.017501086 0.012926125 5.2918718e-21)
(-0.023494658 0.012821947 6.3064516e-21)
(-0.028792796 0.011935267 8.7239603e-22)
(-0.033158418 0.010513774 -2.642198e-20)
(-0.036441733 0.0087366503 -2.2571111e-21)
(-0.038564332 0.0067314362 2.2518227e-20)
(-0.039495764 0.0045881052 -5.5851684e-21)
(-0.039235233 0.0023693762 -2.3917086e-20)
(-0.037800021 0.00011821617 5.3399306e-21)
(-0.035217873 -0.0021365025 2.4376881e-20)
(-0.031521684 -0.0043755018 1.1127444e-20)
(-0.02674572 -0.0065850267 2.3628793e-20)
(-0.020926082 -0.0087527108 -2.1177362e-20)
(-0.014110535 -0.010865704 -2.3072748e-20)
(-0.0063501189 -0.012917438 2.2720683e-20)
(0.002417854 -0.014893271 2.8342345e-20)
(0.012384037 -0.016625195 1.6539821e-20)
(-0.0023269111 0.0066135423 -4.5653792e-21)
(-0.0064999372 0.014449123 -5.0065282e-21)
(-0.011763731 0.018508394 1.0689562e-22)
(-0.016877499 0.02001335 1.29969e-22)
(-0.02119632 0.019747094 7.3755567e-21)
(-0.024440797 0.018248526 1.1633241e-20)
(-0.026442915 0.015911496 -4.2661731e-21)
(-0.027103089 0.013021058 -2.0873725e-20)
(-0.026377036 0.0097803873 7.2363909e-21)
(-0.024256804 0.0063330107 1.4136946e-20)
(-0.020756069 0.0027790569 6.502941e-21)
(-0.015901031 -0.00081290516 1.9549041e-20)
(-0.0097244497 -0.0043970054 1.8672751e-21)
(-0.002261315 -0.0079430779 -3.6209326e-20)
(0.0064549294 -0.011430006 1.4810964e-21)
(0.016390862 -0.014839193 -2.3235239e-20)
(0.027490105 -0.018153224 -2.6311713e-20)
(0.039678302 -0.021363392 4.8907701e-20)
(0.053139891 -0.024416438 2.7080224e-20)
(0.068560039 -0.026947702 4.1147406e-22)
(-0.0031428147 0.0084131473 -5.6503576e-21)
(-0.0077933869 0.018232945 -1.0681502e-20)
(-0.012155765 0.023236475 4.4583955e-21)
(-0.015430088 0.024963572 4.5757439e-21)
(-0.017232661 0.024412488 2.0953692e-21)
(-0.017421816 0.022282858 8.4073451e-21)
(-0.015927721 0.019087622 1.0464399e-20)
(-0.012723139 0.015198258 -1.5585163e-21)
(-0.0078140999 0.010880125 -1.2612797e-20)
(-0.0012271494 0.0063211162 -3.1717918e-20)
(0.0070003311 0.0016525017 1.4311277e-22)
(0.016825241 -0.0030357784 4.3874838e-20)
(0.028203149 -0.0076840416 -1.9519661e-20)
(0.041089852 -0.012253475 -1.3154179e-20)
(0.055445493 -0.016718083 3.4917787e-22)
(0.071232845 -0.021057047 3.4466616e-20)
(0.088381136 -0.02525579 -1.6146228e-20)
(0.10677469 -0.029313154 -5.6319421e-20)
(0.12672608 -0.033112396 4.7980662e-20)
(0.14962679 -0.03597157 3.4767174e-20)
(-0.003962856 0.0094777531 -5.0482066e-22)
(-0.0088896863 0.020266699 -1.3138786e-20)
(-0.011866452 0.025607851 -3.7557629e-20)
(-0.012608971 0.027218576 -6.760966e-21)
(-0.011043743 0.026229103 -3.4156655e-21)
(-0.0071962157 0.023451967 7.0404653e-21)
(-0.0011181071 0.019485091 -5.2972816e-21)
(0.0071262037 0.014761495 -9.7480308e-21)
(0.017464732 0.0095911378 2.3774386e-20)
(0.029822919 0.004193887 5.3699565e-21)
(0.044127849 -0.0012761981 -2.7535902e-20)
(0.060308213 -0.0067134388 1.1761751e-20)
(0.078294748 -0.012047765 0)
(0.098020789 -0.017234893 1.2881335e-20)
(0.11942534 -0.022247515 -1.0308904e-20)
(0.14245225 -0.02706777 -1.5319973e-20)
(0.16700319 -0.031694204 -1.1293008e-21)
(0.19289899 -0.036153949 -2.537332e-21)
(0.22054034 -0.040264359 4.7821556e-20)
(0.25217467 -0.042884643 -1.1639452e-20)
(-0.0046001268 0.0097395388 -7.7531886e-21)
(-0.0093336178 0.020368392 2.6184558e-20)
(-0.010287149 0.025364712 -1.1596502e-20)
(-0.0077240325 0.026480528 -2.9522936e-20)
(-0.0019066933 0.024890097 -2.9076056e-20)
(0.0069532329 0.021466855 -1.6129779e-20)
(0.018665123 0.016855256 -8.6210149e-22)
(0.033056582 0.011520805 6.0243055e-21)
(0.049974789 0.0057974057 2.1041432e-20)
(0.069282759 -7.7200812e-05 7.8830746e-21)
(0.090854372 -0.0059363299 -7.6322996e-21)
(0.11457183 -0.011665646 -1.9672438e-21)
(0.14032191 -0.017189924 -4.0705852e-20)
(0.16799328 -0.022463328 -1.3482535e-20)
(0.19747831 -0.027461126 2.0199388e-20)
(0.22867417 -0.032173767 -2.2458958e-20)
(0.26143173 -0.036623547 -9.4832294e-21)
(0.29548321 -0.040894638 3.1633409e-20)
(0.33124337 -0.044773685 5.2484572e-20)
(0.37186768 -0.046548755 3.5783002e-21)
(-0.0048600363 0.0092031861 1.7220277e-20)
(-0.008632741 0.018530084 1.488242e-20)
(-0.0067355162 0.022491293 5.3889155e-20)
(2.2943552e-05 0.022741733 2.5048289e-20)
(0.011038097 0.020414328 1.9734536e-22)
(0.025902025 0.016390768 -4.2346447e-20)
(0.044273026 0.011322114 -2.5930084e-20)
(0.06585789 0.0056765957 1.1184757e-20)
(0.090404817 -0.00021058172 1.5366014e-20)
(0.11769307 -0.0061009253 -1.3850198e-20)
(0.14752177 -0.011827711 -4.6994682e-20)
(0.17970093 -0.017277822 3.1576501e-20)
(0.21404389 -0.022378702 2.1098749e-20)
(0.25036159 -0.027089463 -2.9204356e-20)
(0.2884625 -0.031394116 1.242544e-20)
(0.32815634 -0.035298274 2.5500558e-20)
(0.36920752 -0.038858036 8.5981056e-21)
(0.41123283 -0.042245835 -1.2693122e-20)
(0.4545716 -0.045295884 -1.4469266e-20)
(0.50321615 -0.045705475 7.153504e-21)
(-0.0045511855 0.0079340791 1.1548311e-20)
(-0.0062842327 0.01490115 -2.4937633e-20)
(-0.00049094161 0.017203655 8.5125287e-21)
(0.011498189 0.016284647 3.5603265e-20)
(0.02874351 0.013156421 5.4803354e-20)
(0.050637548 0.0086590959 2.1477176e-20)
(0.076678005 0.0034120371 -6.1950399e-21)
(0.10643231 -0.0021458685 -1.3020946e-20)
(0.13952887 -0.0077023767 -6.6305761e-21)
(0.17563732 -0.013037558 3.636753e-20)
(0.21444997 -0.018000831 -4.9346291e-21)
(0.25566765 -0.022494061 -1.7760628e-20)
(0.29898874 -0.026459635 -2.0754941e-20)
(0.34410129 -0.02987302 -5.0244389e-20)
(0.39068196 -0.03273806 2.4463075e-20)
(0.43840397 -0.035086876 -1.4840831e-20)
(0.48690469 -0.037022729 2.7482856e-20)
(0.53567056 -0.0388417 2.2217174e-20)
(0.58489721 -0.040548984 -8.8541999e-20)
(0.63922103 -0.039413011 2.1950422e-22)
(-0.0034924227 0.0060444405 2.2608571e-20)
(-0.0018005312 0.0097658684 -2.7542025e-20)
(0.0091596289 0.0099324778 -4.6876089e-20)
(0.027568081 0.0076751691 -2.858188e-20)
(0.052165064 0.0038142532 -2.1535846e-21)
(0.082138796 -0.00089935572 1.3829273e-20)
(0.11681275 -0.0059167057 -3.0010762e-21)
(0.15559574 -0.010859774 1.9105074e-20)
(0.19796771 -0.015466382 9.3408439e-21)
(0.24345264 -0.019558517 -1.2022468e-20)
(0.29159372 -0.023022609 9.5096754e-21)
(0.34193543 -0.025794713 -2.5292359e-20)
(0.39401072 -0.027849878 8.7449634e-21)
(0.4473326 -0.029195543 1.7736312e-20)
(0.50139303 -0.02986757 -2.9342107e-21)
(0.55567303 -0.029932181 1.8545804e-21)
(0.60962682 -0.02954048 -5.2449565e-22)
(0.66258759 -0.029096137 2.0768172e-20)
(0.71457252 -0.028799631 4.0000261e-21)
(0.77062564 -0.025999784 -1.8232899e-21)
(-0.001513615 0.003682084 2.4614065e-20)
(0.0052709343 0.0035291387 5.983607e-20)
(0.022868082 0.0013209499 -5.1057595e-20)
(0.049003136 -0.0022181376 -1.0400264e-20)
(0.082109526 -0.0065318494 2.1248082e-20)
(0.12116683 -0.011005264 2.2439779e-21)
(0.16530816 -0.015199717 -3.1251637e-20)
(0.21375623 -0.018834505 7.3436394e-21)
(0.26580571 -0.021730552 7.4631986e-21)
(0.32079127 -0.023782683 -2.7650349e-20)
(0.3780602 -0.024944011 1.3590523e-21)
(0.43695504 -0.025213234 -3.9277562e-20)
(0.49680415 -0.024624265 -3.8416585e-20)
(0.55691842 -0.023237927 6.9454162e-20)
(0.61659398 -0.021134655 5.8779414e-21)
(0.67511905 -0.018413602 -1.6018165e-20)
(0.73175894 -0.015233482 2.0374714e-20)
(0.78568231 -0.011898855 -9.5764149e-22)
(0.83642871 -0.0084331219 2.0850352e-20)
(0.88769725 -0.0033097373 -2.1013188e-20)
(-0.0080104716 -0.0058901764 6.1789943e-20)
(0.0018801112 -0.0064128988 1.6431851e-20)
(0.013189126 -0.0068319782 -3.6612996e-20)
(0.025561202 -0.0070773005 1.763779e-20)
(0.038720163 -0.0072322614 0)
(0.052600898 -0.0073257238 0)
(0.067139993 -0.007360622 -2.3683154e-20)
(0.082253503 -0.0073449556 -1.6904342e-20)
(0.097866387 -0.0072884859 1.9683625e-20)
(0.11391499 -0.0071983455 1.8587472e-20)
(0.13034065 -0.0070799825 1.0422742e-21)
(0.14708812 -0.0069381894 -1.0400977e-20)
(0.16410593 -0.0067771429 8.5308854e-21)
(0.18134597 -0.0066003846 1.8253495e-20)
(0.19876297 -0.0064109459 -5.376292e-21)
(0.21631405 -0.0062114578 -1.0095965e-20)
(0.23395856 -0.0060042164 -4.2661797e-21)
(0.25165789 -0.005791235 -4.2973243e-21)
(0.26937536 -0.0055742906 7.0195227e-22)
(0.28707613 -0.0053549605 1.2143755e-21)
(0.30472721 -0.0051346496 2.5770934e-21)
(0.32229746 -0.0049146115 6.5074996e-21)
(0.33975756 -0.0046959652 1.5834253e-22)
(0.35708014 -0.0044797065 -3.3623981e-21)
(0.37423973 -0.0042667175 1.3303322e-22)
(0.39121287 -0.0040577735 -5.5802344e-22)
(0.40797807 -0.0038535492 1.1978028e-21)
(0.4245159 -0.0036546239 9.8144711e-22)
(0.44080894 -0.0034614862 -1.2922374e-21)
(0.45684178 -0.0032745393 -1.0328764e-22)
(0.47260101 -0.0030941061 -3.1691668e-23)
(0.48807519 -0.0029204346 -3.3238502e-22)
(0.50325476 -0.0027537039 -4.0954933e-22)
(0.51813204 -0.0025940306 8.5637693e-23)
(0.53270112 -0.002441475 -1.2879294e-22)
(0.54695781 -0.0022960483 -2.0077665e-22)
(0.5608996 -0.0021577197 2.2863821e-22)
(0.57452562 -0.0020264236 2.5972556e-22)
(0.58783649 -0.0019020695 -2.9283453e-23)
(0.60083476 -0.0017845459 -1.623058e-22)
(0.61352368 -0.0016737491 1.7920637e-23)
(0.62591131 -0.0015695391 -2.6980091e-23)
(0.63799864 -0.001471954 8.1402483e-23)
(0.64981732 -0.0013806273 -1.0951936e-23)
(0.66131894 -0.00129682 -1.3137635e-22)
(0.67270868 -0.0012173406 4.2092603e-24)
(0.68347704 -0.0011542729 5.409531e-24)
(0.69522996 -0.0010753306 -5.0476046e-24)
(0.70358171 -0.0010888558 2.6364856e-23)
(0.72090797 -0.00091769307 3.7020479e-22)
(0.022037971 -0.017339602 -1.379486e-20)
(0.030971151 -0.018925882 -6.6361625e-20)
(0.041801892 -0.020157251 -3.2285345e-20)
(0.053664597 -0.020856502 4.0258865e-20)
(0.066168175 -0.021301586 1.5289612e-20)
(0.079327569 -0.02157625 -1.9114333e-20)
(0.093111409 -0.021681319 5.1100434e-21)
(0.10743873 -0.021638827 2.6111278e-20)
(0.12224193 -0.021477835 -1.3924876e-22)
(0.1374669 -0.021218825 -7.9224529e-21)
(0.15306209 -0.020877158 -1.2924537e-20)
(0.1689776 -0.020466564 -8.816118e-21)
(0.18516646 -0.019999102 1.7901143e-20)
(0.20158439 -0.019485007 9.4861656e-21)
(0.21818917 -0.018933062 -1.6268657e-20)
(0.23494042 -0.018350925 -6.0122844e-21)
(0.25179953 -0.017745309 3.1230234e-21)
(0.26872953 -0.017122122 8.1675235e-21)
(0.28569507 -0.016486602 6.9383462e-21)
(0.3026624 -0.015843411 -7.0525924e-21)
(0.31959938 -0.015196718 -3.3414476e-21)
(0.33647554 -0.014550255 1.5329263e-21)
(0.35326209 -0.013907361 6.1521714e-22)
(0.36993205 -0.013271013 1.2382028e-21)
(0.38646024 -0.012643859 2.2897035e-22)
(0.40282335 -0.012028227 -3.6517162e-22)
(0.419 -0.011426151 -7.4371887e-22)
(0.43497074 -0.01083938 1.0526961e-21)
(0.45071806 -0.010269395 8.6174471e-22)
(0.46622643 -0.0097174204 -2.5163919e-22)
(0.48148221 -0.0091844437 5.8840573e-22)
(0.49647369 -0.0086712279 -2.2575508e-22)
(0.51119099 -0.0081783306 -4.0521464e-22)
(0.52562605 -0.0077061221 -6.1920639e-22)
(0.53977253 -0.0072548048 4.1232343e-22)
(0.55362582 -0.0068244339 -9.5948583e-23)
(0.5671829 -0.0064149388 2.1125695e-22)
(0.5804424 -0.0060261443 -4.6198984e-22)
(0.59340441 -0.0056578005 4.3549825e-22)
(0.60607092 -0.0053095935 6.1394546e-23)
(0.61844464 -0.0049812334 -6.5106479e-23)
(0.63053301 -0.0046723198 2.0843357e-22)
(0.64233652 -0.004382985 2.7935543e-22)
(0.653886 -0.0041121491 2.10688e-22)
(0.66513313 -0.0038635975 2.2297481e-22)
(0.67628018 -0.0036278125 -1.8831093e-23)
(0.6868238 -0.0034408558 1.1375914e-22)
(0.69834754 -0.0032065002 1.0044851e-22)
(0.70652864 -0.0032472298 -2.0283367e-22)
(0.72354982 -0.0027390321 -1.3554371e-23)
(0.080460653 -0.027751265 1.0164194e-20)
(0.08749687 -0.030410756 3.7793486e-21)
(0.097269295 -0.032399497 -1.3560038e-20)
(0.1080799 -0.033473826 -1.5840228e-21)
(0.11925386 -0.034170284 1.5916216e-20)
(0.13096233 -0.034622475 -1.5488449e-20)
(0.14324463 -0.034809877 -3.1204625e-20)
(0.15602185 -0.034762746 1.5232302e-20)
(0.16923753 -0.034528708 1.8955454e-20)
(0.18285527 -0.034139475 -1.203196e-20)
(0.19683641 -0.033617828 1.0409047e-21)
(0.21114026 -0.032984687 8.4559334e-21)
(0.22572766 -0.032258794 -1.5684087e-20)
(0.24056091 -0.031456118 3.6546578e-21)
(0.25560306 -0.030590426 7.7592281e-21)
(0.27081796 -0.029673829 -4.3989905e-22)
(0.28617039 -0.028717032 -2.4968647e-23)
(0.30162613 -0.02772954 -7.6036612e-21)
(0.31715203 -0.026719832 4.3464999e-21)
(0.33271606 -0.025695513 8.6334959e-21)
(0.34828747 -0.024663424 -3.8868483e-21)
(0.36383685 -0.023629721 -2.1771874e-21)
(0.37933622 -0.022599939 9.0299178e-22)
(0.39475919 -0.021579042 -1.7659244e-21)
(0.41008096 -0.020571453 1.315885e-21)
(0.42527844 -0.019581084 6.9659166e-22)
(0.44033032 -0.018611365 1.7596704e-21)
(0.45521706 -0.017665258 -2.1402057e-21)
(0.46992095 -0.016745285 2.4292006e-21)
(0.48442611 -0.015853546 5.8516808e-22)
(0.49871848 -0.014991748 5.833766e-22)
(0.51278581 -0.014161228 3.041718e-22)
(0.52661757 -0.01336298 9.9587705e-22)
(0.540205 -0.01259769 -1.5309432e-21)
(0.55354099 -0.011865763 4.2446598e-22)
(0.56662005 -0.011167361 2.0444005e-22)
(0.57943828 -0.010502433 -7.4423793e-23)
(0.59199333 -0.0098707573 2.5664987e-23)
(0.60428433 -0.0092719827 -3.9679222e-22)
(0.61631222 -0.0087056522 2.1758251e-22)
(0.62807868 -0.0081713461 -3.0537743e-23)
(0.63959007 -0.0076684587 5.2049451e-22)
(0.65084589 -0.0071972658 -2.4196931e-22)
(0.66187545 -0.00675603 3.8903043e-23)
(0.67263061 -0.0063510587 7.0094998e-23)
(0.68330818 -0.0059666878 -9.05765e-23)
(0.69341648 -0.0056623499 -1.5180987e-22)
(0.70449618 -0.0052798786 4.9514275e-22)
(0.71234608 -0.0053480295 1.8021899e-22)
(0.72877561 -0.0045186986 -8.4931645e-22)
(0.16441425 -0.036392427 1.7756819e-21)
(0.16863891 -0.040108575 -1.1778467e-20)
(0.1766313 -0.042773848 6.6002061e-21)
(0.18578286 -0.044131398 -1.3976055e-20)
(0.19493314 -0.045044152 -2.0662258e-21)
(0.20445631 -0.045685426 9.8667336e-21)
(0.21451053 -0.045990286 -1.0760089e-20)
(0.22501565 -0.045987863 1.1808819e-21)
(0.23592327 -0.045741826 1.3307851e-20)
(0.24721986 -0.045292489 3.7699416e-21)
(0.25888358 -0.044666853 -6.3547191e-21)
(0.27088459 -0.043890407 -3.1733657e-21)
(0.28319277 -0.042986765 -5.5796772e-21)
(0.29577809 -0.041976332 -6.7426527e-21)
(0.30860971 -0.040876855 2.841849e-21)
(0.32165626 -0.039704133 3.5955036e-22)
(0.3348863 -0.038472328 1.5444849e-21)
(0.34826858 -0.037194167 -3.3824552e-21)
(0.36177228 -0.035881132 -4.5367675e-21)
(0.3753672 -0.034543619 2.4997047e-21)
(0.38902395 -0.03319106 3.4763089e-21)
(0.40271415 -0.031832011 -1.8020319e-21)
(0.41641056 -0.030474216 1.671863e-21)
(0.43008727 -0.029124657 -4.9549959e-22)
(0.44371974 -0.027789593 -4.2525361e-21)
(0.45728495 -0.026474591 -3.0568405e-21)
(0.47076147 -0.025184555 -2.8034682e-22)
(0.4841295 -0.023923748 3.2689194e-22)
(0.4973709 -0.022695824 -2.2061131e-21)
(0.51046925 -0.021503853 -1.0410442e-21)
(0.52340978 -0.020350358 2.1742943e-22)
(0.53617945 -0.019237345 -1.3769542e-21)
(0.54876683 -0.018166347 -5.4446163e-23)
(0.56116215 -0.017138462 -4.9934274e-22)
(0.5733572 -0.016154395 -4.4329969e-22)
(0.58534532 -0.015214511 -6.6908843e-22)
(0.59712139 -0.014318878 -1.0296794e-21)
(0.60868175 -0.013467318 -1.7510755e-23)
(0.6200242 -0.012659473 -3.5496388e-24)
(0.6311483 -0.011894832 -6.045444e-22)
(0.64205433 -0.011172933 -2.6557567e-23)
(0.65274716 -0.010493049 -4.1149552e-22)
(0.663225 -0.0098556723 -5.9830376e-22)
(0.6735151 -0.0092584989 4.7915522e-22)
(0.68356959 -0.0087103327 1.3834409e-23)
(0.69357761 -0.0081896938 2.3607337e-22)
(0.70306429 -0.0077782815 -1.7300371e-22)
(0.71350861 -0.00725954 -3.3650935e-22)
(0.7208847 -0.0073551076 -1.9633197e-23)
(0.73646471 -0.0062305724 4.8264074e-22)
(0.26994885 -0.042470789 -2.2687962e-20)
(0.27045377 -0.047217392 4.9660297e-20)
(0.27579179 -0.050466927 1.0684973e-20)
(0.282581 -0.052041627 -1.6573509e-20)
(0.28900265 -0.053171843 -2.4390729e-21)
(0.29562022 -0.054047646 2.4009592e-21)
(0.30275829 -0.054542929 -2.0457641e-21)
(0.31033693 -0.054675322 -4.8489503e-21)
(0.31830444 -0.05451752 -4.1488571e-21)
(0.32666895 -0.054115172 -1.2575316e-20)
(0.33542696 -0.05349708 1.8796314e-20)
(0.34455874 -0.052690608 6.957479e-21)
(0.35404173 -0.051722088 -1.7103156e-20)
(0.36385256 -0.050614983 1.0002419e-20)
(0.37396565 -0.049390089 8.005261e-21)
(0.38435356 -0.048066205 -4.3178469e-22)
(0.39498779 -0.046660483 -2.8373055e-21)
(0.40583936 -0.04518859 -4.2282577e-21)
(0.4168791 -0.043664865 -1.5764344e-21)
(0.42807799 -0.042102448 -1.3935422e-21)
(0.43940747 -0.04051338 -3.3344179e-21)
(0.45083967 -0.03890868 0)
(0.46234761 -0.0372984 -1.4798671e-21)
(0.4739054 -0.035691659 3.9832577e-21)
(0.48548838 -0.034096688 5.664296e-21)
(0.49707323 -0.032520846 -9.1186911e-22)
(0.50863804 -0.030970655 -3.2575673e-21)
(0.52016243 -0.029451825 3.4206751e-21)
(0.53162755 -0.027969284 6.2841242e-23)
(0.54301611 -0.026527217 3.7448144e-21)
(0.55431241 -0.0251291 -5.1008434e-22)
(0.56550234 -0.023777751 1.7936942e-21)
(0.57657332 -0.022475371 -8.9725296e-22)
(0.58751432 -0.021223604 4.0147881e-22)
(0.59831583 -0.020023585 -5.2875679e-22)
(0.60896979 -0.018876007 5.8252269e-22)
(0.6194696 -0.017781178 5.296135e-22)
(0.62981012 -0.016739085 4.4494385e-22)
(0.63998757 -0.015749477 -1.0985665e-21)
(0.64999992 -0.014811904 7.8562363e-22)
(0.65984584 -0.013925965 -4.1418295e-22)
(0.66952847 -0.013090918 -1.3377985e-21)
(0.67904457 -0.012307555 1.7076708e-21)
(0.68841892 -0.011573125 -5.5827271e-23)
(0.69760419 -0.010898874 -1.9402701e-22)
(0.70677992 -0.010257961 -7.1364098e-24)
(0.71549268 -0.0097528151 -1.8784857e-22)
(0.72514345 -0.0091133582 -5.7919527e-22)
(0.7319285 -0.0092360783 7.9584633e-22)
(0.74644166 -0.0078505935 -4.9446563e-23)
(0.39209996 -0.045036303 -1.9028726e-20)
(0.38802105 -0.050843077 1.3194853e-20)
(0.38973291 -0.054627524 3.728167e-21)
(0.39337387 -0.056444188 -8.0563048e-21)
(0.39639401 -0.057873587 1.2639108e-20)
(0.39945228 -0.059084237 8.1515676e-21)
(0.40306472 -0.059893183 -1.2858789e-20)
(0.40716857 -0.060303258 -6.3015931e-21)
(0.41169332 -0.060383339 1.3140421e-20)
(0.41665671 -0.060178191 -1.6374022e-20)
(0.42207096 -0.059717203 -1.4442994e-20)
(0.42792436 -0.059028153 1.5123944e-20)
(0.43419835 -0.058138271 6.9889544e-21)
(0.44087296 -0.057072918 -5.0624648e-21)
(0.44792548 -0.05585537 -1.417324e-21)
(0.45533037 -0.054507121 -3.6643969e-21)
(0.46306036 -0.053048151 4.8893297e-21)
(0.47108718 -0.05149706 3.6851319e-21)
(0.47938201 -0.049871139 -3.1433351e-21)
(0.48791587 -0.048186432 3.1258148e-21)
(0.49666003 -0.046457797 2.9328549e-21)
(0.50558625 -0.044698947 -3.3568338e-21)
(0.51466703 -0.04292248 3.6761638e-22)
(0.52387585 -0.041139903 -3.1978936e-21)
(0.53318729 -0.039361652 8.0385495e-21)
(0.54257719 -0.037597118 6.4730044e-21)
(0.55202271 -0.035854665 1.0145685e-21)
(0.56150245 -0.034141666 -1.8307111e-21)
(0.57099646 -0.032464529 4.2025257e-21)
(0.58048629 -0.030828746 7.9588913e-21)
(0.589955 -0.029238937 2.3882377e-21)
(0.59938716 -0.027698903 3.6620153e-21)
(0.60876884 -0.026211684 2.1245484e-21)
(0.61808758 -0.024779627 8.4124673e-22)
(0.62733235 -0.023404453 -2.4826205e-22)
(0.6364936 -0.022087328 3.0451922e-21)
(0.64556313 -0.020828938 6.8657821e-22)
(0.65453419 -0.019629571 3.1614131e-22)
(0.66340135 -0.018489213 5.6930175e-23)
(0.67216091 -0.017407592 1.1825215e-21)
(0.68080986 -0.01638449 4.3021614e-23)
(0.68934954 -0.015419258 5.5800873e-22)
(0.6977752 -0.014513083 -1.2654834e-22)
(0.70610897 -0.013662888 -3.8168309e-22)
(0.71430436 -0.01288229 -1.9278744e-22)
(0.72252985 -0.012139618 -5.2903903e-22)
(0.73035739 -0.011556162 2.2547738e-22)
(0.73909654 -0.010814172 -1.5637014e-22)
(0.74520424 -0.010963533 -4.5486289e-22)
(0.75848244 -0.0093573971 2.7665159e-22)
(0.52477821 -0.043167367 3.4731552e-21)
(0.51546927 -0.050074298 -1.9290063e-20)
(0.51261707 -0.054400439 -2.5460805e-21)
(0.51233349 -0.056645693 5.6722356e-21)
(0.51142149 -0.058597002 3.5129969e-21)
(0.51044493 -0.060330928 5.0603764e-22)
(0.51008007 -0.061638524 7.0425057e-21)
(0.5103241 -0.0625236 8.0804906e-21)
(0.51108488 -0.063040966 1.0074268e-20)
(0.51236712 -0.06322572 -1.1775851e-20)
(0.51418839 -0.063106198 -2.2744847e-20)
(0.51654204 -0.062710695 -4.4298945e-21)
(0.51940977 -0.062066898 1.6690207e-20)
(0.52277079 -0.061201668 1.3322859e-20)
(0.52660191 -0.060140804 -5.7689719e-21)
(0.53087709 -0.058908783 9.7012593e-22)
(0.53556821 -0.057528778 -4.1167404e-21)
(0.54064596 -0.056022717 2.9780471e-21)
(0.5460804 -0.054411265 -2.9312696e-22)
(0.55184137 -0.052713806 -1.9549547e-21)
(0.55789886 -0.05094844 8.4093172e-21)
(0.56422331 -0.049131983 -4.6373314e-22)
(0.57078589 -0.047279972 5.7678056e-22)
(0.5775587 -0.045406665 -4.8813722e-22)
(0.58451493 -0.043525055 -4.4843951e-21)
(0.59162898 -0.04164688 4.3780367e-21)
(0.5988766 -0.039782645 1.8522827e-21)
(0.60623492 -0.037941661 -3.4260949e-21)