/*--------------------------------*- C++ -*----------------------------------*\
| =========                 |                                                 |
| \\      /  F ield         | OpenFOAM: The Open Source CFD Toolbox           |
|  \\    /   O peration     | Version:  4.1                                   |
|   \\  /    A nd           | Web:      www.OpenFOAM.org                      |
|    \\/     M anipulation  |                                                 |
\*---------------------------------------------------------------------------*/
FoamFile
{
    version     2.0;
    format      ascii;
    class       volScalarField;
    location    "7";
    object      p;
}
// * * * * * * * * * * * * * * * * * * * * * * * * * * * * * * * * * * * * * //

dimensions      [0 2 -2 0 0 0 0];

internalField   nonuniform List<scalar> 
1000
(
1.5221818
1.5050622
1.488586
1.4725117
1.4566613
1.4409461
1.4253265
1.4097808
1.3942928
1.3788492
1.3634401
1.3480587
1.3327005
1.3173622
1.3020411
1.2867349
1.2714418
1.2561599
1.240888
1.2256247
1.210369
1.1951197
1.179876
1.1646369
1.1494017
1.1341696
1.1189399
1.1037122
1.0884859
1.0732606
1.058036
1.0428119
1.027588
1.0123644
0.99714082
0.9819173
0.9666938
0.9514703
0.9362468
0.92102329
0.90579977
0.89057625
0.87535273
0.86012921
0.84490568
0.82968216
0.81445863
0.7992351
0.78401158
0.76878805
0.75356452
0.738341
0.72311747
0.70789394
0.69267042
0.67744689
0.66222337
0.64699984
0.63177631
0.61655279
0.60132926
0.58610573
0.57088221
0.55565868
0.54043516
0.52521163
0.5099881
0.49476458
0.47954105
0.46431753
0.449094
0.43387047
0.41864695
0.40342342
0.38819989
0.37297637
0.35775284
0.34252932
0.32730579
0.31208226
0.29685874
0.28163521
0.26641169
0.25118816
0.23596463
0.22074111
0.20551758
0.19029405
0.17507053
0.159847
0.14462348
0.12939995
0.11417642
0.098952898
0.083729372
0.068505847
0.053282321
0.038058797
0.022835275
0.0076117556
1.5217832
1.5046627
1.4885088
1.4726454
1.4568305
1.4410805
1.425428
1.4098641
1.3943638
1.3789085
1.3634885
1.348098
1.3327327
1.3173889
1.3020633
1.2867534
1.271457
1.2561725
1.2408983
1.2256331
1.2103756
1.1951249
1.1798799
1.1646399
1.1494038
1.1341711
1.118941
1.1037129
1.0884863
1.0732608
1.0580361
1.0428119
1.0275881
1.0123644
0.99714082
0.98191729
0.96669379
0.9514703
0.93624679
0.92102329
0.90579977
0.89057625
0.87535273
0.86012921
0.84490568
0.82968215
0.81445863
0.7992351
0.78401158
0.76878805
0.75356452
0.738341
0.72311747
0.70789394
0.69267042
0.67744689
0.66222337
0.64699984
0.63177631
0.61655279
0.60132926
0.58610573
0.57088221
0.55565868
0.54043516
0.52521163
0.5099881
0.49476458
0.47954105
0.46431753
0.449094
0.43387047
0.41864695
0.40342342
0.38819989
0.37297637
0.35775284
0.34252932
0.32730579
0.31208226
0.29685874
0.28163521
0.26641169
0.25118816
0.23596463
0.22074111
0.20551758
0.19029405
0.17507053
0.159847
0.14462348
0.12939995
0.11417642
0.098952898
0.083729372
0.068505846
0.05328232
0.038058796
0.022835272
0.0076117531
1.5211002
1.503877
1.4881658
1.4726642
1.4569594
1.4411866
1.425499
1.4099217
1.3944182
1.3789581
1.3635301
1.3481317
1.3327602
1.3174118
1.3020825
1.2867694
1.2714704
1.2561836
1.2409075
1.2256407
1.2103818
1.1951299
1.179884
1.164643
1.1494063
1.1341729
1.1189423
1.1037139
1.088487
1.0732613
1.0580364
1.0428121
1.0275882
1.0123645
0.99714086
0.98191732
0.9666938
0.9514703
0.93624679
0.92102329
0.90579977
0.89057625
0.87535273
0.86012921
0.84490568
0.82968215
0.81445863
0.7992351
0.78401158
0.76878805
0.75356452
0.738341
0.72311747
0.70789394
0.69267042
0.67744689
0.66222337
0.64699984
0.63177631
0.61655279
0.60132926
0.58610573
0.57088221
0.55565868
0.54043516
0.52521163
0.5099881
0.49476458
0.47954105
0.46431753
0.449094
0.43387047
0.41864695
0.40342342
0.38819989
0.37297637
0.35775284
0.34252932
0.32730579
0.31208226
0.29685874
0.28163521
0.26641169
0.25118816
0.23596463
0.22074111
0.20551758
0.19029405
0.17507053
0.159847
0.14462348
0.12939995
0.11417642
0.098952898
0.083729371
0.068505845
0.053282318
0.038058793
0.022835267
0.0076117499
1.5204595
1.5030782
1.4877504
1.4726226
1.4570617
1.4412835
1.4255642
1.4099751
1.3944718
1.3790097
1.363575
1.3481687
1.3327907
1.3174373
1.3021041
1.2867878
1.271486
1.2561968
1.2409187
1.2256502
1.2103899
1.1951367
1.1798896
1.1646477
1.14941
1.1341759
1.1189447
1.1037156
1.0884883
1.0732623
1.0580371
1.0428126
1.0275885
1.0123646
0.99714097
0.98191738
0.96669384
0.95147032
0.9362468
0.92102329
0.90579977
0.89057625
0.87535273
0.8601292
0.84490568
0.82968215
0.81445863
0.7992351
0.78401158
0.76878805
0.75356452
0.738341
0.72311747
0.70789394
0.69267042
0.67744689
0.66222337
0.64699984
0.63177631
0.61655279
0.60132926
0.58610573
0.57088221
0.55565868
0.54043516
0.52521163
0.5099881
0.49476458
0.47954105
0.46431753
0.449094
0.43387047
0.41864695
0.40342342
0.38819989
0.37297637
0.35775284
0.34252932
0.32730579
0.31208226
0.29685874
0.28163521
0.26641169
0.25118816
0.23596463
0.22074111
0.20551758
0.19029405
0.17507053
0.159847
0.14462348
0.12939995
0.11417642
0.098952897
0.08372937
0.068505843
0.053282316
0.03805879
0.022835263
0.0076117473
1.520091
1.5025985
1.4874827
1.4725831
1.4571203
1.4413443
1.4256061
1.4100098
1.3945073
1.3790449
1.3636065
1.3481951
1.3328128
1.3174561
1.3021203
1.2868017
1.2714979
1.256207
1.2409275
1.2256577
1.2103963
1.1951422
1.1798942
1.1646515
1.1494132
1.1341785
1.1189467
1.1037172
1.0884895
1.0732631
1.0580377
1.042813
1.0275888
1.0123648
0.99714108
0.98191744
0.96669387
0.95147033
0.93624681
0.92102329
0.90579977
0.89057625
0.87535273
0.8601292
0.84490568
0.82968215
0.81445863
0.7992351
0.78401158
0.76878805
0.75356452
0.738341
0.72311747
0.70789394
0.69267042
0.67744689
0.66222337
0.64699984
0.63177631
0.61655279
0.60132926
0.58610573
0.57088221
0.55565868
0.54043516
0.52521163
0.5099881
0.49476458
0.47954105
0.46431753
0.449094
0.43387047
0.41864695
0.40342342
0.38819989
0.37297637
0.35775284
0.34252932
0.32730579
0.31208226
0.29685874
0.28163521
0.26641169
0.25118816
0.23596463
0.22074111
0.20551758
0.19029405
0.17507053
0.159847
0.14462348
0.12939995
0.11417642
0.098952897
0.083729369
0.068505843
0.053282314
0.038058788
0.02283526
0.0076117458
1.520091
1.5025985
1.4874827
1.4725832
1.4571203
1.4413443
1.4256061
1.4100098
1.3945073
1.3790449
1.3636065
1.3481951
1.3328128
1.3174561
1.3021203
1.2868017
1.2714979
1.256207
1.2409275
1.2256577
1.2103963
1.1951422
1.1798942
1.1646515
1.1494132
1.1341785
1.1189467
1.1037172
1.0884895
1.0732631
1.0580377
1.042813
1.0275888
1.0123648
0.99714108
0.98191744
0.96669387
0.95147033
0.93624681
0.92102329
0.90579977
0.89057625
0.87535273
0.8601292
0.84490568
0.82968215
0.81445863
0.7992351
0.78401158
0.76878805
0.75356452
0.738341
0.72311747
0.70789394
0.69267042
0.67744689
0.66222337
0.64699984
0.63177631
0.61655279
0.60132926
0.58610573
0.57088221
0.55565868
0.54043516
0.52521163
0.5099881
0.49476458
0.47954105
0.46431753
0.449094
0.43387047
0.41864695
0.40342342
0.38819989
0.37297637
0.35775284
0.34252932
0.32730579
0.31208226
0.29685874
0.28163521
0.26641169
0.25118816
0.23596463
0.22074111
0.20551758
0.19029405
0.17507053
0.159847
0.14462348
0.12939995
0.11417642
0.098952896
0.083729369
0.068505842
0.053282314
0.038058788
0.02283526
0.0076117456
1.5204595
1.5030782
1.4877504
1.4726226
1.4570617
1.4412835
1.4255642
1.4099751
1.3944718
1.3790097
1.363575
1.3481687
1.3327907
1.3174373
1.3021041
1.2867878
1.271486
1.2561968
1.2409187
1.2256502
1.2103899
1.1951367
1.1798896
1.1646477
1.14941
1.1341759
1.1189447
1.1037156
1.0884883
1.0732623
1.0580371
1.0428126
1.0275885
1.0123646
0.99714097
0.98191738
0.96669384
0.95147031
0.9362468
0.92102329
0.90579977
0.89057625
0.87535273
0.86012921
0.84490568
0.82968215
0.81445863
0.7992351
0.78401158
0.76878805
0.75356452
0.738341
0.72311747
0.70789394
0.69267042
0.67744689
0.66222337
0.64699984
0.63177631
0.61655279
0.60132926
0.58610573
0.57088221
0.55565868
0.54043516
0.52521163
0.5099881
0.49476458
0.47954105
0.46431753
0.449094
0.43387047
0.41864695
0.40342342
0.38819989
0.37297637
0.35775284
0.34252932
0.32730579
0.31208226
0.29685874
0.28163521
0.26641169
0.25118816
0.23596463
0.22074111
0.20551758
0.19029405
0.17507053
0.159847
0.14462348
0.12939995
0.11417642
0.098952896
0.08372937
0.068505843
0.053282316
0.03805879
0.022835263
0.0076117469
1.5211002
1.5038771
1.4881658
1.4726642
1.4569594
1.4411866
1.425499
1.4099217
1.3944182
1.3789581
1.3635301
1.3481317
1.3327602
1.3174118
1.3020825
1.2867694
1.2714704
1.2561836
1.2409075
1.2256407
1.2103818
1.1951299
1.179884
1.164643
1.1494063
1.1341729
1.1189423
1.1037139
1.088487
1.0732613
1.0580364
1.0428121
1.0275882
1.0123645
0.99714086
0.98191731
0.9666938
0.9514703
0.9362468
0.92102329
0.90579977
0.89057625
0.87535273
0.86012921
0.84490568
0.82968216
0.81445863
0.7992351
0.78401158
0.76878805
0.75356452
0.738341
0.72311747
0.70789394
0.69267042
0.67744689
0.66222337
0.64699984
0.63177631
0.61655279
0.60132926
0.58610573
0.57088221
0.55565868
0.54043516
0.52521163
0.5099881
0.49476458
0.47954105
0.46431753
0.449094
0.43387047
0.41864695
0.40342342
0.38819989
0.37297637
0.35775284
0.34252932
0.32730579
0.31208226
0.29685874
0.28163521
0.26641169
0.25118816
0.23596463
0.22074111
0.20551758
0.19029405
0.17507053
0.159847
0.14462348
0.12939995
0.11417642
0.098952897
0.08372937
0.068505844
0.053282318
0.038058793
0.022835267
0.0076117495
1.5217832
1.5046627
1.4885089
1.4726455
1.4568305
1.4410805
1.425428
1.4098641
1.3943638
1.3789085
1.3634885
1.348098
1.3327327
1.3173889
1.3020633
1.2867534
1.271457
1.2561725
1.2408983
1.2256331
1.2103756
1.1951249
1.1798799
1.1646399
1.1494038
1.1341711
1.118941
1.1037129
1.0884863
1.0732608
1.0580361
1.0428119
1.0275881
1.0123644
0.99714082
0.9819173
0.9666938
0.9514703
0.9362468
0.92102329
0.90579977
0.89057625
0.87535273
0.86012921
0.84490568
0.82968216
0.81445863
0.7992351
0.78401158
0.76878805
0.75356452
0.738341
0.72311747
0.70789394
0.69267042
0.67744689
0.66222337
0.64699984
0.63177631
0.61655279
0.60132926
0.58610573
0.57088221
0.55565868
0.54043516
0.52521163
0.5099881
0.49476458
0.47954105
0.46431753
0.449094
0.43387047
0.41864695
0.40342342
0.38819989
0.37297637
0.35775284
0.34252932
0.32730579
0.31208226
0.29685874
0.28163521
0.26641169
0.25118816
0.23596463
0.22074111
0.20551758
0.19029405
0.17507053
0.159847
0.14462348
0.12939995
0.11417642
0.098952897
0.083729371
0.068505846
0.05328232
0.038058796
0.022835271
0.0076117528
1.5221818
1.5050622
1.4885861
1.4725118
1.4566613
1.4409461
1.4253265
1.4097808
1.3942928
1.3788492
1.3634401
1.3480587
1.3327005
1.3173622
1.3020411
1.2867349
1.2714417
1.2561599
1.240888
1.2256247
1.210369
1.1951197
1.179876
1.1646369
1.1494017
1.1341696
1.1189399
1.1037122
1.0884859
1.0732606
1.058036
1.0428119
1.027588
1.0123644
0.99714082
0.98191731
0.9666938
0.9514703
0.9362468
0.92102329
0.90579977
0.89057625
0.87535273
0.86012921
0.84490568
0.82968216
0.81445863
0.7992351
0.78401158
0.76878805
0.75356452
0.738341
0.72311747
0.70789394
0.69267042
0.67744689
0.66222337
0.64699984
0.63177631
0.61655279
0.60132926
0.58610573
0.57088221
0.55565868
0.54043516
0.52521163
0.5099881
0.49476458
0.47954105
0.46431753
0.449094
0.43387047
0.41864695
0.40342342
0.38819989
0.37297637
0.35775284
0.34252932
0.32730579
0.31208226
0.29685874
0.28163521
0.26641169
0.25118816
0.23596463
0.22074111
0.20551758
0.19029405
0.17507053
0.159847
0.14462348
0.12939995
0.11417642
0.098952897
0.083729372
0.068505846
0.053282321
0.038058798
0.022835275
0.0076117555
)
;

boundaryField
{
    top
    {
        type            zeroGradient;
    }
    inlet
    {
        type            fixedValue;
        value           uniform 1.53103;
    }
    outlet
    {
        type            fixedValue;
        value           uniform 0;
    }
    bottom
    {
        type            zeroGradient;
    }
    back
    {
        type            empty;
    }
    front
    {
        type            empty;
    }
}


// ************************************************************************* //
