/*--------------------------------*- C++ -*----------------------------------*\
| =========                 |                                                 |
| \\      /  F ield         | OpenFOAM: The Open Source CFD Toolbox           |
|  \\    /   O peration     | Version:  4.1                                   |
|   \\  /    A nd           | Web:      www.OpenFOAM.org                      |
|    \\/     M anipulation  |                                                 |
\*---------------------------------------------------------------------------*/
FoamFile
{
    version     2.0;
    format      ascii;
    class       surfaceScalarField;
    location    "7";
    object      phi;
}
// * * * * * * * * * * * * * * * * * * * * * * * * * * * * * * * * * * * * * //

dimensions      [0 3 -1 0 0 0 0];

internalField   nonuniform List<scalar> 
1890
(
0.0021695717
4.3254697e-06
0.0021565722
1.3000592e-05
0.0021423404
1.4231947e-05
0.0021308697
1.1470526e-05
0.0021224847
8.3849508e-06
0.0021161798
6.3049427e-06
0.002111155
5.0247243e-06
0.0021070452
4.1098081e-06
0.0021036824
3.3627849e-06
0.0021009302
2.7522773e-06
0.0020986564
2.2739034e-06
0.0020967532
1.903339e-06
0.002095145
1.6083678e-06
0.0020937804
1.3647545e-06
0.0020926218
1.1588e-06
0.0020916392
9.8281349e-07
0.002090808
8.3134873e-07
0.0020901083
6.9994489e-07
0.0020895233
5.8513932e-07
0.002089039
4.844546e-07
0.002088643
3.9620686e-07
0.0020883239
3.1923266e-07
0.0020880714
2.5270544e-07
0.0020878756
1.9598064e-07
0.0020877272
1.4847575e-07
0.0020876178
1.0956243e-07
0.0020875394
7.8500388e-08
0.0020874851
5.4420676e-08
0.0020874489
3.6346742e-08
0.0020874257
2.3252887e-08
0.0020874116
1.4133394e-08
0.0020874037
8.0578981e-09
0.0020873995
4.2083835e-09
0.0020873976
1.9116843e-09
0.0020873971
6.2710927e-10
0.0020873971
1.55192e-11
0.0020873973
-2.2498227e-10
0.0020873976
-2.8547896e-10
0.0020873979
-2.5577311e-10
0.0020873981
-1.9363675e-10
0.0020873983
-1.3245952e-10
0.0020873983
-8.162103e-11
0.0020873984
-4.6644632e-11
0.0020873984
-2.2910118e-11
0.0020873984
-9.8450972e-12
0.0020873984
-1.9297203e-12
0.0020873984
7.5489212e-13
0.0020873984
2.6360227e-12
0.0020873984
2.1296821e-12
0.0020873984
2.5216042e-12
0.0020873984
1.4095672e-12
0.0020873984
1.6369141e-12
0.0020873984
6.836779e-13
0.0020873984
1.0369652e-12
0.0020873984
2.6460908e-13
0.0020873984
6.6336098e-13
0.0020873984
5.2481732e-14
0.0020873984
5.0033874e-13
0.0020873984
-7.800125e-14
0.0020873984
3.8173873e-13
0.0020873984
-1.6367855e-13
0.0020873984
3.5027366e-13
0.0020873984
-2.0790782e-13
0.0020873984
2.9483269e-13
0.0020873984
-2.340419e-13
0.0020873984
3.0112932e-13
0.0020873984
-2.462776e-13
0.0020873984
2.6819772e-13
0.0020873984
-2.5401501e-13
0.0020873984
2.8842931e-13
0.0020873984
-2.550559e-13
0.0020873984
2.6382789e-13
0.0020873984
-2.549705e-13
0.0020873984
2.9072532e-13
0.0020873984
-2.4907574e-13
0.0020873984
2.7363258e-13
0.0020873984
-2.4058797e-13
0.0020873984
3.1039282e-13
0.0020873984
-2.2214218e-13
0.0020873984
3.0982419e-13
0.0020873984
-1.9312454e-13
0.0020873984
3.6814871e-13
0.0020873984
-1.371487e-13
0.0020873984
4.0196676e-13
0.0020873984
-3.8739759e-14
0.0020873984
5.2967235e-13
0.0020873984
1.2674036e-13
0.0020873984
7.3031614e-13
0.0020873984
4.5948681e-13
0.0020873984
1.2164978e-12
0.0020873984
1.3150987e-12
0.0020873984
2.2768431e-12
0.0020873984
3.5680741e-12
0.0020873984
5.7850869e-12
0.0020873984
1.1553514e-11
0.0020873984
1.9073167e-11
0.0020873983
3.7316201e-11
0.0020873983
5.8106934e-11
0.0020873981
1.2468976e-10
1.660545e-10
0.0051131952
4.9165297e-06
0.0051075262
1.8671175e-05
0.0050981249
2.3633579e-05
0.0050880123
2.1582864e-05
0.0050787136
1.7683638e-05
0.0050704564
1.4562236e-05
0.0050631288
1.2352367e-05
0.0050566732
1.0565283e-05
0.0050510703
8.9656108e-06
0.0050462628
7.5598424e-06
0.0050421535
6.3832029e-06
0.0050386395
5.4174766e-06
0.0050356324
4.6155832e-06
0.0050330609
3.9363363e-06
0.005030866
3.3537525e-06
0.0050289976
2.8513348e-06
0.0050274128
2.4162032e-06
0.0050260755
2.0373637e-06
0.0050249548
1.7059223e-06
0.0050240242
1.415217e-06
0.0050232601
1.1604379e-06
0.0050226413
9.3812975e-07
0.0050221483
7.4576052e-07
0.0050217631
5.8136404e-07
0.0050214684
4.4320606e-07
0.0050212486
3.2948857e-07
0.0050210891
2.3815831e-07
0.0050209768
1.6682499e-07
0.0050209004
1.1281524e-07
0.0050208504
7.3294784e-08
0.0050208192
4.5441012e-08
0.0050208007
2.661259e-08
0.0050207905
1.4466515e-08
0.0050207854
7.0500563e-09
0.0050207833
2.8199277e-09
0.0050207827
6.1958907e-10
0.0050207829
-3.600632e-10
0.0050207833
-6.8369682e-10
0.0050207837
-6.7874752e-10
0.0050207841
-5.4622164e-10
0.0050207843
-3.8762709e-10
0.0050207845
-2.5095836e-10
0.0050207846
-1.4819754e-10
0.0050207847
-8.0027707e-11
0.0050207847
-3.7309247e-11
0.0050207847
-1.3992406e-11
0.0050207847
-1.6674324e-12
0.0050207847
2.9808854e-12
0.0050207847
5.0391414e-12
0.0050207847
4.4402176e-12
0.0050207847
4.1121716e-12
0.0050207847
2.7972846e-12
0.0050207847
2.4761536e-12
0.0050207847
1.5197683e-12
0.0050207847
1.4127286e-12
0.0050207847
7.5257771e-13
0.0050207847
8.4312862e-13
0.0050207847
4.1972436e-13
0.0050207847
5.1749656e-13
0.0050207847
1.912126e-13
0.0050207847
3.2338645e-13
0.0050207847
1.151308e-13
0.0050207847
2.0506663e-13
0.0050207847
9.351202e-15
0.0050207847
1.4076823e-13
0.0050207847
1.1693507e-14
0.0050207847
1.0250951e-13
0.0050207847
-4.4176395e-14
0.0050207847
8.7693355e-14
0.0050207847
-1.3511764e-14
0.0050207847
8.1335122e-14
0.0050207847
-5.2531422e-14
0.0050207847
8.631759e-14
0.0050207847
-7.9782994e-15
0.0050207847
9.7751929e-14
0.0050207847
-3.2989984e-14
0.0050207847
1.2907253e-13
0.0050207847
3.16317e-14
0.0050207847
1.7799488e-13
0.0050207847
4.6458045e-14
0.0050207847
2.7086225e-13
0.0050207847
1.5735884e-13
0.0050207847
4.1713156e-13
0.0050207847
2.5063634e-13
0.0050207847
6.6735039e-13
0.0050207847
5.1448001e-13
0.0050207847
1.1035007e-12
0.0050207847
9.2226728e-13
0.0050207847
1.9657577e-12
0.0050207847
1.9303118e-12
0.0050207847
3.8898916e-12
0.0050207847
4.2185823e-12
0.0050207847
8.8396116e-12
0.0050207847
1.1925208e-11
0.0050207847
2.4354701e-11
0.0050207847
3.5795135e-11
0.0050207846
6.6411483e-11
0.0050207846
9.8957297e-11
0.0050207846
1.6746215e-10
2.2098863e-10
0.0069811642
3.5000563e-06
0.0069842987
1.553803e-05
0.0069864306
2.1501926e-05
0.0069869236
2.1089804e-05
0.006986308
1.8299405e-05
0.0069850408
1.5829589e-05
0.0069833812
1.4011905e-05
0.0069815077
1.2438597e-05
0.0069795702
1.0903055e-05
0.0069776767
9.4533466e-06
0.00697589
8.1699879e-06
0.0069742408
7.066648e-06
0.0069727428
6.1136622e-06
0.0069713995
5.2796889e-06
0.0069702079
4.5454426e-06
0.0069691604
3.8988643e-06
0.0069682472
3.329499e-06
0.0069674573
2.8272784e-06
0.0069667799
2.3834174e-06
0.0069662043
1.9909461e-06
0.0069657202
1.6445843e-06
0.0069653181
1.3403477e-06
0.0069649887
1.0752233e-06
0.0069647233
8.4683919e-07
0.0069645135
6.531263e-07
0.0069643511
4.9196806e-07
0.0069642284
3.6093608e-07
0.0069641381
2.5716194e-07
0.0069640737
1.7735122e-07
0.0069640291
1.179186e-07
0.0069639994
7.5195583e-08
0.0069639804
4.5651393e-08
0.0069639689
2.6082617e-08
0.0069639622
1.3733904e-08
0.0069639587
6.3902066e-09
0.006963957
2.3297343e-09
0.0069639564
3.0131644e-10
0.0069639563
-5.4849778e-10
0.0069639564
-7.6988887e-10
0.0069639566
-7.0417897e-10
0.0069639567
-5.4091464e-10
0.0069639569
-3.7059928e-10
0.006963957
-2.3224426e-10
0.006963957
-1.3263142e-10
0.0069639571
-6.8624541e-11
0.0069639571
-3.0153371e-11
0.0069639571
-9.8785484e-12
0.0069639571
4.5037411e-13
0.0069639571
3.9804303e-12
0.0069639571
5.2294879e-12
0.0069639571
4.3981206e-12
0.0069639571
3.9085929e-12
0.0069639571
2.7393929e-12
0.0069639571
2.3021972e-12
0.0069639571
1.5027954e-12
0.0069639571
1.3168733e-12
0.0069639571
8.5715819e-13
0.0069639571
7.7901389e-13
0.0069639571
4.9880815e-13
0.0069639571
4.4621211e-13
0.0069639571
3.1121838e-13
0.0069639571
2.3564947e-13
0.0069639571
1.9396635e-13
0.0069639571
1.0330308e-13
0.0069639571
1.3972017e-13
0.0069639571
4.4649059e-14
0.0069639571
9.3879343e-14
0.0069639571
1.0725906e-14
0.0069639571
8.3007635e-14
0.0069639571
9.8552692e-16
0.0069639571
6.7132024e-14
0.0069639571
-1.9664478e-15
0.0069639571
8.2511668e-14
0.0069639571
1.2306469e-14
0.0069639571
9.2055425e-14
0.0069639571
3.802007e-14
0.0069639571
1.3340058e-13
0.0069639571
9.3550266e-14
0.0069639571
1.7930001e-13
0.0069639571
1.9651702e-13
0.0069639571
2.7566722e-13
0.0069639571
3.7950455e-13
0.0069639571
4.2321726e-13
0.0069639571
6.4432754e-13
0.0069639571
7.220899e-13
0.0069639571
1.0697746e-12
0.0069639571
1.2497904e-12
0.0069639571
1.7912028e-12
0.0069639571
2.3476923e-12
0.0069639571
3.1745792e-12
0.0069639571
4.6673006e-12
0.0069639571
6.2593503e-12
0.0069639571
1.1068641e-11
0.0069639571
1.6073484e-11
0.0069639571
2.8362002e-11
0.0069639571
4.0902324e-11
0.0069639571
6.7112707e-11
0.0069639571
9.7582472e-11
0.0069639571
1.4650578e-10
1.9017219e-10
0.0080604774
1.726873e-06
0.0080676239
8.3929293e-06
0.0080769273
1.2198778e-05
0.0080855921
1.2424937e-05
0.0080928062
1.108554e-05
0.0080988154
9.8205028e-06
0.0081039318
8.895493e-06
0.0081082957
8.0745089e-06
0.0081119749
7.2237803e-06
0.0081150498
6.3784301e-06
0.0081176181
5.6017606e-06
0.0081197709
4.9138994e-06
0.0081215809
4.3036793e-06
0.0081231041
3.7565366e-06
0.0081243852
3.2644679e-06
0.0081254608
2.8232804e-06
0.0081263615
2.4288426e-06
0.0081271124
2.0765083e-06
0.0081277341
1.7618238e-06
0.008128244
1.4811244e-06
0.0081286572
1.2315012e-06
0.0081289869
1.0107016e-06
0.0081292453
8.1694697e-07
0.0081294434
6.4882763e-07
0.0081295915
5.0508936e-07
0.0081296991
3.8444242e-07
0.0081297748
2.8537037e-07
0.008129826
2.0603247e-07
0.0081298592
1.4425855e-07
0.0081298796
9.7621154e-08
0.0081298913
6.3579228e-08
0.0081298974
3.9624177e-08
0.0081299001
2.3434033e-08
0.0081299009
1.2973583e-08
0.0081299008
6.5553338e-09
0.0081299003
2.8555706e-09
0.0081298997
9.0477565e-10
0.0081298992
-3.6432122e-11
0.0081298988
-3.7627105e-10
0.0081298986
-4.3223797e-10
0.0081298984
-3.6402994e-10
0.0081298983
-2.6609189e-10
0.0081298983
-1.7291387e-10
0.0081298982
-1.0424089e-10
0.0081298982
-5.5371364e-11
0.0081298982
-2.7328294e-11
0.0081298982
-9.6881553e-12
0.0081298982
-2.4253484e-12
0.0081298982
2.4246901e-12
0.0081298983
2.250542e-12
0.0081298983
3.5665522e-12
0.0081298983
1.9060409e-12
0.0081298983
2.5812203e-12
0.0081298983
1.0019303e-12
0.0081298983
1.7622249e-12
0.0081298983
4.7543285e-13
0.0081298983
1.2351724e-12
0.0081298983
1.5221009e-13
0.0081298983
9.4845148e-13
0.0081298983
-3.8645343e-14
0.0081298983
7.3164226e-13
0.0081298983
-2.4082498e-13
0.0081298983
6.3546946e-13
0.0081298983
-3.1190102e-13
0.0081298983
5.43238e-13
0.0081298983
-4.0633918e-13
0.0081298983
5.3011107e-13
0.0081298983
-3.96736e-13
0.0081298983
4.8964246e-13
0.0081298983
-4.433329e-13
0.0081298983
5.1013995e-13
0.0081298983
-4.0364116e-13
0.0081298983
4.9545859e-13
0.0081298983
-4.2504492e-13
0.0081298983
5.4156314e-13
0.0081298983
-3.5511657e-13
0.0081298983
5.6007827e-13
0.0081298983
-3.3185698e-13
0.0081298983
6.5624082e-13
0.0081298983
-1.6644434e-13
0.0081298983
7.6855067e-13
0.0081298983
-3.1093749e-14
0.0081298983
1.0396271e-12
0.0081298983
2.5679655e-13
0.0081298983
1.4392579e-12
0.0081298983
6.2612763e-13
0.0081298983
2.1649932e-12
0.0081298983
1.3702697e-12
0.0081298983
3.36861e-12
0.0081298983
2.6852861e-12
0.0081298983
5.6749565e-12
0.0081298983
5.8511172e-12
0.0081298983
1.1599171e-11
0.0081298983
1.4458612e-11
0.0081298983
2.493244e-11
0.0081298983
3.1197061e-11
0.0081298983
4.8126226e-11
0.0081298983
6.3783731e-11
0.0081298984
8.9382172e-11
1.1427685e-10
0.0085501846
4.3734699e-11
0.0085585791
6.3745603e-11
0.0085707781
-1.121587e-10
0.0085832031
-2.4360118e-10
0.0085942891
-1.8120312e-10
0.0086041099
-1.13599e-10
0.0086130055
-1.004729e-10
0.00862108
-1.3128396e-10
0.0086283038
-1.2082552e-10
0.0086346823
-8.1831147e-11
0.0086402842
-3.5265336e-11
0.0086451981
-7.79694e-12
0.0086495019
1.5082661e-11
0.0086532584
2.5503075e-11
0.008656523
3.9725753e-11
0.0086593463
4.4056754e-11
0.0086617752
4.8196299e-11
0.0086638517
4.4121752e-11
0.0086656136
4.3772165e-11
0.0086670948
4.24069e-11
0.0086683264
4.7769728e-11
0.0086693372
5.4784571e-11
0.0086701542
6.6768896e-11
0.008670803
8.0214924e-11
0.0086713081
9.5626901e-11
0.0086716926
1.11319e-10
0.0086719779
1.2620125e-10
0.0086721839
1.4051354e-10
0.0086723281
1.5223649e-10
0.0086724257
1.6326598e-10
0.0086724891
1.6983845e-10
0.0086725287
1.7432752e-10
0.008672552
1.7248575e-10
0.0086725649
1.6932568e-10
0.0086725713
1.568942e-10
0.0086725741
1.4568635e-10
0.0086725749
1.306535e-10
0.0086725748
1.1021129e-10
0.0086725743
8.9285196e-11
0.0086725738
7.1766249e-11
0.0086725734
5.3853808e-11
0.0086725731
4.0356927e-11
0.0086725729
2.7527457e-11
0.0086725728
1.9184082e-11
0.0086725728
1.1232136e-11
0.0086725727
7.3399281e-12
0.0086725727
3.1959863e-12
0.0086725727
2.0250462e-12
0.0086725727
2.4356775e-14
0.0086725727
3.2765717e-13
0.0086725727
-6.5847855e-13
0.0086725727
1.9651202e-13
0.0086725727
-6.2488169e-13
0.0086725727
3.9210957e-13
0.0086725727
-3.0242999e-13
0.0086725727
5.9171175e-13
0.0086725727
-2.6036242e-13
0.0086725727
6.4181908e-13
0.0086725727
-1.6748827e-13
0.0086725727
6.3348828e-13
0.0086725727
-3.1814347e-13
0.0086725727
5.3830598e-13
0.0086725727
-2.880836e-13
0.0086725727
5.1449052e-13
0.0086725727
-4.1926856e-13
0.0086725727
4.5501896e-13
0.0086725727
-3.4871851e-13
0.0086725727
4.7127733e-13
0.0086725727
-4.4630767e-13
0.0086725727
4.4062939e-13
0.0086725727
-3.5215573e-13
0.0086725727
4.777152e-13
0.0086725727
-4.2983542e-13
0.0086725727
4.6781678e-13
0.0086725727
-3.1237841e-13
0.0086725727
5.3273173e-13
0.0086725727
-3.5579974e-13
0.0086725727
5.6827413e-13
0.0086725727
-1.7849001e-13
0.0086725727
7.1383663e-13
0.0086725727
-1.2471585e-13
0.0086725727
8.7231309e-13
0.0086725727
2.072782e-13
0.0086725727
1.2099431e-12
0.0086725727
4.8802686e-13
0.0086725727
1.6653412e-12
0.0086725727
1.1721296e-12
0.0086725727
2.4818662e-12
0.0086725727
2.0433934e-12
0.0086725727
3.6900754e-12
0.0086725727
3.8196921e-12
0.0086725727
6.4039588e-12
0.0086725727
7.50642e-12
0.0086725727
1.1316664e-11
0.0086725728
1.2886516e-11
0.0086725728
1.4606586e-11
0.0086725728
1.5706763e-11
0.0086725728
1.4745756e-11
0.0086725729
1.504706e-11
1.7342806e-11
0.0085501837
-1.7269356e-06
0.0085585781
-8.3931541e-06
0.0085707771
-1.2198854e-05
0.008583202
-1.2425049e-05
0.0085942879
-1.1085841e-05
0.0086041089
-9.8208735e-06
0.0086130045
-8.895804e-06
0.008621079
-8.0747563e-06
0.0086283028
-7.2239784e-06
0.0086346813
-6.3785856e-06
0.0086402832
-5.6018596e-06
0.0086451972
-4.9139465e-06
0.008649501
-4.3036779e-06
0.0086532576
-3.7565047e-06
0.0086565221
-3.2644119e-06
0.0086593455
-2.8232151e-06
0.0086617744
-2.4287725e-06
0.008663851
-2.0764426e-06
0.0086656129
-1.7617594e-06
0.0086670942
-1.4810603e-06
0.0086683258
-1.2314277e-06
0.0086693366
-1.0106136e-06
0.0086701536
-8.1683607e-07
0.0086708025
-6.4869042e-07
0.0086713076
-5.0492229e-07
0.0086716921
-3.8424529e-07
0.0086719775
-2.8514423e-07
0.0086721835
-2.0577938e-07
0.0086723278
-1.4398281e-07
0.0086724253
-9.7325144e-08
0.0086724889
-6.3271384e-08
0.0086725284
-3.9308183e-08
0.0086725518
-2.312232e-08
0.0086725647
-1.2667027e-08
0.0086725712
-6.2753779e-09
0.008672574
-2.5992226e-09
0.0086725748
-6.6851999e-10
0.0086725747
2.3008943e-10
0.0086725743
5.3360899e-10
0.0086725738
5.566519e-10
0.0086725735
4.5730955e-10
0.0086725732
3.3452288e-10
0.008672573
2.1953427e-10
0.0086725729
1.3541774e-10
0.0086725728
7.3757097e-11
0.0086725728
3.8258033e-11
0.0086725728
1.4431632e-11
0.0086725728
4.4504268e-12
0.0086725728
-2.7066957e-12
0.0086725728
-2.6415149e-12
0.0086725728
-4.7048172e-12
0.0086725728
-2.3418055e-12
0.0086725728
-3.3367739e-12
0.0086725728
-9.2116809e-13
0.0086725728
-1.8653779e-12
0.0086725728
-7.3849919e-14
0.0086725728
-1.1809467e-12
0.0086725728
5.2629645e-13
0.0086725728
-7.8197432e-13
0.0086725728
6.354857e-13
0.0086725728
-7.7733746e-13
0.0086725728
7.4257484e-13
0.0086725728
-6.7645343e-13
0.0086725728
6.7838463e-13
0.0086725728
-7.6119937e-13
0.0086725728
7.4869102e-13
0.0086725728
-6.7163916e-13
0.0086725728
6.8484338e-13
0.0086725728
-7.5112447e-13
0.0086725728
7.6238317e-13
0.0086725728
-6.5423944e-13
0.0086725728
7.0640875e-13
0.0086725728
-7.2397533e-13
0.0086725728
7.9665343e-13
0.0086725728
-6.0966082e-13
0.0086725728
7.6255028e-13
0.0086725728
-6.5058076e-13
0.0086725728
8.9107367e-13
0.0086725728
-4.8020141e-13
0.0086725728
9.2252356e-13
0.0086725728
-4.2628938e-13
0.0086725728
1.162227e-12
0.0086725728
-1.1047964e-13
0.0086725728
1.3846624e-12
0.0086725728
1.4019214e-13
0.0086725728
1.9484107e-12
0.0086725728
6.1543731e-13
0.0086725728
2.6390959e-12
0.0086725728
1.1539092e-12
0.0086725728
3.7280157e-12
0.0086725728
2.1317668e-12
0.0086725728
5.2841882e-12
0.0086725728
2.8447543e-12
0.0086725728
5.2340733e-12
0.0086725728
-9.3213974e-13
0.0086725729
-4.8135935e-12
0.0086725729
-1.9286151e-11
0.0086725729
-3.7052959e-11
0.008672573
-6.1480715e-11
-8.3613421e-11
0.008060475
-3.4999911e-06
0.0080676214
-1.5537922e-05
0.0080769248
-2.1502091e-05
0.0080855898
-2.1090098e-05
0.0080928037
-1.8299678e-05
0.0080988128
-1.5829815e-05
0.0081039291
-1.4012152e-05
0.0081082932
-1.2438833e-05
0.0081119723
-1.0903275e-05
0.0081150473
-9.4535101e-06
0.0081176156
-8.1701143e-06
0.0081197685
-7.0667222e-06
0.0081215785
-6.1137105e-06
0.0081231018
-5.2797025e-06
0.0081243829
-4.5454471e-06
0.0081254587
-3.898853e-06
0.0081263595
-3.3294924e-06
0.0081271105
-2.8272663e-06
0.0081277322
-2.3834098e-06
0.0081282422
-1.9909291e-06
0.0081286555
-1.6445596e-06
0.0081289853
-1.3403027e-06
0.0081292438
-1.0751574e-06
0.008129442
-8.4674643e-07
0.0081295902
-6.5300721e-07
0.0081296979
-4.9182323e-07
0.0081297736
-3.6076731e-07
0.008129825
-2.5697374e-07
0.0081298583
-1.7714389e-07
0.0081298787
-1.1770176e-07
0.0081298905
-7.4967997e-08
0.0081298968
-4.5426367e-08
0.0081298996
-2.5852692e-08
0.0081299005
-1.3523519e-08
0.0081299005
-6.1950423e-09
0.0081299001
-2.1476299e-09
0.0081298996
-1.4314502e-10
0.0081298992
6.7584413e-10
0.0081298989
8.7404994e-10
0.0081298987
7.817493e-10
0.0081298985
6.0042396e-10
0.0081298985
4.0981605e-10
0.0081298984
2.6019898e-10
0.0081298984
1.4738756e-10
0.0081298984
7.8609054e-11
0.0081298984
3.2838904e-11
0.0081298985
1.1644375e-11
0.0081298985
-2.563089e-12
0.0081298985
-4.3428944e-12
0.0081298985
-7.9757325e-12
0.0081298985
-4.6857497e-12
0.0081298985
-6.070189e-12
0.0081298985
-2.3492108e-12
0.0081298985
-3.5651043e-12
0.0081298985
-6.9996547e-13
0.0081298985
-2.1935469e-12
0.0081298985
2.1379933e-13
0.0081298985
-1.399653e-12
0.0081298985
7.0033991e-13
0.0081298985
-1.2546635e-12
0.0081298985
8.8167793e-13
0.0081298985
-1.0475893e-12
0.0081298985
9.3579359e-13
0.0081298985
-1.1197968e-12
0.0081298985
9.7373939e-13
0.0081298985
-9.8358776e-13
0.0081298985
9.8497246e-13
0.0081298985
-1.0806515e-12
0.0081298985
1.0083667e-12
0.0081298985
-9.5268552e-13
0.0081298985
1.0136603e-12
0.0081298985
-1.0518189e-12
0.0081298985
1.0393996e-12
0.0081298985
-9.1757405e-13
0.0081298985
1.0540728e-12
0.0081298985
-1.0014716e-12
0.0081298985
1.1018242e-12
0.0081298985
-8.3513139e-13
0.0081298985
1.1549796e-12
0.0081298985
-8.6437382e-13
0.0081298985
1.2697263e-12
0.0081298985
-5.9816362e-13
0.0081298985
1.421535e-12
0.0081298985
-4.5754764e-13
0.0081298985
1.6882524e-12
0.0081298985
1.1375037e-14
0.0081298985
2.0418954e-12
0.0081298985
4.0082713e-13
0.0081298985
2.5203122e-12
0.0081298985
1.021631e-12
0.0081298985
2.8520189e-12
0.0081298985
1.2016295e-12
0.0081298985
1.0145482e-12
0.0081298985
-2.9718168e-12
0.0081298985
-1.0109552e-11
0.0081298985
-2.1990725e-11
0.0081298985
-4.6043172e-11
0.0081298986
-7.7439067e-11
0.0081298986
-1.2633151e-10
-1.6992457e-10
0.0069811616
-4.9165327e-06
0.006984296
-1.8671131e-05
0.0069864278
-2.3633604e-05
0.0069869207
-2.1583026e-05
0.0069863051
-1.7683883e-05
0.0069850379
-1.4562472e-05
0.0069833782
-1.2352566e-05
0.0069815047
-1.0565444e-05
0.0069795672
-8.9657524e-06
0.0069776737
-7.5599576e-06
0.0069758869
-6.3832895e-06
0.0069742378
-5.4175266e-06
0.0069727399
-4.6156085e-06
0.0069713966
-3.9363438e-06
0.0069702051
-3.3537559e-06
0.0069691577
-2.8513348e-06
0.0069682446
-2.4162054e-06
0.0069674548
-2.0373646e-06
0.0069667775
-1.7059228e-06
0.006966202
-1.4152113e-06
0.006965718
-1.1604236e-06
0.006965316
-9.3810171e-07
0.0069649867
-7.4571653e-07
0.0069647215
-5.8130273e-07
0.0069645118
-4.4312783e-07
0.0069643495
-3.2939589e-07
0.006964227
-2.3805257e-07
0.0069641369
-1.6670986e-07
0.0069640726
-1.1269271e-07
0.0069640282
-7.3168473e-08
0.0069639986
-4.5314661e-08
0.0069639798
-2.648803e-08
0.0069639684
-1.4344759e-08
0.0069639619
-6.9405704e-09
0.0069639585
-2.7212599e-09
0.0069639569
-5.2526607e-10
0.0069639564
4.3353492e-10
0.0069639563
7.4315132e-10
0.0069639565
7.2528006e-10
0.0069639567
5.7977431e-10
0.0069639569
4.1160652e-10
0.0069639571
2.6565032e-10
0.0069639572
1.5711761e-10
0.0069639573
8.3646028e-11
0.0069639573
3.8714673e-11
0.0069639574
1.2770998e-11
0.0069639574
1.2515659e-13
0.0069639574
-5.4408174e-12
0.0069639574
-6.6028431e-12
0.0069639574
-6.471903e-12
0.0069639574
-5.1333361e-12
0.0069639574
-4.0477663e-12
0.0069639574
-2.6702362e-12
0.0069639574
-2.1595743e-12
0.0069639574
-1.3141887e-12
0.0069639574
-1.0402629e-12
0.0069639574
-4.4383888e-13
0.0069639574
-5.6405914e-13
0.0069639574
-1.8566701e-13
0.0069639574
-3.3973821e-13
0.0069639574
6.448608e-14
0.0069639574
-2.6399914e-13
0.0069639574
3.4759449e-14
0.0069639574
-2.1174713e-13
0.0069639574
1.5164035e-13
0.0069639574
-1.8905485e-13
0.0069639574
8.3391361e-14
0.0069639574
-1.6854806e-13
0.0069639574
1.8804945e-13
0.0069639574
-1.5758158e-13
0.0069639574
1.0755338e-13
0.0069639574
-1.4381203e-13
0.0069639574
2.1471963e-13
0.0069639574
-1.3037406e-13
0.0069639574
1.3608028e-13
0.0069639574
-1.0988509e-13
0.0069639574
2.6301735e-13
0.0069639574
-7.7486951e-14
0.0069639574
2.0491414e-13
0.0069639574
-2.8347062e-14
0.0069639574
3.84012e-13
0.0069639574
6.6253285e-14
0.0069639574
3.7012551e-13
0.0069639574
2.4137026e-13
0.0069639574
6.37191e-13
0.0069639574
4.7154974e-13
0.0069639574
7.1230711e-13
0.0069639574
8.0747999e-13
0.0069639574
1.0402408e-12
0.0069639574
1.1174718e-12
0.0069639574
7.3451388e-13
0.0069639574
4.699171e-13
0.0069639574
-2.3189985e-12
0.0069639574
-5.563392e-12
0.0069639574
-1.5445798e-11
0.0069639574
-2.4950065e-11
0.0069639574
-5.6366865e-11
0.0069639574
-8.8355896e-11
0.0069639574
-1.583347e-10
-2.1347623e-10
0.0051131933
-4.3253025e-06
0.005107524
-1.3000361e-05
0.0050981227
-1.4231762e-05
0.0050880102
-1.1470506e-05
0.0050787115
-8.3851102e-06
0.0050704542
-6.3051669e-06
0.0050631265
-5.024862e-06
0.0050566709
-4.1098632e-06
0.0050510679
-3.3627913e-06
0.0050462604
-2.7522792e-06
0.0050421511
-2.2738819e-06
0.0050386371
-1.9032987e-06
0.00503563
-1.6082996e-06
0.0050330585
-1.3646822e-06
0.0050308637
-1.1587209e-06
0.0050289954
-9.8274076e-07
0.0050274107
-8.3127262e-07
0.0050260735
-6.998739e-07
0.0050249529
-5.8506627e-07
0.0050240224
-4.8438593e-07
0.0050232583
-3.9613685e-07
0.0050226397
-3.1916439e-07
0.0050221469
-2.5263573e-07
0.0050217617
-1.9591078e-07
0.0050214672
-1.4840591e-07
0.0050212475
-1.0949202e-07
0.0050210881
-7.8431793e-08
0.0050209759
-5.4351867e-08
0.0050208997
-3.6281603e-08
0.0050208498
-2.3188798e-08
0.0050208187
-1.4074366e-08
0.0050208003
-8.0014834e-09
0.0050207902
-4.1586567e-09
0.0050207853
-1.8634399e-09
0.0050207832
-5.8891065e-10
0.0050207827
1.6671297e-11
0.0050207829
2.5156768e-10
0.0050207834
3.0757401e-10
0.0050207839
2.6993089e-10
0.0050207843
2.0568581e-10
0.0050207846
1.3824398e-10
0.0050207848
8.7030978e-11
0.0050207849
4.7598844e-11
0.0050207849
2.4694673e-11
0.005020785
8.6774538e-12
0.005020785
2.007152e-12
0.005020785
-2.5828364e-12
0.005020785
-2.3754018e-12
0.005020785
-4.0170634e-12
0.005020785
-2.0403065e-12
0.005020785
-2.9278895e-12
0.005020785
-8.679401e-13
0.005020785
-1.8528009e-12
0.005020785
-2.0442787e-13
0.005020785
-1.2340007e-12
0.005020785
3.3388511e-13
0.005020785
-9.4111035e-13
0.005020785
4.7402736e-13
0.005020785
-8.1396628e-13
0.005020785
6.3920258e-13
0.005020785
-7.4709312e-13
0.005020785
6.0593439e-13
0.005020785
-7.2851847e-13
0.005020785
6.9759782e-13
0.005020785
-7.0638049e-13
0.005020785
6.3800768e-13
0.005020785
-7.0499416e-13
0.005020785
7.1715907e-13
0.005020785
-6.9018357e-13
0.005020785
6.5148283e-13
0.005020785
-6.9385947e-13
0.005020785
7.2792833e-13
0.005020785
-6.792629e-13
0.005020785
6.6256201e-13
0.005020785
-6.820048e-13
0.005020785
7.4223745e-13
0.005020785
-6.6109818e-13
0.005020785
6.8408766e-13
0.005020785
-6.552206e-13
0.005020785
7.7671515e-13
0.005020785
-6.1476662e-13
0.005020785
7.4115527e-13
0.005020785
-5.8488633e-13
0.005020785
8.6886173e-13
0.005020785
-5.0937456e-13
0.005020785
8.7757206e-13
0.005020785
-4.4791778e-13
0.005020785
1.0595775e-12
0.005020785
-3.2013615e-13
0.005020785
1.137273e-12
0.005020785
-6.2618065e-13
0.005020785
4.0991417e-13
0.005020785
-3.4036382e-12
0.005020785
-3.680079e-12
0.005020785
-1.0564913e-11
0.005020785
-1.6416398e-11
0.0050207849
-3.6817219e-11
0.0050207849
-5.6273672e-11
0.0050207849
-1.2433635e-10
-1.6680653e-10
0.0021695714
0.0021565715
0.0021423398
0.0021308693
0.0021224842
0.002116179
0.0021111542
0.0021070443
0.0021036816
0.0021009294
0.0020986556
0.0020967524
0.0020951442
0.0020937797
0.0020926211
0.0020916385
0.0020908074
0.0020901077
0.0020895227
0.0020890385
0.0020886425
0.0020883235
0.002088071
0.0020878752
0.0020877269
0.0020876175
0.0020875392
0.0020874849
0.0020874487
0.0020874256
0.0020874116
0.0020874036
0.0020873995
0.0020873977
0.0020873971
0.0020873971
0.0020873974
0.0020873977
0.002087398
0.0020873982
0.0020873984
0.0020873985
0.0020873985
0.0020873985
0.0020873986
0.0020873986
0.0020873986
0.0020873985
0.0020873985
0.0020873985
0.0020873985
0.0020873985
0.0020873985
0.0020873985
0.0020873985
0.0020873985
0.0020873985
0.0020873985
0.0020873985
0.0020873985
0.0020873985
0.0020873985
0.0020873985
0.0020873985
0.0020873985
0.0020873985
0.0020873985
0.0020873985
0.0020873985
0.0020873985
0.0020873985
0.0020873985
0.0020873985
0.0020873985
0.0020873985
0.0020873985
0.0020873985
0.0020873985
0.0020873985
0.0020873985
0.0020873985
0.0020873985
0.0020873985
0.0020873985
0.0020873985
0.0020873985
0.0020873985
0.0020873985
0.0020873985
0.0020873985
0.0020873985
0.0020873985
0.0020873985
0.0020873985
0.0020873985
0.0020873985
0.0020873985
0.0020873984
0.0020873983
)
;

boundaryField
{
    top
    {
        type            calculated;
        value           uniform 0;
    }
    inlet
    {
        type            calculated;
        value           nonuniform List<scalar> 10(-0.0021738954 -0.0051137848 -0.0069797458 -0.0080587024 -0.0085484559 -0.0085484549 -0.0080587004 -0.0069797433 -0.0051137831 -0.0021738959);
    }
    outlet
    {
        type            calculated;
        value           nonuniform List<scalar> 10(0.002087398 0.0050207845 0.0069639571 0.0081298985 0.008672573 0.0086725731 0.0081298987 0.0069639575 0.0050207848 0.0020873981);
    }
    bottom
    {
        type            calculated;
        value           uniform 0;
    }
    back
    {
        type            empty;
        value           nonuniform 0();
    }
    front
    {
        type            empty;
        value           nonuniform 0();
    }
}


// ************************************************************************* //
