/*--------------------------------*- C++ -*----------------------------------*\
| =========                 |                                                 |
| \\      /  F ield         | OpenFOAM: The Open Source CFD Toolbox           |
|  \\    /   O peration     | Version:  4.1                                   |
|   \\  /    A nd           | Web:      www.OpenFOAM.org                      |
|    \\/     M anipulation  |                                                 |
\*---------------------------------------------------------------------------*/
FoamFile
{
    version     2.0;
    format      ascii;
    class       volVectorField;
    location    "7";
    object      U;
}
// * * * * * * * * * * * * * * * * * * * * * * * * * * * * * * * * * * * * * //

dimensions      [0 1 -1 0 0 0 0];

internalField   nonuniform List<vector> 
1000
(
(0.22499368 0.00033760756 0)
(0.22421704 0.00087757682 0)
(0.22263212 0.00086633303 0)
(0.22120525 0.00059983887 0)
(0.22016806 0.00037055171 0)
(0.21942171 0.0002462788 0)
(0.21884509 0.000184466 0)
(0.21837612 0.00014468975 0)
(0.21799112 0.00011340144 0)
(0.21767635 8.9557581e-05 0)
(0.21741803 7.2677828e-05 0)
(0.21720337 6.0691657e-05 0)
(0.21702277 5.1498726e-05 0)
(0.21686973 4.3893603e-05 0)
(0.21673977 3.7391235e-05 0)
(0.21662946 3.1784551e-05 0)
(0.21653601 2.6918029e-05 0)
(0.21645713 2.2653811e-05 0)
(0.21639095 1.8891519e-05 0)
(0.21633588 1.5568302e-05 0)
(0.21629056 1.2646276e-05 0)
(0.21625378 1.0099501e-05 0)
(0.2162244 7.9080641e-06 0)
(0.21620139 6.0538871e-06 0)
(0.21618376 4.5177311e-06 0)
(0.21617058 3.2763842e-06 0)
(0.216161 2.301467e-06 0)
(0.21615426 1.5599129e-06 0)
(0.21614967 1.0155144e-06 0)
(0.21614667 6.3127553e-07 0)
(0.21614481 3.712597e-07 0)
(0.21614371 2.0345412e-07 0)
(0.21614311 1.008059e-07 0)
(0.21614282 4.2280132e-08 0)
(0.2161427 1.1542603e-08 0)
(0.21614268 -3.8219224e-09 0)
(0.2161427 -1.0056779e-08 0)
(0.21614273 -1.0360589e-08 0)
(0.21614276 -8.4439294e-09 0)
(0.21614279 -5.9721109e-09 0)
(0.2161428 -3.8593011e-09 0)
(0.21614282 -2.2231735e-09 0)
(0.21614282 -1.1850593e-09 0)
(0.21614283 -4.978327e-10 0)
(0.21614283 -1.7109204e-10 0)
(0.21614283 4.6054648e-11 0)
(0.21614283 8.5338534e-11 0)
(0.21614283 1.365496e-10 0)
(0.21614283 9.2428012e-11 0)
(0.21614283 1.0740259e-10 0)
(0.21614283 5.1369529e-11 0)
(0.21614283 6.8612181e-11 0)
(0.21614283 1.9609566e-11 0)
(0.21614283 4.5830729e-11 0)
(0.21614283 9.0675546e-14 0)
(0.21614283 3.1730032e-11 0)
(0.21614283 -1.0018753e-11 0)
(0.21614283 2.6594472e-11 0)
(0.21614283 -1.4481317e-11 0)
(0.21614283 2.3231096e-11 0)
(0.21614283 -1.5732177e-11 0)
(0.21614283 2.2821185e-11 0)
(0.21614283 -1.7481862e-11 0)
(0.21614283 2.0721723e-11 0)
(0.21614283 -1.8178212e-11 0)
(0.21614283 2.0878376e-11 0)
(0.21614283 -1.919089e-11 0)
(0.21614283 1.9566467e-11 0)
(0.21614283 -1.9087428e-11 0)
(0.21614283 2.0345585e-11 0)
(0.21614283 -1.9533831e-11 0)
(0.21614283 1.940665e-11 0)
(0.21614283 -1.9130826e-11 0)
(0.21614283 2.0408324e-11 0)
(0.21614283 -1.9311206e-11 0)
(0.21614283 1.9773043e-11 0)
(0.21614283 -1.8423044e-11 0)
(0.21614283 2.1324842e-11 0)
(0.21614283 -1.7936117e-11 0)
(0.21614283 2.1354832e-11 0)
(0.21614283 -1.6471123e-11 0)
(0.21614283 2.316729e-11 0)
(0.21614283 -1.5749314e-11 0)
(0.21614283 2.3460556e-11 0)
(0.21614283 -1.3069229e-11 0)
(0.21614283 2.8025154e-11 0)
(0.21614283 -5.270613e-12 0)
(0.21614283 3.7550979e-11 0)
(0.21614283 1.6582778e-11 0)
(0.21614283 6.5895162e-11 0)
(0.21614283 6.8749713e-11 0)
(0.21614283 1.370634e-10 0)
(0.21614283 2.0920201e-10 0)
(0.21614283 3.7045434e-10 0)
(0.21614283 7.2971541e-10 0)
(0.21614283 1.2699564e-09 0)
(0.21614282 2.4368152e-09 0)
(0.21614282 3.9456336e-09 0)
(0.2161428 8.0082132e-09 0)
(0.21614279 1.0258773e-08 0)
(0.5292672 0.00046030467 0)
(0.52985252 0.0017280847 0)
(0.52871017 0.0021573209 0)
(0.52736945 0.001898613 0)
(0.52630032 0.0014714699 0)
(0.52542647 0.0011416123 0)
(0.52464184 0.00092314607 0)
(0.52392714 0.00076154492 0)
(0.52329694 0.00062683855 0)
(0.52275628 0.00051460062 0)
(0.52229626 0.00042517571 0)
(0.52190381 0.00035515946 0)
(0.52156789 0.00029922869 0)
(0.5212803 0.00025311447 0)
(0.52103458 0.00021427269 0)
(0.52082518 0.0001812076 0)
(0.52064726 0.00015284318 0)
(0.52049672 0.00012830966 0)
(0.52037011 0.00010693686 0)
(0.52026447 8.8247851e-05 0)
(0.52017723 7.1917143e-05 0)
(0.5201061 5.7720221e-05 0)
(0.52004898 4.5495822e-05 0)
(0.52000391 3.511667e-05 0)
(0.51996908 2.6465701e-05 0)
(0.51994277 1.9416506e-05 0)
(0.51992343 1.3822211e-05 0)
(0.51990961 9.5130237e-06 0)
(0.51990006 6.3020031e-06 0)
(0.51989369 3.9951225e-06 0)
(0.51988963 2.4030714e-06 0)
(0.51988716 1.3525749e-06 0)
(0.51988575 6.9427991e-07 0)
(0.51988501 3.0682015e-07 0)
(0.51988467 9.6380457e-08 0)
(0.51988455 -6.2819256e-09 0)
(0.51988454 -4.7205677e-08 0)
(0.51988458 -5.4567324e-08 0)
(0.51988462 -4.6978065e-08 0)
(0.51988467 -3.4882229e-08 0)
(0.5198847 -2.3402808e-08 0)
(0.51988472 -1.4336072e-08 0)
(0.51988474 -8.0369097e-09 0)
(0.51988474 -3.9913634e-09 0)
(0.51988475 -1.6641228e-09 0)
(0.51988475 -3.9779795e-10 0)
(0.51988475 1.6224578e-10 0)
(0.51988475 3.9302339e-10 0)
(0.51988475 3.9872003e-10 0)
(0.51988475 3.6944556e-10 0)
(0.51988475 2.7359534e-10 0)
(0.51988475 2.2403099e-10 0)
(0.51988475 1.4837175e-10 0)
(0.51988475 1.2845501e-10 0)
(0.51988475 7.4638116e-11 0)
(0.51988475 7.0223993e-11 0)
(0.51988475 3.4835869e-11 0)
(0.51988475 4.4802005e-11 0)
(0.51988475 1.4997649e-11 0)
(0.51988475 2.5055486e-11 0)
(0.51988475 3.5515498e-12 0)
(0.51988475 1.9707601e-11 0)
(0.51988475 -1.7597286e-12 0)
(0.51988475 1.1493183e-11 0)
(0.51988475 -4.9514955e-12 0)
(0.51988475 1.3043355e-11 0)
(0.51988475 -5.7111562e-12 0)
(0.51988475 8.5247434e-12 0)
(0.51988475 -6.7787037e-12 0)
(0.51988475 1.1634309e-11 0)
(0.51988475 -6.5955401e-12 0)
(0.51988475 8.0476083e-12 0)
(0.51988475 -6.8380192e-12 0)
(0.51988475 1.1991137e-11 0)
(0.51988475 -5.9110386e-12 0)
(0.51988475 9.2083615e-12 0)
(0.51988475 -5.5569395e-12 0)
(0.51988475 1.41625e-11 0)
(0.51988475 -3.3681796e-12 0)
(0.51988475 1.372025e-11 0)
(0.51988475 3.2797658e-14 0)
(0.51988475 2.3711728e-11 0)
(0.51988475 8.1692829e-12 0)
(0.51988475 3.0626684e-11 0)
(0.51988475 2.1733244e-11 0)
(0.51988475 5.2686764e-11 0)
(0.51988475 5.1032818e-11 0)
(0.51988475 8.4696859e-11 0)
(0.51988475 1.1261424e-10 0)
(0.51988475 1.6497702e-10 0)
(0.51988475 2.5901494e-10 0)
(0.51988475 3.4863261e-10 0)
(0.51988475 6.4026327e-10 0)
(0.51988475 9.3081561e-10 0)
(0.51988475 1.8743721e-09 0)
(0.51988475 2.8742082e-09 0)
(0.51988474 5.5308265e-09 0)
(0.51988475 8.2516103e-09 0)
(0.51988472 1.5510922e-08 0)
(0.51988474 2.146183e-08 0)
(0.72226922 0.00037285974 0)
(0.72410217 0.0016832579 0)
(0.72388459 0.0023759201 0)
(0.72345035 0.0023607598 0)
(0.72332308 0.0020529586 0)
(0.72330867 0.0017517549 0)
(0.72321797 0.0015218823 0)
(0.72303651 0.0013298267 0)
(0.72282115 0.0011509232 0)
(0.72261193 0.00098597457 0)
(0.72241937 0.00084188535 0)
(0.72224216 0.00071990718 0)
(0.72207931 0.00061659848 0)
(0.72193169 0.0005279585 0)
(0.72180003 0.00045121474 0)
(0.72168403 0.00038455639 0)
(0.72158266 0.00032653726 0)
(0.72149467 0.00027586702 0)
(0.72141888 0.00023145278 0)
(0.72135419 0.00019244297 0)
(0.72129951 0.00015820633 0)
(0.72125381 0.0001282814 0)
(0.72121611 0.00010232824 0)
(0.72118549 8.0084672e-05 0)
(0.72116104 6.1324056e-05 0)
(0.72114191 4.5816387e-05 0)
(0.72112728 3.3300521e-05 0)
(0.72111638 2.347156e-05 0)
(0.72110848 1.5984577e-05 0)
(0.72110293 1.0469748e-05 0)
(0.72109917 6.5545885e-06 0)
(0.72109671 3.8860209e-06 0)
(0.72109518 2.1483544e-06 0)
(0.72109428 1.0752915e-06 0)
(0.72109378 4.5398235e-07 0)
(0.72109353 1.2437404e-07 0)
(0.72109342 -2.8382491e-08 0)
(0.72109339 -8.3311237e-08 0)
(0.72109339 -8.897024e-08 0)
(0.72109341 -7.3977158e-08 0)
(0.72109343 -5.3742471e-08 0)
(0.72109344 -3.5405103e-08 0)
(0.72109346 -2.1369511e-08 0)
(0.72109346 -1.1773587e-08 0)
(0.72109347 -5.7570289e-09 0)
(0.72109347 -2.3212321e-09 0)
(0.72109347 -5.3395904e-10 0)
(0.72109347 2.6373966e-10 0)
(0.72109347 5.4784893e-10 0)
(0.72109347 5.636164e-10 0)
(0.72109347 4.9029619e-10 0)
(0.72109347 3.7981876e-10 0)
(0.72109347 2.9409977e-10 0)
(0.72109347 2.1433542e-10 0)
(0.72109347 1.6280886e-10 0)
(0.72109347 1.1557483e-10 0)
(0.72109347 9.3614741e-11 0)
(0.72109347 6.8514552e-11 0)
(0.72109347 5.5325849e-11 0)
(0.72109347 3.6854283e-11 0)
(0.72109347 3.3253284e-11 0)
(0.72109347 2.2488285e-11 0)
(0.72109347 1.9325355e-11 0)
(0.72109347 9.6692252e-12 0)
(0.72109347 1.2345985e-11 0)
(0.72109347 6.8115371e-12 0)
(0.72109347 7.7731344e-12 0)
(0.72109347 1.2142737e-12 0)
(0.72109347 6.4800879e-12 0)
(0.72109347 2.827041e-12 0)
(0.72109347 5.3286052e-12 0)
(0.72109347 -5.8963749e-14 0)
(0.72109347 6.2843179e-12 0)
(0.72109347 3.7119985e-12 0)
(0.72109347 7.2676499e-12 0)
(0.72109347 3.2691012e-12 0)
(0.72109347 1.1137495e-11 0)
(0.72109347 1.0547676e-11 0)
(0.72109347 1.6635269e-11 0)
(0.72109347 1.549756e-11 0)
(0.72109347 2.7492063e-11 0)
(0.72109347 3.0280423e-11 0)
(0.72109347 4.3671125e-11 0)
(0.72109347 4.6857603e-11 0)
(0.72109347 7.3014845e-11 0)
(0.72109347 8.2772418e-11 0)
(0.72109347 1.240898e-10 0)
(0.72109347 1.3899535e-10 0)
(0.72109347 2.2529866e-10 0)
(0.72109347 2.6035497e-10 0)
(0.72109347 4.4548764e-10 0)
(0.72109347 5.313573e-10 0)
(0.72109347 1.0087827e-09 0)
(0.72109347 1.3973964e-09 0)
(0.72109347 2.6507827e-09 0)
(0.72109347 3.8362377e-09 0)
(0.72109347 6.7248181e-09 0)
(0.72109348 9.9596505e-09 0)
(0.72109345 1.6035356e-08 0)
(0.72109349 2.1819689e-08 0)
(0.83380819 0.0002289247 0)
(0.83635815 0.0011424089 0)
(0.83664188 0.0017128147 0)
(0.83678637 0.0017937681 0)
(0.83741163 0.0016332929 0)
(0.83822084 0.0014501933 0)
(0.8389079 0.0013055506 0)
(0.83941557 0.0011796076 0)
(0.83980824 0.0010537489 0)
(0.84014037 0.00092933404 0)
(0.84042864 0.0008141295 0)
(0.84067388 0.00071171633 0)
(0.84087869 0.00062124425 0)
(0.84104944 0.00054072375 0)
(0.84119276 0.00046876471 0)
(0.84131349 0.00040454179 0)
(0.84141498 0.00034735059 0)
(0.84149983 0.00029645604 0)
(0.8415703 0.00025115679 0)
(0.84162836 0.00021086283 0)
(0.84167571 0.00017510877 0)
(0.84171378 0.00014353687 0)
(0.84174387 0.00011587204 0)
(0.84176717 9.1897992e-05 0)
(0.84178478 7.1426745e-05 0)
(0.84179772 5.4267114e-05 0)
(0.84180694 4.0197348e-05 0)
(0.84181327 2.8949855e-05 0)
(0.84181744 2.0210071e-05 0)
(0.84182004 1.3627541e-05 0)
(0.84182157 8.8359358e-06 0)
(0.84182239 5.4752329e-06 0)
(0.84182277 3.2126943e-06 0)
(0.84182291 1.7577434e-06 0)
(0.84182291 8.7071356e-07 0)
(0.84182286 3.6410632e-07 0)
(0.8418228 9.933102e-08 0)
(0.84182274 -2.1540291e-08 0)
(0.84182269 -6.3818968e-08 0)
(0.84182266 -6.7613895e-08 0)
(0.84182264 -5.5565933e-08 0)
(0.84182262 -3.994376e-08 0)
(0.84182262 -2.591249e-08 0)
(0.84182261 -1.5449357e-08 0)
(0.84182261 -8.2969077e-09 0)
(0.84182261 -3.9920457e-09 0)
(0.84182261 -1.4776313e-09 0)
(0.84182261 -3.0319458e-10 0)
(0.84182261 2.9224784e-10 0)
(0.84182261 3.9877543e-10 0)
(0.84182261 4.582145e-10 0)
(0.84182261 3.3300648e-10 0)
(0.84182261 3.166787e-10 0)
(0.84182261 1.864036e-10 0)
(0.84182261 1.9362576e-10 0)
(0.84182261 9.2629904e-11 0)
(0.84182261 1.2319443e-10 0)
(0.84182262 3.8912105e-11 0)
(0.84182261 8.2894966e-11 0)
(0.84182262 1.1045468e-11 0)
(0.84182261 6.0625978e-11 0)
(0.84182262 -6.4713137e-12 0)
(0.84182261 4.6964253e-11 0)
(0.84182262 -1.488021e-11 0)
(0.84182261 3.9613546e-11 0)
(0.84182262 -2.1761368e-11 0)
(0.84182261 3.4613266e-11 0)
(0.84182262 -2.3783148e-11 0)
(0.84182261 3.305141e-11 0)
(0.84182262 -2.6036678e-11 0)
(0.84182261 3.2009566e-11 0)
(0.84182262 -2.4993767e-11 0)
(0.84182261 3.3047151e-11 0)
(0.84182262 -2.4941902e-11 0)
(0.84182261 3.4461516e-11 0)
(0.84182262 -2.130538e-11 0)
(0.84182261 3.9008552e-11 0)
(0.84182262 -1.7399452e-11 0)
(0.84182261 4.5638506e-11 0)
(0.84182262 -8.3711688e-12 0)
(0.84182261 5.7913464e-11 0)
(0.84182262 4.9710068e-12 0)
(0.84182261 7.7998182e-11 0)
(0.84182262 3.1976903e-11 0)
(0.84182261 1.1481965e-10 0)
(0.84182262 7.4852404e-11 0)
(0.84182261 1.7832597e-10 0)
(0.84182262 1.5165765e-10 0)
(0.84182261 2.973115e-10 0)
(0.84182262 2.9152244e-10 0)
(0.84182261 5.3267947e-10 0)
(0.84182262 6.0207588e-10 0)
(0.84182261 1.134286e-09 0)
(0.84182262 1.5113582e-09 0)
(0.84182261 2.6617338e-09 0)
(0.84182262 3.6298968e-09 0)
(0.84182261 5.7781453e-09 0)
(0.84182263 8.2061785e-09 0)
(0.8418226 1.2034778e-08 0)
(0.84182265 1.5903282e-08 0)
(0.88441991 7.6054295e-05 0)
(0.887288 0.00039744942 0)
(0.88775393 0.00061152945 0)
(0.88811985 0.00065396311 0)
(0.88908534 0.00060545002 0)
(0.8903112 0.00054531323 0)
(0.89142298 0.00049793757 0)
(0.89233109 0.00045656971 0)
(0.89309776 0.00041387694 0)
(0.89378121 0.00037014579 0)
(0.89439724 0.00032849097 0)
(0.89494357 0.00029059741 0)
(0.89542102 0.00025641456 0)
(0.89583633 0.0002253823 0)
(0.89619747 0.00019713368 0)
(0.89651089 0.00017150006 0)
(0.89678155 0.00014833751 0)
(0.89701373 0.00012746327 0)
(0.89721143 0.00010868201 0)
(0.89737838 9.1820393e-05 0)
(0.89751796 7.6736988e-05 0)
(0.89763327 6.3319787e-05 0)
(0.89772715 5.1480136e-05 0)
(0.89780234 4.1146845e-05 0)
(0.89786141 3.2256605e-05 0)
(0.89790682 2.4743081e-05 0)
(0.8979409 1.8526321e-05 0)
(0.8979658 1.3506318e-05 0)
(0.89798345 9.5617063e-06 0)
(0.89799556 6.5535669e-06 0)
(0.89800357 4.3331371e-06 0)
(0.89800864 2.7509172e-06 0)
(0.8980117 1.6660649e-06 0)
(0.89801343 9.5303367e-07 0)
(0.89801433 5.0620332e-07 0)
(0.89801474 2.4149013e-07 0)
(0.89801489 9.5070634e-08 0)
(0.8980149 2.210281e-08 0)
(0.89801486 -9.3149835e-09 0)
(0.8980148 -1.9019935e-08 0)
(0.89801475 -1.8564596e-08 1.8728698e-33)
(0.89801472 -1.4463734e-08 0)
(0.89801469 -9.8455588e-09 0)
(0.89801468 -6.0591846e-09 0)
(0.89801467 -3.3525398e-09 0)
(0.89801466 -1.6596448e-09 0)
(0.89801466 -6.5376364e-10 0)
(0.89801466 -1.6994318e-10 0)
(0.89801466 6.6319649e-11 0)
(0.89801466 1.2860516e-10 0)
(0.89801466 1.6016483e-10 0)
(0.89801466 1.2651018e-10 0)
(0.89801466 1.1953923e-10 0)
(0.89801466 7.7191291e-11 0)
(0.89801466 8.5760817e-11 0)
(0.89801466 4.9236224e-11 0)
(0.89801466 5.8769595e-11 0)
(0.89801466 2.508051e-11 0)
(0.89801466 4.6419876e-11 0)
(0.89801466 1.456213e-11 0)
(0.89801467 3.0065304e-11 0)
(0.89801466 -6.0805326e-13 0)
(0.89801467 2.5574752e-11 0)
(0.89801466 -2.8713984e-12 0)
(0.89801467 1.7065783e-11 0)
(0.89801466 -1.0426603e-11 0)
(0.89801467 1.8647089e-11 0)
(0.89801466 -7.7274882e-12 0)
(0.89801467 1.3845017e-11 0)
(0.89801466 -1.24165e-11 0)
(0.89801467 1.7700722e-11 0)
(0.89801466 -7.7224339e-12 0)
(0.89801467 1.478306e-11 0)
(0.89801466 -1.0542583e-11 0)
(0.89801467 2.0703092e-11 0)
(0.89801466 -3.5565489e-12 0)
(0.89801467 2.0479102e-11 0)
(0.89801466 -3.0064376e-12 0)
(0.89801467 3.0853346e-11 0)
(0.89801466 1.0021154e-11 0)
(0.89801467 3.8956257e-11 0)
(0.89801466 2.3269173e-11 0)
(0.89801467 6.5611394e-11 0)
(0.89801466 5.8905123e-11 0)
(0.89801467 1.0132737e-10 0)
(0.89801466 1.0610019e-10 0)
(0.89801466 1.6915057e-10 0)
(0.89801466 1.9220435e-10 0)
(0.89801466 2.7518372e-10 0)
(0.89801466 3.2503709e-10 0)
(0.89801466 4.7324253e-10 0)
(0.89801466 6.1615965e-10 0)
(0.89801466 9.5157878e-10 2.9509498e-35)
(0.89801467 1.2870279e-09 0)
(0.89801466 1.9020796e-09 0)
(0.89801467 2.3480267e-09 8.852848e-36)
(0.89801466 3.2406068e-09 0)
(0.89801468 4.0463293e-09 0)
(0.89801465 5.3459598e-09 0)
(0.89801471 6.8362783e-09 0)
(0.8844198 -7.605149e-05 0)
(0.88728793 -0.00039744623 0)
(0.88775384 -0.00061154488 0)
(0.88811972 -0.00065399876 0)
(0.88908522 -0.0006054864 0)
(0.89031109 -0.00054534184 0)
(0.89142288 -0.00049796149 0)
(0.89233098 -0.00045659439 0)
(0.89309765 -0.00041389907 0)
(0.8937811 -0.0003701621 0)
(0.89439714 -0.00032849891 0)
(0.89494347 -0.00029059938 0)
(0.89542093 -0.00025641186 0)
(0.89583623 -0.00022537689 0)
(0.89619738 -0.00019712566 0)
(0.89651081 -0.00017149105 0)
(0.89678147 -0.00014832788 0)
(0.89701365 -0.00012745423 0)
(0.89721136 -0.00010867319 0)
(0.89737831 -9.1811793e-05 0)
(0.8975179 -7.672753e-05 0)
(0.8976332 -6.330894e-05 0)
(0.89772709 -5.1467017e-05 0)
(0.89780228 -4.1131064e-05 0)
(0.89786135 -3.223779e-05 0)
(0.89790677 -2.4721138e-05 0)
(0.89794086 -1.8501364e-05 0)
(0.89796576 -1.3478467e-05 0)
(0.89798341 -9.5313963e-06 0)
(0.89799553 -6.5210446e-06 0)
(0.89800354 -4.2991263e-06 0)
(0.89800861 -2.7160204e-06 0)
(0.89801167 -1.6312647e-06 0)
(0.89801341 -9.1897136e-07 0)
(0.89801431 -4.7423435e-07 0)
(0.89801473 -2.1196057e-07 0)
(0.89801488 -6.9203314e-08 0)
(0.89801489 -2.3589478e-11 0)
(0.89801485 2.738158e-08 0)
(0.8980148 3.3480228e-08 0)
(0.89801476 2.9497282e-08 -1.8728698e-33)
(0.89801472 2.2607414e-08 0)
(0.8980147 1.5464097e-08 0)
(0.89801468 9.9280661e-09 0)
(0.89801468 5.6793768e-09 0)
(0.89801467 3.134892e-09 0)
(0.89801467 1.3343673e-09 0)
(0.89801467 5.7073838e-10 0)
(0.89801467 -4.4243783e-11 0)
(0.89801467 -7.4710649e-11 0)
(0.89801467 -2.7397779e-10 0)
(0.89801467 -1.0218859e-10 0)
(0.89801467 -2.2407129e-10 0)
(0.89801467 -1.3834687e-11 0)
(0.89801467 -1.369907e-10 0)
(0.89801467 5.2628964e-11 0)
(0.89801467 -1.005325e-10 0)
(0.89801467 8.1575798e-11 0)
(0.89801467 -7.567687e-11 0)
(0.89801467 8.9138422e-11 0)
(0.89801467 -8.1148952e-11 0)
(0.89801467 8.8645719e-11 0)
(0.89801467 -7.5019963e-11 0)
(0.89801467 8.6303557e-11 0)
(0.89801467 -8.4760682e-11 0)
(0.89801467 8.5127147e-11 0)
(0.89801467 -7.7609867e-11 0)
(0.89801467 8.4527543e-11 0)
(0.89801467 -8.5641163e-11 0)
(0.89801467 8.500451e-11 0)
(0.89801467 -7.705351e-11 0)
(0.89801467 8.5749035e-11 0)
(0.89801467 -8.3714812e-11 0)
(0.89801467 8.7756817e-11 0)
(0.89801467 -7.337762e-11 0)
(0.89801467 9.0737459e-11 0)
(0.89801467 -7.7230331e-11 0)
(0.89801467 9.6600555e-11 0)
(0.89801467 -6.2169348e-11 0)
(0.89801467 1.0637314e-10 0)
(0.89801467 -5.7533083e-11 0)
(0.89801467 1.2331172e-10 0)
(0.89801467 -2.8110514e-11 0)
(0.89801467 1.5102104e-10 0)
(0.89801467 4.9264347e-13 0)
(0.89801467 1.9812106e-10 0)
(0.89801467 6.8013298e-11 0)
(0.89801467 2.7341301e-10 0)
(0.89801467 1.4736776e-10 0)
(0.89801467 3.8356126e-10 0)
(0.89801467 2.8704134e-10 0)
(0.89801467 5.964607e-10 0)
(0.89801467 5.1346841e-10 -2.9509498e-35)
(0.89801468 8.5227578e-10 0)
(0.89801467 5.7567918e-10 0)
(0.89801468 5.0007544e-10 -8.852848e-36)
(0.89801467 -1.1345024e-10 0)
(0.89801469 -1.0999557e-09 0)
(0.89801466 -2.3494479e-09 0)
(0.89801472 -3.4246802e-09 0)
(0.83380797 -0.00022892358 0)
(0.83635788 -0.0011424154 0)
(0.83664162 -0.0017128333 0)
(0.83678611 -0.0017937941 0)
(0.83741139 -0.0016333203 0)
(0.83822058 -0.0014502193 0)
(0.83890764 -0.0013055771 0)
(0.8394153 -0.0011796331 0)
(0.83980798 -0.0010537715 0)
(0.84014011 -0.00092935092 0)
(0.84042838 -0.00081414118 0)
(0.84067362 -0.00071172302 0)
(0.84087844 -0.00062124736 0)
(0.8410492 -0.00054072369 0)
(0.84119253 -0.00046876283 0)
(0.84131327 -0.00040453859 0)
(0.84141477 -0.00034734726 0)
(0.84149962 -0.0002964527 0)
(0.8415701 -0.00025115369 0)
(0.84162817 -0.00021085928 0)
(0.84167553 -0.00017510429 0)
(0.8417136 -0.00014353059 0)
(0.8417437 -0.00011586346 0)
(0.84176701 -9.1886639e-05 0)
(0.84178463 -7.1412424e-05 0)
(0.84179759 -5.4249851e-05 0)
(0.84180681 -4.0177251e-05 0)
(0.84181316 -2.892727e-05 0)
(0.84181733 -2.0185241e-05 0)
(0.84181995 -1.3601021e-05 0)
(0.84182149 -8.8081769e-06 0)
(0.84182232 -5.4470288e-06 0)
(0.84182272 -3.1845394e-06 0)
(0.84182286 -1.7307205e-06 0)
(0.84182288 -8.4522084e-07 0)
(0.84182284 -3.4103841e-07 0)
(0.84182278 -7.9455788e-08 0)
(0.84182273 3.8130054e-08 0)
(0.84182269 7.7408612e-08 0)
(0.84182267 7.8134933e-08 0)
(0.84182265 6.3516387e-08 0)
(0.84182264 4.5551393e-08 0)
(0.84182263 2.9791278e-08 0)
(0.84182263 1.7834989e-08 0)
(0.84182263 9.7647171e-09 0)
(0.84182263 4.6773622e-09 0)
(0.84182263 1.8191787e-09 0)
(0.84182264 2.9242539e-10 0)
(0.84182263 -3.2947749e-10 0)
(0.84182264 -5.6734762e-10 0)
(0.84182264 -5.2572835e-10 0)
(0.84182264 -4.7336081e-10 0)
(0.84182264 -3.2275446e-10 0)
(0.84182264 -2.4850639e-10 0)
(0.84182264 -1.3126287e-10 0)
(0.84182264 -1.1510133e-10 0)
(0.84182264 -3.9092658e-11 0)
(0.84182264 -4.6453044e-11 0)
(0.84182264 1.7884187e-12 0)
(0.84182264 -3.4005324e-11 0)
(0.84182264 7.8584776e-12 0)
(0.84182264 -1.9223089e-11 0)
(0.84182264 1.7684275e-11 0)
(0.84182264 -2.4947085e-11 0)
(0.84182264 1.3119448e-11 0)
(0.84182264 -1.5691625e-11 0)
(0.84182264 2.0245278e-11 0)
(0.84182264 -2.2831377e-11 0)
(0.84182264 1.5079814e-11 0)
(0.84182264 -1.3790512e-11 0)
(0.84182264 2.2092991e-11 0)
(0.84182264 -2.0866623e-11 0)
(0.84182264 1.7311107e-11 0)
(0.84182264 -1.1185492e-11 0)
(0.84182264 2.5170097e-11 0)
(0.84182264 -1.69974e-11 0)
(0.84182264 2.2258398e-11 0)
(0.84182264 -4.7722364e-12 0)
(0.84182264 3.3197292e-11 0)
(0.84182264 -6.2702648e-12 0)
(0.84182264 3.5931263e-11 0)
(0.84182264 1.3690268e-11 0)
(0.84182264 5.6572254e-11 0)
(0.84182264 2.6205351e-11 0)
(0.84182264 7.6772514e-11 0)
(0.84182264 7.174582e-11 0)
(0.84182264 1.256599e-10 0)
(0.84182264 1.2519957e-10 0)
(0.84182264 1.7561267e-10 0)
(0.84182264 2.1742364e-10 0)
(0.84182264 2.5026453e-10 0)
(0.84182264 3.055973e-10 0)
(0.84182264 2.0180174e-10 0)
(0.84182264 1.0682876e-10 0)
(0.84182264 -6.0444909e-10 0)
(0.84182265 -1.3498338e-09 0)
(0.84182263 -3.2514724e-09 0)
(0.84182265 -5.803199e-09 0)
(0.84182262 -9.5601809e-09 0)
(0.84182268 -1.3242797e-08 0)
(0.72226897 -0.0003728579 0)
(0.72410192 -0.0016832508 0)
(0.72388429 -0.0023759265 0)
(0.72345004 -0.0023607805 0)
(0.72332278 -0.0020529862 0)
(0.72330839 -0.0017517812 0)
(0.72321767 -0.0015219067 0)
(0.72303619 -0.0013298476 0)
(0.72282083 -0.0011509418 0)
(0.72261162 -0.00098598943 0)
(0.72241905 -0.00084189714 0)
(0.72224185 -0.00071991482 0)
(0.722079 -0.00061660347 0)
(0.72193139 -0.00052796092 0)
(0.72179974 -0.00045121636 0)
(0.72168375 -0.00038455718 0)
(0.72158238 -0.00032653835 0)
(0.7214944 -0.00027586791 0)
(0.72141863 -0.00023145379 0)
(0.72135394 -0.0001924432 0)
(0.72129928 -0.00015820558 0)
(0.72125359 -0.00012827881 0)
(0.7212159 -0.00010232359 0)
(0.72118529 -8.0077608e-05 0)
(0.72116086 -6.1314602e-05 0)
(0.72114174 -4.5804734e-05 0)
(0.72112713 -3.3286865e-05 0)
(0.72111624 -2.345637e-05 0)
(0.72110836 -1.5968026e-05 0)
(0.72110282 -1.045247e-05 0)
(0.72109908 -6.536826e-06 0)
(0.72109664 -3.8683835e-06 0)
(0.72109512 -2.1312285e-06 0)
(0.72109423 -1.0593998e-06 0)
(0.72109375 -4.3943549e-07 0)
(0.72109351 -1.1219019e-07 0)
(0.72109341 3.9266706e-08 0)
(0.72109339 9.2258161e-08 0)
(0.7210934 9.6086604e-08 0)
(0.72109343 7.9155436e-08 0)
(0.72109345 5.7548188e-08 0)
(0.72109347 3.7803555e-08 0)
(0.72109348 2.2945253e-08 0)
(0.72109349 1.2478485e-08 0)
(0.7210935 6.1472935e-09 0)
(0.7210935 2.2427261e-09 0)
(0.7210935 4.5601445e-10 0)
(0.7210935 -5.7288341e-10 0)
(0.7210935 -6.8918874e-10 0)
(0.7210935 -8.3876911e-10 0)
(0.7210935 -5.6485324e-10 0)
(0.7210935 -5.7757162e-10 0)
(0.7210935 -2.7177214e-10 0)
(0.7210935 -3.2762218e-10 0)
(0.7210935 -8.6150449e-11 0)
(0.7210935 -1.9900667e-10 0)
(0.7210935 1.6632404e-11 0)
(0.7210935 -1.2741232e-10 0)
(0.7210935 4.8656308e-11 0)
(0.7210935 -1.1078553e-10 0)
(0.7210935 7.1091448e-11 0)
(0.7210935 -9.2204446e-11 0)
(0.7210935 7.1072874e-11 0)
(0.7210935 -9.5445109e-11 0)
(0.7210935 8.2216518e-11 0)
(0.7210935 -8.4057849e-11 0)
(0.7210935 7.7409091e-11 0)
(0.7210935 -9.0322229e-11 0)
(0.7210935 8.643292e-11 0)
(0.7210935 -8.0470209e-11 0)
(0.7210935 8.0689267e-11 0)
(0.7210935 -8.7199647e-11 0)
(0.7210935 8.9530543e-11 0)
(0.7210935 -7.7148725e-11 0)
(0.7210935 8.4523632e-11 0)
(0.7210935 -8.2569814e-11 0)
(0.7210935 9.51052e-11 0)
(0.7210935 -7.008336e-11 0)
(0.7210935 9.3513503e-11 0)
(0.7210935 -7.1085926e-11 0)
(0.7210935 1.0937737e-10 0)
(0.7210935 -5.2461891e-11 0)
(0.7210935 1.1529038e-10 0)
(0.7210935 -4.3962941e-11 0)
(0.7210935 1.4083313e-10 0)
(0.7210935 -9.1912081e-12 0)
(0.7210935 1.5931821e-10 0)
(0.7210935 2.3525633e-11 0)
(0.7210935 1.9478827e-10 0)
(0.7210935 8.5984959e-11 0)
(0.7210935 1.9491027e-10 0)
(0.7210935 5.8720105e-11 0)
(0.7210935 -5.2973312e-11 0)
(0.72109351 -4.5939538e-10 0)
(0.7210935 -1.3247435e-09 0)
(0.72109351 -2.361335e-09 0)
(0.7210935 -5.1855294e-09 0)
(0.72109351 -8.4311922e-09 0)
(0.72109348 -1.4532237e-08 0)
(0.72109353 -2.0411827e-08 0)
(0.52926702 -0.00046029763 0)
(0.52985233 -0.0017280722 0)
(0.52870993 -0.0021573098 0)
(0.52736921 -0.0018986148 0)
(0.52630009 -0.0014714877 0)
(0.52542626 -0.0011416376 0)
(0.52464161 -0.00092316634 0)
(0.52392689 -0.0007615573 0)
(0.52329669 -0.00062684535 0)
(0.52275603 -0.00051460526 0)
(0.52229601 -0.0004251777 0)
(0.52190356 -0.0003551587 0)
(0.52156764 -0.00029922494 0)
(0.52128006 -0.00025310941 0)
(0.52103435 -0.000214267 0)
(0.52082495 -0.00018120223 0)
(0.52064704 -0.00015283786 0)
(0.52049651 -0.00012830461 0)
(0.5203699 -0.00010693172 0)
(0.52026427 -8.8242667e-05 0)
(0.52017705 -7.1911547e-05 0)
(0.52010593 -5.7714114e-05 0)
(0.52004882 -4.5489002e-05 0)
(0.52000376 -3.5109122e-05 0)
(0.51996894 -2.645751e-05 0)
(0.51994265 -1.9407756e-05 0)
(0.51992332 -1.3813129e-05 0)
(0.51990952 -9.5036815e-06 0)
(0.51989998 -6.2926822e-06 0)
(0.51989363 -3.9858864e-06 0)
(0.51988957 -2.3942373e-06 0)
(0.51988712 -1.3441757e-06 0)
(0.51988572 -6.8673578e-07 0)
(0.51988499 -2.9997898e-07 0)
(0.51988466 -9.0570935e-08 0)
(0.51988454 1.1408727e-08 0)
(0.51988454 5.1482838e-08 0)
(0.51988459 5.792039e-08 0)
(0.51988464 4.9329422e-08 0)
(0.51988469 3.6576059e-08 0)
(0.51988472 2.4414258e-08 0)
(0.51988475 1.4972381e-08 0)
(0.51988476 8.2501971e-09 0)
(0.51988477 4.0836617e-09 0)
(0.51988478 1.5362623e-09 0)
(0.51988478 2.9889965e-10 0)
(0.51988478 -3.8952904e-10 0)
(0.51988478 -5.1611129e-10 0)
(0.51988478 -5.8658704e-10 0)
(0.51988478 -4.375043e-10 0)
(0.51988478 -4.0872617e-10 0)
(0.51988478 -2.2938887e-10 0)
(0.51988478 -2.2399293e-10 0)
(0.51988478 -9.3870645e-11 0)
(0.51988478 -1.3506626e-10 0)
(0.51988478 -2.095225e-11 0)
(0.51988478 -7.9701467e-11 0)
(0.51988478 6.7003696e-12 0)
(0.51988478 -6.6978628e-11 0)
(0.51988478 2.6001891e-11 0)
(0.51988478 -4.726072e-11 0)
(0.51988478 2.8193903e-11 0)
(0.51988478 -5.2594129e-11 0)
(0.51988478 3.6531731e-11 0)
(0.51988478 -3.9066872e-11 0)
(0.51988478 3.4351815e-11 0)
(0.51988478 -4.7622445e-11 0)
(0.51988478 4.0528791e-11 0)
(0.51988478 -3.5853057e-11 0)
(0.51988478 3.7046012e-11 0)
(0.51988478 -4.5153429e-11 0)
(0.51988478 4.2814015e-11 0)
(0.51988478 -3.3673056e-11 0)
(0.51988478 3.9363036e-11 0)
(0.51988478 -4.248718e-11 0)
(0.51988478 4.5990344e-11 0)
(0.51988478 -2.9979362e-11 0)
(0.51988478 4.4121732e-11 0)
(0.51988478 -3.6585255e-11 0)
(0.51988478 5.3550803e-11 0)
(0.51988478 -2.1248573e-11 0)
(0.51988478 5.5190971e-11 0)
(0.51988478 -2.3758863e-11 0)
(0.51988478 6.9443981e-11 0)
(0.51988478 -4.2909229e-12 0)
(0.51988478 7.8114575e-11 0)
(0.51988478 -8.9157607e-13 0)
(0.51988478 1.0175346e-10 0)
(0.51988478 2.1502331e-11 0)
(0.51988478 1.1848235e-10 0)
(0.51988478 -1.3057095e-11 0)
(0.51988478 4.6165654e-11 0)
(0.51988478 -3.2435713e-10 0)
(0.51988478 -5.4073069e-10 0)
(0.51988478 -1.4417223e-09 0)
(0.51988478 -2.266127e-09 0)
(0.51988477 -5.0967506e-09 0)
(0.51988477 -7.7424855e-09 0)
(0.51988475 -1.5144031e-08 0)
(0.51988477 -2.1277706e-08 0)
(0.22499371 -0.00033759633 0)
(0.224217 -0.0008775623 0)
(0.22263204 -0.00086631914 0)
(0.22120518 -0.00059983553 0)
(0.220168 -0.00037056121 0)
(0.21942165 -0.00024629297 0)
(0.21884501 -0.00018447386 0)
(0.21837603 -0.00014469124 0)
(0.21799104 -0.00011339952 0)
(0.21767627 -8.9555587e-05 0)
(0.21741794 -7.2674655e-05 0)
(0.21720329 -6.0687406e-05 0)
(0.21702269 -5.1492868e-05 0)
(0.21686965 -4.3887636e-05 0)
(0.2167397 -3.7385067e-05 0)
(0.21662939 -3.1778892e-05 0)
(0.21653594 -2.6912268e-05 0)
(0.21645707 -2.2648391e-05 0)
(0.21639089 -1.8886076e-05 0)
(0.21633582 -1.556322e-05 0)
(0.21629051 -1.2641303e-05 0)
(0.21625373 -1.0094817e-05 0)
(0.21622436 -7.9035353e-06 0)
(0.21620135 -6.0495765e-06 0)
(0.21618372 -4.5136521e-06 0)
(0.21617055 -3.2724943e-06 0)
(0.21616097 -2.2978593e-06 0)
(0.21615423 -1.5564727e-06 0)
(0.21614965 -1.0124133e-06 0)
(0.21614666 -6.2835792e-07 0)
(0.21614479 -3.6873308e-07 0)
(0.2161437 -2.0110464e-07 0)
(0.21614311 -9.8826523e-08 0)
(0.21614282 -4.0497513e-08 0)
(0.21614271 -1.0051687e-08 0)
(0.21614269 5.518198e-09 0)
(0.21614271 1.1042461e-08 0)
(0.21614274 1.1126115e-08 0)
(0.21614277 8.8501601e-09 0)
(0.2161428 6.3275832e-09 0)
(0.21614282 3.9692932e-09 0)
(0.21614283 2.3630604e-09 0)
(0.21614283 1.1505177e-09 0)
(0.21614284 5.5989667e-10 0)
(0.21614284 8.7085833e-11 0)
(0.21614284 -6.3926823e-13 0)
(0.21614284 -1.8073961e-10 0)
(0.21614284 -1.0000727e-10 0)
(0.21614284 -1.7866077e-10 0)
(0.21614284 -6.3363965e-11 0)
(0.21614284 -1.2420565e-10 0)
(0.21614284 -2.8225462e-12 0)
(0.21614284 -8.3259682e-11 0)
(0.21614284 2.3589637e-11 0)
(0.21614284 -6.0973672e-11 0)
(0.21614284 4.3510447e-11 0)
(0.21614284 -5.4055176e-11 0)
(0.21614284 4.1243695e-11 0)
(0.21614284 -4.8698019e-11 0)
(0.21614284 5.0324737e-11 0)
(0.21614284 -4.9443533e-11 0)
(0.21614284 4.3707554e-11 0)
(0.21614284 -4.6847746e-11 0)
(0.21614284 5.1246416e-11 0)
(0.21614284 -4.903537e-11 0)
(0.21614284 4.4014521e-11 0)
(0.21614284 -4.6674358e-11 0)
(0.21614284 5.1376614e-11 0)
(0.21614284 -4.8899675e-11 0)
(0.21614284 4.4144989e-11 0)
(0.21614284 -4.6589432e-11 0)
(0.21614284 5.146736e-11 0)
(0.21614284 -4.8781933e-11 0)
(0.21614284 4.4263614e-11 0)
(0.21614284 -4.6486981e-11 0)
(0.21614284 5.1585804e-11 0)
(0.21614284 -4.8600713e-11 0)
(0.21614284 4.4438507e-11 0)
(0.21614284 -4.6291477e-11 0)
(0.21614284 5.1888364e-11 0)
(0.21614284 -4.8076719e-11 0)
(0.21614284 4.538708e-11 0)
(0.21614284 -4.5107842e-11 0)
(0.21614284 5.4409924e-11 0)
(0.21614284 -4.5820437e-11 0)
(0.21614284 4.9557029e-11 0)
(0.21614284 -4.2448933e-11 0)
(0.21614284 5.9992237e-11 0)
(0.21614284 -4.1544829e-11 0)
(0.21614284 5.6670369e-11 0)
(0.21614284 -6.0006646e-11 0)
(0.21614284 -4.2067061e-13 0)
(0.21614284 -2.4925756e-10 0)
(0.21614284 -3.0820407e-10 0)
(0.21614284 -7.3287332e-10 0)
(0.21614284 -1.2067654e-09 0)