/*--------------------------------*- C++ -*----------------------------------*\
  =========                 |
  \\      /  F ield         | OpenFOAM: The Open Source CFD Toolbox
   \\    /   O peration     | Website:  https://openfoam.org
    \\  /    A nd           | Version:  6
     \\/     M anipulation  |
\*---------------------------------------------------------------------------*/
FoamFile
{
    version     2.0;
    format      ascii;
    class       volScalarField;
    location    "324";
    object      pMean;
}
// * * * * * * * * * * * * * * * * * * * * * * * * * * * * * * * * * * * * * //

dimensions      [0 2 -2 0 0 0 0];

internalField   nonuniform List<scalar> 
9200
(
-0.38781914
-0.37610146
-0.36565488
-0.35640998
-0.34737216
-0.33854911
-0.33002193
-0.32175644
-0.31368314
-0.30572888
-0.29782039
-0.28988918
-0.28187851
-0.27375064
-0.26549708
-0.25715609
-0.24880697
-0.2405398
-0.23336861
-0.23153193
-0.40598709
-0.39181936
-0.379433
-0.36866357
-0.35824278
-0.34814691
-0.33844746
-0.32907992
-0.31994346
-0.31093971
-0.30197664
-0.29297423
-0.28387195
-0.27463456
-0.26525733
-0.25576958
-0.2462056
-0.23656903
-0.22753785
-0.22126276
-0.42452551
-0.40789232
-0.3936169
-0.38139511
-0.36964594
-0.35829627
-0.34739671
-0.3368455
-0.32650937
-0.31626954
-0.30602511
-0.29569849
-0.28524184
-0.27463985
-0.26390909
-0.25309326
-0.24223558
-0.23134839
-0.22083025
-0.21179535
-0.44298783
-0.42391461
-0.40781855
-0.39420598
-0.38114639
-0.36850134
-0.35629359
-0.3443846
-0.3326177
-0.32086993
-0.30905294
-0.29711547
-0.28504597
-0.27286982
-0.26064216
-0.24843745
-0.23632553
-0.22434705
-0.21277
-0.20233863
-0.46073114
-0.43932705
-0.42152938
-0.40660237
-0.39223937
-0.37822668
-0.36456015
-0.35107635
-0.33761666
-0.32408168
-0.31042545
-0.2966509
-0.28280507
-0.26896863
-0.25524211
-0.24173166
-0.22852881
-0.21569185
-0.20340939
-0.19219295
-0.47691877
-0.4533982
-0.43407615
-0.41792293
-0.40224742
-0.38676188
-0.37144898
-0.3561471
-0.34073055
-0.32515992
-0.30946401
-0.29372381
-0.27805746
-0.26260192
-0.24749467
-0.23285896
-0.21878886
-0.20533823
-0.19263271
-0.1810125
-0.49053502
-0.46523065
-0.44462258
-0.42734208
-0.41033213
-0.39324808
-0.37608845
-0.35873505
-0.34113969
-0.3233619
-0.30553249
-0.28782304
-0.27042082
-0.25350536
-0.23723023
-0.22171242
-0.20702524
-0.19319654
-0.18029197
-0.16851467
-0.50040785
-0.47378538
-0.45220276
-0.43391802
-0.41555969
-0.39676142
-0.37758127
-0.35799698
-0.33808598
-0.31804067
-0.29810995
-0.2785544
-0.25961484
-0.24148958
-0.22432225
-0.20819992
-0.19315608
-0.17917863
-0.16627454
-0.15453128
-0.50518906
-0.47777926
-0.45552183
-0.43630662
-0.41654796
-0.39592098
-0.3746036
-0.35272631
-0.33053046
-0.30835539
-0.28656011
-0.26547059
-0.24534997
-0.22638404
-0.20868056
-0.19227859
-0.17716162
-0.16327384
-0.15056765
-0.13903131
-0.50352641
-0.47579058
-0.45302622
-0.43283769
-0.41157346
-0.38903413
-0.36558227
-0.34154529
-0.31734036
-0.29343511
-0.27026015
-0.24816095
-0.22738026
-0.20805898
-0.19024927
-0.17393428
-0.15904842
-0.14549825
-0.13318888
-0.12202202
-0.27174651
-0.2762564
-0.2785087
-0.27903348
-0.27857958
-0.27732434
-0.27535648
-0.27276759
-0.2696314
-0.2660042
-0.26193169
-0.25745299
-0.25260273
-0.2474125
-0.24191208
-0.23613191
-0.2301045
-0.22385196
-0.21737462
-0.21076098
-0.27458437
-0.27866656
-0.28060584
-0.28090951
-0.28027149
-0.27886044
-0.27676305
-0.27406687
-0.27084186
-0.26714131
-0.26300837
-0.25847996
-0.2535887
-0.24836411
-0.24283327
-0.23702548
-0.23098068
-0.22471932
-0.2181339
-0.21119803
-0.28011455
-0.2833622
-0.28469237
-0.28456366
-0.28356486
-0.28184911
-0.27949922
-0.27659488
-0.27319871
-0.26935806
-0.26511101
-0.26049002
-0.25552375
-0.25023768
-0.2446539
-0.23879866
-0.23272313
-0.22644677
-0.21966878
-0.21212543
-0.28808045
-0.2901362
-0.29058622
-0.28982202
-0.2882872
-0.28611512
-0.28338412
-0.28016326
-0.27650495
-0.27244826
-0.26802404
-0.26325831
-0.25817394
-0.25279047
-0.24712301
-0.24119238
-0.23506133
-0.22875417
-0.22172431
-0.21333274
-0.29815901
-0.2987286
-0.29806074
-0.29647074
-0.29422928
-0.29144887
-0.28820404
-0.28455173
-0.28053231
-0.2761751
-0.27150223
-0.26653103
-0.26127654
-0.25575111
-0.24996156
-0.24392015
-0.23769714
-0.23133027
-0.22401709
-0.21460154
-0.31001533
-0.30886984
-0.306883
-0.30429398
-0.30118454
-0.29764792
-0.29375707
-0.2895571
-0.28507574
-0.28033007
-0.27533096
-0.27008607
-0.26460126
-0.25888024
-0.25292053
-0.24672305
-0.24035768
-0.2338816
-0.22626673
-0.2157243
-0.32335182
-0.32031926
-0.31684843
-0.31310905
-0.30898652
-0.30455828
-0.29989962
-0.29504345
-0.29000221
-0.28478
-0.27937574
-0.27378541
-0.26800399
-0.26202545
-0.2558382
-0.24943152
-0.24286805
-0.2362275
-0.22832015
-0.21666201
-0.33793755
-0.33288898
-0.3278038
-0.3227918
-0.31753911
-0.31211051
-0.30658399
-0.30097962
-0.29529459
-0.28951815
-0.28363446
-0.27762492
-0.27147071
-0.26515364
-0.25865258
-0.25194824
-0.24510082
-0.23823607
-0.23012116
-0.21757711
-0.35360756
-0.3464354
-0.33962802
-0.33324533
-0.32676789
-0.32024673
-0.31376454
-0.30732816
-0.30091683
-0.29450189
-0.28804937
-0.28152216
-0.27488243
-0.26809194
-0.26110754
-0.25388321
-0.24644455
-0.23890023
-0.23001556
-0.21631851
-0.37025366
-0.3608404
-0.35219757
-0.34434003
-0.3365304
-0.32880576
-0.32125352
-0.3138652
-0.30659987
-0.29940961
-0.29224236
-0.28504461
-0.27776445
-0.27035167
-0.26275253
-0.25490551
-0.24675666
-0.23810481
-0.22732395
-0.21141261
-0.20327019
-0.19393502
-0.18461686
-0.17538734
-0.16619027
-0.1570666
-0.1480715
-0.13924078
-0.1306034
-0.12218744
-0.11401816
-0.10611689
-0.098501645
-0.091187454
-0.084186445
-0.077507902
-0.071158414
-0.065142009
-0.059460282
-0.054112533
-0.049095916
-0.044405602
-0.040034951
-0.035975698
-0.032218142
-0.028751352
-0.025563365
-0.022641387
-0.019971998
-0.017541339
-0.015335301
-0.013339693
-0.011540408
-0.009923567
-0.0084756573
-0.0071836567
-0.0060351539
-0.0050184427
-0.0041226987
-0.0033378875
-0.0026556292
-0.002067076
-0.001570565
-0.0011491166
-0.00084152712
-0.00053159623
-0.00058224248
1.5435656e-05
-0.0017721126
0.0026387783
-0.20443225
-0.19468044
-0.18524295
-0.17602234
-0.16679983
-0.15763771
-0.14861062
-0.13975061
-0.13108386
-0.1226391
-0.11444192
-0.10651355
-0.098871967
-0.091532272
-0.084506655
-0.07780445
-0.071432296
-0.065394266
-0.05969199
-0.054324793
-0.049289844
-0.044582317
-0.040195565
-0.036121308
-0.032349823
-0.028870148
-0.025670283
-0.022737393
-0.020058013
-0.017618237
-0.015403903
-0.013400771
-0.01159468
-0.0099716985
-0.0085182637
-0.0072213018
-0.0060683522
-0.0050476605
-0.0041483561
-0.0033603595
-0.002675246
-0.002084126
-0.0015852762
-0.0011617161
-0.00085196843
-0.00054044193
-0.00058737226
8.2941944e-06
-0.0017588984
0.0026098051
-0.20682844
-0.19619212
-0.18651928
-0.17735861
-0.16809984
-0.1588623
-0.14977393
-0.14085711
-0.13213085
-0.12362615
-0.11537004
-0.10738363
-0.099685006
-0.092289621
-0.085209942
-0.078455516
-0.072033167
-0.065947133
-0.060199172
-0.054788699
-0.049712943
-0.044967105
-0.040544541
-0.036436946
-0.032634551
-0.029126328
-0.025900198
-0.022943233
-0.020241863
-0.01778207
-0.015549578
-0.013530025
-0.011709129
-0.010072839
-0.0086074694
-0.0072998308
-0.0061373483
-0.0051081576
-0.0042012821
-0.0034065401
-0.0027154072
-0.0021188987
-0.0016151673
-0.001187208
-0.00087302822
-0.00055815791
-0.00059768659
-5.7632011e-06
-0.0017328584
0.0025524508
-0.21024558
-0.19819454
-0.18818025
-0.17920979
-0.16994782
-0.16061619
-0.15145708
-0.14247558
-0.13367468
-0.12509064
-0.11675451
-0.10868755
-0.10090814
-0.09343262
-0.086274203
-0.079442963
-0.072946178
-0.066788478
-0.060971932
-0.055496192
-0.050358656
-0.045554636
-0.041077542
-0.036919076
-0.033069435
-0.029517522
-0.026251154
-0.023257281
-0.020522186
-0.018031691
-0.015771348
-0.013726616
-0.01188303
-0.010226352
-0.0087427162
-0.0074187508
-0.0062417057
-0.0051995461
-0.004281132
-0.0034761228
-0.0027758403
-0.0021711522
-0.0016600227
-0.0012254025
-0.00090453792
-0.00058459484
-0.00061309069
-2.6554955e-05
-0.0016945435
0.0024679289
-0.21439814
-0.2003728
-0.18991765
-0.1813403
-0.17216294
-0.16274132
-0.15352276
-0.1444927
-0.13562212
-0.12695453
-0.11852988
-0.11037077
-0.1024961
-0.094923747
-0.087668381
-0.080741158
-0.07415023
-0.067900969
-0.06199606
-0.05643564
-0.051217471
-0.046337129
-0.0417882
-0.037562478
-0.033650183
-0.030040182
-0.026720207
-0.023677076
-0.02089691
-0.018365342
-0.01606771
-0.013989248
-0.012115255
-0.010431256
-0.0089231415
-0.0075773016
-0.0063807523
-0.0053212314
-0.0043873789
-0.0035686413
-0.0028561329
-0.0022405221
-0.0017195213
-0.0012760171
-0.00094625277
-0.00061953166
-0.00063346673
-5.3786568e-05
-0.001644849
0.0023581241
-0.21888919
-0.20241139
-0.19143229
-0.18348534
-0.17454273
-0.16506778
-0.1558151
-0.14677274
-0.13786076
-0.12912415
-0.12061695
-0.11236659
-0.10439316
-0.096716556
-0.089353809
-0.082317965
-0.07561866
-0.069262513
-0.06325326
-0.057591885
-0.052276821
-0.047304152
-0.042667832
-0.038359901
-0.034370717
-0.030689193
-0.027303025
-0.024198933
-0.021362883
-0.018780308
-0.016436315
-0.01431588
-0.012404027
-0.010685993
-0.0091473786
-0.0077742825
-0.0065534329
-0.0054722859
-0.0045192087
-0.0036833816
-0.0029556602
-0.0023264636
-0.0017931889
-0.0013386421
-0.00099782441
-0.00066266286
-0.0006586547
-8.7084242e-05
-0.0015849262
0.0022254878
-0.22329043
-0.20410864
-0.19249677
-0.18534866
-0.1768662
-0.16744938
-0.15820171
-0.14918747
-0.14027972
-0.13150774
-0.12293807
-0.11460835
-0.10654238
-0.098762597
-0.091289165
-0.084138039
-0.077321179
-0.070847109
-0.06472116
-0.058945641
-0.053520041
-0.048441274
-0.043703919
-0.039300464
-0.035221565
-0.031456294
-0.0279924
-0.024816554
-0.021914598
-0.019271777
-0.016872957
-0.014702837
-0.012746135
-0.010987765
-0.0094129932
-0.0080075797
-0.0067579165
-0.0056511286
-0.0046752606
-0.0038191776
-0.0030734273
-0.0024281326
-0.0018803139
-0.0014126843
-0.0010587677
-0.00071359058
-0.00068844837
-0.0001260461
-0.0015160959
0.0020728942
-0.22732321
-0.20584641
-0.19333106
-0.18674214
-0.17891471
-0.16979087
-0.16063045
-0.15167218
-0.14280837
-0.1340409
-0.12543541
-0.11704252
-0.10889411
-0.10101645
-0.093433269
-0.086164212
-0.079224402
-0.072624912
-0.066373204
-0.060473361
-0.054926324
-0.049730159
-0.04488034
-0.040370024
-0.036190337
-0.032330651
-0.028778865
-0.025521679
-0.022544857
-0.01983348
-0.017372186
-0.015145388
-0.013137482
-0.011333031
-0.0097169327
-0.0082745714
-0.006991961
-0.0058558514
-0.0048539206
-0.0039746735
-0.0032083044
-0.0025445973
-0.001980136
-0.0014975355
-0.0011286077
-0.00077195009
-0.00072269675
-0.00017033589
-0.0014398208
0.0019035967
-0.22864843
-0.20783451
-0.1946
-0.1875939
-0.1802535
-0.17171104
-0.16282627
-0.15399365
-0.14523084
-0.13653259
-0.12794778
-0.11953503
-0.11133768
-0.10338817
-0.095714459
-0.088340539
-0.081285596
-0.074564139
-0.068186532
-0.062159334
-0.056485571
-0.051165022
-0.046194539
-0.041568366
-0.037278443
-0.03331473
-0.029665508
-0.026317684
-0.023257083
-0.02046872
-0.01793707
-0.015646302
-0.013580504
-0.011723887
-0.010060966
-0.0085767209
-0.0072567541
-0.0060873999
-0.0050559252
-0.0041504281
-0.0033607016
-0.0026761431
-0.0020928374
-0.0015932863
-0.0012073788
-0.00083766572
-0.00076149891
-0.00021943366
-0.0013579808
0.0017218357
-0.21893898
-0.20716369
-0.19581832
-0.18739671
-0.17999574
-0.17223934
-0.16396829
-0.15550632
-0.14703222
-0.13857359
-0.13016024
-0.12185104
-0.11370218
-0.10575686
-0.098050779
-0.090614983
-0.083475273
-0.076651951
-0.07016031
-0.064011107
-0.058210906
-0.052762427
-0.047664924
-0.042914557
-0.038504768
-0.034426645
-0.030669284
-0.027220132
-0.024065322
-0.021189991
-0.018578572
-0.016215071
-0.014083312
-0.012167169
-0.010450765
-0.0089186524
-0.0075559836
-0.0063486327
-0.0052834051
-0.0043479379
-0.0035315677
-0.0028232475
-0.0022185044
-0.0016996784
-0.001294609
-0.00090991951
-0.00080440262
-0.0002713985
-0.0012730233
0.0015332345
-0.19706031
-0.20112591
-0.19543608
-0.18624247
-0.17842799
-0.1710908
-0.1632742
-0.15511987
-0.14689181
-0.13865441
-0.13042978
-0.1222725
-0.11424273
-0.10638826
-0.098748221
-0.091356797
-0.08424296
-0.077429985
-0.070935845
-0.064773696
-0.058952248
-0.053476106
-0.048346165
-0.04356
-0.039112258
-0.034995037
-0.031198268
-0.027710077
-0.024517137
-0.021605
-0.018958407
-0.016561578
-0.014398473
-0.012453033
-0.010709395
-0.0091520793
-0.0077661663
-0.0065374305
-0.00545255
-0.0044990191
-0.0036659813
-0.0029422603
-0.002322899
-0.0017906659
-0.0013705675
-0.00097561993
-0.00084148851
-0.00032304192
-0.0011849905
0.001346024
-0.18626179
-0.19143591
-0.18757595
-0.17861523
-0.17115003
-0.16459823
-0.15761256
-0.15020039
-0.14265388
-0.13504921
-0.12739934
-0.11975484
-0.11217851
-0.10472209
-0.097428561
-0.090336231
-0.083478404
-0.076882645
-0.070571032
-0.064560615
-0.058863745
-0.05348841
-0.048438612
-0.043714761
-0.039314075
-0.035230966
-0.031457436
-0.027983449
-0.024797298
-0.021885953
-0.019235387
-0.016830876
-0.014657281
-0.012699302
-0.010941706
-0.0093695284
-0.0079682639
-0.0067240114
-0.0056236859
-0.0046549651
-0.0038070407
-0.0030689041
-0.0024351073
-0.0018894742
-0.001453074
-0.0010483417
-0.00088073054
-0.0003835487
-0.0010843981
0.0011433778
-0.17721716
-0.17987944
-0.17724831
-0.17003799
-0.16346054
-0.157634
-0.15144231
-0.14478558
-0.13792591
-0.13095893
-0.12389996
-0.11679363
-0.10970164
-0.10267772
-0.095767173
-0.089010905
-0.082445368
-0.076101584
-0.070005164
-0.064176668
-0.058631885
-0.053382104
-0.04843445
-0.043792262
-0.039455464
-0.035420959
-0.031683009
-0.028233618
-0.025062905
-0.022159456
-0.019510664
-0.017103041
-0.014922514
-0.01295469
-0.011185099
-0.0095994116
-0.008183638
-0.0069242905
-0.0058085943
-0.0048244735
-0.0039612085
-0.0032080107
-0.002558908
-0.0019989275
-0.0015447745
-0.0011293634
-0.00092478263
-0.00045092322
-0.00097454692
0.00092069173
-0.16723174
-0.16739702
-0.16525221
-0.16013019
-0.15480957
-0.14975636
-0.14438197
-0.13856018
-0.1324649
-0.12619699
-0.11978721
-0.1132784
-0.10672898
-0.10019345
-0.093719108
-0.087349063
-0.081122466
-0.07507352
-0.069231247
-0.063619708
-0.058258201
-0.053161462
-0.048339945
-0.043800149
-0.039544969
-0.035574067
-0.03188424
-0.028469802
-0.025322955
-0.022434145
-0.019792413
-0.017385715
-0.015201233
-0.013225649
-0.011445407
-0.0098469412
-0.0084168923
-0.0071422807
-0.0060107213
-0.0050104484
-0.004130881
-0.0033614851
-0.0026957817
-0.0021200113
-0.0016464629
-0.001218592
-0.00097468883
-0.0005222449
-0.00086310155
0.00068820497
-0.15636834
-0.15476437
-0.15269138
-0.14929273
-0.14528536
-0.14106532
-0.13651293
-0.13155639
-0.12627748
-0.12075926
-0.11504767
-0.10918805
-0.10323472
-0.097241093
-0.091255508
-0.085322514
-0.079483192
-0.073774336
-0.068228
-0.062871518
-0.057727599
-0.052814441
-0.048145929
-0.043731892
-0.039578418
-0.035688173
-0.032060761
-0.02869308
-0.025579688
-0.022713159
-0.020084433
-0.017683146
-0.015497951
-0.013516802
-0.011727232
-0.010116596
-0.0086722958
-0.0073819756
-0.0062337364
-0.0052162001
-0.0043189884
-0.0035318572
-0.0028478721
-0.0022544313
-0.0017595658
-0.0013168051
-0.0010317411
-0.00059660805
-0.00075600299
0.00045405992
-0.14432742
-0.14202034
-0.14010978
-0.13799572
-0.13517531
-0.13181599
-0.12807376
-0.12396137
-0.11950109
-0.11474886
-0.10975782
-0.10457507
-0.099250515
-0.093835192
-0.088377276
-0.082921667
-0.077510258
-0.072181424
-0.066969472
-0.061904421
-0.05701196
-0.052313462
-0.047826084
-0.043562939
-0.039533337
-0.035743058
-0.032194664
-0.028887825
-0.025819663
-0.022985101
-0.020377201
-0.017987502
-0.015806335
-0.013823126
-0.012026679
-0.010405432
-0.0089476978
-0.0076418734
-0.0064766571
-0.0054411489
-0.0045252542
-0.003719061
-0.0030152621
-0.0024023198
-0.0018843313
-0.0014240478
-0.0010967049
-0.00067329242
-0.00065912943
0.00022685206
-0.1314283
-0.12931049
-0.12778717
-0.12659856
-0.12475674
-0.12222832
-0.11926724
-0.11595157
-0.1122794
-0.10828084
-0.10400756
-0.099507948
-0.09482666
-0.090009864
-0.085104332
-0.080154461
-0.075201906
-0.070285475
-0.065440704
-0.060699472
-0.056089782
-0.05163566
-0.047357149
-0.043270387
-0.039387758
-0.035718096
-0.032266933
-0.029036787
-0.026027464
-0.023236384
-0.020658903
-0.018288639
-0.016117789
-0.014137431
-0.012337814
-0.010708625
-0.0092392369
-0.0079189346
-0.0067371344
-0.0056835158
-0.004748361
-0.00392214
-0.0031972816
-0.0025631937
-0.0020205057
-0.0015400249
-0.0011700879
-0.00075162575
-0.00057834286
1.5787106e-05
-0.11837855
-0.11687866
-0.11587396
-0.11535669
-0.11428547
-0.11251081
-0.11027914
-0.10769742
-0.10476048
-0.10148102
-0.097902644
-0.09407142
-0.090028642
-0.08581495
-0.081472581
-0.077044218
-0.072570564
-0.068089869
-0.063637808
-0.059247141
-0.054947352
-0.050764423
-0.046720716
-0.042834949
-0.039122254
-0.035594298
-0.032259456
-0.029123039
-0.02618755
-0.023452964
-0.020917029
-0.018575568
-0.016422784
-0.01445156
-0.012653744
-0.011020422
-0.0095421741
-0.0082093069
-0.0070120791
-0.0059408568
-0.0049864013
-0.0041396226
-0.003392815
-0.0027362051
-0.0021675229
-0.0016642731
-0.0012521764
-0.00083120646
-0.00051872941
-0.00017039695
-0.10571012
-0.10490126
-0.1044351
-0.10442762
-0.1039593
-0.10283837
-0.10126493
-0.099345935
-0.097079382
-0.094468557
-0.091547141
-0.088355636
-0.084930766
-0.081308687
-0.077527024
-0.073624299
-0.069638918
-0.065607815
-0.061565918
-0.057545894
-0.053577807
-0.049688796
-0.045902856
-0.042240708
-0.038719766
-0.035354165
-0.032154859
-0.029129774
-0.026284006
-0.023620047
-0.021138051
-0.0188361
-0.016710489
-0.014756012
-0.012966236
-0.011333776
-0.0098505462
-0.008508003
-0.0072973674
-0.0062098001
-0.0052366486
-0.0043693287
-0.0036001419
-0.0029200183
-0.0023244092
-0.0017961081
-0.0013429387
-0.00091194325
-0.00048384915
-0.00032461819
-0.093700751
-0.093495612
-0.093515387
-0.093909972
-0.093916891
-0.09334547
-0.09234748
-0.091015351
-0.089349084
-0.087347163
-0.085034044
-0.082443021
-0.079605433
-0.076552294
-0.073316668
-0.06993292
-0.066435641
-0.06285922
-0.059237046
-0.055600883
-0.051980512
-0.048403415
-0.044894477
-0.041475775
-0.038166442
-0.034982618
-0.031937463
-0.029041234
-0.02630141
-0.023722871
-0.0213081
-0.019057417
-0.016969232
-0.015040301
-0.013265991
-0.011640536
-0.010157294
-0.008808975
-0.0075878741
-0.0064860492
-0.0054955394
-0.004608338
-0.0038169006
-0.0031127715
-0.0024897477
-0.0019345846
-0.0014419582
-0.00099397016
-0.00047517932
-0.00044250308
-0.082485989
-0.082750967
-0.083167218
-0.083876872
-0.084257067
-0.084135759
-0.083626233
-0.082802574
-0.081664115
-0.080206295
-0.078445768
-0.076408292
-0.074119308
-0.07160447
-0.068891691
-0.066010898
-0.062992802
-0.059868285
-0.056668159
-0.053422514
-0.050160105
-0.046907985
-0.043691191
-0.040532476
-0.037452089
-0.034467646
-0.031594062
-0.028843557
-0.026225708
-0.02374756
-0.021413778
-0.019226826
-0.017187182
-0.015293563
-0.013543163
-0.011931895
-0.010454626
-0.0091054109
-0.0078777078
-0.0067645642
-0.0057588098
-0.0048530906
-0.0040401596
-0.0033121213
-0.0026617076
-0.0020784888
-0.0015484049
-0.0010774993
-0.000491829
-0.00052314752
-0.072123292
-0.072728207
-0.073442524
-0.074387809
-0.07505402
-0.075291293
-0.075184386
-0.07479042
-0.074106439
-0.073125317
-0.07185722
-0.070320816
-0.068535535
-0.066521608
-0.064301685
-0.061900786
-0.059345391
-0.056662696
-0.053880245
-0.051025612
-0.048125814
-0.045206784
-0.042293017
-0.039407264
-0.036570268
-0.033800556
-0.031114305
-0.02852527
-0.02604477
-0.023681732
-0.02144278
-0.019332366
-0.017352931
-0.015505094
-0.013787857
-0.012198822
-0.010734407
-0.0093900656
-0.0081604893
-0.0070397923
-0.0060216828
-0.0050995335
-0.0042665309
-0.003515323
-0.0028381002
-0.0022263401
-0.0016610331
-0.0011626441
-0.00053061694
-0.00056936653
-0.062622518
-0.063458579
-0.064380565
-0.065488899
-0.066364229
-0.066877452
-0.06709208
-0.06705118
-0.066749187
-0.066176698
-0.065338496
-0.064246961
-0.062915812
-0.061359995
-0.059596987
-0.057646827
-0.055531421
-0.053273953
-0.050898442
-0.048429391
-0.045891388
-0.043308604
-0.04070435
-0.038100739
-0.035518386
-0.032976154
-0.030490952
-0.028077603
-0.025748766
-0.023514906
-0.021384334
-0.019363268
-0.017455953
-0.0156648
-0.013990551
-0.012432467
-0.010988521
-0.0096555885
-0.0084296408
-0.0073059172
-0.0062790786
-0.005343295
-0.0044923104
-0.0037193336
-0.0030164548
-0.0023764068
-0.0017782103
-0.0012492574
-0.00058654635
-0.00058727392
-0.053967219
-0.054948914
-0.056002699
-0.057210866
-0.058228367
-0.058944544
-0.05940676
-0.059646923
-0.059657297
-0.059426675
-0.058955485
-0.058250766
-0.057321122
-0.056176602
-0.054829783
-0.053295869
-0.05159217
-0.049737627
-0.047752463
-0.045657823
-0.043475393
-0.041227004
-0.038934204
-0.03661788
-0.034297928
-0.031992973
-0.029720119
-0.027494763
-0.025330457
-0.023238824
-0.02122953
-0.019310295
-0.017486952
-0.015763543
-0.014142439
-0.012624491
-0.011209184
-0.0098948145
-0.0086786518
-0.0075570986
-0.006525826
-0.0055798657
-0.0047136283
-0.0039209281
-0.0031941068
-0.0025267376
-0.001897983
-0.0013368319
-0.00065361262
-0.00058519323
-0.046125173
-0.047187027
-0.048312236
-0.049568204
-0.050671565
-0.051527995
-0.052172518
-0.052628371
-0.052886367
-0.052934129
-0.052768738
-0.052392899
-0.051810882
-0.051028425
-0.05005367
-0.048897323
-0.047572282
-0.046093276
-0.0444766
-0.042739828
-0.040901468
-0.038980598
-0.036996515
-0.034968359
-0.03291477
-0.030853589
-0.028801585
-0.026774222
-0.02478548
-0.02284772
-0.020971592
-0.019166004
-0.017438119
-0.015793399
-0.014235686
-0.012767303
-0.01138918
-0.01010099
-0.0089012928
-0.0077876705
-0.0067568436
-0.0058047596
-0.0049265888
-0.0041168125
-0.0033682894
-0.0026752128
-0.0020181806
-0.0014244874
-0.00072577619
-0.0005721073
-0.039053753
-0.040146932
-0.041297486
-0.042560639
-0.043704407
-0.04464895
-0.045419969
-0.0460341
-0.046481435
-0.046749098
-0.046831799
-0.046728916
-0.046441241
-0.045970919
-0.045322275
-0.044502012
-0.043518978
-0.042383913
-0.041109266
-0.039708983
-0.038198237
-0.036593117
-0.034910311
-0.033166792
-0.031379484
-0.029564953
-0.027739131
-0.025917058
-0.02411267
-0.022338624
-0.020606158
-0.018925011
-0.017303372
-0.015747874
-0.014263622
-0.012854257
-0.011522036
-0.010267938
-0.0090917717
-0.0079922883
-0.0069672765
-0.0060136392
-0.0051273818
-0.00430372
-0.0035362169
-0.0028196075
-0.0021365419
-0.0015110411
-0.00079786263
-0.0005560321
-0.032704437
-0.033793748
-0.034935859
-0.036176016
-0.037324995
-0.038315759
-0.039167062
-0.039890634
-0.040476472
-0.040911807
-0.041189861
-0.041307633
-0.0412633
-0.041056186
-0.040687493
-0.040160535
-0.039480609
-0.038654846
-0.037692099
-0.036602813
-0.035398826
-0.034093134
-0.032699625
-0.031232806
-0.029707523
-0.02813866
-0.026540871
-0.024928316
-0.023314432
-0.021711729
-0.020131621
-0.0185843
-0.017078641
-0.015622156
-0.014220968
-0.012879836
-0.011602191
-0.010390204
-0.0092448606
-0.0081660412
-0.0071525966
-0.0062024066
-0.0053123645
-0.0044784836
-0.0036951536
-0.0029576622
-0.0022508445
-0.0015951312
-0.00086615495
-0.00054276102
-0.027026216
-0.028087406
-0.029197439
-0.030393362
-0.031521494
-0.03252602
-0.033420585
-0.034213346
-0.034894688
-0.035452438
-0.035879076
-0.036170058
-0.036321744
-0.036331396
-0.036197813
-0.035921582
-0.035505039
-0.034952192
-0.034268688
-0.033461741
-0.032540016
-0.03151346
-0.030393106
-0.029190849
-0.02791921
-0.026591089
-0.025219503
-0.023817338
-0.022397118
-0.020970791
-0.019549537
-0.018143612
-0.016762225
-0.015413438
-0.014104117
-0.0128399
-0.0116252
-0.010463228
-0.0093560375
-0.0083045686
-0.0073086986
-0.0063672814
-0.0054781268
-0.0046380946
-0.0038424705
-0.0030871513
-0.0023590092
-0.0016753494
-0.00092853917
-0.00053531568
-0.021967873
-0.022985299
-0.024047789
-0.025185623
-0.02627465
-0.027268814
-0.02817802
-0.029007866
-0.02974946
-0.030391572
-0.030926524
-0.031348923
-0.031654008
-0.031837665
-0.031896974
-0.03183046
-0.031638114
-0.031321376
-0.030883158
-0.030327832
-0.029661174
-0.028890268
-0.028023369
-0.027069748
-0.0260395
-0.024943343
-0.023792402
-0.022597983
-0.02137135
-0.020123516
-0.018865048
-0.017605892
-0.016355226
-0.015121334
-0.013911516
-0.012732024
-0.011588027
-0.010483591
-0.0094216914
-0.0084042254
-0.0074320303
-0.0065049031
-0.0056215707
-0.0047797663
-0.0039757017
-0.0032059509
-0.0024591663
-0.0017503476
-0.00098422763
-0.00053418012
-0.01747986
-0.01844449
-0.019450386
-0.020522183
-0.021560284
-0.022527058
-0.023429669
-0.024271895
-0.025045765
-0.025741204
-0.026350804
-0.026868856
-0.027290045
-0.027609464
-0.02782308
-0.027927974
-0.027922388
-0.027805764
-0.027578795
-0.027243463
-0.026803032
-0.026262015
-0.025626093
-0.024902015
-0.024097474
-0.023220941
-0.022281504
-0.021288676
-0.020252199
-0.01918185
-0.018087252
-0.016977702
-0.015862003
-0.014748329
-0.013644105
-0.012555912
-0.011489423
-0.010449349
-0.0094394098
-0.0084623234
-0.0075197899
-0.0066124881
-0.0057400334
-0.004901032
-0.0040926224
-0.0033121149
-0.0025496906
-0.0018189055
-0.0010332416
-0.00053810406
-0.013515363
-0.014423148
-0.015368324
-0.01637076
-0.017351302
-0.01827955
-0.01916064
-0.019997051
-0.020781817
-0.021506118
-0.022163089
-0.022747094
-0.023252692
-0.023674647
-0.024008319
-0.024249874
-0.024396354
-0.024445737
-0.024397013
-0.024250252
-0.024006636
-0.023668468
-0.023239144
-0.02272311
-0.022125779
-0.021453428
-0.020713077
-0.01991234
-0.01905927
-0.01816219
-0.017229523
-0.016269621
-0.015290616
-0.01430026
-0.013305802
-0.012313871
-0.01133038
-0.010360449
-0.0094083501
-0.0084774553
-0.0075702016
-0.0066880589
-0.0058314724
-0.0049998936
-0.0041913641
-0.0034039699
-0.0026292271
-0.0018799706
-0.0010758972
-0.00054508396
-0.01003179
-0.010882276
-0.011766236
-0.01269945
-0.01361981
-0.0145031
-0.015352928
-0.01617083
-0.016950846
-0.01768541
-0.018368363
-0.018994393
-0.01955823
-0.020054658
-0.020478817
-0.020826393
-0.02109369
-0.0212777
-0.021376187
-0.021387774
-0.021311997
-0.021149348
-0.020901289
-0.020570241
-0.020159558
-0.019673468
-0.019116994
-0.018495852
-0.017816338
-0.017085193
-0.016309459
-0.015496333
-0.01465302
-0.01378659
-0.012903842
-0.012011182
-0.011114507
-0.010219112
-0.0093296054
-0.0084498336
-0.0075828206
-0.006730711
-0.0058946942
-0.0050750122
-0.0042705664
-0.003480233
-0.0026967319
-0.0019326961
-0.0011124782
-0.00055315774
-0.0069907274
-0.0077861443
-0.0086111329
-0.009477945
-0.010338687
-0.011174408
-0.011987535
-0.012778901
-0.013543487
-0.014274926
-0.014967818
-0.015617325
-0.016218538
-0.016766486
-0.017256374
-0.017683739
-0.018044513
-0.018335099
-0.018552451
-0.018694165
-0.01875855
-0.018744685
-0.018652462
-0.018482609
-0.018236696
-0.01791712
-0.017527063
-0.017070439
-0.016551811
-0.015976303
-0.015349489
-0.014677271
-0.013965753
-0.013221115
-0.01244948
-0.011656795
-0.010848708
-0.01003046
-0.009206785
-0.0083818151
-0.0075589976
-0.006741016
-0.0059296966
-0.0051259926
-0.0043296037
-0.0035401837
-0.0027515673
-0.0019765104
-0.0011431508
-0.00056084057
-0.0043594246
-0.0051035933
-0.0058735741
-0.0066785106
-0.0074823603
-0.0082706346
-0.0090448314
-0.0098052332
-0.01054767
-0.011266862
-0.011958167
-0.012617278
-0.013239746
-0.013820982
-0.014356442
-0.014841739
-0.015272709
-0.015645472
-0.015956511
-0.016202753
-0.016381647
-0.016491229
-0.016530178
-0.016497867
-0.016394387
-0.016220565
-0.015977962
-0.015668849
-0.01529617
-0.014863481
-0.014374883
-0.013834927
-0.013248516
-0.012620803
-0.011957068
-0.011262613
-0.010542636
-0.0098021256
-0.0090457443
-0.0082777271
-0.007501778
-0.0067209743
-0.0059376569
-0.005153393
-0.0043686016
-0.0035836765
-0.0027934948
-0.0020111095
-0.0011679738
-0.00056718902
-0.0021121036
-0.0028104709
-0.003531058
-0.0042803612
-0.0050321489
-0.0057756608
-0.0065116459
-0.0072399437
-0.0079571144
-0.0086588364
-0.0093411685
-0.010000332
-0.010632369
-0.011233135
-0.011798432
-0.012324097
-0.012806055
-0.013240363
-0.013623289
-0.013951378
-0.014221523
-0.014431041
-0.014577726
-0.014659913
-0.014676525
-0.014627108
-0.014511851
-0.014331603
-0.014087857
-0.013782728
-0.013418917
-0.012999653
-0.012528623
-0.012009891
-0.011447804
-0.010846892
-0.010211762
-0.0095469914
-0.0088570095
-0.0081459912
-0.0074177424
-0.0066755911
-0.0059222648
-0.0051598353
-0.0043893474
-0.0036118717
-0.002823251
-0.0020369031
-0.0011873145
-0.00057188943
-0.00022391973
-0.00088201256
-0.0015591307
-0.0022593873
-0.0029646168
-0.0036671696
-0.0043671897
-0.0050641457
-0.0057552046
-0.0064368581
-0.0071057823
-0.007758689
-0.0083920881
-0.0090022829
-0.0095854594
-0.01013775
-0.01065527
-0.011134164
-0.011570656
-0.011961118
-0.012302128
-0.012590537
-0.012823531
-0.012998695
-0.013114065
-0.013168182
-0.013160133
-0.013089578
-0.012956771
-0.012762565
-0.012508399
-0.012196275
-0.011828716
-0.01140871
-0.010939644
-0.010425221
-0.0098693715
-0.0092761517
-0.008649638
-0.0079938141
-0.0073124542
-0.0066090067
-0.0058864609
-0.0051472796
-0.0043930298
-0.003625376
-0.0028410347
-0.0020537858
-0.0012009369
-0.00057449415
0.0013018535
0.00067654922
3.5189612e-05
-0.00062458786
-0.0012910243
-0.0019589102
-0.0026278942
-0.0032971472
-0.0039643223
-0.0046265699
-0.0052810778
-0.0059249768
-0.0065551897
-0.0071684261
-0.0077612391
-0.0083300676
-0.0088712649
-0.0093811316
-0.0098559602
-0.010292085
-0.010685937
-0.011034101
-0.011333376
-0.011580835
-0.011773885
-0.011910323
-0.011988393
-0.012006824
-0.011964873
-0.011862349
-0.011699623
-0.011477633
-0.01119787
-0.010862346
-0.01047355
-0.010034387
-0.0095481072
-0.0090182179
-0.0084483855
-0.0078423284
-0.0072037007
-0.0065359718
-0.005842289
-0.0051253993
-0.0043872852
-0.0036301061
-0.0028513395
-0.0020650746
-0.0012111771
-0.00057619937
0.0025072808
0.0019089686
0.0012968963
0.00067031944
3.5997207e-05
-0.00060281009
-0.0012453691
-0.0018906017
-0.0025365294
-0.0031808159
-0.0038210545
-0.0044547147
-0.0050790587
-0.005691138
-0.0062878252
-0.00686584
-0.0074217699
-0.0079520958
-0.0084532259
-0.0089215369
-0.0093534186
-0.009745325
-0.010093828