/*--------------------------------*- C++ -*----------------------------------*\
| =========                 |                                                 |
| \\      /  F ield         | OpenFOAM: The Open Source CFD Toolbox           |
|  \\    /   O peration     | Version:  4.1                                   |
|   \\  /    A nd           | Web:      www.OpenFOAM.org                      |
|    \\/     M anipulation  |                                                 |
\*---------------------------------------------------------------------------*/
FoamFile
{
    version     2.0;
    format      ascii;
    class       volScalarField;
    location    "15";
    object      p;
}
// * * * * * * * * * * * * * * * * * * * * * * * * * * * * * * * * * * * * * //

dimensions      [0 2 -2 0 0 0 0];

internalField   nonuniform List<scalar> 
1000
(
1.5226745
1.5062105
1.4900465
1.474103
1.4583045
1.4426012
1.4269647
1.4113797
1.3958369
1.3803293
1.3648508
1.3493967
1.3339632
1.3185478
1.3031486
1.287764
1.2723926
1.2570332
1.2416848
1.2263465
1.2110174
1.1956969
1.1803841
1.1650786
1.1497798
1.1344872
1.1192003
1.1039187
1.088642
1.0733698
1.0581018
1.0428378
1.0275774
1.0123203
0.99706641
0.98181538
0.96656703
0.95132117
0.93607762
0.92083621
0.90559679
0.89035921
0.87512334
0.85988906
0.84465623
0.82942477
0.81419456
0.79896551
0.78373755
0.76851057
0.75328452
0.73805932
0.7228349
0.7076112
0.69238818
0.67716577
0.66194394
0.64672262
0.63150179
0.61628141
0.60106143
0.58584183
0.57062257
0.55540364
0.54018499
0.52496661
0.50974847
0.49453056
0.47931286
0.46409534
0.44887799
0.4336608
0.41844375
0.40322682
0.38801002
0.37279333
0.35757673
0.34236022
0.32714379
0.31192743
0.29671114
0.2814949
0.26627872
0.25106259
0.2358465
0.22063044
0.20541442
0.19019843
0.17498247
0.15976653
0.14455061
0.12933471
0.11411882
0.098902953
0.083687094
0.068471244
0.053255403
0.038039568
0.022823739
0.0076079125
1.5224353
1.5059501
1.4899664
1.4741676
1.4584124
1.4426947
1.427035
1.4114359
1.3958864
1.380374
1.3648904
1.349431
1.3339929
1.3185739
1.3031718
1.2877849
1.2724115
1.2570504
1.2417004
1.2263608
1.2110305
1.1957088
1.1803951
1.1650888
1.1497892
1.1344958
1.1192082
1.103926
1.0886487
1.073376
1.0581076
1.0428431
1.0275823
1.0123249
0.99707062
0.98181926
0.96657061
0.95132448
0.93608067
0.92083903
0.90559939
0.89036161
0.87512555
0.85989109
0.84465811
0.82942649
0.81419615
0.79896698
0.78373889
0.76851181
0.75328565
0.73806035
0.72283585
0.70761208
0.69238898
0.6771665
0.6619446
0.64672323
0.63150235
0.61628191
0.60106189
0.58584225
0.57062296
0.55540398
0.5401853
0.5249669
0.50974873
0.4945308
0.47931307
0.46409553
0.44887816
0.43366095
0.41844388
0.40322695
0.38801013
0.37279342
0.35757682
0.3423603
0.32714386
0.31192749
0.29671119
0.28149495
0.26627876
0.25106262
0.23584653
0.22063047
0.20541445
0.19019845
0.17498249
0.15976654
0.14455062
0.12933472
0.11411883
0.09890296
0.0836871
0.068471249
0.053255407
0.038039572
0.022823744
0.0076079151
1.5219992
1.5054136
1.4896788
1.4741377
1.4584983
1.4427852
1.4270959
1.4114765
1.3959213
1.3804086
1.3649234
1.3494602
1.3340178
1.3185951
1.3031904
1.2878014
1.2724263
1.2570638
1.2417125
1.2263717
1.2110404
1.1957179
1.1804034
1.1650963
1.1497961
1.1345022
1.1192141
1.1039314
1.0886537
1.0733806
1.0581118
1.042847
1.0275859
1.0123282
0.99707368
0.98182208
0.96657322
0.95132689
0.9360829
0.92084108
0.90560129
0.89036336
0.87512717
0.85989258
0.84465948
0.82942776
0.81419731
0.79896805
0.78373988
0.76851271
0.75328649
0.73806112
0.72283655
0.70761272
0.69238957
0.67716705
0.6619451
0.64672369
0.63150277
0.6162823
0.60106224
0.58584257
0.57062325
0.55540425
0.54018555
0.52496711
0.50974893
0.49453098
0.47931323
0.46409567
0.44887829
0.43366107
0.41844399
0.40322705
0.38801022
0.3727935
0.35757689
0.34236036
0.32714391
0.31192754
0.29671123
0.28149499
0.2662788
0.25106265
0.23584655
0.22063049
0.20541447
0.19019847
0.1749825
0.15976656
0.14455063
0.12933473
0.11411884
0.098902967
0.083687106
0.068471255
0.053255413
0.038039577
0.022823749
0.0076079181
1.5215634
1.5048324
1.4893138
1.4740477
1.4585585
1.4428708
1.4271562
1.4115151
1.3959542
1.3804431
1.3649584
1.3494922
1.3340453
1.3186185
1.3032107
1.2878195
1.2724426
1.2570783
1.2417256
1.2263835
1.2110511
1.1957276
1.1804123
1.1651044
1.1498035
1.134509
1.1192203
1.1039372
1.088659
1.0733855
1.0581164
1.0428512
1.0275898
1.0123318
0.99707698
0.98182514
0.96657605
0.9513295
0.93608532
0.92084332
0.90560336
0.89036528
0.87512894
0.85989422
0.844661
0.82942916
0.81419861
0.79896924
0.78374098
0.76851373
0.75328743
0.73806199
0.72283735
0.70761346
0.69239025
0.67716767
0.66194568
0.64672422
0.63150325
0.61628274
0.60106265
0.58584294
0.57062359
0.55540456
0.54018583
0.52496738
0.50974917
0.4945312
0.47931343
0.46409586
0.44887846
0.43366122
0.41844413
0.40322717
0.38801033
0.37279361
0.35757698
0.34236044
0.32714399
0.31192761
0.29671129
0.28149504
0.26627885
0.2510627
0.23584659
0.22063053
0.2054145
0.1901985
0.17498252
0.15976658
0.14455065
0.12933475
0.11411886
0.09890298
0.083687117
0.068471264
0.053255421
0.038039586
0.022823756
0.007607923
1.5213007
1.5044682
1.4890694
1.4739747
1.4585889
1.4429243
1.4271957
1.4115403
1.3959755
1.3804661
1.3649823
1.3495147
1.334065
1.3186356
1.3032257
1.2878329
1.2724547
1.2570893
1.2417355
1.2263924
1.2110592
1.195735
1.1804191
1.1651107
1.1498092
1.1345143
1.1192252
1.1039416
1.0886631
1.0733893
1.0581199
1.0428545
1.0275928
1.0123346
0.99707957
0.98182754
0.96657827
0.95133156
0.93608722
0.92084509
0.90560499
0.89036679
0.87513034
0.85989552
0.8446622
0.82943027
0.81419964
0.7989702
0.78374186
0.76851455
0.75328818
0.73806268
0.72283799
0.70761405
0.6923908
0.67716817
0.66194614
0.64672464
0.63150364
0.6162831
0.60106298
0.58584325
0.57062387
0.55540482
0.54018607
0.52496759
0.50974937
0.49453138
0.4793136
0.46409601
0.4488786
0.43366135
0.41844424
0.40322727
0.38801043
0.37279369
0.35757706
0.34236051
0.32714405
0.31192767
0.29671135
0.28149509
0.26627889
0.25106273
0.23584663
0.22063056
0.20541452
0.19019852
0.17498255
0.1597666
0.14455067
0.12933476
0.11411887
0.098902991
0.083687127
0.068471273
0.053255429
0.038039593
0.022823761
0.0076079274
1.5213007
1.5044682
1.4890693
1.4739746
1.4585889
1.4429243
1.4271957
1.4115403
1.3959755
1.3804661
1.3649823
1.3495147
1.334065
1.3186356
1.3032257
1.2878329
1.2724547
1.2570893
1.2417355
1.2263924
1.2110592
1.195735
1.1804191
1.1651107
1.1498092
1.1345143
1.1192252
1.1039416
1.0886631
1.0733893
1.0581199
1.0428545
1.0275928
1.0123346
0.99707957
0.98182754
0.96657827
0.95133156
0.93608722
0.92084509
0.90560499
0.89036679
0.87513034
0.85989552
0.8446622
0.82943027
0.81419964
0.79897019
0.78374186
0.76851454
0.75328818
0.73806268
0.72283799
0.70761405
0.69239079
0.67716817
0.66194614
0.64672464
0.63150364
0.6162831
0.60106298
0.58584325
0.57062387
0.55540482
0.54018607
0.52496759
0.50974937
0.49453138
0.4793136
0.46409601
0.4488786
0.43366135
0.41844424
0.40322727
0.38801043
0.37279369
0.35757706
0.34236051
0.32714405
0.31192767
0.29671135
0.28149509
0.26627889
0.25106273
0.23584663
0.22063056
0.20541452
0.19019852
0.17498255
0.1597666
0.14455067
0.12933476
0.11411887
0.098902991
0.083687127
0.068471273
0.053255429
0.038039593
0.022823762
0.0076079277
1.5215634
1.5048324
1.4893138
1.4740476
1.4585585
1.4428707
1.4271562
1.4115151
1.3959541
1.3804431
1.3649584
1.3494922
1.3340453
1.3186185
1.3032108
1.2878195
1.2724426
1.2570784
1.2417256
1.2263835
1.2110511
1.1957276
1.1804123
1.1651044
1.1498035
1.134509
1.1192203
1.1039372
1.088659
1.0733855
1.0581164
1.0428512
1.0275898
1.0123318
0.99707698
0.98182514
0.96657605
0.9513295
0.93608532
0.92084332
0.90560336
0.89036528
0.87512894
0.85989422
0.844661
0.82942916
0.81419861
0.79896924
0.78374098
0.76851373
0.75328742
0.73806199
0.72283735
0.70761346
0.69239025
0.67716767
0.66194568
0.64672422
0.63150325
0.61628274
0.60106265
0.58584294
0.57062359
0.55540456
0.54018583
0.52496738
0.50974917
0.4945312
0.47931343
0.46409586
0.44887846
0.43366122
0.41844413
0.40322717
0.38801033
0.37279361
0.35757698
0.34236044
0.32714399
0.31192761
0.29671129
0.28149504
0.26627885
0.2510627
0.23584659
0.22063053
0.2054145
0.1901985
0.17498253
0.15976658
0.14455065
0.12933475
0.11411886
0.09890298
0.083687117
0.068471265
0.053255422
0.038039586
0.022823757
0.0076079236
1.5219992
1.5054136
1.4896789
1.4741377
1.4584983
1.4427852
1.4270958
1.4114765
1.3959212
1.3804086
1.3649234
1.3494602
1.3340178
1.3185951
1.3031904
1.2878014
1.2724264
1.2570638
1.2417125
1.2263717
1.2110404
1.1957179
1.1804034
1.1650963
1.1497961
1.1345022
1.1192141
1.1039314
1.0886537
1.0733806
1.0581118
1.042847
1.0275859
1.0123282
0.99707368
0.98182209
0.96657322
0.95132689
0.9360829
0.92084108
0.90560129
0.89036336
0.87512717
0.85989258
0.84465948
0.82942776
0.81419731
0.79896805
0.78373987
0.76851271
0.75328648
0.73806112
0.72283655
0.70761272
0.69238957
0.67716705
0.6619451
0.64672369
0.63150277
0.6162823
0.60106224
0.58584257
0.57062325
0.55540425
0.54018554
0.52496711
0.50974893
0.49453098
0.47931323
0.46409567
0.44887829
0.43366107
0.41844399
0.40322705
0.38801022
0.3727935
0.35757689
0.34236036
0.32714391
0.31192754
0.29671123
0.28149499
0.2662788
0.25106265
0.23584655
0.22063049
0.20541447
0.19019847
0.1749825
0.15976656
0.14455063
0.12933473
0.11411884
0.098902968
0.083687107
0.068471255
0.053255413
0.038039578
0.02282375
0.0076079187
1.5224352
1.5059501
1.4899664
1.4741677
1.4584124
1.4426947
1.427035
1.4114359
1.3958864
1.380374
1.3648904
1.349431
1.3339929
1.3185739
1.3031719
1.2877849
1.2724115
1.2570504
1.2417005
1.2263608
1.2110305
1.1957088
1.1803951
1.1650888
1.1497892
1.1344958
1.1192082
1.103926
1.0886487
1.073376
1.0581076
1.0428431
1.0275823
1.0123249
0.99707062
0.98181926
0.96657061
0.95132448
0.93608067
0.92083903
0.90559939
0.89036161
0.87512555
0.85989109
0.84465811
0.82942649
0.81419615
0.79896697
0.78373889
0.7685118
0.75328565
0.73806035
0.72283585
0.70761207
0.69238898
0.6771665
0.6619446
0.64672323
0.63150235
0.61628191
0.60106189
0.58584225
0.57062296
0.55540398
0.5401853
0.52496689
0.50974873
0.4945308
0.47931307
0.46409553
0.44887816
0.43366095
0.41844388
0.40322695
0.38801013
0.37279342
0.35757682
0.3423603
0.32714386
0.31192749
0.29671119
0.28149495
0.26627876
0.25106262
0.23584653
0.22063047
0.20541445
0.19019845
0.17498249
0.15976654
0.14455062
0.12933472
0.11411883
0.098902961
0.0836871
0.06847125
0.053255408
0.038039573
0.022823745
0.0076079154
1.5226745
1.5062105
1.4900465
1.474103
1.4583045
1.4426012
1.4269647
1.4113797
1.3958369
1.3803293
1.3648508
1.3493967
1.3339632
1.3185479
1.3031486
1.287764
1.2723926
1.2570333
1.2416849
1.2263465
1.2110175
1.1956969
1.1803841
1.1650786
1.1497798
1.1344872
1.1192003
1.1039187
1.088642
1.0733698
1.0581018
1.0428378
1.0275774
1.0123203
0.99706641
0.98181538
0.96656703
0.95132117
0.93607762
0.92083621
0.90559679
0.89035921
0.87512334
0.85988905
0.84465623
0.82942477
0.81419456
0.79896551
0.78373754
0.76851057
0.75328452
0.73805931
0.7228349
0.7076112
0.69238818
0.67716577
0.66194393
0.64672262
0.63150179
0.61628141
0.60106143
0.58584183
0.57062257
0.55540364
0.54018499
0.52496661
0.50974847
0.49453056
0.47931286
0.46409534
0.44887799
0.4336608
0.41844375
0.40322683
0.38801002
0.37279333
0.35757673
0.34236022
0.32714379
0.31192743
0.29671114
0.2814949
0.26627872
0.25106259
0.2358465
0.22063044
0.20541442
0.19019843
0.17498247
0.15976653
0.14455061
0.12933471
0.11411883
0.098902954
0.083687095
0.068471245
0.053255403
0.038039569
0.02282374
0.0076079127
)
;

boundaryField
{
    top
    {
        type            zeroGradient;
    }
    inlet
    {
        type            fixedValue;
        value           uniform 1.53103;
    }
    outlet
    {
        type            fixedValue;
        value           uniform 0;
    }
    bottom
    {
        type            zeroGradient;
    }
    back
    {
        type            empty;
    }
    front
    {
        type            empty;
    }
}


// ************************************************************************* //
