/*--------------------------------*- C++ -*----------------------------------*\
| =========                 |                                                 |
| \\      /  F ield         | OpenFOAM: The Open Source CFD Toolbox           |
|  \\    /   O peration     | Version:  4.1                                   |
|   \\  /    A nd           | Web:      www.OpenFOAM.org                      |
|    \\/     M anipulation  |                                                 |
\*---------------------------------------------------------------------------*/
FoamFile
{
    version     2.0;
    format      ascii;
    class       surfaceScalarField;
    location    "15";
    object      phi;
}
// * * * * * * * * * * * * * * * * * * * * * * * * * * * * * * * * * * * * * //

dimensions      [0 3 -1 0 0 0 0];

internalField   nonuniform List<scalar> 
1890
(
0.0029108839
1.8365953e-06
0.0029047791
6.1058129e-06
0.0028973363
7.4430523e-06
0.002890711
6.6250427e-06
0.0028855129
5.197601e-06
0.0028814683
4.0441534e-06
0.0028781632
3.3047066e-06
0.0028753381
2.824679e-06
0.0028728796
2.4581945e-06
0.0028707353
2.1439764e-06
0.0028688609
1.8741475e-06
0.002867209
1.6516051e-06
0.0028657367
1.4720691e-06
0.0028644112
1.3253648e-06
0.0028632096
1.2014853e-06
0.0028621157
1.0937655e-06
0.0028611169
9.9862096e-07
0.0028602028
9.1405248e-07
0.0028593641
8.3856415e-07
0.0028585933
7.7080916e-07
0.0028578836
7.0961905e-07
0.0028572294
6.5406016e-07
0.002856626
6.0341769e-07
0.0028560688
5.5712657e-07
0.0028555541
5.1471918e-07
0.0028550782
4.7579014e-07
0.0028546382
4.3998943e-07
0.0028542312
4.0701096e-07
0.0028538546
3.7659191e-07
0.002853506
3.4850004e-07
0.0028531835
3.2253356e-07
0.002852885
2.985104e-07
0.0028526087
2.7627109e-07
0.002852353
2.5566971e-07
0.0028521164
2.3657808e-07
0.0028518975
2.1887739e-07
0.0028516951
2.0246302e-07
0.0028515078
1.8723672e-07
0.0028513347
1.7311192e-07
0.0028511747
1.6000627e-07
0.0028510269
1.4784734e-07
0.0028508903
1.3656543e-07
0.0028507642
1.2609941e-07
0.0028506478
1.1638976e-07
0.0028505404
1.0738452e-07
0.0028504414
9.9032538e-08
0.0028503501
9.128946e-08
0.002850266
8.4111052e-08
0.0028501886
7.7459293e-08
0.0028501173
7.129582e-08
0.0028500517
6.5587968e-08
0.0028499914
6.030233e-08
0.002849936
5.5410787e-08
0.0028498851
5.0884211e-08
0.0028498384
4.6698394e-08
0.0028497956
4.2827856e-08
0.0028497564
3.9251746e-08
0.0028497204
3.5947776e-08
0.0028496875
3.2898012e-08
0.0028496574
3.0082899e-08
0.00284963
2.7487022e-08
0.0028496049
2.5093237e-08
0.002849582
2.2888332e-08
0.0028495611
2.0857232e-08
0.0028495422
1.8988625e-08
0.0028495249
1.726927e-08
0.0028495092
1.5689533e-08
0.002849495
1.4237744e-08
0.0028494821
1.2905709e-08
0.0028494704
1.1683165e-08
0.0028494598
1.0563198e-08
0.0028494503
9.5367377e-09
0.0028494417
8.5979748e-09
0.002849434
7.7389218e-09
0.002849427
6.9547525e-09
0.0028494208
6.2383972e-09
0.0028494152
5.585876e-09
0.0028494102
4.9909587e-09
0.0028494058
4.4504219e-09
0.0028494018
3.9587378e-09
0.0028493983
3.5133203e-09
0.0028493952
3.1092869e-09
0.0028493924
2.7446093e-09
0.00284939
2.4149298e-09
0.0028493879
2.1186648e-09
0.0028493861
1.8519365e-09
0.0028493845
1.6135351e-09
0.0028493831
1.3999499e-09
0.0028493819
1.2102558e-09
0.0028493808
1.041244e-09
0.0028493799
8.9225642e-10
0.0028493792
7.6018179e-10
0.0028493785
6.4467197e-10
0.002849378
5.4220297e-10
0.0028493775
4.5268144e-10
0.0028493772
3.7159292e-10
0.0028493769
2.9949316e-10
0.0028493766
2.300752e-10
0.0028493765
1.5928434e-10
9.9035832e-11
0.0073080589
2.0297942e-06
0.0073055292
8.6367113e-06
0.0073010038
1.1968985e-05
0.0072957687
1.1859896e-05
0.0072907031
1.0262692e-05
0.0072860301
8.716735e-06
0.0072817081
7.6263555e-06
0.0072776903
6.8421622e-06
0.007273977
6.171304e-06
0.0072705806
5.5400255e-06
0.0072674953
4.9591987e-06
0.0072646954
4.4513394e-06
0.0072621482
4.0190981e-06
0.0072598238
3.649627e-06
0.0072576976
3.3275447e-06
0.0072557493
3.0419374e-06
0.0072539613
2.7865392e-06
0.0072523178
2.5574217e-06
0.007250805
2.35131e-06
0.0072494106
2.1651384e-06
0.007248124
1.9961865e-06
0.0072469358
1.8422232e-06
0.0072458377
1.7014687e-06
0.0072448223
1.5724783e-06
0.0072438829
1.4540292e-06
0.0072430136
1.3450655e-06
0.0072422089
1.2446649e-06
0.0072414639
1.1520266e-06
0.007240774
1.0664491e-06
0.0072401352
9.8731818e-07
0.0072395436
9.1408729e-07
0.0072389958
8.4627141e-07
0.0072384887
7.8343302e-07
0.0072380192
7.2518106e-07
0.0072375846
6.7115947e-07
0.0072371824
6.2104798e-07
0.0072368103
5.7455239e-07
0.0072364661
5.3140683e-07
0.0072361479
4.9136516e-07
0.0072358537
4.5420408e-07
0.0072355818
4.1971552e-07
0.0072353307
3.8771037e-07
0.0072350987
3.5801139e-07
0.0072348847
3.3045723e-07
0.0072346872
3.0489588e-07
0.007234505
2.8118904e-07
0.0072343371
2.5920578e-07
0.0072341824
2.3882699e-07
0.0072340399
2.1993942e-07
0.0072339088
2.0244027e-07
0.0072337881
1.8623141e-07
0.0072336772
1.7122385e-07
0.0072335753
1.5733228e-07
0.0072334817
1.444797e-07
0.0072333958
1.3259194e-07
0.007233317
1.2160219e-07
0.0072332448
1.1144582e-07
0.0072331787
1.0206498e-07
0.0072331182
9.3403409e-08
0.0072330629
8.5410906e-08
0.0072330124
7.8038388e-08
0.0072329662
7.1242436e-08
0.0072329241
6.4980316e-08
0.0072328858
5.9214393e-08
0.0072328509
5.3907375e-08
0.0072328191
4.9026781e-08
0.0072327903
4.4540164e-08
0.0072327641
4.0419434e-08
0.0072327404
3.6636287e-08
0.0072327189
3.3166577e-08
0.0072326995
2.9985702e-08
0.0072326819
2.7072861e-08
0.0072326661
2.4406612e-08
0.0072326519
2.1969189e-08
0.0072326391
1.9742005e-08
0.0072326276
1.7709853e-08
0.0072326174
1.5856566e-08
0.0072326082
1.4169288e-08
0.0072326
1.2634043e-08
0.0072325927
1.1239934e-08
0.0072325863
9.9748009e-09
0.0072325806
8.829553e-09
0.0072325755
7.7936552e-09
0.0072325711
6.8594729e-09
0.0072325672
6.0177535e-09
0.0072325638
5.2621879e-09
0.0072325608
4.5846711e-09
0.0072325582
3.9798474e-09
0.007232556
3.4405611e-09
0.0072325541
2.9621043e-09
0.0072325524
2.5385221e-09
0.007232551
2.1647862e-09
0.0072325498
1.8369128e-09
0.0072325488
1.5470995e-09
0.007232548
1.2967185e-09
0.0072325473
1.0692513e-09
0.0072325467
8.8147012e-10
0.0072325462
6.9080527e-10
0.0072325458
5.617734e-10
3.8179806e-10
0.010427515
1.4811298e-06
0.010428906
7.2470834e-06
0.010430033
1.0841627e-05
0.01043048
1.1412237e-05
0.010430432
1.0310728e-05
0.010430064
9.0838099e-06
0.010429462
8.2278629e-06
0.010428677
7.6275531e-06
0.010427765
7.0829012e-06
0.010426784
6.5203442e-06
0.010425778
5.9651568e-06
0.010424774
5.4558724e-06
0.010423787
5.0060314e-06
0.010422828
4.6083621e-06
0.010421905
4.2505356e-06
0.010421022
3.9241153e-06
0.010420184
3.6250679e-06
0.01041939
3.3512016e-06
0.010418641
3.1004022e-06
0.010417935
2.8703145e-06
0.010417273
2.6586652e-06
0.010416652
2.4635176e-06
0.01041607
2.2832928e-06
0.010415525
2.1166651e-06
0.010415017
1.9624725e-06
0.010414542
1.8196684e-06
0.0104141
1.6873123e-06
0.010413687
1.5645588e-06
0.010413303
1.450653e-06
0.010412945
1.3449121e-06
0.010412613
1.24672e-06
0.010412303
1.1555129e-06
0.010412016
1.0707785e-06
0.010411749
9.9204512e-07
0.010411501
9.1888242e-07
0.010411272
8.5089226e-07
0.010411058
7.877103e-07
0.010410861
7.2899759e-07
0.010410678
6.7444324e-07
0.010410508
6.2375683e-07
0.010410351
5.766717e-07
0.010410206
5.3293781e-07
0.010410072
4.9232538e-07
0.010409948
4.5461826e-07
0.010409833
4.1961789e-07
0.010409727
3.871369e-07
0.010409629
3.5700325e-07
0.010409539
3.2905412e-07
0.010409456
3.0314027e-07
0.010409379
2.7912005e-07
0.010409308
2.5686377e-07
0.010409243
2.3624806e-07
0.010409184
2.1716021e-07
0.010409129
1.9949272e-07
0.010409078
1.8314757e-07
0.010409032
1.68031e-07
0.010408989
1.5405786e-07
0.01040895
1.4114641e-07
0.010408914
1.292226e-07
0.010408881
1.1821517e-07
0.010408851
1.0805984e-07
0.010408824
9.8694509e-08
0.010408799
9.0063376e-08
0.010408776
8.2112307e-08
0.010408755
7.4792962e-08
0.010408736
6.8058206e-08
0.010408719
6.1866174e-08
0.010408703
5.6175816e-08
0.010408688
5.0950973e-08
0.010408675
4.6155964e-08
0.010408664
4.1759562e-08
0.010408653
3.7730738e-08
0.010408643
3.4042642e-08
0.010408635
3.0668369e-08
0.010408627
2.7584844e-08
0.01040862
2.4768742e-08
0.010408613
2.2200345e-08
0.010408608
1.9859518e-08
0.010408603
1.7729421e-08
0.010408598
1.5792669e-08
0.010408594
1.4034972e-08
0.01040859
1.2441386e-08
0.010408587
1.0999753e-08
0.010408584
9.697187e-09
0.010408582
8.5233985e-09
0.01040858
7.4672442e-09
0.010408578
6.5200313e-09
0.010408576
5.6718347e-09
0.010408575
4.9156695e-09
0.010408573
4.2419627e-09
0.010408572
3.6462344e-09
0.010408571
3.1169997e-09
0.01040857
2.6550437e-09
0.01040857
2.2413279e-09
0.010408569
1.8910477e-09
0.010408569
1.5632875e-09
0.010408568
1.3101774e-09
0.010408568
1.0342662e-09
0.010408568
8.8130188e-10
6.2818728e-10
0.012415452
7.5481784e-07
0.012418727
3.9724694e-06
0.01242338
6.1888138e-06
0.012428065
6.7266117e-06
0.012432175
6.1999552e-06
0.012435721
5.5379814e-06
0.012438857
5.0909795e-06
0.012441686
4.7981656e-06
0.01244424
4.5289196e-06
0.012446529
4.2308963e-06
0.012448573
3.9215445e-06
0.012450399
3.6294167e-06
0.012452039
3.3664325e-06
0.012453517
3.1298043e-06
0.012454855
2.9127277e-06
0.012456068
2.7107692e-06
0.012457171
2.5223443e-06
0.012458175
2.3469551e-06
0.012459091
2.183971e-06
0.012459929
2.0324435e-06
0.012460696
1.8913539e-06
0.0124614
1.7598247e-06
0.012462046
1.6371397e-06
0.01246264
1.522697e-06
0.012463186
1.4159442e-06
0.01246369
1.3163691e-06
0.012464153
1.2234861e-06
0.012464581
1.136853e-06
0.012464976
1.0560539e-06
0.01246534
9.807106e-07
0.012465676
9.1046336e-07
0.012465987
8.449838e-07
0.012466273
7.8395698e-07
0.012466538
7.2709615e-07
0.012466783
6.7412512e-07
0.012467009
6.2479354e-07
0.012467218
5.7885893e-07
0.012467411
5.3610234e-07
0.012467589
4.9631054e-07
0.012467754
4.5929215e-07
0.012467905
4.2485971e-07
0.012468045
3.9284583e-07
0.012468175
3.6308563e-07
0.012468294
3.3543295e-07
0.012468404
3.0974283e-07
0.012468505
2.8588761e-07
0.012468598
2.637398e-07
0.012468684
2.4318814e-07
0.012468763
2.2412058e-07
0.012468836
2.0644013e-07
0.012468903
1.9004828e-07
0.012468964
1.7486072e-07
0.01246902
1.6079087e-07
0.012469072
1.4776544e-07
0.01246912
1.3570833e-07
0.012469163
1.24556e-07
0.012469203
1.142416e-07
0.012469239
1.0471007e-07
0.012469273
9.5902637e-08
0.012469303
8.7771751e-08
0.012469331
8.0265791e-08
0.012469356
7.3343716e-08
0.012469379
6.6960123e-08
0.0124694
6.1079795e-08
0.01246942
5.5662791e-08
0.012469437
5.0678837e-08
0.012469453
4.6092855e-08
0.012469467
4.1878993e-08
0.01246948
3.8006433e-08
0.012469492
3.4453105e-08
0.012469502
3.1191871e-08
0.012469512
2.8204078e-08
0.01246952
2.5465865e-08
0.012469528
2.2961469e-08
0.012469535
2.0669848e-08
0.012469541
1.8577879e-08
0.012469547
1.6667041e-08
0.012469552
1.4926417e-08
0.012469556
1.3339648e-08
0.01246956
1.1897853e-08
0.012469563
1.0586592e-08
0.012469566
9.3986543e-09
0.012469569
8.3212237e-09
0.012469571
7.3486103e-09
0.012469573
6.4694541e-09
0.012469575
5.6791887e-09
0.012469577
4.9677718e-09
0.012469578
4.3314213e-09
0.012469579
3.761651e-09
0.01246958
3.254455e-09
0.012469581
2.8038706e-09
0.012469582
2.4034102e-09
0.012469582
2.0527066e-09
0.012469583
1.7375886e-09
0.012469583
1.4716508e-09
0.012469584
1.2202695e-09
0.012469584
1.0306943e-09
0.012469584
8.1691197e-10
0.012469584
7.0677568e-10
5.1312994e-10
0.013380689
3.3107136e-11
0.013384662
9.6020313e-11
0.013390851
3.0574178e-11
0.013397577
-1.5622649e-11
0.013403776
9.6600437e-12
0.013409314
9.7409077e-11
0.013414404
1.7743786e-10
0.013419202
2.1741554e-10
0.01342373
2.2588829e-10
0.013427961
2.2861448e-10
0.013431882
2.3256208e-10
0.013435511
2.3501835e-10
0.013438877
2.3081931e-10
0.013442006
2.2020988e-10
0.013444919
2.0502317e-10
0.013447629
1.8703053e-10
0.013450151
1.6773476e-10
0.013452498
1.4694223e-10
0.013454682
1.2620452e-10
0.013456714
1.0494067e-10
0.013458605
8.5046629e-11
0.013460365
6.5337818e-11
0.013462002
4.7798341e-11
0.013463525
3.0809889e-11
0.013464941
1.6370358e-11
0.013466257
3.0143215e-12
0.01346748
-9.2273874e-12
0.013468617
-2.0221395e-11
0.013469673
-2.8728866e-11
0.013470654
-3.7185271e-11
0.013471564
-4.3254311e-11
0.013472409
-4.9414976e-11
0.013473194
-5.329836e-11
0.013473921
-5.7641373e-11
0.013474595
-5.9900877e-11
0.01347522
-6.27023e-11
0.013475799
-6.3498079e-11
0.013476335
-6.5105615e-11
0.013476831
-6.4866906e-11
0.01347729
-6.5434787e-11
0.013477715
-6.4200681e-11
0.013478108
-6.3964074e-11
0.013478471
-6.2064598e-11
0.013478807
-6.1098991e-11
0.013479117
-5.8500809e-11
0.013479403
-5.6985321e-11
0.013479667
-5.3964209e-11
0.01347991
-5.1944558e-11
0.013480134
-4.8442953e-11
0.01348034
-4.6073603e-11
0.01348053
-4.2343747e-11
0.013480705
-3.9661157e-11
0.013480866
-3.5643707e-11
0.013481014
-3.2795521e-11
0.01348115
-2.8736961e-11
0.013481274
-2.5768405e-11
0.013481389
-2.1630929e-11
0.013481493
-1.870088e-11
0.013481589
-1.4742509e-11
0.013481677
-1.1912729e-11
0.013481757
-8.1281017e-12
0.013481831
-5.5639621e-12
0.013481898
-2.2363419e-12
0.013481959
6.3953521e-14
0.013482014
3.1179506e-12
0.013482065
4.8636835e-12
0.013482111
7.3988412e-12
0.013482153
8.6724841e-12
0.013482191
1.0794549e-11
0.013482225
1.1572623e-11
0.013482257
1.317298e-11
0.013482285
1.3549393e-11
0.01348231
1.4813163e-11
0.013482333
1.4805268e-11
0.013482354
1.5670535e-11
0.013482372
1.5401026e-11
0.013482389
1.6067755e-11
0.013482404
1.5551799e-11
0.013482417
1.5949744e-11
0.013482429
1.5286018e-11
0.01348244
1.5580845e-11
0.013482449
1.4743518e-11
0.013482458
1.4824041e-11
0.013482465
1.3864727e-11
0.013482471
1.3851366e-11
0.013482477
1.2700104e-11
0.013482482
1.2450557e-11
0.013482486
1.1121481e-11
0.01348249
1.0731107e-11
0.013482493
9.1231945e-12
0.013482496
8.3628387e-12
0.013482498
6.2404694e-12
0.013482501
5.0346681e-12
0.013482502
2.4907366e-12
0.013482504
1.2278356e-12
0.013482505
-6.6248072e-13
0.013482506
-1.8971975e-12
0.013482507
-3.2572893e-12
0.013482508
-7.1350628e-12
-8.7408088e-12
0.013380687
-7.5489572e-07
0.013384661
-3.9728864e-06
0.01339085
-6.1891966e-06
0.013397576
-6.7267675e-06
0.013403775
-6.1999037e-06
0.013409313
-5.5378304e-06
0.013414404
-5.0907495e-06
0.013419201
-4.7978727e-06
0.01342373
-4.5285799e-06
0.01342796
-4.2305213e-06
0.013431882
-3.9211481e-06
0.013435511
-3.6290111e-06
0.013438877
-3.366031e-06
0.013442006
-3.1294173e-06
0.013444919
-2.9123636e-06
0.013447629
-2.7104343e-06
0.013450151
-2.522043e-06
0.013452498
-2.3466904e-06
0.013454682
-2.1837439e-06
0.013456714
-2.0322544e-06
0.013458605
-1.8912014e-06
0.013460365
-1.7597077e-06
0.013462002
-1.6370551e-06
0.013463525
-1.522643e-06
0.013464941
-1.415917e-06
0.013466257
-1.3163668e-06
0.01346748
-1.2235057e-06
0.013468617
-1.1368923e-06
0.013469673
-1.0561092e-06
0.013470654
-9.8078062e-07
0.013471565
-9.1054485e-07
0.01347241
-8.4507573e-07
0.013473194
-7.840565e-07
0.013473921
-7.2720275e-07
0.013474595
-6.742362e-07
0.01347522
-6.2490884e-07
0.013475799
-5.7897617e-07
0.013476335
-5.3622161e-07
0.013476831
-4.9642975e-07
0.01347729
-4.5941148e-07
0.013477715
-4.2497729e-07
0.013478108
-3.9296212e-07
0.013478471
-3.6319884e-07
0.013478807
-3.3554355e-07
0.013479117
-3.0984922e-07
0.013479403
-2.8599044e-07
0.013479666
-2.6383753e-07
0.01347991
-2.4328142e-07
0.013480134
-2.2420802e-07
0.01348034
-2.0652255e-07
0.01348053
-1.9012435e-07
0.013480705
-1.749312e-07
0.013480866
-1.6085461e-07
0.013481014
-1.4782336e-07
0.01348115
-1.3575932e-07
0.013481274
-1.2460098e-07
0.013481388
-1.1427964e-07
0.013481493
-1.0474224e-07
0.013481589
-9.5928074e-08
0.013481677
-8.779155e-08
0.013481757
-8.0279276e-08
0.013481831
-7.3352134e-08
0.013481897
-6.6962866e-08
0.013481959
-6.1078027e-08
0.013482014
-5.5656077e-08
0.013482065
-5.0668561e-08
0.013482111
-4.6078537e-08
0.013482153
-4.1861941e-08
0.013482191
-3.7986207e-08
0.013482225
-3.4431064e-08
0.013482257
-3.1167509e-08
0.013482285
-2.8178616e-08
0.01348231
-2.5438784e-08
0.013482333
-2.2933993e-08
0.013482354
-2.0641364e-08
0.013482372
-1.8549453e-08
0.013482389
-1.6638042e-08
0.013482404
-1.4897926e-08
0.013482417
-1.3310958e-08
0.013482429
-1.1869916e-08
0.01348244
-1.0558721e-08
0.013482449
-9.3718569e-09
0.013482457
-8.2947762e-09
0.013482465
-7.323442e-09
0.013482471
-6.4448951e-09
0.013482477
-5.6562651e-09
0.013482482
-4.9458005e-09
0.013482486
-4.3113919e-09
0.01348249
-3.7429381e-09
0.013482493
-3.2382024e-09
0.013482496
-2.7895235e-09
0.013482498
-2.3922973e-09
0.0134825
-2.0443547e-09
0.013482502
-1.7333063e-09
0.013482504
-1.4699219e-09
0.013482505
-1.2219153e-09
0.013482506
-1.0342312e-09
0.013482507
-8.2224521e-10
0.013482507
-7.1758e-10
-5.2641045e-10
0.012415451
-1.4811073e-06
0.012418726
-7.2469652e-06
0.012423379
-1.0841571e-05
0.012428064
-1.1412285e-05
0.012432174
-1.0310781e-05
0.01243572
-9.0838183e-06
0.012438857
-8.2277974e-06
0.012441686
-7.6274254e-06
0.01244424
-7.0827189e-06
0.012446529
-6.5201225e-06
0.012448573
-5.9649035e-06
0.012450399
-5.4556004e-06
0.012452039
-5.0057505e-06
0.012453517
-4.6080837e-06
0.012454855
-4.2502685e-06
0.012456068
-3.9238662e-06
0.012457171
-3.6248426e-06
0.012458175
-3.3510022e-06
0.012459091
-3.1002319e-06
0.012459929
-2.8701719e-06
0.012460696
-2.6585522e-06
0.0124614
-2.4634304e-06
0.012462046
-2.2832323e-06
0.01246264
-2.1166265e-06
0.012463187
-1.9624567e-06
0.01246369
-1.8196699e-06
0.012464154
-1.687332e-06
0.012464581
-1.5645914e-06
0.012464976
-1.4506998e-06
0.01246534
-1.3449676e-06
0.012465676
-1.2467859e-06
0.012465987
-1.1555841e-06
0.012466274
-1.0708572e-06
0.012466539
-9.9212637e-07
0.012466783
-9.1896878e-07
0.012467009
-8.5097895e-07
0.012467218
-7.8780031e-07
0.012467411
-7.2908627e-07
0.012467589
-6.7453364e-07
0.012467754
-6.2384454e-07
0.012467905
-5.7676003e-07
0.012468045
-5.3302242e-07
0.012468175
-4.9240952e-07
0.012468294
-4.546978e-07
0.012468404
-4.1969628e-07
0.012468505
-3.8721006e-07
0.012468598
-3.5707451e-07
0.012468684
-3.2911961e-07
0.012468763
-3.0320345e-07
0.012468836
-2.7917711e-07
0.012468902
-2.5691807e-07
0.012468964
-2.3629594e-07
0.01246902
-2.1720516e-07
0.012469072
-1.9953115e-07
0.012469119
-1.8318286e-07
0.012469163
-1.6805975e-07
0.012469203
-1.5408357e-07
0.012469239
-1.4116576e-07
0.012469272
-1.29239e-07
0.012469303
-1.1822549e-07
0.01246933
-1.0806763e-07
0.012469356
-9.8696708e-08
0.012469379
-9.0063435e-08
0.0124694
-8.2107324e-08
0.012469419
-7.47865e-08
0.012469436
-6.8047419e-08
0.012469452
-6.1854487e-08
0.012469467
-5.6160481e-08
0.01246948
-5.0935466e-08
0.012469491
-4.6137499e-08
0.012469502
-4.1741428e-08
0.012469511
-3.7710201e-08
0.01246952
-3.4023003e-08
0.012469528
-3.0646825e-08
0.012469535
-2.75645e-08
0.012469541
-2.4746831e-08
0.012469546
-2.2179993e-08
0.012469551
-1.9837896e-08
0.012469556
-1.7709487e-08
0.01246956
-1.5771654e-08
0.012469563
-1.4015888e-08
0.012469566
-1.2421433e-08
0.012469569
-1.0981819e-08
0.012469571
-9.6785543e-09
0.012469573
-8.5070509e-09
0.012469575
-7.450448e-09
0.012469577
-6.505692e-09
0.012469578
-5.6572848e-09
0.012469579
-4.9039622e-09
0.01246958
-4.2304168e-09
0.012469581
-3.6378843e-09
0.012469582
-3.1090826e-09
0.012469582
-2.6509412e-09
0.012469583
-2.2379792e-09
0.012469583
-1.8916129e-09
0.012469584
-1.5646198e-09
0.012469584
-1.3132666e-09
0.012469584
-1.037093e-09
0.012469584
-8.8356651e-10
-6.3238972e-10
0.010427514
-2.0297527e-06
0.010428905
-8.6364932e-06
0.010430032
-1.1968743e-05
0.01043048
-1.1859827e-05
0.010430431
-1.026283e-05
0.010430064
-8.7169707e-06
0.010429462
-7.6265662e-06
0.010428677
-6.8422905e-06
0.010427765
-6.1713445e-06
0.010426784
-5.539999e-06
0.010425778
-4.9591256e-06
0.010424774
-4.4512334e-06
0.010423787
-4.0189694e-06
0.010422828
-3.6494853e-06
0.010421905
-3.3274003e-06
0.010421023
-3.0417981e-06
0.010420184
-2.7864112e-06
0.01041939
-2.5573077e-06
0.010418641
-2.3512126e-06
0.010417936
-2.1650577e-06
0.010417273
-1.9961233e-06
0.010416652
-1.8421759e-06
0.01041607
-1.7014371e-06
0.010415526
-1.5724602e-06
0.010415018
-1.4540241e-06
0.010414543
-1.3450708e-06
0.0104141
-1.2446802e-06
0.010413688
-1.1520495e-06
0.010413303
-1.0664792e-06
0.010412946
-9.8735321e-07
0.010412613
-9.141272e-07
0.010412304
-8.4631423e-07
0.010412016
-7.8347906e-07
0.010411749
-7.2522835e-07
0.010411502
-6.7120849e-07
0.010411272
-6.2109716e-07
0.010411059
-5.7460238e-07
0.010410861
-5.31456e-07
0.010410678
-4.9141426e-07
0.010410508
-4.5425178e-07
0.010410351
-4.1976266e-07
0.010410206
-3.8775551e-07
0.010410072
-3.580554e-07
0.010409947
-3.3049894e-07
0.010409833
-3.0493621e-07
0.010409727
-2.8122668e-07
0.010409629
-2.5924167e-07
0.010409539
-2.3886006e-07
0.010409455
-2.1997063e-07
0.010409379
-2.0246843e-07
0.010409308
-1.8625747e-07
0.010409243
-1.7124684e-07
0.010409183
-1.573532e-07
0.010409128
-1.4449745e-07
0.010409077
-1.326075e-07
0.010409031
-1.216147e-07
0.010408988
-1.114563e-07
0.010408949
-1.0207246e-07
0.010408914
-9.3408914e-08
0.010408881
-8.541368e-08
0.010408851
-7.803952e-08
0.010408823
-7.1241052e-08
0.010408798
-6.4977501e-08
0.010408775
-5.9209474e-08
0.010408754
-5.3901464e-08
0.010408735
-4.9019086e-08
0.010408718
-4.4531772e-08
0.010408702
-4.0409717e-08
0.010408688
-3.6626319e-08
0.010408675
-3.3155562e-08
0.010408663
-2.997466e-08
0.010408653
-2.7061133e-08
0.010408643
-2.4395189e-08
0.010408634
-2.1957237e-08
0.010408626
-1.9730456e-08
0.010408619
-1.7698007e-08
0.010408613
-1.5845333e-08
0.010408607
-1.4157806e-08
0.010408602
-1.2623183e-08
0.010408598
-1.1228983e-08
0.010408594
-9.9646287e-09
0.01040859
-8.8193073e-09
0.010408587
-7.7841903e-09
0.010408584
-6.8500991e-09
0.010408582
-6.0093457e-09
0.010408579
-5.2539295e-09
0.010408578
-4.577444e-09
0.010408576
-3.9729915e-09
0.010408574
-3.4350009e-09
0.010408573
-2.9570324e-09
0.010408572
-2.534843e-09
0.010408571
-2.1616178e-09
0.01040857
-1.835148e-09
0.01040857
-1.5456307e-09
0.010408569
-1.2970561e-09
0.010408568
-1.0706424e-09
0.010408568
-8.8302567e-10
0.010408568
-6.9127007e-10
0.010408567
-5.5739123e-10
-3.78382e-10
0.0073080589
-1.8364747e-06
0.0073055292
-6.1056368e-06
0.0073010039
-7.442933e-06
0.0072957689
-6.6250699e-06
0.0072907033
-5.1978247e-06
0.0072860303
-4.0444977e-06
0.0072817082
-3.3050568e-06
0.0072776904
-2.8249521e-06
0.0072739769
-2.4583785e-06
0.0072705806
-2.1440908e-06
0.0072674953
-1.8742183e-06
0.0072646954
-1.651646e-06
0.0072621483
-1.4720881e-06
0.0072598239
-1.3253676e-06
0.0072576978
-1.2014777e-06
0.0072557495
-1.0937539e-06
0.0072539616
-9.9860828e-07
0.0072523182
-9.1404218e-07
0.0072508054
-8.3855601e-07
0.007249411
-7.7080532e-07
0.0072481244
-7.096179e-07
0.0072469362
-6.5406357e-07
0.0072458381
-6.0342334e-07
0.0072448227
-5.5713624e-07
0.0072438834
-5.1473006e-07
0.0072430141
-4.7580414e-07
0.0072422093
-4.4000371e-07
0.0072414643
-4.0702766e-07
0.0072407744
-3.7660803e-07
0.0072401355
-3.4851791e-07
0.0072395439
-3.2255025e-07
0.0072389961
-2.9852844e-07
0.0072384889
-2.7628749e-07
0.0072380193
-2.5568712e-07
0.0072375847
-2.3659365e-07
0.0072371825
-2.1889382e-07
0.0072368104
-2.0247741e-07
0.0072364662
-1.8725183e-07
0.0072361479
-1.7312494e-07
0.0072358536
-1.6001996e-07
0.0072355817
-1.4785886e-07
0.0072353306
-1.3657755e-07
0.0072350986
-1.2610938e-07
0.0072348845
-1.1640033e-07
0.007234687
-1.073929e-07
0.0072345048
-9.9041461e-08
0.0072343369
-9.1296249e-08
0.0072341821
-8.4118402e-08
0.0072340396
-7.7464489e-08
0.0072339085
-7.1301537e-08
0.0072337878
-6.5591606e-08
0.0072336769
-6.0306518e-08
0.007233575
-5.5412894e-08
0.0072334813
-5.0886845e-08
0.0072333955
-4.6699041e-08
0.0072333167
-4.2829082e-08
0.0072332445
-3.9251011e-08
0.0072331784
-3.5947629e-08
0.0072331179
-3.2896031e-08
0.0072330625
-3.0081595e-08
0.007233012
-2.7483946e-08
0.0072329658
-2.509089e-08
0.0072329238
-2.2884372e-08
0.0072328854
-2.0854119e-08
0.0072328505
-1.8983985e-08
0.0072328187
-1.7265555e-08
0.0072327899
-1.5684461e-08
0.0072327637
-1.423372e-08
0.00723274
-1.2900405e-08
0.0072327185
-1.1678969e-08
0.0072326991
-1.0557856e-08
0.0072326816
-9.5325944e-09
0.0072326658
-8.5927197e-09
0.0072326516
-7.7348862e-09
0.0072326388
-6.9496958e-09
0.0072326274
-6.234613e-09
0.0072326171
-5.5810649e-09
0.0072326079
-4.9874136e-09
0.0072325998
-4.4459121e-09
0.0072325925
-3.9555309e-09
0.007232586
-3.5091278e-09
0.0072325803
-3.1063901e-09
0.0072325753
-2.7407877e-09
0.0072325709
-2.4124505e-09
0.007232567
-2.1152489e-09
0.0072325636
-1.8498791e-09
0.0072325606
-1.6106216e-09
0.007232558
-1.3984714e-09
0.0072325558
-1.2079493e-09
0.0072325539
-1.040404e-09
0.0072325522
-8.9056797e-10
0.0072325508
-7.5978741e-10
0.0072325497
-6.4292376e-10
0.0072325487
-5.4164489e-10
0.0072325478
-4.514765e-10
0.0072325471
-3.7113888e-10
0.0072325465
-2.9893401e-10
0.0072325461
-2.2933965e-10
0.0072325457
-1.5549692e-10
-9.5018412e-11
0.0029108847
0.0029047795
0.0028973366
0.0028907113
0.0028855131
0.0028814683
0.002878163
0.0028753378
0.0028728792
0.0028707349
0.0028688605
0.0028672087
0.0028657365
0.002864411
0.0028632095
0.0028621156
0.0028611169
0.0028602028
0.0028593642
0.0028585934
0.0028578837
0.0028572296
0.0028566261
0.002856069
0.0028555542
0.0028550784
0.0028546384
0.0028542313
0.0028538547
0.0028535062
0.0028531836
0.0028528851
0.0028526088
0.0028523531
0.0028521165
0.0028518976
0.0028516951
0.0028515079
0.0028513347
0.0028511747
0.0028510269
0.0028508903
0.0028507642
0.0028506478
0.0028505404
0.0028504413
0.00285035
0.0028502659
0.0028501885
0.0028501172
0.0028500516
0.0028499913
0.0028499359
0.002849885
0.0028498383
0.0028497955
0.0028497562
0.0028497203
0.0028496874
0.0028496573
0.0028496298
0.0028496047
0.0028495819
0.002849561
0.002849542
0.0028495248
0.0028495091
0.0028494949
0.002849482
0.0028494703
0.0028494597
0.0028494502
0.0028494416
0.0028494339
0.0028494269
0.0028494207
0.0028494151
0.0028494101
0.0028494057
0.0028494017
0.0028493982
0.0028493951
0.0028493924
0.00284939
0.0028493879
0.002849386
0.0028493844
0.002849383
0.0028493818
0.0028493808
0.0028493799
0.0028493791
0.0028493785
0.0028493779
0.0028493775
0.0028493771
0.0028493768
0.0028493766
0.0028493764
)
;

boundaryField
{
    top
    {
        type            calculated;
        value           uniform 0;
    }
    inlet
    {
        type            calculated;
        value           nonuniform List<scalar> 10(-0.0029127193 -0.0073082511 -0.010426965 -0.012414724 -0.013379933 -0.013379931 -0.012414724 -0.010426964 -0.0073082511 -0.0029127206);
    }
    outlet
    {
        type            calculated;
        value           nonuniform List<scalar> 10(0.0028493764 0.0072325456 0.010408567 0.012469585 0.013482508 0.013482508 0.012469584 0.010408567 0.0072325454 0.0028493763);
    }
    bottom
    {
        type            calculated;
        value           uniform 0;
    }
    back
    {
        type            empty;
        value           nonuniform 0();
    }
    front
    {
        type            empty;
        value           nonuniform 0();
    }
}


// ************************************************************************* //
