/*--------------------------------*- C++ -*----------------------------------*\
| =========                 |                                                 |
| \\      /  F ield         | OpenFOAM: The Open Source CFD Toolbox           |
|  \\    /   O peration     | Version:  4.1                                   |
|   \\  /    A nd           | Web:      www.OpenFOAM.org                      |
|    \\/     M anipulation  |                                                 |
\*---------------------------------------------------------------------------*/
FoamFile
{
    version     2.0;
    format      ascii;
    class       volVectorField;
    location    "15";
    object      U;
}
// * * * * * * * * * * * * * * * * * * * * * * * * * * * * * * * * * * * * * //

dimensions      [0 1 -1 0 0 0 0];

internalField   nonuniform List<vector> 
1000
(
(0.30155732 0.00015769408 0)
(0.30120417 0.00045698481 0)
(0.30043338 0.00049755279 0)
(0.29965865 0.00037735702 0)
(0.29903604 0.00024553311 0)
(0.29856124 0.00016349177 0)
(0.29818559 0.00012376984 0)
(0.29787091 0.0001029979 0)
(0.29759846 8.754191e-05 0)
(0.29736073 7.409857e-05 0)
(0.29715325 6.3189495e-05 0)
(0.29697133 5.5110439e-05 0)
(0.29681018 4.9237033e-05 0)
(0.2966658 4.4679324e-05 0)
(0.29653532 4.0815588e-05 0)
(0.29641674 3.7372181e-05 0)
(0.29630862 3.4271506e-05 0)
(0.29620977 3.148668e-05 0)
(0.29611918 2.8982831e-05 0)
(0.29603599 2.6717038e-05 0)
(0.29595945 2.4652037e-05 0)
(0.29588895 2.2761398e-05 0)
(0.29582393 2.1027013e-05 0)
(0.29576392 1.9434411e-05 0)
(0.2957085 1.7970577e-05 0)
(0.29565728 1.6623232e-05 0)
(0.29560992 1.5381426e-05 0)
(0.29556612 1.4235378e-05 0)
(0.2955256 1.3176689e-05 0)
(0.2954881 1.2197776e-05 0)
(0.2954534 1.1292023e-05 0)
(0.29542128 1.045332e-05 0)
(0.29539155 9.6763374e-06 0)
(0.29536405 8.9561054e-06 0)
(0.29533859 8.2883059e-06 0)
(0.29531503 7.6688507e-06 0)
(0.29529324 7.0941956e-06 0)
(0.29527309 6.5609325e-06 0)
(0.29525446 6.0661166e-06 0)
(0.29523723 5.6068702e-06 0)
(0.29522131 5.1807237e-06 0)
(0.2952066 4.7852284e-06 0)
(0.29519302 4.4182976e-06 0)
(0.29518048 4.0778273e-06 0)
(0.29516891 3.7620436e-06 0)
(0.29515823 3.4691313e-06 0)
(0.29514839 3.1975764e-06 0)
(0.29513932 2.9458011e-06 0)
(0.29513097 2.7125093e-06 0)
(0.29512328 2.4963284e-06 0)
(0.2951162 2.2961469e-06 0)
(0.29510969 2.1107633e-06 0)
(0.29510371 1.9392236e-06 0)
(0.29509821 1.7804771e-06 0)
(0.29509317 1.6337056e-06 0)
(0.29508854 1.4979846e-06 0)
(0.2950843 1.3726125e-06 0)
(0.29508041 1.2567786e-06 0)
(0.29507685 1.1498824e-06 0)
(0.29507359 1.0512081e-06 0)
(0.29507062 9.6024288e-07 0)
(0.2950679 8.7635734e-07 0)
(0.29506542 7.9911521e-07 0)
(0.29506316 7.2795894e-07 0)
(0.2950611 6.6251836e-07 0)
(0.29505923 6.0230219e-07 0)
(0.29505752 5.4699842e-07 0)
(0.29505598 4.9617018e-07 0)
(0.29505457 4.4955568e-07 0)
(0.2950533 4.0676933e-07 0)
(0.29505216 3.6759368e-07 0)
(0.29505112 3.3168452e-07 0)
(0.29505018 2.9886271e-07 0)
(0.29504934 2.6882406e-07 0)
(0.29504858 2.4142348e-07 0)
(0.2950479 2.1638847e-07 0)
(0.29504728 1.9360321e-07 0)
(0.29504674 1.7282665e-07 0)
(0.29504625 1.5396888e-07 0)
(0.29504582 1.3681301e-07 0)
(0.29504543 1.2129078e-07 0)
(0.29504509 1.0720987e-07 0)
(0.29504479 9.4520596e-08 0)
(0.29504452 8.3048603e-08 0)
(0.29504429 7.2758554e-08 0)
(0.29504408 6.3495041e-08 0)
(0.2950439 5.5234063e-08 0)
(0.29504375 4.7833229e-08 0)
(0.29504361 4.1275693e-08 0)
(0.2950435 3.5433061e-08 0)
(0.2950434 3.0292129e-08 0)
(0.29504331 2.5731373e-08 0)
(0.29504324 2.1733238e-08 0)
(0.29504318 1.8173385e-08 0)
(0.29504313 1.4998232e-08 0)
(0.29504309 1.2092354e-08 0)
(0.29504305 9.3134625e-09 0)
(0.29504302 6.6540559e-09 0)
(0.29504301 3.2523168e-09 0)
(0.29504299 1.2098292e-09 0)
(0.75662203 0.00018266568 0)
(0.75690182 0.0007937323 0)
(0.75641322 0.0011064918 0)
(0.75574777 0.0010767385 0)
(0.75516201 0.00089681321 0)
(0.75466669 0.00072225591 0)
(0.75421618 0.00060075531 0)
(0.75378857 0.00051877449 0)
(0.75338562 0.00045447956 0)
(0.75301445 0.00039789645 0)
(0.75267775 0.00034825599 0)
(0.75237335 0.00030671875 0)
(0.75209723 0.00027293873 0)
(0.75184559 0.0002452616 0)
(0.75161555 0.00022192228 0)
(0.7514049 0.00020170182 0)
(0.75121175 0.0001839185 0)
(0.75103438 0.00016817408 0)
(0.75087123 0.0001541657 0)
(0.75072096 0.00014162502 0)
(0.75058236 0.00013032247 0)
(0.75045441 0.00012007639 0)
(0.75033621 0.00011074797 0)
(0.75022693 0.00010222848 0)
(0.75012587 9.4428378e-05 0)
(0.75003235 8.7271217e-05 0)
(0.74994579 8.0691142e-05 0)
(0.74986566 7.4631305e-05 0)
(0.74979146 6.904268e-05 0)
(0.74972275 6.3882492e-05 0)
(0.74965913 5.9113228e-05 0)
(0.74960021 5.4701537e-05 0)
(0.74954566 5.0617789e-05 0)
(0.74949516 4.6835355e-05 0)
(0.74944841 4.3330402e-05 0)
(0.74940514 4.0081304e-05 0)
(0.7493651 3.7068569e-05 0)
(0.74932806 3.4274361e-05 0)
(0.74929381 3.1682512e-05 0)
(0.74926214 2.9278114e-05 0)
(0.74923287 2.7047598e-05 0)
(0.74920582 2.4978382e-05 0)
(0.74918085 2.3058981e-05 0)
(0.74915779 2.1278681e-05 0)
(0.74913651 1.9627687e-05 0)
(0.74911687 1.8096823e-05 0)
(0.74909877 1.6677695e-05 0)
(0.74908209 1.53624e-05 0)
(0.74906673 1.4143711e-05 0)
(0.74905258 1.30148e-05 0)
(0.74903956 1.1969432e-05 0)
(0.74902759 1.1001691e-05 0)
(0.74901659 1.0106176e-05 0)
(0.74900648 9.2777572e-06 0)
(0.7489972 8.5117594e-06 0)
(0.74898869 7.8037202e-06 0)
(0.74898088 7.1495846e-06 0)
(0.74897373 6.5454737e-06 0)
(0.74896719 5.9878748e-06 0)
(0.7489612 5.4734098e-06 0)
(0.74895573 4.9990302e-06 0)
(0.74895073 4.5617989e-06 0)
(0.74894617 4.1590773e-06 0)
(0.74894201 3.7883062e-06 0)
(0.74893822 3.4471981e-06 0)
(0.74893478 3.1335292e-06 0)
(0.74893164 2.8453241e-06 0)
(0.7489288 2.5806464e-06 0)
(0.74892622 2.3377867e-06 0)
(0.74892388 2.1150648e-06 0)
(0.74892177 1.9110101e-06 0)
(0.74891986 1.7241616e-06 0)
(0.74891814 1.5532516e-06 0)
(0.74891659 1.3970165e-06 0)
(0.74891519 1.2543726e-06 0)
(0.74891394 1.1242247e-06 0)
(0.74891281 1.005644e-06 0)
(0.74891181 8.9768857e-07 0)
(0.74891091 7.995706e-07 0)
(0.74891012 7.1047705e-07 0)
(0.74890941 6.2973569e-07 0)
(0.74890878 5.5665087e-07 0)
(0.74890822 4.9065375e-07 0)
(0.74890773 4.3114485e-07 0)
(0.7489073 3.7763468e-07 0)
(0.74890692 3.2961081e-07 0)
(0.74890659 2.8665282e-07 0)
(0.74890631 2.4831582e-07 0)
(0.74890606 2.1422915e-07 0)
(0.74890585 1.8400336e-07 0)
(0.74890566 1.5731802e-07 0)
(0.7489055 1.3380278e-07 0)
(0.74890537 1.1319314e-07 0)
(0.74890526 9.5052296e-08 0)
(0.74890516 7.9244148e-08 0)
(0.74890508 6.5078645e-08 0)
(0.74890502 5.2833225e-08 0)
(0.74890496 4.1047635e-08 0)
(0.74890493 3.1272501e-08 0)
(0.74890487 1.9940459e-08 0)
(1.0794339 0.00014619085 0)
(1.0802888 0.00074566537 0)
(1.0802746 0.0011607494 0)
(1.0800709 0.0012587419 0)
(1.0799772 0.0011635498 0)
(1.0799725 0.0010259785 0)
(1.0799648 0.00091582116 0)
(1.0799118 0.0008352149 0)
(1.0798211 0.00076648637 0)
(1.0797146 0.0006996534 0)
(1.0796064 0.00063485369 0)
(1.079501 0.00057540948 0)
(1.0793982 0.00052303198 0)
(1.0792976 0.00047726844 0)
(1.0792 0.00043681258 0)
(1.0791061 0.00040055162 0)
(1.0790167 0.00036781673 0)
(1.078932 0.00033820694 0)
(1.0788521 0.00031139572 0)
(1.0787768 0.00028706192 0)
(1.078706 0.0002649021 0)
(1.0786395 0.00024465448 0)
(1.0785772 0.00022610394 0)
(1.0785189 0.00020907298 0)
(1.0784644 0.0001934104 0)
(1.0784135 0.00017898431 0)
(1.0783661 0.00016567856 0)
(1.0783218 0.00015339114 0)
(1.0782806 0.00014203224 0)
(1.0782422 0.00013152255 0)
(1.0782065 0.00012179146 0)
(1.0781733 0.0001127758 0)
(1.0781424 0.00010441873 0)
(1.0781138 9.6668961e-05 0)
(1.0780872 8.9479976e-05 0)
(1.0780624 8.2809556e-05 0)
(1.0780395 7.6619148e-05 0)
(1.0780183 7.0873541e-05 0)
(1.0779986 6.5540407e-05 0)
(1.0779804 6.0590075e-05 0)
(1.0779635 5.5995175e-05 0)
(1.0779478 5.1730505e-05 0)
(1.0779334 4.7772727e-05 0)
(1.07792 4.4100289e-05 0)
(1.0779077 4.0693174e-05 0)
(1.0778962 3.7532862e-05 0)
(1.0778857 3.4602112e-05 0)
(1.077876 3.1884945e-05 0)
(1.077867 2.9366458e-05 0)
(1.0778587 2.7032831e-05 0)
(1.0778511 2.4871155e-05 0)
(1.0778441 2.286945e-05 0)
(1.0778377 2.1016511e-05 0)
(1.0778317 1.9301942e-05 0)
(1.0778263 1.7716012e-05 0)
(1.0778212 1.6249688e-05 0)
(1.0778166 1.489451e-05 0)
(1.0778124 1.3642629e-05 0)
(1.0778085 1.2486692e-05 0)
(1.077805 1.1419878e-05 0)
(1.0778018 1.0435788e-05 0)
(1.0777988 9.5285016e-06 0)
(1.0777961 8.6924589e-06 0)
(1.0777936 7.9225157e-06 0)
(1.0777913 7.2138381e-06 0)
(1.0777893 6.5619634e-06 0)
(1.0777874 5.9626987e-06 0)
(1.0777857 5.4121738e-06 0)
(1.0777841 4.9067483e-06 0)
(1.0777827 4.443073e-06 0)
(1.0777814 4.0179959e-06 0)
(1.0777803 3.6286196e-06 0)
(1.0777792 3.2722145e-06 0)
(1.0777783 2.9462834e-06 0)
(1.0777774 2.6484718e-06 0)
(1.0777766 2.3766296e-06 0)
(1.0777759 2.1287262e-06 0)
(1.0777753 1.9029206e-06 0)
(1.0777748 1.6974695e-06 0)
(1.0777743 1.510799e-06 0)
(1.0777738 1.3414098e-06 0)
(1.0777734 1.1879649e-06 0)
(1.0777731 1.0491781e-06 0)
(1.0777728 9.2391212e-07 0)
(1.0777725 8.1105614e-07 0)
(1.0777722 7.0964417e-07 0)
(1.077772 6.1871871e-07 0)
(1.0777718 5.3744197e-07 0)
(1.0777717 4.6499694e-07 0)
(1.0777715 4.0061215e-07 0)
(1.0777714 3.4366046e-07 0)
(1.0777713 2.932785e-07 0)
(1.0777712 2.4921003e-07 0)
(1.0777711 2.1007555e-07 0)
(1.0777711 1.7663918e-07 0)
(1.077771 1.459127e-07 0)
(1.077771 1.2146981e-07 0)
(1.0777709 9.5758741e-08 0)
(1.0777709 8.0068928e-08 0)
(1.0777709 5.5849553e-08 0)
(1.2851522 9.1602305e-05 0)
(1.2863698 0.00050727779 0)
(1.286644 0.00083220851 0)
(1.2867343 0.00094454157 0)
(1.2869987 0.00090727018 0)
(1.2874065 0.00082534087 0)
(1.2878221 0.00075623597 0)
(1.2881712 0.00070659024 0)
(1.2884526 0.00066413493 0)
(1.2886916 0.00062055245 0)
(1.288907 0.00057556032 0)
(1.2891048 0.0005321216 0)
(1.2892849 0.00049227753 0)
(1.289447 0.00045626622 0)
(1.2895925 0.00042343494 0)
(1.2897238 0.00039314157 0)
(1.289843 0.00036503988 0)
(1.2899516 0.00033897469 0)
(1.2900507 0.00031482811 0)
(1.2901413 0.00029245876 0)
(1.2902241 0.00027171198 0)
(1.2903001 0.00025244462 0)
(1.2903697 0.00023453477 0)
(1.2904338 0.00021787896 0)
(1.2904927 0.00020238526 0)
(1.2905469 0.00018796968 0)
(1.2905968 0.00017455434 0)
(1.2906429 0.00016206788 0)
(1.2906854 0.0001504446 0)
(1.2907246 0.00013962444 0)
(1.2907608 0.00012955175 0)
(1.2907942 0.00012017534 0)
(1.290825 0.00011144745 0)
(1.2908536 0.00010332403 0)
(1.2908799 9.57639e-05 0)
(1.2909042 8.8729061e-05 0)
(1.2909267 8.2183867e-05 0)
(1.2909475 7.6095417e-05 0)
(1.2909666 7.0432763e-05 0)
(1.2909843 6.5167349e-05 0)
(1.2910007 6.027225e-05 0)
(1.2910158 5.5722635e-05 0)
(1.2910297 5.1495041e-05 0)
(1.2910425 4.7567854e-05 0)
(1.2910543 4.3920605e-05 0)
(1.2910652 4.0534465e-05 0)
(1.2910753 3.739156e-05 0)
(1.2910846 3.4475482e-05 0)
(1.2910931 3.1770619e-05 0)
(1.2911009 2.9262669e-05 0)
(1.2911081 2.6937991e-05 0)
(1.2911147 2.478412e-05 0)
(1.2911208 2.2789139e-05 0)
(1.2911264 2.0942187e-05 0)
(1.2911315 1.9232852e-05 0)
(1.2911362 1.7651677e-05 0)
(1.2911405 1.6189567e-05 0)
(1.2911445 1.4838294e-05 0)
(1.2911481 1.3589913e-05 0)
(1.2911514 1.2437272e-05 0)
(1.2911544 1.1373435e-05 0)
(1.2911571 1.039219e-05 0)
(1.2911596 9.4874852e-06 0)
(1.2911619 8.653934e-06 0)
(1.291164 7.8862591e-06 0)
(1.2911659 7.1797889e-06 0)
(1.2911676 6.5299247e-06 0)
(1.2911691 5.9326267e-06 0)
(1.2911705 5.3838902e-06 0)
(1.2911718 4.8802265e-06 0)
(1.291173 4.4181492e-06 0)
(1.291174 3.9946526e-06 0)
(1.2911749 3.6067057e-06 0)
(1.2911758 3.2517258e-06 0)
(1.2911765 2.9270792e-06 0)
(1.2911772 2.6305553e-06 0)
(1.2911778 2.35987e-06 0)
(1.2911784 2.1131386e-06 0)
(1.2911788 1.8883813e-06 0)
(1.2911793 1.6840001e-06 0)
(1.2911796 1.498281e-06 0)
(1.29118 1.3298751e-06 0)
(1.2911803 1.1772969e-06 0)
(1.2911805 1.0394114e-06 0)
(1.2911808 9.1493209e-07 0)
(1.291181 8.0289767e-07 0)
(1.2911811 7.0220217e-07 0)
(1.2911813 6.1200028e-07 0)
(1.2911814 5.3138854e-07 0)
(1.2911815 4.5952053e-07 0)
(1.2911816 3.9581718e-07 0)
(1.2911817 3.391464e-07 0)
(1.2911818 2.8963209e-07 0)
(1.2911818 2.4515477e-07 0)
(1.2911819 2.0763675e-07 0)
(1.2911819 1.7227406e-07 0)
(1.2911819 1.4538713e-07 0)
(1.291182 1.1548636e-07 0)
(1.291182 9.9277596e-08 0)
(1.291182 7.1156395e-08 0)
(1.3850355 3.0965617e-05 0)
(1.3864286 0.00017768758 0)
(1.386832 0.00029810199 0)
(1.3870494 0.0003447417 0)
(1.3874771 0.00033581097 0)
(1.3880866 0.00030855077 0)
(1.3887214 0.00028502259 0)
(1.3892881 0.00026857156 0)
(1.3897785 0.00025478927 0)
(1.3902187 0.00024036295 0)
(1.3906296 0.00022502869 0)
(1.3910173 0.00020989617 0)
(1.3913805 0.00019580831 0)
(1.391718 0.00018292319 0)
(1.3920308 0.00017103266 0)
(1.3923212 0.00015991582 0)
(1.3925912 0.00014946215 0)
(1.3928427 0.00013963633 0)
(1.3930769 0.00013041796 0)
(1.3932949 0.00012177569 0)
(1.3934977 0.00011367016 0)
(1.3936865 0.0001060636 0)
(1.3938621 9.8924143e-05 0)
(1.3940254 9.2224972e-05 0)
(1.3941773 8.594196e-05 0)
(1.3943186 8.0052234e-05 0)
(1.3944499 7.4533831e-05 0)
(1.3945719 6.9365804e-05 0)
(1.3946853 6.4528226e-05 0)
(1.3947906 6.000225e-05 0)
(1.3948883 5.5769908e-05 0)
(1.3949791 5.181413e-05 0)
(1.3950633 4.8118585e-05 0)
(1.3951414 4.4667778e-05 0)
(1.3952139 4.1446929e-05 0)
(1.395281 3.8442067e-05 0)
(1.3953432 3.5639884e-05 0)
(1.3954009 3.3027832e-05 0)
(1.3954543 3.059398e-05 0)
(1.3955037 2.8327117e-05 0)
(1.3955494 2.6216596e-05 1.8724671e-33)
(1.3955917 2.4252432e-05 0)
(1.3956307 2.2425157e-05 0)
(1.3956668 2.0725921e-05 0)
(1.3957002 1.9146334e-05 0)
(1.395731 1.7678566e-05 0)
(1.3957594 1.63152e-05 0)
(1.3957856 1.5049336e-05 0)
(1.3958098 1.3874438e-05 0)
(1.395832 1.278443e-05 0)
(1.3958525 1.1773557e-05 0)
(1.3958714 1.083649e-05 0)
(1.3958887 9.9681768e-06 0)
(1.3959047 9.1639403e-06 0)
(1.3959194 8.419348e-06 0)
(1.3959328 7.7303118e-06 0)
(1.3959451 7.092951e-06 0)
(1.3959565 6.5036875e-06 0)
(1.3959668 5.9591252e-06 0)
(1.3959763 5.4561467e-06 0)
(1.395985 4.9917859e-06 0)
(1.3959929 4.5633208e-06 0)
(1.3960002 4.1681624e-06 0)
(1.3960068 3.8039429e-06 0)
(1.3960128 3.4684071e-06 0)
(1.3960183 3.1594997e-06 0)
(1.3960233 2.8752526e-06 0)
(1.3960279 2.6138866e-06 0)
(1.396032 2.3736911e-06 0)
(1.3960358 2.1531213e-06 0)
(1.3960391 1.9506894e-06 0)
(1.3960422 1.7650657e-06 0)
(1.396045 1.5949601e-06 0)
(1.3960475 1.4392216e-06 0)
(1.3960497 1.2967309e-06 0)
(1.3960518 1.1665034e-06 0)
(1.3960536 1.0475715e-06 0)
(1.3960552 9.3908722e-07 0)
(1.3960567 8.4021333e-07 0)
(1.396058 7.5023036e-07 0)
(1.3960591 6.6841727e-07 0)
(1.3960601 5.9415713e-07 0)
(1.3960611 5.2682778e-07 0)
(1.3960619 4.6590808e-07 0)
(1.3960626 4.1086614e-07 0)
(1.3960632 3.6124715e-07 0)
(1.3960638 3.166047e-07 0)
(1.3960642 2.7652764e-07 0)
(1.3960646 2.4067756e-07 0)
(1.396065 2.0861042e-07 0)
(1.3960653 1.8017037e-07 0)
(1.3960656 1.5472241e-07 0)
(1.3960658 1.3251479e-07 2.9494623e-35)
(1.396066 1.1236495e-07 0)
(1.3960662 9.5498255e-08 0)
(1.3960663 7.9362493e-08 8.8483807e-36)
(1.3960664 6.7339778e-08 0)
(1.3960665 5.3631639e-08 0)
(1.3960666 4.6338032e-08 0)
(1.3960667 3.3296351e-08 0)
(1.3850353 -3.0965137e-05 0)
(1.3864285 -0.00017768651 0)
(1.3868319 -0.00029810586 0)
(1.3870494 -0.00034474702 0)
(1.387477 -0.00033580819 0)
(1.3880865 -0.00030853259 0)
(1.3887213 -0.00028499046 0)
(1.3892881 -0.00026853077 0)
(1.3897784 -0.00025474471 0)
(1.3902187 -0.00024031662 0)
(1.3906296 -0.00022498141 0)
(1.3910172 -0.00020984862 0)
(1.3913805 -0.00019576164 0)
(1.391718 -0.00018287855 0)
(1.3920308 -0.00017099094 0)
(1.3923212 -0.00015987766 0)
(1.3925912 -0.00014942788 0)
(1.3928427 -0.00013960623 0)
(1.3930769 -0.00013039205 0)
(1.3932949 -0.00012175404 0)
(1.3934978 -0.00011365256 0)
(1.3936865 -0.00010604997 0)
(1.3938621 -9.8914092e-05 0)
(1.3940254 -9.2218357e-05 0)
(1.3941773 -8.5938328e-05 0)
(1.3943186 -8.0051452e-05 0)
(1.3944499 -7.4535415e-05 0)
(1.3945719 -6.9369581e-05 0)
(1.3946853 -6.4533761e-05 0)
(1.3947906 -6.0009458e-05 0)
(1.3948883 -5.5778395e-05 0)
(1.3949791 -5.1823836e-05 0)
(1.3950633 -4.8129144e-05 0)
(1.3951414 -4.4679183e-05 0)
(1.3952139 -4.1458852e-05 0)
(1.395281 -3.8454526e-05 0)
(1.3953432 -3.5652576e-05 0)
(1.3954009 -3.3040811e-05 0)
(1.3954543 -3.0606974e-05 0)
(1.3955037 -2.8340191e-05 0)
(1.3955494 -2.6229492e-05 -1.8724671e-33)
(1.3955917 -2.426524e-05 0)
(1.3956307 -2.2437641e-05 0)
(1.3956668 -2.0738174e-05 0)
(1.3957002 -1.9158128e-05 0)
(1.395731 -1.7690014e-05 0)
(1.3957594 -1.6326093e-05 0)
(1.3957856 -1.5059786e-05 0)
(1.3958098 -1.3884242e-05 0)
(1.395832 -1.2793715e-05 0)
(1.3958525 -1.1782138e-05 0)
(1.3958714 -1.0844495e-05 0)
(1.3958887 -9.9754253e-06 0)
(1.3959047 -9.170575e-06 0)
(1.3959193 -8.4252066e-06 0)
(1.3959328 -7.7355365e-06 0)
(1.3959451 -7.0973872e-06 0)
(1.3959564 -6.5074948e-06 0)
(1.3959668 -5.9621677e-06 0)
(1.3959763 -5.4585856e-06 0)
(1.395985 -4.993494e-06 0)
(1.3959929 -4.5644771e-06 0)
(1.3960002 -4.1686558e-06 0)
(1.3960068 -3.8039588e-06 0)
(1.3960128 -3.4678459e-06 0)
(1.3960183 -3.1585504e-06 0)
(1.3960233 -2.8738243e-06 0)
(1.3960279 -2.6121625e-06 0)
(1.396032 -2.3715787e-06 0)
(1.3960357 -2.1508081e-06 0)
(1.3960391 -1.9480862e-06 0)
(1.3960422 -1.7623457e-06 0)
(1.396045 -1.5920254e-06 0)
(1.3960475 -1.4362446e-06 0)
(1.3960497 -1.2936122e-06 0)
(1.3960517 -1.1633994e-06 0)
(1.3960536 -1.044373e-06 0)
(1.3960552 -9.3595032e-07 0)
(1.3960566 -8.3702842e-07 0)
(1.3960579 -7.4714117e-07 0)
(1.3960591 -6.6530738e-07 0)
(1.3960601 -5.9117491e-07 0)
(1.396061 -5.2386016e-07 0)
(1.3960619 -4.6309669e-07 0)
(1.3960626 -4.0809432e-07 0)
(1.3960632 -3.586669e-07 0)
(1.3960637 -3.1410369e-07 0)
(1.3960642 -2.7425748e-07 0)
(1.3960646 -2.3852087e-07 0)
(1.396065 -2.0673748e-07 0)
(1.3960653 -1.7847019e-07 0)
(1.3960656 -1.534e-07 0)
(1.3960658 -1.3145989e-07 -2.9494623e-35)
(1.396066 -1.1179098e-07 0)
(1.3960662 -9.5220031e-08 0)
(1.3960663 -7.944838e-08 -8.8483807e-36)
(1.3960664 -6.7667175e-08 0)
(1.3960665 -5.4136058e-08 0)
(1.3960666 -4.7512828e-08 0)
(1.3960667 -3.4956609e-08 0)
(1.2851522 -9.1602794e-05 0)
(1.2863698 -0.00050729001 0)
(1.2866439 -0.00083223032 0)
(1.2867342 -0.00094456346 0)
(1.2869986 -0.00090728289 0)
(1.2874064 -0.00082534061 0)
(1.287822 -0.00075622376 0)
(1.2881712 -0.00070656955 0)
(1.2884526 -0.0006641085 0)
(1.2886915 -0.00062052204 0)
(1.288907 -0.00057552701 0)
(1.2891048 -0.0005320866 0)
(1.2892849 -0.0004922421 0)
(1.289447 -0.00045623156 0)
(1.2895925 -0.00042340202 0)
(1.2897238 -0.00039311105 0)
(1.289843 -0.0003650123 0)
(1.2899516 -0.0003389503 0)
(1.2900507 -0.00031480715 0)
(1.2901413 -0.0002924412 0)
(1.2902242 -0.00027169784 0)
(1.2903001 -0.00025243367 0)
(1.2903698 -0.0002345269 0)
(1.2904338 -0.00021787383 0)
(1.2904927 -0.00020238273 0)
(1.2905469 -0.00018796937 0)
(1.2905969 -0.00017455611 0)
(1.2906429 -0.00016207137 0)
(1.2906854 -0.00015044969 0)
(1.2907246 -0.00013963079 0)
(1.2907608 -0.00012955927 0)
(1.2907942 -0.00012018371 0)
(1.2908251 -0.00011145662 0)
(1.2908536 -0.00010333374 0)
(1.2908799 -9.577412e-05 0)
(1.2909042 -8.8739548e-05 0)
(1.2909267 -8.2194631e-05 0)
(1.2909475 -7.6106243e-05 0)
(1.2909666 -7.044368e-05 0)
(1.2909843 -6.5178154e-05 0)
(1.2910007 -6.0282992e-05 0)
(1.2910157 -5.5733135e-05 0)
(1.2910297 -5.1505354e-05 0)
(1.2910425 -4.7577809e-05 0)
(1.2910543 -4.3930271e-05 0)
(1.2910652 -4.0543687e-05 0)
(1.2910753 -3.7400413e-05 0)
(1.2910845 -3.4483815e-05 0)
(1.2910931 -3.1778517e-05 0)
(1.2911009 -2.9269997e-05 0)
(1.2911081 -2.6944836e-05 0)
(1.2911147 -2.4790351e-05 0)
(1.2911208 -2.2794852e-05 0)
(1.2911264 -2.0947267e-05 0)
(1.2911315 -1.9237398e-05 0)
(1.2911362 -1.7655577e-05 0)
(1.2911405 -1.6192933e-05 0)
(1.2911444 -1.4841029e-05 0)
(1.291148 -1.3592133e-05 0)
(1.2911513 -1.2438887e-05 0)
(1.2911543 -1.1374574e-05 0)
(1.2911571 -1.0392781e-05 0)
(1.2911596 -9.4876608e-06 0)
(1.2911619 -8.6536208e-06 0)
(1.2911639 -7.8855947e-06 0)
(1.2911658 -7.1787183e-06 0)
(1.2911675 -6.528585e-06 0)
(1.2911691 -5.9309599e-06 0)
(1.2911705 -5.3820353e-06 0)
(1.2911718 -4.8781294e-06 0)
(1.2911729 -4.4159394e-06 0)
(1.291174 -3.992267e-06 0)
(1.2911749 -3.604271e-06 0)
(1.2911757 -3.2491788e-06 0)
(1.2911765 -2.9245348e-06 0)
(1.2911772 -2.6279396e-06 0)
(1.2911778 -2.3572953e-06 0)
(1.2911783 -2.1105319e-06 0)
(1.2911788 -1.8858454e-06 0)
(1.2911792 -1.6814541e-06 0)
(1.2911796 -1.4958289e-06 0)
(1.2911799 -1.3274406e-06 0)
(1.2911802 -1.1749789e-06 0)
(1.2911805 -1.0371297e-06 0)
(1.2911807 -9.1279097e-07 0)
(1.2911809 -8.0082407e-07 0)
(1.2911811 -7.0029905e-07 0)
(1.2911812 -6.1019215e-07 0)
(1.2911814 -5.2978656e-07 0)
(1.2911815 -4.5805799e-07 0)
(1.2911816 -3.9461301e-07 0)
(1.2911817 -3.3813824e-07 0)
(1.2911817 -2.8895161e-07 0)
(1.2911818 -2.4474484e-07 0)
(1.2911818 -2.0754627e-07 0)
(1.2911819 -1.7242814e-07 0)
(1.2911819 -1.4572814e-07 0)
(1.2911819 -1.1593145e-07 0)
(1.291182 -9.9989753e-08 0)
(1.291182 -7.2084456e-08 0)
(1.0794339 -0.00014618982 0)
(1.0802887 -0.00074565312 0)
(1.0802745 -0.0011607336 0)
(1.0800709 -0.0012587335 0)
(1.0799771 -0.0011635502 0)
(1.0799725 -0.0010259838 0)
(1.0799647 -0.00091582527 0)
(1.0799117 -0.00083521427 0)
(1.0798211 -0.00076647972 0)
(1.0797146 -0.00069964162 0)
(1.0796064 -0.00063483799 0)
(1.079501 -0.00057539116 0)
(1.0793982 -0.00052301205 0)
(1.0792976 -0.00047724786 0)
(1.0792 -0.00043679229 0)
(1.0791061 -0.00040053233 0)
(1.0790167 -0.00036779909 0)
(1.0789321 -0.00033819122 0)
(1.0788521 -0.00031138225 0)
(1.0787768 -0.00028705066 0)
(1.078706 -0.0002648932 0)
(1.0786395 -0.00024464771 0)
(1.0785772 -0.00022609931 0)
(1.078519 -0.00020907016 0)
(1.0784645 -0.00019340938 0)
(1.0784136 -0.00017898471 0)
(1.0783661 -0.00016568039 0)
(1.0783219 -0.00015339403 0)
(1.0782806 -0.00014203621 0)
(1.0782423 -0.00013152723 0)
(1.0782066 -0.00012179689 0)
(1.0781733 -0.00011278167 0)
(1.0781425 -0.00010442511 0)
(1.0781138 -9.6675547e-05 0)
(1.0780872 -8.9486876e-05 0)
(1.0780625 -8.2816488e-05 0)
(1.0780395 -7.662625e-05 0)
(1.0780183 -7.0880548e-05 0)
(1.0779986 -6.5547461e-05 0)
(1.0779804 -6.0596927e-05 0)
(1.0779635 -5.6001992e-05 0)
(1.0779478 -5.1737045e-05 0)
(1.0779334 -4.7779153e-05 0)
(1.07792 -4.4106373e-05 0)
(1.0779076 -4.0699095e-05 0)
(1.0778962 -3.7538398e-05 0)
(1.0778857 -3.4607433e-05 0)
(1.077876 -3.1889841e-05 0)
(1.077867 -2.9371115e-05 0)
(1.0778587 -2.7037042e-05 0)
(1.0778511 -2.4875095e-05 0)
(1.0778441 -2.2872924e-05 0)
(1.0778376 -2.1019707e-05 0)
(1.0778317 -1.930467e-05 0)
(1.0778262 -1.771845e-05 0)
(1.0778212 -1.6251658e-05 0)
(1.0778166 -1.4896203e-05 0)
(1.0778124 -1.3643873e-05 0)
(1.0778085 -1.2487672e-05 0)
(1.0778049 -1.1420433e-05 0)
(1.0778017 -1.0436119e-05 0)
(1.0777987 -9.5284504e-06 0)
(1.077796 -8.6922159e-06 0)
(1.0777935 -7.921933e-06 0)
(1.0777913 -7.2131187e-06 0)
(1.0777892 -6.560965e-06 0)
(1.0777873 -5.9616121e-06 0)
(1.0777856 -5.4108603e-06 0)
(1.0777841 -4.9054045e-06 0)
(1.0777827 -4.4415566e-06 0)
(1.0777814 -4.0164878e-06 0)
(1.0777802 -3.6269782e-06 0)
(1.0777792 -3.2706243e-06 0)
(1.0777782 -2.9445971e-06 0)
(1.0777774 -2.6468576e-06 0)
(1.0777766 -2.3749407e-06 0)
(1.0777759 -2.1271352e-06 0)
(1.0777753 -1.9012761e-06 0)
(1.0777747 -1.6959306e-06 0)
(1.0777742 -1.5092168e-06 0)
(1.0777738 -1.3399512e-06 0)
(1.0777734 -1.1864787e-06 0)
(1.077773 -1.0478213e-06 0)
(1.0777727 -9.2253838e-07 0)
(1.0777725 -8.0983307e-07 0)
(1.0777722 -7.0842422e-07 0)
(1.077772 -6.1766339e-07 0)
(1.0777718 -5.3640723e-07 0)
(1.0777717 -4.6415886e-07 0)
(1.0777715 -3.9982337e-07 0)
(1.0777714 -3.4309867e-07 0)
(1.0777713 -2.9278058e-07 0)
(1.0777712 -2.4896896e-07 0)
(1.0777711 -2.0990881e-07 0)
(1.0777711 -1.7671544e-07 0)
(1.077771 -1.4611619e-07 0)
(1.077771 -1.2175539e-07 0)
(1.0777709 -9.6075041e-08 0)
(1.0777709 -8.0158108e-08 0)
(1.0777708 -5.5858404e-08 0)
(0.75662204 -0.00018265892 0)
(0.75690183 -0.00079370996 0)
(0.75641323 -0.0011064676 0)
(0.75574778 -0.0010767288 0)
(0.75516203 -0.00089682603 0)
(0.75466671 -0.00072228573 0)
(0.7542162 -0.0006007902 0)
(0.75378858 -0.00051880416 0)
(0.75338562 -0.00045450009 0)
(0.75301445 -0.00039790855 0)
(0.75267774 -0.000348262 0)
(0.75237336 -0.00030672051 0)
(0.75209723 -0.00027293745 0)
(0.7518456 -0.00024525822 0)
(0.75161557 -0.00022191769 0)
(0.75140492 -0.00020169686 0)
(0.75121177 -0.00018391371 0)
(0.75103441 -0.00016816988 0)
(0.75087127 -0.00015416224 0)
(0.750721 -0.00014162245 0)
(0.7505824 -0.00013032074 0)
(0.75045446 -0.00012007554 0)
(0.75033625 -0.00011074785 0)
(0.75022698 -0.0001022291 0)
(0.75012591 -9.4429547e-05 0)
(0.75003239 -8.7272939e-05 0)
(0.74994583 -8.0693223e-05 0)
(0.7498657 -7.4633775e-05 0)
(0.7497915 -6.9045348e-05 0)
(0.74972279 -6.3885393e-05 0)
(0.74965916 -5.911619e-05 0)
(0.74960024 -5.4704632e-05 0)
(0.74954569 -5.062086e-05 0)
(0.74949518 -4.683848e-05 0)
(0.74944843 -4.3333434e-05 0)
(0.74940515 -4.0084344e-05 0)
(0.74936511 -3.7071481e-05 0)
(0.74932807 -3.427724e-05 0)
(0.74929381 -3.1685229e-05 0)
(0.74926214 -2.928078e-05 0)
(0.74923286 -2.7050089e-05 0)
(0.74920582 -2.49808e-05 0)
(0.74918084 -2.3061204e-05 0)
(0.74915777 -2.1280825e-05 0)
(0.74913649 -1.9629635e-05 0)
(0.74911686 -1.8098679e-05 0)
(0.74909875 -1.6679343e-05 0)
(0.74908207 -1.5363956e-05 0)
(0.7490667 -1.4145062e-05 0)
(0.74905255 -1.3016052e-05 0)
(0.74903953 -1.1970474e-05 0)
(0.74902756 -1.1002637e-05 0)
(0.74901655 -1.0106921e-05 0)
(0.74900644 -9.2784042e-06 0)
(0.74899716 -8.5122052e-06 0)
(0.74898865 -7.8040786e-06 0)
(0.74898084 -7.1497569e-06 0)
(0.74897369 -6.5455642e-06 0)
(0.74896715 -5.9877875e-06 0)
(0.74896116 -5.4732591e-06 0)
(0.74895569 -4.9987247e-06 0)
(0.74895069 -4.5614432e-06 0)
(0.74894613 -4.158582e-06 0)
(0.74894197 -3.7877857e-06 0)
(0.74893818 -3.4465666e-06 0)
(0.74893474 -3.1328906e-06 0)
(0.74893161 -2.8445924e-06 0)
(0.74892876 -2.5799322e-06 0)
(0.74892618 -2.3370049e-06 0)
(0.74892385 -2.1143139e-06 0)
(0.74892174 -1.9102035e-06 0)
(0.74891983 -1.7234036e-06 0)
(0.74891811 -1.5524556e-06 0)
(0.74891656 -1.3962748e-06 0)
(0.74891516 -1.2535968e-06 0)
(0.74891391 -1.1235133e-06 0)
(0.74891279 -1.0049095e-06 0)
(0.74891178 -8.9701853e-07 0)
(0.74891089 -7.9887687e-07 0)
(0.74891009 -7.0985474e-07 0)
(0.74890938 -6.2909859e-07 0)
(0.74890875 -5.5608471e-07 0)
(0.7489082 -4.9007299e-07 0)
(0.74890771 -4.3064357e-07 0)
(0.74890728 -3.7713032e-07 0)
(0.7489069 -3.2918889e-07 0)
(0.74890657 -2.8623251e-07 0)
(0.74890629 -2.4799066e-07 0)
(0.74890604 -2.1392348e-07 0)
(0.74890583 -1.8380152e-07 0)
(0.74890564 -1.5713957e-07 0)
(0.74890549 -1.3371958e-07 0)
(0.74890535 -1.1310984e-07 0)
(0.74890524 -9.5016061e-08 0)
(0.74890515 -7.9256371e-08 0)
(0.74890507 -6.5150248e-08 0)
(0.748905 -5.2899311e-08 0)
(0.74890494 -4.1088004e-08 0)
(0.74890492 -3.0869447e-08 0)
(0.74890485 -1.9421662e-08 0)
(0.30155744 -0.00015768519 0)
(0.30120424 -0.00045697071 0)
(0.30043341 -0.0004975449 0)
(0.29965867 -0.00037736236 0)
(0.29903606 -0.00024555323 0)
(0.29856125 -0.0001635198 0)
(0.29818559 -0.00012379697 0)
(0.29787089 -0.00010301838 0)
(0.29759842 -8.7555287e-05 0)
(0.29736069 -7.4106847e-05 0)
(0.29715322 -6.3194917e-05 0)
(0.2969713 -5.5114136e-05 0)
(0.29681015 -4.923953e-05 0)
(0.29666578 -4.4680948e-05 0)
(0.2965353 -4.0816657e-05 0)
(0.29641673 -3.7373036e-05 0)
(0.29630861 -3.4272278e-05 0)
(0.29620977 -3.1487526e-05 0)
(0.29611919 -2.8983695e-05 0)
(0.296036 -2.671802e-05 0)
(0.29595947 -2.4653022e-05 0)
(0.29588896 -2.276249e-05 0)
(0.29582395 -2.1028075e-05 0)
(0.29576394 -1.9435555e-05 0)
(0.29570852 -1.7971642e-05 0)
(0.2956573 -1.6624344e-05 0)
(0.29560994 -1.5382428e-05 0)
(0.29556614 -1.4236412e-05 0)
(0.29552561 -1.3177589e-05 0)
(0.29548811 -1.2198691e-05 0)
(0.29545341 -1.1292797e-05 0)
(0.29542129 -1.0454114e-05 0)
(0.29539156 -9.676985e-06 0)
(0.29536405 -8.9567692e-06 0)
(0.2953386 -8.2888296e-06 0)
(0.29531504 -7.6694011e-06 0)
(0.29529325 -7.0946076e-06 0)
(0.29527309 -6.5613713e-06 0)
(0.29525446 -6.0664263e-06 0)
(0.29523723 -5.6072175e-06 0)
(0.29522131 -5.1809447e-06 0)
(0.2952066 -4.7854864e-06 0)
(0.29519302 -4.4184384e-06 0)
(0.29518047 -4.0780141e-06 0)
(0.2951689 -3.7621155e-06 0)
(0.29515823 -3.4692472e-06 0)
(0.29514839 -3.1975853e-06 0)
(0.29513931 -2.9458617e-06 0)
(0.29513096 -2.7124645e-06 0)
(0.29512327 -2.4963322e-06 0)
(0.29511619 -2.2960526e-06 0)
(0.29510968 -2.1107242e-06 0)
(0.2951037 -1.9390876e-06 0)
(0.2950982 -1.7803931e-06 0)
(0.29509316 -1.6335315e-06 0)
(0.29508853 -1.4978688e-06 0)
(0.29508428 -1.372408e-06 0)
(0.2950804 -1.2566295e-06 0)
(0.29507684 -1.1496517e-06 0)
(0.29507358 -1.0510395e-06 0)
(0.29507061 -9.5999445e-07 0)
(0.29506789 -8.7616903e-07 0)
(0.29506541 -7.9885455e-07 0)
(0.29506315 -7.2776515e-07 0)
(0.29506109 -6.6225392e-07 0)
(0.29505921 -6.0210272e-07 0)
(0.29505751 -5.4673518e-07 0)
(0.29505597 -4.9597816e-07 0)
(0.29505456 -4.4930083e-07 0)
(0.29505329 -4.0658292e-07 0)
(0.29505214 -3.673498e-07 0)
(0.29505111 -3.3151395e-07 0)
(0.29505017 -2.9863416e-07 0)
(0.29504933 -2.6866489e-07 0)
(0.29504857 -2.4121029e-07 0)
(0.29504789 -2.1624843e-07 0)
(0.29504728 -1.9340766e-07 0)
(0.29504673 -1.7269978e-07 0)
(0.29504624 -1.5378987e-07 0)
(0.29504581 -1.367062e-07 0)
(0.29504542 -1.2113033e-07 0)
(0.29504508 -1.071175e-07 0)
(0.29504478 -9.4378225e-08 0)
(0.29504451 -8.297835e-08 0)
(0.29504428 -7.2637553e-08 0)
(0.29504408 -6.3443194e-08 0)
(0.2950439 -5.5136095e-08 0)
(0.29504374 -4.7809833e-08 0)
(0.29504361 -4.1208045e-08 0)
(0.29504349 -3.5437544e-08 0)
(0.29504339 -3.0248502e-08 0)
(0.29504331 -2.5745861e-08 0)
(0.29504324 -2.1663525e-08 0)
(0.29504317 -1.8148809e-08 0)
(0.29504312 -1.4941514e-08 0)
(0.29504308 -1.2053611e-08 0)
(0.29504305 -9.2588061e-09 0)
(0.29504302 -6.5406665e-09 0)
(0.295043 -2.9212922e-09 0)
(0.29504298 -8.9627486e-10 0)
)
;

boundaryField
{
    top
    {
        type            fixedValue;
        value           uniform (0 0 0);
    }
    inlet
    {
        type            pressureNormalInletOutletVelocity;
        phi             phi;
        rho             rho;