/*--------------------------------*- C++ -*----------------------------------*\
  =========                 |
  \\      /  F ield         | OpenFOAM: The Open Source CFD Toolbox
   \\    /   O peration     | Website:  https://openfoam.org
    \\  /    A nd           | Version:  6
     \\/     M anipulation  |
\*---------------------------------------------------------------------------*/
FoamFile
{
    version     2.0;
    format      ascii;
    class       volScalarField;
    location    "100";
    object      p;
}
// * * * * * * * * * * * * * * * * * * * * * * * * * * * * * * * * * * * * * //

dimensions      [0 2 -2 0 0 0 0];

internalField   nonuniform List<scalar> 
9200
(
-0.37816564
-0.3668181
-0.35672353
-0.34777348
-0.33903305
-0.33051612
-0.32230096
-0.31435505
-0.30661105
-0.29899701
-0.29143995
-0.28387081
-0.27623141
-0.26848174
-0.26061054
-0.25265311
-0.24468577
-0.23679636
-0.23000973
-0.22860772
-0.39602772
-0.38222888
-0.37019058
-0.35972067
-0.34960815
-0.33983446
-0.33046836
-0.32144654
-0.31266949
-0.30403883
-0.29546137
-0.28685486
-0.27815561
-0.26932443
-0.26035222
-0.25126395
-0.2420895
-0.2328286
-0.22416413
-0.21826191
-0.41430674
-0.39803378
-0.3840977
-0.37217838
-0.36074909
-0.34974064
-0.33920049
-0.32902691
-0.31908617
-0.30925739
-0.29943626
-0.2895407
-0.27951762
-0.26934609
-0.25903714
-0.24862945
-0.23816184
-0.22764326
-0.21747296
-0.20876593
-0.43256859
-0.41384066
-0.39807219
-0.38476507
-0.37203925
-0.35975856
-0.34794132
-0.33644682
-0.32511511
-0.31381816
-0.3024613
-0.29098632
-0.27937453
-0.2676446
-0.25584586
-0.24404814
-0.23231801
-0.2206944
-0.20944475
-0.19931014
-0.45018329
-0.42910343
-0.41161932
-0.3970015
-0.38298883
-0.3693674
-0.35612624
-0.34309634
-0.33011203
-0.31706525
-0.30390071
-0.29061226
-0.27723869
-0.26385388
-0.25055335
-0.23744005
-0.22460408
-0.21210396
-0.20012791
-0.18918336
-0.46632625
-0.44310303
-0.42407893
-0.40823983
-0.39293375
-0.37786906
-0.36301796
-0.34820879
-0.33330432
-0.3182528
-0.30307119
-0.28783011
-0.2726395
-0.25763056
-0.24293747
-0.22868227
-0.21495964
-0.20182548
-0.18940576
-0.17803728
-0.47999225
-0.45495304
-0.43462629
-0.41766602
-0.4010462
-0.38441338
-0.36775073
-0.35092467
-0.33387091
-0.3166334
-0.29932956
-0.28212057
-0.26518667
-0.24870353
-0.23282364
-0.21766488
-0.20330296
-0.18976898
-0.17712981
-0.16558665
-0.4900174
-0.46362325
-0.44230455
-0.42434665
-0.40639926
-0.38808097
-0.36942862
-0.35039893
-0.33104898
-0.3115534
-0.29214736
-0.27308224
-0.25459389
-0.2368792
-0.22008293
-0.20429493
-0.18955236
-0.17584708
-0.16318798
-0.15166231
-0.49505942
-0.46783831
-0.44582761
-0.42694586
-0.40761688
-0.38749342
-0.36672599
-0.34541886
-0.32379005
-0.3021604
-0.28087626
-0.26025655
-0.24056197
-0.22197929
-0.20461931
-0.18852516
-0.1736847
-0.16004631
-0.14756487
-0.13623011
-0.49376779
-0.46618126
-0.44364781
-0.42379822
-0.4029772
-0.38095525
-0.35806198
-0.33459503
-0.31094713
-0.28756847
-0.26487927
-0.24322057
-0.22283513
-0.20386662
-0.18637145
-0.17033743
-0.15570356
-0.14238036
-0.13027596
-0.11929524
-0.26527313
-0.26994779
-0.27245636
-0.27320749
-0.27299325
-0.27200053
-0.2703108
-0.2680116
-0.26517513
-0.26185613
-0.25809865
-0.25394019
-0.24941386
-0.24454974
-0.23937608
-0.23392179
-0.22821773
-0.22228444
-0.21612094
-0.20981278
-0.26800609
-0.27226544
-0.27446723
-0.27499966
-0.27460233
-0.27345339
-0.27163238
-0.26922316
-0.26629436
-0.26289788
-0.25907535
-0.25486218
-0.25028957
-0.24538561
-0.24017594
-0.23468845
-0.22896149
-0.22301393
-0.21673846
-0.21010913
-0.27333618
-0.27678336
-0.27838709
-0.27849175
-0.27773547
-0.27628096
-0.27420424
-0.27158191
-0.26847565
-0.26493176
-0.26098703
-0.25667264
-0.25201604
-0.24704144
-0.24176968
-0.23622576
-0.23045943
-0.22448847
-0.2180137
-0.21077732
-0.28102345
-0.28330798
-0.28404608
-0.28352195
-0.28223272
-0.2803215
-0.27786036
-0.27491602
-0.27154053
-0.26777231
-0.26364132
-0.25917261
-0.25438812
-0.24930636
-0.24394134
-0.23831291
-0.23248276
-0.22647329
-0.21973891
-0.21165197
-0.29076557
-0.29159621
-0.29123263
-0.28989116
-0.28789999
-0.28538146
-0.28240445
-0.2790244
-0.27528192
-0.2712062
-0.26681895
-0.26213696
-0.25717462
-0.25194353
-0.24644958
-0.24070424
-0.23477721
-0.22870405
-0.22168002
-0.2125626
-0.30224868
-0.30139582
-0.2997293
-0.29739843
-0.29454566
-0.2912739
-0.28765107
-0.2837216
-0.27951411
-0.27504613
-0.27032854
-0.26536891
-0.26017279
-0.25474337
-0.24907739
-0.24317502
-0.23710595
-0.23092516
-0.2235968
-0.21334215
-0.31519381
-0.31248175
-0.30934535
-0.30587406
-0.30201588
-0.29785748
-0.29346971
-0.28888557
-0.28411901
-0.27917505
-0.2740531
-0.26874943
-0.26325902
-0.25757548
-0.25168647
-0.24558037
-0.23931966
-0.23298196
-0.22536347
-0.21398026
-0.32938493
-0.32467894
-0.31993891
-0.31520416
-0.31022401
-0.30507186
-0.29982179
-0.2944946
-0.28908946
-0.28359699
-0.27800223
-0.2722872
-0.26643323
-0.26042186
-0.2542311
-0.24784038
-0.24130944
-0.23476184
-0.22694511
-0.21466497
-0.34466895
-0.33785498
-0.33139958
-0.32530205
-0.3191057
-0.31286932
-0.30667213
-0.30052219
-0.29440107
-0.28828176
-0.28213137
-0.27591347
-0.26959029
-0.26312308
-0.25646737
-0.2495753
-0.24247115
-0.23526111
-0.22668795
-0.21324922
-0.36094698
-0.35190212
-0.34361515
-0.33605026
-0.32853134
-0.32110236
-0.31384757
-0.30676003
-0.29980119
-0.29292474
-0.28607956
-0.27921244
-0.27227104
-0.26520393
-0.25795524
-0.25046055
-0.24266274
-0.2343552
-0.22388713
-0.20821714
-0.2026606
-0.19371043
-0.18475522
-0.17585899
-0.16696804
-0.15812405
-0.14938054
-0.14077259
-0.13232948
-0.12407983
-0.11604945
-0.10826054
-0.10073225
-0.093480928
-0.086520183
-0.079860902
-0.073511381
-0.067477427
-0.061762453
-0.05636759
-0.051291807
-0.046532057
-0.042083419
-0.037939269
-0.034091458
-0.030530494
-0.027245738
-0.024225599
-0.021457726
-0.018929206
-0.016626742
-0.01453683
-0.012645929
-0.010940611
-0.0094077009
-0.0080344144
-0.0068084781
-0.0057182349
-0.0047528189
-0.0039020769
-0.003157404
-0.0025096765
-0.0019566932
-0.0014812945
-0.0011202861
-0.00076033886
-0.00075043503
-0.00011761145
-0.0017752052
0.0025041134
-0.20367102
-0.19432352
-0.18525926
-0.17637739
-0.16746842
-0.15859424
-0.14982631
-0.14119609
-0.13273041
-0.12445844
-0.11640626
-0.10859597
-0.10104668
-0.093774838
-0.086794107
-0.080115436
-0.073747187
-0.067695226
-0.061963019
-0.056551736
-0.051460382
-0.046685929
-0.042223467
-0.038066377
-0.034206501
-0.030634335
-0.027339217
-0.024309529
-0.021532892
-0.018996355
-0.016686582
-0.014590032
-0.01269312
-0.010982374
-0.0094445784
-0.0080669044
-0.0068370368
-0.0057432772
-0.004774719
-0.0039211692
-0.003173983
-0.0025240002
-0.0019689628
-0.0014917189
-0.0011287923
-0.00076750986
-0.00075406557
-0.00012367415
-0.0017607531
0.0024752372
-0.20579045
-0.19559219
-0.18631048
-0.17749733
-0.16856478
-0.15962992
-0.15081437
-0.14214015
-0.13362744
-0.12530756
-0.11720784
-0.10935024
-0.10175399
-0.094435892
-0.08740987
-0.080687102
-0.074276156
-0.068183087
-0.062411511
-0.056962723
-0.051835816
-0.047027825
-0.042533875
-0.038347354
-0.034460092
-0.030862551
-0.027544019
-0.024492816
-0.021696483
-0.019141986
-0.016815895
-0.014704572
-0.012794329
-0.011071593
-0.0095230459
-0.0081357558
-0.006897308
-0.0057959066
-0.0048205504
-0.0039609543
-0.003208383
-0.0025535904
-0.0019942016
-0.0015130572
-0.0011461498
-0.00078201613
-0.00076150672
-0.0001356508
-0.0017323798
0.0024180972
-0.20886005
-0.1972849
-0.18768219
-0.17906809
-0.17014618
-0.16113464
-0.15226497
-0.14354181
-0.13497007
-0.12658617
-0.11842114
-0.11049697
-0.10283322
-0.095447506
-0.088354475
-0.081565822
-0.075090577
-0.0689352
-0.063103645
-0.057597471
-0.052415979
-0.047556348
-0.043013802
-0.038781778
-0.034852112
-0.031215238
-0.027860387
-0.024775789
-0.021948879
-0.019366497
-0.017015076
-0.014880828
-0.012949911
-0.011208592
-0.0096433939
-0.0082412261
-0.0069895173
-0.0058763189
-0.0048904817
-0.0040215762
-0.0032607258
-0.0025985505
-0.0020324954
-0.0015453815
-0.0011724168
-0.00080389916
-0.00077283477
-0.0001534726
-0.0016908042
0.0023339232
-0.21265301
-0.19913101
-0.18910506
-0.18089186
-0.172066
-0.16298046
-0.15406777
-0.14531201
-0.13668669
-0.12823544
-0.11999778
-0.11199686
-0.10425264
-0.096784196
-0.089607577
-0.082735503
-0.076177849
-0.069941815
-0.064031975
-0.05845039
-0.053196753
-0.048268543
-0.043661198
-0.039368289
-0.035381724
-0.031691945
-0.028288142
-0.025158462
-0.022290221
-0.01967011
-0.017284389
-0.015119081
-0.013160145
-0.011393639
-0.0098058722
-0.0083835427
-0.0071138686
-0.0059846946
-0.0049846714
-0.0041031727
-0.0033311307
-0.0026589819
-0.0020839301
-0.0015887622
-0.0012076559
-0.00083319897
-0.00078816413
-0.00017701309
-0.0016371399
0.0022246062
-0.21682187
-0.20084991
-0.19030985
-0.18273534
-0.1741518
-0.16502391
-0.15609055
-0.14733664
-0.13868448
-0.13017926
-0.12187434
-0.11379734
-0.10596922
-0.098410934
-0.091140763
-0.084173219
-0.077519593
-0.07118829
-0.065184911
-0.059512365
-0.05417102
-0.04915889
-0.044471809
-0.040103635
-0.036046455
-0.032290804
-0.028825883
-0.02563979
-0.022719732
-0.020052246
-0.017623405
-0.015419015
-0.013424798
-0.01162656
-0.010010352
-0.0085626108
-0.0072702924
-0.006120984
-0.0051030847
-0.0042057213
-0.0034195844
-0.0027348799
-0.0021485068
-0.001643207
-0.0012518824
-0.00086992046
-0.00080761049
-0.00020609369
-0.0015727895
0.0020926119
-0.22096888
-0.20225996
-0.19108476
-0.18432072
-0.17620292
-0.16713789
-0.15821816
-0.14950341
-0.14086746
-0.13233968
-0.12398584
-0.11584343
-0.10793675
-0.10028912
-0.092921737
-0.085851895
-0.079093088
-0.072655542
-0.066546406
-0.060769877
-0.055327375
-0.050217748
-0.045437475
-0.040980896
-0.036840429
-0.033006817
-0.029469357
-0.026216149
-0.023234322
-0.020510275
-0.018029886
-0.015778727
-0.013742255
-0.011905991
-0.010255686
-0.0087774692
-0.0074579894
-0.0062845276
-0.005245183
-0.0043287874
-0.0035257417
-0.002825975
-0.0022260207
-0.0017085663
-0.0013050007
-0.00091399933
-0.00083126697
-0.00024052882
-0.0014993574
0.0019408348
-0.22483299
-0.20375674
-0.19165416
-0.18546054
-0.17800508
-0.16923495
-0.16040692
-0.15175603
-0.14317361
-0.13466101
-0.12628305
-0.11808987
-0.11011352
-0.10238084
-0.094916395
-0.08774098
-0.080871103
-0.07431943
-0.068095159
-0.062204216
-0.056649444
-0.051430838
-0.046545782
-0.041989306
-0.037754334
-0.033831947
-0.030211639
-0.026881584
-0.023828885
-0.021039823
-0.018500097
-0.016195036
-0.014109819
-0.012229654
-0.01053996
-0.0090265216
-0.0076756399
-0.0064742461
-0.0054100959
-0.0044716815
-0.0036490688
-0.002931868
-0.0023161863
-0.0017846532
-0.0013669092
-0.00096539151
-0.0008592742
-0.00028018263
-0.0014185841
0.0017725752
-0.2260717
-0.20558465
-0.19271344
-0.18609102
-0.17912304
-0.17093467
-0.16238322
-0.15386153
-0.14538621
-0.13695074
-0.12860276
-0.12040016
-0.1123861
-0.10459323
-0.097050103
-0.089781604
-0.08280811
-0.076145561
-0.069805935
-0.06379755
-0.058125276
-0.052790788
-0.047792846
-0.043127569
-0.038788725
-0.034768011
-0.031055349
-0.027639164
-0.024506671
-0.021644137
-0.019037144
-0.016670828
-0.014530103
-0.01259987
-0.010865203
-0.0093115179
-0.0079247344
-0.0066913968
-0.0055988748
-0.0046352756
-0.003790283
-0.0030531422
-0.0024194719
-0.0018718305
-0.0014378999
-0.0010242591
-0.00089196144
-0.00032471308
-0.0013325809
0.001592119
-0.21621003
-0.20482996
-0.19383066
-0.18574195
-0.17868475
-0.17127079
-0.16332573
-0.15517008
-0.14698278
-0.13878988
-0.13061912
-0.122528
-0.11457201
-0.10679411
-0.099230143
-0.091911667
-0.08486536
-0.078112696
-0.07167038
-0.06555077
-0.059762169
-0.054309123
-0.049192753
-0.04441109
-0.039959411
-0.035830575
-0.032015355
-0.028502768
-0.025280393
-0.022334673
-0.019651209
-0.017215028
-0.015010834
-0.01302324
-0.011236974
-0.0096370666
-0.0082090248
-0.0069389651
-0.0058138251
-0.004821276
-0.003950568
-0.0031905255
-0.0025362219
-0.0019700974
-0.0015177523
-0.0010900206
-0.00092909257
-0.00037238391
-0.001243902
0.0014050123
-0.19407215
-0.19877682
-0.19350214
-0.18459679
-0.17709298
-0.17008383
-0.16258214
-0.15472346
-0.14677363
-0.13879587
-0.13080974
-0.12286816
-0.11503041
-0.10734386
-0.099847508
-0.092575863
-0.085558569
-0.078819893
-0.072379057
-0.066250684
-0.060445103
-0.05496865
-0.049824011
-0.045010573
-0.040524772
-0.036360448
-0.032509192
-0.028960691
-0.025703061
-0.022723165
-0.020006921
-0.017539583
-0.015306007
-0.013290889
-0.011478987
-0.0098553146
-0.0084053265
-0.0071150542
-0.0059713232
-0.004961677
-0.0040751867
-0.0033005632
-0.0026324092
-0.0020536177
-0.0015869697
-0.0011497497
-0.00096103131
-0.00041997815
-0.0011530103
0.0012192073
-0.18352106
-0.18933932
-0.18586505
-0.17712565
-0.1699218
-0.16366453
-0.15696349
-0.14981886
-0.14252656
-0.13516163
-0.12773384
-0.12029175
-0.11289712
-0.10560098
-0.098445925
-0.091470266
-0.084707692
-0.078186477
-0.071929683
-0.065955569
-0.06027788
-0.05490613
-0.049845932
-0.045099352
-0.040665267
-0.036539723
-0.032716295
-0.029186438
-0.025939838
-0.022964742
-0.020248273
-0.017776731
-0.015535867
-0.013511139
-0.011687944
-0.010051823
-0.0085886582
-0.0072848247
-0.0061274035
-0.0051041406
-0.0042041769
-0.0034164098
-0.0027349844
-0.0021438462
-0.0016619544
-0.0012158295
-0.00099500018
-0.00047566215
-0.001050838
0.0010186753
-0.17478038
-0.17799919
-0.17572089
-0.1686998
-0.1623466
-0.15678338
-0.15084926
-0.14443483
-0.13780672
-0.13106004
-0.1242067
-0.11728908
-0.1103677
-0.10349544
-0.096717011
-0.090073089
-0.08360028
-0.077330071
-0.071288818
-0.065498066
-0.059974778
-0.054731572
-0.049777007
-0.045115918
-0.040749754
-0.036676935
-0.032893202
-0.029391975
-0.026164704
-0.023201209
-0.020490002
-0.018018601
-0.01577381
-0.013741994
-0.011909316
-0.010261962
-0.0087863414
-0.0074692581
-0.0062981203
-0.0052609385
-0.0043469637
-0.0035453303
-0.002849696
-0.0022451973
-0.0017465785
-0.001290561
-0.0010342683
-0.00053826847
-0.00094064226
0.00079878126
-0.16509946
-0.16570984
-0.16387718
-0.15893228
-0.15380919
-0.14898875
-0.14384588
-0.13824331
-0.13235839
-0.12629195
-0.12007168
-0.11373801
-0.10734809
-0.10095545
-0.094606622
-0.088344291
-0.082207548
-0.076230851
-0.070443744
-0.064871055
-0.05953305
-0.054445601
-0.049620416
-0.045065336
-0.040784642
-0.036779392
-0.033047766
-0.029585413
-0.026385801
-0.023440564
-0.020739827
-0.01827253
-0.016026719
-0.013989832
-0.012148947
-0.010491023
-0.0090031112
-0.0076725382
-0.0064871195
-0.0054351947
-0.0045061748
-0.0036894665
-0.002978261
-0.0023588887
-0.0018418535
-0.0013740707
-0.0010800381
-0.00060513382
-0.00083007046
0.00056972737
-0.15452722
-0.1532582
-0.15144771
-0.14821771
-0.14438796
-0.1403725
-0.13602678
-0.1312683
-0.12618048
-0.12084636
-0.1153091
-0.10961173
-0.10380725
-0.097948037
-0.092081551
-0.086251745
-0.080499456
-0.074861533
-0.069370354
-0.064053815
-0.058935395
-0.05403424
-0.049365315
-0.044939634
-0.040764528
-0.036843943
-0.03317876
-0.02976713
-0.026604812
-0.023685514
-0.021001227
-0.018542544
-0.016298972
-0.014259212
-0.012411437
-0.010743532
-0.0092433237
-0.007898778
-0.006698215
-0.0056303812
-0.0046849141
-0.0038515288
-0.0031230044
-0.0024868085
-0.0019493795
-0.0014673153
-0.0011337504
-0.00067553726
-0.00072517985
0.00033970709
-0.14273759
-0.14067725
-0.1389815
-0.1370258
-0.13436695
-0.13118761
-0.12762911
-0.12369538
-0.11940848
-0.11482424
-0.10999358
-0.10496119
-0.099775516
-0.094486592
-0.089141693
-0.083784997
-0.078457977
-0.07319889
-0.068042181
-0.063018242
-0.058153347
-0.053469634
-0.04898517
-0.044714097
-0.04066683
-0.036850305
-0.033268256
-0.029921518
-0.026808349
-0.02392475
-0.021264797
-0.018820957
-0.016584402
-0.014545299
-0.012693093
-0.011016763
-0.0095050578
-0.0081467128
-0.006930665
-0.0058461607
-0.0048831457
-0.0040316878
-0.0032842393
-0.0026293106
-0.0020696116
-0.0015705392
-0.0011963343
-0.00074894338
-0.00063198277
0.00011747906
-0.13004067
-0.12810988
-0.12676238
-0.12571876
-0.12402358
-0.12165397
-0.11885588
-0.11570088
-0.11218582
-0.10834025
-0.1042141
-0.099853745
-0.095302166
-0.090604294
-0.085806039
-0.080951049
-0.076080439
-0.071232727
-0.066443418
-0.061744589
-0.05716465
-0.052728215
-0.048456073
-0.044365234
-0.040469047
-0.036777375
-0.03329682
-0.030030972
-0.026980699
-0.024144444
-0.021518533
-0.019097487
-0.016874323
-0.014840857
-0.012987979
-0.011305922
-0.0097845135
-0.0084133909
-0.0071822311
-0.0060808821
-0.0050996936
-0.0042291376
-0.0034614506
-0.0027860701
-0.0022024478
-0.0016836081
-0.001268421
-0.00082486138
-0.00055642918
-8.7549449e-05
-0.11715225
-0.11580187
-0.11494316
-0.11455535
-0.11361574
-0.11198142
-0.10989417
-0.10745641
-0.10466141
-0.10152098
-0.098077219
-0.094374462
-0.090452544
-0.086350771
-0.082110238
-0.07777287
-0.073378794
-0.068965854
-0.064569534
-0.060222624
-0.055954845
-0.051792601
-0.047758833
-0.043872977
-0.040150988
-0.036605433
-0.033245643
-0.03007791
-0.027105717
-0.024330003
-0.021749438
-0.019360714
-0.017158838
-0.015137418
-0.013288943
-0.011605055
-0.010076798
-0.0086948511
-0.0074497549
-0.0063320679
-0.0053326471
-0.0044424293
-0.0036535652
-0.0029562988
-0.0023473883
-0.0018061404
-0.0013503506
-0.00090300745
-0.00050360241
-0.00026640611
-0.10461543
-0.10393171
-0.10358896
-0.10369519
-0.10334367
-0.10234669
-0.10090109
-0.099110602
-0.09697176
-0.094486862
-0.091688237
-0.088614863
-0.085302083
-0.081784866
-0.078099704
-0.07428414
-0.070375915
-0.066411504
-0.062425532
-0.058450543
-0.054516679
-0.05065134
-0.046878939
-0.043220761
-0.039694896
-0.036316249
-0.033096611
-0.030044787
-0.027166767
-0.02446594
-0.021943326
-0.01959784
-0.017426554
-0.015424973
-0.013587302
-0.011906716
-0.010375607
-0.0089858176
-0.0077288741
-0.0065961537
-0.0055791288
-0.004669269
-0.0038587812
-0.0031386081
-0.0025034253
-0.0019374465
-0.0014420683
-0.00098335142
-0.00047694952
-0.00041185149
-0.092715781
-0.092618192
-0.092743922
-0.093237821
-0.093347659
-0.092885574
-0.092000663
-0.090782901
-0.089231107
-0.087342824
-0.085141293
-0.082658471
-0.079924433
-0.076969055
-0.073824371
-0.070523787
-0.067101076
-0.063590056
-0.060023737
-0.056433651
-0.052849518
-0.049298923
-0.045807022
-0.0423963
-0.039086424
-0.035894168
-0.032833405
-0.02991516
-0.027147718
-0.024536772
-0.022085615
-0.01979535
-0.01766513
-0.015692405
-0.013873169
-0.012202217
-0.01067339
-0.0092798046
-0.0080140771
-0.0068685069
-0.0058352873
-0.0049064936
-0.0040745349
-0.0033309714
-0.0026690065
-0.0020764788
-0.0015430488
-0.0010659948
-0.00047769243
-0.00051947136
-0.08159362
-0.08195207
-0.082460261
-0.083256768
-0.08372746
-0.083702509
-0.083292936
-0.082570872
-0.081534718
-0.080179099
-0.078519612
-0.076580847
-0.074387116
-0.07196302
-0.069335486
-0.066533552
-0.063587122
-0.060526396
-0.057381703
-0.054182817
-0.050958319
-0.047735236
-0.044538734
-0.041391828
-0.038315161
-0.035326846
-0.032442387
-0.029674658
-0.027033938
-0.024528002
-0.022162251
-0.019939878
-0.017862064
-0.015928188
-0.014136057
-0.012482137
-0.010961784
-0.0095694674
-0.0082989842
-0.0071436457
-0.0060964634
-0.0051501937
-0.0042975895
-0.0035307817
-0.0028420731
-0.0022218339
-0.0016522751
-0.0011510403
-0.00050454039
-0.00058855268
-0.071309391
-0.071995812
-0.07279039
-0.07381194
-0.074557809
-0.074880006
-0.074861431
-0.074557622
-0.073964888
-0.073075439
-0.071898543
-0.070451865
-0.068753847
-0.06682377
-0.064683375
-0.06235683
-0.059869848
-0.057248945
-0.054521099
-0.051713478
-0.048852837
-0.045964977
-0.043074394
-0.040203976
-0.037374722
-0.034605529
-0.031913033
-0.029311528
-0.026812929
-0.0244268
-0.022160424
-0.020018914
-0.018005364
-0.016121018
-0.014365467
-0.01273685
-0.011232072
-0.0098470033
-0.0085766893
-0.0074155253
-0.0063574263
-0.0053959027
-0.0045241841
-0.0037349614
-0.0030201403
-0.0023717699
-0.0017682467
-0.001238403
-0.0005537826
-0.00062233876
-0.061875007
-0.0627822
-0.063774481
-0.064950058
-0.065895666
-0.066483807
-0.066776515
-0.066815588
-0.066594882
-0.066104462
-0.065348372
-0.064338144
-0.063086646
-0.061607991
-0.059918833
-0.058038422
-0.055987931
-0.053789885
-0.051467729
-0.049045494
-0.046547427
-0.043997481
-0.041418868
-0.038833722
-0.036262794
-0.033725192
-0.031238167
-0.028816964
-0.026474728
-0.024222466
-0.022069061
-0.020021322
-0.018084085
-0.01626034
-0.014551385
-0.012956997
-0.011475621
-0.010104549
-0.0088401138
-0.0076778476
-0.0066126389
-0.0056388206
-0.004750218
-0.0039401035
-0.0032004063
-0.0025242532
-0.0018890361
-0.0013276865
-0.00061981971
-0.00062761994
-0.053275666
-0.05431948
-0.055434954
-0.056702595
-0.057782251
-0.058564608
-0.059095883
-0.059406985
-0.059489727
-0.059332479
-0.05893507
-0.058303839
-0.057446673
-0.056372896
-0.055094362
-0.05362556
-0.051983119
-0.050185347
-0.048251903
-0.046203446
-0.044061262
-0.041846896
-0.039581718
-0.037286538
-0.034981285
-0.032684716
-0.030414164
-0.028185338
-0.026012171
-0.023906728
-0.021879158
-0.019937693
-0.018088692
-0.016336721
-0.014684666
-0.013133861
-0.011684246
-0.010334525
-0.0090823254
-0.0079243523
-0.0068565193
-0.0058740416
-0.0049714446
-0.0041426281
-0.003379875
-0.0026770197
-0.0020123806
-0.0014180978
-0.00069605044
-0.00061352143
-0.045480573
-0.046596722
-0.047776146
-0.049084839
-0.05024329
-0.051158266
-0.051863921
-0.052382721
-0.052705128
-0.052818434
-0.052719243
-0.05240969
-0.051893448
-0.05117564
-0.050263781
-0.049167946
-0.047900411
-0.046475319
-0.04490842
-0.043216802
-0.041418554
-0.039532421
-0.037577455
-0.035572646
-0.033536578
-0.031487129
-0.029441191
-0.027414439
-0.025421134
-0.023473979
-0.021584019
-0.019760592
-0.018011314
-0.016342113
-0.014757294
-0.013259628
-0.01185047
-0.010529884
-0.0092967822
-0.0081490484
-0.0070836556
-0.0060967505
-0.0051836455
-0.0043389281
-0.0035554795
-0.0028276577
-0.0021358188
-0.0015084803
-0.00077594339
-0.0005898204
-0.038448342
-0.039589023
-0.040787289
-0.042097275
-0.043289964
-0.044286379
-0.04511157
-0.045781589
-0.046286258
-0.046612447
-0.046754486
-0.046711298
-0.046483185
-0.046071782
-0.045480876
-0.044716623
-0.043787319
-0.042703169
-0.041476113
-0.040119624
-0.038648456
-0.037078339
-0.035425675
-0.033707227
-0.031939793
-0.030139895
-0.028323499
-0.026505762
-0.024700807
-0.022921539
-0.021179503
-0.019484786
-0.017845956
-0.016270045
-0.014762567
-0.013327566
-0.01196769
-0.010684285
-0.009477496
-0.0083463724
-0.0072889577
-0.0063023647
-0.0053827605
-0.0045254854
-0.0037241853
-0.0029736923
-0.0022568417
-0.0015974059
-0.00085401517
-0.00056513113
-0.032131534
-0.033262451
-0.034446614
-0.035728446
-0.036920949
-0.037957743
-0.038857109
-0.039630344
-0.04026724
-0.040754832
-0.041086045
-0.041257519
-0.041267035
-0.041113496
-0.040797655
-0.040322358
-0.039692422
-0.038914499
-0.037996977
-0.036949857
-0.035784568
-0.034513742
-0.033150956
-0.031710468
-0.030206942
-0.028655155
-0.02706972
-0.025464831
-0.023854026
-0.022249979
-0.020664324
-0.01910752
-0.017588746
-0.016115845
-0.014695289
-0.01333219
-0.012030331
-0.010792217
-0.0096191493
-0.008511295
-0.0074677562
-0.0064866266
-0.0055649744
-0.0046989512
-0.0038830703
-0.00311267
-0.002373042
-0.0016833265
-0.00092646854
-0.00054553471
-0.026480094
-0.027577784
-0.028724942
-0.029958017
-0.031124941
-0.032170382
-0.033107653
-0.033944596
-0.034671443
-0.035275871
-0.035750129
-0.036089393
-0.036289709
-0.036347996
-0.036262682
-0.036033962
-0.035663759
-0.035155663
-0.034514904
-0.033748289
-0.032864097
-0.031871917
-0.030782464
-0.029607359
-0.028358907
-0.027049846
-0.025693096
-0.024301508
-0.022887631
-0.021463499
-0.020040433
-0.018628879
-0.017238272
-0.01587694
-0.014552033
-0.013269491
-0.012034028
-0.010849159
-0.0097172211
-0.0086394239
-0.0076158863
-0.0066456736
-0.0057267767
-0.0048562012
-0.0040293807
-0.0032422308
-0.0024822243
-0.0017647128
-0.00099131794
-0.00053398226
-0.021443643
-0.022493151
-0.023588485
-0.024759503
-0.025883173
-0.026913776
-0.027860993
-0.028730204
-0.029512403
-0.030196243
-0.030773873
-0.031239682
-0.031588661
-0.031816422
-0.031919742
-0.031896823
-0.031747305
-0.031472271
-0.031074266
-0.030557296
-0.029926781
-0.029189465
-0.028353291
-0.027427246
-0.026421185
-0.025345631
-0.024211567
-0.023030205
-0.021812775
-0.020570305
-0.019313431
-0.018052218
-0.016795999
-0.015553255
-0.014331507
-0.013137252
-0.01197591
-0.010851809
-0.0097681776
-0.0087271557
-0.0077298062
-0.0067761292
-0.0058650312
-0.0049943928
-0.0041605837
-0.003360175
-0.0025824707
-0.0018401613
-0.0010480515
-0.00053060066
-0.016973366
-0.017966276
-0.019001302
-0.020102803
-0.021171908
-0.022171208
-0.023107724
-0.02398509
-0.024795253
-0.025528049
-0.026175936
-0.02673304
-0.027193854
-0.027553254
-0.027806964
-0.027951795
-0.027985705
-0.02790783
-0.027718546
-0.027419513
-0.027013674
-0.026505227
-0.025899553
-0.025203125
-0.024423381
-0.02356858
-0.022647631
-0.021669914
-0.020645085
-0.019582879
-0.018492926
-0.017384573
-0.016266717
-0.015147658
-0.014034984
-0.012935461
-0.011854963
-0.010798415
-0.0097697543
-0.0087719108
-0.0078067883
-0.0068752535
-0.0059770932
-0.0051110569
-0.0042744391
-0.0034645338
-0.0026721643
-0.0019084507
-0.0010970197
-0.00053362634
-0.013023074
-0.013955881
-0.014926981
-0.015956073
-0.016964432
-0.017921793
-0.018833207
-0.019701066
-0.020518347
-0.021276158
-0.021967537
-0.022586722
-0.023128124
-0.023586339
-0.023956531
-0.024234651
-0.024417505
-0.024502816
-0.024489307
-0.024376766
-0.024166091
-0.0238593
-0.023459512
-0.022970904
-0.022398639
-0.02174877
-0.021028119
-0.020244136
-0.01940475
-0.018518195
-0.017592847
-0.016637054
-0.015658977
-0.01466644
-0.013666791
-0.012666786
-0.01167249
-0.010689188
-0.0097213275
-0.0087724585
-0.0078451942
-0.0069411722
-0.0060609943
-0.0052042453
-0.0043691138
-0.0035536605
-0.0027500044
-0.0019685683
-0.0011388483
-0.00054053638
-0.0095507572
-0.010423497
-0.011330621
-0.012287832
-0.013233228
-0.014142663
-0.015019703
-0.015865839
-0.016675069
-0.017439777
-0.018153728
-0.018811518
-0.019407766
-0.019937122
-0.020394575
-0.020775637
-0.021076421
-0.021293709
-0.02142504
-0.021468797
-0.021424269
-0.021291694
-0.02107228
-0.020768198
-0.020382562
-0.019919373
-0.019383447
-0.018780319
-0.01811613
-0.017397499
-0.016631379
-0.015824911
-0.014985281
-0.014119573
-0.013234633
-0.012336938
-0.011432485
-0.010526686
-0.0096242799
-0.008729256
-0.0078447822
-0.0069731454
-0.0061156721
-0.0052727232
-0.0044433325
-0.0036263462
-0.0028150371
-0.0020197374
-0.0011740649
-0.00054894666
-0.0065184256
-0.0073337616
-0.0081795642
-0.0090680634
-0.009951428
-0.010810729
-0.011648382
-0.012465203
-0.013256146
-0.014014804
-0.014735724
-0.015413998
-0.016044635
-0.016622562
-0.017142866
-0.017600944
-0.017992576
-0.018313993
-0.018561962
-0.018733876
-0.018827833
-0.018842688
-0.018778106
-0.018634587
-0.018413473
-0.018116942
-0.017747968
-0.017310272
-0.016808247
-0.016246868
-0.015631586
-0.014968211
-0.014262783
-0.013521448
-0.012750326
-0.011955386
-0.011142326
-0.010316457
-0.0094826012
-0.0086449925
-0.0078071887
-0.006971987
-0.0061413277
-0.0053162643
-0.0044966129
-0.0036819944
-0.002866749
-0.0020614812
-0.0012030159
-0.00055709087
-0.0038938723
-0.0046560105
-0.0054448152
-0.0062694454
-0.0070938323
-0.0079034816
-0.0086998993
-0.0094833679
-0.0102497
-0.010993588
-0.011710351
-0.012395632
-0.013044919
-0.013653547
-0.01421688
-0.014730422
-0.015189888
-0.015591256
-0.015930856
-0.016205447
-0.016412294
-0.016549242
-0.016614771
-0.016608043
-0.016528943
-0.016378088
-0.016156837
-0.015867267
-0.015512139
-0.015094845
-0.01461934
-0.014090053
-0.013511788
-0.012889622
-0.012228791
-0.011534574
-0.010812173
-0.010066602
-0.0093025696
-0.0085243734
-0.0077357924
-0.0069399876
-0.0061393876
-0.0053356411
-0.0045292647
-0.0037206192
-0.0029050451
-0.002093605
-0.0012258843
-0.00056386726
-0.0016514562
-0.0023661986
-0.0031039582
-0.0038712666
-0.0046418237
-0.0054048506
-0.0061611138
-0.0069104632
-0.0076494496
-0.0083737309
-0.0090793387
-0.00976246
-0.01041909
-0.011045026
-0.011636
-0.012187764
-0.012696143
-0.013157085
-0.013566729
-0.013921479
-0.014218076
-0.014453668
-0.014625876
-0.01473285
-0.014773321
-0.014746639
-0.014652804
-0.01449247
-0.014266946
-0.013978172
-0.013628688
-0.013221578
-0.012760404
-0.012249123
-0.011691999
-0.011093502
-0.010458204
-0.0097906664
-0.0090953252
-0.0083763804
-0.0076376787
-0.0068826011
-0.0061139372
-0.0053338186
-0.0045433722
-0.0037436335
-0.0029308768
-0.00211668
-0.0012431668
-0.00056891148
0.00023294067
-0.00044022679
-0.0011331512
-0.0018499858
-0.0025724892
-0.003292992
-0.004011659
-0.0047279735
-0.0054390984
-0.0061415119
-0.0068318719
-0.0075068658
-0.0081629701
-0.0087964442
-0.0094034191
-0.0099799609
-0.010522108
-0.011025911
-0.011487493
-0.011903107
-0.012269201
-0.012582483
-0.012839987
-0.013039131
-0.013177779
-0.013254295
-0.013267579
-0.013217109
-0.013102956
-0.012925793
-0.012686889
-0.012388087
-0.012031763
-0.011620776
-0.0111584
-0.010648247
-0.010094175
-0.0095001927
-0.0088703456
-0.0082086086
-0.0075187644
-0.0068042851
-0.0060681964
-0.0053130015
-0.0045403323
-0.0037518189
-0.0029445804
-0.0021306962
-0.0012546751
-0.00057172934
0.0017564246
0.0011170352
0.00046092828
-0.00021429779
-0.00089682283
-0.0015814231
-0.0022677668
-0.0029550397
-0.0036408949
-0.0043224749
-0.0049969558
-0.0056614515
-0.0063128601
-0.0069478581
-0.0075629561
-0.0081545406
-0.0087189017
-0.0092522657
-0.0097508384
-0.010210855
-0.010628637
-0.011000644
-0.011323541
-0.011594252
-0.01181003
-0.011968507
-0.012067753
-0.012106321
-0.012083291
-0.01199829
-0.011851516
-0.011643736
-0.011376281
-0.011051015
-0.010670294
-0.010236907
-0.0097540042
-0.0092250141
-0.0086535445
-0.0080432752
-0.0073978402
-0.0067207073
-0.0060150374
-0.0052835999
-0.0045284284
-0.0037516468
-0.002951115
-0.0021393376
-0.0012630132
-0.0005736339
0.0029598262
0.0023482123
0.0017222393
0.0010811329
0.00043168623
-0.0002228363
-0.00088171759
-0.0015438923
-0.0022073847
-0.002869855
-0.0035288897
-0.0041819463
-0.004826269
-0.0054588839
-0.0060766299
-0.0066761845
-0.0072540834
-0.0078067453
-0.0083305057
-0.0088216564
-0.0092764912