/*--------------------------------*- C++ -*----------------------------------*\
| =========                 |                                                 |
| \\      /  F ield         | OpenFOAM: The Open Source CFD Toolbox           |
|  \\    /   O peration     | Version:  4.1                                   |
|   \\  /    A nd           | Web:      www.OpenFOAM.org                      |
|    \\/     M anipulation  |                                                 |
\*---------------------------------------------------------------------------*/
FoamFile
{
    version     2.0;
    format      ascii;
    class       volScalarField;
    location    "5";
    object      p;
}
// * * * * * * * * * * * * * * * * * * * * * * * * * * * * * * * * * * * * * //

dimensions      [0 2 -2 0 0 0 0];

internalField   nonuniform List<scalar> 
1000
(
1.5221227
1.5050238
1.4886786
1.4727552
1.4570432
1.441456
1.4259585
1.4105288
1.3951488
1.3798045
1.3644868
1.3491898
1.333909
1.3186406
1.3033814
1.2881287
1.2728803
1.2576345
1.2423901
1.2271464
1.2119028
1.1966593
1.1814156
1.1661718
1.1509279
1.1356839
1.1204399
1.1051958
1.0899518
1.0747077
1.0594636
1.0442195
1.0289754
1.0137313
0.99848726
0.98324318
0.9679991
0.95275502
0.93751094
0.92226686
0.90702278
0.8917787
0.87653462
0.86129054
0.84604645
0.83080237
0.81555829
0.80031421
0.78507013
0.76982605
0.75458197
0.73933789
0.72409381
0.70884973
0.69360565
0.67836157
0.66311749
0.64787341
0.63262932
0.61738524
0.60214116
0.58689708
0.571653
0.55640892
0.54116484
0.52592076
0.51067668
0.4954326
0.48018852
0.46494444
0.44970036
0.43445628
0.4192122
0.40396811
0.38872403
0.37347995
0.35823587
0.34299179
0.32774771
0.31250363
0.29725955
0.28201547
0.26677139
0.25152731
0.23628323
0.22103915
0.20579507
0.19055099
0.1753069
0.16006282
0.14481874
0.12957466
0.11433058
0.099086502
0.083842421
0.068598341
0.053354261
0.038110183
0.022866106
0.0076220325
1.521712
1.5046296
1.4886238
1.472897
1.4572032
1.441577
1.4260484
1.4106
1.395205
1.3798468
1.3645173
1.3492111
1.3339235
1.3186502
1.3033875
1.2881323
1.2728823
1.2576355
1.2423905
1.2271465
1.2119028
1.1966592
1.1814155
1.1661717
1.1509279
1.1356839
1.1204399
1.1051958
1.0899518
1.0747077
1.0594636
1.0442195
1.0289754
1.0137313
0.99848726
0.98324318
0.9679991
0.95275502
0.93751094
0.92226686
0.90702278
0.8917787
0.87653462
0.86129054
0.84604645
0.83080237
0.81555829
0.80031421
0.78507013
0.76982605
0.75458197
0.73933789
0.72409381
0.70884973
0.69360565
0.67836157
0.66311749
0.64787341
0.63262932
0.61738524
0.60214116
0.58689708
0.571653
0.55640892
0.54116484
0.52592076
0.51067668
0.4954326
0.48018852
0.46494444
0.44970036
0.43445628
0.4192122
0.40396811
0.38872403
0.37347995
0.35823587
0.34299179
0.32774771
0.31250363
0.29725955
0.28201547
0.26677139
0.25152731
0.23628323
0.22103915
0.20579507
0.19055099
0.1753069
0.16006282
0.14481874
0.12957466
0.11433058
0.099086502
0.083842421
0.068598341
0.05335426
0.038110181
0.022866102
0.0076220294
1.52104
1.5038845
1.4883353
1.4729343
1.4573164
1.4416629
1.426109
1.4106524
1.3952522
1.3798857
1.3645469
1.349233
1.3339395
1.3186617
1.3033955
1.2881377
1.2728858
1.2576376
1.2423918
1.2271472
1.2119032
1.1966594
1.1814156
1.1661718
1.1509279
1.1356839
1.1204399
1.1051958
1.0899517
1.0747077
1.0594636
1.0442195
1.0289754
1.0137313
0.99848726
0.98324318
0.9679991
0.95275502
0.93751094
0.92226686
0.90702278
0.8917787
0.87653462
0.86129054
0.84604645
0.83080237
0.81555829
0.80031421
0.78507013
0.76982605
0.75458197
0.73933789
0.72409381
0.70884973
0.69360565
0.67836157
0.66311749
0.64787341
0.63262932
0.61738524
0.60214116
0.58689708
0.571653
0.55640892
0.54116484
0.52592076
0.51067668
0.4954326
0.48018852
0.46494444
0.44970036
0.43445628
0.4192122
0.40396811
0.38872403
0.37347995
0.35823587
0.34299179
0.32774771
0.31250363
0.29725955
0.28201547
0.26677139
0.25152731
0.23628323
0.22103915
0.20579507
0.19055099
0.1753069
0.16006282
0.14481874
0.12957466
0.11433058
0.099086501
0.08384242
0.06859834
0.053354258
0.038110178
0.022866097
0.0076220259
1.5204386
1.5031646
1.4880014
1.4729243
1.4574056
1.4417382
1.4261639
1.4107028
1.3953011
1.3799286
1.3645813
1.3492597
1.3339601
1.3186774
1.3034071
1.288146
1.2728914
1.2576414
1.2423941
1.2271486
1.211904
1.1966598
1.1814158
1.1661718
1.1509279
1.1356839
1.1204398
1.1051958
1.0899517
1.0747077
1.0594636
1.0442195
1.0289754
1.0137313
0.99848726
0.98324318
0.9679991
0.95275502
0.93751094
0.92226686
0.90702278
0.8917787
0.87653462
0.86129054
0.84604645
0.83080237
0.81555829
0.80031421
0.78507013
0.76982605
0.75458197
0.73933789
0.72409381
0.70884973
0.69360565
0.67836157
0.66311749
0.64787341
0.63262932
0.61738524
0.60214116
0.58689708
0.571653
0.55640892
0.54116484
0.52592076
0.51067668
0.4954326
0.48018852
0.46494444
0.44970036
0.43445628
0.4192122
0.40396811
0.38872403
0.37347995
0.35823587
0.34299179
0.32774771
0.31250363
0.29725955
0.28201547
0.26677139
0.25152731
0.23628323
0.22103915
0.20579507
0.19055099
0.1753069
0.16006282
0.14481874
0.12957466
0.11433058
0.099086501
0.08384242
0.068598338
0.053354256
0.038110175
0.022866093
0.0076220233
1.5201048
1.502747
1.4877936
1.4729093
1.457457
1.441785
1.426199
1.4107359
1.3953341
1.3799584
1.3646059
1.3492792
1.3339756
1.3186895
1.3034162
1.2881526
1.272896
1.2576445
1.2423961
1.2271498
1.2119046
1.1966601
1.1814159
1.1661719
1.1509279
1.1356839
1.1204398
1.1051958
1.0899517
1.0747077
1.0594636
1.0442195
1.0289754
1.0137313
0.99848726
0.98324318
0.9679991
0.95275502
0.93751094
0.92226686
0.90702278
0.8917787
0.87653462
0.86129054
0.84604645
0.83080237
0.81555829
0.80031421
0.78507013
0.76982605
0.75458197
0.73933789
0.72409381
0.70884973
0.69360565
0.67836157
0.66311749
0.64787341
0.63262932
0.61738524
0.60214116
0.58689708
0.571653
0.55640892
0.54116484
0.52592076
0.51067668
0.4954326
0.48018852
0.46494444
0.44970036
0.43445628
0.4192122
0.40396811
0.38872403
0.37347995
0.35823587
0.34299179
0.32774771
0.31250363
0.29725955
0.28201547
0.26677139
0.25152731
0.23628323
0.22103915
0.20579507
0.19055099
0.1753069
0.16006282
0.14481874
0.12957466
0.11433058
0.0990865
0.083842419
0.068598337
0.053354255
0.038110174
0.02286609
0.007622022
1.5201048
1.502747
1.4877936
1.4729093
1.457457
1.441785
1.4261991
1.4107359
1.3953341
1.3799584
1.3646059
1.3492792
1.3339756
1.3186895
1.3034162
1.2881526
1.272896
1.2576445
1.2423961
1.2271498
1.2119046
1.1966601
1.1814159
1.1661719
1.1509279
1.1356839
1.1204398
1.1051958
1.0899517
1.0747077
1.0594636
1.0442195
1.0289754
1.0137313
0.99848726
0.98324318
0.9679991
0.95275502
0.93751094
0.92226686
0.90702278
0.8917787
0.87653462
0.86129054
0.84604645
0.83080237
0.81555829
0.80031421
0.78507013
0.76982605
0.75458197
0.73933789
0.72409381
0.70884973
0.69360565
0.67836157
0.66311749
0.64787341
0.63262932
0.61738524
0.60214116
0.58689708
0.571653
0.55640892
0.54116484
0.52592076
0.51067668
0.4954326
0.48018852
0.46494444
0.44970036
0.43445628
0.4192122
0.40396811
0.38872403
0.37347995
0.35823587
0.34299179
0.32774771
0.31250363
0.29725955
0.28201547
0.26677139
0.25152731
0.23628323
0.22103915
0.20579507
0.19055099
0.1753069
0.16006282
0.14481874
0.12957466
0.11433058
0.0990865
0.083842419
0.068598337
0.053354255
0.038110174
0.022866091
0.0076220221
1.5204386
1.5031646
1.4880014
1.4729243
1.4574055
1.4417382
1.4261639
1.4107028
1.3953011
1.3799286
1.3645813
1.3492596
1.3339601
1.3186774
1.3034071
1.288146
1.2728914
1.2576413
1.2423941
1.2271486
1.2119039
1.1966598
1.1814158
1.1661718
1.1509279
1.1356839
1.1204398
1.1051958
1.0899517
1.0747077
1.0594636
1.0442195
1.0289754
1.0137313
0.99848726
0.98324318
0.9679991
0.95275502
0.93751094
0.92226686
0.90702278
0.8917787
0.87653462
0.86129054
0.84604645
0.83080237
0.81555829
0.80031421
0.78507013
0.76982605
0.75458197
0.73933789
0.72409381
0.70884973
0.69360565
0.67836157
0.66311749
0.64787341
0.63262932
0.61738524
0.60214116
0.58689708
0.571653
0.55640892
0.54116484
0.52592076
0.51067668
0.4954326
0.48018852
0.46494444
0.44970036
0.43445628
0.4192122
0.40396811
0.38872403
0.37347995
0.35823587
0.34299179
0.32774771
0.31250363
0.29725955
0.28201547
0.26677139
0.25152731
0.23628323
0.22103915
0.20579507
0.19055099
0.1753069
0.16006282
0.14481874
0.12957466
0.11433058
0.0990865
0.083842419
0.068598338
0.053354256
0.038110175
0.022866093
0.0076220234
1.52104
1.5038846
1.4883353
1.4729342
1.4573164
1.4416629
1.4261091
1.4106524
1.3952522
1.3798857
1.3645469
1.349233
1.3339395
1.3186617
1.3033955
1.2881377
1.2728857
1.2576376
1.2423918
1.2271472
1.2119032
1.1966594
1.1814156
1.1661718
1.1509279
1.1356839
1.1204399
1.1051958
1.0899517
1.0747077
1.0594636
1.0442195
1.0289754
1.0137313
0.99848726
0.98324318
0.9679991
0.95275502
0.93751094
0.92226686
0.90702278
0.8917787
0.87653462
0.86129054
0.84604645
0.83080237
0.81555829
0.80031421
0.78507013
0.76982605
0.75458197
0.73933789
0.72409381
0.70884973
0.69360565
0.67836157
0.66311749
0.64787341
0.63262932
0.61738524
0.60214116
0.58689708
0.571653
0.55640892
0.54116484
0.52592076
0.51067668
0.4954326
0.48018852
0.46494444
0.44970036
0.43445628
0.4192122
0.40396811
0.38872403
0.37347995
0.35823587
0.34299179
0.32774771
0.31250363
0.29725955
0.28201547
0.26677139
0.25152731
0.23628323
0.22103915
0.20579507
0.19055099
0.1753069
0.16006282
0.14481874
0.12957466
0.11433058
0.099086501
0.08384242
0.068598339
0.053354258
0.038110178
0.022866097
0.007622026
1.521712
1.5046296
1.4886239
1.472897
1.4572032
1.441577
1.4260484
1.4106
1.395205
1.3798468
1.3645173
1.3492111
1.3339235
1.3186502
1.3033874
1.2881323
1.2728823
1.2576355
1.2423905
1.2271464
1.2119028
1.1966592
1.1814155
1.1661717
1.1509279
1.1356839
1.1204399
1.1051958
1.0899518
1.0747077
1.0594636
1.0442195
1.0289754
1.0137313
0.99848726
0.98324318
0.9679991
0.95275502
0.93751094
0.92226686
0.90702278
0.8917787
0.87653462
0.86129054
0.84604645
0.83080237
0.81555829
0.80031421
0.78507013
0.76982605
0.75458197
0.73933789
0.72409381
0.70884973
0.69360565
0.67836157
0.66311749
0.64787341
0.63262932
0.61738524
0.60214116
0.58689708
0.571653
0.55640892
0.54116484
0.52592076
0.51067668
0.4954326
0.48018852
0.46494444
0.44970036
0.43445628
0.4192122
0.40396811
0.38872403
0.37347995
0.35823587
0.34299179
0.32774771
0.31250363
0.29725955
0.28201547
0.26677139
0.25152731
0.23628323
0.22103915
0.20579507
0.19055099
0.1753069
0.16006282
0.14481874
0.12957466
0.11433058
0.099086501
0.08384242
0.06859834
0.05335426
0.038110182
0.022866102
0.0076220295
1.5221227
1.5050238
1.4886786
1.4727552
1.4570431
1.441456
1.4259585
1.4105288
1.3951488
1.3798045
1.3644868
1.3491898
1.333909
1.3186406
1.3033814
1.2881287
1.2728803
1.2576345
1.2423901
1.2271464
1.2119028
1.1966593
1.1814156
1.1661718
1.1509279
1.1356839
1.1204399
1.1051958
1.0899518
1.0747077
1.0594636
1.0442195
1.0289754
1.0137313
0.99848726
0.98324318
0.9679991
0.95275502
0.93751094
0.92226686
0.90702278
0.8917787
0.87653462
0.86129054
0.84604645
0.83080237
0.81555829
0.80031421
0.78507013
0.76982605
0.75458197
0.73933789
0.72409381
0.70884973
0.69360565
0.67836157
0.66311749
0.64787341
0.63262932
0.61738524
0.60214116
0.58689708
0.571653
0.55640892
0.54116484
0.52592076
0.51067668
0.4954326
0.48018852
0.46494444
0.44970036
0.43445628
0.4192122
0.40396811
0.38872403
0.37347995
0.35823587
0.34299179
0.32774771
0.31250363
0.29725955
0.28201547
0.26677139
0.25152731
0.23628323
0.22103915
0.20579507
0.19055099
0.1753069
0.16006282
0.14481874
0.12957466
0.11433058
0.099086501
0.083842421
0.068598341
0.053354261
0.038110183
0.022866106
0.0076220326
)
;

boundaryField
{
    top
    {
        type            zeroGradient;
    }
    inlet
    {
        type            fixedValue;
        value           uniform 1.53103;
    }
    outlet
    {
        type            fixedValue;
        value           uniform 0;
    }
    bottom
    {
        type            zeroGradient;
    }
    back
    {
        type            empty;
    }
    front
    {
        type            empty;
    }
}


// ************************************************************************* //
