/*--------------------------------*- C++ -*----------------------------------*\
| =========                 |                                                 |
| \\      /  F ield         | OpenFOAM: The Open Source CFD Toolbox           |
|  \\    /   O peration     | Version:  4.1                                   |
|   \\  /    A nd           | Web:      www.OpenFOAM.org                      |
|    \\/     M anipulation  |                                                 |
\*---------------------------------------------------------------------------*/
FoamFile
{
    version     2.0;
    format      ascii;
    class       surfaceScalarField;
    location    "5";
    object      phi;
}
// * * * * * * * * * * * * * * * * * * * * * * * * * * * * * * * * * * * * * //

dimensions      [0 3 -1 0 0 0 0];

internalField   nonuniform List<scalar> 
1890
(
0.0018437236
5.3553505e-06
0.0018286814
1.5042957e-05
0.0018133328
1.5348658e-05
0.0018017306
1.1602222e-05
0.0017936231
8.1077517e-06
0.0017877128
5.9105411e-06
0.0017831985
4.514415e-06
0.0017797418
3.4567816e-06
0.0017771403
2.6017118e-06
0.0017752072
1.9333966e-06
0.0017737832
1.4243039e-06
0.0017727508
1.0325914e-06
0.0017720241
7.268007e-07
0.0017715338
4.9038182e-07
0.0017712201
3.1374969e-07
0.0017710321
1.8799311e-07
0.0017709288
1.0334075e-07
0.001770879
4.9940579e-08
0.0017708601
1.8942274e-08
0.0017708575
2.6662135e-09
0.0017708612
-3.5618129e-09
0.0017708668
-5.4964506e-09
0.0017708719
-5.0932376e-09
0.0017708759
-3.8702494e-09
0.0017708785
-2.603567e-09
0.0017708802
-1.5901256e-09
0.0017708811
-8.8982953e-10
0.0017708816
-4.5104325e-10
0.0017708818
-2.0262099e-10
0.0017708819
-7.1975738e-11
0.0017708819
-1.1823062e-11
0.0017708819
1.1332717e-11
0.0017708819
1.6624333e-11
0.0017708818
1.6530429e-11
0.0017708818
1.2176306e-11
0.0017708818
9.8087489e-12
0.0017708818
6.0425068e-12
0.0017708818
5.066473e-12
0.0017708818
2.651228e-12
0.0017708818
2.6372461e-12
0.0017708818
1.0828405e-12
0.0017708818
1.5455641e-12
0.0017708818
3.8646747e-13
0.0017708818
9.5626916e-13
0.0017708818
6.256732e-14
0.0017708818
7.1048941e-13
0.0017708818
-1.263845e-13
0.0017708818
5.3564619e-13
0.0017708818
-2.4929587e-13
0.0017708818
4.998175e-13
0.0017708818
-3.044525e-13
0.0017708818
4.1964946e-13
0.0017708818
-3.4075248e-13
0.0017708818
4.3453505e-13
0.0017708818
-3.5539337e-13
0.0017708818
3.8294385e-13
0.0017708818
-3.7019892e-13
0.0017708818
4.1365079e-13
0.0017708818
-3.7219223e-13
0.0017708818
3.7049058e-13
0.0017708818
-3.7978549e-13
0.0017708818
4.0632645e-13
0.0017708818
-3.7786952e-13
0.0017708818
3.6618325e-13
0.0017708818
-3.8296464e-13
0.0017708818
4.040652e-13
0.0017708818
-3.7941453e-13
0.0017708818
3.6526276e-13
0.0017708818
-3.8333557e-13
0.0017708818
4.0421478e-13
0.0017708818
-3.787309e-13
0.0017708818
3.6655166e-13
0.0017708818
-3.813168e-13
0.0017708818
4.0711591e-13
0.0017708818
-3.7460278e-13
0.0017708818
3.7231072e-13
0.0017708818
-3.7341e-13
0.0017708818
4.1795815e-13
0.0017708818
-3.592413e-13
0.0017708818
3.9343354e-13
0.0017708818
-3.4450549e-13
0.0017708818
4.564674e-13
0.0017708818
-3.0651074e-13
0.0017708818
4.658729e-13
0.0017708818
-2.4468594e-13
0.0017708818
5.8408414e-13
0.0017708818
-9.0545788e-14
0.0017708818
7.2940569e-13
0.0017708818
1.8408648e-13
0.0017708818
1.2158329e-12
0.0017708818
8.764273e-13
0.0017708818
2.2603725e-12
0.0017708818
2.8984817e-12
0.0017708818
5.8142504e-12
0.0017708818
1.1432896e-11
0.0017708818
2.0572909e-11
0.0017708817
4.1157677e-11
0.0017708816
6.5549082e-11
0.0017708815
1.548095e-10
1.935304e-10
0.0041790872
6.2053699e-06
0.004172368
2.1762688e-05
0.004161822
2.589414e-05
0.0041510227
2.2401343e-05
0.0041414724
1.765843e-05
0.004133307
1.4076236e-05
0.0041264022
1.1419173e-05
0.0041206901
9.168691e-06
0.0041160937
7.1980828e-06
0.0041124827
5.5445059e-06
0.0041097051
4.2019368e-06
0.0041076199
3.117822e-06
0.0041061028
2.2439575e-06
0.004105041
1.5521283e-06
0.0041043314
1.0233083e-06
0.0041038823
6.3713175e-07
0.004103616
3.6961201e-07
0.0041034708
1.9519386e-07
0.0041034004
8.9473133e-08
0.0041033723
3.0849824e-08
0.0041033664
2.4451628e-09
0.0041033698
-8.8177506e-09
0.0041033759
-1.1107987e-08
0.0041033817
-9.5522071e-09
0.004103386
-6.9241401e-09
0.004103389
-4.4840833e-09
0.0041033908
-2.6463319e-09
0.0041033918
-1.4299677e-09
0.0041033923
-6.9800314e-10
0.0041033925
-2.9708147e-10
0.0041033926
-9.5757431e-11
0.0041033926
-8.0678524e-12
0.0041033926
2.4980813e-11
0.0041033926
3.0397992e-11
0.0041033926
2.741693e-11
0.0041033926
2.0451388e-11
0.0041033926
1.5478597e-11
0.0041033926
1.0277255e-11
0.0041033926
7.7073191e-12
0.0041033926
4.7656602e-12
0.0041033926
3.9058119e-12
0.0041033926
2.2921421e-12
0.0041033926
2.1005184e-12
0.0041033926
1.0756159e-12
0.0041033926
1.2126358e-12
0.0041033926
5.626868e-13
0.0041033926
7.1922668e-13
0.0041033926
2.391933e-13
0.0041033926
4.417113e-13
0.0041033926
1.3859046e-13
0.0041033926
2.8321041e-13
0.0041033926
-3.1877814e-15
0.0041033926
2.0266375e-13
0.0041033926
1.4303299e-15
0.0041033926
1.4818364e-13
0.0041033926
-7.3909184e-14
0.0041033926
1.2585168e-13
0.0041033926
-3.9346973e-14
0.0041033926
1.0916393e-13
0.0041033926
-9.9976554e-14
0.0041033926
1.0491871e-13
0.0041033926
-5.5775215e-14
0.0041033926
9.6381797e-14
0.0041033926
-1.0980663e-13
0.0041033926
9.7519852e-14
0.0041033926
-6.1164268e-14
0.0041033926
9.266936e-14
0.0041033926
-1.1207661e-13
0.0041033926
9.6557585e-14
0.0041033926
-6.0861318e-14
0.0041033926
9.4301467e-14
0.0041033926
-1.0893546e-13
0.0041033926
1.0152375e-13
0.0041033926
-5.3584024e-14
0.0041033926
1.0457878e-13
0.0041033926
-9.4685756e-14
0.0041033926
1.2080808e-13
0.0041033926
-2.7922357e-14
0.0041033926
1.4312995e-13
0.0041033926
-5.0801117e-14
0.0041033926
2.0369614e-13
0.0041033926
5.1746436e-14
0.0041033926
3.0015567e-13
0.0041033926
1.1403438e-13
0.0041033926
4.9700046e-13
0.0041033926
3.3260242e-13
0.0041033926
8.5297009e-13
0.0041033926
6.5633383e-13
0.0041033926
1.575889e-12
0.0041033926
1.598436e-12
0.0041033926
3.2500084e-12
0.0041033926
3.7375846e-12
0.0041033926
7.9548841e-12
0.0041033926
1.1708732e-11
0.0041033925
2.4798115e-11
0.0041033925
3.7350853e-11
0.0041033925
7.293435e-11
0.0041033924
1.0649779e-10
0.0041033924
1.9902523e-10
2.5217002e-10
0.0055501117
4.3873251e-06
0.0055538293
1.8044517e-05
0.0055560858
2.3637027e-05
0.0055563379
2.2149601e-05
0.0055553395
1.865763e-05
0.0055537048
1.5711283e-05
0.0055517795
1.3344286e-05
0.0055497906
1.1157321e-05
0.0055479015
9.0872005e-06
0.0055462112
7.2348438e-06
0.0055447655
5.6477166e-06
0.0055435763
4.307028e-06
0.0055426355
3.1846766e-06
0.0055419215
2.2660792e-06
0.0055414033
1.5415092e-06
0.0055410449
9.9545016e-07
0.0055408101
6.0445844e-07
0.0055406652
3.4009324e-07
0.005540582
1.7270653e-07
0.0055405383
7.465135e-08
0.0055405181
2.2806885e-08
0.0055405107
-1.3952383e-09
0.0055405095
-9.8147682e-09
0.0055405107
-1.0670583e-08
0.0055405125
-8.6141823e-09
0.005540514
-5.9750997e-09
0.0055405151
-3.7250687e-09
0.0055405158
-2.1173493e-09
0.0055405163
-1.0968092e-09
0.0055405165
-5.0642523e-10
0.0055405166
-1.9598837e-10
0.0055405166
-4.854106e-11
0.0055405167
1.272334e-11
0.0055405167
3.1416475e-11
0.0055405167
3.1061759e-11
0.0055405167
2.6099332e-11
0.0055405167
1.8965349e-11
0.0055405167
1.4108967e-11
0.0055405167
9.3892786e-12
0.0055405167
7.0488549e-12
0.0055405167
4.5289585e-12
0.0055405167
3.5972215e-12
0.0055405167
2.2428631e-12
0.0055405167
1.9388958e-12
0.0055405167
1.1909807e-12
0.0055405167
1.079876e-12
0.0055405167
6.4974018e-13
0.0055405167
5.8839268e-13
0.0055405167
3.8922961e-13
0.0055405167
2.9071481e-13
0.0055405167
2.4430893e-13
0.0055405167
1.2886319e-13
0.0055405167
1.7825414e-13
0.0055405167
5.3262788e-14
0.0055405167
1.1567272e-13
0.0055405167
1.3062004e-14
0.0055405167
9.5934124e-14
0.0055405167
-1.0405201e-14
0.0055405167
6.7263913e-14
0.0055405167
-2.3648685e-14
0.0055405167
6.7687362e-14
0.0055405167
-3.2290299e-14
0.0055405167
5.0332862e-14
0.0055405167
-3.6673564e-14
0.0055405167
5.7865163e-14
0.0055405167
-3.9463587e-14
0.0055405167
4.5393397e-14
0.0055405167
-3.9661084e-14
0.0055405167
5.6697842e-14
0.0055405167
-3.8823685e-14
0.0055405167
4.7977172e-14
0.0055405167
-3.4827153e-14
0.0055405167
6.4272201e-14
0.0055405167
-2.7757565e-14
0.0055405167
6.3646049e-14
0.0055405167
-1.3003876e-14
0.0055405167
9.4424842e-14
0.0055405167
1.3975862e-14
0.0055405167
1.2228408e-13
0.0055405167
6.8919567e-14
0.0055405167
1.9656872e-13
0.0055405167
1.6831429e-13
0.0055405167
2.8941508e-13
0.0055405167
4.0003023e-13
0.0055405167
4.9075145e-13
0.0055405167
7.8619966e-13
0.0055405167
8.651304e-13
0.0055405167
1.4546915e-12
0.0055405167
1.7235656e-12
0.0055405167
2.7894792e-12
0.0055405167
3.6542535e-12
0.0055405166
5.7618346e-12
0.0055405166
9.9651386e-12
0.0055405166
1.6102864e-11
0.0055405166
2.9084243e-11
0.0055405166
4.1989682e-11
0.0055405166
7.2783251e-11
0.0055405166
1.0230203e-10
0.0055405167
1.6510259e-10
2.0852544e-10
0.0062843839
2.1277109e-06
0.0062927683
9.659401e-06
0.0063030408
1.3363863e-05
0.0063121127
1.3078114e-05
0.0063193658
1.1405411e-05
0.0063251837
9.8937946e-06
0.0063298921
8.6358398e-06
0.0063336411
7.4081536e-06
0.0063365488
6.1794609e-06
0.0063387542
5.0295656e-06
0.0063403946
4.0074829e-06
0.0063415853
3.1164048e-06
0.0063424208
2.3492737e-06
0.0063429816
1.7053031e-06
0.006343338
1.1851141e-06
0.0063435496
7.8384727e-07
0.0063436645
4.8964688e-07
0.006343719
2.8566051e-07
0.006343739
1.5280549e-07
0.0063437414
7.2325811e-08
0.0063437368
2.761666e-08
0.00634373
5.4723773e-09
0.0063437241
-3.8061214e-09
0.0063437197
-6.154088e-09
0.0063437167
-5.5899678e-09
0.0063437149
-4.1246809e-09
0.0063437139
-2.6743339e-09
0.0063437134
-1.5688464e-09
0.0063437132
-8.3159943e-10
0.0063437131
-3.9475443e-10
0.0063437131
-1.5537156e-10
0.0063437131
-4.1397053e-11
0.0063437131
1.015405e-11
0.0063437131
2.3516707e-11
0.0063437131
2.6653498e-11
0.0063437131
2.0128123e-11
0.0063437131
1.7125021e-11
0.0063437131
1.0531051e-11
0.0063437131
9.2176643e-12
0.0063437131
4.8154425e-12
0.0063437131
4.9340786e-12
0.0063437131
2.0049268e-12
0.0063437131
2.902175e-12
0.0063437131
7.877285e-13
0.0063437131
1.8125701e-12
0.0063437131
1.7282214e-13
0.0063437131
1.3037036e-12
0.0063437131
-1.4320063e-13
0.0063437131
9.7362103e-13
0.0063437131
-4.2323067e-13
0.0063437131
8.7650649e-13
0.0063437131
-4.9946674e-13
0.0063437131
7.4950495e-13
0.0063437131
-6.1082543e-13
0.0063437131
7.5595733e-13
0.0063437131
-5.966223e-13
0.0063437131
6.8193625e-13
0.0063437131
-6.6294428e-13
0.0063437131
7.1782547e-13
0.0063437131
-6.2678674e-13
0.0063437131
6.5914913e-13
0.0063437131
-6.8082774e-13
0.0063437131
7.0399604e-13
0.0063437131
-6.3772707e-13
0.0063437131
6.5094335e-13
0.0063437131
-6.867584e-13
0.0063437131
7.0004545e-13
0.0063437131
-6.39896e-13
0.0063437131
6.5059781e-13
0.0063437131
-6.8522005e-13
0.0063437131
7.0369368e-13
0.0063437131
-6.3361823e-13
0.0063437131
6.6005581e-13
0.0063437131
-6.7165576e-13
0.0063437131
7.22574e-13
0.0063437131
-6.0683939e-13
0.0063437131
6.9630011e-13
0.0063437131
-6.215282e-13
0.0063437131
7.8947345e-13
0.0063437131
-5.1134767e-13
0.0063437131
8.1950581e-13
0.0063437131
-4.3828479e-13
0.0063437131
1.0194914e-12
0.0063437131
-1.4986376e-13
0.0063437131
1.2706296e-12
0.0063437131
1.8223713e-13
0.0063437131
1.8843446e-12
0.0063437131
7.8914189e-13
0.0063437131
2.9046082e-12
0.0063437131
1.9165413e-12
0.0063437131
4.9642906e-12
0.0063437131
4.9444318e-12
0.0063437131
1.1185121e-11
0.0063437131
1.417795e-11
0.0063437131
2.6132115e-11
0.0063437131
3.1494353e-11
0.0063437131
5.1499916e-11
0.0063437132
6.5948236e-11
0.0063437133
9.6019805e-11
1.1826193e-10
0.0065990094
-4.1113011e-11
0.0066086679
-2.5226338e-10
0.0066220311
-2.8318043e-10
0.0066351097
-2.555511e-11
0.0066465162
2.7256314e-10
0.0066564104
3.1090398e-10
0.0066650461
1.6517994e-10
0.006672454
5.4834392e-11
0.0066786335
3.6684022e-11
0.0066836632
3.9991824e-11
0.0066876709
2.2473792e-11
0.0066907875
-1.5123509e-11
0.006693137
-4.7108123e-11
0.0066948425
-6.3814782e-11
0.0066960278
-6.2435119e-11
0.0066968117
-4.6212542e-11
0.0066973015
-1.3218441e-11
0.0066975873
3.2080907e-11
0.0066977401
8.4028889e-11
0.0066978124
1.342335e-10
0.00669784
1.7447345e-10
0.0066978454
1.9221593e-10
0.0066978415
2.1284221e-10
0.0066978353
2.1056614e-10
0.0066978296
1.9354906e-10
0.0066978253
1.7234571e-10
0.0066978226
1.4486203e-10
0.0066978209
1.1974306e-10
0.00669782
9.348388e-11
0.0066978196
7.3318359e-11
0.0066978194
5.3853152e-11
0.0066978193
4.0889067e-11
0.0066978193
2.8447199e-11
0.0066978193
2.1377901e-11
0.0066978193
1.398232e-11
0.0066978193
1.0675017e-11
0.0066978193
6.1714712e-12
0.0066978193
5.3199224e-12
0.0066978193
2.672053e-12
0.0066978193
2.8427911e-12
0.0066978193
8.779223e-13
0.0066978194
1.6791403e-12
0.0066978194
2.6105813e-13
0.0066978194
1.1971058e-12
0.0066978194
-2.2483982e-13
0.0066978194
9.4413717e-13
0.0066978194
-2.8618725e-13
0.0066978194
8.125127e-13
0.0066978194
-5.4079765e-13
0.0066978194
7.032202e-13
0.0066978194
-4.6686772e-13
0.0066978194
6.7310701e-13
0.0066978194
-6.3933321e-13
0.0066978194
6.3181343e-13
0.0066978194
-5.1574091e-13
0.0066978194
6.383516e-13
0.0066978194
-6.6401719e-13
0.0066978194
6.1395065e-13
0.0066978194
-5.290901e-13
0.0066978194
6.2796903e-13
0.0066978194
-6.7214044e-13
0.0066978194
6.0742485e-13
0.0066978194
-5.3442313e-13
0.0066978194
6.236977e-13
0.0066978194
-6.7532548e-13
0.0066978194
6.0530668e-13
0.0066978194
-5.354723e-13
0.0066978194
6.2380899e-13
0.0066978194
-6.7386541e-13
0.0066978194
6.0836886e-13
0.0066978194
-5.304364e-13
0.0066978194
6.3136692e-13
0.0066978194
-6.6301903e-13
0.0066978194
6.2358956e-13
0.0066978194
-5.0933597e-13
0.0066978194
6.6034249e-13
0.0066978194
-6.2345298e-13
0.0066978194
6.7754947e-13
0.0066978194
-4.3562776e-13
0.0066978194
7.6080734e-13
0.0066978194
-4.8668367e-13
0.0066978194
8.6688686e-13
0.0066978194
-1.7788027e-13
0.0066978194
1.1171028e-12
0.0066978194
-8.8074365e-16
0.0066978194
1.4977572e-12
0.0066978194
6.2943133e-13
0.0066978194
2.1815754e-12
0.0066978194
1.3166052e-12
0.0066978194
3.2085508e-12
0.0066978194
2.9847694e-12
0.0066978194
5.9990996e-12
0.0066978194
7.0654883e-12
0.0066978194
1.1799424e-11
0.0066978194
1.3100585e-11
0.0066978194
1.5436097e-11
0.0066978194
1.5468044e-11
0.0066978195
1.493709e-11
0.0066978196
1.2817324e-11
1.085166e-11
0.0065990082
-2.1278014e-06
0.0066086664
-9.659444e-06
0.0066220295
-1.3363602e-05
0.0066351082
-1.3077851e-05
0.0066465148
-1.1405229e-05
0.0066564092
-9.8935845e-06
0.006665045
-8.6356237e-06
0.006672453
-7.4080067e-06
0.0066786326
-6.1793865e-06
0.0066836624
-5.0295503e-06
0.0066876702
-4.0075121e-06
0.0066907869
-3.1164876e-06
0.0066931364
-2.3493999e-06
0.0066948419
-1.7054537e-06
0.0066960272
-1.1852583e-06
0.0066968112
-7.8395032e-07
0.006697301
-4.8968335e-07
0.0066975867
-2.8560512e-07
0.0066977396
-1.5265742e-07
0.006697812
-7.20824e-08
0.0066978396
-2.7288629e-08
0.0066978451
-5.1515188e-09
0.0066978412
4.1994748e-09
0.006697835
6.5324035e-09
0.0066978294
5.9364046e-09
0.0066978252
4.4309317e-09
0.0066978224
2.9321962e-09
0.0066978208
1.7803263e-09
0.0066978199
9.9754187e-10
0.0066978195
5.2353674e-10
0.0066978193
2.5042605e-10
0.0066978193
1.1202209e-10
0.0066978193
4.0460854e-11
0.0066978193
1.2814468e-11
0.0066978193
-1.5231065e-12
0.0066978193
-2.8130605e-12
0.0066978193
-5.6949352e-12
0.0066978193
-2.4002163e-12
0.0066978193
-3.9238238e-12
0.0066978193
-1.0384306e-12
0.0066978193
-2.6158237e-12
0.0066978194
-5.8336871e-14
0.0066978194
-1.7626922e-12
0.0066978194
3.8700165e-13
0.0066978194
-1.4937376e-12
0.0066978194
8.1996441e-13
0.0066978194
-1.1936007e-12
0.0066978194
8.2319947e-13
0.0066978194
-1.2130931e-12
0.0066978194
1.0092176e-12
0.0066978194
-1.0555019e-12
0.0066978194
9.2067484e-13
0.0066978194
-1.1398787e-12
0.0066978194
1.0688339e-12
0.0066978194
-1.0060701e-12
0.0066978194
9.5979163e-13
0.0066978194
-1.1090256e-12
0.0066978194
1.0933532e-12
0.0066978194
-9.8749273e-13
0.0066978194
9.7365524e-13
0.0066978194
-1.0986738e-12
0.0066978194
1.1009739e-12
0.0066978194
-9.821002e-13
0.0066978194
9.7754599e-13
0.0066978194
-1.0956364e-12
0.0066978194
1.1035767e-12
0.0066978194
-9.7960523e-13
0.0066978194
9.8030167e-13
0.0066978194
-1.0922371e-12
0.0066978194
1.1080217e-12
0.0066978194
-9.7358808e-13
0.0066978194
9.8844435e-13
0.0066978194
-1.0812072e-12
0.0066978194
1.1230586e-12
0.0066978194
-9.5280913e-13
0.0066978194
1.0164475e-12
0.0066978194
-1.0432297e-12
0.0066978194
1.1741788e-12
0.0066978194
-8.8153406e-13
0.0066978194
1.1106334e-12
0.0066978194
-9.1336075e-13
0.0066978194
1.3449493e-12
0.0066978194
-6.3120537e-13
0.0066978194
1.4216047e-12
0.0066978194
-4.3008068e-13
0.0066978194
1.9086982e-12
0.0066978194
9.8777308e-14
0.0066978194
2.4019929e-12
0.0066978194
5.6691936e-13
0.0066978194
3.4203212e-12
0.0066978194
1.5728665e-12
0.0066978194
5.2001968e-12
0.0066978194
2.7284149e-12
0.0066978194
6.0187426e-12
0.0066978194
-1.5602628e-12
0.0066978194
-3.7018687e-12
0.0066978194
-2.2743319e-11
0.0066978195
-3.9574992e-11
0.0066978196
-7.2551343e-11
-9.8545282e-11
0.0062843792
-4.3872333e-06
0.0062927642
-1.804445e-05
0.0063030371
-2.3637261e-05
0.0063121094
-2.2149784e-05
0.0063193625
-1.8657652e-05
0.0063251807
-1.5711207e-05
0.0063298893
-1.334427e-05
0.0063336386
-1.1157341e-05
0.0063365465
-9.0872746e-06
0.0063387521
-7.2349347e-06
0.0063403926
-5.6478461e-06
0.0063415834
-4.3071741e-06
0.006342419
-3.1848389e-06
0.0063429798
-2.2662349e-06
0.0063433363
-1.5416409e-06
0.006343548
-9.9554125e-07
0.0063436629
-6.0448879e-07
0.0063437175
-3.4005469e-07
0.0063437376
-1.7257981e-07
0.0063437402
-7.4488968e-08
0.0063437357
-2.2577722e-08
0.0063437291
1.6378551e-09
0.0063437233
1.0080693e-08
0.006343719
1.092728e-08
0.0063437162
8.8545841e-09
0.0063437145
6.1820888e-09
0.0063437136
3.9028912e-09
0.0063437132
2.258063e-09
0.006343713
1.210935e-09
0.0063437129
5.901423e-10
0.006343713
2.611982e-10
0.006343713
9.2367959e-11
0.006343713
2.2218401e-11
0.006343713
-1.0079069e-11
0.0063437131
-1.3696273e-11
0.0063437131
-1.7472064e-11
0.0063437131
-1.0401516e-11
0.0063437131
-1.1129931e-11
0.0063437131
-4.9522793e-12
0.0063437131
-6.6230334e-12
0.0063437131
-1.8545726e-12
0.0063437131
-3.9726862e-12
0.0063437131
-4.3521728e-13
0.0063437131
-2.8237801e-12
0.0063437131
4.3450172e-13
0.0063437131
-2.0542247e-12
0.0063437131
9.0717566e-13
0.0063437131
-1.915991e-12
0.0063437131
1.1848026e-12
0.0063437131
-1.6011454e-12
0.0063437131
1.2755031e-12
0.0063437131
-1.6714053e-12
0.0063437131
1.3804983e-12
0.0063437131
-1.4545805e-12
0.0063437131
1.3921338e-12
0.0063437131
-1.5851617e-12
0.0063437131
1.4485316e-12
0.0063437131
-1.4031388e-12
0.0063437131
1.4308028e-12
0.0063437131
-1.5562098e-12
0.0063437131
1.4707016e-12
0.0063437131
-1.386711e-12
0.0063437131
1.4428065e-12
0.0063437131
-1.5472423e-12
0.0063437131
1.4776848e-12
0.0063437131
-1.3811821e-12
0.0063437131
1.4473826e-12
0.0063437131
-1.5430236e-12
0.0063437131
1.4820599e-12
0.0063437131
-1.3762522e-12
0.0063437131
1.4532899e-12
0.0063437131
-1.5354767e-12
0.0063437131
1.4920573e-12
0.0063437131
-1.3628774e-12
0.0063437131
1.4710406e-12
0.0063437131
-1.5114775e-12
0.0063437131
1.5245759e-12
0.0063437131
-1.3184849e-12
0.0063437131
1.529743e-12
0.0063437131
-1.4311452e-12
0.0063437131
1.6318896e-12
0.0063437131
-1.1681204e-12
0.0063437131
1.7249302e-12
0.0063437131
-1.1586785e-12
0.0063437131
1.9757447e-12
0.0063437131
-6.7909418e-13
0.0063437131
2.2646775e-12
0.0063437131
-3.6023586e-13
0.0063437131
2.7275131e-12
0.0063437131
3.4956182e-13
0.0063437131
3.2924536e-12
0.0063437131
7.0852384e-13
0.0063437131
2.0006978e-12
0.0063437131
-3.4072859e-12
0.0063437131
-9.6215999e-12
0.0063437132
-2.253421e-11
0.0063437132
-5.1189312e-11
0.0063437132
-8.3658637e-11
0.0063437133
-1.4832038e-10
-1.9332601e-10
0.0055501065
-6.2052954e-06
0.0055538243
-2.1762606e-05
0.0055560813
-2.5894352e-05
0.0055563337
-2.2401777e-05
0.0055553354
-1.7658803e-05
0.0055537009
-1.4076389e-05
0.0055517758
-1.1419192e-05
0.0055497871
-9.1686966e-06
0.0055478981
-7.198147e-06
0.005546208
-5.5446066e-06
0.0055447625
-4.2020499e-06
0.0055435735
-3.1179324e-06
0.0055426329
-2.244066e-06
0.0055419191
-1.5522294e-06
0.005541401
-1.0233906e-06
0.0055410428
-6.3718463e-07
0.0055408081
-3.6962502e-07
0.0055406634
-1.9516395e-07
0.0055405804
-8.9409329e-08
0.0055405368
-3.0752205e-08
0.0055405168
-2.3277073e-09
0.0055405096
8.9449461e-09
0.0055405086
1.1240975e-08
0.00554051
9.6798126e-09
0.0055405119
7.0422635e-09
0.0055405136
4.585633e-09
0.0055405148
2.7320433e-09
0.0055405156
1.4979206e-09
0.0055405161
7.5187506e-10
0.0055405164
3.3647431e-10
0.0055405165
1.2547715e-10
0.0055405166
2.8150232e-11
0.0055405166
-9.8887589e-12
0.0055405166
-2.1300437e-11
0.0055405166
-2.0711976e-11
0.0055405167
-1.7121757e-11
0.0055405167
-1.2488041e-11
0.0055405167
-9.4316108e-12
0.0055405167
-6.5104353e-12
0.0055405167
-4.8520467e-12
0.0055405167
-3.1167269e-12
0.0055405167
-2.6581845e-12
0.0055405167
-1.6912976e-12
0.0055405167
-1.4536858e-12
0.0055405167
-6.9688621e-13
0.0055405167
-9.1481175e-13
0.0055405167
-4.0042119e-13
0.0055405167
-5.903482e-13
0.0055405167
1.1865032e-14
0.0055405167
-4.6121521e-13
0.0055405167
-6.8829063e-15
0.0055405167
-3.4334732e-13
0.0055405167
1.862744e-13
0.0055405167
-3.0227302e-13
0.0055405167
1.048547e-13
0.0055405167
-2.5620575e-13
0.0055405167
2.5298044e-13
0.0055405167
-2.4888096e-13
0.0055405167
1.39204e-13
0.0055405167
-2.2691119e-13
0.0055405167
2.7574657e-13
0.0055405167
-2.320478e-13
0.0055405167
1.5043425e-13
0.0055405167
-2.1779553e-13
0.0055405167
2.8312323e-13
0.0055405167
-2.2643791e-13
0.0055405167
1.5458928e-13
0.0055405167
-2.1391809e-13
0.0055405167
2.8713492e-13
0.0055405167
-2.2230537e-13
0.0055405167
1.5891261e-13
0.0055405167
-2.0834465e-13
0.0055405167
2.9494745e-13
0.0055405167
-2.1239301e-13
0.0055405167
1.7101018e-13
0.0055405167
-1.9175267e-13
0.0055405167
3.1981119e-13
0.0055405167
-1.8098937e-13
0.0055405167
2.1164538e-13
0.0055405167
-1.3920007e-13
0.0055405167
4.0369037e-13
0.0055405167
-8.7488377e-14
0.0055405167
3.4560067e-13
0.0055405167
3.0098367e-14
0.0055405167
6.393315e-13
0.0055405167
2.3486344e-13
0.0055405167
6.8466648e-13
0.0055405167
5.5511529e-13
0.0055405167
1.1214973e-12
0.0055405167
9.3609988e-13
0.0055405167
1.0493017e-12
0.0055405167
5.0868247e-13
0.0055405167
-1.5945492e-12
0.0055405167
-5.6890454e-12
0.0055405167
-1.5268751e-11
0.0055405167
-2.5648953e-11
0.0055405167
-6.2170844e-11
0.0055405167
-9.7586076e-11
0.0055405167
-1.8995643e-10
-2.4285243e-10
0.0041790832
-5.3550667e-06
0.0041723639
-1.5042485e-05
0.0041618183
-1.5348439e-05
0.0041510191
-1.1602388e-05
0.0041414687
-8.1080204e-06
0.0041333033
-5.9106479e-06
0.0041263987
-4.5142926e-06
0.0041206869
-3.4566118e-06
0.0041160907
-2.601583e-06
0.0041124799
-1.9333265e-06
0.0041097026
-1.4242463e-06
0.0041076176
-1.0325498e-06
0.0041061007
-7.2677929e-07
0.0041050391
-4.9038376e-07
0.0041043297
-3.1376359e-07
0.0041038807
-1.8800064e-07
0.0041036146
-1.0333821e-07
0.0041034695
-4.9919397e-08
0.0041033992
-1.8910583e-08
0.0041033713
-2.6189971e-09
0.0041033655
3.6148081e-09
0.004103369
5.5554824e-09
0.0041033753
5.1490202e-09
0.0041033811
3.9248781e-09
0.0041033856
2.6482282e-09
0.0041033887
1.6304484e-09
0.0041033905
9.1900088e-10
0.0041033916
4.7697683e-10
0.0041033921
2.1894768e-10
0.0041033924
8.6650148e-11
0.0041033925
2.0050384e-11
0.0041033926
-3.6339567e-12
0.0041033926
-1.3839346e-11
0.0041033926
-1.2060643e-11
0.0041033926
-1.2099612e-11
0.0041033926
-7.0586775e-12
0.0041033926
-7.1430692e-12
0.0041033926
-3.1851387e-12
0.0041033926
-4.0802881e-12
0.0041033926
-1.0661788e-12
0.0041033926
-2.5267249e-12
0.0041033926
-2.3413109e-13
0.0041033926
-1.7820087e-12
0.0041033926
4.2388612e-13
0.0041033926
-1.4178057e-12
0.0041033926
6.0728162e-13
0.0041033926
-1.2376541e-12
0.0041033926
8.6414418e-13
0.0041033926
-1.1211269e-12
0.0041033926
8.3850744e-13
0.0041033926
-1.0761284e-12
0.0041033926
9.8617185e-13
0.0041033926
-1.0323984e-12
0.0041033926
9.1039461e-13
0.0041033926
-1.0241607e-12
0.0041033926
1.0266013e-12
0.0041033926
-1.0018968e-12
0.0041033926
9.3356352e-13
0.0041033926
-1.0076964e-12
0.0041033926
1.0395353e-12
0.0041033926
-9.920242e-13
0.0041033926
9.4078651e-13
0.0041033926
-1.0025579e-12
0.0041033926
1.0435205e-12
0.0041033926
-9.8891191e-13
0.0041033926
9.4315195e-13
0.0041033926
-1.0007051e-12
0.0041033926
1.0451958e-12
0.0041033926
-9.8725459e-13
0.0041033926
9.4486499e-13
0.0041033926
-9.9879849e-13
0.0041033926
1.0476204e-12
0.0041033926
-9.8404692e-13
0.0041033926
9.4896264e-13
0.0041033926
-9.9354795e-13
0.0041033926
1.0547928e-12
0.0041033926
-9.7409618e-13
0.0041033926
9.6189816e-13
0.0041033926
-9.7649748e-13
0.0041033926
1.078002e-12
0.0041033926
-9.4122229e-13
0.0041033926
1.0035214e-12
0.0041033926
-9.2026661e-13
0.0041033926
1.1501286e-12
0.0041033926
-8.4179155e-13
0.0041033926
1.1293815e-12
0.0041033926
-7.6577657e-13
0.0041033926
1.3431187e-12
0.0041033926
-5.6132962e-13
0.0041033926
1.4633362e-12
0.0041033926
-6.2776497e-13
0.0041033926
9.0475969e-13
0.0041033926
-3.2736948e-12
0.0041033926
-3.3324433e-12
0.0041033926
-1.0240707e-11
0.0041033926
-1.6745114e-11
0.0041033925
-4.0304928e-11
0.0041033925
-6.4654776e-11
0.0041033924
-1.5214061e-10
-1.9011864e-10
0.0018437225
0.0018286802
0.0018133317
0.0018017295
0.0017936217
0.0017877113
0.0017831972
0.0017797408
0.0017771395
0.0017752065
0.0017737825
0.0017727501
0.0017720235
0.0017715333
0.0017712196
0.0017710317
0.0017709284
0.0017708786
0.0017708598
0.0017708572
0.0017708609
0.0017708665
0.0017708717
0.0017708757
0.0017708784
0.0017708801
0.001770881
0.0017708815
0.0017708817
0.0017708818
0.0017708819
0.0017708819
0.0017708819
0.0017708818
0.0017708818
0.0017708818
0.0017708818
0.0017708818
0.0017708818
0.0017708818
0.0017708818
0.0017708818
0.0017708818
0.0017708818
0.0017708818
0.0017708818
0.0017708818
0.0017708818
0.0017708818
0.0017708818
0.0017708818
0.0017708818
0.0017708818
0.0017708818
0.0017708818
0.0017708818
0.0017708818
0.0017708818
0.0017708818
0.0017708818
0.0017708818
0.0017708818
0.0017708818
0.0017708818
0.0017708818
0.0017708818
0.0017708818
0.0017708818
0.0017708818
0.0017708818
0.0017708818
0.0017708818
0.0017708818
0.0017708818
0.0017708818
0.0017708818
0.0017708818
0.0017708818
0.0017708818
0.0017708818
0.0017708818
0.0017708818
0.0017708818
0.0017708818
0.0017708818
0.0017708818
0.0017708818
0.0017708818
0.0017708818
0.0017708818
0.0017708818
0.0017708818
0.0017708818
0.0017708818
0.0017708818
0.0017708818
0.0017708817
0.0017708817
0.0017708815
)
;

boundaryField
{
    top
    {
        type            calculated;
        value           uniform 0;
    }
    inlet
    {
        type            calculated;
        value           nonuniform List<scalar> 10(-0.0018490775 -0.0041799363 -0.0055482932 -0.0062821245 -0.0065968819 -0.0065968808 -0.0062821197 -0.0055482879 -0.0041799324 -0.0018490768);
    }
    outlet
    {
        type            calculated;
        value           nonuniform List<scalar> 10(0.0017708813 0.0041033923 0.0055405167 0.0063437133 0.0066978197 0.0066978197 0.0063437134 0.0055405168 0.0041033924 0.0017708813);
    }
    bottom
    {
        type            calculated;
        value           uniform 0;
    }
    back
    {
        type            empty;
        value           nonuniform 0();
    }
    front
    {
        type            empty;
        value           nonuniform 0();
    }
}


// ************************************************************************* //
