/*--------------------------------*- C++ -*----------------------------------*\
| =========                 |                                                 |
| \\      /  F ield         | OpenFOAM: The Open Source CFD Toolbox           |
|  \\    /   O peration     | Version:  4.1                                   |
|   \\  /    A nd           | Web:      www.OpenFOAM.org                      |
|    \\/     M anipulation  |                                                 |
\*---------------------------------------------------------------------------*/
FoamFile
{
    version     2.0;
    format      ascii;
    class       volVectorField;
    location    "5";
    object      U;
}
// * * * * * * * * * * * * * * * * * * * * * * * * * * * * * * * * * * * * * //

dimensions      [0 1 -1 0 0 0 0];

internalField   nonuniform List<vector> 
1000
(
(0.19133365 0.00039462026 0)
(0.19041667 0.0009647002 0)
(0.18861788 0.00089689007 0)
(0.18711449 0.00058682644 0)
(0.18609303 0.00034978353 0)
(0.18538667 0.00022732206 0)
(0.18485727 0.00016217383 0)
(0.18444829 0.00011682779 0)
(0.18413713 8.2372687e-05 0)
(0.18390508 5.7777583e-05 0)
(0.18373382 4.0764166e-05 0)
(0.18360871 2.8513892e-05 0)
(0.18351926 1.9282993e-05 0)
(0.1834576 1.2348488e-05 0)
(0.18341709 7.3595548e-06 0)
(0.18339203 3.983213e-06 0)
(0.18337764 1.8609548e-06 0)
(0.1833702 6.4955439e-07 0)
(0.18336698 4.1850736e-08 0)
(0.18336607 -2.0689364e-07 0)
(0.18336624 -2.9502601e-07 0)
(0.18336678 -2.7155153e-07 0)
(0.18336736 -2.0642595e-07 0)
(0.18336784 -1.3917278e-07 0)
(0.18336818 -8.5483546e-08 0)
(0.18336839 -4.7977655e-08 0)
(0.18336852 -2.4437948e-08 0)
(0.18336859 -1.0838624e-08 0)
(0.18336862 -3.816585e-09 0)
(0.18336864 -5.0909979e-10 0)
(0.18336864 6.6784032e-10 0)
(0.18336864 1.0642688e-09 0)
(0.18336864 9.4616192e-10 0)
(0.18336864 7.9018087e-10 0)
(0.18336864 5.3125302e-10 0)
(0.18336864 4.0974733e-10 0)
(0.18336864 2.3985713e-10 0)
(0.18336864 2.0455357e-10 0)
(0.18336864 9.690744e-11 0)
(0.18336864 1.0777748e-10 0)
(0.18336864 3.1796799e-11 0)
(0.18336864 6.690376e-11 0)
(0.18336864 1.8073776e-13 0)
(0.18336864 4.4537953e-11 0)
(0.18336864 -1.5860727e-11 0)
(0.18336864 3.7167053e-11 0)
(0.18336864 -2.1752446e-11 0)
(0.18336864 3.249956e-11 0)
(0.18336864 -2.3393728e-11 0)
(0.18336864 3.2727961e-11 0)
(0.18336864 -2.517829e-11 0)
(0.18336864 2.9565767e-11 0)
(0.18336864 -2.6390537e-11 0)
(0.18336864 3.0177174e-11 0)
(0.18336864 -2.747286e-11 0)
(0.18336864 2.7937353e-11 0)
(0.18336864 -2.774244e-11 0)
(0.18336864 2.9317706e-11 0)
(0.18336864 -2.8079384e-11 0)
(0.18336864 2.755554e-11 0)
(0.18336864 -2.800503e-11 0)
(0.18336864 2.9123105e-11 0)
(0.18336864 -2.8219773e-11 0)
(0.18336864 2.745475e-11 0)
(0.18336864 -2.8077584e-11 0)
(0.18336864 2.9072308e-11 0)
(0.18336864 -2.8251706e-11 0)
(0.18336864 2.7438616e-11 0)
(0.18336864 -2.8081228e-11 0)
(0.18336864 2.9081175e-11 0)
(0.18336864 -2.8230758e-11 0)
(0.18336864 2.7472842e-11 0)
(0.18336864 -2.8028402e-11 0)
(0.18336864 2.9156567e-11 0)
(0.18336864 -2.812889e-11 0)
(0.18336864 2.7612864e-11 0)
(0.18336864 -2.7829439e-11 0)
(0.18336864 2.9460708e-11 0)
(0.18336864 -2.7625498e-11 0)
(0.18336864 2.8368402e-11 0)
(0.18336864 -2.6490179e-11 0)
(0.18336864 3.1173687e-11 0)
(0.18336864 -2.5149044e-11 0)
(0.18336864 3.1158162e-11 0)
(0.18336864 -2.3195844e-11 0)
(0.18336864 3.4532735e-11 0)
(0.18336864 -2.0425311e-11 0)
(0.18336864 3.902427e-11 0)
(0.18336864 -6.1788233e-12 0)
(0.18336864 6.3163516e-11 0)
(0.18336864 3.8486384e-11 0)
(0.18336864 1.2596228e-10 0)
(0.18336864 1.6195272e-10 0)
(0.18336863 3.5850326e-10 0)
(0.18336863 7.0260005e-10 0)
(0.18336863 1.3306008e-09 0)
(0.18336863 2.602835e-09 0)
(0.18336863 4.3767839e-09 0)
(0.18336861 9.6673254e-09 0)
(0.18336859 1.1738722e-08 0)
(0.43253292 0.00058905829 0)
(0.43321565 0.0020148594 0)
(0.43182766 0.0023428756 0)
(0.43035004 0.0019352912 0)
(0.42925294 0.0014327684 0)
(0.42838182 0.0010747788 0)
(0.42761962 0.00083175047 0)
(0.42696184 0.00064277654 0)
(0.42642387 0.00048716854 0)
(0.42600027 0.00036315437 0)
(0.42567298 0.0002672825 0)
(0.42542436 0.00019311131 0)
(0.4252404 0.00013532844 0)
(0.42510915 9.0881407e-05 0)
(0.42501953 5.7855473e-05 0)
(0.42496137 3.4470137e-05 0)
(0.4249258 1.8834736e-05 0)
(0.42490563 9.0731283e-06 0)
(0.42489527 3.473519e-06 0)
(0.4248907 6.0295553e-07 0)
(0.42488927 -6.4822809e-07 0)
(0.42488933 -9.9845622e-07 0)
(0.42488992 -9.2315565e-07 0)
(0.42489058 -6.9980703e-07 0)
(0.42489111 -4.696235e-07 0)
(0.42489149 -2.8656462e-07 0)
(0.42489173 -1.6022734e-07 0)
(0.42489187 -8.1501837e-08 0)
(0.42489194 -3.6753601e-08 0)
(0.42489198 -1.3487723e-08 0)
(0.42489199 -2.7280276e-09 0)
(0.424892 1.5912624e-09 0)
(0.424892 2.7513024e-09 0)
(0.424892 2.6607232e-09 0)
(0.424892 2.0929479e-09 0)
(0.42489199 1.5586936e-09 0)
(0.42489199 1.073061e-09 0)
(0.42489199 7.6856368e-10 0)
(0.42489199 5.023432e-10 0)
(0.42489199 3.6984535e-10 0)
(0.42489199 2.3482279e-10 0)
(0.42489199 1.936396e-10 0)
(0.42489199 1.1158068e-10 0)
(0.42489199 1.0180239e-10 0)
(0.42489199 4.9863819e-11 0)
(0.42489199 6.2354797e-11 0)
(0.42489199 1.9985313e-11 0)
(0.42489199 3.3423842e-11 0)
(0.42489199 3.788974e-12 0)
(0.42489199 2.6205443e-11 0)
(0.42489199 -2.9415253e-12 0)
(0.42489199 1.5578573e-11 0)
(0.42489199 -6.9150554e-12 0)
(0.42489199 1.8091194e-11 0)
(0.42489199 -7.9575634e-12 0)
(0.42489199 1.1572763e-11 0)
(0.42489199 -9.753221e-12 0)
(0.42489199 1.5647866e-11 0)
(0.42489199 -9.9067491e-12 0)
(0.42489199 9.9474319e-12 0)
(0.42489199 -1.1065036e-11 0)
(0.42489199 1.4613645e-11 0)
(0.42489199 -1.0708471e-11 0)
(0.42489199 9.3356473e-12 0)
(0.42489199 -1.152136e-11 0)
(0.42489199 1.4284924e-11 0)
(0.42489199 -1.0930828e-11 0)
(0.42489199 9.2044374e-12 0)
(0.42489199 -1.1571789e-11 0)
(0.42489199 1.4312518e-11 0)
(0.42489199 -1.0822289e-11 0)
(0.42489199 9.404096e-12 0)
(0.42489199 -1.1260234e-11 0)
(0.42489199 1.4765933e-11 0)
(0.42489199 -1.0186265e-11 0)
(0.42489199 1.0281093e-11 0)
(0.42489199 -1.007684e-11 0)
(0.42489199 1.6338877e-11 0)
(0.42489199 -8.239562e-12 0)
(0.42489199 1.2866666e-11 0)
(0.42489199 -7.2735e-12 0)
(0.42489199 2.0765177e-11 0)
(0.42489199 -2.87658e-12 0)
(0.42489199 2.2760465e-11 0)
(0.42489199 5.521046e-12 0)
(0.42489199 4.3469734e-11 0)
(0.42489199 2.614395e-11 0)
(0.42489199 6.9015436e-11 0)
(0.42489199 7.3054659e-11 0)
(0.42489199 1.4623603e-10 0)
(0.42489199 1.9870819e-10 0)
(0.42489199 3.1988582e-10 0)
(0.42489199 5.4903796e-10 0)
(0.42489199 9.2044542e-10 0)
(0.42489199 1.8718794e-09 0)
(0.42489199 3.0433786e-09 0)
(0.42489198 6.0701871e-09 0)
(0.42489199 9.02463e-09 0)
(0.42489196 1.8949887e-08 0)
(0.42489198 2.4833707e-08 0)
(0.57400141 0.00048619481 0)
(0.57614961 0.0020041673 0)
(0.57577105 0.002647083 0)
(0.57528091 0.0024856079 0)
(0.57517399 0.0020761921 0)
(0.57514099 0.0017158361 0)
(0.57499989 0.0014290979 0)
(0.57478375 0.0011754442 0)
(0.57456488 0.00094326552 0)
(0.57437378 0.00073983898 0)
(0.57421191 0.00056884811 0)
(0.57407616 0.00042738376 0)
(0.5739658 0.00031136053 0)
(0.57388012 0.00021815145 0)
(0.57381671 0.00014589395 0)
(0.57377192 9.2375008e-05 0)
(0.57374181 5.4748388e-05 0)
(0.57372267 2.9810596e-05 0)
(0.5737113 1.4378978e-05 0)
(0.57370507 5.599865e-06 0)
(0.57370201 1.1501321e-06 0)
(0.57370075 -7.3852066e-07 0)
(0.57370041 -1.2758127e-06 0)
(0.57370046 -1.1948493e-06 0)
(0.57370065 -9.0484348e-07 0)
(0.57370083 -6.035687e-07 0)
(0.57370097 -3.652758e-07 0)
(0.57370106 -2.0234135e-07 0)
(0.57370112 -1.0196274e-07 0)
(0.57370115 -4.5486613e-08 0)
(0.57370117 -1.6455276e-08 0)
(0.57370118 -3.125904e-09 0)
(0.57370118 2.0570322e-09 0)
(0.57370118 3.405113e-09 0)
(0.57370118 3.2320385e-09 0)
(0.57370118 2.5634919e-09 0)
(0.57370118 1.9016557e-09 0)
(0.57370118 1.3403095e-09 0)
(0.57370118 9.4400344e-10 0)
(0.57370118 6.4777031e-10 0)
(0.57370118 4.651633e-10 0)
(0.57370118 3.2393202e-10 0)
(0.57370118 2.3958886e-10 0)
(0.57370118 1.6669947e-10 0)
(0.57370118 1.323507e-10 0)
(0.57370118 9.4314448e-11 0)
(0.57370118 7.4662552e-11 0)
(0.57370118 4.8643098e-11 0)
(0.57370118 4.3596645e-11 0)
(0.57370118 2.8350458e-11 0)
(0.57370118 2.4805745e-11 0)
(0.57370118 1.2124039e-11 0)
(0.57370118 1.6262705e-11 0)
(0.57370118 8.3681912e-12 0)
(0.57370118 1.0129453e-11 0)
(0.57370118 1.1028199e-12 0)
(0.57370118 8.2908084e-12 0)
(0.57370118 2.2619054e-12 0)
(0.57370118 5.4565812e-12 0)
(0.57370118 -2.6051493e-12 0)
(0.57370118 5.3647501e-12 0)
(0.57370118 -2.5816613e-14 0)
(0.57370118 3.6798096e-12 0)
(0.57370118 -3.9752602e-12 0)
(0.57370118 4.329199e-12 0)
(0.57370118 -7.8399863e-13 0)
(0.57370118 3.1537522e-12 0)
(0.57370118 -4.301664e-12 0)
(0.57370118 4.185514e-12 0)
(0.57370118 -7.498249e-13 0)
(0.57370118 3.3756239e-12 0)
(0.57370118 -3.8645249e-12 0)
(0.57370118 4.8814017e-12 0)
(0.57370118 2.7352799e-13 0)
(0.57370118 4.8255989e-12 0)
(0.57370118 -1.8387595e-12 0)
(0.57370118 7.6556962e-12 0)
(0.57370118 4.0690882e-12 0)
(0.57370118 9.8938545e-12 0)
(0.57370118 5.2817433e-12 0)
(0.57370118 1.7202359e-11 0)
(0.57370118 1.7320424e-11 0)
(0.57370118 2.7827839e-11 0)
(0.57370118 2.8882423e-11 0)
(0.57370118 5.0409926e-11 0)
(0.57370118 6.078067e-11 0)
(0.57370118 9.0073856e-11 0)
(0.57370118 1.0971343e-10 0)
(0.57370118 1.7336279e-10 0)
(0.57370118 2.2772599e-10 0)
(0.57370118 3.6310499e-10 0)
(0.57370118 4.8728197e-10 0)
(0.57370118 9.1713672e-10 0)
(0.57370118 1.4009285e-09 0)
(0.57370118 2.735284e-09 0)
(0.57370118 3.9970837e-09 0)
(0.57370117 7.4461545e-09 0)
(0.57370119 1.0660932e-08 0)
(0.57370115 1.8756231e-08 0)
(0.5737012 2.4507964e-08 0)
(0.64980249 0.00029609249 0)
(0.65273961 0.0013569345 0)
(0.65287857 0.0019125987 0)
(0.653045 0.0019041754 0)
(0.65378841 0.0016769895 0)
(0.65462865 0.0014520094 0)
(0.65525679 0.0012607532 0)
(0.65568395 0.0010780701 0)
(0.65600224 0.00089762179 0)
(0.65625685 0.00072880973 0)
(0.65645534 0.0005787266 0)
(0.65660115 0.00044838133 0)
(0.65670342 0.00033682585 0)
(0.65677283 0.00024367023 0)
(0.65681806 0.0001687385 0)
(0.65684574 0.00011116204 0)
(0.65686126 6.9118472e-05 0)
(0.65686895 4.0091591e-05 0)
(0.65687203 2.1273136e-05 0)
(0.65687269 9.9259655e-06 0)
(0.65687228 3.6629859e-06 0)
(0.65687153 6.0360659e-07 0)
(0.6568708 -6.2061036e-07 0)
(0.65687024 -9.205223e-07 0)
(0.65686986 -8.2083294e-07 0)
(0.65686962 -6.012216e-07 0)
(0.65686949 -3.8929577e-07 0)
(0.65686942 -2.2870896e-07 0)
(0.65686938 -1.2233006e-07 0)
(0.65686937 -5.8935622e-08 0)
(0.65686936 -2.4279507e-08 0)
(0.65686936 -7.3107047e-09 0)
(0.65686937 1.0645388e-10 0)
(0.65686937 2.5330772e-09 0)
(0.65686937 2.9992073e-09 0)
(0.65686937 2.5049337e-09 0)
(0.65686937 1.9983456e-09 0)
(0.65686937 1.3776767e-09 0)
(0.65686937 1.0494016e-09 0)
(0.65686937 6.6370822e-10 0)
(0.65686937 5.3940377e-10 0)
(0.65686937 3.0625012e-10 0)
(0.65686937 2.9379938e-10 0)
(0.65686937 1.3754668e-10 0)
(0.65686937 1.7338084e-10 0)
(0.65686937 4.9422778e-11 0)
(0.65686937 1.1098574e-10 0)
(0.65686937 8.7413516e-12 0)
(0.65686937 7.9515029e-11 0)
(0.65686937 -1.4201214e-11 0)
(0.65686937 6.2991691e-11 0)
(0.65686937 -2.4049251e-11 0)
(0.65686937 5.3580202e-11 0)
(0.65686937 -3.2914496e-11 0)
(0.65686937 4.8118052e-11 0)
(0.65686937 -3.4915097e-11 0)
(0.65686937 4.5293205e-11 0)
(0.65686937 -3.8928286e-11 0)
(0.65686937 4.3596051e-11 0)
(0.65686937 -3.8278066e-11 0)
(0.65686937 4.2740376e-11 0)
(0.65686937 -4.0894099e-11 0)
(0.65686937 4.2075307e-11 0)
(0.65686937 -3.9443586e-11 0)
(0.65686937 4.1861012e-11 0)
(0.65686937 -4.1537855e-11 0)
(0.65686937 4.1631649e-11 0)
(0.65686937 -3.9708482e-11 0)
(0.65686937 4.1763809e-11 0)
(0.65686937 -4.1467012e-11 0)
(0.65686937 4.1885474e-11 0)
(0.65686937 -3.9243998e-11 0)
(0.65686937 4.2489747e-11 0)
(0.65686937 -4.0407009e-11 0)
(0.65686937 4.338875e-11 0)
(0.65686937 -3.7167561e-11 0)
(0.65686937 4.5375482e-11 0)
(0.65686937 -3.6447505e-11 0)
(0.65686937 4.9030769e-11 0)
(0.65686937 -2.9573316e-11 0)
(0.65686937 5.6676972e-11 0)
(0.65686937 -2.1917174e-11 0)
(0.65686937 7.0532578e-11 0)
(0.65686937 -3.0254364e-12 0)
(0.65686937 9.6086127e-11 0)
(0.65686937 2.8400768e-11 0)
(0.65686937 1.4454817e-10 0)
(0.65686937 9.7718241e-11 0)
(0.65686937 2.4335899e-10 0)
(0.65686937 2.2903909e-10 0)
(0.65686937 4.4829987e-10 0)
(0.65686937 5.3426799e-10 0)
(0.65686937 1.0746455e-09 0)
(0.65686937 1.519686e-09 0)
(0.65686937 2.8082192e-09 0)
(0.65686938 3.746566e-09 0)
(0.65686937 6.3304329e-09 0)
(0.65686939 8.6823023e-09 0)
(0.65686935 1.3440277e-08 0)
(0.65686941 1.702228e-08 0)
(0.68229599 9.7384177e-05 0)
(0.68555403 0.00046936423 0)
(0.68584851 0.00068049862 0)
(0.68625871 0.00069376471 0)
(0.68739709 0.00062371333 0)
(0.68869671 0.00055044286 0)
(0.68976633 0.00048696587 0)
(0.69059149 0.00042417523 0)
(0.69126578 0.00035959497 0)
(0.69183495 0.00029706805 0)
(0.69230297 0.00023984855 0)
(0.69267131 0.00018886344 0)
(0.69295085 0.00014419491 0)
(0.6931565 0.00010607651 0)
(0.69330236 7.4778786e-05 0)
(0.69340105 5.0243675e-05 0)
(0.69346415 3.1963656e-05 0)
(0.69350192 1.9075043e-05 0)
(0.69352281 1.0523968e-05 0)
(0.69353317 5.2248617e-06 0)
(0.6935375 2.1957524e-06 0)
(0.6935387 6.2980437e-07 0)
(0.6935385 -5.4900878e-08 0)
(0.69353783 -2.821022e-07 0)
(0.69353716 -2.9599717e-07 0)
(0.69353663 -2.3155568e-07 0)
(0.69353628 -1.5500661e-07 0)
(0.69353606 -9.2406243e-08 0)
(0.69353594 -4.9308405e-08 0)
(0.69353587 -2.3051633e-08 0)
(0.69353584 -8.6081096e-09 0)
(0.69353583 -1.6095977e-09 0)
(0.69353583 1.3093596e-09 0)
(0.69353583 2.1157563e-09 0)
(0.69353583 2.0700101e-09 0)
(0.69353583 1.6649631e-09 0)
(0.69353584 1.2661896e-09 0)
(0.69353584 8.9057403e-10 0)
(0.69353584 6.549689e-10 0)
(0.69353584 4.3388487e-10 0)
(0.69353584 3.2284529e-10 1.8753985e-33)
(0.69353584 1.9917489e-10 0)
(0.69353584 1.7473978e-10 0)
(0.69353584 9.5503309e-11 0)
(0.69353584 9.2873828e-11 0)
(0.69353584 3.4864354e-11 0)
(0.69353584 6.196394e-11 0)
(0.69353584 1.1834051e-11 0)
(0.69353584 3.4965e-11 0)
(0.69353584 -7.4408283e-12 0)
(0.69353584 3.2935009e-11 0)
(0.69353584 -9.1845716e-12 0)
(0.69353584 2.1001577e-11 0)
(0.69353584 -1.7313529e-11 0)
(0.69353584 2.6280373e-11 0)
(0.69353584 -1.3874874e-11 0)
(0.69353584 1.7526251e-11 0)
(0.69353584 -1.9917717e-11 0)
(0.69353584 2.4276783e-11 0)
(0.69353584 -1.5425522e-11 0)
(0.69353584 1.630101e-11 0)
(0.69353584 -2.0894022e-11 0)
(0.69353584 2.3495852e-11 0)
(0.69353584 -1.6036747e-11 0)
(0.69353584 1.5837452e-11 0)
(0.69353584 -2.1224729e-11 0)
(0.69353584 2.328894e-11 0)
(0.69353584 -1.611968e-11 0)
(0.69353584 1.588478e-11 0)
(0.69353584 -2.103219e-11 0)
(0.69353584 2.3654212e-11 0)
(0.69353584 -1.5544381e-11 0)
(0.69353584 1.6731447e-11 0)
(0.69353584 -1.9829758e-11 0)
(0.69353584 2.533962e-11 0)
(0.69353584 -1.3236716e-11 0)
(0.69353584 1.9907435e-11 0)
(0.69353584 -1.5519875e-11 0)
(0.69353584 3.1281055e-11 0)
(0.69353584 -5.3670983e-12 0)
(0.69353584 3.0604326e-11 0)
(0.69353584 -1.0558759e-12 0)
(0.69353584 5.1591366e-11 0)
(0.69353584 2.3858386e-11 0)
(0.69353584 7.1120417e-11 0)
(0.69353584 5.7999052e-11 0)
(0.69353584 1.3009321e-10 0)
(0.69353584 1.3673621e-10 0)
(0.69353584 2.1806183e-10 0)
(0.69353584 2.5632549e-10 0)
(0.69353584 3.978624e-10 0)
(0.69353584 5.556475e-10 0)
(0.69353584 9.1597892e-10 2.9549341e-35)
(0.69353584 1.3200077e-09 0)
(0.69353584 2.0006866e-09 0)
(0.69353585 2.440991e-09 8.8648009e-36)
(0.69353584 3.4334339e-09 0)
(0.69353586 4.2183985e-09 0)
(0.69353582 5.6469472e-09 0)
(0.69353589 6.6828293e-09 0)
(0.68229588 -9.7391625e-05 0)
(0.6855539 -0.00046939936 0)
(0.68584833 -0.00068053418 0)
(0.68625852 -0.00069376697 0)
(0.68739695 -0.00062367239 0)
(0.6886966 -0.00055039214 0)
(0.68976622 -0.00048693159 0)
(0.69059138 -0.00042416072 0)
(0.69126568 -0.00035958649 0)
(0.69183486 -0.0002970612 0)
(0.6923029 -0.00023984492 0)
(0.69267124 -0.00018886717 0)
(0.69295079 -0.00014420497 0)
(0.69315644 -0.00010609023 0)
(0.6933023 -7.4792581e-05 0)
(0.69340099 -5.0253922e-05 0)
(0.6934641 -3.1967098e-05 0)
(0.69350187 -1.9069062e-05 0)
(0.69352275 -1.0507698e-05 0)
(0.69353312 -5.1984295e-06 0)
(0.69353745 -2.1609702e-06 0)
(0.69353866 -5.8876088e-07 0)
(0.69353846 9.7805058e-08 0)
(0.6935378 3.2420237e-07 0)
(0.69353714 3.347781e-07 0)
(0.69353661 2.6601444e-07 0)
(0.69353626 1.8409554e-07 0)
(0.69353605 1.1639123e-07 0)
(0.69353593 6.8161656e-08 0)
(0.69353587 3.7770617e-08 0)
(0.69353584 1.9533009e-08 0)
(0.69353583 9.8145342e-09 0)
(0.69353583 4.4550356e-09 0)
(0.69353583 2.1541385e-09 0)
(0.69353583 7.630353e-10 0)
(0.69353583 4.5863892e-10 0)
(0.69353583 1.8769179e-11 0)
(0.69353584 1.6370011e-10 0)
(0.69353584 -8.9510557e-11 0)
(0.69353584 1.2119838e-10 0)
(0.69353584 -1.1998808e-10 -1.8753985e-33)
(0.69353584 1.2213643e-10 0)
(0.69353584 -1.1272942e-10 0)
(0.69353584 1.1885996e-10 0)
(0.69353584 -1.257501e-10 0)
(0.69353584 1.226521e-10 0)
(0.69353584 -1.1209022e-10 0)
(0.69353584 1.1996247e-10 0)
(0.69353584 -1.2456085e-10 0)
(0.69353584 1.2141075e-10 0)
(0.69353584 -1.1341069e-10 0)
(0.69353584 1.1795699e-10 0)
(0.69353584 -1.2576013e-10 0)
(0.69353584 1.2072456e-10 0)
(0.69353584 -1.1345725e-10 0)
(0.69353584 1.1805808e-10 0)
(0.69353584 -1.2551052e-10 0)
(0.69353584 1.210196e-10 0)
(0.69353584 -1.1319007e-10 0)
(0.69353584 1.1825221e-10 0)
(0.69353584 -1.253743e-10 0)
(0.69353584 1.2109921e-10 0)
(0.69353584 -1.1315932e-10 0)
(0.69353584 1.1825682e-10 0)
(0.69353584 -1.2536637e-10 0)
(0.69353584 1.2113043e-10 0)
(0.69353584 -1.1308837e-10 0)
(0.69353584 1.183887e-10 0)
(0.69353584 -1.2514616e-10 0)
(0.69353584 1.2146803e-10 0)
(0.69353584 -1.1259849e-10 0)
(0.69353584 1.1908733e-10 0)
(0.69353584 -1.2416548e-10 0)
(0.69353584 1.2282703e-10 0)
(0.69353584 -1.1074699e-10 0)
(0.69353584 1.2162988e-10 0)
(0.69353584 -1.2069961e-10 0)
(0.69353584 1.2756772e-10 0)
(0.69353584 -1.0439456e-10 0)
(0.69353584 1.3038119e-10 0)
(0.69353584 -1.0893519e-10 0)
(0.69353584 1.440343e-10 0)
(0.69353584 -8.2767825e-11 0)
(0.69353584 1.6097754e-10 0)
(0.69353584 -6.9011748e-11 0)
(0.69353584 1.9968252e-10 0)
(0.69353584 -8.6702883e-12 0)
(0.69353584 2.5774952e-10 0)
(0.69353584 5.7155973e-11 0)
(0.69353584 3.5286214e-10 0)
(0.69353584 2.0502877e-10 0)
(0.69353584 5.8025369e-10 0)
(0.69353584 4.7842976e-10 -2.9549341e-35)
(0.69353584 9.2401284e-10 0)
(0.69353584 5.4631544e-10 0)
(0.69353585 5.8471363e-10 -8.8648009e-36)
(0.69353584 -3.2030471e-10 0)
(0.69353586 -1.2677849e-09 0)
(0.69353582 -3.0270105e-09 0)
(0.69353589 -4.4984238e-09 0)
(0.649802 -0.00029609378 0)
(0.65273911 -0.0013569381 0)
(0.65287816 -0.0019125992 0)
(0.65304465 -0.0019041631 0)
(0.65378809 -0.0016769681 0)
(0.65462832 -0.0014519881 0)
(0.65525648 -0.0012607416 0)
(0.65568367 -0.0010780662 0)
(0.65600199 -0.00089762298 0)
(0.65625663 -0.0007288142 0)
(0.65645513 -0.00057873569 0)
(0.65660094 -0.00044839461 0)
(0.65670323 -0.00033684218 0)
(0.65677265 -0.00024368733 0)
(0.65681788 -0.00016875381 0)
(0.65684558 -0.00011117301 0)
(0.6568611 -6.9122704e-05 0)
(0.65686879 -4.0087342e-05 0)
(0.65687188 -2.1259622e-05 0)
(0.65687255 -9.9039263e-06 0)
(0.65687216 -3.6340515e-06 0)
(0.65687143 -5.7035854e-07 0)
(0.65687071 6.5439099e-07 0)
(0.65687017 9.532377e-07 0)
(0.6568698 8.5111846e-07 0)
(0.65686958 6.2777713e-07 0)
(0.65686945 4.1186908e-07 0)
(0.65686939 2.4699753e-07 0)
(0.65686936 1.3689941e-07 0)
(0.65686936 7.0022779e-08 0)
(0.65686935 3.2717374e-08 0)
(0.65686936 1.3383635e-08 0)
(0.65686936 4.3288069e-09 0)
(0.65686936 4.5797887e-10 0)
(0.65686936 -8.2912466e-10 0)
(0.65686937 -1.1400507e-09 0)
(0.65686937 -9.6188089e-10 0)
(0.65686937 -7.7918851e-10 0)
(0.65686937 -5.299775e-10 0)
(0.65686937 -4.2692147e-10 0)
(0.65686937 -2.5370551e-10 0)
(0.65686937 -2.0760494e-10 0)
(0.65686937 -9.9646124e-11 0)
(0.65686937 -1.2106732e-10 0)
(0.65686937 -3.7968263e-11 0)
(0.65686937 -6.2935869e-11 0)
(0.65686937 -3.0373666e-12 0)
(0.65686937 -5.6587821e-11 0)
(0.65686937 5.3022818e-12 0)
(0.65686937 -3.2399324e-11 0)
(0.65686937 1.9440963e-11 0)
(0.65686937 -4.0376291e-11 0)
(0.65686937 1.6833383e-11 0)
(0.65686937 -2.3460941e-11 0)
(0.65686937 2.6323553e-11 0)
(0.65686937 -3.5101116e-11 0)
(0.65686937 2.0875686e-11 0)
(0.65686937 -2.0349798e-11 0)
(0.65686937 2.8581637e-11 0)
(0.65686937 -3.3406572e-11 0)
(0.65686937 2.2171013e-11 0)
(0.65686937 -1.9383977e-11 0)
(0.65686937 2.9268807e-11 0)
(0.65686937 -3.2896389e-11 0)
(0.65686937 2.2573402e-11 0)
(0.65686937 -1.9057838e-11 0)
(0.65686937 2.954431e-11 0)
(0.65686937 -3.2629324e-11 0)
(0.65686937 2.2869735e-11 0)
(0.65686937 -1.8708267e-11 0)
(0.65686937 2.9974458e-11 0)
(0.65686937 -3.2064024e-11 0)
(0.65686937 2.3637565e-11 0)
(0.65686937 -1.7680832e-11 0)
(0.65686937 3.1335523e-11 0)
(0.65686937 -3.0213526e-11 0)
(0.65686937 2.6184823e-11 0)
(0.65686937 -1.4257519e-11 0)
(0.65686937 3.5879294e-11 0)
(0.65686937 -2.4036073e-11 0)
(0.65686937 3.4669125e-11 0)
(0.65686937 -2.8210773e-12 0)
(0.65686937 5.1072052e-11 0)
(0.65686937 -3.0594029e-12 0)
(0.65686937 6.2870241e-11 0)
(0.65686937 3.5345314e-11 0)
(0.65686937 1.0237687e-10 0)
(0.65686937 6.4053157e-11 0)
(0.65686937 1.4383165e-10 0)
(0.65686937 1.4512584e-10 0)
(0.65686937 2.3666595e-10 0)
(0.65686937 2.5177347e-10 0)
(0.65686937 2.3798843e-10 0)
(0.65686938 1.0846675e-10 0)
(0.65686937 -6.6113797e-10 0)
(0.65686938 -1.3615089e-09 0)
(0.65686937 -3.7704137e-09 0)
(0.65686939 -6.3410732e-09 0)
(0.65686936 -1.134008e-08 0)
(0.65686942 -1.5208287e-08 0)
(0.57400087 -0.00048618722 0)
(0.57614909 -0.0020041562 0)
(0.57577053 -0.0026470996 0)
(0.57528046 -0.0024856411 0)
(0.57517358 -0.0020762221 0)
(0.57514059 -0.0017158503 0)
(0.57499949 -0.001429104 0)
(0.57478336 -0.0011754489 0)
(0.57456452 -0.00094327515 0)
(0.57437345 -0.00073985191 0)
(0.57421159 -0.00056886364 0)
(0.57407586 -0.00042739969 0)
(0.57396552 -0.00031137642 0)
(0.57387986 -0.0002181659 0)
(0.57381647 -0.00014590554 0)
(0.57377169 -9.2382552e-05 0)
(0.5737416 -5.4750546e-05 0)
(0.57372248 -2.9806952e-05 0)
(0.57371112 -1.4369521e-05 0)
(0.57370491 -5.5858116e-06 0)
(0.57370187 -1.1325654e-06 0)
(0.57370062 7.5664273e-07 0)
(0.5737003 1.2953656e-06 0)
(0.57370038 1.2135685e-06 0)
(0.57370058 9.2220637e-07 0)
(0.57370077 6.1851757e-07 0)
(0.57370093 3.7798982e-07 0)
(0.57370103 2.1240654e-07 0)
(0.5737011 1.1003479e-07 0)
(0.57370114 5.1408718e-08 0)
(0.57370116 2.1010277e-08 0)
(0.57370117 6.1790957e-09 0)
(0.57370118 2.7731449e-10 0)
(0.57370118 -2.0108128e-09 0)
(0.57370118 -2.115229e-09 0)
(0.57370118 -2.0382149e-09 0)
(0.57370118 -1.3616309e-09 0)
(0.57370118 -1.1935752e-09 0)
(0.57370118 -6.6344674e-10 0)
(0.57370118 -6.7445835e-10 0)
(0.57370118 -2.6477115e-10 0)
(0.57370118 -3.9401833e-10 0)
(0.57370118 -7.967737e-11 0)
(0.57370118 -2.6826219e-10 0)
(0.57370118 2.589757e-11 0)
(0.57370118 -1.9159517e-10 0)
(0.57370118 5.9111406e-11 0)
(0.57370118 -1.6959208e-10 0)
(0.57370118 9.3052161e-11 0)
(0.57370118 -1.4204957e-10 0)
(0.57370118 9.4991501e-11 0)
(0.57370118 -1.4174802e-10 0)
(0.57370118 1.1526993e-10 0)
(0.57370118 -1.2484415e-10 0)
(0.57370118 1.0822422e-10 0)
(0.57370118 -1.3143432e-10 0)
(0.57370118 1.2323413e-10 0)
(0.57370118 -1.1879013e-10 0)
(0.57370118 1.1292424e-10 0)
(0.57370118 -1.278592e-10 0)
(0.57370118 1.2588534e-10 0)
(0.57370118 -1.1682904e-10 0)
(0.57370118 1.1441414e-10 0)
(0.57370118 -1.2673117e-10 0)
(0.57370118 1.2673315e-10 0)
(0.57370118 -1.1617213e-10 0)
(0.57370118 1.1496164e-10 0)
(0.57370118 -1.2624507e-10 0)
(0.57370118 1.271963e-10 0)
(0.57370118 -1.1568053e-10 0)
(0.57370118 1.155431e-10 0)
(0.57370118 -1.2552333e-10 0)
(0.57370118 1.2811184e-10 0)
(0.57370118 -1.1447721e-10 0)
(0.57370118 1.1717431e-10 0)
(0.57370118 -1.2332973e-10 0)
(0.57370118 1.3101665e-10 0)
(0.57370118 -1.1056109e-10 0)
(0.57370118 1.2252697e-10 0)
(0.57370118 -1.1606844e-10 0)
(0.57370118 1.4059075e-10 0)
(0.57370118 -9.7701172e-11 0)
(0.57370118 1.3981557e-10 0)
(0.57370118 -9.3925744e-11 0)
(0.57370118 1.6935658e-10 0)
(0.57370118 -6.3932175e-11 0)
(0.57370118 1.8240534e-10 0)
(0.57370118 -4.4003112e-11 0)
(0.57370118 2.2341333e-10 0)
(0.57370118 1.4176139e-11 0)
(0.57370118 2.4327983e-10 0)
(0.57370118 5.7346452e-12 0)
(0.57370118 3.7404638e-11 0)
(0.57370118 -5.1313932e-10 0)
(0.57370118 -1.3318748e-09 0)
(0.57370118 -2.4620121e-09 0)
(0.57370118 -5.8371276e-09 0)
(0.57370119 -9.2872737e-09 0)
(0.57370116 -1.7483411e-08 0)
(0.57370121 -2.3287359e-08 0)
(0.43253251 -0.00058904112 0)
(0.43321524 -0.002014831 0)
(0.43182723 -0.0023428699 0)
(0.43034966 -0.00193532 0)
(0.42925258 -0.0014328066 0)
(0.42838146 -0.0010747987 0)
(0.42761924 -0.00083174649 0)
(0.42696149 -0.00064276457 0)
(0.42642355 -0.00048716035 0)
(0.42599997 -0.00036315206 0)
(0.42567271 -0.0002672824 0)
(0.42542411 -0.00019311215 0)
(0.42524017 -0.0001353304 0)
(0.42510894 -9.0884422e-05 0)
(0.42501935 -5.785851e-05 0)
(0.4249612 -3.4471614e-05 0)
(0.42492565 -1.8834009e-05 0)
(0.42490549 -9.0695594e-06 0)
(0.42489514 -3.468155e-06 0)
(0.42489058 -5.9532038e-07 0)
(0.42488917 6.5684521e-07 0)
(0.42488925 1.0074706e-06 0)
(0.42488985 9.3195793e-07 0)
(0.42489052 7.0814726e-07 0)
(0.42489107 4.7689651e-07 0)
(0.42489145 2.9280994e-07 0)
(0.4248917 1.6517318e-07 0)
(0.42489185 8.5484826e-08 0)
(0.42489193 3.9654103e-08 0)
(0.42489197 1.571593e-08 0)
(0.42489199 4.1844941e-09 0)
(0.42489199 -4.6151853e-10 0)
(0.424892 -2.0883712e-09 0)
(0.42489199 -2.1290688e-09 0)
(0.424892 -1.87839e-09 0)
(0.42489199 -1.3275071e-09 0)
(0.42489199 -1.0431436e-09 0)
(0.42489199 -6.5816314e-10 0)
(0.42489199 -5.5701375e-10 0)
(0.42489199 -2.9176056e-10 0)
(0.42489199 -2.9820776e-10 0)
(0.42489199 -1.2482402e-10 0)
(0.42489199 -1.9430817e-10 0)
(0.42489199 -3.5936286e-11 0)
(0.42489199 -1.2471574e-10 0)
(0.42489199 -1.9166077e-12 0)
(0.42489199 -1.0572425e-10 0)
(0.42489199 2.853306e-11 0)
(0.42489199 -7.6770283e-11 0)
(0.42489199 3.3278749e-11 0)
(0.42489199 -7.951852e-11 0)
(0.42489199 4.9316771e-11 0)
(0.42489199 -5.954445e-11 0)
(0.42489199 4.6438257e-11 0)
(0.42489199 -6.9323832e-11 0)
(0.42489199 5.7207249e-11 0)
(0.42489199 -5.3489074e-11 0)
(0.42489199 5.1021551e-11 0)
(0.42489199 -6.5702037e-11 0)
(0.42489199 5.9935047e-11 0)
(0.42489199 -5.1499547e-11 0)
(0.42489199 5.2495679e-11 0)
(0.42489199 -6.4559536e-11 0)
(0.42489199 6.0797163e-11 0)
(0.42489199 -5.0861685e-11 0)
(0.42489199 5.2990665e-11 0)
(0.42489199 -6.4141431e-11 0)
(0.42489199 6.1163051e-11 0)
(0.42489199 -5.0523241e-11 0)
(0.42489199 5.3347745e-11 0)
(0.42489199 -6.3719405e-11 0)
(0.42489199 6.1675641e-11 0)
(0.42489199 -4.9886977e-11 0)
(0.42489199 5.4190464e-11 0)
(0.42489199 -6.2572543e-11 0)
(0.42489199 6.3199224e-11 0)
(0.42489199 -4.7905391e-11 0)
(0.42489199 5.6906521e-11 0)
(0.42489199 -5.8850025e-11 0)
(0.42489199 6.8242275e-11 0)
(0.42489199 -4.1446737e-11 0)
(0.42489199 6.5751611e-11 0)
(0.42489199 -4.7549201e-11 0)
(0.42489199 8.2592463e-11 0)
(0.42489199 -2.4454648e-11 0)
(0.42489199 8.7112624e-11 0)
(0.42489199 -2.2011575e-11 0)
(0.42489199 1.1356792e-10 0)
(0.42489199 1.1676955e-11 0)
(0.42489199 1.3460416e-10 0)
(0.42489199 2.5319727e-12 0)
(0.42489199 8.0298533e-11 0)
(0.42489199 -2.8346182e-10 0)
(0.42489199 -5.2995741e-10 0)
(0.42489199 -1.4025745e-09 0)
(0.42489199 -2.3321617e-09 0)
(0.42489199 -5.5595974e-09 0)
(0.42489199 -8.6670125e-09 0)
(0.42489196 -1.8493134e-08 0)
(0.42489198 -2.4269416e-08 0)
(0.19133358 -0.00039460164 0)
(0.19041655 -0.0009646733 0)
(0.18861776 -0.00089687553 0)
(0.18711438 -0.00058683431 0)
(0.18609291 -0.0003497974 0)
(0.18538652 -0.00022732483 0)
(0.18485713 -0.00016216174 0)
(0.18444817 -0.00011681308 0)
(0.18413704 -8.2361498e-05 0)
(0.183905 -5.7770683e-05 0)
(0.18373375 -4.0758446e-05 0)
(0.18360864 -2.8509369e-05 0)
(0.1835192 -1.9280001e-05 0)
(0.18345754 -1.2347141e-05 0)
(0.18341704 -7.3590818e-06 0)
(0.18339198 -3.9825621e-06 0)
(0.18337759 -1.8599315e-06 0)
(0.18337016 -6.4774113e-07 0)
(0.18336694 -3.9785889e-08 0)
(0.18336604 2.096235e-07 0)
(0.18336621 2.9792342e-07 0)
(0.18336675 2.7447022e-07 0)
(0.18336734 2.0895898e-07 0)
(0.18336782 1.4155818e-07 0)
(0.18336816 8.7303746e-08 0)
(0.18336838 4.9571959e-08 0)
(0.18336851 2.5506303e-08 0)
(0.18336858 1.1776542e-08 0)
(0.18336862 4.337926e-09 0)
(0.18336864 1.0249355e-09 0)
(0.18336864 -4.7247955e-10 0)
(0.18336864 -7.564254e-10 0)
(0.18336864 -9.0168496e-10 0)
(0.18336864 -6.2415114e-10 0)
(0.18336864 -5.7368014e-10 0)
(0.18336864 -2.922195e-10 0)
(0.18336864 -3.1622543e-10 0)
(0.18336864 -1.1042977e-10 0)
(0.18336864 -1.8287966e-10 0)
(0.18336864 -4.772339e-12 0)
(0.18336864 -1.204844e-10 0)
(0.18336864 3.2655032e-11 0)
(0.18336864 -9.0262104e-11 0)
(0.18336864 5.9081034e-11 0)
(0.18336864 -8.05277e-11 0)
(0.18336864 5.7259906e-11 0)
(0.18336864 -7.2325559e-11 0)
(0.18336864 6.9995159e-11 0)
(0.18336864 -7.1673213e-11 0)
(0.18336864 6.2962694e-11 0)
(0.18336864 -6.7571596e-11 0)
(0.18336864 7.2697366e-11 0)
(0.18336864 -7.0362698e-11 0)
(0.18336864 6.3860614e-11 0)
(0.18336864 -6.6916909e-11 0)
(0.18336864 7.3082181e-11 0)
(0.18336864 -7.0131535e-11 0)
(0.18336864 6.4018012e-11 0)
(0.18336864 -6.6870733e-11 0)
(0.18336864 7.3112368e-11 0)
(0.18336864 -7.0095442e-11 0)
(0.18336864 6.4044475e-11 0)
(0.18336864 -6.6867437e-11 0)
(0.18336864 7.3113995e-11 0)
(0.18336864 -7.0087975e-11 0)
(0.18336864 6.4051746e-11 0)
(0.18336864 -6.6864213e-11 0)
(0.18336864 7.3120159e-11 0)
(0.18336864 -7.0075038e-11 0)
(0.18336864 6.4068565e-11 0)
(0.18336864 -6.6845378e-11 0)
(0.18336864 7.3149799e-11 0)
(0.18336864 -7.0028133e-11 0)
(0.18336864 6.412712e-11 0)
(0.18336864 -6.6778381e-11 0)
(0.18336864 7.3245468e-11 0)
(0.18336864 -6.9882724e-11 0)
(0.18336864 6.4298514e-11 0)
(0.18336864 -6.6578591e-11 0)
(0.18336864 7.3513934e-11 0)
(0.18336864 -6.9445299e-11 0)
(0.18336864 6.4788881e-11 0)
(0.18336864 -6.5837074e-11 0)
(0.18336864 7.4736921e-11 0)
(0.18336864 -6.7547603e-11 0)
(0.18336864 6.8335845e-11 0)
(0.18336864 -6.2093635e-11 0)
(0.18336864 8.1368832e-11 0)
(0.18336864 -5.7664221e-11 0)
(0.18336864 8.1834571e-11 0)
(0.18336864 -6.3775719e-11 0)
(0.18336864 3.6426762e-11 0)
(0.18336864 -2.3895322e-10 0)
(0.18336864 -2.6590789e-10 0)