/*--------------------------------*- C++ -*----------------------------------*\
  =========                 |
  \\      /  F ield         | OpenFOAM: The Open Source CFD Toolbox
   \\    /   O peration     | Website:  https://openfoam.org
    \\  /    A nd           | Version:  6
     \\/     M anipulation  |
\*---------------------------------------------------------------------------*/
FoamFile
{
    version     2.0;
    format      ascii;
    class       volVectorField;
    location    "279";
    object      UMean;
}
// * * * * * * * * * * * * * * * * * * * * * * * * * * * * * * * * * * * * * //

dimensions      [0 1 -1 0 0 0 0];

internalField   nonuniform List<vector> 
9200
(
(0.0015336427 0.0010418357 -6.0506222e-20)
(0.015319372 -0.0032499345 4.7763244e-20)
(0.041209731 -0.0077548162 -3.9533762e-20)
(0.076498572 -0.012254394 -6.243996e-20)
(0.119323 -0.016519509 1.9416822e-20)
(0.16843883 -0.020114574 3.3936897e-20)
(0.22275929 -0.022751375 -1.2697988e-20)
(0.28128063 -0.024285837 9.6030607e-21)
(0.34306433 -0.024660592 1.7616258e-20)
(0.40720563 -0.023881803 1.5569394e-21)
(0.47281008 -0.022007858 -2.254088e-20)
(0.53898495 -0.019138389 2.1674349e-20)
(0.60484233 -0.015403338 -4.2320187e-20)
(0.66951209 -0.010951845 -2.221403e-20)
(0.732163 -0.0059404583 6.2072323e-21)
(0.79202922 -0.00052345092 -2.6468978e-20)
(0.84845561 0.0051702783 2.6588809e-20)
(0.90102021 0.011184019 2.3558636e-20)
(0.9493518 0.017647394 -2.700973e-22)
(0.99078745 0.021223627 -1.6121848e-21)
(0.0058911741 -0.001771859 -1.7432243e-20)
(0.0289917 -0.010276706 4.1088372e-20)
(0.065148221 -0.016805161 2.4042444e-20)
(0.1112469 -0.021758874 -1.1937265e-19)
(0.16511951 -0.025313192 -1.3082296e-20)
(0.22526348 -0.027264675 7.5950898e-20)
(0.29032521 -0.027526053 -3.6757094e-20)
(0.35902208 -0.026140099 -8.7425617e-21)
(0.430131 -0.023220139 3.5761603e-20)
(0.50246539 -0.018931055 -4.5194636e-20)
(0.57486437 -0.013481442 -3.1831175e-20)
(0.64620013 -0.0071132023 7.5545417e-20)
(0.71539845 -8.975534e-05 4.0155205e-20)
(0.78146774 0.0073156246 -7.1373068e-20)
(0.84353249 0.01482976 1.5354287e-20)
(0.90086542 0.022184231 -3.8572534e-20)
(0.95292736 0.029129293 -1.4578792e-20)
(0.99946528 0.035506623 7.4473344e-20)
(1.040381 0.040907799 3.1683188e-20)
(1.0739257 0.042226193 -8.4786665e-20)
(0.011653386 -0.004496978 3.7320647e-20)
(0.046386294 -0.016762228 2.3701193e-21)
(0.094584734 -0.024574965 2.2613612e-20)
(0.1527806 -0.029078838 1.0091411e-21)
(0.21851032 -0.030939022 -4.162927e-20)
(0.28998799 -0.030248461 1.9330105e-20)
(0.36555891 -0.027181205 1.371121e-20)
(0.4436297 -0.022024608 -5.218419e-20)
(0.52267357 -0.015115614 5.957773e-20)
(0.60122656 -0.0068234326 1.5066274e-20)
(0.67789837 0.0024581075 -5.68751e-20)
(0.75140116 0.012324165 -1.9191484e-20)
(0.82058763 0.022375349 9.2631731e-21)
(0.88449071 0.032233917 2.454176e-20)
(0.94235802 0.041557609 -1.1872078e-20)
(0.99367422 0.050048518 2.912651e-20)
(1.038173 0.057467041 -2.1157702e-20)
(1.0758664 0.063678898 -7.2955977e-20)
(1.1069209 0.068418435 -2.42237e-20)
(1.1305163 0.069817585 5.0182586e-20)
(0.018915314 -0.006884716 2.4774983e-20)
(0.067618512 -0.022011785 5.2043324e-20)
(0.12950185 -0.030026307 2.0355707e-20)
(0.20081816 -0.032937562 1.3542783e-20)
(0.27882707 -0.031987444 1.7936787e-20)
(0.36144303 -0.027634526 -4.9300384e-20)
(0.44669441 -0.020378072 -2.6587847e-20)
(0.53267799 -0.010806879 0)
(0.61759299 0.00047291791 1.5080922e-20)
(0.69976626 0.012857652 -6.471974e-21)
(0.77768947 0.025757438 -1.0203579e-19)
(0.85006728 0.038615726 -1.631105e-20)
(0.91586432 0.050931191 6.7982769e-20)
(0.97434125 0.062276956 4.7885911e-22)
(1.0250731 0.072314573 -1.6364896e-21)
(1.0679451 0.080800742 2.2810211e-20)
(1.103129 0.087593854 -5.3629001e-21)
(1.1310569 0.092682337 -6.334418e-20)
(1.152304 0.096043782 -4.757417e-20)
(1.1668641 0.096730513 7.1003501e-20)
(0.027702411 -0.0086532517 -3.8597932e-21)
(0.092583579 -0.025275836 -4.8902308e-21)
(0.1695026 -0.032087686 5.768782e-20)
(0.25454113 -0.032075375 1.9184009e-20)
(0.34472218 -0.027139737 -3.3135148e-20)
(0.43767051 -0.018174324 1.2350021e-20)
(0.53112179 -0.0060630506 2.7346487e-21)
(0.6229196 0.0082595924 3.5066379e-20)
(0.71108744 0.023894798 5.8881146e-21)
(0.79388629 0.040005846 -1.3927605e-20)
(0.86987305 0.055835057 6.2929144e-20)
(0.93795474 0.070728129 -6.0186553e-20)
(0.99742494 0.084156866 -1.3732354e-19)
(1.047974 0.095733828 -5.7877675e-21)
(1.0896701 0.10521672 8.608964e-20)
(1.122913 0.1125019 0)
(1.1483671 0.11761338 1.0559363e-20)
(1.1668912 0.12070562 -1.5888621e-20)
(1.1794245 0.12196223 -8.9782931e-21)
(1.186539 0.12099613 2.1438489e-20)
(0.037950323 -0.0094981555 -5.2087895e-21)
(0.12092568 -0.025792779 4.4252636e-21)
(0.21380086 -0.029738446 -8.927624e-21)
(0.31263304 -0.025380935 2.8892509e-20)
(0.41428435 -0.015345349 -3.0333374e-20)
(0.51614475 -0.0010178399 -1.7459158e-20)
(0.61574049 0.01629299 3.7972916e-20)
(0.71078825 0.03529283 4.7658848e-21)
(0.79930659 0.054806584 -2.571577e-20)
(0.87969808 0.07381245 7.2434312e-20)
(0.95081198 0.091461375 3.4359766e-22)
(1.011981 0.10709867 -8.345853e-20)
(1.0630218 0.12027667 0)
(1.1041972 0.13075244 4.0802496e-20)
(1.1361452 0.1384706 5.6602569e-21)
(1.1597851 0.1435338 -7.9783697e-20)
(1.1762133 0.14616876 -2.0162683e-20)
(1.1866065 0.14670381 -1.2763535e-20)
(1.1921164 0.1454817 -1.5106421e-20)
(1.1935994 0.14244884 4.1421723e-20)
(0.049491754 -0.0091132514 -1.7299694e-20)
(0.15202173 -0.022847919 -2.8903656e-21)
(0.26123042 -0.02209873 3.0602978e-20)
(0.37333844 -0.012002564 3.7614405e-20)
(0.48516877 0.0040599994 -2.0354607e-20)
(0.59398961 0.024181723 -7.1272905e-20)
(0.69726856 0.046627553 -2.9109452e-20)
(0.79278969 0.069777223 8.1492074e-20)
(0.8787937 0.092249013 9.0941678e-21)
(0.95406472 0.11293622 -2.5597283e-20)
(1.0179708 0.13101883 1.3956716e-20)
(1.0704557 0.14596833 -4.4846655e-21)
(1.1119815 0.15753522 0)
(1.1434299 0.16571651 2.8014074e-20)
(1.1659794 0.17070792 -8.153852e-20)
(1.1809732 0.17284745 -3.2340911e-20)
(1.1897977 0.17256047 8.3085965e-20)
(1.193784 0.17032005 -4.5886733e-21)
(1.1941271 0.16656976 3.5895098e-21)
(1.1917379 0.16144154 2.7868079e-20)
(0.062050372 -0.0072184065 -3.252345e-20)
(0.1849872 -0.015845291 -8.2926368e-20)
(0.31028982 -0.0085271363 1.9534902e-21)
(0.43456598 0.0085481033 7.184998e-20)
(0.55477051 0.031266636 6.3928325e-20)
(0.66822426 0.057219451 -7.2968082e-20)
(0.77254896 0.084298212 7.2255367e-23)
(0.86583929 0.11064966 8.8398452e-20)
(0.94680862 0.13481067 5.0294775e-20)
(1.0148516 0.1557339 -5.5950218e-20)
(1.0700335 0.1727748 -9.5104892e-20)
(1.1130156 0.18566194 -3.2500107e-21)
(1.1449291 0.19444477 4.3291884e-20)
(1.16722 0.19942219 -6.7345645e-21)
(1.1814884 0.2010622 -1.3087664e-20)
(1.1893435 0.19992334 1.9989133e-20)
(1.1922898 0.19658836 4.4873996e-20)
(1.1916512 0.19161987 -4.4712281e-20)
(1.1885309 0.18549977 -1.0451703e-19)
(1.1837502 0.17845007 2.5243143e-20)
(0.075211315 -0.0035901926 -3.5521674e-20)
(0.21863767 -0.0043835053 -1.7503456e-19)
(0.35911817 0.011296723 8.4316338e-20)
(0.49389306 0.036335125 9.4900506e-20)
(0.62026694 0.065972639 5.9165343e-20)
(0.73584281 0.097378769 8.8516035e-21)
(0.83865101 0.12818883 -1.0890347e-19)
(0.92735437 0.15646895 0)
(1.0013684 0.18084538 -7.0899758e-20)
(1.06087 0.20049925 -1.5675152e-20)
(1.1067151 0.21510871 5.6167444e-20)
(1.1402883 0.22476865 1.1230028e-20)
(1.1633162 0.22989004 -4.6692818e-20)
(1.1776747 0.23108938 -5.0137239e-20)
(1.1852179 0.22908335 2.4913937e-20)
(1.1876476 0.22460034 4.5906162e-20)
(1.1864308 0.21831663 -5.6832686e-20)
(1.1827646 0.21082051 -1.0966974e-19)
(1.1775794 0.20257746 -3.0992015e-21)
(1.1715396 0.19384283 2.7529368e-20)
(0.088404596 0.0019229645 -3.8305098e-21)
(0.25149324 0.011730133 8.9180617e-20)
(0.40553279 0.037376481 -1.5209962e-20)
(0.54865272 0.071023193 -8.6709683e-20)
(0.67875602 0.10743073 4.6251679e-20)
(0.79398544 0.14350147 4.9889158e-20)
(0.89303777 0.17680071 5.6841454e-21)
(0.97537109 0.20551974 -1.0197038e-19)
(1.0412683 0.22857373 -2.5697389e-21)
(1.0917709 0.24554199 5.1794962e-20)
(1.1285172 0.25654772 6.1264127e-21)
(1.1535272 0.26211858 -2.0232825e-20)
(1.1689766 0.2630393 -7.738496e-20)
(1.1769964 0.26021252 -6.3327919e-21)
(1.1795207 0.25454393 4.4387323e-20)
(1.1781949 0.2468603 3.7710883e-20)
(1.1743382 0.23786223 2.0072604e-20)
(1.1689546 0.22810648 -5.4198746e-20)
(1.1627746 0.21800334 1.2914854e-20)
(1.1562919 0.20781236 8.3959015e-20)
(-0.0013176623 0.0014490365 -9.2652415e-22)
(-0.0047582313 0.0031907982 1.9312705e-21)
(-0.010789663 0.0041091354 1.5492719e-21)
(-0.01769177 0.0044733054 -1.4917473e-21)
(-0.024530294 0.0044540203 -2.0746863e-21)
(-0.030876469 0.0041667496 2.2071187e-21)
(-0.036457775 0.0036956717 -7.9306551e-21)
(-0.041098413 0.0031017371 -6.8509708e-21)
(-0.044702177 0.0024283534 1.2451593e-20)
(-0.047226952 0.0017061604 -1.0739539e-20)
(-0.048664577 0.00095653717 -2.0191727e-22)
(-0.049028028 0.00019415341 4.0138833e-21)
(-0.048342954 -0.00057110134 -6.6492526e-22)
(-0.046641898 -0.0013325859 2.4548857e-20)
(-0.04396068 -0.0020855254 2.818835e-22)
(-0.04033788 -0.0028255436 -4.369956e-20)
(-0.035817221 -0.0035480477 8.1078079e-21)
(-0.030439308 -0.0042509745 2.5299753e-20)
(-0.024214143 -0.0049328437 -4.6391643e-20)
(-0.017203655 -0.0055448078 -2.9268107e-20)
(-0.0016764657 0.0042192665 -5.6024536e-21)
(-0.0053948966 0.0092686962 1.0051494e-20)
(-0.011192016 0.011915991 -1.0418973e-20)
(-0.017513461 0.012944075 5.18393e-21)
(-0.023523185 0.012851396 6.1886208e-21)
(-0.028843303 0.011976858 8.5984623e-22)
(-0.03323679 0.010567649 -2.6113468e-20)
(-0.036553598 0.0088026697 -2.2397565e-21)
(-0.038714938 0.0068093076 2.2332553e-20)
(-0.039689991 0.0046774556 -5.5427605e-21)
(-0.039477605 0.0024697946 -2.3747197e-20)
(-0.038094719 0.00022928043 5.3050291e-21)
(-0.035568756 -0.0020152109 2.4239561e-20)
(-0.031932303 -0.0042443895 1.1062859e-20)
(-0.027219336 -0.0064444839 2.3488867e-20)
(-0.021465681 -0.0086031105 -2.1066445e-20)
(-0.014718828 -0.010707408 -2.2962369e-20)
(-0.0070295291 -0.012750804 2.2599559e-20)
(0.0016650536 -0.014718669 2.8221543e-20)
(0.011555312 -0.016443204 1.6485802e-20)
(-0.0023250595 0.0066093386 -4.5489375e-21)
(-0.0065030351 0.014451573 -5.0563812e-21)
(-0.011773856 0.018524334 1.2269334e-22)
(-0.016903804 0.020046061 2.0614255e-22)
(-0.021245431 0.019798603 7.3216435e-21)
(-0.02451888 0.018319741 1.1556906e-20)
(-0.026556015 0.016002555 -4.2233236e-21)
(-0.027256866 0.013131667 -2.0717788e-20)
(-0.026576692 0.0099100189 7.1815822e-21)
(-0.024507103 0.0064810096 1.4036457e-20)
(-0.02106136 0.0029447051 6.4501996e-21)
(-0.01626526 -0.00063034899 1.943944e-20)
(-0.010151166 -0.0041982845 1.8564183e-21)
(-0.0027536804 -0.0077289263 -3.6024431e-20)
(0.0058941401 -0.011201143 1.4590901e-21)
(0.015759261 -0.014596319 -2.3148813e-20)
(0.026785691 -0.01789702 -2.6166197e-20)
(0.038899539 -0.021094531 4.8664204e-20)
(0.052285523 -0.024135617 2.6943739e-20)
(0.067627878 -0.02665595 3.8867911e-22)
(-0.0031417275 0.0084096638 -5.6214145e-21)
(-0.0078015097 0.018241112 -1.0508027e-20)
(-0.012178098 0.023264179 4.4505819e-21)
(-0.015477119 0.025014518 4.5418845e-21)
(-0.0173117 0.024488996 2.0886826e-21)
(-0.017539373 0.022385876 8.3216831e-21)
(-0.016089921 0.01921715 1.0373566e-20)
(-0.012935535 0.015353766 -1.5421637e-21)
(-0.0080816443 0.011060792 -1.2523626e-20)
(-0.0015542387 0.0065259619 -3.1509269e-20)
(0.0066098331 0.0018804608 1.3670829e-22)
(0.016367993 -0.0027858071 4.362432e-20)
(0.027676337 -0.0074131741 -1.9430046e-20)
(0.040491199 -0.011962831 -1.3086515e-20)
(0.054773271 -0.016408779 3.6528846e-22)
(0.070485888 -0.020730186 3.429598e-20)
(0.087558845 -0.024912454 -1.6042403e-20)
(0.10587715 -0.02895439 -5.6084419e-20)
(0.12575401 -0.03273921 4.7805951e-20)
(0.1485795 -0.03558531 3.4628865e-20)
(-0.0039634516 0.0094768052 -5.1925623e-22)
(-0.0089056124 0.020284133 -1.3091155e-20)
(-0.011905722 0.025651318 -3.7288496e-20)
(-0.012683374 0.027291496 -6.6792108e-21)
(-0.011161195 0.026333654 -3.4319572e-21)
(-0.0073634243 0.023588863 6.9824797e-21)
(-0.0013410672 0.019654019 -5.2459415e-21)
(0.0068423265 0.014961582 -9.6738297e-21)
(0.017115578 0.0098212006 2.3626562e-20)
(0.029404865 0.0044525688 5.3452558e-21)
(0.043637989 -0.00099034769 -2.7358829e-20)
(0.059744352 -0.0064019175 1.1707857e-20)
(0.077655416 -0.011712096 0)
(0.097305259 -0.016876617 1.2818902e-20)
(0.11863366 -0.021868185 -1.0261018e-20)
(0.14158528 -0.026668941 -1.5242472e-20)
(0.16606254 -0.031277421 -1.1643585e-21)
(0.19188719 -0.035720688 -2.5121639e-21)
(0.21946108 -0.039815856 4.7689516e-20)
(0.25103042 -0.042422187 -1.1547247e-20)
(-0.0046036729 0.0097427972 -7.7360364e-21)
(-0.0093607143 0.020398315 2.6053019e-20)
(-0.010348436 0.0254275 -1.1509988e-20)
(-0.007832282 0.026578614 -2.9360999e-20)
(-0.0020701579 0.025025062 -2.8955575e-20)
(0.0067279457 0.021638877 -1.6034508e-20)
(0.018372501 0.017063522 -8.4857777e-22)
(0.032692254 0.01176398 5.9869033e-21)
(0.049535447 0.0060738678 2.0929023e-20)
(0.068766093 0.00023076904 7.8412833e-21)
(0.090259026 -0.0055987146 -7.5971249e-21)
(0.11389741 -0.011300288 -1.9706334e-21)
(0.13956899 -0.016798747 -4.0507604e-20)
(0.16716345 -0.022048279 -1.3420328e-20)
(0.19657416 -0.02702417 2.0085147e-20)
(0.22769935 -0.031716888 -2.2345623e-20)
(0.26039091 -0.036148747 -9.4430007e-21)
(0.29438206 -0.040403854 3.1539342e-20)
(0.33008925 -0.044268325 5.2325879e-20)
(0.37066773 -0.046029534 3.5607684e-21)
(-0.0048680582 0.009211924 1.718582e-20)
(-0.0086748113 0.018574843 1.4849737e-20)
(-0.0068241351 0.022575829 5.3672808e-20)
(-0.00012541718 0.02286689 2.4917369e-20)
(0.010821852 0.020580665 1.9617615e-22)
(0.025611839 0.016597648 -4.21132e-20)
(0.043904341 0.011568042 -2.580264e-20)
(0.06540764 0.0059596596 1.1128066e-20)
(0.08987132 0.00010749661 1.5289966e-20)
(0.11707593 -0.0057500586 -1.3792124e-20)
(0.14682186 -0.011446322 -4.6761594e-20)
(0.17892035 -0.016868182 3.1422107e-20)
(0.21318598 -0.021943074 2.101373e-20)
(0.24943096 -0.026630107 -2.9073996e-20)
(0.28746499 -0.030913293 1.2364305e-20)
(0.32709906 -0.034798258 2.5397816e-20)
(0.36809868 -0.038341155 8.5566516e-21)
(0.41008166 -0.041714431 -1.2619875e-20)
(0.45338923 -0.044751542 -1.4447268e-20)
(0.50201513 -0.045147898 7.0525133e-21)
(-0.0045653467 0.0079490292 1.1512475e-20)
(-0.0063452939 0.014961869 -2.4812658e-20)
(-0.0006122511 0.017310768 8.5210074e-21)
(0.011303763 0.016436958 3.5444352e-20)
(0.028468537 0.013353138 5.4592105e-20)
(0.050277094 0.0088985338 2.13825e-20)
(0.076229056 0.00369188 -6.1689313e-21)
(0.10589372 -0.0018281836 -1.2963015e-20)
(0.1389012 -0.007349495 -6.5970769e-21)
(0.17492278 -0.012652132 3.6199833e-20)
(0.21365231 -0.017585471 -4.9011803e-21)
(0.25479216 -0.022051311 -1.7672524e-20)
(0.29804219 -0.025991961 -2.0671248e-20)
(0.34309187 -0.029382821 -5.0023549e-20)
(0.38961922 -0.032227681 2.4366529e-20)
(0.43729874 -0.034558637 -1.4782097e-20)
(0.48576881 -0.036479028 2.7365407e-20)
(0.53451659 -0.038285113 2.2124415e-20)
(0.58373939 -0.039981375 -8.8307678e-20)
(0.63807672 -0.038833111 1.9367381e-22)
(-0.0035143935 0.0060657465 2.2554674e-20)
(-0.0018845282 0.009842295 -2.7433484e-20)
(0.0090005409 0.010061139 -4.6729202e-20)
(0.027322229 0.0078525744 -2.8477155e-20)
(0.051826452 0.0040380424 -2.1449425e-21)
(0.081704308 -0.00063204588 1.3767832e-20)
(0.11628159 -0.0056090753 -2.9878836e-21)
(0.15496935 -0.010515039 1.9027282e-20)
(0.19724961 -0.01508766 9.303603e-21)
(0.24264828 -0.019148788 -1.1971821e-20)
(0.29071038 -0.022584686 9.4598589e-21)
(0.34098214 -0.025331222 -2.5182825e-20)
(0.39299809 -0.027363261 8.690201e-21)
(0.44627267 -0.02868807 1.7659042e-20)
(0.50029905 -0.029341362 -2.9109729e-21)
(0.55455916 -0.029389254 1.8393868e-21)
(0.60850778 -0.028982906 -5.0833712e-22)
(0.66147814 -0.028526341 2.0675302e-20)
(0.71348828 -0.028219699 4.0034462e-21)
(0.76958682 -0.025408329 -1.7247277e-21)
(-0.0015449512 0.0037093092 2.4541366e-20)
(0.0051604213 0.0036196133 5.9625051e-20)
(0.022666788 0.0014681697 -5.0914605e-20)
(0.048701535 -0.0020200141 -1.0364398e-20)
(0.081703876 -0.0062867978 2.116988e-20)
(0.1206566 -0.010717318 2.2360448e-21)
(0.16469553 -0.01487289 -3.1138366e-20)
(0.21304593 -0.01847254 7.3153446e-21)
(0.26500486 -0.021336868 7.435331e-21)
(0.31990918 -0.023360367 -2.7540249e-20)
(0.37710815 -0.024495817 1.3538228e-21)
(0.43594608 -0.024741584 -3.9111698e-20)
(0.49575279 -0.02413127 -3.825292e-20)
(0.55584028 -0.022725408 6.9156832e-20)
(0.61550534 -0.020604181 5.8530874e-21)
(0.67403638 -0.017866542 -1.5952767e-20)
(0.73069828 -0.014671145 2.0295013e-20)
(0.78465854 -0.011322754 -9.5458512e-22)
(0.83545563 -0.0078444764 2.0812047e-20)
(0.88679221 -0.0027074712 -2.0898138e-20)
(-0.008864131 -0.0058278451 6.1518853e-20)
(0.0009256126 -0.0063515532 1.6380739e-20)
(0.01213168 -0.0067718054 -3.649681e-20)
(0.024399066 -0.0070186974 1.7570957e-20)
(0.037452386 -0.0071754701 0)
(0.051227038 -0.0072708707 0)
(0.065659893 -0.0073078178 -2.3627309e-20)
(0.080667337 -0.0072942989 -1.6872684e-20)
(0.096174696 -0.0072400452 1.9639385e-20)
(0.11211864 -0.0071521625 1.855487e-20)
(0.1284408 -0.0070360786 1.0430746e-21)
(0.1450862 -0.0068965679 -1.0394405e-20)
(0.16200362 -0.00673779 8.5147986e-21)
(0.17914518 -0.0065632711 1.8251935e-20)
(0.1964658 -0.0063760293 -5.3645525e-21)
(0.21392279 -0.0061786843 -1.0102191e-20)
(0.23147563 -0.0059735221 -4.2703909e-21)
(0.24908585 -0.0057625479 -4.30745e-21)
(0.26671686 -0.0055475322 7.0468999e-22)
(0.28433391 -0.0053300467 1.2154974e-21)
(0.30190405 -0.0051114924 2.5762682e-21)
(0.31939616 -0.0048931205 6.519047e-21)
(0.33678096 -0.0046760482 1.6548676e-22)
(0.35403103 -0.0044612708 -3.3694216e-21)
(0.3711209 -0.0042496709 1.348117e-22)
(0.38802704 -0.0040420251 -5.5952749e-22)
(0.40472792 -0.0038390102 1.201401e-21)
(0.42120402 -0.0036412078 9.8702959e-22)
(0.43743783 -0.00344911 -1.2927543e-21)
(0.45341386 -0.0032631233 -1.0477794e-22)
(0.46911858 -0.0030835745 -2.6373662e-23)
(0.48454044 -0.0029107157 -3.339219e-22)
(0.49966979 -0.0027447304 -4.0924213e-22)
(0.5144988 -0.0025857393 8.3254364e-23)
(0.52902145 -0.0024338072 -1.2952605e-22)
(0.54323344 -0.0022889495 -2.0256304e-22)
(0.55713214 -0.0021511396 2.3077359e-22)
(0.57071655 -0.002020316 2.6250856e-22)
(0.5839872 -0.0018963919 -2.7626558e-23)
(0.5969465 -0.0017792595 -1.6174338e-22)
(0.60959762 -0.0016688185 1.8905191e-23)
(0.6219485 -0.0015649321 -2.8018155e-23)
(0.63400007 -0.0014676408 8.2254144e-23)
(0.64578376 -0.0013765807 -8.3553696e-24)
(0.65725138 -0.0012930143 -1.3000177e-22)
(0.66860708 -0.001213749 3.3442068e-24)
(0.67934386 -0.0011508798 4.9772608e-24)
(0.69106016 -0.0010720673 -4.9303847e-24)
(0.69939032 -0.0010858552 2.6608424e-23)
(0.7166578 -0.0009143705 3.6944001e-22)
(0.021123898 -0.017156505 -1.3712219e-20)
(0.029962505 -0.018745713 -6.6120389e-20)
(0.040696161 -0.019980475 -3.2147872e-20)
(0.052459765 -0.020684253 4.0118281e-20)
(0.064863378 -0.021134576 1.5240171e-20)
(0.077922333 -0.021414852 -1.9042623e-20)
(0.091605426 -0.021525864 5.0755181e-21)
(0.10583202 -0.02148961 2.6058912e-20)
(0.12053486 -0.021335067 -1.2101459e-22)
(0.13566015 -0.021082635 -7.9016885e-21)
(0.15115661 -0.020747618 -1.2932145e-20)
(0.16697461 -0.020343691 -8.7931252e-21)
(0.18306741 -0.019882862 1.7890985e-20)
(0.19939094 -0.019375322 9.4422741e-21)
(0.2159032 -0.018829813 -1.6288668e-20)
(0.23256397 -0.01825396 -6.0143955e-21)
(0.24933478 -0.017654445 3.1302369e-21)
(0.2661788 -0.017037154 8.183618e-21)
(0.28306078 -0.016407301 6.941885e-21)
(0.29994704 -0.015769536 -7.0462937e-21)
(0.3168055 -0.015128013 -3.3278137e-21)
(0.33360572 -0.014486456 1.5193325e-21)
(0.35031894 -0.0138482 5.9720791e-22)
(0.36691816 -0.01321622 1.2360889e-21)
(0.38337818 -0.012593164 2.2539933e-22)
(0.39967567 -0.011981364 -3.6213139e-22)
(0.41578917 -0.01138286 -7.4219143e-22)
(0.43169918 -0.010799407 1.0462986e-21)
(0.44738811 -0.010232496 8.5883377e-22)
(0.46284033 -0.0096833618 -2.4374078e-22)
(0.47804213 -0.0091530028 5.8561862e-22)
(0.49298168 -0.0086421939 -2.2678442e-22)
(0.507649 -0.0081515052 -4.0249292e-22)
(0.52203591 -0.0076813195 -6.1847965e-22)
(0.53613599 -0.007231852 4.146412e-22)
(0.54994449 -0.0068031703 -8.9603124e-23)
(0.5634583 -0.0063952159 2.0731349e-22)
(0.57667592 -0.0060078258 -4.603936e-22)
(0.58959736 -0.0056407612 4.3048285e-22)
(0.60222449 -0.0052937188 6.1850361e-23)
(0.61455991 -0.0049664187 -6.8082981e-23)
(0.62661099 -0.0046584697 2.0588682e-22)
(0.63837814 -0.0043700116 2.7573132e-22)
(0.64989198 -0.0040999717 2.0742156e-22)
(0.66110443 -0.00385214 2.186139e-22)
(0.67221671 -0.0036169961 -1.940409e-23)
(0.68272802 -0.003430632 1.1141591e-22)
(0.69421434 -0.0031966717 9.8543577e-23)
(0.70237315 -0.0032381707 -2.0218941e-22)
(0.71933445 -0.0027290489 -1.5484088e-23)
(0.079447708 -0.027457764 1.0108101e-20)
(0.086400244 -0.030122019 3.7411639e-21)
(0.0960862 -0.032116104 -1.3449814e-20)
(0.10680784 -0.03319742 -1.555775e-21)
(0.11789201 -0.033901993 1.584165e-20)
(0.12951017 -0.034362923 -1.5441033e-20)
(0.14170158 -0.034559612 -3.1097198e-20)
(0.15438762 -0.034522264 1.5174047e-20)
(0.16751218 -0.034298372 1.8894461e-20)
(0.18103914 -0.03391952 -1.1997781e-20)
(0.19493007 -0.033408393 1.0391817e-21)
(0.20914453 -0.032785824 8.4740759e-21)
(0.22364359 -0.032070473 -1.5650137e-20)
(0.23838974 -0.031278234 3.5959008e-21)
(0.25334623 -0.03042281 7.7403195e-21)
(0.26847708 -0.029516254 -4.0272e-22)
(0.28374721 -0.028569224 -2.0592207e-24)
(0.29912254 -0.02759118 -7.5887913e-21)
(0.31457 -0.02659057 4.3082704e-21)
(0.33005768 -0.02557497 8.6209902e-21)
(0.34555487 -0.0245512 -3.8827737e-21)
(0.3610322 -0.023525401 -2.1800141e-21)
(0.37646175 -0.0225031 9.116224e-22)
(0.3918171 -0.021489255 -1.7619508e-21)
(0.40707346 -0.020488289 1.3188293e-21)
(0.42220772 -0.01950412 6.9831596e-22)
(0.43719852 -0.018540185 1.7413108e-21)
(0.45202627 -0.017599457 -2.1254172e-21)
(0.46667322 -0.016684471 2.4129857e-21)
(0.48112339 -0.015797346 5.8254359e-22)
(0.49536267 -0.014939803 5.6917106e-22)
(0.50937869 -0.0141132 3.0552592e-22)
(0.52316087 -0.01331855 9.8620741e-22)
(0.53670033 -0.012556559 -1.51832e-21)
(0.54998988 -0.011827652 4.2022281e-22)
(0.56302393 -0.01113201 1.9694681e-22)
(0.57579848 -0.010469604 -7.21172e-23)
(0.5883111 -0.0098402292 3.0480384e-23)
(0.60056081 -0.0092435531 -3.9482534e-22)
(0.61254848 -0.0086791358 2.1485039e-22)
(0.62427569 -0.0081465735 -3.0888585e-23)
(0.6357487 -0.0076452752 5.1020776e-22)
(0.64696699 -0.0071755288 -2.3751206e-22)
(0.65795966 -0.0067356086 3.9567002e-23)
(0.6686788 -0.0063318286 6.8006039e-23)
(0.67932021 -0.0059485226 -8.9237755e-23)
(0.68939478 -0.0056451633 -1.4936648e-22)
(0.7004355 -0.0052633674 4.8670111e-22)
(0.70826176 -0.0053327478 1.796264e-22)
(0.72462931 -0.0045020052 -8.4782448e-22)
(0.16329461 -0.036003524 1.7540233e-21)
(0.16744885 -0.039726044 -1.1761761e-20)
(0.17536846 -0.042398276 6.6036747e-21)
(0.18444418 -0.04376455 -1.3924697e-20)
(0.19351765 -0.044687462 -2.0590978e-21)
(0.2029634 -0.045339801 9.8110006e-21)
(0.21293927 -0.045656496 -1.0681719e-20)
(0.22336535 -0.045666603 1.2112716e-21)
(0.23419358 -0.045433628 1.327599e-20)
(0.24541066 -0.044997723 3.7410228e-21)
(0.25699497 -0.044385757 -6.3432835e-21)
(0.26891686 -0.043623097 -3.1489561e-21)
(0.28114643 -0.042733251 -5.6002758e-21)
(0.29365386 -0.041736517 -6.7199949e-21)
(0.30640849 -0.040650555 2.8729047e-21)
(0.31937909 -0.039491084 3.9792506e-22)
(0.33253438 -0.038272198 1.5305652e-21)
(0.34584325 -0.037006563 -3.3826591e-21)
(0.35927498 -0.035705613 -4.5135939e-21)
(0.37279946 -0.034379704 2.4888186e-21)
(0.38638738 -0.033038237 3.456503e-21)
(0.40001043 -0.031689744 -1.7832323e-21)
(0.4136414 -0.030341954 1.6651497e-21)
(0.42725439 -0.02900184 -4.8727836e-22)
(0.44082489 -0.027675661 -4.2262861e-21)
(0.45432987 -0.026368987 -3.0549827e-21)
(0.46774787 -0.025086731 -2.7324339e-22)
(0.48105906 -0.023833169 3.3491111e-22)
(0.49424528 -0.022611972 -2.2064671e-21)
(0.50729002 -0.021426231 -1.0263717e-21)
(0.52017849 -0.020278491 2.1829264e-22)
(0.53289757 -0.019170782 -1.3669329e-21)
(0.54543576 -0.018104663 -4.9659034e-23)
(0.55778322 -0.017081258 -4.9341813e-22)
(0.56993167 -0.016101299 -4.4555773e-22)
(0.58187438 -0.015165176 -6.5732882e-22)
(0.59360612 -0.014272983 -1.0148274e-21)
(0.6051232 -0.013424567 -2.0427189e-23)
(0.61642332 -0.012619595 -3.5785306e-24)
(0.62750598 -0.011857579 -5.9785585e-22)
(0.63837137 -0.011138077 -3.168693e-23)
(0.6490243 -0.010460382 -4.0525797e-22)
(0.65946295 -0.0098250015 -5.8563152e-22)
(0.66971438 -0.0092296484 4.7121155e-22)
(0.67973099 -0.0086831328 1.3912196e-23)
(0.68970088 -0.0081639775 2.3183904e-22)
(0.6991518 -0.0077539191 -1.6980713e-22)
(0.70955498 -0.0072361516 -3.3102107e-22)
(0.71690552 -0.0073333459 -2.1609276e-23)
(0.73242062 -0.0062070812 4.8103634e-22)
(0.2687453 -0.042004133 -2.2547e-20)
(0.26919341 -0.04675816 4.9496728e-20)
(0.27447348 -0.050015787 1.0658409e-20)
(0.28120131 -0.051600082 -1.6509781e-20)
(0.28756016 -0.052741499 -2.406248e-21)
(0.2941141 -0.053629734 2.4184857e-21)
(0.30118731 -0.054138474 -2.0154099e-21)
(0.30869994 -0.054285217 -4.8361122e-21)
(0.31660059 -0.054142487 -4.1383742e-21)
(0.32489763 -0.053755749 -1.2546323e-20)
(0.33358773 -0.053153643 1.872546e-20)
(0.34265133 -0.052363382 6.9231392e-21)
(0.35206608 -0.051411159 -1.7077715e-20)
(0.3618088 -0.050320311 1.002727e-20)
(0.37185407 -0.049111516 8.0352038e-21)
(0.38217462 -0.047803474 -4.6706773e-22)
(0.3927421 -0.046413244 -2.8597721e-21)
(0.40352765 -0.044956418 -4.196044e-21)
(0.41450224 -0.043447268 -1.5616749e-21)
(0.42563695 -0.04189888 -1.3806794e-21)
(0.4369033 -0.040323251 -3.3100791e-21)
(0.44827347 -0.038731369 0)
(0.45972057 -0.03713326 -1.4692474e-21)
(0.47121873 -0.035538033 3.979133e-21)
(0.48274332 -0.03395391 5.6438705e-21)
(0.49427103 -0.032388254 -9.1417605e-22)
(0.50577996 -0.030847593 -3.2315358e-21)
(0.51724971 -0.029337653 3.3895407e-21)
(0.5286614 -0.02786338 7.795218e-23)
(0.53999772 -0.02642898 3.7204036e-21)
(0.55124295 -0.025037959 -5.1201724e-22)
(0.5623829 -0.02369316 1.7876738e-21)
(0.57340498 -0.022396815 -8.8955605e-22)
(0.58429809 -0.021150598 3.927625e-22)
(0.59505266 -0.019955678 -5.2128793e-22)
(0.60566059 -0.018812777 5.8092927e-22)
(0.61611522 -0.017722235 5.2389538e-22)
(0.62641135 -0.016684068 4.4002427e-22)
(0.63654515 -0.015698056 -1.0875895e-21)
(0.64651453 -0.014763774 7.7757492e-22)
(0.6563181 -0.013880847 -4.1066524e-22)
(0.66595897 -0.013048558 -1.3193085e-21)
(0.67543385 -0.012267717 1.6840257e-21)
(0.68476738 -0.011535593 -5.6314438e-23)
(0.69391249 -0.010863438 -1.9119867e-22)
(0.7030477 -0.01022442 -7.1906578e-24)
(0.71172228 -0.0097209899 -1.8298848e-22)
(0.72132929 -0.0090828273 -5.7025521e-22)
(0.72808649 -0.0092074963 8.023898e-22)
(0.74253123 -0.0078201773 -4.9041963e-23)
(0.39085813 -0.044510499 -1.8907794e-20)
(0.38673485 -0.050324787 1.3166244e-20)
(0.38840297 -0.054117666 3.6688136e-21)
(0.39199682 -0.055943837 -8.023113e-21)
(0.39496765 -0.057384411 1.2593127e-20)
(0.39797541 -0.058607816 8.1231681e-21)
(0.40153586 -0.059430855 -1.2842143e-20)
(0.40558614 -0.059856148 -6.2831716e-21)
(0.410056 -0.059952379 1.3105483e-20)
(0.41496339 -0.059764127 -1.6289724e-20)
(0.42032067 -0.059320594 -1.4413045e-20)
(0.4261163 -0.05864938 1.5045539e-20)
(0.43233191 -0.057777547 6.9755831e-21)
(0.4389477 -0.056730302 -4.9947537e-21)
(0.4459411 -0.055530781 -1.4518015e-21)
(0.45328678 -0.054200351 -3.6954472e-21)
(0.46095759 -0.05275888 4.9220876e-21)
(0.4689254 -0.05122487 3.6837974e-21)
(0.47716151 -0.049615527 -3.1510228e-21)
(0.48563708 -0.047946826 3.1267716e-21)
(0.49432345 -0.046233565 2.9197514e-21)
(0.50319247 -0.044489415 -3.3453432e-21)
(0.51221671 -0.04272694 3.6784893e-22)
(0.52136971 -0.040957625 -3.2025673e-21)
(0.53062608 -0.039191896 7.976008e-21)
(0.5399617 -0.03743914 6.4442271e-21)
(0.54935374 -0.035707729 9.9841645e-22)
(0.55878081 -0.034005047 -1.8257916e-21)
(0.56822295 -0.032337522 4.1630714e-21)
(0.57766172 -0.03071067 7.8981445e-21)
(0.58708015 -0.029129138 2.3816685e-21)
(0.59646279 -0.027596758 3.634769e-21)
(0.60579567 -0.026116604 2.1143819e-21)
(0.61506631 -0.024691058 8.3370298e-22)
(0.62426365 -0.023321876 -2.4948295e-22)
(0.63337809 -0.022010257 3.019574e-21)
(0.64240141 -0.020756926 6.8132206e-22)
(0.65132681 -0.019562201 3.1446456e-22)
(0.66014883 -0.018426105 5.6875151e-23)
(0.66886372 -0.017348395 1.167314e-21)
(0.67746844 -0.016328882 4.3336897e-23)
(0.6859643 -0.015366944 5.4889835e-22)
(0.69434653 -0.01446379 -1.2652225e-22)
(0.70263712 -0.013616366 -3.7345585e-22)
(0.71078989 -0.012838291 -1.8958584e-22)
(0.71897227 -0.012097918 -5.2060466e-22)
(0.72675899 -0.011516525 2.2042398e-22)
(0.73545154 -0.010776174 -1.5407274e-22)
(0.74152889 -0.010927721 -4.5852177e-22)
(0.75473487 -0.0093198873 2.7422424e-22)
(0.52355567 -0.042600168 3.4868748e-21)
(0.51421244 -0.049513364 -1.9263902e-20)
(0.51132849 -0.053847127 -2.5273375e-21)
(0.51101052 -0.056100901 5.6576253e-21)
(0.51006111 -0.058062457 3.4767097e-21)
(0.50904535 -0.059808482 4.622013e-22)
(0.50863959 -0.061129849 6.9752567e-21)
(0.50884089 -0.062030117 8.0445817e-21)
(0.50955723 -0.062563867 1.0057218e-20)
(0.51079349 -0.062765991 -1.1734389e-20)
(0.51256737 -0.062664625 -2.2652949e-20)
(0.51487237 -0.062287858 -4.3908979e-21)
(0.51769036 -0.061663184 1.6630904e-20)
(0.52100071 -0.060817282 1.3282336e-20)
(0.52478037 -0.059775782 -5.7798317e-21)
(0.52900348 -0.058563012 1.0025802e-21)
(0.53364207 -0.057202006 -4.0807315e-21)
(0.53866696 -0.055714571 2.9201947e-21)
(0.54404834 -0.054121268 -2.9297739e-22)
(0.54975617 -0.052441392 -1.9478937e-21)
(0.55576054 -0.050692968 8.363367e-21)
(0.56203199 -0.048892755 -4.502772e-22)
(0.56854178 -0.047056245 5.6427448e-22)
(0.57526206 -0.045197667 -5.0141051e-22)
(0.58216609 -0.043329993 -4.4700865e-21)
(0.58922831 -0.041464952 4.3646693e-21)
(0.5964245 -0.039613055 1.8562914e-21)
(0.6037318 -0.037783619 -3.4167978e-21)
(0.61112883 -0.035984809 -4.0869408e-21)