/*--------------------------------*- C++ -*----------------------------------*\
  =========                 |
  \\      /  F ield         | OpenFOAM: The Open Source CFD Toolbox
   \\    /   O peration     | Website:  https://openfoam.org
    \\  /    A nd           | Version:  6
     \\/     M anipulation  |
\*---------------------------------------------------------------------------*/
FoamFile
{
    version     2.0;
    format      ascii;
    class       volVectorField;
    location    "173";
    object      U_0;
}
// * * * * * * * * * * * * * * * * * * * * * * * * * * * * * * * * * * * * * //

dimensions      [0 1 -1 0 0 0 0];

internalField   nonuniform List<vector> 
9200
(
(0.001039349 0.0014199808 -5.9201865e-20)
(0.01367608 -0.0020583733 4.6042552e-20)
(0.038313195 -0.0058665797 -3.8501757e-20)
(0.072274486 -0.0097635221 -6.0257766e-20)
(0.11376481 -0.013490051 1.8826977e-20)
(0.16158099 -0.016605686 3.2743895e-20)
(0.21467161 -0.018817318 -1.2268017e-20)
(0.27206624 -0.019973929 9.2688685e-21)
(0.33285642 -0.020011267 1.6803432e-20)
(0.3961637 -0.018929101 1.4848079e-21)
(0.46111582 -0.016779871 -2.1456347e-20)
(0.52683716 -0.013657792 2.0670015e-20)
(0.592451 -0.009688064 -4.0422169e-20)
(0.65709165 -0.0050158478 -2.1133914e-20)
(0.71992508 0.00020548413 5.9046559e-21)
(0.78017539 0.0058240113 -2.513169e-20)
(0.83717098 0.011712722 2.521713e-20)
(0.89046915 0.017918413 2.224321e-20)
(0.9396711 0.024573304 -2.9929484e-22)
(0.98205225 0.028293265 -1.669185e-21)
(0.0052521853 -0.0013462756 -1.705936e-20)
(0.026962521 -0.0089890357 3.9747722e-20)
(0.061670155 -0.014809779 2.3576312e-20)
(0.10629495 -0.019172289 -1.156976e-19)
(0.15873575 -0.022214021 -1.2727096e-20)
(0.21753364 -0.023720715 7.32971e-20)
(0.28137311 -0.02359513 -3.5476415e-20)
(0.3490062 -0.021869003 -8.3905602e-21)
(0.41923942 -0.018645566 3.4287557e-20)
(0.49090969 -0.014080887 -4.3259601e-20)
(0.5628726 -0.0083760016 -3.0338498e-20)
(0.63400878 -0.0017666501 7.1921476e-20)
(0.70324363 0.0054883334 3.8294071e-20)
(0.76957617 0.013118565 -6.79766e-20)
(0.83211282 0.020852008 1.4623701e-20)
(0.89010074 0.028419622 -3.6733426e-20)
(0.94296954 0.035569582 -1.3777202e-20)
(0.99043267 0.042140784 7.0974831e-20)
(1.0323564 0.047715196 2.9642015e-20)
(1.0669351 0.049139567 -8.3478366e-20)
(0.010858434 -0.0040424194 3.6773474e-20)
(0.04395344 -0.015431088 2.504743e-21)
(0.090515487 -0.0225523 2.2341733e-20)
(0.14711148 -0.026497382 9.8116844e-22)
(0.21134266 -0.027886325 -4.0773964e-20)
(0.28146782 -0.026795146 1.8576407e-20)
(0.35587058 -0.023382764 1.3420307e-20)
(0.43299029 -0.017921576 -5.0327727e-20)
(0.51132502 -0.010735694 5.7261888e-20)
(0.58942641 -0.0021839282 1.4256697e-20)
(0.66590946 0.0073478527 -5.4300742e-20)
(0.73948068 0.017460205 -1.8237415e-20)
(0.80897632 0.027756497 9.0591622e-21)
(0.87340299 0.037859198 2.3444753e-20)
(0.93197398 0.047423961 -1.1362514e-20)
(0.98413403 0.05614888 2.7877748e-20)
(1.0295743 0.06378907 -2.0188254e-20)
(1.0682649 0.070204277 -7.0123646e-20)
(1.1003325 0.075119251 -2.3796294e-20)
(1.1249115 0.0766411 4.8659857e-20)
(0.017957225 -0.0064221677 2.4508028e-20)
(0.064777031 -0.020694813 5.103924e-20)
(0.12485235 -0.028060867 1.9881698e-20)
(0.19446976 -0.03046409 1.2990091e-20)
(0.27094945 -0.02909487 1.7275706e-20)
(0.35224896 -0.024389011 -4.7720192e-20)
(0.43643159 -0.016826008 -2.5646869e-20)
(0.52162032 -0.0069767088 0)
(0.60602922 0.0045669898 1.392063e-20)
(0.68798736 0.017211685 -5.8523469e-21)
(0.76597549 0.03037387 -9.7935001e-20)
(0.8386748 0.043499574 -1.5774824e-20)
(0.9050156 0.05608655 6.5103241e-20)
(0.96421604 0.06770406 4.8442422e-22)
(1.0158038 0.07800763 -1.5725577e-21)
(1.0596158 0.086746697 2.195751e-20)
(1.0957776 0.093772122 -5.2647242e-21)
(1.1246803 0.099065216 -6.1029779e-20)
(1.146865 0.10259695 -4.5851269e-20)
(1.162296 0.10341372 6.9520557e-20)
(0.026579434 -0.0082056929 -3.9194255e-21)
(0.089344065 -0.02403352 -5.1256463e-21)
(0.16430762 -0.030265008 5.6599426e-20)
(0.24758131 -0.029810043 1.8539327e-20)
(0.33624176 -0.024513054 -3.195508e-20)
(0.42795145 -0.015239889 1.2163844e-20)
(0.52047285 -0.0028513943 2.6402877e-21)
(0.61166384 0.011737061 3.360919e-20)
(0.6995474 0.027640104 5.6599536e-21)
(0.78236868 0.044028727 -1.3204749e-20)
(0.85865438 0.060147676 6.0154076e-20)
(0.92726944 0.075340416 -5.8009389e-20)
(0.98745709 0.089072797 -1.3216621e-19)
(1.0388534 0.10094895 -5.5773072e-21)
(1.0814728 0.110717 8.3150829e-20)
(1.1156658 0.11826395 0)
(1.1420551 0.12360572 1.0118966e-20)
(1.1614671 0.12689044 -1.5459782e-20)
(1.1748182 0.12829858 -8.5994665e-21)
(1.1826675 0.12744902 2.0992241e-20)
(0.036666926 -0.0090895845 -5.430924e-21)
(0.11731516 -0.024685371 4.3578758e-21)
(0.20811878 -0.028140196 -8.7629869e-21)
(0.30515716 -0.023414975 2.8472407e-20)
(0.40533557 -0.013075614 -2.9392681e-20)
(0.50607169 0.0015225914 -1.6927033e-20)
(0.60490515 0.019095115 3.7364243e-20)
(0.69954987 0.038365227 4.7595456e-21)
(0.78800422 0.058167614 -2.4436074e-20)
(0.86863437 0.077482968 6.9867595e-20)
(0.94024005 0.095458599 5.2393739e-22)
(1.0020959 0.11143151 -8.0444365e-20)
(1.0539572 0.12494284 0)
(1.0960276 0.13573743 3.9542143e-20)
(1.1288925 0.14374835 5.523604e-21)
(1.1534281 0.14906884 -7.7566453e-20)
(1.1706993 0.15191903 -1.9586935e-20)
(1.1818626 0.15262357 -1.246764e-20)
(1.1880594 0.15152593 -1.4709397e-20)
(1.1901462 0.1485848 4.0420545e-20)
(0.04805889 -0.0087674095 -1.727797e-20)
(0.14808317 -0.021932005 -2.2198154e-21)
(0.25514081 -0.020797849 3.0380519e-20)
(0.36546399 -0.010412809 3.7484319e-20)
(0.4759044 0.005901572 -1.9944743e-20)
(0.58374289 0.02626929 -6.9163071e-20)
(0.68644212 0.048977192 -2.7995814e-20)
(0.78176232 0.072417769 7.8929245e-20)
(0.86790226 0.095212454 8.577819e-21)
(0.94358947 0.11624958 -2.4873494e-20)
(1.0081261 0.13469823 1.364222e-20)
(1.0613873 0.1500155 -4.3194513e-21)
(1.1037696 0.16193653 0)
(1.1360977 0.17044421 2.7203501e-20)
(1.1595049 0.17572301 -7.9322466e-20)
(1.1753023 0.1781036 -3.1475549e-20)
(1.1848572 0.17800803 8.1054629e-20)
(1.1894923 0.17590934 -4.2969892e-21)
(1.1904031 0.17225546 3.5561087e-21)
(1.1885082 0.16719285 2.7111587e-20)
(0.060485276 -0.0069573674 -3.2414634e-20)
(0.1807778 -0.01517039 -8.1624359e-20)
(0.30388941 -0.007583537 2.5797682e-21)
(0.42642573 0.0097033471 7.0161869e-20)
(0.5453517 0.032631545 6.2424413e-20)
(0.65798125 0.058820035 -7.1574539e-20)
(0.7619091 0.086176498 -2.8274425e-22)
(0.8551832 0.1128523 8.5522579e-20)
(0.93645376 0.13737836 4.8828088e-20)
(1.0050418 0.15869367 -5.4218431e-20)
(1.0609359 0.1761356 -9.2334266e-20)
(1.1047245 0.1894135 -3.1589846e-21)
(1.1374762 0.19855938 4.2127895e-20)
(1.1605876 0.2038585 -6.605631e-21)
(1.175625 0.20577012 -1.2868793e-20)
(1.1841779 0.2048491 1.9690818e-20)
(1.1877429 0.20167887 4.3880645e-20)
(1.1876455 0.19682577 -4.3859457e-20)
(1.1849955 0.19077872 -1.0232208e-19)
(1.1806252 0.18377368 2.4566897e-20)
(0.073537244 -0.0034329753 -3.4979765e-20)
(0.21422696 -0.0039890304 -1.7388625e-19)
(0.3525167 0.011839372 8.210334e-20)
(0.48562816 0.037018336 9.2767607e-20)
(0.61085401 0.066835553 5.7970594e-20)
(0.72576752 0.09848118 8.6107128e-21)
(0.8283483 0.12959696 -1.062401e-19)
(0.91719026 0.15824268 0)
(0.99162773 0.18302813 -6.8748608e-20)
(1.0517524 0.20311204 -1.5202413e-20)
(1.0983386 0.21814857 5.4703496e-20)
(1.132701 0.22821078 1.0973383e-20)
(1.1565112 0.23369255 -4.5613883e-20)
(1.171607 0.2351994 -4.9081392e-20)
(1.1798206 0.23344328 2.4287698e-20)
(1.1828452 0.22915315 4.4822921e-20)
(1.182149 0.22300977 -5.5600443e-20)
(1.1789362 0.21560812 -1.0751128e-19)
(1.174147 0.20742213 -3.151362e-21)
(1.1684569 0.19871869 2.7046416e-20)
(0.086650478 0.0019613863 -3.5448946e-21)
(0.24696028 0.011816635 8.7913331e-20)
(0.39884754 0.037492314 -1.6479253e-20)
(0.54040484 0.071218391 -8.4309269e-20)
(0.66949925 0.10778894 4.5164399e-20)
(0.78421978 0.14411545 4.9175426e-20)
(0.88318967 0.17775669 5.5356782e-21)
(0.96577898 0.2068849 -9.9502481e-20)
(1.0321766 0.23038802 -2.5048784e-21)
(1.0833331 0.24781552 5.0503559e-20)
(1.1208072 0.25926298 5.9854765e-21)
(1.146556 0.26523616 -1.9717233e-20)
(1.162711 0.26650528 -7.5704685e-20)
(1.1713767 0.26396616 -6.2554026e-21)
(1.1744764 0.25852422 4.3533381e-20)
(1.173655 0.25101081 3.7022034e-20)
(1.1702385 0.24213386 1.979345e-20)
(1.1652404 0.23245866 -5.2994878e-20)
(1.1594016 0.22240408 1.295745e-20)
(1.1532253 0.21223789 8.265914e-20)
(-0.0012932621 0.0014346606 -1.1234419e-21)
(-0.0047459626 0.0031874163 2.0646978e-21)
(-0.010771364 0.0041359059 8.7951197e-22)
(-0.017754295 0.0045395378 -2.4411068e-21)
(-0.024740328 0.0045654183 -1.4114845e-21)
(-0.031299606 0.00432604 1.545996e-21)
(-0.037161342 0.0039035392 -6.8700902e-21)
(-0.042147458 0.0033577224 -5.9573008e-21)
(-0.046157792 0.0027313814 1.1172007e-20)
(-0.049146206 0.0020548303 -9.7427572e-21)
(-0.051100669 0.0013492996 -1.9832762e-22)
(-0.052030457 0.00062942054 3.6673502e-21)
(-0.051957749 -9.489144e-05 -6.3295519e-22)
(-0.05091189 -0.00081693296 2.2818764e-20)
(-0.048925782 -0.0015318479 3.0400971e-22)
(-0.046035341 -0.0022351779 -4.0882911e-20)
(-0.042281792 -0.0029222726 7.538571e-21)
(-0.037703431 -0.0035910438 2.3864133e-20)
(-0.032308676 -0.0042399926 -4.3852419e-20)
(-0.026156937 -0.0048211199 -2.7739233e-20)
(-0.0016522007 0.0041808684 -5.3716081e-21)
(-0.0053974835 0.0092681424 1.0865444e-20)
(-0.011218514 0.012007449 -1.0191554e-20)
(-0.017658033 0.013153769 3.9229805e-21)
(-0.023856442 0.013195418 4.81215e-21)
(-0.029433328 0.012462728 7.1324258e-22)
(-0.034152332 0.011197017 -2.250951e-20)
(-0.03786039 0.0095738986 -2.0370265e-21)
(-0.04047431 0.0077189877 2.0163559e-20)
(-0.041958932 0.0057212294 -5.0473645e-21)
(-0.042308958 0.003642862 -2.176261e-20)
(-0.041537342 0.0015267086 4.8973213e-21)
(-0.039667714 -0.00059831129 2.2635439e-20)
(-0.036729078 -0.0027127686 1.03084e-20)
(-0.032752025 -0.0048026986 2.1854306e-20)
(-0.027769156 -0.0068555199 -1.9770746e-20)
(-0.021824773 -0.0088582331 -2.1672963e-20)
(-0.014966241 -0.01080424 2.1184639e-20)
(-0.0071289792 -0.012679019 2.681039e-20)
(0.0018743437 -0.014317243 1.5854779e-20)
(-0.0023034302 0.0065602358 -4.3568718e-21)
(-0.0065392265 0.014480202 -5.6387571e-21)
(-0.011892136 0.018710551 3.0723937e-22)
(-0.017211105 0.020428188 1.0959868e-21)
(-0.021819149 0.02040033 6.6918448e-21)
(-0.025431048 0.019151671 1.0665175e-20)
(-0.027877238 0.017066291 -3.7227672e-21)
(-0.029053274 0.014423785 -1.8896178e-20)
(-0.028909039 0.011424352 6.5413225e-21)
(-0.027431049 0.0082099023 1.2862581e-20)
(-0.024627709 0.0048797707 5.8340896e-21)
(-0.020520098 0.0015022306 1.8159121e-20)
(-0.015135969 -0.0018768741 1.7295929e-21)
(-0.008505375 -0.0052272615 -3.3864557e-20)
(-0.0006568608 -0.0085276269 1.2020191e-21)
(0.0083810584 -0.011759129 -2.2139228e-20)
(0.018556919 -0.01490412 -2.4466326e-20)
(0.029802244 -0.017953779 4.5819753e-20)
(0.04230504 -0.020855147 2.5349372e-20)
(0.056738661 -0.0232478 1.2239486e-22)
(-0.0031290289 0.0083689738 -5.2833099e-21)
(-0.0078964018 0.01833652 -8.4815329e-21)
(-0.01243899 0.023587818 4.3593063e-21)
(-0.016026539 0.025609667 4.1463472e-21)
(-0.018235027 0.025382753 2.0105711e-21)
(-0.018912653 0.023589327 7.3210024e-21)
(-0.017984716 0.020730276 9.312486e-21)
(-0.015416705 0.017170378 -1.3511381e-21)
(-0.011207038 0.013171311 -1.1481957e-20)
(-0.005375218 0.0089189258 -2.9071899e-20)
(0.0020481337 0.0045434279 6.1891559e-23)
(0.011026538 0.00013429797 4.0697852e-20)
(0.021522264 -0.0042489679 -1.8383186e-20)
(0.0334979 -0.0085676059 -1.2296097e-20)
(0.046920572 -0.012795571 5.5348926e-22)
(0.061760168 -0.016911885 3.230267e-20)
(0.077953101 -0.020901704 -1.4829557e-20)
(0.095392367 -0.024763415 -5.3339227e-20)
(0.11439857 -0.028379762 4.5765045e-20)
(0.13634552 -0.031073143 3.3013197e-20)
(-0.0039704111 0.0094657362 -6.8788968e-22)
(-0.0090916609 0.0204878 -1.2534745e-20)
(-0.012364474 0.026159096 -3.4144551e-20)
(-0.013552541 0.028143347 -5.7241681e-21)
(-0.012533238 0.027555014 -3.6222707e-21)
(-0.0093167191 0.025188069 6.3051088e-21)
(-0.003945634 0.021627413 -4.6462031e-21)
(0.0035261458 0.017298958 -8.8070385e-21)
(0.013036847 0.012508746 2.1899726e-20)
(0.024521277 0.0074744324 5.0567128e-21)
(0.037915585 0.0023488893 -2.5290308e-20)
(0.053157505 -0.0027628035 1.1078286e-20)
(0.070186941 -0.0077908989 0)
(0.08894667 -0.012691333 1.2089584e-20)
(0.10938555 -0.017436954 -9.7016244e-21)
(0.13145754 -0.022009937 -1.433713e-20)
(0.15507421 -0.026408692 -1.5738936e-21)
(0.18006777 -0.030659473 -2.218158e-21)
(0.20685361 -0.034576592 4.6147095e-20)
(0.23766381 -0.037019933 -1.0470139e-20)
(-0.0046450994 0.0097808661 -7.5356702e-21)
(-0.0096772533 0.020747887 2.4516411e-20)
(-0.011064381 0.026160985 -1.0499353e-20)
(-0.0090968303 0.027724452 -2.7469294e-20)
(-0.0039797133 0.026601699 -2.7548152e-20)
(0.0040961974 0.02364841 -1.4921576e-20)
(0.014954173 0.019496455 -6.9059926e-22)
(0.028436269 0.014604699 5.5499838e-21)
(0.044403193 0.0093034355 1.9615892e-20)
(0.062730557 0.0038283993 7.3530895e-21)
(0.083304392 -0.0016547766 -7.1862252e-21)
(0.10601907 -0.0070322657 -2.0102318e-21)
(0.13077368 -0.01222913 -3.8191732e-20)
(0.15746957 -0.017199791 -1.2693652e-20)
(0.18601215 -0.021919779 1.875062e-20)
(0.21631195 -0.026379769 -2.1021689e-20)
(0.24823244 -0.030602281 -8.9730639e-21)
(0.28151891 -0.034670673 3.0440484e-20)
(0.3166073 -0.038364892 5.0472102e-20)
(0.35665044 -0.039964179 3.3559691e-21)
(-0.0049617698 0.0093140018 1.6783308e-20)
(-0.0091662707 0.019097715 1.4467942e-20)
(-0.0078593631 0.023563372 5.1145506e-20)
(-0.001858532 0.024328947 2.3387994e-20)
(0.0082957386 0.022523784 1.8251786e-22)
(0.022221966 0.019014382 -3.9388478e-20)
(0.03959748 0.014440929 -2.431387e-20)
(0.060147957 0.0092663472 1.0465822e-20)
(0.083639185 0.0038232105 1.4401593e-20)
(0.10986678 -0.0016513226 -1.3113716e-20)
(0.13864574 -0.0069910389 -4.4038737e-20)
(0.16980183 -0.012082883 2.9618514e-20)
(0.2031642 -0.016854201 2.0020561e-20)
(0.23855964 -0.021264043 -2.7551171e-20)
(0.27581251 -0.025296458 1.1650142e-20)
(0.31474834 -0.028957229 2.4197627e-20)
(0.35514572 -0.032303121 8.0724001e-21)
(0.39663416 -0.035506752 -1.1764221e-20)
(0.43957733 -0.038392726 -1.4190304e-20)
(0.48798545 -0.038634493 5.8727726e-21)
(-0.0047307772 0.0081236755 1.109385e-20)
(-0.0070586 0.015671179 -2.3352733e-20)
(-0.0020293602 0.018562034 8.6200534e-21)
(0.0090325345 0.018216224 3.3587984e-20)
(0.025256387 0.015651146 5.2124361e-20)
(0.046066378 0.011695595 2.0276519e-20)
(0.070984579 0.0069609387 -5.863939e-21)
(0.099602023 0.0018829323 -1.2286287e-20)
(0.13156904 -0.0032272229 -6.2057512e-21)
(0.16657579 -0.0081496882 3.424085e-20)
(0.20433439 -0.012733357 -4.5104437e-21)
(0.24456501 -0.01687923 -1.664331e-20)
(0.28698489 -0.020528735 -1.969358e-20)
(0.3313002 -0.023656468 -4.7443763e-20)
(0.37720483 -0.026265595 2.3238715e-20)
(0.42438798 -0.028387929 -1.4095991e-20)
(0.47250004 -0.030127695 2.5993415e-20)
(0.52103651 -0.03178327 2.1040837e-20)
(0.57021431 -0.033350766 -8.5570431e-20)
(0.62470955 -0.032058934 -1.0806933e-22)
(-0.0037710521 0.0063146406 2.1925062e-20)
(-0.0028657631 0.010735096 -2.6165543e-20)
(0.007142116 0.011564135 -4.5013313e-20)
(0.024450256 0.0099249843 -2.7253794e-20)
(0.047870889 0.0066522962 -2.0439877e-21)
(0.076628758 0.0024906026 1.3050096e-20)
(0.11007681 -0.0020154151 -2.8337678e-21)
(0.14765216 -0.0064879294 1.8118543e-20)
(0.18886108 -0.010663534 8.8685629e-21)
(0.2332521 -0.014362458 -1.1380176e-20)
(0.28039167 -0.017468992 8.8779213e-21)
(0.32984624 -0.019916854 -2.3903278e-20)
(0.38116904 -0.021678752 8.050486e-21)
(0.43389111 -0.022759935 1.67564e-20)
(0.48751965 -0.023194367 -2.6395159e-21)
(0.54154748 -0.023046964 1.6618994e-21)
(0.5954358 -0.022469524 -3.195769e-22)
(0.6485182 -0.021870189 1.9590433e-20)
(0.70082278 -0.021445154 4.0434015e-21)
(0.75745191 -0.018499179 -5.7335723e-22)
(-0.0019110134 0.0040273482 2.3692123e-20)
(0.0038694371 0.0046765175 5.7159986e-20)
(0.020315329 0.0031879582 -4.9244246e-20)
(0.045178318 0.0002944158 -9.9454182e-21)
(0.076965204 -0.0034241669 2.0256349e-20)
(0.1146963 -0.007353606 2.1433724e-21)
(0.15753893 -0.011054982 -2.981517e-20)
(0.20474843 -0.01424417 6.9848104e-21)
(0.25564965 -0.016737964 7.1097933e-21)
(0.30960491 -0.018426998 -2.625409e-20)
(0.36598669 -0.019260145 1.292734e-21)
(0.42415983 -0.019231919 -3.7174131e-20)
(0.48347129 -0.01837226 -3.6341035e-20)
(0.54324595 -0.01673834 6.5683516e-20)
(0.60278845 -0.014407372 5.5627516e-21)
(0.6613892 -0.011475975 -1.5188804e-20)
(0.71830822 -0.0081021285 1.9363977e-20)
(0.7726994 -0.0045929562 -9.1888185e-22)
(0.82408875 -0.00096814622 2.0364583e-20)
(0.87622007 0.0043279627 -1.9554163e-20)
(-0.018836385 -0.0050997096 5.8352099e-20)
(-0.010224612 -0.0056349334 1.5783678e-20)
(-0.00022114023 -0.0060688868 -3.5139586e-20)
(0.010823294 -0.0063341167 1.679025e-20)
(0.022642548 -0.0065120543 0)
(0.035177982 -0.0066300976 0)
(0.048369775 -0.0066909812 -2.2974967e-20)
(0.062138209 -0.0067025479 -1.6502884e-20)
(0.076412871 -0.0066741827 1.9122612e-20)
(0.091134254 -0.0066126743 1.8174051e-20)
(0.10624738 -0.0065232147 1.0524258e-21)
(0.12170045 -0.0064103673 -1.0317645e-20)
(0.13744517 -0.0062780907 8.3268903e-21)
(0.1534363 -0.0061297323 1.8233733e-20)
(0.1696311 -0.0059681553 -5.2274258e-21)
(0.18598892 -0.0057958452 -1.0174945e-20)
(0.20247099 -0.005614973 -4.3195914e-21)
(0.21904029 -0.0054274477 -4.4257414e-21)
(0.2356614 -0.0052349616 7.3667205e-22)
(0.25230045 -0.0050390248 1.2286057e-21)
(0.2689251 -0.0048409925 2.5666366e-21)
(0.28550456 -0.0046420844 6.6539562e-21)
(0.30200966 -0.0044433997 2.4894146e-22)
(0.31841285 -0.0042459278 -3.4514766e-21)
(0.33468829 -0.0040505564 1.5558721e-22)
(0.35081191 -0.0038580769 -5.7709913e-22)
(0.36676145 -0.0036691894 1.2434394e-21)
(0.38251651 -0.0034845062 1.0522451e-21)
(0.39805857 -0.0033045559 -1.2988001e-21)
(0.41337101 -0.0031297867 -1.2218707e-22)
(0.42843908 -0.0029605703 3.5745948e-23)
(0.44324996 -0.0027972069 -3.5187757e-22)
(0.45779263 -0.0026399296 -4.0565849e-22)
(0.47205791 -0.0024889097 5.541598e-23)
(0.48603839 -0.0023442624 -1.380915e-22)
(0.49972838 -0.0022060531 -2.2343337e-22)
(0.51312386 -0.0020743042 2.5572181e-22)
(0.52622248 -0.0019490011 2.9502336e-22)
(0.53902344 -0.0018301023 -8.2733828e-24)
(0.55152787 -0.0017175422 -1.5518001e-22)
(0.56373773 -0.0016112601 3.0406743e-23)
(0.57565961 -0.0015111554 -4.0145699e-23)
(0.58729369 -0.0014172994 9.2209328e-23)
(0.59866899 -0.0013293556 2.1976287e-23)
(0.60973987 -0.0012486078 -1.1396129e-22)
(0.62069838 -0.0011718464 -6.7628884e-24)
(0.63106683 -0.0011113024 -7.1732717e-26)
(0.64235603 -0.00103401 -3.5632805e-24)
(0.65043436 -0.001050875 2.9453063e-23)
(0.66701665 -0.00087563815 3.6052583e-22)
(0.010445934 -0.015017631 -1.2746831e-20)
(0.018179776 -0.016641035 -6.3302391e-20)
(0.027779308 -0.017915439 -3.0541972e-20)
(0.038385254 -0.018672099 3.8476051e-20)
(0.049621114 -0.019183617 1.4662626e-20)
(0.061506775 -0.019529463 -1.820495e-20)
(0.074012988 -0.019709897 4.6722098e-21)
(0.087062859 -0.019746526 2.5447216e-20)
(0.10059335 -0.019667316 9.1990226e-23)
(0.11455425 -0.019491736 -7.6591351e-21)
(0.12889744 -0.019234397 -1.3021027e-20)
(0.14357631 -0.01890835 -8.5245435e-21)
(0.15854697 -0.018525012 1.7772355e-20)
(0.17376791 -0.018094042 8.9295659e-21)
(0.18919938 -0.017623721 -1.6522452e-20)
(0.20480319 -0.017121274 -6.0390658e-21)
(0.22054261 -0.016593041 3.2145073e-21)
(0.23638227 -0.016044616 8.3716408e-21)
(0.2522881 -0.015480978 6.9832385e-21)
(0.26822735 -0.014906588 -6.9727324e-21)
(0.2841686 -0.014325462 -3.1685589e-21)
(0.30008183 -0.013741224 1.3605433e-21)
(0.31593844 -0.01315715 3.8683767e-22)
(0.33171139 -0.012576194 1.2114001e-21)
(0.34737521 -0.012001013 1.8368617e-22)
(0.36290612 -0.01143398 -3.2661934e-22)
(0.37828204 -0.010877199 -7.2435286e-22)
(0.39348269 -0.010332513 9.7157507e-22)
(0.40848959 -0.0098015169 8.2483637e-22)
(0.42328609 -0.0092855659 -1.5148058e-22)
(0.43785735 -0.0087857889 5.530673e-22)
(0.45219038 -0.0083031005 -2.3881041e-22)
(0.46627397 -0.0078382151 -3.7070529e-22)
(0.48009868 -0.0073916631 -6.0999906e-22)
(0.49365679 -0.0069638075 4.4172131e-22)
(0.50694227 -0.0065548624 -1.5484289e-23)
(0.51995073 -0.0061649123 1.6125503e-22)
(0.53267941 -0.0057939324 -4.417602e-22)
(0.54512708 -0.0054418159 3.7191187e-22)
(0.5572944 -0.0051083847 6.7177124e-23)
(0.56918287 -0.0047934739 -1.0285532e-22)
(0.58079857 -0.0044967998 1.7614935e-22)
(0.59214124 -0.0042185914 2.3341651e-22)
(0.60323916 -0.0039578591 1.6928285e-22)
(0.61404687 -0.0037184488 1.6769422e-22)
(0.62475353 -0.0034908043 -2.6103187e-23)
(0.63488787 -0.0033113777 8.4067467e-23)
(0.64593773 -0.0030820476 7.6315556e-23)
(0.65383652 -0.0031325587 -1.9469872e-22)
(0.67009982 -0.0026126696 -3.8019927e-23)
(0.0676148 -0.024029182 9.4528398e-21)
(0.073589794 -0.026749088 3.295104e-21)
(0.082265646 -0.02880561 -1.2162218e-20)
(0.091947975 -0.029968548 -1.2257949e-21)
(0.10198338 -0.030767911 1.4970606e-20)
(0.11254653 -0.03133094 -1.4887138e-20)
(0.12367618 -0.031636122 -2.9842306e-20)
(0.13529705 -0.031713059 1.4493541e-20)
(0.14735721 -0.031607691 1.818199e-20)
(0.15982371 -0.031350113 -1.1598531e-20)
(0.17266091 -0.030961879 1.0190564e-21)
(0.18583116 -0.030462814 8.6860195e-21)
(0.19929821 -0.029870615 -1.5253564e-20)
(0.21302698 -0.029200304 2.9095325e-21)
(0.22698288 -0.028464827 7.5194494e-21)
(0.24113189 -0.027675573 3.1587461e-23)
(0.25544068 -0.026842629 2.6555734e-22)
(0.26987664 -0.025974969 -7.4151023e-21)
(0.28440794 -0.025080639 3.8617031e-21)
(0.29900367 -0.024166896 8.4749259e-21)
(0.31363387 -0.023240312 -3.835186e-21)
(0.32826972 -0.022306855 -2.2130406e-21)
(0.34288357 -0.021371939 1.0124425e-21)
(0.35744913 -0.020440473 -1.7155397e-21)
(0.37194149 -0.019516882 1.3532285e-21)
(0.38633727 -0.018605138 7.1846099e-22)
(0.40061466 -0.017708769 1.5268574e-21)
(0.41475348 -0.016830882 -1.9526818e-21)
(0.42873526 -0.01597417 2.223593e-21)
(0.44254322 -0.015140938 5.5189111e-22)
(0.4561623 -0.014333115 4.0324069e-22)
(0.46957917 -0.013552273 3.2134639e-22)
(0.48278221 -0.012799659 8.7326836e-22)
(0.49576147 -0.012076209 -1.37089e-21)
(0.50850864 -0.011382586 3.706655e-22)
(0.52101704 -0.010719203 1.0942316e-22)
(0.53328156 -0.010086259 -4.5175883e-23)
(0.54529867 -0.0094837707 8.6729028e-23)
(0.55706634 -0.0089116179 -3.7186296e-22)
(0.56858436 -0.0083695604 1.8294482e-22)
(0.57985336 -0.0078573794 -3.4988271e-23)
(0.59087847 -0.0073746566 3.9007494e-22)
(0.60165863 -0.0069218215 -1.8546191e-22)
(0.61222072 -0.0064972857 4.7327324e-23)
(0.62251961 -0.0061074386 4.3609724e-23)
(0.63273906 -0.0057365917 -7.3611783e-23)
(0.64241993 -0.0054446898 -1.2085784e-22)
(0.65300612 -0.0050708036 3.8817607e-22)
(0.66055654 -0.0051545867 1.7273584e-22)
(0.67620156 -0.0043073988 -8.3044096e-22)
(0.15021546 -0.03146048 1.5010149e-21)
(0.15354708 -0.03525745 -1.1566618e-20)
(0.16061643 -0.038010979 6.6441982e-21)
(0.16880612 -0.03947916 -1.3324753e-20)
(0.17698248 -0.040520754 -1.9758328e-21)
(0.18552372 -0.041302348 9.1599532e-21)
(0.19458448 -0.041757308 -9.7662344e-21)
(0.20408722 -0.041913784 1.5662741e-21)
(0.21398801 -0.041833407 1.2903814e-20)
(0.22427634 -0.041554415 3.4032072e-21)
(0.23493292 -0.041102127 -6.2097031e-21)
(0.24593062 -0.040500534 -2.8638172e-21)
(0.25724203 -0.039771837 -5.8409068e-21)
(0.2688396 -0.038935146 -6.4553261e-21)
(0.28069475 -0.038007069 3.2356877e-21)
(0.29277818 -0.037002399 8.4620054e-22)
(0.30506034 -0.035934425 1.3679642e-21)
(0.31751163 -0.034815124 -3.385047e-21)
(0.33010264 -0.033655354 -4.2429014e-21)
(0.34280436 -0.032465004 2.3616595e-21)
(0.35558836 -0.031253108 3.2251506e-21)
(0.36842698 -0.03002793 -1.5636316e-21)
(0.38129351 -0.028797019 1.5867341e-21)
(0.39416231 -0.027567253 -3.9124531e-22)
(0.40700896 -0.026344868 -3.9196685e-21)
(0.41981036 -0.025135481 -3.0332944e-21)
(0.43254483 -0.02394411 -1.9026822e-22)
(0.44519219 -0.022775187 4.2858598e-22)
(0.45773376 -0.021632584 -2.2106159e-21)
(0.47015248 -0.020519626 -8.5498889e-22)
(0.48243288 -0.01943912 2.2837757e-22)
(0.49456108 -0.018393382 -1.2498884e-21)
(0.50652479 -0.017384266 6.2585087e-24)
(0.51831333 -0.016413201 -4.2421993e-22)
(0.52991755 -0.015481232 -4.7194045e-22)
(0.54132984 -0.014589052 -5.1997888e-22)
(0.55254409 -0.01373706 -8.4136539e-22)
(0.56355573 -0.012925393 -5.4494088e-23)
(0.57436158 -0.012154 -3.9161227e-24)
(0.58496031 -0.011422657 -5.1974976e-22)
(0.59535132 -0.010731169 -9.1605178e-23)
(0.60553848 -0.010079059 -3.3241863e-22)
(0.61551962 -0.0094670183 -4.376418e-22)
(0.62531973 -0.0088929507 3.7845742e-22)
(0.63489419 -0.0083657415 1.4822794e-23)
(0.6444191 -0.0078639433 1.8240479e-22)
(0.65345283 -0.0074697345 -1.3250278e-22)
(0.66337609 -0.0069633741 -2.66967e-22)
(0.67042854 -0.0070796272 -4.4661426e-23)
(0.68518683 -0.0059332239 4.6232276e-22)
(0.25468589 -0.036552821 -2.0900332e-20)
(0.25447045 -0.041393576 4.7585989e-20)
(0.25907358 -0.044745729 1.0348102e-20)
(0.26508439 -0.046442117 -1.5765332e-20)
(0.27070961 -0.047714393 -2.0227994e-21)
(0.27652025 -0.048747857 2.6232254e-21)
(0.28283581 -0.049413803 -1.6608249e-21)
(0.28957724 -0.049728187 -4.6861467e-21)
(0.29669693 -0.049761522 -4.015921e-21)
(0.30420585 -0.049557147 -1.2207652e-20)
(0.31210258 -0.049141785 1.7897782e-20)
(0.3203698 -0.048540904 6.5220028e-21)
(0.32898745 -0.04777907 -1.6780545e-20)
(0.33793451 -0.046878127 1.0317578e-20)
(0.3471876 -0.045857412 8.3849925e-21)
(0.3567213 -0.044734428 -8.7922785e-22)
(0.36650904 -0.043525186 -3.1222204e-21)
(0.37652352 -0.04224437 -3.8197478e-21)
(0.38673709 -0.040905485 -1.3892653e-21)
(0.39712202 -0.039520982 -1.2304263e-21)
(0.40765086 -0.038102355 -3.0257766e-21)
(0.41829661 -0.036660207 0)
(0.42903301 -0.035204296 -1.3451996e-21)
(0.43983467 -0.033743568 3.9309643e-21)
(0.45067725 -0.032286179 5.4052952e-21)
(0.46153757 -0.03083951 -9.4112772e-22)
(0.47239374 -0.029410189 -2.9274722e-21)
(0.48322523 -0.028004102 3.0258738e-21)
(0.49401292 -0.026626418 2.5446509e-22)
(0.50473915 -0.025281607 3.4352857e-21)
(0.51538777 -0.023973477 -5.3459978e-22)
(0.52594412 -0.022705203 1.7173666e-21)
(0.53639501 -0.021479367 -7.9965875e-22)
(0.5467288 -0.020298005 2.909533e-22)
(0.55693525 -0.019162653 -4.3405305e-22)
(0.56700564 -0.0180744 5.6232711e-22)
(0.57693265 -0.017033948 4.5711394e-22)
(0.58671043 -0.016041664 3.8257037e-22)
(0.5963345 -0.015097666 -9.5940137e-22)
(0.60580214 -0.01420185 6.8358656e-22)
(0.6151114 -0.013354136 -3.6959284e-22)
(0.62426461 -0.012554085 -1.1033947e-21)
(0.63325836 -0.011802729 1.4079308e-21)
(0.64211537 -0.011097574 -6.2010854e-23)
(0.65079182 -0.010449927 -1.5817881e-22)
(0.65945423 -0.0098330841 -7.8257802e-24)
(0.6676832 -0.0093497412 -1.262493e-22)
(0.6767797 -0.0087267369 -4.6591263e-22)
(0.68321194 -0.0088742438 8.78806e-22)
(0.69685873 -0.0074655784 -4.4319283e-23)
(0.37635159 -0.038368244 -1.7495117e-20)
(0.37171008 -0.044270311 1.2832055e-20)
(0.37286722 -0.048161698 2.975467e-21)
(0.37591079 -0.05009894 -7.6353805e-21)
(0.37830562 -0.051670065 1.2055994e-20)
(0.38072331 -0.05304247 7.7914194e-21)
(0.3836764 -0.054030141 -1.26477e-20)
(0.38710099 -0.054633208 -6.0679829e-21)
(0.39092967 -0.054918112 1.2697354e-20)
(0.39518289 -0.054927246 -1.5304999e-20)
(0.39987473 -0.054687631 -1.4063207e-20)
(0.40499558 -0.054224772 1.4129662e-20)
(0.41052916 -0.053563783 6.8193928e-21)
(0.41645775 -0.052728076 -4.2037878e-21)
(0.42276074 -0.051739147 -1.8545533e-21)
(0.42941467 -0.050616884 -4.0581672e-21)
(0.43639415 -0.04937984 5.3047563e-21)
(0.44367267 -0.04804537 3.6682147e-21)
(0.451223 -0.046629695 -3.240832e-21)
(0.45901759 -0.045147967 3.137954e-21)
(0.46702892 -0.043614315 2.7666911e-21)
(0.47522981 -0.042041887 -3.2111255e-21)
(0.48359364 -0.040442867 3.7056646e-22)
(0.49209457 -0.038828488 -3.2571713e-21)
(0.50070772 -0.037209041 7.2454727e-21)
(0.50940928 -0.035593888 6.1080993e-21)
(0.51817666 -0.033991469 8.0974547e-22)
(0.52698854 -0.032409318 -1.7683349e-21)
(0.53582494 -0.030854087 3.7022262e-21)
(0.54466729 -0.029331569 7.188612e-21)
(0.55349844 -0.027846738 2.3049531e-21)
(0.56230266 -0.026403788 3.3165386e-21)
(0.57106567 -0.025006181 1.99565e-21)
(0.5797746 -0.023656702 7.4559541e-22)
(0.58841801 -0.02235752 -2.6374782e-22)
(0.59698586 -0.02111025 2.7203837e-21)
(0.6054695 -0.019916023 6.1993955e-22)
(0.61386169 -0.01877556 2.9488633e-22)
(0.62215654 -0.017689263 5.6234083e-23)
(0.63034986 -0.016657259 9.8971537e-22)
(0.63843823 -0.015679693 4.7021693e-23)
(0.64642241 -0.014756265 4.4250558e-22)
(0.65429768 -0.013888427 -1.2622627e-22)
(0.6620843 -0.013073415 -2.7737577e-22)
(0.66973954 -0.012324856 -1.5220359e-22)
(0.67741889 -0.011611379 -4.2213817e-22)
(0.68472915 -0.011054132 1.6143236e-22)
(0.69287802 -0.010332969 -1.2725774e-22)
(0.69860124 -0.010510152 -5.0124839e-22)
(0.71096498 -0.0088825767 2.4588995e-22)
(0.50927464 -0.035974368 3.647144e-21)
(0.49953074 -0.042960752 -1.895831e-20)
(0.49627591 -0.047383554 -2.3083877e-21)
(0.49555629 -0.049736862 5.4869551e-21)
(0.49416991 -0.05181813 3.0528156e-21)
(0.49269613 -0.0537055 -4.9881439e-23)
(0.4918127 -0.055187742 6.1896796e-21)
(0.49151493 -0.056265495 7.6251114e-21)
(0.49171211 -0.056990632 9.8580497e-21)
(0.49241119 -0.057395676 -1.1250056e-20)
(0.49363153 -0.057506407 -2.1579454e-20)
(0.49536829 -0.057348526 -3.9353583e-21)
(0.49760521 -0.056947243 1.5938169e-20)
(0.50032359 -0.056327124 1.280898e-20)
(0.50350226 -0.055511851 -5.9066982e-21)
(0.50711715 -0.054523968 1.381697e-21)
(0.51114206 -0.053384909 -3.6600993e-21)
(0.51554946 -0.052115067 2.2443974e-21)
(0.52031103 -0.050733778 -2.912307e-22)
(0.52539813 -0.0492593 -1.8654154e-21)
(0.53078209 -0.0477088 7.8266221e-21)
(0.53643453 -0.046098354 -2.9309452e-22)
(0.54232765 -0.044442938 4.1818827e-22)
(0.5484344 -0.042756417 -6.5646134e-22)
(0.55472867 -0.041051543 -4.3029589e-21)
(0.56118544 -0.039339953 4.208538e-21)
(0.56778086 -0.037632181 1.9031267e-21)
(0.57449236 -0.035937664 -3.3082129e-21)
(0.58129871 -0.034264776 -4.1116629e-21)