/*--------------------------------*- C++ -*----------------------------------*\
  =========                 |
  \\      /  F ield         | OpenFOAM: The Open Source CFD Toolbox
   \\    /   O peration     | Website:  https://openfoam.org
    \\  /    A nd           | Version:  6
     \\/     M anipulation  |
\*---------------------------------------------------------------------------*/
FoamFile
{
    version     2.0;
    format      ascii;
    class       volSymmTensorField;
    location    "114";
    object      UPrime2Mean;
}
// * * * * * * * * * * * * * * * * * * * * * * * * * * * * * * * * * * * * * //

dimensions      [0 2 -2 0 0 0 0];

internalField   nonuniform List<symmTensor> 
9200
(
(0.00017323769 -0.00013447852 6.3245585e-22 0.00010794241 -3.3855686e-22 1.0198914e-38)
(0.0010649727 -0.00085319752 1.6092635e-21 0.00068613117 -1.201059e-21 1.1091962e-38)
(0.002145603 -0.0016668574 2.0493431e-22 0.0013021963 -1.5422664e-22 6.0829708e-39)
(0.0033706058 -0.0024478735 -2.4123715e-21 0.0017970708 1.6986106e-21 1.2119694e-38)
(0.0045688181 -0.0031372243 1.0726719e-22 0.0021904049 -9.1410471e-23 1.7779553e-39)
(0.0056561545 -0.0037041043 1.0049354e-21 0.0024822169 -6.700165e-22 2.7608824e-40)
(0.0065756665 -0.0041383362 -2.1318149e-22 0.0026832026 1.4910204e-22 8.0558773e-40)
(0.0072825943 -0.0044415561 1.9395131e-22 0.0028109333 -1.3190858e-22 5.4260715e-40)
(0.0077473028 -0.0046210552 9.7465738e-22 0.0028822139 -5.9440355e-22 1.5471712e-39)
(0.0079562036 -0.0046870408 7.5429976e-23 0.0029112878 -4.633943e-23 4.4043388e-42)
(0.0079115519 -0.0046513463 -1.0423941e-21 0.0029098748 6.4574998e-22 8.2864845e-40)
(0.0076309584 -0.0045266291 8.6939693e-22 0.002887327 -5.5982762e-22 1.1155533e-40)
(0.0071459713 -0.0043258607 -1.5462178e-21 0.0028508597 1.0541575e-21 1.7713341e-39)
(0.0064994024 -0.004062016 -7.8150942e-22 0.0028058623 5.4396312e-22 1.1119265e-40)
(0.0057415142 -0.003747872 2.0238972e-22 0.0027562337 -1.5213926e-22 1.4322899e-41)
(0.0049254318 -0.003395832 -7.5884031e-22 0.0027047048 6.0306258e-22 1.4858447e-40)
(0.004102173 -0.0030177652 6.635909e-22 0.0026532747 -5.7274182e-22 1.8082991e-40)
(0.0033158535 -0.0026250292 4.8852512e-22 0.0026045868 -4.4214792e-22 7.5116651e-40)
(0.0026028777 -0.0022279818 -1.8478278e-23 0.0025621934 3.8745282e-23 1.3916927e-40)
(0.0020021811 -0.0018342741 -1.1092418e-23 0.0025012711 3.4871811e-23 1.7249926e-40)
(0.00022838569 -0.00015266949 6.646467e-23 0.00010481898 -2.5664005e-23 1.7908531e-40)
(0.0013565448 -0.00094100848 1.7052781e-21 0.00065474376 -1.109387e-21 1.1835521e-38)
(0.0026867166 -0.0018109123 -5.5977896e-22 0.0012272678 3.7501637e-22 6.431051e-39)
(0.004103093 -0.0026104894 -4.3257356e-21 0.0016788305 2.7084457e-21 2.803796e-38)
(0.0054082448 -0.0032853108 -1.4551692e-22 0.0020301044 9.3168699e-23 3.5387019e-40)
(0.0065059523 -0.0038087259 3.3314122e-21 0.0022846503 -1.9724092e-21 9.2709376e-39)
(0.0073387796 -0.0041772274 -1.3622793e-21 0.0024561845 8.0010828e-22 3.1401843e-40)
(0.0078719683 -0.0043999105 -4.1159589e-22 0.0025636399 2.3979866e-22 1.1386355e-40)
(0.0080939541 -0.0044909799 1.5585844e-21 0.0026241838 -9.1542366e-22 8.6665739e-40)
(0.0080152554 -0.0044666069 -1.8855752e-21 0.0026517671 1.1279273e-21 9.9186391e-40)
(0.0076660706 -0.0043434939 -1.3349548e-21 0.0026572725 8.201049e-22 1.2313313e-39)
(0.0070929797 -0.0041380537 2.8752504e-21 0.0026487675 -1.8415831e-21 6.2577653e-39)
(0.0063543097 -0.0038659989 1.3367883e-21 0.0026318284 -9.134895e-22 4.3190183e-40)
(0.0055143205 -0.0035422033 -2.0996476e-21 0.0026099171 1.5361187e-21 2.1477579e-39)
(0.0046368879 -0.0031806929 3.7514712e-22 0.002584746 -2.9681691e-22 1.8007647e-40)
(0.0037795589 -0.0027946593 -8.3240606e-22 0.0025565966 7.4013045e-22 4.7501689e-40)
(0.0029887339 -0.0023964497 -3.4542075e-22 0.0025246665 3.6270189e-22 1.5057789e-40)
(0.0022964964 -0.0019973252 1.0452765e-21 0.0024875109 -1.2009917e-21 2.4298849e-39)
(0.001721061 -0.0016062895 4.9348265e-22 0.0024408101 -6.7923244e-22 4.5707095e-40)
(0.0012734586 -0.001232397 -2.0751443e-22 0.0023622838 2.6457418e-22 3.5206358e-39)
(0.00029056391 -0.00016551401 -5.537173e-22 9.6410957e-05 2.3591192e-22 4.613306e-39)
(0.0016667539 -0.00099149415 -9.2026753e-22 0.0005913384 5.1125444e-22 4.8100459e-39)
(0.0032410881 -0.0018788045 -1.0534084e-21 0.0010951592 6.1344787e-22 1.2023073e-38)
(0.0048173195 -0.0026611884 3.4609935e-23 0.0014866702 -1.9064998e-23 1.3027805e-42)
(0.0061766883 -0.0032918647 5.8536911e-23 0.0017868538 -2.6803269e-23 8.6365182e-39)
(0.0072184882 -0.0037513124 1.1698242e-21 0.0020025991 -6.2598105e-22 2.4141571e-39)
(0.0078954754 -0.0040442554 1.0698827e-22 0.0021494038 -5.4321487e-23 9.998196e-40)
(0.0081948684 -0.0041873626 -1.9652582e-21 0.0022459014 1.0637778e-21 6.2788996e-40)
(0.0081346028 -0.0042008715 2.3225863e-21 0.0023079647 -1.2908683e-21 1.1899235e-39)
(0.0077584169 -0.0041053456 7.6346876e-22 0.0023477086 -4.4611168e-22 1.3213309e-39)
(0.0071295444 -0.0039203991 -2.0928193e-21 0.0023738041 1.2803208e-21 2.7157054e-39)
(0.0063233511 -0.0036641974 -6.5336361e-22 0.0023918752 4.2959408e-22 8.9083999e-40)
(0.0054191086 -0.0033534524 2.4140309e-22 0.0024049575 -1.6930761e-22 2.4194658e-39)
(0.0044917907 -0.0030036665 5.6193698e-22 0.002413999 -4.4398534e-22 3.4482991e-40)
(0.0036050806 -0.0026293906 -1.9452651e-22 0.0024183593 1.7268586e-22 2.6553368e-40)
(0.0028065997 -0.0022443473 4.5465341e-22 0.0024162986 -4.6600856e-22 2.0667778e-40)
(0.0021258911 -0.0018613632 -3.1366276e-22 0.0024054444 3.7915954e-22 7.8433288e-41)
(0.0015750821 -0.0014920381 -6.2860272e-22 0.0023830707 9.0091829e-22 1.9515775e-39)
(0.0011519274 -0.0011459625 -1.5679948e-23 0.0023456802 1.7146722e-23 1.774619e-39)
(0.0008452986 -0.00083190464 2.1594872e-22 0.002286033 -4.8966766e-22 1.9644078e-40)
(0.00035765704 -0.00017111228 -4.3959492e-22 8.3477503e-05 1.6208264e-22 2.2914964e-39)
(0.0019795064 -0.00099617798 6.6464208e-22 0.00050252289 -3.2628633e-22 4.2482871e-40)
(0.0037750531 -0.0018588074 5.9067304e-22 0.00092068662 -2.9174863e-22 4.9440176e-40)
(0.0054642671 -0.0025904499 1.2925934e-21 0.0012432242 -6.1802483e-22 5.3386878e-39)
(0.0068156079 -0.003154461 1.1314751e-21 0.0014903836 -5.3915681e-22 2.3740519e-39)
(0.0077353104 -0.0035403229 -1.9753811e-21 0.0016713218 9.4422639e-22 1.8068109e-39)
(0.0081994509 -0.0037607804 -1.1018159e-21 0.0018014934 5.3707154e-22 5.1380415e-40)
(0.0082294679 -0.0038382444 0 0.0018973562 0 0)
(0.0078819102 -0.003796348 1.1978837e-21 0.0019718535 -6.5829702e-22 6.6510177e-39)
(0.0072378953 -0.0036571791 -5.1687711e-22 0.0020339163 3.0959088e-22 2.519921e-39)
(0.0063917806 -0.0034406427 -3.0223179e-21 0.0020889498 1.8326506e-21 2.1848774e-39)
(0.0054397939 -0.0031646361 -3.8779698e-22 0.0021393748 2.4812594e-22 4.4968886e-40)
(0.004469631 -0.0028455907 1.4730385e-21 0.0021852277 -1.1221883e-21 3.0098393e-39)
(0.0035523906 -0.0024989887 8.7977402e-23 0.0022248111 -5.7548005e-23 1.2541174e-39)
(0.0027379217 -0.0021395845 -2.25487e-23 0.0022553631 2.2736803e-23 8.6986418e-43)
(0.0020539204 -0.0017812438 2.4084087e-22 0.0022737303 -2.8818054e-22 1.5309049e-40)
(0.0015083228 -0.0014364723 3.3400958e-24 0.0022769466 4.0237386e-24 1.8154862e-40)
(0.0010939167 -0.0011158142 -4.2279338e-22 0.0022624959 7.4244363e-22 4.5893577e-40)
(0.00079365509 -0.000827245 -2.3211848e-22 0.0022293817 5.1355069e-22 3.216345e-40)
(0.00058602568 -0.00057633743 1.1177974e-22 0.0021813106 -3.7235704e-22 2.0609806e-39)
(0.00042657611 -0.0001678549 3.3149626e-22 6.7238093e-05 -1.0560488e-22 9.0154023e-40)
(0.0022749608 -0.00094967096 1.37981e-21 0.00039738828 -5.5039468e-22 8.1226247e-39)
(0.0042508578 -0.0017462761 1.0735747e-21 0.00072218516 -4.4341001e-22 5.1101317e-40)
(0.0059942746 -0.0023995502 1.1998661e-21 0.00097431343 -4.9137942e-22 2.8560077e-39)
(0.0072731493 -0.0028842848 -1.8389596e-21 0.0011720599 7.630554e-22 4.498104e-39)
(0.0080147528 -0.0031988684 6.6664392e-23 0.0013252231 -2.1583578e-23 4.2824594e-40)
(0.0082317237 -0.0033615436 1.0424738e-22 0.0014472609 -4.581477e-23 3.5799412e-42)
(0.0079891112 -0.003396669 1.4791875e-21 0.0015508409 -6.9652298e-22 1.6034625e-39)
(0.0073856604 -0.0033273734 1.9882912e-22 0.001644781 -9.9651784e-23 1.4360544e-41)
(0.0065367359 -0.0031739861 -5.3113425e-22 0.0017339849 3.0646614e-22 8.692548e-40)
(0.0055584657 -0.0029544485 1.7181205e-21 0.0018200485 -1.0885869e-21 6.0502845e-39)
(0.0045543848 -0.002685234 -1.2513921e-21 0.001901924 8.4112541e-22 5.1005519e-40)
(0.0036059525 -0.0023821653 -2.3395038e-21 0.0019766744 1.8733572e-21 3.6412539e-39)
(0.0027679245 -0.0020607282 -7.6928617e-23 0.0020403062 7.2882163e-23 7.7379472e-42)
(0.0020685832 -0.0017357715 8.2014564e-22 0.002088619 -9.5158142e-22 2.9881369e-39)
(0.0015138069 -0.0014207567 0 0.0021179974 0 0)
(0.0010933553 -0.0011268673 1.0412722e-22 0.0021259667 -1.5459552e-22 7.7830486e-41)
(0.0007876425 -0.00086232928 -4.9571494e-23 0.0021112783 1.1648642e-22 1.1610644e-40)
(0.00057336785 -0.00063216571 -5.2175709e-23 0.0020753465 1.1871101e-22 3.0240123e-41)
(0.00042755226 -0.00043817184 2.217546e-23 0.0020273126 -1.0887333e-22 2.0916861e-40)
(0.00049357534 -0.00015479626 7.2458875e-22 4.9384247e-05 -1.8663368e-22 3.6457471e-39)
(0.0025322842 -0.00085142527 7.0658559e-23 0.00028703774 -2.321248e-23 6.7336069e-42)
(0.0046327273 -0.0015461051 -2.021207e-22 0.00052018856 6.8434891e-23 2.9792757e-41)
(0.0063660694 -0.0021026288 2.0205425e-22 0.00070681576 -6.5642547e-23 5.898327e-40)
(0.0075147602 -0.0025066254 -1.262363e-21 0.00086209065 4.4538179e-22 1.1048836e-39)
(0.0080415749 -0.0027627332 -6.0385452e-22 0.00099476238 2.2175233e-22 9.9252879e-41)
(0.0080059371 -0.0028899437 4.2057263e-22 0.0011148041 -1.3004781e-22 3.1538208e-39)
(0.0075200396 -0.0029095336 -1.630227e-23 0.0012302091 1.8249815e-23 2.4680562e-40)
(0.0067210167 -0.0028400834 -1.0053676e-21 0.0013451977 5.0860099e-22 2.605134e-39)
(0.0057482591 -0.0026976445 1.7363953e-21 0.0014604245 -9.1968955e-22 7.4909436e-40)
(0.0047255336 -0.0024971849 -4.302978e-23 0.0015736496 6.7026017e-23 1.3555844e-39)
(0.0037491498 -0.0022537984 -1.3600866e-21 0.0016805458 1.0161854e-21 3.713414e-39)
(0.0028828499 -0.0019831219 0 0.0017756691 0 0)
(0.0021589374 -0.00170084 3.2309325e-22 0.0018535076 -3.8387866e-22 2.0014883e-39)
(0.0015839712 -0.0014215596 1.5005036e-23 0.0019094569 -3.5863448e-23 1.0975e-40)
(0.0011467158 -0.0011575461 -3.8838165e-22 0.0019405685 6.4282019e-22 2.3176293e-39)
(0.00082617398 -0.00091776569 -8.804874e-23 0.0019458668 1.6550079e-22 4.7754584e-41)
(0.00059817818 -0.0007075399 -2.5752685e-23 0.0019260913 7.6671891e-23 7.8008263e-41)
(0.00043964745 -0.00052892311 -3.4347502e-23 0.0018847933 1.0332115e-22 2.9990382e-41)
(0.00033065484 -0.00038109422 6.0327413e-23 0.0018328581 -2.5231655e-22 2.8803866e-40)
(0.00055467517 -0.00013189399 2.7977085e-22 3.1910155e-05 -5.3836773e-23 5.7738915e-40)
(0.0027323546 -0.00070629765 -2.0003687e-21 0.00018319206 5.0354016e-22 1.2554373e-38)
(0.0048917468 -0.0012725266 -1.8134307e-22 0.00033464377 5.1192767e-23 1.1722269e-39)
(0.0065525861 -0.0017247771 -5.3777993e-22 0.00046494096 1.5822726e-22 5.8964978e-39)
(0.0075278109 -0.0020565727 -3.9166279e-22 0.0005854661 1.0969476e-22 8.1064585e-41)
(0.0078275782 -0.0022736689 -2.2183507e-21 0.00070280853 6.9495684e-22 1.0670487e-39)
(0.0075624547 -0.002389737 -1.0839999e-21 0.000822964 3.8710034e-22 8.6730349e-40)
(0.0068879128 -0.0024180363 2.0853106e-21 0.00094933824 -7.9799539e-22 6.8423392e-40)
(0.00596883 -0.0023696971 3.5506196e-22 0.0010818146 -1.8698821e-22 8.9285176e-40)
(0.0049541397 -0.0022555678 -4.5534251e-22 0.0012170832 2.1000466e-22 3.0424887e-40)
(0.0039607555 -0.0020880452 2.1428409e-22 0.0013494176 -7.8990187e-23 1.1465178e-39)
(0.0030668338 -0.0018816778 -3.8646967e-23 0.0014717447 5.4897823e-23 2.9060451e-40)
(0.0023131993 -0.0016524298 0 0.001576916 0 0)
(0.0017104396 -0.0014160479 2.2117694e-22 0.0016589393 -2.3693773e-22 6.8502221e-41)
(0.001248572 -0.0011862459 -4.6631763e-22 0.00171391 6.3131532e-22 9.451935e-40)
(0.00090651206 -0.00097335398 -1.5084892e-22 0.0017404681 2.3961025e-22 8.059327e-41)
(0.00065957408 -0.00078375519 2.5700666e-22 0.0017396689 -5.4040703e-22 1.1335425e-39)
(0.00048435783 -0.00062013882 -5.9122112e-23 0.0017143087 7.9136539e-23 2.4571568e-40)
(0.00036109654 -0.00048246481 -4.096978e-24 0.0016694153 -6.9471559e-24 2.7589405e-41)
(0.00027408046 -0.00036875734 5.8283874e-23 0.0016153089 -1.8115599e-22 2.3346959e-41)
(0.00060611039 -0.00010008375 2.0392364e-22 1.684448e-05 -2.6773284e-23 3.6153804e-40)
(0.0028602013 -0.00052410976 -1.8472066e-21 9.6541075e-05 3.3315439e-22 5.7543716e-39)
(0.0050093942 -0.0009471924 -1.4439602e-21 0.0001821494 2.8697361e-22 6.8904682e-39)
(0.0065438947 -0.0012981648 2.0440118e-21 0.00026709428 -4.2951862e-22 1.6817393e-39)
(0.0073216835 -0.0015731922 1.5338765e-21 0.00035923216 -3.4819363e-22 3.4567479e-40)
(0.0074067344 -0.0017724447 -1.1141291e-21 0.00046302637 2.4838505e-22 3.654396e-39)
(0.0069577177 -0.0018983823 3.6534704e-22 0.00058121757 -1.4114807e-22 1.5491955e-39)
(0.0061627226 -0.0019527904 2.1204385e-21 0.00071356549 -7.6375981e-22 1.719425e-39)
(0.0051996087 -0.0019383871 9.2566782e-22 0.00085635264 -3.6968262e-22 2.142055e-40)
(0.0042121582 -0.0018615314 -9.0489701e-22 0.0010028497 4.7101248e-22 5.6025054e-40)
(0.0032995277 -0.0017333086 -1.2221551e-21 0.0011444061 7.426112e-22 6.5957733e-40)
(0.0025167402 -0.0015685968 -3.3158158e-23 0.0012719611 2.4471441e-23 6.8688427e-43)
(0.001882663 -0.0013837821 3.4809968e-22 0.0013776364 -3.114726e-22 1.0661159e-40)
(0.0013913488 -0.0011941497 -1.0750995e-23 0.0014559884 4.0980751e-23 1.6747083e-40)
(0.0010231923 -0.0010118685 -1.0587007e-23 0.0015046362 6.6383129e-23 4.5325304e-40)
(0.00075370069 -0.00084503838 6.2251915e-24 0.0015242013 -8.634303e-23 8.1877109e-40)
(0.00055913482 -0.00069777121 1.1879537e-22 0.0015176516 -2.4601891e-22 2.3770417e-40)
(0.00041935542 -0.00057099663 -6.5063454e-23 0.0014892993 2.0647029e-22 6.240831e-40)
(0.00031861965 -0.00046372122 -1.6950457e-22 0.0014447414 4.9798651e-22 1.2017002e-39)
(0.00024505515 -0.0003739011 5.7779983e-23 0.001392467 -1.4501284e-22 2.6054204e-41)
(0.00064494923 -6.1202263e-05 -5.2650511e-22 5.9623233e-06 4.3852835e-23 1.0795076e-39)
(0.0029070787 -0.00031839993 -4.0193327e-22 3.5282864e-05 4.3340978e-23 1.1618741e-39)
(0.004979418 -0.00059619818 3.1559676e-21 7.3906051e-05 -4.0201635e-22 1.4227979e-38)
(0.0063476469 -0.00085745122 2.3325052e-21 0.00012406284 -3.3992999e-22 1.5446061e-39)
(0.006925154 -0.0010940631 1.036576e-21 0.00019165282 -1.640934e-22 7.6059194e-40)
(0.0068286281 -0.0012938899 2.0879442e-22 0.00028041113 -4.3202062e-23 7.2144739e-42)
(0.0062546246 -0.0014439762 -1.9478432e-21 0.00039153755 4.3678504e-22 3.1763599e-39)
(0.0054087958 -0.0015334624 0 0.00052252714 0 0)
(0.0044667913 -0.0015576094 -1.1824003e-21 0.0006669149 5.2104837e-22 2.6334018e-39)
(0.0035558801 -0.0015200013 -2.0147244e-22 0.00081515075 1.3617305e-22 5.9865927e-40)
(0.0027521443 -0.0014317332 5.7445626e-22 0.00095632801 -3.386729e-22 1.4103218e-40)
(0.0020881742 -0.0013084158 6.0056903e-23 0.0010802632 -8.0778879e-23 3.2952213e-40)
(0.0015657771 -0.0011664894 -2.7014689e-22 0.001179285 2.7183819e-22 3.8097681e-40)
(0.0011690095 -0.0010201757 -2.011894e-22 0.0012492431 2.736733e-22 8.1799126e-40)
(0.00087463072 -0.00087979003 1.3178137e-22 0.0012895942 -1.3524053e-22 9.9806859e-41)
(0.00065894405 -0.00075144466 1.8114282e-22 0.0013027401 -2.3742739e-22 9.0176486e-41)
(0.00050134784 -0.00063771495 -1.5964917e-22 0.0012929456 2.7144236e-22 8.2750406e-41)
(0.00038556276 -0.00053874642 -2.1064534e-22 0.0012652116 4.7259299e-22 1.0035182e-39)
(0.000299501 -0.00045347743 1.7571364e-23 0.0012248709 -3.1670623e-24 1.192588e-40)
(0.0002343497 -0.00038030609 2.7619101e-23 0.0011781063 -1.0007414e-22 1.4016136e-40)
(0.00066898541 -1.7691499e-05 -3.4772188e-22 5.3721443e-07 8.8674325e-24 5.2828398e-40)
(0.0028704731 -0.00010471747 1.4761628e-21 4.1638194e-06 -5.3118835e-23 2.9267844e-39)
(0.0048075539 -0.00024702978 2.2574814e-21 1.4746549e-05 -1.3979162e-22 2.125706e-38)
(0.0059872794 -0.00043597381 -2.6195868e-21 3.8772501e-05 2.2890951e-22 5.8401019e-39)
(0.0063812877 -0.00065170029 9.3917207e-22 8.3123216e-05 -1.0475725e-22 1.4466291e-40)
(0.0061500342 -0.00086469369 3.779012e-22 0.00015326574 3.3991465e-24 5.4051967e-39)
(0.005512868 -0.0010450549 1.0047858e-22 0.00025097405 -2.0739147e-23 1.8945019e-42)
(0.0046771171 -0.0011704838 -1.4224924e-21 0.00037280475 3.3329839e-22 1.8086991e-39)
(0.0038039463 -0.0012310781 -3.2164019e-23 0.00051026816 1.133291e-23 2.8206553e-43)
(0.0029979311 -0.0012295806 5.2546607e-22 0.00065158746 -2.8019976e-22 6.9108554e-40)
(0.0023120779 -0.0011779407 4.060319e-23 0.00078435489 -4.3400331e-23 9.9370881e-41)
(0.0017609193 -0.001092341 -1.9040507e-22 0.00089812797 4.9554702e-23 1.2855425e-39)
(0.0013353546 -0.00098869657 -4.1708826e-22 0.0009861538 3.460444e-22 1.371163e-40)
(0.0010151346 -0.00087976754 -1.3773536e-24 0.0010458767 3.3875561e-23 1.6751842e-40)
(0.00077738144 -0.00077410891 1.3924692e-22 0.0010783825 -1.884258e-22 1.6188722e-40)
(0.00060128209 -0.00067639435 9.2006109e-23 0.0010872348 -1.5139717e-22 1.5758979e-40)
(0.00046996682 -0.00058842345 1.9767618e-23 0.0010771903 -7.2114582e-23 2.5693808e-40)
(0.0003707342 -0.00051026381 -1.4848576e-22 0.0010531654 2.1140911e-22 2.030452e-40)
(0.00029448873 -0.00044122632 -3.2617769e-23 0.0010196782 -2.1874245e-23 8.818873e-40)
(0.00023472928 -0.00038020492 7.74555e-23 0.00098066894 -2.5777692e-22 1.4511204e-39)
(4.5196079e-06 -5.6390535e-07 4.5196878e-23 6.8940512e-07 -9.0494216e-24 5.1636119e-40)
(2.1311128e-05 -8.9201431e-06 -6.4477558e-23 4.5821838e-06 1.7865931e-23 4.9716134e-40)
(4.773561e-05 -2.0616255e-05 1.4324125e-22 9.1329729e-06 -5.3615771e-23 2.8546473e-39)
(0.00015303419 -4.3492896e-05 3.9962003e-22 1.3089269e-05 -8.5118683e-23 9.6018216e-39)
(0.00033575523 -7.1706197e-05 -2.8527928e-22 1.6632921e-05 4.8486467e-23 2.496645e-39)
(0.00059980682 -0.00010323283 3.5936497e-22 1.9765288e-05 -4.8639599e-23 2.758755e-39)
(0.00095360396 -0.00013696767 -4.9263924e-22 2.2490851e-05 6.2288183e-23 3.0284456e-39)
(0.0013991787 -0.00017180999 -5.0777677e-22 2.4868101e-05 5.2820671e-23 3.203007e-39)
(0.0019341182 -0.00020686691 6.3736447e-22 2.6960267e-05 -6.5700035e-23 3.3845771e-39)
(0.0025545272 -0.00024147957 -4.9378229e-22 2.8817023e-05 4.7916875e-23 1.7234982e-39)
(0.0032556016 -0.00027515192 -2.4878084e-23 3.047638e-05 4.123761e-25 2.0067385e-41)
(0.0040317082 -0.00030750013 1.4114403e-22 3.1967625e-05 -1.494945e-23 6.3216727e-41)
(0.0048766408 -0.00033822258 -2.4453423e-23 3.3313323e-05 1.1564391e-24 1.0070248e-41)
(0.005783858 -0.000367081 7.6383993e-22 3.4531647e-05 -6.8067329e-23 3.0156992e-39)
(0.0067466269 -0.00039389446 1.2656518e-24 3.5639288e-05 1.4512414e-24 6.5277276e-42)
(0.0077581672 -0.00041854995 -1.1121847e-21 3.665442e-05 1.0381295e-22 6.1983091e-39)
(0.0088118455 -0.00044101215 2.0467033e-22 3.7596406e-05 -2.161898e-23 1.3053922e-40)
(0.0099012048 -0.0004612809 4.9360215e-22 3.8479811e-05 -4.9166172e-23 1.5761089e-39)
(0.011019815 -0.00047945354 -7.9337061e-22 3.931905e-05 8.5284058e-23 4.4659898e-39)
(0.012160475 -0.0004962147 -4.3346206e-22 4.0110167e-05 5.0158939e-23 1.6770192e-39)
(5.1190898e-06 -2.3605812e-06 1.487079e-23 6.0677844e-06 -5.4807081e-24 5.0994233e-41)
(2.7168337e-05 -3.056631e-05 -4.0829948e-22 4.037889e-05 3.0785244e-22 1.6626386e-38)
(6.0965734e-05 -6.9390681e-05 8.1043063e-23 8.0450743e-05 -6.7062741e-23 1.5006504e-39)
(0.00018000713 -0.00014075758 4.2961474e-22 0.00011529978 -2.6354125e-22 8.0228577e-39)
(0.00037856549 -0.00022748271 5.9646896e-22 0.00014644639 -2.8608289e-22 9.0721961e-39)
(0.00065920654 -0.00032361677 7.205862e-23 0.00017386078 -2.8815004e-23 8.5215231e-41)
(0.0010292665 -0.00042586047 -1.91379e-21 0.00019759055 6.6050657e-22 4.5367565e-38)
(0.0014894967 -0.00053096159 -6.7114266e-23 0.00021815518 2.7702606e-23 1.3020375e-41)
(0.0020363384 -0.00063630119 1.0786676e-21 0.00023611097 -3.2653024e-22 7.736896e-39)
(0.0026648527 -0.00073994805 -2.5993366e-22 0.00025189573 7.128851e-23 4.3025637e-40)
(0.0033692093 -0.00084044513 -9.8392286e-22 0.00026584458 2.6777744e-22 4.7700779e-39)
(0.0041427468 -0.00093666212 2.0658689e-22 0.00027821424 -5.241884e-23 2.1722209e-40)
(0.0049782192 -0.0010277065 8.7071675e-22 0.00028919976 -1.9284911e-22 5.1201752e-39)
(0.0058680118 -0.0011128666 3.5808247e-22 0.00029895449 -8.8464314e-23 5.84177e-40)
(0.0068042505 -0.0011915898 7.1262479e-22 0.00030761488 -1.8920165e-22 1.6872029e-39)
(0.007778946 -0.001263511 -5.611432e-22 0.00031532574 1.4086679e-22 1.4287311e-39)
(0.0087843533 -0.0013284916 -5.3354752e-22 0.00032224335 1.3284207e-22 1.5631505e-39)
(0.0098128512 -0.001386487 5.3485099e-22 0.0003284948 -1.5286112e-22 9.0108618e-40)
(0.010854751 -0.0014377696 4.8371082e-22 0.00033422412 -1.3533453e-22 1.5791107e-39)
(0.011898417 -0.0014849121 1.8446594e-22 0.00033944779 -4.9788665e-23 6.7177004e-40)
(6.5809175e-06 -6.0467353e-06 1.1442518e-23 1.6187216e-05 -5.7079627e-24 2.682703e-41)
(4.1063172e-05 -6.3165113e-05 3.1004848e-22 0.00010778599 -3.3187922e-22 7.0857191e-39)
(9.1736487e-05 -0.0001395256 -6.7810998e-23 0.00021455486 8.7373601e-23 3.7103688e-40)
(0.00023947806 -0.00026702185 -4.6653958e-22 0.00030734261 3.9256799e-22 8.7849358e-39)
(0.00047068226 -0.00041805652 1.712067e-22 0.00038997256 -1.4358902e-22 2.4801312e-40)
(0.00078521569 -0.00058301185 2.2602959e-22 0.00046219416 -1.8355549e-22 1.2914198e-40)
(0.001188251 -0.00075644441 -2.8241383e-22 0.00052412702 1.4931461e-22 7.8230644e-40)
(0.0016781277 -0.00093309982 -7.3469985e-22 0.00057715724 4.2765431e-22 1.556807e-39)
(0.0022491101 -0.0011087863 3.2143769e-22 0.00062276534 -1.5566662e-22 4.3637779e-40)
(0.0028942534 -0.001280406 6.8204975e-22 0.00066212531 -2.8221496e-22 2.4803335e-39)
(0.0036057614 -0.0014456066 1.871714e-22 0.00069614093 -1.3039023e-22 9.24776e-41)
(0.0043750133 -0.0016025485 8.3116736e-22 0.0007255026 -2.7389643e-22 4.6047941e-39)
(0.0051927889 -0.0017497601 7.0106612e-23 0.00075072751 -2.5838644e-23 1.9072556e-41)
(0.0060494507 -0.0018860414 -1.2250805e-21 0.00077220814 4.1094742e-22 7.3993618e-39)
(0.0069350057 -0.0020104234 8.8395137e-23 0.00079027828 -5.9254872e-23 4.095536e-41)
(0.0078392571 -0.0021222167 -5.6896532e-22 0.00080528271 1.5655478e-22 2.885036e-39)
(0.008752483 -0.0022210995 -7.9452008e-22 0.00081759435 3.1552212e-22 1.1803982e-39)
(0.0096651291 -0.0023069082 1.282957e-21 0.00082758273 -5.0222395e-22 3.9214398e-39)
(0.010562185 -0.0023800425 6.724067e-22 0.00083584745 -2.8109406e-22 7.9601691e-40)
(0.011425382 -0.0024459336 1.3477772e-22 0.00084282116 -6.2227794e-23 1.7042033e-41)
(9.6959155e-06 -1.2510742e-05 -1.7150876e-23 2.9815702e-05 2.1613436e-23 3.9185252e-41)
(6.7302003e-05 -0.00011213761 -7.1800449e-22 0.00019882688 9.0815336e-22 2.3505179e-38)
(0.00014877983 -0.00024159323 -5.2258185e-23 0.00039536507 6.7153969e-23 3.2134405e-40)
(0.00034385097 -0.00043630408 1.1995621e-22 0.00056584543 -1.3280327e-22 2.0454393e-40)
(0.00062793861 -0.00065968124 -1.9577422e-23 0.00071688259 5.1582281e-24 5.2901422e-41)
(0.00099692465 -0.00089866235 6.1046017e-22 0.00084760981 -4.4701245e-22 3.8594865e-39)
(0.0014526759 -0.0011456682 6.739426e-22 0.00095818985 -4.3941642e-22 3.5056579e-39)
(0.0019899861 -0.0013936521 -2.044564e-22 0.001051184 9.8539529e-23 5.5275911e-40)
(0.0025999006 -0.0016370629 -7.4655972e-22 0.0011293416 3.8869788e-22 3.5126841e-39)
(0.0032724789 -0.0018717776 -1.4990862e-21 0.0011948741 8.0636702e-22 7.4401844e-39)
(0.0039969989 -0.0020946348 -3.3916017e-23 0.0012495079 -1.7411694e-23 1.7016462e-40)
(0.0047619596 -0.0023031354 1.8991555e-21 0.0012945732 -8.8147482e-22 1.2161634e-38)
(0.0055552755 -0.0024952444 -7.6928913e-22 0.0013310652 2.913796e-22 3.5986785e-39)
(0.0063644645 -0.0026692734 -4.9406767e-22 0.0013597323 2.1569866e-22 7.0921251e-40)
(0.0071766794 -0.0028238155 -5.7840158e-23 0.0013811851 6.6977578e-23 1.533432e-40)
(0.0079788872 -0.0029578014 1.1605104e-21 0.0013960163 -5.0878996e-22 2.9060033e-39)
(0.0087589356 -0.0030706739 -6.5342801e-22 0.001404849 3.2957521e-22 1.9229997e-40)
(0.0095052897 -0.003162216 -1.4938646e-21 0.0014084551 6.307229e-22 6.2587073e-39)
(0.010197249 -0.0032330389 9.9395396e-22 0.0014086594 -4.3570435e-22 3.1462465e-39)
(0.010809581 -0.0032918796 8.5759155e-22 0.0014076302 -3.4567281e-22 2.9292496e-39)
(1.5506886e-05 -2.2284677e-05 7.6956206e-23 4.5456554e-05 -7.4797251e-23 5.063369e-40)
(0.00011161742 -0.00018062965 2.5139212e-23 0.0003033963 -6.6624453e-24 2.2813482e-40)
(0.00024360662 -0.00038161796 -9.8696221e-22 0.00060216222 1.4141667e-21 1.9268449e-38)
(0.00050909619 -0.00065618345 -5.669263e-22 0.0008603929 6.0229104e-22 5.9648389e-39)
(0.00086986371 -0.00096028356 3.7898966e-22 0.001087522 -3.0168639e-22 3.6064689e-39)
(0.0013164043 -0.0012774356 4.6905292e-22 0.0012816 -3.778717e-22 1.6978119e-39)
(0.0018459149 -0.0015978651 -6.1064413e-22 0.0014428234 3.9830522e-22 3.9744815e-39)
(0.0024483768 -0.0019129883 -9.3016412e-22 0.0015751703 5.3267986e-22 8.7217048e-39)
(0.0031104562 -0.0022161753 1.3707858e-21 0.0016829419 -8.1743888e-22 8.9439693e-39)
(0.0038181267 -0.0025024944 3.9435511e-22 0.0017696693 -1.5867054e-22 2.0834615e-39)
(0.00455672 -0.0027681461 -1.2262364e-21 0.0018381762 8.1361442e-22 6.8129415e-40)
(0.0053109482 -0.0030101217 5.3980752e-22 0.0018906888 -2.4420327e-22 1.6034025e-39)
(0.0060651557 -0.0032259829 0 0.0019289161 0 0)
(0.0068035327 -0.0034137125 5.2156739e-22 0.0019541608 -2.5390906e-22 6.2671216e-40)
(0.007510208 -0.003571636 -3.9006174e-22 0.0019674663 1.8529984e-22 3.3460986e-40)
(0.0081695239 -0.0036984779 -5.9499032e-22 0.0019697755 2.9793102e-22 4.0536593e-40)
(0.008767592 -0.0037936213 2.1716113e-22 0.0019619773 -1.815428e-22 5.7232785e-40)
(0.0092924063 -0.0038571252 -1.7699914e-22 0.0019452709 1.0730577e-22 2.0518265e-41)
(0.0097197348 -0.0038902713 8.4236981e-22 0.0019235935 -3.6551733e-22 3.3925275e-39)
(0.010017666 -0.0039047191 -6.8713247e-22 0.0019034409 3.3978541e-22 1.9559227e-40)
(2.52184e-05 -3.5531616e-05 7.383318e-23 6.1619197e-05 -6.2078983e-23 4.0650968e-40)
(0.00018045952 -0.00026918101 3.5468456e-22 0.00041086037 -4.7251829e-22 1.5133277e-39)
(0.00038887763 -0.00056013148 -4.7587264e-22 0.00081276429 6.3192464e-22 3.6178449e-39)
(0.00075195326 -0.00092614608 -7.7861028e-22 0.0011581027 8.7719642e-22 3.023243e-39)
(0.0012153257 -0.0013171452 -2.2450756e-22 0.0014588556 3.3335483e-22 2.3883945e-39)
(0.0017623307 -0.0017130455 -7.0228961e-22 0.0017117113 6.1768012e-22 1.486549e-39)
(0.0023837902 -0.0021018229 -3.2868602e-22 0.0019170575 2.0221414e-22 1.7209933e-39)
(0.0030634434 -0.0024737124 5.6735893e-22 0.0020805348 -3.4085953e-22 3.1741086e-39)
(0.0037823363 -0.0028214264 1.351397e-21 0.0022082666 -8.0465324e-22 1.0865251e-38)
(0.0045212727 -0.0031396301 4.1434252e-22 0.0023054127 -2.5512124e-22 4.5529631e-40)
(0.0052608513 -0.0034243101 -3.9350507e-22 0.002376218 2.0860754e-22 7.2273628e-40)
(0.0059815502 -0.003672394 -7.5350373e-23 0.0024241309 -1.5987893e-23 6.2984222e-40)
(0.0066641262 -0.0038815188 -1.859535e-21 0.0024518931 1.0186512e-21 5.984432e-39)
(0.0072900086 -0.0040498796 -5.757028e-22 0.0024616632 3.0139961e-22 6.190688e-40)
(0.0078415715 -0.0041761424 9.590146e-22 0.002455181 -5.5775634e-22 2.9053282e-40)
(0.0083025714 -0.0042594673 -9.5373925e-22 0.0024339282 5.1793622e-22 6.0966609e-40)
(0.0086601427 -0.0042997638 -3.3555265e-22 0.0023990807 1.6568046e-22 1.95708e-40)
(0.0089056569 -0.0042979558 7.4901691e-22 0.0023519948 -3.1510136e-22 3.0471436e-39)
(0.00901694 -0.0042567681 1.1274066e-21 0.0022989356 -5.6733316e-22 2.3049649e-39)
(0.0089570122 -0.0041897403 1.3774206e-22 0.0022538404 -6.4626037e-23 4.4936866e-41)
(4.0106883e-05 -5.2057195e-05 -2.0827658e-22 7.6945216e-05 1.6913416e-22 2.405367e-39)
(0.00028021506 -0.00037567323 -2.3097761e-22 0.00051114447 2.3434978e-22 1.9171891e-39)
(0.0005964615 -0.00077183458 5.7749448e-22 0.0010060594 -7.3151881e-22 8.6565365e-40)
(0.001086696 -0.001236891 8.8387748e-22 0.0014276742 -9.1659469e-22 4.0163961e-39)
(0.001677871 -0.001715984 1.1547866e-23 0.0017901278 -1.0406786e-23 7.9799731e-43)
(0.0023438969 -0.0021852282 -2.3957609e-21 0.0020888793 1.9787094e-21 2.3469358e-38)
(0.0030672482 -0.0026304859 -9.3226974e-22 0.0023249446 8.0043057e-22 3.3107712e-40)
(0.0038240052 -0.0030414011 7.2810851e-22 0.0025059568 -4.9131039e-22 2.5762549e-39)
(0.0045886511 -0.0034107535 8.3152726e-22 0.0026401497 -5.5915591e-22 1.5744276e-39)
(0.0053363514 -0.0037335735 -8.1621627e-22 0.0027346214 4.5421292e-22 4.3255885e-39)
(0.0060430311 -0.004006441 -2.3814714e-21 0.0027953669 1.5064652e-21 6.2897216e-39)
(0.0066857197 -0.0042270911 1.5624985e-21 0.0028273833 -9.4934226e-22 2.585322e-39)
(0.0072432237 -0.0043941784 9.2976477e-22 0.0028347643 -4.8506622e-22 3.103807e-39)
(0.0076968102 -0.0045071278 -1.2830294e-21 0.0028208283 7.0979385e-22 2.5579305e-39)
(0.0080307474 -0.0045660326 5.6150684e-22 0.0027882772 -3.2568893e-22 1.7074979e-40)
(0.0082328766 -0.0045716028 9.2985838e-22 0.0027393199 -4.8016213e-22 1.905803e-39)
(0.0082967087 -0.0045252574 3.528756e-22 0.00267543 -2.0017701e-22 6.4505341e-41)
(0.0082229661 -0.004429472 -6.0298265e-22 0.0025976003 3.7634005e-22 8.0761101e-41)
(0.0079997954 -0.0042889321 -1.3792559e-22 0.0025134056 4.3745467e-23 4.7266373e-40)
(0.0075899031 -0.0041173161 7.8785632e-22 0.0024460922 -4.5919016e-22 1.8910033e-40)
(6.1422313e-05 -7.1316607e-05 -6.3259208e-24 9.0231554e-05 -6.4092778e-24 4.4475618e-41)
(0.0004163534 -0.00049541514 -8.3635665e-22 0.0005953345 8.8498758e-22 6.297441e-39)
(0.00087534316 -0.0010058312 -6.6870409e-22 0.0011637515 7.1764304e-22 9.5338126e-39)
(0.0015218053 -0.0015707871 1.2479693e-21 0.0016424764 -1.1975368e-21 5.5665265e-39)
(0.0022613371 -0.0021318683 1.0345327e-21 0.0020474234 -1.0181848e-21 2.3591388e-39)