/*--------------------------------*- C++ -*----------------------------------*\
  =========                 |
  \\      /  F ield         | OpenFOAM: The Open Source CFD Toolbox
   \\    /   O peration     | Website:  https://openfoam.org
    \\  /    A nd           | Version:  6
     \\/     M anipulation  |
\*---------------------------------------------------------------------------*/
FoamFile
{
    version     2.0;
    format      ascii;
    class       volScalarField;
    location    "239";
    object      pMean;
}
// * * * * * * * * * * * * * * * * * * * * * * * * * * * * * * * * * * * * * //

dimensions      [0 2 -2 0 0 0 0];

internalField   nonuniform List<scalar> 
9200
(
-0.39132945
-0.37947975
-0.36890765
-0.35955763
-0.35041377
-0.34148161
-0.33284321
-0.32446383
-0.31627317
-0.30819766
-0.30016392
-0.29210363
-0.28396058
-0.27569782
-0.26730786
-0.25883
-0.25034459
-0.24194253
-0.23463398
-0.23264198
-0.40960666
-0.39530732
-0.38279682
-0.37192058
-0.36138986
-0.35117913
-0.34136086
-0.33187009
-0.32260552
-0.31346878
-0.30436824
-0.29522464
-0.28597861
-0.27659631
-0.26707452
-0.25744416
-0.24774107
-0.23797029
-0.22880804
-0.2223996
-0.42823781
-0.41147605
-0.39707956
-0.38474989
-0.37288666
-0.36141532
-0.35038764
-0.3397018
-0.32922471
-0.31883832
-0.30844294
-0.29796255
-0.2873512
-0.27659557
-0.26571419
-0.25475259
-0.24375555
-0.2327366
-0.22209408
-0.21294184
-0.44677188
-0.42757537
-0.41136241
-0.39764088
-0.38446225
-0.37168728
-0.35934029
-0.34728351
-0.33536141
-0.32345285
-0.31147171
-0.2993692
-0.28713632
-0.27480083
-0.26241996
-0.25006982
-0.23782142
-0.22571605
-0.21402188
-0.20348427
-0.46456133
-0.44304142
-0.42513182
-0.41009449
-0.39560654
-0.38145432
-0.3676361
-0.3539904
-0.34036114
-0.32665198
-0.31282026
-0.29887218
-0.2848577
-0.27085991
-0.25698116
-0.24332875
-0.22999471
-0.21703725
-0.20464514
-0.19333133
-0.48076516
-0.45713832
-0.43770989
-0.42144457
-0.40563729
-0.39000164
-0.37452401
-0.35904635
-0.34344706
-0.32769115
-0.31181162
-0.29589316
-0.28005685
-0.26444169
-0.24918639
-0.2344146
-0.2202202
-0.20665633
-0.19384851
-0.18213814
-0.49436391
-0.46896473
-0.44825619
-0.43086141
-0.41371227
-0.39646724
-0.37913029
-0.36158868
-0.34379999
-0.32582928
-0.30781214
-0.28992388
-0.27235429
-0.25528426
-0.23886779
-0.22322153
-0.20841797
-0.19448377
-0.18148418
-0.16962301
-0.50418262
-0.47747846
-0.45580157
-0.43740017
-0.41889521
-0.39992566
-0.38055712
-0.36077483
-0.34066348
-0.3204218
-0.30030359
-0.28057275
-0.26147187
-0.24319977
-0.2258997
-0.20965773
-0.19450606
-0.18043116
-0.16743933
-0.15561811
-0.50887096
-0.48139358
-0.45904801
-0.43971377
-0.41980175
-0.39899503
-0.3774813
-0.35540037
-0.33300195
-0.31063198
-0.28865399
-0.26739649
-0.24712348
-0.22802044
-0.21019404
-0.1936819
-0.17846592
-0.16448883
-0.15170213
-0.14009355
-0.50707603
-0.4792867
-0.45643982
-0.43613028
-0.41470782
-0.39198374
-0.36833236
-0.34409172
-0.31968772
-0.29559422
-0.27224557
-0.2499888
-0.22906671
-0.20961918
-0.19169689
-0.17528129
-0.1603052
-0.14667372
-0.13429092
-0.12305733
-0.27412207
-0.2785735
-0.28073471
-0.28117899
-0.2806398
-0.27929113
-0.27722425
-0.2745322
-0.27128926
-0.26755226
-0.26336751
-0.25877467
-0.25380895
-0.24850245
-0.2428855
-0.23698908
-0.2308463
-0.22447983
-0.21789046
-0.21116772
-0.27699735
-0.28101666
-0.28286261
-0.2830849
-0.28236124
-0.2808569
-0.27866111
-0.27586274
-0.27253223
-0.26872334
-0.26447981
-0.25983904
-0.25483421
-0.2494953
-0.24384991
-0.23792787
-0.23176967
-0.22539633
-0.21870024
-0.21165489
-0.28259892
-0.28577568
-0.28700857
-0.28679683
-0.28571173
-0.28390299
-0.28145583
-0.27845106
-0.27495163
-0.27100525
-0.26665049
-0.26192022
-0.25684356
-0.25144645
-0.24575139
-0.2397851
-0.23359926
-0.2272139
-0.22032766
-0.21267465
-0.29066421
-0.29263862
-0.29298617
-0.29213654
-0.2905143
-0.28824935
-0.28542226
-0.28210292
-0.27834386
-0.27418439
-0.26965569
-0.2647841
-0.25959283
-0.2541018
-0.24832649
-0.24228807
-0.23604965
-0.22963627
-0.22250091
-0.21400051
-0.3008628
-0.3013395
-0.30056337
-0.29888491
-0.29655433
-0.29368067
-0.29034046
-0.28659118
-0.28247311
-0.27801561
-0.27324095
-0.26816669
-0.26280805
-0.25717769
-0.25128272
-0.24513572
-0.23880711
-0.23233544
-0.22491903
-0.21539695
-0.31285225
-0.31160258
-0.30950173
-0.30682079
-0.30361994
-0.29998899
-0.29600267
-0.29170635
-0.28712741
-0.28228281
-0.27718338
-0.27183682
-0.26624911
-0.26042413
-0.25435968
-0.24805696
-0.24158589
-0.23500445
-0.22728731
-0.21664204
-0.32632837
-0.32318166
-0.31959173
-0.31575687
-0.31154017
-0.3070158
-0.30226065
-0.29730756
-0.29216845
-0.2868471
-0.28134224
-0.27564975
-0.2697646
-0.26368089
-0.2573873
-0.25087344
-0.24420197
-0.23745339
-0.22944294
-0.21768653
-0.34105489
-0.33588427
-0.33067613
-0.32556535
-0.32021555
-0.31468845
-0.30906343
-0.3033603
-0.29757554
-0.29169792
-0.28571126
-0.27959677
-0.27333554
-0.26690949
-0.2602978
-0.25348161
-0.24652131
-0.23954341
-0.23132208
-0.21868372
-0.35686264
-0.34956282
-0.34263002
-0.33614569
-0.32956807
-0.32294543
-0.31636168
-0.30982323
-0.30330848
-0.2967882
-0.29022801
-0.28359057
-0.27683801
-0.26993227
-0.26283066
-0.25548783
-0.24792983
-0.24026622
-0.23127034
-0.21748099
-0.37364013
-0.36409551
-0.35532584
-0.34736397
-0.33945071
-0.3316207
-0.32396244
-0.31646694
-0.30909237
-0.30179028
-0.29450824
-0.28719264
-0.27979172
-0.2722557
-0.26453157
-0.25655886
-0.24828475
-0.23950999
-0.22861743
-0.21261979
-0.20355599
-0.19408322
-0.18463528
-0.17528651
-0.16597982
-0.15675591
-0.14767055
-0.13875981
-0.13005252
-0.1215766
-0.1133571
-0.10541506
-0.097768076
-0.090430721
-0.083414596
-0.076728419
-0.070378171
-0.06436725
-0.058696604
-0.053364884
-0.048368595
-0.043702276
-0.039358671
-0.03532893
-0.031602799
-0.028168829
-0.025014582
-0.022126833
-0.019491773
-0.017095204
-0.014922719
-0.012959874
-0.011192351
-0.0096061036
-0.008187486
-0.0069233797
-0.0058013104
-0.0048095388
-0.0039372383
-0.0031743964
-0.0025126957
-0.0019433441
-0.0014648945
-0.0010602476
-0.00076934247
-0.00047361872
-0.00054465726
4.9422411e-05
-0.0017956061
0.0027050893
-0.20477212
-0.19487582
-0.18530489
-0.17596309
-0.16662833
-0.15736304
-0.14824299
-0.13930046
-0.13056139
-0.12205436
-0.11380479
-0.10583362
-0.098158391
-0.090793758
-0.083751381
-0.077040021
-0.070665705
-0.064631871
-0.058939496
-0.053587249
-0.048571645
-0.043887217
-0.039526701
-0.035481221
-0.031740497
-0.028293042
-0.025126377
-0.02222723
-0.019581743
-0.017175663
-0.01499453
-0.013023845
-0.011249233
-0.0096565914
-0.0082322209
-0.006962949
-0.0058362491
-0.0048403321
-0.0039643224
-0.0031981607
-0.0025334832
-0.001961454
-0.0014805645
-0.0010737108
-0.00078056105
-0.00048314893
-0.00055040135
4.1809553e-05
-0.0017828699
0.0026759788
-0.207267
-0.19647414
-0.18666149
-0.17737653
-0.168001
-0.15865504
-0.14946886
-0.14046497
-0.13166195
-0.12309069
-0.11477814
-0.10674511
-0.099009262
-0.091585583
-0.084486023
-0.077719548
-0.071292369
-0.065208076
-0.059467766
-0.054070188
-0.049011904
-0.044287466
-0.039889597
-0.035809386
-0.032036495
-0.028559362
-0.025365415
-0.02244128
-0.019772985
-0.017346156
-0.015146209
-0.013158515
-0.011368574
-0.0097621521
-0.0083254257
-0.0070450992
-0.0059085273
-0.0049038062
-0.0040199505
-0.0032467949
-0.0025758726
-0.0019982488
-0.0015122889
-0.0011008585
-0.00080311388
-0.00050218223
-0.00056189794
2.6838976e-05
-0.0017577321
0.0026183424
-0.2108081
-0.19858699
-0.1884256
-0.17932773
-0.1699441
-0.16049786
-0.15123503
-0.14216086
-0.13327765
-0.12462162
-0.11622383
-0.10810526
-0.1002839
-0.092775634
-0.085593161
-0.078745983
-0.072240759
-0.066081467
-0.060269508
-0.054803855
-0.04968123
-0.044896278
-0.040441764
-0.03630877
-0.032486907
-0.028964529
-0.025728948
-0.022766652
-0.020063509
-0.017604974
-0.015376277
-0.013362601
-0.01154925
-0.0099217986
-0.00846623
-0.0071690608
-0.006017463
-0.0049993562
-0.004103586
-0.0033198229
-0.0026394418
-0.0020533552
-0.0015597372
-0.0011413995
-0.00083674387
-0.00053049377
-0.00057898333
4.7397848e-06
-0.0017206735
0.0025333894
-0.21508893
-0.20088368
-0.19027516
-0.18156767
-0.17226459
-0.1627227
-0.15339459
-0.14426619
-0.13530758
-0.12656224
-0.11807028
-0.10985409
-0.10193221
-0.094322083
-0.087037907
-0.080090276
-0.073486731
-0.067231996
-0.061328086
-0.055774451
-0.050568169
-0.045704137
-0.04117528
-0.036972759
-0.033086191
-0.029503878
-0.02621303
-0.023199988
-0.020450442
-0.01794964
-0.015682588
-0.01363423
-0.011789623
-0.01013409
-0.008653362
-0.0073337087
-0.0061620595
-0.0051260989
-0.0042144457
-0.0034165511
-0.0027235771
-0.0021262309
-0.001622431
-0.001194914
-0.00088108516
-0.00056775829
-0.0006014459
-2.4124684e-05
-0.0016725012
0.0024230045
-0.21969492
-0.20303626
-0.19190027
-0.18382028
-0.1747493
-0.16515019
-0.15578317
-0.14663747
-0.13763229
-0.12881259
-0.12023264
-0.11191981
-0.10389389
-0.096174393
-0.088777917
-0.081716987
-0.07500065
-0.068634896
-0.062622793
-0.056964646
-0.051658196
-0.046698843
-0.042079867
-0.037792662
-0.03382697
-0.030171119
-0.026812269
-0.023736645
-0.020929764
-0.018376662
-0.016062094
-0.013970733
-0.012087346
-0.010396958
-0.0088849978
-0.0075374325
-0.0063408946
-0.0052827784
-0.0043514222
-0.0035360042
-0.0028274212
-0.0022161244
-0.0016997128
-0.0012608298
-0.00093564621
-0.00061354648
-0.00062901369
-5.9297965e-05
-0.0016142609
0.002289638
-0.22418682
-0.20483587
-0.19306795
-0.18578271
-0.17716994
-0.1676273
-0.15826226
-0.14914076
-0.14013558
-0.13127597
-0.12262873
-0.1142316
-0.10610816
-0.098280582
-0.090768631
-0.083587802
-0.076749511
-0.070261676
-0.064128986
-0.058353077
-0.052932752
-0.047864237
-0.043141432
-0.038756169
-0.034698469
-0.030956811
-0.027518386
-0.024369354
-0.021495093
-0.018880431
-0.016509868
-0.014367783
-0.012438624
-0.010707078
-0.0091582283
-0.0077776913
-0.0065517536
-0.0054674694
-0.0045128462
-0.0036767396
-0.002949732
-0.0023219709
-0.0017906747
-0.00133838
-0.00099978726
-0.00066732645
-0.00066135841
-0.00010028891
-0.0015471567
0.0021361588
-0.22827965
-0.2066595
-0.19399663
-0.18726661
-0.1793063
-0.170056
-0.16077666
-0.15170836
-0.14274373
-0.13388484
-0.12519766
-0.11673294
-0.10852255
-0.10059254
-0.092966327
-0.085663177
-0.078697712
-0.072080443
-0.065818213
-0.059914454
-0.054369429
-0.04918052
-0.044342516
-0.03984791
-0.035687185
-0.031849102
-0.028320988
-0.025089015
-0.022138465
-0.019453986
-0.017019832
-0.014820081
-0.012838844
-0.011060442
-0.0094695772
-0.00805148
-0.0067920479
-0.0056779506
-0.0046968208
-0.0038371463
-0.0030891496
-0.0024426318
-0.0018943703
-0.0014267894
-0.0010728841
-0.00072860292
-0.00069820811
-0.0001466743
-0.0014725313
0.0019658076
-0.22963541
-0.20870457
-0.19534025
-0.18819716
-0.18072375
-0.17205475
-0.16305077
-0.15410688
-0.14524111
-0.13644867
-0.12777888
-0.11929062
-0.11102731
-0.10302131
-0.095300366
-0.087888171
-0.080803484
-0.074060308
-0.067668431
-0.061633793
-0.055958761
-0.050642441
-0.045681007
-0.04106803
-0.036794805
-0.032850664
-0.029223305
-0.025899088
-0.022863339
-0.020100624
-0.017595015
-0.015330328
-0.013290351
-0.011459038
-0.0098206949
-0.0083601351
-0.0070628327
-0.0059150321
-0.0049039461
-0.0040176476
-0.0032459509
-0.0025782624
-0.0020108561
-0.0015260287
-0.0011548563
-0.00079719403
-0.00073955936
-0.00019785283
-0.0013921655
0.0017828142
-0.21997973
-0.20806331
-0.19659433
-0.18805386
-0.18053011
-0.17265136
-0.16426378
-0.15569223
-0.14711547
-0.13856163
-0.13006129
-0.1216738
-0.1134556
-0.10544997
-0.097692584
-0.090214297
-0.083040604
-0.076191393
-0.069681456
-0.063520982
-0.057715919
-0.052268339
-0.047176828
-0.042436881
-0.038041286
-0.033980499
-0.030243014
-0.026815715
-0.023684219
-0.020833189
-0.018246639
-0.0159082
-0.013801377
-0.011909771
-0.010217277
-0.0087082681
-0.0073677546
-0.0061815089
-0.0051362723
-0.0042196467
-0.0034209825
-0.0027292327
-0.0021401084
-0.0016357291
-0.0012451243
-0.00087217749
-0.00078486666
-0.00025178292
-0.0013084668
0.0015928453
-0.19819329
-0.20203072
-0.1961927
-0.18689617
-0.17897074
-0.17151637
-0.16358721
-0.15532714
-0.1469995
-0.13866911
-0.13035898
-0.12212428
-0.11402549
-0.10611058
-0.098418696
-0.090983928
-0.08383501
-0.076994869
-0.070481031
-0.064306137
-0.05847832
-0.053001571
-0.047876147
-0.043098979
-0.038664073
-0.034562908
-0.030784819
-0.027317375
-0.024146729
-0.021257961
-0.018635387
-0.016262851
-0.014123986
-0.012202456
-0.010482164
-0.0089474425
-0.007583227
-0.0063751835
-0.0053099205
-0.0043748919
-0.0035592496
-0.002851812
-0.0022477984
-0.0017297541
-0.0013238495
-0.00094038934
-0.00082407217
-0.00030529102
-0.0012212859
0.0014042479
-0.18730595
-0.19225001
-0.18825239
-0.17921267
-0.17165413
-0.16499711
-0.15790971
-0.15040187
-0.14276438
-0.13507385
-0.12734437
-0.11962724
-0.11198562
-0.10447151
-0.097128037
-0.089993511
-0.0831011
-0.07647812
-0.070146303
-0.064122268
-0.058417876
-0.05304057
-0.047993779
-0.043277325
-0.038887832
-0.034819131
-0.03106266
-0.027607849
-0.024442491
-0.021553097
-0.018925221
-0.016543771
-0.014393283
-0.012458176
-0.010722982
-0.0091725453
-0.0077922091
-0.0065679582
-0.0054866312
-0.004535859
-0.0037048332
-0.0029825348
-0.0023636755
-0.0018318692
-0.0014092697
-0.0010157594
-0.00086532907
-0.00036792965
-0.0011207902
0.0011998196
-0.17815229
-0.18061569
-0.1778586
-0.17058079
-0.16392328
-0.15800267
-0.15171893
-0.14497555
-0.13803301
-0.13098715
-0.12385447
-0.11668043
-0.10952714
-0.10244866
-0.095490467
-0.088693583
-0.0820944
-0.075723777
-0.069607061
-0.063764466
-0.058211364
-0.052958572
-0.048012707
-0.043376573
-0.039049551
-0.035028001
-0.031305658
-0.027874019
-0.024722724
-0.021839916
-0.019212581
-0.016826869
-0.014668385
-0.012722457
-0.01097438
-0.009409629
-0.0080140584
-0.0067740617
-0.0056767813
-0.0047100883
-0.0038632549
-0.0031254781
-0.0024909257
-0.0019444351
-0.0015036964
-0.0010992841
-0.00091117129
-0.00043743122
-0.0010104054
0.00097492372
-0.16805757
-0.16806368
-0.1658074
-0.16062224
-0.15523112
-0.15009476
-0.14463763
-0.13873745
-0.1325669
-0.12622685
-0.11974916
-0.11317751
-0.1065708
-0.099983869
-0.093464286
-0.087055317
-0.080796138
-0.074720862
-0.06885833
-0.063232332
-0.057861821
-0.052761133
-0.047940274
-0.043405265
-0.03915851
-0.035199169
-0.031523547
-0.028125479
-0.024996711
-0.022127264
-0.019505784
-0.017119874
-0.014956396
-0.013001758
-0.011242166
-0.0096638575
-0.0082533117
-0.0069974254
-0.0058837248
-0.0049003851
-0.0040368081
-0.0032824415
-0.0026309253
-0.0020683324
-0.0016078264
-0.0011907647
-0.0009625735
-0.00051073338
-0.00089783362
0.00073986333
-0.15708951
-0.15536572
-0.15319895
-0.14974019
-0.14566944
-0.14137633
-0.13675008
-0.13172272
-0.12637545
-0.12079131
-0.11501725
-0.10909943
-0.10309265
-0.097050681
-0.091022182
-0.085051916
-0.079181057
-0.073446379
-0.067879823
-0.062508527
-0.057354924
-0.05243688
-0.047767892
-0.043357372
-0.039210959
-0.035330868
-0.031716243
-0.028363534
-0.025266868
-0.02241841
-0.01980872
-0.017427089
-0.015261856
-0.013300702
-0.011530922
-0.0099396693
-0.0085141824
-0.0072419759
-0.0061110553
-0.0051099766
-0.0042283354
-0.0034558644
-0.0027857262
-0.0022051746
-0.001722998
-0.0012908876
-0.0010207538
-0.00058683217
-0.00078898147
0.0005027943
-0.1449581
-0.14256275
-0.14057544
-0.13840493
-0.13552687
-0.13210326
-0.12829537
-0.12411911
-0.1195968
-0.11478443
-0.10973593
-0.10449924
-0.099124822
-0.093664052
-0.088165427
-0.082674109
-0.077232141
-0.071877944
-0.066645776
-0.061565527
-0.056662677
-0.05195833
-0.047469317
-0.043208387
-0.039184457
-0.035402893
-0.031865837
-0.028572541
-0.025519723
-0.022701914
-0.020111813
-0.017740619
-0.015578357
-0.013614183
-0.01183666
-0.010234025
-0.0087944205
-0.0075061087
-0.0063576852
-0.0053381773
-0.0044374543
-0.0036455759
-0.0029553089
-0.0023549935
-0.0018493644
-0.0013996012
-0.0010864005
-0.00066490814
-0.0006896865
0.00027229182
-0.13198601
-0.12980131
-0.12821518
-0.12697485
-0.12508071
-0.12249556
-0.11947623
-0.11610311
-0.11237473
-0.1083214
-0.10399541
-0.09944586
-0.094718001
-0.089858451
-0.08491429
-0.079930178
-0.07494797
-0.070006574
-0.06514154
-0.060384679
-0.05576385
-0.051302871
-0.04702152
-0.042935624
-0.039057224
-0.035394784
-0.031953457
-0.028735374
-0.025739962
-0.022964271
-0.020403306
-0.018050359
-0.015897326
-0.013935017
-0.01215344
-0.010542078
-0.0090901297
-0.0077867386
-0.0066212113
-0.0055831465
-0.0046627801
-0.0038505474
-0.0031389286
-0.0025172287
-0.0019865971
-0.0015165311
-0.001159962
-0.00074419766
-0.00060579709
5.7524546e-05
-0.11887791
-0.11732456
-0.1162677
-0.11570423
-0.11458604
-0.11276125
-0.11047796
-0.10784476
-0.10485705
-0.10152781
-0.097901202
-0.094023909
-0.089937742
-0.085683814
-0.081304777
-0.076843587
-0.072341152
-0.067835864
-0.063363469
-0.058956716
-0.054645008
-0.050454178
-0.046406379
-0.042520077
-0.03881011
-0.03528782
-0.031961244
-0.02883534
-0.025912258
-0.023191628
-0.020670862
-0.018345469
-0.016209361
-0.014255151
-0.012474452
-0.01085814
-0.009396617
-0.0080800426
-0.0068985581
-0.0058424401
-0.0049023933
-0.0040692853
-0.0033354396
-0.0026909953
-0.0021340907
-0.001641166
-0.0012416927
-0.00082423103
-0.00054242286
-0.00013280927
-0.10616178
-0.10530817
-0.10479791
-0.10474984
-0.10423983
-0.10307461
-0.10145547
-0.099490516
-0.097178262
-0.094522347
-0.09155693
-0.088323058
-0.084857945
-0.081198174
-0.077381768
-0.073447602
-0.069434323
-0.065379029
-0.061316756
-0.057280213
-0.053299438
-0.049401481
-0.045610184
-0.041946071
-0.038426312
-0.035064768
-0.031872094
-0.0288559
-0.02602096
-0.023369444
-0.020901192
-0.018613984
-0.016503832
-0.014565268
-0.012791624
-0.011175303
-0.0097080383
-0.0083811326
-0.0071856821
-0.0061127494
-0.0051536145
-0.0042996421
-0.0035431416
-0.0028749665
-0.0022908733
-0.0017728122
-0.0013315633
-0.00090488305
-0.00050319388
-0.00029164927
-0.094112544
-0.093868936
-0.093850839
-0.094209968
-0.094180134
-0.093569638
-0.092531213
-0.091158169
-0.089450928
-0.087408308
-0.085055193
-0.082425355
-0.079550585
-0.076462302
-0.073193937
-0.069780192
-0.066255954
-0.062655819
-0.059013312
-0.055360276
-0.051726518
-0.04813948
-0.044623954
-0.041201869
-0.037892169
-0.034710767
-0.031670568
-0.028781551
-0.026050908
-0.023483224
-0.021080689
-0.01884334
-0.016769314
-0.014855114
-0.013095873
-0.011485615
-0.010017514
-0.0086841208
-0.0074775989
-0.0063898996
-0.0054129836
-0.0045387844
-0.0037597443
-0.0030673376
-0.0024555751
-0.0019105591
-0.0014291985
-0.00098629579
-0.00048971222
-0.00041459826
-0.08286405
-0.083095578
-0.083478956
-0.08415759
-0.084505455
-0.084349698
-0.083804417
-0.082944399
-0.081769309
-0.080274872
-0.078478118
-0.076405222
-0.074082026
-0.071534559
-0.068791084
-0.065881847
-0.062837844
-0.059690201
-0.056469905
-0.053207159
-0.049930779
-0.046667827
-0.043443296
-0.040279843
-0.037197577
-0.034213936
-0.031343625
-0.028598627
-0.025988267
-0.023519327
-0.021196203
-0.019021096
-0.016994228
-0.015114072
-0.013377593
-0.011780498
-0.010317468
-0.0089823957
-0.0077686011
-0.0066690177
-0.0056763871
-0.004783285
-0.003982433
-0.0032658674
-0.0026264544
-0.0020532696
-0.0015338474
-0.0010687343
-0.00050126869
-0.00050065698
-0.072472683
-0.073048414
-0.073734018
-0.074652051
-0.075289792
-0.075496687
-0.075358166
-0.07493192
-0.074215253
-0.073201271
-0.071900461
-0.070331847
-0.06851521
-0.06647112
-0.064222551
-0.061794825
-0.059214697
-0.056509602
-0.053707287
-0.050835474
-0.047921271
-0.04499066
-0.042068132
-0.039176391
-0.036336087
-0.033565616
-0.030880989
-0.028295765
-0.02582105
-0.02346554
-0.021235621
-0.019135502
-0.017167387
-0.015331665
-0.013627119
-0.012051148
-0.010599987
-0.0092689257
-0.0080525126
-0.0069447419
-0.0059392246
-0.0050292543
-0.0042079687
-0.0034679465
-0.0028014453
-0.0021995755
-0.0016443765
-0.0011524058
-0.00053491169
-0.00055245898
-0.062947568
-0.063758142
-0.064654962
-0.065739254
-0.066589449
-0.067075857
-0.067262524
-0.067192974
-0.066861845
-0.066259921
-0.06539225
-0.064271511
-0.062911725
-0.061328137
-0.059538514
-0.057563177
-0.055424295
-0.053145282
-0.050750363
-0.04826421
-0.045711533
-0.04311658
-0.040502696
-0.037891986
-0.035305015
-0.032760558
-0.030275403
-0.027864218
-0.025539485
-0.023311475
-0.021188289
-0.019175932
-0.01727843
-0.015497979
-0.013835118
-0.012288914
-0.010857156
-0.00953656
-0.0083229519
-0.0072114461
-0.0061965991
-0.0052724935
-0.0044328099
-0.0036706842
-0.0029782193
-0.0023478799
-0.0017592873
-0.0012372877
-0.00058590001
-0.00057585772
-0.054271667
-0.055231085
-0.056262769
-0.057449654
-0.058444907
-0.05913738
-0.059574847
-0.059789577
-0.059773993
-0.059517036
-0.059019347
-0.058288213
-0.057332493
-0.056162494
-0.05479105
-0.053233619
-0.051507753
-0.049632617
-0.047628636
-0.045517128
-0.043319918
-0.041058942
-0.03875581
-0.036431434
-0.034105699
-0.03179718
-0.029522899
-0.02729814
-0.025136314
-0.023048886
-0.021045343
-0.019133219
-0.017318153
-0.015603994
-0.013992921
-0.012485601
-0.011081348
-0.009778298
-0.0085735763
-0.0074634585
-0.0064435059
-0.0055086562
-0.0046532445
-0.0038710075
-0.0031542573
-0.0024963742
-0.0018767687
-0.0013230124
-0.00064847686
-0.00057887239
-0.046412249
-0.047454614
-0.04856038
-0.049797463
-0.050881087
-0.051716528
-0.052339123
-0.052772387
-0.053007258
-0.053031474
-0.052842286
-0.0524426
-0.051836899
-0.051031137
-0.050033681
-0.048855461
-0.047509593
-0.046011018
-0.044376222
-0.042622953
-0.040769865
-0.038836157
-0.036841211
-0.034804218
-0.03274384
-0.030677902
-0.028623124
-0.026594896
-0.024607095
-0.022671955
-0.020799983
-0.018999927
-0.017278781
-0.015641838
-0.014092765
-0.012633714
-0.011265454
-0.0099875041
-0.0087982835
-0.0076952462
-0.0066750004
-0.0057333945
-0.0048655145
-0.0040657596
-0.0033269272
-0.0026430743
-0.0019947856
-0.0014088369
-0.00071680412
-0.00057019508
-0.039326242
-0.040402352
-0.041535776
-0.042782137
-0.043908357
-0.044834284
-0.045585851
-0.046179904
-0.046606633
-0.046853249
-0.046914596
-0.046790214
-0.046481068
-0.045989486
-0.04531998
-0.04447945
-0.043476937
-0.042323374
-0.041031389
-0.039615095
-0.038089814
-0.036471761
-0.034777727
-0.033024758
-0.031229819
-0.029409493
-0.027579694
-0.025755422
-0.023950542
-0.022177617
-0.020447774
-0.018770622
-0.017154209
-0.015605018
-0.014128001
-0.012726646
-0.011403058
-0.010158073
-0.0089913642
-0.007901557
-0.0068863273
-0.0059424765
-0.0050659191
-0.0042517855
-0.0034935565
-0.0027858725
-0.0021111925
-0.0014936979
-0.0007858296
-0.00055762837
-0.03296474
-0.03403908
-0.035166074
-0.036391269
-0.037524618
-0.03849884
-0.039332863
-0.040038571
-0.040606034
-0.041022553
-0.041281452
-0.041379859
-0.04131609
-0.041089618
-0.040701804
-0.040156129
-0.039458058
-0.038614892
-0.037635651
-0.036530934
-0.035312725
-0.033994149
-0.032589203
-0.031112482
-0.029578893
-0.02800336
-0.026400545
-0.024784596
-0.02316891
-0.021565935
-0.019987002
-0.018442203
-0.0169403
-0.015488677
-0.014093328
-0.012758874
-0.011488612
-0.010284579
-0.0091476328
-0.0080775342
-0.0070730225
-0.0061318759
-0.0052508935
-0.0044260022
-0.0036514966
-0.0029226015
-0.002223854
-0.0015763247
-0.00085186341
-0.00054687773
-0.02727639
-0.028324429
-0.029421097
-0.030603661
-0.031717842
-0.032707642
-0.03358683
-0.034363676
-0.035028617
-0.035569535
-0.035978988
-0.036252532
-0.036386639
-0.036378692
-0.036227618
-0.035934148
-0.035500759
-0.03493161
-0.034232493
-0.033410767
-0.032475234
-0.031435967
-0.030304109
-0.029091653
-0.027811195
-0.026475689
-0.025098185
-0.023691579
-0.022268383
-0.02084051
-0.019419086
-0.018014295
-0.016635256
-0.015289933
-0.013985081
-0.012726222
-0.01151765
-0.010362456
-0.0092625765
-0.0082188386
-0.0072310132
-0.0062978542
-0.0054170775
-0.004585457
-0.003798179
-0.0030511009
-0.0023307464
-0.0016553677
-0.00091273102
-0.00054101545
-0.022209681
-0.023215527
-0.024266175
-0.025392056
-0.026468604
-0.027449631
-0.028345128
-0.02916077
-0.029887704
-0.030514741
-0.031034265
-0.031440959
-0.031730149
-0.031897817
-0.03194115
-0.031858789
-0.031650846
-0.031318888
-0.030865958
-0.030296554
-0.02961658
-0.028833238
-0.027954895
-0.026990918
-0.025951487
-0.024847388
-0.023689794
-0.022490041
-0.021259401
-0.020008878
-0.018749011
-0.017489699
-0.016240057
-0.015008293
-0.013801621
-0.012626196
-0.011487085
-0.010388251
-0.0093325652
-0.0083218199
-0.0073567533
-0.0064370674
-0.0055613982
-0.0047273958
-0.0039311745
-0.0031692864
-0.0024300254
-0.0017295068
-0.00096752478
-0.00054068825
-0.017714801
-0.018669205
-0.019664578
-0.020725656
-0.021752568
-0.022707593
-0.023597952
-0.024427474
-0.025188215
-0.025870134
-0.026465865
-0.02696976
-0.02737657
-0.027681465
-0.027880498
-0.027970843
-0.027950844
-0.02782005
-0.027579265
-0.027230584
-0.026777385
-0.026224291
-0.025577088
-0.024842623
-0.024028673
-0.023143788
-0.022197114
-0.021198209
-0.020156842
-0.0190828
-0.017985702
-0.016874819
-0.015758917
-0.014646116
-0.013543777
-0.012458407
-0.011395594
-0.010359963
-0.0093551432
-0.0083837606
-0.007447425
-0.006546727
-0.0056811969
-0.0048493634
-0.0040482733
-0.0032752287
-0.0025200664
-0.0017975249
-0.0010161242
-0.00054486613
-0.013744715
-0.014643433
-0.015579227
-0.016572024
-0.017542504
-0.018460215
-0.019330323
-0.02015534
-0.02092832
-0.021640465
-0.022284945
-0.022856168
-0.023348744
-0.023757497
-0.024077854
-0.024306057
-0.024439231
-0.024475444
-0.02441378
-0.024254407
-0.023998606
-0.023648779
-0.023208422
-0.022682072
-0.022075229
-0.02139425
-0.02064622
-0.019838808
-0.018980111
-0.018078477
-0.01714234
-0.016180053
-0.015199726
-0.014209084
-0.013215331
-0.012225041
-0.011244065
-0.010277452
-0.0093293994
-0.0084032006
-0.0075012133
-0.0066248289
-0.0057744151
-0.0049493534
-0.0041476027
-0.0033672511
-0.0025994961
-0.001858355
-0.0010587143
-0.00055176466
-0.010256625
-0.011099032
-0.011974588
-0.012899106
-0.013810389
-0.014684195
-0.015524145
-0.016331793
-0.017101192
-0.017824796
-0.018496468
-0.019110929
-0.019662949
-0.020147357
-0.020559346
-0.020894662
-0.021149678
-0.021321456
-0.021407842
-0.021407541
-0.021320176
-0.021146327
-0.020887544
-0.020546337
-0.020126141
-0.019631264
-0.019066797
-0.018438521
-0.017752782
-0.01701636
-0.016236326
-0.015419889
-0.014574257
-0.013706488
-0.012823359
-0.011931238
-0.011035982
-0.010142831
-0.0092563344
-0.0083802756
-0.0075176119
-0.0066704201
-0.0058398221
-0.0050259987
-0.004227779
-0.003444049
-0.0026672385
-0.0019111239
-0.0010954756
-0.0005595978
-0.0072119733
-0.0080001416
-0.0088175615
-0.009676495
-0.010529015
-0.011356161
-0.012160362
-0.012942459
-0.013697443
-0.014418957
-0.015101623
-0.015740622
-0.016331077
-0.016868051
-0.01734679
-0.017762878
-0.018112302
-0.018391523
-0.018597562
-0.018728083
-0.018781471
-0.018756882
-0.018654286
-0.018474491
-0.018219146
-0.017890721
-0.017492472
-0.017028375
-0.016503054
-0.015921682
-0.015289869
-0.014613547
-0.013898837
-0.013151924
-0.012378927
-0.011585775
-0.01077809
-0.0099610792
-0.0091394326
-0.0083172349
-0.00749788
-0.0066839961
-0.0058773529
-0.0050788521
-0.0042881315
-0.0035048609
-0.0027226111
-0.0019552237
-0.0011265004
-0.00056699746
-0.0045778148
-0.005315429
-0.006078548
-0.0068763115
-0.0076726776
-0.0084531572
-0.0092192457
-0.0099712256
-0.010704932
-0.011415094
-0.012097084
-0.012746609
-0.013359242
-0.013930421
-0.014455632
-0.014930527
-0.015350984
-0.015713171
-0.016013623
-0.016249327
-0.016417793
-0.016517126
-0.016546074
-0.01650408
-0.016391308
-0.016208656
-0.015957755
-0.015640941
-0.01526122
-0.014822202
-0.014328036
-0.013783311
-0.013192962
-0.012562159
-0.011896195
-0.011200369
-0.010479873
-0.0097396744
-0.0089844104
-0.0082182824
-0.0074449554
-0.0066674643
-0.0058881048
-0.0051084029
-0.004328726
-0.0035494879
-0.0027653241
-0.0019903104
-0.0011517969
-0.00057308538
-0.0023283336
-0.003020714
-0.0037350258
-0.0044777534
-0.005222683
-0.0059590589
-0.006687624
-0.007408214
-0.0081173916
-0.0088108413
-0.0094846305
-0.010134992
-0.010757983
-0.011349479
-0.011905305
-0.012421329
-0.012893507
-0.013317936
-0.013690927
-0.014009072
-0.01426932
-0.014469042
-0.014606095
-0.014678877
-0.014686374
-0.0146282
-0.014504612
-0.014316521
-0.014065482
-0.01375367
-0.013383839
-0.012959265
-0.012483674
-0.011961161
-0.011396097
-0.010793026
-0.010156562
-0.0094912756
-0.0088015868
-0.0080916512
-0.0073652493
-0.0066256794
-0.0058756352
-0.0051171572
-0.0043512484
-0.003579002
-0.0027960371
-0.0020167332
-0.0011716829
-0.00057756888
-0.00043842258
-0.0010909915
-0.0017623195
-0.0024565056
-0.0031554062
-0.0038513772
-0.0045445552
-0.0052344034
-0.0059180891
-0.0065921078
-0.0072531412
-0.0078979085
-0.0085229307
-0.0091245254
-0.0096988967
-0.010242199
-0.010750575
-0.011220199
-0.011647331
-0.012028383
-0.012359977
-0.012639013
-0.012862731
-0.013028769
-0.013135224
-0.013180698
-0.013164339
-0.013085871
-0.012945609
-0.012744465
-0.012483936
-0.012166074
-0.011793451
-0.011369095
-0.010896426
-0.010379173
-0.0098212854
-0.0092268287
-0.0085998812
-0.007944421
-0.0072642099
-0.0065626784
-0.0058427934
-0.0051069954
-0.0043568181
-0.0035939506
-0.0028149003
-0.0020343527
-0.0011859039
-0.00058001765
0.0010884822
0.00046834979
-0.00016759543
-0.00082170178
-0.0014822282
-0.0021439696
-0.0028065673
-0.0034691863
-0.0041294788
-0.0047845971
-0.005431732
-0.0060680195
-0.0066903897
-0.0072955631
-0.0078801066
-0.0084404762
-0.0089730463
-0.0094741424
-0.0099400861
-0.010367245
-0.010752088
-0.011091241
-0.01138155
-0.011620136
-0.011804461
-0.011932377
-0.012002186
-0.012012678
-0.011963169
-0.011853527
-0.011684183
-0.01145613
-0.011170911
-0.010830585
-0.010437683
-0.0099951451
-0.0095062502
-0.0089745258
-0.0084036519
-0.0077973524
-0.0071592802
-0.0064928974
-0.0058013383
-0.005087336
-0.0043528468
-0.0036000559
-0.0028262429
-0.0020463539
-0.0011967005
-0.00058158569
0.0022949089
0.0017014894
0.0010945308
0.00047329972
-0.00015545378
-0.00078847042
-0.0014250106
-0.0020639911
-0.0027034314
-0.0033409956
-0.0039742783
-0.0046007522
-0.0052176847
-0.0058221353
-0.0064109872
-0.0069809737
-0.0075286992
-0.008050665
-0.0085433039
-0.0090030205