/*--------------------------------*- C++ -*----------------------------------*\
  =========                 |
  \\      /  F ield         | OpenFOAM: The Open Source CFD Toolbox
   \\    /   O peration     | Website:  https://openfoam.org
    \\  /    A nd           | Version:  6
     \\/     M anipulation  |
\*---------------------------------------------------------------------------*/
FoamFile
{
    version     2.0;
    format      ascii;
    class       surfaceScalarField;
    location    "156";
    object      phi_0;
}
// * * * * * * * * * * * * * * * * * * * * * * * * * * * * * * * * * * * * * //

dimensions      [0 3 -1 0 0 0 0];

internalField   nonuniform List<scalar> 
18180
(
0.0003187297
-0.00016316101
-0.00015556868
0.0013092127
-0.0013669199
0.00037643682
0.0030328915
-0.0033336279
0.0016099492
0.0055497805
-0.0059759723
0.0034590832
0.008918208
-0.0092390989
0.0058706714
0.013192828
-0.013079556
0.0088049355
0.018421963
-0.017459875
0.01223074
0.024644633
-0.022345843
0.016123173
0.031887406
-0.027703369
0.020460597
0.040161325
-0.03349587
0.025221952
0.049459219
-0.039682514
0.030384619
0.059753782
-0.046217295
0.035922732
0.070996801
-0.053048946
0.041805927
0.083120014
-0.060121692
0.047998479
0.096038195
-0.067376956
0.054458775
0.10965499
-0.074756126
0.061139333
0.12387093
-0.082204227
0.067988289
0.13859866
-0.089674218
0.074946488
0.15383675
-0.097148971
0.081910874
-0.10462611
0.088679038
0.16978383
0.00039749756
-0.00056065857
0.0016095966
-0.0025790189
0.0036893223
-0.0054133536
0.0066874511
-0.0089741011
0.010650664
-0.013202312
0.015617886
-0.018046778
0.021616281
-0.02345827
0.028657286
-0.029386848
0.036732981
-0.035779064
0.045813188
-0.042576078
0.055843739
-0.049713065
0.066746262
-0.057119817
0.078419725
-0.064722409
0.090743846
-0.072445813
0.10358413
-0.080217245
0.11679798
-0.087969974
0.13024085
-0.095647095
0.14377305
-0.10320642
0.15725864
-0.11063456
-0.11786203
0.17049456
0.00048062397
-0.0010412825
0.0019187003
-0.0040170952
0.0043524834
-0.0078471366
0.0078165713
-0.012438189
0.012337677
-0.017723417
0.017929224
-0.023638326
0.024586272
-0.030115318
0.032281238
-0.037081815
0.040960875
-0.0444587
0.050544962
-0.052160164
0.060927114
-0.060095217
0.071977856
-0.068170559
0.083549851
-0.076294405
0.095484866
-0.084380828
0.10762174
-0.092354122
0.11980431
-0.10015254
0.13188805
-0.10773084
0.14374353
-0.11506189
0.15524874
-0.12213978
-0.12891442
0.16630112
0.00056617026
-0.0016074528
0.0022279446
-0.0056788696
0.005000616
-0.010619808
0.0088940189
-0.016331592
0.01390527
-0.022734668
0.020011899
-0.029744954
0.02716651
-0.037269929
0.035293444
-0.045208749
0.04428789
-0.053453146
0.054017814
-0.061890089
0.06432876
-0.070406163
0.075051174
-0.078892973
0.086009568
-0.087252799
0.097032541
-0.095403801
0.1079625
-0.10328408
0.11866399
-0.11085403
0.12902968
-0.11809652
0.13898299
-0.1250152
0.14847492
-0.13163171
-0.13794531
0.15750582
0.00065088687
-0.0022583397
0.002524344
-0.0075523267
0.0056036395
-0.013699104
0.0098644734
-0.020592426
0.015264624
-0.028134819
0.021736427
-0.036216758
0.029182503
-0.044716005
0.03747492
-0.053501166
0.046458032
-0.062436257
0.05595487
-0.071386926
0.065776466
-0.080227759
0.075733046
-0.088849553
0.085645749
-0.097165502
0.095357423
-0.10511547
0.10474123
-0.11266789
0.11370621
-0.11981901
0.12219937
-0.12658969
0.13020456
-0.13302039
0.13773799
-0.13916514
-0.14506768
0.14486035
0.00073063648
-0.0029889761
0.0027920886
-0.0096137788
0.0061265793
-0.017033594
0.01066672
-0.025132567
0.016322662
-0.033790761
0.022975259
-0.042869355
0.030474449
-0.052215194
0.038642421
-0.061669138
0.047281212
-0.071075049
0.056183758
-0.080289472
0.065146909
-0.089190911
0.07398462
-0.097687263
0.082539499
-0.10572038
0.090691311
-0.11326729
0.098361458
-0.12033804
0.1055133
-0.12697085
0.11214878
-0.13322517
0.11830238
-0.13917399
0.12403359
-0.14489635
-0.15046339
0.1294293
0.00080073184
-0.003789708
0.0030139184
-0.011826965
0.0065328991
-0.020552575
0.011240059
-0.029839727
0.016992708
-0.039543409
0.023618559
-0.049495205
0.030918231
-0.059514867
0.038673335
-0.069424243
0.04665879
-0.079060504
0.054657414
-0.088288096
0.062474472
-0.097007969
0.069949965
-0.10516276
0.076966968
-0.11273738
0.083455098
-0.11975542
0.089389101
-0.12627204
0.094783296
-0.13236504
0.099683278
-0.13812515
0.10415646
-0.14364717
0.10828306
-0.14902295
-0.15433365
0.11215332
0.00085605934
-0.0046457673
0.0031720628
-0.014142969
0.0067872301
-0.024167742
0.011529809
-0.034582306
0.017203443
-0.045217043
0.023586559
-0.055878322
0.030439887
-0.066368195
0.037519341
-0.076503696
0.04459181
-0.086132973
0.051451013
-0.095147298
0.057930637
-0.10348759
0.063912776
-0.1111449
0.069330638
-0.11815525
0.074165679
-0.12459046
0.078440234
-0.1305466
0.082207307
-0.13613211
0.085539463
-0.14145731
0.088518514
-0.14662622
0.091227303
-0.15173174
-0.15685213
0.093745779
0.00089026294
-0.0055360303
0.0032482851
-0.016500991
0.0068576258
-0.027777083
0.01149247
-0.03921715
0.016906817
-0.05063139
0.022838903
-0.061810409
0.029023678
-0.072552969
0.035209258
-0.082689276
0.041173934
-0.092097649
0.046740398
-0.10071376
0.051784653
-0.10853185
0.056238398
-0.11559864
0.060085123
-0.12200197
0.063351224
-0.12785656
0.066094183
-0.13328956
0.068390017
-0.13842795
0.070321877
-0.14338917
0.071971182
-0.14827553
0.073411864
-0.15317242
-0.15814777
0.074707508
0.00089981873
-0.006435849
0.0032333821
-0.018834555
0.006729167
-0.031272868
0.011111181
-0.043599164
0.01609249
-0.055612699
0.021384628
-0.067102547
0.026713889
-0.07788223
0.031839118
-0.087814505
0.036567085
-0.096825615
0.040762266
-0.10490894
0.044349463
-0.11211905
0.047309332
-0.11855851
0.049668381
-0.12436102
0.051485782
-0.12967396
0.052839486
-0.13464326
0.053813773
-0.13940224
0.054489657
-0.14406505
0.054938758
-0.14872463
0.055220479
-0.15345414
0.055380906
-0.1583082
-0.00020237855
0.00020237853
1.9115276e-12
-0.00067774729
0.00047536877
-1.241207e-11
-0.0013424273
0.00066468004
-1.654905e-11
-0.0021322964
0.00078986916
-1.3762957e-11
-0.0029957761
0.00086347974
-1.1879882e-11
-0.003890744
0.00089496794
-8.6379827e-12
-0.0047823001
0.00089155611
-7.738255e-12
-0.0056408977
0.00085859762
-4.8441702e-12
-0.006440873
0.00079997527
-3.4427203e-12
-0.007159294
0.00071842094
-1.764234e-13
-0.0077750421
0.00061574812
2.0739814e-12
-0.0082680772
0.00049303504
5.0431413e-12
-0.0086188574
0.00035078024
7.0011292e-12
-0.0088079063
0.00018904891
8.7492829e-12
-0.0088155574
7.6510166e-06
9.5787039e-12
-0.0086219777
-0.00019357965
9.8685455e-12
-0.0082074322
-0.00041454555
9.6696142e-12
-0.0075518778
-0.00065555441
8.9796041e-12
-0.0066345582
-0.00091731965
8.1946782e-12
-0.0011862377
-0.0054483205
7.7107241e-12
-0.00018797473
0.00039035325
-0.00062500781
0.00091240186
-0.0012287547
0.0012684269
-0.0019351967
0.0014963112
-0.0026921421
0.0016204252
-0.0034562876
0.0016591134
-0.0041910711
0.0016263397
-0.004864863
0.0015323895
-0.0054495281
0.0013846404
-0.0059192906
0.0011881834
-0.0062498184
0.00094627599
-0.0064174819
0.00066069856
-0.0063987487
0.00033204697
-0.0061697044
-3.999536e-05
-0.0057057281
-0.00045632527
-0.0049814117
-0.00091789603
-0.003970776
-0.0014251813
-0.0026471914
-0.0019791391
-0.00098322775
-0.0025812833
-0.0032017979
0.0010323325
-0.00015892806
0.00054928129
-0.00051889201
0.0012723658
-0.001000771
0.001750306
-0.0015412608
0.002036801
-0.0020873515
0.002166516
-0.002593737
0.0021654989
-0.0030208699
0.0020534726
-0.0033332947
0.0018448144
-0.0034983024
0.001549648
-0.0034848536
0.0011747346
-0.0032626955
0.00072411793
-0.0028016418
0.0001996448
-0.0020709386
-0.00039865619
-0.0010387512
-0.0010721828
0.0003282659
-0.0018233424
0.0020652451
-0.0026548753
0.0042090657
-0.0035690018
0.0067980476
-0.004568121
0.0098718824
-0.005655118
-0.0067797662
0.013449851
-0.00011756706
0.00066684833
-0.00036699879
0.0015217975
-0.00067351396
0.0020568211
-0.00097482587
0.0023381129
-0.0012168539
0.0024085441
-0.0013515934
0.0023002384
-0.0013354582
0.0020373373
-0.0011278255
0.0016371818
-0.00068984023
0.0011116627
1.6538011e-05
0.00046835634
0.0010293185
-0.0002886626
0.0023871267
-0.0011581634
0.0041297493
-0.0021412787
0.0062986154
-0.003241049
0.0089373037
-0.0044620306
0.012092098
-0.0058096694
0.015812362
-0.0072892659
0.020150239
-0.0089059985
0.025160441
-0.01066532
-0.012492662
0.030873337
-6.6907645e-05
0.00073375596
-0.00017916641
0.0016340563
-0.00026653342
0.0021441881
-0.0002676905
0.00233927
-0.00012719235
0.0022680459
0.0002061702
0.0019668759
0.00078069879
0.0014628087
0.0016429569
0.00077492366
0.0028387397
-8.4120137e-05
0.0044138597
-0.0011067636
0.0064147103
-0.0022895132
0.0088886823
-0.0036321355
0.011884489
-0.0051370858
0.015452498
-0.0068090572
0.0196451
-0.0086546326
0.024517335
-0.010681904
0.030127766
-0.012899698
0.036538993
-0.015317225
0.043818412
-0.017944739
-0.020682603
0.052008352
-9.9845327e-06
0.00074374048
3.4535422e-05
0.0015895363
0.00019989131
0.0019788322
0.00054676799
0.0019923933
0.001132251
0.0016825629
0.0020109872
0.0010881396
0.0032361489
0.00023764701
0.0048603168
-0.00084924423
0.0069361375
-0.0021599409
0.0095166981
-0.0036873242
0.012655734
-0.0054285493
0.016407735
-0.007384136
0.020827869
-0.0095572198
0.025971824
-0.011953012
0.031895708
-0.014578517
0.03865635
-0.017442546
0.046312483
-0.02055583
0.054926804
-0.023931546
0.06456981
-0.027587745
-0.03140568
0.075292887
5.0751485e-05
0.00069298899
0.0002656585
0.0013746293
0.00070825611
0.0015362346
0.0014390336
0.0012616158
0.0025168257
0.00060477077
0.0039995746
-0.00039460927
0.0059449263
-0.0017077046
0.0084106193
-0.0033149373
0.011454616
-0.0052039372
0.015135069
-0.0073677777
0.019510058
-0.0098035377
0.024637055
-0.012511134
0.030572197
-0.015492362
0.037369383
-0.018750198
0.045079339
-0.022288473
0.053749077
-0.026112285
0.063422709
-0.030229461
0.074144832
-0.03465367
0.085969481
-0.039412394
-0.044388609
0.09895241
0.00011379655
0.00057919244
0.00050850441
0.00097992144
0.0012459847
0.00079875436
0.0023867818
0.0001208186
0.0039912477
-0.00099969514
0.0061198863
-0.0025232478
0.0088333344
-0.0044211527
0.012192185
-0.0066737881
0.016256583
-0.0092683352
0.021085478
-0.012196673
0.026735589
-0.015453648
0.033260074
-0.019035619
0.040706947
-0.022939234
0.049117266
-0.027160517
0.058523242
-0.031694448
0.068946608
-0.036535651
0.080398443
-0.041681296
0.092882286
-0.047137513
0.10640564
-0.052935748
-0.058995793
0.12101282
0.00017849613
0.00040069631
0.00076003114
0.00039838643
0.0018053418
-0.00024655628
0.0033747189
-0.0014485586
0.0055290038
-0.0031539801
0.0083293317
-0.0053235758
0.011836507
-0.0079283284
0.016110082
-0.010947363
0.021207073
-0.014365326
0.027180342
-0.018169942
0.034076666
-0.022349972
0.041934536
-0.026893489
0.050781731
-0.031786429
0.060632676
-0.037011462
0.071485594
-0.042547367
0.083319498
-0.048369555
0.096091982
-0.05445378
0.10974056
-0.060786091
0.12419615
-0.067391335
-0.074274753
0.13947511
0.00024512764
0.0010199509
0.0023833438
0.0043938684
0.0071105597
0.010591919
0.014894331
0.020070142
0.026165412
0.033217422
0.041252068
0.050281311
0.06030081
0.071287827
0.083199234
0.095969012
0.10950352
0.12366392
0.13818346
0.15258774
-0.0035076866
-0.0019406339
1.0989921e-11
-0.0012858919
-0.0022217947
1.2399829e-11
0.0011947284
-0.0024806203
1.3482413e-11
0.003877275
-0.0026825467
1.3858516e-11
0.0067349444
-0.0028576694
1.3757772e-11
0.0097504306
-0.0030154862
1.1756606e-11
0.012904799
-0.0031543685
1.1316041e-11
0.016180027
-0.0032752282
1.0626326e-11
0.019560414
-0.0033803864
9.9149202e-12
0.023031739
-0.0034713258
8.5440301e-12
0.026580718
-0.0035489788
6.3673932e-12
0.030194925
-0.003614207
3.03012e-12
0.033862717
-0.0036677921
-1.5283439e-12
0.037573098
-0.0037103809
-7.4922485e-12
0.041315616
-0.0037425183
-1.4819905e-11
0.0450803
-0.0037646837
-2.3411911e-11
0.048857609
-0.0037773085
-3.2903679e-11
0.052638398
-0.0037807894
-4.2720018e-11
0.056413901
-0.0037755028
-5.2034951e-11
0.060175718
-0.0037618165
-5.977299e-11
0.063915816
-0.0037400985
-6.4702361e-11
0.067626539
-0.0037107229
-6.539242e-11
0.071300614
-0.0036740743
-6.0440466e-11
0.074931163
-0.0036305497
-4.8407078e-11
0.078511722
-0.0035805584
-2.820653e-11
0.082036243
-0.0035245214
9.7069328e-13
0.085499112
-0.0034628688
3.9080491e-11
0.088895149
-0.0033960371
8.5342186e-11
0.092219614
-0.0033244655
1.3744818e-10
0.095468206
-0.003248592
1.9184251e-10
0.098637057
-0.003168851
2.4281859e-10
0.10172273
-0.0030856685
2.8331423e-10
0.10472219
-0.0029994604
3.0413498e-10
0.10763282
-0.0029106301
2.958219e-10
0.11045238
-0.002819567
2.4832996e-10
0.11317903
-0.0027266468
1.5452212e-10
0.11581126
-0.0026322322
1.023256e-11
0.11834794
-0.0025366754
-1.8069062e-10
0.12078826
-0.0024403255
-4.0674567e-10
0.12313179
-0.0023435293
-6.4306782e-10
0.12537847
-0.0022466728
-8.552519e-10
0.12752857
-0.0021501075
-9.9750067e-10
0.1295831
-0.0020545235
-1.0219121e-09
0.13154301
-0.0019599096
-8.8258719e-10
0.1334124
-0.0018693879
-5.5385353e-10
0.13518978
-0.0017773784
-4.391002e-11
0.1368996
-0.001709826
5.9885688e-10
0.13849773
-0.0015981277
1.2372344e-09
0.140185
-0.0016872706
1.8250927e-09
-0.0013315554
1.602928e-09
0.0028529538
-0.0037612552
0.004950107
-0.0043189479
0.0072929736
-0.0048234868
0.0098191114
-0.0052086845
0.012507459
-0.0055460173
0.015345692
-0.0058537189
0.018317068
-0.0061257449
0.021405182
-0.0063633418
0.024596014
-0.0065712184
0.027876802
-0.0067521137
0.031235414
-0.0069075907
0.034660369
-0.0070391617
0.038140809
-0.0071482328
0.04166639
-0.0072359612
0.045227192
-0.0073033204
0.048813682
-0.0073511743
0.052416682
-0.0073803085
0.056027347
-0.0073914539
0.059637156
-0.0073853122
0.063237917
-0.0073625776
0.06682177
-0.0073239514
0.070381201
-0.0072701536
0.073909056
-0.0072019292
0.077398557
-0.0071200512
0.080843319
-0.0070253205
0.084237361
-0.0069185626
0.087575115
-0.0068006231
0.090851439
-0.0066723615
0.094061618
-0.0065346439
0.097201361
-0.0063883353
0.1002668
-0.0062342933
0.1032545
-0.0060733607
0.1061614
-0.0059063604
0.10898486
-0.0057340911
0.11172261
-0.0055573247
0.11437277
-0.0053768061
0.1169338
-0.0051932558
0.1194045
-0.0050073736
0.12178402
-0.0048198547
0.12407188
-0.0046313887
0.12626796
-0.0044427469
0.12837248
-0.0042546305
0.13038637
-0.0040684171
0.13231055
-0.0038840883
0.13414902
-0.0037078555
0.1359003
-0.0035286585
0.13758839
-0.0033979099
0.13917017
-0.0031799123
0.14084129
-0.003358393
-0.0026606548
0.015021193
-0.005332598
0.0168523
-0.0061500548
0.018905845
-0.0068770312
0.021111898
-0.007414738
0.023458827
-0.0078929457
0.025942977
-0.0083378694
0.028551731
-0.0087344993
0.03127161
-0.00908322
0.034091511
-0.0093911199
0.037001206
-0.0096618085
0.039990573
-0.0098969582
0.043049753
-0.010098341
0.04616922
-0.0102677
0.04933972
-0.010406461
0.052552222
-0.010515823
0.055797916
-0.010596868
0.059068211
-0.010650604
0.062354746
-0.010677988
0.065649397
-0.010679964
0.0689443
-0.01065748
0.072231867
-0.010611518
0.07550481
-0.010543097
0.078756165
-0.010453284
0.08197931
-0.010343196
0.085167987
-0.010213998
0.088316319
-0.010066894
0.09141882
-0.0099031242
0.094470409
-0.0097239504
0.097466411
-0.009530646
0.10040256
-0.009324487
0.10327501
-0.0091067372
0.10608029
-0.0088786416
0.10881534
-0.0086414166
0.1114775
-0.0083962437
0.11406444
-0.0081442666
0.11657422
-0.0078865898
0.11900525
-0.0076242831
0.12135626
-0.0073583879
0.12362635
-0.0070899394
0.12581493
-0.0068199672
0.1279218
-0.0065496245
0.12994714
-0.0062799616
0.13189176
-0.0060130372
0.13375651
-0.0057488414
0.13554524
-0.0054965919
0.13725658
-0.0052399935
0.13891354
-0.0050548685
0.14047535
-0.0047417233
0.14212703
-0.0050100778
-0.0039979919
0.032056634
-0.0065158953
0.033471838
-0.0075652585
0.035077349
-0.0084825419
0.03680019
-0.0091375794
0.038641048
-0.0097338034
0.040606219
-0.010303041
0.042688532
-0.010816812
0.044878464
-0.011273152
0.047168439
-0.011681095
0.049551228
-0.012044598
0.052019125
-0.012364855
0.054564172
-0.012643389
0.05717836
-0.012881888
0.059853645
-0.013081746
0.062581965
-0.013244143
0.065355276
-0.013370179
0.068165598
-0.013460925
0.071005052
-0.013517442
0.073865905
-0.013540817
0.076740607
-0.013532182
0.079621824
-0.013492736
0.082502477
-0.01342375
0.085375772
-0.013326578
0.088235225
-0.013202649
0.091074692
-0.013053465
0.093888387
-0.012880589
0.096670895
-0.012685632
0.099417187
-0.012470242
0.10212262
-0.012236083
0.10478296
-0.011984825
0.10739435
-0.011718124
0.10995332
-0.011437614
0.1124568
-0.011144892
0.11490206
-0.01084151
0.11728677
-0.010528974
0.11960892
-0.010208738
0.12186685
-0.009882216
0.12405925
-0.009550783
0.12618512
-0.0092158099
0.12824381
-0.0088786641
0.13023507
-0.0085408778
0.13215896
-0.0082038516
0.13401624
-0.0078703168
0.13580769
-0.0075402963
0.13753699
-0.0072258909
0.13920294
-0.0069059376
0.14082717
-0.0066791053
0.14237241
-0.0062869564
0.14400838
-0.006646056
-0.005359461
0.052648651
-0.0071561936
0.053489242
-0.0084058499
0.054483361
-0.0094766613
0.055565321
-0.010219539
0.056749938
-0.010918421
0.058051507
-0.011604609
0.059468537
-0.012233843
0.060996161
-0.012800777
0.062630169
-0.013315103
0.064365963
-0.013780392
0.066198022
-0.014196914
0.068120077
-0.014565444
0.070125363
-0.014887174
0.072206778
-0.015163161
0.074356976
-0.015394341
0.076568443
-0.015581647
0.078833587
-0.015726069
0.081144815
-0.01582867
0.083494597
-0.0158906
0.085875532
-0.015913117
0.088280392
-0.015897596
0.090702176
-0.015845534
0.093134145
-0.015758547
0.095569856
-0.015638361
0.098003197
-0.015486806
0.1004284
-0.01530579
0.10284006
-0.015097295
0.10523316
-0.014863342
0.10760306
-0.014605985
0.10994552
-0.014327279
0.11225666
-0.014029269
0.11453301
-0.013713969
0.11677148
-0.013383355
0.11896931
-0.013039344
0.12112414
-0.012683799
0.12323392
-0.012318523
0.12529697
-0.011945266
0.12731193
-0.011565738
0.12927776
-0.011181645
0.13119379
-0.010794691
0.1330597
-0.010406789
0.13487554
-0.010019693
0.13664202
-0.0096367994
0.13835992
-0.0092581944
0.14003274
-0.0088987072
0.14165957
-0.0085327707
0.14326039
-0.0082799275
0.14480234
-0.0078288985
0.14643624
-0.0082799592
-0.0067683019
0.075221874
-0.0070851805
0.075326837
-0.0085108127
0.075551207
-0.0097010309
0.075851499
-0.010519831
0.076255749
-0.011322671
0.07678081
-0.012129669
0.077429717
-0.01288275
0.0782024
-0.01357346
0.079097168
-0.01420987
0.080110871
-0.014794096
0.081239268
-0.01532531
0.082477061
-0.015803237
0.083818067
-0.01622818
0.085255506
-0.0166006
0.086782201
-0.016921036
0.0883907
-0.017190145
0.090073384
-0.017408753
0.091822575
-0.017577861
0.093630629
-0.017698654
0.095490009
-0.017772496
0.097393348
-0.017800935
0.099333504
-0.01778569
0.10130361
-0.017728652
0.1032971
-0.017631852
0.10530775
-0.01749746
0.10732971
-0.017327748
0.10935749
-0.017125075
0.11138601
-0.016891856
0.11341056
-0.01663054
0.11542687
-0.016343583
0.11743102
-0.016033426
0.11941953
-0.015702477
0.12138927
-0.015353091
0.12333749
-0.014987562
0.1252618
-0.014608115
0.12716018
-0.014216906
0.12903095
-0.01381603
0.13087275
-0.013407536
0.13268457
-0.012993471
0.13446577
-0.012575882
0.13621604
-0.012157068
0.1379355
-0.011739146
0.13962486
-0.011326165
0.14128499
-0.010918319
0.14291927
-0.010532987
0.14452722
-0.010140724
0.14612697
-0.0098796806
0.14769081
-0.0093927383
0.14934822
-0.0099373714
-0.0082566282
0.098025418
-0.0061581886
0.097258148
-0.007743542
0.096581859
-0.0090247427
0.095997425
-0.0099353975
0.095540974
-0.01086622
0.095223738
-0.011812433
0.095051083
-0.012710095
0.095027014
-0.01354939
0.095151062
-0.014333918
0.095419963
-0.015062996
0.095829356
-0.015734703
0.096373831
-0.016347713
0.097046905
-0.016901253
0.097841343
-0.017395039
0.098749464
-0.017829156
0.099763294
-0.018203975
0.1008747
-0.018520157
0.10207549
-0.018778655
0.10335755
-0.01898071
0.10471288
-0.019127825
0.10613369
-0.019221752
0.10761248
-0.019264476
0.10914202
-0.019258196
0.11071547
-0.019205295
0.11232633
-0.019108319
0.11396852
-0.018969944
0.11563639
-0.018792941
0.11732469
-0.018580155
0.11902861
-0.018334464
0.12074378
-0.018058751
0.12246624
-0.017755886
0.12419245
-0.017428692
0.12591929
-0.017079931
0.12764402
-0.016712293
0.12936429
-0.016328384
0.13107812
-0.015930732
0.13278388
-0.015521793
0.13448032
-0.01510397
0.13616651
-0.014679666
0.13784191
-0.014251284
0.13950637
-0.013821522
0.14116009
-0.013392872
0.14280396
-0.012970036
0.144439
-0.012553353
0.14606858
-0.012162572
0.14769278
-0.011764926
0.14932783
-0.01151473
0.15095165
-0.011016552
0.15267116
-0.011656882
-0.0098661998
0.11918918
-0.0043345491
0.11749658
-0.0060509428
0.11585707
-0.0073852297
0.11435455
-0.0084328742
0.11302525
-0.0095369243
0.1118667
-0.010653876
0.11088434
-0.011727743
0.11008448
-0.012749524
0.10946651
-0.013715949
0.10902584
-0.014622329
0.10875666
-0.015465527
0.10865232
-0.016243366
0.1087052
-0.01695414
0.10890701
-0.017596849
0.10924902
-0.018171164
0.10972229
-0.018677242
0.11031778
-0.019115652
0.1110265
-0.019487374
0.11183956
-0.019793768
0.11274828
-0.020036542
0.11374425
-0.020217722
0.11481939
-0.020339618
0.115966
-0.020404804
0.11717677
-0.020416072
0.11844486
-0.020376405
0.11976385
-0.020288935
0.12112782
-0.02015691
0.12253131
-0.019983649
0.12396936
-0.019772508
0.12543746
-0.019526854
0.12693159
-0.019250019
0.12844819
-0.018945287
0.12998412
-0.018615865
0.1315367
-0.018264873
0.13310365
-0.017895333
0.13468309
-0.017510174
0.13627354
-0.017112239
0.13787388
-0.016704313
0.13948339
-0.016289176
0.14110172
-0.015869615
0.14272894
-0.01544874
0.14436551
-0.01502944
0.14601255
-0.014617075
0.14767137
-0.01421217
0.14934546
-0.013836664
0.15103556
-0.013455023
0.15275605
-0.013235225
0.15449074
-0.012751243
0.15632388
-0.013490017
-0.011648364
0.13689614
-0.0017555832
0.13437819
-0.0035329869
0.13181962
-0.0048266668
0.12946256
-0.0060758145
0.12733421
-0.0074085749
0.12541595
-0.008735611
0.1237106
-0.010022394
0.12222325
-0.011262178
0.12095236
-0.012445056
0.11989215
-0.013562118
0.11903511
-0.014608492
0.11837291
-0.015581158
0.11789653
-0.016477766
0.11759646
-0.017296781
0.11746284
-0.018037536
0.11748563
-0.01870004
0.11765484
-0.01928486
0.11796054
-0.019793072
0.118393
-0.020226226
0.11894276
-0.020586303
0.1196007
-0.020875666
0.1203581
-0.021097021
0.12120668
-0.021253382
0.12213863
-0.021348016
0.12314664
-0.021384413
0.12422393
-0.021366229
0.12536426
-0.021297245
0.12656194
-0.021181322
0.12781179
-0.021022362
0.1291092
-0.020824262
0.13045006
-0.020590882
0.13183079
-0.020326017
0.1332483
-0.02003337
0.13469996
-0.019716537
0.13618363
-0.019379001
0.13769759
-0.019024131
0.13924055
-0.018655201
0.14081164
-0.018275407
0.14241041
-0.017887943
0.1440368
-0.017496004
0.1456912
-0.017103145
0.14737444
-0.016712676
0.14908799
-0.016330623
0.15083356
-0.015957742
0.15261489
-0.015617994
0.15443348
-0.015273612
0.15630199
-0.015103737
0.15821023
-0.01465948
0.16022018
-0.015499971
-0.01366316
0.15005225
0.00077991471
0.14676331
-0.00024404644
0.14346597
-0.0015293345
0.1404182
-0.0030280424
0.13762332
-0.0046136888
0.13507506
-0.0061873549
0.13277527
-0.0077226034
0.13072403
-0.0092109373
0.1289189
-0.010639927
0.12735468
-0.011997899
0.12602355
-0.013277358
0.12491609
-0.014473703
0.12402214
-0.015583813
0.12333103
-0.01660567
0.12283178
-0.017538284
0.12251327
-0.018381538
0.12236445
-0.019136034
0.12237438
-0.019803008
0.12253242
-0.020384267
0.12282825
-0.020882127
0.12325194
-0.021299361
0.12379407
-0.021639145
0.12444569
-0.021905005
0.12519844
-0.022100764
0.12604452
-0.022230489
0.12697672
-0.022298437
0.12798848
-0.022309003
0.12907382
-0.022266663
0.13022739
-0.022175933
0.13144445
-0.022041316
0.13272083
-0.021867265
0.13405296
-0.021658149
0.13543782
-0.021418228
0.13687292
-0.021151634
0.13835628
-0.020862359
0.13988641
-0.020554265
0.1414623
-0.020231096
0.14308341
-0.019896508
0.14474961
-0.019554143
0.14646124
-0.01920764
0.14821913
-0.018861032
0.15002452
-0.018518071
0.15187938
-0.018185477
0.15378588
-0.017864243
0.15574816
-0.017580273
0.15776841
-0.01729386
0.15985816
-0.017193495
0.16201167
-0.01681299
0.16427371
-0.017762007
-0.015975554
0.18890901
0.0053820069
-0.1935111
0.18509898
0.0035659819
0.18170696
0.0018626903
0.17856184
0.00011707307
0.17562629
-0.0016781403
0.17287528
-0.0034363407
0.17029058
-0.0051378991
0.16786319
-0.0067835499
0.16558924
-0.008365976
0.16346657
-0.0098752278
0.16149332
-0.011304107
0.15966737
-0.012647762
0.1579861
-0.013902539
0.1564462
-0.015065773
0.15504376
-0.016135842
0.15377431
-0.017112082
0.15263291
-0.017994638
0.15161428
-0.018784378
0.15071284
-0.019482825
0.14992281
-0.020092098
0.14923829
-0.020614846
0.14865334
-0.021054193
0.14816201
-0.021413671
0.14775841
-0.021697169
0.14743679
-0.021908865
0.14719152
-0.022053165
0.14701717
-0.022134652
0.14690852
-0.022158016
0.1468606
-0.02212801
0.14686867
-0.022049391
0.14692829
-0.021926881
0.14703526
-0.021765126
0.1471857
-0.021568668
0.14737599
-0.021341923
0.1476028
-0.021089169
0.14786309
-0.020814554
0.1481541
-0.020522107
0.14847337
-0.02021577
0.1488187
-0.019899478
0.14918823
-0.019577166
0.14958039
-0.019253195
0.14999395
-0.018931631
0.15042814
-0.01861967
0.15088245
-0.018318547
0.15135748
-0.018055309
0.1518531
-0.017789478
0.15237379
-0.017714183
0.15291523
-0.017354434
0.15350044
-0.018347214
-0.016568579
0.21685789
0.0087803288
-0.22025622
0.21338402
0.0070398598
0.21017121
0.0050754931
0.20706591
0.0032223763
0.20401932
0.0013684454
0.20106241
-0.00047943084
0.19821206
-0.0022875482
0.19547278
-0.0040442706
0.19285048
-0.0057436688
0.19035197
-0.0073767245
0.18798247
-0.0089346071
0.18574538
-0.010410663
0.18364267
-0.011799836
0.18167506
-0.013098165
0.17984202
-0.014302795
0.1781419
-0.015411969
0.17657218
-0.016424913
0.17512953
-0.017341726
0.17381
-0.018163295
0.17260913
-0.018891234
0.17152209
-0.019527804
0.17054374
-0.02007584
0.16966875
-0.020538686
0.1688917
-0.020920119
0.16820712
-0.021224281
0.16760956
-0.021455607
0.16709367
-0.02161876
0.16665422
-0.021718563
0.16628614
-0.021759936
0.16598459
-0.021747838
0.16574493
-0.021687218
0.16556277
-0.021582968
0.16543399
-0.021439893
0.16535475
-0.021262682
0.16532148
-0.021055893
0.16533088
-0.02082396
0.16537998
-0.020571203
0.16546606
-0.020301857
0.16558675
-0.02002016
0.16573994
-0.019730359
0.16592389
-0.019437143
0.1661372
-0.019144942
0.16637887
-0.018861339
0.1666484
-0.01858808
0.16694565
-0.018352555
0.16727184
-0.018115673
0.16762621
-0.018068552
0.16801705
-0.017745276
0.16842635
-0.018756515
-0.017042813
0.2437668
0.011504274
-0.24649075
0.24091637
0.0098902884
0.23806317
0.0079286941
0.23521622
0.0060693287
0.23233843
0.0042462381
0.22945062
0.0024083788
0.22658401
0.00057905817
0.2237579
-0.0012181642
0.22098821
-0.00297398
0.21829088
-0.0046793894
0.21567976
-0.0063234841
0.21316584
-0.0078967516
0.21075776
-0.009391747
0.20846205
-0.010802457
0.20628335
-0.0121241
0.20422455
-0.013353169
0.202287
-0.014487364
0.20047075
-0.015525467
0.19877469
-0.016467243
0.19719682
-0.017313357
0.1957343
-0.018065287
0.19438369
-0.018725235
0.19314105
-0.019296044
0.19200204
-0.019781113
0.19096208
-0.020184311
0.19001637
-0.020509902
0.18916007
-0.020762458
0.18838829
-0.020946784
0.1876962
-0.021067847
0.18707907
-0.02113071
0.18653232
-0.021140466
0.18605155
-0.021102194
0.18563256
-0.02102091
0.18527142
-0.020901543
0.18496444
-0.020748909
0.18470819
-0.020567711
0.18449954
-0.020362553
0.18433565
-0.020137965
0.18421398
-0.019898489
0.18413231
-0.019648693
0.18408877
-0.019393599
0.18408186
-0.01913803
0.18411039
-0.018889876
0.18417397
-0.018651656
0.18427168
-0.018450269
0.18440625
-0.018250242
0.18457128
-0.018233584
0.18478867
-0.01796266
0.18499452
-0.018962366
-0.017375802
0.26927455
0.013537218
-0.27130749
0.26710651
0.012058325
0.26476476
0.010270447
0.26232554
0.0085085455
0.2597968
0.0067749788
0.25718872
0.0050164638
0.25452741
0.0032403653
0.25183705
0.0014721925
0.24913765
-0.00027457158
0.24644899
-0.0019907343
0.24379038
-0.0036648723
0.24117895
-0.0052853186
0.23862942
-0.0068422197
0.23615429
-0.0083273248
0.23376384
-0.009733658
0.23146625
-0.011055578
0.2292677
-0.012288807
0.22717257
-0.01343034
0.22518367
-0.014478347
0.2233024
-0.015432087
0.22152893
-0.016291817
0.2198624
-0.017058698
0.21830105
-0.017734697
0.21684243
-0.018322493
0.2154835
-0.018825378
0.21422076
-0.019247165
0.2130504
-0.019592096
0.21196836
-0.019864749
0.21097047
-0.020069958
0.2100525
-0.020212733
0.20921022
-0.020298185
0.20843949
-0.020331472
0.20773632
-0.020317739
0.20709687
-0.020262086
0.20651749
-0.020169535
0.20599481
-0.020045025
0.20552567
-0.019893415
0.20510722
-0.019719517
0.2047369
-0.019528167
0.20441246
-0.019324257
0.20413199
-0.019113128
0.20389399
-0.018900029
0.20369719
-0.018693077
0.2035413
-0.018495761
0.20342483
-0.018333806
0.20335172
-0.018177124
0.20331076
-0.018192633
0.20333521
-0.017987101
0.20331984
-0.018947
-0.017545357
0.2929853
0.014868353
-0.29431643
0.29150606
0.01353756
0.28978358
0.011992932
0.28788495
0.010407172
0.28584505
0.0088148813
0.28367469
0.007186827
0.28139227
0.0055227778
0.27902105
0.0038434113
0.27658233
0.0021641509
0.27409627
0.00049532987
0.27158306
-0.0011516672
0.26906244
-0.0027646971
0.26655273
-0.0043325053
0.26407051
-0.0058451093
0.26163053
-0.0072936807
0.25924556
-0.008670604
0.25692635
-0.0099695967
0.25468172
-0.011185712
0.25251865
-0.012315282
0.25044243
-0.01335586
0.24845676
-0.014306149
0.24656398
-0.015165919
0.24476519
-0.01593591
0.24306044
-0.016617736
0.24144885
-0.017213787
0.2399288
-0.017727122
0.23849808
-0.018161368
0.23715395
-0.018520626
0.23589336
-0.018809366
0.23471298
-0.019032347
0.23360932
-0.019194525
0.23257883
-0.019300988
0.23161798
-0.019356888
0.23072329
-0.019367391
0.2298914
-0.019337647
0.22911913
-0.019272761
0.22840353
-0.019177807
0.22774185
-0.019057838
0.22713164
-0.018917961
0.22657076
-0.018763378
0.22605737
-0.018599738
0.22559006
-0.018432718
0.22516759
-0.018270606
0.2247898
-0.018117976
0.22445488
-0.017998877
0.22416756
-0.017889805
0.22391301
-0.01793809
0.22373281
-0.017806893
0.22348809