/*--------------------------------*- C++ -*----------------------------------*\
  =========                 |
  \\      /  F ield         | OpenFOAM: The Open Source CFD Toolbox
   \\    /   O peration     | Website:  https://openfoam.org
    \\  /    A nd           | Version:  6
     \\/     M anipulation  |
\*---------------------------------------------------------------------------*/
FoamFile
{
    version     2.0;
    format      ascii;
    class       volSymmTensorField;
    location    "156";
    object      UPrime2Mean;
}
// * * * * * * * * * * * * * * * * * * * * * * * * * * * * * * * * * * * * * //

dimensions      [0 2 -2 0 0 0 0];

internalField   nonuniform List<symmTensor> 
9200
(
(0.00012688466 -9.8493002e-05 4.6141971e-22 7.9049484e-05 -2.4682584e-22 7.4550563e-39)
(0.00078143094 -0.00062579759 1.1793316e-21 0.00050307648 -8.801126e-22 8.1091525e-39)
(0.0015778253 -0.0012245321 1.4623813e-22 0.00095580594 -1.1040831e-22 4.4465025e-39)
(0.0024841561 -0.001801227 -1.7737465e-21 0.0013205544 1.2476964e-21 8.8623094e-39)
(0.0033751465 -0.002312425 8.2249772e-23 0.0016114937 -6.8905163e-23 1.2996849e-39)
(0.0041887469 -0.0027351951 7.4401416e-22 0.0018284342 -4.9455932e-22 2.0343352e-40)
(0.0048823486 -0.0030616527 -1.5988302e-22 0.0019790366 1.10952e-22 5.8891651e-40)
(0.0054219111 -0.0032925593 1.4536117e-22 0.0020760489 -9.8092398e-23 3.9665218e-40)
(0.0057842325 -0.0034328349 7.2202434e-22 0.0021317007 -4.3882428e-22 1.1314036e-39)
(0.0059577619 -0.0034895679 5.6060174e-23 0.0021563786 -3.4284322e-23 3.2246852e-42)
(0.005942596 -0.00347108 -7.7668994e-22 0.0021586474 4.7857422e-22 6.0693656e-40)
(0.0057502764 -0.0033863463 6.4970029e-22 0.0021453566 -4.1558962e-22 8.2709581e-41)
(0.0054028942 -0.0032446263 -1.1576326e-21 0.0021218023 7.8312577e-22 1.2986807e-39)
(0.0049312441 -0.0030552392 -5.8690535e-22 0.0020919485 4.0506497e-22 8.2630629e-41)
(0.0043720937 -0.0028274197 1.5226181e-22 0.0020586689 -1.133695e-22 1.0574596e-41)
(0.0037648195 -0.0025701895 -5.7320821e-22 0.0020239781 4.5069942e-22 1.106878e-40)
(0.0031476892 -0.0022922426 5.0316264e-22 0.0019893542 -4.2911392e-22 1.3436147e-40)
(0.002554201 -0.0020019722 3.7334421e-22 0.0019567755 -3.3354303e-22 5.5096757e-40)
(0.0020124384 -0.0017070987 -1.3171067e-23 0.0019288761 2.8076067e-23 1.0170162e-40)
(0.0015529596 -0.0014131519 -7.5202834e-24 0.0018867241 2.5009074e-23 1.2606097e-40)
(0.0001673783 -0.00011188658 4.8289638e-23 7.6811888e-05 -1.856751e-23 1.3103382e-40)
(0.00099617238 -0.00069073856 1.2493697e-21 0.00048042019 -8.1273972e-22 8.6511517e-39)
(0.0019776214 -0.0013315356 -4.0715943e-22 0.00090154064 2.7295472e-22 4.6998701e-39)
(0.0030273028 -0.0019227557 -3.182554e-21 0.0012347203 1.990448e-21 2.050519e-38)
(0.004000187 -0.0024241123 -1.0901047e-22 0.0014948541 6.9381697e-23 2.5874607e-40)
(0.0048247359 -0.0028155726 2.4586598e-21 0.0016843496 -1.4524565e-21 6.7832131e-39)
(0.0054573566 -0.0030940454 -1.0090178e-21 0.0018131093 5.9062558e-22 2.3140728e-40)
(0.0058707592 -0.0032657143 -3.0493493e-22 0.0018949213 1.7700876e-22 8.335396e-41)
(0.006054541 -0.0033405637 1.1578782e-21 0.0019423274 -6.7690785e-22 6.3588646e-40)
(0.0060145842 -0.0033300816 -1.4042611e-21 0.0019655443 8.3531167e-22 7.2923502e-40)
(0.0057714986 -0.00324621 -9.9662931e-22 0.0019725611 6.0828565e-22 9.0244401e-40)
(0.0053583788 -0.0031007414 2.1531863e-21 0.0019693145 -1.3685988e-21 4.5884544e-39)
(0.0048175262 -0.0029050146 1.0035299e-21 0.0019599153 -6.7978047e-22 3.1970131e-40)
(0.0041962249 -0.002669812 -1.5819306e-21 0.0019469173 1.1457673e-21 1.5831056e-39)
(0.0035420608 -0.0024053526 2.8397235e-22 0.0019315773 -2.2208771e-22 1.3222311e-40)
(0.0028984324 -0.0021213045 -6.3161333e-22 0.0019140834 5.5437352e-22 3.5111216e-40)
(0.0023008259 -0.0018267793 -2.6182407e-22 0.0018938083 2.7113313e-22 1.1079471e-40)
(0.0017742648 -0.0015301526 8.010696e-22 0.0018696408 -9.0498732e-22 1.7901024e-39)
(0.0013335053 -0.0012381541 3.7990994e-22 0.0018382548 -5.1272931e-22 3.3892095e-40)
(0.00098812563 -0.00095750383 -1.6241251e-22 0.0017825816 2.0399484e-22 2.5747879e-39)
(0.0002130797 -0.00012137829 -4.0412718e-22 7.0697605e-05 1.7210418e-22 3.3716147e-39)
(0.0012249855 -0.00072836883 -6.7288911e-22 0.00043421956 3.7382017e-22 3.5150549e-39)
(0.0023879951 -0.0013826694 -7.6849541e-22 0.00080512875 4.476411e-22 8.7861787e-39)
(0.0035582099 -0.0019619557 2.5478693e-23 0.001094264 -1.4017186e-23 9.5295369e-43)
(0.0045742543 -0.0024313707 3.5555552e-23 0.0013167571 -1.651121e-23 6.3121634e-39)
(0.0053605617 -0.0027760056 8.6243676e-22 0.0014774877 -4.605142e-22 1.764861e-39)
(0.0058803352 -0.0029987698 8.1503509e-23 0.0015877167 -4.0998156e-23 7.3073708e-40)
(0.0061218911 -0.0031114206 -1.4594177e-21 0.0016610695 7.8635006e-22 4.62903e-40)
(0.0060962115 -0.0031284205 1.7282338e-21 0.0017091905 -9.5527688e-22 8.758779e-40)
(0.005833613 -0.0030645498 5.6917276e-22 0.0017409923 -3.3042979e-22 9.6636015e-40)
(0.0053793341 -0.0029339604 -1.565723e-21 0.0017628711 9.5044893e-22 1.9923615e-39)
(0.0047882583 -0.0027497981 -4.9085391e-22 0.0017789856 3.1970684e-22 6.5207077e-40)
(0.00411889 -0.0025241948 1.7920084e-22 0.0017915821 -1.2501844e-22 1.7681202e-39)
(0.0034272307 -0.0022684491 4.2497203e-22 0.0018013542 -3.3172038e-22 2.5340872e-40)
(0.0027614506 -0.0019932231 -1.4838552e-22 0.0018078033 1.2971473e-22 1.9434968e-40)
(0.0021581406 -0.0017086412 3.4627709e-22 0.0018095953 -3.4951845e-22 1.5287068e-40)
(0.0016405854 -0.0014242457 -2.3903226e-22 0.0018049059 2.8429794e-22 5.842378e-41)
(0.0012190462 -0.0011487473 -4.8471593e-22 0.0017916321 6.8013311e-22 1.4356015e-39)
(0.000892888 -0.00088941842 -1.4772743e-23 0.00176704 1.5902307e-23 1.297052e-39)
(0.00065469068 -0.00065295984 1.6785756e-22 0.001725405 -3.700728e-22 1.462841e-40)
(0.0002624462 -0.0001255657 -3.2094118e-22 6.1254859e-05 1.1829956e-22 1.674639e-39)
(0.0014560742 -0.0007323849 4.8906093e-22 0.00036927165 -2.3999779e-22 3.1163931e-40)
(0.0027841595 -0.0013691251 4.3424195e-22 0.00067736057 -2.1429846e-22 3.6155827e-40)
(0.0040405947 -0.00191152 9.4872118e-22 0.00091571797 -4.5324419e-22 3.9017087e-39)
(0.0050537378 -0.002332027 8.3298238e-22 0.001098984 -3.9625213e-22 1.735399e-39)
(0.0057522985 -0.0026223111 -1.4606626e-21 0.0012337603 6.9605369e-22 1.3233036e-39)
(0.0061159683 -0.0027912062 -8.1654931e-22 0.0013313408 3.9641318e-22 3.7651543e-40)
(0.0061578599 -0.0028547622 0 0.001403813 0 0)
(0.005917354 -0.0028300226 8.91182e-22 0.001460717 -4.8665979e-22 4.8619452e-39)
(0.0054526357 -0.0027329653 -3.8631501e-22 0.0015086578 2.2941788e-22 1.8419331e-39)
(0.0048325179 -0.0025780131 -2.2651983e-21 0.0015516474 1.3615469e-21 1.6164519e-39)
(0.0041280792 -0.0023781543 -2.9058572e-22 0.001591489 1.8440808e-22 3.2895753e-40)
(0.0034048645 -0.0021453449 1.1132441e-21 0.0016282075 -8.3754838e-22 2.2092653e-39)
(0.0027166969 -0.0018909038 6.4225616e-23 0.0016605209 -4.2019162e-23 9.1647045e-40)
(0.0021019537 -0.0016256918 -1.7175788e-23 0.0016863305 1.7044096e-23 6.4048443e-43)
(0.0015826231 -0.0013600029 1.8436295e-22 0.0017032191 -2.165657e-22 1.1273024e-40)
(0.0011658585 -0.0011032153 1.5913254e-24 0.0017088862 3.6545848e-24 1.3268149e-40)
(0.00084726497 -0.00086332973 -3.2634197e-22 0.0017013523 5.5995532e-22 3.4168523e-40)
(0.00061479795 -0.00064649268 -1.8065825e-22 0.0016797468 3.8858533e-22 2.385367e-40)
(0.00045280795 -0.00045711403 8.9660093e-23 0.0016466438 -2.8377936e-22 1.5086909e-39)
(0.00031321435 -0.00012325531 2.4232618e-22 4.9371518e-05 -7.7204246e-23 6.5882205e-40)
(0.0016748344 -0.00069873151 1.0092212e-21 0.00029221737 -4.025561e-22 5.9358295e-39)
(0.0031381882 -0.0012872797 7.9119593e-22 0.00053166459 -3.2636738e-22 3.7482812e-40)
(0.0044374916 -0.001772091 8.8211113e-22 0.0007180441 -3.6080556e-22 2.0875722e-39)
(0.0053997081 -0.0021339878 -1.3556445e-21 0.00086463382 5.6126929e-22 3.2887167e-39)
(0.0059681993 -0.0023712317 5.0847567e-23 0.00097857715 -1.6416169e-23 3.1298978e-40)
(0.0061490593 -0.0024968011 7.7364468e-23 0.001069766 -3.3837061e-23 2.6266008e-42)
(0.0059874162 -0.0025282891 1.1002653e-21 0.0011475538 -5.1496751e-22 1.1742626e-39)
(0.0055540592 -0.0024824543 1.4839964e-22 0.0012184815 -7.3829184e-23 1.0555571e-41)
(0.0049330756 -0.0023740291 -3.9794302e-22 0.0012862091 2.2738183e-22 6.358402e-40)
(0.0042101746 -0.0022160084 1.2922182e-21 0.0013519467 -8.0960446e-22 4.4304334e-39)
(0.003462658 -0.002020335 -9.4187894e-22 0.0014149292 6.2649819e-22 3.7831644e-40)
(0.0027521173 -0.0017985269 -1.7701821e-21 0.0014729623 1.3988578e-21 2.6922472e-39)
(0.0021206626 -0.0015619367 -5.8477663e-23 0.0015230326 5.455295e-23 5.706827e-42)
(0.001590773 -0.0013215479 6.2770625e-22 0.0015619368 -7.1442659e-22 2.1938109e-39)
(0.0011680778 -0.001087422 0 0.0015868774 0 0)
(0.00084589123 -0.00086801976 7.9366437e-23 0.0015958886 -1.1608233e-22 5.7104598e-41)
(0.00061021644 -0.00066966556 -3.8963982e-23 0.0015879143 8.8248498e-23 8.5063588e-41)
(0.00044397233 -0.0004963326 -4.0183016e-23 0.00156389 8.9577733e-23 2.2267593e-41)
(0.00033007988 -0.00034961415 1.8238849e-23 0.0015305425 -8.2952543e-23 1.5308848e-40)
(0.00036263005 -0.00011373808 5.2984305e-22 3.6285147e-05 -1.3649308e-22 2.664258e-39)
(0.0018658719 -0.00062690562 5.1921702e-23 0.0002112031 -1.7050874e-23 4.9260617e-42)
(0.003423487 -0.0011405443 -1.4880557e-22 0.00038314715 5.0320094e-23 2.180356e-41)
(0.0047179617 -0.0015538504 1.513544e-22 0.00052107266 -4.8942463e-23 4.3123946e-40)
(0.0055858831 -0.001855692 -9.3241267e-22 0.00063605875 3.2798677e-22 8.0845744e-40)
(0.0059960497 -0.0020490656 -4.4759241e-22 0.0007345453 1.6364239e-22 7.2864534e-41)
(0.0059887744 -0.0021476481 3.1510969e-22 0.00082391531 -9.7044147e-23 2.3051516e-39)
(0.0056441685 -0.0021668715 -1.1829379e-23 0.00091012039 1.3313485e-23 1.80358e-40)
(0.0050619597 -0.0021201928 -7.5172804e-22 0.00099633816 3.7673704e-22 1.905681e-39)
(0.0043448055 -0.00201919 1.3023517e-21 0.001083106 -6.8317959e-22 5.5517575e-40)
(0.0035848926 -0.0018746408 -3.3690026e-23 0.0011687985 4.9829629e-23 9.9065764e-40)
(0.0028548297 -0.0016974537 -1.0290004e-21 0.0012502081 7.5798147e-22 2.7243501e-39)
(0.0022034492 -0.0014990209 0 0.0013232544 0 0)
(0.0016562689 -0.0012908847 2.4823167e-22 0.0013837603 -2.8792717e-22 1.4644969e-39)
(0.0012194489 -0.0010839112 1.2132167e-23 0.0014281849 -2.7057311e-23 8.0223909e-41)
(0.00088556006 -0.00088733493 -3.0041423e-22 0.0014541962 4.8420826e-22 1.699442e-39)
(0.00063953313 -0.00070801117 -6.8081345e-23 0.0014609282 1.2484235e-22 3.5287988e-41)
(0.00046362018 -0.00055011549 -2.0471894e-23 0.0014488055 5.8092409e-23 5.710914e-41)
(0.00034065235 -0.00041539215 -2.69964e-23 0.0014203791 7.8330175e-23 2.2101679e-41)
(0.00025566525 -0.00030343756 4.8155372e-23 0.0013837411 -1.9162016e-22 2.116702e-40)
(0.00040775813 -9.6967841e-05 2.0441132e-22 2.3459864e-05 -3.933342e-23 4.2193878e-40)
(0.0020149939 -0.0005203902 -1.4649193e-21 0.0001348594 3.6869524e-22 9.1748789e-39)
(0.0036184206 -0.00093925545 -1.3092446e-22 0.00024654106 3.7069246e-23 8.566856e-40)
(0.0048614671 -0.0012751611 -3.9178717e-22 0.00034274208 1.1538414e-22 4.3089991e-39)
(0.0056021879 -0.0015229783 -2.9068789e-22 0.00043183624 8.1050765e-23 5.9437394e-41)
(0.0058438203 -0.0016867258 -1.6465683e-21 0.00051872533 5.1304203e-22 7.8501037e-40)
(0.0056644604 -0.0017763124 -8.063557e-22 0.00060790139 2.8596377e-22 6.3525971e-40)
(0.005176692 -0.0018013271 1.557169e-21 0.00070196215 -5.9112298e-22 5.0775428e-40)
(0.0045015398 -0.0017697211 2.6609222e-22 0.00080090362 -1.3844788e-22 6.5278266e-40)
(0.0037495572 -0.0016891825 -3.4168028e-22 0.00090234117 1.5629014e-22 2.2295281e-40)
(0.0030085273 -0.0015685441 1.6023897e-22 0.0010020623 -5.9086865e-23 8.3795645e-40)
(0.002337983 -0.0014182995 -3.0006301e-23 0.0010948025 4.0905218e-23 2.1239698e-40)
(0.0017698176 -0.0012501128 0 0.0011751824 0 0)
(0.001313235 -0.0010756287 1.6862815e-22 0.0012386317 -1.7766073e-22 5.0833173e-41)
(0.00096177113 -0.00090511081 -3.576659e-22 0.0012821001 4.744363e-22 6.9650219e-40)
(0.00070031069 -0.00074639794 -1.1601421e-22 0.0013044236 1.8045718e-22 5.977704e-41)
(0.00051072969 -0.00060443609 1.9962902e-22 0.0013062517 -4.0794604e-22 8.3321745e-40)
(0.00037563323 -0.00048142253 -4.4678686e-23 0.0012895608 5.9750974e-23 1.7966169e-40)
(0.00028020013 -0.00037749982 -2.8475652e-24 0.0012580335 -5.300343e-24 2.0162801e-41)
(0.00021256587 -0.00029134593 4.546848e-23 0.001219377 -1.3750737e-22 1.7735203e-41)
(0.00044581234 -7.3619408e-05 1.4882059e-22 1.2389702e-05 -1.9531645e-23 2.6421481e-40)
(0.0021110194 -0.00038634995 -1.3563378e-21 7.108585e-05 2.4449413e-22 4.2071146e-39)
(0.003708965 -0.00069929368 -1.0599241e-21 0.00013415817 2.1040776e-22 5.0358043e-39)
(0.0048601279 -0.00095973714 1.5098884e-21 0.00019675669 -3.1617658e-22 1.2323206e-39)
(0.0054549526 -0.0011647852 1.1375953e-21 0.00026471085 -2.5686755e-22 2.552729e-40)
(0.0055361882 -0.0013145617 -8.3098418e-22 0.000341384 1.8413988e-22 2.6728076e-39)
(0.0052178166 -0.0014108217 2.7143363e-22 0.00042889282 -1.0393228e-22 1.1322529e-39)
(0.0046372606 -0.0014546882 1.5856466e-21 0.00052716812 -5.6559485e-22 1.2662453e-39)
(0.0039259874 -0.001447833 6.9433713e-22 0.00063356422 -2.745893e-22 1.5906869e-40)
(0.0031914398 -0.0013945499 -6.8127904e-22 0.0007431729 3.5023966e-22 4.1294642e-40)
(0.0025086562 -0.0013026616 -9.2279889e-22 0.00084960374 5.5364638e-22 4.9104053e-40)
(0.0019201003 -0.0011829171 -2.5119754e-23 0.00094609073 1.8285239e-23 5.1171313e-43)
(0.0014411954 -0.0010473422 2.6459665e-22 0.0010266786 -2.3325611e-22 7.9504246e-41)
(0.0010685464 -0.00090729949 -8.863361e-24 0.0010871755 3.0621126e-23 1.224021e-40)
(0.00078819297 -0.00077195039 -9.2476117e-24 0.0011256508 4.9724275e-23 3.3127978e-40)
(0.00058219512 -0.00064749155 6.3634046e-24 0.0011424195 -6.4827296e-23 5.984375e-40)
(0.00043293512 -0.00053716457 9.2129906e-23 0.0011395761 -1.8573863e-22 1.7486894e-40)
(0.00032533922 -0.00044182095 -5.1568276e-23 0.0011202556 1.561108e-22 4.5691717e-40)
(0.00024754894 -0.00036084756 -1.3300452e-22 0.0010885954 3.7755923e-22 8.8383883e-40)
(0.00019057207 -0.00029282219 4.4711751e-23 0.0010509516 -1.102108e-22 1.9578162e-41)
(0.0004746103 -4.5034775e-05 -3.8582235e-22 4.386201e-06 3.2146664e-23 7.8921687e-40)
(0.0021473195 -0.00023472654 -2.9968599e-22 2.596696e-05 3.2205829e-23 8.5061481e-40)
(0.0036901374 -0.0004399035 2.3234936e-21 5.435523e-05 -2.9519605e-22 1.0403139e-38)
(0.0047191228 -0.00063325142 1.7252884e-21 9.1211348e-05 -2.5012731e-22 1.1341099e-39)
(0.005165048 -0.00080907711 7.7074452e-22 0.00014093148 -1.211291e-22 5.5749863e-40)
(0.0051097095 -0.00095862037 1.5543929e-22 0.000206348 -3.1883623e-23 5.3404709e-42)
(0.0046956991 -0.0010723043 -1.4557431e-21 0.00028846016 3.2360756e-22 2.3295415e-39)
(0.0040742479 -0.0011418449 0 0.00038555399 0 0)
(0.003375929 -0.0011632982 -8.8873989e-22 0.0004929747 3.8629766e-22 1.9298595e-39)
(0.0026964239 -0.0011388309 -1.5230607e-22 0.00060373035 1.0096611e-22 4.3774499e-40)
(0.0020938046 -0.0010762583 4.3423652e-22 0.00070974208 -2.52734e-22 1.0558622e-40)
(0.0015937571 -0.00098690945 4.618075e-23 0.00080338143 -6.0071263e-23 2.408822e-40)
(0.0011987464 -0.00088290969 -2.0606107e-22 0.00087881854 2.0348347e-22 2.7977715e-40)
(0.0008976238 -0.00077488263 -1.5456698e-22 0.00093280743 2.0510333e-22 5.9907575e-40)
(0.00067344968 -0.00067063544 1.0028187e-22 0.00096478733 -1.0204558e-22 7.3397671e-41)
(0.00050868703 -0.00057487973 1.3849904e-22 0.00097641816 -1.7931334e-22 6.7280138e-41)
(0.00038795184 -0.00048968502 -1.2287901e-22 0.0009707882 2.0517282e-22 6.2259619e-41)
(0.00029900999 -0.00041528124 -1.6366209e-22 0.00095157538 3.5752674e-22 7.3882653e-40)
(0.00023273363 -0.00035096688 1.3051466e-23 0.00092274226 -2.6120961e-24 8.7153868e-41)
(0.00018244085 -0.00029561333 2.1935878e-23 0.0008889245 -7.5904197e-23 1.0270025e-40)
(0.00049249837 -1.3007807e-05 -2.5469462e-22 3.9431933e-07 6.4929762e-24 3.8614978e-40)
(0.0021218567 -7.6986345e-05 1.0855012e-21 3.0516115e-06 -3.894679e-23 2.1406959e-39)
(0.0035658543 -0.00018143454 1.6596941e-21 1.0792151e-05 -1.0232874e-22 1.5535904e-38)
(0.0044554446 -0.00032049397 -1.9376351e-21 2.8378697e-05 1.6783239e-22 4.2745549e-39)
(0.0047641713 -0.00048015046 6.9817308e-22 6.0895213e-05 -7.7012429e-23 1.0710777e-40)
(0.0046065758 -0.00063895667 2.8436725e-22 0.00011244629 1.9676515e-24 3.9505514e-39)
(0.004142855 -0.00077478622 7.5148717e-23 0.00018448131 -1.5322764e-23 1.4104067e-42)
(0.0035262489 -0.00087078024 -1.0673936e-21 0.00027463055 2.475335e-22 1.3289152e-39)
(0.0028771486 -0.00091906492 -2.4198967e-23 0.00037676697 8.4203731e-24 2.1107971e-43)
(0.0022746351 -0.00092113618 3.9682716e-22 0.00048225031 -2.0822006e-22 5.0698827e-40)
(0.0017595917 -0.00088546051 3.0951172e-23 0.0005818686 -3.2166396e-23 7.2640575e-41)
(0.0013440479 -0.00082384624 -1.4337507e-22 0.00066777449 3.8106539e-23 9.3974801e-40)
(0.0010220604 -0.00074808546 -3.1719298e-22 0.00073480258 2.5973839e-22 1.0352554e-40)
(0.0007790115 -0.00066774926 -1.518578e-24 0.00078089206 2.5097328e-23 1.2242436e-40)
(0.00059804393 -0.00058933946 1.0682951e-22 0.00080671055 -1.4169905e-22 1.1916097e-40)
(0.00046366291 -0.00051647735 7.0917473e-23 0.00081480908 -1.140037e-22 1.1572057e-40)
(0.00036322411 -0.00045062374 1.5793017e-23 0.00080866994 -5.4103441e-23 1.878542e-40)
(0.00028716036 -0.00039191916 -1.1377338e-22 0.00079193083 1.6066189e-22 1.5008589e-40)
(0.00022859602 -0.00033991285 -2.4005343e-23 0.00076795948 -1.5764105e-23 6.4445824e-40)
(0.00018260228 -0.00029382136 6.1294907e-23 0.00073970982 -1.9514981e-22 1.0624237e-39)
(3.3034916e-06 -4.124977e-07 3.3022827e-23 5.0403933e-07 -6.6097046e-24 3.7738656e-40)
(1.5573693e-05 -6.5186147e-06 -4.711629e-23 3.3485323e-06 1.3055343e-23 3.6333119e-40)
(3.4884107e-05 -1.5065149e-05 1.046619e-22 6.6749414e-06 -3.9201901e-23 2.086617e-39)
(0.0001118373 -3.1788158e-05 2.9210007e-22 9.5704079e-06 -6.2276235e-23 7.0177779e-39)
(0.00024541164 -5.2428275e-05 -2.0863756e-22 1.2169456e-05 3.5519492e-23 1.8249896e-39)
(0.0004385315 -7.5518841e-05 2.6294262e-22 1.4473771e-05 -3.566843e-23 2.0165283e-39)
(0.00069744804 -0.00010026415 -3.6088507e-22 1.6486547e-05 4.5778082e-23 2.2144202e-39)
(0.0010237741 -0.00012586998 -3.7217252e-22 1.8250069e-05 3.8869295e-23 2.3416e-39)
(0.0014158916 -0.00015169184 4.6796137e-22 1.9809946e-05 -4.846847e-23 2.475274e-39)
(0.0018711115 -0.0001772545 -3.6309534e-22 2.1201855e-05 3.54257e-23 1.2606501e-39)
(0.0023860879 -0.00020220014 -1.8190433e-23 2.2452981e-05 3.0301144e-25 1.4664642e-41)
(0.0029568724 -0.0002262517 1.0436974e-22 2.3584204e-05 -1.1102323e-23 4.6338324e-41)
(0.0035790983 -0.00024919118 -1.8005972e-23 2.4611568e-05 8.630268e-25 7.3602312e-42)
(0.0042481525 -0.00027084612 5.6689537e-22 2.5547974e-05 -5.0792624e-23 2.2073065e-39)
(0.0049592787 -0.00029108535 7.9542656e-25 2.6405307e-05 1.0749595e-24 4.7708395e-42)
(0.0057076827 -0.00030982688 -8.3165857e-22 2.7196583e-05 7.7822419e-23 4.5388798e-39)
(0.0064886717 -0.00032704485 1.5390254e-22 2.7935688e-05 -1.6218161e-23 9.5775781e-41)
(0.0072976759 -0.00034273843 3.7299599e-22 2.8632985e-05 -3.7045272e-23 1.1541998e-39)
(0.0081301493 -0.00035697803 -6.0398653e-22 2.9298736e-05 6.4395562e-23 3.271203e-39)
(0.0089809581 -0.00037025281 -3.3288752e-22 2.9928314e-05 3.7958035e-23 1.2282674e-39)
(3.7415667e-06 -1.726137e-06 1.0873713e-23 4.4358856e-06 -4.0155708e-24 3.7327796e-41)
(1.9853793e-05 -2.2336917e-05 -2.9837521e-22 2.9507651e-05 2.249686e-22 1.2150832e-38)
(4.4552714e-05 -5.0711438e-05 5.9216662e-23 5.8800797e-05 -4.8982868e-23 1.0966901e-39)
(0.00013156833 -0.00010289706 3.1416417e-22 8.4309376e-05 -1.9289951e-22 5.8647311e-39)
(0.00027677497 -0.00016637253 4.3642188e-22 0.00010715803 -2.0961867e-22 6.6319144e-39)
(0.00048213827 -0.00023682711 5.2760173e-23 0.00012733035 -2.1141062e-23 6.2297994e-41)
(0.00075314432 -0.00031188489 -1.4024275e-21 0.00014485993 4.853508e-22 3.3168525e-38)
(0.0010904912 -0.00038919821 -4.9357244e-23 0.00016012205 2.0428452e-23 9.5633149e-42)
(0.0014917417 -0.00046687551 7.9275401e-22 0.00017351781 -2.4094322e-22 5.6594286e-39)
(0.0019534596 -0.0005435222 -1.9127605e-22 0.00018536148 5.2704733e-23 3.1470727e-40)
(0.002471562 -0.00061808546 -7.2564177e-22 0.00019589258 1.9842663e-22 3.4904666e-39)
(0.0030413586 -0.00068974726 1.5262121e-22 0.00020529394 -3.892934e-23 1.5893506e-40)
(0.0036577288 -0.00075786008 6.4404046e-22 0.00021370389 -1.4360615e-22 3.7446981e-39)
(0.0043152764 -0.00082190582 2.6593973e-22 0.00022123086 -6.6008468e-23 4.2756917e-40)
(0.0050084078 -0.00088148045 5.3141971e-22 0.00022797147 -1.4142453e-22 1.2361036e-39)
(0.0057314349 -0.00093631499 -4.1968907e-22 0.00023402881 1.0560887e-22 1.0460505e-39)
(0.0064788343 -0.00098630357 -4.0069506e-22 0.00023951441 9.9885935e-23 1.1442608e-39)
(0.0072451532 -0.0010314053 4.0408324e-22 0.00024451824 -1.14951e-22 6.6084445e-40)
(0.0080234413 -0.0010718115 3.6810102e-22 0.00024914215 -1.0228907e-22 1.1563112e-39)
(0.008805426 -0.0011093774 1.4199857e-22 0.00025338296 -3.7964328e-23 4.9137786e-40)
(4.8096828e-06 -4.4200182e-06 8.3667325e-24 1.1831957e-05 -4.1823078e-24 1.9647827e-41)
(3.0009249e-05 -4.6160346e-05 2.2659875e-22 7.8767655e-05 -2.4254682e-22 5.1784252e-39)
(6.7054703e-05 -0.000101987 -4.9579924e-23 0.00015683099 6.3890455e-23 2.7118247e-40)
(0.00017511453 -0.0001952698 -3.4125508e-22 0.00022476868 2.872774e-22 6.4206938e-39)
(0.0003443481 -0.00030590977 1.2553841e-22 0.00028540674 -1.0537705e-22 1.8170771e-40)
(0.00057479214 -0.00042694153 1.6613401e-22 0.00033857299 -1.3501092e-22 9.5309894e-41)
(0.00087039459 -0.00055444266 -2.0715868e-22 0.00038434944 1.0974198e-22 5.719807e-40)
(0.0012301272 -0.00068461609 -5.4075206e-22 0.00042373629 3.1529013e-22 1.1415764e-39)
(0.0016499911 -0.00081442911 2.3665639e-22 0.00045780012 -1.1489884e-22 3.1937445e-40)
(0.0021251061 -0.0009416383 5.0246535e-22 0.00048738309 -2.0862538e-22 1.814175e-39)
(0.002649967 -0.0010645369 1.3936812e-22 0.0005131307 -9.6689932e-23 6.8027022e-41)
(0.0032184575 -0.0011817851 6.1381011e-22 0.00053553389 -2.0337213e-22 3.3669731e-39)
(0.0038240096 -0.001292306 5.1976631e-23 0.00055495837 -1.9228971e-23 1.3956587e-41)
(0.0044597328 -0.0013952152 -9.0988777e-22 0.00057168 3.0667381e-22 5.4127218e-39)
(0.0051184551 -0.001489792 6.6580699e-23 0.00058593286 -4.411142e-23 3.000678e-41)
(0.0057928294 -0.0015755152 -4.2455805e-22 0.00059796019 1.1777997e-22 2.1094962e-39)
(0.0064758264 -0.0016521283 -5.9709057e-22 0.00060802656 2.3656768e-22 8.6600277e-40)
(0.0071604886 -0.0017194815 9.6803134e-22 0.00061639402 -3.7753464e-22 2.8751987e-39)
(0.0078358794 -0.0017778361 5.1012058e-22 0.0006234904 -2.1157657e-22 5.8469913e-40)
(0.008489019 -0.0018311368 1.0190773e-22 0.00062959249 -4.65434e-23 1.2537338e-41)
(7.0856663e-06 -9.1430725e-06 -1.252828e-23 2.1790345e-05 1.5778241e-23 2.8770059e-41)
(4.9192852e-05 -8.1957395e-05 -5.2492226e-22 0.00014530731 6.6387857e-22 1.71817e-38)
(0.00010880396 -0.00017664844 -3.8160615e-23 0.00028904414 4.9039242e-23 2.3483816e-40)
(0.00025163149 -0.00031922302 8.79164e-23 0.00041391998 -9.7325978e-23 1.4965875e-40)
(0.00045988293 -0.00048304735 -1.4221597e-23 0.00052481726 3.6872104e-24 3.8665919e-41)
(0.00073074429 -0.00065866248 4.4772485e-22 0.00062111407 -3.2808209e-22 2.8215739e-39)
(0.0010658016 -0.00084059773 4.9486559e-22 0.00070291387 -3.2300395e-22 2.5631535e-39)
(0.0014614748 -0.0010237495 -1.4996894e-22 0.00077206189 7.2418575e-23 4.0398235e-40)
(0.0019114373 -0.0012040879 -5.4939891e-22 0.00083053703 2.8663893e-22 2.5682399e-39)
(0.0024086298 -0.0013786115 -1.1064593e-21 0.00087992482 5.961406e-22 5.4440573e-39)
(0.0029454025 -0.0015450083 -2.4382651e-23 0.00092145792 -1.2958687e-23 1.2435766e-40)
(0.0035135102 -0.0017014388 1.4062616e-21 0.00095608171 -6.5422338e-22 8.8974377e-39)
(0.0041042466 -0.0018463916 -5.6976309e-22 0.00098449869 2.16834e-22 2.6310947e-39)
(0.0047085759 -0.0019785985 -3.6756185e-22 0.001007233 1.6078777e-22 5.1900672e-40)
(0.0053171483 -0.0020969871 -4.4009104e-23 0.0010247098 4.9746385e-23 1.1210023e-40)
(0.0059204274 -0.0022007242 8.6855621e-22 0.0010373434 -3.8077495e-22 2.1282986e-39)
(0.0065094667 -0.002289344 -4.9123044e-22 0.0010455729 2.4657441e-22 1.4225988e-40)
(0.0070756829 -0.0023626191 -1.1255777e-21 0.0010499492 4.7446671e-22 4.5825481e-39)
(0.0076037442 -0.0024209258 7.5365154e-22 0.0010517953 -3.2888052e-22 2.3040865e-39)
(0.0080756289 -0.0024706367 6.4998596e-22 0.0010526389 -2.6119511e-22 2.1436804e-39)
(1.1332013e-05 -1.6284866e-05 5.6238613e-23 3.3218395e-05 -5.4657338e-23 3.7004894e-40)
(8.1607377e-05 -0.00013204327 1.8248969e-23 0.0002217616 -4.7351294e-24 1.6707864e-40)
(0.00017826826 -0.00027914924 -7.2294123e-22 0.00044034559 1.035311e-21 1.4092436e-38)
(0.0003729221 -0.00048039129 -4.1527046e-22 0.00062960398 4.4109453e-22 4.3599955e-39)
(0.00063788795 -0.00070372053 2.7726172e-22 0.00079648575 -2.2073709e-22 2.6355392e-39)
(0.00096648351 -0.00093719167 3.4432847e-22 0.00093956783 -2.774135e-22 1.2412493e-39)
(0.0013569311 -0.0011737273 -4.4808052e-22 0.0010589601 2.9246383e-22 2.9048526e-39)
(0.0018021559 -0.0014070864 -6.8312218e-22 0.001157524 3.9165339e-22 6.3744388e-39)
(0.0022926268 -0.001632429 1.0100267e-21 0.0012383534 -6.0282759e-22 6.539491e-39)
(0.0028182691 -0.0018461343 2.8984281e-22 0.00130398 -1.1697892e-22 1.5226277e-39)
(0.0033684913 -0.0020453904 -9.1004196e-22 0.0013564213 6.0270289e-22 5.0291003e-40)
(0.0039321937 -0.0022279466 3.9936038e-22 0.0013972613 -1.8115562e-22 1.1721841e-39)
(0.0044979431 -0.0023919529 0 0.0014277091 0 0)
(0.005054122 -0.002535852 3.8832726e-22 0.0014486792 -1.8914519e-22 4.5860861e-40)
(0.0055889875 -0.0026583227 -2.9113976e-22 0.0014608989 1.3833182e-22 2.4489124e-40)
(0.0060908711 -0.0027583237 -4.4560244e-22 0.0014650254 2.226882e-22 2.9719456e-40)
(0.0065493257 -0.0028352889 1.6399649e-22 0.0014616804 -1.3501517e-22 4.184372e-40)
(0.0069551701 -0.0028891412 -1.3343931e-22 0.0014517231 8.0168856e-23 1.5095955e-41)
(0.0072901203 -0.0029207047 6.3848377e-22 0.0014380419 -2.7662829e-22 2.4819569e-39)
(0.0075310608 -0.0029385127 -5.1909554e-22 0.0014253576 2.5515981e-22 1.442996e-40)
(1.8430855e-05 -2.5967273e-05 5.3945233e-23 4.5031125e-05 -4.5356414e-23 2.9711206e-40)
(0.00013199236 -0.00019683964 2.5976573e-22 0.00030038818 -3.459349e-22 1.1086752e-39)
(0.00028478385 -0.00040994576 -3.4860569e-22 0.00059457728 4.6266467e-22 2.6450132e-39)
(0.0005513886 -0.00067850662 -5.7180307e-22 0.00084785321 6.4358242e-22 2.2135093e-39)
(0.00089241918 -0.00096607696 -1.6722976e-22 0.0010690163 2.4622014e-22 1.7476989e-39)
(0.0012960178 -0.0012580728 -5.1666266e-22 0.0012556248 4.5401694e-22 1.0877836e-39)
(0.001755768 -0.001545747 -2.4082994e-22 0.0014079017 1.4822479e-22 1.2576783e-39)
(0.0022600113 -0.0018219583 4.1679939e-22 0.0015298998 -2.5055213e-22 2.3197658e-39)
(0.0027950479 -0.002081341 9.9549958e-22 0.0016260234 -5.930127e-22 7.9420227e-39)
(0.0033469238 -0.0023199284 3.0626025e-22 0.0016999753 -1.8850416e-22 3.3299734e-40)
(0.0039014499 -0.0025346967 -2.9092812e-22 0.0017547946 1.5435335e-22 5.2835236e-40)
(0.0044442546 -0.0027232883 -5.4696124e-23 0.0017929432 -1.1882623e-23 4.6027116e-40)
(0.0049610699 -0.0028838454 -1.3828875e-21 0.001816371 7.5686731e-22 4.3795575e-39)
(0.0054380148 -0.0030148996 -4.2900463e-22 0.0018266047 2.2440456e-22 4.5301855e-40)
(0.0058617922 -0.0031153102 7.1742358e-22 0.0018248679 -4.1561673e-22 2.1441067e-40)
(0.0062200147 -0.0031842855 -7.1472361e-22 0.0018121994 3.8681652e-22 4.4759021e-40)
(0.0065026988 -0.0032215776 -2.519423e-22 0.0017894175 1.2414487e-22 1.4327755e-40)
(0.0067028776 -0.003227688 5.6400833e-22 0.0017574889 -2.3768791e-22 2.2281811e-39)
(0.0068033961 -0.0032044699 8.5331286e-22 0.0017210479 -4.2748129e-22 1.6884454e-39)
(0.0067769346 -0.0031618816 1.0403924e-22 0.0016903759 -4.869008e-23 3.2887891e-41)
(2.9319228e-05 -3.8053074e-05 -1.5215767e-22 5.6241484e-05 1.2354962e-22 1.757959e-39)
(0.00020505719 -0.0002748333 -1.6857025e-22 0.0003738509 1.7102038e-22 1.4011945e-39)
(0.00043713856 -0.00056523774 4.2509791e-22 0.00073634662 -5.375124e-22 6.4011819e-40)
(0.00079766326 -0.00090686783 6.4903352e-22 0.0010458195 -6.7245402e-22 2.9378145e-39)
(0.0012336552 -0.0012597722 8.4794774e-24 0.0013126197 -7.6362319e-24 5.8337168e-43)
(0.0017263868 -0.0016065506 -1.7616309e-21 0.0015333712 1.453739e-21 1.7159432e-38)
(0.0022633045 -0.0019368569 -6.8882845e-22 0.0017087234 5.8996957e-22 2.4455236e-40)
(0.0028270577 -0.0022430542 5.3618312e-22 0.0018441601 -3.6161472e-22 1.8831645e-39)
(0.0033990022 -0.0025197571 6.1417735e-22 0.0019456082 -4.1250325e-22 1.1514731e-39)
(0.0039608685 -0.0027631937 -6.0222768e-22 0.0020181716 3.3520101e-22 3.1615492e-39)
(0.0044948127 -0.0029707001 -1.7665338e-21 0.0020661556 1.1151714e-21 4.60507e-39)
(0.0049836675 -0.0031404351 1.1612009e-21 0.0020931448 -7.0391879e-22 1.8931063e-39)
(0.0054114378 -0.0032712126 6.9116913e-22 0.0021020697 -3.6042605e-22 2.2693287e-39)
(0.00576381 -0.0033623942 -9.5710115e-22 0.0020952995 5.2832287e-22 1.871989e-39)
(0.0060285623 -0.0034138187 4.2013521e-22 0.0020747564 -2.4272936e-22 1.2537958e-40)
(0.0061960087 -0.0034257692 6.9697342e-22 0.0020420054 -3.5914661e-22 1.3943992e-39)
(0.0062605991 -0.0033990489 2.6525948e-22 0.0019980728 -1.4972787e-22 4.7414782e-41)
(0.006222081 -0.0033352539 -4.5419538e-22 0.0019436437 2.8127536e-22 5.9880287e-41)
(0.0060706865 -0.0032376722 -1.0497176e-22 0.0018843531 3.389247e-23 3.4548588e-40)
(0.0057782814 -0.0031164429 5.9523777e-22 0.0018375056 -3.4461463e-22 1.3982846e-40)
(4.491779e-05 -5.2150035e-05 -4.5411858e-24 6.5974396e-05 -4.7698583e-24 3.2707869e-41)
(0.00030485782 -0.00036263039 -6.1241074e-22 0.00043564507 6.4794193e-22 4.6044873e-39)
(0.00064204011 -0.00073711995 -4.8883383e-22 0.00085227887 5.2457755e-22 6.9670285e-39)
(0.0011181664 -0.0011526446 9.169452e-22 0.0012040018 -8.790149e-22 4.0719064e-39)
(0.0016646721 -0.0015666013 7.6534373e-22 0.0015024168 -7.5073988e-22 1.7311606e-39)