/*--------------------------------*- C++ -*----------------------------------*\
  =========                 |
  \\      /  F ield         | OpenFOAM: The Open Source CFD Toolbox
   \\    /   O peration     | Website:  https://openfoam.org
    \\  /    A nd           | Version:  6
     \\/     M anipulation  |
\*---------------------------------------------------------------------------*/
FoamFile
{
    version     2.0;
    format      ascii;
    class       volScalarField;
    location    "45";
    object      p;
}
// * * * * * * * * * * * * * * * * * * * * * * * * * * * * * * * * * * * * * //

dimensions      [0 2 -2 0 0 0 0];

internalField   nonuniform List<scalar> 
9200
(
-0.3883661
-0.37696201
-0.36681912
-0.35782814
-0.34904882
-0.34049459
-0.33224351
-0.32426212
-0.31648191
-0.30882972
-0.30123135
-0.29361661
-0.28592636
-0.27811983
-0.27018527
-0.2621578
-0.25411408
-0.24614267
-0.23926436
-0.23775171
-0.40630162
-0.39243951
-0.38034794
-0.36983338
-0.3596784
-0.34986364
-0.34045736
-0.33139499
-0.32257551
-0.31389911
-0.30527127
-0.29660871
-0.28784697
-0.2789465
-0.26989825
-0.26072761
-0.25146542
-0.24211275
-0.23334955
-0.22733473
-0.42465256
-0.40831068
-0.39431748
-0.38235063
-0.37087565
-0.35982208
-0.34923651
-0.33901558
-0.32902385
-0.31913898
-0.30925551
-0.29929066
-0.28919118
-0.27893641
-0.26853815
-0.25803616
-0.24747068
-0.23685224
-0.22657876
-0.21776183
-0.44298198
-0.42418068
-0.40835223
-0.3949951
-0.38222005
-0.36988908
-0.35801931
-0.34646817
-0.33507403
-0.32370771
-0.31227397
-0.30071462
-0.28901164
-0.2771848
-0.26528486
-0.25338326
-0.24154818
-0.22982004
-0.21846595
-0.20822581
-0.46065615
-0.43949999
-0.42195402
-0.4072838
-0.3932176
-0.37953916
-0.36623611
-0.35313767
-0.34007695
-0.32694542
-0.31368818
-0.30030009
-0.2868215
-0.2733281
-0.25991732
-0.24669383
-0.2337492
-0.22114305
-0.20906371
-0.1980187
-0.47684617
-0.45354551
-0.43445858
-0.41856449
-0.40319943
-0.38806912
-0.3731445
-0.35825266
-0.34325603
-0.32810355
-0.3128137
-0.29745915
-0.28215211
-0.26702603
-0.25221702
-0.23784864
-0.22401657
-0.21077726
-0.19825681
-0.18679258
-0.49054218
-0.4654264
-0.44503668
-0.42801836
-0.41133278
-0.39462389
-0.3778742
-0.36094992
-0.34378774
-0.32643369
-0.30900786
-0.29167429
-0.27461591
-0.25801062
-0.24201252
-0.22674051
-0.21227074
-0.19863427
-0.18589793
-0.17426342
-0.50057567
-0.47410792
-0.45272689
-0.43470736
-0.41668617
-0.3982799
-0.37952588
-0.36038212
-0.34090834
-0.3212826
-0.30174373
-0.28254643
-0.26392921
-0.2460908
-0.22917704
-0.21327813
-0.19843109
-0.18462731
-0.17187541
-0.1602628
-0.50559982
-0.47830995
-0.45623791
-0.43729011
-0.41787819
-0.39765413
-0.37677054
-0.35533487
-0.33356938
-0.31179948
-0.29037572
-0.26962031
-0.24979623
-0.23109145
-0.21361715
-0.19741626
-0.18247605
-0.16874411
-0.15617484
-0.14475766
-0.50426062
-0.4766112
-0.45401705
-0.434096
-0.4131823
-0.39104759
-0.36802557
-0.34441889
-0.32062578
-0.2971016
-0.27427072
-0.25247701
-0.23196483
-0.21287838
-0.19527389
-0.17913852
-0.16441041
-0.15099919
-0.13881229
-0.12775372
-0.27490886
-0.27960428
-0.28212164
-0.282872
-0.28265143
-0.28164769
-0.27994249
-0.27762361
-0.27476337
-0.27141655
-0.2676272
-0.2634328
-0.25886645
-0.2539582
-0.24873631
-0.2432297
-0.23746934
-0.23147578
-0.22524789
-0.21887185
-0.27765917
-0.2819362
-0.28414476
-0.28467521
-0.28427069
-0.28311013
-0.28127331
-0.27884425
-0.27589171
-0.2724676
-0.26861352
-0.26436486
-0.2597528
-0.25480537
-0.24954822
-0.24400923
-0.23822691
-0.23222017
-0.2258806
-0.21918155
-0.28302235
-0.28648142
-0.28808806
-0.2881884
-0.28742326
-0.28595597
-0.28386274
-0.28122028
-0.27809032
-0.27451913
-0.27054347
-0.26619445
-0.26149946
-0.25648269
-0.25116488
-0.24557104
-0.23975114
-0.23372303
-0.22718499
-0.21987592
-0.29075567
-0.2930442
-0.29377988
-0.29324806
-0.29194748
-0.29002169
-0.28754288
-0.28457781
-0.2811785
-0.27738328
-0.27322202
-0.2687197
-0.26389815
-0.2587758
-0.25336658
-0.24769024
-0.2418087
-0.23574455
-0.22894858
-0.2207863
-0.30055345
-0.30137894
-0.30100653
-0.29965314
-0.29764737
-0.29511181
-0.29211543
-0.28871361
-0.28494687
-0.28084424
-0.27642725
-0.27171257
-0.26671445
-0.26144436
-0.25590805
-0.25011686
-0.2441405
-0.23801499
-0.23093177
-0.22173783
-0.31209866
-0.311231
-0.30954861
-0.30720094
-0.30432966
-0.30103783
-0.29739341
-0.29344069
-0.28920811
-0.28471295
-0.27996586
-0.27497416
-0.26974323
-0.26427604
-0.25856915
-0.25262246
-0.24650552
-0.2402738
-0.23288874
-0.22255854
-0.32510986
-0.32237347
-0.31921398
-0.31572061
-0.31183959
-0.30765764
-0.30324567
-0.29863644
-0.29384357
-0.28887177
-0.28372011
-0.27838452
-0.27285964
-0.26713879
-0.26120936
-0.25505938
-0.24875094
-0.2423621
-0.23468848
-0.22323305
-0.33936951
-0.33463017
-0.32985997
-0.32509783
-0.32009042
-0.31491112
-0.30963402
-0.30427963
-0.2988467
-0.29332534
-0.28770013
-0.28195253
-0.27606339
-0.27001377
-0.26378126
-0.25734487
-0.25076374
-0.24416182
-0.23628889
-0.22394132
-0.35472384
-0.34786815
-0.34137586
-0.33524585
-0.32901791
-0.32275073
-0.31652356
-0.31034405
-0.30419315
-0.29804317
-0.29186052
-0.28560803
-0.27924722
-0.27273864
-0.26603727
-0.25909468
-0.25193438
-0.2446627
-0.23602699
-0.22252216
-0.37107375
-0.36197931
-0.35364908
-0.34604678
-0.33849193
-0.3310283
-0.32374013
-0.31661984
-0.30962807
-0.3027176
-0.29583637
-0.28893024
-0.28194604
-0.27483155
-0.26753041
-0.25997782
-0.2521164
-0.24374008
-0.2332026
-0.21746418
-0.21163988
-0.2025868
-0.19352387
-0.18451636
-0.17551006
-0.16654691
-0.15768121
-0.14894863
-0.14037896
-0.13200136
-0.12384215
-0.11592403
-0.10826657
-0.10088653
-0.093797852
-0.087011691
-0.080536549
-0.074378358
-0.068540579
-0.063024301
-0.057828366
-0.052949503
-0.048382476
-0.044120251
-0.040154165
-0.036474119
-0.033068764
-0.029925698
-0.027031659
-0.024372712
-0.021934434
-0.019702085
-0.017660773
-0.015795605
-0.014091839
-0.012535028
-0.01111118
-0.0098068951
-0.0086097285
-0.0075079335
-0.0064926234
-0.0055525617
-0.0046931388
-0.0038813479
-0.0032189064
-0.0024340037
-0.0023959864
-0.00074457431
-0.0045066211
0.0058579967
-0.21267132
-0.20321746
-0.19404498
-0.18505274
-0.17602874
-0.16703545
-0.15814542
-0.14939067
-0.14079848
-0.13239855
-0.12421752
-0.11627796
-0.10859944
-0.10119879
-0.094090007
-0.08728433
-0.080790321
-0.074613977
-0.068758812
-0.06322596
-0.058014299
-0.053120581
-0.048539584
-0.044264277
-0.040285994
-0.036594623
-0.033178796
-0.030026086
-0.027123201
-0.024456173
-0.022010542
-0.019771529
-0.0177242
-0.015853623
-0.014145011
-0.012583872
-0.011156172
-0.0098484631
-0.0086482549
-0.0075437507
-0.006526011
-0.0055837448
-0.0047222535
-0.0039085304
-0.0032438098
-0.0024573403
-0.0024136271
-0.00076624143
-0.0044922614
0.0058000811
-0.21483159
-0.2045199
-0.195129
-0.18620785
-0.17716123
-0.16810746
-0.15917013
-0.15037168
-0.14173261
-0.13328483
-0.12505624
-0.11706929
-0.10934366
-0.10189654
-0.094742231
-0.087892177
-0.081355166
-0.075137387
-0.069242516
-0.063671816
-0.058424259
-0.053496667
-0.048883856
-0.044578809
-0.040572851
-0.03685584
-0.033416361
-0.030241928
-0.027319175
-0.02463405
-0.022172004
-0.019918162
-0.017857492
-0.015974957
-0.01425567
-0.012685033
-0.011248905
-0.0099337339
-0.0087269192
-0.0076165519
-0.0065935765
-0.0056465771
-0.0047806787
-0.0039628377
-0.003293386
-0.002503528
-0.0024484226
-0.00080876912
-0.0044630648
0.0056850689
-0.21795553
-0.20625639
-0.19654324
-0.18782572
-0.17879189
-0.16966201
-0.16067131
-0.15182473
-0.14312715
-0.13461564
-0.1263219
-0.11826844
-0.11047523
-0.10296033
-0.09573875
-0.088822488
-0.082220799
-0.075940293
-0.069984994
-0.064356443
-0.05905383
-0.054074131
-0.049412269
-0.045061284
-0.041012515
-0.037255798
-0.033779665
-0.030571548
-0.027617978
-0.024904784
-0.02241728
-0.020140447
-0.0180591
-0.016158044
-0.014422232
-0.012836901
-0.011387749
-0.010061054
-0.0088440483
-0.0077246483
-0.0066936192
-0.0057393528
-0.0048667083
-0.0040425787
-0.0033659577
-0.0025709468
-0.0024988068
-0.00087066882
-0.004418309
0.0055151443
-0.2218079
-0.20814943
-0.19801157
-0.18970177
-0.18076789
-0.17156527
-0.16253293
-0.15365531
-0.14490533
-0.13632725
-0.12796147
-0.11983163
-0.11195816
-0.10436056
-0.09705529
-0.090055383
-0.083370966
-0.07700941
-0.070975376
-0.065270926
-0.059895657
-0.054846861
-0.050119687
-0.045707322
-0.041601187
-0.037791136
-0.034265671
-0.031012145
-0.028016978
-0.025265855
-0.022743925
-0.020435984
-0.018326649
-0.016400519
-0.014642331
-0.013037107
-0.011570322
-0.01022803
-0.0089972391
-0.0078656285
-0.0068237235
-0.0058596584
-0.004977938
-0.0041453729
-0.0034591802
-0.0026573104
-0.0025626536
-0.00094971738
-0.0043574495
0.0052938632
-0.22603078
-0.20991191
-0.19925855
-0.19159518
-0.18290946
-0.17366712
-0.16461631
-0.15574298
-0.14696825
-0.13833779
-0.12990597
-0.12170101
-0.11374432
-0.10605733
-0.098658738
-0.091563416
-0.08478293
-0.078325885
-0.072197995
-0.066402192
-0.060938776
-0.055805589
-0.0509982
-0.046510096
-0.042332895
-0.038456557
-0.034869607
-0.031559359
-0.028512132
-0.025713469
-0.023148337
-0.020801319
-0.018656799
-0.016699128
-0.014912783
-0.013282517
-0.011793533
-0.010431606
-0.0091834625
-0.0080364875
-0.0069809077
-0.0060045378
-0.0051114411
-0.0042683363
-0.0035702243
-0.0027598671
-0.0026374272
-0.0010432373
-0.0042800189
0.005025842
-0.2302157
-0.21135767
-0.20006872
-0.19322165
-0.18500874
-0.17583407
-0.16680035
-0.1579695
-0.14921413
-0.14056375
-0.1320851
-0.12381644
-0.11578256
-0.10800724
-0.10051217
-0.093315032
-0.086429627
-0.079866418
-0.0736327
-0.06773273
-0.062167885
-0.056936871
-0.052035927
-0.047459044
-0.043198193
-0.039243558
-0.035583776
-0.032206176
-0.029097016
-0.026241704
-0.023625024
-0.021231332
-0.019044752
-0.017049351
-0.015229304
-0.013569053
-0.012053479
-0.010668027
-0.0093990904
-0.0082337068
-0.007161748
-0.0061706525
-0.0052639564
-0.0044082925
-0.0036959986
-0.0028756436
-0.0027204021
-0.0011484008
-0.0041856611
0.0047164249
-0.23409007
-0.21287951
-0.20066729
-0.19439209
-0.18684745
-0.17797454
-0.16903765
-0.16027488
-0.15157703
-0.14294542
-0.13444565
-0.12612868
-0.11802715
-0.11016842
-0.10257754
-0.095275761
-0.08827994
-0.081603022
-0.075254392
-0.069240071
-0.063562898
-0.05822276
-0.05321683
-0.04853982
-0.044184228
-0.040140599
-0.036397787
-0.032943213
-0.029763119
-0.026842812
-0.024166901
-0.021719513
-0.019484496
-0.017445606
-0.015586688
-0.013891831
-0.012345554
-0.010932929
-0.0096399681
-0.0084533137
-0.0073624314
-0.0063543341
-0.0054319459
-0.0045618404
-0.0038332321
-0.0030015439
-0.0028087787
-0.001262397
-0.0040741668
0.0043715902
-0.23529521
-0.21470689
-0.20174116
-0.19503809
-0.18798494
-0.17970124
-0.17104764
-0.16241948
-0.15383366
-0.14528377
-0.13681803
-0.12849508
-0.12035874
-0.11244226
-0.10477469
-0.097381402
-0.090283185
-0.083496302
-0.077032966
-0.070901634
-0.065107214
-0.059651316
-0.054532525
-0.049746677
-0.045287143
-0.041145116
-0.037309899
-0.033769186
-0.030509347
-0.027515692
-0.024772728
-0.022264393
-0.019974281
-0.017885845
-0.015982583
-0.014248212
-0.012666855
-0.011223176
-0.0099027653
-0.0086918215
-0.0075793559
-0.0065519064
-0.0056117043
-0.0047252813
-0.0039783164
-0.0031339965
-0.0028995393
-0.0013815221
-0.0039462064
0.0039992511
-0.22537698
-0.21390918
-0.20283015
-0.19466866
-0.18753337
-0.18003297
-0.17199478
-0.16374074
-0.15545028
-0.14714973
-0.13886731
-0.1306612
-0.12258758
-0.11469003
-0.10700496
-0.099564463
-0.092395681
-0.085520474
-0.078955844
-0.072714348
-0.066804386
-0.061230492
-0.055993665
-0.051091698
-0.046519516
-0.042269508
-0.038331863
-0.034694896
-0.031345364
-0.028268773
-0.025449665
-0.022871884
-0.020518824
-0.018373655
-0.016419533
-0.014639784
-0.013018112
-0.011538727
-0.010186758
-0.0089479074
-0.0078106821
-0.0067610812
-0.0058005806
-0.0048956185
-0.0041281213
-0.0032693724
-0.0029900298
-0.0015000605
-0.0038054575
0.0036103648
-0.2032441
-0.20781516
-0.20245744
-0.19349069
-0.18591624
-0.17882686
-0.1712388
-0.16328847
-0.15524185
-0.14716244
-0.13907031
-0.131019
-0.12306846
-0.11526666
-0.10765319
-0.1002631
-0.09312651
-0.086268112
-0.07970745
-0.073459373
-0.067534341
-0.061938709
-0.056675072
-0.05174261
-0.047137436
-0.042852949
-0.038880182
-0.035208143
-0.031824151
-0.028714153
-0.025863027
-0.02325486
-0.020873213
-0.018701353
-0.016722471
-0.014919882
-0.01327723
-0.011778629
-0.010409064
-0.00915407
-0.0080018794
-0.0069383621
-0.0059640836
-0.005046585
-0.0042618079
-0.0033948135
-0.0030678351
-0.0016169639
-0.0036516551
0.003222752
-0.19256746
-0.19823834
-0.19468823
-0.18590547
-0.17864161
-0.17231172
-0.16553317
-0.15830629
-0.15092627
-0.14346843
-0.13594311
-0.12839946
-0.12089981
-0.11349577
-0.10623047
-0.099142754
-0.09226678
-0.085631236
-0.079259515
-0.073170123
-0.067376952
-0.061889564
-0.056713508
-0.051850678
-0.047299663
-0.043056103
-0.03911305
-0.03546132
-0.032089838
-0.028985969
-0.02613583
-0.023524588
-0.02113673
-0.018956315
-0.016967201
-0.015153256
-0.013498574
-0.011987631
-0.010605666
-0.0093384379
-0.0081741503
-0.0070990119
-0.006112402
-0.0051844389
-0.0043819311
-0.0035118496
-0.003128349
-0.0017405981
-0.0034511866
0.0028040636
-0.18368566
-0.18675854
-0.18440689
-0.17735699
-0.17095594
-0.16532785
-0.15932397
-0.1528358
-0.14612855
-0.13929737
-0.13235474
-0.1253436
-0.11832497
-0.11135224
-0.10447061
-0.097721254
-0.091141225
-0.084762406
-0.07861148
-0.072710241
-0.067075814
-0.061720881
-0.056653962
-0.051879747
-0.04739943
-0.043211057
-0.039309882
-0.035688722
-0.032338303
-0.029247596
-0.026404146
-0.023794369
-0.021403841
-0.019217555
-0.017220168
-0.015396218
-0.01373035
-0.012207488
-0.0108132
-0.0095335295
-0.0083566807
-0.0072692802
-0.0062693854
-0.0053300848
-0.0045078594
-0.0036346238
-0.0031875936
-0.0018720958
-0.0032185403
0.0023414084
-0.17384959
-0.17432911
-0.17242539
-0.16745744
-0.16229587
-0.15741854
-0.15221348
-0.14654518
-0.14058912
-0.13444627
-0.12814487
-0.1217258
-0.11524654
-0.10876104
-0.10231629
-0.095955439
-0.089717983
-0.083638746
-0.077747588
-0.07206958
-0.066625156
-0.061430263
-0.056496592
-0.051831861
-0.047440123
-0.043322098
-0.03947551
-0.03589544
-0.03257467
-0.029504022
-0.026672688
-0.024068542
-0.021678435
-0.019488467
-0.01748424
-0.015651096
-0.013974343
-0.012439451
-0.011032396
-0.0097395743
-0.0085492338
-0.0074484545
-0.00643396
-0.0054818599
-0.0046380201
-0.0037599365
-0.0032453932
-0.0020026187
-0.0029677582
0.0018547891
-0.16310713
-0.16173331
-0.15985915
-0.15660711
-0.15274498
-0.14867996
-0.14427871
-0.13946186
-0.13431043
-0.12890689
-0.12329565
-0.11752037
-0.11163413
-0.10568945
-0.099734133
-0.093812593
-0.087966052
-0.082231687
-0.076642156
-0.071225585
-0.066005615
-0.061001471
-0.056228112
-0.051696446
-0.0474136
-0.043383208
-0.03960573
-0.03607878
-0.032797462
-0.029754713
-0.026941623
-0.024347757
-0.021961459
-0.01977013
-0.017760498
-0.015918859
-0.014231327
-0.012684036
-0.011263469
-0.0099564537
-0.0087513528
-0.0076357229
-0.0066050161
-0.0056382458
-0.0047708705
-0.0038853526
-0.00330103
-0.0021272275
-0.0027082354
0.0013601845
-0.15114658
-0.14900835
-0.14725892
-0.14528036
-0.14259241
-0.13936974
-0.13576156
-0.13177512
-0.12743119
-0.12278459
-0.11788622
-0.11278191
-0.10752101
-0.10215335
-0.096726191
-0.091284073
-0.08586885
-0.080519081
-0.075269458
-0.070150577
-0.065188857
-0.060406511
-0.055821602
-0.051448177
-0.047296464
-0.043373107
-0.039681445
-0.036221808
-0.032991829
-0.02998677
-0.027199841
-0.024622517
-0.022244841
-0.020055713
-0.018043168
-0.016194631
-0.014497166
-0.012937704
-0.011503355
-0.01018147
-0.0089606162
-0.0078288495
-0.0067804746
-0.0057971756
-0.004904605
-0.0040086135
-0.0033539875
-0.0022421717
-0.0024498895
0.00087386262
-0.13828933
-0.13630096
-0.13490897
-0.13384173
-0.13211907
-0.12971092
-0.12686809
-0.12366503
-0.12009793
-0.11619555
-0.11200807
-0.10758165
-0.10295986
-0.098188703
-0.093313929
-0.088379173
-0.083425785
-0.078492573
-0.073615277
-0.06882615
-0.064153725
-0.05962268
-0.055253794
-0.051063987
-0.047066431
-0.043270716
-0.039683066
-0.036306592
-0.033141568
-0.030185726
-0.027434559
-0.024881628
-0.022518858
-0.020336829
-0.018325059
-0.016472262
-0.014766612
-0.013195975
-0.011748215
-0.010411307
-0.0091741337
-0.0080252708
-0.006958052
-0.0059565097
-0.0050374423
-0.0041276653
-0.0034040487
-0.0023443054
-0.002203488
0.00041290251
-0.1252534
-0.12385795
-0.12296173
-0.12255048
-0.12158452
-0.1199152
-0.11778724
-0.11530528
-0.11246232
-0.10926956
-0.10576919
-0.10200585
-0.098018896
-0.09384804
-0.0895355
-0.085123177
-0.080651069
-0.076157151
-0.071677131
-0.067243972
-0.062887502
-0.058634169
-0.054506898
-0.050525036
-0.046704366
-0.043057195
-0.039592496
-0.036316099
-0.033230922
-0.030337219
-0.02763286
-0.025113608
-0.022773411
-0.020604678
-0.018598562
-0.016745223
-0.015034088
-0.013454102
-0.011994011
-0.010642529
-0.0093889662
-0.0082224516
-0.007135562
-0.0061143064
-0.005167841
-0.0042409294
-0.0034513287
-0.0024316559
-0.0019793151
-6.5573492e-06
-0.11257992
-0.11185799
-0.11148251
-0.11156617
-0.11118941
-0.11016005
-0.10867695
-0.10684549
-0.10466207
-0.10212852
-0.099277149
-0.09614715
-0.092773983
-0.089192301
-0.085438861
-0.08155204
-0.077569693
-0.073528167
-0.069462151
-0.065404343
-0.061384986
-0.057431515
-0.053568318
-0.049816584
-0.046194239
-0.042715937
-0.039393126
-0.036234172
-0.033244521
-0.030426905
-0.027781575
-0.025306548
-0.022997871
-0.02084989
-0.018855512
-0.017006469
-0.015293578
-0.013706988
-0.01223646
-0.010871554
-0.0096021383
-0.0084179312
-0.0073109911
-0.0062689307
-0.0052946214
-0.0043474872
-0.0034963129
-0.002503789
-0.0017859638
-0.00037119839
-0.10055209
-0.10042
-0.10051602
-0.10098836
-0.10107402
-0.10058153
-0.099661618
-0.098405535
-0.096811975
-0.094878092
-0.092627062
-0.090090962
-0.087299983
-0.084284057
-0.081075025
-0.077706446
-0.074212697
-0.070627735
-0.066984469
-0.063314455
-0.05964749
-0.056011195
-0.052430689
-0.048928361
-0.045523713
-0.042233279
-0.039070603
-0.036046291
-0.033168106
-0.030441113
-0.027867865
-0.025448603
-0.023181492
-0.021062859
-0.019087444
-0.017248645
-0.015538776
-0.013949303
-0.012471115
-0.011094731
-0.009810698
-0.0086093764
-0.0074825516
-0.0064191071
-0.0054170204
-0.00444713
-0.0035398294
-0.002561808
-0.0016294022
-0.00067202631
-0.089308561
-0.089634709
-0.090115035
-0.090890709
-0.091338058
-0.091284175
-0.090841515
-0.090083251
-0.089007634
-0.087608933
-0.085902656
-0.083913459
-0.081665708
-0.079184041
-0.076495435
-0.073628798
-0.070614134
-0.067482058
-0.06426299
-0.060986624
-0.057681532
-0.054374752
-0.051091412
-0.047854428
-0.044684277
-0.041598838
-0.0386133
-0.035740135
-0.032989125
-0.030367445
-0.027879786
-0.025528516
-0.023313864
-0.021234134
-0.019285921
-0.017464346
-0.015763289
-0.014175625
-0.012693469
-0.011308393
-0.010011744
-0.008794584
-0.0076486669
-0.0065638839
-0.0055346475
-0.0045402659
-0.0035829267
-0.0026080719
-0.0015123692
-0.00090532551
-0.078908767
-0.079564397
-0.080332239
-0.081333279
-0.082056311
-0.082350618
-0.082300369
-0.08196199
-0.08133162
-0.080401123
-0.079179662
-0.077684921
-0.075935353
-0.073950236
-0.07175132
-0.069362798
-0.066810306
-0.06412042
-0.061320357
-0.058437319
-0.055497986
-0.052528114
-0.049552144
-0.046592859
-0.043671092
-0.040805507
-0.038012439
-0.035305793
-0.032697011
-0.030195083
-0.027806614
-0.025535927
-0.023385208
-0.021354669
-0.019442739
-0.017646269
-0.015960745
-0.014380505
-0.012898968
-0.01150884
-0.010202372
-0.0089713973
-0.0078078657
-0.0067024976
-0.0056473377
-0.0046276949
-0.0036266648
-0.0026456934
-0.0014342312
-0.001072852
-0.069364029
-0.070241583
-0.07120782
-0.072362857
-0.073285809
-0.073846728
-0.074108753
-0.074114451
-0.073857496
-0.07332762
-0.07252874
-0.071472375
-0.070171369
-0.068639793
-0.066894275
-0.064954055
-0.062840296
-0.060575466
-0.058183039
-0.055687145
-0.053112005
-0.050481484
-0.047818703
-0.045145676
-0.042482985
-0.039849507
-0.037262194
-0.034735918
-0.032283369
-0.029915006
-0.027639062
-0.025461595
-0.023386573
-0.021416001
-0.019550069
-0.017787324
-0.016124855
-0.01455849
-0.013082996
-0.011692277
-0.010379579
-0.0091375785
-0.0079586261
-0.0068341795
-0.0057549406
-0.0047103034
-0.0036718673
-0.0026779301
-0.001391339
-0.0011811961
-0.060659104
-0.061674193
-0.062764047
-0.064010878
-0.065067796
-0.06582329
-0.066324528
-0.066603079
-0.066650574
-0.066455064
-0.066016238
-0.065340388
-0.064435349
-0.063310378
-0.061977268
-0.060450464
-0.058746559
-0.056883816
-0.054881837
-0.052761268
-0.050543392
-0.048249673
-0.045901357
-0.043519113
-0.041122692
-0.038730615
-0.036359921
-0.034025954
-0.031742205
-0.029520215
-0.027369511
-0.025297607
-0.023310036
-0.021410427
-0.01960061
-0.017880749
-0.016249497
-0.01470416
-0.013240875
-0.011854783
-0.010540195
-0.0092907001
-0.0080992335
-0.0069579728
-0.0058571105
-0.0047887597
-0.0037188995
-0.0027076135
-0.0013778178
-0.0012404252
-0.052762819
-0.05385098
-0.05500504
-0.056292509
-0.057427959
-0.058316198
-0.05899219
-0.059478963
-0.059766805
-0.059842702
-0.059703109
-0.059350092
-0.058787247
-0.058019608
-0.057054603
-0.055902232
-0.054574706
-0.053086101
-0.051452094
-0.049689694
-0.047816928
-0.045852461
-0.043815216
-0.041724016
-0.039597251
-0.037452557
-0.035306531
-0.033174489
-0.031070262
-0.029006045
-0.02699229
-0.025037646
-0.023148943
-0.021331217
-0.019587772
-0.017920268
-0.01632884
-0.014812229
-0.01336793
-0.011992336
-0.010680873
-0.0094281045
-0.0082277072
-0.0070726173
-0.005953165
-0.0048632922
-0.0037675416
-0.0027367482
-0.0013866284
-0.0012622978
-0.045633469
-0.046746775
-0.047919826
-0.049208098
-0.050377407
-0.051347043
-0.052142739
-0.052781025
-0.053251554
-0.053540907
-0.053643261
-0.053557451
-0.053283687
-0.052823491
-0.052180546
-0.051360909
-0.050372784
-0.049226283
-0.047933249
-0.046507054
-0.044962338
-0.04331472
-0.041580466
-0.039776161
-0.037918386
-0.036023414
-0.034106913
-0.032183685
-0.030267431
-0.028370563
-0.026504056
-0.024677337
-0.022898224
-0.021172901
-0.019505935
-0.017900318
-0.016357546
-0.014877713
-0.013459628
-0.012100925
-0.010798171
-0.0095469541
-0.0083418201
-0.0071765354
-0.0060420433
-0.0049335955
-0.0038169892
-0.0027663508
-0.0014106578
-0.0012584496
-0.039223374
-0.040327442
-0.041486473
-0.042746066
-0.043914743
-0.044924601
-0.045794494
-0.046536117
-0.0471391
-0.047590209
-0.047882212
-0.048011649
-0.047976193
-0.047774624
-0.047407571
-0.046877762
-0.046189901
-0.045350524
-0.044367899
-0.043251902
-0.042013826
-0.040666154
-0.039222305
-0.037696352
-0.036102731
-0.034455955
-0.032770336
-0.031059712
-0.029337208
-0.027615019
-0.025904226
-0.024214657
-0.022554779
-0.020931625
-0.019350773
-0.017816342
-0.016331027
-0.014896159
-0.013511781
-0.012176727
-0.010888703
-0.009644358
-0.0084391987
-0.0072679059
-0.0061223621
-0.0049988645
-0.003865968
-0.0027965152
-0.0014436027
-0.0012389379
-0.03348231
-0.034553613
-0.035675685
-0.036885991
-0.038028613
-0.039046891
-0.039954609
-0.040759938
-0.041452954
-0.042021084
-0.042456419
-0.042754026
-0.042909831
-0.042920619
-0.042784684
-0.042502086
-0.042074617
-0.041505733
-0.040800522
-0.039965646
-0.039009228
-0.037940686
-0.036770549
-0.035510241
-0.034171832
-0.032767787
-0.031310714
-0.029813111
-0.028287119
-0.026744304
-0.025195456
-0.023650414
-0.022117932
-0.020605575
-0.019119644
-0.017665144
-0.016245771
-0.014863937
-0.013520803
-0.012216334
-0.010949344
-0.0097175474
-0.0085174754
-0.0073447952
-0.0061925317
-0.0050579159
-0.0039129115
-0.0028266292
-0.001480482
-0.0012114036
-0.028359823
-0.029383363
-0.030453635
-0.031601367
-0.032700253
-0.033703427
-0.034620948
-0.035458459
-0.036206806
-0.036854411
-0.037393264
-0.037817637
-0.038122395
-0.038303007
-0.038356107
-0.038279748
-0.038073426
-0.037738074
-0.037276078
-0.036691281
-0.03598893
-0.035175582
-0.034258974
-0.033247875
-0.032151897
-0.030981287
-0.02974671
-0.028459022
-0.027129049
-0.025767367
-0.024384094
-0.022988716
-0.021589916
-0.02019545
-0.018812043
-0.017445311
-0.016099724
-0.014778582
-0.013484021
-0.012217028
-0.010977461
-0.0097640812
-0.0085744653
-0.0074053153
-0.0062509016
-0.0051093518
-0.0039561475
-0.0028556456
-0.0015177443
-0.0011809039
-0.023807101
-0.024774423
-0.025784404
-0.026862131
-0.027905984
-0.028877571
-0.029784211
-0.030629741
-0.031405964
-0.032102502
-0.032711657
-0.033227432
-0.033644187
-0.033956649
-0.03416039
-0.034252068
-0.03422948
-0.0340916
-0.033838633
-0.03347206
-0.032994637
-0.032410358
-0.03172439
-0.030942965
-0.030073269
-0.029123279
-0.028101586
-0.027017212
-0.025879414
-0.024697482
-0.02348055
-0.022237407
-0.020976331
-0.019704941
-0.018430069
-0.017157664
-0.015892713
-0.014639188
-0.013400022
-0.012177086
-0.010971189
-0.0097820789
-0.0086083658
-0.0074477978
-0.0062959169
-0.0051517332
-0.0039940588
-0.0028823327
-0.0015530698
-0.0011502779
-0.019778109
-0.020685678
-0.021631745
-0.022636613
-0.023619276
-0.02454864
-0.025429981
-0.026265837
-0.027049049
-0.027770524
-0.028423147
-0.029001029
-0.029498441
-0.029909828
-0.030230195
-0.030455331
-0.030581873
-0.030607373
-0.03053037
-0.030350461
-0.030068345
-0.029685826
-0.029205792
-0.028632174
-0.027969866
-0.027224634
-0.026402981
-0.025512002
-0.02455923
-0.023552465
-0.0224996
-0.021408452
-0.020286594
-0.019141202
-0.017978921
-0.016805744
-0.015626913
-0.01444684
-0.01326905
-0.012096139
-0.010929734
-0.0097704855
-0.0086179814
-0.007470989
-0.0063262893
-0.0051837552
-0.0040252139
-0.0029054729
-0.0015850342
-0.0011207882
-0.016231002
-0.017078819
-0.017960926
-0.0188935
-0.019812789
-0.020693955
-0.021540723
-0.02235468
-0.023129694
-0.023857958
-0.024533089
-0.02514955
-0.025701819
-0.026184389
-0.026592086
-0.026920254
-0.027164832
-0.027322419
-0.027390362
-0.027366845
-0.027250945
-0.027042676
-0.026743008
-0.026353856
-0.025878056
-0.025319314
-0.024682126
-0.023971673
-0.02319371
-0.022354427
-0.021460312
-0.020517995
-0.019534105
-0.018515116
-0.017467216
-0.016396173
-0.015307228
-0.014204995
-0.013093379
-0.011975512
-0.010853693
-0.0097293541
-0.0086029713
-0.0074742671
-0.0063411853
-0.0052044252
-0.0040484838
-0.0029240137
-0.0016127949
-0.0010927856
-0.013128327
-0.013919024
-0.014739823
-0.015603316
-0.016460198
-0.017290974
-0.018098162
-0.018882627
-0.019639195
-0.020361284
-0.021043295
-0.021680182
-0.022266808
-0.022797944
-0.023268508
-0.023673726
-0.024009197
-0.024270962
-0.02445559
-0.024560267
-0.024582869
-0.02452202
-0.024377137
-0.024148458
-0.023837043
-0.023444766
-0.022974277
-0.022428949
-0.021812793
-0.021130368
-0.020386674
-0.01958703
-0.018736947
-0.017841999
-0.016907692
-0.015939339
-0.014941945
-0.013920096
-0.012877867
-0.011818732
-0.010745496
-0.0096602295
-0.0085641775
-0.0074579219
-0.0063404611
-0.0052132648
-0.0040631693
-0.0029371929
-0.0016358863
-0.0010662321
-0.010438019
-0.011175769
-0.011939587
-0.012738887
-0.01353646
-0.014317357
-0.015083134
-0.015834084
-0.016565895
-0.017273094
-0.017950855
-0.018594682
-0.019199916
-0.019761731
-0.020275319
-0.020736012
-0.021139336
-0.021481077
-0.021757359
-0.021964726
-0.022100218
-0.022161439
-0.022146616
-0.022054642
-0.021885115
-0.021638347
-0.021315371
-0.020917916
-0.020448366
-0.019909708
-0.01930546
-0.018639578
-0.017916367
-0.017140364
-0.016316232
-0.015448646
-0.014542176
-0.013601182
-0.012629706
-0.011631382
-0.010609341
-0.0095661433
-0.0085036627
-0.0074232206
-0.0063247424
-0.005210394
-0.0040690499
-0.002944593
-0.0016540934
-0.0010410164
-0.0081358542
-0.0088264173
-0.009539196
-0.010280885
-0.011024331
-0.011758394
-0.012483848
-0.013200521
-0.01390484
-0.014592306
-0.015258809
-0.015900395
-0.016512908
-0.017091984
-0.017633184
-0.01813208
-0.018584308
-0.018985617
-0.019331937
-0.019619452
-0.019844671
-0.020004498
-0.020096293
-0.020117933
-0.020067859
-0.019945114
-0.019749365
-0.019480921
-0.01914072
-0.018730309
-0.018251805
-0.017707841
-0.017101499
-0.016436231
-0.015715767
-0.014944022
-0.01412499
-0.013262643
-0.012360831
-0.011423175
-0.010452974
-0.0094531172
-0.0084259652
-0.0073734439
-0.0062962641
-0.0051971998
-0.0040668861
-0.0029465208
-0.0016676556
-0.001017255
-0.0061971098
-0.0068462852
-0.00751425
-0.0082052377
-0.0089003923
-0.0095917668
-0.010279498
-0.010963017
-0.011639365
-0.012304872
-0.012956055
-0.013589459
-0.014201408
-0.014787998
-0.015345188
-0.015868862
-0.016354866
-0.01679905
-0.017197323
-0.017545714
-0.017840434
-0.018077943
-0.018255009
-0.018368775
-0.018416812
-0.018397173
-0.018308432
-0.018149721
-0.017920745
-0.01762179
-0.017253712
-0.016817919
-0.016316331
-0.015751328
-0.015125686
-0.014442502
-0.013705111
-0.01291699
-0.012081667
-0.011202615
-0.010283158
-0.0093263718
-0.008334958
-0.0073113101
-0.0062567799
-0.0051746519
-0.0040570645
-0.0029429327
-0.0016763952
-0.00099483873
-0.004628432
-0.0052439484
-0.0058750773
-0.0065242373
-0.0071791869
-0.0078344904
-0.0084897586
-0.0091441034
-0.0097950553
-0.010439617
-0.011074825
-0.011697648
-0.012304833
-0.01289289
-0.013458158
-0.013996839
-0.01450503
-0.014978752
-0.015413995
-0.015806768
-0.01615315
-0.01644935
-0.016691766
-0.016877043
-0.017002136
-0.017064367
-0.017061478
-0.016991674
-0.01685367
-0.016646717
-0.016370613
-0.016025709
-0.015612899
-0.015133593
-0.014589678
-0.013983467
-0.013317627
-0.012595112
-0.011819066
-0.010992736
-0.010119371
-0.00920212
-0.0082439067
-0.0072474646
-0.0062146456
-0.0051491412
-0.0040443435
-0.0029372444
-0.0016827018
-0.00097521358
-0.0033855666
-0.0039734485
-0.0045744819
-0.005189403
-0.0058111479
-0.0064362918
-0.0070640386
-0.0076932313
-0.0083217719
-0.0089471863
-0.0095669224
-0.010178293
-0.010778388
-0.011364068
-0.011932
-0.012478675
-0.013000434
-0.01349349
-0.013953961
-0.014377907
-0.014761381
-0.015100473
-0.015391366
-0.015630392
-0.015814094
-0.015939284
-0.016003101
-0.016003072
-0.015937159
-0.0158038
-0.015601946
-0.015331085
-0.014991253
-0.01458303
-0.014107524
-0.013566336
-0.012961514
-0.012295493
-0.011571018
-0.01079106
-0.0099587208
-0.0090771327
-0.008149328
-0.0071782601
-0.0061661429