/*--------------------------------*- C++ -*----------------------------------*\
  =========                 |
  \\      /  F ield         | OpenFOAM: The Open Source CFD Toolbox
   \\    /   O peration     | Website:  https://openfoam.org
    \\  /    A nd           | Version:  6
     \\/     M anipulation  |
\*---------------------------------------------------------------------------*/
FoamFile
{
    version     2.0;
    format      ascii;
    class       surfaceScalarField;
    location    "45";
    object      phi_0;
}
// * * * * * * * * * * * * * * * * * * * * * * * * * * * * * * * * * * * * * //

dimensions      [0 3 -1 0 0 0 0];

internalField   nonuniform List<scalar> 
18180
(
0.0003204469
-0.00016654978
-0.00015389709
0.001316089
-0.0013808132
0.00038517109
0.003048571
-0.0033617917
0.0016293097
0.0055781147
-0.0060220047
0.0034924611
0.0089632223
-0.0093064902
0.0059213827
0.013258647
-0.013171666
0.0088762413
0.018512689
-0.017579882
0.01232584
0.024764182
-0.022496667
0.016245174
0.032039298
-0.027887582
0.020612466
0.040348443
-0.033715587
0.025406443
0.049683544
-0.039939284
0.030604183
0.060016125
-0.046512005
0.036179424
0.07129656
-0.05338174
0.042101305
0.083454971
-0.060491931
0.04833352
0.096404381
-0.067783217
0.054833808
0.11004663
-0.075196249
0.061553996
0.12428052
-0.082675401
0.068441512
0.13901708
-0.090173099
0.075436542
0.15425314
-0.097671702
0.082435646
-0.1051687
0.089236594
0.17018524
0.00039945149
-0.00056600125
0.0016173255
-0.0025986872
0.0037067576
-0.0054512238
0.0067186108
-0.0090338578
0.010699574
-0.013287453
0.015688448
-0.01816054
0.021712086
-0.02360352
0.02878139
-0.029565971
0.036887644
-0.035993836
0.04599961
-0.042827553
0.056061805
-0.05000148
0.066994336
-0.057444536
0.078694518
-0.065081922
0.091040379
-0.072837792
0.10389581
-0.080638652
0.1171168
-0.088417232
0.13055767
-0.096116275
0.14407801
-0.10369344
0.15754158
-0.11113527
-0.1183728
0.17074568
0.00048280301
-0.0010488042
0.0019271825
-0.0040430667
0.0043713669
-0.0078954081
0.0078498695
-0.01251236
0.012389188
-0.017826771
0.01800234
-0.023773692
0.024683738
-0.030284919
0.032404894
-0.037287127
0.041111386
-0.044700328
0.050721592
-0.052437759
0.06112756
-0.060407448
0.072198186
-0.068515162
0.083784555
-0.076668291
0.095727034
-0.084780271
0.10786337
-0.092774987
0.12003669
-0.10059055
0.13210223
-0.10818182
0.14393081
-0.11552202
0.15540122
-0.12260568
-0.12938366
0.16641208
0.00056854774
-0.001617352
0.002237027
-0.005711546
0.0050205213
-0.010678902
0.0089285602
-0.016420399
0.013957775
-0.022855986
0.020084973
-0.029900889
0.027261772
-0.037461718
0.035411272
-0.045436627
0.044427211
-0.053716266
0.054175983
-0.062186531
0.064501552
-0.070733017
0.075232909
-0.079246519
0.086193371
-0.087628753
0.097210711
-0.095797611
0.10812696
-0.10369123
0.11880674
-0.11127033
0.12914325
-0.11851834
0.13906086
-0.12543962
0.14851179
-0.13205662
-0.13836962
0.15749776
0.00065341608
-0.002270768
0.0025338073
-0.0075919372
0.0056240094
-0.013769104
0.0098991607
-0.020695551
0.01531626
-0.028273086
0.021806609
-0.036391238
0.029271548
-0.044926657
0.037581674
-0.053746753
0.04657978
-0.062714372
0.056087372
-0.071694123
0.06591414
-0.080559784
0.075869279
-0.089201658
0.085773314
-0.097532788
0.095468949
-0.10549325
0.10482967
-0.11305195
0.11376521
-0.12020588
0.12222364
-0.12697676
0.13018996
-0.13340594
0.13768163
-0.13954829
-0.14544841
0.14476041
0.00073325194
-0.0030040199
0.0028016552
-0.0096603404
0.0061467524
-0.017114202
0.010700322
-0.02524912
0.016371449
-0.033944213
0.023039693
-0.043059482
0.030553514
-0.052440478
0.038733556
-0.061926796
0.047380377
-0.071361193
0.056285648
-0.080599394
0.065245309
-0.089519445
0.074072845
-0.098029193
0.082610878
-0.10607082
0.090739632
-0.113622
0.098381334
-0.12069365
0.1055004
-0.12732495
0.11209993
-0.13357629
0.1182155
-0.13952151
0.12390752
-0.14524031
-0.15080443
0.12926355
0.00080335366
-0.0038073736
0.0030232705
-0.011880257
0.006552158
-0.020643089
0.011271309
-0.029968271
0.01703673
-0.039709634
0.023674663
-0.049697415
0.030984193
-0.059750008
0.038745476
-0.069688079
0.04673221
-0.079347927
0.054726364
-0.088593549
0.062532818
-0.097325899
0.069991666
-0.10548804
0.076986517
-0.11306567
0.083447856
-0.12008334
0.089351483
-0.12659728
0.094712814
-0.13268628
0.099578439
-0.13844192
0.10401657
-0.14395964
0.10810797
-0.14933171
-0.15463957
0.11194311
0.00085859796
-0.0046659715
0.0031808646
-0.014202524
0.0068048576
-0.024267082
0.011557516
-0.03472093
0.017241021
-0.045393139
0.023632272
-0.056088665
0.030490545
-0.066608282
0.037570541
-0.076768074
0.044638311
-0.086415698
0.051487203
-0.09544244
0.057951022
-0.10378972
0.06391241
-0.11144943
0.069305438
-0.1184587
0.074112592
-0.12489049
0.078357243
-0.13084193
0.082093312
-0.13642235
0.085394065
-0.14174267
0.088341762
-0.14690733
0.091019445
-0.1520094
-0.15712715
0.093507021
0.00089262042
-0.0055585919
0.0032562025
-0.016566106
0.0068729599
-0.027883839
0.011515621
-0.039363591
0.016936661
-0.050814179
0.02287285
-0.062024855
0.029057894
-0.072793326
0.035239035
-0.082949215
0.041194158
-0.09237082
0.046746037
-0.10099432
0.051771191
-0.10881487
0.056202151
-0.11588039
0.060023391
-0.12227994
0.063262293
-0.12812939
0.065977193
-0.13355683
0.068244744
-0.1386899
0.070148488
-0.14364641
0.071769997
-0.14852884
0.073183171
-0.15342257
-0.15839539
0.074451411
0.00090190672
-0.0064604986
0.0032401332
-0.018904332
0.0067416836
-0.03138539
0.011129042
-0.04375095
0.016113792
-0.055798928
0.021406171
-0.067317234
0.026731531
-0.078118686
0.031848229
-0.088065913
0.036563036
-0.097085627
0.040740877
-0.10517216
0.044307318
-0.11238131
0.047243952
-0.11881702
0.049578223
-0.12461421
0.051370114
-0.12992129
0.052698174
-0.13488489
0.053647045
-0.13963877
0.054297875
-0.14429724
0.054722248
-0.14895322
0.05497941
-0.15367973
0.055115226
-0.1585312
-0.00020342239
0.00020342241
1.834915e-13
-0.00068109085
0.0004776685
4.9034788e-12
-0.0013488174
0.00066772653
8.1993824e-12
-0.0021421064
0.00079328903
1.4117672e-11
-0.0030090819
0.00086697557
2.3939343e-11
-0.0039073743
0.00089829241
3.520041e-11
-0.0048018682
0.00089449391
4.8911985e-11
-0.0056628189
0.00086095066
6.1578974e-11
-0.00646437
0.0008015511
7.5529022e-11
-0.0071833936
0.00071902348
8.612891e-11
-0.0077985635
0.0006151699
9.7607738e-11
-0.0082896138
0.00049105024
1.0355434e-10
-0.0086367523
0.00034713842
1.1003656e-10
-0.0088202215
0.00018346912
1.0796933e-10
-0.0088200379
-1.8363085e-07
1.0639213e-10
-0.0086160136
-0.00020402428
9.2274832e-11
-0.0081880203
-0.00042799336
7.8051029e-11
-0.0075155797
-0.00067244057
4.780039e-11
-0.0065774497
-0.00093813001
1.8832893e-11
-0.0012113884
-0.0053660613
-2.2460448e-11
-0.0001888929
0.00039231534
-0.00062791148
0.0009166871
-0.0012342209
0.001274036
-0.0019434292
0.0015024974
-0.0027030368
0.0016265832
-0.0034694736
0.0016647293
-0.004205936
0.0016309563
-0.0048805626
0.0015355773
-0.0054649862
0.0013859747
-0.0059331885
0.0011872258
-0.0062605775
0.00094255898
-0.0064232384
0.00065371113
-0.0063973221
0.00032122217
-0.0061585599
-5.5293029e-05
-0.0056819325
-0.00047681102
-0.0049415855
-0.00094437119
-0.0039110431
-0.0014585358
-0.002563129
-0.0020203547
-0.00086981083
-0.0026314481
-0.0032618746
0.0011806754
-0.00015960669
0.00055192205
-0.00052095632
0.0012780368
-0.0010044754
0.0017575551
-0.0015464902
0.0020445122
-0.0020936658
0.0021737588
-0.0026003971
0.0021714606
-0.0030268493
0.0020574085
-0.0033372785
0.0018460065
-0.0034986754
0.0015473716
-0.0034796809
0.0011682313
-0.0032496953
0.00071257342
-0.0027781512
0.00018216703
-0.0020338741
-0.0004230549
-0.00098456458
-0.0011046025
0.00040363606
-0.0018650117
0.002166431
-0.0027071661
0.0043413348
-0.0036334396
0.0069673614
-0.0046463813
0.010084949
-0.0057490353
-0.0068910249
0.013714099
-0.00011792728
0.00066984935
-0.00036793764
0.0015280471
-0.00067484506
0.0020644625
-0.0009759991
0.0023456662
-0.0012169751
0.0024147349
-0.0013494311
0.0023039166
-0.0013294399
0.0020374173
-0.0011160238
0.0016325905
-0.000669951
0.0011012988
4.7224186e-05
0.00045105618
0.0010739507
-0.00031415304
0.0024493308
-0.0011932131
0.0042136674
-0.0021873915
0.006408947
-0.0032998821
0.0090793482
-0.0045354128
0.012271802
-0.0058996194
0.01603637
-0.0073980077
0.020425947
-0.0090359591
0.025496047
-0.010819135
-0.01267287
0.031277892
-6.6912333e-05
0.00073676171
-0.00017883024
0.0016399651
-0.00026515379
0.0021507861
-0.0002642085
0.002344721
-0.00012018791
0.0022707143
0.00021848963
0.0019652391
0.00080051566
0.0014553913
0.0016728667
0.00076023953
0.0028817794
-0.00010761393
0.0044735389
-0.0011407033
0.0064950422
-0.0023356563
0.0089942131
-0.003692384
0.012020325
-0.0052135034
0.015624324
-0.0069038814
0.019859194
-0.0087702828
0.024780567
-0.010820992
0.030447596
-0.013065037
0.036923474
-0.015511837
0.044276206
-0.018171867
-0.020945536
0.052548873
-9.6345121e-06
0.00074639624
3.6169187e-05
0.0015941614
0.00020405995
0.0019828954
0.0005550704
0.0019937105
0.0011466582
0.0016791266
0.0020338662
0.0010780311
0.0032702886
0.00021896892
0.0049089546
-0.00087842649
0.0070029841
-0.0022016434
0.0096059574
-0.0037436765
0.01277212
-0.0055018187
0.016556477
-0.0074767412
0.021014709
-0.009671735
0.026202988
-0.012092161
0.032177863
-0.014745158
0.038996525
-0.017639654
0.046717969
-0.020786481
0.055405045
-0.024198914
0.065128317
-0.027895138
-0.031756667
0.075939447
5.1429658e-05
0.0006949666
0.00026852125
0.0013770698
0.00071509887
0.0015363178
0.0014519891
0.0012568203
0.0025383991
0.00059271664
0.0040326737
-0.00041624345
0.0059928866
-0.0017412439
0.0084772202
-0.00336276
0.011544088
-0.005268511
0.015252093
-0.0074516819
0.019659746
-0.0099094714
0.024824915
-0.01264191
0.030804071
-0.015650891
0.037651357
-0.018939447
0.045417624
-0.022511424
0.054149836
-0.026371866
0.063891842
-0.030528486
0.074687723
-0.034994795
0.08659074
-0.039798156
-0.044821979
0.099656052
0.00011476578
0.00058020084
0.0005124827
0.00097935293
0.0012552815
0.00079351897
0.002404029
0.00010807285
0.0040194361
-0.0010226904
0.0061623897
-0.002559197
0.0088939193
-0.0044727735
0.012275006
-0.0067438471
0.01636616
-0.009359665
0.021226651
-0.012312172
0.026913443
-0.015596264
0.033479845
-0.019208312
0.040973882
-0.023144928
0.049436464
-0.027402029
0.058899447
-0.031974408
0.069383978
-0.036856397
0.080900262
-0.04204477
0.093450633
-0.047545165
0.10704099
-0.053388513
-0.059494915
0.12171393
0.00017972085
0.00040048001
0.00076500496
0.00039406884
0.0018168409
-0.00025831694
0.0033958167
-0.0014709029
0.0055630958
-0.0031899695
0.0083801411
-0.0053762423
0.011908069
-0.0080007012
0.016206699
-0.011042477
0.021333244
-0.014486211
0.027340658
-0.018319586
0.034275666
-0.022531273
0.042176538
-0.027109183
0.051070619
-0.03203901
0.060971678
-0.037303087
0.071877033
-0.042879763
0.08376455
-0.048743914
0.096590435
-0.054870655
0.11029058
-0.061245305
0.12479393
-0.067891871
-0.074815244
0.14011426
0.00024658293
0.0010258229
0.0023968157
0.0044183739
0.007149787
0.010649786
0.014974924
0.020177622
0.026303877
0.033390735
0.041463646
0.050533886
0.060596182
0.071626614
0.083580659
0.096390742
0.1099616
0.12415284
0.13869661
0.15311796
-0.0033949937
-0.0019710676
-1.0360793e-10
-0.0011382962
-0.0022566973
-2.0636581e-10
0.0013820018
-0.0025202978
-3.289793e-10
0.0041087936
-0.0027267914
-4.7327414e-10
0.0070153764
-0.0029065823
-6.3772005e-10
0.010084676
-0.0030692992
-8.2250795e-10
0.013297952
-0.0032132752
-1.0240312e-09
0.016637357
-0.0033394032
-1.2262921e-09
0.020087381
-0.0034500228
-1.4232215e-09
0.023634017
-0.0035466341
-1.6033942e-09
0.027264199
-0.0036301809
-1.752349e-09
0.030965741
-0.0037015406
-1.8473056e-09
0.03472726
-0.0037615165
-1.8557161e-09
0.038538043
-0.0038107815
-1.7404467e-09
0.042387955
-0.003849911
-1.4596208e-09
0.046267377
-0.0038794205
-9.7375536e-10
0.050167161
-0.0038997835
-2.4389788e-10
0.054078605
-0.0039114453
7.5955817e-10
0.057993442
-0.0039148389
2.0596408e-09
0.061903835
-0.0039103968
3.6606063e-09
0.065802391
-0.003898561
5.551845e-09
0.069682173
-0.0038797902
7.692191e-09
0.073536729
-0.0038545655
1.0017026e-08
0.07736011
-0.0038233936
1.2419251e-08
0.081146904
-0.0037868088
1.4763059e-08
0.084892262
-0.0037453747
1.6863312e-08
0.088591927
-0.0036996838
1.851093e-08
0.092242266
-0.0036503584
1.9454209e-08
0.095840297
-0.0035980511
1.9441812e-08
0.099383725
-0.0035434456
1.8211116e-08
0.10287097
-0.0034872603
1.5553218e-08
0.10630121
-0.0034302509
1.1309868e-08
0.10967442
-0.003373217
5.4586328e-09
0.11299143
-0.0033170089
-1.8902518e-09
0.11625398
-0.0032625372
-1.0402425e-08
0.11946478
-0.0032107825
-1.9550813e-08
0.12262762
-0.0031628069
-2.8543516e-08
0.12574742
-0.0031197632
-3.6436153e-08
0.12883037
-0.0030829102
-4.2090272e-08
0.13188401
-0.0030536012
-4.4428121e-08
0.13491741
-0.0030333588
-4.2411433e-08
0.13794111
-0.0030236609
-3.5413211e-08
0.14096785
-0.0030267131
-2.3277054e-08
0.14401093
-0.003043076
-6.573186e-09
0.14709062
-0.0030797044
1.3456309e-08
0.15021581
-0.003125228
3.4763093e-08
0.1534462
-0.0032304416
5.5322953e-08
0.15671126
-0.0032651356
7.1519057e-08
0.16037171
-0.0036605299
8.5364924e-08
-0.0034390542
8.0064489e-08
0.0030330921
-0.0038234844
0.0051661905
-0.0043897959
0.0075495441
-0.0049036515
0.010120487
-0.0052977343
0.012858056
-0.0056441517
0.015750188
-0.0059614312
0.018780349
-0.0062434361
0.021932312
-0.0064913666
0.025192261
-0.0067099713
0.028547652
-0.0069020255
0.031986586
-0.0070691146
0.035497827
-0.007212782
0.039070788
-0.0073344768
0.042695414
-0.0074354081
0.046362113
-0.0075166098
0.05006171
-0.0075790175
0.053785427
-0.0076235005
0.057524868
-0.0076508868
0.06127202
-0.0076619903
0.065019257
-0.007657634
0.068759363
-0.0076386671
0.072485551
-0.0076059782
0.07619149
-0.0075605048
0.079871336
-0.0075032391
0.083519758
-0.0074352316
0.087131976
-0.0073575921
0.090703783
-0.0072714907
0.094231582
-0.0071781579
0.097712416
-0.0070788854
0.101144
-0.0069750286
0.10452475
-0.0068680115
0.10785383
-0.006759334
0.1111312
-0.0066505834
0.11435764
-0.006543449
0.11753484
-0.0064397395
0.12066546
-0.0063414046
0.12375321
-0.0062505564
0.12680294
-0.0061694882
0.12982073
-0.0061007057
0.13281404
-0.0060469028
0.13579179
-0.0060111157
0.13876442
-0.005996289
0.14174454
-0.0060068326
0.14474532
-0.0060438587
0.14778691
-0.0061212876
0.15087808
-0.0062164055
0.15407817
-0.0064305283
0.15731731
-0.0065042801
0.16095132
-0.0072945402
-0.006862765
0.0153194
-0.0054287851
0.017187992
-0.0062583881
0.019283056
-0.006998716
0.021534499
-0.0075491771
0.023930819
-0.0080404714
0.026468655
-0.0084992675
0.029135618
-0.0089103992
0.03191842
-0.0092741692
0.034806177
-0.0095977278
0.037788893
-0.0098847417
0.040856695
-0.010136917
0.043999984
-0.010356071
0.047209517
-0.01054401
0.050476346
-0.010702237
0.053791778
-0.010832042
0.057147374
-0.010934613
0.060534955
-0.011011081
0.063946618
-0.01106255
0.067374755
-0.011090127
0.070812079
-0.011094957
0.074251651
-0.01107824
0.07768692
-0.011041247
0.081111749
-0.010985333
0.084520453
-0.010911944
0.087907837
-0.010822616
0.091269225
-0.01071898
0.094600494
-0.01060276
0.09789811
-0.010475774
0.10115916
-0.01033993
0.10438136
-0.010197238
0.10756316
-0.010049806
0.11070368
-0.00989986
0.11380286
-0.0097497567
0.11686141
-0.0096020053
0.11988097
-0.0094592948
0.12286409
-0.0093245246
0.12581437
-0.0092008384
0.12873653
-0.0090916515
0.13163653
-0.0090006978
0.13452162
-0.008931995
0.13740058
-0.0088900762
0.14028363
-0.0088793414
0.14318319
-0.0089063937
0.14611225
-0.0089729152
0.14909068
-0.0090997202
0.15212734
-0.009253061
0.15528033
-0.0095835209
0.15848271
-0.0097066594
0.16207691
-0.010888737
-0.010272773
0.032497219
-0.006648112
0.033951187
-0.0077123563
0.035598763
-0.0086462919
0.037367022
-0.0093174364
0.039256846
-0.0099302957
0.041274827
-0.010517249
0.043414043
-0.011049615
0.045665186
-0.011525312
0.048020911
-0.011953453
0.050474242
-0.012338072
0.053017733
-0.012680408
0.055643707
-0.012982044
0.058344448
-0.013244751
0.061112236
-0.013470025
0.063939356
-0.013659163
0.066818148
-0.013813405
0.069741052
-0.013933986
0.072700661
-0.014022158
0.075689762
-0.014079229
0.07870139
-0.014106585
0.081728868
-0.014105718
0.084765856
-0.014078235
0.087806392
-0.01402587
0.090844936
-0.013950488
0.093876406
-0.013854086
0.096896219
-0.013738792
0.099900322
-0.013606864
0.10288523
-0.013460683
0.10584806
-0.013302759
0.10878656
-0.013135734
0.11169913
-0.012962383
0.11458491
-0.01278564
0.11744377
-0.012608611
0.12027637
-0.012434605
0.12308424
-0.012267171
0.12586986
-0.012110137
0.12863667
-0.011967656
0.13138927
-0.011844244
0.13413341
-0.011744838
0.13687617
-0.011674759
0.13962611
-0.011640016
0.14239321
-0.011646447
0.14518965
-0.011702832
0.14802819
-0.011811455
0.15092836
-0.011999889
0.15389919
-0.012223893
0.15699689
-0.012681221
0.16015934
-0.012869108
0.16370825
-0.014437645
-0.013676495
0.053225992
-0.007325231
0.054105507
-0.0085918713
0.055141048
-0.0096818332
0.056267296
-0.010443685
0.057499375
-0.011162374
0.058851837
-0.011869711
0.060323445
-0.012521223
0.06190958
-0.013111448
0.063606281
-0.013650154
0.065409209
-0.014141001
0.067313119
-0.014584318
0.06931203
-0.014980955
0.071399484
-0.015332206
0.073568711
-0.015639251
0.075812718
-0.01590317
0.078124383
-0.01612507
0.08049654
-0.016306143
0.082922068
-0.016447686
0.085393964
-0.016551125
0.087905413
-0.016618034
0.090449845
-0.01665015
0.093020998
-0.016649388
0.095612965
-0.016617837
0.098220245
-0.016557767
0.10083778
-0.016471624
0.10346101
-0.016362021
0.10608589
-0.01623174
0.10870893
-0.01608372
0.11132723
-0.015921065
0.11393853
-0.015747035
0.11654122
-0.01556507
0.11913437
-0.015378793
0.12171781
-0.015192052
0.12429215
-0.015008939
0.12685883
-0.014833848
0.12942021
-0.014671517
0.13197964
-0.014527087
0.13454154
-0.014406151
0.13711154
-0.01431483
0.1396965
-0.014259721
0.14230476
-0.014248282
0.14494609
-0.014287774
0.14763238
-0.01438912
0.15037618
-0.014555253
0.1531966
-0.01482031
0.15610297
-0.01513027
0.15914903
-0.015727277
0.16227904
-0.015999119
0.16578809
-0.017946689
-0.01708946
0.075903739
-0.0072895229
0.076045919
-0.0087340513
0.076309428
-0.0099453425
0.076651379
-0.010785636
0.077100215
-0.01161121
0.077673
-0.012442496
0.078373002
-0.013221224
0.079200422
-0.013938868
0.080153837
-0.014603569
0.081230361
-0.015217524
0.082426026
-0.015779983
0.08373583
-0.01629076
0.085153899
-0.016750275
0.086673785
-0.017159137
0.088288666
-0.017518051
0.089991478
-0.017827882
0.091775028
-0.018089693
0.093632107
-0.018304766
0.095555594
-0.018474612
0.097538532
-0.018600972
0.099574208
-0.018685826
0.10165621
-0.018731392
0.1037785
-0.018740126
0.10593544
-0.018714708
0.10812186
-0.018658047
0.1103331
-0.018573254
0.112565
-0.018463647
0.11481402
-0.018332735
0.11707717
-0.018184222
0.11935214
-0.018022002
0.12163725
-0.017850175
0.12393152
-0.017673067
0.12623473
-0.017495259
0.12854741
-0.017321628
0.13087097
-0.017157402
0.13320767
-0.017008222
0.13556079
-0.016880203
0.13793464
-0.016779998
0.1403347
-0.016714888
0.1427677
-0.016692723
0.1452418
-0.016722383
0.14776655
-0.016812527
0.15035361
-0.016976184
0.15301533
-0.017216973
0.15577038
-0.017575361
0.15862848
-0.017988362
0.16164043
-0.018739229
0.16475805
-0.01911674
0.16824549
-0.021434136
-0.020536719
0.098760385
-0.0063938555
0.098026601
-0.0080002668
0.097385595
-0.009304336
0.096838828
-0.010238868
0.096422828
-0.01119521
0.096149006
-0.012168674
0.096022936
-0.013095155
0.096048896
-0.013964828
0.096226692
-0.014781365
0.096553323
-0.015544155
0.0970247
-0.01625136
0.097635703
-0.016901763
0.098380152
-0.017494725
0.099251139
-0.018030124
0.10024133
-0.018508242
0.10134313
-0.018929686
0.10254883
-0.019295391
0.1038507
-0.019606634
0.10524112
-0.019865034
0.10671268
-0.020072528
0.10825823
-0.020231373
0.10987096
-0.020344129
0.11154449
-0.020413654
0.11327287
-0.020443084
0.11505064
-0.020435821
0.11687291
-0.020395519
0.11873532
-0.020326061
0.12063415
-0.020231565
0.12256629
-0.020116362
0.12452929
-0.019985005
0.1265214
-0.019842285
0.12854158
-0.019693242
0.13058953
-0.019543212
0.13266577
-0.019397866
0.13477164
-0.019263277
0.1369094
-0.019145982
0.13908227
-0.019053071
0.14129452
-0.018992244
0.14355156
-0.01897193
0.14586004
-0.019001205
0.14822801
-0.019090347
0.15066486
-0.019249381
0.15318207
-0.019493397
0.15579182
-0.019826717
0.15851234
-0.020295885
0.16135376
-0.020829777
0.16436372
-0.021749193
0.16750223
-0.022255249
0.17099991
-0.024931814
-0.024053324
0.11991597
-0.0045959027
0.11825162
-0.0063359122
0.11664254
-0.0076952606
0.11517293
-0.0087692532
0.11387922
-0.0099014974
0.11275909
-0.011048548
0.11181822
-0.012154281
0.11106312
-0.01320973
0.11049347
-0.014211719
0.11010495
-0.015155632
0.10989201
-0.016038416
0.10984826
-0.016858014
0.10996641
-0.017612873
0.11023846
-0.018302175
0.11065603
-0.018925811
0.11121054
-0.019484201
0.11189338
-0.019978229
0.11269598
-0.020409238
0.11360997
-0.020779016
0.1146272
-0.021089765
0.11573991
-0.02134408
0.11694071
-0.021544929
0.11822269
-0.021695632
0.11957944
-0.021799837
0.12100512
-0.021861503
0.12249448
-0.021884874
0.12404288
-0.021874463
0.12564635
-0.021835035
0.12730159
-0.021771602
0.12900601
-0.021689422
0.13075773
-0.02159401
0.13255565
-0.021491163
0.13439944
-0.021387
0.13628958
-0.021288011
0.13822744
-0.02120113
0.14021527
-0.021133812
0.14225632
-0.021094121
0.14435488
-0.021090809
0.14651639
-0.021133436
0.14874748
-0.021232296
0.15105616
-0.02139903
0.15345177
-0.021644994
0.15594566
-0.021987282
0.15854985
-0.022430912
0.16128221
-0.023028239
0.1641532
-0.023700771
0.16720721
-0.024803206
0.17041265
-0.025460681
0.17396538
-0.02848455
-0.02768384
0.13755481
-0.0020364504
0.1350591
-0.0038402
0.132526
-0.005162156
0.13019705
-0.0064403027
0.12809932
-0.007803774
0.1262144
-0.0091636292
0.12454533
-0.010485208
0.12309738
-0.011761781
0.12186924
-0.012983575
0.12085538
-0.01414178
0.12004859
-0.01523162
0.11944078
-0.016250204
0.11902325
-0.017195344
0.11878678
-0.018065708
0.11872184
-0.018860874
0.11881878
-0.019581141
0.11906798
-0.020227423
0.11945994
-0.020801202
0.11998543
-0.021304502
0.12063552
-0.021739857
0.1214017
-0.022110262
0.12227593
-0.022419158
0.12325069
-0.022670394
0.12431905
-0.022868196
0.12547469
-0.023017141
0.12671195
-0.023122133
0.12802585
-0.023188368
0.12941215
-0.023221328
0.13086731
-0.023226762
0.13238857
-0.023210687
0.13397396
-0.023179398
0.13562229
-0.023139495
0.13733322
-0.023097923
0.13910724
-0.023062029
0.14094575
-0.023039642
0.14285109
-0.023039154
0.1448266
-0.023069628
0.14687665
-0.023140866
0.14900678
-0.023263567
0.15122371
-0.023449222
0.15353549
-0.023710812
0.15595147
-0.024060973
0.15848294
-0.02451875
0.16114183
-0.025089799
0.16394562
-0.025832028
0.16690508
-0.026660238
0.17006126
-0.02795938
0.17339095
-0.028790377
0.17705464
-0.03214824
-0.031481052
0.15059472
0.00048679244
0.1473239
-0.00056937634
0.14404801
-0.0018862746
0.14102401
-0.0034162944
0.13825509
-0.0050348559
0.13573523
-0.0066437715
0.13346654
-0.0082165155
0.1314493
-0.0097445395
0.12968127
-0.011215546
0.12815749
-0.012618004
0.12687041
-0.013944541
0.12581091
-0.015190696
0.12496908
-0.016353521
0.1243346
-0.017431221
0.12389679
-0.018423067
0.12364491
-0.019329258
0.12356826
-0.020150775
0.12365636
-0.020889298
0.12389901
-0.021547153
0.12428641
-0.02212726
0.12480924
-0.022633093
0.12545871
-0.02306863
0.12622664
-0.023438321
0.12710549
-0.023747044
0.12808842
-0.024000072
0.12916932
-0.024203034
0.13034284
-0.024361893
0.13160443
-0.024482913
0.13295032
-0.024572652
0.13437758
-0.024637952
0.13588414
-0.024685951
0.13746875
-0.024724111
0.13913108
-0.024760255
0.14087169
-0.024802639
0.14269208
-0.024860024
0.1445947
-0.024941776
0.14658304
-0.025057972
0.14866167
-0.02521949
0.15083626
-0.025438164
0.15311371
-0.025726669
0.1555022
-0.026099304
0.15801115
-0.026569921
0.16065187
-0.027159464
0.16343614
-0.027874069
0.16638122
-0.028777113
0.16949765
-0.029776672
0.1728244
-0.031286122
0.17634218
-0.032308163
0.18018792
-0.035993982
-0.035498581
0.18972552
0.0050538437
-0.19429257
0.18594938
0.0032067616
0.18259219
0.0014709224
0.17948358
-0.00030768589
0.1765862
-0.0021374808
0.17387514
-0.003932702
0.1713324
-0.005673776
0.16894921
-0.0073613505
0.16672189
-0.0089882266
0.1646485
-0.010544619
0.16272744
-0.012023475
0.16095684
-0.013420101
0.15933436
-0.014731036
0.15785699
-0.015953855
0.15652115
-0.017087226
0.15532272
-0.018130826
0.15425715
-0.019085207
0.15331957
-0.019951714
0.15250485
-0.020732429
0.1518077
-0.021430119
0.1512228
-0.022048183
0.15074477
-0.022590605
0.15036836
-0.023061906
0.15008841
-0.023467101
0.1499
-0.023811658
0.14979842
-0.024101453
0.14977927
-0.02434274
0.14983847
-0.024542121
0.14997235
-0.024706528
0.15017761
-0.024843212
0.15045141
-0.024959752
0.15079138
-0.025064079
0.15119564
-0.025164516
0.15166284
-0.025269842
0.15219219
-0.025389367
0.15278344
-0.025533032
0.15343698
-0.025711511
0.15415379
-0.025936299
0.15493549
-0.026219865
0.15578434
-0.026575518
0.15670328
-0.027018242
0.15769581
-0.02756245
0.15876645
-0.028230104
0.15991968
-0.029027296
0.16116356
-0.030020993
0.16250056
-0.031113676
0.16395481
-0.03274037
0.16549823
-0.03385158
0.16724878
-0.037744538
-0.037278265
0.21764583
0.0084176377
-0.22100963
0.21420815
0.0066444388
0.21103198
0.0046470923
0.20796487
0.0027594275
0.20495811
0.00086928447
0.2020427
-0.0010172985
0.19923574
-0.0028668093
0.19654194
-0.0046675565
0.19396743
-0.0064137153
0.19151927
-0.0080964551
0.18920291
-0.0097071202
0.18702205
-0.011239235
0.18497896
-0.012687954
0.18307469
-0.01404958
0.18130903
-0.015321569
0.17968074
-0.016502537
0.17818768
-0.017592147
0.17682698
-0.018591008
0.17559515
-0.019500605
0.17448828
-0.020323243
0.17350208
-0.021061981
0.17263205
-0.021720574
0.17187356
-0.022303415
0.17122194
-0.022815482
0.17067257
-0.023262289
0.17022095
-0.023649834
0.16986277
-0.02398456
0.16959396
-0.024273319
0.16941078
-0.024523346
0.16930981
-0.024742244
0.16928805
-0.024937991
0.16934293
-0.025118952
0.16947233
-0.025293921
0.16967467
-0.025472177
0.16994886
-0.025663562
0.1702944
-0.025878568
0.17071133
-0.026128445
0.1712003
-0.026425273
0.17176255
-0.026782115
0.1723999
-0.027212865
0.17311475
-0.027733093
0.17391006
-0.028357755
0.17478943
-0.029109474
0.17575696
-0.029994826
0.17681825
-0.031082291
0.17797849
-0.032273907
0.17924921
-0.034011098
0.1806296
-0.035231962
0.1821546
-0.039269538
-0.038911048
0.24450008
0.011109138
-0.24719158
0.24168397
0.0094605516
0.23886583
0.0074652285
0.23605565
0.0055696104
0.23321668
0.0037082473
0.23036966
0.0018297231
0.22754582
-4.2964354e-05
0.22476464
-0.0018863806
0.22204226
-0.0036913378
0.21939481
-0.0054490031
0.21683638
-0.0071486848
0.21437822
-0.0087810803
0.21202925
-0.010338984
0.20979635
-0.011816674
0.20768449
-0.013209713
0.20569695
-0.014514997
0.2038355
-0.015730697
0.20210064
-0.016856142
0.20049176
-0.017891734
0.19900739
-0.018838874
0.1976453
-0.019699886
0.19640267
-0.020477948
0.19527628
-0.021177016
0.19426256
-0.021801761
0.19335777
-0.022357507
0.19255811
-0.02285017
0.19185976
-0.023286207
0.19125901
-0.023672568
0.19075233
-0.024016669
0.19033645
-0.024326361
0.19000839
-0.024609931
0.18976554
-0.024876108
0.18960572
-0.025134099
0.18952718
-0.025393636
0.18952866
-0.025665046
0.18960943
-0.025959336
0.18976927
-0.026288286
0.19000852
-0.026664518
0.19032804
-0.027101633
0.19072922
-0.027614047
0.19121392
-0.028217794
0.1917845
-0.028928338
0.1924436
-0.029768568
0.19319485
-0.030746083
0.19404115
-0.031928585
0.19499058
-0.033223337
0.19604039
-0.035060915
0.19722097
-0.036412541
0.19846922
-0.040517791
-0.040359136
0.26993464
0.013114374
-0.27193988
0.26779617
0.011599019
0.26548532
0.0097760839
0.26307869
0.0079762389
0.26058473
0.0062022124
0.25801363
0.0044008147
0.25539157
0.0025790984
0.25274279
0.00076239843
0.25008744
-0.0010359804
0.24744555
-0.0028071229
0.24483664
-0.0045397672
0.24227804
-0.0062224858
0.23978476
-0.007845706
0.23736959
-0.0094015011
0.23504316
-0.010883277
0.23281399
-0.012285832
0.23068869
-0.013605396
0.2286721
-0.014839551
0.22676751
-0.015987147
0.22497686
-0.017048222
0.22330091
-0.018023933
0.22173943
-0.018916471
0.22029139
-0.01972898
0.21895511
-0.020465481
0.2177284
-0.021130799
0.21660872
-0.02173049
0.2155933
-0.022270781
0.21467924
-0.02275851
0.21386365
-0.023201082
0.21314373
-0.023606437
0.21251683
-0.023983035
0.21198058
-0.024339853
0.21153289
-0.024686409
0.21117206
-0.025032805
0.21089679
-0.025389779
0.21070624
-0.025768784
0.21060002
-0.026182068
0.21057823
-0.026642729
0.21064143
-0.027164825
0.21079059
-0.027763215
0.21102707
-0.028454266
0.2113526
-0.029253873
0.21176885
-0.030184816
0.21227885
-0.031256082
0.21288288
-0.032532614
0.21359112
-0.033931582
0.21438792
-0.03585771
0.21533027
-0.037354895
0.21626558
-0.041453102
-0.041578154
0.29356731
0.014424507
-0.29487745
0.29211057
0.013055759
0.29041234
0.011474322
0.28853969
0.0098488878
0.28652783
0.0082140696
0.28438776
0.0065408859
0.28213797
0.0048288872
0.27980189
0.0030984816
0.27740093
0.0013649734
0.2749553
-0.00036149515
0.27248547
-0.0020699351
0.27001147
-0.0037484809
0.26755186
-0.0053860934
0.2651235
-0.0069731492
0.26274147
-0.0085012389
0.26041886
-0.0099632222
0.25816682
-0.011353362
0.25599461
-0.012667338
0.25390967
-0.013902208
0.2519178
-0.015056351
0.25002329
-0.016129422
0.24822909
-0.017122275
0.246537
-0.018036889
0.24494781
-0.018876294
0.2434615
-0.019644486
0.24207737
-0.020346355
0.24079419
-0.02098761
0.2396104
-0.021574715
0.23852415
-0.022114835
0.2375335
-0.02261579
0.2366365
-0.023086026
0.23583125
-0.023534608
0.23511607
-0.023971226
0.23448949
-0.024406224
0.23395035
-0.024850645
0.23349786
-0.025316291
0.23313157
-0.025815783
0.23285145
-0.026362605
0.2326578
-0.026971179
0.23255129
-0.027656702
0.23253276
-0.028435733
0.23260336
-0.029324479
0.23276381
-0.030345268
0.23301637
-0.031508641
0.23335897
-0.032875206
0.23380284
-0.034375453
0.23432149
-0.036376361
0.2349924
-0.038025809
0.23558762
-0.042048318
-0.042526604
0.3155808