/*--------------------------------*- C++ -*----------------------------------*\
  =========                 |
  \\      /  F ield         | OpenFOAM: The Open Source CFD Toolbox
   \\    /   O peration     | Website:  https://openfoam.org
    \\  /    A nd           | Version:  6
     \\/     M anipulation  |
\*---------------------------------------------------------------------------*/
FoamFile
{
    version     2.0;
    format      ascii;
    class       surfaceScalarField;
    location    "1";
    object      phi;
}
// * * * * * * * * * * * * * * * * * * * * * * * * * * * * * * * * * * * * * //

dimensions      [0 3 -1 0 0 0 0];

internalField   nonuniform List<scalar> 
18180
(
0.00077290815
-0.0031444831
0.002371575
0.0029812229
-0.011878583
0.0096702683
0.0065641867
-0.02278822
0.019205256
0.011409227
-0.035222345
0.030377304
0.01734276
-0.048455765
0.042522233
0.024139856
-0.06172843
0.054931334
0.031548422
-0.074323784
0.066915218
0.039321537
-0.085653516
0.077880401
0.047249277
-0.095325439
0.087397699
0.055181703
-0.10317784
0.095245415
0.063037771
-0.10927146
0.1014154
0.070799798
-0.11384233
0.1060803
0.078497415
-0.11723015
0.10953253
0.086187302
-0.11980291
0.11211302
0.093934876
-0.12189655
0.11414897
0.10180184
-0.12377994
0.11591298
0.1098402
-0.12564554
0.11760718
0.11809315
-0.12761777
0.11936483
0.12661769
-0.12977513
0.12125058
-0.13214895
0.12325641
0.13551023
0.00086026305
-0.0040047462
0.0032566493
-0.014274969
0.0070573931
-0.026588964
0.01208199
-0.040246941
0.018096538
-0.054470314
0.024829425
-0.068461317
0.032001175
-0.081495535
0.0393594
-0.093011741
0.046708935
-0.10267497
0.053929204
-0.11039811
0.060975325
-0.11631759
0.067864852
-0.12073186
0.074655992
-0.12402129
0.081424575
-0.12657149
0.088245573
-0.12871754
0.095182028
-0.1307164
0.10228105
-0.13274456
0.10957552
-0.13491224
0.11708747
-0.13728708
-0.13987382
0.12481235
0.00093661332
-0.0049413595
0.003482829
-0.016821185
0.0074362053
-0.03054234
0.012550085
-0.045360822
0.018534667
-0.060454895
0.025079381
-0.07500603
0.031887492
-0.088303646
0.038711728
-0.099835977
0.045380506
-0.10934375
0.051807925
-0.11682553
0.057986352
-0.12249601
0.063965891
-0.1267114
0.069828244
-0.12988364
0.075662601
-0.13240585
0.081548657
-0.1346036
0.087548249
-0.13671599
0.093704101
-0.13890042
0.1000425
-0.14125064
0.10657558
-0.14382016
-0.14660855
0.11331031
0.0009984107
-0.0059397702
0.0036501524
-0.019472927
0.0076828212
-0.034575009
0.012787281
-0.050465281
0.018624835
-0.06629245
0.024855941
-0.081237136
0.031177985
-0.09462569
0.037359296
-0.10601729
0.043259278
-0.11524373
0.048829783
-0.12239603
0.054099187
-0.12776542
0.059145724
-0.13175793
0.064068716
-0.13480663
0.068965071
-0.13730221
0.073915008
-0.13955354
0.078977034
-0.14177802
0.084189546
-0.14411293
0.089575428
-0.14663652
0.095146387
-0.14939112
-0.15237802
0.10091585
0.00104242
-0.0069821903
0.0037493293
-0.022179836
0.007781132
-0.038606812
0.012772039
-0.055456188
0.018343656
-0.071864067
0.02413902
-0.087032499
0.029861428
-0.1003481
0.035304364
-0.11146022
0.040363695
-0.12030306
0.045029802
-0.12706214
0.049363826
-0.13209944
0.053466476
-0.13586058
0.057448457
-0.13878861
0.061409076
-0.14126282
0.065425408
-0.14356987
0.069550656
-0.14590327
0.073818114
-0.14838039
0.078247105
-0.15106551
0.082848136
-0.15399215
-0.15716381
0.087633929
0.0010664018
-0.0080485921
0.0037734981
-0.024886932
0.0077196406
-0.042552954
0.012490654
-0.060227202
0.017679667
-0.07705308
0.022924853
-0.092277685
0.027946813
-0.10537006
0.032572105
-0.11608552
0.0367362
-0.12446716
0.040466467
-0.13079241
0.043851914
-0.13548489
0.047009345
-0.13901802
0.050054768
-0.14183404
0.053085235
-0.14429329
0.056171804
-0.14665644
0.059360919
-0.14909238
0.062680141
-0.15169961
0.066144681
-0.15453005
0.069762531
-0.15761
-0.16094408
0.073542801
0.0010687433
-0.0091173354
0.0037179235
-0.027536112
0.0074914991
-0.04632653
0.011937574
-0.064673277
0.01663362
-0.081749126
0.021225758
-0.096869823
0.025462131
-0.10960643
0.029208119
-0.1198315
0.03243948
-0.12769852
0.035217015
-0.13356994
0.037651569
-0.13791944
0.039869537
-0.14123598
0.041986779
-0.14395128
0.044094402
-0.14640092
0.046255472
-0.14881751
0.048508896
-0.1513458
0.050876233
-0.15406694
0.053368344
-0.15702217
0.055990156
-0.16023181
-0.16370044
0.058746511
0.0010477475
-0.010165083
0.0035785592
-0.030066924
0.0070929053
-0.049840876
0.011114094
-0.068694466
0.015217531
-0.085852563
0.019069256
-0.10072155
0.02245311
-0.11299029
0.025276444
-0.12265484
0.027553644
-0.12997572
0.029373905
-0.1353902
0.030863475
-0.13940901
0.032152348
-0.14252486
0.033351808
-0.14515074
0.034544467
-0.14759357
0.035784346
-0.15005739
0.03710263
-0.15266409
0.038515003
-0.15547932
0.040028059
-0.15853522
0.041643624
-0.16184738
-0.16541921
0.043362397
0.00099961473
-0.011164698
0.0033502586
-0.032417568
0.0065228003
-0.053013418
0.010029267
-0.072200933
0.013455647
-0.089278943
0.016497859
-0.10376376
0.018981051
-0.11547348
0.020855282
-0.12452907
0.022170234
-0.13129067
0.023037806
-0.13625778
0.023593555
-0.13996476
0.023966053
-0.14289735
0.02425879
-0.14544348
0.024544382
-0.14787917
0.024867488
-0.15038049
0.025251821
-0.15304842
0.025707534
-0.15593503
0.026237233
-0.15906492
0.026839923
-0.16245007
-0.16609214
0.027512854
0.0009254346
-0.012090132
0.0030402217
-0.034532355
0.0057967899
-0.055769986
0.0087086541
-0.075112797
0.011385046
-0.091955334
0.013561342
-0.10594006
0.015108693
-0.11702083
0.016019404
-0.12543978
0.016374104
-0.13164537
0.016301197
-0.13618487
0.015939531
-0.13960309
0.015411778
-0.1423696
0.014811109
-0.14484281
0.014199287
-0.14726734
0.013611787
-0.14979299
0.013065437
-0.15250207
0.01256553
-0.15543512
0.01211125
-0.15861064
0.011699079
-0.1620379
0.011323438
-0.1657165
-6.9650444e-05
6.9650434e-05
-1.063335e-11
0.00018551262
-0.00025516298
-1.0572723e-10
0.001140318
-0.00095480518
-2.4725577e-10
0.0030964028
-0.0019560843
-4.2649509e-10
0.0062837197
-0.0031873164
-6.4193333e-10
0.010855463
-0.0045717424
-8.7832726e-10
0.016883642
-0.0060281783
-1.1366673e-09
0.024358983
-0.007475339
-1.3899859e-09
0.033197406
-0.0088384221
-1.639166e-09
0.043254075
-0.010056667
-1.8537698e-09
0.054343975
-0.011089898
-2.0447692e-09
0.066265977
-0.011922
-2.1868087e-09
0.078826091
-0.012560112
-2.3051713e-09
0.091855859
-0.013029766
-2.3784511e-09
0.10522339
-0.013367526
-2.4423886e-09
0.11883667
-0.013613284
-2.4701247e-09
0.13264076
-0.013804079
-2.5033003e-09
0.14661127
-0.013970515
-2.5054738e-09
0.16074744
-0.014136161
-2.5258635e-09
-0.014316771
0.17506421
-2.5338114e-09
-4.52646e-05
0.00011491502
0.00026975255
-0.00057018015
0.0013114372
-0.0019964899
0.0033737295
-0.0040183767
0.0066784731
-0.00649206
0.011369912
-0.0092631811
0.017510377
-0.012168643
0.025080818
-0.01504578
0.033988339
-0.017745943
0.044081455
-0.020149783
0.055171696
-0.022180139
0.067058121
-0.023808425
0.079550288
-0.025052278
0.092485708
-0.025965186
0.10573959
-0.026621407
0.1192269
-0.027100595
0.13289858
-0.027475761
0.14673462
-0.027806557
0.16073697
-0.028138507
-0.028501764
0.17492196
2.221454e-06
0.00011269355
0.00042955817
-0.00099751689
0.0016283474
-0.0031952792
0.0038748819
-0.0062649112
0.0073737515
-0.0099909296
0.012251696
-0.014141126
0.01855364
-0.018470587
0.026244384
-0.022736524
0.035217837
-0.026719396
0.045313996
-0.030245942
0.056341712
-0.033207856
0.068103371
-0.035570084
0.0804169
-0.037365808
0.093131405
-0.038679691
0.10613477
-0.039624769
0.1193538
-0.040319625
0.13274916
-0.040871125
0.14630795
-0.041365344
0.16003683
-0.04186739
-0.042419264
0.17395433
6.9955427e-05
4.2738111e-05
0.00065530767
-0.0015828692
0.002071544
-0.0046115156
0.0045677303
-0.0087610974
0.0083222814
-0.013745481
0.013436214
-0.019255058
0.019929942
-0.024964316
0.027746757
-0.030553338
0.03676432
-0.03573696
0.046813691
-0.040295312
0.057703133
-0.044097299
0.069242418
-0.047109369
0.081263021
-0.049386411
0.093631057
-0.051047726
0.10625198
-0.052245691
0.11906837
-0.05313602
0.13205346
-0.053856216
0.14520329
-0.054515173
0.15853038
-0.055194477
-0.055944259
0.17205537
0.00015379248
-0.00011105438
0.00093337513
-0.0023624518
0.0026139574
-0.0062920979
0.0054086061
-0.011555746
0.0094612968
-0.017798171
0.014839856
-0.024633618
0.0215341
-0.03165856
0.029461747
-0.038480985
0.038482683
-0.044757897
0.048420125
-0.050232753
0.0590851
-0.054762274
0.07029956
-0.058323828
0.081913819
-0.061000671
0.093815881
-0.062949789
0.10593267
-0.064362483
0.11822524
-0.065428589
0.13068093
-0.0663119
0.14330545
-0.067139696
0.15611746
-0.068006488
-0.068965937
0.16913914
0.00024903532
-0.00036008971
0.0012481963
-0.0033616128
0.0032246308
-0.0082685324
0.0063477432
-0.014678859
0.010719773
-0.022170201
0.016368975
-0.03028282
0.023249818
-0.038539403
0.031251992
-0.046483158
0.040217778
-0.053723683
0.049965186
-0.059980162
0.060312433
-0.065109521
0.071098867
-0.069110262
0.082198602
-0.072100406
0.093525478
-0.074276664
0.10503044
-0.075867449
0.11669419
-0.077092334
0.1285183
-0.078136017
0.14051784
-0.079139228
0.15271725
-0.080205898
-0.08138842
0.16513973
0.0003510058
-0.00071109553
0.0015838743
-0.0045944813
0.0038716123
-0.01055627
0.0073335666
-0.018140813
0.012024128
-0.026860763
0.017926964
-0.036185655
0.024958096
-0.045570535
0.032978574
-0.054503637
0.041815052
-0.062560161
0.051284396
-0.069449506
0.061217186
-0.075042311
0.071475322
-0.079368398
0.081960891
-0.082585975
0.09261622
-0.084931993
0.10341734
-0.086668569
0.11436435
-0.088039341
0.12547198
-0.089243654
0.136763
-0.090430245
0.14826607
-0.09170897
-0.093129505
0.16000716
0.00045509993
-0.0011661955
0.0019245322
-0.0060639136
0.0045228536
-0.013154592
0.0083143771
-0.021932336
0.013301004
-0.03184739
0.019418498
-0.042303149
0.026543233
-0.05269527
0.034508915
-0.062469319
0.043130146
-0.071181391
0.052227707
-0.078547067
0.061649929
-0.084464533
0.071285804
-0.089004273
0.081068308
-0.092368479
0.090969289
-0.094832974
0.10098936
-0.096688636
0.11114661
-0.098196592
0.1214673
-0.099564351
0.13198014
-0.10094308
0.14271462
-0.10244345
-0.10411444
0.15369956
0.00055577016
-0.0017219656
0.0022530156
-0.0077611591
0.0051453205
-0.016046897
0.0092384858
-0.026025502
0.014478984
-0.037087888
0.020753189
-0.048577354
0.027898431
-0.059840512
0.035723948
-0.070294837
0.044037016
-0.079494458
0.052667906
-0.087177957
0.061487839
-0.093284466
0.070416505
-0.097932939
0.079419226
-0.1013712
0.088496682
-0.10391043
0.097671623
-0.10586358
0.10697658
-0.10750155
0.11644538
-0.10903315
0.12610951
-0.11060721
0.13599824
-0.11233218
-0.11425286
0.14613666
0.00064960932
0.0025587186
0.0057170778
0.01006888
0.015503225
0.021857205
0.02893191
0.036517475
0.044420715
0.052488173
0.060619103
0.068766467
0.076927797
0.085130391
0.093415786
0.10182722
0.11040124
0.11915885
0.12807726
0.13708081
0.1825172
-0.0074529908
-3.4001314e-09
0.18888569
-0.0063684809
-3.3978098e-09
0.19435399
-0.0054683031
-3.393824e-09
0.19906105
-0.004707047
-3.3879097e-09
0.20312323
-0.0040621812
-3.3509751e-09
0.20663588
-0.0035126461
-3.2999954e-09
0.209673
-0.0030371221
-3.2715144e-09
0.21229488
-0.0026218716
-3.2303468e-09
0.21455488
-0.0022599945
-3.1688336e-09
0.21650096
-0.0019460798
-3.0759694e-09
0.21817493
-0.0016739669
-2.981309e-09
0.21961238
-0.0014374526
-2.8694945e-09
0.22084345
-0.0012310593
-2.7640134e-09
0.22189361
-0.0010501574
-2.6415863e-09
0.22278449
-0.00089087923
-2.522886e-09
0.22353449
-0.00075000157
-2.3825401e-09
0.22415932
-0.0006248247
-2.2431846e-09
0.2246724
-0.00051307657
-2.0821321e-09
0.22508524
-0.00041283857
-1.9242211e-09
0.22540772
-0.00032248462
-1.7475944e-09
0.22564836
-0.00024063137
-1.5774256e-09
0.22581446
-0.00016609671
-1.3910649e-09
0.22591232
-9.7866894e-05
-1.2147043e-09
0.22594739
-3.5069571e-05
-1.0251608e-09
0.22592435
2.3048129e-05
-8.4895752e-10
0.22584721
7.7138667e-05
-6.6112847e-10
0.22571944
0.00012777036
-4.8891755e-10
0.225544
0.00017543996
-3.074e-10
0.22532342
0.00022058219
-1.4242774e-10
0.22505984
0.00026357914
2.9811824e-11
0.22475507
0.00030476729
1.861323e-10
0.22441063
0.00034444481
3.4722572e-10
0.22402775
0.00038287702
4.9394681e-10
0.22360745
0.00042030028
6.4052362e-10
0.22315052
0.00045692702
7.7171201e-10
0.22265757
0.0004929486
8.9551394e-10
0.22212903
0.0005285388
1.0025141e-09
0.22156517
0.00056385677
1.0932979e-09
0.22096612
0.00059904875
1.1623698e-09
0.22033187
0.00063425117
1.2184765e-09
0.21966228
0.00066959299
1.2614066e-09
0.21895708
0.00070519732
1.2824059e-09
0.21821589
0.00074118376
1.2838202e-09
0.21743822
0.00077767154
1.2439966e-09
0.21662344
0.00081478124
1.1708625e-09
0.2157708
0.00085263889
1.022153e-09
0.21487942
0.00089137744
8.5458863e-10
0.21394827
0.00093115382
6.1342015e-10
0.21297621
0.000972057
3.5496654e-10
0.0010158675
-4.5333523e-11
0.18204946
-0.014580486
0.18819227
-0.012511293
0.19350275
-0.010778788
0.19809927
-0.0093035597
0.20208605
-0.0080489664
0.20554941
-0.0069760054
0.20855637
-0.0060440767
0.211162
-0.0052275028
0.21341572
-0.0045137196
0.21536251
-0.0038928643
0.21704204
-0.0033534986
0.2184885
-0.0028839107
0.21973104
-0.0024736072
0.22079452
-0.0021136318
0.2217001
-0.0017964563
0.22246587
-0.0015157799
0.22310735
-0.0012663056
0.22363784
-0.0010435622
0.22406877
-0.00084376339
0.22440997
-0.00066369311
0.22466995
-0.00050060923
0.22485602
-0.00035216539
0.2249745
-0.00021634637
0.22503085
-9.1415086e-05
0.22502976
2.4128935e-05
0.22497532
0.00013158618
0.224871
0.00023209057
0.2247198
0.00032663291
0.2245243
0.00041608144
0.22428668
0.00050119924
0.22400879
0.00058265861
0.22369218
0.00066105515
0.22333814
0.00073691807
0.22294772
0.00081072016
0.22252176
0.00088288469
0.22206092
0.00095379388
0.22156566
0.0010237943
0.22103632
0.0010932023
0.22047306
0.00116231
0.21987592
0.0012313892
0.21924482
0.0013006954
0.21857954
0.0013704738
0.21787976
0.0014409624
0.21714503
0.0015123976
0.2163748
0.0015850187
0.21556836
0.0016590759
0.2147249
0.0017348343
0.21384345
0.0018126049
0.21292295
0.0018925637
0.0019782722
0.18051967
-0.021145828
0.1862765
-0.018268119
0.19132074
-0.015823027
0.19573412
-0.013716942
0.19959948
-0.011914328
0.20298727
-0.010363798
0.2059523
-0.0090091068
0.20854054
-0.0078157419
0.21079438
-0.0067675528
0.21275341
-0.0058518962
0.21445355
-0.0050536409
0.21592646
-0.0043568233
0.21719963
-0.0037467748
0.21829676
-0.0032107647
0.21923829
-0.0027379849
0.22004183
-0.0023193185
0.22072258
-0.0019470544
0.22129367
-0.0016146493
0.22176644
-0.0013165383
0.22215072
-0.0010479755
0.22245502
-0.00080490138
0.22268668
-0.00058383283
0.22285211
-0.00038177204
0.22295682
-0.00019612951
0.22300562
-2.466383e-05
0.22300263
0.00013456894
0.22295146
0.00028326355
0.22285519
0.0004229028
0.22271648
0.00055478726
0.22253762
0.00068005943
0.22232056
0.00079972719
0.22206693
0.00091468235
0.22177813
0.0010257174
0.22145531
0.0011335392
0.22109941
0.0012387815
0.22071119
0.0013420147
0.22029123
0.0014437564
0.21983995
0.0015444784
0.21935765
0.0016446155
0.21884447
0.0017445716
0.21830044
0.0018447266
0.21772547
0.0019454442
0.21711935
0.0020470769
0.21648177
0.0021499745
0.2158123
0.0022544918
0.21511038
0.0023609993
0.21437532
0.0024698886
0.2136063
0.0025816232
0.21280241
0.0026964589
0.0028197399
0.17786961
-0.026960066
0.18310864
-0.023507147
0.1877964
-0.020510783
0.19196632
-0.017886869
0.19567211
-0.015620118
0.19896261
-0.013654292
0.2018763
-0.011922804
0.20444705
-0.010386486
0.20670773
-0.0090282308
0.2086906
-0.0078347689
0.21042633
-0.006789372
0.21194303
-0.0058735226
0.2132658
-0.0050695471
0.21441677
-0.004361733
0.21541532
-0.0037365376
0.21627841
-0.0031824051
0.21702083
-0.0026894727
0.21765548
-0.0022493072
0.21819364
-0.0018546899
0.21864509
-0.0014994303
0.2190184
-0.0011782088
0.21932101
-0.00088644424
0.21955942
-0.00062018095
0.21973928
-0.00037599341
0.21986553
-0.00015091002
0.21994245
5.765265e-05
0.21997376
0.00025194605
0.21996272
0.00043394196
0.21991214
0.00060537137
0.21982444
0.00076775604
0.21970173
0.00092243826
0.21954581
0.001070605
0.21935822
0.0012133109
0.21914026
0.0013514955
0.21889304
0.0014860003
0.21861747
0.0016175818
0.2183143
0.0017469253
0.21798413
0.0018746546
0.2176274
0.0020013433
0.21724445
0.002127523
0.21683548
0.0022536936
0.21640059
0.0023803316
0.21593977
0.002507899
0.21545289
0.0026368532
0.21493973
0.0027676584
0.21439993
0.0029007991
0.21383303
0.003036788
0.21323842
0.0031762339
0.21261541
0.0033194646
0.0034736086
0.17406088
-0.031881807
0.17867643
-0.028122697
0.18293223
-0.02476658
0.18680805
-0.021762689
0.19032258
-0.019134647
0.19349799
-0.016829702
0.19635311
-0.014777928
0.19890728
-0.012940658
0.2011819
-0.011302846
0.20320023
-0.0098530976
0.2049864
-0.0085755496
0.20656404
-0.0074511546
0.20795518
-0.0064606882
0.20917991
-0.0055864687
0.2102563
-0.0048129213
0.21120043
-0.0041265413
0.21202661
-0.0035156545
0.21274748
-0.0029701744
0.21337418
-0.0024813889
0.21391653
-0.002041775
0.21438314
-0.0016448259
0.21478161
-0.0012849138
0.21511859
-0.0009571537
0.2153999
-0.00065730619
0.21563067
-0.00038168468
0.21581539
-0.00012706847
0.21595799
0.00010934498
0.21606192
0.00033001582
0.21613019
0.00053710048
0.21616544
0.00073250325
0.21616999
0.00091789678
0.21614583
0.0010947662
0.21609471
0.0012644221
0.21601817
0.0014280394
0.21591751
0.001586662
0.21579386
0.001741229
0.21564819
0.0018925918
0.21548133
0.0020415191
0.21529395
0.0021887198
0.21508663
0.0023348475
0.21485981
0.0024805139
0.21461384
0.0026263037
0.21434896
0.0027727789
0.21406531
0.0029204991
0.21376294
0.0030700282
0.21344178
0.0032219557
0.21310166
0.0033769096
0.21274226
0.0035356351
0.21236321
0.003698517
0.0038744763
0.16907495
-0.035817025
0.17298402
-0.032031772
0.17674192
-0.02852448
0.18027818
-0.025298945
0.18357354
-0.022430011
0.18661915
-0.019875308
0.18941089
-0.017569668
0.1919511
-0.015480867
0.19424779
-0.013599536
0.19631382
-0.01191913
0.19816569
-0.010427421
0.19982165
-0.0091071074
0.20130005
-0.0079390961
0.20261853
-0.0069049455
0.20379351
-0.0059879034
0.20484009
-0.0051731137
0.20577194
-0.0044475069
0.20660139
-0.003799629
0.20733948
-0.0032194817
0.20799605
-0.0026983404
0.20857983
-0.0022286061
0.20909857
-0.001803657
0.20955915
-0.0014177268
0.20996762
-0.0010657798
0.21032936
-0.00074342773
0.21064912
-0.00044682667
0.21093109
-0.00017262284
0.21117897
8.2132764e-05
0.21139605
0.00032002271
0.21158523
0.00054332813
0.21174906
0.00075405819
0.21188984
0.00095398799
0.21200957
0.0011446923
0.21211004
0.0013275707
0.21219283
0.0015038727
0.21225934
0.0016747152
0.21231083
0.0018411069
0.21234839
0.0020039608
0.21237299
0.0021641132
0.21238551
0.0023223298
0.21238669
0.0024793307
0.2123772
0.0026357972
0.21235759
0.0027923851
0.21232835
0.0029497418
0.21228985
0.0031085261
0.21224239
0.0032694203
0.21218614
0.0034331552
0.21212118
0.0036006012
0.2120475
0.0037721925
0.0039586392
0.1629134
-0.03872327
0.16605742
-0.035175793
0.16925849
-0.03172555
0.17240962
-0.028450069
0.17545593
-0.02547632
0.17835615
-0.022775536
0.18108046
-0.020293974
0.18361077
-0.018011176
0.1859391
-0.015927873
0.18806633
-0.014046351
0.19000018
-0.012361281
0.19175272
-0.010859641
0.193338
-0.0095243767
0.19477073
-0.0083376801
0.19606546
-0.0072826272
0.19723606
-0.0063437181
0.19829554
-0.0055069875
0.19925588
-0.0047599657
0.200128
-0.0040915995
0.20092178
-0.0034921285
0.20164614
-0.0029529669
0.20230906
-0.0024665717
0.20291767
-0.0020263329
0.20347834
-0.0016264509
0.20399675
-0.0012618445
0.20447799
-0.00092805945
0.20492655
-0.00062118592
0.20534647
-0.00033779279
0.20574136
-7.4865476e-05
0.20611443
0.00017025706
0.20646858
0.00039991584
0.20680638
0.00061618353
0.20713018
0.00082089294
0.20744208
0.0010156703
0.20774399
0.0012019635
0.20803764
0.0013810664
0.2083246
0.0015541419
0.20860633
0.0017222382
0.20888413
0.0018863085
0.20915923
0.0020472306
0.20943274
0.0022058171
0.2097057
0.002362837
0.20997906
0.0025190295
0.21025368
0.0026751218
0.21053036
0.0028318476
0.2108098
0.0029899783
0.21109263
0.0031503284
0.21137934
0.0033138902
0.21167042
0.0034811136
0.0036645195
0.15560457
-0.040628281
0.15796771
-0.037538929
0.16057382
-0.034331666
0.16329866
-0.0311749
0.16605953
-0.02823719
0.16878943
-0.02550544
0.1714346
-0.022939142
0.17395364
-0.020530223
0.17631917
-0.018293397
0.17851779
-0.016244974
0.18054722
-0.014390705
0.18241237
-0.012724795
0.18412236
-0.011234364
0.18568846
-0.0099037863
0.18712294
-0.0087170987
0.18843821
-0.0076589944
0.18964643
-0.0067152096
0.19075915
-0.0058726817
0.19178715
-0.0051195956
0.19274037
-0.0044453551
0.19362792
-0.0038405186
0.19445806
-0.0032967084
0.19523825
-0.0028065234
0.19597523
-0.0023634278
0.19667505
-0.0019616695
0.19734318
-0.0015961816
0.1979845
-0.0012625103
0.19860344
-0.00095673512
0.19920398
-0.00067540271
0.19978971
-0.00041547694
0.2003639
-0.00017427292
0.20092951
5.0573521e-05
0.20148925
0.00026115526
0.20204559
0.00045932652
0.20260083
0.00064672965
0.20315706
0.00082483269
0.20371626
0.00099494484
0.20428025
0.0011582417
0.20485077
0.0013157928
0.20542943
0.0014685684
0.20601778
0.00161747
0.20661728
0.0017633409
0.20722931
0.0019069908
0.20785522
0.0020492128
0.20849627
0.0021908047
0.20915364
0.002332609
0.20982845
0.0024755124
0.21052173
0.002620611
0.21123449
0.0027683529
0.0029330781
0.14711117
-0.041602796
0.14871133
-0.039139084
0.15070905
-0.036329394
0.15298283
-0.033448676
0.15542711
-0.030681471
0.15796013
-0.028038459
0.1605117
-0.025490715
0.16301729
-0.023035813
0.16542667
-0.020702781
0.16770898
-0.018527278
0.16984975
-0.016531474
0.17184557
-0.01472062
0.1736998
-0.013088594
0.17541978
-0.011623765
0.17701511
-0.010312431
0.17849654
-0.009140421
0.1798752
-0.0080938709
0.18116214
-0.0071596224
0.18236799
-0.0063254459
0.18350279
-0.0055801507
0.18457586
-0.0049135952
0.18559582
-0.0043166698
0.18657054
-0.0037812431
0.18750719
-0.0033000778
0.18841229
-0.0028667651
0.18929174
-0.0024756357
0.19015092
-0.0021216837
0.19099468
-0.0018004945
0.19182745
-0.0015081783
0.19265328
-0.0012413054
0.19347586
-0.00099684996
0.19429858
-0.00077214734
0.19512458
-0.00056484391
0.19595676
-0.00037285755
0.19679784
-0.00019435073
0.19765036
-2.7687844e-05
0.19851673
0.00012858046
0.19939921
0.00027575781
0.20029999
0.00041501156
0.20122116
0.00054739968
0.20216473
0.00067390108
0.20313265
0.00079541883
0.20412682
0.00091282197
0.20514909
0.0010269489
0.20620124
0.0011386552
0.20728502
0.0012488292
0.20840211
0.0013584183
0.20955411
0.0014686072
0.21074265
0.0015798114
0.0017082133
0.13719788
-0.041719869
0.13796772
-0.039908926
0.13932443
-0.037686101
0.14113545
-0.035259701
0.14325892
-0.03280494
0.14559878
-0.030378321
0.14807281
-0.027964744
0.15059559
-0.025558594
0.15309123
-0.023198424
0.15550606
-0.020942099
0.1578088
-0.018834222
0.15998468
-0.016896501
0.16202963
-0.015133542
0.16394636
-0.01354049
0.16574174
-0.012107816
0.1674251
-0.010823784
0.16900701
-0.0096757798
0.17049849
-0.0086511001
0.1719105
-0.0077374524
0.1732536
-0.0069232487
0.17453777
-0.0061977659
0.17577231
-0.005551213
0.1769658
-0.004974738
0.17812612
-0.0044603969
0.17926046
-0.0040010991
0.18037536
-0.0035905423
0.18147682
-0.0032231422
0.18257029
-0.0028939623
0.18366076
-0.0025986459
0.1847528
-0.0023333515
0.18585065
-0.0020946945
0.1869582
-0.0018796939
0.18807908
-0.0016857247
0.18921669
-0.0015104745
0.19037425
-0.0013519043
0.19155477
-0.0012082137
0.19276116
-0.0010778095
0.1939962
-0.0009592764
0.19526256
-0.00085135008
0.19656285
-0.00075289257
0.19789962
-0.00066286781
0.19927536
-0.00058031769
0.20069251
-0.00050433694
0.20215351
-0.00043404656
0.20366073
-0.00036856419
0.20521652
-0.00030696213
0.2068232
-0.00024825614
0.20848298
-0.00019118207
0.21019821
-0.00013541246
-6.2860498e-05
0.19538996
-0.037521721
-0.19958811
0.19193314
-0.036452104
0.18915015
-0.034903108
0.18698081
-0.033090365
0.18537464
-0.031198771
0.18426713
-0.029270805
0.18357419
-0.027271805
0.18320612
-0.025190524
0.18308555
-0.023077859
0.18315271
-0.021009251
0.18336059
-0.019042104
0.18367029
-0.0172062
0.18404938
-0.015512638
0.18447168
-0.013962786
0.18491677
-0.012552905
0.18536924
-0.01127626
0.1858178
-0.010124337
0.1862544
-0.0090876946
0.18667353
-0.0081565817
0.18707163
-0.0073213563
0.18744663
-0.0065727609
0.18779751
-0.00590209
0.18812405
-0.0053012803
0.1884266
-0.0047629473
0.18870589
-0.0042803859
0.18896289
-0.0038475475
0.18919875
-0.0034590043
0.18941469
-0.0031099038
0.18961197
-0.0027959214
0.18979183
-0.0025132111
0.18995549
-0.0022583583
0.19010413
-0.0020283354
0.19023887
-0.0018204595
0.19036075
-0.0016323546
0.19047076
-0.0014619148
0.19056982
-0.0013072726
0.19065878
-0.0011667682
0.19073842
-0.0010389217
0.19080948
-0.00092240587
0.19087261
-0.00081602226
0.19092842
-0.00071867574
0.19097745
-0.00062935015
0.19102019
-0.00054708207
0.19105708
-0.00047093277
0.19108847
-0.00039995702
0.19111467
-0.00033315647
0.19113589
-0.00026947741
0.19115223
-0.00020752642
0.19116387
-0.00014704696
-6.8223987e-05
0.21157386
-0.033439681
-0.2156559
0.20803916
-0.032917398
0.20510073
-0.031964687
0.2027213
-0.030710927
0.20085459
-0.029332063
0.19945366
-0.027869879
0.1984586
-0.026276742
0.19780283
-0.024534754
0.19742368
-0.022698714
0.19726638
-0.020851948
0.19728331
-0.019059033
0.19743302
-0.017355913
0.19768009
-0.015759706
0.19799511
-0.014277804
0.19835437
-0.012912167
0.19873926
-0.011661145
0.19913547
-0.010520551
0.19953229
-0.0094845158
0.19992188
-0.0085461732
0.20029869
-0.0076981673
0.20065896
-0.0069330239
0.20100027
-0.0062434077
0.20132129
-0.0056222921
0.2016214
-0.0050630647
0.2019006
-0.0045595843
0.20215926
-0.0041062053
0.20239803
-0.0036977783
0.20261776
-0.0033296355
0.20281941
-0.0029975661
0.20300398
-0.0026977855
0.20317253
-0.0024269022
0.20332608
-0.0021818842
0.20346564
-0.0019600251
0.2035922
-0.0017589119
0.20370668
-0.0015763937
0.20380996
-0.0014105523
0.20390286
-0.0012596746
0.20398617
-0.001122226
0.20406059
-0.00099682456
0.20412678
-0.00088221692
0.20418536
-0.0007772532
0.20423687
-0.00068086213
0.20428181
-0.00059202391
0.20432062
-0.00050974087
0.20435367
-0.00043300463
0.20438126
-0.00036074573
0.20440362
-0.00029183607
0.20442085
-0.00022475967
0.20443311
-0.000159303
-7.3888391e-05
0.22842987
-0.029478184
-0.23239137
0.2249137
-0.02940122
0.22189007
-0.028941062
0.21935981
-0.028180666
0.2172903
-0.027262549
0.21564389
-0.026223477
0.21438074
-0.025013588
0.21345745
-0.023611461
0.21282796
-0.022069224
0.21244545
-0.020469446
0.21226468
-0.018878257
0.21224398
-0.017335215
0.21234661
-0.015862334
0.21254116
-0.014472358
0.21280151
-0.013172514
0.21310638
-0.011966022
0.21343885
-0.010853019
0.21378568
-0.0098313482
0.21413676
-0.0088972472
0.2144845
-0.0080459071
0.21482338
-0.0072719064
0.21514951
-0.0065695385
0.21546027
-0.0059330519
0.21575402
-0.0053568178
0.21602988
-0.0048354436
0.21628752
-0.0043638441
0.21652703
-0.003937282
0.21674878
-0.0035513851
0.21695336
-0.0032021486
0.2171415
-0.0028859252
0.217314
-0.0025994086
0.21747173
-0.0023396126
0.21761556
-0.0021038483
0.21774634
-0.0018896986
0.21786494
-0.0016949937
0.21797218
-0.0015177861
0.21806883
-0.0013563261
0.21815564
-0.0012090375
0.21823331
-0.0010744939
0.21830249
-0.00095139505
0.21836378
-0.00083854228
0.21841773
-0.00073481356
0.21846484
-0.00063913565
0.21850555
-0.00055045374
0.21854024
-0.00046769678
0.21856922
-0.00038972452
0.21859272
-0.00031532931
0.21861084
-0.00024288376
0.21862371
-0.00017217573
-7.9855219e-05
0.24604499
-0.025715467
-0.24980771
0.24262034
-0.025976564
0.23957949
-0.025900212
0.23695303
-0.025554214
0.23472979
-0.025039302
0.23288435
-0.024378041
0.23139317
-0.023522409
0.23023185
-0.022450142
0.22936943
-0.021206796
0.22876831
-0.019868327
0.22838816
-0.018498106
0.22818968
-0.017136735
0.22813686
-0.015809516
0.22819791
-0.014533406
0.22834546
-0.013320069
0.2285565
-0.012177057
0.22881202
-0.011108541
0.22909666
-0.010115987
0.2293982
-0.0091987869
0.22970711
-0.0083548159
0.23001609
-0.0075808905
0.23031969
-0.0068731396
0.23061393
-0.0062272943
0.23089602
-0.0056389072
0.23116409
-0.0051035154
0.23141701
-0.0046167552
0.23165417
-0.0041744419
0.2318754
-0.0037726203
0.23208085
-0.0034075941
0.23227086
-0.0030759392
0.23244596
-0.0027745065
0.23260676
-0.0025004154
0.23275396
-0.002251043
0.23288827
-0.0020240085
0.23301043
-0.0018171558
0.23312118
-0.0016285345
0.23322123
-0.0014563796
0.23331128
-0.0012990907
0.233392
-0.0011552105
0.23346401
-0.0010234025
0.23352789
-0.00090242755
0.2335842
-0.00079111924
0.23363342
-0.00068835548
0.23367599
-0.0005930274
0.2337123
-0.00050400293
0.23374265
-0.00042007217
0.23376726
-0.0003399441
0.23378627
-0.00026188935
0.23379975
-0.00018566176
-8.6121152e-05
0.26435331
-0.022205527
-0.26786325
0.26108796
-0.022711213
0.25811267
-0.022924925
0.25546732
-0.022908863
0.25315731
-0.022729297
0.2511723
-0.022393031
0.24950423
-0.021854338
0.24814493
-0.021090839
0.24707737
-0.020139233
0.24627415
-0.019065109
0.2457019
-0.017925852
0.24532588
-0.016760716
0.24511279
-0.015596429
0.24503208
-0.014452697
0.2450565
-0.013344491
0.24516232
-0.012282868
0.24532926
-0.011275483
0.24554037
-0.010327102
0.24578172
-0.0094401311
0.24604202
-0.0086151172
0.24631232
-0.0078511895
0.24658562
-0.0071464392
0.24685656
-0.0064982346
0.24712112
-0.0059034744
0.2473764
-0.0053587873
0.24762032
-0.0048606844
0.24785156
-0.0044056729
0.24806927
-0.0039903383
0.24827308
-0.0036114017
0.2484629
-0.0032657559
0.24863888
-0.0029504885
0.24880136
-0.0026628918
0.24895078
-0.0024004655
0.24908768
-0.002160912
0.24921266
-0.0019421279
0.24932631
-0.001742192
0.24942928
-0.0015593501
0.24952219
-0.0013919991
0.24960565
-0.0012386678
0.24968024
-0.0010979974
0.24974654
-0.00096871948
0.24980505
-0.00084963155
0.24985626
-0.00073956924
0.24990061
-0.0006373743
0.24993846
-0.00054185669
0.24997013
-0.00045173884
0.24999583
-0.00036564438
0.25001569
-0.00028174948
0.25002977
-0.00019974517
-9.2676528e-05
0.28336073
-0.018998843
-0.28656741
0.28031806
-0.019668551
0.27748353
-0.020090395
0.27489653
-0.020321857
0.27257233
-0.020405103
0.27051436
-0.020335056
0.26872829