/*--------------------------------*- C++ -*----------------------------------*\
  =========                 |
  \\      /  F ield         | OpenFOAM: The Open Source CFD Toolbox
   \\    /   O peration     | Website:  https://openfoam.org
    \\  /    A nd           | Version:  6
     \\/     M anipulation  |
\*---------------------------------------------------------------------------*/
FoamFile
{
    version     2.0;
    format      ascii;
    class       surfaceScalarField;
    location    "1";
    object      phi_0;
}
// * * * * * * * * * * * * * * * * * * * * * * * * * * * * * * * * * * * * * //

dimensions      [0 3 -1 0 0 0 0];

internalField   nonuniform List<scalar> 
18180
(
0.00078339664
-0.0033598675
0.0025764708
0.0030192205
-0.012546274
0.01031045
0.006640395
-0.02390508
0.020283906
0.01152472
-0.036732128
0.031847803
0.017487386
-0.050248773
0.044286107
0.024293481
-0.063652481
0.056846387
0.031685167
-0.0762058
0.068814114
0.039416022
-0.087327643
0.079596788
0.047282963
-0.09666097
0.088794029
0.055147285
-0.10409945
0.096235129
0.062940283
-0.10976613
0.10197313
0.070654334
-0.11395153
0.10623748
0.078324616
-0.11703109
0.10936081
0.086008362
-0.11938598
0.11170223
0.093767639
-0.12134621
0.11358694
0.10165878
-0.12316342
0.11527228
0.10972824
-0.12500945
0.11694
0.11801457
-0.12699044
0.1187041
0.12657096
-0.129171
0.12061461
-0.13157341
0.12265459
0.13548978
0.00086893074
-0.0042287982
0.0032854868
-0.01496283
0.0071100118
-0.027729605
0.012151876
-0.041773993
0.018166903
-0.0562638
0.024875982
-0.070361561
0.031997581
-0.083327399
0.039283881
-0.094613943
0.046550018
-0.10392711
0.053688648
-0.11123808
0.060667392
-0.11674487
0.067512415
-0.12079655
0.074285052
-0.12380373
0.081059112
-0.12616004
0.08790412
-0.12819122
0.094876448
-0.13013575
0.10201712
-0.13215013
0.10935448
-0.1343278
0.1169079
-0.13672442
-0.13933782
0.12467232
0.00094344126
-0.0051722395
0.003502493
-0.017521882
0.0074656163
-0.031692729
0.012575987
-0.046884364
0.018534945
-0.062222758
0.025027245
-0.07685386
0.031757767
-0.090057921
0.038487434
-0.10134361
0.045057578
-0.11049725
0.051396509
-0.11757701
0.057508336
-0.1228567
0.063449737
-0.12673795
0.06930302
-0.12965701
0.075153088
-0.13201011
0.081072666
-0.1341108
0.087116233
-0.13617931
0.093320368
-0.13835426
0.099707152
-0.14071458
0.10628647
-0.14330375
-0.14611581
0.11306446
0.0010032857
-0.0061755252
0.0036605641
-0.02017916
0.0076895628
-0.035721727
0.012771426
-0.051966226
0.01856044
-0.068011772
0.024715372
-0.083008793
0.03093866
-0.096281209
0.037009786
-0.10741474
0.042802734
-0.1162902
0.048283566
-0.12305784
0.053490925
-0.12806406
0.058507303
-0.13175433
0.063430263
-0.13457997
0.068350653
-0.1369305
0.07334081
-0.13910096
0.078451737
-0.14129024
0.083716015
-0.14361854
0.089152792
-0.14615136
0.094771889
-0.14892284
-0.15192988
0.10058596
0.0010452002
-0.0072207255
0.0037504463
-0.022884406
0.0077660016
-0.039737283
0.012717282
-0.056917507
0.018221042
-0.073515532
0.023921616
-0.088709366
0.029530363
-0.10188996
0.03485408
-0.11273845
0.039803932
-0.12124005
0.044383671
-0.12763758
0.048662748
-0.13234314
0.052743777
-0.13583536
0.056733696
-0.13856989
0.060724544
-0.14092134
0.064785179
-0.14316159
0.068961603
-0.14546667
0.0732819
-0.14793884
0.077762251
-0.15063171
0.082411688
-0.15357228
-0.15676059
0.0872424
0.001066969
-0.0082876945
0.0037654103
-0.025582848
0.0076837868
-0.043655659
0.01240049
-0.06163421
0.017506165
-0.078621207
0.022643095
-0.093846296
0.027542384
-0.10678924
0.032045216
-0.11724129
0.036102204
-0.12529704
0.039752617
-0.131288
0.04309157
-0.13568209
0.046235605
-0.1389794
0.049295427
-0.14162971
0.052360183
-0.1439861
0.055492866
-0.14629428
0.058733346
-0.14870715
0.06210472
-0.15131021
0.065619681
-0.15414667
0.069285131
-0.15723773
-0.16058531
0.07310985
0.0010670394
-0.0093547339
0.0037009313
-0.028216739
0.0074364948
-0.047391223
0.011816119
-0.066013835
0.016417225
-0.083222313
0.020892538
-0.098321609
0.025002472
-0.11089918
0.028627539
-0.12086635
0.031757752
-0.12842725
0.034463928
-0.13399417
0.036860812
-0.13807897
0.039072697
-0.14119128
0.041209119
-0.14376613
0.043353151
-0.14613013
0.045560318
-0.14850144
0.04786376
-0.15101059
0.050281347
-0.1537278
0.052821985
-0.15668731
0.055489809
-0.15990555
-0.16338494
0.058289436
0.0010437852
-0.010398519
0.0035531931
-0.030726147
0.0070207551
-0.050858785
0.010966027
-0.069959107
0.014966704
-0.08722299
0.018697467
-0.10205237
0.021955508
-0.11415722
0.024663088
-0.12357393
0.026847446
-0.13061161
0.028605735
-0.13575246
0.030066074
-0.13953931
0.031354938
-0.14248014
0.032576761
-0.14498795
0.03380639
-0.14735976
0.035091058
-0.14978611
0.036457044
-0.15237657
0.037917057
-0.15518781
0.039476182
-0.15824644
0.041135632
-0.161565
-0.1651452
0.042895894
0.00099344314
-0.011391962
0.0033172557
-0.03304996
0.0064359219
-0.053977451
0.0098597442
-0.073382929
0.013179069
-0.090542315
0.016099956
-0.10497326
0.018461338
-0.1165186
0.020227414
-0.12534001
0.021459033
-0.13184323
0.022274027
-0.13656745
0.02280811
-0.14007339
0.023185366
-0.1428574
0.02350232
-0.14530491
0.023824364
-0.1476818
0.024190217
-0.15015196
0.024619506
-0.15280586
0.02512
-0.1556883
0.025693103
-0.15881954
0.02633727
-0.16220917
-0.16585741
0.027049472
0.00091718566
-0.012309148
0.0030005578
-0.035133332
0.00569784
-0.056674733
0.008522782
-0.076207871
0.011090756
-0.093110289
0.013148308
-0.10703081
0.014580289
-0.11795058
0.015391978
-0.1261517
0.015673334
-0.13212459
0.015556806
-0.13645093
0.015180016
-0.1396966
0.01466058
-0.14233797
0.014084918
-0.14472925
0.01350829
-0.14710518
0.012961089
-0.14960476
0.012456788
-0.15230156
0.011998747
-0.15523026
0.011585119
-0.15840591
0.011211808
-0.16183586
0.010872851
-0.16551845
-4.1066467e-05
4.106646e-05
-9.7255804e-12
0.00030278121
-0.00034384759
-1.0305241e-10
0.0014086926
-0.0011059112
-2.4969606e-10
0.0035756843
-0.0021669912
-4.3725111e-10
0.0070249548
-0.00344927
-6.6214423e-10
0.011894508
-0.004869552
-9.0742639e-10
0.018235571
-0.0063410623
-1.1707633e-09
0.026014653
-0.0077790804
-1.4248374e-09
0.035123324
-0.0091086697
-1.668279e-09
0.045396096
-0.010272769
-1.8732059e-09
0.056634382
-0.011238284
-2.0497435e-09
0.068632458
-0.011998074
-2.1775029e-09
0.081200542
-0.012568081
-2.2808647e-09
0.094181127
-0.012980583
-2.3437848e-09
0.10745689
-0.013275764
-2.3986727e-09
0.1209509
-0.013494002
-2.4237884e-09
0.13462138
-0.013670484
-2.454552e-09
0.14845412
-0.013832734
-2.4600167e-09
0.16245512
-0.014000997
-2.4809368e-09
-0.014188265
0.17664339
-2.4922756e-09
-1.732856e-05
5.8395009e-05
0.0003847419
-0.00074591807
0.0015748864
-0.0022960557
0.0038442578
-0.0044363627
0.0074056898
-0.0070107019
0.012387978
-0.0098518399
0.018832538
-0.012785623
0.026696243
-0.015642785
0.035862361
-0.018274788
0.04615967
-0.020570078
0.057387295
-0.02246591
0.069340871
-0.02395165
0.081835051
-0.025062261
0.094718699
-0.025864231
0.10788147
-0.026438533
0.12125284
-0.026865371
0.13479617
-0.027213816
0.14850077
-0.027537335
0.16237469
-0.027874922
-0.028251376
0.1764378
2.8771931e-05
2.9623066e-05
0.00053940546
-0.0012565516
0.0018804555
-0.0036371057
0.004325169
-0.0068810763
0.0080688232
-0.010754356
0.013222534
-0.01500555
0.019810468
-0.019373558
0.02777403
-0.023606347
0.036984584
-0.027485343
0.047264182
-0.030849675
0.058411265
-0.033612993
0.070226557
-0.035766942
0.082534214
-0.037369918
0.095194978
-0.038524995
0.10811063
-0.039354189
0.12122137
-0.039976103
0.13449887
-0.040491319
0.14793819
-0.040976653
0.16155097
-0.041487706
-0.042058866
0.17535846
9.4547782e-05
-6.4924728e-05
0.00075765587
-0.0019196597
0.0023068322
-0.0051862821
0.0049877195
-0.0095619636
0.0089690905
-0.014735727
0.014336303
-0.020372763
0.021089545
-0.0261268
0.029150001
-0.031666803
0.038374862
-0.036710204
0.048579841
-0.041054655
0.059565456
-0.044598608
0.071141953
-0.047343438
0.083148203
-0.049376168
0.095461965
-0.050838758
0.10800158
-0.051893808
0.12072135
-0.052695868
0.13360361
-0.053373577
0.14665059
-0.054023635
0.15987839
-0.054715508
-0.055489917
0.17330944
0.00017604985
-0.00024097459
0.0010264978
-0.0027701077
0.0028281653
-0.0069879496
0.0057901903
-0.012523989
0.010046579
-0.018992116
0.015649663
-0.025975846
0.022569992
-0.033047129
0.030705109
-0.03980192
0.039897246
-0.04590234
0.049957568
-0.051114977
0.060692479
-0.055333519
0.071926694
-0.058577654
0.08351891
-0.060968384
0.09536837
-0.062688218
0.10741336
-0.063938801
0.11962447
-0.064906979
0.13199589
-0.065744991
0.14453752
-0.066565266
0.15727007
-0.067448056
-0.068436389
0.17021654
0.00026878564
-0.00050976024
0.001331031
-0.0038323531
0.0034148184
-0.009071737
0.0066849839
-0.015794154
0.011233507
-0.023540639
0.017073566
-0.031815906
0.024141802
-0.040115364
0.032310297
-0.047970416
0.041407159
-0.054999202
0.051242163
-0.060949982
0.061632265
-0.065723621
0.072421764
-0.069367153
0.083493769
-0.072040389
0.094772437
-0.073966885
0.10621804
-0.075384407
0.11781826
-0.0765072
0.12957904
-0.077505767
0.14151751
-0.078503739
0.15365867
-0.079589213
-0.080803336
0.16602562
0.0003682576
-0.00087801785
0.0016559613
-0.0051200568
0.0040360801
-0.011451856
0.0076226326
-0.019380707
0.012459543
-0.02837755
0.018516126
-0.037872489
0.02569252
-0.047291757
0.033835337
-0.056113233
0.042761066
-0.063924931
0.052282452
-0.070471368
0.062232154
-0.075673323
0.072478888
-0.079613886
0.082933832
-0.082495333
0.093548174
-0.084581228
0.10430482
-0.086141055
0.1152081
-0.087410475
0.12627456
-0.08857223
0.13752708
-0.08975626
0.14899348
-0.091055614
-0.092508526
0.16069867
0.00046997656
-0.0013479944
0.0019858529
-0.0066359332
0.0046609113
-0.014126914
0.0085533079
-0.023273103
0.013654412
-0.033478653
0.019886703
-0.044104781
0.027113091
-0.054518145
0.035156492
-0.064156634
0.043825673
-0.072594112
0.052941455
-0.079587149
0.06235732
-0.085089188
0.071970437
-0.089227004
0.081722409
-0.092247305
0.091592032
-0.09445085
0.10158411
-0.096133129
0.1117182
-0.097544571
0.12202009
-0.098874123
0.13251697
-0.10025313
0.1432365
-0.10177515
-0.10347775
0.15420573
0.00056838898
-0.0019163834
0.0023037494
-0.0083712936
0.0052569933
-0.017080158
0.0094269429
-0.027443053
0.014749646
-0.038801356
0.021099572
-0.050454707
0.028303365
-0.061721937
0.036163412
-0.072016681
0.044485577
-0.080916277
0.053104133
-0.088205705
0.061898068
-0.093883123
0.070796026
-0.098124963
0.079770947
-0.10122223
0.088828203
-0.10350811
0.097992005
-0.10529693
0.10729385
-0.10684641
0.1167652
-0.10834548
0.12643496
-0.10992289
0.13633016
-0.11167035
-0.11362178
0.14647419
0.00066008743
0.0025992439
0.0058029916
0.010207741
0.015692492
0.022084171
0.029176348
0.036756454
0.044634206
0.05266363
0.060753638
0.068866152
0.077004733
0.08519886
0.093488865
0.10191473
0.11050925
0.11929046
0.12823473
0.13726753
0.18385582
-0.0072124266
-3.3558801e-09
0.1900242
-0.0061683771
-3.3586977e-09
0.19532654
-0.0053023353
-3.3504746e-09
0.19989611
-0.0045695689
-3.3341571e-09
0.20384346
-0.0039473434
-3.2904847e-09
0.20725853
-0.0034150754
-3.240214e-09
0.21021162
-0.0029530798
-3.207427e-09
0.21276096
-0.002549335
-3.1641507e-09
0.2149587
-0.0021977448
-3.1026933e-09
0.21685162
-0.0018929163
-3.0135812e-09
0.21848021
-0.0016285808
-2.9220563e-09
0.21987882
-0.001398607
-2.8154017e-09
0.22107652
-0.0011976965
-2.7131548e-09
0.22209792
-0.0010214025
-2.5958465e-09
0.22296394
-0.00086601309
-2.4803998e-09
0.22369237
-0.00072843084
-2.3458222e-09
0.22429843
-0.00060605684
-2.2106163e-09
0.22479513
-0.0004967014
-2.0564179e-09
0.22519365
-0.00039851334
-1.9034658e-09
0.22550357
-0.00030992187
-1.7343284e-09
0.22573316
-0.00022958909
-1.5692431e-09
0.22588953
-0.00015637036
-1.3903508e-09
0.22597882
-8.9282916e-05
-1.2186306e-09
0.2260063
-2.7480328e-05
-1.0362742e-09
0.22597653
2.9768538e-05
-8.6386153e-10
0.22589343
8.3098184e-05
-6.8238682e-10
0.22576037
0.00013306187
-5.1275185e-10
0.22558023
0.00018014356
-3.3664049e-10
0.22535546
0.00022476703
-1.7309416e-10
0.22508816
0.00026730513
-5.1993701e-12
0.22478007
0.00030808652
1.5067745e-10
0.22443267
0.00034740265
3.0842951e-10
0.22404715
0.00038551312
4.5508576e-10
0.2236245
0.0004226494
5.9922275e-10
0.22316548
0.00045901968
7.3050407e-10
0.22267067
0.00049481171
8.5308355e-10
0.22214047
0.00053019614
9.6010362e-10
0.22157514
0.00056532941
1.0510445e-09
0.22097479
0.00060035543
1.1208099e-09
0.22033938
0.00063540861
1.1794712e-09
0.21966876
0.00067061614
1.2239189e-09
0.21896266
0.00070609962
1.2447048e-09
0.21822068
0.00074197729
1.2478845e-09
0.21744231
0.00077836722
1.2090052e-09
0.21662692
0.00081538896
1.139428e-09
0.21577375
0.00085316759
9.9107093e-10
0.21488192
0.0008918354
8.2811512e-10
0.21395037
0.00093154787
5.8788266e-10
0.21297797
0.0009724014
3.3448795e-10
0.001016092
-6.3641153e-11
0.18334424
-0.014118864
0.1893003
-0.012124431
0.19445395
-0.01045599
0.19891933
-0.0090349493
0.20279578
-0.0078237918
0.20616485
-0.0067841482
0.20909017
-0.0058784001
0.21162497
-0.0050841357
0.2138176
-0.0043903704
0.21571197
-0.0037872876
0.2173466
-0.0032632115
0.21875453
-0.002806533
0.21996391
-0.0024070823
0.22099876
-0.0020562477
0.22187954
-0.0017468001
0.22262379
-0.0014726815
0.22324653
-0.0012287916
0.22376065
-0.0010108201
0.22417725
-0.00081511294
0.22450589
-0.00063856286
0.22475482
-0.00047851743
0.22493115
-0.00033270442
0.22504104
-0.00019917008
0.22508979
-7.6228645e-05
0.22508198
3.7577149e-05
0.22502156
0.00014351183
0.22491195
0.00024267932
0.22475605
0.00033604492
0.22455636
0.00042445512
0.22431501
0.00050865452
0.22403379
0.00058929971
0.22371422
0.00066697291
0.22335755
0.00074219189
0.22296478
0.0008154196
0.22253672
0.00088707089
0.22207402
0.00095752069
0.2215771
0.0010271093
0.22104628
0.0010961478
0.22048172
0.0011649235
0.21988342
0.001233704
0.2192513
0.0013027416
0.21858512
0.0013722782
0.21788454
0.0014425492
0.21714912
0.0015137887
0.21637828
0.0015862338
0.21557131
0.001660133
0.2147274
0.0017357499
0.21384555
0.0018133927
0.2129247
0.0018932523
0.0019787209
0.18173716
-0.020497563
0.18733098
-0.017718248
0.19223473
-0.015359738
0.1965283
-0.013328526
0.20029131
-0.011586805
0.20359062
-0.010083454
0.20647826
-0.0087660345
0.20899865
-0.0076045293
0.21119337
-0.0065850916
0.21310126
-0.0056951752
0.21475729
-0.0049192487
0.21619217
-0.0042414067
0.21743247
-0.0036473851
0.21850114
-0.0031249219
0.21941797
-0.0026636269
0.22020002
-0.0022547287
0.22086203
-0.0018907984
0.22141673
-0.0015655258
0.22187516
-0.0012735382
0.22224684
-0.001010249
0.22254006
-0.00077173034
0.22276196
-0.00055460872
0.22291877
-0.00035597728
0.22301586
-0.00017332262
0.22305791
-4.4674254e-06
0.22304894
0.00015247827
0.22299245
0.00029916431
0.22289146
0.00043703544
0.22274856
0.00056735973
0.22256596
0.00069125199
0.22234556
0.00080969649
0.22208897
0.00092356496
0.22179753
0.0010336327
0.22147236
0.0011405918
0.22111437
0.0012450632
0.22072428
0.0013476066
0.22030266
0.00144873
0.21984991
0.0015488972
0.2193663
0.0016485358
0.21885196
0.0017480436
0.21830691
0.0018477955
0.21773103
0.0019481502
0.21712413
0.0020494565
0.21648586
0.0021520604
0.21581578
0.0022563137
0.21511332
0.0023625842
0.21437781
0.0024712613
0.2136084
0.0025828041
0.21280416
0.0026974911
0.002820412
0.17898228
-0.0261704
0.18409021
-0.022826174
0.18865976
-0.019929292
0.19272541
-0.017394176
0.19633977
-0.015201161
0.19954966
-0.013293351
0.20239173
-0.011608099
0.2048987
-0.010111508
0.207103
-0.008789391
0.20903648
-0.0076286522
0.2107292
-0.0066119642
0.21220852
-0.0057207302
0.21349882
-0.0049376806
0.21462153
-0.0042476416
0.21559548
-0.0036375745
0.2164371
-0.00309635
0.21716076
-0.0026144588
0.217779
-0.0021837627
0.21830275
-0.0017972893
0.21874156
-0.0014490529
0.21910373
-0.001133905
0.21939653
-0.00084740692
0.21962627
-0.00058572261
0.21979848
-0.00034552652
0.21991794
-0.00012393141
0.21998885
8.1574624e-05
0.22001483
0.00027318309
0.21999905
0.00045281518
0.21994425
0.00062215879
0.2198528
0.00078269877
0.21972675
0.00093574591
0.21956786
0.0010824603
0.21937762
0.0012238736
0.2191573
0.0013609055
0.21890798
0.0014943806
0.21863055
0.0016250408
0.21832572
0.0017535586
0.21799407
0.0018805472
0.21763604
0.0020065705
0.21725193
0.0021321521
0.21684194
0.0022577847
0.21640615
0.0023839386
0.21594454
0.0025110705
0.21545696
0.0026396331
0.21494319
0.0027700863
0.21440286
0.0029029108
0.21383551
0.0030386168
0.21324051
0.003177807
0.21261716
0.0033208397
0.0034745032
0.175048
-0.031001867
0.17956979
-0.027347959
0.18373422
-0.024093725
0.18752474
-0.021184697
0.19096118
-0.018637602
0.19406556
-0.016397723
0.196856
-0.014398542
0.19935135
-0.012606861
0.20157294
-0.011010975
0.20354402
-0.0095997395
0.20528852
-0.0083564631
0.20682958
-0.0072617872
0.2081887
-0.006296798
0.20938541
-0.0054443586
0.21043728
-0.0046894418
0.21135995
-0.0040190228
0.21216733
-0.0034218342
0.2128717
-0.0028881342
0.21348391
-0.0024095018
0.21401352
-0.001978659
0.21446892
-0.0015893052
0.2148575
-0.0012359862
0.21518574
-0.00091396308
0.21545933
-0.00061911945
0.21568327
-0.00034787279
0.21586194
-9.7090795e-05
0.21599917
0.00013595424
0.21609832
0.00035365924
0.21616236
0.00055812687
0.21619384
0.00075121536
0.21619503
0.00093455793
0.21616788
0.0011096059
0.21611411
0.0012776411
0.21603521
0.0014398135
0.21593244
0.0015971457
0.21580692
0.0017505584
0.2156596
0.001900887
0.21549126
0.0020488867
0.21530257
0.0021952544
0.21509409
0.0023406335
0.21486625
0.0024856267
0.21461938
0.0026308109
0.21435371
0.0027767414
0.21406937
0.0029239717
0.21376639
0.0030730608
0.21344471
0.0032245931
0.21310413
0.0033791934
0.21274434
0.0035375992
0.21236495
0.003700234
0.0038755921
0.16992216
-0.034898406
0.17377702
-0.031202818
0.17747342
-0.027790131
0.18094637
-0.024657645
0.18417942
-0.021870647
0.18716518
-0.019383485
0.1899002
-0.017133565
0.19238719
-0.015093855
0.19463465
-0.013258429
0.19665588
-0.011620975
0.19846758
-0.010168157
0.20008783
-0.0088820389
0.20153468
-0.007743648
0.20282534
-0.0067350218
0.20397585
-0.0058399505
0.20500091
-0.0050440781
0.20591385
-0.0043347731
0.20672667
-0.0037009607
0.20745014
-0.0031329683
0.20809383
-0.0026223492
0.20866627
-0.0021617415
0.209175
-0.0017447245
0.20962674
-0.001365703
0.21002741
-0.001019786
0.21038225
-0.0007027084
0.21069589
-0.00041073117
0.21097243
-0.00014058982
0.2112155
0.00011058877
0.21142831
0.00034532251
0.21161368
0.00056583727
0.21177415
0.00077409472
0.21191192
0.00097182925
0.21202898
0.0011605808
0.21212708
0.0013417188
0.21220776
0.001516467
0.2122724
0.0016859201
0.21232221
0.0018510675
0.2123583
0.0020128056
0.21238159
0.0021719563
0.21239295
0.0023292731
0.21239312
0.002485465
0.21238272
0.002641204
0.21236233
0.0027971377
0.21233239
0.0029539063
0.21229329
0.0031121622
0.2122453
0.003272582
0.2121886
0.0034358927
0.21212325
0.003602955
0.21204923
0.0037742504
0.0039599745
0.16361331
-0.037813046
0.16674078
-0.034330293
0.16991049
-0.03095984
0.17302222
-0.027769375
0.17602464
-0.024873061
0.1788785
-0.022237345
0.18155547
-0.019810541
0.18403892
-0.017577306
0.18632223
-0.015541737
0.18840734
-0.013706081
0.19030264
-0.012063459
0.19202038
-0.010599778
0.19357454
-0.0092978121
0.19497961
-0.008140089
0.19624982
-0.0071101673
0.19739878
-0.0061930289
0.19843915
-0.0053751512
0.19938265
-0.0046444599
0.20023993
-0.00399025
0.20102065
-0.0034030638
0.20173349
-0.0028745776
0.20238623
-0.002397474
0.20298587
-0.0019653364
0.20353861
-0.0015725305
0.20405002
-0.0012141166
0.20452505
-0.00088576177
0.20496812
-0.00058365954
0.20538318
-0.00030446731
0.20577375
-4.5246145e-05
0.20614298
0.00019660019
0.20649372
0.00042335705
0.2068285
0.00063704925
0.20714961
0.00083946856
0.20745913
0.0010322058
0.20775891
0.0012166784
0.20805068
0.001394154
0.20833598
0.0015657728
0.20861622
0.0017325635
0.20889271
0.0018954623
0.20916665
0.0020553322
0.20943914
0.0022129731
0.20971121
0.002369143
0.20998377
0.0025245714
0.2102577
0.0026799769
0.21053378
0.002836086
0.2108127
0.002993663
0.21109507
0.0031535182
0.21138139
0.0033166321
0.21167213
0.0034835112
0.0036660727
0.15615917
-0.039766495
0.15853822
-0.036709338
0.16113912
-0.033560743
0.16384678
-0.030477029
0.1665833
-0.027609586
0.16928291
-0.024936957
0.1718925
-0.022420131
0.17437251
-0.020057317
0.17669799
-0.017867213
0.17885761
-0.015865696
0.18085035
-0.014056204
0.18268177
-0.012431201
0.18436117
-0.010977208
0.18589978
-0.0096787039
0.18730971
-0.0085200919
0.18860317
-0.0074864871
0.18979206
-0.0065640424
0.19088768
-0.0057400857
0.19190059
-0.0050031571
0.1928405
-0.0043429781
0.19371632
-0.0037503878
0.19453609
-0.0032172537
0.19530715
-0.0027363879
0.19603605
-0.0023014392
0.19672875
-0.0019068142
0.19739057
-0.001547583
0.19802632
-0.0012194095
0.19864033
-0.00091847443
0.1992365
-0.0006414111
0.19981835
-0.00038525796
0.20038911
-0.00014739423
0.20095167
7.4489044e-05
0.2015087
0.00028243726
0.20206264
0.00047826374
0.20261574
0.00066357555
0.20317009
0.00083981028
0.20372761
0.0010082509
0.20429012
0.0011700504
0.20485932
0.0013262585
0.20543683
0.0014778286
0.20602415
0.0016256472
0.20662275
0.0017705451
0.207234
0.0019133206
0.20785922
0.0020547569
0.20849966
0.0021956436
0.20915651
0.0023368149
0.20983088
0.0024791526
0.21052377
0.0026237392
0.21123619
0.0027710888
0.0029348472
0.14753106
-0.04082337
0.1491757
-0.038353975
0.15118959
-0.035574629
0.15346309
-0.032750527
0.15589959
-0.030046093
0.15841874
-0.027456107
0.16094854
-0.024949928
0.16342482
-0.022533594
0.16580027
-0.020242667
0.16804725
-0.018112674
0.1701535
-0.016162456
0.1721168
-0.014394501
0.17394103
-0.01280144
0.17563373
-0.011371395
0.17720447
-0.010090838
0.1786639
-0.0089459146
0.18002298
-0.0079231189
0.18129254
-0.0070096538
0.18248302
-0.006193636
0.18360424
-0.0054641956
0.18466533
-0.0048114823
0.18567473
-0.0042266467
0.18664013
-0.0037017871
0.18756855
-0.0032298674
0.1884664
-0.0028046547
0.18933944
-0.0024206315
0.19019296
-0.0020729238
0.19103171
-0.0017572311
0.19186007
-0.0014697613
0.19268198
-0.0012071694
0.19350108
-0.00096650252
0.19432073
-0.00074515878
0.19514401
-0.00054083876
0.19597378
-0.00035150701
0.19681272
-0.0001753663
0.19766335
-1.0815843e-05
0.19852803
0.00014356373
0.19940904
0.0002890501
0.20030851
0.00042678817
0.20122852
0.00055781647
0.20217107
0.00068309703
0.20313809
0.00080351829
0.20413148
0.00091993652
0.20515306
0.0010331789
0.20620461
0.0011440915
0.20728787
0.0012535533
0.20840452
0.0013625062
0.20955614
0.0014721188
0.21074434
0.0015828838
0.0017101959
0.1374924
-0.041048239
0.13833624
-0.039197807
0.13973134
-0.036969731
0.14155613
-0.034575323
0.14368324
-0.032173205
0.14602224
-0.029795106
0.14848804
-0.027415726
0.1509926
-0.02503815
0.15346173
-0.022711802
0.15584558
-0.020496523
0.15811611
-0.01843299
0.1602605
-0.016538882
0.1622757
-0.014816646
0.16416495
-0.013260647
0.16593534
-0.011861221
0.16759618
-0.010606763
0.16915797
-0.0094849037
0.17063156
-0.0084832409
0.17202772
-0.0075897978
0.17335682
-0.0067932976
0.17462865
-0.006083311
0.17585232
-0.0054503173
0.17703624
-0.0048857084
0.17818813
-0.0043817575
0.17931504
-0.0039315656
0.18042341
-0.0035289981
0.1815191
-0.0031686172
0.18260748
-0.0028456134
0.18369346
-0.00255574
0.18478154
-0.0022952507
0.18587588
-0.002060843
0.18698033
-0.0018496069
0.18809847
-0.0016589789
0.18923366
-0.0014866993
0.19038907
-0.0013307746
0.1915677
-0.001189444
0.19277241
-0.0010611484
0.19400596
-0.0009445017
0.19527102
-0.00083826505
0.19657016
-0.00074132248
0.19790591
-0.000652657
0.19928076
-0.00057132703
0.20069713
-0.00049644173
0.20215745
-0.00042713469
0.20366407
-0.0003625344
0.20521935
-0.00030172359
0.20682558
-0.00024372389
0.20848499
-0.00018729029
0.21019988
-0.00013200572
-6.0667271e-05
0.19498639
-0.036968461
-0.19906617
0.19163325
-0.035844666
0.18893993
-0.03427641
0.18684846
-0.032483861
0.18531098
-0.030635718
0.18426097
-0.028745101
0.18361109
-0.026765846
0.18327213
-0.02469919
0.18317034
-0.022610009
0.18324926
-0.020575444
0.18346376
-0.018647488
0.18377598
-0.016851103
0.1841544
-0.015195071
0.18457369
-0.013679934
0.18501417
-0.012301706
0.18546104
-0.01105363
0.18590343
-0.0099272937
0.18633363
-0.0089134377
0.18674636
-0.0080025313
0.18713824
-0.0071851709
0.18750726
-0.0064523382
0.1878525
-0.0057955576
0.18817377
-0.0052069803
0.18847144
-0.0046794184
0.18874621
-0.0042063438
0.18899908
-0.0037818663
0.18923116
-0.003400698
0.18944366
-0.0030581097
0.1896378
-0.0027498849
0.18981483
-0.0024722721
0.18997592
-0.002221939
0.19012224
-0.0019959294
0.19025489
-0.0017916231
0.19037489
-0.0016066977
0.19048321
-0.0014390944
0.19058075
-0.0012869865
0.19066835
-0.0011487495
0.19074678
-0.0010229339
0.19081676
-0.00090823931
0.19087892
-0.0008034902
0.19093388
-0.00070761153
0.19098216
-0.00061960463
0.19102424
-0.00053852128
0.19106054
-0.00046343615
0.19109142
-0.00039341549
0.19111717
-0.00032747221
0.191138
-0.00026455826
0.19115401
-0.00020330257
0.19116536
-0.0001433469
-6.584654e-05
0.21114053
-0.032986773
-0.21512222
0.20770031
-0.032404452
0.20484794
-0.03142404
0.20254576
-0.030181672
0.20074702
-0.028836978
0.19940327
-0.027401355
0.19845346
-0.025816036
0.19783172
-0.024077455
0.19747741
-0.022255694
0.19733767
-0.0204357
0.19736625
-0.018676069
0.19752277
-0.017007623
0.19777278
-0.015445086
0.1980878
-0.013994955
0.19844492
-0.012658826
0.19882618
-0.011434883
0.19921778
-0.010318902
0.19960942
-0.0093050753
0.19999355
-0.0083866556
0.20036482
-0.0075564454
0.20071963
-0.006807147
0.20105568
-0.0061316067
0.20137167
-0.0055229765
0.20166707
-0.0049748135
0.20194186
-0.0044811342
0.20219643
-0.0040364372
0.20243144
-0.0036357034
0.20264771
-0.0032743819
0.20284619
-0.0029483655
0.20302788
-0.0026539616
0.2031938
-0.0023878598
0.20334497
-0.0021470991
0.20348238
-0.0019290355
0.20360699
-0.0017313107
0.20371972
-0.0015518211
0.20382142
-0.0013886905
0.20391292
-0.0012402419
0.20399496
-0.0011049722
0.20406824
-0.00098152727
0.20413343
-0.00086867753
0.20419111
-0.00076529413
0.20424183
-0.00067032408
0.20428608
-0.00058276358
0.20432427
-0.00050162908
0.20435678
-0.00042592433
0.2043839
-0.00035459184
0.20440585
-0.00028650919
0.20442273
-0.00022018548
0.20443468
-0.00015529425
-7.131586e-05
0.22797626
-0.029109746
-0.23185329
0.22454484
-0.028973027
0.22160275
-0.028481953
0.21914745
-0.027726369
0.21714348
-0.026833014
0.21555243
-0.025810299
0.21433528
-0.024598885
0.21344964
-0.023191814
0.21285006
-0.021656115
0.21249031
-0.020075954
0.21232593
-0.018511686
0.21231621
-0.01699791
0.21242542
-0.015554288
0.21262307
-0.014192609
0.21288387
-0.012919623
0.21318724
-0.011738258
0.21351682
-0.010648486
0.21385984
-0.009648091
0.21420652
-0.0087333317
0.21454954
-0.007899472
0.21488359
-0.007141198
0.21520492
-0.0064529307
0.215511
-0.0058290544
0.21580026
-0.0052640773
0.21607187
-0.0047527401
0.21632551
-0.0042900834
0.2165613
-0.0038714871
0.2167796
-0.0034926863
0.21698101
-0.0031497732
0.21716623
-0.0028391879
0.21733608
-0.0025577022
0.21749138
-0.0023023994
0.21763299
-0.0020706519
0.21776178
-0.001860097
0.21787857
-0.0016686125
0.21798417
-0.0014942931
0.21807936
-0.0013354258
0.21816485
-0.0011904669
0.21824134
-0.001058018
0.21830947
-0.00093680387
0.21836982
-0.0008256474
0.21842294
-0.0007234456
0.21846932
-0.00062914194
0.21850939
-0.00054169637
0.21854352
-0.00046005059
0.218572
-0.00038307698
0.21859507
-0.00030957382
0.21861282
-0.00023794073
0.21862537
-0.00016784311
-7.7076218e-05
0.24558003
-0.02541742
-0.24927235
0.24223036
-0.025623362
0.23926507
-0.025516664
0.23670923
-0.025170529
0.23454772
-0.024671508
0.23275514
-0.024017718
0.23130993
-0.023153675
0.23018864
-0.022070524
0.2293599
-0.020827375
0.22878574
-0.019501792
0.22842611
-0.01815205
0.22824247
-0.016814273
0.22819973
-0.015511553
0.228267
-0.014259872
0.2284177
-0.013070329
0.22862953
-0.011950082
0.22888407
-0.010903031
0.22916646
-0.009930475
0.22946486
-0.0090317321
0.22977005
-0.0082046666
0.23007499
-0.007446132
0.23037438
-0.0067523262
0.2306644
-0.0061190691
0.23094233
-0.0055420135
0.23120639
-0.0050168002
0.23145548
-0.0045391695
0.23168903
-0.0041050368
0.23190688
-0.0037105414
0.23210919
-0.003352075
0.23229629
-0.0030262942
0.23246871
-0.0027301234
0.23262706
-0.002460748
0.23277201
-0.0022156047
0.23290428
-0.0019923656
0.23302459
-0.0017889218
0.23313366
-0.0016033647
0.2332322
-0.0014339664
0.2333209
-0.0012791589
0.23340039
-0.0011375136
0.23347131
-0.0010077194
0.23353422
-0.00088855941
0.23358966
-0.00077888681
0.23363812
-0.0006775968
0.23368001
-0.00058359585
0.23371573
-0.00049576519
0.23374556
-0.00041290808
0.23376973
-0.00033373996
0.23378835
-0.00025655966
0.23380149
-0.00018099045
-8.3124555e-05
0.26388715
-0.021966308
-0.26733827
0.2606874
-0.022423611
0.25778003
-0.02260929
0.25519882
-0.022589321
0.25294537
-0.022418055
0.25100994
-0.022082288
0.24938685
-0.021530584
0.2480686
-0.020752273
0.24703708
-0.019795858
0.24626387
-0.018728586
0.24571547
-0.017603645
0.24535766
-0.01645646
0.24515789
-0.015311791
0.24508641
-0.014188392
0.24511671
-0.013100622
0.2452257
-0.012059075
0.24539372
-0.011071052
0.24560432
-0.010141071
0.24584396
-0.0092713768
0.24610172
-0.00846243
0.24636892
-0.0077133278
0.24663876
-0.0070221716
0.24690606
-0.0063863695
0.24716693
-0.0058028796
0.24741853
-0.0052684021
0.24765889
-0.004779526
0.24788669
-0.0043328384
0.24810115
-0.0039250039
0.2483019
-0.0035528194
0.24848885
-0.0032132497
0.24866218
-0.0029034492
0.2488222
-0.0026207715
0.24896937
-0.0023627724
0.24910421
-0.002127205
0.2492273
-0.0019120116
0.24933925
-0.0017153118
0.24944067
-0.0015353879
0.24953218
-0.0013706692
0.24961438
-0.0012197133
0.24968785
-0.001081187
0.24975313
-0.00095384442
0.24981075
-0.0008365031
0.24986117
-0.00072801637
0.24990481
-0.00062724182
0.24994205
-0.00053300319
0.24997318
-0.00044403649
0.24999841
-0.00035897245
0.25001787
-0.000276016
0.2500316
-0.00019472074
-8.9451588e-05
0.28290326
-0.018808783
-0.28606078
0.27991696
-0.019437315
0.27714157
-0.019833905
0.27461092
-0.020058664
0.27233715
-0.02014429
0.27032468
-0.020069816
0.2685815
-0.019787399
0.26711332
-0.019284097
0.26591429
-0.01859683