/*--------------------------------*- C++ -*----------------------------------*\
| =========                 |                                                 |
| \\      /  F ield         | OpenFOAM: The Open Source CFD Toolbox           |
|  \\    /   O peration     | Version:  4.1                                   |
|   \\  /    A nd           | Web:      www.OpenFOAM.org                      |
|    \\/     M anipulation  |                                                 |
\*---------------------------------------------------------------------------*/
FoamFile
{
    version     2.0;
    format      ascii;
    class       volScalarField;
    location    "16";
    object      p;
}
// * * * * * * * * * * * * * * * * * * * * * * * * * * * * * * * * * * * * * //

dimensions      [0 2 -2 0 0 0 0];

internalField   nonuniform List<scalar> 
1000
(
1.522731
1.5063555
1.4902514
1.4743486
1.4585795
1.4428988
1.42728
1.411709
1.3961773
1.3806784
1.3652067
1.3497579
1.3343284
1.318916
1.3035187
1.2881352
1.2727641
1.2574043
1.242055
1.2267151
1.2113841
1.1960611
1.1807455
1.1654369
1.1501346
1.1348382
1.1195473
1.1042615
1.0889804
1.0737037
1.0584311
1.0431622
1.0278969
1.0126348
0.99737581
0.98211962
0.96686607
0.95161497
0.93636614
0.92111944
0.9058747
0.8906318
0.87539061
0.86015099
0.84491286
0.82967609
0.81444059
0.79920628
0.78397306
0.76874086
0.75350961
0.73827924
0.72304968
0.70782088
0.69259277
0.67736532
0.66213846
0.64691216
0.63168638
0.61646108
0.60123621
0.58601176
0.57078768
0.55556394
0.54034053
0.52511742
0.50989458
0.49467199
0.47944964
0.46422749
0.44900555
0.43378379
0.41856219
0.40334075
0.38811944
0.37289827
0.35767721
0.34245626
0.32723542
0.31201466
0.29679398
0.28157338
0.26635285
0.25113239
0.23591198
0.22069162
0.20547131
0.19025104
0.17503081
0.15981062
0.14459046
0.12937032
0.11415022
0.098930134
0.083710071
0.068490027
0.053269999
0.038049985
0.022829984
0.0076099896
1.5225109
1.5061147
1.4901756
1.4744069
1.4586789
1.4429854
1.4273452
1.411761
1.3962231
1.3807198
1.3652436
1.3497899
1.3343562
1.3189404
1.3035405
1.2881548
1.2727819
1.2574205
1.2420697
1.2267286
1.2113965
1.1960725
1.180756
1.1654465
1.1501435
1.1348465
1.119555
1.1042686
1.088987
1.0737098
1.0584367
1.0431674
1.0279017
1.0126393
0.99737997
0.98212348
0.96686965
0.95161828
0.93636921
0.92112228
0.90587734
0.89063424
0.87539286
0.86015309
0.84491479
0.82967788
0.81444225
0.79920781
0.78397448
0.76874217
0.75351082
0.73828035
0.72305071
0.70782182
0.69259364
0.67736612
0.6621392
0.64691285
0.63168701
0.61646165
0.60123674
0.58601224
0.57078812
0.55556435
0.54034091
0.52511776
0.50989489
0.49467228
0.4794499
0.46422773
0.44900577
0.43378398
0.41856237
0.40334091
0.38811959
0.3728984
0.35767733
0.34245637
0.32723552
0.31201475
0.29679406
0.28157346
0.26635292
0.25113244
0.23591203
0.22069167
0.20547135
0.19025108
0.17503084
0.15981065
0.14459048
0.12937035
0.11415024
0.098930151
0.083710086
0.06849004
0.05327001
0.038049995
0.022829994
0.0076099949
1.5221083
1.5056173
1.4899057
1.474376
1.4587578
1.4430702
1.4274026
1.4117989
1.3962551
1.3807517
1.3652742
1.3498172
1.3343795
1.3189603
1.3035579
1.2881703
1.2727958
1.2574331
1.2420811
1.226739
1.2114059
1.1960811
1.1807639
1.1654538
1.1501502
1.1348526
1.1195606
1.1042738
1.0889918
1.0737142
1.0584408
1.0431712
1.0279052
1.0126426
0.99738299
0.98212627
0.96687223
0.95162068
0.93637143
0.92112434
0.90587924
0.89063601
0.8753945
0.8601546
0.84491619
0.82967918
0.81444345
0.79920892
0.7839755
0.76874312
0.7535117
0.73828116
0.72305146
0.70782251
0.69259428
0.67736671
0.66213975
0.64691335
0.63168747
0.61646208
0.60123713
0.5860126
0.57078845
0.55556466
0.54034119
0.52511802
0.50989513
0.49467249
0.47945009
0.46422791
0.44900593
0.43378413
0.41856251
0.40334103
0.3881197
0.37289851
0.35767743
0.34245646
0.32723559
0.31201482
0.29679413
0.28157351
0.26635297
0.25113249
0.23591207
0.2206917
0.20547138
0.19025111
0.17503087
0.15981067
0.1445905
0.12937037
0.11415025
0.098930166
0.083710099
0.068490052
0.053270021
0.038050005
0.022830002
0.0076100001
1.5217043
1.5050765
1.4895624
1.4742881
1.4588121
1.4431504
1.4274596
1.4118351
1.3962854
1.3807834
1.3653066
1.3498472
1.3344054
1.3189823
1.303577
1.2881873
1.2728112
1.2574469
1.2420935
1.2267502
1.211416
1.1960903
1.1807723
1.1654615
1.1501573
1.1348591
1.1195666
1.1042793
1.0889969
1.073719
1.0584452
1.0431753
1.027909
1.0126461
0.99738622
0.98212927
0.96687502
0.95162326
0.93637383
0.92112657
0.90588131
0.89063793
0.87539628
0.86015625
0.84491773
0.8296806
0.81444477
0.79921014
0.78397664
0.76874417
0.75351267
0.73828207
0.72305229
0.70782329
0.692595
0.67736737
0.66214036
0.64691391
0.63168799
0.61646256
0.60123758
0.58601301
0.57078883
0.55556501
0.54034151
0.52511831
0.5098954
0.49467274
0.47945032
0.46422812
0.44900613
0.43378431
0.41856267
0.40334118
0.38811984
0.37289863
0.35767754
0.34245657
0.32723569
0.31201491
0.29679421
0.28157359
0.26635304
0.25113255
0.23591212
0.22069175
0.20547143
0.19025115
0.17503091
0.1598107
0.14459053
0.12937039
0.11415028
0.098930188
0.083710119
0.06849007
0.053270037
0.03805002
0.022830013
0.0076100096
1.5214602
1.5047369
1.4893321
1.4742171
1.458839
1.4432003
1.427497
1.4118588
1.396305
1.3808044
1.3653287
1.3498682
1.3344239
1.3189983
1.303591
1.2881999
1.2728225
1.2574572
1.2421029
1.2267587
1.2114237
1.1960973
1.1807788
1.1654675
1.1501627
1.1348642
1.1195713
1.1042836
1.0890009
1.0737227
1.0584486
1.0431785
1.0279119
1.0126488
0.99738875
0.98213162
0.9668772
0.95162529
0.93637571
0.92112831
0.90588293
0.89063943
0.87539768
0.86015755
0.84491894
0.82968172
0.81444581
0.79921111
0.78397754
0.76874501
0.75351344
0.73828278
0.72305296
0.7078239
0.69259557
0.6773679
0.66214085
0.64691437
0.63168841
0.61646295
0.60123794
0.58601334
0.57078914
0.55556529
0.54034177
0.52511855
0.50989562
0.49467295
0.47945051
0.4642283
0.44900629
0.43378446
0.41856281
0.40334131
0.38811996
0.37289874
0.35767764
0.34245665
0.32723577
0.31201498
0.29679427
0.28157365
0.26635309
0.2511326
0.23591217
0.22069179
0.20547147
0.19025118
0.17503094
0.15981073
0.14459056
0.12937042
0.1141503
0.098930207
0.083710136
0.068490086
0.053270051
0.038050033
0.022830023
0.0076100184
1.5214601
1.5047369
1.4893321
1.4742171
1.458839
1.4432003
1.427497
1.4118587
1.396305
1.3808044
1.3653287
1.3498682
1.3344239
1.3189983
1.303591
1.2881999
1.2728225
1.2574572
1.2421029
1.2267587
1.2114237
1.1960973
1.1807788
1.1654675
1.1501627
1.1348642
1.1195713
1.1042836
1.0890009
1.0737227
1.0584486
1.0431785
1.0279119
1.0126488
0.99738875
0.98213162
0.9668772
0.95162529
0.93637571
0.92112831
0.90588293
0.89063943
0.87539768
0.86015755
0.84491894
0.82968172
0.81444581
0.79921111
0.78397754
0.76874501
0.75351344
0.73828278
0.72305296
0.7078239
0.69259557
0.6773679
0.66214085
0.64691437
0.63168841
0.61646295
0.60123794
0.58601334
0.57078914
0.55556529
0.54034177
0.52511855
0.50989562
0.49467295
0.47945051
0.4642283
0.44900629
0.43378446
0.41856281
0.40334131
0.38811996
0.37289874
0.35767764
0.34245665
0.32723577
0.31201498
0.29679427
0.28157365
0.26635309
0.2511326
0.23591217
0.22069179
0.20547147
0.19025118
0.17503094
0.15981073
0.14459056
0.12937042
0.1141503
0.098930207
0.083710136
0.068490086
0.053270052
0.038050034
0.022830024
0.0076100187
1.5217043
1.5050765
1.4895624
1.4742881
1.4588121
1.4431503
1.4274596
1.4118351
1.3962854
1.3807834
1.3653066
1.3498472
1.3344054
1.3189823
1.303577
1.2881873
1.2728112
1.2574469
1.2420936
1.2267502
1.211416
1.1960903
1.1807723
1.1654615
1.1501573
1.1348591
1.1195666
1.1042794
1.0889969
1.073719
1.0584452
1.0431753
1.027909
1.0126461
0.99738622
0.98212928
0.96687502
0.95162326
0.93637383
0.92112657
0.90588131
0.89063793
0.87539628
0.86015625
0.84491773
0.8296806
0.81444477
0.79921014
0.78397664
0.76874417
0.75351267
0.73828207
0.72305229
0.70782329
0.692595
0.67736737
0.66214036
0.64691391
0.63168799
0.61646256
0.60123758
0.58601301
0.57078883
0.555565
0.54034151
0.52511831
0.5098954
0.49467274
0.47945032
0.46422812
0.44900613
0.43378431
0.41856267
0.40334118
0.38811984
0.37289863
0.35767754
0.34245657
0.32723569
0.31201491
0.29679421
0.28157359
0.26635304
0.25113255
0.23591212
0.22069175
0.20547143
0.19025115
0.17503091
0.1598107
0.14459053
0.12937039
0.11415028
0.098930189
0.08371012
0.068490071
0.053270038
0.038050021
0.022830014
0.0076100101
1.5221083
1.5056173
1.4899057
1.474376
1.4587578
1.4430702
1.4274025
1.4117988
1.3962551
1.3807517
1.3652742
1.3498172
1.3343795
1.3189603
1.3035579
1.2881703
1.2727959
1.2574332
1.2420812
1.226739
1.2114059
1.1960811
1.1807639
1.1654538
1.1501502
1.1348526
1.1195606
1.1042738
1.0889918
1.0737142
1.0584408
1.0431712
1.0279052
1.0126426
0.99738299
0.98212627
0.96687223
0.95162068
0.93637143
0.92112434
0.90587924
0.89063601
0.8753945
0.8601546
0.84491619
0.82967918
0.81444345
0.79920892
0.7839755
0.76874312
0.7535117
0.73828116
0.72305146
0.70782251
0.69259428
0.67736671
0.66213974
0.64691335
0.63168747
0.61646208
0.60123713
0.5860126
0.57078845
0.55556465
0.54034118
0.52511802
0.50989513
0.49467249
0.47945009
0.46422791
0.44900593
0.43378413
0.41856251
0.40334103
0.3881197
0.37289851
0.35767743
0.34245646
0.32723559
0.31201482
0.29679413
0.28157351
0.26635297
0.25113249
0.23591207
0.2206917
0.20547138
0.19025111
0.17503087
0.15981067
0.1445905
0.12937037
0.11415025
0.098930167
0.0837101
0.068490053
0.053270022
0.038050005
0.022830003
0.0076100006
1.5225109
1.5061147
1.4901756
1.4744069
1.4586789
1.4429854
1.4273451
1.411761
1.396223
1.3807198
1.3652436
1.3497899
1.3343562
1.3189404
1.3035405
1.2881548
1.2727819
1.2574205
1.2420697
1.2267287
1.2113965
1.1960725
1.180756
1.1654466
1.1501435
1.1348465
1.119555
1.1042686
1.088987
1.0737098
1.0584367
1.0431674
1.0279017
1.0126393
0.99737997
0.98212348
0.96686965
0.95161828
0.93636921
0.92112228
0.90587734
0.89063424
0.87539286
0.86015309
0.84491479
0.82967788
0.81444225
0.79920781
0.78397447
0.76874217
0.75351082
0.73828035
0.7230507
0.70782182
0.69259364
0.67736612
0.6621392
0.64691284
0.63168701
0.61646165
0.60123674
0.58601224
0.57078812
0.55556435
0.54034091
0.52511776
0.50989489
0.49467228
0.4794499
0.46422773
0.44900577
0.43378398
0.41856237
0.40334091
0.38811959
0.3728984
0.35767733
0.34245637
0.32723552
0.31201475
0.29679406
0.28157346
0.26635292
0.25113244
0.23591203
0.22069167
0.20547135
0.19025108
0.17503085
0.15981065
0.14459048
0.12937035
0.11415024
0.098930152
0.083710087
0.068490041
0.053270011
0.038049995
0.022829994
0.0076099953
1.522731
1.5063555
1.4902514
1.4743486
1.4585795
1.4428988
1.42728
1.411709
1.3961773
1.3806784
1.3652067
1.3497579
1.3343284
1.318916
1.3035187
1.2881352
1.2727641
1.2574044
1.242055
1.2267152
1.2113841
1.1960611
1.1807455
1.1654369
1.1501346
1.1348382
1.1195473
1.1042615
1.0889804
1.0737037
1.0584311
1.0431622
1.0278969
1.0126348
0.99737581
0.98211963
0.96686607
0.95161497
0.93636614
0.92111944
0.9058747
0.8906318
0.87539061
0.86015099
0.84491286
0.82967609
0.81444059
0.79920628
0.78397306
0.76874086
0.75350961
0.73827924
0.72304968
0.70782087
0.69259277
0.67736532
0.66213846
0.64691216
0.63168638
0.61646108
0.60123621
0.58601175
0.57078767
0.55556394
0.54034053
0.52511742
0.50989458
0.49467199
0.47944964
0.46422749
0.44900555
0.43378379
0.41856219
0.40334075
0.38811944
0.37289827
0.35767721
0.34245626
0.32723542
0.31201466
0.29679398
0.28157338
0.26635285
0.25113239
0.23591198
0.22069162
0.20547131
0.19025104
0.17503081
0.15981062
0.14459046
0.12937033
0.11415022
0.098930135
0.083710072
0.068490027
0.053269999
0.038049985
0.022829984
0.0076099899
)
;

boundaryField
{
    top
    {
        type            zeroGradient;
    }
    inlet
    {
        type            fixedValue;
        value           uniform 1.53103;
    }
    outlet
    {
        type            fixedValue;
        value           uniform 0;
    }
    bottom
    {
        type            zeroGradient;
    }
    back
    {
        type            empty;
    }
    front
    {
        type            empty;
    }
}


// ************************************************************************* //
