/*--------------------------------*- C++ -*----------------------------------*\
| =========                 |                                                 |
| \\      /  F ield         | OpenFOAM: The Open Source CFD Toolbox           |
|  \\    /   O peration     | Version:  4.1                                   |
|   \\  /    A nd           | Web:      www.OpenFOAM.org                      |
|    \\/     M anipulation  |                                                 |
\*---------------------------------------------------------------------------*/
FoamFile
{
    version     2.0;
    format      ascii;
    class       surfaceScalarField;
    location    "16";
    object      phi;
}
// * * * * * * * * * * * * * * * * * * * * * * * * * * * * * * * * * * * * * //

dimensions      [0 3 -1 0 0 0 0];

internalField   nonuniform List<scalar> 
1890
(
0.0029647569
1.652849e-06
0.0029592316
5.5263148e-06
0.0029524534
6.7784897e-06
0.0029463844
6.0687256e-06
0.0029416017
4.7823446e-06
0.0029378719
3.7293395e-06
0.0029348213
3.0502518e-06
0.0029322101
2.6108179e-06
0.0029299322
2.2776471e-06
0.0029279397
1.9921673e-06
0.0029261936
1.7458092e-06
0.0029246519
1.5415227e-06
0.0029232755
1.3762496e-06
0.0029220341
1.2412189e-06
0.0029209066
1.1273357e-06
0.0029198781
1.028343e-06
0.0029189372
9.4082907e-07
0.0029180741
8.6293443e-07
0.0029172807
7.9331705e-07
0.0029165499
7.3077289e-07
0.0029158756
6.7424071e-07
0.0029152527
6.2286139e-07
0.0029146766
5.7597488e-07
0.0029141435
5.3306278e-07
0.0029136498
4.9369897e-07
0.0029131922
4.5751495e-07
0.002912768
4.2419195e-07
0.0029123745
3.9345065e-07
0.0029120095
3.65051e-07
0.0029116706
3.3878107e-07
0.0029113562
3.1445694e-07
0.0029110642
2.9191274e-07
0.0029107932
2.7100329e-07
0.0029105416
2.5159573e-07
0.002910308
2.3357353e-07
0.0029100912
2.1682857e-07
0.0029098899
2.0126591e-07
0.0029097031
1.8679623e-07
0.0029095298
1.7334106e-07
0.0029093689
1.6082559e-07
0.0029092198
1.4918424e-07
0.0029090814
1.3835369e-07
0.0029089531
1.2827865e-07
0.0029088342
1.1890499e-07
0.002908724
1.1018576e-07
0.0029086219
1.0207439e-07
0.0029085274
9.4530804e-08
0.0029084399
8.7514655e-08
0.0029083589
8.0991572e-08
0.002908284
7.4926495e-08
0.0029082147
6.9289875e-08
0.0029081507
6.4051088e-08
0.0029080915
5.9184671e-08
0.0029080368
5.4663836e-08
0.0029079863
5.0466638e-08
0.0029079398
4.6569546e-08
0.0029078968
4.2953629e-08
0.0029078572
3.9598218e-08
0.0029078208
3.6487008e-08
0.0029077872
3.3601768e-08
0.0029077562
3.092846e-08
0.0029077278
2.845102e-08
0.0029077016
2.6157395e-08
0.0029076776
2.4033374e-08
0.0029076555
2.206862e-08
0.0029076353
2.0250579e-08
0.0029076167
1.8570431e-08
0.0029075997
1.7017031e-08
0.0029075841
1.5582867e-08
0.0029075699
1.425807e-08
0.0029075568
1.3036287e-08
0.0029075449
1.1908724e-08
0.0029075341
1.0870026e-08
0.0029075242
9.9123817e-09
0.0029075151
9.0313275e-09
0.0029075069
8.2198702e-09
0.0029074994
7.4743094e-09
0.0029074926
6.7884054e-09
0.0029074865
6.1591478e-09
0.0029074809
5.5809116e-09
0.0029074759
5.0512825e-09
0.0029074713
4.5651959e-09
0.0029074672
4.1208052e-09
0.0029074635
3.7134565e-09
0.0029074601
3.3418457e-09
0.0029074571
3.0016187e-09
0.0029074544
2.692108e-09
0.002907452
2.4089647e-09
0.0029074499
2.1523698e-09
0.002907448
1.9175482e-09
0.0029074463
1.7060578e-09
0.0029074447
1.5117856e-09
0.0029074434
1.3386394e-09
0.0029074422
1.1774858e-09
0.0029074412
1.0359076e-09
0.0029074403
8.9973135e-10
0.0029074395
7.8208805e-10
0.0029074389
6.6304893e-10
0.0029074383
5.5577866e-10
4.7401566e-10
0.0074714624
1.8252711e-06
0.0074691766
7.8134259e-06
0.0074650734
1.088217e-05
0.0074603081
1.0833877e-05
0.0074556843
9.405708e-06
0.0074514111
8.002084e-06
0.0074474521
7.009008e-06
0.0074437632
6.2994281e-06
0.007440344
5.6965625e-06
0.0074372075
5.1284724e-06
0.0074343504
4.6027003e-06
0.0074317512
4.1404988e-06
0.0074293813
3.7459884e-06
0.0074272138
3.4085402e-06
0.0074252267
3.1143455e-06
0.0074234017
2.8532709e-06
0.0074217229
2.6194626e-06
0.0074201764
2.4093581e-06
0.0074187496
2.220069e-06
0.0074174314
2.04888e-06
0.0074162123
1.8933439e-06
0.0074150836
1.7514308e-06
0.0074140381
1.6215178e-06
0.0074130688
1.5022928e-06
0.0074121698
1.39265e-06
0.0074113356
1.2916355e-06
0.0074105614
1.1984144e-06
0.0074098426
1.1122611e-06
0.007409175
1.0325393e-06
0.0074085551
9.5869266e-07
0.0074079793
8.9022618e-07
0.0074074445
8.26701e-07
0.0074069478
7.6772121e-07
0.0074064864
7.1293317e-07
0.007406058
6.6201483e-07
0.0074056601
6.1467683e-07
0.0074052907
5.7065324e-07
0.0074049478
5.2970401e-07
0.0074046295
4.9160674e-07
0.0074043342
4.5615992e-07
0.0074040602
4.231755e-07
0.0074038061
3.9248286e-07
0.0074035704
3.6392174e-07
0.007403352
3.3734652e-07
0.0074031496
3.1261962e-07
0.007402962
2.8961612e-07
0.0074027883
2.6821738e-07
0.0074026275
2.4831568e-07
0.0074024787
2.2980818e-07
0.007402341
2.126018e-07
0.0074022137
1.9660721e-07
0.007402096
1.8174369e-07
0.0074019873
1.6793334e-07
0.0074018868
1.5510618e-07
0.0074017941
1.4319426e-07
0.0074017086
1.321367e-07
0.0074016296
1.2187409e-07
0.0074015569
1.1235356e-07
0.0074014898
1.0352319e-07
0.0074014281
9.533694e-08
0.0074013713
8.7749335e-08
0.007401319
8.0720424e-08
0.007401271
7.4210423e-08
0.0074012268
6.8184572e-08
0.0074011863
6.2607974e-08
0.0074011491
5.7450529e-08
0.007401115
5.2681707e-08
0.0074010837
4.8275357e-08
0.0074010551
4.4204678e-08
0.0074010289
4.04471e-08
0.007401005
3.6979185e-08
0.0074009831
3.3781363e-08
0.0074009631
3.0833042e-08
0.0074009449
2.8117414e-08
0.0074009284
2.5616473e-08
0.0074009133
2.33157e-08
0.0074008995
2.1199264e-08
0.0074008871
1.9254763e-08
0.0074008758
1.7468372e-08
0.0074008655
1.5829407e-08
0.0074008563
1.4325737e-08
0.0074008479
1.2948251e-08
0.0074008403
1.1686473e-08
0.0074008335
1.0532432e-08
0.0074008274
9.4771989e-09
0.0074008218
8.5136166e-09
0.0074008169
7.6346558e-09
0.0074008125
6.8330531e-09
0.0074008085
6.1043891e-09
0.007400805
5.4397991e-09
0.0074008019
4.8395751e-09
0.0074007991
4.289715e-09
0.0074007966
3.7996661e-09
0.0074007945
3.3425788e-09
0.0074007926
2.9479804e-09
0.0074007909
2.559703e-09
0.0074007894
2.253183e-09
0.0074007882
1.9042895e-09
0.0074007871
1.7010245e-09
1.3546697e-09
0.010688373
1.33536e-06
0.010689624
6.5633793e-06
0.010690648
9.8586951e-06
0.010691061
1.0420407e-05
0.010691027
9.4389049e-06
0.010690707
8.322282e-06
0.010690174
7.5420543e-06
0.010689471
7.0016738e-06
0.01068865
6.5172927e-06
0.010687763
6.0157884e-06
0.010686848
5.5171276e-06
0.010685931
5.0569752e-06
0.010685028
4.64946e-06
0.010684147
4.289114e-06
0.010683296
3.964876e-06
0.010682481
3.6688062e-06
0.010681703
3.3970668e-06
0.010680965
3.1477073e-06
0.010680266
2.9189415e-06
0.010679606
2.7087401e-06
0.010678984
2.5150914e-06
0.010678399
2.3362563e-06
0.01067785
2.170816e-06
0.010677334
2.0175876e-06
0.010676852
1.87554e-06
0.010676399
1.743745e-06
0.010675976
1.621366e-06
0.010675581
1.5076501e-06
0.010675212
1.4019236e-06
0.010674867
1.3035783e-06
0.010674545
1.2120647e-06
0.010674245
1.1268804e-06
0.010673965
1.0475684e-06
0.010673704
9.7370796e-07
0.010673461
9.0491496e-07
0.010673235
8.4083381e-07
0.010673024
7.8113912e-07
0.010672829
7.2552789e-07
0.010672647
6.7372222e-07
0.010672477
6.2546212e-07
0.01067232
5.8050896e-07
0.010672174
5.3863855e-07
0.010672038
4.9964496e-07
0.010671912
4.6333403e-07
0.010671795
4.2952751e-07
0.010671687
3.9805673e-07
0.010671586
3.6876691e-07
0.010671493
3.4151113e-07
0.010671407
3.1615483e-07
0.010671327
2.9256982e-07
0.010671253
2.7063888e-07
0.010671184
2.5025e-07
0.010671121
2.3130102e-07
0.010671062
2.1369404e-07
0.010671008
1.9733991e-07
0.010670958
1.8215294e-07
0.010670912
1.6805544e-07
0.010670869
1.549724e-07
0.01067083
1.4283604e-07
0.010670794
1.3158066e-07
0.01067076
1.2114722e-07
0.010670729
1.1147821e-07
0.010670701
1.0252217e-07
0.010670675
9.4228724e-08
0.010670651
8.655311e-08
0.010670629
7.9451243e-08
0.010670609
7.2884178e-08
0.01067059
6.6813295e-08
0.010670573
6.1204804e-08
0.010670558
5.6024933e-08
0.010670544
5.1244346e-08
0.010670531
4.6833456e-08
0.010670519
4.2766891e-08
0.010670508
3.9018802e-08
0.010670498
3.5567228e-08
0.010670489
3.2389532e-08
0.01067048
2.9466806e-08
0.010670473
2.6779266e-08
0.010670466
2.4310636e-08
0.01067046
2.2043551e-08
0.010670454
1.9964154e-08
0.010670449
1.8057155e-08
0.010670444
1.63109e-08
0.01067044
1.4711645e-08
0.010670436
1.3250081e-08
0.010670433
1.1913291e-08
0.01067043
1.0694854e-08
0.010670427
9.5811304e-09
0.010670425
8.5704141e-09
0.010670423
7.6451298e-09
0.010670421
6.8126965e-09
0.010670419
6.0441459e-09
0.010670417
5.3663867e-09
0.010670416
4.7224649e-09
0.010670415
4.1837753e-09
0.010670414
3.6289968e-09
0.010670413
3.2277286e-09
0.010670412
2.7179857e-09
0.010670411
2.479922e-09
1.9816291e-09
0.012748836
6.8224279e-07
0.012751798
3.6021044e-06
0.012756025
5.6311597e-06
0.012760301
6.1439847e-06
0.012764063
5.6761286e-06
0.012767314
5.0710451e-06
0.012770194
4.6618803e-06
0.012772798
4.3982385e-06
0.012775154
4.1603204e-06
0.012777274
3.8961921e-06
0.012779171
3.6195089e-06
0.012780871
3.3565309e-06
0.012782401
3.1192446e-06
0.012783785
2.905843e-06
0.012785039
2.7101958e-06
0.01278618
2.5280404e-06
0.012787219
2.3577854e-06
0.012788168
2.1989848e-06
0.012789035
2.0511467e-06
0.012789831
1.9134768e-06
0.012790561
1.7850825e-06
0.012791232
1.6651783e-06
0.012791849
1.5531254e-06
0.012792418
1.4483938e-06
0.012792943
1.3505026e-06
0.012793428
1.2590062e-06
0.012793876
1.1734813e-06
0.01279429
1.0935404e-06
0.012794673
1.0188197e-06
0.012795028
9.4898841e-07
0.012795356
8.837317e-07
0.01279566
8.2276209e-07
0.012795942
7.6580335e-07
0.012796203
7.1260397e-07
0.012796445
6.6292098e-07
0.012796669
6.1653435e-07
0.012796877
5.7323014e-07
0.01279707
5.3281544e-07
0.012797249
4.9510156e-07
0.012797414
4.5991946e-07
0.012797567
4.2710265e-07
0.01279771
3.9650292e-07
0.012797841
3.6797329e-07
0.012797963
3.4138402e-07
0.012798076
3.1660539e-07
0.012798181
2.9352379e-07
0.012798277
2.7202465e-07
0.012798367
2.5200872e-07
0.01279845
2.3337487e-07
0.012798526
2.1603635e-07
0.012798597
1.9990385e-07
0.012798662
1.8490174e-07
0.012798723
1.7095121e-07
0.012798778
1.5798631e-07
0.01279883
1.459374e-07
0.012798877
1.3474719e-07
0.012798921
1.243542e-07
0.012798961
1.1470864e-07
0.012798998
1.0575615e-07
0.012799032
9.7453634e-08
0.012799064
8.97531e-08
0.012799093
8.2617228e-08
0.012799119
7.6003541e-08
0.012799143
6.9879919e-08
0.012799166
6.4208808e-08
0.012799186
5.8962542e-08
0.012799205
5.410783e-08
0.012799222
4.9621031e-08
0.012799238
4.5472661e-08
0.012799252
4.1642536e-08
0.012799266
3.8104441e-08
0.012799278
3.4841246e-08
0.012799288
3.182974e-08
0.012799298
2.9055403e-08
0.012799308
2.6497569e-08
0.012799316
2.4144096e-08
0.012799323
2.1976621e-08
0.01279933
1.9984964e-08
0.012799336
1.8152744e-08
0.012799342
1.6471582e-08
0.012799347
1.4926936e-08
0.012799351
1.3511803e-08
0.012799355
1.2213346e-08
0.012799359
1.1025651e-08
0.012799362
9.9377799e-09
0.012799365
8.9440912e-09
0.012799368
8.0361483e-09
0.01279937
7.2072733e-09
0.012799373
6.4533767e-09
0.012799374
5.7634793e-09
0.012799376
5.1422009e-09
0.012799378
4.5671506e-09
0.012799379
4.0617524e-09
0.01279938
3.5771545e-09
0.012799381
3.177832e-09
0.012799382
2.7569394e-09
0.012799383
2.4649573e-09
0.012799383
2.0733509e-09
0.012799384
1.9069095e-09
1.53265e-09
0.013752627
3.3531243e-11
0.01375623
9.796905e-11
0.013761861
3.2036225e-11
0.013768004
-1.8161354e-11
0.01377368
-1.3282515e-12
0.01377875
7.5979239e-11
0.013783412
1.5294333e-10
0.01378781
1.9389758e-10
0.01379197
2.033041e-10
0.013795865
2.0612596e-10
0.013799484
2.1020896e-10
0.013802841
2.1431276e-10
0.01380596
2.1258806e-10
0.013808865
2.0517954e-10
0.013811575
1.9293089e-10
0.013814103
1.7800932e-10
0.01381646
1.6147109e-10
0.013818659
1.4362291e-10
0.01382071
1.2549975e-10
0.013822623
1.0687498e-10
0.013824408
8.9184458e-11
0.013826073
7.1656497e-11
0.013827626
5.5880836e-11
0.013829075
4.063302e-11
0.013830425
2.7489495e-11
0.013831684
1.4892609e-11
0.013832857
4.6927221e-12
0.013833951
-5.6068299e-12
0.01383497
-1.3588272e-11
0.013835919
-2.1331511e-11
0.013836802
-2.7001816e-11
0.013837625
-3.2782281e-11
0.013838391
-3.6519936e-11
0.013839104
-4.0725341e-11
0.013839767
-4.3058103e-11
0.013840383
-4.5974892e-11
0.013840957
-4.7084632e-11
0.013841489
-4.9061937e-11
0.013841985
-4.9369382e-11
0.013842444
-5.0560786e-11
0.013842872
-5.010502e-11
0.013843268
-5.0741011e-11
0.013843636
-4.9834913e-11
0.013843978
-4.9965785e-11
0.013844294
-4.855101e-11
0.013844588
-4.8321895e-11
0.01384486
-4.6637093e-11
0.013845112
-4.6044084e-11
0.013845345
-4.3980026e-11
0.013845561
-4.3129213e-11
0.013845761
-4.0891057e-11
0.013845946
-3.976171e-11
0.013846117
-3.7229013e-11
0.013846275
-3.5917985e-11
0.013846421
-3.3289197e-11
0.013846556
-3.1779357e-11
0.013846681
-2.8941937e-11
0.013846795
-2.7333616e-11
0.013846901
-2.4487969e-11
0.013846999
-2.2773484e-11
0.013847088
-1.9820473e-11
0.013847171
-1.8105155e-11
0.013847247
-1.5247935e-11
0.013847317
-1.3532779e-11
0.013847381
-1.0690021e-11
0.01384744
-9.0794034e-12
0.013847494
-6.4546475e-12
0.013847544
-4.9467114e-12
0.013847589
-2.507049e-12
0.013847631
-1.2043183e-12
0.013847669
1.0109762e-12
0.013847704
2.0410097e-12
0.013847736
4.0508504e-12
0.013847765
4.7501146e-12
0.013847791
6.4026113e-12
0.013847815
6.8217579e-12
0.013847837
8.2512232e-12
0.013847857
8.3535426e-12
0.013847875
9.430543e-12
0.013847892
9.2892634e-12
0.013847907
1.0177726e-11
0.01384792
9.766153e-12
0.013847933
1.0353296e-11
0.013847944
9.7465373e-12
0.013847953
1.0194531e-11
0.013847962
9.3483118e-12
0.01384797
9.5302268e-12
0.013847978
8.4873819e-12
0.013847984
8.5352078e-12
0.01384799
7.2008048e-12
0.013847995
6.8596439e-12
0.013848
4.9784117e-12
0.013848004
4.1408612e-12
0.013848007
1.8219081e-12
0.01384801
8.6818526e-13
0.013848013
-6.5649486e-13
0.013848016
-1.6152673e-12
0.013848018
-2.4717486e-12
0.01384802
-6.0171546e-12
-7.426995e-12
0.013752625
-6.8231441e-07
0.013756229
-3.6024979e-06
0.01376186
-5.6315354e-06
0.013768004
-6.1441582e-06
0.013773679
-5.6761065e-06
0.01377875
-5.0709278e-06
0.013783411
-4.6616873e-06
0.013787809
-4.3979855e-06
0.013791969
-4.1600232e-06
0.013795865
-3.8958603e-06
0.013799484
-3.619154e-06
0.01380284
-3.3561633e-06
0.013805959
-3.1188764e-06
0.013808865
-2.9054841e-06
0.013811575
-2.7098545e-06
0.013814103
-2.5277227e-06
0.01381646
-2.3574959e-06
0.013818659
-2.1987265e-06
0.01382071
-2.050921e-06
0.013822623
-1.9132843e-06
0.013824408
-1.7849224e-06
0.013826073
-1.6650497e-06
0.013827626
-1.5530258e-06
0.013829075
-1.4483217e-06
0.013830425
-1.3504549e-06
0.013831684
-1.2589812e-06
0.013832858
-1.1734756e-06
0.013833951
-1.0935527e-06
0.01383497
-1.018847e-06
0.013835919
-9.4902933e-07
0.013836803
-8.8378331e-07
0.013837625
-8.2282354e-07
0.013838391
-7.6587209e-07
0.013839104
-7.1267964e-07
0.013839767
-6.6300128e-07
0.013840383
-6.1661916e-07
0.013840957
-5.7331747e-07
0.013841489
-5.3290558e-07
0.013841985
-4.9519266e-07
0.013842445
-4.600119e-07
0.013842872
-4.271948e-07
0.013843268
-3.9659542e-07
0.013843636
-3.6806458e-07
0.013843978
-3.4147474e-07
0.013844294
-3.1669411e-07
0.013844588
-2.9361132e-07
0.01384486
-2.7210958e-07
0.013845112
-2.520918e-07
0.013845345
-2.334548e-07
0.013845561
-2.16114e-07
0.013845761
-1.9997791e-07
0.013845946
-1.8497303e-07
0.013846117
-1.7101848e-07
0.013846275
-1.5805052e-07
0.013846421
-1.4599732e-07
0.013846556
-1.3480369e-07
0.01384668
-1.2440615e-07
0.013846795
-1.1475704e-07
0.013846901
-1.0579987e-07
0.013846998
-9.7493618e-08
0.013847088
-8.9788324e-08
0.013847171
-8.264876e-08
0.013847247
-7.6030379e-08
0.013847317
-6.990308e-08
0.013847381
-6.4227401e-08
0.01384744
-5.8977708e-08
0.013847494
-5.4118711e-08
0.013847544
-4.962872e-08
0.013847589
-4.5476424e-08
0.013847631
-4.1643518e-08
0.013847669
-3.8101908e-08
0.013847704
-3.4836375e-08
0.013847736
-3.1821867e-08
0.013847765
-2.9045794e-08
0.013847791
-2.6485524e-08
0.013847815
-2.4130801e-08
0.013847837
-2.196141e-08
0.013847857
-1.9969095e-08
0.013847875
-1.8135497e-08
0.013847892
-1.6454102e-08
0.013847907
-1.4908521e-08
0.01384792
-1.3493657e-08
0.013847932
-1.2194703e-08
0.013847943
-1.1007608e-08
0.013847953
-9.9195944e-09
0.013847962
-8.9269431e-09
0.01384797
-8.0192422e-09
0.013847978
-7.1917319e-09
0.013847984
-6.4384409e-09
0.01384799
-5.7504439e-09
0.013847995
-5.1303764e-09
0.013847999
-4.5580442e-09
0.013848003
-4.0547923e-09
0.013848007
-3.5738198e-09
0.01384801
-3.1764504e-09
0.013848013
-2.7583615e-09
0.013848015
-2.4676804e-09
0.013848018
-2.0770672e-09
0.013848019
-1.9155669e-09
-1.5433268e-09
0.012748835
-1.3353411e-06
0.012751797
-6.5632703e-06
0.012756025
-9.8586403e-06
0.012760301
-1.0420452e-05
0.012764063
-9.4389608e-06
0.012767314
-8.3223048e-06
0.012770194
-7.5420111e-06
0.012772797
-7.001573e-06
0.012775154
-6.5171388e-06
0.012777273
-6.0155963e-06
0.012779171
-5.5169032e-06
0.012780871
-5.0567314e-06
0.012782401
-4.6492044e-06
0.012783785
-4.2888578e-06
0.012785039
-3.9646266e-06
0.01278618
-3.6685709e-06
0.012787219
-3.3968506e-06
0.012788168
-3.147513e-06
0.012789036
-2.9187719e-06
0.012789831
-2.7085949e-06
0.012790561
-2.514972e-06
0.012791232
-2.33616e-06
0.01279185
-2.1707435e-06
0.012792419
-2.0175349e-06
0.012792944
-1.8755078e-06
0.012793429
-1.7437285e-06
0.012793876
-1.6213662e-06
0.01279429
-1.507662e-06
0.012794674
-1.4019487e-06
0.012795028
-1.3036115e-06
0.012795356
-1.2121077e-06
0.01279566
-1.1269285e-06
0.012795942
-1.0476238e-06
0.012796203
-9.7376606e-07
0.012796445
-9.0497827e-07
0.01279667
-8.4089792e-07
0.012796877
-7.8120701e-07
0.01279707
-7.2559523e-07
0.012797249
-6.7379209e-07
0.012797414
-6.2553038e-07
0.012797568
-5.8057899e-07
0.01279771
-5.3870623e-07
0.012797841
-4.9971365e-07
0.012797963
-4.6339974e-07
0.012798076
-4.2959381e-07
0.012798181
-3.9811961e-07
0.012798277
-3.6882984e-07
0.012798367
-3.4157023e-07
0.01279845
-3.162137e-07
0.012798526
-2.9262458e-07
0.012798597
-2.70693e-07
0.012798662
-2.5029969e-07
0.012798722
-2.313499e-07
0.012798778
-2.1373831e-07
0.01279883
-1.9738306e-07
0.012798877
-1.821913e-07
0.012798921
-1.680926e-07
0.012798961
-1.5500469e-07
0.012798998
-1.4286694e-07
0.012799032
-1.3160664e-07
0.012799063
-1.2117186e-07
0.012799092
-1.11498e-07
0.012799119
-1.0254057e-07
0.012799143
-9.4242349e-08
0.012799165
-8.6565555e-08
0.012799186
-7.9459134e-08
0.012799205
-7.2890994e-08
0.012799222
-6.6815794e-08
0.012799238
-6.1206585e-08
0.012799252
-5.6022756e-08
0.012799265
-5.1241681e-08
0.012799277
-4.6827195e-08
0.012799288
-4.2760623e-08
0.012799298
-3.9009395e-08
0.012799307
-3.5558127e-08
0.012799315
-3.2377691e-08
0.012799323
-2.9455749e-08
0.01279933
-2.67659e-08
0.012799336
-2.4298331e-08
0.012799341
-2.2029274e-08
0.012799347
-1.9951341e-08
0.012799351
-1.8042719e-08
0.012799355
-1.6298126e-08
0.012799359
-1.4697501e-08
0.012799362
-1.3237944e-08
0.012799365
-1.1900074e-08
0.012799368
-1.0683828e-08
0.01279937
-9.5692558e-09
0.012799372
-8.5611261e-09
0.012799374
-7.6353572e-09
0.012799376
-6.8058625e-09
0.012799377
-6.0370827e-09
0.012799379
-5.3629312e-09
0.01279938
-4.7191272e-09
0.012799381
-4.1841712e-09
0.012799382
-3.6295942e-09
0.012799382
-3.2297613e-09
0.012799383
-2.7192013e-09
0.012799384
-2.4802387e-09
-1.9835099e-09
0.010688372
-1.8252332e-06
0.010689624
-7.8132176e-06
0.010690647
-1.0881928e-05
0.010691061
-1.0833792e-05
0.010691027
-9.4058231e-06
0.010690706
-8.0023046e-06
0.010690173
-7.0092172e-06
0.010689471
-6.2995647e-06
0.01068865
-5.6966157e-06
0.010687763
-5.1284604e-06
0.010686848
-4.6026425e-06
0.010685931
-4.140409e-06
0.010685028
-3.7458756e-06
0.010684147
-3.4084131e-06
0.010683297
-3.1142131e-06
0.010682481
-2.8531408e-06
0.010681703
-2.6193407e-06
0.010680965
-2.4092474e-06
0.010680266
-2.2199723e-06
0.010679606
-2.0487977e-06
0.010678984
-1.8932769e-06
0.0106784
-1.751378e-06
0.01067785
-1.6214791e-06
0.010677335
-1.5022664e-06
0.010676852
-1.3926355e-06
0.0106764
-1.2916304e-06
0.010675977
-1.1984185e-06
0.010675581
-1.1122722e-06
0.010675212
-1.0325573e-06
0.010674867
-9.5871533e-07
0.010674545
-8.9025357e-07
0.010674245
-8.2673128e-07
0.010673965
-7.6775471e-07
0.010673704
-7.1296808e-07
0.010673461
-6.6205168e-07
0.010673235
-6.1471416e-07
0.010673025
-5.7069177e-07
0.010672829
-5.2974221e-07
0.010672647
-4.9164544e-07
0.010672477
-4.5619787e-07
0.01067232
-4.2321363e-07
0.010672174
-3.9251979e-07
0.010672038
-3.6395843e-07
0.010671912
-3.3738184e-07
0.010671795
-3.1265456e-07
0.010671687
-2.896494e-07
0.010671586
-2.6824999e-07
0.010671493
-2.4834655e-07
0.010671406
-2.2983833e-07
0.010671326
-2.1262999e-07
0.010671252
-1.9663444e-07
0.010671184
-1.8176892e-07
0.01067112
-1.6795761e-07
0.010671062
-1.5512828e-07
0.010671008
-1.4321521e-07
0.010670958
-1.321555e-07
0.010670911
-1.2189178e-07
0.010670869
-1.1236899e-07
0.010670829
-1.0353738e-07
0.010670793
-9.5348958e-08
0.01067076
-8.7760228e-08
0.010670729
-8.0729101e-08
0.010670701
-7.4217922e-08
0.010670675
-6.8190016e-08
0.010670651
-6.2612431e-08
0.010670629
-5.7452972e-08
0.010670609
-5.2683194e-08
0.01067059
-4.8275071e-08
0.010670573
-4.4203707e-08
0.010670557
-4.0444473e-08
0.010670543
-3.6975965e-08
0.01067053
-3.3776785e-08
0.010670518
-3.0828197e-08
0.010670507
-2.8111373e-08
0.010670497
-2.5610297e-08
0.010670488
-2.3308636e-08
0.01067048
-2.1192376e-08
0.010670472
-1.9247121e-08
0.010670466
-1.7461003e-08
0.010670459
-1.5821545e-08
0.010670454
-1.4318407e-08
0.010670449
-1.2940512e-08
0.010670444
-1.1679317e-08
0.01067044
-1.0525081e-08
0.010670436
-9.4706568e-09
0.010670433
-8.5069378e-09
0.01067043
-7.6288414e-09
0.010670427
-6.8273216e-09
0.010670424
-6.0997914e-09
0.010670422
-5.4353767e-09
0.01067042
-4.8363641e-09
0.010670419
-4.2866771e-09
0.010670417
-3.797836e-09
0.010670416
-3.3406678e-09
0.010670414
-2.9477317e-09
0.010670413
-2.5603537e-09
0.010670412
-2.2536682e-09
0.010670412
-1.9035148e-09
0.010670411
-1.6953734e-09
-1.3496124e-09
0.0074714626
-1.6527371e-06
0.0074691767
-5.5261424e-06
0.0074650736
-6.7783603e-06
0.0074603084
-6.0687258e-06
0.0074556846
-4.7825316e-06
0.0074514114
-3.7296503e-06
0.0074474522
-3.0505806e-06
0.0074437633
-2.6110808e-06
0.0074403441
-2.2778276e-06
0.0074372075
-1.9922807e-06
0.0074343504
-1.745881e-06
0.0074317513
-1.5415658e-06
0.0074293814
-1.3762723e-06
0.007427214
-1.2412254e-06
0.0074252269
-1.1273317e-06
0.0074234019
-1.0283338e-06
0.0074217232
-9.408182e-07
0.0074201767
-8.6292495e-07
0.00741875
-7.9330931e-07
0.0074174318
-7.3076869e-07
0.0074162127
-6.7423892e-07
0.0074150841
-6.2286358e-07
0.0074140385
-5.7597918e-07
0.0074130692
-5.3307071e-07
0.0074121702
-4.9370809e-07
0.0074113361
-4.5752694e-07
0.0074105618
-4.2420427e-07
0.007409843
-3.934652e-07
0.0074091754
-3.6506508e-07
0.0074085555
-3.3879682e-07
0.0074079797
-3.1447166e-07
0.0074074448
-2.9192876e-07
0.0074069481
-2.7101782e-07
0.0074064867
-2.5161129e-07
0.0074060582
-2.335874e-07
0.0074056603
-2.1684337e-07
0.0074052909
-2.0127884e-07
0.007404948
-1.8680998e-07
0.0074046297
-1.7335292e-07
0.0074043343
-1.6083829e-07
0.0074040603
-1.4919498e-07
0.0074038061
-1.3836523e-07
0.0074035705
-1.2828827e-07
0.007403352
-1.1891546e-07
0.0074031495
-1.1019429e-07
0.007402962
-1.0208375e-07
0.0074027882
-9.4538268e-08
0.0074026274
-8.7522982e-08
0.0074024786
-8.099798e-08
0.0074023409
-7.4933733e-08
0.0074022136
-6.9295254e-08
0.0074020958
-6.4057325e-08
0.0074019871
-5.9189019e-08
0.0074018866
-5.4669006e-08
0.0074017939
-5.046998e-08
0.0074017083
-4.6573738e-08
0.0074016294
-4.2955971e-08
0.0074015566
-3.960138e-08
0.0074014896
-3.648839e-08
0.0074014278
-3.3604008e-08
0.007401371
-3.0928908e-08
0.0074013187
-2.8452311e-08
0.0074012707
-2.6156979e-08
0.0074012265
-2.4033855e-08
0.007401186
-2.20674e-08
0.0074011488
-2.025026e-08
0.0074011147
-1.8568512e-08
0.0074010834
-1.7016086e-08
0.0074010548
-1.5580345e-08
0.0074010286
-1.4256545e-08
0.0074010047
-1.3033298e-08
0.0074009828
-1.1906819e-08
0.0074009629
-1.0866692e-08
0.0074009447
-9.9101662e-09
0.0074009281
-9.0277996e-09
0.007400913
-8.2175473e-09
0.0074008993
-7.4706981e-09
0.0074008868
-6.7860241e-09
0.0074008755
-6.1555792e-09
0.0074008653
-5.5786452e-09
0.007400856
-5.0478342e-09
0.0074008476
-4.5630608e-09
0.0074008401
-4.1175725e-09
0.0074008333
-3.7115973e-09
0.0074008271
-3.3388838e-09
0.0074008216
-3.0000414e-09
0.0074008167
-2.6895143e-09
0.0074008123
-2.4078293e-09
0.0074008083
-2.1502457e-09
0.0074008048
-1.9168986e-09
0.0074008017
-1.7043889e-09
0.0074007989
-1.5113822e-09
0.0074007964
-1.3366579e-09
0.0074007943
-1.1766294e-09
0.0074007924
-1.0342598e-09
0.0074007907
-8.9878346e-10
0.0074007893
-7.808984e-10
0.007400788
-6.6190746e-10
0.0074007869
-5.5160918e-10
-4.6928129e-10
0.0029647577
0.002959232
0.0029524537
0.0029463848
0.002941602
0.002937872
0.0029348212
0.0029322099
0.0029299319
0.0029279394
0.0029261934
0.0029246517
0.0029232753
0.0029220339
0.0029209065
0.0029198781
0.0029189372
0.0029180742
0.0029172808
0.00291655
0.0029158757
0.0029152528
0.0029146768
0.0029141437
0.0029136499
0.0029131924
0.0029127682
0.0029123747
0.0029120096
0.0029116708
0.0029113563
0.0029110644
0.0029107933
0.0029105417
0.0029103081
0.0029100913
0.00290989
0.0029097032
0.0029095298
0.002909369
0.0029092198
0.0029090814
0.0029089531
0.0029088342
0.002908724
0.0029086219
0.0029085274
0.0029084399
0.0029083589
0.0029082839
0.0029082146
0.0029081506
0.0029080914
0.0029080367
0.0029079863
0.0029079397
0.0029078967
0.0029078571
0.0029078207
0.0029077871
0.0029077561
0.0029077277
0.0029077015
0.0029076775
0.0029076554
0.0029076352
0.0029076166
0.0029075996
0.002907584
0.0029075698
0.0029075567
0.0029075448
0.002907534
0.0029075241
0.002907515
0.0029075068
0.0029074993
0.0029074926
0.0029074864
0.0029074808
0.0029074758
0.0029074712
0.0029074671
0.0029074634
0.0029074601
0.0029074571
0.0029074544
0.002907452
0.0029074498
0.0029074479
0.0029074462
0.0029074447
0.0029074434
0.0029074422
0.0029074411
0.0029074403
0.0029074395
0.0029074388
0.0029074383
)
;

boundaryField
{
    top
    {
        type            calculated;
        value           uniform 0;
    }
    inlet
    {
        type            calculated;
        value           nonuniform List<scalar> 10(-0.0029664086 -0.0074716339 -0.010687882 -0.012748181 -0.013751944 -0.013751942 -0.012748181 -0.010687881 -0.007471634 -0.0029664099);
    }
    outlet
    {
        type            calculated;
        value           nonuniform List<scalar> 10(0.0029074378 0.0074007862 0.01067041 0.012799384 0.013848021 0.013848021 0.012799384 0.01067041 0.007400786 0.0029074378);
    }
    bottom
    {
        type            calculated;
        value           uniform 0;
    }
    back
    {
        type            empty;
        value           nonuniform 0();
    }
    front
    {
        type            empty;
        value           nonuniform 0();
    }
}


// ************************************************************************* //
