/*--------------------------------*- C++ -*----------------------------------*\
| =========                 |                                                 |
| \\      /  F ield         | OpenFOAM: The Open Source CFD Toolbox           |
|  \\    /   O peration     | Version:  4.1                                   |
|   \\  /    A nd           | Web:      www.OpenFOAM.org                      |
|    \\/     M anipulation  |                                                 |
\*---------------------------------------------------------------------------*/
FoamFile
{
    version     2.0;
    format      ascii;
    class       volVectorField;
    location    "16";
    object      U;
}
// * * * * * * * * * * * * * * * * * * * * * * * * * * * * * * * * * * * * * //

dimensions      [0 1 -1 0 0 0 0];

internalField   nonuniform List<vector> 
1000
(
(0.30712114 0.00014269671 0)
(0.30680209 0.00041640558 0)
(0.30610293 0.00045607312 0)
(0.30539579 0.00034784321 0)
(0.30482418 0.00022711051 0)
(0.30438663 0.00015119679 0)
(0.30403998 0.0001143486 0)
(0.30374934 9.5328162e-05 0)
(0.30349723 8.1329152e-05 0)
(0.30327666 6.9078863e-05 0)
(0.30308361 5.9030165e-05 0)
(0.30291396 5.153719e-05 0)
(0.30276341 4.6093327e-05 0)
(0.30262831 4.1893989e-05 0)
(0.30250599 3.8349863e-05 0)
(0.30239462 3.5191027e-05 0)
(0.30229285 3.2339497e-05 0)
(0.30219963 2.9772514e-05 0)
(0.30211401 2.746161e-05 0)
(0.30203522 2.5369039e-05 0)
(0.30196258 2.3460431e-05 0)
(0.30189552 2.1710949e-05 0)
(0.30183353 2.0103752e-05 0)
(0.30177618 1.8625764e-05 0)
(0.30172308 1.7265342e-05 0)
(0.30167389 1.6011446e-05 0)
(0.30162829 1.4854121e-05 0)
(0.301586 1.378444e-05 0)
(0.30154678 1.2794728e-05 0)
(0.30151037 1.1878074e-05 0)
(0.30147659 1.1028456e-05 0)
(0.30144523 1.0240308e-05 0)
(0.30141611 9.5087768e-06 0)
(0.30138908 8.829334e-06 0)
(0.30136399 8.1980513e-06 0)
(0.3013407 7.6112057e-06 0)
(0.30131907 7.0655795e-06 0)
(0.301299 6.5580715e-06 0)
(0.30128037 6.0860129e-06 0)
(0.30126309 5.6467851e-06 0)
(0.30124706 5.2381534e-06 0)
(0.30123219 4.8578891e-06 0)
(0.3012184 4.5041067e-06 0)
(0.30120561 4.1748887e-06 0)
(0.30119377 3.868634e-06 0)
(0.30118279 3.583686e-06 0)
(0.30117262 3.318679e-06 0)
(0.30116321 3.0721695e-06 0)
(0.30115449 2.8429887e-06 0)
(0.30114643 2.6298775e-06 0)
(0.30113897 2.4318337e-06 0)
(0.30113207 2.247751e-06 0)
(0.3011257 2.0767689e-06 0)
(0.30111981 1.9179165e-06 0)
(0.30111438 1.7704556e-06 0)
(0.30110936 1.6335275e-06 0)
(0.30110473 1.5064992e-06 0)
(0.30110046 1.3886139e-06 0)
(0.30109653 1.27933e-06 0)
(0.3010929 1.1779749e-06 0)
(0.30108957 1.0840861e-06 0)
(0.3010865 9.9706896e-07 0)
(0.30108367 9.165301e-07 0)
(0.30108108 8.4193884e-07 0)
(0.3010787 7.729616e-07 0)
(0.30107651 7.0912793e-07 0)
(0.3010745 6.5015698e-07 0)
(0.30107266 5.9562674e-07 0)
(0.30107098 5.4530198e-07 0)
(0.30106943 4.9880743e-07 0)
(0.30106802 4.5594829e-07 0)
(0.30106673 4.1638595e-07 0)
(0.30106556 3.7996027e-07 0)
(0.30106448 3.4636915e-07 0)
(0.3010635 3.1548335e-07 0)
(0.30106261 2.8702848e-07 0)
(0.3010618 2.609018e-07 0)
(0.30106106 2.3685736e-07 0)
(0.30106039 2.1481621e-07 0)
(0.30105979 1.9455303e-07 0)
(0.30105924 1.7600948e-07 0)
(0.30105874 1.5898191e-07 0)
(0.30105829 1.4343145e-07 0)
(0.30105789 1.2916794e-07 0)
(0.30105752 1.1617118e-07 0)
(0.3010572 1.0426343e-07 0)
(0.3010569 9.3446124e-08 0)
(0.30105664 8.3541018e-08 0)
(0.3010564 7.4577577e-08 0)
(0.30105619 6.6365981e-08 0)
(0.30105601 5.8977898e-08 0)
(0.30105584 5.2182816e-08 0)
(0.30105569 4.61123e-08 0)
(0.30105556 4.0459015e-08 0)
(0.30105545 3.5401555e-08 0)
(0.30105535 3.0573605e-08 0)
(0.30105526 2.6105391e-08 0)
(0.30105519 2.187287e-08 0)
(0.30105513 1.7069125e-08 0)
(0.30105506 1.5247902e-08 0)
(0.77355088 0.00016373945 0)
(0.77380423 0.0007173889 0)
(0.77336427 0.0010063866 0)
(0.77276003 0.00098514676 0)
(0.77222518 0.00082425048 0)
(0.77177202 0.00066536985 0)
(0.77135977 0.00055402043 0)
(0.77096793 0.00047914992 0)
(0.77059759 0.00042084839 0)
(0.7702553 0.00036954512 0)
(0.76994383 0.00032428455 0)
(0.76966154 0.00028618831 0)
(0.7694049 0.00025510926 0)
(0.76917052 0.00022964165 0)
(0.76895577 0.00020818668 0)
(0.76875867 0.00018960281 0)
(0.76857751 0.00017324411 0)
(0.76841078 0.00015874163 0)
(0.76825709 0.00014582337 0)
(0.76811518 0.00013424864 0)
(0.76798401 0.00012380851 0)
(0.76786262 0.00011433555 0)
(0.7677502 0.00010570146 0)
(0.76764602 9.7806313e-05 0)
(0.76754941 9.0568404e-05 0)
(0.76745979 8.3918122e-05 0)
(0.76737662 7.7795436e-05 0)
(0.76729941 7.2148438e-05 0)
(0.76722772 6.6932346e-05 0)
(0.76716114 6.2108134e-05 0)
(0.76709931 5.7641621e-05 0)
(0.76704187 5.3502441e-05 0)
(0.76698853 4.9663631e-05 0)
(0.76693898 4.6100968e-05 0)
(0.76689297 4.279279e-05 0)
(0.76685023 3.9719447e-05 0)
(0.76681056 3.6863248e-05 0)
(0.76677372 3.4208004e-05 0)
(0.76673953 3.1739059e-05 0)
(0.76670779 2.9442892e-05 0)
(0.76667835 2.7307212e-05 0)
(0.76665104 2.5320612e-05 0)
(0.76662571 2.3472691e-05 0)
(0.76660223 2.1753736e-05 0)
(0.76658046 2.0154874e-05 0)
(0.7665603 1.866778e-05 0)
(0.76654162 1.7284848e-05 0)
(0.76652432 1.59989e-05 0)
(0.76650831 1.4803376e-05 0)
(0.76649349 1.3692066e-05 0)
(0.76647979 1.2659304e-05 0)
(0.76646712 1.1699693e-05 0)
(0.76645541 1.0808319e-05 0)
(0.7664446 9.9804882e-06 0)
(0.76643461 9.2119363e-06 0)
(0.76642539 8.49857e-06 0)
(0.76641688 7.8366779e-06 0)
(0.76640904 7.2226906e-06 0)
(0.76640181 6.6533838e-06 0)
(0.76639516 6.1256362e-06 0)
(0.76638903 5.6366395e-06 0)
(0.76638339 5.1836688e-06 0)
(0.7663782 4.7642853e-06 0)
(0.76637343 4.3761034e-06 0)
(0.76636906 4.0169997e-06 0)
(0.76636504 3.6848913e-06 0)
(0.76636135 3.3779371e-06 0)
(0.76635797 3.094313e-06 0)
(0.76635488 2.8324176e-06 0)
(0.76635204 2.5906591e-06 0)
(0.76634945 2.3676527e-06 0)
(0.76634708 2.1620038e-06 0)
(0.76634492 1.9725108e-06 0)
(0.76634295 1.7979575e-06 0)
(0.76634115 1.6373091e-06 0)
(0.76633951 1.4894997e-06 0)
(0.76633802 1.3536338e-06 0)
(0.76633667 1.2287827e-06 0)
(0.76633544 1.11418e-06 0)
(0.76633433 1.0090103e-06 0)
(0.76633332 9.1261522e-07 0)
(0.76633241 8.2428211e-07 0)
(0.76633158 7.4345776e-07 0)
(0.76633084 6.6950725e-07 0)
(0.76633017 6.0197302e-07 0)
(0.76632957 5.4027826e-07 0)
(0.76632903 4.8407866e-07 0)
(0.76632854 4.3280722e-07 0)
(0.76632811 3.8626207e-07 0)
(0.76632772 3.4381332e-07 0)
(0.76632738 3.0549398e-07 0)
(0.76632708 2.7045273e-07 0)
(0.76632681 2.3913005e-07 0)
(0.76632657 2.1013999e-07 0)
(0.76632636 1.8471188e-07 0)
(0.76632617 1.6032883e-07 0)
(0.76632602 1.3989582e-07 0)
(0.76632586 1.1849666e-07 0)
(0.76632577 1.0290211e-07 0)
(0.76632561 8.3324896e-08 0)
(1.1064722 0.00013112146 0)
(1.1072458 0.00067281037 0)
(1.1072376 0.0010529529 0)
(1.1070533 0.0011476478 0)
(1.1069661 0.0010648863 0)
(1.1069612 0.00094081959 0)
(1.1069558 0.00084059479 0)
(1.10691 0.00076765532 0)
(1.1068293 0.00070612033 0)
(1.1067331 0.00064637411 0)
(1.1066347 0.00058811536 0)
(1.1065385 0.00053432756 0)
(1.1064444 0.00048674128 0)
(1.1063523 0.00044510025 0)
(1.1062625 0.00040827073 0)
(1.1061759 0.00037523069 0)
(1.1060931 0.00034535469 0)
(1.1060144 0.000318278 0)
(1.1059399 0.00029371587 0)
(1.1058696 0.00027138871 0)
(1.1058032 0.00025102766 0)
(1.1057407 0.00023239725 0)
(1.105682 0.0002153029 0)
(1.1056269 0.00019958439 0)
(1.1055752 0.00018510578 0)
(1.1055268 0.00017174861 0)
(1.1054815 0.00015940843 0)
(1.1054392 0.00014799328 0)
(1.1053996 0.0001374221 0)
(1.1053627 0.00012762334 0)
(1.1053282 0.00011853331 0)
(1.105296 0.00011009507 0)
(1.105266 0.00010225733 0)
(1.105238 9.4973853e-05 0)
(1.1052119 8.820271e-05 0)
(1.1051877 8.1905834e-05 0)
(1.1051651 7.6048472e-05 0)
(1.1051441 7.0598894e-05 0)
(1.1051245 6.5527957e-05 0)
(1.1051063 6.0808922e-05 0)
(1.1050894 5.6417112e-05 0)
(1.1050737 5.2329805e-05 0)
(1.1050592 4.852595e-05 0)
(1.1050456 4.49861e-05 0)
(1.1050331 4.169218e-05 0)
(1.1050214 3.8627462e-05 0)
(1.1050106 3.5776356e-05 0)
(1.1050006 3.3124408e-05 0)
(1.1049913 3.0658117e-05 0)
(1.1049827 2.8364957e-05 0)
(1.1049747 2.6233208e-05 0)
(1.1049673 2.4251986e-05 0)
(1.1049605 2.2411092e-05 0)
(1.1049542 2.0701057e-05 0)
(1.1049484 1.9112998e-05 0)
(1.104943 1.7638662e-05 0)
(1.104938 1.6270299e-05 0)
(1.1049334 1.5000716e-05 0)
(1.1049292 1.3823154e-05 0)
(1.1049253 1.2731338e-05 0)
(1.1049217 1.1719364e-05 0)
(1.1049184 1.0781761e-05 0)
(1.1049153 9.9133787e-06 0)
(1.1049125 9.1094451e-06 0)
(1.1049099 8.3654609e-06 0)
(1.1049075 7.6772692e-06 0)
(1.1049054 7.0409466e-06 0)
(1.1049034 6.4528698e-06 0)
(1.1049015 5.9096143e-06 0)
(1.1048998 5.408029e-06 0)
(1.1048983 4.9451307e-06 0)
(1.1048969 4.5181743e-06 0)
(1.1048956 4.1245591e-06 0)
(1.1048944 3.7619033e-06 0)
(1.1048933 3.4279452e-06 0)
(1.1048923 3.1206149e-06 0)
(1.1048914 2.837943e-06 0)
(1.1048906 2.5781362e-06 0)
(1.1048899 2.3394878e-06 0)
(1.1048892 2.1204396e-06 0)
(1.1048886 1.919514e-06 0)
(1.104888 1.7353566e-06 0)
(1.1048875 1.5667061e-06 0)
(1.1048871 1.4123652e-06 0)
(1.1048867 1.2712841e-06 0)
(1.1048863 1.1423645e-06 0)
(1.104886 1.0248134e-06 0)
(1.1048857 9.1751018e-07 0)
(1.1048854 8.2003968e-07 0)
(1.1048852 7.310172e-07 0)
(1.1048849 6.5073605e-07 0)
(1.1048848 5.7698691e-07 0)
(1.1048846 5.1154748e-07 0)
(1.1048844 4.5009093e-07 0)
(1.1048843 3.9779823e-07 0)
(1.1048842 3.4532183e-07 0)
(1.1048841 3.0566678e-07 0)
(1.104884 2.5791703e-07 0)
(1.1048839 2.328565e-07 0)
(1.1048838 1.8548885e-07 0)
(1.3197106 8.2312244e-05 0)
(1.3208144 0.00045790911 0)
(1.3210708 0.00075483479 0)
(1.3211549 0.0008607656 0)
(1.3213928 0.00082966359 0)
(1.3217624 0.00075596161 0)
(1.322143 0.00069300568 0)
(1.3224652 0.00064804821 0)
(1.3227258 0.00061021052 0)
(1.3229471 0.00057154493 0)
(1.3231466 0.00053140466 0)
(1.3233302 0.00049238619 0)
(1.3234979 0.00045644972 0)
(1.3236494 0.00042393032 0)
(1.3237859 0.00039428029 0)
(1.3239092 0.00036690639 0)
(1.3240214 0.00034147504 0)
(1.3241238 0.00031784038 0)
(1.3242176 0.00029590289 0)
(1.3243035 0.00027554411 0)
(1.3243822 0.00025663031 0)
(1.3244545 0.00023903482 0)
(1.3245211 0.0002226491 0)
(1.3245824 0.0002073815 0)
(1.3246389 0.00019315126 0)
(1.324691 0.00017988479 0)
(1.3247392 0.00016751384 0)
(1.3247837 0.00015597565 0)
(1.3248249 0.00014521238 0)
(1.324863 0.00013517113 0)
(1.3248983 0.0001258029 0)
(1.324931 0.00011706255 0)
(1.3249613 0.00010890796 0)
(1.3249893 0.00010130024 0)
(1.3250153 9.4202978e-05 0)
(1.3250394 8.7582557e-05 0)
(1.3250618 8.1407393e-05 0)
(1.3250825 7.5648319e-05 0)
(1.3251017 7.0277848e-05 0)
(1.3251194 6.5270611e-05 0)
(1.3251359 6.0602632e-05 0)
(1.3251512 5.6251798e-05 0)
(1.3251654 5.2197161e-05 0)
(1.3251785 4.8419424e-05 0)
(1.3251906 4.4900258e-05 0)
(1.3252018 4.162281e-05 0)
(1.3252122 3.8571026e-05 0)
(1.3252219 3.5730176e-05 0)
(1.3252308 3.3086192e-05 0)
(1.325239 3.0626199e-05 0)
(1.3252466 2.8337861e-05 0)
(1.3252536 2.6209921e-05 0)
(1.3252601 2.4231562e-05 0)
(1.3252661 2.2392944e-05 0)
(1.3252717 2.068458e-05 0)
(1.3252768 1.9097872e-05 0)
(1.3252815 1.7624499e-05 0)
(1.3252858 1.6256953e-05 0)
(1.3252898 1.4987934e-05 0)
(1.3252935 1.3810891e-05 0)
(1.3252969 1.2719424e-05 0)
(1.3253 1.1707821e-05 0)
(1.3253029 1.0770467e-05 0)
(1.3253055 9.9023888e-06 0)
(1.3253079 9.0986652e-06 0)
(1.3253101 8.3549673e-06 0)
(1.3253121 7.6669821e-06 0)
(1.325314 7.030948e-06 0)
(1.3253157 6.4430855e-06 0)
(1.3253173 5.9001316e-06 0)
(1.3253187 5.398777e-06 0)
(1.32532 4.9361923e-06 0)
(1.3253212 4.5094778e-06 0)
(1.3253222 4.1161879e-06 0)
(1.3253232 3.7537838e-06 0)
(1.3253241 3.4201543e-06 0)
(1.3253249 3.1130783e-06 0)
(1.3253257 2.8307359e-06 0)
(1.3253263 2.5711851e-06 0)
(1.3253269 2.3328578e-06 0)
(1.3253275 2.1140648e-06 0)
(1.325328 1.9134466e-06 0)
(1.3253284 1.7295519e-06 0)
(1.3253288 1.561176e-06 0)
(1.3253292 1.4071227e-06 0)
(1.3253295 1.2662507e-06 0)
(1.3253298 1.1376976e-06 0)
(1.3253301 1.0202025e-06 0)
(1.3253303 9.1346599e-07 0)
(1.3253305 8.1570281e-07 0)
(1.3253307 7.2773649e-07 0)
(1.3253309 6.4634915e-07 0)
(1.325331 5.7477101e-07 0)
(1.3253311 5.0637121e-07 0)
(1.3253312 4.4968024e-07 0)
(1.3253313 3.9051815e-07 0)
(1.3253314 3.4861131e-07 0)
(1.3253315 2.9400319e-07 0)
(1.3253316 2.6891439e-07 0)
(1.3253316 2.1409376e-07 0)
(1.4235909 2.786127e-05 0)
(1.4248552 0.00016047748 0)
(1.4252312 0.00027045422 0)
(1.4254326 0.00031421218 0)
(1.4258192 0.00030711061 0)
(1.4263722 0.00028260883 0)
(1.4269523 0.00026112904 0)
(1.4274732 0.00024618356 0)
(1.4279249 0.00023389831 0)
(1.4283304 0.00022112883 0)
(1.4287088 0.00020748233 0)
(1.4290666 0.00019392054 0)
(1.4294026 0.00018124391 0)
(1.4297158 0.00016964043 0)
(1.4300066 0.00015893844 0)
(1.4302771 0.00014893254 0)
(1.4305293 0.00013951314 0)
(1.4307646 0.00013064434 0)
(1.4309843 0.00012230905 0)
(1.4311893 0.00011448166 0)
(1.4313805 0.00010712839 0)
(1.4315589 0.00010021576 0)
(1.4317252 9.3715341e-05 0)
(1.4318804 8.760349e-05 0)
(1.4320251 8.185927e-05 0)
(1.43216 7.6463013e-05 0)
(1.4322858 7.1395804e-05 0)
(1.432403 6.6639594e-05 0)
(1.4325122 6.2177216e-05 0)
(1.4326139 5.7992406e-05 0)
(1.4327087 5.4069658e-05 0)
(1.4327969 5.039423e-05 0)
(1.4328791 4.6952003e-05 0)
(1.4329555 4.3729554e-05 0)
(1.4330266 4.0714051e-05 0)
(1.4330928 3.7893343e-05 0)
(1.4331543 3.525583e-05 0)
(1.4332115 3.2790552e-05 0)
(1.4332646 3.0487065e-05 0)
(1.433314 2.8335536e-05 0)
(1.4333599 2.6326603e-05 1.8730417e-33)
(1.4334025 2.445147e-05 0)
(1.433442 2.2701774e-05 0)
(1.4334787 2.1069686e-05 0)
(1.4335127 1.9547764e-05 0)
(1.4335442 1.812905e-05 0)
(1.4335735 1.6806936e-05 0)
(1.4336006 1.5575268e-05 0)
(1.4336257 1.4428194e-05 0)
(1.4336489 1.336027e-05 0)
(1.4336704 1.2366325e-05 0)
(1.4336903 1.1441564e-05 0)
(1.4337087 1.0581425e-05 0)
(1.4337257 9.7816823e-06 0)
(1.4337414 9.0383158e-06 0)
(1.4337559 8.3476168e-06 0)
(1.4337693 7.7060497e-06 0)
(1.4337817 7.1103543e-06 0)
(1.4337931 6.5574218e-06 0)
(1.4338036 6.0444002e-06 0)
(1.4338133 5.5685614e-06 0)
(1.4338222 5.1274036e-06 0)
(1.4338304 4.7185322e-06 0)
(1.4338379 4.339765e-06 0)
(1.4338449 3.9890051e-06 0)
(1.4338512 3.6643413e-06 0)
(1.4338571 3.3639361e-06 0)
(1.4338624 3.0861274e-06 0)
(1.4338673 2.8293097e-06 0)
(1.4338718 2.5920292e-06 0)
(1.433876 2.372877e-06 0)
(1.4338797 2.1705983e-06 0)
(1.4338832 1.9839652e-06 0)
(1.4338863 1.8118812e-06 0)
(1.4338892 1.6532716e-06 0)
(1.4338918 1.5071914e-06 0)
(1.4338942 1.372705e-06 0)
(1.4338964 1.2489885e-06 0)
(1.4338983 1.1352267e-06 0)
(1.4339001 1.0307094e-06 0)
(1.4339017 9.3473392e-07 0)
(1.4339032 8.4667288e-07 0)
(1.4339045 7.6592992e-07 0)
(1.4339057 6.91943e-07 0)
(1.4339068 6.2423818e-07 0)
(1.4339078 5.6225904e-07 0)
(1.4339087 5.057005e-07 0)
(1.4339094 4.5392103e-07 0)
(1.4339101 4.0691686e-07 0)
(1.4339108 3.6373125e-07 0)
(1.4339113 3.2496311e-07 0)
(1.4339118 2.8886352e-07 0)
(1.4339123 2.5730884e-07 2.9502746e-35)
(1.4339127 2.2678028e-07 0)
(1.433913 2.0185743e-07 0)
(1.4339133 1.7531428e-07 8.8508118e-36)
(1.4339136 1.5706296e-07 0)
(1.4339139 1.3247471e-07 0)
(1.433914 1.2155074e-07 0)
(1.4339143 9.6694915e-08 0)
(1.4235907 -2.78606e-05 0)
(1.4248551 -0.00016047587 0)
(1.4252312 -0.00027045774 0)
(1.4254326 -0.00031421829 0)
(1.4258192 -0.00030711048 0)
(1.4263721 -0.00028259476 0)
(1.4269522 -0.00026110163 0)
(1.4274732 -0.0002461475 0)
(1.4279249 -0.00023385842 0)
(1.4283304 -0.0002210871 0)
(1.4287088 -0.00020743956 0)
(1.4290665 -0.00019387717 0)
(1.4294026 -0.00018120094 0)
(1.4297158 -0.00016959888 0)
(1.4300066 -0.00015889922 0)
(1.4302771 -0.00014889626 0)
(1.4305293 -0.00013948016 0)
(1.4307646 -0.00013061495 0)
(1.4309843 -0.00012228332 0)
(1.4311893 -0.00011445967 0)
(1.4313805 -0.00010710999 0)
(1.4315589 -0.00010020089 0)
(1.4317253 -9.3703686e-05 0)
(1.4318804 -8.7594916e-05 0)
(1.4320251 -8.1853399e-05 0)
(1.43216 -7.6459706e-05 0)
(1.4322858 -7.1394663e-05 0)
(1.432403 -6.6640488e-05 0)
(1.4325122 -6.2179733e-05 0)
(1.432614 -5.7996462e-05 0)
(1.4327087 -5.4074897e-05 0)
(1.4327969 -5.0400611e-05 0)
(1.4328791 -4.6959196e-05 0)
(1.4329555 -4.3737566e-05 0)
(1.4330266 -4.0722588e-05 0)
(1.4330928 -3.7902439e-05 0)
(1.4331543 -3.5265215e-05 0)
(1.4332115 -3.2800299e-05 0)
(1.4332646 -3.049693e-05 0)
(1.433314 -2.8345606e-05 0)
(1.4333599 -2.6336646e-05 -1.8730417e-33)
(1.4334025 -2.4461599e-05 0)
(1.433442 -2.2711775e-05 0)
(1.4334787 -2.1079674e-05 0)
(1.4335127 -1.9557529e-05 0)
(1.4335442 -1.8138725e-05 0)
(1.4335735 -1.6816324e-05 0)
(1.4336006 -1.5584496e-05 0)
(1.4336257 -1.4437066e-05 0)
(1.4336489 -1.3368926e-05 0)
(1.4336704 -1.2374579e-05 0)
(1.4336903 -1.1449551e-05 0)
(1.4337087 -1.0588958e-05 0)
(1.4337257 -9.788908e-06 0)
(1.4337414 -9.0450579e-06 0)
(1.4337559 -8.3540155e-06 0)
(1.4337693 -7.7119296e-06 0)
(1.4337817 -7.1158674e-06 0)
(1.4337931 -6.562404e-06 0)
(1.4338036 -6.0489987e-06 0)
(1.4338133 -5.5726133e-06 0)
(1.4338222 -5.1310684e-06 0)
(1.4338304 -4.721659e-06 0)
(1.4338379 -4.3425096e-06 0)
(1.4338448 -3.9912183e-06 0)
(1.4338512 -3.6661919e-06 0)
(1.433857 -3.3652867e-06 0)
(1.4338624 -3.0871437e-06 0)
(1.4338673 -2.8298545e-06 0)
(1.4338718 -2.592281e-06 0)
(1.4338759 -2.3727173e-06 0)
(1.4338797 -2.170199e-06 0)
(1.4338832 -1.9832023e-06 0)
(1.4338863 -1.810935e-06 0)
(1.4338892 -1.6520273e-06 0)
(1.4338918 -1.5058211e-06 0)
(1.4338942 -1.3710898e-06 0)
(1.4338963 -1.2473068e-06 0)
(1.4338983 -1.1333633e-06 0)
(1.4339001 -1.0288322e-06 0)
(1.4339017 -9.3272085e-07 0)
(1.4339032 -8.446968e-07 0)
(1.4339045 -7.6387039e-07 0)
(1.4339057 -6.8996384e-07 0)
(1.4339068 -6.2221094e-07 0)
(1.4339078 -5.603566e-07 0)
(1.4339086 -5.0379496e-07 0)
(1.4339094 -4.5218352e-07 0)
(1.4339101 -4.052103e-07 0)
(1.4339108 -3.6224731e-07 0)
(1.4339113 -3.2357053e-07 0)
(1.4339118 -2.8779325e-07 0)
(1.4339123 -2.5643389e-07 -2.9502746e-35)
(1.4339127 -2.2633873e-07 0)
(1.433913 -2.0165075e-07 0)
(1.4339133 -1.7540525e-07 -8.8508118e-36)
(1.4339136 -1.573376e-07 0)
(1.4339139 -1.3283884e-07 0)
(1.433914 -1.2251435e-07 0)
(1.4339143 -9.8090303e-08 0)
(1.3197106 -8.2312668e-05 0)
(1.3208144 -0.00045792058 0)
(1.3210707 -0.00075485583 0)
(1.3211549 -0.00086078775 0)
(1.3213927 -0.00082967795 0)
(1.3217624 -0.00075596417 0)
(1.3221429 -0.00069299692 0)
(1.3224652 -0.00064803127 0)
(1.3227257 -0.00061018796 0)
(1.322947 -0.00057151844 0)
(1.3231465 -0.00053137518 0)
(1.3233302 -0.00049235476 0)
(1.3234979 -0.00045641746 0)
(1.3236494 -0.00042389836 0)
(1.3237859 -0.00039424955 0)
(1.3239092 -0.00036687754 0)
(1.3240214 -0.0003414486 0)
(1.3241239 -0.00031781664 0)
(1.3242176 -0.00029588209 0)
(1.3243035 -0.00027552628 0)
(1.3243822 -0.00025661547 0)
(1.3244546 -0.00023902282 0)
(1.3245211 -0.00022263985 0)
(1.3245824 -0.00020737472 0)
(1.3246389 -0.00019314682 0)
(1.3246911 -0.00017988238 0)
(1.3247393 -0.00016751331 0)
(1.3247838 -0.00015597668 0)
(1.324825 -0.00014521487 0)
(1.3248631 -0.0001351748 0)
(1.3248984 -0.00012580765 0)
(1.324931 -0.00011706811 0)
(1.3249613 -0.00010891429 0)
(1.3249894 -0.00010130711 0)
(1.3250154 -9.421037e-05 0)
(1.3250395 -8.7590254e-05 0)
(1.3250618 -8.1415421e-05 0)
(1.3250825 -7.5656487e-05 0)
(1.3251017 -7.0286203e-05 0)
(1.3251195 -6.5278972e-05 0)
(1.3251359 -6.0611066e-05 0)
(1.3251512 -5.6260146e-05 0)
(1.3251654 -5.2205496e-05 0)
(1.3251785 -4.8427591e-05 0)
(1.3251906 -4.4908343e-05 0)
(1.3252018 -4.163067e-05 0)
(1.3252122 -3.8578747e-05 0)
(1.3252219 -3.5737615e-05 0)
(1.3252308 -3.3093445e-05 0)
(1.325239 -3.0633132e-05 0)
(1.3252466 -2.8344566e-05 0)
(1.3252536 -2.6216263e-05 0)
(1.3252601 -2.4237641e-05 0)
(1.3252661 -2.2398635e-05 0)
(1.3252716 -2.0689981e-05 0)
(1.3252767 -1.9102856e-05 0)
(1.3252815 -1.762917e-05 0)
(1.3252858 -1.6261196e-05 0)
(1.3252898 -1.4991852e-05 0)
(1.3252935 -1.3814368e-05 0)
(1.3252969 -1.272257e-05 0)
(1.3253 -1.171053e-05 0)
(1.3253028 -1.0772851e-05 0)
(1.3253055 -9.9043399e-06 0)
(1.3253079 -9.1003028e-06 0)
(1.3253101 -8.3561973e-06 0)
(1.3253121 -7.6679225e-06 0)
(1.325314 -7.0315047e-06 0)
(1.3253157 -6.443387e-06 0)
(1.3253172 -5.9000941e-06 0)
(1.3253186 -5.3985214e-06 0)
(1.3253199 -4.9356337e-06 0)
(1.3253211 -4.5087477e-06 0)
(1.3253222 -4.115211e-06 0)
(1.3253232 -3.7526861e-06 0)
(1.3253241 -3.4188559e-06 0)
(1.3253249 -3.111708e-06 0)
(1.3253256 -2.8292189e-06 0)
(1.3253263 -2.569643e-06 0)
(1.3253269 -2.3312085e-06 0)
(1.3253275 -2.1124311e-06 0)
(1.3253279 -1.9117503e-06 0)
(1.3253284 -1.7279084e-06 0)
(1.3253288 -1.5594998e-06 0)
(1.3253292 -1.4055322e-06 0)
(1.3253295 -1.264665e-06 0)
(1.3253298 -1.1362309e-06 0)
(1.32533 -1.0187688e-06 0)
(1.3253303 -9.1218662e-07 0)
(1.3253305 -8.1450081e-07 0)
(1.3253307 -7.2674178e-07 0)
(1.3253308 -6.4549034e-07 0)
(1.325331 -5.7419353e-07 0)
(1.3253311 -5.0601157e-07 0)
(1.3253312 -4.4959592e-07 0)
(1.3253313 -3.9062554e-07 0)
(1.3253314 -3.488561e-07 0)
(1.3253315 -2.9428327e-07 0)
(1.3253315 -2.6941405e-07 0)
(1.3253316 -2.1476285e-07 0)
(1.1064721 -0.00013112066 0)
(1.1072458 -0.0006727991 0)
(1.1072375 -0.0010529377 0)
(1.1070533 -0.0011476392 0)
(1.106966 -0.0010648859 0)
(1.1069612 -0.00094082459 0)
(1.1069557 -0.00084059951 0)
(1.10691 -0.00076765617 0)
(1.1068292 -0.00070611564 0)
(1.1067331 -0.00064636451 0)
(1.1066347 -0.00058810185 0)
(1.1065385 -0.00053431139 0)
(1.1064445 -0.00048672337 0)
(1.1063523 -0.0004450815 0)
(1.1062625 -0.00040825194 0)
(1.1061759 -0.00037521256 0)
(1.1060931 -0.00034533782 0)
(1.1060145 -0.00031826272 0)
(1.10594 -0.00029370249 0)
(1.1058696 -0.00027137725 0)
(1.1058033 -0.00025101825 0)
(1.1057408 -0.00023238973 0)
(1.1056821 -0.00021529728 0)
(1.1056269 -0.00019958041 0)
(1.1055753 -0.00018510343 0)
(1.1055269 -0.00017174757 0)
(1.1054816 -0.00015940868 0)
(1.1054392 -0.0001479945 0)
(1.1053997 -0.00013742432 0)
(1.1053627 -0.00012762624 0)
(1.1053282 -0.00011853694 0)
(1.105296 -0.00011009911 0)
(1.105266 -0.00010226188 0)
(1.105238 -9.497863e-05 0)
(1.105212 -8.8207821e-05 0)
(1.1051877 -8.191102e-05 0)
(1.1051651 -7.6053878e-05 0)
(1.1051441 -7.0604271e-05 0)
(1.1051245 -6.5533456e-05 0)
(1.1051063 -6.0814311e-05 0)
(1.1050894 -5.6422566e-05 0)
(1.1050737 -5.2335096e-05 0)
(1.1050592 -4.8531249e-05 0)
(1.1050456 -4.499119e-05 0)
(1.1050331 -4.1697249e-05 0)
(1.1050214 -3.8632293e-05 0)
(1.1050106 -3.5781128e-05 0)
(1.1050006 -3.312891e-05 0)
(1.1049913 -3.0662542e-05 0)
(1.1049827 -2.8369094e-05 0)
(1.1049747 -2.6237239e-05 0)
(1.1049673 -2.4255707e-05 0)
(1.1049605 -2.2414696e-05 0)
(1.1049542 -2.0704341e-05 0)
(1.1049484 -1.9116143e-05 0)
(1.104943 -1.7641472e-05 0)
(1.104938 -1.6272968e-05 0)
(1.1049334 -1.5003049e-05 0)
(1.1049292 -1.3825333e-05 0)
(1.1049252 -1.2733176e-05 0)
(1.1049216 -1.1721055e-05 0)
(1.1049183 -1.078312e-05 0)
(1.1049153 -9.91459e-06 0)
(1.1049125 -9.1103302e-06 0)
(1.1049099 -8.3662175e-06 0)
(1.1049075 -7.6777203e-06 0)
(1.1049053 -7.0412803e-06 0)
(1.1049033 -6.4529168e-06 0)
(1.1049015 -5.9095745e-06 0)
(1.1048998 -5.4077319e-06 0)
(1.1048982 -4.944765e-06 0)
(1.1048968 -4.5175794e-06 0)
(1.1048955 -4.123936e-06 0)
(1.1048944 -3.7610892e-06 0)
(1.1048933 -3.4271283e-06 0)
(1.1048923 -3.1196363e-06 0)
(1.1048914 -2.8369994e-06 0)
(1.1048906 -2.5770653e-06 0)
(1.1048898 -2.3384728e-06 0)
(1.1048892 -2.1193206e-06 0)
(1.1048886 -1.9184819e-06 0)
(1.104888 -1.7342474e-06 0)
(1.1048875 -1.565698e-06 0)
(1.1048871 -1.4112963e-06 0)
(1.1048866 -1.2703428e-06 0)
(1.1048863 -1.1413847e-06 0)
(1.1048859 -1.023975e-06 0)
(1.1048856 -9.1664907e-07 0)
(1.1048854 -8.1935179e-07 0)
(1.1048851 -7.3033391e-07 0)
(1.1048849 -6.5025612e-07 0)
(1.1048847 -5.765247e-07 0)
(1.1048846 -5.1131932e-07 0)
(1.1048844 -4.4989359e-07 0)
(1.1048843 -3.9781792e-07 0)
(1.1048841 -3.4543906e-07 0)
(1.104884 -3.0583094e-07 0)
(1.1048839 -2.5807728e-07 0)
(1.1048839 -2.3277607e-07 0)
(1.1048838 -1.8529156e-07 0)
(0.77355089 -0.00016373332 0)
(0.77380425 -0.00071736763 0)
(0.77336429 -0.0010063623 0)
(0.77276005 -0.00098513496 0)
(0.77222521 -0.00082425965 0)
(0.77177205 -0.00066539605 0)
(0.7713598 -0.00055405289 0)
(0.77096795 -0.00047917853 0)
(0.7705976 -0.00042086878 0)
(0.7702553 -0.00036955749 0)
(0.76994384 -0.00032429105 0)
(0.76966155 -0.00028619071 0)
(0.76940491 -0.00025510874 0)
(0.76917053 -0.00022963903 0)
(0.76895579 -0.00020818276 0)
(0.76875869 -0.00018959834 0)
(0.76857754 -0.00017323964 0)
(0.76841082 -0.00015873758 0)
(0.76825712 -0.00014581991 0)
(0.76811522 -0.00013424594 0)
(0.76798405 -0.00012380655 0)
(0.76786266 -0.00011433437 0)
(0.76775024 -0.00010570094 0)
(0.76764606 -9.7806472e-05 0)
(0.76754946 -9.0569073e-05 0)
(0.76745984 -8.3919302e-05 0)
(0.76737667 -7.779695e-05 0)
(0.76729946 -7.2150317e-05 0)
(0.76722776 -6.6934422e-05 0)
(0.76716118 -6.2110444e-05 0)
(0.76709934 -5.7644e-05 0)
(0.76704191 -5.3504958e-05 0)
(0.76698856 -4.9666138e-05 0)
(0.76693901 -4.6103543e-05 0)
(0.76689299 -4.2795295e-05 0)
(0.76685026 -3.9721983e-05 0)
(0.76681058 -3.6865684e-05 0)
(0.76677374 -3.421044e-05 0)
(0.76673954 -3.1741369e-05 0)
(0.76670781 -2.9445193e-05 0)
(0.76667836 -2.7309381e-05 0)
(0.76665105 -2.5322757e-05 0)
(0.76662571 -2.3474691e-05 0)
(0.76660223 -2.1755712e-05 0)
(0.76658046 -2.0156708e-05 0)
(0.76656029 -1.8669581e-05 0)
(0.76654161 -1.7286498e-05 0)
(0.76652431 -1.6000518e-05 0)
(0.7665083 -1.4804847e-05 0)
(0.76649348 -1.3693498e-05 0)
(0.76647978 -1.266058e-05 0)
(0.7664671 -1.1700933e-05 0)
(0.76645539 -1.0809408e-05 0)
(0.76644458 -9.9815339e-06 0)
(0.76643458 -9.2128254e-06 0)
(0.76642537 -8.4994194e-06 0)
(0.76641686 -7.8373775e-06 0)
(0.76640902 -7.2233463e-06 0)
(0.76640179 -6.6538861e-06 0)
(0.76639513 -6.1261011e-06 0)
(0.766389 -5.636961e-06 0)
(0.76638336 -5.1839523e-06 0)
(0.76637817 -4.7644254e-06 0)
(0.7663734 -4.3762159e-06 0)
(0.76636902 -4.0169827e-06 0)
(0.766365 -3.6848502e-06 0)
(0.76636132 -3.3777706e-06 0)
(0.76635794 -3.0941364e-06 0)
(0.76635484 -2.8321328e-06 0)
(0.76635201 -2.5903712e-06 0)
(0.76634942 -2.3672641e-06 0)
(0.76634705 -2.1616296e-06 0)
(0.76634489 -1.9720556e-06 0)
(0.76634292 -1.7975254e-06 0)
(0.76634112 -1.6368038e-06 0)
(0.76633948 -1.4890338e-06 0)
(0.76633799 -1.3531124e-06 0)
(0.76633664 -1.2283071e-06 0)
(0.76633541 -1.1136539e-06 0)
(0.7663343 -1.0085432e-06 0)
(0.76633329 -9.1211211e-07 0)
(0.76633238 -8.2384121e-07 0)
(0.76633156 -7.4298324e-07 0)
(0.76633081 -6.6910574e-07 0)
(0.76633014 -6.015508e-07 0)
(0.76632954 -5.3993174e-07 0)
(0.766329 -4.8371496e-07 0)
(0.76632852 -4.3253152e-07 0)
(0.76632809 -3.8598706e-07 0)
(0.7663277 -3.4363412e-07 0)
(0.76632736 -3.0531793e-07 0)
(0.76632706 -2.703613e-07 0)
(0.76632678 -2.3901385e-07 0)
(0.76632655 -2.1005361e-07 0)
(0.76632634 -1.8465379e-07 0)
(0.76632615 -1.603219e-07 0)
(0.766326 -1.3985879e-07 0)
(0.76632584 -1.1843737e-07 0)
(0.76632576 -1.0241338e-07 0)
(0.76632559 -8.2693363e-08 0)
(0.30712126 -0.00014268842 0)
(0.30680216 -0.00041639173 0)
(0.30610296 -0.00045606427 0)
(0.30539582 -0.00034784631 0)
(0.30482421 -0.00022712783 0)
(0.30438665 -0.00015122243 0)
(0.30403999 -0.00011437428 0)
(0.30374933 -9.5347957e-05 0)
(0.30349721 -8.1342245e-05 0)
(0.30327662 -6.908696e-05 0)
(0.30308358 -5.9035489e-05 0)
(0.30291393 -5.1540867e-05 0)
(0.30276339 -4.6095903e-05 0)
(0.30262829 -4.1895706e-05 0)
(0.30250598 -3.8351022e-05 0)
(0.30239461 -3.5191918e-05 0)
(0.30229285 -3.2340288e-05 0)
(0.30219963 -2.9773348e-05 0)
(0.30211402 -2.7462467e-05 0)
(0.30203523 -2.5369997e-05 0)
(0.3019626 -2.3461402e-05 0)
(0.30189553 -2.1712014e-05 0)
(0.30183354 -2.0104801e-05 0)
(0.30177619 -1.8626888e-05 0)
(0.3017231 -1.7266403e-05 0)
(0.30167391 -1.601255e-05 0)
(0.30162831 -1.4855131e-05 0)
(0.30158602 -1.3785481e-05 0)
(0.30154679 -1.2795649e-05 0)
(0.30151039 -1.1879011e-05 0)
(0.3014766 -1.1029263e-05 0)
(0.30144524 -1.0241133e-05 0)
(0.30141613 -9.5094657e-06 0)
(0.3013891 -8.8300401e-06 0)
(0.301364 -8.1986255e-06 0)
(0.3013407 -7.6118083e-06 0)
(0.30131908 -7.0660507e-06 0)
(0.30129901 -6.5585721e-06 0)
(0.30128038 -6.0863908e-06 0)
(0.3012631 -5.6472046e-06 0)
(0.30124706 -5.2384523e-06 0)
(0.30123219 -4.8582299e-06 0)
(0.3012184 -4.5043354e-06 0)
(0.30120561 -4.1751697e-06 0)
(0.30119376 -3.8688044e-06 0)
(0.30118279 -3.583907e-06 0)
(0.30117262 -3.3187967e-06 0)
(0.3011632 -3.0723462e-06 0)
(0.30115449 -2.8430623e-06 0)
(0.30114642 -2.6300068e-06 0)
(0.30113896 -2.4318662e-06 0)
(0.30113207 -2.2478459e-06 0)
(0.30112569 -2.0767665e-06 0)
(0.30111981 -1.9179726e-06 0)
(0.30111437 -1.7704199e-06 0)
(0.30110935 -1.6335563e-06 0)
(0.30110472 -1.5064355e-06 0)
(0.30110045 -1.3886105e-06 0)
(0.30109652 -1.2792393e-06 0)
(0.30109289 -1.1779503e-06 0)
(0.30108956 -1.0839737e-06 0)
(0.30108649 -9.9701847e-07 0)
(0.30108366 -9.1639714e-07 0)
(0.30108107 -8.4187364e-07 0)
(0.30107869 -7.728135e-07 0)
(0.3010765 -7.090438e-07 0)
(0.30107449 -6.4999542e-07 0)
(0.30107265 -5.9553524e-07 0)
(0.30107097 -5.4513293e-07 0)
(0.30106942 -4.9870511e-07 0)
(0.30106801 -4.5577384e-07 0)
(0.30106672 -4.1628425e-07 0)
(0.30106555 -3.7978627e-07 0)
(0.30106447 -3.4626461e-07 0)
(0.30106349 -3.1531171e-07 0)
(0.3010626 -2.8693209e-07 0)
(0.30106179 -2.6073765e-07 0)
(0.30106105 -2.3676478e-07 0)
(0.30106039 -2.1466048e-07 0)
(0.30105978 -1.9447413e-07 0)
(0.30105923 -1.758663e-07 0)
(0.30105873 -1.5891159e-07 0)
(0.30105829 -1.4330108e-07 0)
(0.30105788 -1.2911553e-07 0)
(0.30105752 -1.1605761e-07 0)
(0.30105719 -1.0422441e-07 0)
(0.3010569 -9.3350735e-08 0)
(0.30105663 -8.3526347e-08 0)
(0.3010564 -7.4508034e-08 0)
(0.30105619 -6.6373986e-08 0)
(0.301056 -5.892573e-08 0)
(0.30105583 -5.2191554e-08 0)
(0.30105569 -4.6018031e-08 0)
(0.30105556 -4.0410367e-08 0)
(0.30105544 -3.5309992e-08 0)
(0.30105534 -3.0498991e-08 0)
(0.30105526 -2.6008179e-08 0)
(0.30105518 -2.1737074e-08 0)
(0.30105513 -1.6728377e-08 0)
(0.30105506 -1.4906626e-08 0)
)
;

boundaryField
{
    top
    {
        type            fixedValue;
        value           uniform (0 0 0);
    }
    inlet
    {
        type            pressureNormalInletOutletVelocity;
        phi             phi;
        rho             rho;