/*--------------------------------*- C++ -*----------------------------------*\
  =========                 |
  \\      /  F ield         | OpenFOAM: The Open Source CFD Toolbox
   \\    /   O peration     | Website:  https://openfoam.org
    \\  /    A nd           | Version:  6
     \\/     M anipulation  |
\*---------------------------------------------------------------------------*/
FoamFile
{
    version     2.0;
    format      ascii;
    class       volScalarField;
    location    "333";
    object      p;
}
// * * * * * * * * * * * * * * * * * * * * * * * * * * * * * * * * * * * * * //

dimensions      [0 2 -2 0 0 0 0];

internalField   nonuniform List<scalar> 
9200
(
-0.37794899
-0.36660251
-0.35650884
-0.34755955
-0.33881986
-0.33030362
-0.32208915
-0.3141439
-0.30640058
-0.29878726
-0.29123097
-0.28366268
-0.27602423
-0.26827563
-0.2604056
-0.25244946
-0.24448354
-0.23659565
-0.22981072
-0.22841077
-0.3958097
-0.38201204
-0.36997474
-0.35950566
-0.34939394
-0.33962103
-0.33025568
-0.32123463
-0.31245838
-0.30382858
-0.29525205
-0.28664659
-0.2779485
-0.2691186
-0.2601478
-0.25106106
-0.24188823
-0.23262903
-0.22396639
-0.21806623
-0.41408738
-0.39781571
-0.3838807
-0.37196227
-0.36053384
-0.34952624
-0.33898696
-0.32881426
-0.31887448
-0.30904675
-0.29922678
-0.2893325
-0.27931084
-0.26914085
-0.25883355
-0.24842761
-0.2379618
-0.22744508
-0.21727666
-0.20857162
-0.43234797
-0.41362141
-0.39785406
-0.38454789
-0.371823
-0.35954326
-0.34772701
-0.33623358
-0.32490303
-0.31360737
-0.30225194
-0.29077852
-0.27916843
-0.26744029
-0.25564342
-0.24384761
-0.23211942
-0.22049775
-0.20925
-0.19911731
-0.44996156
-0.42888313
-0.41140018
-0.39678334
-0.38277169
-0.36915133
-0.35591133
-0.34288271
-0.32989983
-0.31685463
-0.30369181
-0.2904052
-0.27703358
-0.26365078
-0.2503523
-0.23724103
-0.22440706
-0.2119089
-0.19993476
-0.18899205
-0.46610365
-0.44288188
-0.42385896
-0.4080209
-0.39271592
-0.37765245
-0.36280273
-0.34799511
-0.33309235
-0.31804271
-0.30286311
-0.28762414
-0.27243569
-0.25742892
-0.24273797
-0.22848487
-0.21476426
-0.20163204
-0.18921419
-0.1778475
-0.47976909
-0.45473132
-0.43440575
-0.41744656
-0.40082798
-0.38419657
-0.36753554
-0.35071131
-0.33365956
-0.31642422
-0.29912265
-0.28191598
-0.26498439
-0.24850352
-0.23262582
-0.21746916
-0.20310923
-0.18957716
-0.17693979
-0.16539833
-0.4897941
-0.46340133
-0.44208378
-0.42412703
-0.40618101
-0.38786435
-0.36921389
-0.35018632
-0.33083868
-0.31134552
-0.29194196
-0.2728793
-0.25439334
-0.23668094
-0.21988686
-0.20410092
-0.18936029
-0.17565683
-0.16299945
-0.1514754
-0.49483646
-0.46761663
-0.44560706
-0.42672652
-0.40739908
-0.38727748
-0.36651221
-0.34520748
-0.32358122
-0.30195418
-0.28067264
-0.26005546
-0.24036329
-0.22178288
-0.20442503
-0.18833285
-0.17349425
-0.15985759
-0.14737778
-0.13604455
-0.49354572
-0.46596036
-0.44342801
-0.42357973
-0.40276041
-0.38074055
-0.35784967
-0.33438534
-0.31074015
-0.28736421
-0.26467765
-0.24302147
-0.22263839
-0.20367207
-0.18617893
-0.17014679
-0.15551467
-0.14219311
-0.13009024
-0.11911097
-0.26506699
-0.26974127
-0.27224968
-0.27300083
-0.27278671
-0.2717942
-0.27010476
-0.26780592
-0.26496989
-0.26165141
-0.25789452
-0.25373672
-0.24921113
-0.24434783
-0.23917506
-0.23372173
-0.22801871
-0.22208653
-0.21592422
-0.2096173
-0.26779963
-0.27205866
-0.27426033
-0.2747928
-0.2743956
-0.27324688
-0.27142616
-0.2690173
-0.26608895
-0.26269298
-0.25887104
-0.25465852
-0.25008665
-0.24518349
-0.2399747
-0.23448816
-0.22876222
-0.22281575
-0.21654146
-0.20991341
-0.27312911
-0.27657608
-0.27817976
-0.2782845
-0.27752838
-0.2760741
-0.27399769
-0.27137574
-0.26826993
-0.26472654
-0.26078238
-0.25646864
-0.25181274
-0.24683893
-0.24156802
-0.23602502
-0.23025968
-0.22428977
-0.21781617
-0.21058113
-0.28081553
-0.28309998
-0.28383813
-0.28331415
-0.28202512
-0.28011418
-0.27765337
-0.27470942
-0.27133437
-0.26756666
-0.26343622
-0.25896814
-0.25418434
-0.24910333
-0.24373913
-0.23811158
-0.23228239
-0.22627392
-0.21954068
-0.21145513
-0.29055662
-0.29138735
-0.29102394
-0.2896827
-0.2876918
-0.28517358
-0.28219694
-0.27881728
-0.27507526
-0.27100004
-0.26661334
-0.26193196
-0.25697029
-0.25173992
-0.24624676
-0.24050227
-0.23457615
-0.22850396
-0.22148102
-0.21236501
-0.30203858
-0.30118599
-0.29951976
-0.29718921
-0.29433678
-0.29106539
-0.28744298
-0.28351393
-0.27930691
-0.27483944
-0.27012241
-0.26516337
-0.2599679
-0.25453918
-0.24887396
-0.24297241
-0.23690423
-0.23072439
-0.22339708
-0.21314383
-0.31498249
-0.31227087
-0.3091349
-0.30566402
-0.30180626
-0.29764831
-0.29326099
-0.28867732
-0.28391125
-0.27896781
-0.27384641
-0.26854334
-0.26305357
-0.25737073
-0.25148248
-0.24537719
-0.23911737
-0.23278061
-0.22516314
-0.21378128
-0.32917232
-0.32446695
-0.31972749
-0.31499324
-0.3100136
-0.30486196
-0.2996124
-0.29428571
-0.28888109
-0.28338916
-0.27779498
-0.27208055
-0.26622724
-0.26021659
-0.25402661
-0.24763674
-0.24110673
-0.23456014
-0.22674445
-0.21446557
-0.34445503
-0.33764183
-0.33118712
-0.3250902
-0.31889443
-0.31265864
-0.30646201
-0.30031262
-0.29419206
-0.28807332
-0.28192354
-0.27570629
-0.26938382
-0.26291737
-0.25626252
-0.24937139
-0.24226828
-0.23505939
-0.22648738
-0.21304988
-0.36073172
-0.35168778
-0.34340161
-0.33583742
-0.32831917
-0.32089084
-0.31363668
-0.30654976
-0.29959153
-0.29271573
-0.28587122
-0.27900483
-0.27206424
-0.264998
-0.25775029
-0.25025668
-0.24246005
-0.23415377
-0.223687
-0.20801828
-0.20246659
-0.1935183
-0.18456505
-0.17567086
-0.166782
-0.15794017
-0.14919887
-0.14059316
-0.13215233
-0.12390497
-0.11587689
-0.10809028
-0.10056426
-0.093315208
-0.086356701
-0.079699625
-0.073352273
-0.067320448
-0.061607562
-0.056214745
-0.05114097
-0.04638319
-0.041936491
-0.037794255
-0.033948342
-0.03038927
-0.027106412
-0.024088191
-0.021322274
-0.018795764
-0.016495385
-0.014407656
-0.012519061
-0.010816198
-0.0092859261
-0.0079154932
-0.006692666
-0.0056058302
-0.0046441687
-0.0037975852
-0.0030575236
-0.0024149801
-0.0018676844
-0.0013989944
-0.0010444926
-0.00069461472
-0.00068792268
-8.0126724e-05
-0.0017060536
0.0024523269
-0.20347662
-0.19413108
-0.18506879
-0.17618893
-0.16728205
-0.15841003
-0.14964431
-0.14101633
-0.13255293
-0.12428325
-0.11623337
-0.10842537
-0.10087837
-0.093608796
-0.086630305
-0.079953843
-0.073587767
-0.067537939
-0.061807823
-0.056398592
-0.051309249
-0.04653677
-0.042076251
-0.037921079
-0.034063105
-0.030492833
-0.027199617
-0.024171851
-0.021397172
-0.018862648
-0.016554963
-0.014460598
-0.012565993
-0.010857704
-0.0093225474
-0.007947728
-0.0067209702
-0.0056306182
-0.0046658146
-0.0038164234
-0.0030738485
-0.0024290499
-0.0018797002
-0.0014091653
-0.0010527484
-0.00070153572
-0.00069132516
-8.5942721e-05
-0.0016914954
0.0024237396
-0.20559531
-0.19539913
-0.18611941
-0.17730824
-0.16837776
-0.15944506
-0.15063172
-0.14195973
-0.1334493
-0.12513171
-0.11703429
-0.10917899
-0.10158504
-0.094269206
-0.087245432
-0.08052488
-0.074116115
-0.068025186
-0.062255711
-0.056808983
-0.051684096
-0.046878088
-0.042386089
-0.038201494
-0.034316141
-0.030720502
-0.027403879
-0.024354604
-0.021560235
-0.019007756
-0.016683757
-0.014574622
-0.01266669
-0.010946415
-0.0094005088
-0.0080160749
-0.0067807379
-0.0056827445
-0.0047111429
-0.0038557051
-0.0031077448
-0.0024581369
-0.001904436
-0.0014300019
-0.0010696101
-0.00071554769
-0.00069831526
-9.743246e-05
-0.0016629187
0.0023671788
-0.20866392
-0.19709105
-0.18749036
-0.17887815
-0.16995828
-0.16094889
-0.15208141
-0.14336048
-0.13479101
-0.1264094
-0.11824666
-0.1103248
-0.10266334
-0.095279905
-0.088189129
-0.081402702
-0.074929648
-0.068776424
-0.062946981
-0.057442879
-0.052263418
-0.047405783
-0.0428652
-0.038635113
-0.034707367
-0.031072407
-0.027719473
-0.024636812
-0.021811874
-0.019231517
-0.016882195
-0.01475014
-0.012821538
-0.011082684
-0.0095201292
-0.0081208193
-0.0068722221
-0.0057624318
-0.0047803485
-0.0039156003
-0.00315936
-0.0025023687
-0.0019420012
-0.0014615982
-0.0010951581
-0.00073671366
-0.00070899193
-0.000114548
-0.0016210712
0.002283869
-0.2124558
-0.19893631
-0.18891242
-0.18070098
-0.17187709
-0.16279368
-0.15388315
-0.1451296
-0.13650653
-0.12805755
-0.11982218
-0.11182356
-0.10408164
-0.096615479
-0.089441122
-0.082571282
-0.076015829
-0.069781959
-0.063874244
-0.058294744
-0.053043153
-0.048116953
-0.043511584
-0.039220626
-0.035235994
-0.03154814
-0.028146266
-0.025018534
-0.022152274
-0.019534195
-0.01715058
-0.014987472
-0.013030856
-0.011266817
-0.0096816968
-0.0082622264
-0.0069956638
-0.0058698969
-0.0048736254
-0.003996282
-0.0032288474
-0.0025618809
-0.0019925155
-0.0015040592
-0.001129488
-0.00076510549
-0.00072350111
-0.0001371884
-0.0015670967
0.0021756954
-0.21662367
-0.20065443
-0.19011645
-0.18254356
-0.17396188
-0.16483607
-0.15590485
-0.1471531
-0.13850315
-0.13000018
-0.12169753
-0.11362282
-0.10579699
-0.098240986
-0.090973077
-0.084007771
-0.077356353
-0.071027223
-0.06502598
-0.059355531
-0.054016246
-0.049006138
-0.044321048
-0.039954839
-0.035899605
-0.032145892
-0.028682912
-0.025498777
-0.02258071
-0.019915265
-0.017488537
-0.015286352
-0.013294458
-0.011498691
-0.0098851306
-0.0084402479
-0.0071510394
-0.0060051353
-0.0049909837
-0.0040977712
-0.003316237
-0.0026367105
-0.0020560207
-0.0015574309
-0.0011726541
-0.00080076586
-0.00074199762
-0.00016521229
-0.0015024429
0.0020451121
-0.22077
-0.20206384
-0.19089073
-0.18412819
-0.17601214
-0.1669491
-0.15803145
-0.14931879
-0.140685
-0.13215943
-0.12380784
-0.11566769
-0.10776328
-0.1001179
-0.09275278
-0.085685172
-0.078928574
-0.072493206
-0.066386212
-0.060611789
-0.055171357
-0.050063764
-0.045285495
-0.040830893
-0.036692385
-0.032860722
-0.029325215
-0.026073974
-0.023094147
-0.020372148
-0.017893877
-0.015644928
-0.013610782
-0.011776989
-0.010129331
-0.0086539705
-0.0073375967
-0.0061675338
-0.0051319304
-0.0042196788
-0.0034212283
-0.0027266331
-0.0021323572
-0.0016216098
-0.0012246058
-0.00084367372
-0.00076461831
-0.00019846884
-0.0014287594
0.0018950083
-0.22463393
-0.20356017
-0.1914596
-0.18526746
-0.17781363
-0.16904538
-0.16021933
-0.15157046
-0.14299013
-0.13447969
-0.12610392
-0.11791296
-0.10993885
-0.1022084
-0.094746195
-0.087573002
-0.080705328
-0.07415583
-0.067933704
-0.062044872
-0.056492178
-0.051275614
-0.046392571
-0.041838083
-0.037605081
-0.033684653
-0.030066306
-0.026738227
-0.023687534
-0.020900527
-0.018362922
-0.016060074
-0.013977183
-0.012099487
-0.010412437
-0.0089018507
-0.0075540683
-0.0063560655
-0.005295647
-0.0043613665
-0.0035433385
-0.0028312993
-0.0022212881
-0.0016964559
-0.0012852887
-0.00089383141
-0.00079155236
-0.00023686626
-0.001347846
0.0017286739
-0.22587325
-0.20538808
-0.1925186
-0.18589765
-0.17893124
-0.17074461
-0.16219501
-0.15367526
-0.14520194
-0.13676854
-0.12842269
-0.12022225
-0.11221037
-0.10441971
-0.096878785
-0.089612486
-0.082641177
-0.075980792
-0.069643305
-0.063637029
-0.057966833
-0.052634394
-0.04763847
-0.042975188
-0.03863832
-0.034619573
-0.030908879
-0.027494676
-0.024364194
-0.021503718
-0.018898849
-0.016534744
-0.014396345
-0.012468578
-0.010736549
-0.0091857079
-0.0078020142
-0.0065720564
-0.0054832533
-0.0045237744
-0.0036833524
-0.0029513595
-0.0023233486
-0.0017823981
-0.0013550591
-0.00095146184
-0.00082318707
-0.0002801134
-0.0012618607
0.0015503779
-0.21601263
-0.20463417
-0.19363633
-0.18554896
-0.17849319
-0.1710808
-0.16313744
-0.15498358
-0.14679815
-0.1386072
-0.13043846
-0.1223494
-0.11439552
-0.10661976
-0.099057934
-0.091741613
-0.084697455
-0.077946929
-0.071506732
-0.065389218
-0.059602687
-0.054151685
-0.049037334
-0.044257667
-0.039807967
-0.035681101
-0.031867854
-0.028357253
-0.025136891
-0.02219323
-0.01951189
-0.017077918
-0.014876045
-0.012890911
-0.011107275
-0.0095102021
-0.0080852379
-0.006818544
-0.0056971069
-0.0047086613
-0.0038425059
-0.0030875939
-0.0024389346
-0.0018794879
-0.0014337473
-0.0010160404
-0.00085933243
-0.00032655244
-0.0011733638
0.0013656227
-0.19387467
-0.19858177
-0.19330862
-0.1844044
-0.17690188
-0.16989419
-0.16239409
-0.15453707
-0.146589
-0.13861308
-0.13062886
-0.12268925
-0.11485353
-0.10716903
-0.099674764
-0.092405212
-0.085390014
-0.078653428
-0.072214671
-0.066088359
-0.060284818
-0.054810384
-0.049667742
-0.044856282
-0.040372446
-0.03621008
-0.032360785
-0.028814261
-0.025558635
-0.02258079
-0.019866662
-0.017401526
-0.015170263
-0.013157597
-0.011348316
-0.0097274683
-0.0082805473
-0.0069936295
-0.0058535894
-0.0048480343
-0.0039660846
-0.0031965787
-0.0025340632
-0.0019619347
-0.0015019268
-0.0010746793
-0.00089045847
-0.00037295278
-0.0010829358
0.0011823117
-0.18332588
-0.18914682
-0.18567394
-0.17693533
-0.1697326
-0.16347665
-0.15677702
-0.14963388
-0.14234317
-0.13497992
-0.12755389
-0.12011363
-0.11272087
-0.10542666
-0.098273556
-0.091299875
-0.084539292
-0.078020071
-0.071765268
-0.065793138
-0.060117421
-0.054747629
-0.049689374
-0.044944726
-0.040512566
-0.036388947
-0.03256745
-0.029039545
-0.02579493
-0.022821867
-0.020107498
-0.017638144
-0.01539958
-0.013377292
-0.011556705
-0.0099233969
-0.0084632872
-0.0071627948
-0.0060090501
-0.0049898622
-0.0040944233
-0.003311753
-0.0026359558
-0.0020514449
-0.0015762406
-0.0011399546
-0.00092403515
-0.00042746529
-0.00098207138
0.00098467647
-0.17458775
-0.17780924
-0.17553228
-0.16851173
-0.16215941
-0.15659737
-0.15066451
-0.14425142
-0.13762474
-0.13087959
-0.12402785
-0.11711191
-0.11019227
-0.1033218
-0.096545197
-0.089903134
-0.083432203
-0.077163887
-0.071124533
-0.065335679
-0.059814287
-0.054572971
-0.04962029
-0.044961081
-0.040596797
-0.036525862
-0.032744027
-0.029244722
-0.02601941
-0.023057926
-0.0203488
-0.017879569
-0.015637064
-0.013607673
-0.01177759
-0.010133034
-0.0086604543
-0.0073466973
-0.0061792204
-0.0051460965
-0.00423663
-0.0034400718
-0.002750057
-0.0021521464
-0.0016602755
-0.0012139386
-0.0009630538
-0.00048885906
-0.00087372074
0.00076820388
-0.16490964
-0.16552245
-0.16369111
-0.15874663
-0.15362424
-0.14880483
-0.14366309
-0.13806171
-0.13217807
-0.12611301
-0.11989419
-0.11356205
-0.10717372
-0.10078273
-0.094435599
-0.088175001
-0.082040021
-0.076065106
-0.070279798
-0.064708917
-0.059372724
-0.054287091
-0.049463724
-0.044910465
-0.040631598
-0.036628189
-0.032898422
-0.029437956
-0.026240274
-0.023297022
-0.020598344
-0.018133198
-0.015889654
-0.013855175
-0.012016869
-0.010361728
-0.008876841
-0.0075495782
-0.006367804
-0.0053199192
-0.0043953908
-0.0035837359
-0.0028781419
-0.0022653195
-0.0017550988
-0.0012968349
-0.0010087536
-0.00055461206
-0.00076544252
0.0005429536
-0.15434051
-0.15307346
-0.15126415
-0.14803455
-0.14420538
-0.14019082
-0.1358461
-0.13108868
-0.126002
-0.12066912
-0.11513319
-0.10943721
-0.10363418
-0.097776478
-0.091911559
-0.086083364
-0.08033272
-0.07469647
-0.069206988
-0.063892162
-0.05877547
-0.053876053
-0.049208876
-0.044784954
-0.040611621
-0.036692828
-0.033029462
-0.029619684
-0.026459263
-0.023541923
-0.02085967
-0.018403117
-0.016161791
-0.014124422
-0.012279209
-0.010614071
-0.0091168721
-0.0077756205
-0.0065786856
-0.0055148743
-0.0045738824
-0.0037455299
-0.0030226105
-0.0023929283
-0.0018623848
-0.0013896783
-0.0010626341
-0.00062409497
-0.00066327467
0.00031703015
-0.14255409
-0.14049519
-0.13880042
-0.13684512
-0.13418679
-0.13100822
-0.12745062
-0.12351783
-0.11923196
-0.11464883
-0.10981937
-0.10478826
-0.099603922
-0.094316389
-0.088972936
-0.083617736
-0.078292252
-0.073034735
-0.067879625
-0.06285731
-0.05799406
-0.053312009
-0.048829226
-0.044559851
-0.040514302
-0.036699521
-0.033119247
-0.029774325
-0.026663021
-0.023781353
-0.02112341
-0.018681679
-0.016447352
-0.014410623
-0.012560964
-0.010887386
-0.0093786758
-0.0080236106
-0.0068111765
-0.0057306794
-0.0047721257
-0.0039256828
-0.0031838353
-0.0025353894
-0.0019826494
-0.001492785
-0.0011256774
-0.00069686649
-0.00057320956
9.9086029e-05
-0.12986021
-0.12793044
-0.12658373
-0.12554052
-0.12384581
-0.12147689
-0.11867959
-0.11552546
-0.11201133
-0.10816676
-0.10404169
-0.099682512
-0.095132172
-0.090435591
-0.085638681
-0.080785084
-0.07591591
-0.071069676
-0.066281878
-0.061584591
-0.05700622
-0.052571379
-0.048300855
-0.044211658
-0.04031714
-0.036627169
-0.03314835
-0.029884285
-0.02683585
-0.024001502
-0.021377581
-0.018958626
-0.016737677
-0.014706571
-0.012856228
-0.011176914
-0.0096584897
-0.0082906371
-0.0070630812
-0.0059657292
-0.0049889931
-0.0041234404
-0.0033613554
-0.0026924354
-0.0021158478
-0.0016060829
-0.0011985588
-0.00077251124
-0.00050114748
-0.00010156884
-0.11697453
-0.11562493
-0.11476687
-0.11437947
-0.11344032
-0.11180661
-0.10972008
-0.10728311
-0.10448895
-0.10134945
-0.097906687
-0.094204997
-0.090284221
-0.086183663
-0.081944397
-0.077608335
-0.07321561
-0.068804065
-0.064409181
-0.060063742
-0.055797467
-0.051636757
-0.047604553
-0.043720292
-0.03999993
-0.036456039
-0.033097956
-0.029931979
-0.026961604
-0.024187779
-0.02160919
-0.019222548
-0.017022879
-0.015003813
-0.01315787
-0.01147672
-0.0099514451
-0.0085727662
-0.0073312722
-0.0062175799
-0.0052226106
-0.0043373932
-0.00355414
-0.0028633232
-0.0022615254
-0.0017292441
-0.0012816537
-0.00085081918
-0.00045210847
-0.00027608471
-0.1044402
-0.10375714
-0.10341497
-0.1035216
-0.10317051
-0.1021741
-0.10072917
-0.098939396
-0.09680134
-0.0943173
-0.091519604
-0.088447227
-0.08513551
-0.081619417
-0.077935441
-0.074121122
-0.070214183
-0.066251101
-0.0622665
-0.058292924
-0.05436051
-0.050496657
-0.046725777
-0.043069156
-0.039544887
-0.036167877
-0.032949925
-0.029899842
-0.027023628
-0.024324682
-0.021804042
-0.019460637
-0.017291559
-0.015292336
-0.013457203
-0.011779363
-0.010251243
-0.0088647311
-0.0076113989
-0.0064826826
-0.0054701199
-0.0045652697
-0.0037604124
-0.0030466926
-0.0024187032
-0.0018616098
-0.0013749229
-0.00093179433
-0.00042945586
-0.00041731905
-0.09254287
-0.092445904
-0.092572168
-0.093066446
-0.093176704
-0.092715152
-0.091830856
-0.090613769
-0.08906271
-0.087175228
-0.084974568
-0.082492681
-0.079759642
-0.076805321
-0.073661753
-0.070362348
-0.066940872
-0.063431128
-0.059866128
-0.056277407
-0.052694681
-0.049145535
-0.045655122
-0.042245931
-0.038937629
-0.035746995
-0.032687908
-0.029771398
-0.027005761
-0.0243967
-0.021947523
-0.01965935
-0.017531353
-0.015561003
-0.013744322
-0.012076136
-0.010550321
-0.0091600339
-0.0078979408
-0.006756398
-0.0057276654
-0.0048039054
-0.0039776098
-0.0032405199
-0.0025858323
-0.002002138
-0.0014778348
-0.0010155481
-0.00043431575
-0.00052096486
-0.081422946
-0.081781985
-0.082290675
-0.083087548
-0.083558647
-0.083534203
-0.083125211
-0.082403784
-0.081368322
-0.080013461
-0.078354795
-0.076416914
-0.074224128
-0.071801037
-0.069174567
-0.066373752
-0.063428501
-0.060369011
-0.057225597
-0.054028036
-0.050804912
-0.047583248
-0.044388211
-0.041242818
-0.038167713
-0.035181014
-0.03229823
-0.02953224
-0.026893334
-0.024389298
-0.022025546
-0.019805287
-0.017729721
-0.01579825
-0.014008706
-0.012357586
-0.01084028
-0.0094512993
-0.0081844888
-0.0070332169
-0.0059905621
-0.0050493663
-0.0042024721
-0.0034421752
-0.0027608305
-0.0021493984
-0.0015893363
-0.0011021441
-0.00046528639
-0.00058638557
-0.071140878
-0.071827852
-0.072622904
-0.073644812
-0.074391078
-0.074713764
-0.074695745
-0.074392543
-0.07380047
-0.072911741
-0.071735627
-0.070289791
-0.068592675
-0.066663559
-0.064524184
-0.062198715
-0.059712866
-0.057093154
-0.054366556
-0.051560231
-0.048700935
-0.045814472
-0.042925338
-0.040056422
-0.037228726
-0.034461149
-0.031770335
-0.029170582
-0.026673815
-0.02428961
-0.022025261
-0.019885899
-0.017874634
-0.015992734
-0.014239814
-0.012614044
-0.011112362
-0.009730681
-0.0084640929
-0.0073070501
-0.0062535345
-0.0052971408
-0.0044311928
-0.0036485334
-0.0029411643
-0.0023015952
-0.0017078669
-0.0011914315
-0.00051854072
-0.00061690648
-0.061708556
-0.062616276
-0.063609018
-0.064784952
-0.065730955
-0.066319574
-0.06661282
-0.06665248
-0.066432411
-0.065942683
-0.065187344
-0.064177925
-0.062927295
-0.061449565
-0.059761391
-0.057882021
-0.05583263
-0.05363574
-0.051314798
-0.048893835
-0.046397093
-0.043848527
-0.041271352
-0.038687702
-0.036118333
-0.033582354
-0.031097023
-0.028677591
-0.026337212
-0.024086905
-0.021935563
-0.019890013
-0.017955107
-0.016133858
-0.014427588
-0.012836106
-0.011357887
-0.0099902672
-0.0087296235
-0.0075715463
-0.0065109903
-0.005542371
-0.0046596107
-0.0038561232
-0.0031239631
-0.0024566169
-0.0018314166
-0.0012829129
-0.00058836334
-0.0006193735
-0.053111181
-0.054155509
-0.055271438
-0.056539442
-0.057619496
-0.058402325
-0.058934129
-0.059245805
-0.059329166
-0.059172592
-0.058775912
-0.058145465
-0.057289139
-0.05621626
-0.054938682
-0.053470893
-0.051829524
-0.050032882
-0.048100629
-0.046053421
-0.043912547
-0.04169955
-0.039435803
-0.037142118
-0.034838427
-0.032543492
-0.030274651
-0.028047619
-0.025876338
-0.023772885
-0.021747419
-0.019808189
-0.017961572
-0.016212155
-0.014562848
-0.013015014
-0.011568627
-0.01022243
-0.0089740979
-0.0078203911
-0.0067572894
-0.005780089
-0.0048834124
-0.0040612918
-0.0033061533
-0.0026121116
-0.0019576321
-0.0013756887
-0.00066805285
-0.0006029658
-0.045317977
-0.046434629
-0.047614506
-0.048923573
-0.050082429
-0.050997877
-0.051704057
-0.052223422
-0.052546439
-0.052660406
-0.052561928
-0.052253142
-0.051737721
-0.05102079
-0.050109866
-0.049015023
-0.04774854
-0.04632456
-0.044758833
-0.043068449
-0.041271499
-0.039386728
-0.037433191
-0.035429879
-0.033395381
-0.031347579
-0.029303372
-0.02727844
-0.025287053
-0.023341926
-0.021454116
-0.019632974
-0.017886135
-0.01621955
-0.014637544
-0.01314292
-0.011737065
-0.010420083
-0.0091909292
-0.0080475446
-0.0069869663
-0.0060054202
-0.0050983143
-0.0042603602
-0.0034845894
-0.002765578
-0.0020839613
-0.0014684924
-0.00075100325
-0.00057748388
-0.038287568
-0.039428743
-0.040627462
-0.041937833
-0.043130936
-0.044127826
-0.044953541
-0.045624123
-0.046129399
-0.046456241
-0.046598984
-0.046556551
-0.046329247
-0.045918708
-0.045328722
-0.044565446
-0.04363718
-0.042554128
-0.041328233
-0.039972969
-0.038503093
-0.036934335
-0.035283101
-0.033566157
-0.031800303
-0.030002068
-0.028187425
-0.026371536
-0.024568534
-0.022791333
-0.021051493
-0.019359114
-0.017722782
-0.016149549
-0.014644953
-0.013213067
-0.011856571
-0.01057685
-0.0093740926
-0.0082474021
-0.0071948851
-0.0062137309
-0.0053001995
-0.0044497464
-0.0036561671
-0.0029144617
-0.0022078181
-0.0015598055
-0.0008316964
-0.0005515436
-0.031972519
-0.033103923
-0.034288538
-0.035570767
-0.036763695
-0.037800969
-0.038700862
-0.039474662
-0.040112164
-0.040600407
-0.04093232
-0.041104543
-0.04111486
-0.040962177
-0.040647247
-0.040172919
-0.039544012
-0.03876718
-0.037850814
-0.036804915
-0.035640915
-0.03437145
-0.033010099
-0.031571125
-0.030069194
-0.028519089
-0.02693543
-0.025332419
-0.023723603
-0.022121665
-0.020538253
-0.01898384
-0.017467623
-0.015997464
-0.014579859
-0.013219949
-0.011921546
-0.010687195
-0.0095182407
-0.0084149008
-0.0073763387
-0.0064007213
-0.0054852052
-0.0046260482
-0.003817906
-0.0030562439
-0.0023267349
-0.00164801
-0.00090633912
-0.00053118564
-0.026322775
-0.027420945
-0.028568558
-0.029802041
-0.030969402
-0.032015332
-0.032953134
-0.033790646
-0.034518101
-0.035123181
-0.035598139
-0.035938151
-0.036139266
-0.036198405
-0.036113999
-0.035886245
-0.035517067
-0.03501006
-0.034370455
-0.033605062
-0.032722162
-0.031731348
-0.030643339
-0.02946976
-0.02822292
-0.026915564
-0.025560617
-0.024170938
-0.022759087
-0.021337107
-0.019916332
-0.018507221
-0.01711923
-0.015760704
-0.014438817
-0.013159534
-0.011927604
-0.010746574
-0.0096188265
-0.0085456196
-0.0075271305
-0.0065624934
-0.005649782
-0.0047860983
-0.0039670067
-0.0031885158
-0.0024384768
-0.0017315327
-0.00097298771
-0.00051928909
-0.021287959
-0.022337943
-0.023433733
-0.024605172
-0.02572929
-0.02676039
-0.027708146
-0.028577931
-0.029360743
-0.03004524
-0.030623572
-0.031090131
-0.03143991
-0.031668524
-0.031772753
-0.031750799
-0.031602308
-0.031328365
-0.030931517
-0.030415773
-0.029786557
-0.029050617
-0.028215898
-0.027291395
-0.026286966
-0.02521314
-0.024080907
-0.022901489
-0.021686122
-0.020445847
-0.019191312
-0.017932597
-0.016679051
-0.015439175
-0.014220513
-0.013029587
-0.011871849
-0.010751661
-0.0096722916
-0.0086359287
-0.0076436901
-0.0066956398
-0.0057907606
-0.004927019
-0.004100901
-0.0033090421
-0.002541103
-0.0018089467
-0.0010311918
-0.00051588064
-0.016819256
-0.017812637
-0.018848123
-0.019950056
-0.021019622
-0.022019428
-0.02295649
-0.023834437
-0.02464522
-0.025378679
-0.026027273
-0.026585131
-0.027046749
-0.027407006
-0.027661627
-0.027807429
-0.02784237
-0.02776559
-0.02757747
-0.02727967
-0.026875141
-0.026368081
-0.025763879
-0.02506901
-0.02429092
-0.023437873
-0.022518785
-0.021543046
-0.020520318
-0.01946035
-0.018372785
-0.017266982
-0.016151855
-0.015035726
-0.013926201
-0.012830074
-0.011753247
-0.010700679
-0.009676346
-0.0086832219
-0.0077232618
-0.0067973915
-0.0059054665
-0.005046311
-0.0042173208
-0.0034158294
-0.0026329864
-0.0018790223
-0.0010813714
-0.00051909054
-0.012870473
-0.013803749
-0.01477531
-0.015804846
-0.016813678
-0.017771555
-0.018683523
-0.019551971
-0.020369879
-0.021128359
-0.021820452
-0.022440398
-0.02298261
-0.023441687
-0.023812797
-0.024091894
-0.024275786
-0.0243622
-0.024349863
-0.024238566
-0.024029213
-0.023723824
-0.023325524
-0.022838496
-0.022267908
-0.02161982
-0.02090106
-0.020119089
-0.019281844
-0.01839757
-0.017474656
-0.016521465
-0.015546173
-0.014556622
-0.013560183
-0.012563637
-0.011573075
-0.010593815
-0.0096303389
-0.0086862404
-0.0077641791
-0.0068658456
-0.0059919029
-0.0051419997
-0.00431441
-0.0035072138
-0.0027128232
-0.0019407481
-0.0011242114
-0.00052629924
-0.0093995985
-0.010272803
-0.011180392
-0.012138058
-0.013083938
-0.013993897
-0.014871499
-0.015718233
-0.016528099
-0.017293484
-0.018008155
-0.018666713
-0.019263779
-0.019794005
-0.020252383
-0.02063443
-0.020936261
-0.021154662
-0.021287175
-0.021332188
-0.021288995
-0.021157839
-0.020939931
-0.02063745
-0.020253514
-0.019792133
-0.01925813
-0.018657048
-0.017995039
-0.017278731
-0.01651509
-0.015711273
-0.01487448
-0.014011814
-0.01313014
-0.012235961
-0.011335298
-0.010433595
-0.0095356244
-0.0086454126
-0.0077661709
-0.0069002335
-0.0060489803
-0.0052128253
-0.0043908736
-0.0035819733
-0.0027796599
-0.0019933517
-0.0011602851
-0.00053504965
-0.0063686293
-0.0071844276
-0.0080306973
-0.0089196622
-0.0098035216
-0.010663356
-0.01150158
-0.012319006
-0.013110593
-0.013869935
-0.014591585
-0.015270635
-0.015902097
-0.016480902
-0.01700214
-0.017461212
-0.017853901
-0.018176441
-0.018425604
-0.018598789
-0.018694095
-0.018710385
-0.018647328
-0.01850543
-0.018286041
-0.017991344
-0.017624323
-0.017188707
-0.016688898
-0.016129882
-0.015517124
-0.014856446
-0.014153903
-0.013415661
-0.012647858
-0.011856486
-0.011047268
-0.010225542
-0.0093961622
-0.0085633977
-0.0077308443
-0.0069013411
-0.0060768736
-0.0052585398
-0.0044462126
-0.0036395022
-0.0028329846
-0.002036363
-0.0011899677
-0.00054352867
-0.0037453565
-0.0045079549
-0.0052972293
-0.0061223345
-0.0069472262
-0.0077574175
-0.0085544131
-0.0093384952
-0.010105479
-0.01085006
-0.01156756
-0.012253624
-0.012903745
-0.01351326
-0.014077535
-0.014592081
-0.015052612
-0.015455115
-0.015795922
-0.016071795
-0.016280007
-0.016418406
-0.016485478
-0.016480393
-0.01640304
-0.016254045
-0.016034775
-0.015747316
-0.015394438
-0.014979545
-0.014506603
-0.013980055
-0.01340472
-0.012785693
-0.012128229
-0.011437625
-0.01071911
-0.0099777217
-0.0092181988
-0.0084448698
-0.007661548
-0.0068714305
-0.0060769844
-0.0052798936
-0.0044807213
-0.0036798059
-0.0028727035
-0.0020695914
-0.0012134592
-0.00055060969
-0.0015041097
-0.0022193108
-0.0029575427
-0.0037253346
-0.0044964056
-0.0052599822
-0.0060168306
-0.0067668011
-0.0075064467
-0.0082314285
-0.0089377811
-0.0096216942
-0.010279166
-0.010905997
-0.011497922
-0.012050699
-0.012560155
-0.013022242
-0.013433104
-0.013789149
-0.014087125
-0.014324184
-0.014497953
-0.014606589
-0.014648828
-0.014624031
-0.014532203
-0.014374009
-0.014150766
-0.013864427
-0.013517543
-0.013113211
-0.012655007
-0.012146906
-0.011593189
-0.010998346
-0.010366971
-0.0097036491
-0.009012843
-0.0082987807
-0.0075653389
-0.00681593
-0.0060533752
-0.0052798349
-0.0044964718
-0.0037042928
-0.0028997693
-0.0020936157
-0.0012312666
-0.00055591999
0.0003792175
-0.00029440722
-0.00098780581
-0.001705131
-0.002428156
-0.0031492152
-0.0038684735
-0.0045854154
-0.005297206
-0.0060003266
-0.0066914381
-0.0073672307
-0.0080241838
-0.0086585604
-0.0092664949
-0.0098440573
-0.010387289
-0.010892248
-0.011355058
-0.01177198
-0.012139465
-0.012454228
-0.012713308
-0.012914131
-0.013054567
-0.013132988
-0.013148303
-0.013099997
-0.012988153
-0.012813454
-0.01257718
-0.012281188
-0.011927869
-0.011520096
-0.011061161
-0.010554695
-0.010004576
-0.0094148344
-0.0087895405
-0.008132694
-0.0074481041
-0.0067392693
-0.0060092425
-0.0052605482
-0.0044948477
-0.0037137359
-0.0029145179
-0.0021084267
-0.0012432059
-0.00055896321
0.0019018089
0.0012619627
0.00060537912
-7.0344179e-05
-0.00075339791
-0.0014385608
-0.0021255018
-0.0028134082
-0.0034999354
-0.0041822292
-0.004857468
-0.0055227691
-0.0061750335
-0.0068109412
-0.0074270063
-0.0080196193
-0.0085850743
-0.0091196022
-0.0096194131
-0.010080748
-0.010499932
-0.010873433
-0.01119792
-0.011470326
-0.011687909
-0.011848309
-0.011949605
-0.01199036
-0.011969661
-0.011887149
-0.011743033
-0.011538092
-0.01127367
-0.010951648
-0.010574397
-0.010144723
-0.0096657972
-0.0091410676
-0.008574164
-0.0079687886
-0.007328599
-0.0066570854
-0.0059574315
-0.0052324232
-0.0044841171
-0.0037145993
-0.0029219045
-0.0021177123
-0.0012518816
-0.00056105413
0.0031044263
0.0024923568
0.0018659061
0.0012242982
0.00057431799
-8.0771266e-05
-0.00074025365
-0.0014030659
-0.0020672344
-0.0027304227
-0.0033902197
-0.0040440862
-0.0046892694
-0.005322799
-0.0059415174
-0.0065421062
-0.007121105
-0.0076749373
-0.008199943
-0.0086924194
-0.0091486656
-0.0095650329
-0.0099379791
-0.010264127