/*--------------------------------*- C++ -*----------------------------------*\
  =========                 |
  \\      /  F ield         | OpenFOAM: The Open Source CFD Toolbox
   \\    /   O peration     | Website:  https://openfoam.org
    \\  /    A nd           | Version:  6
     \\/     M anipulation  |
\*---------------------------------------------------------------------------*/
FoamFile
{
    version     2.0;
    format      ascii;
    class       surfaceScalarField;
    location    "184";
    object      phi_0;
}
// * * * * * * * * * * * * * * * * * * * * * * * * * * * * * * * * * * * * * //

dimensions      [0 3 -1 0 0 0 0];

internalField   nonuniform List<scalar> 
18180
(
0.00031872922
-0.00016316007
-0.00015556915
0.0013092109
-0.001366916
0.00037643439
0.0030328872
-0.0033336202
0.0016099438
0.0055497729
-0.0059759597
0.003459074
0.0089181959
-0.0092390805
0.0058706575
0.013192811
-0.013079531
0.008804916
0.018421939
-0.017459843
0.012230714
0.024644601
-0.022345802
0.01612314
0.031887365
-0.027703319
0.020460555
0.040161274
-0.033495811
0.025221902
0.049459159
-0.039682444
0.030384559
0.059753711
-0.046217215
0.035922663
0.07099672
-0.053048856
0.041805847
0.083119923
-0.060121592
0.047998388
0.096038096
-0.067376846
0.054458673
0.10965488
-0.074756007
0.061139221
0.12387081
-0.082204099
0.067988167
0.13859854
-0.089674083
0.074946356
0.15383664
-0.09714883
0.081910732
-0.10462597
0.088678887
0.16978372
0.00039749702
-0.0005606571
0.0016095945
-0.0025790135
0.0036893176
-0.0054133432
0.0066874427
-0.0089740848
0.010650651
-0.013202288
0.015617867
-0.018046747
0.021616255
-0.023458231
0.028657253
-0.0293868
0.036732939
-0.035779005
0.045813137
-0.042576009
0.05584368
-0.049712987
0.066746195
-0.057119729
0.078419651
-0.064722312
0.090743766
-0.072445707
0.10358405
-0.080217131
0.1167979
-0.087969853
0.13024077
-0.095646968
0.14377297
-0.10320628
0.15725856
-0.11063443
-0.1178619
0.17049449
0.00048062337
-0.0010412805
0.001918698
-0.0040170882
0.0043524783
-0.0078471235
0.0078165623
-0.012438169
0.012337663
-0.017723389
0.017929204
-0.023638289
0.024586245
-0.030115272
0.032281205
-0.037081759
0.040960834
-0.044458635
0.050544914
-0.052160089
0.06092706
-0.060095132
0.071977797
-0.068170466
0.083549788
-0.076294303
0.095484801
-0.08438072
0.10762168
-0.092354008
0.11980425
-0.10015242
0.13188799
-0.10773072
0.14374348
-0.11506176
0.1552487
-0.12213965
-0.12891429
0.16630109
0.00056616963
-0.0016074501
0.0022279422
-0.0056788607
0.0050006106
-0.010619792
0.0088940095
-0.016331568
0.013905256
-0.022734635
0.020011879
-0.029744912
0.027166484
-0.037269877
0.035293412
-0.045208688
0.044287852
-0.053453074
0.054017771
-0.061890008
0.064328714
-0.070406075
0.075051125
-0.078892877
0.086009518
-0.087252697
0.097032492
-0.095403694
0.10796246
-0.10328397
0.11866396
-0.11085392
0.12902965
-0.11809641
0.13898297
-0.12501508
0.14847491
-0.1316316
-0.1379452
0.15750582
0.00065088619
-0.0022583363
0.0025243414
-0.0075523159
0.005603634
-0.013699084
0.009864464
-0.020592398
0.01526461
-0.028134781
0.021736408
-0.03621671
0.029182479
-0.044715948
0.037474891
-0.0535011
0.046457999
-0.062436182
0.055954834
-0.071386843
0.065776428
-0.080227669
0.075733009
-0.088849458
0.085645714
-0.097165402
0.095357393
-0.10511537
0.10474121
-0.11266779
0.11370619
-0.1198189
0.12219937
-0.12658958
0.13020456
-0.13302028
0.137738
-0.13916503
-0.14506757
0.14486038
0.00073063578
-0.002988972
0.002792086
-0.0096137662
0.0061265739
-0.017033572
0.010666711
-0.025132535
0.016322649
-0.033790719
0.022975242
-0.042869303
0.030474427
-0.052215133
0.038642396
-0.061669068
0.047281185
-0.071074971
0.05618373
-0.080289388
0.065146883
-0.089190822
0.073984595
-0.097687171
0.08253948
-0.10572029
0.090691298
-0.11326719
0.098361452
-0.12033794
0.1055133
-0.12697075
0.11214879
-0.13322507
0.1183024
-0.13917389
0.12403362
-0.14489626
-0.1504633
0.12942935
0.00080073114
-0.0037897032
0.0030139159
-0.011826951
0.0065328939
-0.02055255
0.011240051
-0.029839693
0.016992696
-0.039543364
0.023618543
-0.049495151
0.030918213
-0.059514803
0.038673316
-0.069424171
0.04665877
-0.079060426
0.054657395
-0.088288013
0.062474456
-0.097007883
0.069949953
-0.10516267
0.076966962
-0.11273729
0.0834551
-0.11975533
0.08938911
-0.12627195
0.094783315
-0.13236495
0.099683306
-0.13812507
0.1041565
-0.14364709
0.10828311
-0.14902286
-0.15433357
0.11215337
0.00085605864
-0.0046457619
0.0031720604
-0.014142953
0.0067872253
-0.024167715
0.011529801
-0.034582269
0.017203433
-0.045216995
0.023586547
-0.055878265
0.030439873
-0.066368129
0.037519327
-0.076503624
0.044591798
-0.086132897
0.051451003
-0.095147218
0.057930632
-0.10348751
0.063912776
-0.11114481
0.069330644
-0.11815516
0.074165694
-0.12459038
0.078440256
-0.13054652
0.082207337
-0.13613204
0.085539502
-0.14145723
0.088518562
-0.14662615
0.091227359
-0.15173166
-0.15685205
0.093745843
0.00089026229
-0.0055360241
0.003248283
-0.016500973
0.0068576216
-0.027777054
0.011492463
-0.03921711
0.016906808
-0.05063134
0.022838894
-0.061810351
0.029023669
-0.072552904
0.03520925
-0.082689205
0.041173928
-0.092097575
0.046740396
-0.10071369
0.051784656
-0.10853177
0.056238408
-0.11559856
0.06008514
-0.1220019
0.063351248
-0.12785649
0.066094214
-0.13328948
0.068390056
-0.13842788
0.070321923
-0.1433891
0.071971236
-0.14827546
0.073411925
-0.15317235
-0.1581477
0.074707577
0.00089981811
-0.0064358423
0.0032333802
-0.018834536
0.0067291636
-0.031272837
0.011111176
-0.043599123
0.016092484
-0.055612649
0.021384622
-0.067102488
0.026713884
-0.077882166
0.031839116
-0.087814437
0.036567085
-0.096825545
0.040762272
-0.10490887
0.044349474
-0.11211897
0.047309349
-0.11855844
0.049668405
-0.12436095
0.051485814
-0.12967389
0.052839524
-0.13464319
0.053813818
-0.13940217
0.054489708
-0.14406499
0.054938817
-0.14872457
0.055220544
-0.15345408
0.055380978
-0.15830814
-0.00020237825
0.00020237825
-5.2898212e-12
-0.00067774639
0.00047536816
-8.7162809e-12
-0.0013424256
0.00066467923
-9.4855117e-12
-0.0021322939
0.00078986827
-9.916016e-12
-0.0029957727
0.00086347884
-1.0788113e-11
-0.0038907398
0.0008949671
-1.192896e-11
-0.0047822952
0.00089155539
-1.331714e-11
-0.0056408922
0.00085859707
-1.4658738e-11
-0.0064408671
0.00079997494
-1.6138986e-11
-0.007159288
0.00071842088
-1.7518148e-11
-0.0077750364
0.0006157484
-1.9053761e-11
-0.0082680721
0.00049303571
-2.0512332e-11
-0.0086188534
0.00035078137
-2.2142661e-11
-0.008807904
0.00018905057
-2.3720441e-11
-0.0088155572
7.6532949e-06
-2.5453786e-11
-0.0086219805
-0.00019357665
-2.7125799e-11
-0.0082074388
-0.00041454174
-2.889247e-11
-0.0075518891
-0.00065554966
-3.0539587e-11
-0.0066345752
-0.00091731384
-3.2151924e-11
-0.0011862307
-0.0054483445
-3.3577949e-11
-0.00018797447
0.00039035272
-0.00062500703
0.00091240072
-0.0012287533
0.0012684255
-0.0019351946
0.0014963096
-0.0026921393
0.0016204236
-0.0034562842
0.001659112
-0.0041910674
0.0016263386
-0.0048648591
0.0015323888
-0.0054495244
0.0013846402
-0.0059192873
0.0011881838
-0.0062498161
0.00094627719
-0.006417481
0.00066070066
-0.0063987498
0.00033205012
-0.0061697082
-3.999098e-05
-0.0057057355
-0.00045631947
-0.0049814235
-0.0009178886
-0.0039707933
-0.001425172
-0.0026472153
-0.0019791277
-0.00098325973
-0.0025812694
-0.0032017814
0.001032291
-0.00015892785
0.00054928058
-0.00051889145
0.0012723643
-0.00100077
0.001750304
-0.0015412595
0.002036799
-0.00208735
0.0021665141
-0.0025937354
0.0021654974
-0.0030208685
0.0020534717
-0.003333294
0.0018448143
-0.0034983026
0.0015496488
-0.0034848554
0.0011747366
-0.0032626995
0.00072412131
-0.0028016486
0.0001996498
-0.0020709492
-0.00039864931
-0.0010387665
-0.0010721737
0.00032824486
-0.0018233308
0.0020652171
-0.0026548608
0.0042090292
-0.0035689841
0.0067980011
-0.0045680995
0.009871824
-0.0056550924
-0.0067797358
0.013449778
-0.00011756695
0.00066684753
-0.00036699852
0.0015217959
-0.00067351362
0.0020568191
-0.00097482561
0.002338111
-0.001216854
0.0024085425
-0.0013515942
0.0023002376
-0.00133546
0.0020373375
-0.0011278289
0.0016371833
-0.00068984584
0.0011116657
1.6529451e-05
0.00046836128
0.0010293062
-0.00028865543
0.0023871096
-0.0011581536
0.0041297262
-0.0021412659
0.0062985853
-0.0032410328
0.0089372649
-0.0044620104
0.012092049
-0.0058096447
0.015812301
-0.0072892362
0.020150164
-0.0089059631
0.02516035
-0.010665278
-0.012492613
0.030873227
-6.6907631e-05
0.00073375516
-0.0001791665
0.0016340548
-0.0002665338
0.0021441864
-0.00026769147
0.0023392686
-0.0001271943
0.0022680453
0.00020616679
0.0019668765
0.00078069333
0.0014628109
0.0016429487
0.00077492787
0.002838728
-8.4113532e-05
0.0044138434
-0.0011067542
0.0064146884
-0.0022895005
0.0088886537
-0.0036321189
0.011884453
-0.0051370648
0.015452451
-0.0068090313
0.019645042
-0.008654601
0.024517263
-0.010681866
0.03012768
-0.012899653
0.036538889
-0.015317172
0.043818288
-0.017944677
-0.020682531
0.052008207
-9.9846209e-06
0.00074373978
3.4534987e-05
0.0015895351
0.00019989019
0.0019788312
0.00054676574
0.0019923931
0.0011322471
0.001682564
0.002010981
0.0010881426
0.0032361396
0.00023765227
0.0048603036
-0.00084923611
0.0069361194
-0.0021599294
0.009516674
-0.0036873087
0.012655703
-0.0054285292
0.016407695
-0.0073841107
0.020827818
-0.0095571886
0.025971762
-0.011952974
0.031895632
-0.014578472
0.038656259
-0.017442493
0.046312373
-0.020555767
0.054926675
-0.023931474
0.06456966
-0.027587662
-0.031405585
0.075292713
5.0751302e-05
0.00069298847
0.00026565772
0.0013746287
0.00070825427
0.0015362347
0.0014390301
0.0012616172
0.0025168199
0.00060477419
0.0039995657
-0.00039460323
0.0059449133
-0.0017076954
0.0084106014
-0.0033149242
0.011454592
-0.0052039196
0.015135038
-0.0073677548
0.019510017
-0.0098035089
0.024637005
-0.012511098
0.030572135
-0.015492319
0.037369307
-0.018750146
0.045079248
-0.022288412
0.053748969
-0.026112215
0.063422582
-0.03022938
0.074144686
-0.034653578
0.085969314
-0.03941229
-0.044388492
0.098952221
0.00011379628
0.00057919218
0.00050850333
0.00097992166
0.0012459821
0.00079875588
0.0023867772
0.00012082218
0.0039912402
-0.00099968876
0.0061198748
-0.0025232379
0.0088333181
-0.0044211386
0.012192163
-0.006673769
0.016256554
-0.0092683103
0.02108544
-0.012196642
0.026735541
-0.015453609
0.033260015
-0.019035572
0.040706875
-0.022939179
0.04911718
-0.027160452
0.05852314
-0.031694373
0.06894649
-0.036535564
0.080398308
-0.041681198
0.092882133
-0.047137403
0.10640547
-0.052935625
-0.058995658
0.12101263
0.00017849579
0.00040069639
0.00076002979
0.00039838766
0.0018053387
-0.00024655299
0.0033747132
-0.0014485524
0.0055289946
-0.0031539702
0.0083293181
-0.0053235613
0.011836488
-0.0079283086
0.016110056
-0.010947337
0.021207039
-0.014365294
0.027180299
-0.018169901
0.034076612
-0.022349923
0.041934471
-0.026893431
0.050781653
-0.031786361
0.060632584
-0.037011383
0.071485489
-0.042547277
0.083319378
-0.048369454
0.096091848
-0.054453667
0.10974041
-0.060785967
0.12419599
-0.0673912
-0.074274607
0.13947493
0.00024512723
0.0010199493
0.0023833401
0.0043938618
0.0071105492
0.010591904
0.01489431
0.020070113
0.026165375
0.033217375
0.041252011
0.050281243
0.06030073
0.071287735
0.083199131
0.095968898
0.1095034
0.12366379
0.13818332
0.1525876
-0.0035077189
-0.0019406255
-4.6813662e-11
-0.0012859338
-0.0022217851
-4.7977308e-11
0.0011946757
-0.0024806094
-4.8336713e-11
0.0038772104
-0.0026825346
-4.7766523e-11
0.0067348665
-0.0028576561
-4.5953809e-11
0.0097503382
-0.0030154716
-4.3040003e-11
0.012904691
-0.0031543525
-3.8886893e-11
0.016179902
-0.0032752108
-3.3388046e-11
0.019560269
-0.0033803676
-2.6429539e-11
0.023031575
-0.0034713056
-1.7982704e-11
0.026580532
-0.003548957
-8.3070808e-12
0.030194716
-0.0036141836
2.3913233e-12
0.033862483
-0.0036677671
1.3689202e-11
0.037572837
-0.0037103541
2.5243054e-11
0.041315326
-0.0037424897
3.6517882e-11
0.04507998
-0.0037646533
4.7077243e-11
0.048857256
-0.0037772762
5.6323542e-11
0.052638011
-0.003780755
6.3800073e-11
0.056413477
-0.0037754661
6.895255e-11
0.060175254
-0.0037617775
7.1441521e-11
0.063915311
-0.003740057
7.0895166e-11
0.06762599
-0.0037106788
6.7239737e-11
0.071300017
-0.0036740274
6.0407938e-11
0.074930517
-0.0036304996
5.0707257e-11
0.078511022
-0.003580505
3.8433476e-11
0.082035486
-0.0035244644
2.4306001e-11
0.085498294
-0.0034628079
8.9234266e-12
0.088894266
-0.0033959719
-6.6788706e-12
0.092218661
-0.0033243955
-2.1799467e-11
0.095467178
-0.003248517
-3.530151e-11
0.098635949
-0.0031687703
-4.6663049e-11
0.10172153
-0.0030855817
-5.4859102e-11
0.1047209
-0.0029993668
-5.9726166e-11
0.10763143
-0.0029105289
-6.0376268e-11
0.11045088
-0.0028194575
-5.6924949e-11
0.11317741
-0.0027265281
-4.8419602e-11
0.11580952
-0.0026321033
-3.5083913e-11
0.11834605
-0.0025365351
-1.593948e-11
0.12078622
-0.0024401726
7.9635196e-12
0.12312958
-0.002343362
3.6550357e-11
0.12537607
-0.0022464893
6.6286021e-11
0.12752598
-0.0021499056
9.3681312e-11
0.12958028
-0.0020543005
1.1191939e-10
0.13153994
-0.0019596628
1.1565358e-10
0.13340906
-0.001869113
9.8478398e-11
0.13518613
-0.0017770724
5.7296529e-11
0.13689561
-0.0017094797
-5.6258968e-12
0.13849335
-0.001597743
-7.9713392e-11
0.14018017
-0.0016868203
-1.5962675e-10
-0.0013310267
-1.5532623e-10
0.0028529036
-0.0037612382
0.0049500471
-0.0043189286
0.0072929027
-0.004823465
0.0098190284
-0.0052086603
0.012507363
-0.0055459907
0.015345581
-0.0058536897
0.018316942
-0.0061257131
0.021405038
-0.0063633073
0.024595851
-0.0065711811
0.027876619
-0.0067520735
0.03123521
-0.0069075474
0.034660141
-0.0070391153
0.038140557
-0.0071481831
0.041666111
-0.0072359081
0.045226885
-0.0073032637
0.048813346
-0.0073511139
0.052416314
-0.0073802442
0.056026944
-0.0073913854
0.059636718
-0.0073852394
0.06323744
-0.0073625001
0.066821252
-0.0073238689
0.070380639
-0.0072700658
0.073908448
-0.0072018358
0.0773979
-0.0071199516
0.080842609
-0.0070252143
0.084236594
-0.0069184492
0.087574288
-0.0068005019
0.090850548
-0.0066722318
0.094060657
-0.0065345049
0.097200326
-0.0063881861
0.10026569
-0.0062341329
0.10325329
-0.006073188
0.1061601
-0.0059061741
0.10898346
-0.0057338898
0.11172111
-0.0055571067
0.11437115
-0.0053765697
0.11693205
-0.0051929988
0.11940261
-0.0050070936
0.12178198
-0.0048195489
0.12406968
-0.0046310539
0.12626557
-0.0044423794
0.12836989
-0.004254226
0.13038356
-0.0040679704
0.13230749
-0.0038835939
0.13414568
-0.0037073051
0.13589665
-0.0035280464
0.13758439
-0.0033972177
0.13916579
-0.003179144
0.14083647
-0.0033574936
-0.0026595993
0.015021112
-0.0053325717
0.016852209
-0.0061500253
0.018905742
-0.0068769981
0.021111783
-0.0074147016
0.023458698
-0.0078929058
0.025942834
-0.0083378258
0.028551573
-0.0087344518
0.031271434
-0.0090831686
0.034091317
-0.0093910643
0.037000993
-0.0096617487
0.039990339
-0.0098968939
0.043049496
-0.010098272
0.04616894
-0.010267626
0.049339414
-0.010406382
0.052551889
-0.010515739
0.055797553
-0.010596779
0.059067817
-0.010650508
0.062354319
-0.010677887
0.065648935
-0.010679855
0.0689438
-0.010657365
0.072231327
-0.010611396
0.075504228
-0.010542967
0.078755538
-0.010453145
0.081978634
-0.010343048
0.08516726
-0.01021384
0.088315536
-0.010066726
0.091417978
-0.009902944
0.094469504
-0.0097237575
0.097465438
-0.0095304392
0.10040152
-0.009324265
0.10327388
-0.0091064985
0.10607908
-0.0088783844
0.10881404
-0.008641139
0.1114761
-0.0083959435
0.11406293
-0.0081439414
0.1165726
-0.0078862368
0.1190035
-0.0076238991
0.12135438
-0.0073579692
0.12362431
-0.0070894818
0.12581272
-0.0068194659
0.12791941
-0.0065490739
0.12994454
-0.0062793552
0.13188894
-0.0060123673
0.13375345
-0.0057480997
0.13554191
-0.0054957661
0.13725294
-0.0052390751
0.13890955
-0.0050538298
0.14047097
-0.0047405705
0.14212221
-0.0050087277
-0.0039964094
0.032056515
-0.0065158593
0.033471708
-0.0075652185
0.035077208
-0.0084824975
0.036800037
-0.0091375307
0.038640881
-0.0097337503
0.040606038
-0.010302983
0.042688336
-0.01081675
0.044878252
-0.011273084
0.047168209
-0.011681022
0.049550979
-0.012044519
0.052018856
-0.01236477
0.054563882
-0.012643298
0.057178046
-0.012881791
0.059853306
-0.013081642
0.062581601
-0.013244033
0.065354884
-0.013370062
0.068165175
-0.0134608
0.071004598
-0.013517309
0.073865417
-0.013540675
0.076740083
-0.013532031
0.079621262
-0.013492575
0.082501874
-0.013423579
0.085375125
-0.013326396
0.088234531
-0.013202455
0.091073949
-0.013053258
0.09388759
-0.012880367
0.096670041
-0.012685395
0.099416271
-0.012469988
0.10212164
-0.01223581
0.10478191
-0.011984532
0.10739322
-0.011717809
0.10995211
-0.011437274
0.1124555
-0.011144524
0.11490066
-0.010841113
0.11728527
-0.010528543
0.1196073
-0.010208271
0.12186511
-0.0098817066
0.12405737
-0.0095502271
0.12618309
-0.0092152019
0.12824162
-0.0088779976
0.13023269
-0.0085401452
0.13215638
-0.0082030443
0.13401343
-0.0078694243
0.13580464
-0.0075393077
0.13753367
-0.0072247896
0.1391993
-0.0069047123
0.14082319
-0.006677719
0.14236804
-0.0062854175
0.14400356
-0.0066442525
-0.0053573506
0.052648495
-0.0071561477
0.053489076
-0.0084057995
0.054483184
-0.0094766058
0.055565132
-0.010219479
0.056749736
-0.010918355
0.058051291
-0.011604537
0.059468307
-0.012233765
0.060995915
-0.012800693
0.062629907
-0.013315013
0.064365683
-0.013780295
0.066197722
-0.01419681
0.068119757
-0.014565333
0.070125021
-0.014887055
0.072206413
-0.015163035
0.074356586
-0.015394205
0.076568026
-0.015581502
0.078833142
-0.015725916
0.081144339
-0.015828507
0.08349409
-0.015890426
0.08587499
-0.015912931
0.088279813
-0.015897398
0.090701558
-0.015845324
0.093133485
-0.015758322
0.095569152
-0.015638121
0.098002444
-0.01548655
0.10042759
-0.015305517
0.1028392
-0.015097002
0.10523224
-0.014863028
0.10760208
-0.014605648
0.10994446
-0.014326917
0.11225553
-0.014028879
0.11453181
-0.013713548
0.11677018
-0.013382901
0.11896792
-0.013038852
0.12112264
-0.012683265
0.12323232
-0.012317943
0.12529524
-0.011944633
0.12731006
-0.011565047
0.12927575
-0.011180888
0.13119161
-0.01079386
0.13305734
-0.010405876
0.13487298
-0.010018686
0.13663924
-0.0096356851
0.1383569
-0.009256959
0.14002944
-0.0088973302
0.14165596
-0.0085312378
0.14325644
-0.0082781921
0.14479799
-0.0078269712
0.14643144
-0.008277699
-0.0067656622
0.075221691
-0.0070851251
0.075326644
-0.0085107522
0.075551003
-0.0097009648
0.075851284
-0.01051976
0.076255522
-0.011322593
0.07678057
-0.012129585
0.077429463
-0.012882659
0.078202132
-0.013573361
0.079096884
-0.014209765
0.080110571
-0.014793982
0.081238949
-0.015325189
0.082476724
-0.015803107
0.083817709
-0.01622804
0.085255126
-0.016600452
0.086781798
-0.016920877
0.088390271
-0.017189976
0.090072929
-0.017408573
0.091822091
-0.017577669
0.093630115
-0.017698449
0.095489461
-0.017772278
0.097392766
-0.017800702
0.099332885
-0.017785443
0.10130295
-0.017728387
0.1032964
-0.017631569
0.10530701
-0.017497158
0.10732891
-0.017327425
0.10935664
-0.01712473
0.1113851
-0.016891485
0.11340959
-0.016630142
0.11542583
-0.016343154
0.11742992
-0.016032964
0.11941834
-0.015701978
0.121388
-0.015352551
0.12333612
-0.014986977
0.12526034
-0.01460748
0.12715861
-0.014216215
0.12902925
-0.013815276
0.13087092
-0.013406712
0.13268259
-0.012992567
0.13446362
-0.01257489
0.13621372
-0.012155976
0.13793298
-0.01173794
0.13962212
-0.011324829
0.141282
-0.010916837
0.142916
-0.010531334
0.14452365
-0.010138882
0.14612305
-0.0098775942
0.1476865
-0.0093904198
0.14934345
-0.0099346502
-0.0082534573
0.09802522
-0.0061581249
0.097257941
-0.0077434726
0.096581643
-0.0090246672
0.095997199
-0.0099353156
0.095540737
-0.010866131
0.095223489
-0.011812337
0.095050822
-0.012709992
0.095026739
-0.013549278
0.095150773
-0.014333798
0.095419658
-0.015062867
0.095829035
-0.015734565
0.096373492
-0.016347565
0.097046547
-0.016901095
0.097840965
-0.01739487
0.098749063
-0.017828975
0.09976287
-0.018203783
0.10087425
-0.018519952
0.10207502
-0.018778436
0.10335704
-0.018980477
0.10471234
-0.019127576
0.10613313
-0.019221486
0.10761188
-0.019264193
0.10914138
-0.019257894
0.11071479
-0.019204972
0.1123256
-0.019107974
0.11396775
-0.018969574
0.11563556
-0.018792545
0.11732381
-0.018579729
0.11902767
-0.018334006
0.12074278
-0.018058258
0.12246517
-0.017755354
0.1241913
-0.017428117
0.12591806
-0.017079308
0.1276427
-0.016711617
0.12936287
-0.01632765
0.13107659
-0.015929932
0.13278223
-0.01552092
0.13447854
-0.015103014
0.13616459
-0.014678617
0.13783983
-0.014250132
0.1395041
-0.013820252
0.14115763
-0.013391468
0.14280128
-0.01296848
0.14443607
-0.012551625
0.14606538
-0.012160643
0.14768927
-0.011762774
0.14932397
-0.01151229
0.15094739
-0.011013839
0.15266643
-0.011653695
-0.0098624956
0.11918899
-0.0043344784
0.11749638
-0.0060508659
0.11585686
-0.0073851461
0.11435433
-0.0084327835
0.11302502
-0.0095368261
0.11186646
-0.010653769
0.11088409
-0.011727628
0.11008421
-0.0127494
0.10946623
-0.013715816
0.10902555
-0.014622186
0.10875636
-0.015465374
0.108652
-0.016243202
0.10870486
-0.016953964
0.10890666
-0.017596661
0.10924864
-0.018170964
0.10972189
-0.018677027
0.11031736
-0.019115424
0.11102605
-0.01948713
0.11183909
-0.019793508
0.11274777
-0.020036265
0.11374371
-0.020217425
0.11481882
-0.020339301
0.11596539
-0.020404466
0.11717613
-0.02041571
0.11844418
-0.020376018
0.11976312
-0.02028852
0.12112704
-0.020156465
0.12253048
-0.01998317
0.12396847
-0.019771993
0.12543651
-0.019526299
0.12693058
-0.019249419
0.1284471
-0.018944638
0.12998295
-0.018615162
0.13153544
-0.01826411
0.1331023
-0.017894503
0.13468163
-0.017509268
0.13627196
-0.017111249
0.13787218
-0.016703228
0.13948154
-0.016287986
0.14109972
-0.015868304
0.14272676
-0.015447294
0.14436313
-0.01502784
0.14600995
-0.0146153
0.14766852
-0.014210196
0.14934234
-0.013834458
0.15103212
-0.01345256
0.15275226
-0.01323243
0.15448656
-0.012748133
0.15631922
-0.01348636
-0.011644125
0.13689596
-0.0017555074
0.134378
-0.0035329039
0.13181943
-0.0048265763
0.12946236
-0.0060757162
0.12733401
-0.0074084685
0.12541573
-0.0087354958
0.12371037
-0.010022269
0.12222302
-0.011262043
0.12095211
-0.012444912
0.11989189
-0.013561963
0.11903484
-0.014608325
0.11837262
-0.01558098
0.11789623
-0.016477575
0.11759614
-0.017296576
0.1174625
-0.018037316
0.11748527
-0.018699805
0.11765446
-0.01928461
0.11796014
-0.019792805
0.11839257
-0.020225941
0.1189423
-0.020585999
0.11960022
-0.02087534
0.12035759
-0.021096673
0.12120613
-0.02125301
0.12213804
-0.021347618
0.12314601
-0.021383986
0.12422326
-0.021365772
0.12536355
-0.021296753
0.12656117
-0.021180794
0.12781097
-0.021021792
0.12910832
-0.020823647
0.13044912
-0.020590217
0.13182978
-0.020325297
0.13324721
-0.02003259
0.13469879
-0.019715689
0.13618236
-0.019378077
0.13769621
-0.019023122
0.13923906
-0.018654097
0.14081003
-0.018274196
0.14240866
-0.017886612
0.14403489
-0.017494538
0.14568912
-0.017101525
0.14737216
-0.016710882
0.14908549
-0.01632863
0.15083082
-0.015955524
0.15261188
-0.015615512
0.15443015
-0.015270839
0.15629831
-0.015100586
0.15820615
-0.01465597
0.16021563
-0.015495839
-0.013658385
0.1500521
0.00077999387
0.14676315
-0.00024395865
0.14346582
-0.0015292382
0.14041804
-0.0030279378
0.13762314
-0.0046135754
0.13507488
-0.0061872321
0.13277508
-0.0077224706
0.13072383
-0.009210794
0.12891869
-0.010639773
0.12735446
-0.011997733
0.12602332
-0.013277179
0.12491585
-0.014473511
0.12402188
-0.015583607
0.12333076
-0.01660545
0.12283149
-0.017538049
0.12251297
-0.018381285
0.12236412
-0.019135764
0.12237404
-0.01980272
0.12253206
-0.020383959
0.12282785
-0.020881798
0.12325152
-0.021299009
0.12379362
-0.021638769
0.12444521
-0.021904602
0.12519793
-0.022100332
0.12604396
-0.022230025
0.12697613
-0.022297939
0.12798785
-0.022308468
0.12907314
-0.022266087
0.13022666
-0.022175312
0.13144366
-0.022040645
0.13271998
-0.021866539
0.13405204
-0.021657362
0.13543683
-0.021417374
0.13687184
-0.021150704
0.13835511
-0.020861345
0.13988515
-0.020553156
0.14146093
-0.020229882
0.14308191
-0.019895175
0.14474797
-0.019552676
0.14645946
-0.019206022
0.14821717
-0.018859242
0.15002238
-0.018516085
0.15187702
-0.018183269
0.15378327
-0.017861782
0.15574528
-0.017577516
0.15776522
-0.017290776
0.15985462
-0.017189987
0.16200773
-0.01680908
0.16426928
-0.017757397
-0.015970244
0.18890879
0.0053820954
-0.19351089
0.18509875
0.0035660788
0.18170672
0.0018627959
0.17856159
0.00011718749
0.17562604
-0.0016780166
0.17287501
-0.0034362072
0.17029029
-0.0051377551
0.1678629
-0.0067833947
0.16558893
-0.008365809
0.16346625
-0.0098750483
0.16149298
-0.011303914
0.15966703
-0.012647555
0.15798574
-0.013902318
0.15644582
-0.015065535
0.15504336
-0.016135589
0.15377389
-0.017111811
0.15263247
-0.017994348
0.15161382
-0.018784068
0.15071236
-0.019482494
0.1499223
-0.020091744
0.14923776
-0.020614467
0.14865278
-0.021053787
0.14816141
-0.021413237
0.14775779
-0.021696704
0.14743613
-0.021908366
0.14719082
-0.022052629
0.14701642
-0.022134075
0.14690773
-0.022157395
0.14685976
-0.02212734
0.14686778
-0.022048667
0.14692734
-0.021926098
0.14703425
-0.021764277
0.14718463
-0.021567746
0.14737484
-0.021340918
0.14760157
-0.021088074
0.14786177
-0.020813356
0.14815268
-0.020520795
0.14847184
-0.020214329
0.14881705
-0.019897892
0.14918645
-0.019575416
0.14957846
-0.019251258
0.14999186
-0.018929484
0.15042587
-0.018617282
0.15087998
-0.018315886
0.15135479
-0.018052327
0.15185015
-0.017786143
0.15237056
-0.017710388
0.15291169
-0.017350211
0.15349651
-0.018342221
-0.016562868
0.21685768
0.0087804267
-0.22025601
0.21338379
0.0070399664
0.21017098
0.0050756085
0.20706567
0.003222501
0.20401907
0.0013685797
0.20106215
-0.00047928613
0.19821179
-0.0022873925
0.19547249
-0.0040441031
0.19285017
-0.0057434889
0.19035166
-0.0073765315
0.18798214
-0.0089344001
0.18574503
-0.010410441
0.18364231
-0.011799599
0.18167469
-0.013097911
0.17984162
-0.014302523
0.17814149
-0.015411678
0.17657174
-0.016424603
0.17512907
-0.017341394
0.17380951
-0.01816294
0.17260862
-0.018890855
0.17152155
-0.019527398
0.17054317
-0.020075406
0.16966816
-0.020538221
0.16889107
-0.02091962
0.16820645
-0.021223745
0.16760885
-0.021455031
0.16709292
-0.021618141
0.16665342
-0.021717896
0.1662853
-0.021759216
0.16598369
-0.02174706
0.16574397
-0.021686375
0.16556174
-0.021582055
0.1654329
-0.0214389
0.16535358
-0.0212616
0.16532022
-0.021054713
0.16532953
-0.02082267
0.16537853
-0.020569789
0.1654645
-0.020300304
0.16558506
-0.020018451
0.16573812
-0.019728472
0.16592192
-0.019435056
0.16613506
-0.019142626
0.16637654
-0.018858763
0.16664587
-0.018585209
0.16694288
-0.01834934
0.16726881
-0.018112076
0.16762288
-0.018064461
0.1680134
-0.017740727
0.16842231
-0.018751133
-0.017036689
0.2437666
0.01150438
-0.24649055
0.24091616
0.0098904044
0.23806295
0.0079288191
0.23521599
0.0060694634
0.23233819
0.004246383
0.22945037
0.0024085345
0.22658375
0.0005792255
0.22375763
-0.0012179845
0.22098793
-0.0029737873
0.21829058
-0.0046791829
0.21567944
-0.0063232628
0.21316552
-0.0078965146
0.21075741
-0.0093914934
0.20846168
-0.010802186
0.20628297
-0.01212381
0.20422415
-0.013352859
0.20228658
-0.014487033
0.2004703
-0.015525112
0.19877423
-0.016466864
0.19719632
-0.017312952
0.19573378
-0.018064853
0.19438314
-0.018724771
0.19314047
-0.019295547
0.19200143
-0.019780579
0.19096142
-0.020183739
0.19001568
-0.020509287
0.18915933
-0.020761796
0.18838751
-0.02094607
0.18769537
-0.021067077
0.18707818
-0.021129876
0.18653137
-0.021139564
0.18605053
-0.021101214
0.18563148
-0.021019846
0.18527026
-0.020900383
0.18496319
-0.020747643
0.18470685
-0.020566326
0.18449809
-0.020361035
0.18433409
-0.020136297
0.18421229
-0.019896653
0.18413048
-0.019646667
0.18408678
-0.019391356
0.1840797
-0.019135543
0.18410805
-0.018887109
0.18417141
-0.018648571
0.18426888
-0.018446814
0.18440318
-0.018246377
0.18456791
-0.01822919
0.18478496
-0.017957773
0.18499042
-0.018956593
-0.017369254
0.26927437
0.013537332
-0.27130732
0.26710632
0.012058448
0.26476456
0.01027058
0.26232534
0.008508689
0.25979659
0.0067751332
0.25718849
0.0050166296
0.25452718
0.0032405433
0.25183681
0.0014723835
0.24913739
-0.00027436684
0.24644872
-0.0019905149
0.24379009
-0.0036646374
0.24117865
-0.0052850672
0.2386291
-0.0068419507
0.23615395
-0.0083270371
0.23376349
-0.0097333505
0.23146589
-0.01105525
0.22926731
-0.012288456
0.22717216
-0.013429964
0.22518324
-0.014477945
0.22330195
-0.015431657
0.22152845
-0.016291356
0.21986188
-0.017058205
0.21830051
-0.017734169
0.21684185
-0.018321926
0.21548288
-0.018824769
0.2142201
-0.01924651
0.2130497
-0.019591391
0.21196762
-0.019863988
0.21096968
-0.020069137
0.21005165
-0.020211844
0.20920931
-0.020297222
0.20843852
-0.020330427
0.20773527
-0.020316603
0.20709574
-0.020260848
0.20651628
-0.020168183
0.2059935
-0.020043545
0.20552425
-0.019891793
0.20510569
-0.019717734
0.20473524
-0.019526203
0.20441066
-0.019322088
0.20413004
-0.019110728
0.20389186
-0.018897367
0.20369487
-0.018690115
0.20353875
-0.018492459
0.20342205
-0.018330107
0.20334866
-0.018172986
0.2033074
-0.018187933
0.20333149
-0.01798187
0.20331574
-0.018940837
-0.017538381
0.29298514
0.014868473
-0.29431628
0.2915059
0.01353769
0.28978341
0.011993072
0.28788477
0.010407323
0.28584486
0.0088150434
0.28367449
0.0071870012
0.28139207
0.0055229648
0.27902084
0.003843612
0.27658211
0.0021643661
0.27409603
0.00049556041
0.27158281
-0.0011514203
0.26906218
-0.0027644328
0.26655245
-0.0043322225
0.26407022
-0.0058448067
0.26163023
-0.0072933571
0.25924524
-0.0086702578
0.25692601
-0.0099692265
0.25468136
-0.011185316
0.25251827
-0.012314858
0.25044202
-0.013355406
0.24845633
-0.014305664
0.24656352
-0.015165398
0.24476471
-0.015935351
0.24305992
-0.016617137
0.24144829
-0.017213143
0.23992821
-0.017726428
0.23849744
-0.018160622
0.23715327
-0.01851982
0.23589263
-0.018808496
0.23471219
-0.019031404
0.23360847
-0.019193504
0.23257792
-0.019299879
0.231617
-0.01935568
0.23072223
-0.019366075
0.22989025
-0.019336209
0.2291179
-0.019271187
0.22840218
-0.019176081
0.22774039
-0.01905594
0.22713006
-0.01891587
0.22656904
-0.018761069
0.22605549
-0.018597181
0.225588
-0.018429881
0.22516534
-0.01826745
0.22478734
-0.018114456
0.22445216
-0.017994935
0.22416457
-0.017885393
0.22390972
-0.017933086
0.22372917