/*--------------------------------*- C++ -*----------------------------------*\
  =========                 |
  \\      /  F ield         | OpenFOAM: The Open Source CFD Toolbox
   \\    /   O peration     | Website:  https://openfoam.org
    \\  /    A nd           | Version:  6
     \\/     M anipulation  |
\*---------------------------------------------------------------------------*/
FoamFile
{
    version     2.0;
    format      ascii;
    class       volScalarField;
    location    "184";
    object      pPrime2Mean;
}
// * * * * * * * * * * * * * * * * * * * * * * * * * * * * * * * * * * * * * //

dimensions      [0 4 -4 0 0 0 0];

internalField   nonuniform List<scalar> 
9200
(
0.061077731
0.050627302
0.041779852
0.036020351
0.031423428
0.027549155
0.024206259
0.021297211
0.0187571
0.016533939
0.014584664
0.012873182
0.011369013
0.010046268
0.0088828442
0.0078598443
0.0069612734
0.0061737936
0.005487533
0.0048896908
0.049525014
0.040972524
0.033820576
0.029120034
0.025349184
0.022161886
0.019407857
0.01701045
0.014918042
0.013089013
0.011488607
0.010087418
0.008860358
0.0077858629
0.0068452821
0.0060224457
0.0053034313
0.0046762459
0.004129742
0.0036480385
0.038692664
0.031965577
0.026405873
0.022702496
0.019707859
0.017164449
0.014961255
0.013041817
0.011367576
0.0099069768
0.0086331484
0.0075228519
0.006555795
0.0057141254
0.0049820716
0.0043457029
0.003792791
0.0033125489
0.0028941573
0.0025234159
0.028881253
0.023849323
0.019730652
0.016934162
0.01464455
0.012684915
0.01098069
0.0094943582
0.0081996819
0.0070743612
0.0060985343
0.0052542465
0.0045251866
0.0038965435
0.003354945
0.0028884337
0.0024864369
0.0021395893
0.0018386516
0.0015728721
0.020361595
0.016842054
0.013974388
0.011969966
0.010295812
0.0088452983
0.0075764223
0.0064687359
0.0055069951
0.0046768258
0.0039641004
0.0033550219
0.0028363665
0.0023957465
0.0020218409
0.0017045509
0.0014350445
0.0012056511
0.0010092713
0.00083869539
0.013372349
0.011133983
0.0092962593
0.0079484718
0.0067846802
0.0057564637
0.0048494631
0.004057714
0.0033750167
0.0027931347
0.0023021377
0.0018911882
0.00154932
0.0012660721
0.0010319298
0.00083856531
0.00067888686
0.00054694827
0.00043770658
0.0003467166
0.0081130723
0.006882689
0.0058316221
0.0049888554
0.0042179952
0.0035155289
0.0028888385
0.0023431603
0.0018788729
0.001491823
0.0011746929
0.00091850502
0.00071387115
0.00055187517
0.00042459488
0.0003253205
0.00024854752
0.00018986136
0.00014587795
0.00011401398
0.0047391177
0.0042099799
0.0036895049
0.0031885732
0.0026840205
0.0022032674
0.0017687046
0.0013929522
0.0010802171
0.00082834831
0.0006311935
0.00048072096
0.00036857934
0.0002870619
0.00022957722
0.00019077035
0.00016643065
0.00015334051
0.00014926956
0.00015271963
0.0033573169
0.0031984832
0.0029480778
0.0026184597
0.0022479453
0.0018803572
0.0015454334
0.0012588722
0.0010258615
0.00084436912
0.0007082645
0.00060980792
0.00054128064
0.00049586097
0.00046795301
0.00045318356
0.00044823518
0.00045066635
0.00045886917
0.00047179348
0.0040213282
0.0038888478
0.0036497999
0.0033180466
0.0029474447
0.0025827834
0.0022527264
0.0019715974
0.0017429508
0.0015633914
0.0014260195
0.0013229393
0.0012467153
0.0011910302
0.0011508466
0.0011222983
0.0011024833
0.0010892677
0.0010811427
0.0010769607
0.14506057
0.12199792
0.10082494
0.087437083
0.076807421
0.06788572
0.060204851
0.053512799
0.047653546
0.042504472
0.0379654
0.033953394
0.030398986
0.027243448
0.024436776
0.021936141
0.019704685
0.0177094
0.015919297
0.014316451
0.14321246
0.12032548
0.099395103
0.08616112
0.075664695
0.066856787
0.059274397
0.052669658
0.046888347
0.041809025
0.037332464
0.033376529
0.029872442
0.02676208
0.023995971
0.021531774
0.019333115
0.017367469
0.01560367
0.014024419
0.13944285
0.11701431
0.096608132
0.083703413
0.073479771
0.064902533
0.057518672
0.051088089
0.045460614
0.040517732
0.036162535
0.032314783
0.028907279
0.025883255
0.023194408
0.020799432
0.018662936
0.016753359
0.015039643
0.01350481
0.13381768
0.11214487
0.092544563
0.080140271
0.070321739
0.062085527
0.054994964
0.048820931
0.043419331
0.038676212
0.034498302
0.030808312
0.027541494
0.024643143
0.022066721
0.019772442
0.017726293
0.015898106
0.014257444
0.012787143
0.12649059
0.10585537
0.087322118
0.075576989
0.066285076
0.058490961
0.051780656
0.045938865
0.04082936
0.036344219
0.032395007
0.028908364
0.025822789
0.023086298
0.020654656
0.018490023
0.016560056
0.014836307
0.01328982
0.011903016
0.11767038
0.098328828
0.081093464
0.070148095
0.061489643
0.05422623
0.047972404
0.042529173
0.037769739
0.033593496
0.029917907
0.026674407
0.023805456
0.021262382
0.019003736
0.016994006
0.015202743
0.013603372
0.012169393
0.010883314
0.10761054
0.089784741
0.074039294
0.064011339
0.056075287
0.049416096
0.043681881
0.038691974
0.034330361
0.030504843
0.027139677
0.024171849
0.021548421
0.019224568
0.017162081
0.01532814
0.013694414
0.012236218
0.010930217
0.0097601261
0.096600033
0.080471263
0.066362515
0.057342834
0.050197505
0.044198768
0.039032264
0.034537184
0.030609369
0.027165912
0.024138604
0.021470624
0.019114193
0.01702883
0.015179998
0.013537963
0.012076845
0.010773959
0.009609553
0.008569659
0.084952875
0.07065598
0.058280933
0.050330634
0.044021723
0.038720845
0.034153789
0.030180552
0.026709638
0.023668119
0.020995914
0.018642912
0.016566956
0.014732325
0.01310855
0.011669382
0.010391861
0.0092557467
0.0082453633
0.0073491234
0.072996744
0.060618439
0.050019497
0.043166576
0.037715361
0.033129844
0.029176877
0.025737568
0.022733583
0.020102419
0.017792501
0.015760746
0.013970892
0.012392228
0.010998605
0.0097676223
0.0086799924
0.0077194455
0.0068757383
0.0061377475
0.012625469
0.010939589
0.0095100833
0.0082689952
0.0072087446
0.0063005488
0.005519437
0.0048439909
0.0042567988
0.0037437223
0.0032933122
0.0028963949
0.0025456052
0.0022349515
0.0019594911
0.0017150931
0.0014982572
0.0013059771
0.0011356399
0.00098495117
0.00085187814
0.00073460564
0.00063150239
0.00054109459
0.00046204557
0.00039313981
0.00033327046
0.00028142929
0.00023669853
0.0001982441
0.00016530975
0.00013721183
0.00011333452
9.3125256e-05
7.6090431e-05
6.1791026e-05
4.9838605e-05
3.9890995e-05
3.1648755e-05
2.4850311e-05
1.9270811e-05
1.471182e-05
1.1015905e-05
8.0181643e-06
5.6551247e-06
3.7069724e-06
2.3625398e-06
1.0840868e-06
1.4330695e-06
2.3529154e-06
0.012380362
0.010750502
0.0093619645
0.0081523516
0.0071179461
0.0062306111
0.0054656281
0.0048023899
0.0042243779
0.0037181628
0.0032728872
0.0028798656
0.0025320926
0.0022238235
0.001950283
0.0017074539
0.0014919137
0.0013007108
0.001131272
0.00098133356
0.00084888685
0.00073213653
0.00062946787
0.00053942103
0.00046067115
0.00039201279
0.00033234765
0.00028067474
0.00023608241
0.00019774172
0.00016490073
0.00013687937
0.00011306482
9.2906957e-05
7.5914215e-05
6.1649246e-05
4.9724987e-05
3.980039e-05
3.157694e-05
2.4793825e-05
1.9226818e-05
1.4678008e-05
1.0990389e-05
7.9994492e-06
5.6419852e-06
3.698462e-06
2.3580682e-06
1.0814625e-06
1.4243788e-06
2.3071352e-06
0.011948941
0.010419909
0.0091055376
0.0079536722
0.0069656977
0.0061151692
0.0053781441
0.0047356343
0.0041728911
0.0036778897
0.003240886
0.0028540705
0.0025110655
0.0022065456
0.0019360127
0.001695635
0.0014821153
0.0012925885
0.0011245451
0.00097576933
0.00084429093
0.00072834582
0.00062634546
0.00053685215
0.00045855978
0.00039027885
0.0003309246
0.00027950745
0.00023512536
0.00019695743
0.00016425839
0.00013635372
0.00011263514
9.2556289e-05
7.5628637e-05
6.1417334e-05
4.9537349e-05
3.964929e-05
3.1455998e-05
2.4697775e-05
1.9151308e-05
1.4619453e-05
1.094585e-05
7.966547e-06
5.618795e-06
3.6834062e-06
2.3502825e-06
1.0768666e-06
1.4070193e-06
2.2177223e-06
0.011357662
0.0099681777
0.0087591532
0.0076907116
0.0067678405
0.0059673039
0.005267361
0.0046517212
0.0041083824
0.0036274768
0.0032008406
0.0028218122
0.0024848062
0.0021850161
0.0019182821
0.0016809984
0.0014700223
0.0012825985
0.0011162981
0.000968968
0.0008386877
0.00072373408
0.00062255269
0.00053373459
0.00045599792
0.00038817369
0.00032919437
0.00027808486
0.00023395522
0.00019599456
0.00016346592
0.00013570153
0.00011209866
9.2115457e-05
7.5267032e-05
6.1121484e-05
4.9296157e-05
3.9453593e-05
3.1298195e-05
2.4571552e-05
1.905141e-05
1.4541509e-05
1.0886247e-05
7.9223326e-06
5.5875542e-06
3.663159e-06
2.3398411e-06
1.0708728e-06
1.380991e-06
2.0892717e-06
0.010632624
0.0094160967
0.0083417277
0.0073815734
0.0065402836
0.0057996449
0.005142792
0.0045576839
0.0040360415
0.0035708385
0.0031558317
0.0027856229
0.0024554626
0.0021610922
0.0018987121
0.0016649616
0.0014568718
0.0012718146
0.001107458
0.0009617246
0.00083275491
0.0007188756
0.0006185734
0.0005304737
0.00045332337
0.00038597733
0.00032738793
0.00027659657
0.00023272686
0.00019497904
0.00016262516
0.00013500479
0.00011152106
9.1636813e-05
7.4870909e-05
6.0794426e-05
4.9027072e-05
3.9233286e-05
3.1118996e-05
2.4427027e-05
1.8936153e-05
1.4450964e-05
1.0816606e-05
7.8704513e-06
5.5507937e-06
3.6394259e-06
2.3275486e-06
1.0642144e-06
1.3465526e-06
1.9285271e-06
0.0097962184
0.0087826085
0.0078703617
0.0070410258
0.0062946773
0.0056203008
0.0050096705
0.0044569908
0.0039583961
0.0035100231
0.0031076695
0.0027471815
0.0024246109
0.0021362438
0.0018786572
0.0016487566
0.0014437702
0.0012612196
0.0010988889
0.00095479217
0.00082714336
0.00071432862
0.00061488314
0.00052747203
0.00045087479
0.00038397303
0.00032574089
0.00027523747
0.00023160065
0.00019404211
0.00016184301
0.00013435009
0.00011097211
9.1176289e-05
7.4484853e-05
6.0471495e-05
4.875793e-05
3.9010159e-05
3.0935329e-05
2.4277249e-05
1.8815493e-05
1.4355327e-05
1.0742494e-05
7.8149435e-06
5.5113057e-06
3.6140761e-06
2.3142471e-06
1.0576723e-06
1.3041232e-06
1.743674e-06
0.0088703345
0.0080866835
0.007360305
0.0066780194
0.0060348581
0.005430039
0.0048673984
0.0043489781
0.0038753652
0.0034455942
0.0030573858
0.0027077982
0.002393688
0.002111924
0.0018595138
0.0016336823
0.0014318982
0.0012518686
0.001091521
0.00094898199
0.00082255414
0.00071069412
0.00061199337
0.00052516198
0.00044901548
0.00038246426
0.00032450534
0.00027421584
0.00023074777
0.00019332376
0.00016123335
0.00013382962
0.00011052606
9.0793361e-05
7.4156258e-05
6.0190247e-05
4.8518306e-05
3.8807346e-05
3.0765161e-05
2.4136045e-05
1.8699967e-05
1.4262517e-05
1.0669758e-05
7.7600208e-06
5.4719689e-06
3.5890114e-06
2.3007496e-06
1.0519991e-06
1.2542738e-06
1.5435716e-06
0.0078821871
0.0073499865
0.0068232609
0.0062913109
0.0057528258
0.0052204912
0.0047097897
0.0042299807
0.0037854459
0.0033775976
0.0030059532
0.0026689128
0.0023643142
0.0020897618
0.0018428221
0.0016211402
0.0014225001
0.0012448467
0.0010862883
0.00094508979
0.0008196596
0.00070853622
0.00061037449
0.00052393366
0.00044806734
0.00038171536
0.00032389732
0.00027370747
0.0002303106
0.00019293879
0.00016088832
0.000133517
0.00011024145
9.0534342e-05
7.3921574e-05
5.9979206e-05
4.8330393e-05
3.8642e-05
3.0621649e-05
2.4013425e-05
1.8597106e-05
1.4178132e-05
1.0602473e-05
7.7085815e-06
5.4347037e-06
3.5654743e-06
2.287437e-06
1.047683e-06
1.1976579e-06
1.3371198e-06
0.00685866
0.006582004
0.006247096
0.0058529641
0.0054182002
0.0049668719
0.0045188622
0.0040872061
0.0036793952
0.0032992333
0.0029482541
0.0026265632
0.0023333405
0.0020672052
0.0018264839
0.0016093885
0.0014141218
0.0012389384
0.0010821763
0.00094227114
0.0008177599
0.00070727779
0.00060955297
0.00052340045
0.00044771622
0.00038147218
0.00032371202
0.00027354783
0.00023015739
0.00019278195
0.00016072405
0.00013334551
0.00011006532
9.0357325e-05
7.3747738e-05
5.9812393e-05
4.8173884e-05
3.8498358e-05
3.0492667e-05
2.3900164e-05
1.8499995e-05
1.409708e-05
1.0536968e-05
7.6580528e-06
5.3977221e-06
3.5422986e-06
2.2733274e-06
1.0444424e-06
1.1352081e-06
1.1334495e-06
0.0058398546
0.0057592661
0.0055774822
0.0053125087
0.0049923365
0.0046398747
0.0042719074
0.0039025559
0.0035424125
0.003198287
0.0028742369
0.0025725058
0.0022940165
0.0020387323
0.0018059892
0.0015947497
0.0014037715
0.0012317163
0.0010772219
0.00093894518
0.00081558754
0.00070590736
0.00060872571
0.00052292795
0.00044746354
0.00038134488
0.00032364617
0.00027350222
0.00023010742
0.00019271482
0.00016063509
0.00013323533
0.00010993766
9.0217546e-05
7.3601678e-05
5.9665662e-05
4.8031407e-05
3.8364151e-05
3.0369757e-05
2.3790612e-05
1.8405022e-05
1.4017177e-05
1.0472035e-05
7.6078126e-06
5.3607673e-06
3.51926e-06
2.2582788e-06
1.0420065e-06
1.0692932e-06
9.4212167e-07
0.0047309857
0.0047648068
0.0047079957
0.0045665577
0.00436741
0.0041272465
0.0038575231
0.0035708123
0.0032787246
0.002989809
0.0027099825
0.0024433459
0.0021925422
0.0019590195
0.0017433454
0.0015454833
0.0013649903
0.0012011595
0.0010531225
0.00091992153
0.00080055797
0.00069402378
0.00059932215
0.00051548078
0.00044156059
0.00037666154
0.00031992668
0.00027054504
0.00022775377
0.00019083959
0.00015913971
0.0001320421
0.00010898531
8.9457636e-05
7.2995889e-05
5.9183585e-05
4.7648833e-05
3.806175e-05
3.0132032e-05
2.3605133e-05
1.8261731e-05
1.3908133e-05
1.039046e-05
7.5493079e-06
5.3193909e-06
3.4954976e-06
2.2406514e-06
1.0407158e-06
1.000875e-06
7.7378128e-07
0.003666631
0.003762772
0.0037837555
0.0037302284
0.0036238857
0.0034769154
0.0032960317
0.0030908915
0.0028718664
0.0026471305
0.0024227921
0.0022035622
0.0019929194
0.0017932113
0.0016058826
0.0014317081
0.0012709687
0.0011235857
0.0009892276
0.0008673904
0.00075745662
0.00065873734
0.00057050263
0.00049200336
0.00042248732
0.00036121101
0.00030744881
0.00026049994
0.000219694
0.00018439523
0.00015400574
0.00012796774
0.000105765
8.6923437e-05
7.1011006e-05
5.7636983e-05
4.6450682e-05
3.7139633e-05
2.9427741e-05
2.3072129e-05
1.7862751e-05
1.361395e-05
1.0177048e-05
7.399876e-06
5.21598e-06
3.433909e-06
2.1964676e-06
1.0307689e-06
9.1394925e-07
6.1394597e-07
0.0027514939
0.0028882311
0.0029635962
0.0029777516
0.002944183
0.0028717872
0.0027646456
0.0026296075
0.002475198
0.0023087113
0.0021359466
0.001961711
0.0017898788
0.0016233604
0.0014642263
0.0013138801
0.0011731998
0.0010426509
0.00092238403
0.00081231589
0.00071219107
0.00062163007
0.00054016607
0.00046727304
0.00040238759
0.00034492596
0.00029429746
0.00024991526
0.00021120505
0.00017761198
0.00014860615
0.00012368676
0.00010238522
8.4267118e-05
6.8933386e-05
5.6020566e-05
4.5200446e-05
3.6179029e-05
2.86953e-05
2.2518764e-05
1.7449204e-05
1.3309515e-05
9.956431e-06
7.245652e-06
5.1088869e-06
3.3706066e-06
2.1488338e-06
1.0221229e-06
8.1968176e-07
4.6409285e-07
0.0019824232
0.00213994
0.0022487075
0.0023098937
0.0023297075
0.0023140652
0.0022656189
0.002188822
0.0020899916
0.0019751301
0.0018493497
0.0017171348
0.0015823481
0.0014481229
0.0013168877
0.0011904693
0.0010701895
0.000956949
0.0008513067
0.00075355036
0.00066375588
0.00058183531
0.00050757586
0.00044067145
0.00038074809
0.00032738458
0.0002801293
0.00023851406
0.00020206546
0.00017031425
0.00014280288
0.00011909152
9.8762758e-05
8.1424966e-05
6.6714695e-05
5.429803e-05
4.387115e-05
3.5160121e-05
2.7920326e-05
2.1934726e-05
1.7013803e-05
1.2989705e-05
9.7250976e-06
7.0840687e-06
4.9965218e-06
3.3039185e-06
2.0974176e-06
1.013194e-06
7.2486323e-07
3.3605803e-07
0.0013639301
0.0015219739
0.0016447825
0.0017332532
0.0017881719
0.0018125449
0.0018079372
0.0017769378
0.0017237045
0.0016527173
0.0015681377
0.0014738261
0.0013733038
0.0012696176
0.0011652913
0.0010623588
0.00096241456
0.00086666372
0.00077597648
0.00069094253
0.00061192075
0.00053908243
0.00047244831
0.00041192013
0.00035730717
0.00030834869
0.0002647327
0.00022611191
0.0001921171
0.00016236831
0.0001364842
0.00011408969
9.4822048e-05
7.8335671e-05
6.4305612e-05
5.2430016e-05
4.2431629e-05
3.4058426e-05
2.7083739e-05
2.1305268e-05
1.6545258e-05
1.2645945e-05
9.4766448e-06
6.9103197e-06
4.8755055e-06
3.2311443e-06
2.0409271e-06
1.0022704e-06
6.333673e-07
2.3604068e-07
0.0008902329
0.0010326218
0.0011532072
0.0012516718
0.0013253415
0.0013746491
0.0014000158
0.0014025649
0.0013846022
0.0013490691
0.0012990293
0.0012375309
0.0011675237
0.0010917234
0.0010125188
0.00093194887
0.00085170947
0.00077317117
0.0006974062
0.00062522267
0.00055720027
0.00049372438
0.00043501747
0.00038116746
0.00033215291
0.00028786506
0.00024812716
0.00021271116
0.00018135222
0.00015376118
0.0001296351
0.00010866619
9.054911e-05
7.4986937e-05
6.1695723e-05
5.0407964e-05
4.0875008e-05
3.2868524e-05
2.6181327e-05
2.0627146e-05
1.6041079e-05
1.2276301e-05
9.2095765e-06
6.7231454e-06
4.7449212e-06
3.1512419e-06
1.979147e-06
9.881248e-07
5.483584e-07
1.6617026e-07
0.00054596991
0.00066281821
0.00076946389
0.00086435589
0.00094313226
0.0010043685
0.0010473678
0.0010720724
0.0010793167
0.0010706576
0.0010480457
0.0010136356
0.00096967252
0.00091836995
0.00086180203
0.00080184059
0.00074012698
0.00067806138
0.00061680512
0.00055729352
0.0005002553
0.00044623472
0.00039561453
0.00034863848
0.00030543275
0.00026602573
0.0002303661
0.00019833917
0.00016978135
0.00014449308
0.00012225002
0.00010281272
8.5934865e-05
7.1370048e-05
5.8877292e-05
4.822537e-05
3.9196048e-05
3.1586336e-05
2.5210003e-05
1.9898065e-05
1.5499582e-05
1.1879522e-05
8.9229601e-06
6.5217564e-06
4.604233e-06
3.0634877e-06
1.9122072e-06
9.69651e-07
4.7223207e-07
1.2470234e-07
0.00031130501
0.00039845155
0.0004842084
0.00056625659
0.00063986051
0.00070257071
0.00075282689
0.000789676
0.0008128645
0.0008228212
0.00082048363
0.0008071324
0.00078427314
0.00075352745
0.00071653217
0.00067486186
0.00062997509
0.00058318158
0.00053562454
0.00048827483
0.00044193412
0.00039724396
0.00035469862
0.00031465994
0.00027737313
0.00024298259
0.0002115473
0.00018305533
0.00015743743
0.00013457939
0.00011433321
9.6526991e-05
8.0973566e-05
6.7477855e-05
5.5843035e-05
4.5875536e-05
3.7388982e-05
3.0207134e-05
2.4166032e-05
1.9115169e-05
1.4918634e-05
1.145403e-05
8.615652e-06
6.3052735e-06
4.4528925e-06
2.9672763e-06
1.8403819e-06
9.4598638e-07
4.063202e-07
1.0643111e-07
0.00016546765
0.00022290826
0.00028490731
0.00034889402
0.00041054307
0.00046708456
0.00051648861
0.00055723442
0.00058834459
0.00060942111
0.00062057431
0.00062231233
0.00061544383
0.00060098918
0.00058009354
0.00055395127
0.0005237453
0.00049060009
0.00045554901
0.00041951434
0.00038329664
0.00034757164
0.00031289265
0.00027969692
0.00024831475
0.0002189801
0.00019184202
0.0001669764
0.00014439744
0.00012406874
0.00010591365
8.9824768e-05
7.5672462e-05
6.3312417e-05
5.2592099e-05
4.3356198e-05
3.5451076e-05
2.8728256e-05
2.3047104e-05
1.8276596e-05
1.4296822e-05
1.0998806e-05
8.2869572e-06
6.0732317e-06
4.2907036e-06
2.8624365e-06
1.7642192e-06
9.1679824e-07
3.5098645e-07
1.0398936e-07
8.8835494e-05
0.00011921022
0.00015761938
0.0002016216
0.00024766534
0.00029313849
0.00033592876
0.00037427739
0.00040681396
0.00043261492
0.00045119434
0.00046244828
0.00046659162
0.000464095
0.00045561944
0.00044195161
0.00042394642
0.00040247846
0.0003784021
0.00035252162
0.00032557091
0.00029820042
0.00027097042
0.00024434922
0.00021871518
0.00019436162
0.00017150358
0.00015028585
0.00013079167
0.00011305167
9.7052733e-05
8.2746526e-05
7.0057388e-05
5.8889586e-05
4.9133748e-05
4.0672441e-05
3.3384892e-05
2.7150845e-05
2.1853639e-05
1.7382466e-05
1.3634192e-05
1.0513933e-05
7.9370373e-06
5.82588e-06
4.1180349e-06
2.7493831e-06
1.6845612e-06
8.8237667e-07
3.0585802e-07
1.0963237e-07
6.4147305e-05
7.149685e-05
8.8448229e-05
0.00011290419
0.00014218042
0.00017408088
0.00020669527
0.00023830135
0.00026741234
0.00029284855
0.0003137632
0.00032962881
0.00034020832
0.00034551989
0.00034579522
0.00034143294
0.00033295139
0.00032094517
0.00030604651
0.00028889233
0.00027009801
0.00025023803
0.00022983225
0.00020933733
0.00018914243
0.00016956841
0.00015086974
0.00013323841
0.0001168093
0.00010166648
8.7849948e-05
7.5362656e-05
6.4177297e-05
5.424283e-05
4.5490488e-05
3.7839181e-05
3.1200214e-05
2.5481298e-05
2.0589865e-05
1.643565e-05
1.2932792e-05
1.0000974e-05
7.5671606e-06
5.564342e-06
3.9359172e-06
2.6291616e-06
1.6025156e-06
8.4360731e-07
2.7009625e-07
1.1692068e-07
7.6987843e-05
6.5830967e-05
6.4508194e-05
7.1342253e-05
8.4458041e-05
0.00010216729
0.00012291787
0.00014520901
0.00016764179
0.00018899558
0.0002082712
0.00022470346
0.00023775932
0.00024712728
0.00025269824
0.00025453832
0.0002528568
0.0002479725
0.00024028119
0.00023022554
0.00021826832
0.00020487008
0.00019047151
0.00017548023
0.00016026152
0.00014513269
0.00013036048
0.00011616096
0.00010270135
9.0103328e-05
7.8447424e-05
6.7777979e-05
5.8108488e-05
4.9426986e-05
4.1701271e-05
3.4883803e-05
2.8916148e-05
2.3732899e-05
1.9265032e-05
1.5442655e-05
1.2197279e-05
9.4633634e-06
7.1799432e-06
5.2907331e-06
3.7460805e-06
2.5033924e-06
1.5193602e-06
8.0179173e-07
2.4255948e-07
1.2174467e-07
0.00011577519
9.0505323e-05
7.4462895e-05
6.637512e-05
6.5045751e-05
6.927996e-05
7.7931923e-05
8.9814994e-05
0.00010374398
0.00011860746
0.0001334155
0.00014732486
0.00015965373
0.00016988908
0.0001776857
0.00018285647
0.00018535575
0.00018525836
0.00018273621
0.00017803448
0.00017144851
0.00016330253
0.00015393108
0.00014366364
0.00013281241
0.0001216633
0.00011046962
9.9448555e-05
8.8779659e-05
7.8605254e-05
6.9032188e-05
6.0134655e-05
5.1957726e-05
4.4521311e-05
3.7824289e-05
3.1848603e-05
2.6563169e-05
2.1927457e-05
1.7894687e-05
1.4414563e-05
1.143559e-05
8.9068576e-06
6.7796206e-06
5.0082902e-06
3.5509919e-06
2.3742019e-06
1.4364732e-06
7.5844039e-07
2.2190017e-07
1.2245726e-07
0.00017148524
0.00013603038
0.00010874098
8.8687384e-05
7.5198752e-05
6.7503405e-05
6.4837832e-05
6.6348337e-05
7.1119148e-05
7.8234015e-05
8.6820123e-05
9.6075808e-05
0.00010529227
0.0001138711
0.00012133536
0.00012733303
0.00013163355
0.00013411888
0.00013477058
0.00013365408
0.00013090172
0.0001266954
0.00012125009
0.00011479871
0.00010757915
9.9823488e-05
9.1749529e-05
8.3554555e-05
7.541126e-05
6.7465485e-05
5.9835559e-05
5.2612931e-05
4.5863792e-05
3.9631425e-05
3.3939025e-05
2.8792759e-05
2.4184894e-05
2.0096829e-05
1.6501915e-05
1.3368004e-05
1.0659661e-05
8.3400275e-06
6.3723591e-06
4.7215269e-06
3.3539028e-06
2.2441479e-06
1.3552781e-06
7.1506285e-07
2.0662252e-07
1.1925203e-07
0.00023726264
0.00019493678
0.00015952898
0.00013037809
0.00010719128
8.9528952e-05
7.6947965e-05
6.8898213e-05
6.4736165e-05
6.3773057e-05
6.531043e-05
6.866415e-05
7.3186101e-05
7.8284902e-05
8.3442875e-05
8.8227487e-05
9.2297169e-05
9.5402073e-05
9.7380447e-05
9.8151382e-05
9.7704828e-05
9.6089876e-05
9.3402215e-05
8.9771564e-05
8.5349796e-05
8.0300234e-05
7.4788396e-05
6.8974436e-05
6.300726e-05
5.7020331e-05
5.1128983e-05
4.5429093e-05
3.9996887e-05
3.4889652e-05
3.0147148e-05
2.579349e-05
2.183932e-05
1.8284099e-05
1.5118392e-05
1.2326036e-05
9.8861257e-06
7.7747824e-06
5.9666184e-06
4.4364519e-06
3.1589646e-06
2.1162244e-06
1.2772794e-06
6.7306159e-07
1.9522163e-07
1.1324207e-07
0.00030801404
0.00026149256
0.00022062928
0.0001849621
0.00015445036
0.00012889638
0.00010810276
9.1769115e-05
7.9493894e-05
7.0809598e-05
6.5208728e-05
6.2161263e-05
6.1132246e-05
6.160084e-05
6.3078161e-05
6.5121904e-05
6.7347196e-05
6.9433681e-05
7.1128865e-05
7.2247929e-05
7.2670433e-05
7.23345e-05
7.1229193e-05
6.9385766e-05
6.6868443e-05
6.3765281e-05
6.0179617e-05
5.6222379e-05
5.2005542e-05
4.7636801e-05
4.3215526e-05
3.8829913e-05
3.4555262e-05
3.045321e-05
2.657177e-05
2.2946009e-05
1.9599178e-05
1.6544151e-05
1.3785024e-05
1.1318774e-05
9.136872e-06
7.2268281e-06
5.5734999e-06
4.160808e-06
2.9713798e-06
1.9939247e-06
1.2041563e-06
6.3371733e-07
1.8639155e-07
1.0568774e-07
0.00038003728
0.00033140148
0.00028725103
0.00024726641
0.00021156051
0.00018009969
0.00015286057
0.00012973164
0.0001105072
9.4911774e-05
8.261744e-05
7.3254346e-05
6.642267e-05
6.170741e-05
5.8693812e-05
5.6981539e-05
5.6196915e-05
5.6002942e-05
5.6106766e-05
5.6264379e-05
5.6282556e-05
5.6018242e-05
5.5375751e-05
5.4302238e-05
5.2781946e-05
5.0829692e-05
4.8484096e-05
4.5800946e-05
4.2846993e-05
3.9694469e-05
3.6416411e-05
3.3082942e-05
2.9758451e-05
2.6499668e-05
2.3354542e-05
2.0361793e-05
1.755103e-05
1.4943295e-05
1.2551913e-05
1.0383534e-05
8.439276e-06
6.7159193e-06
5.2069816e-06
3.9042672e-06
2.7975582e-06
1.8813562e-06
1.1379065e-06
5.9826788e-07
1.7925523e-07
9.7603946e-08
0.00045070591
0.00040151911
0.00035578053
0.00031327107
0.00027418517
0.00023859184
0.00020658076
0.00017817237
0.00015330725
0.00013186261
0.00011366279
9.8483959e-05
8.6060591e-05
7.6095272e-05
6.8270173e-05
6.2258586e-05
5.7735993e-05
5.4390276e-05
5.1930666e-05
5.0094958e-05
4.8654751e-05
4.7418609e-05
4.6233213e-05
4.4982675e-05
4.3586304e-05
4.1995151e-05
4.0187681e-05
3.8164976e-05
3.5945763e-05
3.3561581e-05
3.1052306e-05
2.8462194e-05
2.5836563e-05
2.3219144e-05
2.0650113e-05
1.8164754e-05
1.5792694e-05
1.3557611e-05
1.1477339e-05
9.5642596e-06
7.8259089e-06
6.2657443e-06
4.8839025e-06
3.678469e-06
2.6451819e-06
1.7833243e-06
1.0809639e-06
5.6801049e-07
1.7349081e-07
8.9687487e-08
0.00051821229
0.00046960457
0.00042356012
0.00037993055
0.0003389426
0.0003007228
0.00026542646
0.00023315825
0.0002039597
0.00017782028
0.00015468302
0.00013444513
0.00011696008
0.00010204284
8.9477215e-05
7.9023894e-05
7.0428938e-05
6.3432425e-05
5.7776873e-05
5.3214932e-05
4.9516014e-05
4.647155e-05
4.3898778e-05
4.1642968e-05
3.9578172e-05
3.7606639e-05
3.5657093e-05
3.3682135e-05
3.1655043e-05
2.9566236e-05
2.7419636e-05
2.522914e-05
2.3015376e-05
2.0802837e-05
1.8617488e-05
1.648486e-05
1.4428636e-05
1.2469682e-05
1.0625494e-05
8.9099815e-06
7.3335237e-06
5.9032786e-06
4.6235704e-06
3.4968036e-06
2.5231072e-06
1.7053258e-06
1.0362411e-06
5.4438164e-07
1.6930732e-07
8.2386903e-08
0.00058136347
0.00053411304
0.00048869049
0.00044499816
0.00040326361
0.00036363979
0.00032631327
0.0002914361
0.00025911333
0.00022941045
0.00020235605
0.00017793983
0.00015611174
0.00013678371
0.00011983338
0.00010510879
9.243387e-05
8.1614717e-05
7.2446266e-05
6.4719048e-05
5.8225661e-05
5.2766613e-05
4.8155332e-05
4.4222125e-05
4.0817012e-05
3.7811383e-05
3.5098559e-05
3.2593351e-05
3.023079e-05
2.7964209e-05
2.5762895e-05
2.3609483e-05
2.1497298e-05
1.9427765e-05
1.7408034e-05
1.544888e-05
1.3562953e-05
1.1763369e-05
1.0062664e-05
8.4720753e-06
7.0011202e-06
5.6574518e-06
4.4468681e-06
3.3738392e-06
2.4410206e-06
1.6533808e-06
1.0070457e-06
5.2896567e-07
1.672869e-07
7.5978099e-08
0.00063942144
0.00059402662
0.00054986117
0.00050686522
0.00046524871
0.00042517089
0.00038682632
0.00035038794
0.00031599567
0.00028376156
0.00025377072
0.00022607811
0.0002007059
0.00017764296
0.00015684589
0.00013824087
0.00012172658
0.00010717785
9.4450237e-05
8.338504e-05
7.381462e-05
6.5567694e-05
5.8474387e-05
5.2370772e-05
4.7102761e-05
4.2529175e-05
3.8523948e-05
3.4977435e-05
3.1796895e-05
2.8906202e-05
2.6244946e-05
2.3767046e-05
2.1439023e-05
1.9238096e-05
1.7150217e-05
1.5168164e-05
1.3289779e-05
1.1516412e-05
9.8516134e-06
8.3000852e-06
6.8668958e-06
5.5569667e-06
4.3747336e-06
3.3243013e-06
2.4087841e-06
1.6336521e-06
9.9685065e-07
5.2341448e-07
1.6817834e-07
7.0612797e-08
0.00069197721
0.00064871732
0.00060620808
0.00056441927
0.00052353372
0.00048370506
0.00044512123
0.00040795831
0.00037237071
0.00033849475
0.00030644882
0.00027632982
0.00024820975
0.00022213392
0.00019812021
0.00017615902
0.00015621404
0.00013822377
0.00012210398
0.00010775084
9.5044621e-05
8.3853783e-05
7.4039224e-05
6.5458522e-05
5.7969959e-05
5.1436136e-05
4.5727076e-05
4.0722672e-05
3.6314482e-05
3.2406816e-05
2.8917186e-05
2.5776178e-05
2.2926831e-05
2.0323656e-05
1.7931374e-05
1.5723524e-05
1.3681004e-05
1.1790662e-05
1.0043978e-05
8.4359037e-06
6.9638868e-06
5.6271093e-06
4.4258863e-06
3.3615064e-06
2.4353994e-06
1.6518083e-06
1.0089022e-06
5.2927183e-07
1.7270634e-07
6.6353176e-08
0.00073885299
0.00069783812
0.00065719679
0.00061692356
0.00057717046
0.00053807919
0.00049982293
0.00046256998
0.0004264757
0.00039168509
0.00035833255
0.00032653856
0.00029640621
0.00026801884
0.00024143835
0.00021670398
0.00019383162
0.00017281375
0.00015362019
0.00013619947
0.00012048097
0.00010637745
9.3788195e-05
8.2602289e-05
7.2702158e-05
6.3966997e-05
5.6276058e-05
4.9511604e-05
4.3561444e-05
3.832097e-05
3.3694661e-05
2.9597043e-05
2.595314e-05
2.2698476e-05
1.9778684e-05
1.7148823e-05
1.4772478e-05
1.2620742e-05
1.0671146e-05
8.9066095e-06
7.3144673e-06
5.8856266e-06
4.6138233e-06
3.495248e-06
2.5275809e-06
1.7121168e-06
1.0456706e-06
5.4770793e-07
1.8141925e-07
6.3200672e-08
0.00078001873
0.00074122906
0.00070252007
0.00066390824
0.00062551472
0.00058746675
0.00054991907
0.00051302636
0.00047693676
0.00044179381
0.00040773606
0.00037489423
0.00034338805
0.00031332386
0.00028479253
0.00025786767
0.00023260408
0.00020903668
0.00018718003
0.00016702838
0.00014855636
0.00013172018
0.0001164594
0.00010269918
9.0352819e-05
7.9324576e-05
6.9512595e-05
6.0811779e-05
5.3116545e-05
4.6323305e-05
4.0332618e-05
3.5050937e-05
3.0391936e-05
2.6277391e-05
2.2637667e-05
1.9411824e-05
1.6547417e-05
1.4000047e-05
1.173274e-05
9.7152145e-06
7.923104e-06
6.3372041e-06
4.9427361e-06
3.7288802e-06
2.6877624e-06
1.8161605e-06
1.1080826e-06
5.7913634e-07
1.9454174e-07
6.111227e-08
0.00081553605
0.00077885256
0.00074202539
0.00070509161
0.00066814328
0.00063129299
0.00059467638
0.00055843215
0.00052269709
0.00048760744
0.00045329846
0.00041990215
0.00038754466
0.00035634402
0.0003264081
0.00029783262
0.00027069922
0.00024507392
0.00022100574
0.00019852598
0.00017764772
0.00015836597
0.00014065829
0.00012448584
0.00010979496
9.651908e-05
8.4580943e-05
7.389503e-05
6.4370078e-05
5.5911569e-05
4.8424123e-05
4.181366e-05
3.5989305e-05
3.0864957e-05
2.6360509e-05
2.2402708e-05
1.8925677e-05
1.5871125e-05
1.3188296e-05
1.0833702e-05
8.7707107e-06
6.9690334e-06
5.4041456e-06
4.0568695e-06
2.9123973e-06
1.9617355e-06
1.1948713e-06
6.2290006e-07
2.118887e-07
6.0011199e-08
0.00084547578
0.00081070134
0.000775614
0.00074027074
0.00070473735
0.00066911306
0.00063351565
0.00059806785
0.00056289376
0.00052811959
0.00049387333
0.00046028299
0.00042747449
0.00039556982
0.00036468509
0.00033492868
0.00030639919
0.00027918374
0.00025335617
0.00022897578
0.00020608612
0.00018471438
0.00016487098
0.00014654979
0.00012972865