/*--------------------------------*- C++ -*----------------------------------*\
  =========                 |
  \\      /  F ield         | OpenFOAM: The Open Source CFD Toolbox
   \\    /   O peration     | Website:  https://openfoam.org
    \\  /    A nd           | Version:  6
     \\/     M anipulation  |
\*---------------------------------------------------------------------------*/
FoamFile
{
    version     2.0;
    format      ascii;
    class       volVectorField;
    location    "184";
    object      U_0;
}
// * * * * * * * * * * * * * * * * * * * * * * * * * * * * * * * * * * * * * //

dimensions      [0 1 -1 0 0 0 0];

internalField   nonuniform List<vector> 
9200
(
(0.0010393474 0.0014199816 -5.9201848e-20)
(0.013676073 -0.0020583695 4.6042545e-20)
(0.03831318 -0.005866573 -3.8501742e-20)
(0.07227446 -0.0097635124 -6.025776e-20)
(0.11376478 -0.013490038 1.8826968e-20)
(0.16158093 -0.01660567 3.2743885e-20)
(0.21467154 -0.018817299 -1.2268011e-20)
(0.27206615 -0.019973907 9.2688639e-21)
(0.33285631 -0.020011242 1.6803428e-20)
(0.39616358 -0.018929073 1.4848075e-21)
(0.46111568 -0.016779839 -2.145634e-20)
(0.526837 -0.013657757 2.0670007e-20)
(0.59245083 -0.0096880258 -4.0422153e-20)
(0.65709147 -0.005015806 -2.1133905e-20)
(0.71992488 0.00020552989 5.9046535e-21)
(0.78017519 0.0058240613 -2.5131679e-20)
(0.83717078 0.011712776 2.5217118e-20)
(0.89046894 0.017918473 2.2243196e-20)
(0.93967089 0.024573369 -2.9929655e-22)
(0.98205204 0.028293335 -1.6691872e-21)
(0.0052521826 -0.0013462741 -1.7059355e-20)
(0.02696251 -0.0089890303 3.9747719e-20)
(0.061670134 -0.01480977 2.35763e-20)
(0.10629492 -0.019172277 -1.1569759e-19)
(0.1587357 -0.022214006 -1.2727091e-20)
(0.21753357 -0.023720696 7.3297087e-20)
(0.28137303 -0.023595109 -3.5476405e-20)
(0.3490061 -0.021868979 -8.390558e-21)
(0.4192393 -0.01864554 3.4287546e-20)
(0.49090956 -0.014080858 -4.3259587e-20)
(0.56287245 -0.0083759696 -3.0338487e-20)
(0.63400861 -0.001766615 7.1921448e-20)
(0.70324345 0.0054883719 3.8294055e-20)
(0.76957598 0.013118607 -6.7976571e-20)
(0.83211262 0.020852054 1.4623694e-20)
(0.89010054 0.028419673 -3.6733408e-20)
(0.94296934 0.035569637 -1.3777196e-20)
(0.99043247 0.042140845 7.0974792e-20)
(1.0323562 0.047715262 2.9641991e-20)
(1.066935 0.049139638 -8.3478343e-20)
(0.01085843 -0.0040424173 3.6773463e-20)
(0.043953426 -0.015431082 2.5047373e-21)
(0.090515459 -0.02255229 2.2341718e-20)
(0.14711143 -0.026497368 9.8116835e-22)
(0.2113426 -0.027886308 -4.0773946e-20)
(0.28146774 -0.026795127 1.8576405e-20)
(0.35587048 -0.023382743 1.3420302e-20)
(0.43299017 -0.017921553 -5.0327712e-20)
(0.51132488 -0.010735668 5.7261869e-20)
(0.58942626 -0.0021838997 1.4256692e-20)
(0.6659093 0.0073478839 -5.4300721e-20)
(0.73948051 0.017460239 -1.8237407e-20)
(0.80897613 0.027756535 9.0591607e-21)
(0.8734028 0.03785924 2.3444742e-20)
(0.93197378 0.047424007 -1.1362508e-20)
(0.98413384 0.056148931 2.7877735e-20)
(1.0295742 0.063789126 -2.0188245e-20)
(1.0682647 0.070204339 -7.0123611e-20)
(1.1003323 0.075119319 -2.3796283e-20)
(1.1249113 0.076641173 4.865984e-20)
(0.017957219 -0.0064221652 2.4508019e-20)
(0.064777011 -0.020694805 5.1039232e-20)
(0.12485231 -0.028060855 1.9881697e-20)
(0.1944697 -0.030464076 1.2990096e-20)
(0.27094938 -0.029094853 1.7275706e-20)
(0.35224887 -0.024388992 -4.7720181e-20)
(0.43643148 -0.016825987 -2.5646861e-20)
(0.52162019 -0.0069766863 0)
(0.60602908 0.0045670143 1.3920624e-20)
(0.6879872 0.017211712 -5.8523431e-21)
(0.76597532 0.030373899 -9.7934964e-20)
(0.83867462 0.043499606 -1.5774819e-20)
(0.90501541 0.056086587 6.5103212e-20)
(0.96421586 0.067704101 4.8442542e-22)
(1.0158036 0.078007676 -1.572557e-21)
(1.0596157 0.086746749 2.19575e-20)
(1.0957774 0.093772179 -5.2647218e-21)
(1.1246801 0.09906528 -6.102975e-20)
(1.1468648 0.10259702 -4.5851246e-20)
(1.1622958 0.10341379 6.9520534e-20)
(0.026579426 -0.0082056902 -3.9194216e-21)
(0.089344041 -0.024033512 -5.1256349e-21)
(0.16430757 -0.030264997 5.6599417e-20)
(0.24758125 -0.029810029 1.8539328e-20)
(0.33624168 -0.024513039 -3.1955076e-20)
(0.42795134 -0.015239872 1.216384e-20)
(0.52047272 -0.0028513758 2.6402868e-21)
(0.61166369 0.011737081 3.3609178e-20)
(0.69954725 0.027640126 5.6599515e-21)
(0.78236852 0.044028751 -1.3204743e-20)
(0.85865421 0.060147703 6.0154051e-20)
(0.92726926 0.075340447 -5.8009368e-20)
(0.98745691 0.089072833 -1.3216616e-19)
(1.0388532 0.10094899 -5.5773048e-21)
(1.0814726 0.11071705 8.3150793e-20)
(1.1156657 0.11826401 0)
(1.1420549 0.12360578 1.0118961e-20)
(1.161467 0.12689051 -1.5459775e-20)
(1.174818 0.12829865 -8.5994619e-21)
(1.1826674 0.12744909 2.0992234e-20)
(0.036666917 -0.0090895818 -5.4309152e-21)
(0.11731513 -0.024685363 4.3578752e-21)
(0.20811873 -0.028140186 -8.7629856e-21)
(0.30515708 -0.023414963 2.8472398e-20)
(0.40533547 -0.013075601 -2.9392673e-20)
(0.50607157 0.0015226055 -1.6927027e-20)
(0.60490502 0.01909513 3.7364233e-20)
(0.69954972 0.038365243 4.7595449e-21)
(0.78800406 0.058167633 -2.4436063e-20)
(0.8686342 0.077482989 6.986757e-20)
(0.94023988 0.095458624 5.2393822e-22)
(1.0020957 0.11143154 -8.0444334e-20)
(1.053957 0.12494288 0)
(1.0960274 0.13573747 3.9542127e-20)
(1.1288923 0.14374839 5.523602e-21)
(1.1534279 0.14906889 -7.756642e-20)
(1.1706992 0.15191909 -1.9586927e-20)
(1.1818624 0.15262363 -1.2467635e-20)
(1.1880593 0.151526 -1.4709391e-20)
(1.1901461 0.14858487 4.042053e-20)
(0.048058878 -0.0087674071 -1.7277962e-20)
(0.14808313 -0.021931998 -2.2198297e-21)
(0.25514075 -0.020797841 3.0380508e-20)
(0.36546391 -0.0104128 3.7484307e-20)
(0.4759043 0.0059015816 -1.9944737e-20)
(0.58374277 0.0262693 -6.9163045e-20)
(0.68644197 0.048977202 -2.7995802e-20)
(0.78176217 0.072417781 7.8929218e-20)
(0.8679021 0.095212468 8.5778149e-21)
(0.9435893 0.1162496 -2.4873486e-20)
(1.008126 0.13469826 1.3642215e-20)
(1.0613872 0.15001553 -4.3194503e-21)
(1.1037694 0.16193657 0)
(1.1360976 0.17044425 2.720349e-20)
(1.1595047 0.17572305 -7.9322433e-20)
(1.1753022 0.17810365 -3.1475536e-20)
(1.1848571 0.17800808 8.1054596e-20)
(1.1894922 0.1759094 -4.2969857e-21)
(1.190403 0.17225553 3.5561078e-21)
(1.1885081 0.16719292 2.7111576e-20)
(0.060485263 -0.0069573656 -3.2414623e-20)
(0.18077776 -0.015170385 -8.1624345e-20)
(0.30388935 -0.0075835313 2.5797648e-21)
(0.42642564 0.0097033524 7.0161839e-20)
(0.54535159 0.03263155 6.2424389e-20)
(0.65798112 0.05882004 -7.1574521e-20)
(0.76190895 0.086176504 -2.8274889e-22)
(0.85518305 0.1128523 8.5522552e-20)
(0.9364536 0.13737837 4.8828075e-20)
(1.0050416 0.15869369 -5.4218416e-20)
(1.0609357 0.17613562 -9.2334237e-20)
(1.1047244 0.18941352 -3.1589835e-21)
(1.137476 0.19855941 4.2127878e-20)
(1.1605875 0.20385854 -6.6056298e-21)
(1.1756248 0.20577016 -1.286879e-20)
(1.1841777 0.20484915 1.9690813e-20)
(1.1877428 0.20167893 4.3880628e-20)
(1.1876454 0.19682583 -4.3859442e-20)
(1.1849954 0.19077879 -1.0232204e-19)
(1.1806251 0.18377374 2.4566886e-20)
(0.073537229 -0.0034329744 -3.4979759e-20)
(0.21422691 -0.0039890278 -1.7388617e-19)
(0.35251663 0.011839374 8.21033e-20)
(0.48562806 0.037018336 9.2767554e-20)
(0.6108539 0.066835553 5.7970571e-20)
(0.72576738 0.098481179 8.6107097e-21)
(0.82834815 0.12959696 -1.0624008e-19)
(0.91719011 0.15824269 0)
(0.99162757 0.18302814 -6.8748593e-20)
(1.0517522 0.20311206 -1.5202411e-20)
(1.0983385 0.21814859 5.4703481e-20)
(1.1327009 0.2282108 1.0973382e-20)
(1.1565111 0.23369258 -4.5613867e-20)
(1.1716069 0.23519944 -4.9081375e-20)
(1.1798205 0.23344332 2.4287685e-20)
(1.1828451 0.22915319 4.48229e-20)
(1.1821489 0.22300982 -5.560042e-20)
(1.1789361 0.21560818 -1.0751124e-19)
(1.1741469 0.20742219 -3.1513626e-21)
(1.1684568 0.19871876 2.7046407e-20)
(0.086650462 0.0019613858 -3.5448994e-21)
(0.24696023 0.011816634 8.7913294e-20)
(0.39884746 0.037492311 -1.6479223e-20)
(0.54040474 0.071218386 -8.4309202e-20)
(0.66949913 0.10778894 4.5164374e-20)
(0.78421964 0.14411544 4.9175432e-20)
(0.88318952 0.17775669 5.5356773e-21)
(0.96577883 0.2068849 -9.9502484e-20)
(1.0321764 0.23038802 -2.5048783e-21)
(1.0833329 0.24781553 5.0503553e-20)
(1.1208071 0.259263 5.9854765e-21)
(1.1465559 0.26523618 -1.9717217e-20)
(1.1627108 0.26650531 -7.5704652e-20)
(1.1713766 0.26396619 -6.2554037e-21)
(1.1744763 0.25852426 4.3533363e-20)
(1.1736549 0.25101085 3.702202e-20)
(1.1702384 0.24213391 1.9793445e-20)
(1.1652403 0.23245871 -5.2994854e-20)
(1.1594015 0.22240414 1.2957451e-20)
(1.1532252 0.21223795 8.2659116e-20)
(-0.0012932618 0.0014346602 -1.1234446e-21)
(-0.0047459614 0.0031874157 2.0646972e-21)
(-0.010771361 0.0041359051 8.7950151e-22)
(-0.017754291 0.004539537 -2.4411034e-21)
(-0.024740323 0.0045654176 -1.4114826e-21)
(-0.031299599 0.0043260395 1.5460001e-21)
(-0.037161334 0.0039035389 -6.8700823e-21)
(-0.04214745 0.0033577223 -5.9573035e-21)
(-0.046157784 0.0027313817 1.1172e-20)
(-0.049146198 0.0020548308 -9.7427509e-21)
(-0.051100662 0.0013493004 -1.9832982e-22)
(-0.052030451 0.00062942167 3.6673456e-21)
(-0.051957744 -9.4889992e-05 -6.3295582e-22)
(-0.050911887 -0.00081693118 2.2818751e-20)
(-0.048925782 -0.0015318458 3.0401084e-22)
(-0.046035344 -0.0022351754 -4.0882886e-20)
(-0.042281797 -0.0029222697 7.538565e-21)
(-0.03770344 -0.0035910405 2.386412e-20)
(-0.032308689 -0.0042399889 -4.3852393e-20)
(-0.026156955 -0.0048211158 -2.7739217e-20)
(-0.0016522003 0.0041808674 -5.3716048e-21)
(-0.0053974823 0.0092681403 1.0865441e-20)
(-0.011218512 0.012007446 -1.0191547e-20)
(-0.017658029 0.013153767 3.9229759e-21)
(-0.023856437 0.013195416 4.8121448e-21)
(-0.029433323 0.012462727 7.1324192e-22)
(-0.034152326 0.011197016 -2.2509492e-20)
(-0.037860384 0.0095738982 -2.037025e-21)
(-0.040474304 0.007718988 2.0163545e-20)
(-0.041958927 0.0057212306 -5.0473612e-21)
(-0.042308954 0.003642864 -2.1762595e-20)
(-0.04153734 0.0015267115 4.8973182e-21)
(-0.039667715 -0.0005983074 2.2635426e-20)
(-0.036729082 -0.0027127637 1.0308394e-20)
(-0.032752032 -0.0048026927 2.1854293e-20)
(-0.027769167 -0.0068555128 -1.9770735e-20)
(-0.021824789 -0.008858225 -2.1672951e-20)
(-0.014966261 -0.010804231 2.1184626e-20)
(-0.0071290048 -0.012679008 2.6810375e-20)
(0.0018743117 -0.014317232 1.5854771e-20)
(-0.0023034297 0.0065602342 -4.3568705e-21)
(-0.0065392251 0.014480199 -5.6387558e-21)
(-0.011892133 0.018710547 3.0723947e-22)
(-0.017211102 0.020428184 1.0959891e-21)
(-0.021819145 0.020400327 6.6918431e-21)
(-0.025431045 0.019151669 1.0665173e-20)
(-0.027877235 0.01706629 -3.7227644e-21)
(-0.029053272 0.014423784 -1.8896172e-20)
(-0.028909038 0.011424353 6.5413191e-21)
(-0.027431051 0.0082099046 1.2862573e-20)
(-0.024627713 0.0048797745 5.834088e-21)
(-0.020520106 0.0015022359 1.8159109e-20)
(-0.015135981 -0.0018768673 1.729592e-21)
(-0.0085053909 -0.0052272531 -3.3864538e-20)
(-0.00065688187 -0.0085276167 1.2020182e-21)
(0.0083810314 -0.011759117 -2.2139217e-20)
(0.018556885 -0.014904106 -2.4466312e-20)
(0.029802203 -0.017953763 4.5819727e-20)
(0.042304991 -0.020855129 2.5349357e-20)
(0.056738603 -0.02324778 1.2239368e-22)
(-0.0031290283 0.0083689719 -5.2833089e-21)
(-0.0078964003 0.018336517 -8.4815309e-21)
(-0.012438988 0.023587813 4.3593064e-21)
(-0.016026537 0.025609663 4.1463464e-21)
(-0.018235025 0.025382749 2.0105716e-21)
(-0.018912652 0.023589325 7.320997e-21)
(-0.017984717 0.020730275 9.3124798e-21)
(-0.015416709 0.017170379 -1.3511355e-21)
(-0.011207045 0.013171314 -1.1481949e-20)
(-0.0053752287 0.0089189299 -2.9071885e-20)
(0.0020481186 0.004543434 6.1892629e-23)
(0.011026518 0.00013430618 4.0697832e-20)
(0.021522238 -0.0042489575 -1.8383176e-20)
(0.033497867 -0.0085675932 -1.2296091e-20)
(0.046920532 -0.012795556 5.5348913e-22)
(0.061760119 -0.016911867 3.2302653e-20)
(0.077953042 -0.020901684 -1.4829549e-20)
(0.095392298 -0.024763392 -5.33392e-20)
(0.11439849 -0.028379736 4.5765023e-20)
(0.13634543 -0.031073115 3.301318e-20)
(-0.0039704104 0.0094657343 -6.8789002e-22)
(-0.0090916594 0.020487796 -1.2534744e-20)
(-0.012364472 0.026159091 -3.4144544e-20)
(-0.013552541 0.028143343 -5.7241632e-21)
(-0.01253324 0.027555011 -3.6222751e-21)
(-0.0093167229 0.025188067 6.3051051e-21)
(-0.0039456411 0.021627413 -4.6461973e-21)
(0.0035261345 0.01729896 -8.8070299e-21)
(0.01303683 0.01250875 2.1899715e-20)
(0.024521255 0.0074744392 5.056709e-21)
(0.037915556 0.0023488986 -2.5290299e-20)
(0.053157468 -0.0027627916 1.1078281e-20)
(0.070186896 -0.0077908842 0)
(0.088946616 -0.012691315 1.2089579e-20)
(0.10938548 -0.017436933 -9.7016202e-21)
(0.13145746 -0.022009913 -1.4337123e-20)
(0.15507413 -0.026408665 -1.5738946e-21)
(0.18006767 -0.030659442 -2.2181562e-21)
(0.20685349 -0.034576558 4.6147076e-20)
(0.23766368 -0.037019896 -1.0470131e-20)
(-0.0046450987 0.0097808642 -7.5356696e-21)
(-0.0096772522 0.020747884 2.4516406e-20)
(-0.011064381 0.026160981 -1.0499349e-20)
(-0.0090968321 0.027724449 -2.7469287e-20)
(-0.0039797182 0.026601698 -2.754815e-20)
(0.0040961883 0.02364841 -1.4921572e-20)
(0.014954158 0.019496457 -6.9059743e-22)
(0.028436249 0.014604704 5.5499809e-21)
(0.044403166 0.0093034428 1.9615885e-20)
(0.062730521 0.0038284096 7.3530871e-21)
(0.083304347 -0.0016547634 -7.186223e-21)
(0.10601901 -0.0070322493 -2.0102317e-21)
(0.13077362 -0.012229111 -3.8191718e-20)
(0.15746949 -0.017199768 -1.2693648e-20)
(0.18601206 -0.021919753 1.8750611e-20)
(0.21631185 -0.026379739 -2.1021679e-20)
(0.24823232 -0.030602247 -8.9730601e-21)
(0.28151877 -0.034670635 3.0440473e-20)
(0.31660715 -0.03836485 5.0472082e-20)
(0.35665028 -0.039964134 3.3559675e-21)
(-0.0049617691 0.0093140003 1.6783307e-20)
(-0.0091662701 0.019097712 1.446794e-20)
(-0.0078593645 0.023563369 5.1145495e-20)
(-0.0018585367 0.024328946 2.3387986e-20)
(0.0082957291 0.022523785 1.825178e-22)
(0.022221951 0.019014384 -3.9388466e-20)
(0.039597458 0.014440934 -2.4313862e-20)
(0.060147926 0.0092663552 1.046582e-20)
(0.083639144 0.0038232216 1.4401589e-20)
(0.10986673 -0.0016513082 -1.3113715e-20)
(0.13864567 -0.0069910212 -4.4038722e-20)
(0.16980176 -0.012082861 2.9618504e-20)
(0.20316411 -0.016854176 2.0020555e-20)
(0.23855953 -0.021264015 -2.7551161e-20)
(0.27581239 -0.025296425 1.1650137e-20)
(0.31474821 -0.028957193 2.4197618e-20)
(0.35514557 -0.032303081 8.0723962e-21)
(0.396634 -0.035506708 -1.1764214e-20)
(0.43957715 -0.038392677 -1.4190301e-20)
(0.48798525 -0.03863444 5.8727652e-21)
(-0.0047307768 0.0081236744 1.1093847e-20)
(-0.0070586006 0.015671178 -2.3352725e-20)
(-0.0020293638 0.018562034 8.6200527e-21)
(0.0090325259 0.018216226 3.3587974e-20)
(0.025256372 0.015651149 5.2124343e-20)
(0.046066354 0.0116956 2.0276513e-20)
(0.070984547 0.0069609475 -5.8639355e-21)
(0.09960198 0.0018829442 -1.2286286e-20)
(0.13156898 -0.0032272076 -6.2057474e-21)
(0.16657572 -0.0081496695 3.4240839e-20)
(0.20433431 -0.012733335 -4.5104392e-21)
(0.24456492 -0.016879204 -1.6643303e-20)
(0.28698478 -0.020528706 -1.9693575e-20)
(0.33130007 -0.023656434 -4.7443746e-20)
(0.37720469 -0.026265557 2.3238708e-20)
(0.42438782 -0.028387888 -1.4095986e-20)
(0.47249987 -0.030127649 2.5993404e-20)
(0.52103632 -0.03178322 2.1040828e-20)
(0.57021411 -0.033350712 -8.5570403e-20)
(0.62470933 -0.032058876 -1.0807108e-22)
(-0.0037710522 0.0063146401 2.1925058e-20)
(-0.0028657653 0.010735096 -2.6165535e-20)
(0.0071421092 0.011564136 -4.50133e-20)
(0.024450242 0.0099249882 -2.7253786e-20)
(0.047870867 0.0066523027 -2.0439873e-21)
(0.076628726 0.002490612 1.3050099e-20)
(0.11007676 -0.0020154025 -2.8337704e-21)
(0.1476521 -0.0064879135 1.8118539e-20)
(0.18886101 -0.010663515 8.8685623e-21)
(0.23325201 -0.014362435 -1.1380173e-20)
(0.28039157 -0.017468965 8.877915e-21)
(0.32984612 -0.019916824 -2.390327e-20)
(0.38116891 -0.021678718 8.0504793e-21)
(0.43389096 -0.022759897 1.6756394e-20)
(0.48751948 -0.023194325 -2.6395135e-21)
(0.5415473 -0.023046918 1.6618981e-21)
(0.59543561 -0.022469474 -3.195758e-22)
(0.648518 -0.021870135 1.9590424e-20)
(0.70082257 -0.021445095 4.0434009e-21)
(0.75745168 -0.018499117 -5.7334901e-22)
(-0.0019110141 0.0040273483 2.3692117e-20)
(0.0038694327 0.0046765195 5.7159973e-20)
(0.020315318 0.0031879625 -4.9244231e-20)
(0.045178299 0.00029442269 -9.9454169e-21)
(0.076965174 -0.0034241571 2.0256349e-20)
(0.11469626 -0.0073535931 2.1433721e-21)
(0.15753887 -0.011054966 -2.9815165e-20)
(0.20474836 -0.01424415 6.9848105e-21)
(0.25564956 -0.016737941 7.1097894e-21)
(0.30960481 -0.018426972 -2.6254081e-20)
(0.36598657 -0.019260115 1.292733e-21)
(0.42415969 -0.019231886 -3.7174118e-20)
(0.48347113 -0.018372224 -3.634102e-20)
(0.54324578 -0.0167383 6.568349e-20)
(0.60278827 -0.014407328 5.5627493e-21)
(0.661389 -0.011475926 -1.5188798e-20)
(0.71830801 -0.0081020759 1.9363969e-20)
(0.77269919 -0.0045928991 -9.1888149e-22)
(0.82408853 -0.00096808457 2.0364579e-20)
(0.87621985 0.0043280293 -1.955415e-20)
(-0.018836408 -0.0050997053 5.8352064e-20)
(-0.010224643 -0.0056349287 1.5783671e-20)
(-0.00022117866 -0.0060688818 -3.5139567e-20)
(0.010823246 -0.0063341114 1.6790239e-20)
(0.022642491 -0.0065120488 0)
(0.035177914 -0.0066300918 0)
(0.048369696 -0.0066909752 -2.2974952e-20)
(0.062138118 -0.0067025416 -1.6502874e-20)
(0.076412766 -0.0066741762 1.9122598e-20)
(0.091134134 -0.0066126676 1.8174038e-20)
(0.10624725 -0.0065232078 1.0524255e-21)
(0.1217003 -0.0064103601 -1.0317638e-20)
(0.137445 -0.0062780833 8.3268821e-21)
(0.15343611 -0.0061297247 1.823372e-20)
(0.16963089 -0.0059681475 -5.2274193e-21)
(0.18598868 -0.0057958371 -1.0174937e-20)
(0.20247073 -0.0056149646 -4.3195883e-21)
(0.21904 -0.0054274392 -4.4257392e-21)
(0.23566109 -0.0052349527 7.3667187e-22)
(0.2523001 -0.0050390157 1.2286044e-21)
(0.26892472 -0.0048409831 2.5666326e-21)
(0.28550415 -0.0046420746 6.6539486e-21)
(0.30200921 -0.0044433896 2.4894327e-22)
(0.31841236 -0.0042459173 -3.4514717e-21)
(0.33468776 -0.0040505455 1.5558748e-22)
(0.35081134 -0.0038580657 -5.7709816e-22)
(0.36676083 -0.0036691777 1.2434371e-21)
(0.38251584 -0.0034844941 1.0522439e-21)
(0.39805784 -0.0033045434 -1.2987954e-21)
(0.41337021 -0.0031297736 -1.2218723e-22)
(0.42843823 -0.0029605567 3.5748333e-23)
(0.44324903 -0.0027971929 -3.5187636e-22)
(0.45779163 -0.002639915 -4.0565571e-22)
(0.47205683 -0.0024888944 5.5414241e-23)
(0.48603722 -0.0023442465 -1.3809072e-22)
(0.49972711 -0.0022060366 -2.2343218e-22)
(0.51312248 -0.0020742869 2.5572007e-22)
(0.52622098 -0.001948983 2.9502095e-22)
(0.53902182 -0.0018300833 -8.2721879e-24)
(0.55152611 -0.0017175223 -1.5517636e-22)
(0.56373582 -0.001611239 3.0406589e-23)
(0.57565753 -0.001511133 -4.014505e-23)
(0.58729142 -0.0014172755 9.220574e-23)
(0.59866651 -0.0013293301 2.1976975e-23)
(0.60973716 -0.0012485802 -1.139511e-22)
(0.6206954 -0.0011718166 -6.7619975e-24)
(0.63106359 -0.0011112698 -7.2302326e-26)
(0.64235241 -0.0010339749 -3.5618375e-24)
(0.65043052 -0.0010508356 2.9453633e-23)
(0.66701201 -0.0008755937 3.6051426e-22)
(0.010445895 -0.015017618 -1.2746821e-20)
(0.01817973 -0.016641022 -6.3302356e-20)
(0.027779254 -0.017915424 -3.0541953e-20)
(0.038385191 -0.018672083 3.8476028e-20)
(0.049621041 -0.019183601 1.4662617e-20)
(0.061506692 -0.019529446 -1.8204937e-20)
(0.074012893 -0.019709879 4.6722046e-21)
(0.087062751 -0.019746507 2.54472e-20)
(0.10059323 -0.019667296 9.1992147e-23)
(0.11455412 -0.019491716 -7.6591288e-21)
(0.12889729 -0.019234376 -1.302102e-20)
(0.14357614 -0.018908329 -8.5245354e-21)
(0.15854678 -0.01852499 1.7772342e-20)
(0.1737677 -0.018094019 8.9295529e-21)
(0.18919915 -0.017623697 -1.6522443e-20)
(0.20480294 -0.01712125 -6.039061e-21)
(0.22054234 -0.016593015 3.2145056e-21)
(0.23638196 -0.016044589 8.3716352e-21)
(0.25228777 -0.015480951 6.9832311e-21)
(0.26822699 -0.014906561 -6.972722e-21)
(0.28416821 -0.014325434 -3.1685511e-21)
(0.3000814 -0.013741195 1.3605377e-21)
(0.31593798 -0.013157119 3.8683202e-22)
(0.33171089 -0.012576162 1.2113971e-21)
(0.34737467 -0.01200098 1.8368464e-22)
(0.36290553 -0.011433946 -3.266175e-22)
(0.37828141 -0.010877164 -7.2435024e-22)
(0.39348201 -0.010332477 9.7156951e-22)
(0.40848885 -0.0098014796 8.2483217e-22)
(0.42328528 -0.0092855272 -1.514766e-22)
(0.43785648 -0.0087857488 5.5306342e-22)
(0.45218944 -0.0083030588 -2.3880959e-22)
(0.46627295 -0.0078381717 -3.7070162e-22)
(0.48009758 -0.0073916179 -6.0999425e-22)
(0.49365561 -0.0069637604 4.4171883e-22)
(0.50694099 -0.0065548131 -1.5480607e-23)
(0.51994935 -0.0061648607 1.6125092e-22)
(0.53267791 -0.0057938782 -4.417532e-22)
(0.54512545 -0.0054417589 3.7190296e-22)
(0.55729264 -0.0051083245 6.7176008e-23)
(0.56918095 -0.0047934102 -1.0285404e-22)
(0.58079648 -0.0044967321 1.7614278e-22)
(0.59213896 -0.0042185193 2.3340564e-22)
(0.60323667 -0.003957782 1.6927303e-22)
(0.61404416 -0.003718366 1.6768229e-22)
(0.62475056 -0.0034907154 -2.6100029e-23)
(0.63488463 -0.0033112806 8.4054431e-23)
(0.6459341 -0.0030819435 7.6302451e-23)
(0.65383267 -0.0031324418 -1.9468009e-22)
(0.67009518 -0.0026125372 -3.8025733e-23)
(0.067614733 -0.024029161 9.4528337e-21)
(0.073589721 -0.026749065 3.2951007e-21)
(0.082265564 -0.028805586 -1.2162207e-20)
(0.091947883 -0.029968523 -1.2257924e-21)
(0.10198328 -0.030767884 1.4970595e-20)
(0.11254642 -0.031330912 -1.4887129e-20)
(0.12367605 -0.031636092 -2.9842285e-20)
(0.13529691 -0.031713028 1.4493529e-20)
(0.14735706 -0.031607659 1.8181975e-20)
(0.15982354 -0.03135008 -1.1598522e-20)
(0.17266073 -0.030961845 1.0190557e-21)
(0.18583096 -0.030462779 8.6860168e-21)
(0.199298 -0.029870578 -1.5253549e-20)
(0.21302674 -0.029200266 2.9095218e-21)
(0.22698262 -0.028464788 7.5194407e-21)
(0.24113162 -0.027675533 3.1593821e-23)
(0.25544038 -0.026842587 2.6556131e-22)
(0.26987631 -0.025974926 -7.4150918e-21)
(0.28440759 -0.025080595 3.8616907e-21)
(0.29900328 -0.02416685 8.4749124e-21)
(0.31363346 -0.023240265 -3.8351796e-21)
(0.32826927 -0.022306806 -2.2130379e-21)
(0.34288309 -0.021371889 1.0124431e-21)
(0.35744861 -0.020440421 -1.7155351e-21)
(0.37194093 -0.019516829 1.3532264e-21)
(0.38633666 -0.018605082 7.1845977e-22)
(0.400614 -0.017708712 1.5268463e-21)
(0.41475277 -0.016830822 -1.9526697e-21)
(0.4287345 -0.015974109 2.223578e-21)
(0.44254239 -0.015140875 5.5188762e-22)
(0.45616141 -0.014333048 4.0323206e-22)
(0.46957821 -0.013552204 3.2134529e-22)
(0.48278118 -0.012799587 8.7325768e-22)
(0.49576036 -0.012076134 -1.3708729e-21)
(0.50850744 -0.011382508 3.7065983e-22)
(0.52101574 -0.010719121 1.0941747e-22)
(0.53328016 -0.010086173 -4.517388e-23)
(0.54529716 -0.0094836809 8.6730919e-23)
(0.5570647 -0.0089115233 -3.7185539e-22)
(0.56858258 -0.0083694605 1.8293941e-22)
(0.57985143 -0.0078572735 -3.4987568e-23)
(0.59087637 -0.0073745441 3.9005714e-22)
(0.60165634 -0.0069217017 -1.8545216e-22)
(0.61221823 -0.0064971576 4.7324953e-23)
(0.62251689 -0.006107301 4.3606381e-23)
(0.63273608 -0.005736444 -7.3604684e-23)
(0.64241669 -0.0054445287 -1.2083873e-22)
(0.65300249 -0.005070631 3.881272e-22)
(0.66055269 -0.0051543925 1.7271905e-22)
(0.67619692 -0.004307179 -8.3041556e-22)
(0.15021536 -0.03146045 1.5010132e-21)
(0.15354697 -0.035257417 -1.1566613e-20)
(0.16061631 -0.038010944 6.6441966e-21)
(0.168806 -0.039479124 -1.3324746e-20)
(0.17698234 -0.040520717 -1.9758316e-21)
(0.18552357 -0.041302309 9.1599452e-21)
(0.19458432 -0.041757266 -9.7662236e-21)
(0.20408705 -0.041913741 1.5662762e-21)
(0.21398782 -0.041833363 1.2903805e-20)
(0.22427614 -0.041554369 3.4032025e-21)
(0.2349327 -0.04110208 -6.2096986e-21)
(0.24593039 -0.040500485 -2.8638125e-21)
(0.25724178 -0.039771786 -5.8409062e-21)
(0.26883932 -0.038935094 -6.4553184e-21)
(0.28069445 -0.038007015 3.2356904e-21)
(0.29277787 -0.037002343 8.4620648e-22)
(0.30506 -0.035934367 1.3679604e-21)
(0.31751127 -0.034815065 -3.3850437e-21)
(0.33010225 -0.033655293 -4.2428918e-21)
(0.34280394 -0.03246494 2.3616541e-21)
(0.35558791 -0.031253042 3.2251413e-21)
(0.3684265 -0.030027863 -1.5636242e-21)
(0.38129299 -0.02879695 1.5867295e-21)
(0.39416175 -0.027567181 -3.9124207e-22)
(0.40700836 -0.026344794 -3.9196514e-21)
(0.41980972 -0.025135405 -3.0332862e-21)
(0.43254415 -0.02394403 -1.9026505e-22)
(0.44519145 -0.022775105 4.2858778e-22)
(0.45773297 -0.021632499 -2.210608e-21)
(0.47015163 -0.020519537 -8.5497876e-22)
(0.48243197 -0.019439028 2.283769e-22)
(0.49456009 -0.018393286 -1.2498765e-21)
(0.50652374 -0.017384166 6.2610449e-24)
(0.51831219 -0.016413098 -4.2421347e-22)
(0.52991632 -0.015481123 -4.7193779e-22)
(0.54132852 -0.014588939 -5.1996636e-22)
(0.55254267 -0.013736941 -8.4134585e-22)
(0.56355419 -0.012925269 -5.4495253e-23)
(0.57435992 -0.012153869 -3.9160758e-24)
(0.58495851 -0.011422518 -5.1973498e-22)
(0.59534938 -0.010731022 -9.1605788e-23)
(0.60553637 -0.010078902 -3.3240476e-22)
(0.61551732 -0.0094668513 -4.3761819e-22)
(0.62531723 -0.0088927722 3.7843459e-22)
(0.63489147 -0.0083655497 1.4821712e-23)
(0.64441611 -0.0078637374 1.8238809e-22)
(0.65344957 -0.00746951 -1.3248185e-22)
(0.66337246 -0.0069631335 -2.6693389e-22)
(0.67042469 -0.0070793565 -4.4678763e-23)
(0.68518219 -0.0059329178 4.623059e-22)
(0.25468575 -0.036552782 -2.0900319e-20)
(0.2544703 -0.041393535 4.7585966e-20)
(0.25907343 -0.044745684 1.0348098e-20)
(0.26508423 -0.046442071 -1.5765324e-20)
(0.27070943 -0.047714344 -2.0227961e-21)
(0.27652006 -0.048747806 2.6232261e-21)
(0.28283561 -0.04941375 -1.6608216e-21)
(0.28957703 -0.049728133 -4.6861436e-21)
(0.29669671 -0.049761465 -4.0159182e-21)
(0.30420561 -0.049557089 -1.2207644e-20)
(0.31210233 -0.049141725 1.7897765e-20)
(0.32036953 -0.048540841 6.521995e-21)
(0.32898716 -0.047779006 -1.6780532e-20)
(0.3379342 -0.046878061 1.0317575e-20)
(0.34718726 -0.045857344 8.3849915e-21)
(0.35672095 -0.044734358 -8.7923325e-22)
(0.36650866 -0.043525113 -3.1222219e-21)
(0.37652312 -0.042244295 -3.8197378e-21)
(0.38673666 -0.040905408 -1.3892607e-21)
(0.39712157 -0.039520902 -1.2304219e-21)
(0.40765037 -0.038102272 -3.0257667e-21)
(0.4182961 -0.036660121 0)
(0.42903246 -0.035204208 -1.3451944e-21)
(0.43983409 -0.033743478 3.9309557e-21)
(0.45067662 -0.032286085 5.4052771e-21)
(0.4615369 -0.030839413 -9.4112626e-22)
(0.47239303 -0.029410089 -2.9274546e-21)
(0.48322447 -0.028003998 3.0258521e-21)
(0.4940121 -0.02662631 2.5447056e-22)
(0.50473828 -0.025281495 3.4352608e-21)
(0.51538684 -0.023973361 -5.3459823e-22)
(0.52594311 -0.022705082 1.7173544e-21)
(0.53639394 -0.021479241 -7.9964969e-22)
(0.54672764 -0.020297874 2.9094628e-22)
(0.55693401 -0.019162515 -4.3404497e-22)
(0.56700431 -0.018074256 5.6232063e-22)
(0.57693121 -0.017033797 4.5710497e-22)
(0.58670888 -0.016041505 3.8256189e-22)
(0.59633283 -0.015097499 -9.5937839e-22)
(0.60580033 -0.014201672 6.835679e-22)
(0.61510944 -0.013353948 -3.6958165e-22)
(0.62426249 -0.012553885 -1.103351e-21)
(0.63325605 -0.011802516 1.4078645e-21)
(0.64211286 -0.011097346 -6.2007755e-23)
(0.65078909 -0.010449682 -1.5816761e-22)
(0.65945124 -0.009832821 -7.8249732e-24)
(0.66767994 -0.0093494542 -1.2622926e-22)
(0.67677607 -0.0087264292 -4.658594e-22)
(0.68320809 -0.0088738972 8.7882107e-22)
(0.69685411 -0.0074651872 -4.4316829e-23)
(0.37635141 -0.038368196 -1.7495105e-20)
(0.37170989 -0.04427026 1.283205e-20)
(0.37286703 -0.048161645 2.9754619e-21)
(0.37591059 -0.050098885 -7.6353763e-21)
(0.37830541 -0.051670007 1.2055987e-20)
(0.38072308 -0.05304241 7.7914146e-21)
(0.38367616 -0.054030078 -1.2647694e-20)
(0.38710074 -0.054633143 -6.0679789e-21)
(0.39092941 -0.054918045 1.2697345e-20)
(0.39518261 -0.054927176 -1.5304984e-20)
(0.39987444 -0.054687559 -1.4063197e-20)
(0.40499527 -0.054224698 1.4129646e-20)
(0.41052883 -0.053563706 6.8193874e-21)
(0.4164574 -0.052727997 -4.2037754e-21)
(0.42276038 -0.051739065 -1.8545576e-21)
(0.42941429 -0.0506168 -4.0581695e-21)
(0.43639375 -0.049379753 5.3047581e-21)
(0.44367224 -0.04804528 3.6682111e-21)
(0.45122254 -0.046629603 -3.2408304e-21)
(0.4590171 -0.045147871 3.1379507e-21)
(0.46702841 -0.043614216 2.7666845e-21)
(0.47522927 -0.042041785 -3.211118e-21)
(0.48359306 -0.040442762 3.7056593e-22)
(0.49209396 -0.038828379 -3.2571668e-21)
(0.50070707 -0.037208929 7.2454379e-21)
(0.50940859 -0.035593772 6.1080753e-21)
(0.51817592 -0.033991349 8.0973741e-22)
(0.52698775 -0.032409194 -1.7683277e-21)
(0.5358241 -0.030853957 3.7021971e-21)
(0.5446664 -0.029331435 7.188557e-21)
(0.55349748 -0.027846598 2.3049397e-21)
(0.56230164 -0.026403643 3.3165079e-21)
(0.57106457 -0.025006029 1.9956327e-21)
(0.57977343 -0.023656544 7.4558604e-22)
(0.58841675 -0.022357355 -2.6374641e-22)
(0.59698451 -0.021110076 2.7203423e-21)
(0.60546805 -0.019915841 6.1992931e-22)
(0.61386013 -0.018775368 2.9488135e-22)
(0.62215486 -0.017689061 5.623315e-23)
(0.63034804 -0.016657045 9.8968724e-22)
(0.63843627 -0.015679466 4.7020729e-23)
(0.64642029 -0.014756023 4.4248809e-22)
(0.65429538 -0.013888169 -1.2622135e-22)
(0.66208179 -0.013073139 -2.773602e-22)
(0.66973682 -0.012324558 -1.5219356e-22)
(0.6774159 -0.01161106 -4.2210333e-22)
(0.68472591 -0.011053783 1.6140895e-22)
(0.6928744 -0.010332595 -1.2724475e-22)
(0.69859741 -0.010509731 -5.0125831e-22)
(0.71096038 -0.0088821022 2.4587581e-22)
(0.50927443 -0.035974311 3.6471442e-21)
(0.49953052 -0.042960693 -1.8958304e-20)
(0.49627569 -0.047383492 -2.3083859e-21)
(0.49555606 -0.049736798 5.4869527e-21)
(0.49416967 -0.051818064 3.0528123e-21)
(0.49269587 -0.053705431 -4.9884318e-23)
(0.49181243 -0.05518767 6.1896725e-21)
(0.49151466 -0.05626542 7.6251056e-21)
(0.49171182 -0.056990555 9.8580443e-21)
(0.49241088 -0.057395596 -1.1250047e-20)
(0.49363121 -0.057506324 -2.1579435e-20)
(0.49536796 -0.05734844 -3.9353518e-21)
(0.49760486 -0.056947154 1.5938154e-20)
(0.50032322 -0.056327033 1.2808967e-20)
(0.50350187 -0.055511757 -5.9066962e-21)
(0.50711675 -0.05452387 1.3817013e-21)
(0.51114164 -0.053384808 -3.6600902e-21)
(0.515549 -0.052114963 2.2443845e-21)
(0.52031056 -0.050733672 -2.912304e-22)
(0.52539763 -0.04925919 -1.8654119e-21)
(0.53078156 -0.047708686 7.826602e-21)
(0.53643397 -0.046098236 -2.9309071e-22)
(0.54232705 -0.044442816 4.1818422e-22)
(0.54843377 -0.042756291 -6.5646411e-22)
(0.554728 -0.041051413 -4.302946e-21)
(0.56118473 -0.039339819 4.2085242e-21)
(0.56778011 -0.037632042 1.9031233e-21)
(0.57449156 -0.03593752 -3.3081998e-21)
(0.58129786 -0.034264627 -4.1116503e-21)