/*--------------------------------*- C++ -*----------------------------------*\
  =========                 |
  \\      /  F ield         | OpenFOAM: The Open Source CFD Toolbox
   \\    /   O peration     | Website:  https://openfoam.org
    \\  /    A nd           | Version:  6
     \\/     M anipulation  |
\*---------------------------------------------------------------------------*/
FoamFile
{
    version     2.0;
    format      ascii;
    class       volVectorField;
    location    "344";
    object      UMean;
}
// * * * * * * * * * * * * * * * * * * * * * * * * * * * * * * * * * * * * * //

dimensions      [0 1 -1 0 0 0 0];

internalField   nonuniform List<vector> 
9200
(
(0.0014402436 0.0011132878 -6.0259755e-20)
(0.015008864 -0.0030247836 4.7438109e-20)
(0.040662415 -0.0073980251 -3.9338757e-20)
(0.075700407 -0.011783731 -6.2027623e-20)
(0.11827274 -0.015947078 1.9305366e-20)
(0.16714299 -0.019451552 3.3711472e-20)
(0.22123107 -0.022008015 -1.2616742e-20)
(0.2795395 -0.023471079 9.5399124e-21)
(0.34113547 -0.023782077 1.746267e-20)
(0.40511917 -0.022945963 1.5433098e-21)
(0.47060036 -0.021020001 -2.2335952e-20)
(0.53668953 -0.018102799 2.1484574e-20)
(0.60250088 -0.014323403 -4.1961545e-20)
(0.66716514 -0.0098302021 -2.2009936e-20)
(0.72985053 -0.0047791444 6.1500586e-21)
(0.78978932 0.0006759424 -2.6216289e-20)
(0.84632326 0.0064065157 2.6329621e-20)
(0.89902647 0.012456528 2.3310076e-20)
(0.94752252 0.018956093 -2.7561503e-22)
(0.98913683 0.022559486 -1.6229561e-21)
(0.005770434 -0.001691443 -1.7361784e-20)
(0.028608275 -0.010033394 4.0835049e-20)
(0.06449102 -0.016428124 2.3954363e-20)
(0.1103112 -0.021270125 -1.1867824e-19)
(0.16391326 -0.024727588 -1.3015178e-20)
(0.22380287 -0.026595025 7.5449449e-20)
(0.28863365 -0.026783284 -3.6515102e-20)
(0.3571295 -0.025333052 -8.676049e-21)
(0.42807296 -0.022355748 3.5483074e-20)
(0.50028185 -0.018014588 -4.4829e-20)
(0.57259843 -0.012516739 -3.1549125e-20)
(0.64389647 -0.0061029399 7.4860651e-20)
(0.71310169 0.00096425792 3.9803532e-20)
(0.77922072 0.0084121258 -7.0731284e-20)
(0.84137463 0.015967701 1.5216238e-20)
(0.89883133 0.023362449 -3.8225022e-20)
(0.95104572 0.030346228 -1.4427327e-20)
(0.99775846 0.036760194 7.3812274e-20)
(1.0388647 0.042194105 3.1297493e-20)
(1.0726047 0.043532525 -8.4539449e-20)
(0.011503176 -0.0044110869 3.7217253e-20)
(0.045926592 -0.016510702 2.3955556e-21)
(0.093815825 -0.024192772 2.2562235e-20)
(0.15170938 -0.028591058 1.0038555e-21)
(0.21715594 -0.030362198 -4.1467652e-20)
(0.28837805 -0.029595938 1.918769e-20)
(0.36372823 -0.026463468 1.3656242e-20)
(0.4416193 -0.021249317 -5.18334e-20)
(0.52052917 -0.014288004 5.9140137e-20)
(0.59899683 -0.0059467718 1.4913299e-20)
(0.67563296 0.0033820532 -5.6388659e-20)
(0.74914868 0.01329465 -1.9011206e-20)
(0.81839356 0.023392149 9.2246244e-21)
(0.88239558 0.033296848 2.4334473e-20)
(0.94039585 0.042666094 -1.1775792e-20)
(0.99187149 0.051201222 2.8890548e-20)
(1.0365482 0.058661631 -2.0974518e-20)
(1.07443 0.064911914 -7.2420786e-20)
(1.1056759 0.069684603 -2.4142936e-20)
(1.1294572 0.071106939 4.9894855e-20)
(0.018734278 -0.006797315 2.4724538e-20)
(0.067081597 -0.021762935 5.1853595e-20)
(0.1286233 -0.029654927 2.0266141e-20)
(0.19961858 -0.032470186 1.3438351e-20)
(0.27733854 -0.031440876 1.7811873e-20)
(0.35970575 -0.027021268 -4.9001797e-20)
(0.44475517 -0.01970689 -2.6410043e-20)
(0.53058856 -0.010083147 0)
(0.61540792 0.0012465159 1.4861678e-20)
(0.69754054 0.013680371 -6.3548916e-21)
(0.77547601 0.02662974 -1.0126092e-19)
(0.84791456 0.039538558 -1.6209727e-20)
(0.91381434 0.051905328 6.7438663e-20)
(0.97242799 0.063302441 4.7991131e-22)
(1.0233215 0.073390313 -1.6244092e-21)
(1.0663712 0.08192427 2.2649086e-20)
(1.1017398 0.088761281 -5.3443485e-21)
(1.1298519 0.093888428 -6.2906856e-20)
(1.1512762 0.097282052 -4.7248614e-20)
(1.1660009 0.097993355 7.0723285e-20)
(0.027490217 -0.0085686829 -3.8710599e-21)
(0.091971453 -0.025041093 -4.9347106e-21)
(0.16852097 -0.031743281 5.7482161e-20)
(0.25322603 -0.031647327 1.9062193e-20)
(0.34311974 -0.026643411 -3.2912167e-20)
(0.43583402 -0.017619846 1.2314841e-20)
(0.52910959 -0.0054561903 2.7168186e-21)
(0.62079273 0.0089166794 3.4791034e-20)
(0.70890685 0.024602495 5.8450021e-21)
(0.79170994 0.040765992 -1.3791017e-20)
(0.86775318 0.056649951 6.2404777e-20)
(0.93593565 0.071599648 -5.9775163e-20)
(0.99554142 0.085085762 -1.3634903e-19)
(1.0462506 0.096719257 -5.7479995e-21)
(1.0881212 0.10625603 8.5534329e-20)
(1.1215436 0.11359068 0)
(1.1471743 0.11874567 1.0476146e-20)
(1.1658663 0.12187429 -1.5807588e-20)
(1.178554 0.12315953 -8.9067109e-21)
(1.1858074 0.12221545 2.1354166e-20)
(0.037707817 -0.0094209536 -5.2507604e-21)
(0.12024345 -0.025583528 4.4125302e-21)
(0.21272719 -0.029436447 -8.8965147e-21)
(0.31122042 -0.025009456 2.8813127e-20)
(0.41259341 -0.01491647 -3.0155624e-20)
(0.51424137 -0.00053781149 -1.7358609e-20)
(0.61369307 0.016822467 3.7857903e-20)
(0.70866467 0.035873376 4.7646869e-21)
(0.79717091 0.055441669 -2.5473964e-20)
(0.87760749 0.074506015 7.1949314e-20)
(0.94881431 0.092216674 3.776739e-22)
(1.0101131 0.10791738 -8.2888982e-20)
(1.0613089 0.12115837 0)
(1.1026534 0.13169439 4.0564342e-20)
(1.1347747 0.13946786 5.634435e-21)
(1.1585839 0.14457969 -7.9364729e-20)
(1.1751713 0.14725532 -2.005389e-20)
(1.1857101 0.14782239 -1.2707623e-20)
(1.1913498 0.14662381 -1.50314e-20)
(1.1929469 0.14360828 4.1232541e-20)
(0.049221005 -0.0090479025 -1.7295587e-20)
(0.15127751 -0.022674851 -2.763665e-21)
(0.26007975 -0.021852921 3.0560941e-20)
(0.3718505 -0.011702171 3.7589822e-20)
(0.4834182 0.0044079744 -2.0277159e-20)
(0.59205341 0.02457618 -7.0874236e-20)
(0.69522281 0.047071529 -2.8899022e-20)
(0.79070597 0.070276168 8.1007811e-20)
(0.87673566 0.09280897 8.9966007e-21)
(0.95208533 0.1135623 -2.5460518e-20)
(1.0161106 0.13171408 1.3897289e-20)
(1.0687422 0.14673307 -4.4534472e-21)
(1.1104297 0.15836687 0)
(1.1420444 0.16660984 2.7860909e-20)
(1.1647559 0.17165556 -8.1119778e-20)
(1.1799016 0.17384064 -3.2177393e-20)
(1.1888641 0.17358983 8.2702126e-20)
(1.192973 0.17137619 -4.5335575e-21)
(1.1934234 0.16764412 3.5831982e-21)
(1.1911276 0.1625283 2.7725133e-20)
(0.061754637 -0.0071690816 -3.2502885e-20)
(0.18419181 -0.015717764 -8.2680341e-20)
(0.30908042 -0.0083488378 2.071829e-21)
(0.43302781 0.0087663926 7.1530994e-20)
(0.55299076 0.031524542 6.3644148e-20)
(0.66628876 0.057521888 -7.2704763e-20)
(0.77053847 0.084653123 5.1755383e-24)
(0.86382573 0.11106586 8.7855039e-20)
(0.94485197 0.13529584 5.0017636e-20)
(1.0129979 0.15629316 -5.5622986e-20)
(1.0683144 0.17340984 -9.4581362e-20)
(1.1114489 0.18637082 -3.2328106e-21)
(1.1435208 0.19522225 4.3071938e-20)
(1.1659667 0.20026046 -6.7102014e-21)
(1.1803804 0.20195179 -1.3046306e-20)
(1.1883674 0.2008541 1.9932763e-20)
(1.1914306 0.19755025 4.4686293e-20)
(1.1908943 0.19260357 -4.4551132e-20)
(1.1878629 0.18649727 -1.0410227e-19)
(1.1831597 0.17945601 2.511536e-20)
(0.074894988 -0.0035604855 -3.5419276e-20)
(0.21780423 -0.0043089669 -1.7481755e-19)
(0.35787078 0.011399259 8.3898166e-20)
(0.49233134 0.03646422 9.449747e-20)
(0.61848829 0.06613569 5.8939585e-20)
(0.733939 0.097587073 8.8060857e-21)
(0.83670422 0.1284549 -1.0840022e-19)
(0.92543377 0.1568041 0)
(0.9995278 0.18125782 -7.0493286e-20)
(1.0591472 0.20099295 -1.5585826e-20)
(1.1051323 0.21568311 5.589082e-20)
(1.1388546 0.22541906 1.1181534e-20)
(1.1620303 0.23060855 -4.6488944e-20)
(1.1765281 0.231866 -4.9937727e-20)
(1.184198 0.22990719 2.4795603e-20)
(1.1867401 0.22546063 4.5701474e-20)
(1.1856217 0.21920343 -5.6599842e-20)
(1.1820412 0.21172516 -1.0926188e-19)
(1.1769308 0.2034929 -3.1090575e-21)
(1.1709571 0.19476417 2.743811e-20)
(0.088073143 0.0019302244 -3.7765427e-21)
(0.25063671 0.011746478 8.8941142e-20)
(0.40426956 0.037398367 -1.5449797e-20)
(0.54709422 0.071060075 -8.6256093e-20)
(0.67700688 0.10749841 4.6046228e-20)
(0.79214013 0.14361748 4.97543e-20)
(0.89117689 0.17698134 5.6560919e-21)
(0.97355857 0.20577769 -1.0150406e-19)
(1.0395503 0.22891655 -2.5574831e-21)
(1.0901765 0.24597159 5.1550943e-20)
(1.1270603 0.25706078 6.0997821e-21)
(1.1522099 0.26270767 -2.0135397e-20)
(1.1677927 0.26369422 -7.7067455e-20)
(1.1759345 0.2609218 -6.3181688e-21)
(1.1785676 0.25529603 4.4225962e-20)
(1.177337 0.24764457 3.7580718e-20)
(1.1735635 0.23866939 2.0019855e-20)
(1.1682527 0.22892886 -5.3971264e-20)
(1.1621372 0.21883489 1.2922903e-20)
(1.1557125 0.2086486 8.371339e-20)
(-0.0013130517 0.00144632 -9.6373303e-22)
(-0.0047559126 0.0031901589 1.9564819e-21)
(-0.010786204 0.0041141934 1.422716e-21)
(-0.017703583 0.0044858199 -1.6711312e-21)
(-0.024569978 0.004475069 -1.9493715e-21)
(-0.030956419 0.0041968478 2.0821982e-21)
(-0.036590714 0.0037349487 -7.7302557e-21)
(-0.041296631 0.0031501063 -6.6821092e-21)
(-0.044977217 0.0024856116 1.2209809e-20)
(-0.047589598 0.0017720428 -1.0551192e-20)
(-0.049124882 0.0010307512 -2.0123951e-22)
(-0.049595344 0.00027639892 3.9484034e-21)
(-0.04902598 -0.00048111943 -6.5888452e-22)
(-0.047448726 -0.0012351509 2.4221945e-20)
(-0.044898852 -0.0019809055 2.8606458e-22)
(-0.041414436 -0.0027139912 -4.3167337e-20)
(-0.037038725 -0.0034298044 8.0002468e-21)
(-0.031811892 -0.0041262772 2.5028483e-20)
(-0.025743637 -0.0048019259 -4.5911839e-20)
(-0.018895415 -0.005408063 -2.8979215e-20)
(-0.0016718806 0.0042120106 -5.5588334e-21)
(-0.0053953849 0.0092685907 1.0205291e-20)
(-0.011197022 0.011933272 -1.0375999e-20)
(-0.017540777 0.012983696 4.9456678e-21)
(-0.023586153 0.012916399 5.9285305e-21)
(-0.028954788 0.012068664 8.3214479e-22)
(-0.033409782 0.01068657 -2.5432483e-20)
(-0.036800518 0.0089483957 -2.2014495e-21)
(-0.039047375 0.0069811947 2.192271e-20)
(-0.040118713 0.0048746804 -5.4491527e-21)
(-0.040012597 0.0026914503 -2.3372198e-20)
(-0.038745214 0.00047443484 5.2279904e-21)
(-0.036343268 -0.0017474816 2.3936453e-20)
(-0.032838671 -0.0039549828 1.0920299e-20)
(-0.028264759 -0.0061342609 2.3180007e-20)
(-0.022656748 -0.0082728948 -2.0821614e-20)
(-0.016061526 -0.010357997 -2.2718727e-20)
(-0.0085292051 -0.012382991 2.23322e-20)
(3.3818114e-06 -0.014333267 2.7954896e-20)
(0.0097260479 -0.016041492 1.6366565e-20)
(-0.0023209724 0.0066000598 -4.5126454e-21)
(-0.006509873 0.014456981 -5.1664226e-21)
(-0.011796204 0.018559519 1.5756397e-22)
(-0.016961868 0.020118263 3.7428198e-22)
(-0.021353836 0.0199123 7.2026399e-21)
(-0.024691236 0.018476936 1.1388409e-20)
(-0.026805663 0.016203551 -4.128741e-21)
(-0.027596303 0.013375817 -2.0373586e-20)
(-0.027017396 0.010196157 7.0606017e-21)
(-0.025059593 0.0068076904 1.3814647e-20)
(-0.021735235 0.0033103435 6.3337825e-21)
(-0.017069229 -0.00022738903 1.9197516e-20)
(-0.011093066 -0.0037596437 1.8324539e-21)
(-0.0038404884 -0.0072562252 -3.5616309e-20)
(0.0046562985 -0.010695969 1.4105153e-21)
(0.014365115 -0.014060218 -2.2958045e-20)
(0.025230824 -0.017331496 -2.5844995e-20)
(0.037180559 -0.020501069 4.8126726e-20)
(0.050399659 -0.023515754 2.6642472e-20)
(0.065570302 -0.026011961 3.3836336e-22)
(-0.0031393278 0.0084019745 -5.5575278e-21)
(-0.0078194393 0.018259138 -1.0125112e-20)
(-0.012227394 0.02332533 4.4333347e-21)
(-0.015580933 0.025126972 4.4671459e-21)
(-0.017486165 0.024657872 2.0739231e-21)
(-0.017798858 0.022613271 8.1325995e-21)
(-0.016447949 0.01950306 1.017307e-20)
(-0.013404362 0.015697021 -1.5060682e-21)
(-0.0086722004 0.011459582 -1.2326797e-20)
(-0.0022762296 0.0069781219 -3.1048715e-20)
(0.005747879 0.0023836396 1.2257155e-22)
(0.015358699 -0.0022340404 4.3071347e-20)
(0.026513494 -0.0068152828 -1.9232235e-20)
(0.039169779 -0.011321287 -1.2937161e-20)
(0.053289462 -0.015726045 4.008497e-22)
(0.068837116 -0.020008698 3.3919331e-20)
(0.085743785 -0.024154602 -1.5813229e-20)
(0.10389599 -0.028162482 -5.5565696e-20)
(0.12360833 -0.031915467 4.7420307e-20)
(0.14626782 -0.03473271 3.4323573e-20)
(-0.0039647663 0.0094747129 -5.5112015e-22)
(-0.0089407663 0.020322615 -1.2986019e-20)
(-0.011992404 0.025747262 -3.6694433e-20)
(-0.012847606 0.027452455 -6.4987509e-21)
(-0.011420447 0.026564433 -3.4679182e-21)
(-0.0077325073 0.023891038 6.854487e-21)
(-0.0018332115 0.020026898 -5.1326174e-21)
(0.0062157188 0.015403238 -9.5100442e-21)
(0.016344882 0.010329023 2.3300267e-20)
(0.028482086 0.0050235626 5.2907335e-21)
(0.042556711 -0.00035938421 -2.6967971e-20)
(0.058499732 -0.0057142902 1.1588896e-20)
(0.076244206 -0.010971167 0)
(0.095725855 -0.016085787 1.2681093e-20)
(0.11688617 -0.021030881 -1.0155317e-20)
(0.13967158 -0.025788597 -1.5071402e-20)
(0.16398623 -0.030357449 -1.2417419e-21)
(0.18965383 -0.034764343 -2.4566099e-21)
(0.21707882 -0.038825866 4.7398064e-20)
(0.24850471 -0.041401399 -1.1343721e-20)
(-0.0046115002 0.0097499897 -7.6981759e-21)
(-0.0094205249 0.020464367 2.5762669e-20)
(-0.010483716 0.025566093 -1.1319023e-20)
(-0.0080712233 0.026795123 -2.9003552e-20)
(-0.0024309767 0.025322972 -2.8689636e-20)
(0.0062306646 0.022018585 -1.5824214e-20)
(0.017726591 0.017523234 -8.1872659e-22)
(0.031888063 0.012300745 5.9043448e-21)
(0.04856568 0.0066841081 2.0680899e-20)
(0.067625644 0.00091055716 7.7490365e-21)
(0.088944907 -0.0048534893 -7.519483e-21)
(0.11240875 -0.010493824 -1.9781155e-21)
(0.13790706 -0.015935295 -4.0070007e-20)
(0.16533173 -0.021132132 -1.3283019e-20)
(0.1945784 -0.026059668 1.983298e-20)
(0.22554763 -0.03070841 -2.2095458e-20)
(0.25809348 -0.03510071 -9.3542031e-21)
(0.29195148 -0.039320536 3.1331705e-20)
(0.32754173 -0.043152836 5.1975595e-20)
(0.36801905 -0.044883447 3.5220703e-21)
(-0.004885765 0.0092312113 1.7109763e-20)
(-0.0087676739 0.01867364 1.4777595e-20)
(-0.0070197454 0.022762428 5.3195261e-20)
(-0.00045289683 0.02314315 2.4628385e-20)
(0.010344531 0.020947824 1.9359535e-22)
(0.024971305 0.017054299 -4.159835e-20)
(0.043090537 0.012110886 -2.5521329e-20)
(0.064413793 0.0065844723 1.1002932e-20)
(0.088693722 0.00080959736 1.5122104e-20)
(0.11571372 -0.0049755833 -1.3663935e-20)
(0.14527693 -0.010604475 -4.6247096e-20)
(0.17719734 -0.015963976 3.1081308e-20)
(0.2112923 -0.020981505 2.0826065e-20)
(0.24737675 -0.02561616 -2.8786249e-20)
(0.28526317 -0.02985196 1.222936e-20)
(0.3247653 -0.033694563 2.5171033e-20)
(0.36565112 -0.037200233 8.4651493e-21)
(0.40754064 -0.040541453 -1.2458194e-20)
(0.45077936 -0.043550004 -1.4398713e-20)
(0.4993641 -0.043917148 6.8295947e-21)
(-0.0045966052 0.0079820288 1.1433374e-20)
(-0.0064800757 0.015095895 -2.4536797e-20)
(-0.00088002 0.017547198 8.5397227e-21)
(0.010874604 0.016773157 3.5093581e-20)
(0.027861585 0.013787356 5.4125811e-20)
(0.049481456 0.00942705 2.1173519e-20)
(0.075238082 0.0043095829 -6.1113012e-21)
(0.10470486 -0.0011269513 -1.2835144e-20)
(0.13751575 -0.0065705721 -6.5231336e-21)
(0.17334556 -0.011801373 3.5829673e-20)
(0.21189163 -0.01666864 -4.8273481e-21)
(0.25285967 -0.021074019 -1.7478048e-20)
(0.29595283 -0.024959655 -2.0486513e-20)
(0.34086375 -0.028300794 -4.9536083e-20)
(0.38727343 -0.031101111 2.4153422e-20)
(0.43485915 -0.033392645 -1.4652453e-20)
(0.48326157 -0.035278905 2.7106161e-20)
(0.53196942 -0.037056549 2.1919666e-20)
(0.5811837 -0.038728478 -8.7790456e-20)
(0.63555087 -0.037553085 1.3665781e-22)
(-0.00356289 0.0061127757 2.2435705e-20)
(-0.0020699367 0.010010993 -2.7193899e-20)
(0.0086493827 0.010345136 -4.6404975e-20)
(0.026779555 0.0082441646 -2.8245994e-20)
(0.051079026 0.0045320169 -2.1258665e-21)
(0.080745253 -4.2007438e-05 1.3632213e-20)
(0.11510916 -0.0049300364 -2.9587632e-21)
(0.15358672 -0.009754097 1.8855571e-20)
(0.19566455 -0.014251699 9.2214003e-21)
(0.24087281 -0.018244386 -1.1860027e-20)
(0.28876059 -0.021618048 9.3498979e-21)
(0.33887793 -0.024308147 -2.4941047e-20)
(0.3907629 -0.026289141 8.5693228e-21)
(0.44393308 -0.027567914 1.7488483e-20)
(0.49788428 -0.028179851 -2.8596795e-21)
(0.55210049 -0.028190839 1.8058496e-21)
(0.60603771 -0.027752162 -4.7267006e-22)
(0.65902924 -0.027268618 2.047031e-20)
(0.71109501 -0.026939604 4.0109956e-21)
(0.7672938 -0.024102798 -1.5071695e-21)
(-0.0016141201 0.0037694038 2.4380896e-20)
(0.0049164839 0.0038193196 5.9159262e-20)
(0.022222468 0.0017931312 -5.059898e-20)
(0.048035804 -0.0015826922 -1.028523e-20)
(0.080808476 -0.0057458904 2.0997264e-20)
(0.11953037 -0.010081728 2.2185339e-21)
(0.16334324 -0.014151477 -3.0888342e-20)
(0.21147806 -0.017673568 7.2528889e-21)
(0.26323713 -0.020467881 7.3738183e-21)
(0.31796211 -0.02242818 -2.7297222e-20)
(0.37500667 -0.023506508 1.3422795e-21)
(0.43371897 -0.023700502 -3.8745584e-20)
(0.4934321 -0.023043072 -3.7891658e-20)
(0.55346048 -0.021594116 6.8500528e-20)
(0.61310237 -0.019433256 5.7982266e-21)
(0.67164658 -0.016659005 -1.5808411e-20)
(0.72835706 -0.013429888 2.0119088e-20)
(0.78239874 -0.010051114 -9.4783874e-22)
(0.83330774 -0.0065451473 2.0727496e-20)
(0.88479448 -0.0013780771 -2.0644185e-20)
(-0.010748431 -0.0056902598 6.0920471e-20)
(-0.0011812715 -0.0062161437 1.6267919e-20)
(0.0097975583 -0.0066389847 -3.6240351e-20)
(0.02183386 -0.0068893416 1.7423435e-20)
(0.034653995 -0.0070501134 0)
(0.048194489 -0.0071497923 0)
(0.062392836 -0.0071912622 -2.3504041e-20)
(0.077166161 -0.0071824832 -1.6802806e-20)
(0.092440592 -0.0071331211 1.9541734e-20)
(0.10815352 -0.0070502219 1.8482908e-20)
(0.12424723 -0.0069391686 1.0448414e-21)
(0.14066733 -0.0068046959 -1.0379899e-20)
(0.15736315 -0.0066509254 8.4792898e-21)
(0.17428733 -0.0064813496 1.8248491e-20)
(0.19139522 -0.0062989572 -5.3386397e-21)
(0.2086445 -0.0061063425 -1.0115936e-20)
(0.22599501 -0.0059057699 -4.2796864e-21)
(0.24340853 -0.0056992264 -4.3298007e-21)
(0.26084871 -0.0054884676 7.1073303e-22)
(0.27828095 -0.0052750537 1.2179738e-21)
(0.29567243 -0.0050603771 2.574447e-21)
(0.31299208 -0.0048456828 6.544536e-21)
(0.33021064 -0.0046320848 1.8125639e-22)
(0.34730068 -0.0044205773 -3.3849246e-21)
(0.36423664 -0.0042120437 1.3873739e-22)
(0.38099491 -0.0040072636 -5.628474e-22)
(0.3975538 -0.0038069179 1.2093436e-21)
(0.41389364 -0.0036115943 9.9935191e-22)
(0.42999672 -0.0034217916 -1.2938951e-21)
(0.44584734 -0.0032379244 -1.0806752e-22)
(0.46143174 -0.0030603277 -1.4635118e-23)
(0.47673813 -0.002889263 -3.3731429e-22)
(0.4917566 -0.0027249229 -4.0856404e-22)
(0.50647906 -0.0025674378 7.799359e-23)
(0.52089924 -0.0024168819 -1.3114426e-22)
(0.53501256 -0.0022732803 -2.0650616e-22)
(0.54881614 -0.0021366153 2.3548707e-22)
(0.56230871 -0.0020068345 2.6865153e-22)
(0.57549057 -0.0018838597 -2.3969257e-23)
(0.58836388 -0.0017675908 -1.6050192e-22)
(0.60093157 -0.0016579353 2.1078417e-23)
(0.61320132 -0.001554763 -3.0309495e-23)
(0.62517394 -0.0014581203 8.4134032e-23)
(0.63688039 -0.0013676484 -2.6239165e-24)
(0.64827297 -0.0012846139 -1.2696761e-22)
(0.65955352 -0.001205821 1.4347571e-24)
(0.67022062 -0.0011433902 4.023102e-24)
(0.68185608 -0.0010648641 -4.6716423e-24)
(0.69013858 -0.001079232 2.7146057e-23)
(0.70727631 -0.00090703652 3.6775189e-22)
(0.019106246 -0.016752353 -1.3529802e-20)
(0.027736102 -0.018348022 -6.5587906e-20)
(0.038255458 -0.019590274 -3.1844425e-20)
(0.049800315 -0.020304043 3.9807967e-20)
(0.061983273 -0.020765929 1.5131039e-20)
(0.074820526 -0.021058595 -1.8884337e-20)
(0.088281239 -0.021182724 4.9993098e-21)
(0.10228548 -0.021160241 2.5943324e-20)
(0.1167668 -0.021019932 -8.0765945e-23)
(0.13167207 -0.020782022 -7.8558549e-21)
(0.14695061 -0.020461682 -1.2948937e-20)
(0.16255335 -0.02007247 -8.7423728e-21)
(0.17843411 -0.019626284 1.7868565e-20)
(0.19454931 -0.019133211 9.3453916e-21)
(0.21085733 -0.018601909 -1.6332839e-20)
(0.22731838 -0.018039926 -6.0190553e-21)
(0.2438943 -0.01745388 3.1461595e-21)
(0.26054853 -0.016849601 8.2191436e-21)
(0.27724605 -0.01623226 6.9496964e-21)
(0.29395336 -0.015606469 -7.0323905e-21)
(0.3106385 -0.014976358 -3.2977193e-21)
(0.32727111 -0.014345632 1.4893268e-21)
(0.34382246 -0.013717613 5.5745577e-22)
(0.36026554 -0.013095274 1.2314228e-21)
(0.3765751 -0.012481263 2.1751695e-22)
(0.39272772 -0.011877922 -3.5542063e-22)
(0.40870184 -0.011287301 -7.3881989e-22)
(0.42447779 -0.010711173 1.0321774e-21)
(0.44003783 -0.010151048 8.524084e-22)
(0.45536613 -0.0096081835 -2.2630645e-22)
(0.47044877 -0.0090836026 5.7946657e-22)
(0.48527369 -0.0085781066 -2.2905651e-22)
(0.49983068 -0.008092293 -3.9648522e-22)
(0.51411134 -0.0076265723 -6.1687552e-22)
(0.52810898 -0.0071811878 4.1975725e-22)
(0.54181862 -0.0067562346 -7.5596662e-23)
(0.55523691 -0.0063516813 1.9860901e-22)
(0.5683621 -0.0059673911 -4.5687019e-22)
(0.58119397 -0.0056031499 4.1941225e-22)
(0.59373417 -0.0052586783 6.285649e-23)
(0.60598509 -0.004933718 -7.4653075e-23)
(0.61795384 -0.004627898 2.0026531e-22)
(0.62964072 -0.004341375 2.6773176e-22)
(0.6410759 -0.0040730921 2.0021149e-22)
(0.65221179 -0.0038268497 2.0898798e-22)
(0.66324734 -0.0035931208 -2.0668876e-23)
(0.67368732 -0.0034080648 1.0624363e-22)
(0.68509103 -0.003174977 9.4338783e-23)
(0.69320064 -0.0032181744 -2.0076731e-22)
(0.71002977 -0.0027070127 -1.9743591e-23)
(0.077211815 -0.026809914 9.984285e-21)
(0.083979638 -0.029484684 3.6568782e-21)
(0.093474728 -0.031490566 -1.3206515e-20)
(0.10399998 -0.032587304 -1.4934233e-21)
(0.11488599 -0.033309787 1.5677059e-20)
(0.12630479 -0.033790009 -1.5336369e-20)
(0.13829557 -0.034007197 -3.0860074e-20)
(0.15078034 -0.033991443 1.5045458e-20)
(0.16370377 -0.033789947 1.8759832e-20)
(0.17703035 -0.03343401 -1.1922338e-20)
(0.19072217 -0.032946103 1.0353787e-21)
(0.20473931 -0.03234687 8.5141223e-21)
(0.21904336 -0.031654789 -1.5575198e-20)
(0.23359727 -0.030885588 3.4662054e-21)
(0.24836469 -0.030052828 7.6985822e-21)
(0.26331001 -0.029168436 -3.2065391e-22)
(0.27839848 -0.028242962 4.8509224e-23)
(0.2935963 -0.027285776 -7.5559685e-21)
(0.30887065 -0.026305247 4.2238856e-21)
(0.32418978 -0.025308893 8.5933863e-21)
(0.33952313 -0.024303486 -3.8737796e-21)
(0.35484145 -0.023295135 -2.1862537e-21)
(0.37011686 -0.022289346 9.3067296e-22)
(0.38532296 -0.021291065 -1.7531797e-21)
(0.40043495 -0.020304719 1.3253285e-21)
(0.41542965 -0.019334235 7.0212204e-22)
(0.43028564 -0.018383066 1.7007853e-21)
(0.4449832 -0.017454211 -2.0927741e-21)
(0.45950443 -0.016550236 2.3771941e-21)
(0.47383324 -0.015673293 5.7675051e-22)
(0.4879553 -0.014825145 5.3781487e-22)
(0.50185809 -0.014007187 3.085149e-22)
(0.51553081 -0.013220479 9.6486342e-22)
(0.5289644 -0.012465769 -1.4904565e-21)
(0.54215143 -0.011743528 4.1085676e-22)
(0.55508612 -0.011053981 1.8040682e-22)
(0.56776426 -0.01039714 -6.7025807e-23)
(0.58018321 -0.0097728438 4.1109511e-23)
(0.5923418 -0.0091807999 -3.9048381e-22)
(0.60424068 -0.0086206056 2.0881973e-22)
(0.61588126 -0.0080918923 -3.1663004e-23)
(0.62726958 -0.0075941016 4.8750158e-22)
(0.63840501 -0.0071275481 -2.2767346e-22)
(0.64931626 -0.006690532 4.1032572e-23)
(0.65995591 -0.0062893813 6.3395036e-23)
(0.6705175 -0.005908426 -8.628271e-23)
(0.68051758 -0.0056072271 -1.4397311e-22)
(0.69147228 -0.0052269218 4.6806769e-22)
(0.69924635 -0.0052990162 1.7831837e-22)
(0.7154771 -0.0044651573 -8.4453122e-22)
(0.16082322 -0.035145089 1.7062159e-21)
(0.16482202 -0.038881676 -1.1724887e-20)
(0.17258097 -0.041569268 6.6113311e-21)
(0.18148927 -0.042954797 -1.3811333e-20)
(0.19039322 -0.043900134 -2.0433642e-21)
(0.19966805 -0.044576896 9.68798e-21)
(0.20947101 -0.044919716 -1.0508731e-20)
(0.21972262 -0.044957479 1.2783513e-21)
(0.2303756 -0.044753337 1.3205663e-20)
(0.24141718 -0.044347081 3.6771896e-21)
(0.25282619 -0.043765286 -6.3180413e-21)
(0.26457344 -0.04303306 -3.0950765e-21)
(0.27662952 -0.042173662 -5.6457436e-21)
(0.28896502 -0.041207169 -6.6699821e-21)
(0.30154968 -0.04015104 2.9414547e-21)
(0.31435264 -0.039020818 4.8263032e-22)
(0.32734294 -0.037830446 1.4998398e-21)
(0.34048976 -0.036592462 -3.3831091e-21)
(0.35376262 -0.035318187 -4.4624423e-21)
(0.36713163 -0.034017892 2.4647896e-21)
(0.38056764 -0.032700907 3.412785e-21)
(0.39404245 -0.031375715 -1.7417354e-21)
(0.40752896 -0.030050008 1.6503312e-21)
(0.42100133 -0.028730745 -4.6913146e-22)
(0.43443504 -0.027424177 -4.1683438e-21)
(0.44780706 -0.026135885 -3.0508819e-21)
(0.46109589 -0.024870801 -2.5756384e-22)
(0.47428163 -0.023633231 3.5261197e-22)
(0.48734601 -0.022426884 -2.2072484e-21)
(0.50027245 -0.021254894 -9.9398481e-22)
(0.513046 -0.020119857 2.2019801e-22)
(0.52565341 -0.019023857 -1.3448128e-21)
(0.53808303 -0.017968507 -3.9092305e-23)
(0.55032485 -0.01695499 -4.8034062e-22)
(0.56237043 -0.015984097 -4.5054194e-22)
(0.57421288 -0.015056276 -6.313716e-22)
(0.58584681 -0.014171677 -9.8204418e-22)
(0.59726834 -0.013330203 -2.6864694e-23)
(0.60847503 -0.012531574 -3.6423039e-24)
(0.61946619 -0.011775351 -5.8309209e-22)
(0.6302419 -0.011061139 -4.3009079e-23)
(0.64080676 -0.010388275 -3.9148971e-22)
(0.6511589 -0.0097573011 -5.5765981e-22)
(0.66132498 -0.009165966 4.5367731e-22)
(0.67125797 -0.0086230938 1.4083895e-23)
(0.68114368 -0.0081072133 2.224925e-22)
(0.69051568 -0.0077001433 -1.6275123e-22)
(0.70082804 -0.0071845256 -3.1890667e-22)
(0.70812219 -0.0072853107 -2.5971121e-23)
(0.72349401 -0.0061552286 4.774949e-22)
(0.26608867 -0.040974074 -2.2235852e-20)
(0.2664114 -0.045744488 4.9135679e-20)
(0.27156356 -0.049019975 1.0599774e-20)
(0.2781559 -0.050625449 -1.6369111e-20)
(0.28437613 -0.051791592 -2.3337928e-21)
(0.29078961 -0.052707267 2.4571722e-21)
(0.29771965 -0.053245711 -1.9484087e-21)
(0.30508656 -0.05342413 -4.8077746e-21)
(0.31283964 -0.053314667 -4.1152353e-21)
(0.32098776 -0.052962387 -1.2482327e-20)
(0.32952794 -0.052395566 1.8569061e-20)
(0.33844106 -0.051641088 6.8473403e-21)
(0.34770519 -0.05072484 -1.7021559e-20)
(0.35729755 -0.049669874 1.0082123e-20)
(0.36719313 -0.048496617 8.1012972e-21)
(0.37736499 -0.047223541 -5.449487e-22)
(0.38778513 -0.045867509 -2.9093631e-21)
(0.39842498 -0.04444394 -4.1249381e-21)
(0.40925577 -0.042966962 -1.5290959e-21)
(0.42024879 -0.041449539 -1.352287e-21)
(0.43137577 -0.039903576 -3.2563557e-21)
(0.44260905 -0.038339985 0)
(0.45392185 -0.036768745 -1.4458064e-21)
(0.46528839 -0.035198931 3.9700285e-21)
(0.4766841 -0.033638754 5.5987847e-21)
(0.48808569 -0.03209558 -9.192682e-22)
(0.49947126 -0.030575956 -3.1740759e-21)
(0.51082039 -0.029085638 3.3208171e-21)
(0.52211415 -0.027629614 1.1130686e-22)
(0.53333518 -0.026212142 3.6665211e-21)
(0.54446765 -0.024836781 -5.162838e-22)
(0.55549731 -0.02350644 1.7743848e-21)
(0.56641143 -0.022223417 -8.725665e-22)
(0.57719883 -0.020989452 3.7352282e-22)
(0.58784981 -0.019805786 -5.0480176e-22)
(0.59835613 -0.018673209 5.7741208e-22)
(0.60871103 -0.017592128 5.1127364e-22)
(0.61890918 -0.016562628 4.2916516e-22)
(0.62894662 -0.015584552 -1.0633598e-21)
(0.63882114 -0.014657534 7.5980884e-22)
(0.64853126 -0.013781258 -4.0290051e-22)
(0.65807993 -0.012955056 -1.2784953e-21)
(0.66746384 -0.012179782 1.6318333e-21)
(0.67670725 -0.011452748 -5.7389772e-23)
(0.68576374 -0.010785218 -1.849556e-22)
(0.69480952 -0.010150384 -7.3104001e-24)
(0.7033998 -0.0096507412 -1.7226068e-22)
(0.71291022 -0.0090154357 -5.5052161e-22)
(0.71960594 -0.0091444065 8.1683334e-22)
(0.73389963 -0.0077530386 -4.814888e-23)
(0.388117 -0.043349881 -1.864086e-20)
(0.3838958 -0.049180754 1.3103096e-20)
(0.38546736 -0.052992246 3.5378016e-21)
(0.38895723 -0.054839403 -7.949848e-21)
(0.39181922 -0.056304644 1.2491631e-20)
(0.39471548 -0.057556202 8.0604812e-21)
(0.39816116 -0.058410348 -1.28054e-20)
(0.40209321 -0.058869231 -6.2425095e-21)
(0.40644192 -0.059001112 1.3028362e-20)
(0.4112257 -0.058850156 -1.6103651e-20)
(0.41645723 -0.058445153 -1.4346938e-20)
(0.42212536 -0.057813308 1.4872475e-20)
(0.42821208 -0.056981313 6.9460684e-21)
(0.43469802 -0.055974038 -4.8452935e-21)
(0.44156096 -0.054814309 -1.5279043e-21)
(0.44877592 -0.053523212 -3.7639852e-21)
(0.45631609 -0.052120367 4.9943948e-21)
(0.46415365 -0.05062406 3.6808517e-21)
(0.47226017 -0.04905131 -3.167992e-21)
(0.48060706 -0.047417937 3.1288834e-21)
(0.48916587 -0.045738614 2.8908278e-21)
(0.49790863 -0.04402691 -3.3199797e-21)
(0.50680807 -0.042295319 3.6836224e-22)
(0.51583785 -0.040555279 -3.2128834e-21)
(0.52497267 -0.03881719 7.8379589e-21)
(0.53418846 -0.037090433 6.3807064e-21)
(0.54346246 -0.035383394 9.6276362e-22)
(0.55277326 -0.033703485 -1.8149325e-21)
(0.56210093 -0.032057177 4.0759831e-21)
(0.57142699 -0.030450038 7.764057e-21)
(0.58073443 -0.028886776 2.3671683e-21)
(0.59000775 -0.027371292 3.5746277e-21)
(0.59923293 -0.025906733 2.0919412e-21)
(0.6083974 -0.024495558 8.170515e-22)
(0.61749005 -0.0231396 -2.5217788e-22)
(0.62650118 -0.021840137 2.9630266e-21)
(0.63542249 -0.020597971 6.6972005e-22)
(0.6442471 -0.019413496 3.1076345e-22)
(0.65296946 -0.018286806 5.6753695e-23)
(0.66158575 -0.017217728 1.1337461e-21)
(0.67009286 -0.016206136 4.4032829e-23)
(0.67849197 -0.01525147 5.2878881e-22)
(0.68677835 -0.014354983 -1.2646466e-22)
(0.69497365 -0.013513677 -3.552957e-22)
(0.70303233 -0.012741172 -1.8251889e-22)
(0.71111957 -0.012005874 -5.0198728e-22)
(0.71881617 -0.011429033 2.0926951e-22)
(0.72740586 -0.010692298 -1.4900165e-22)
(0.73341622 -0.010848674 -4.665981e-22)
(0.74646279 -0.009237091 2.688663e-22)
(0.52085714 -0.041348179 3.5171584e-21)
(0.5114382 -0.048275204 -1.9206157e-20)
(0.50848417 -0.05262579 -2.4859655e-21)
(0.50809031 -0.05489837 5.6253757e-21)
(0.50705833 -0.056882545 3.3966123e-21)
(0.50595601 -0.058655277 3.6544044e-22)
(0.50545999 -0.06000704 6.8268165e-21)
(0.50556699 -0.060940844 7.9653192e-21)
(0.50618523 -0.061510757 1.0019582e-20)
(0.50731998 -0.061751222 -1.164287e-20)
(0.50898926 -0.061689931 -2.2450102e-20)
(0.51118688 -0.061354523 -4.3048197e-21)
(0.51389507 -0.060772058 1.6500004e-20)
(0.51709356 -0.059968818 1.3192889e-20)
(0.52075966 -0.058970064 -5.8038028e-21)
(0.52486783 -0.057799785 1.0742172e-21)
(0.52939045 -0.056480716 -4.0012484e-21)
(0.53429866 -0.055034395 2.7924959e-21)
(0.53956292 -0.053481152 -2.9264724e-22)
(0.54515345 -0.051840085 -1.9323079e-21)
(0.55104058 -0.050129058 8.2619402e-21)
(0.55719506 -0.048364702 -4.2057564e-22)
(0.56358831 -0.046562409 5.3666956e-22)
(0.57019266 -0.04473634 -5.307089e-22)
(0.57698145 -0.042899426 -4.4385028e-21)
(0.58392926 -0.041063379 4.3351631e-21)
(0.59101191 -0.039238713 1.86514e-21)
(0.59820662 -0.037434769 -3.3962759e-21)