/*--------------------------------*- C++ -*----------------------------------*\
  =========                 |
  \\      /  F ield         | OpenFOAM: The Open Source CFD Toolbox
   \\    /   O peration     | Website:  https://openfoam.org
    \\  /    A nd           | Version:  6
     \\/     M anipulation  |
\*---------------------------------------------------------------------------*/
FoamFile
{
    version     2.0;
    format      ascii;
    class       volVectorField;
    location    "232";
    object      U;
}
// * * * * * * * * * * * * * * * * * * * * * * * * * * * * * * * * * * * * * //

dimensions      [0 1 -1 0 0 0 0];

internalField   nonuniform List<vector> 
9200
(
(0.0010393462 0.0014199822 -5.9201837e-20)
(0.013676067 -0.0020583666 4.6042531e-20)
(0.038313166 -0.0058665678 -3.8501733e-20)
(0.072274436 -0.0097635047 -6.0257746e-20)
(0.11376474 -0.013490028 1.8826962e-20)
(0.16158089 -0.016605657 3.2743876e-20)
(0.21467148 -0.018817284 -1.2268006e-20)
(0.27206607 -0.019973889 9.26886e-21)
(0.33285622 -0.020011221 1.6803424e-20)
(0.39616347 -0.018929049 1.484807e-21)
(0.46111555 -0.016779812 -2.1456333e-20)
(0.52683686 -0.013657727 2.067e-20)
(0.59245067 -0.0096879924 -4.0422138e-20)
(0.6570913 -0.0050157691 -2.1133897e-20)
(0.7199247 0.00020557044 5.9046515e-21)
(0.78017501 0.0058241058 -2.5131668e-20)
(0.83717058 0.011712825 2.5217098e-20)
(0.89046875 0.017918526 2.2243177e-20)
(0.9396707 0.024573427 -2.9929051e-22)
(0.98205185 0.028293397 -1.6691718e-21)
(0.0052521803 -0.001346273 -1.7059352e-20)
(0.026962501 -0.0089890259 3.9747709e-20)
(0.061670115 -0.014809763 2.3576293e-20)
(0.10629489 -0.019172267 -1.1569757e-19)
(0.15873565 -0.022213994 -1.2727087e-20)
(0.21753351 -0.023720681 7.3297073e-20)
(0.28137295 -0.023595091 -3.5476396e-20)
(0.349006 -0.021868959 -8.3905559e-21)
(0.41923919 -0.018645517 3.4287536e-20)
(0.49090943 -0.014080833 -4.3259572e-20)
(0.56287231 -0.0083759417 -3.0338476e-20)
(0.63400846 -0.0017665841 7.1921418e-20)
(0.70324328 0.0054884059 3.829404e-20)
(0.7695758 0.013118645 -6.7976545e-20)
(0.83211244 0.020852096 1.4623689e-20)
(0.89010036 0.028419719 -3.6733397e-20)
(0.94296915 0.035569687 -1.3777188e-20)
(0.99043229 0.042140899 7.0974795e-20)
(1.032356 0.047715321 2.9642054e-20)
(1.0669348 0.0491397 -8.3478507e-20)
(0.010858426 -0.0040424156 3.6773456e-20)
(0.043953413 -0.015431076 2.504736e-21)
(0.090515434 -0.022552281 2.234171e-20)
(0.14711139 -0.026497356 9.8116819e-22)
(0.21134254 -0.027886294 -4.0773934e-20)
(0.28146767 -0.026795111 1.8576402e-20)
(0.3558704 -0.023382724 1.3420299e-20)
(0.43299006 -0.017921532 -5.0327698e-20)
(0.51132476 -0.010735645 5.7261851e-20)
(0.58942612 -0.0021838748 1.4256685e-20)
(0.66590915 0.0073479114 -5.43007e-20)
(0.73948034 0.017460269 -1.8237398e-20)
(0.80897596 0.027756568 9.0591618e-21)
(0.87340263 0.037859277 2.3444732e-20)
(0.93197361 0.047424049 -1.1362503e-20)
(0.98413366 0.056148977 2.7877728e-20)
(1.029574 0.063789177 -2.0188244e-20)
(1.0682645 0.070204395 -7.0123611e-20)
(1.1003321 0.075119381 -2.3796259e-20)
(1.1249112 0.076641239 4.8659973e-20)
(0.017957214 -0.0064221631 2.4508014e-20)
(0.064776994 -0.020694799 5.1039222e-20)
(0.12485228 -0.028060846 1.9881694e-20)
(0.19446965 -0.030464064 1.2990095e-20)
(0.27094931 -0.029094839 1.7275702e-20)
(0.35224879 -0.024388975 -4.7720168e-20)
(0.43643138 -0.016825969 -2.5646854e-20)
(0.52162007 -0.0069766668 0)
(0.60602894 0.0045670357 1.3920613e-20)
(0.68798706 0.017211735 -5.8523369e-21)
(0.76597516 0.030373925 -9.793493e-20)
(0.83867446 0.043499636 -1.5774815e-20)
(0.90501524 0.05608662 6.5103182e-20)
(0.96421569 0.067704138 4.8442743e-22)
(1.0158035 0.078007718 -1.5725563e-21)
(1.0596155 0.086746796 2.1957492e-20)
(1.0957773 0.093772231 -5.2647166e-21)
(1.12468 0.099065338 -6.1029723e-20)
(1.1468647 0.10259708 -4.5851168e-20)
(1.1622957 0.10341386 6.9520432e-20)
(0.02657942 -0.0082056878 -3.9194204e-21)
(0.089344019 -0.024033505 -5.1256323e-21)
(0.16430753 -0.030264987 5.6599407e-20)
(0.24758119 -0.029810017 1.8539323e-20)
(0.3362416 -0.024513025 -3.1955064e-20)
(0.42795125 -0.015239857 1.2163839e-20)
(0.52047261 -0.0028513597 2.640286e-21)
(0.61166357 0.011737098 3.3609166e-20)
(0.69954711 0.027640145 5.6599498e-21)
(0.78236836 0.044028772 -1.3204737e-20)
(0.85865405 0.060147727 6.0154027e-20)
(0.9272691 0.075340474 -5.8009348e-20)
(0.98745675 0.089072865 -1.321661e-19)
(1.0388531 0.10094902 -5.5773021e-21)
(1.0814725 0.11071709 8.3150747e-20)
(1.1156655 0.11826405 0)
(1.1420548 0.12360583 1.0118959e-20)
(1.1614668 0.12689056 -1.5459762e-20)
(1.1748179 0.12829871 -8.5994375e-21)
(1.1826673 0.12744917 2.0992186e-20)
(0.036666908 -0.0090895794 -5.4309134e-21)
(0.11731511 -0.024685356 4.3578744e-21)
(0.20811868 -0.028140177 -8.7629837e-21)
(0.30515702 -0.023414953 2.8472394e-20)
(0.40533539 -0.013075589 -2.9392662e-20)
(0.50607147 0.0015226178 -1.6927022e-20)
(0.60490489 0.019095143 3.7364232e-20)
(0.69954958 0.038365257 4.7595455e-21)
(0.78800391 0.058167648 -2.4436053e-20)
(0.86863404 0.077483008 6.986755e-20)
(0.94023972 0.095458646 5.2394011e-22)
(1.0020956 0.11143157 -8.0444303e-20)
(1.0539569 0.12494291 0)
(1.0960273 0.1357375 3.9542109e-20)
(1.1288922 0.14374843 5.5235997e-21)
(1.1534278 0.14906894 -7.7566382e-20)
(1.170699 0.15191914 -1.9586917e-20)
(1.1818623 0.15262369 -1.2467628e-20)
(1.1880592 0.15152607 -1.4709376e-20)
(1.190146 0.14858494 4.0420456e-20)
(0.048058868 -0.0087674049 -1.7277959e-20)
(0.1480831 -0.021931992 -2.2198251e-21)
(0.2551407 -0.020797833 3.0380504e-20)
(0.36546384 -0.010412791 3.748431e-20)
(0.4759042 0.0059015902 -1.9944733e-20)
(0.58374266 0.026269309 -6.9163027e-20)
(0.68644185 0.048977211 -2.7995794e-20)
(0.78176203 0.072417791 7.8929204e-20)
(0.86790195 0.095212481 8.5778116e-21)
(0.94358915 0.11624962 -2.487348e-20)
(1.0081258 0.13469827 1.3642211e-20)
(1.061387 0.15001556 -4.3194483e-21)
(1.1037693 0.16193659 0)
(1.1360975 0.17044428 2.7203478e-20)
(1.1595046 0.17572309 -7.9322399e-20)
(1.175302 0.1781037 -3.1475522e-20)
(1.184857 0.17800813 8.1054563e-20)
(1.1894921 0.17590946 -4.2969798e-21)
(1.1904029 0.17225559 3.5561088e-21)
(1.188508 0.16719299 2.7111554e-20)
(0.06048525 -0.0069573638 -3.2414615e-20)
(0.18077772 -0.01517038 -8.1624316e-20)
(0.30388929 -0.007583526 2.5797776e-21)
(0.42642555 0.0097033575 7.0161807e-20)
(0.54535148 0.032631555 6.2424373e-20)
(0.657981 0.058820045 -7.157452e-20)
(0.76190882 0.086176509 -2.8275268e-22)
(0.8551829 0.11285231 8.552254e-20)
(0.93645345 0.13737838 4.8828065e-20)
(1.0050415 0.1586937 -5.4218402e-20)
(1.0609356 0.17613563 -9.2334206e-20)
(1.1047242 0.18941354 -3.1589823e-21)
(1.1374759 0.19855944 4.2127862e-20)
(1.1605873 0.20385857 -6.6056278e-21)
(1.1756247 0.2057702 -1.2868787e-20)
(1.1841776 0.2048492 1.9690809e-20)
(1.1877427 0.20167898 4.3880614e-20)
(1.1876453 0.19682588 -4.3859435e-20)
(1.1849954 0.19077885 -1.0232204e-19)
(1.180625 0.18377381 2.4566888e-20)
(0.073537215 -0.0034329734 -3.4979749e-20)
(0.21422687 -0.0039890253 -1.7388611e-19)
(0.35251657 0.011839376 8.2103236e-20)
(0.48562797 0.037018337 9.2767512e-20)
(0.61085379 0.066835552 5.7970565e-20)
(0.72576726 0.098481178 8.610709e-21)
(0.82834802 0.12959696 -1.0624009e-19)
(0.91718997 0.15824269 0)
(0.99162743 0.18302814 -6.8748583e-20)
(1.0517521 0.20311207 -1.5202408e-20)
(1.0983384 0.21814861 5.4703461e-20)
(1.1327008 0.22821083 1.0973379e-20)
(1.1565109 0.2336926 -4.5613851e-20)
(1.1716067 0.23519947 -4.9081359e-20)
(1.1798204 0.23344336 2.4287678e-20)
(1.182845 0.22915324 4.4822887e-20)
(1.1821488 0.22300986 -5.5600405e-20)
(1.178936 0.21560823 -1.0751122e-19)
(1.1741468 0.20742225 -3.1513617e-21)
(1.1684567 0.19871881 2.7046405e-20)
(0.086650446 0.001961386 -3.5448986e-21)
(0.24696019 0.011816634 8.7913239e-20)
(0.39884739 0.03749231 -1.6479249e-20)
(0.54040465 0.071218382 -8.4309144e-20)
(0.66949902 0.10778893 4.5164369e-20)
(0.78421952 0.14411543 4.9175453e-20)
(0.88318939 0.17775668 5.5356779e-21)
(0.96577869 0.2068849 -9.9502484e-20)
(1.0321763 0.23038802 -2.5048778e-21)
(1.0833328 0.24781553 5.0503539e-20)
(1.120807 0.25926301 5.9854755e-21)
(1.1465558 0.2652362 -1.9717205e-20)
(1.1627107 0.26650533 -7.5704623e-20)
(1.1713765 0.26396622 -6.2554022e-21)
(1.1744762 0.2585243 4.3533352e-20)
(1.1736548 0.25101089 3.7022011e-20)
(1.1702383 0.24213396 1.9793441e-20)
(1.1652402 0.23245876 -5.2994842e-20)
(1.1594014 0.22240419 1.2957449e-20)
(1.1532251 0.212238 8.2659098e-20)
(-0.0012932614 0.0014346597 -1.1234456e-21)
(-0.0047459601 0.0031874147 2.0646968e-21)
(-0.010771358 0.0041359039 8.7949728e-22)
(-0.017754286 0.0045395358 -2.4411026e-21)
(-0.024740317 0.0045654164 -1.4114814e-21)
(-0.031299591 0.0043260384 1.546001e-21)
(-0.037161326 0.003903538 -6.8700783e-21)
(-0.04214744 0.0033577216 -5.9573031e-21)
(-0.046157774 0.0027313811 1.1171995e-20)
(-0.049146188 0.0020548305 -9.7427465e-21)
(-0.051100652 0.0013493004 -1.9833033e-22)
(-0.052030442 0.00062942191 3.6673434e-21)
(-0.051957736 -9.4889445e-05 -6.3295568e-22)
(-0.05091188 -0.00081693031 2.281874e-20)
(-0.048925777 -0.0015318446 3.0401074e-22)
(-0.046035341 -0.0022351738 -4.0882865e-20)
(-0.042281798 -0.0029222678 7.5385612e-21)
(-0.037703443 -0.0035910382 2.3864107e-20)
(-0.032308696 -0.0042399862 -4.3852369e-20)
(-0.026156967 -0.0048211127 -2.7739201e-20)
(-0.0016521998 0.0041808661 -5.3716018e-21)
(-0.0053974809 0.0092681378 1.0865439e-20)
(-0.011218509 0.012007443 -1.0191541e-20)
(-0.017658025 0.013153763 3.9229717e-21)
(-0.023856432 0.013195413 4.8121413e-21)
(-0.029433316 0.012462724 7.1324154e-22)
(-0.034152319 0.011197013 -2.2509482e-20)
(-0.037860376 0.0095738965 -2.0370235e-21)
(-0.040474297 0.007718987 2.0163535e-20)
(-0.04195892 0.0057212303 -5.0473588e-21)
(-0.042308949 0.0036428646 -2.1762584e-20)
(-0.041537336 0.0015267129 4.8973158e-21)
(-0.039667712 -0.00059830511 2.2635416e-20)
(-0.036729081 -0.0027127605 1.0308389e-20)
(-0.032752035 -0.0048026884 2.1854281e-20)
(-0.027769172 -0.0068555075 -1.9770725e-20)
(-0.021824798 -0.0088582186 -2.167294e-20)
(-0.014966275 -0.010804224 2.1184614e-20)
(-0.0071290239 -0.012678999 2.681036e-20)
(0.0018742869 -0.014317222 1.5854762e-20)
(-0.0023034291 0.0065602324 -4.3568684e-21)
(-0.0065392236 0.014480195 -5.6387548e-21)
(-0.011892131 0.018710542 3.0723961e-22)
(-0.017211098 0.020428179 1.095989e-21)
(-0.021819141 0.020400323 6.6918388e-21)
(-0.02543104 0.019151665 1.0665166e-20)
(-0.027877231 0.017066287 -3.7227625e-21)
(-0.029053268 0.014423782 -1.889616e-20)
(-0.028909036 0.011424352 6.5413156e-21)
(-0.02743105 0.0082099049 1.2862567e-20)
(-0.024627714 0.0048797761 5.8340841e-21)
(-0.02052011 0.0015022389 1.8159101e-20)
(-0.015135988 -0.0018768627 1.7295911e-21)
(-0.0085054022 -0.0052272469 -3.386452e-20)
(-0.00065689782 -0.0085276089 1.2020173e-21)
(0.0083810102 -0.011759108 -2.2139206e-20)
(0.018556858 -0.014904094 -2.4466298e-20)
(0.029802169 -0.01795375 4.5819702e-20)
(0.04230495 -0.020855114 2.5349343e-20)
(0.056738554 -0.023247763 1.2239332e-22)
(-0.0031290275 0.0083689697 -5.2833064e-21)
(-0.0078963985 0.018336512 -8.4815243e-21)
(-0.012438985 0.023587808 4.3593043e-21)
(-0.016026534 0.025609657 4.1463442e-21)
(-0.018235023 0.025382744 2.0105705e-21)
(-0.018912651 0.023589321 7.3209933e-21)
(-0.017984717 0.020730272 9.3124752e-21)
(-0.01541671 0.017170377 -1.3511349e-21)
(-0.011207049 0.013171314 -1.1481943e-20)
(-0.0053752362 0.0089189316 -2.907187e-20)
(0.002048107 0.0045434376 6.1892503e-23)
(0.011026502 0.00013431167 4.0697811e-20)
(0.021522216 -0.0042489499 -1.8383167e-20)
(0.033497839 -0.0085675835 -1.2296085e-20)
(0.046920497 -0.012795544 5.5348908e-22)
(0.061760077 -0.016911853 3.2302637e-20)
(0.077952991 -0.020901667 -1.4829541e-20)
(0.095392238 -0.024763372 -5.3339172e-20)
(0.11439842 -0.028379713 4.5764998e-20)
(0.13634535 -0.03107309 3.3013162e-20)
(-0.0039704095 0.0094657319 -6.8788999e-22)
(-0.0090916577 0.020487791 -1.2534738e-20)
(-0.012364471 0.026159086 -3.4144529e-20)
(-0.01355254 0.028143337 -5.7241603e-21)
(-0.01253324 0.027555006 -3.622274e-21)
(-0.009316725 0.025188063 6.305102e-21)
(-0.0039456461 0.021627411 -4.6461945e-21)
(0.0035261259 0.017298959 -8.8070245e-21)
(0.013036817 0.012508752 2.1899704e-20)
(0.024521237 0.0074744432 5.0567059e-21)
(0.037915532 0.0023489049 -2.5290288e-20)
(0.053157437 -0.0027627828 1.1078276e-20)
(0.070186857 -0.0077908729 0)
(0.088946568 -0.012691301 1.2089573e-20)
(0.10938542 -0.017436917 -9.7016154e-21)
(0.1314574 -0.022009893 -1.4337116e-20)
(0.15507405 -0.026408642 -1.5738937e-21)
(0.18006758 -0.030659416 -2.2181552e-21)
(0.20685339 -0.034576529 4.6147055e-20)
(0.23766356 -0.037019863 -1.0470125e-20)
(-0.0046450977 0.009780862 -7.5356671e-21)
(-0.0096772505 0.020747879 2.4516397e-20)
(-0.01106438 0.026160976 -1.0499345e-20)
(-0.0090968327 0.027724444 -2.7469276e-20)
(-0.0039797215 0.026601694 -2.7548142e-20)
(0.0040961814 0.023648408 -1.4921566e-20)
(0.014954147 0.019496457 -6.9059582e-22)
(0.028436232 0.014604706 5.549977e-21)
(0.044403142 0.0093034473 1.9615874e-20)
(0.06273049 0.0038284166 7.3530837e-21)
(0.083304308 -0.0016547536 -7.1862194e-21)
(0.10601896 -0.0070322366 -2.0102305e-21)
(0.13077356 -0.012229095 -3.81917e-20)
(0.15746942 -0.01719975 -1.2693642e-20)
(0.18601198 -0.021919731 1.8750602e-20)
(0.21631175 -0.026379713 -2.1021669e-20)
(0.24823221 -0.030602218 -8.9730553e-21)
(0.28151865 -0.034670602 3.0440457e-20)
(0.31660701 -0.038364813 5.0472064e-20)
(0.35665013 -0.039964093 3.3559667e-21)
(-0.0049617682 0.0093139984 1.6783302e-20)
(-0.009166269 0.019097709 1.4467936e-20)
(-0.0078593649 0.023563366 5.114548e-20)
(-0.00185854 0.024328943 2.3387978e-20)
(0.0082957217 0.022523783 1.8251771e-22)
(0.022221938 0.019014385 -3.9388448e-20)
(0.039597439 0.014440936 -2.4313855e-20)
(0.060147899 0.0092663604 1.0465815e-20)
(0.083639109 0.0038232295 1.4401583e-20)
(0.10986668 -0.0016512974 -1.3113709e-20)
(0.13864562 -0.0069910073 -4.4038704e-20)
(0.16980169 -0.012082844 2.9618491e-20)
(0.20316403 -0.016854155 2.0020547e-20)
(0.23855944 -0.021263991 -2.7551149e-20)
(0.27581228 -0.025296398 1.1650132e-20)
(0.31474809 -0.028957162 2.4197606e-20)
(0.35514543 -0.032303046 8.0723918e-21)
(0.39663385 -0.035506669 -1.1764208e-20)
(0.43957699 -0.038392634 -1.4190297e-20)
(0.48798507 -0.038634393 5.8727622e-21)
(-0.0047307761 0.008123673 1.1093844e-20)
(-0.0070586004 0.015671176 -2.3352716e-20)
(-0.0020293663 0.018562032 8.6200535e-21)
(0.0090325191 0.018216225 3.3587962e-20)
(0.025256359 0.01565115 5.212433e-20)
(0.046066335 0.011695604 2.0276506e-20)
(0.070984519 0.0069609535 -5.8639342e-21)
(0.099601942 0.0018829529 -1.2286282e-20)
(0.13156893 -0.003227196 -6.2057451e-21)
(0.16657566 -0.0081496547 3.4240827e-20)
(0.20433423 -0.012733317 -4.5104365e-21)
(0.24456483 -0.016879183 -1.6643296e-20)
(0.28698468 -0.020528681 -1.9693568e-20)
(0.33129996 -0.023656405 -4.7443725e-20)
(0.37720456 -0.026265525 2.3238697e-20)
(0.42438767 -0.028387852 -1.4095979e-20)
(0.47249971 -0.030127609 2.599339e-20)
(0.52103615 -0.031783176 2.1040817e-20)
(0.57021392 -0.033350663 -8.5570377e-20)
(0.62470913 -0.032058823 -1.0807227e-22)
(-0.0037710519 0.0063146393 2.1925053e-20)
(-0.0028657666 0.010735096 -2.6165527e-20)
(0.0071421039 0.011564137 -4.5013289e-20)
(0.024450231 0.0099249904 -2.7253778e-20)
(0.047870848 0.0066523071 -2.0439866e-21)
(0.076628698 0.0024906188 1.3050094e-20)
(0.11007672 -0.002015393 -2.8337698e-21)
(0.14765205 -0.0064879011 1.8118534e-20)
(0.18886095 -0.0106635 8.8685603e-21)
(0.23325194 -0.014362416 -1.138017e-20)
(0.28039148 -0.017468943 8.8779097e-21)
(0.32984602 -0.019916799 -2.3903262e-20)
(0.38116878 -0.021678689 8.0504733e-21)
(0.43389082 -0.022759865 1.6756387e-20)
(0.48751933 -0.023194289 -2.6395107e-21)
(0.54154713 -0.023046878 1.6618962e-21)
(0.59543543 -0.02246943 -3.1957368e-22)
(0.6485178 -0.021870087 1.9590413e-20)
(0.70082236 -0.021445043 4.0433989e-21)
(0.75745147 -0.01849906 -5.7333616e-22)
(-0.0019110144 0.0040273482 2.369211e-20)
(0.0038694295 0.0046765207 5.7159954e-20)
(0.020315309 0.0031879654 -4.9244219e-20)
(0.045178282 0.00029442773 -9.9454138e-21)
(0.076965148 -0.0034241496 2.0256344e-20)
(0.11469622 -0.007353583 2.1433715e-21)
(0.15753882 -0.011054953 -2.9815158e-20)
(0.2047483 -0.014244135 6.9848098e-21)
(0.25564948 -0.016737923 7.1097859e-21)
(0.30960472 -0.01842695 -2.6254073e-20)
(0.36598646 -0.01926009 1.2927322e-21)
(0.42415956 -0.019231858 -3.7174105e-20)
(0.48347099 -0.018372192 -3.6341006e-20)
(0.54324563 -0.016738264 6.5683464e-20)
(0.6027881 -0.014407289 5.562747e-21)
(0.66138882 -0.011475883 -1.5188791e-20)
(0.71830782 -0.008102029 1.9363956e-20)
(0.77269899 -0.0045928481 -9.1888089e-22)
(0.82408833 -0.00096802941 2.0364572e-20)
(0.87621964 0.0043280888 -1.9554123e-20)
(-0.018836425 -0.0050997019 5.8352029e-20)
(-0.010224666 -0.005634925 1.578366e-20)
(-0.00022120868 -0.0060688776 -3.5139546e-20)
(0.010823208 -0.0063341069 1.6790229e-20)
(0.022642444 -0.006512044 0)
(0.035177857 -0.0066300866 0)
(0.048369628 -0.0066909697 -2.2974937e-20)
(0.062138038 -0.0067025359 -1.6502862e-20)
(0.076412674 -0.0066741702 1.9122585e-20)
(0.091134028 -0.0066126613 1.8174026e-20)
(0.10624713 -0.0065232012 1.0524246e-21)
(0.12170016 -0.0064103533 -1.0317631e-20)
(0.13744484 -0.0062780763 8.3268769e-21)
(0.15343594 -0.0061297175 1.8233707e-20)
(0.1696307 -0.00596814 -5.227416e-21)
(0.18598847 -0.0057958294 -1.0174929e-20)
(0.20247049 -0.0056149568 -4.3195849e-21)
(0.21903975 -0.0054274312 -4.4257357e-21)
(0.2356608 -0.0052349446 7.3667132e-22)
(0.2522998 -0.0050390074 1.2286034e-21)
(0.26892439 -0.0048409747 2.5666301e-21)
(0.28550379 -0.0046420661 6.6539428e-21)
(0.30200882 -0.0044433809 2.4894369e-22)
(0.31841194 -0.0042459085 -3.4514683e-21)
(0.3346873 -0.0040505365 1.5558751e-22)
(0.35081084 -0.0038580565 -5.7709751e-22)
(0.36676029 -0.0036691683 1.2434356e-21)
(0.38251526 -0.0034844845 1.0522429e-21)
(0.39805721 -0.0033045335 -1.2987925e-21)
(0.41336954 -0.0031297634 -1.2218728e-22)
(0.4284375 -0.0029605462 3.5749768e-23)
(0.44324825 -0.002797182 -3.5187553e-22)
(0.45779078 -0.0026399037 -4.0565378e-22)
(0.47205592 -0.0024888826 5.5413022e-23)
(0.48603624 -0.0023442341 -1.3809015e-22)
(0.49972605 -0.0022060235 -2.2343128e-22)
(0.51312134 -0.0020742731 2.5571874e-22)
(0.52621975 -0.0019489684 2.9501905e-22)
(0.53902048 -0.0018300678 -8.2711837e-24)
(0.55152466 -0.0017175058 -1.5517347e-22)
(0.56373424 -0.0016112214 3.0406505e-23)
(0.57565581 -0.0015111143 -4.0144582e-23)
(0.58728955 -0.0014172555 9.2203182e-23)
(0.59866447 -0.0013293087 2.1977032e-23)
(0.60973494 -0.0012485574 -1.1394456e-22)
(0.62069297 -0.0011717923 -6.7611601e-24)
(0.63106094 -0.0011112435 -7.2380664e-26)
(0.64234944 -0.0010339469 -3.561113e-24)
(0.65042737 -0.0010508043 2.9453708e-23)
(0.66700822 -0.00087555832 3.6050638e-22)
(0.010445865 -0.015017608 -1.2746814e-20)
(0.018179693 -0.01664101 -6.330232e-20)
(0.02777921 -0.017915411 -3.0541935e-20)
(0.038385138 -0.018672069 3.8476006e-20)
(0.049620979 -0.019183586 1.4662608e-20)
(0.061506619 -0.01952943 -1.8204925e-20)
(0.074012809 -0.019709863 4.6722021e-21)
(0.087062656 -0.01974649 2.5447183e-20)
(0.10059313 -0.019667278 9.1992427e-23)
(0.11455399 -0.019491698 -7.6591237e-21)
(0.12889715 -0.019234357 -1.3021013e-20)
(0.14357599 -0.018908309 -8.5245293e-21)
(0.15854661 -0.018524969 1.7772331e-20)
(0.17376751 -0.018093997 8.9295447e-21)
(0.18919895 -0.017623675 -1.6522433e-20)
(0.20480272 -0.017121228 -6.0390569e-21)
(0.22054209 -0.016592993 3.2145039e-21)
(0.23638169 -0.016044566 8.3716302e-21)
(0.25228747 -0.015480927 6.9832256e-21)
(0.26822667 -0.014906536 -6.9727147e-21)
(0.28416786 -0.014325409 -3.1685458e-21)
(0.30008102 -0.01374117 1.3605339e-21)
(0.31593757 -0.013157094 3.868282e-22)
(0.33171045 -0.012576136 1.211395e-21)
(0.3473742 -0.012000953 1.8368355e-22)
(0.36290502 -0.011433919 -3.2661617e-22)
(0.37828086 -0.010877136 -7.2434838e-22)
(0.39348141 -0.010332448 9.7156538e-22)
(0.40848821 -0.0098014499 8.2482906e-22)
(0.4232846 -0.0092854966 -1.5147334e-22)
(0.43785574 -0.0087857171 5.5306037e-22)
(0.45218865 -0.0083030258 -2.3880902e-22)
(0.4662721 -0.0078381373 -3.7069857e-22)
(0.48009666 -0.007391582 -6.0999036e-22)
(0.49365462 -0.0069637228 4.41717e-22)
(0.50693992 -0.0065547736 -1.5476923e-23)
(0.51994819 -0.0061648191 1.6124698e-22)
(0.53267666 -0.0057938343 -4.4174695e-22)
(0.54512411 -0.0054417125 3.7189435e-22)
(0.55729118 -0.0051082754 6.7175142e-23)
(0.56917936 -0.004793358 -1.0285388e-22)
(0.58079476 -0.0044966766 1.7613643e-22)
(0.59213709 -0.0042184602 2.3339569e-22)
(0.60323463 -0.0039577189 1.692641e-22)
(0.61404193 -0.0037182983 1.6767116e-22)
(0.62474812 -0.003490643 -2.6097805e-23)
(0.63488197 -0.003311202 8.4043162e-23)
(0.64593113 -0.0030818595 7.6291084e-23)
(0.65382953 -0.0031323475 -1.9466383e-22)
(0.67009139 -0.0026124305 -3.8026672e-23)
(0.067614676 -0.024029142 9.4528281e-21)
(0.073589657 -0.026749045 3.2950972e-21)
(0.082265492 -0.028805564 -1.2162195e-20)
(0.091947803 -0.029968499 -1.2257904e-21)
(0.10198319 -0.030767859 1.4970585e-20)
(0.11254632 -0.031330886 -1.4887118e-20)
(0.12367594 -0.031636064 -2.9842266e-20)
(0.13529679 -0.031712999 1.449352e-20)
(0.14735693 -0.031607629 1.8181963e-20)
(0.15982339 -0.031350049 -1.1598514e-20)
(0.17266056 -0.030961813 1.019055e-21)
(0.18583078 -0.030462746 8.6860129e-21)
(0.1992978 -0.029870544 -1.5253538e-20)
(0.21302653 -0.029200231 2.9095152e-21)
(0.22698239 -0.028464752 7.5194341e-21)
(0.24113136 -0.027675496 3.1597666e-23)
(0.25544011 -0.02684255 2.6556375e-22)
(0.26987602 -0.025974888 -7.4150841e-21)
(0.28440727 -0.025080556 3.861682e-21)
(0.29900294 -0.02416681 8.4749027e-21)
(0.31363309 -0.023240225 -3.835175e-21)
(0.32826887 -0.022306765 -2.2130359e-21)
(0.34288266 -0.021371847 1.0124436e-21)
(0.35744815 -0.020440378 -1.7155319e-21)
(0.37194043 -0.019516785 1.353225e-21)
(0.38633613 -0.018605037 7.1845896e-22)
(0.40061343 -0.017708666 1.526838e-21)
(0.41475216 -0.016830774 -1.9526606e-21)
(0.42873384 -0.01597406 2.2235667e-21)
(0.44254169 -0.015140824 5.5188499e-22)
(0.45616066 -0.014332996 4.0322505e-22)
(0.46957741 -0.01355215 3.2134454e-22)
(0.48278031 -0.01279953 8.7324904e-22)
(0.49575942 -0.012076075 -1.3708589e-21)
(0.50850644 -0.011382445 3.706551e-22)
(0.52101466 -0.010719056 1.0941243e-22)
(0.53327899 -0.010086104 -4.5172097e-23)
(0.5452959 -0.0094836081 8.6732847e-23)
(0.55706334 -0.0089114464 -3.7184892e-22)
(0.56858111 -0.008369379 1.829345e-22)
(0.57984983 -0.0078571871 -3.4987066e-23)
(0.59087464 -0.0073744522 3.9004055e-22)
(0.60165446 -0.0069216036 -1.8544361e-22)
(0.61221618 -0.006497053 4.7323304e-23)
(0.62251466 -0.0061071888 4.3603356e-23)
(0.63273363 -0.0057363238 -7.3599011e-23)
(0.64241402 -0.005444398 -1.2082377e-22)
(0.65299951 -0.0050704912 3.8808908e-22)
(0.66054954 -0.0051542355 1.7270439e-22)
(0.67619313 -0.0043070015 -8.3039628e-22)
(0.15021527 -0.031460424 1.5010111e-21)
(0.15354688 -0.035257389 -1.1566612e-20)
(0.1606162 -0.038010913 6.6441944e-21)
(0.16880588 -0.039479091 -1.3324735e-20)
(0.17698222 -0.040520682 -1.9758301e-21)
(0.18552343 -0.041302272 9.1599405e-21)
(0.19458417 -0.041757228 -9.7662172e-21)
(0.20408689 -0.041913702 1.5662777e-21)
(0.21398765 -0.041833322 1.2903797e-20)
(0.22427596 -0.041554326 3.4031991e-21)
(0.2349325 -0.041102035 -6.2096946e-21)
(0.24593018 -0.04050044 -2.8638092e-21)
(0.25724155 -0.039771739 -5.8409048e-21)
(0.26883908 -0.038935046 -6.4553126e-21)
(0.28069419 -0.038006965 3.2356917e-21)
(0.29277759 -0.037002293 8.4621042e-22)
(0.3050597 -0.035934315 1.3679576e-21)
(0.31751094 -0.034815012 -3.3850411e-21)
(0.3301019 -0.033655239 -4.2428848e-21)
(0.34280357 -0.032464886 2.3616502e-21)
(0.35558751 -0.031252987 3.2251346e-21)
(0.36842607 -0.030027806 -1.5636189e-21)
(0.38129253 -0.028796892 1.5867262e-21)
(0.39416126 -0.027567122 -3.9123965e-22)
(0.40700784 -0.026344733 -3.9196389e-21)
(0.41980917 -0.025135342 -3.0332805e-21)
(0.43254355 -0.023943966 -1.9026261e-22)
(0.44519081 -0.022775039 4.2858935e-22)
(0.45773229 -0.021632431 -2.2106024e-21)
(0.47015091 -0.020519467 -8.5497082e-22)
(0.48243119 -0.019438955 2.2837645e-22)
(0.49455927 -0.01839321 -1.2498672e-21)
(0.50652285 -0.017384087 6.2631952e-24)
(0.51831124 -0.016413015 -4.2420822e-22)
(0.5299153 -0.015481037 -4.7193582e-22)
(0.54132742 -0.014588848 -5.1995582e-22)
(0.55254149 -0.013736845 -8.4132939e-22)
(0.56355292 -0.012925167 -5.4496372e-23)
(0.57435855 -0.012153762 -3.9160398e-24)
(0.58495703 -0.011422405 -5.197221e-22)
(0.59534777 -0.010730902 -9.160712e-23)
(0.60553463 -0.010078774 -3.3239265e-22)
(0.61551543 -0.009466715 -4.3759763e-22)
(0.62531517 -0.0088926266 3.7841581e-22)
(0.63488923 -0.0083653935 1.482091e-23)
(0.64441366 -0.0078635699 1.8237489e-22)
(0.6534469 -0.0074693278 -1.3246583e-22)
(0.66336948 -0.0069629384 -2.6690897e-22)
(0.67042154 -0.0070791371 -4.4692974e-23)
(0.6851784 -0.0059326702 4.6229441e-22)
(0.25468562 -0.036552747 -2.0900314e-20)
(0.25447016 -0.041393497 4.7585944e-20)
(0.25907328 -0.044745644 1.0348088e-20)
(0.26508407 -0.046442029 -1.5765309e-20)
(0.27070927 -0.0477143 -2.0227972e-21)
(0.27651988 -0.04874776 2.6232256e-21)
(0.28283543 -0.049413702 -1.6608186e-21)
(0.28957683 -0.049728083 -4.6861413e-21)
(0.2966965 -0.049761413 -4.0159158e-21)
(0.30420539 -0.049557035 -1.2207636e-20)
(0.31210209 -0.049141669 1.7897751e-20)
(0.32036928 -0.048540784 6.521989e-21)
(0.3289869 -0.047778947 -1.6780521e-20)
(0.33793392 -0.046878001 1.0317572e-20)
(0.34718697 -0.045857282 8.3849902e-21)
(0.35672063 -0.044734294 -8.792371e-22)
(0.36650832 -0.043525049 -3.1222228e-21)
(0.37652276 -0.042244229 -3.8197303e-21)
(0.38673628 -0.04090534 -1.3892573e-21)
(0.39712116 -0.039520833 -1.2304186e-21)
(0.40764994 -0.038102202 -3.0257592e-21)
(0.41829564 -0.03666005 0)
(0.42903198 -0.035204135 -1.3451905e-21)
(0.43983357 -0.033743403 3.9309496e-21)
(0.45067608 -0.032286008 5.4052639e-21)
(0.46153632 -0.030839335 -9.4112532e-22)
(0.47239241 -0.029410008 -2.9274414e-21)
(0.48322381 -0.028003915 3.0258357e-21)
(0.4940114 -0.026626224 2.5447508e-22)
(0.50473753 -0.025281406 3.435242e-21)
(0.51538604 -0.023973269 -5.3459719e-22)
(0.52594226 -0.022704986 1.7173451e-21)
(0.53639303 -0.021479141 -7.9964256e-22)
(0.54672667 -0.020297769 2.9094055e-22)
(0.55693297 -0.019162405 -4.3403842e-22)
(0.56700319 -0.018074141 5.6231549e-22)
(0.57693002 -0.017033675 4.5709762e-22)
(0.58670759 -0.016041376 3.8255487e-22)
(0.59633144 -0.015097363 -9.5935922e-22)
(0.60579884 -0.014201528 6.8355208e-22)
(0.61510782 -0.013353795 -3.6957232e-22)
(0.62426074 -0.012553722 -1.1033139e-21)
(0.63325416 -0.011802342 1.4078101e-21)
(0.6421108 -0.011097161 -6.2005517e-23)
(0.65078685 -0.010449482 -1.5815884e-22)
(0.65944878 -0.009832607 -7.824393e-24)
(0.66767727 -0.0093492211 -1.2621434e-22)
(0.67677309 -0.0087261796 -4.6582053e-22)
(0.68320493 -0.0088736162 8.7882909e-22)
(0.69685033 -0.0074648707 -4.4315543e-23)
(0.37635125 -0.038368153 -1.7495097e-20)
(0.37170972 -0.044270214 1.2832041e-20)
(0.37286685 -0.048161596 2.9754666e-21)
(0.3759104 -0.050098834 -7.6353697e-21)
(0.37830521 -0.051669954 1.2055982e-20)
(0.38072287 -0.053042355 7.7914122e-21)
(0.38367595 -0.05403002 -1.2647692e-20)
(0.38710051 -0.054633083 -6.0679755e-21)
(0.39092916 -0.054917983 1.2697337e-20)
(0.39518236 -0.054927112 -1.5304972e-20)
(0.39987417 -0.054687493 -1.4063189e-20)
(0.40499499 -0.05422463 1.4129632e-20)
(0.41052853 -0.053563636 6.8193829e-21)
(0.41645709 -0.052727925 -4.2037657e-21)
(0.42276005 -0.051738992 -1.8545607e-21)
(0.42941394 -0.050616725 -4.0581712e-21)
(0.43639338 -0.049379677 5.3047592e-21)
(0.44367185 -0.048045202 3.6682084e-21)
(0.45122213 -0.046629523 -3.2408292e-21)
(0.45901667 -0.045147789 3.1379483e-21)
(0.46702795 -0.043614133 2.7666794e-21)
(0.47522879 -0.0420417 -3.2111124e-21)
(0.48359255 -0.040442675 3.7056556e-22)
(0.49209342 -0.03882829 -3.2571638e-21)
(0.5007065 -0.037208838 7.2454116e-21)
(0.50940799 -0.035593678 6.1080576e-21)
(0.51817529 -0.033991252 8.0973118e-22)
(0.52698707 -0.032409094 -1.7683224e-21)
(0.53582338 -0.030853854 3.7021748e-21)
(0.54466563 -0.029331328 7.1885149e-21)
(0.55349667 -0.027846487 2.3049297e-21)
(0.56230078 -0.026403527 3.3164841e-21)
(0.57106365 -0.025005909 1.9956194e-21)
(0.57977244 -0.023656418 7.4557864e-22)
(0.5884157 -0.022357222 -2.6374539e-22)
(0.59698339 -0.021109937 2.7203092e-21)
(0.60546684 -0.019915694 6.1992107e-22)
(0.61385884 -0.018775213 2.9487732e-22)
(0.62215347 -0.017688897 5.6232402e-23)
(0.63034654 -0.016656871 9.8966338e-22)
(0.63843465 -0.01567928 4.7020008e-23)
(0.64641853 -0.014755826 4.4247315e-22)
(0.65429348 -0.013887959 -1.2621762e-22)
(0.66207973 -0.013072914 -2.7734731e-22)
(0.66973457 -0.012324317 -1.5218571e-22)
(0.67741345 -0.0116108 -4.2207686e-22)
(0.68472324 -0.0110535 1.6139177e-22)
(0.69287143 -0.010332292 -1.2723534e-22)
(0.69859426 -0.010509389 -5.0126394e-22)
(0.71095661 -0.0088817181 2.4586864e-22)
(0.50927424 -0.035974261 3.6471468e-21)
(0.49953032 -0.04296064 -1.8958286e-20)
(0.49627549 -0.047383436 -2.3083851e-21)
(0.49555584 -0.049736739 5.4869497e-21)
(0.49416944 -0.051818003 3.0528077e-21)
(0.49269564 -0.053705367 -4.9891706e-23)
(0.49181219 -0.055187604 6.1896663e-21)
(0.4915144 -0.056265352 7.6251007e-21)
(0.49171155 -0.056990484 9.858039e-21)
(0.4924106 -0.057395523 -1.125004e-20)
(0.49363092 -0.057506249 -2.1579419e-20)
(0.49536765 -0.057348363 -3.9353465e-21)
(0.49760454 -0.056947074 1.5938141e-20)
(0.50032289 -0.056326951 1.2808956e-20)
(0.50350152 -0.055511673 -5.9066946e-21)
(0.50711638 -0.054523785 1.3817048e-21)
(0.51114125 -0.053384721 -3.660083e-21)
(0.5155486 -0.052114874 2.2443742e-21)
(0.52031013 -0.05073358 -2.9123016e-22)
(0.52539718 -0.049259096 -1.8654091e-21)
(0.53078109 -0.04770859 7.8265864e-21)
(0.53643347 -0.046098139 -2.9308766e-22)
(0.54232653 -0.044442716 4.1818101e-22)
(0.54843322 -0.042756189 -6.5646646e-22)
(0.55472742 -0.041051308 -4.3029366e-21)
(0.56118411 -0.039339711 4.2085141e-21)
(0.56777946 -0.03763193 1.9031212e-21)
(0.57449087 -0.035937405 -3.3081903e-21)