/*--------------------------------*- C++ -*----------------------------------*\
  =========                 |
  \\      /  F ield         | OpenFOAM: The Open Source CFD Toolbox
   \\    /   O peration     | Website:  https://openfoam.org
    \\  /    A nd           | Version:  6
     \\/     M anipulation  |
\*---------------------------------------------------------------------------*/
FoamFile
{
    version     2.0;
    format      ascii;
    class       surfaceScalarField;
    location    "220";
    object      phi;
}
// * * * * * * * * * * * * * * * * * * * * * * * * * * * * * * * * * * * * * //

dimensions      [0 3 -1 0 0 0 0];

internalField   nonuniform List<scalar> 
18180
(
0.00031872915
-0.00016315993
-0.00015556921
0.0013092106
-0.0013669155
0.00037643405
0.0030328865
-0.003333619
0.001609943
0.0055497716
-0.0059759577
0.0034590727
0.0089181938
-0.0092390776
0.0058706554
0.013192808
-0.013079527
0.008804913
0.018421935
-0.017459837
0.01223071
0.024644595
-0.022345795
0.016123135
0.031887358
-0.027703311
0.020460549
0.040161266
-0.033495801
0.025221894
0.049459149
-0.039682433
0.03038455
0.059753699
-0.046217202
0.035922651
0.070996706
-0.053048841
0.041805834
0.083119908
-0.060121575
0.047998373
0.096038079
-0.067376828
0.054458657
0.10965486
-0.074755987
0.061139203
0.1238708
-0.082204078
0.067988147
0.13859852
-0.089674061
0.074946334
0.15383662
-0.097148807
0.081910709
-0.10462594
0.088678863
0.1697837
0.00039749694
-0.00056065688
0.0016095942
-0.0025790127
0.0036893168
-0.0054133416
0.0066874413
-0.0089740822
0.010650648
-0.013202285
0.015617864
-0.018046742
0.021616251
-0.023458225
0.028657247
-0.029386792
0.036732932
-0.035778996
0.045813129
-0.042575998
0.05584367
-0.049712974
0.066746183
-0.057119715
0.078419638
-0.064722296
0.090743752
-0.07244569
0.10358404
-0.080217112
0.11679788
-0.087969834
0.13024075
-0.095646948
0.14377295
-0.10320626
0.15725855
-0.11063441
-0.11786187
0.17049448
0.00048062328
-0.0010412802
0.0019186976
-0.004017087
0.0043524774
-0.0078471214
0.0078165608
-0.012438166
0.01233766
-0.017723384
0.017929201
-0.023638283
0.024586241
-0.030115264
0.032281199
-0.03708175
0.040960828
-0.044458624
0.050544906
-0.052160077
0.060927051
-0.060095119
0.071977786
-0.068170451
0.083549777
-0.076294287
0.095484789
-0.084380702
0.10762167
-0.092353989
0.11980424
-0.1001524
0.13188799
-0.1077307
0.14374347
-0.11506174
0.15524869
-0.12213963
-0.12891427
0.16630109
0.00056616952
-0.0016074497
0.0022279417
-0.0056788593
0.0050006097
-0.010619789
0.0088940079
-0.016331564
0.013905254
-0.02273463
0.020011876
-0.029744905
0.02716648
-0.037269868
0.035293407
-0.045208677
0.044287846
-0.053453063
0.054017764
-0.061889995
0.064328706
-0.07040606
0.075051116
-0.078892861
0.086009509
-0.08725268
0.097032484
-0.095403677
0.10796245
-0.10328396
0.11866395
-0.1108539
0.12902964
-0.11809639
0.13898296
-0.12501507
0.14847491
-0.13163158
-0.13794518
0.15750582
0.00065088607
-0.0022583357
0.002524341
-0.0075523142
0.005603633
-0.013699081
0.0098644625
-0.020592393
0.015264608
-0.028134775
0.021736405
-0.036216703
0.029182475
-0.044715939
0.037474886
-0.053501089
0.046457993
-0.06243617
0.055954828
-0.071386829
0.065776422
-0.080227654
0.075733003
-0.088849442
0.085645708
-0.097165386
0.095357387
-0.10511536
0.1047412
-0.11266777
0.11370619
-0.11981888
0.12219936
-0.12658957
0.13020456
-0.13302027
0.137738
-0.13916502
-0.14506756
0.14486038
0.00073063566
-0.0029889714
0.0027920856
-0.0096137641
0.006126573
-0.017033569
0.01066671
-0.02513253
0.016322647
-0.033790712
0.022975239
-0.042869295
0.030474424
-0.052215123
0.038642392
-0.061669057
0.04728118
-0.071074958
0.056183725
-0.080289374
0.065146878
-0.089190807
0.073984591
-0.097687155
0.082539476
-0.10572027
0.090691295
-0.11326717
0.098361451
-0.12033793
0.1055133
-0.12697073
0.11214879
-0.13322506
0.1183024
-0.13917388
0.12403363
-0.14489624
-0.15046328
0.12942935
0.00080073102
-0.0037897024
0.0030139155
-0.011826949
0.006532893
-0.020552546
0.01124005
-0.029839687
0.016992694
-0.039543357
0.023618541
-0.049495142
0.03091821
-0.059514792
0.038673312
-0.069424159
0.046658767
-0.079060413
0.054657392
-0.088287999
0.062474454
-0.097007869
0.069949951
-0.10516265
0.076966961
-0.11273728
0.0834551
-0.11975531
0.089389112
-0.12627194
0.094783318
-0.13236494
0.099683311
-0.13812505
0.1041565
-0.14364707
0.10828311
-0.14902285
-0.15433355
0.11215338
0.00085605854
-0.004645761
0.00317206
-0.01414295
0.0067872245
-0.024167711
0.0115298
-0.034582262
0.017203431
-0.045216987
0.023586545
-0.055878256
0.030439871
-0.066368119
0.037519324
-0.076503613
0.044591795
-0.086132884
0.051451001
-0.095147205
0.05793063
-0.1034875
0.063912776
-0.1111448
0.069330645
-0.11815515
0.074165696
-0.12459036
0.078440259
-0.1305465
0.082207342
-0.13613202
0.085539509
-0.14145722
0.088518569
-0.14662613
0.091227368
-0.15173165
-0.15685204
0.093745854
0.0008902622
-0.0055360232
0.0032482826
-0.016500971
0.006857621
-0.027777049
0.011492462
-0.039217104
0.016906807
-0.050631332
0.022838892
-0.061810341
0.029023667
-0.072552893
0.035209248
-0.082689194
0.041173927
-0.092097563
0.046740396
-0.10071367
0.051784656
-0.10853176
0.056238409
-0.11559855
0.060085142
-0.12200188
0.063351252
-0.12785647
0.066094219
-0.13328947
0.068390062
-0.13842787
0.070321931
-0.14338909
0.071971245
-0.14827545
0.073411935
-0.15317234
-0.15814769
0.074707589
0.00089981809
-0.0064358413
0.00323338
-0.018834532
0.006729163
-0.031272832
0.011111175
-0.043599116
0.016092483
-0.05561264
0.021384621
-0.067102479
0.026713883
-0.077882155
0.031839115
-0.087814426
0.036567086
-0.096825533
0.040762273
-0.10490886
0.044349476
-0.11211896
0.047309352
-0.11855843
0.049668409
-0.12436094
0.051485819
-0.12967388
0.05283953
-0.13464318
0.053813825
-0.13940216
0.054489717
-0.14406498
0.054938826
-0.14872456
0.055220555
-0.15345407
0.05538099
-0.15830813
-0.0002023782
0.0002023782
-3.3328829e-12
-0.00067774623
0.00047536804
-3.5949409e-12
-0.0013424253
0.00066467907
-3.5818361e-12
-0.0021322934
0.00078986809
-3.8684825e-12
-0.002995772
0.00086347865
-3.8893846e-12
-0.0038907389
0.00089496691
-4.1323467e-12
-0.0047822942
0.00089155522
-4.0477138e-12
-0.0056408911
0.00085859692
-4.2901957e-12
-0.0064408659
0.00079997482
-4.114427e-12
-0.0071592867
0.0007184208
-4.3593251e-12
-0.0077750351
0.00061574837
-4.1035584e-12
-0.0082680708
0.00049303575
-4.3285422e-12
-0.0086188523
0.00035078147
-4.0263437e-12
-0.008807903
0.00018905076
-4.250391e-12
-0.0088155566
7.6535836e-06
-3.9932229e-12
-0.0086219804
-0.00019357625
-4.217694e-12
-0.0082074392
-0.0004145412
-3.9724218e-12
-0.0075518902
-0.00065554898
-4.2416255e-12
-0.0066345772
-0.00091731298
-4.0777531e-12
-0.0011862296
-0.0054483475
-4.3482523e-12
-0.00018797442
0.00039035262
-0.00062500688
0.0009124005
-0.001228753
0.0012684252
-0.0019351941
0.0014963092
-0.0026921388
0.0016204233
-0.0034562835
0.0016591117
-0.0041910666
0.0016263383
-0.0048648583
0.0015323886
-0.0054495235
0.00138464
-0.0059192865
0.0011881838
-0.0062498153
0.00094627727
-0.0064174805
0.00066070088
-0.0063987495
0.00033205051
-0.0061697084
-3.9990398e-05
-0.0057057361
-0.00045631866
-0.0049814248
-0.00091788753
-0.0039707955
-0.0014251706
-0.0026472185
-0.0019791259
-0.00098326416
-0.0025812673
-0.0032017789
0.0010322851
-0.00015892782
0.00054928044
-0.00051889135
0.001272364
-0.0010007698
0.0017503037
-0.0015412592
0.0020367986
-0.0020873496
0.0021665137
-0.002593735
0.002165497
-0.0030208681
0.0020534714
-0.0033332936
0.0018448141
-0.0034983024
0.0015496488
-0.0034848554
0.0011747367
-0.0032626998
0.0007241217
-0.0028016494
0.00019965045
-0.0020709505
-0.00039864835
-0.0010387685
-0.0010721724
0.00032824192
-0.0018233291
0.002065213
-0.0026548586
0.0042090239
-0.0035689814
0.0067979941
-0.0045680962
0.0098718152
-0.0056550884
-0.0067797311
0.013449767
-0.00011756693
0.00066684737
-0.00036699847
0.0015217956
-0.00067351354
0.0020568187
-0.00097482552
0.0023381106
-0.0012168539
0.0024085421
-0.0013515942
0.0023002373
-0.0013354601
0.0020373374
-0.0011278293
0.0016371833
-0.00068984656
0.001111666
1.6528277e-05
0.0004683619
0.0010293044
-0.00028865445
0.0023871071
-0.0011581522
0.0041297228
-0.002141264
0.0062985807
-0.0032410303
0.008937259
-0.0044620074
0.012092041
-0.0058096409
0.015812291
-0.0072892316
0.020150153
-0.0089059575
0.025160336
-0.010665271
-0.012492605
0.03087321
-6.6907631e-05
0.000733755
-0.0001791665
0.0016340544
-0.00026653384
0.0021441861
-0.00026769159
0.0023392683
-0.00012719456
0.0022680451
0.00020616631
0.0019668764
0.00078069254
0.0014628111
0.0016429475
0.00077492837
0.0028387262
-8.4112645e-05
0.0044138409
-0.0011067528
0.006414685
-0.0022894986
0.0088886492
-0.0036321164
0.011884447
-0.0051370616
0.015452444
-0.0068090273
0.019645032
-0.0086545961
0.024517252
-0.010681861
0.030127666
-0.012899646
0.036538872
-0.015317164
0.043818268
-0.017944668
-0.02068252
0.052008183
-9.9846366e-06
0.00074373964
3.453492e-05
0.0015895349
0.00019989001
0.001978831
0.00054676539
0.0019923929
0.0011322465
0.001682564
0.00201098
0.0010881429
0.0032361382
0.00023765295
0.0048603015
-0.00084923497
0.0069361166
-0.0021599277
0.0095166701
-0.0036873064
0.012655698
-0.0054285262
0.016407688
-0.0073841068
0.02082781
-0.0095571837
0.025971751
-0.011952968
0.03189562
-0.014578464
0.038656244
-0.017442484
0.046312356
-0.020555757
0.054926654
-0.023931462
0.064569635
-0.027587649
-0.03140557
0.075292685
5.0751272e-05
0.00069298837
0.0002656576
0.0013746286
0.00070825398
0.0015362346
0.0014390296
0.0012616174
0.002516819
0.0006047746
0.0039995643
-0.00039460241
0.0059449112
-0.001707694
0.0084105985
-0.0033149222
0.011454588
-0.0052039169
0.015135032
-0.0073677512
0.019510011
-0.0098035043
0.024636996
-0.012511092
0.030572125
-0.015492312
0.037369294
-0.018750138
0.045079233
-0.022288403
0.053748952
-0.026112204
0.063422562
-0.030229367
0.074144662
-0.034653563
0.085969286
-0.039412273
-0.044388473
0.09895219
0.00011379624
0.00057919212
0.00050850316
0.00097992164
0.0012459817
0.00079875603
0.0023867764
0.00012082265
0.0039912389
-0.00099968786
0.006119873
-0.0025232365
0.0088333154
-0.0044211364
0.012192159
-0.006673766
0.016256549
-0.0092683064
0.021085434
-0.012196637
0.026735533
-0.015453603
0.033260005
-0.019035564
0.040706863
-0.02293917
0.049117166
-0.027160441
0.058523124
-0.03169436
0.06894647
-0.03653555
0.080398285
-0.041681182
0.092882107
-0.047137385
0.10640544
-0.052935606
-0.058995637
0.1210126
0.00017849574
0.00040069638
0.00076002957
0.0003983878
0.0018053382
-0.00024655255
0.0033747123
-0.0014485515
0.0055289931
-0.0031539687
0.0083293158
-0.0053235591
0.011836485
-0.0079283055
0.016110052
-0.010947333
0.021207034
-0.014365288
0.027180292
-0.018169895
0.034076604
-0.022349915
0.04193446
-0.026893421
0.05078164
-0.03178635
0.060632569
-0.03701137
0.071485471
-0.042547263
0.083319358
-0.048369437
0.096091825
-0.054453649
0.10974039
-0.060785946
0.12419596
-0.067391178
-0.074274583
0.13947491
0.00024512717
0.001019949
0.0023833395
0.0043938607
0.0071105474
0.010591901
0.014894306
0.020070108
0.026165369
0.033217367
0.041252002
0.050281232
0.060300717
0.07128772
0.083199114
0.095968879
0.10950338
0.12366376
0.1381833
0.15258758
-0.0035077233
-0.0019406243
-5.8500861e-12
-0.0012859396
-0.0022217836
-3.8411304e-12
0.0011946681
-0.0024806078
-7.319156e-13
0.0038772009
-0.0026825327
3.1186836e-12
0.0067348549
-0.002857654
3.8284546e-12
0.0097503243
-0.0030154694
7.5817576e-12
0.012904674
-0.0031543501
1.0138768e-11
0.016179882
-0.0032752082
1.455538e-11
0.019560247
-0.0033803647
1.8755895e-11
0.02303155
-0.0034713025
2.2987107e-11
0.026580503
-0.0035489537
2.7355198e-11
0.030194683
-0.00361418
3.213427e-11
0.033862446
-0.0036677632
3.6940407e-11
0.037572797
-0.0037103501
4.139762e-11
0.041315282
-0.0037424854
4.4861333e-11
0.045079931
-0.0037646487
4.7176744e-11
0.048857202
-0.0037772713
4.7932632e-11
0.052637952
-0.0037807498
4.6956198e-11
0.056413412
-0.0037754607
4.3880159e-11
0.060175184
-0.0037617717
3.8544532e-11
0.063915235
-0.0037400509
3.067292e-11
0.067625907
-0.0037106723
2.0221085e-11
0.071299928
-0.0036740205
7.0056598e-12
0.07493042
-0.0036304924
-8.817704e-12
0.078510917
-0.0035804973
-2.7157478e-11
0.082035374
-0.0035244562
-4.7406583e-11
0.085498173
-0.0034627992
-6.8918899e-11
0.088894136
-0.0033959626
-9.034924e-11
0.092218521
-0.0033243856
-1.1026134e-10
0.095467028
-0.0032485064
-1.264879e-10
0.098635787
-0.0031687589
-1.3694314e-10
0.10172136
-0.0030855694
-1.3903423e-10
0.10472071
-0.0029993535
-1.3070665e-10
0.10763122
-0.0029105146
-1.0987304e-10
0.11045067
-0.002819442
-7.5759722e-11
0.11317718
-0.0027265114
-2.8317822e-11
0.11580926
-0.0026320851
3.0136135e-11
0.11834578
-0.0025365153
9.5892876e-11
0.12078593
-0.0024401509
1.6242745e-10
0.12312927
-0.0023433382
2.2206835e-10
0.12537573
-0.0022464631
2.6548034e-10
0.12752561
-0.0021498768
2.8428506e-10
0.12957988
-0.0020542687
2.7146602e-10
0.1315395
-0.0019596275
2.240822e-10
0.13340858
-0.0018690736
1.4370371e-10
0.1351856
-0.0017770286
3.8023687e-11
0.13689503
-0.0017094302
-7.9533494e-11
0.13849272
-0.0015976881
-1.8650272e-10
0.14017948
-0.0016867561
-2.779304e-10
-0.0013309515
-2.6621082e-10
0.0028528963
-0.0037612355
0.0049500382
-0.0043189256
0.0072928921
-0.0048234616
0.0098190159
-0.0052086565
0.012507348
-0.0055459865
0.015345564
-0.0058536852
0.018316922
-0.0061257081
0.021405016
-0.0063633019
0.024595826
-0.0065711753
0.027876591
-0.0067520672
0.031235178
-0.0069075407
0.034660106
-0.0070391082
0.038140519
-0.0071481755
0.041666069
-0.0072359
0.045226838
-0.0073032551
0.048813294
-0.0073511048
0.052416258
-0.0073802345
0.056026883
-0.0073913752
0.059636651
-0.0073852286
0.063237368
-0.0073624886
0.066821174
-0.0073238568
0.070380554
-0.0072700531
0.073908356
-0.0072018222
0.077397801
-0.0071199373
0.080842503
-0.0070251991
0.08423648
-0.006918433
0.087574165
-0.0068004847
0.090850416
-0.0066722135
0.094060516
-0.0065344852
0.097200174
-0.006388165
0.10026553
-0.0062341103
0.10325312
-0.0060731637
0.10615991
-0.0059061478
0.10898326
-0.0057338614
0.11172089
-0.0055570759
0.11437092
-0.0053765362
0.1169318
-0.0051929623
0.11940234
-0.0050070539
0.12178169
-0.0048195054
0.12406936
-0.0046310062
0.12626522
-0.004442327
0.12836951
-0.0042541683
0.13038315
-0.0040679066
0.13230705
-0.0038835232
0.1341452
-0.0037072264
0.13589613
-0.0035279589
0.13758382
-0.0033971188
0.13916516
-0.0031790343
0.14083577
-0.0033573653
-0.0026594492
0.015021099
-0.0053325676
0.016852195
-0.0061500207
0.018905726
-0.0068769929
0.021111765
-0.0074146958
0.023458678
-0.0078928996
0.025942812
-0.008337819
0.028551548
-0.0087344444
0.031271407
-0.0090831606
0.034091288
-0.0093910557
0.03700096
-0.0096617394
0.039990303
-0.009896884
0.043049457
-0.010098262
0.046168896
-0.010267615
0.049339366
-0.01040637
0.052551837
-0.010515726
0.055797497
-0.010596765
0.059067757
-0.010650494
0.062354254
-0.010677872
0.065648864
-0.010679839
0.068943724
-0.010657348
0.072231245
-0.010611378
0.07550414
-0.010542948
0.078755443
-0.010453125
0.081978533
-0.010343027
0.085167151
-0.010213817
0.08831542
-0.010066702
0.091417854
-0.0099029185
0.094469371
-0.0097237303
0.097465295
-0.0095304101
0.10040136
-0.0093242337
0.10327372
-0.0091064648
0.1060789
-0.0088783482
0.10881386
-0.0086410998
0.11147589
-0.0083959012
0.11406271
-0.0081438954
0.11657236
-0.0078861868
0.11900325
-0.0076238446
0.1213541
-0.0073579097
0.12362401
-0.0070894167
0.1258124
-0.0068193945
0.12791907
-0.0065489954
0.12994417
-0.0062792687
0.13188854
-0.0060122716
0.13375301
-0.0057479937
0.13554143
-0.005495648
0.13725241
-0.0052389437
0.13890898
-0.0050536813
0.14047035
-0.0047404059
0.14212152
-0.005008535
-0.0039961841
0.032056496
-0.0065158537
0.033471688
-0.0075652123
0.035077186
-0.0084824906
0.036800013
-0.0091375231
0.038640855
-0.009733742
0.04060601
-0.010302974
0.042688305
-0.01081674
0.044878219
-0.011273074
0.047168173
-0.01168101
0.049550941
-0.012044507
0.052018814
-0.012364757
0.054563837
-0.012643285
0.057177998
-0.012881776
0.059853254
-0.013081627
0.062581544
-0.013244016
0.065354824
-0.013370044
0.068165111
-0.013460781
0.071004528
-0.013517289
0.073865343
-0.013540654
0.076740004
-0.013532009
0.079621177
-0.013492551
0.082501783
-0.013423554
0.085375027
-0.013326369
0.088234427
-0.013202427
0.091073838
-0.013053228
0.093887471
-0.012880335
0.096669914
-0.012685361
0.099416136
-0.012469952
0.1021215
-0.012235772
0.10478175
-0.011984491
0.10739305
-0.011717765
0.10995193
-0.011437226
0.11245531
-0.011144473
0.11490046
-0.010841057
0.11728505
-0.010528482
0.11960707
-0.010208204
0.12186486
-0.0098816344
0.12405709
-0.0095501482
0.12618279
-0.0092151154
0.1282413
-0.0088779026
0.13023235
-0.0085400407
0.13215601
-0.008202929
0.13401303
-0.0078692969
0.1358042
-0.0075391663
0.13753319
-0.0072246322
0.13919878
-0.0069045371
0.14082262
-0.0066775209
0.14236741
-0.0062851977
0.14400287
-0.0066439952
-0.0053570502
0.05264847
-0.0071561405
0.053489049
-0.0084057917
0.054483156
-0.0094765972
0.055565102
-0.010219469
0.056749704
-0.010918344
0.058051257
-0.011604526
0.05946827
-0.012233753
0.060995877
-0.01280068
0.062629865
-0.013314999
0.064365639
-0.01378028
0.066197676
-0.014196794
0.068119707
-0.014565316
0.070124968
-0.014887037
0.072206356
-0.015163015
0.074356525
-0.015394185
0.076567962
-0.015581481
0.078833073
-0.015725893
0.081144266
-0.015828482
0.083494012
-0.0158904
0.085874907
-0.015912904
0.088279725
-0.015897369
0.090701465
-0.015845293
0.093133385
-0.01575829
0.095569046
-0.015638087
0.098002331
-0.015486513
0.10042747
-0.015305478
0.10283907
-0.015096961
0.10523211
-0.014862984
0.10760193
-0.014605601
0.10994431
-0.014326866
0.11225537
-0.014028824
0.11453163
-0.013713489
0.11676999
-0.013382836
0.11896772
-0.013038782
0.12112243
-0.012683189
0.12323208
-0.01231786
0.12529499
-0.011944543
0.12730979
-0.011564948
0.12927546
-0.01118078
0.1311913
-0.010793742
0.133057
-0.010405746
0.13487262
-0.010018542
0.13663884
-0.0096355259
0.13835646
-0.0092567824
0.14002896
-0.0088971334
0.14165544
-0.0085310186
0.14325587
-0.0082779441
0.14479737
-0.0078266959
0.14643075
-0.0082773764
-0.0067652864
0.075221661
-0.0070851165
0.075326612
-0.0085107429
0.07555097
-0.0097009547
0.075851249
-0.010519749
0.076255486
-0.011322581
0.076780532
-0.012129572
0.077429423
-0.012882644
0.078202089
-0.013573346
0.079096839
-0.014209748
0.080110523
-0.014793965
0.081238899
-0.01532517
0.082476671
-0.015803087
0.083817653
-0.016228019
0.085255067
-0.016600429
0.086781735
-0.016920853
0.088390205
-0.017189951
0.090072858
-0.017408546
0.091822016
-0.01757764
0.093630036
-0.017698419
0.095489378
-0.017772246
0.097392677
-0.017800669
0.099332791
-0.017785407
0.10130285
-0.017728349
0.10329629
-0.017631529
0.10530689
-0.017497115
0.10732879
-0.01732738
0.10935652
-0.017124681
0.11138496
-0.016891433
0.11340945
-0.016630086
0.11542568
-0.016343094
0.11742975
-0.016032899
0.11941817
-0.015701908
0.12138781
-0.015352475
0.12333592
-0.014986895
0.12526012
-0.01460739
0.12715838
-0.014216117
0.129029
-0.013815169
0.13087065
-0.013406595
0.13268231
-0.012992438
0.13446331
-0.012574749
0.13621339
-0.01215582
0.13793261
-0.011737768
0.13962173
-0.011324639
0.14128157
-0.010916626
0.14291553
-0.010531097
0.14452313
-0.010138619
0.14612249
-0.009877296
0.14768588
-0.0093900887
0.14934276
-0.0099342618
-0.0082530059
0.098025188
-0.006158115
0.097257907
-0.007743462
0.096581608
-0.0090246556
0.095997162
-0.009935303
0.095540699
-0.010866117
0.095223449
-0.011812322
0.09505078
-0.012709976
0.095026695
-0.013549261
0.095150727
-0.01433378
0.09541961
-0.015062848
0.095828984
-0.015734544
0.096373439
-0.016347542
0.097046491
-0.016901071
0.097840906
-0.017394844
0.098749001
-0.017828948
0.099762804
-0.018203754
0.10087418
-0.018519921
0.10207494
-0.018778404
0.10335697
-0.018980443
0.10471226
-0.01912754
0.10613304
-0.019221448
0.10761178
-0.019264152
0.10914128
-0.01925785
0.11071468
-0.019204926
0.11232549
-0.019107925
0.11396763
-0.018969522
0.11563544
-0.018792489
0.11732368
-0.018579669
0.11902753
-0.018333941
0.12074263
-0.018058188
0.12246501
-0.01775528
0.12419114
-0.017428036
0.12591788
-0.017079221
0.12764251
-0.016711522
0.12936266
-0.016327546
0.13107637
-0.015929819
0.13278199
-0.015520796
0.13447828
-0.015102878
0.13616431
-0.014678468
0.13783953
-0.014249967
0.13950378
-0.01382007
0.14115728
-0.013391268
0.1428009
-0.012968258
0.14443565
-0.012551379
0.14606492
-0.012160367
0.14768877
-0.011762466
0.14932341
-0.011511942
0.15094677
-0.011013452
0.15266575
-0.01165324
-0.0098619683
0.11918896
-0.0043344676
0.11749635
-0.0060508541
0.11585683
-0.0073851333
0.11435429
-0.0084327695
0.11302499
-0.009536811
0.11186642
-0.010653753
0.11088405
-0.011727611
0.11008417
-0.012749381
0.10946619
-0.013715796
0.1090255
-0.014622164
0.10875631
-0.015465351
0.10865194
-0.016243177
0.10870481
-0.016953938
0.1089066
-0.017596633
0.10924859
-0.018170934
0.10972183
-0.018676995
0.1103173
-0.01911539
0.11102599
-0.019487094
0.11183901
-0.01979347
0.1127477
-0.020036224
0.11374363
-0.020217382
0.11481874
-0.020339256
0.1159653
-0.020404417
0.11717603
-0.020415658
0.11844407
-0.020375963
0.11976301
-0.020288462
0.12112693
-0.020156402
0.12253036
-0.019983103
0.12396834
-0.019771921
0.12543637
-0.019526221
0.12693043
-0.019249335
0.12844694
-0.018944547
0.12998278
-0.018615063
0.13153526
-0.018264002
0.1331021
-0.017894385
0.13468142
-0.017509139
0.13627173
-0.017111108
0.13787193
-0.016703074
0.13948128
-0.016287816
0.14109943
-0.015868117
0.14272644
-0.015447087
0.14436279
-0.015027612
0.14600958
-0.014615046
0.14766811
-0.014209914
0.14934189
-0.013834143
0.15103163
-0.013452208
0.15275172
-0.013232031
0.15448596
-0.012747689
0.15631855
-0.013485838
-0.011643521
0.13689593
-0.0017554957
0.13437797
-0.0035328913
0.1318194
-0.0048265624
0.12946233
-0.0060757011
0.12733397
-0.0074084522
0.1254157
-0.0087354782
0.12371034
-0.01002225
0.12222298
-0.011262023
0.12095207
-0.01244489
0.11989185
-0.013561939
0.1190348
-0.0146083
0.11837257
-0.015580953
0.11789618
-0.016477546
0.11759609
-0.017296545
0.11746244
-0.018037284
0.11748522
-0.01869977
0.1176544
-0.019284573
0.11796007
-0.019792766
0.1183925
-0.020225899
0.11894223
-0.020585954
0.11960014
-0.020875293
0.12035751
-0.021096623
0.12120605
-0.021252956
0.12213795
-0.021347561
0.12314592
-0.021383926
0.12422316
-0.021365707
0.12536344
-0.021296684
0.12656106
-0.021180719
0.12781085
-0.021021712
0.12910819
-0.020823561
0.13044898
-0.020590124
0.13182963
-0.020325196
0.13324705
-0.02003248
0.13469861
-0.019715569
0.13618217
-0.019377947
0.13769601
-0.019022979
0.13923885
-0.018653941
0.1408098
-0.018274024
0.1424084
-0.017886423
0.14403461
-0.017494329
0.14568882
-0.017101294
0.14737184
-0.016710626
0.14908513
-0.016328346
0.15083043
-0.015955207
0.15261144
-0.015615157
0.15442968
-0.015270442
0.15629778
-0.015100136
0.15820556
-0.014655469
0.16021497
-0.015495249
-0.013657705
0.15005207
0.00078000588
0.14676313
-0.00024394528
0.14346579
-0.0015292235
0.14041801
-0.0030279218
0.13762312
-0.004613558
0.13507485
-0.0061872133
0.13277505
-0.0077224503
0.1307238
-0.0092107721
0.12891866
-0.01063975
0.12735443
-0.011997707
0.12602328
-0.013277152
0.12491581
-0.014473482
0.12402184
-0.015583576
0.12333071
-0.016605417
0.12283144
-0.017538014
0.12251292
-0.018381248
0.12236407
-0.019135724
0.12237398
-0.019802678
0.122532
-0.020383914
0.12282779
-0.02088175
0.12325146
-0.021298958
0.12379355
-0.021638715
0.12444514
-0.021904544
0.12519785
-0.02210027
0.12604388
-0.022229959
0.12697604
-0.022297869
0.12798775
-0.022308392
0.12907304
-0.022266006
0.13022655
-0.022175225
0.13144354
-0.022040551
0.13271985
-0.021866437
0.13405191
-0.021657252
0.13543668
-0.021417254
0.13687169
-0.021150573
0.13835494
-0.020861202
0.13988496
-0.020553
0.14146073
-0.02022971
0.14308169
-0.019894985
0.14474774
-0.019552467
0.1464592
-0.019205791
0.14821689
-0.018858987
0.15002207
-0.018515802
0.15187667
-0.018182953
0.1537829
-0.01786143
0.15574486
-0.017577123
0.15776476
-0.017290335
0.15985411
-0.017189486
0.16200716
-0.016808522
0.16426865
-0.017756739
-0.015969488
0.18890875
0.0053821089
-0.19351086
0.18509872
0.0035660935
0.18170668
0.001862812
0.17856155
0.00011720499
0.17562599
-0.0016779977
0.17287497
-0.0034361868
0.17029025
-0.0051377331
0.16786285
-0.0067833711
0.16558888
-0.0083657836
0.1634662
-0.0098750211
0.16149293
-0.011303885
0.15966697
-0.012647524
0.15798568
-0.013902284
0.15644576
-0.0150655
0.1550433
-0.016135551
0.15377382
-0.017111771
0.1526324
-0.017994306
0.15161375
-0.018784023
0.15071228
-0.019482446
0.14992222
-0.020091692
0.14923768
-0.020614412
0.14865269
-0.021053729
0.14816132
-0.021413175
0.14775769
-0.021696638
0.14743603
-0.021908295
0.14719071
-0.022052553
0.14701631
-0.022133994
0.14690761
-0.022157307
0.14685963
-0.022127246
0.14686765
-0.022048565
0.1469272
-0.021925988
0.14703411
-0.021764158
0.14718447
-0.021567616
0.14737467
-0.021340777
0.14760139
-0.021087919
0.14786158
-0.020813187
0.14815248
-0.020520609
0.14847161
-0.020214124
0.14881681
-0.019897666
0.14918619
-0.019575166
0.14957818
-0.019250982
0.14999156
-0.018929177
0.15042555
-0.018616941
0.15087962
-0.018315505
0.1513544
-0.018051901
0.15184973
-0.017785666
0.15237009
-0.017709847
0.15291118
-0.017349608
0.15349595
-0.018341509
-0.016562055
0.21685765
0.0087804416
-0.22025598
0.21338376
0.0070399828
0.21017094
0.0050756263
0.20706563
0.0032225202
0.20401903
0.0013686003
0.20106211
-0.000479264
0.19821174
-0.0022873687
0.19547245
-0.0040440776
0.19285013
-0.0057434616
0.19035161
-0.0073765023
0.18798209
-0.0089343689
0.18574497
-0.010410408
0.18364225
-0.011799563
0.18167463
-0.013097873
0.17984156
-0.014302482
0.17814142
-0.015411635
0.17657167
-0.016424557
0.175129
-0.017341345
0.17380944
-0.018162888
0.17260855
-0.018890799
0.17152147
-0.019527339
0.17054309
-0.020075343
0.16966807
-0.020538154
0.16889098
-0.020919549
0.16820635
-0.021223669
0.16760875
-0.02145495
0.16709281
-0.021618054
0.1666533
-0.021717802
0.16628517
-0.021759115
0.16598356
-0.021746951
0.16574383
-0.021686257
0.16556159
-0.021581926
0.16543274
-0.021438761
0.16535341
-0.021261448
0.16532004
-0.021054547
0.16532934
-0.020822488
0.16537832
-0.020569588
0.16546428
-0.020300084
0.16558482
-0.020018207
0.16573786
-0.019728203
0.16592163
-0.019434758
0.16613475
-0.019142296
0.16637621
-0.018858396
0.1666455
-0.018584799
0.16694248
-0.01834888
0.16726838
-0.018111562
0.16762241
-0.018063877
0.16801288
-0.017740077
0.16842173
-0.018750366
-0.017035818
0.24376657
0.011504397
-0.24649052
0.24091613
0.0098904223
0.23806292
0.0079288385
0.23521595
0.0060694842
0.23233815
0.0042464053
0.22945033
0.0024085584
0.22658371
0.00057925101
0.22375759
-0.0012179572
0.22098788
-0.0029737581
0.21829053
-0.0046791516
0.21567939
-0.0063232294
0.21316546
-0.007896479
0.21075736
-0.0093914555
0.20846163
-0.010802145
0.20628291
-0.012123767
0.20422409
-0.013352813
0.20228652
-0.014486984
0.20047023
-0.015525061
0.19877415
-0.016466809
0.19719625
-0.017312893
0.1957337
-0.018064791
0.19438306
-0.018724704
0.19314038
-0.019295476
0.19200134
-0.019780503
0.19096133
-0.020183658
0.19001558
-0.0205092
0.18915922
-0.020761702
0.18838739
-0.020945969
0.18769524
-0.021066968
0.18707805
-0.021129759
0.18653123
-0.021139437
0.18605038
-0.021101077
0.18563132
-0.021019696
0.18527009
-0.02090022
0.18496301
-0.020747464
0.18470665
-0.02056613
0.18449788
-0.02036082
0.18433386
-0.020136061
0.18421204
-0.019896392
0.18413022
-0.019646378
0.1840865
-0.019391037
0.18407939
-0.019135188
0.18410771
-0.018886714
0.18417104
-0.018648131
0.18426848
-0.01844632
0.18440274
-0.018245825
0.18456743
-0.018228563
0.18478443
-0.017957076
0.18498983
-0.018955769
-0.017368323
0.26927434
0.01353735
-0.27130729
0.26710629
0.012058468
0.26476453
0.010270601
0.26232531
0.0085087113
0.25979655
0.0067751569
0.25718846
0.005016655
0.25452714
0.0032405705
0.25183677
0.0014724125
0.24913735
-0.00027433582
0.24644868
-0.0019904818
0.24379005
-0.003664602
0.2411786
-0.0052850295
0.23862905
-0.0068419105
0.2361539
-0.0083269943
0.23376344
-0.0097333049
0.23146583
-0.011055201
0.22926725
-0.012288404
0.2271721
-0.013429909
0.22518318
-0.014477887
0.22330188
-0.015431594
0.22152838
-0.01629129
0.21986181
-0.017058134
0.21830042
-0.017734093
0.21684176
-0.018321845
0.21548279
-0.018824682
0.21422001
-0.019246417
0.2130496
-0.019591291
0.21196751
-0.019863881
0.21096956
-0.020069022
0.21005152
-0.020211719
0.20920917
-0.020297087
0.20843837
-0.02033028
0.20773512
-0.020316443
0.20709557
-0.020260673
0.2065161
-0.020167992
0.20599331
-0.020043336
0.20552405
-0.019891563
0.20510547
-0.019717481
0.204735
-0.019525924
0.2044104
-0.01932178
0.20412975
-0.019110386
0.20389155
-0.018896987
0.20369453
-0.018689693
0.20353839
-0.018491987
0.20342165
-0.018329579
0.20334822
-0.018172395
0.20330692
-0.018187263
0.20333096
-0.017981124
0.20331515
-0.018939959
-0.017537388
0.29298511
0.014868492
-0.29431626
0.29150587
0.013537711
0.28978338
0.011993094
0.28788474
0.010407346
0.28584483
0.0088150684
0.28367446
0.0071870279
0.28139204
0.0055229934
0.27902081
0.0038436425
0.27658207
0.0021643987
0.274096
0.00049559524
0.27158278
-0.0011513831
0.26906214
-0.0027643932
0.26655241
-0.0043321802
0.26407018
-0.0058447617
0.26163018
-0.0072933091
0.25924519
-0.0086702067
0.25692595
-0.0099691721
0.2546813
-0.011185258
0.25251821
-0.012314796
0.25044196
-0.013355341
0.24845626
-0.014305593
0.24656345
-0.015165324
0.24476463
-0.015935271
0.24305984
-0.016617051
0.24144821
-0.017213051
0.23992812
-0.01772633
0.23849734
-0.018160516
0.23715317
-0.018519706
0.23589252
-0.018808373
0.23471207
-0.019031272
0.23360835
-0.01919336
0.23257779
-0.019299723
0.23161686
-0.01935551
0.23072207
-0.01936589
0.22989009
-0.019336006
0.22911772
-0.019270965
0.22840199
-0.019175836
0.22774018
-0.019055671
0.22712983
-0.018915573
0.22656879
-0.01876074
0.22605522
-0.018596817
0.22558771
-0.018429477
0.22516502
-0.018267
0.22478698
-0.018113954
0.22445178
-0.017994373
0.22416415
-0.017884764
0.22390925
-0.017932372
0.22372865
-0.017800519
0.22348349