/*--------------------------------*- C++ -*----------------------------------*\
  =========                 |
  \\      /  F ield         | OpenFOAM: The Open Source CFD Toolbox
   \\    /   O peration     | Website:  https://openfoam.org
    \\  /    A nd           | Version:  6
     \\/     M anipulation  |
\*---------------------------------------------------------------------------*/
FoamFile
{
    version     2.0;
    format      ascii;
    class       volSymmTensorField;
    location    "220";
    object      UPrime2Mean;
}
// * * * * * * * * * * * * * * * * * * * * * * * * * * * * * * * * * * * * * //

dimensions      [0 2 -2 0 0 0 0];

internalField   nonuniform List<symmTensor> 
9200
(
(9.0133966e-05 -6.9963821e-05 3.2676311e-22 5.614762e-05 -1.7469652e-22 5.2874353e-39)
(0.00055588734 -0.00044503935 8.3811899e-22 0.00035766377 -6.2543266e-22 5.7520799e-39)
(0.0011243574 -0.00087191335 1.0172377e-22 0.00068010583 -7.7003757e-23 3.1536772e-39)
(0.0017732655 -0.001284176 -1.2638295e-21 0.00094048686 8.8831661e-22 6.287325e-39)
(0.0024136697 -0.0016508297 6.0485772e-23 0.0011487511 -5.0039066e-23 9.2182432e-40)
(0.0030012335 -0.0019553794 5.3297193e-22 0.0013046499 -3.5344959e-22 1.4519195e-40)
(0.0035051881 -0.0021919838 -1.1566611e-22 0.0014135287 7.9791165e-23 4.1771733e-40)
(0.0039006498 -0.0023609394 1.0510613e-22 0.001484375 -7.0507234e-23 2.8133615e-40)
(0.0041703011 -0.0024655069 5.1745557e-22 0.0015258323 -3.1365981e-22 8.0270391e-40)
(0.004305043 -0.0025105046 4.0277286e-23 0.0015452532 -2.4546418e-23 2.290028e-42)
(0.0043040754 -0.0025016509 -5.5911215e-22 0.0015487113 3.4309374e-22 4.3114928e-40)
(0.0041748382 -0.0024451563 4.6874667e-22 0.0015410718 -2.9832268e-22 5.9314161e-41)
(0.003932456 -0.0023474634 -8.3638511e-22 0.0015261032 5.6246487e-22 9.2325968e-40)
(0.00359849 -0.0022150895 -4.2502111e-22 0.001506631 2.9145835e-22 5.9362406e-41)
(0.003199032 -0.0020545251 1.1041073e-22 0.0014847064 -8.1616289e-23 7.5587579e-42)
(0.0027623138 -0.0018721442 -4.1691623e-22 0.0014617687 3.2518765e-22 7.966769e-41)
(0.0023160224 -0.0016741225 3.6700139e-22 0.0014388755 -3.1020208e-22 9.6515946e-41)
(0.0018846163 -0.0014664641 2.738928e-22 0.0014174559 -2.4235741e-22 3.9182781e-40)
(0.0014888387 -0.001254728 -9.1529753e-24 0.0013993989 1.9775051e-23 7.2116255e-41)
(0.0011515374 -0.0010428006 -5.0040238e-24 0.0013708365 1.7467813e-23 8.939083e-41)
(0.00011895584 -7.9517186e-05 3.408453e-23 5.4586118e-05 -1.3061344e-23 9.3006632e-41)
(0.00070909361 -0.00049152047 8.8771169e-22 0.00034175562 -5.7744539e-22 6.1356389e-39)
(0.0014102951 -0.00094875893 -2.8764332e-22 0.00064190135 1.9293599e-22 3.3327786e-39)
(0.0021628128 -0.0013718599 -2.2687279e-21 0.00087994338 1.4176806e-21 1.4548955e-38)
(0.0028633855 -0.0017319701 -7.8794492e-23 0.0010663249 4.9924278e-23 1.8355774e-40)
(0.0034606008 -0.0020145721 1.7569484e-21 0.0012026441 -1.0361292e-21 4.8145616e-39)
(0.0039226399 -0.0022171785 -7.2305001e-22 0.0012958549 4.2212891e-22 1.6517099e-40)
(0.0042290938 -0.0023439145 -2.1855285e-22 0.001355708 1.2650729e-22 5.918729e-41)
(0.0043714923 -0.0024016384 8.3163414e-22 0.0013910945 -4.8443843e-22 4.5233497e-40)
(0.0043529959 -0.0023983115 -1.0105028e-21 0.0014092712 5.9850445e-22 5.1956452e-40)
(0.0041874015 -0.0023422543 -7.1851146e-22 0.0014159236 4.3635814e-22 6.4138497e-40)
(0.0038976469 -0.0022417158 1.5559562e-21 0.0014152843 -9.8324529e-22 3.2622967e-39)
(0.0035135465 -0.0021046558 7.2652028e-22 0.0014102884 -4.888761e-22 2.2898279e-40)
(0.0030688108 -0.0019386712 -1.1483824e-21 0.0014027601 8.2545787e-22 1.1301775e-39)
(0.0025976905 -0.0017509911 2.0686715e-22 0.0013935938 -1.6038342e-22 9.411039e-41)
(0.0021317121 -0.0015484864 -4.609341e-22 0.0013829129 4.0066773e-22 2.5120216e-40)
(0.0016969225 -0.001337668 -1.9092385e-22 0.0013702498 1.9566433e-22 7.8987485e-41)
(0.0013119495 -0.0011245566 5.8888217e-22 0.0013547853 -6.5703251e-22 1.2774212e-39)
(0.00098806655 -0.00091400819 2.8019847e-22 0.0013340662 -3.7273995e-22 2.4307483e-40)
(0.00073291551 -0.00071084557 -1.2119986e-22 0.0012955484 1.5061883e-22 1.8268881e-39)
(0.00015150985 -8.6306666e-05 -2.862759e-22 5.0267362e-05 1.218734e-22 2.3909789e-39)
(0.0008725314 -0.0005186165 -4.7735564e-22 0.00030907029 2.6519072e-22 2.4925055e-39)
(0.0017042313 -0.00098586905 -5.4420308e-22 0.00057360889 3.1705537e-22 6.2302482e-39)
(0.0025443002 -0.0014008611 1.8171343e-23 0.00078032964 -9.9871044e-24 6.7624708e-43)
(0.0032774606 -0.0017385001 2.1167012e-23 0.00093984924 -9.9851493e-24 4.4763804e-39)
(0.0038490241 -0.001987854 6.1578316e-22 0.0010555417 -3.2826376e-22 1.2518217e-39)
(0.0042316254 -0.0021506821 5.9653028e-23 0.0011353554 -2.980051e-23 5.1821486e-40)
(0.0044156673 -0.0022350837 -1.0478924e-21 0.0011889572 5.6261959e-22 3.3051434e-40)
(0.0044077465 -0.0022511313 1.2428159e-21 0.0012246292 -6.8407081e-22 6.2461575e-40)
(0.0042284381 -0.0022091675 4.0989858e-22 0.0012487243 -2.3678305e-22 6.8566965e-40)
(0.0039092762 -0.0021191251 -1.1306045e-21 0.0012658118 6.8226045e-22 1.4171383e-39)
(0.0034890702 -0.0019902538 -3.5556417e-22 0.0012788678 2.2993441e-22 4.6297805e-40)
(0.003009627 -0.0018311107 1.2863269e-22 0.0012895008 -8.9373797e-23 1.2537854e-39)
(0.0025113358 -0.0016496908 3.0936945e-22 0.001298203 -2.3929163e-22 1.8048386e-40)
(0.002029268 -0.0014535705 -1.0871018e-22 0.0013046039 9.395192e-23 1.3798292e-40)
(0.0015903726 -0.0012499829 2.5340273e-22 0.0013077223 -2.5286679e-22 1.0942814e-40)
(0.0012121108 -0.0010457886 -1.7499591e-22 0.0013062141 2.0563704e-22 4.2047889e-41)
(0.00090254217 -0.00084729569 -3.5791384e-22 0.0012985255 4.9447104e-22 1.0232651e-39)
(0.00066178042 -0.00065980846 -1.2333268e-23 0.0012826186 1.3165908e-23 9.1984831e-40)
(0.00048496317 -0.00048824266 1.2465764e-22 0.0012541905 -2.6927104e-22 1.0525866e-40)
(0.00018670388 -8.93299e-05 -2.2740771e-22 4.3576432e-05 8.3803666e-23 1.1875183e-39)
(0.0010378164 -0.00052179661 3.4867118e-22 0.00026299157 -1.7105276e-22 2.2164582e-40)
(0.001988486 -0.00097686374 3.0937119e-22 0.00048285906 -1.525718e-22 2.5652593e-40)
(0.0028917411 -0.0013658023 6.7504464e-22 0.00065336408 -3.2229333e-22 2.7668677e-39)
(0.0036245059 -0.0016686541 5.9409638e-22 0.00078480024 -2.822405e-22 1.230844e-39)
(0.0041346778 -0.0018791456 -1.0453287e-21 0.00088179832 4.9694924e-22 9.399901e-40)
(0.0044062734 -0.0020032721 -5.8537964e-22 0.00095236663 2.8329837e-22 2.675679e-40)
(0.0044471604 -0.0020522311 0 0.0010051107 0 0)
(0.004284174 -0.0020379811 6.4078211e-22 0.0010468406 -3.4822038e-22 3.4484494e-39)
(0.00395796 -0.0019717602 -2.7874818e-22 0.0010822841 1.6445824e-22 1.3063513e-39)
(0.003517234 -0.0018637267 -1.6379271e-21 0.0011143207 9.7795156e-22 1.1573072e-39)
(0.0030128214 -0.0017230395 -2.1008251e-22 0.0011442483 1.3249005e-22 2.3345052e-40)
(0.0024920168 -0.0015581478 8.100036e-22 0.0011720836 -6.0369295e-22 1.5720409e-39)
(0.0019940307 -0.0013770804 4.5504618e-23 0.0011968942 -2.9775477e-23 6.4986088e-40)
(0.0015471683 -0.0011875824 -1.2570208e-23 0.0012171469 1.2325967e-23 4.5685857e-43)
(0.0011680006 -0.00099704383 1.3541643e-22 0.0012310647 -1.5691014e-22 8.0415747e-41)
(0.00086235895 -0.00081224849 6.5217353e-25 0.0012369416 2.9916552e-24 9.4089596e-41)
(0.00062761761 -0.00063903502 -2.4114391e-22 0.0012332953 4.0680646e-22 2.458202e-40)
(0.00045546741 -0.00048194015 -1.342863e-22 0.0012194286 2.8299202e-22 1.7110282e-40)
(0.00033485148 -0.00034427991 6.8047059e-23 0.0011970912 -2.0776475e-22 1.0712501e-39)
(0.00022292953 -8.7730844e-05 1.7187547e-22 3.5141061e-05 -5.4762437e-23 4.6716707e-40)
(0.0011945343 -0.00049811959 7.1613278e-22 0.00020822701 -2.8564183e-22 4.2090793e-39)
(0.0022430678 -0.00091904599 5.6476058e-22 0.00037919054 -2.3273308e-22 2.6656883e-40)
(0.003178546 -0.0012669765 6.2845748e-22 0.00051254454 -2.5680754e-22 1.4805527e-39)
(0.0038763366 -0.001527889 -9.678783e-22 0.00061765636 4.0003616e-22 2.3329179e-39)
(0.0042943227 -0.0017002368 3.7249476e-23 0.00069958177 -1.2001033e-23 2.2196108e-40)
(0.0044350659 -0.0017930252 5.552146e-23 0.00076536714 -2.4193514e-23 1.8683738e-42)
(0.0043292169 -0.0018186132 7.9101037e-22 0.000821699 -3.6850229e-22 8.3406002e-40)
(0.0040262032 -0.0017888038 1.0696613e-22 0.0008732696 -5.2915438e-23 7.5192077e-42)
(0.0035855284 -0.0017139746 -2.8767117e-22 0.00092271735 1.6315311e-22 4.5121328e-40)
(0.0030684414 -0.0016032748 9.3684215e-22 0.00097092485 -5.8197973e-22 3.1466613e-39)
(0.0025306756 -0.0014651196 -6.832277e-22 0.0010173499 4.5086986e-22 2.7138832e-40)
(0.0020170607 -0.0013076513 -1.2891399e-21 0.0010604096 1.0086458e-21 1.9265979e-39)
(0.0015586309 -0.0011389397 -4.2732532e-23 0.0010979139 3.9407202e-23 4.075885e-42)
(0.0011723407 -0.0009668475 4.6099627e-22 0.0011275167 -5.1725893e-22 1.56131e-39)
(0.00086292905 -0.00079863454 0 0.0011471472 0 0)
(0.00062610217 -0.00064046186 5.8112189e-23 0.001155323 -8.4054198e-23 4.0620323e-41)
(0.00045211219 -0.00049698925 -2.9163828e-23 0.0011512151 6.4326251e-23 6.0439161e-41)
(0.00032881726 -0.00037120352 -2.9644811e-23 0.0011354316 6.5102578e-23 1.5884439e-41)
(0.00024394636 -0.0002643921 1.4072945e-23 0.0011127686 -6.0720917e-23 1.0868504e-40)
(0.00025822446 -8.0996618e-05 3.7589499e-22 2.5839611e-05 -9.6845883e-23 1.8892337e-39)
(0.001331674 -0.00044717123 3.6977744e-23 0.00015057137 -1.2139859e-23 3.4960219e-42)
(0.0024488665 -0.00081474169 -1.0613393e-22 0.0002733716 3.585514e-23 1.5478591e-41)
(0.0033823404 -0.0011115187 1.093963e-22 0.00037203807 -3.5249607e-23 3.0590443e-40)
(0.0040137379 -0.0013292561 -6.6671978e-22 0.00045442265 2.3398124e-22 5.738537e-40)
(0.0043186943 -0.0014698585 -3.2092045e-22 0.00052511771 1.169293e-22 5.1854413e-41)
(0.0043240518 -0.0015429112 2.2779305e-22 0.00058941166 -6.993849e-23 1.6348065e-39)
(0.0040855652 -0.0015592917 -8.3410993e-24 0.0006515865 9.4276205e-24 1.2789024e-40)
(0.0036736781 -0.0015284744 -5.4258692e-22 0.00071394795 2.6997874e-22 1.3523816e-39)
(0.0031616286 -0.0014585843 9.4222301e-22 0.00077691014 -4.9065269e-22 3.9801698e-40)
(0.0026157608 -0.0013571737 -2.5147257e-23 0.00083932678 3.5809367e-23 7.0248779e-40)
(0.0020888092 -0.0012319096 -7.4931448e-22 0.0008988983 5.4609492e-22 1.9378065e-39)
(0.0016166617 -0.0010908506 0 0.00095267399 0 0)
(0.0012184835 -0.00094222604 1.8281275e-22 0.00099760839 -2.0831208e-22 1.0395096e-39)
(0.00089940886 -0.0007938485 9.2567709e-24 0.001031092 -1.966197e-23 5.6898366e-41)
(0.00065460763 -0.00065241801 -2.2232134e-22 0.0010513719 3.5144535e-22 1.2083027e-39)
(0.00047354871 -0.00052296534 -5.0370598e-23 0.0010577483 9.070905e-23 2.5241113e-41)
(0.0003435986 -0.00040861194 -1.544265e-23 0.0010504573 4.2348565e-23 4.0553342e-41)
(0.00025241394 -0.00031073079 -2.020571e-23 0.001031283 5.7126596e-23 1.5776107e-41)
(0.00018915828 -0.0002291458 3.6427762e-23 0.0010060405 -1.3992953e-22 1.5075479e-40)
(0.00029049226 -6.9085984e-05 1.4492566e-22 1.6714095e-05 -2.7886011e-23 2.9919326e-40)
(0.0014390492 -0.00037138417 -1.0405035e-21 9.6181094e-05 2.6184367e-22 6.5061199e-39)
(0.0025902575 -0.00067124449 -9.1943453e-23 0.00017593663 2.6094511e-23 6.0750062e-40)
(0.0034881356 -0.00091246504 -2.7713681e-22 0.00024470286 8.1681389e-23 3.0554832e-39)
(0.0040290921 -0.0010911872 -2.0862958e-22 0.00030844884 5.797039e-23 4.2257359e-41)
(0.0042130781 -0.001210156 -1.1818312e-21 0.00037069885 3.6669957e-22 5.5958086e-40)
(0.0040939566 -0.0012763516 -5.797348e-22 0.00043470005 2.0450082e-22 4.5127519e-40)
(0.0037509818 -0.0012965174 1.1228217e-21 0.00050235552 -4.2362508e-22 3.6437768e-40)
(0.0032702718 -0.0012761896 1.9239425e-22 0.00057370796 -9.9181762e-23 4.6305817e-40)
(0.0027311803 -0.0012206852 -2.4728507e-22 0.0006470856 1.1240627e-22 1.5843947e-40)
(0.0021972681 -0.0011361407 1.156669e-22 0.00071948585 -4.2661478e-23 5.9425256e-40)
(0.001712104 -0.0010299197 -2.2265755e-23 0.00078712202 2.9446703e-23 1.5062678e-40)
(0.0012994573 -0.00091029168 0 0.00084609289 0 0)
(0.00096667617 -0.0007855909 1.2349423e-22 0.00089305011 -1.2850614e-22 3.6478864e-41)
(0.00070964307 -0.00066323062 -2.6308481e-22 0.00092572068 3.4375154e-22 4.9712371e-40)
(0.00051780378 -0.0005489316 -8.5502668e-23 0.00094318381 1.3096173e-22 4.2881467e-41)
(0.00037825966 -0.00044635865 1.4817712e-22 0.00094583195 -2.9657232e-22 5.9354958e-40)
(0.00027851112 -0.00035719982 -3.2507227e-23 0.00093502874 4.3444584e-23 1.274526e-40)
(0.00020783791 -0.00028165248 -1.9371091e-24 0.00091339028 -3.8837324e-24 1.4297995e-41)
(0.0001576117 -0.00021884749 3.3853465e-23 0.00088647445 -1.00376e-22 1.2953476e-41)
(0.00031773772 -5.2472423e-05 1.0541494e-22 8.8303858e-06 -1.3830967e-23 1.8736014e-40)
(0.0015085961 -0.00027583173 -9.653831e-22 5.0706871e-05 1.7394838e-22 2.9843453e-39)
(0.0026570231 -0.00049984771 -7.5422738e-22 9.5717824e-05 1.4958815e-22 3.5711018e-39)
(0.0034899947 -0.00068674579 1.0797153e-21 0.00014039896 -2.2548472e-22 8.7570768e-40)
(0.0039265929 -0.00083442111 8.1600495e-22 0.00018893328 -1.8349687e-22 1.8250407e-40)
(0.003994889 -0.00094296137 -5.9866163e-22 0.00024376265 1.3204361e-22 1.8965449e-39)
(0.0037746029 -0.0010135872 1.9496338e-22 0.00030645179 -7.4137397e-23 8.0295337e-40)
(0.003363164 -0.0010469931 1.1445881e-21 0.00037701126 -4.0523774e-22 9.0334011e-40)
(0.0028546306 -0.0010441885 5.0236906e-22 0.0004536048 -1.9719363e-22 1.1421354e-40)
(0.0023265173 -0.0010080204 -4.9429811e-22 0.0005327573 2.5173377e-22 2.9479539e-40)
(0.001833477 -0.00094387974 -6.7097988e-22 0.00060989889 3.9872952e-22 3.532574e-40)
(0.0014068836 -0.00085931919 -1.8310163e-23 0.00068015074 1.3191218e-23 3.6831826e-43)
(0.0010585899 -0.00076289497 1.933472e-22 0.00073917918 -1.6855991e-22 5.7269718e-41)
(0.00078672153 -0.00066277205 -6.84917e-24 0.00078389206 2.2090571e-23 8.6805188e-41)
(0.00058158513 -0.0005655971 -7.4041747e-24 0.00081281329 3.593893e-23 2.3493909e-40)
(0.00043043637 -0.00047591959 5.5290317e-24 0.0008260886 -4.6938012e-23 4.2440531e-40)
(0.00032063165 -0.00039617074 6.830868e-23 0.00082516123 -1.3504209e-22 1.2464906e-40)
(0.00024128258 -0.00032705082 -3.8820687e-23 0.00081224516 1.1362618e-22 3.2447571e-40)
(0.00018378209 -0.0002681883 -9.9432618e-23 0.00079030057 2.7536922e-22 6.2990099e-40)
(0.0001415767 -0.0002186147 3.3099104e-23 0.0007639201 -8.0524891e-23 1.4184441e-41)
(0.000338391 -3.2107409e-05 -2.7418171e-22 3.1265241e-06 2.2851123e-23 5.5982028e-40)
(0.0015354811 -0.00016759048 -2.158468e-22 1.851561e-05 2.3135771e-23 6.0403343e-40)
(0.0026453975 -0.00031429523 1.6572078e-21 3.8737094e-05 -2.1011322e-22 7.3800031e-39)
(0.0033913586 -0.00045275859 1.2350181e-21 6.4985122e-05 -1.7832452e-22 8.0718889e-40)
(0.003720951 -0.00057906861 5.5394838e-22 0.00010042454 -8.6571789e-23 3.9625907e-40)
(0.0036902283 -0.00068707764 1.11822e-22 0.00014712137 -2.2783607e-23 3.8251674e-42)
(0.0033997152 -0.00076993351 -1.0503594e-21 0.00020585276 2.3194169e-22 1.6565371e-39)
(0.0029571782 -0.00082156737 0 0.00027546869 0 0)
(0.0024564452 -0.00083891295 -6.4402294e-22 0.00035270751 2.7701826e-22 1.3714991e-39)
(0.0019668627 -0.00082325328 -1.1084285e-22 0.00043260404 7.2409125e-23 3.1054845e-40)
(0.0015309946 -0.00077996623 3.160044e-22 0.00050936886 -1.8214771e-22 7.6284325e-41)
(0.0011681025 -0.00071704061 3.4031169e-23 0.00057748813 -4.3178869e-23 1.7085084e-40)
(0.00088057554 -0.00064313685 -1.509606e-22 0.00063270256 1.469953e-22 1.9915554e-40)
(0.00066078993 -0.00056591722 -1.1382929e-22 0.00067259112 1.4830025e-22 4.2553475e-40)
(0.00049675859 -0.00049106843 7.3339197e-23 0.0006966644 -7.4161153e-23 5.2304391e-41)
(0.00037592301 -0.00042206865 1.0164094e-22 0.00070604601 -1.3040357e-22 4.8481985e-41)
(0.00028719028 -0.00036049042 -9.0613782e-23 0.00070291 1.4930201e-22 4.5149628e-41)
(0.00022169615 -0.00030656603 -1.2150375e-22 0.00068987741 2.603375e-22 5.2696927e-40)
(0.00017280317 -0.00025983971 9.3728093e-24 0.00066979477 -2.0189505e-24 6.1801811e-41)
(0.00013563784 -0.0002195347 1.6536908e-23 0.00064601493 -5.5376741e-23 7.2977711e-41)
(0.00035125633 -9.2681862e-06 -1.809322e-22 2.8058227e-07 4.6113508e-24 2.7386912e-40)
(0.0015181471 -5.4849038e-05 7.7350958e-22 2.1688071e-06 -2.7689149e-23 1.5190078e-39)
(0.002558004 -0.00012916452 1.1824728e-21 7.6614687e-06 -7.2657389e-23 1.1017431e-38)
(0.0032042014 -0.00022832162 -1.3870232e-21 2.0148215e-05 1.1931759e-22 3.0348501e-39)
(0.0034347695 -0.00034265821 5.0170916e-22 4.3264906e-05 -5.4865798e-23 7.6729184e-41)
(0.0033294073 -0.00045703448 2.0624096e-22 7.9983363e-05 1.1061255e-24 2.8016361e-39)
(0.0030016541 -0.00055560579 5.4251995e-23 0.00013141702 -1.095888e-23 1.0146501e-42)
(0.0025611408 -0.00062610253 -7.7249834e-22 0.00019596769 1.7774668e-22 9.4634015e-40)
(0.0020947009 -0.0006625843 -1.7548356e-23 0.00026933389 6.0484532e-24 1.5245042e-43)
(0.0016599005 -0.00066582698 2.8857632e-22 0.00034536983 -1.4958418e-22 3.6060115e-40)
(0.0012869329 -0.00064168508 2.2664156e-23 0.00041746233 -2.3061393e-23 5.1521877e-41)
(0.00098511808 -0.00059852192 -1.0403763e-22 0.00047992576 2.8081623e-23 6.6654218e-40)
(0.00075063774 -0.00054478978 -2.3186542e-22 0.00052896822 1.8802083e-22 7.5271953e-41)
(0.00057322781 -0.00048741338 -1.3637634e-24 0.00056302016 1.7987955e-23 8.6813952e-41)
(0.00044085711 -0.00043114319 7.8594103e-23 0.00058248449 -1.0272022e-22 8.4977123e-41)
(0.00034237872 -0.00037866241 5.2350429e-23 0.00058914025 -8.2725479e-23 8.23695e-41)
(0.0002686494 -0.00033108853 1.1953838e-23 0.00058546018 -3.9151064e-23 1.3325713e-40)
(0.00021272529 -0.00028857228 -8.3626025e-23 0.00057404894 1.17381e-22 1.0738083e-40)
(0.00016960271 -0.00025082363 -1.7116773e-23 0.00055733157 -1.1054498e-23 4.5698068e-40)
(0.00013568693 -0.00021730095 4.6093922e-23 0.00053744435 -1.4217469e-22 7.5446986e-40)
(2.3428687e-06 -2.9272982e-07 2.3413016e-23 3.5754607e-07 -4.6850136e-24 2.6762697e-40)
(1.1043264e-05 -4.6223178e-06 -3.3408653e-23 2.3744213e-06 9.2571273e-24 2.5764659e-40)
(2.4736224e-05 -1.0682237e-05 7.4206715e-23 4.7336131e-06 -2.7809542e-23 1.4798971e-39)
(7.9305389e-05 -2.2543426e-05 2.0716467e-22 6.7891836e-06 -4.4200999e-23 4.9768372e-39)
(0.00017404827 -3.7191851e-05 -1.480349e-22 8.6374381e-06 2.5235295e-23 1.2943738e-39)
(0.00031107683 -5.3594195e-05 1.8663479e-22 1.0279961e-05 -2.5361644e-23 1.4301903e-39)
(0.00049488066 -7.1192893e-05 -2.5639266e-22 1.171897e-05 3.2606282e-23 1.5709674e-39)
(0.00072667498 -8.9430439e-05 -2.6452271e-22 1.2984194e-05 2.7712805e-23 1.6609342e-39)
(0.0010053938 -0.00010785434 3.330561e-22 1.410764e-05 -3.4624394e-23 1.7562746e-39)
(0.0013292185 -0.00012613109 -2.5872987e-22 1.5114256e-05 2.5349358e-23 8.9457112e-40)
(0.0016958689 -0.00014400959 -1.2904436e-23 1.6022989e-05 2.1579219e-25 1.0398573e-41)
(0.0021026392 -0.0001612953 7.4694137e-23 1.6848351e-05 -7.9720796e-24 3.293732e-41)
(0.0025465276 -0.000177835 -1.284412e-23 1.7601468e-05 6.2200944e-25 5.2197474e-42)
(0.0030243565 -0.00019350731 4.0685471e-22 1.8291279e-05 -3.6605227e-23 1.567156e-39)
(0.0035328452 -0.00020821984 4.9153944e-25 1.8926035e-05 7.7032773e-25 3.383282e-42)
(0.004068684 -0.00022191475 -6.0031007e-22 1.9514815e-05 5.6280347e-23 3.2237131e-39)
(0.004628632 -0.00023457371 1.1155893e-22 2.0067322e-05 -1.1735187e-23 6.8127538e-41)
(0.0052095321 -0.00024619573 2.7136896e-22 2.0590744e-05 -2.6893582e-23 8.1979245e-40)
(0.0058082467 -0.00025683031 -4.4184309e-22 2.1092206e-05 4.6823128e-23 2.3238346e-39)
(0.006421207 -0.00026681808 -2.4507936e-22 2.1567457e-05 2.7645738e-23 8.7249555e-40)
(2.6534994e-06 -1.2246029e-06 7.7141473e-24 3.1464191e-06 -2.8532536e-24 2.6503963e-41)
(1.4078148e-05 -1.5838904e-05 -2.1157654e-22 2.0923607e-05 1.5952289e-22 8.6164816e-39)
(3.1592387e-05 -3.5960619e-05 4.1986021e-23 4.1700629e-05 -3.4719583e-23 7.7768709e-40)
(9.3307695e-05 -7.2983374e-05 2.2289124e-22 5.9812024e-05 -1.3695775e-22 4.1596766e-39)
(0.00019633189 -0.00011804889 3.0976545e-22 7.6062869e-05 -1.4895114e-22 4.7038803e-39)
(0.00034210956 -0.0001681211 3.7468832e-23 9.0444553e-05 -1.5037933e-23 4.4189122e-41)
(0.00053460085 -0.00022153492 -9.9662568e-22 0.00010298021 3.4565443e-22 2.3528069e-38)
(0.00077438415 -0.00027664189 -3.5173574e-23 0.00011393354 1.4588792e-23 6.808378e-42)
(0.0010598228 -0.00033211318 5.6465254e-22 0.00012358591 -1.7215252e-22 4.0161535e-39)
(0.0013885772 -0.00038696925 -1.3637375e-22 0.00013215698 3.7713624e-23 2.23318e-40)
(0.0017578515 -0.00044047025 -5.1825351e-22 0.00013981361 1.422386e-22 2.4776569e-39)
(0.0021644196 -0.00049204059 1.0914842e-22 0.00014668274 -2.7953464e-23 1.1280909e-40)
(0.002604748 -0.00054122375 4.6102165e-22 0.00015286012 -1.033295e-22 2.6570292e-39)
(0.0030751049 -0.00058765347 1.9096329e-22 0.00015842062 -4.7568451e-23 3.0356098e-40)
(0.0035716136 -0.00063104316 3.8279193e-22 0.000163431 -1.0205353e-22 8.7827275e-40)
(0.0040903252 -0.00067120087 -3.0298668e-22 0.00016796282 7.6380345e-23 7.4285264e-40)
(0.0046273993 -0.00070804892 -2.9017475e-22 0.00017209369 7.2401433e-23 8.1248192e-40)
(0.0051790348 -0.00074155382 2.9394136e-22 0.00017588577 -8.3328001e-23 4.6991975e-40)
(0.0057403759 -0.00077184671 2.6920523e-22 0.00017940938 -7.4431376e-23 8.2124368e-40)
(0.0063056859 -0.00080022928 1.0472066e-22 0.00018265372 -2.7805326e-23 3.4869431e-40)
(3.410811e-06 -3.1348955e-06 5.935515e-24 8.3915239e-06 -2.9718593e-24 1.3956435e-41)
(2.128015e-05 -3.2732565e-05 1.6069302e-22 5.5853968e-05 -1.7199874e-22 3.672198e-39)
(4.7557111e-05 -7.2332585e-05 -3.5171076e-23 0.00011123031 4.5326815e-23 1.923155e-40)
(0.00012423443 -0.00013854152 -2.4216129e-22 0.00015947777 2.0393015e-22 4.5533781e-39)
(0.00024439128 -0.00021714561 8.925655e-23 0.00020261822 -7.4971953e-23 1.29109e-40)
(0.00040812887 -0.00030324105 1.1834081e-22 0.00024053569 -9.6224504e-23 6.8108053e-41)
(0.00061834067 -0.00039407756 -1.473307e-22 0.00027328529 7.8168361e-23 4.0575164e-40)
(0.00087440127 -0.00048698657 -3.8560151e-22 0.00030156914 2.2512239e-22 8.1167087e-40)
(0.0011735829 -0.00057983469 1.687962e-22 0.00032613498 -8.2113455e-23 2.26736e-40)
(0.0015125344 -0.00067104262 3.5855832e-22 0.00034757114 -1.4927345e-22 1.2873242e-39)
(0.0018874596 -0.00075940684 1.0027445e-22 0.00036632696 -6.9348589e-23 4.8487803e-41)
(0.0022941239 -0.00084398004 4.3884154e-22 0.00038274297 -1.4601088e-22 2.3885716e-39)
(0.0027279656 -0.00092399766 3.7273291e-23 0.00039707163 -1.3829347e-23 9.9071022e-42)
(0.0031841839 -0.00099882833 -6.5339e-22 0.00040950242 2.2102478e-22 3.8411899e-39)
(0.0036577663 -0.001067954 4.8322942e-23 0.0004201958 -3.1732486e-23 2.1321139e-41)
(0.0041435615 -0.0011309956 -3.0596519e-22 0.0004293194 8.5406678e-23 1.4964971e-39)
(0.0046366274 -0.001187759 -4.326209e-22 0.00043705636 1.7110484e-22 6.1598128e-40)
(0.0051320441 -0.0012381211 7.0349618e-22 0.00044358802 -2.73601e-22 2.0441158e-39)
(0.005622075 -0.0012822502 3.7222124e-22 0.00044921196 -1.5347805e-22 4.1628211e-40)
(0.0060977238 -0.0013229296 7.4175061e-23 0.00045410239 -3.3602308e-23 8.9368978e-42)
(5.024488e-06 -6.4836106e-06 -8.8808562e-24 1.5452428e-05 1.1179129e-23 2.0476014e-41)
(3.4888145e-05 -5.8121217e-05 -3.7234448e-22 0.0001030421 4.7087782e-22 1.2186097e-38)
(7.7196804e-05 -0.00012531552 -2.7043633e-23 0.00020502768 3.475379e-23 1.665271e-40)
(0.00017862877 -0.00022657389 6.2484107e-23 0.00029374059 -6.9168287e-23 1.0622489e-40)
(0.00032666131 -0.00034306898 -1.0036819e-23 0.0003726702 2.5685046e-24 2.7421677e-41)
(0.00051940846 -0.00046814202 3.1838434e-22 0.00044138193 -2.3343462e-22 2.0014131e-39)
(0.00075811907 -0.00059795192 3.5223127e-22 0.0004999405 -2.3009852e-22 1.8182517e-39)
(0.0010403804 -0.00072890541 -1.0665434e-22 0.00054963949 5.1580322e-23 2.8648429e-40)
(0.0013618279 -0.00085816002 -3.9172188e-22 0.00059186524 2.0470364e-22 1.8218315e-39)
(0.0017175707 -0.00098359383 -7.9072514e-22 0.00062772495 4.2656627e-22 3.8642513e-39)
(0.0021022883 -0.0011035665 -1.7064331e-23 0.00065807642 -9.3203423e-24 8.818458e-41)
(0.0025102233 -0.0012167663 1.0074813e-21 0.00068357507 -4.6954236e-22 6.314743e-39)
(0.0029352728 -0.0013221079 -4.0826467e-22 0.00070470524 1.5594064e-22 1.8664084e-39)
(0.0033710774 -0.0014186727 -2.6428199e-22 0.00072182579 1.1578386e-22 3.6843517e-40)
(0.0038110289 -0.0015056757 -3.218158e-23 0.00073522643 3.5723386e-23 7.9512621e-41)
(0.0042483584 -0.0015824969 6.2736155e-22 0.0007451905 -2.7502595e-22 1.5117788e-39)
(0.0046766851 -0.0016487732 -3.5601409e-22 0.00075202007 1.7805329e-22 1.0184577e-40)
(0.0050898365 -0.001704305 -8.1712829e-22 0.00075609863 3.4403126e-22 3.2544157e-39)
(0.0054768266 -0.0017493197 5.4969902e-22 0.00075835811 -2.3907674e-22 1.6365551e-39)
(0.0058251101 -0.0017883291 4.7394116e-22 0.00075985027 -1.9002127e-22 1.5217866e-39)
(8.0354592e-06 -1.1547399e-05 3.9879064e-23 2.3554942e-05 -3.875579e-23 2.624171e-40)
(5.7889887e-05 -9.3655682e-05 1.2871875e-23 0.00015727651 -3.2828674e-24 1.1867822e-40)
(0.00012654726 -0.00019809589 -5.1358269e-22 0.00031241518 7.3518297e-22 9.9993401e-39)
(0.00026493412 -0.00034112962 -2.9501221e-22 0.00044692524 3.1331291e-22 3.092235e-39)
(0.00045356264 -0.00050010751 1.9677606e-22 0.00056576505 -1.5667603e-22 1.8688608e-39)
(0.00068784208 -0.00066661515 2.4503319e-22 0.00066792643 -1.9742614e-22 8.8046137e-40)
(0.00096666353 -0.00083567067 -3.1876049e-22 0.00075346847 2.0816435e-22 2.0600419e-39)
(0.0012851483 -0.0010028665 -4.8629233e-22 0.0008243945 2.7905465e-22 4.5205523e-39)
(0.0016366575 -0.0011647733 7.2084802e-22 0.00088287088 -4.3052173e-22 4.6390612e-39)
(0.0020141452 -0.0013188142 2.0645467e-22 0.00093066552 -8.3524012e-23 1.0797364e-39)
(0.0024101728 -0.0014629758 -6.5311264e-22 0.00096918327 4.3192865e-22 3.5943213e-40)
(0.0028169099 -0.0015956326 2.85919e-22 0.00099952328 -1.2996749e-22 8.3144665e-40)
(0.0032262538 -0.001715435 0 0.0010225207 0 0)
(0.0036299307 -0.001821232 2.7938162e-22 0.0010388029 -1.3613516e-22 3.2554615e-40)
(0.0040195328 -0.0019120321 -2.0985801e-22 0.0010488661 9.9725392e-23 1.7385662e-40)
(0.0043866595 -0.0019870358 -3.2202255e-22 0.0010531583 1.6068928e-22 2.1127878e-40)
(0.0047237359 -0.0020457772 1.1925766e-22 0.0010521049 -9.7053637e-23 2.9682068e-40)
(0.0050240237 -0.0020881345 -9.6913452e-23 0.0010463054 5.7828831e-23 1.0761439e-41)
(0.0052742353 -0.0021146287 4.6557395e-22 0.0010378143 -2.0148671e-22 1.7615029e-39)
(0.0054580944 -0.002131318 -3.7758552e-22 0.0010299645 1.8477085e-22 1.0308703e-40)
(1.3070284e-05 -1.8414198e-05 3.8246597e-23 3.1932117e-05 -3.2156788e-23 2.1070595e-40)
(9.3660691e-05 -0.0001396502 1.8451845e-22 0.00021308316 -2.4565371e-22 7.8770945e-40)
(0.00020227584 -0.0002910353 -2.4767054e-22 0.00042196432 3.2856042e-22 1.8762288e-39)
(0.00039203974 -0.00048207891 -4.0703873e-22 0.00060207129 4.5778864e-22 1.5719405e-39)
(0.00063521227 -0.00068702286 -1.2035437e-22 0.00075966988 1.7605658e-22 1.2405844e-39)
(0.00092356437 -0.00089557742 -3.6829336e-22 0.00089301656 3.2341493e-22 7.7215474e-40)
(0.001252709 -0.0011015625 -1.7112664e-22 0.0010022358 1.0535845e-22 8.9182474e-40)
(0.0016145049 -0.0012999112 2.967756e-22 0.0010901625 -1.7848318e-22 1.6450508e-39)
(0.0019993226 -0.0014867964 7.1034642e-22 0.0011598803 -4.2329808e-22 5.6327538e-39)
(0.0023973088 -0.0016593671 2.1911051e-22 0.001213977 -1.3482544e-22 2.3628264e-40)
(0.0027983959 -0.0018154282 -2.0818001e-22 0.0012545721 1.1051983e-22 3.7476125e-40)
(0.0031923342 -0.0019532453 -3.8578686e-23 0.0012833789 -8.5373708e-24 3.2637513e-40)
(0.0035688914 -0.0020714273 -9.9403263e-22 0.00130175 5.4367031e-22 3.1090431e-39)
(0.0039180508 -0.0021688496 -3.0885124e-22 0.0013107396 1.6144795e-22 3.2157975e-40)
(0.0042301502 -0.0022446106 5.1801885e-22 0.0013111886 -2.9920467e-22 1.5321176e-40)
(0.0044961166 -0.0022980489 -5.1675155e-22 0.0013038088 2.7895033e-22 3.1853868e-40)
(0.0047085447 -0.0023288872 -1.8242001e-22 0.0012891578 8.9749805e-23 1.0174252e-40)
(0.0048621241 -0.0023373837 4.092596e-22 0.0012679072 -1.7269916e-22 1.5807797e-39)
(0.0049441575 -0.0023247753 6.21567e-22 0.0012433744 -3.1034392e-22 1.1995288e-39)
(0.0049351074 -0.0022981593 7.5667444e-23 0.0012229039 -3.5345306e-23 2.3348179e-41)
(2.0795792e-05 -2.69894e-05 -1.0786873e-22 3.98872e-05 8.7580802e-23 1.2466596e-39)
(0.00014556355 -0.00019505134 -1.1940783e-22 0.00026527466 1.2113728e-22 9.9367046e-40)
(0.0003106781 -0.00040147948 3.0315935e-22 0.00052278016 -3.8279192e-22 4.5811638e-40)
(0.00056759763 -0.00064472363 4.6197266e-22 0.00074299152 -4.7830639e-22 2.0847209e-39)
(0.00087898412 -0.00089653173 6.0354855e-24 0.00093325795 -5.4322938e-24 4.1378664e-43)
(0.0012317472 -0.0011445959 -1.2552508e-21 0.0010911532 1.0351779e-21 1.2172496e-38)
(0.0016171276 -0.0013815716 -4.9267267e-22 0.001217086 4.2116412e-22 1.7487229e-40)
(0.0020228942 -0.0016020049 3.8250084e-22 0.0013148916 -2.5786259e-22 1.3356242e-39)
(0.0024358285 -0.001802016 4.3916062e-22 0.0013887228 -2.9468031e-22 8.1701985e-40)
(0.0028429078 -0.001978852 -4.3026117e-22 0.0014421517 2.3952268e-22 2.2421295e-39)
(0.003231339 -0.0021305315 -1.2673221e-21 0.0014781892 7.987622e-22 3.2703051e-39)
(0.0035887355 -0.0022556449 8.3424841e-22 0.0014993391 -5.048371e-22 1.3445308e-39)
(0.003903471 -0.0023532375 4.9666912e-22 0.0015076455 -2.5890961e-22 1.6098112e-39)
(0.0041650465 -0.0024227344 -6.8959509e-22 0.001504757 3.8002067e-22 1.3289405e-39)
(0.0043643894 -0.0024638929 3.0340492e-22 0.0014920073 -1.7476393e-22 8.9242043e-41)
(0.0044941827 -0.0024767817 5.0399815e-22 0.0014704788 -2.5929313e-22 9.8970623e-40)
(0.0045500384 -0.0024618395 1.922318e-22 0.0014408708 -1.0809993e-22 3.3776118e-41)
(0.0045313402 -0.0024200784 -3.2965797e-22 0.0014036463 2.029545e-22 4.2943648e-41)
(0.0044305422 -0.0023537542 -7.6776343e-23 0.0013628571 2.5110982e-23 2.4502446e-40)
(0.0042272014 -0.0022701364 4.3299863e-22 0.0013309509 -2.4943322e-22 1.0006941e-40)
(3.1868854e-05 -3.6998179e-05 -3.1744195e-24 4.6801969e-05 -3.4305026e-24 2.3308484e-41)
(0.00021650763 -0.00025747174 -4.34942e-22 0.00030924392 4.6013299e-22 3.2664064e-39)
(0.00045658984 -0.00052385502 -3.4672023e-22 0.00060537624 3.7205495e-22 4.940263e-39)