/*--------------------------------*- C++ -*----------------------------------*\
  =========                 |
  \\      /  F ield         | OpenFOAM: The Open Source CFD Toolbox
   \\    /   O peration     | Website:  https://openfoam.org
    \\  /    A nd           | Version:  6
     \\/     M anipulation  |
\*---------------------------------------------------------------------------*/
FoamFile
{
    version     2.0;
    format      ascii;
    class       surfaceScalarField;
    location    "21";
    object      phi;
}
// * * * * * * * * * * * * * * * * * * * * * * * * * * * * * * * * * * * * * //

dimensions      [0 3 -1 0 0 0 0];

internalField   nonuniform List<scalar> 
18180
(
0.00033134694
-0.00018626526
-0.00014508169
0.0013596156
-0.0014634024
0.00043513375
0.0031476265
-0.0035310415
0.0017430306
0.0057568129
-0.0063008067
0.0036916203
0.0092466687
-0.009717153
0.0062272972
0.01367244
-0.013735746
0.0093099743
0.019082126
-0.018317825
0.012908139
0.025513162
-0.023427313
0.016996277
0.032988949
-0.029027539
0.021551752
0.04151552
-0.035078521
0.02655195
0.051078697
-0.041535197
0.03197202
0.061642146
-0.048346567
0.037783118
0.073146776
-0.055455777
0.043951148
0.085511931
-0.062801126
0.050435971
0.098638993
-0.070318092
0.05719103
0.11241787
-0.077942446
0.064163567
0.12673581
-0.085614242
0.071296299
0.14149311
-0.093282323
0.078525024
0.15667493
-0.10092555
0.085743735
-0.10854012
0.092751398
0.17246365
0.00041171179
-0.00059797706
0.0016657356
-0.0027174262
0.0038158033
-0.0056811092
0.0069132063
-0.0093982098
0.011004544
-0.013808491
0.016127656
-0.018858858
0.022307235
-0.024497404
0.029550537
-0.030670615
0.037843535
-0.037320536
0.047147948
-0.044382935
0.05739964
-0.051786888
0.068508749
-0.059455676
0.080361801
-0.067308829
0.092825852
-0.075265177
0.10575439
-0.08324663
0.1189943
-0.091182356
0.13239286
-0.099012803
0.14580508
-0.10669454
0.15909316
-0.11421362
-0.12150417
0.17205721
0.00049634292
-0.00109432
0.0019798158
-0.0042008991
0.0044883846
-0.008189678
0.0080559013
-0.012965727
0.01270735
-0.018459939
0.018452995
-0.024604504
0.025282969
-0.031327377
0.033162808
-0.038550455
0.042030449
-0.046188177
0.05179518
-0.054147666
0.062338964
-0.062330672
0.073520246
-0.070636958
0.085180074
-0.078968657
0.097150008
-0.087235112
0.10926097
-0.095357596
0.12135188
-0.10327326
0.13327675
-0.11093767
0.14490831
-0.11832611
0.15613071
-0.12543601
-0.13222397
0.16685051
0.00058319769
-0.0016775177
0.0022929134
-0.0059106149
0.0051428219
-0.011039586
0.0091404095
-0.016963314
0.0142791
-0.02359863
0.020530979
-0.030856383
0.027841277
-0.038637674
0.036125103
-0.046834281
0.045266924
-0.055329998
0.055123141
-0.064003882
0.065527747
-0.072735278
0.076300643
-0.081409854
0.087257772
-0.089925785
0.098221939
-0.098199279
0.10903307
-0.10616873
0.11955668
-0.11379688
0.12968969
-0.12107067
0.13936253
-0.12799896
0.14853552
-0.13460899
-0.14090743
0.15721898
0.0006688851
-0.0023464028
0.0025915872
-0.0078333169
0.0057481511
-0.01419615
0.01011008
-0.021325243
0.015629354
-0.029117903
0.022230652
-0.037457681
0.029807168
-0.046214191
0.038220202
-0.055247315
0.047302731
-0.064412526
0.056866762
-0.073567913
0.066713703
-0.082582219
0.076646526
-0.091342677
0.0864822
-0.099761459
0.09606285
-0.10777993
0.10526429
-0.11537017
0.11400108
-0.12253367
0.12222789
-0.12929748
0.12993729
-0.13570836
0.13715451
-0.14182621
-0.14770089
0.14394798
0.00074913602
-0.0030955388
0.0028596264
-0.0099438073
0.0062687044
-0.017605228
0.010902851
-0.02595939
0.016664414
-0.034879466
0.023424769
-0.044218036
0.031023136
-0.053812558
0.039270528
-0.063494707
0.047958366
-0.073100365
0.056870627
-0.082480174
0.065797821
-0.091509413
0.074550828
-0.10009568
0.082972679
-0.10818331
0.09094679
-0.11575404
0.098400794
-0.12282417
0.10530589
-0.12943877
0.11167243
-0.13566402
0.11754282
-0.14157874
0.12298328
-0.14726667
-0.1528028
0.12808518
0.00081916497
-0.0039147038
0.0030795096
-0.012204152
0.0066676086
-0.021193327
0.011457903
-0.030749685
0.017298254
-0.040719817
0.024005753
-0.050925535
0.031369996
-0.061176801
0.039162224
-0.071286934
0.047148759
-0.0810869
0.055106573
-0.090437988
0.06283845
-0.09924129
0.070185404
-0.10744264
0.077034649
-0.11503255
0.083322276
-0.12204167
0.089030792
-0.12853269
0.094182467
-0.13459045
0.098830062
-0.14031161
0.10304668
-0.14579536
0.10691639
-0.15113639
-0.15641748
0.11053108
0.00087379597
-0.0047884997
0.0032333634
-0.014563719
0.0069095561
-0.02486952
0.011721198
-0.035561327
0.017461425
-0.046460044
0.023897742
-0.057361852
0.030780578
-0.068059637
0.037857324
-0.07836368
0.044889122
-0.088118697
0.051667335
-0.097216201
0.058026799
-0.10560075
0.063853815
-0.11326965
0.069088
-0.12026674
0.073718319
-0.12667199
0.077774594
-0.13258896
0.081316377
-0.13813223
0.084421212
-0.14341645
0.087174072
-0.14854822
0.089659203
-0.15362152
-0.15871456
0.091956285
0.0009066212
-0.0056951209
0.0033029908
-0.016960089
0.0069630521
-0.028529581
0.011650588
-0.040248863
0.01710874
-0.051918196
0.02306538
-0.063318492
0.02924675
-0.074241007
0.035394966
-0.084511896
0.041285698
-0.094009429
0.046742524
-0.10267303
0.051645398
-0.11050363
0.055932146
-0.1175564
0.059593425
-0.12392802
0.062662708
-0.12974127
0.065203551
-0.1351298
0.067296473
-0.14022515
0.069027356
-0.14514733
0.070478708
-0.14999958
0.071724254
-0.15486706
-0.15981669
0.072826377
0.0009141917
-0.0066093126
0.0032795822
-0.01932548
0.0068141965
-0.032064196
0.011231246
-0.044665912
0.016233321
-0.05692027
0.021522913
-0.068608084
0.026819817
-0.079537911
0.03187967
-0.089571749
0.03650954
-0.098639299
0.040577325
-0.10674081
0.044013486
-0.11393979
0.04680544
-0.12034836
0.048986413
-0.12610899
0.050621323
-0.13137618
0.05179234
-0.13630082
0.052586254
-0.14101907
0.05308503
-0.1456461
0.053360042
-0.15027459
0.053469677
-0.1549767
0.053458571
-0.15980558
-0.00021099854
0.00021099867
-1.0828516e-10
-0.00070566359
0.00049466536
-2.9119926e-10
-0.0013964029
0.00069073979
-4.7636204e-10
-0.0022162826
0.00081988045
-6.5620082e-10
-0.0031115253
0.00089524352
-8.3491779e-10
-0.0040382129
0.00092668864
-1.0132282e-09
-0.0049599088
0.00092169713
-1.1975769e-09
-0.0058456709
0.00088576356
-1.3866164e-09
-0.0066684887
0.00082281946
-1.5869426e-09
-0.0074040579
0.00073557106
-1.7948492e-09
-0.0080297987
0.0006257428
-2.0164197e-09
-0.0085240626
0.0004942663
-2.2460068e-09
-0.0088654995
0.00034143944
-2.4867545e-09
-0.0090325708
0.0001670741
-2.7323582e-09
-0.0090032439
-2.9323806e-05
-2.9870043e-09
-0.008754985
-0.00024825559
-3.2406629e-09
-0.0082650084
-0.00048997306
-3.4839718e-09
-0.0075098188
-0.0007551857
-3.7263375e-09
-0.0064647014
-0.0010451134
-3.946906e-09
-0.0013457107
-0.0051189865
-4.1328586e-09
-0.00019555145
0.00040655012
-0.00064929162
0.00094840555
-0.0012751248
0.001316573
-0.0020062219
0.0015509775
-0.0027880987
0.0016771203
-0.0035754881
0.0017140781
-0.0043300581
0.0016762671
-0.0050184887
0.0015741943
-0.0056109437
0.0014152745
-0.0060798592
0.0012044866
-0.0063989639
0.00094484756
-0.0065424753
0.00063777777
-0.0064844382
0.00028340237
-0.0061981858
-0.00011917819
-0.005655959
-0.00057155056
-0.0048287799
-0.0010754345
-0.0036866291
-0.0016321238
-0.0021983565
-0.0022434582
-0.00033146502
-0.0029120048
-0.0036072325
0.0019300568
-0.00016452605
0.00057107619
-0.0005362758
0.0013201553
-0.0010326995
0.0018129967
-0.0015877099
0.002105988
-0.0021458579
0.0022352683
-0.0026595913
0.0022278115
-0.0030871959
0.0021038718
-0.0033910272
0.0018780255
-0.0035360799
0.0015603273
-0.0034888395
0.0011572462
-0.003216339
0.00067234709
-0.0026853752
0.00010681403
-0.0018618247
-0.00054014801
-0.00071008714
-0.0012709157
0.00080739554
-0.0020890331
0.0027304904
-0.0029985293
0.0051014027
-0.0040030361
0.0079643345
-0.0051063898
0.011365375
-0.0063130447
-0.0075721006
0.015330243
-0.00012055769
0.00069163388
-0.00037521058
0.0015748082
-0.00068615537
0.0021239415
-0.00098837269
0.0024082054
-0.0012251801
0.0024720758
-0.001346003
0.0023486343
-0.0013046346
0.0020625034
-0.0010576982
0.0016310892
-0.00056338778
0.001066017
0.00021954335
0.00037431512
0.0013326158
-0.0004407253
0.0028183021
-0.0013788722
0.0047205943
-0.0024424401
0.0070855047
-0.003635826
0.0099615897
-0.004965118
0.013400537
-0.0064374763
0.017457584
-0.0080600833
0.022191228
-0.0098400334
0.027662973
-0.01178479
-0.013819745
0.033910618
-6.7025658e-05
0.00075865954
-0.00017712325
0.0016849058
-0.00025743458
0.0022042528
-0.00024397706
0.0023947478
-7.8568887e-05
0.0023066676
0.00029285286
0.0019772126
0.00092160651
0.0014337497
0.0018574793
0.00069521639
0.003149741
-0.00022624473
0.0048479498
-0.0013238937
0.0070025237
-0.0025952991
0.0096651439
-0.0040414924
0.012889062
-0.005666358
0.016729375
-0.0074761391
0.021243322
-0.0094790653
0.026490824
-0.011684978
0.032535321
-0.01410458
0.039444289
-0.016749001
0.047290067
-0.019630567
-0.022650846
0.056121168
-7.2910381e-06
0.00076595058
4.6823353e-05
0.0016307914
0.00023095191
0.0020201243
0.00060835965
0.0020173401
0.0012389403
0.001676087
0.0021803659
0.0010357869
0.0034890592
0.00012505646
0.0052210802
-0.0010368047
0.0074327687
-0.0024379332
0.010181084
-0.0040722085
0.013523776
-0.0059379917
0.017519421
-0.008037137
0.022227233
-0.01037417
0.027706763
-0.012955669
0.034017603
-0.015789905
0.041219448
-0.018886823
0.049373047
-0.022258179
0.058542163
-0.025918117
0.068797511
-0.029885915
-0.034045578
0.080192244
5.5978442e-05
0.00070997213
0.00028741264
0.0013993572
0.00075987368
0.0015476632
0.0015363274
0.0012408864
0.0026783927
0.00053402169
0.004247055
-0.00053287535
0.0063032155
-0.001931104
0.0089080078
-0.003641597
0.012122858
-0.0056527837
0.016009373
-0.007958723
0.02062894
-0.010557558
0.026042047
-0.013450244
0.032307355
-0.016639478
0.039480566
-0.02012888
0.047613202
-0.023922542
0.056751708
-0.028025328
0.066937849
-0.03244432
0.078211772
-0.03719204
0.09062086
-0.042295002
-0.047639902
0.10421518
0.00012119606
0.00058877606
0.00053859039
0.00098196287
0.0013159198
0.00077033384
0.0025160645
4.0741649e-05
0.0042020239
-0.0011519377
0.0064371509
-0.0027680024
0.0092850167
-0.0047789698
0.012809116
-0.007165696
0.017072311
-0.0099159786
0.022135905
-0.013022318
0.0280584
-0.016480053
0.034893927
-0.020285772
0.042690409
-0.02443596
0.051487479
-0.028925949
0.061314307
-0.03374937
0.072187682
-0.038898704
0.084111468
-0.044368106
0.097079326
-0.050159897
0.11108568
-0.056301351
-0.062714545
0.12616032
0.00018773164
0.00040104441
0.00079730097
0.00037239353
0.0018911821
-0.00032354734
0.0035317886
-0.0015998649
0.0057822939
-0.003402443
0.0087062152
-0.0056919236
0.012366615
-0.0084393693
0.016824966
-0.011624048
0.022139641
-0.015230653
0.028364025
-0.019246702
0.035544317
-0.023660345
0.043717053
-0.028458508
0.052906431
-0.033625338
0.063121481
-0.039140998
0.074353108
-0.044980996
0.086571082
-0.051116678
0.099721873
-0.057518897
0.11373001
-0.064168031
0.12851092
-0.071082268
-0.078263923
0.1440603
0.00025596272
0.00106349
0.0024829733
0.0045747287
0.0073995829
0.011017634
0.015486403
0.020858633
0.027179731
0.034484979
0.042796655
0.052121264
0.062447074
0.073742046
0.085952081
0.098998969
0.11277637
0.12713337
0.14179483
0.15628231
-0.0029725472
-0.0021464334
-5.7524757e-09
-0.00050759542
-0.0024649458
-5.8055775e-09
0.0022569049
-0.0027644944
-5.6495259e-09
0.0052636855
-0.003006775
-5.2469264e-09
0.0084882334
-0.0032245431
-4.6165994e-09
0.011916861
-0.0034286239
-3.6599972e-09
0.015534275
-0.0036174114
-2.3812721e-09
0.019326297
-0.0037920219
-7.6162626e-10
0.023281624
-0.0039553273
1.173618e-09
0.027391029
-0.0041094088
3.3730124e-09
0.031646829
-0.004255806
5.8653208e-09
0.036042888
-0.0043960676
8.6121034e-09
0.040574624
-0.0045317473
1.1616832e-08
0.045238925
-0.0046643157
1.4800569e-08
0.050034068
-0.004795162
1.8114086e-08
0.05495964
-0.0049255932
2.1429639e-08
0.06001641
-0.0050567951
2.4655132e-08
0.065206155
-0.0051897728
2.7636025e-08
0.0705314
-0.0053252747
3.025785e-08
0.075995069
-0.0054637014
3.2357902e-08
0.081600035
-0.005605
3.382377e-08
0.087348555
-0.005748555
3.4518569e-08
0.093241605
-0.0058930851
3.4372973e-08
0.099278131
-0.0060365596
3.3320229e-08
0.10545425
-0.0061761493
3.1370383e-08
0.11176245
-0.0063082281
2.856113e-08
0.11819086
-0.006428434
2.4983646e-08
0.12472263
-0.0065317976
2.0784457e-08
0.13133555
-0.0066129314
1.6091836e-08
0.1380018
-0.0066662656
1.1134472e-08
0.14468809
-0.0066862979
6.0042339e-09
0.1513559
-0.0066678034
9.6262784e-10
0.15796183
-0.0066059291
-3.9839695e-09
0.16445791
-0.0064960686
-8.5740938e-09
0.17079134
-0.0063334216
-1.2873208e-08
0.17690361
-0.0061122506
-1.6622222e-08
0.18272876
-0.0058251271
-1.9891333e-08
0.18819169
-0.0054629095
-2.2426217e-08
0.19320823
-0.0050165156
-2.4255444e-08
0.19768948
-0.0044812237
-2.5185354e-08
0.20155233
-0.0038628235
-2.5238003e-08
0.20473522
-0.0031828663
-2.4390058e-08
0.20721439
-0.0024791504
-2.2737583e-08
0.20901334
-0.0017989305
-2.0441913e-08
0.21020029
-0.0011869333
-1.7750199e-08
0.21087285
-0.00067253992
-1.4920871e-08
0.2111391
-0.00026623943
-1.2149858e-08
0.21109357
4.5538997e-05
-9.5352632e-09
0.21082906
0.0002645131
-7.292686e-09
0.0005018325
-4.1866048e-09
0.0039747436
-0.00419112
0.006330805
-0.004821007
0.0089714025
-0.0054050917
0.011833578
-0.0058689501
0.014898502
-0.0062894667
0.01815757
-0.006687692
0.021597632
-0.0070574733
0.025205982
-0.0074003718
0.02897284
-0.0077221852
0.032890257
-0.0080268258
0.036951478
-0.0083170267
0.041151039
-0.0085956292
0.045484831
-0.0088655394
0.049950035
-0.0091295191
0.054545063
-0.0093901905
0.059269509
-0.0096500396
0.064124054
-0.0099113395
0.069110312
-0.010176032
0.074230614
-0.010445577
0.079487686
-0.010720773
0.084884234
-0.011001548
0.09042242
-0.011286741
0.096103231
-0.011573896
0.10192576
-0.01185909
0.10788645
-0.012136835
0.11397829
-0.012400072
0.12019014
-0.012640283
0.12650608
-0.01284774
0.13290502
-0.013011869
0.13936047
-0.013121715
0.1458406
-0.013166434
0.15230851
-0.013135709
0.15872253
-0.013019955
0.16503655
-0.012810088
0.17119981
-0.012496677
0.17715603
-0.012068469
0.18284175
-0.011510848
0.18818452
-0.01080568
0.19310267
-0.00993467
0.19750923
-0.0088877762
0.20132184
-0.007675441
0.2044782
-0.0063392213
0.20695216
-0.0049531129
0.20876363
-0.0036103937
0.20997668
-0.0023999868
0.210685
-0.0013808585
0.21099356
-0.00057479875
0.21099468
4.4416776e-05
0.21078011
0.00047908055
0.00095112263
0.017155135
-0.0060160116
0.019269525
-0.006935397
0.021641054
-0.00777662
0.024199797
-0.0084276928
0.026936425
-0.0090260947
0.029850999
-0.0096022663
0.032934379
-0.010140853
0.036176554
-0.010642546
0.039570368
-0.011115999
0.043110059
-0.011566516
0.046790462
-0.01199743
0.050607231
-0.012412398
0.054556999
-0.012815307
0.058637366
-0.013209886
0.062846888
-0.013599712
0.067185068
-0.01398822
0.071652324
-0.014378596
0.076249891
-0.014773599
0.080979657
-0.015175343
0.085843912
-0.015585028
0.090844999
-0.016002635
0.095984854
-0.016426597
0.10126445
-0.01685349
0.10668313
-0.017277774
0.11223792
-0.017691627
0.11792278
-0.018084924
0.12372788
-0.018445385
0.12963906
-0.018758921
0.13563734
-0.019010153
0.14169872
-0.01918309
0.14779412
-0.019261838
0.15388965
-0.019231243
0.15994691
-0.019077208
0.16592324
-0.018786418
0.17177169
-0.018345133
0.17744025
-0.017737028
0.1828702
-0.016940798
0.18799417
-0.015929652
0.1927354
-0.014675896
0.1970107
-0.013163076
0.20073938
-0.011404125
0.20385779
-0.0094576275
0.20633534
-0.0074306623
0.20818507
-0.0054601201
0.20946314
-0.003678058
0.21025569
-0.0021734064
0.2106617
-0.00098081106
0.21076927
-6.3155949e-05
0.21066814
0.00058021557
0.0012812858
0.035376992
-0.0074823859
0.037098661
-0.0086570654
0.039039306
-0.0097172644
0.041127761
-0.010516147
0.043367298
-0.011265631
0.045767609
-0.012002577
0.048324811
-0.012698055
0.051032639
-0.013350374
0.053887103
-0.013970463
0.056884976
-0.014564389
0.060022958
-0.015135412
0.063297954
-0.015687394
0.066707334
-0.016224687
0.07024902
-0.016751573
0.073921538
-0.01727223
0.07772407
-0.017790752
0.081656488
-0.018311013
0.08571933
-0.018836441
0.089913717
-0.01936973
0.094241185
-0.019912496
0.098703421
-0.020464871
0.1033019
-0.021025075
0.10803741
-0.021589001
0.1129095
-0.022149862
0.11791582
-0.022697948
0.12305147
-0.023220572
0.12830831
-0.023702233
0.13367441
-0.024125022
0.13913355
-0.024469287
0.14466493
-0.024714474
0.15024315
-0.024840056
0.15583829
-0.024826384
0.16141624
-0.02465516
0.166939
-0.024309174
0.17236471
-0.02377084
0.17764708
-0.023019402
0.18273392
-0.022027637
0.18756497
-0.020760706
0.19207052
-0.019181439
0.19617308
-0.017265641
0.19979482
-0.01502586
0.20287078
-0.012533588
0.20536466
-0.00992455
0.20728025
-0.0073757089
0.20866277
-0.0050605791
0.20958779
-0.0030984246
0.21014582
-0.0015388397
0.21041891
-0.00033624441
0.21049392
0.00050520884
0.001426552
0.05706084
-0.0084220571
0.058219308
-0.0098155327
0.059553419
-0.011051375
0.061001665
-0.011964393
0.062582105
-0.012846071
0.064311845
-0.013732317
0.066192348
-0.014578558
0.068221854
-0.01537988
0.070399398
-0.016148006
0.072723866
-0.016888857
0.075193539
-0.017605085
0.077806294
-0.018300149
0.080559896
-0.01897829
0.083452218
-0.019643895
0.086481379
-0.020301391
0.08964586
-0.020955233
0.0929446
-0.021609754
0.096377055
-0.022268895
0.099943189
-0.022935865
0.1036434
-0.023612711
0.10747837
-0.024299838
0.11144877
-0.024995476
0.11555493
-0.025695165
0.11979637
-0.026391295
0.12417121
-0.027072792
0.12867563
-0.027724993
0.1333032
-0.028329806
0.13804434
-0.028866153
0.14288578
-0.02931073
0.14781029
-0.02963899
0.15279651
-0.02982627
0.15781896
-0.029848838
0.16284837
-0.029684569
0.16785195
-0.02931275
0.17279361
-0.028712504
0.17763367
-0.027859456
0.18232752
-0.026721493
0.18682349
-0.025256672
0.19106062
-0.023418572
0.19496899
-0.021174009
0.19847509
-0.018531961
0.20151346
-0.015571958
0.20404181
-0.012452904
0.20605337
-0.009387267
0.20758043
-0.0065876417
0.20868578
-0.0042037653
0.20944948
-0.0023025456
0.20994602
-0.0008327805
0.21025866
0.00019256397
0.0013224223
0.080413417
-0.0086432285
0.080827643
-0.010229759
0.081378714
-0.011602445
0.082028678
-0.012614356
0.082809356
-0.01362675
0.083739817
-0.014662778
0.084825588
-0.015664329
0.086069531
-0.016623823
0.08747291
-0.017551385
0.089035575
-0.018451521
0.090756484
-0.019325995
0.092633793
-0.020177457
0.094665019
-0.021009516
0.096847388
-0.021826264
0.099178081
-0.022632085
0.10165441
-0.023431562
0.10427395
-0.024229295
0.10703467
-0.025029617
0.10993501
-0.025836199
0.11297385
-0.026651555
0.1161505
-0.027476489
0.1194645
-0.028309474
0.12291537
-0.029146034
0.12650225
-0.029978184
0.13022349
-0.030794026
0.13407604
-0.031577544
0.13805496
-0.032308724
0.14215281
-0.032964011
0.1463592
-0.033517115
0.15066033
-0.033940122
0.15503883
-0.034204771
0.1594737
-0.034283708
0.1639405
-0.034151364
0.1684117
-0.033783951
0.17285707
-0.033157878
0.17724366
-0.03224605
0.18153489
-0.031012715
0.18568833
-0.029410119
0.18965303
-0.027383264
0.19336813
-0.024889112
0.19676617
-0.021929997
0.19978255
-0.018588341
0.20236974
-0.01504009
0.20451028
-0.01152781
0.20622269
-0.008300048
0.20755563
-0.005536708
0.20857745
-0.0033243693
0.20935385
-0.0016091812
0.209964
-0.0004175846
0.00090611834
0.10354841
-0.0079764519
0.1030601
-0.0097414501
0.10267903
-0.011221372
0.10241094
-0.012346264
0.10229534
-0.013511159
0.10234531
-0.014712745
0.10256828
-0.0158873
0.10297088
-0.017026417
0.1035553
-0.018135814
0.10432091
-0.01921713
0.10526602
-0.020271103
0.10638805
-0.021299481
0.10768348
-0.022304952
0.10914825
-0.023291034
0.11077805
-0.024261888
0.11256858
-0.025222088
0.11451568
-0.026176399
0.11661554
-0.027129471
0.11886476
-0.028085418
0.12126048
-0.029047275
0.12380036
-0.030016371
0.12648252
-0.030991639
0.1293054
-0.031968911
0.13226747
-0.032940252
0.13536689
-0.033893454
0.1386011
-0.034811754
0.14196625
-0.035673871
0.1454567
-0.036454457
0.14906449
-0.037124913
0.15277895
-0.037654575
0.15658632
-0.038012146
0.16046972
-0.038167102
0.16440917
-0.038090823
0.16838206
-0.037756838
0.17236357
-0.037139391
0.17632709
-0.03620957
0.18024371
-0.034929333
0.18408031
-0.03324672
0.18779638
-0.031099335
0.19134129
-0.028434019
0.19465521
-0.025243911
0.19767621
-0.021609348
0.20035306
-0.017716942
0.2026586
-0.01383335
0.20459779
-0.010239238
0.20620484
-0.0071437517
0.20753569
-0.0046552263
0.20864648
-0.0027199632
0.20961198
-0.0013830837
0.0001170305
0.12454764
-0.0063637723
0.12308716
-0.0082809734
0.12169869
-0.0098328965
0.12046801
-0.011115583
0.11943295
-0.012476106
0.11859272
-0.013872506
0.11795461
-0.015249194
0.11752705
-0.016598857
0.11731176
-0.017920528
0.11730649
-0.01921185
0.1175077
-0.020472317
0.11791108
-0.021702858
0.11851143
-0.022905302
0.11930293
-0.024082542
0.12027949
-0.025238448
0.12143495
-0.026377546
0.12276329
-0.02750474
0.12425881
-0.028624985
0.12591624
-0.029742848
0.12773089
-0.030861933
0.12969873
-0.031984211
0.13181636
-0.033109263
0.13408095
-0.034233503
0.13649011
-0.035349411
0.13904158
-0.036444933
0.14173292
-0.037503091
0.144561
-0.038501948
0.14752153
-0.039414987
0.15060854
-0.04021193
0.15381394
-0.040859973
0.15712709
-0.041325294
0.16053464
-0.041574651
0.16402055
-0.041576734
0.16756642
-0.041302715
0.17115217
-0.040725138
0.17475668
-0.039814075
0.17835788
-0.038530532
0.18193128
-0.036820127
0.18544665
-0.0346147
0.18886407
-0.031851442
0.19213267
-0.02851251
0.19519511
-0.024671786
0.19799852
-0.020520354
0.20050784
-0.016342672
0.20271569
-0.012447089
0.20464231
-0.0090703699
0.20633129
-0.0063441992
0.20782874
-0.0042174128
0.20920502
-0.0027593637
-0.001102847
0.1416361
-0.0039395656
0.13929494
-0.0059398142
0.13693904
-0.007476992
0.13480567
-0.008982214
0.13292092
-0.010591363
0.13126796
-0.012219547
0.1298514
-0.013832634
0.1286779
-0.015425354
0.12774774
-0.016990363
0.12705719
-0.018521307
0.12660083
-0.020015959
0.12637234
-0.021474363
0.12636474
-0.022897701
0.12657056
-0.024288364
0.12698204
-0.025649926
0.12759134
-0.026986851
0.12839078
-0.028304172
0.12937293
-0.029607141
0.13053086
-0.030900777
0.13185822
-0.032189291
0.13334938
-0.033475368
0.13499949
-0.034759376
0.1368045
-0.036038518
0.13876108
-0.037305986
0.1408664
-0.038550255
0.1431179
-0.039754593
0.14551287
-0.040896914
0.14804798
-0.041950094
0.15071879
-0.042882744
0.15351927
-0.043660448
0.15644133
-0.044247356
0.15947458
-0.044607905
0.16260625
-0.044708404
0.16582147
-0.044517933
0.16910399
-0.044007653
0.17243716
-0.043147254
0.17580461
-0.04189798
0.17918931
-0.040204827
0.18257047
-0.037995859
0.1859188
-0.035199771
0.18919319
-0.031786901
0.19234259
-0.027821187
0.19531478
-0.023492547
0.19806911
-0.019097002
0.20058776
-0.014965739
0.20287823
-0.011360835
0.20497234
-0.0084383054
0.20690621
-0.006151284
0.20874587
-0.0045990251
-0.0028085252
0.15383758
-0.0014948327
0.15068411
-0.0027863479
0.14754771
-0.0043405861
0.14467817
-0.0061126795
0.14207777
-0.0079909635
0.13974209
-0.0098838671
0.13767505
-0.011765588
0.13587827
-0.013628572
0.1343508
-0.015462894
0.13308919
-0.0172597
0.13208751
-0.01901428
0.13133823
-0.020725079
0.13083299
-0.022392468
0.13056296
-0.02401833
0.13051894
-0.025605907
0.13069164
-0.027159547
0.13107184
-0.028684375
0.13165063
-0.030185928
0.13241953
-0.031669679
0.1333707
-0.033140459
0.13449706
-0.034601726
0.13579242
-0.036054743
0.13725157
-0.037497665
0.13887022
-0.038924635
0.14064493
-0.040324969
0.1425729
-0.041682558
0.1446516
-0.042975619
0.1468784
-0.044176892
0.14925002
-0.045254367
0.15176207
-0.046172493
0.15440852
-0.046893811
0.15718141
-0.047380792
0.16007062
-0.04759762
0.16306415
-0.047511454
0.16614875
-0.047092256
0.16931123
-0.046309739
0.17253959
-0.045126336
0.17582287
-0.043488104
0.17914847
-0.041321462
0.18249702
-0.038548316
0.18583737
-0.035127253
0.18912599
-0.031109805
0.19231337
-0.026679934
0.19535573
-0.022139362
0.19822718
-0.017837185
0.20092419
-0.014057847
0.20346814
-0.010982259
0.20588494
-0.0085680815
0.20823834
-0.0069524217
-0.005050853
0.19472011
0.0028341136
-0.19904905
0.19117713
0.00075662773
0.18806078
-0.0012242382
0.18520604
-0.0032579388
0.18257566
-0.0053605747
0.18014562
-0.0074538338
0.17789963
-0.0095195971
0.17583032
-0.011559261
0.17393526
-0.013567836
0.1722138
-0.015538233
0.17066559
-0.017466078
0.16929005
-0.019349535
0.16808593
-0.021188352
0.16705124
-0.022983632
0.16618313
-0.024737801
0.165478
-0.026454414
0.16493147
-0.028137851
0.16453849
-0.029792945
0.16429335
-0.031424535
0.16418977
-0.033036886
0.16422103
-0.034632987
0.16438002
-0.036213733
0.1646594
-0.037777037
0.16505169
-0.039316925
0.16554944
-0.040822723
0.16614532
-0.042278437
0.16683218
-0.043662477
0.16760309
-0.044947805
0.16845133
-0.046102603
0.16937026
-0.047091421
0.17035319
-0.04787675
0.17139323
-0.04842083
0.17248307
-0.048687458
0.173615
-0.048643384
0.17478117
-0.048258432
0.17597426
-0.047502825
0.17718825
-0.046340322
0.17841878
-0.044718635
0.17966216
-0.042564842
0.18091269
-0.039798853
0.18215926
-0.036373821
0.18338299
-0.032333536
0.18455803
-0.027854972
0.18565549
-0.02323682
0.18665015
-0.018831844
0.18752433
-0.014932027
0.18827642
-0.011734351
0.18890375
-0.0091954121
0.18945217
-0.0075008419
-0.0054503282
0.22238004
0.0059746737
-0.2255206
0.21917796
0.0039587118
0.21624158
0.0017121431
0.21342569
-0.00044205243
0.21068286
-0.0026177427
0.20804405
-0.0048150267
0.20552729
-0.0070028325
0.20313868
-0.0091706538
0.20088553
-0.011314682
0.19877602
-0.013428727
0.19681678
-0.015506836
0.19501258
-0.017545337
0.19336669
-0.01954246
0.19188091
-0.021497849
0.19055558
-0.023412472
0.18938967
-0.025288506
0.18838088
-0.027129064
0.18752575
-0.028937815
0.18681976
-0.030718542
0.18625745
-0.03247458
0.18583259
-0.034208128
0.18553832
-0.035919457
0.18536732
-0.03760604
0.18531206
-0.039261664
0.18536495
-0.040875617
0.18551858
-0.042432063
0.18576583
-0.043909724
0.1861
-0.045281978
0.18651485
-0.046517452
0.18700451
-0.047581083
0.18756338
-0.048435617
0.18818589
-0.049043345
0.18886635
-0.049367912
0.18959881
-0.049375849
0.19037738
-0.049037002
0.1911969
-0.048322343
0.19205403
-0.047197451
0.19294802
-0.045612624
0.19388014
-0.043496966
0.19485112
-0.040769833
0.19585699
-0.037379691
0.19688521
-0.033361751
0.19791332
-0.028883091
0.1989114
-0.024234894
0.19984821
-0.019768656
0.20069697
-0.015780784
0.20144482
-0.012482204
0.20208171
-0.0098323021
0.20264213
-0.0080612556
-0.0058664082
0.2488094
0.0084671998
-0.25130192
0.24620461
0.0065634993
0.24360275
0.004313997
0.24102007
0.0021406315
0.23842205
-1.9723727e-05
0.23582864
-0.0022216171
0.23327141
-0.0044456042
0.23077084
-0.00667008
0.22834383
-0.0088876752
0.22600722
-0.01109211
0.22377584
-0.013275459
0.22166173
-0.015431227
0.21967445
-0.017555181
0.21782136
-0.019644758
0.21610767
-0.021698777
0.21453653
-0.023717371
0.21310922
-0.025701754
0.21182527
-0.027653859
0.21068261
-0.029575886
0.2096778
-0.031469766
0.20880616
-0.033336489
0.20806205
-0.035175348
0.2074391
-0.036983088
0.20693048
-0.038753046
0.20652921
-0.040474346
0.20622841
-0.042131266
0.20602157
-0.043702881
0.20590269
-0.045163104
0.20586643
-0.046481188
0.20590804
-0.047622689
0.20602326
-0.048550843
0.20620815
-0.049228227
0.20645877
-0.049618536
0.20677113
-0.049688214
0.20714137
-0.049407233
0.20756648
-0.048747454
0.20804566
-0.047676635
0.20858151
-0.046148474
0.20918
-0.044095459
0.20984819
-0.041438022
0.21058958
-0.038121084
0.21139877
-0.034170934
0.21225789
-0.029742213
0.21313718
-0.025114187
0.2140003
-0.020631776
0.21481176
-0.016592241
0.21554687
-0.013217316
0.2161884
-0.010473834
0.21675579
-0.0086286448
-0.0062984462
0.27370631
0.01031376
-0.27555287
0.27173707
0.0085327326
0.26960282
0.0064482553
0.2673822
0.004361242
0.26508678
0.002275698
0.26272667
0.00013849508
0.26032757
-0.0020465069
0.25791436
-0.0042568704
0.25550808
-0.0064813895
0.25312929
-0.008713322
0.25079784
-0.010944006
0.24853144
-0.013164827
0.24634536
-0.0153691
0.24425248
-0.01755188
0.24226329
-0.019709585
0.24038584
-0.021839925
0.23862586
-0.023941777
0.23698687
-0.026014863
0.23547031
-0.028059333
0.2340758
-0.030075251
0.23280128
-0.032061975
0.23164337
-0.03401743
0.23059758
-0.035937302
0.22965874
-0.037814208
0.22882131
-0.039636911
0.22807972
-0.041389678
0.22742873
-0.043051895
0.22686367
-0.044598038
0.22638056
-0.045998081
0.2259762
-0.047218332
0.22564805
-0.048222694
0.22539402
-0.048974194
0.2252122
-0.049436721
0.22510072
-0.049576732
0.22505785
-0.049364362
0.2250828
-0.0487724
0.22517715
-0.047770987
0.2253465
-0.046317827
0.22560105
-0.044350003
0.22595372
-0.041790699
0.22641541
-0.038582768
0.22698829
-0.034743815
0.2276602
-0.030414127
0.22840304
-0.025857019
0.22917676
-0.021405501
0.22993814
-0.017353621
0.23065101
-0.013930184
0.23129045
-0.011113279
0.23186044
-0.0091986323
-0.006743952
0.29677721
0.011516497
-0.29797995
0.29543455
0.0098753964
0.29385894
0.0080238673
0.29211688
0.0061033045
0.29024533
0.0041472459
0.28825629
0.0021275334
0.28616816
4.1626285e-05
0.28400422
-0.0020929384
0.28178635
-0.0042635121
0.27953541
-0.0064623893
0.27727239
-0.0086809828
0.27501746
-0.010909891
0.27278917
-0.01314081
0.27060419
-0.015366902
0.2684771
-0.0175825
0.26642023
-0.01978305
0.26444351
-0.021965063
0.26255456
-0.024125908
0.26075868
-0.026263458
0.25905907
-0.028375636
0.25745696
-0.030459863
0.25595192
-0.032512393
0.25454218
-0.034527562
0.25322499
-0.036497011
0.251997
-0.038408925
0.25085472
-0.040247401
0.24979486
-0.041992033
0.24881464
-0.04361782
0.24791203
-0.045095467
0.2470858
-0.0463921
0.24633548
-0.047472375
0.24566117
-0.048299882
0.24506324
-0.048838797
0.24454215
-0.049055646
0.24409851
-0.048920718
0.24373379
-0.048407676
0.24345186
-0.047489056
0.24326094
-0.04612691
0.2431748
-0.04426386
0.2432115
-0.041827406
0.24338876
-0.03876003
0.24371642
-0.035071473
0.24418883
-0.030886539
0.24478105
-0.026449236
0.24545118
-0.022075633
0.24614976
-0.018052202
0.24683019
-0.014610609
0.24745978
-0.011742869
0.24802718
-0.0097660376
-0.0071996209
0.31828475
0.012143818
-0.31891207
0.3175035
0.010656645
0.31648313
0.0090442446
0.31525837