/*--------------------------------*- C++ -*----------------------------------*\
  =========                 |
  \\      /  F ield         | OpenFOAM: The Open Source CFD Toolbox
   \\    /   O peration     | Website:  https://openfoam.org
    \\  /    A nd           | Version:  6
     \\/     M anipulation  |
\*---------------------------------------------------------------------------*/
FoamFile
{
    version     2.0;
    format      ascii;
    class       volVectorField;
    location    "21";
    object      UMean;
}
// * * * * * * * * * * * * * * * * * * * * * * * * * * * * * * * * * * * * * //

dimensions      [0 1 -1 0 0 0 0];

internalField   nonuniform List<vector> 
9200
(
(0.0074768882 -0.0035376855 -7.5485374e-20)
(0.034937374 -0.017593251 6.7961965e-20)
(0.075547782 -0.03043223 -5.1465765e-20)
(0.12628104 -0.042106077 -8.8137828e-20)
(0.18447466 -0.05275055 2.6257421e-20)
(0.24840509 -0.061993211 4.7945692e-20)
(0.31657585 -0.06960749 -1.7694192e-20)
(0.38760155 -0.075534177 1.34856e-20)
(0.46020493 -0.079798869 2.7317211e-20)
(0.53319121 -0.082483772 2.4139018e-21)
(0.60543037 -0.083717137 -3.5402824e-20)
(0.67585779 -0.083661352 3.3542137e-20)
(0.74348751 -0.082500609 -6.4762027e-20)
(0.80743299 -0.080428966 -3.4945858e-20)
(0.86693209 -0.077638369 9.7820927e-21)
(0.92137178 -0.074309086 -4.2164968e-20)
(0.97032174 -0.070590817 4.2611303e-20)
(1.0136304 -0.066479081 3.8605467e-20)
(1.0512644 -0.061879426 -1.2653364e-22)
(1.0812719 -0.059614769 -1.1883182e-21)
(0.01351811 -0.0068812271 -2.1713757e-20)
(0.053069194 -0.025669632 5.6803101e-20)
(0.10615812 -0.040624018 2.9314854e-20)
(0.16930932 -0.052591631 -1.6254065e-19)
(0.23957021 -0.062202906 -1.7191652e-20)
(0.31493406 -0.069386062 1.0733918e-19)
(0.39361461 -0.074174032 -5.1843679e-20)
(0.47394187 -0.076741063 -1.2918723e-20)
(0.55437084 -0.077319479 5.3209688e-20)
(0.63347027 -0.076176767 -6.8069832e-20)
(0.70992194 -0.073608365 -4.9460561e-20)
(0.78253835 -0.069925854 1.1819687e-19)
(0.85028989 -0.065443455 6.2034646e-20)
(0.91233434 -0.060465466 -1.1110795e-19)
(0.96804285 -0.055276148 2.383069e-20)
(1.0170171 -0.050135419 -5.992541e-20)
(1.0591045 -0.045268506 -2.4057788e-20)
(1.0944581 -0.04080126 1.1448963e-19)
(1.1233982 -0.037038874 5.4948776e-20)
(1.1448071 -0.036589023 -9.8958688e-20)
(0.021083051 -0.0099166926 4.3454379e-20)
(0.075094303 -0.032582946 6.7698056e-22)
(0.14232217 -0.048597795 2.5513046e-20)
(0.21892601 -0.05971641 1.337126e-21)
(0.30169343 -0.067140709 -5.1320027e-20)
(0.38833164 -0.071165007 2.8325124e-20)
(0.47676123 -0.072142012 1.7016465e-20)
(0.5650366 -0.070533984 -7.4054598e-20)
(0.65137681 -0.066826222 8.6882846e-20)
(0.73417722 -0.061506366 2.4636462e-20)
(0.81203024 -0.055057271 -8.7118464e-20)
(0.88375842 -0.04794247 -3.0327104e-20)
(0.94844826 -0.040589542 1.1849044e-20)
(1.0054753 -0.033375625 3.7248993e-20)
(1.0545148 -0.026617077 -1.7669357e-20)
(1.0955336 -0.020565657 4.3503804e-20)
(1.1287674 -0.015401743 -3.2424517e-20)
(1.154714 -0.011193595 -1.049845e-19)
(1.1739883 -0.0081063678 -2.8406648e-20)
(1.1862624 -0.0077612359 6.7570953e-20)
(0.030217471 -0.012368005 2.76911e-20)
(0.10097658 -0.037587078 6.3568449e-20)
(0.18378349 -0.053272488 2.5877095e-20)
(0.27453914 -0.062194313 2.0195313e-20)
(0.36981493 -0.066199996 2.5823335e-20)
(0.46704889 -0.066014723 -6.7933353e-20)
(0.56389682 -0.062367367 -3.7691358e-20)
(0.6581925 -0.056052979 0)
(0.74800917 -0.047838865 2.8843114e-20)
(0.831698 -0.038442404 -1.3755004e-20)
(0.90792662 -0.028521609 -1.4995365e-19)
(0.97571692 -0.018657563 -2.2626579e-20)
(1.034469 -0.0093368482 1.0121909e-19)
(1.0839634 -0.00093959179 6.5956827e-22)
(1.1243382 0.0062650127 -2.3678133e-21)
(1.1560425 0.01211456 3.250838e-20)
(1.1797739 0.016549067 -6.3216026e-21)
(1.196423 0.019632478 -8.9569821e-20)
(1.2069352 0.021407065 -6.6900531e-20)
(1.2116096 0.020961568 8.7238179e-20)
(0.040882884 -0.013932693 -3.0884823e-21)
(0.13043095 -0.039906732 -1.9264845e-21)
(0.22987302 -0.053575549 7.0244272e-20)
(0.33499423 -0.058810117 2.6858607e-20)
(0.44222306 -0.058167206 -4.7150488e-20)
(0.54878341 -0.052860134 1.4445423e-20)
(0.65214611 -0.044036416 3.8439489e-21)
(0.75004171 -0.032845881 5.2200949e-20)
(0.84055514 -0.020335194 8.5567667e-21)
(0.92218519 -0.0074222302 -2.2342487e-20)
(0.99388661 0.0051145555 9.5033729e-20)
(1.0550922 0.016652057 -8.544537e-20)
(1.1057043 0.02673336 -1.9661915e-19)
(1.1460536 0.035067697 -8.1921696e-21)
(1.1768291 0.04151915 1.1932655e-19)
(1.1989871 0.04608524 0)
(1.213653 0.048874352 1.5657078e-20)
(1.2220363 0.05010444 -2.0613554e-20)
(1.2253091 0.049983227 -1.3304606e-20)
(1.2241614 0.04803287 2.6282064e-20)
(0.052942953 -0.014297414 -2.4652535e-21)
(0.1629142 -0.038790768 5.1947995e-21)
(0.27953987 -0.048541719 -1.0833438e-20)
(0.39867325 -0.04856723 3.3656712e-20)
(0.51671669 -0.042172509 -4.141284e-20)
(0.63078895 -0.031094421 -2.369525e-20)
(0.7383189 -0.016911369 4.4918022e-20)
(0.83711677 -0.0011102424 4.8124614e-21)
(0.92549399 0.015031945 -4.061055e-20)
(1.0023267 0.030474384 1.021568e-19)
(1.0670778 0.044417143 -1.6512739e-21)
(1.1197779 0.056304749 -1.1790946e-19)
(1.1609629 0.065817912 0)
(1.1915768 0.072849712 5.4899898e-20)
(1.2128504 0.077469273 7.1334423e-21)
(1.226175 0.079877489 -1.0448324e-19)
(1.232984 0.080365201 -2.6599166e-20)
(1.2346619 0.079292626 -1.5994304e-20)
(1.232451 0.076983435 -1.9485136e-20)
(1.2271863 0.073229279 5.2426112e-20)
(0.066156594 -0.013162017 -1.7398856e-20)
(0.19762505 -0.033574281 -1.0988769e-20)
(0.3313856 -0.037401206 3.2988625e-20)
(0.46358491 -0.030789071 3.8793526e-20)
(0.590767 -0.017787119 -2.5093065e-20)
(0.71011473 -0.00065095246 -9.5891759e-20)
(0.81921966 0.018645698 -4.2112452e-20)
(0.91620655 0.038350274 1.1120436e-19)
(0.99985849 0.057057998 1.5060868e-20)
(1.0696582 0.073729179 -3.3946676e-20)
(1.1257625 0.087674338 1.7641354e-20)
(1.16892 0.098530239 -6.3115466e-21)
(1.2003436 0.10621886 0)
(1.2215563 0.11089032 3.7161607e-20)
(1.2342333 0.1128574 -1.063632e-19)
(1.2400591 0.11252985 -4.2013903e-20)
(1.2406135 0.11035929 1.0556913e-19)
(1.2372992 0.10680874 -7.9743343e-21)
(1.2312901 0.10226368 3.9112522e-21)
(1.2233948 0.096682221 3.6236638e-20)
(0.080177274 -0.010268499 -3.35613e-20)
(0.23352288 -0.023749231 -9.7895515e-20)
(0.3837257 -0.019669833 -5.609179e-21)
(0.52748389 -0.0052061299 9.152657e-20)
(0.6616993 0.014915563 8.1378451e-20)
(0.78384289 0.037982584 -8.897431e-20)
(0.89191947 0.061721381 4.2470731e-21)
(0.98462718 0.084243518 1.2157333e-19)
(1.0614585 0.10416782 6.7135335e-20)
(1.12269 0.120612 -7.5731107e-20)
(1.169286 0.13314045 -1.266248e-19)
(1.2027426 0.14169713 -4.2807825e-21)
(1.2248979 0.14652177 5.6413672e-20)
(1.2377386 0.14805666 -8.127209e-21)
(1.2432282 0.14685595 -1.5430722e-20)
(1.2431756 0.14350728 2.3154086e-20)
(1.2391498 0.13857471 5.5823813e-20)
(1.232444 0.13257008 -5.3982656e-20)
(1.2240715 0.12588944 -1.2845169e-19)
(1.2147213 0.1185924 3.2692974e-20)
(0.09452418 -0.0054310224 -4.1714146e-20)
(0.26929178 -0.009035175 -1.8751809e-19)
(0.43456673 0.0047817108 1.1017335e-19)
(0.58787281 0.028004805 1.1964864e-19)
(0.72672454 0.055368945 7.2920947e-20)
(0.8491433 0.083831421 1.1633622e-20)
(0.95381475 0.11097718 -1.3947594e-19)
(1.0402539 0.13496421 0)
(1.1088507 0.15462011 -9.5438728e-20)
(1.1607837 0.16938684 -2.1025719e-20)
(1.197844 0.17921352 7.2722066e-20)
(1.2222104 0.18443529 1.4082518e-20)
(1.2362169 0.18564477 -5.8748121e-20)
(1.2421481 0.18356876 -6.1845284e-20)
(1.2420829 0.17896401 3.191706e-20)
(1.2377991 0.17254013 5.7939929e-20)
(1.2307337 0.16491349 -7.0415635e-20)
(1.2219914 0.15659038 -1.3325435e-19)
(1.2123853 0.14793716 -2.4716232e-21)
(1.2024502 0.13907693 3.2730555e-20)
(0.10856637 0.0014537231 -7.1858946e-21)
(0.30335422 0.010621363 1.0366191e-19)
(0.48165649 0.035750876 -6.9682077e-23)
(0.64209921 0.068262058 -1.1457934e-19)
(0.78307599 0.10257021 5.8770058e-20)
(0.90342431 0.13550432 5.7938664e-20)
(1.0027536 0.16472982 7.3823993e-21)
(1.0815821 0.18867534 -1.300467e-19)
(1.1413008 0.20657638 -3.3053321e-21)
(1.1840014 0.21835258 6.6373655e-20)
(1.212226 0.22443388 7.7047183e-21)
(1.2286955 0.2255845 -2.6045297e-20)
(1.2360658 0.2227382 -9.6123641e-20)
(1.2367414 0.21685988 -7.1682918e-21)
(1.2327622 0.20884488 5.3810952e-20)
(1.2257585 0.19945831 4.5273054e-20)
(1.2169635 0.1893105 2.309217e-20)
(1.2072638 0.17885827 -6.738985e-20)
(1.197273 0.16841292 1.2355842e-20)
(1.1873733 0.1581412 9.7908828e-20)
(-0.0015881356 0.001593258 1.50099e-21)
(-0.0048044418 0.0031642736 2.5357081e-22)
(-0.01078582 0.0036957843 9.7145794e-21)
(-0.016557744 0.0035710596 1.0161087e-20)
(-0.021454164 0.0030009995 -1.0143157e-20)
(-0.025068586 0.0021350772 1.0246413e-20)
(-0.027112656 0.0010808356 -2.0716814e-20)
(-0.027442286 -8.7846265e-05 -1.7616942e-20)
(-0.026012248 -0.0013207013 2.7783489e-20)
(-0.022831415 -0.0025834952 -2.2642957e-20)
(-0.01794032 -0.0038532249 -2.4361172e-22)
(-0.011398444 -0.005114804 8.1285829e-21)
(-0.0032751196 -0.006358611 -1.0385277e-21)
(0.0063566301 -0.0075786477 4.4912811e-20)
(0.017423706 -0.0087709814 9.4435576e-24)
(0.029853167 -0.0099321044 -7.6587609e-20)
(0.043568971 -0.011058031 1.4751543e-20)
(0.058500206 -0.012146877 4.1879544e-20)
(0.074614004 -0.013197267 -7.5563356e-20)
(0.091815537 -0.014151702 -4.6730963e-20)
(-0.0019386827 0.0045980954 -8.2935317e-21)
(-0.005250366 0.009080867 -1.356193e-22)
(-0.0106421 0.010551595 -1.2966791e-20)
(-0.015397441 0.010116593 2.050043e-20)
(-0.018987576 0.0083870513 2.2895206e-20)
(-0.021073604 0.0057997331 2.6343496e-21)
(-0.021415366 0.0026689755 -6.9603117e-20)
(-0.019903481 -0.00078922784 -4.6640335e-21)
(-0.016515759 -0.0044277217 4.8298616e-20)
(-0.011276532 -0.0081461579 -1.1456422e-20)
(-0.0042371683 -0.011876998 -4.735916e-20)
(0.0045349168 -0.015575813 1.0138068e-20)
(0.014964127 -0.019214113 4.3149139e-20)
(0.026972079 -0.022773959 1.9938176e-20)
(0.040481159 -0.026243464 4.2674228e-20)
(0.055413706 -0.029612229 -3.6177849e-20)
(0.071680995 -0.032868764 -3.7906024e-20)
(0.089188709 -0.036006493 3.9001537e-20)
(0.10797175 -0.039009493 4.436576e-20)
(0.12824336 -0.041685468 2.3579596e-20)
(-0.0025437575 0.0070714448 -6.7935626e-21)
(-0.0059334038 0.013806109 2.1755497e-21)
(-0.010109367 0.01587526 -2.1388839e-21)
(-0.012844128 0.01497797 -1.068934e-20)
(-0.013866302 0.012058092 1.4868447e-20)
(-0.012968059 0.0078027476 2.2209797e-20)
(-0.010003052 0.0027078726 -1.0253902e-20)
(-0.0049295845 -0.0028851954 -4.2507962e-20)
(0.0022284433 -0.0087430129 1.483681e-20)
(0.011414554 -0.014705708 2.8040577e-20)
(0.022553695 -0.020665143 1.3788608e-20)
(0.035559925 -0.026549677 3.4580988e-20)
(0.050341941 -0.032312923 3.3532846e-21)
(0.066806782 -0.037925438 -6.1367858e-20)
(0.084863254 -0.043367477 4.5221856e-21)
(0.10442012 -0.0486224 -3.4804706e-20)
(0.12536323 -0.053674652 -4.5994301e-20)
(0.14755096 -0.05851613 8.1625771e-20)
(0.17111753 -0.063091362 4.534873e-20)
(0.19684589 -0.067000152 3.5572627e-21)
(-0.0032385025 0.0087383191 -9.6292e-21)
(-0.0065013523 0.016717037 -3.5048063e-20)
(-0.0087900876 0.018860068 5.4740364e-21)
(-0.0085327183 0.017268333 9.2865856e-21)
(-0.0058058294 0.013116073 2.9999474e-21)
(-0.00058538148 0.0072840991 2.0394901e-20)
(0.007140797 0.00041117557 2.3137254e-20)
(0.017315529 -0.0070622907 -3.8502328e-21)
(0.029844746 -0.014833559 -2.4985238e-20)
(0.044620292 -0.022694087 -6.0560479e-20)
(0.061526401 -0.03050187 1.0347132e-21)
(0.080442915 -0.038162111 7.82876e-20)
(0.10124759 -0.045612815 -3.1744384e-20)
(0.12381738 -0.052814007 -2.2384028e-20)
(0.14803141 -0.059739314 -1.9019147e-21)
(0.17376998 -0.066368587 5.7592279e-20)
(0.20087986 -0.072688921 -3.0266189e-20)
(0.2291489 -0.07870286 -8.7794867e-20)
(0.25878961 -0.0843014 7.1126279e-20)
(0.29133418 -0.088773494 5.3175836e-20)
(-0.0038096624 0.0094324047 1.5445725e-21)
(-0.0064878037 0.017419912 -1.9629366e-20)
(-0.0061398969 0.018982167 -7.4983964e-20)
(-0.0019416165 0.016403892 -1.8226344e-20)
(0.0056281566 0.010970049 -1.0311265e-21)
(0.016371196 0.003686295 1.5132726e-20)
(0.030132655 -0.004713826 -1.2487702e-20)
(0.046728488 -0.013724376 -2.0099108e-20)
(0.065970132 -0.022995853 4.4260554e-20)
(0.087675633 -0.032286138 8.7801829e-21)
(0.11166815 -0.041429215 -5.1978876e-20)
(0.13777277 -0.050313192 1.9149485e-20)
(0.16581545 -0.058864289 0)
(0.19562205 -0.067035233 2.1406517e-20)
(0.22702018 -0.074796106 -1.6824661e-20)
(0.25983967 -0.082127449 -2.5855933e-20)
(0.29387185 -0.089027661 3.749858e-21)
(0.32881507 -0.095531057 -5.9792241e-21)
(0.36490197 -0.1014898 6.5187459e-20)
(0.40447866 -0.10578155 -2.416527e-20)
(-0.0040247073 0.0091062014 -1.0039689e-20)
(-0.0053628207 0.015779859 4.4313629e-20)
(-0.0015105414 0.016048041 -2.3636847e-20)
(0.0075861606 0.012167155 -5.1928246e-20)
(0.021027083 0.0054122099 -4.561152e-20)
(0.038368317 -0.0031593278 -2.9341798e-20)
(0.059264028 -0.012772373 -2.7759267e-21)
(0.083379603 -0.022893795 1.1233665e-20)
(0.11040961 -0.033153723 3.6612463e-20)
(0.140075 -0.043294578 1.3656046e-20)
(0.17211254 -0.053139376 -1.2475671e-20)
(0.20626774 -0.062568738 -1.4779436e-21)
(0.24228944 -0.071504332 -6.7905051e-20)
(0.27992607 -0.079897256 -2.1990408e-20)
(0.31892632 -0.087719353 3.583758e-20)
(0.35904208 -0.094957767 -3.7904185e-20)
(0.399989 -0.10163091 -1.4930595e-20)
(0.44136396 -0.10782853 4.4203903e-20)
(0.48335409 -0.11340884 7.358634e-20)
(0.52907091 -0.11678499 5.9538892e-21)
(-0.003655897 0.0078182671 2.180555e-20)
(-0.002580372 0.011908481 1.925523e-20)
(0.0058034256 0.010196541 8.3571149e-20)
(0.020808699 0.004726711 4.3145666e-20)
(0.041123339 -0.0033458205 3.5957366e-22)
(0.066047816 -0.012982902 -7.4682463e-20)
(0.095030067 -0.023421369 -4.3523473e-20)
(0.12756726 -0.034139957 1.9043951e-20)
(0.16321215 -0.044778111 2.5882235e-20)
(0.20156239 -0.055084977 -2.1875059e-20)
(0.24224152 -0.06488957 -7.9140208e-20)
(0.28488623 -0.074078838 5.2834046e-20)
(0.32913777 -0.082581616 3.2761166e-20)
(0.37463646 -0.090357842 -4.7064343e-20)
(0.42102167 -0.097391143 2.0792413e-20)
(0.46793822 -0.10368518 3.9474552e-20)
(0.51500548 -0.10928842 1.4240807e-20)
(0.56171666 -0.11436827 -2.2692431e-20)
(0.60816464 -0.11885769 -1.7310623e-20)
(0.65808679 -0.12073683 2.1006863e-20)
(-0.0024948473 0.00570669 1.6419421e-20)
(0.0023855002 0.0061195486 -4.215939e-20)
(0.016518869 0.0018588474 7.1822351e-21)
(0.038537009 -0.0053911197 5.7485054e-20)
(0.066743049 -0.014688863 8.3767217e-20)
(0.10018258 -0.025079397 3.4530135e-20)
(0.13808647 -0.035862112 -9.7720435e-21)
(0.1797632 -0.046568597 -2.1044247e-20)
(0.22460093 -0.056878522 -1.1239205e-20)
(0.27204547 -0.066573145 5.9515022e-20)
(0.32157481 -0.075509008 -9.5324686e-21)
(0.37268258 -0.083598258 -2.9893054e-20)
(0.42486807 -0.090794273 -3.2258526e-20)
(0.47763098 -0.097082446 -8.0532757e-20)
(0.53047311 -0.10247444 3.7642075e-20)
(0.58291028 -0.10700637 -2.2825938e-20)
(0.63445693 -0.11077216 4.3425253e-20)
(0.68452497 -0.11404212 3.4809865e-20)
(0.733111 -0.11691132 -1.1997758e-19)
(0.78438747 -0.11708783 3.7786228e-21)
(-0.00036140434 0.0029628051 2.9869751e-20)
(0.010006441 -0.0011182281 -4.2410882e-20)
(0.031302048 -0.0082870364 -6.6877373e-20)
(0.061543838 -0.017335965 -4.2925226e-20)
(0.098685403 -0.027614265 -3.3431459e-21)
(0.14151745 -0.03830894 2.236299e-20)
(0.18904364 -0.048829929 -4.860734e-21)
(0.24036597 -0.058801278 2.9847315e-20)
(0.29468081 -0.067977159 1.4503213e-20)
(0.35124985 -0.076200748 -1.9017134e-20)
(0.40937084 -0.083382999 1.6346872e-20)
(0.4683604 -0.089486086 -4.0383203e-20)
(0.52754563 -0.094510904 1.6290889e-20)
(0.58626185 -0.098488914 2.8329114e-20)
(0.64385803 -0.10147687 -6.1725377e-21)
(0.69971256 -0.10355582 3.982091e-21)
(0.75323217 -0.10487138 -2.8494778e-21)
(0.80377595 -0.10578105 3.3444552e-20)
(0.85128304 -0.10652499 3.4091744e-21)
(0.90016851 -0.10492542 -1.5258755e-20)
(0.0028969755 -0.00018758736 3.4481406e-20)
(0.020679312 -0.0092121644 8.8657544e-20)
(0.050705514 -0.019337834 -7.0446515e-20)
(0.090446657 -0.02993519 -1.5312237e-20)
(0.137539 -0.040716591 3.2025078e-20)
(0.19052208 -0.051065421 3.3348632e-21)
(0.24816181 -0.060550381 -4.6852225e-20)
(0.30933234 -0.068931474 1.127964e-20)
(0.37300965 -0.076076913 1.1251539e-20)
(0.43824042 -0.081928494 -4.2795836e-20)
(0.50411459 -0.086486003 2.0641971e-21)
(0.56975323 -0.089793501 -6.2088291e-20)
(0.63430744 -0.091927548 -6.0867171e-20)
(0.69696449 -0.092987775 1.1012713e-19)
(0.75695936 -0.093088696 9.261896e-21)
(0.81358881 -0.092356458 -2.4810581e-20)
(0.86620724 -0.090958555 3.1202833e-20)
(0.91417263 -0.089173758 -1.3674314e-21)
(0.95720274 -0.087062682 2.604343e-20)
(0.99854085 -0.083416995 -3.6492109e-20)
(0.11222997 -0.014463791 9.7503076e-20)
(0.13594669 -0.01480721 2.2967878e-20)
(0.16128667 -0.015020765 -5.1373762e-20)
(0.18784843 -0.015008669 2.6176191e-20)
(0.21524549 -0.014872916 0)
(0.24333541 -0.014657654 0)
(0.27200775 -0.014368455 -3.021095e-20)
(0.30112579 -0.014015189 -2.0374261e-20)
(0.33055703 -0.013611639 2.4612174e-20)
(0.36018485 -0.013168635 2.1906704e-20)
(0.38990217 -0.012694377 8.7391481e-22)
(0.41960741 -0.012196074 -1.0584549e-20)
(0.44920475 -0.011680157 1.0015203e-20)
(0.4786043 -0.011152136 1.7016729e-20)
(0.50772153 -0.010616706 -6.4064946e-21)
(0.53647657 -0.010077894 -8.3328917e-21)
(0.56479379 -0.0095391557 -3.2805832e-21)
(0.59260156 -0.0090034354 -2.533471e-21)
(0.61983185 -0.0084732368 2.7543701e-22)
(0.64641999 -0.007950684 8.9391642e-22)
(0.67230445 -0.0074375777 2.2224544e-21)
(0.69742661 -0.0069354441 3.9002317e-21)
(0.72173075 -0.0064455822 -6.7139435e-22)
(0.74516393 -0.0059691057 -1.7367727e-21)
(0.76767614 -0.0055069818 -9.2955483e-23)
(0.78922037 -0.005060065 -2.1881932e-22)
(0.80975292 -0.0046291255 3.9043953e-22)
(0.82923378 -0.0042148714 3.1722007e-23)
(0.84762701 -0.0038179624 -6.205186e-22)
(0.86490136 -0.0034390183 8.2670532e-23)
(0.88103078 -0.0030786177 -4.5432743e-22)
(0.89599505 -0.0027372947 1.360034e-23)
(0.9097804 -0.0024155314 -1.2636036e-22)
(0.92238011 -0.0021137558 1.8304187e-22)
(0.93379515 -0.0018323486 3.5076069e-23)
(0.94403494 -0.0015716694 1.0434075e-22)
(0.95311834 -0.0013321002 -1.3236928e-22)
(0.96107519 -0.0011140983 -1.7675485e-22)
(0.96794821 -0.00091822313 -7.5564849e-23)
(0.97379534 -0.00074508536 1.2620332e-23)
(0.97869152 -0.00059517557 -4.5410443e-23)
(0.98272898 -0.00046857311 4.7750901e-23)
(0.98601409 -0.0003646259 -5.8438195e-23)
(0.98866286 -0.00028172838 -8.048414e-23)
(0.99078755 -0.00021738802 1.4523251e-23)
(0.99250349 -0.00016842842 2.7530522e-23)
(0.99387468 -0.00013175052 6.3578728e-24)
(0.99505713 -0.0001038534 2.7648412e-24)
(0.99585969 -8.427042e-05 -2.8227668e-25)
(0.9970201 -6.1406435e-05 1.0405821e-23)
(0.14951607 -0.0424825 -2.4836866e-20)
(0.17136155 -0.043539279 -9.7647779e-20)
(0.19535378 -0.044174806 -5.0153344e-20)
(0.22057452 -0.044130898 5.8140272e-20)
(0.2464798 -0.043734934 2.1476383e-20)
(0.27302142 -0.04311478 -2.8107625e-20)
(0.30013619 -0.042278997 9.5641019e-21)
(0.32769249 -0.041254869 3.1966184e-20)
(0.355566 -0.040083125 -2.5732022e-21)
(0.38365256 -0.038795106 -1.0259886e-20)
(0.41185479 -0.037414293 -1.1164605e-20)
(0.44007812 -0.035961548 -1.1268359e-20)
(0.46823254 -0.034455602 1.7967799e-20)
(0.49623305 -0.032912545 1.4406899e-20)
(0.52399901 -0.031346115 -1.2326529e-20)
(0.55145359 -0.029768153 -5.1741051e-21)
(0.57852355 -0.028188852 1.8936637e-21)
(0.60513903 -0.026616942 5.2190421e-21)
(0.63123337 -0.025059869 5.5774649e-21)
(0.65674286 -0.023523981 -6.7256294e-21)
(0.68160659 -0.022014679 -4.3493999e-21)
(0.70576633 -0.020536561 2.7785577e-21)
(0.72916648 -0.019093555 2.4784847e-21)
(0.75175407 -0.017689041 1.1518435e-21)
(0.77347881 -0.016325964 5.3819673e-22)
(0.79429328 -0.015006933 -5.5466832e-22)
(0.81415316 -0.013734303 -6.1566384e-22)
(0.83301763 -0.012510244 1.2135779e-21)
(0.85084978 -0.011336778 7.1463493e-22)
(0.86761713 -0.010215807 -8.0606783e-22)
(0.88329221 -0.009149112 4.6632577e-22)
(0.89785316 -0.0081383361 7.0960453e-24)
(0.91128431 -0.0071849703 -3.0891902e-22)
(0.92357679 -0.0062903418 -1.6587276e-22)
(0.93472918 -0.0054556366 -1.0845361e-22)
(0.94474821 -0.0046819733 -3.9668762e-22)
(0.95364981 -0.0039705356 2.1925333e-22)
(0.96146049 -0.0033227301 -3.5819633e-23)
(0.96821931 -0.00274027 1.7220033e-22)
(0.97398018 -0.0022250325 -3.4445607e-23)
(0.97881369 -0.0017785533 1.4095619e-22)
(0.98280759 -0.001401162 3.1178671e-23)
(0.98606382 -0.0010910224 2.9341442e-23)
(0.98869434 -0.00084345887 2.5925152e-23)
(0.99080797 -0.0006511413 3.8857176e-23)
(0.99251736 -0.00050467376 3.0416692e-23)
(0.99388466 -0.00039487415 -6.9272884e-24)
(0.99506464 -0.00031130299 -1.4490381e-23)
(0.99586574 -0.00025265248 1.238051e-23)
(0.99702457 -0.00018409633 3.7887291e-23)
(0.21954292 -0.06793306 1.7652817e-20)
(0.23790205 -0.069739461 8.9321111e-21)
(0.25926791 -0.070789425 -2.8288351e-20)
(0.28193516 -0.0707138 -5.3949136e-21)
(0.30501426 -0.070105184 2.5527893e-20)
(0.32862579 -0.069161299 -2.1350005e-20)
(0.35280413 -0.067875454 -4.4465284e-20)
(0.37742519 -0.066286357 2.2399462e-20)
(0.40237681 -0.064459539 2.6214058e-20)
(0.42757713 -0.062444003 -1.5955342e-20)
(0.45294621 -0.060275807 1.2101005e-21)
(0.47840155 -0.057987514 5.5674368e-21)
(0.50386302 -0.055608738 -1.9033882e-20)
(0.52925401 -0.05316507 1.0932634e-20)
(0.55450048 -0.050678495 9.5236175e-21)
(0.57953072 -0.0481681 -5.0729976e-21)
(0.60427544 -0.045650441 -2.865692e-21)
(0.62866782 -0.043139804 -8.5417352e-21)
(0.65264344 -0.040648469 8.3829129e-21)
(0.67614017 -0.038186979 8.834336e-21)
(0.69909818 -0.035764371 -3.705818e-21)
(0.72145988 -0.033388387 -1.4386819e-21)
(0.74316992 -0.031065687 -2.530201e-22)
(0.76417523 -0.028802032 -1.7568697e-21)
(0.78442515 -0.026602469 6.3256113e-22)
(0.80387152 -0.024471484 2.9549643e-22)
(0.82246902 -0.022413142 2.9281584e-21)
(0.84017548 -0.020431187 -2.659533e-21)
(0.85695227 -0.018529123 2.7740018e-21)
(0.87276483 -0.016710244 5.0644765e-22)
(0.88758321 -0.014977642 1.4300897e-21)
(0.90138262 -0.013334184 -4.3767542e-24)
(0.91414403 -0.011782482 1.0012123e-21)
(0.92585474 -0.010324877 -1.2040181e-21)
(0.93650903 -0.0089634731 3.3703874e-22)
(0.94610878 -0.0077002528 4.8024922e-22)
(0.95466452 -0.0065372955 -1.3293322e-22)
(0.96219671 -0.0054770418 -2.6283639e-22)
(0.96873763 -0.0045224479 -3.598693e-23)
(0.97433369 -0.0036767747 7.8899424e-23)
(0.97904736 -0.0029427792 2.274859e-23)
(0.98295789 -0.0023212999 2.4004606e-22)
(0.98615887 -0.001809661 -7.6995904e-23)
(0.98875449 -0.001400521 -3.6780849e-23)
(0.99084702 -0.0010821332 3.5828895e-23)
(0.99254398 -0.00083925962 2.4595744e-24)
(0.99390393 -0.00065695915 2.1477144e-23)
(0.99507927 -0.00051802743 1.5268144e-23)
(0.99587762 -0.00042057495 -1.1153038e-23)
(0.99703347 -0.000306423 -1.7829326e-23)
(0.31552606 -0.089408404 4.7005445e-21)
(0.32913686 -0.091999108 -1.3775846e-20)
(0.34671793 -0.093445892 5.9491097e-21)
(0.36579476 -0.093360842 -2.0589274e-20)
(0.38495226 -0.092632781 -2.9712697e-21)
(0.40450626 -0.091500373 1.7075865e-20)
(0.42463821 -0.089921366 -2.0920033e-20)
(0.44523446 -0.087937968 -2.9353723e-21)
(0.46619265 -0.085635508 1.6976631e-20)
(0.48745827 -0.083076462 7.4189848e-21)
(0.50897353 -0.080306064 -7.5279537e-21)
(0.53067037 -0.077365818 -6.1760595e-21)
(0.55248008 -0.074294148 -2.5616709e-21)
(0.57433569 -0.071124707 -9.1730683e-21)
(0.59617075 -0.067886731 -1.3211895e-21)
(0.61791934 -0.064605862 -4.4863959e-21)
(0.63951658 -0.061304593 3.117052e-21)
(0.66089897 -0.058002545 -2.9818868e-21)
(0.68200451 -0.054716768 -6.7558371e-21)
(0.70277282 -0.051462042 3.4316716e-21)
(0.72314523 -0.04825115 5.2134742e-21)
(0.74306481 -0.045095149 -3.6088442e-21)
(0.7624765 -0.042003614 2.0665683e-21)
(0.78132714 -0.038984892 -1.268986e-21)
(0.79956559 -0.036046332 -5.8596685e-21)
(0.81714295 -0.033194493 -2.2910712e-21)
(0.83401271 -0.030435333 -8.8661311e-22)
(0.85013115 -0.02777435 -5.7488226e-22)
(0.86545766 -0.025216692 -1.1661405e-21)
(0.87995521 -0.022767203 -1.8075523e-21)
(0.89359085 -0.020430443 1.8885216e-23)
(0.90633621 -0.018210656 -1.3031406e-21)
(0.91816812 -0.016111734 -3.8335751e-22)
(0.92906908 -0.014137189 -5.3805132e-22)
(0.93902789 -0.012290195 9.1194849e-23)
(0.94804029 -0.010573742 -7.9873795e-22)
(0.9561098 -0.0089909281 -8.8249101e-22)
(0.96324898 -0.0075453342 1.6268764e-22)
(0.96948119 -0.0062412695 1.9613402e-24)
(0.97484278 -0.0050835296 -1.9753168e-22)
(0.9793852 -0.0040763368 2.2795224e-22)
(0.98317608 -0.0032214143 -1.3031734e-22)
(0.98629739 -0.0025157641 -2.7117188e-22)
(0.98884251 -0.0019499992 1.002522e-22)
(0.99090438 -0.0015086122 -7.8904252e-24)
(0.9925832 -0.0011711164 2.716761e-23)
(0.99393242 -0.0009173258 1.1315213e-23)
(0.99510096 -0.00072354924 -1.1946823e-23)
(0.9958953 -0.00058772776 -8.5059609e-24)
(0.99704678 -0.00042814635 2.514801e-23)
(0.42964846 -0.10575689 -4.1713812e-20)
(0.4375567 -0.10920426 7.0961284e-20)
(0.45033411 -0.11104325 1.4067547e-20)
(0.46494379 -0.11101734 -2.4849641e-20)
(0.47934369 -0.11032296 -6.8239344e-21)
(0.49400334 -0.10919319 -3.7918851e-23)
(0.50928275 -0.10753479 -6.0592839e-21)
(0.5250873 -0.10538679 -6.3914993e-21)
(0.54131641 -0.10284544 -5.3789753e-21)
(0.55793995 -0.099981044 -1.5860097e-20)
(0.57492311 -0.096845012 2.7194451e-20)
(0.59221185 -0.093485109 1.1061571e-20)
(0.6097475 -0.08994628 -1.9380806e-20)
(0.62747147 -0.086268765 6.1619873e-21)
(0.64532395 -0.082488181 3.6196835e-21)
(0.66324391 -0.078636209 4.0283569e-21)
(0.68117003 -0.074741017 2.1029906e-22)
(0.69904142 -0.070827523 -7.7212948e-21)
(0.71679793 -0.066917661 -3.1663087e-21)
(0.73438041 -0.063030659 -2.7291185e-21)
(0.75173095 -0.059183327 -5.6529526e-21)
(0.76879303 -0.055390335 0)
(0.78551162 -0.051664497 -2.3684303e-21)
(0.80183337 -0.048017054 3.5160004e-21)
(0.81770665 -0.04445795 6.346814e-21)
(0.83308174 -0.040996093 -3.9941547e-22)
(0.84791107 -0.03763958 -4.7551729e-21)
(0.8621494 -0.034395887 5.1132439e-21)
(0.87575421 -0.031272005 -1.3792569e-21)
(0.88868606 -0.02827452 4.0848218e-21)
(0.90090903 -0.025409632 -5.9450313e-23)
(0.91239116 -0.022683137 1.1752567e-21)
(0.92310501 -0.020100375 -8.818033e-22)
(0.9330281 -0.017666198 7.4336147e-22)
(0.94214347 -0.015385015 -6.1131867e-22)
(0.95044025 -0.013260968 1.5951731e-22)
(0.9579144 -0.011298292 3.628392e-22)
(0.96456977 -0.0095018016 2.5994401e-22)
(0.97041973 -0.0078772469 -4.5764103e-22)
(0.97548921 -0.0064310922 2.5901717e-22)
(0.9798169 -0.0051692722 -6.6615801e-23)
(0.98345674 -0.0040948154 -4.0932764e-22)
(0.98647677 -0.003205014 3.841973e-22)
(0.98895721 -0.002489197 3.5873611e-23)
(0.99097952 -0.0019289218 -2.0201648e-23)
(0.9926348 -0.0014992127 5.2755354e-24)
(0.99397 -0.0011753096 -2.6287733e-23)
(0.99512963 -0.00092739721 -3.6967974e-23)
(0.99591872 -0.00075380504 -2.6417757e-24)
(0.99706444 -0.00054902723 -7.4878845e-24)
(0.55415509 -0.11594456 -3.5345784e-20)
(0.5556819 -0.12042627 1.683004e-20)
(0.56280608 -0.12273736 1.1788795e-20)
(0.57222501 -0.12294154 -1.2406335e-20)
(0.58129173 -0.12252067 1.8568413e-20)
(0.59052313 -0.12164925 1.1765304e-20)
(0.60045091 -0.12018212 -1.4706443e-20)
(0.61101746 -0.11815441 -8.5586299e-21)
(0.62211561 -0.11566179 1.7311593e-20)
(0.63372702 -0.11277478 -2.6868135e-20)
(0.64583516 -0.10954852 -1.773536e-20)
(0.65839775 -0.10603539 2.460372e-20)
(0.6713629 -0.10228514 8.3347009e-21)
(0.68467716 -0.098343513 -1.3433662e-20)
(0.69828485 -0.094252093 3.0579016e-21)
(0.71212788 -0.09004855 5.1982828e-22)
(0.72614686 -0.085766893 3.9502852e-22)
(0.74028207 -0.081437665 3.483715e-21)
(0.75447405 -0.077088119 -1.8607965e-21)
(0.76866394 -0.072742432 2.6114892e-21)
(0.78279384 -0.068421955 4.0364828e-21)
(0.79680702 -0.064145491 -4.1147392e-21)
(0.8106481 -0.059929581 2.7116175e-22)
(0.8242632 -0.055788817 -1.9840061e-21)
(0.83760005 -0.051736153 1.2737642e-20)
(0.85060814 -0.047783206 7.6279727e-21)
(0.86323882 -0.043940533 2.3229737e-21)
(0.87544559 -0.04021786 -1.6348343e-21)
(0.88718427 -0.036624261 6.1827134e-21)
(0.89841334 -0.033168267 9.7366865e-21)
(0.90909429 -0.029857906 1.6895832e-21)
(0.91919201 -0.026700693 3.7664901e-21)
(0.92867519 -0.02370358 1.5289552e-21)
(0.93751682 -0.02087292 7.9860159e-22)
(0.94569457 -0.018214501 3.9524027e-23)
(0.95319134 -0.015733741 2.1098696e-21)
(0.95999582 -0.013436104 3.6891712e-22)
(0.96610338 -0.011327687 9.3735936e-23)
(0.97151737 -0.009415713 -1.6043019e-24)
(0.97625109 -0.0077083836 6.0359872e-22)
(0.98032992 -0.0062135358 -2.2848422e-23)
(0.98379316 -0.0049358909 2.5852926e-22)
(0.98669368 -0.003873652 3.335761e-23)
(0.98909706 -0.0030156796 -1.8322518e-22)
(0.99107179 -0.0023415146 -4.1710638e-23)
(0.99269848 -0.0018225572 -7.1510891e-23)
(0.99401653 -0.0014302602 2.4072777e-23)
(0.99516515 -0.0011291042 -1.5750389e-23)
(0.9959478 -0.00091850532 -6.8663061e-25)
(0.99708635 -0.00066882669 4.5845276e-23)
(0.68165306 -0.11923529 1.5901374e-21)
(0.67650895 -0.12498168 -2.2467949e-20)
(0.67738812 -0.1279443 -5.0680084e-21)
(0.68110001 -0.12870003 7.5412907e-21)
(0.68455925 -0.12890699 8.3942741e-21)
(0.68816756 -0.12862435 6.468666e-21)
(0.69256551 -0.12767324 1.5943151e-20)
(0.69776098 -0.12609386 1.2655087e-20)
(0.70364335 -0.12397336 1.2001507e-20)
(0.71018728 -0.12137533 -1.6837137e-20)
(0.7173833 -0.11835621 -3.3919621e-20)
(0.7251974 -0.11497244 -9.3328065e-21)
(0.73358135 -0.11127829 2.3534253e-20)
(0.74248328 -0.10732488 1.777428e-20)
(0.7518488 -0.10316 -4.0130967e-21)
(0.76162072 -0.098827894 -3.1938103e-21)
(0.77173992 -0.094369092 -8.2694932e-21)
(0.78214652 -0.089820506 9.8245891e-21)
(0.79278059 -0.08521547 -2.8034409e-22)
(0.80358264 -0.080583873 -2.5643202e-21)
(0.81449398 -0.075952343 1.2660272e-20)
(0.82545703 -0.0713445 -1.946351e-21)
(0.83641557 -0.066781249 1.8906434e-21)
(0.84731484 -0.0622811 1.0861213e-21)
(0.85810167 -0.057860522 -4.9736646e-21)
(0.86872465 -0.053534277 4.6045092e-21)
(0.87913415 -0.049315752 8.6601461e-22)
(0.88928252 -0.045217239 -3.1453303e-21)
(0.89912425 -0.041250154 -2.2430168e-21)
(0.90861616 -0.037425189 -6.9613616e-21)
(0.91771768 -0.033752385 -8.560032e-22)