/*--------------------------------*- C++ -*----------------------------------*\
  =========                 |
  \\      /  F ield         | OpenFOAM: The Open Source CFD Toolbox
   \\    /   O peration     | Website:  https://openfoam.org
    \\  /    A nd           | Version:  6
     \\/     M anipulation  |
\*---------------------------------------------------------------------------*/
FoamFile
{
    version     2.0;
    format      ascii;
    class       volScalarField;
    location    "6";
    object      p;
}
// * * * * * * * * * * * * * * * * * * * * * * * * * * * * * * * * * * * * * //

dimensions      [0 2 -2 0 0 0 0];

internalField   nonuniform List<scalar> 
9200
(
-0.49799894
-0.48302846
-0.46997926
-0.45870537
-0.44792592
-0.43761573
-0.42780976
-0.4183624
-0.40905622
-0.39965154
-0.38990154
-0.37957167
-0.36846265
-0.35643202
-0.34341407
-0.32944068
-0.31463957
-0.29918794
-0.28398272
-0.27265848
-0.52032087
-0.50271546
-0.48759044
-0.47469131
-0.46241399
-0.45067557
-0.43947549
-0.42860998
-0.41780897
-0.40679888
-0.3953224
-0.38316119
-0.37015904
-0.35623819
-0.34140783
-0.32576457
-0.3094615
-0.29265299
-0.27602392
-0.26159272
-0.54283499
-0.52265553
-0.50558443
-0.49118893
-0.47748915
-0.464316
-0.45161783
-0.43913032
-0.42654337
-0.41357586
-0.39999627
-0.38564303
-0.3704409
-0.35440546
-0.33763624
-0.32030024
-0.30259287
-0.28468588
-0.26706407
-0.25094565
-0.56497327
-0.54231373
-0.52341966
-0.50760621
-0.49247217
-0.47774295
-0.46331393
-0.44887656
-0.43411407
-0.41878282
-0.40272611
-0.38588357
-0.36829294
-0.35007791
-0.33142556
-0.31255898
-0.29369804
-0.27501635
-0.25688289
-0.24019764
-0.58591323
-0.56095583
-0.54039893
-0.52323378
-0.50661274
-0.49015218
-0.47371116
-0.45697375
-0.43966741
-0.42164078
-0.40286012
-0.38339912
-0.36342096
-0.34314924
-0.32283481
-0.30272542
-0.28303342
-0.2639067
-0.24561922
-0.2288339
-0.60460924
-0.57764726
-0.55563448
-0.53717437
-0.51897861
-0.50057319
-0.48181946
-0.46245114
-0.44230251
-0.42136883
-0.39977529
-0.37774178
-0.35554554
-0.33348097
-0.31182453
-0.29081051
-0.27061126
-0.25132514
-0.23313543
-0.21650192
-0.61983289
-0.59128015
-0.5680698
-0.54836942
-0.52849559
-0.50792773
-0.48658871
-0.46433266
-0.44116478
-0.41727001
-0.39294795
-0.36855331
-0.34444582
-0.32094895
-0.29832315
-0.27675492
-0.25635296
-0.23715258
-0.21924905
-0.20292315
-0.63021544
-0.6006174
-0.57653508
-0.55567244
-0.53403958
-0.5111366
-0.48702149
-0.46174369
-0.43553454
-0.40879293
-0.38198623
-0.35557369
-0.32995489
-0.3054388
-0.28223394
-0.26045493
-0.24013472
-0.2212429
-0.20379212
-0.18790533
-0.63423432
-0.60418178
-0.579521
-0.55751977
-0.53402988
-0.50867085
-0.48172052
-0.45348893
-0.42446168
-0.39524099
-0.36642334
-0.33852075
-0.31192175
-0.28688075
-0.26352908
-0.24189868
-0.22194717
-0.20358566
-0.18675317
-0.17143498
-0.63042347
-0.60039746
-0.57528978
-0.55205815
-0.5265975
-0.49876164
-0.46912351
-0.43828704
-0.40697535
-0.37593955
-0.34583449
-0.31715748
-0.29023484
-0.26523649
-0.24220639
-0.22109786
-0.20180583
-0.18419792
-0.16815023
-0.15352581
-0.33891627
-0.34624102
-0.35012501
-0.35125826
-0.35088837
-0.34927362
-0.34648589
-0.34259267
-0.33762753
-0.33159046
-0.3244615
-0.31621026
-0.30680236
-0.2962051
-0.28439434
-0.27136451
-0.25713778
-0.24175341
-0.22524981
-0.20782584
-0.34350195
-0.35005519
-0.35341945
-0.35423151
-0.35362965
-0.35185261
-0.34896842
-0.34503889
-0.34009316
-0.33412869
-0.32712398
-0.31904712
-0.30986134
-0.2995311
-0.28802732
-0.2753388
-0.26149225
-0.24651907
-0.23027345
-0.21270782
-0.35229392
-0.3573757
-0.35974503
-0.3599328
-0.35887271
-0.35677019
-0.35368676
-0.34967318
-0.3447498
-0.33890834
-0.3321226
-0.32435553
-0.31556537
-0.30571049
-0.2947512
-0.28266304
-0.26947451
-0.25520978
-0.23943479
-0.22163648
-0.36463166
-0.36768913
-0.36865983
-0.36793843
-0.36618837
-0.363575
-0.36015278
-0.35595747
-0.35099617
-0.34525078
-0.33868645
-0.33125789
-0.32291412
-0.31360093
-0.30326213
-0.29185274
-0.27939306
-0.26590542
-0.25066865
-0.23255809
-0.37972238
-0.38038238
-0.37964301
-0.37775863
-0.37509128
-0.37176688
-0.36783486
-0.36331432
-0.35819645
-0.35244941
-0.34602468
-0.3388621
-0.33089409
-0.32204794
-0.31224617
-0.30141841
-0.28956671
-0.27671869
-0.26194171
-0.24345362
-0.39680479
-0.39486803
-0.39220452
-0.38894725
-0.38515603
-0.38092442
-0.37630164
-0.37129148
-0.36586577
-0.35997247
-0.35354283
-0.34649535
-0.33873917
-0.33017737
-0.32070784
-0.31023349
-0.29873235
-0.28624104
-0.27171855
-0.25278955
-0.41527803
-0.41068088
-0.4059679
-0.4011826
-0.3961009
-0.39079531
-0.3853214
-0.37966425
-0.37377056
-0.36756437
-0.36095055
-0.35381879
-0.34604865
-0.33751508
-0.3280919
-0.3176616
-0.30618485
-0.29371697
-0.27921344
-0.25984554
-0.43475888
-0.42752119
-0.42070642
-0.41430215
-0.40782584
-0.40133545
-0.39489054
-0.38845633
-0.38195155
-0.37526834
-0.36827644
-0.36082883
-0.35276956
-0.34394305
-0.33420233
-0.32342198
-0.31156957
-0.29876008
-0.28407271
-0.2643848
-0.45505964
-0.44522515
-0.43629652
-0.42823146
-0.42030023
-0.41254471
-0.40502873
-0.39769272
-0.3904193
-0.38306084
-0.37544572
-0.36738649
-0.35869124
-0.34917554
-0.33867254
-0.32704568
-0.31425571
-0.30042507
-0.28473235
-0.26412816
-0.47612934
-0.46370325
-0.45263515
-0.44285965
-0.43339491
-0.42426298
-0.41552519
-0.4070896
-0.3987969
-0.39045819
-0.38186486
-0.37280133
-0.36306105
-0.35246115
-0.34085243
-0.32812633
-0.31423132
-0.29906212
-0.28145711
-0.25899612
-0.18712856
-0.16138843
-0.13547473
-0.11015975
-0.085873285
-0.063221482
-0.04281276
-0.02508718
-0.010304293
0.0014420401
0.010225899
0.016278804
0.019954863
0.021683604
0.021921283
0.021106034
0.019622226
0.017778908
0.015803716
0.013849447
0.01200819
0.010327777
0.0088267234
0.007505788
0.0063558788
0.0053629937
0.0045111207
0.0037839086
0.0031656329
0.0026417384
0.0021990998
0.0018260871
0.0015125117
0.0012495111
0.0010294144
0.00084560362
0.00069238799
0.00056488419
0.00045891096
0.00037089304
0.00029777221
0.00023694769
0.00018613926
0.00014356753
0.00010704258
7.679846e-05
4.577116e-05
3.1102618e-05
-2.6746314e-05
5.6595983e-05
-0.19348266
-0.16699156
-0.14083174
-0.11544468
-0.090904535
-0.067888497
-0.047078118
-0.028916597
-0.013669289
-0.0014507068
0.0077932829
0.01427878
0.018347254
0.020419014
0.02094584
0.020366163
0.019068436
0.017368259
0.015500889
0.013626631
0.011844201
0.010206844
0.0087372682
0.007439367
0.0063063509
0.0053258942
0.0044832027
0.0037628072
0.0031496189
0.0026295409
0.0021897787
0.0018189431
0.001507022
0.0012452822
0.0010261507
0.00084308147
0.0006904373
0.00056337526
0.00045774456
0.0003699931
0.00029708022
0.00023641877
0.00018573895
0.00014326983
0.00010682726
7.6651768e-05
4.5680809e-05
3.1058103e-05
-2.6741485e-05
5.6522103e-05
-0.2051944
-0.17726465
-0.1507031
-0.12532088
-0.10039437
-0.076741992
-0.055212321
-0.03625508
-0.020143594
-0.0070339923
0.0030864616
0.010401911
0.015227591
0.017964252
0.019053444
0.018932923
0.017998239
0.016577266
0.014919919
0.013201143
0.011532662
0.0099783796
0.0085692615
0.0073153718
0.0062144458
0.0052574501
0.004431977
0.0037242801
0.0031205081
0.0026074502
0.0021729483
0.0018060727
0.001497146
0.0012376803
0.0010202829
0.00083854233
0.00068692038
0.00056064797
0.00045562975
0.00036835542
0.00029581595
0.0002354485
0.0001850017
0.00014271997
0.00010642852
7.6381431e-05
4.5514154e-05
3.0981904e-05
-2.6728662e-05
5.6375396e-05
-0.21982929
-0.18997206
-0.16301403
-0.13795125
-0.11276326
-0.088436878
-0.066092862
-0.046193406
-0.029012749
-0.014763318
-0.0034936146
0.0049320617
0.01078841
0.014444196
0.016321493
0.016852178
0.016437677
0.015420142
0.014068286
0.012576781
0.011075436
0.0096432729
0.0083231283
0.0071340205
0.006080297
0.0051577616
0.004357529
0.0036684032
0.0030783674
0.0025755244
0.0021486576
0.0017875166
0.0014829171
0.0012267322
0.0010118323
0.00083200267
0.00068184973
0.00055671169
0.00045257339
0.00036598492
0.00029398277
0.00023403906
0.00018392879
0.00014191846
0.00010584646
7.5986899e-05
4.5271562e-05
3.0872253e-05
-2.6701028e-05
5.615259e-05
-0.23483282
-0.2029109
-0.17571169
-0.15141538
-0.12632002
-0.10152192
-0.078489548
-0.057716453
-0.039467309
-0.024014001
-0.01148119
-0.001797444
0.0052572304
0.010006268
0.012840232
0.0141758
0.014414486
0.013910446
0.012951788
0.011755409
0.010472576
0.0092008717
0.0079980472
0.006894557
0.0059032947
0.0050263741
0.0042595372
0.0035949575
0.0030230513
0.0025336684
0.0021168455
0.0017632357
0.0014643103
0.0012124216
0.0010007894
0.00082345661
0.00067522139
0.00055156361
0.00044857337
0.00036287985
0.00029157913
0.00023218898
0.00018251874
0.00014086373
0.00010507953
7.5466241e-05
4.4952668e-05
3.0726344e-05
-2.664963e-05
5.5849443e-05
-0.2480866
-0.21440747
-0.18724109
-0.16412755
-0.13960347
-0.11472346
-0.091295315
-0.069880622
-0.050733704
-0.034174888
-0.020409866
-0.0094449713
-0.001128017
0.0048065903
0.0087051129
0.010957171
0.011954985
0.012058536
0.011572333
0.010735113
0.0097209211
0.0086480337
0.0075913982
0.006594994
0.0056820237
0.0048623298
0.0041373861
0.0035035708
0.0029543528
0.0024817814
0.0020774759
0.0017332311
0.0014413463
0.001194777
0.00098718479
0.00081293441
0.00066706264
0.00054522689
0.00044364867
0.00035905531
0.00028861665
0.00022990685
0.0001807776
0.00013955965
0.00010413005
7.4819905e-05
4.4558903e-05
3.0541597e-05
-2.6562024e-05
5.5460519e-05
-0.25835873
-0.22369006
-0.19687577
-0.175166
-0.15168542
-0.12721553
-0.1037632
-0.082005048
-0.062211574
-0.044734502
-0.029853891
-0.01766378
-0.0080922506
-0.00094273416
0.0040753228
0.0073130378
0.0091432866
0.0099243065
0.0099723277
0.0095459243
0.0088418952
0.0080002742
0.0071146618
0.0062440162
0.0054231601
0.0046707996
0.0039950851
0.0033973483
0.0028746742
0.0024217216
0.0020319851
0.0016986115
0.0014148788
0.0011744541
0.00097151876
0.00080081698
0.00065766338
0.00053792059
0.0004379635
0.00035463323
0.00028518487
0.0002272575
0.0001787514
0.00013803796
0.00010301927
7.4060566e-05
4.409973e-05
3.0318626e-05
-2.6419463e-05
5.4978467e-05
-0.26518718
-0.23105654
-0.20497088
-0.1845381
-0.16240645
-0.13882537
-0.11570311
-0.093858693
-0.073639756
-0.055424064
-0.039551954
-0.026208176
-0.015411066
-0.0070425447
-0.00087684075
0.0033893573
0.0061008472
0.0076070998
0.008231484
0.0082503886
0.0078833803
0.0072933978
0.0065941186
0.005860694
0.0051404672
0.0044616833
0.0038397196
0.0032813226
0.0027875598
0.0023559665
0.001982096
0.0016605699
0.0013857301
0.0011520163
0.00095417356
0.00078735932
0.00064719067
0.00052975289
0.00043158608
0.0003496549
0.00028130712
0.00022425258
0.00017644441
0.00013629832
0.00010174458
7.3183456e-05
4.357318e-05
3.0049125e-05
-2.6202843e-05
5.4393352e-05
-0.26614001
-0.23560849
-0.21108839
-0.19154135
-0.1708829
-0.14870927
-0.12642015
-0.10491507
-0.084664086
-0.066070509
-0.049509168
-0.035239807
-0.023369125
-0.013862723
-0.006568798
-0.0012443459
0.0024128563
0.0047289253
0.0060214141
0.0065744551
0.006623842
0.0063523361
0.0058933584
0.0053396102
0.0047529673
0.0041731691
0.0036244234
0.0031201535
0.0026664339
0.0022645305
0.0019127533
0.0016077422
0.0013453094
0.0011209645
0.00093023341
0.00076884568
0.00063283949
0.00051861168
0.00042293254
0.00034293942
0.00027610948
0.00022025141
0.00017339267
0.00013400991
0.00010007526
7.2031964e-05
4.2879771e-05
2.9672426e-05
-2.5929326e-05
5.3701971e-05
-0.25592957
-0.23378016
-0.21242795
-0.19354075
-0.1745878
-0.15459107
-0.13406763
-0.11380878
-0.094366862
-0.076157097
-0.059561633
-0.044890949
-0.03233137
-0.02193636
-0.013640346
-0.0072785505
-0.0026131535
0.00063483687
0.0027533691
0.0040124256
0.0046459974
0.00484412
0.0047534827
0.0044831482
0.004111777
0.0036942498
0.0032672253
0.0028538479
0.0024676911
0.0021158431
0.0018011247
0.0015236073
0.0012816519
0.00107263
0.00089341992
0.0007407355
0.00061133437
0.00050214182
0.00041031787
0.00033328889
0.00026874799
0.00021466643
0.00016919336
0.00013090239
9.7834534e-05
7.049613e-05
4.1951288e-05
2.9168591e-05
-2.563454e-05
5.2940117e-05
-0.23891818
-0.22840038
-0.2116527
-0.19333888
-0.17513418
-0.15628121
-0.13677539
-0.11725888
-0.098305811
-0.080346249
-0.063769038
-0.048908377
-0.035992624
-0.025127218
-0.016301549
-0.0094034923
-0.0042403111
-0.0005653615
0.0018933078
0.0034062069
0.0042202129
0.0045435511
0.0045397904
0.0043301995
0.0040011596
0.0036126446
0.0032052698
0.0028054272
0.0024290827
0.0020847946
0.0017761414
0.0015035572
0.0012656066
0.0010598156
0.00088319732
0.00073258356
0.00060483187
0.00049695077
0.00040616904
0.00032996964
0.00026609181
0.00021254471
0.00016750974
0.00012958358
9.6841739e-05
6.9769531e-05
4.1585714e-05
2.8879154e-05
-2.4969482e-05
5.2118589e-05
-0.21979796
-0.20995381
-0.19575566
-0.17948672
-0.16328835
-0.14670274
-0.12955006
-0.11228707
-0.095394354
-0.079244996
-0.064181738
-0.050509607
-0.038451645
-0.028130702
-0.019571183
-0.012707936
-0.0074016399
-0.0034603598
-0.00066360944
0.0012147545
0.0023873244
0.0030396261
0.0033235524
0.0033572795
0.0032294085
0.0030045815
0.0027287458
0.002433494
0.002139594
0.0018598905
0.0016016446
0.0013683309
0.0011609476
0.00097893506
0.00082080225
0.00068454785
0.00056793994
0.0004686977
0.00038460471
0.00031357743
0.00025369438
0.0002032291
0.00016057552
0.0001244814
9.3193254e-05
6.7179102e-05
4.0102337e-05
2.7629649e-05
-2.4104605e-05
5.0648475e-05
-0.20240694
-0.19176328
-0.17969428
-0.16621306
-0.15214812
-0.13752016
-0.12238242
-0.10707886
-0.091988156
-0.077438641
-0.063738477
-0.051164755
-0.039930568
-0.030168633
-0.021929157
-0.015184104
-0.0098377846
-0.0057435043
-0.0027232233
-0.0005870887
0.0008494271
0.0017526177
0.0022631765
0.0024943483
0.0025340225
0.0024485889
0.0022869649
0.0020841754
0.0018644397
0.0016438158
0.0014324016
0.0012360799
0.0010578387
0.0008987337
0.00075857162
0.00063638818
0.0005307768
0.0004401119
0.00036269644
0.00029685795
0.00024100076
0.00019365451
0.00015342219
0.00011919761
8.9407707e-05
6.4473675e-05
3.8599508e-05
2.6252592e-05
-2.2824075e-05
4.8713497e-05
-0.18455192
-0.17369748
-0.16316047
-0.1523533
-0.14053085
-0.12784651
-0.11466793
-0.10129276
-0.087987556
-0.075030325
-0.062701091
-0.051252057
-0.040884346
-0.031736614
-0.023880361
-0.017320081
-0.01199958
-0.0078140352
-0.0046253404
-0.0022782529
-0.00061549592
0.0005098977
0.0012265041
0.0016411756
0.0018394761
0.0018881021
0.0018378227
0.0017262848
0.0015805751
0.0014195386
0.0012558031
0.0010974523
0.0009493353
0.00081405176
0.00069267292
0.00058526046
0.00049123517
0.00040963559
0.00033929612
0.00027896838
0.00022739521
0.00018337388
0.00014572727
0.00011350322
8.5321162e-05
6.1548895e-05
3.6983764e-05
2.4759683e-05
-2.1302514e-05
4.6437687e-05
-0.16649239
-0.15625279
-0.14702548
-0.13840977
-0.12869916
-0.11791462
-0.10660945
-0.095083418
-0.083514741
-0.072125876
-0.061167405
-0.050867496
-0.041412305
-0.032940544
-0.025538225
-0.01923561
-0.014009953
-0.0097936715
-0.0064857979
-0.0039647995
-0.0021013419
-0.00076950912
0.00014501622
0.00074060196
0.001098683
0.0012848169
0.0013505288
0.0013353116
0.0012686166
0.0011717864
0.00105984
0.00094301851
0.00082804488
0.0007191052
0.00061859112
0.0005276502
0.00044658863
0.00037516237
0.00031278444
0.00025867135
0.00021193919
0.00017168201
0.00013696688
0.00010701558
8.0658094e-05
5.8217535e-05
3.5119424e-05
2.3097896e-05
-1.965218e-05
4.3876606e-05
-0.14851653
-0.13957994
-0.13171651
-0.12485067
-0.11699333
-0.10799325
-0.098432859
-0.088620739
-0.07868297
-0.068790188
-0.059159914
-0.049996341
-0.041469198
-0.033712387
-0.026819804
-0.020840385
-0.015778002
-0.011596445
-0.0082275273
-0.0055808434
-0.0035541229
-0.0020429868
-0.0009487338
-0.0001832247
0.00032906991
0.00065096873
0.00083342928
0.00091677081
0.00093207649
0.00090269355
0.00084572391
0.00077338986
0.00069420095
0.00061390024
0.00053620497
0.0004633732
0.00039663044
0.00033648716
0.00028297154
0.00023579894
0.0001944891
0.0001584595
0.00012704411
9.9658682e-05
7.5359168e-05
5.4439808e-05
3.2969385e-05
2.1268387e-05
-1.7940188e-05
4.108363e-05
-0.13108086
-0.12377271
-0.11731252
-0.1118704
-0.10558891
-0.098210675
-0.090249659
-0.082002928
-0.073570099
-0.065080067
-0.056715384
-0.048655443
-0.041052796
-0.034033064
-0.02769237
-0.022091803
-0.01725527
-0.013171912
-0.0098014424
-0.0070811875
-0.0049341307
-0.0032770298
-0.0020274487
-0.0011087467
-0.00045281286
-1.0629893e-06
0.00029556383
0.00047711894
0.00057547146
0.00061535649
0.00061553326
0.00058992855
0.00054867093
0.00049896858
0.0004458229
0.00039259274
0.0003414323
0.0002936261
0.0002498418
0.00021031917
0.00017500629
0.00014366705
0.00011592223
9.140078e-05
6.9396883e-05
5.0197801e-05
3.0510208e-05
1.9280977e-05
-1.6236426e-05
3.8117426e-05
-0.11465947
-0.10894703
-0.10382024
-0.099567217
-0.094614172
-0.088669803
-0.082147772
-0.075312664
-0.068248823
-0.061054238
-0.053877939
-0.046873881
-0.040176843
-0.033901757
-0.028142415
-0.022966264
-0.018411084
-0.014485445
-0.011171837
-0.0084314313
-0.0062099962
-0.0044443359
-0.0030683119
-0.0020175738
-0.0012326213
-0.00066042312
-0.00025508112
2.2075234e-05
0.0002027882
0.00031247569
0.00037103841
0.00039374897
0.00039211812
0.0003746717
0.00034761077
0.00031535304
0.00028096698
0.00024651385
0.0002133132
0.00018214659
0.00015340961
0.00012723198
0.00010353882
8.2190592e-05
6.272941e-05
4.5462473e-05
2.7711453e-05
1.7137198e-05
-1.4613607e-05
3.503417e-05
-0.09949829
-0.095169286
-0.091229013
-0.087983943
-0.084150265
-0.079447997
-0.074196905
-0.068618904
-0.062785231
-0.05677096
-0.050695334
-0.044687329
-0.038863619
-0.033326911
-0.028165291
-0.023447795
-0.019220612
-0.015506218
-0.012304811
-0.0095972315
-0.0073490457
-0.0055153678
-0.0040457476
-0.0028883704
-0.0019931345
-0.0013136184
-0.00080821556
-0.00044070701
-0.00018041374
-2.0020111e-06
0.00011497631
0.00018670148
0.00022575719
0.00024177819
0.00024203102
0.0002319115
0.00021535858
0.00019519106
0.00017337692
0.00015124554
0.00012965125
0.00010910351
8.9845552e-05
7.1985486e-05
5.5320366e-05
4.0206811e-05
2.4545318e-05
1.483367e-05
-1.313723e-05
3.1882438e-05
-0.085661207
-0.082468494
-0.079536856
-0.077142619
-0.074248899
-0.07060618
-0.06645872
-0.061985463
-0.057244085
-0.05229166
-0.047222029
-0.042140802
-0.037146723
-0.03232941
-0.02776895
-0.023532269
-0.019669397
-0.016211807
-0.013172637
-0.010548206
-0.0083205746
-0.006460928
-0.0049333151
-0.0036981497
-0.0027150576
-0.001944945
-0.0013514042
-0.00090161988
-0.000566874
-0.00032270087
-0.00014874827
-2.8430099e-05
5.1535524e-05
0.00010162297
0.00012997803
0.00014285119
0.00014497413
0.00013987785
0.00013015545
0.00011767555
0.00010375171
8.9279366e-05
7.4828132e-05
6.0766205e-05
4.7149446e-05
3.4413193e-05
2.0991938e-05
1.2364652e-05
-1.1860243e-05
2.8700086e-05
-0.073136526
-0.070852899
-0.06874994
-0.067060544
-0.064947664
-0.062195974
-0.058991549
-0.055475196
-0.051691157
-0.047681624
-0.043519086
-0.03928813
-0.035070339
-0.030942
-0.026973782
-0.023227837
-0.019754398
-0.016589766
-0.013755739
-0.011260106
-0.0090980195
-0.0072541727
-0.0057054564
-0.0044237013
-0.0033781219
-0.0025372859
-0.0018706076
-0.00134944
-0.00094782222
-0.00064290514
-0.00041508645
-0.00024791381
-0.0001278324
-4.3850456e-05
1.2821169e-05
4.9120631e-05
7.0458363e-05
8.1002922e-05
8.392636e-05
8.1610229e-05
7.5814532e-05
6.7817051e-05
5.8514839e-05
4.8543192e-05
3.8216963e-05
2.8076652e-05
1.7041617e-05
9.7236445e-06
-1.0820422e-05
2.5512632e-05
-0.061875833
-0.060306985
-0.05886752
-0.057748301
-0.056273596
-0.054260022
-0.051848742
-0.049148674
-0.046191893
-0.043008136
-0.039652066
-0.036189872
-0.032687293
-0.029207595
-0.025811357
-0.022554197
-0.019483832
-0.016638014
-0.014043526
-0.011715972
-0.0096602924
-0.0078719702
-0.0063387599
-0.0050426779
-0.0039619549
-0.0030727596
-0.0023506272
-0.001771604
-0.0013131227
-0.00095461039
-0.00067783547
-0.00046702416
-0.00030880206
-0.00019202181
-0.00010752941
-4.7906799e-05
-7.2151322e-06
1.9246228e-05
3.5156795e-05
4.3364626e-05
4.6047642e-05
4.485018e-05
4.0988748e-05
3.5365645e-05
2.8550338e-05
2.1209642e-05
1.2697843e-05
6.9062897e-06
-1.0038844e-05
2.2333374e-05
-0.051807688
-0.050793098
-0.049874276
-0.049205554
-0.048242676
-0.046830723
-0.045075947
-0.043061343
-0.040808751
-0.038337708
-0.035688171
-0.03291061
-0.030056591
-0.027177157
-0.024322749
-0.021541465
-0.01887663
-0.016364878
-0.014034955
-0.011907112
-0.0099930208
-0.0082962648
-0.0068133133
-0.0055348364
-0.0044471426
-0.0035335716
-0.0027757466
-0.0021546577
-0.0016515623
-0.0012486864
-0.00092971119
-0.00068005375
-0.0004869733
-0.0003395484
-0.00022856893
-0.00014637846
-8.6693342e-05
-4.4416564e-05
-1.5458816e-05
3.4262046e-06
1.4788101e-05
2.0607889e-05
2.2402649e-05
2.1332783e-05
1.8212318e-05
1.3848209e-05
7.9811281e-06
3.914429e-06
-9.5194147e-06
1.9165171e-05
-0.042849144
-0.042258372
-0.041740679
-0.041419797
-0.040859271
-0.039929319
-0.038709098
-0.037260908
-0.035598448
-0.033733219
-0.031693295
-0.029516018
-0.027240667
-0.024907223
-0.022556434
-0.020228547
-0.017961365
-0.015788578
-0.013738571
-0.011833618
-0.010089444
-0.0085152175
-0.0071139574
-0.0058832848
-0.0048163795
-0.0039030096
-0.0031305411
-0.0024848775
-0.0019513004
-0.001515181
-0.0011625362
-0.00088041528
-0.0006571322
-0.00048236799
-0.00034717764
-0.00024393026
-0.0001662073
-0.00010867793
-6.6965701e-05
-3.7516426e-05
-1.7473822e-05
-4.5656284e-06
2.9944779e-06
6.6057859e-06
7.3098872e-06
6.0588113e-06
2.9333101e-06
7.6074472e-07
-9.249328e-06
1.60035e-05
-0.03491226
-0.034640407
-0.034425938
-0.034367333
-0.034116523
-0.033565806
-0.032773514
-0.031785699
-0.030609898
-0.029251565
-0.027729431
-0.02607016
-0.024302687
-0.022457326
-0.020565961
-0.018661166
-0.016774717
-0.014936218
-0.013172025
-0.011504396
-0.0099508823
-0.0085240138
-0.007231313
-0.0060756116
-0.005055596
-0.0041664892
-0.0034007911
-0.0027490256
-0.0022004595
-0.0017437588
-0.0013675474
-0.0010608438
-0.00081337307
-0.00061576294
-0.00045964581
-0.0003376867
-0.00024355785
-0.00017187723
-0.00011812523
-7.8550621e-05
-5.0073994e-05
-3.0193399e-05
-1.689807e-05
-8.5805197e-06
-3.9967337e-06
-2.0546628e-06
-2.377895e-06
-2.5264827e-06
-9.2000299e-06
1.2840293e-05
-0.027907854
-0.027871578
-0.027881529
-0.028015545
-0.027997779
-0.027739759
-0.027284016
-0.026664064
-0.025883007
-0.024941989
-0.023852631
-0.022633156
-0.021304058
-0.019887489
-0.018407534
-0.016889661
-0.015359614
-0.013842347
-0.012361119
-0.010936705
-0.0095867451
-0.0083252761
-0.0071625027
-0.0061048082
-0.0051549775
-0.0043125781
-0.0035744401
-0.0029351939
-0.0023878326
-0.0019242653
-0.0015358259
-0.0012137088
-0.0009493137
-0.00073450015
-0.00056175779
-0.00042430568
-0.00031613409
-0.00023200264
-0.00016740736
-0.00011852753
-8.2160727e-05
-5.5652324e-05
-3.6825555e-05
-2.3907465e-05
-1.5485852e-05
-1.0344282e-05
-7.8543956e-06
-5.898962e-06
-9.3283206e-06
9.6680127e-06
-0.0217485
-0.021882454
-0.022054412
-0.022325488
-0.022478579
-0.022441781
-0.022245772
-0.021914563
-0.021448254
-0.020845116
-0.020111562
-0.019259349
-0.018302301
-0.017255905
-0.016137648
-0.014966702
-0.013763149
-0.012547194
-0.011338444
-0.010155248
-0.0090140817
-0.0079290448
-0.0069115009
-0.0059699023
-0.0051097847
-0.0043339099
-0.0036425213
-0.0030336811
-0.0025036662
-0.0020473924
-0.001658838
-0.0013314359
-0.0010584115
-0.00083305828
-0.00064894838
-0.00050008079
-0.00038097626
-0.00028672645
-0.00021300762
-0.00015606744
-0.0001126933
-8.0168166e-05
-5.6220364e-05
-3.8965965e-05
-2.6868317e-05
-1.8612911e-05
-1.3363973e-05
-9.2848848e-06
-9.5774275e-06
6.4834895e-06
-0.016350652
-0.016604281
-0.016889608
-0.017254284
-0.017528761
-0.017655235
-0.017655589
-0.017546746
-0.017326921
-0.016992652
-0.016546696
-0.015996031
-0.015349382
-0.014616987
-0.013810946
-0.012945085
-0.012034443
-0.011094712
-0.010141714
-0.0091908748
-0.008256706
-0.0073523277
-0.0064890781
-0.0056762407
-0.0049208978
-0.0042279056
-0.003599973
-0.0030378291
-0.0025404606
-0.0021054036
-0.0017290616
-0.0014070263
-0.0011343772
-0.00090594651
-0.00071653999
-0.00056111186
-0.00043489405
-0.00033348411
-0.00025289743
-0.00018959007
-0.00014045876
-0.00010282364
-7.4399456e-05
-5.325625e-05
-3.778577e-05
-2.6611896e-05
-1.8738247e-05
-1.258694e-05
-9.8781545e-06
3.2911445e-06
-0.011636038
-0.011970786
-0.012332212
-0.012757183
-0.013114447
-0.013358066
-0.013503454
-0.013562318
-0.013531831
-0.013407648
-0.0131901
-0.012882759
-0.012490602
-0.012019876
-0.011478448
-0.01087578
-0.010222615
-0.0095306073
-0.0088119601
-0.0080790435
-0.0073439848
-0.0066182645
-0.0059123503
-0.0052353977
-0.0045950344
-0.0039972325
-0.0034462656
-0.0029447443
-0.0024937223
-0.0020928641
-0.0017406568
-0.0014346452
-0.0011716723
-0.00094810928
-0.00076006195
-0.00060354938
-0.00047464853
-0.00036960579
-0.00028491678
-0.00021737792
-0.00016411388
-0.00012258519
-9.0580776e-05
-6.619737e-05
-4.7815712e-05
-3.404348e-05
-2.3773691e-05
-1.5682622e-05
-1.0150499e-05
1.0536926e-07
-0.0075326449
-0.0079195614
-0.0083290469
-0.0087893467
-0.0091998894
-0.009524613
-0.0097742056
-0.0099565884
-0.010068482
-0.010105268
-0.010065776
-0.0099512639
-0.0097640608
-0.0095075021
-0.0091862501
-0.0088063435
-0.0083750202
-0.0079004929
-0.0073917199
-0.0068581447
-0.006309399
-0.005754987
-0.005203976
-0.0046647181
-0.0041446178
-0.0036499567
-0.0031857787
-0.002755836
-0.002362597
-0.0020073121
-0.0016901284
-0.0014102401
-0.0011660603
-0.00095540019
-0.00077564409
-0.00062391174
-0.00049720083
-0.00039250644
-0.00030691595
-0.00023767959
-0.00018225876
-0.00013835432
-0.00010391812
-7.7150312e-05
-5.6486398e-05
-4.0570163e-05
-2.8237324e-05
-1.8427744e-05
-1.0306365e-05
-3.048103e-06
-0.0039751342
-0.0043928874
-0.0048297852
-0.0053071943
-0.0057489768
-0.0061272066
-0.0064491432
-0.006719986
-0.0069363987
-0.0070938905
-0.0071904613
-0.0072258838
-0.0072007067
-0.0071162328
-0.0069747996
-0.0067798647
-0.0065359227
-0.006248384
-0.0059234445
-0.0055679263
-0.0051890777
-0.0047943461
-0.0043911392
-0.003986592
-0.0035873541
-0.0031994066
-0.0028279167
-0.0024771349
-0.0021503378
-0.0018498195
-0.0015769287
-0.0013321437
-0.0011151769
-0.00092509796
-0.00076046657
-0.00061946488
-0.00050002346
-0.00039993463
-0.00031694963
-0.00024885782
-0.00019354742
-0.00014904839
-0.00011355907
-8.5458672e-05
-6.3304747e-05
-4.5833446e-05
-3.1878883e-05
-2.0664247e-05
-1.0254149e-05
-6.1319685e-06
-0.00090536338
-0.0013385703
-0.0017880484
-0.0022696791
-0.0027266638
-0.0031377108
-0.0035076065
-0.0038396121
-0.004130576
-0.0043763751
-0.0045746453
-0.0047242783
-0.0048246991
-0.0048758665
-0.004878508
-0.0048342177
-0.0047454316
-0.0046153746
-0.0044480012
-0.00424791
-0.0040202228
-0.0037704353
-0.0035042476
-0.003227387
-0.0029454331
-0.0026636541
-0.0023868613
-0.0021192881
-0.0018645
-0.0016253393
-0.0014039068
-0.0012015781
-0.0010190503
-0.0008564111
-0.00071322671
-0.0005886375
-0.00048145755
-0.00039027078
-0.00031351954
-0.00024958215
-0.00019683724
-0.00015371425
-0.0001187295
-9.0510185e-05
-6.7800157e-05
-4.9484319e-05
-3.4451263e-05
-2.2233422e-05
-9.9060311e-06
-9.0984116e-06
0.0017279006
0.0012899214
0.00083808677
0.00036087601
-0.00010011105
-0.00052893555
-0.00092860899
-0.0013010242
-0.0016433426
-0.0019519314
-0.0022243643
-0.0024590744
-0.0026548384
-0.0028107877
-0.0029265965
-0.0030025771
-0.0030396877
-0.003039523
-0.0030042987
-0.0029368183
-0.0028404108
-0.0027188431
-0.0025762108
-0.0024168163
-0.002245038
-0.0020651996
-0.0018814433
-0.0016976143
-0.0015171617
-0.0013430609
-0.0011777634
-0.0010231722
-0.00088064452
-0.0007510168
-0.00063464965
-0.00053148686
-0.00044112367
-0.00036287914
-0.00029586794
-0.0002390677
-0.00019137901
-0.00015167601
-0.00011884618
-9.1820728e-05
-6.958574e-05
-5.1226764e-05
-3.5740252e-05
-2.2995223e-05
-9.188439e-06
-1.1891515e-05
0.003968628
0.0035330807
0.003085678
0.0026183735
0.0021609163
0.001724969
0.0013087859
0.00091143333
0.0005353854
0.00018374643
-0.0001411763
-0.00043763731
-0.00070409292
-0.00093921624
-0.0011420421
-0.0013120506
-0.0014491912
-0.0015538964
-0.0016270928
-0.0016702004
-0.0016851102
-0.0016741419
-0.0016399834
-0.0015856151
-0.0015142225
-0.001429102
-0.0013335628
-0.0012308295
-0.0011239513
-0.0010157219
-0.00090861491
-0.00080473799
-0.00070580612
-0.00061313434
-0.00052764841
-0.00044991055
-0.00038015727
-0.00031834537
-0.00026420236
-0.0002172778
-0.00017699232
-0.00014268208
-0.00011363623
-8.9128652e-05
-6.8430684e-05
-5.0871543e-05
-3.5602797e-05
-2.2853818e-05
-8.0563245e-06
-1.4451539e-05
0.0058524477
0.0054235179
0.0049844129
0.0045297857
0.0040802515
0.0036441138
0.0032205243
0.0028092153
0.0024122958
0.002032359
0.0016715
0.0013314706
0.0010139217
0.00072038794
0.00045218116
0.00021032165
-4.4913813e-06
-0.00019190411
-0.00035193237
-0.00048497868
-0.0005918352
-0.00067367229
-0.00073201247
-0.00076869166
-0.00078580845
-0.00078566393
-0.00077069383
-0.00074339627
-0.00070625817
-0.00066168477
-0.00061193595
-0.00055907267
-0.00050491581
-0.00045101861
-0.00039865304
-0.0003488094
-0.00030220776
-0.00025931891
-0.00022039242
-0.00018548912
-0.00015451515
-0.00012725554
-0.00010340461
-8.2594549e-05
-6.4405932e-05
-4.8439502e-05
-3.4037471e-05
-2.180288e-05
-6.5184443e-06
-1.672364e-05
0.0074122217
0.006992387
0.006563688
0.0061229393
0.0056837926
0.0052519327
0.0048271404
0.0044096089
0.0040011144
0.0036037901
0.0032194864
0.002849867
0.002496564
0.0021611634
0.0018451296
0.0015497531
0.0012761204
0.0010250874
0.00079725005
0.00059291933
0.00041210441
0.00025450502
0.00011951427
6.2310432e-06
-8.6517313e-05
-0.00016014331
-0.00021625888
-0.00025662808
-0.00028311458
-0.00029762707
-0.00030206508
-0.00029826857
-0.00028797323
-0.00027277373
-0.00025409595
-0.0002331789
-0.00021106611
-0.00018860589
-0.00016645906
-0.00014511255
-0.00012489715
-0.00010600754
-8.8522325e-05
-7.2425796e-05
-5.7613074e-05
-4.3968748e-05
-3.1048972e-05
-1.9830739e-05
-4.567819e-06
-1.861721e-05
0.0086566721
0.0082459633
0.0078275503
0.0073997341
0.0069710229
0.0065451653
0.0061223809
0.0057031688
0.0052890201
0.0048816816
0.0044827677
0.0040938151
0.0037163731
0.0033519914
0.003002169