/*--------------------------------*- C++ -*----------------------------------*\
  =========                 |
  \\      /  F ield         | OpenFOAM: The Open Source CFD Toolbox
   \\    /   O peration     | Website:  https://openfoam.org
    \\  /    A nd           | Version:  6
     \\/     M anipulation  |
\*---------------------------------------------------------------------------*/
FoamFile
{
    version     2.0;
    format      ascii;
    class       volScalarField;
    location    "274";
    object      pPrime2Mean;
}
// * * * * * * * * * * * * * * * * * * * * * * * * * * * * * * * * * * * * * //

dimensions      [0 4 -4 0 0 0 0];

internalField   nonuniform List<scalar> 
9200
(
0.041082331
0.034059607
0.028113753
0.024242421
0.021151887
0.018546661
0.016298336
0.014341411
0.012632281
0.011136038
0.0098237773
0.0086712796
0.0076581057
0.0067669
0.0059828509
0.0052932939
0.0046875075
0.0041565443
0.0036937161
0.0032902505
0.033328514
0.027580178
0.022772811
0.019612418
0.017076362
0.01493215
0.013078909
0.011465171
0.010056273
0.008824287
0.0077459037
0.0068014157
0.0059740182
0.0052492715
0.004614687
0.0040594326
0.0035741763
0.0031508695
0.0027819809
0.0024567657
0.026057912
0.02153538
0.017797243
0.015306327
0.013291261
0.011579094
0.010095344
0.008802122
0.0076735674
0.0066885397
0.0058290518
0.0050795586
0.0044264897
0.0038579039
0.0033632431
0.0029331699
0.0025594756
0.0022349053
0.001952158
0.0017016638
0.019472135
0.016088065
0.013317689
0.011435641
0.0098937471
0.00857322
0.0074240845
0.0064212128
0.0055470602
0.0047867393
0.0041269999
0.0035558633
0.0030624378
0.0026368188
0.0022700451
0.0019540859
0.0016818234
0.0014469381
0.0012431887
0.0010633319
0.013752804
0.011384592
0.0094544319
0.0081041651
0.0069752807
0.0059962377
0.0051389755
0.0043898843
0.0037388553
0.0031763637
0.0026930339
0.0022796863
0.0019274948
0.0016281633
0.0013740853
0.0011584536
0.00097529842
0.00081942157
0.00068601566
0.00057021857
0.0090599685
0.0075524728
0.0063141392
0.0054047189
0.0046182699
0.0039224077
0.0033077023
0.0027703385
0.002306336
0.0019103256
0.0015757609
0.001295441
0.0010620342
0.00086851063
0.00070844925
0.00057620931
0.00046697244
0.00037668783
0.00030192675
0.00023968256
0.005527465
0.0046973449
0.0039875164
0.0034171511
0.0028943006
0.002416827
0.0019899806
0.0016175404
0.001299992
0.0010347263
0.00081694455
0.00064067063
0.00049960111
0.00038771289
0.00029962891
0.00023077752
0.00017739578
0.00013645737
0.00010564709
8.3206101e-05
0.0032595186
0.0029008864
0.0025476535
0.0022067951
0.0018625657
0.0015337045
0.0012356268
0.00097713689
0.00076132324
0.00058691996
0.00044988637
0.00034484684
0.00026615959
0.00020858577
0.00016762316
0.00013959961
0.00012161757
0.00011145584
0.00010757524
0.00010894294
0.0023278493
0.0022185216
0.0020469627
0.0018211511
0.001566815
0.0013138177
0.0010825862
0.00088403813
0.00072192765
0.00059504565
0.00049932916
0.00042956117
0.00038049477
0.00034746595
0.0003266313
0.00031497548
0.00031020306
0.00031061907
0.00031510476
0.00032292581
0.0027685824
0.002677579
0.0025139676
0.0022867963
0.0020324263
0.0017814666
0.0015536736
0.0013590537
0.0012002423
0.0010750752
0.00097893285
0.00090646243
0.00085258845
0.00081297791
0.00078416222
0.00076347096
0.0007488941
0.00073895009
0.00073258946
0.00072901009
0.097443449
0.081954643
0.067734049
0.058741763
0.051601657
0.045608407
0.040448398
0.035952439
0.032015782
0.028556107
0.02550616
0.022810265
0.020421784
0.018301294
0.016415221
0.014734812
0.013235319
0.011894575
0.010691769
0.0096148619
0.096203353
0.080832372
0.066774615
0.05788561
0.050834941
0.04491808
0.039824184
0.035386844
0.031502515
0.028089666
0.025081683
0.022423423
0.020068714
0.017978534
0.016119671
0.014463697
0.012986187
0.011665304
0.010480111
0.0094189863
0.093673828
0.078610447
0.064904542
0.056236557
0.049369001
0.043606992
0.038646377
0.034325959
0.03054491
0.027223658
0.024297145
0.021711498
0.019421606
0.017389356
0.015582319
0.013972763
0.012536925
0.011253613
0.010101961
0.0090705542
0.089899065
0.075342824
0.062177857
0.05384579
0.047250176
0.041717099
0.036953386
0.032805201
0.029175791
0.025988644
0.023181138
0.020701381
0.018505903
0.016557978
0.014826359
0.013284335
0.011909069
0.010680307
0.0095776026
0.0085893977
0.084982114
0.071122215
0.058673536
0.050783944
0.044541835
0.039305534
0.034797091
0.030871947
0.027438623
0.024424653
0.021770658
0.019427382
0.017353533
0.015514211
0.013879717
0.012424647
0.011127283
0.0099685306
0.0089289495
0.0079966872
0.079063043
0.066071417
0.054494005
0.047141272
0.041324385
0.036444328
0.032242311
0.028584713
0.02538638
0.022579754
0.020109411
0.017929314
0.016000828
0.014291276
0.012772832
0.011421654
0.010217298
0.0091419282
0.0081777791
0.0073130571
0.072311917
0.060337705
0.04976051
0.043023626
0.037691657
0.033217187
0.029363959
0.026010649
0.023079338
0.020508108
0.018246094
0.016250984
0.014487233
0.012924747
0.011537877
0.010304591
0.0092058695
0.0082251476
0.0073468158
0.0065599207
0.064922641
0.054087607
0.044609219
0.038549191
0.033748006
0.029716859
0.026244688
0.023223499
0.020583328
0.018268493
0.016233186
0.014439253
0.012854612
0.011452089
0.010208503
0.0091038998
0.0081209081
0.0072443086
0.0064609285
0.0057614289
0.057105938
0.047500697
0.039186289
0.033844159
0.02960443
0.026041699
0.022971862
0.020300893
0.017967328
0.015922183
0.014125111
0.012542461
0.011145933
0.009911553
0.0088188764
0.0078502955
0.006990404
0.006225627
0.0055455455
0.0049424845
0.049081721
0.040764565
0.03364265
0.029037217
0.025373217
0.022290624
0.01963291
0.017320223
0.01529994
0.01353008
0.01197601
0.010608807
0.0094041347
0.0083413901
0.0074030376
0.0065740597
0.0058415256
0.0051945375
0.0046263304
0.0041295787
0.0084788588
0.0073464124
0.0063863351
0.0055529569
0.0048411483
0.0042315475
0.0037073526
0.00325415
0.0028602212
0.0025160502
0.0022139304
0.0019476878
0.0017123674
0.0015039399
0.0013190841
0.0011550269
0.0010094209
0.00088025233
0.0007657731
0.0006644497
0.00057492466
0.00049598671
0.00042654772
0.00036562478
0.0003123263
0.00026584123
0.0002254306
0.00019042074
0.0001601979
0.00013420372
0.00011193143
9.2922365e-05
7.6762951e-05
6.3081668e-05
5.1546293e-05
4.1861045e-05
3.3763973e-05
2.7024116e-05
2.1439186e-05
1.6832351e-05
1.3051468e-05
9.9622662e-06
7.4579312e-06
5.4271738e-06
3.8257833e-06
2.5075339e-06
1.5941644e-06
7.3424723e-07
9.6533584e-07
1.6038323e-06
0.008314444
0.0072195216
0.0062868874
0.0054745909
0.0047800937
0.004184468
0.0036710796
0.0032260584
0.0028382847
0.0024987174
0.0022000464
0.0019364243
0.0017031368
0.0014963198
0.0013127637
0.0011497712
0.0010050468
0.00087661305
0.00076274824
0.00066193921
0.00057284462
0.00049426641
0.00042512753
0.00036445443
0.00031136348
0.00026505043
0.00022478208
0.0001898897
0.0001597637
0.00013384924
0.00011164249
9.2687271e-05
7.6572049e-05
6.2927013e-05
5.1421349e-05
4.1760439e-05
3.3683289e-05
2.6959725e-05
2.1388109e-05
1.6792143e-05
1.3020123e-05
9.9381481e-06
7.4397061e-06
5.4137798e-06
3.8163562e-06
2.5013923e-06
1.5909138e-06
7.323129e-07
9.5962236e-07
1.5729911e-06
0.0080251461
0.0069977411
0.0061147769
0.0053411539
0.0046777477
0.0041067693
0.0036121037
0.0031809656
0.0028034224
0.0024713741
0.0021782559
0.0019188068
0.0016887322
0.0014844482
0.00130293
0.0011416036
0.00099825659
0.00087096923
0.0007580617
0.0006580528
0.0005696266
0.00049160589
0.00042293109
0.00036264348
0.00030987205
0.00026382331
0.00022377325
0.00018906089
0.00015908323
0.00013329093
0.00011118476
9.2312358e-05
7.6265366e-05
6.267657e-05
5.121729e-05
4.1594656e-05
3.3549104e-05
2.685163e-05
2.1301554e-05
1.672337e-05
1.2966027e-05
9.8961661e-06
7.4077383e-06
5.3901238e-06
3.7996422e-06
2.4904749e-06
1.5852203e-06
7.2890007e-07
9.4820307e-07
1.5127459e-06
0.007628754
0.0066947915
0.0058823845
0.0051646407
0.0045448272
0.0040073163
0.0035374726
0.0031243192
0.0027597661
0.0024371594
0.0021509925
0.0018967731
0.0016707362
0.0014696441
0.0012906975
0.0011314725
0.00098985912
0.00086401004
0.0007522989
0.0006532858
0.00056568785
0.00048835499
0.00042025036
0.00036043445
0.00030805256
0.000262325
0.00022253945
0.0001880448
0.00015824627
0.00013260144
0.00011061675
9.184458e-05
7.5880393e-05
6.2360133e-05
5.0957675e-05
4.1382232e-05
3.3375919e-05
2.6711109e-05
2.1188238e-05
1.663272e-05
1.2894262e-05
9.8401453e-06
7.3648642e-06
5.3582708e-06
3.777084e-06
2.4757624e-06
1.577573e-06
7.2442331e-07
9.3107062e-07
1.426181e-06
0.0071427364
0.0063246294
0.0056024352
0.0049572485
0.0043920711
0.0038946539
0.0034536426
0.0030609119
0.0027108695
0.0023987675
0.0021203869
0.0018720809
0.0016506433
0.0014532019
0.001277197
0.0011203673
0.00098071779
0.00085648526
0.00074610719
0.00064819365
0.00056150203
0.00048491524
0.00041742379
0.00035811106
0.00030614159
0.00026075177
0.00022124271
0.0001869745
0.00015736164
0.0001318693
0.00011001018
9.1341712e-05
7.5463463e-05
6.2014673e-05
5.0671855e-05
4.1146338e-05
3.3181927e-05
2.6552355e-05
2.1059158e-05
1.6528646e-05
1.2811274e-05
9.7749413e-06
7.3146876e-06
5.3208417e-06
3.7505097e-06
2.4584921e-06
1.5685719e-06
7.1941371e-07
9.0838661e-07
1.317827e-06
0.0065819926
0.0058999212
0.0052863905
0.0047288866
0.0042273133
0.0037742533
0.0033641638
0.0029931147
0.0026584753
0.0023576208
0.0020877008
0.001845902
0.0016295538
0.0014361474
0.0012633734
0.0011091473
0.00097160442
0.00084908045
0.0007400894
0.00064330176
0.00055752336
0.00048167643
0.00041478361
0.00035595471
0.00030437602
0.00025930188
0.00022004807
0.00018598665
0.00015654186
0.00013118671
0.00010944019
9.0864693e-05
7.5063738e-05
6.167964e-05
5.0391315e-05
4.0911962e-05
3.2986838e-05
2.6390818e-05
2.0926337e-05
1.6420434e-05
1.272416e-05
9.7059175e-06
7.261195e-06
5.2807383e-06
3.7219336e-06
2.4400193e-06
1.5588459e-06
7.1443781e-07
8.8041221e-07
1.1931828e-06
0.0059610655
0.0054333331
0.0049444505
0.004485528
0.0040531042
0.0036466207
0.0032686377
0.0029204934
0.0026025474
0.0023141202
0.0020536525
0.001819143
0.0016084597
0.0014194827
0.0012501898
0.0010987085
0.0009633339
0.00084252422
0.00073488846
0.00063917132
0.00055423722
0.00047905499
0.00041268453
0.00035426554
0.0003030083
0.00025818641
0.00021913101
0.00018522639
0.00015590636
0.00013065144
0.0001089864
9.0478057e-05
7.473325e-05
6.1396773e-05
5.0149356e-05
4.0705524e-05
3.2811488e-05
2.6242821e-05
2.0802471e-05
1.631787e-05
1.264039e-05
9.638702e-06
7.208551e-06
5.2409704e-06
3.6934224e-06
2.4217163e-06
1.5489992e-06
7.1004057e-07
8.4750023e-07
1.0581975e-06
0.0052980936
0.004939332
0.004584439
0.0042263091
0.0038640405
0.0035061114
0.0031628941
0.0028405781
0.0025420739
0.0022682995
0.002018902
0.0017927809
0.0015884612
0.0014043155
0.0012386946
0.0010900064
0.00095675562
0.00083755848
0.0007311439
0.00063634802
0.00055210539
0.00047743898
0.00041145067
0.00035331277
0.00030226092
0.00025758836
0.00021864139
0.00018481584
0.00015555422
0.00013034352
0.00010871317
9.0233318e-05
7.4513041e-05
6.1198608e-05
4.997164e-05
4.0547155e-05
3.2671575e-05
2.6120528e-05
2.0696916e-05
1.6228092e-05
1.2565353e-05
9.5773121e-06
7.1596924e-06
5.2036362e-06
3.6663775e-06
2.4044968e-06
1.5393337e-06
7.0658212e-07
8.1004947e-07
9.1884363e-07
0.0046110826
0.004424125
0.0041980929
0.0039324253
0.003639695
0.0033360563
0.0030348369
0.0027447624
0.0024708353
0.0022155816
0.0019800038
0.0017641465
0.0015674358
0.001388924
0.0012274712
0.0010818638
0.00095088615
0.00083336053
0.00072816845
0.00063425955
0.00055065338
0.00047643702
0.0004107609
0.0003528343
0.00030192101
0.00025733566
0.00021844068
0.00018464388
0.00015539661
0.00013019212
0.00010856419
9.0085793e-05
7.436775e-05
6.105724e-05
4.9836222e-05
4.0419667e-05
3.2553714e-05
2.6013588e-05
2.0601741e-05
1.6145095e-05
1.2494569e-05
9.5184686e-06
7.1122706e-06
5.167101e-06
3.6396693e-06
2.3876301e-06
1.5292185e-06
7.0389682e-07
7.6864549e-07
7.8125165e-07
0.0039275108
0.0038719123
0.0037487185
0.003569859
0.0033540619
0.0031167461
0.0028691982
0.0026208813
0.0023788838
0.0021477556
0.0019301975
0.001727692
0.0015408363
0.001369585
0.0012134749
0.001071795
0.00094370036
0.00082828501
0.00072462986
0.00063183155
0.00054901874
0.00047536009
0.0004100676
0.00035239717
0.00030164809
0.00025716197
0.00021832163
0.00018455015
0.00015531009
0.00013010277
0.00010846756
8.9981141e-05
7.42566e-05
6.0942334e-05
4.9720761e-05
4.0306814e-05
3.2446273e-05
2.5913836e-05
2.0511365e-05
1.606519e-05
1.2425716e-05
9.4607991e-06
7.0655567e-06
5.1310157e-06
3.613177e-06
2.3710043e-06
1.5185737e-06
7.0182319e-07
7.2485533e-07
6.5187711e-07
0.0031839528
0.0032041508
0.003164669
0.0030689039
0.002934452
0.0027725608
0.0025909832
0.00239815
0.002201834
0.0020077561
0.0018198694
0.0016409059
0.0014726193
0.0013159629
0.0011713009
0.0010385946
0.00091753581
0.0008076419
0.00070832494
0.00061893969
0.00053881556
0.00046727746
0.00040365913
0.00034731161
0.00029760866
0.00025395039
0.00021576565
0.00018251382
0.00015368608
0.00012880633
0.00010743179
8.9153185e-05
7.3594651e-05
6.0413293e-05
4.9298368e-05
3.9970185e-05
3.2178745e-05
2.5702078e-05
2.0344668e-05
1.593495e-05
1.2324963e-05
9.3840148e-06
7.008041e-06
5.0896769e-06
3.583952e-06
2.354056e-06
1.5063127e-06
7.0057962e-07
6.7924063e-07
5.3794759e-07
0.0024681581
0.0025304085
0.0025433901
0.0025069008
0.0024349323
0.0023357231
0.0022138709
0.0020758546
0.0019286186
0.0017776383
0.0016270008
0.0014798525
0.0013385121
0.0012045398
0.0010788913
0.00096207422
0.00085426705
0.00075540963
0.00066527434
0.00058352021
0.00050973203
0.00044344832
0.00038418129
0.00033143117
0.00028469658
0.00024348223
0.00020730474
0.00017569715
0.0001482125
0.00012442659
0.00010394015
8.6380299e-05
7.1401571e-05
5.8686366e-05
4.7944938e-05
3.8914969e-05
3.1360782e-05
2.5072185e-05
1.9863283e-05
1.5570416e-05
1.2051923e-05
9.1825609e-06
6.8618207e-06
4.987209e-06
3.5130818e-06
2.3117259e-06
1.476284e-06
6.9351519e-07
6.2090523e-07
4.2950826e-07
0.0018524467
0.0019424729
0.001992166
0.002001251
0.0019782733
0.0019292343
0.001856964
0.0017660629
0.0016622387
0.0015503798
0.0014343695
0.0013174227
0.0012021271
0.0010904236
0.0009836901
0.0008828582
0.00078850835
0.00070094619
0.00062026822
0.00054641562
0.00047921597
0.00041841503
0.0003637011
0.00031472362
0.00027110748
0.00023246414
0.00019840042
0.00016852557
0.00014245692
0.00011982444
0.00010027441
8.3472181e-05
6.9104282e-05
5.6879795e-05
4.6531159e-05
3.7814432e-05
3.0509105e-05
2.4417461e-05
1.9363803e-05
1.5192852e-05
1.1769608e-05
8.9746188e-06
6.7110683e-06
4.8817556e-06
3.4399137e-06
2.268368e-06
1.4440154e-06
6.8737416e-07
5.5739315e-07
3.2755484e-07
0.0013349497
0.001439443
0.0015117475
0.0015524785
0.0015654359
0.0015545899
0.0015217909
0.0014700357
0.0014035542
0.0013263696
0.0012419069
0.0011531675
0.001062734
0.00097269963
0.00088468452
0.00079990587
0.00071924326
0.00064329523
0.00057243244
0.0005068453
0.00044658351
0.00039158817
0.00034171767
0.00029676858
0.00025649249
0.00022060954
0.00018881956
0.00016081115
0.00013626916
0.00011488089
9.6341103e-05
8.0356049e-05
6.6646609e-05
5.4950621e-05
4.5024494e-05
3.6644185e-05
2.9605632e-05
2.3724657e-05
1.8836642e-05
1.4795406e-05
1.1473192e-05
8.7568068e-06
6.5534748e-06
4.7716316e-06
3.3634042e-06
2.2228794e-06
1.4092795e-06
6.8111026e-07
4.9328963e-07
2.4010199e-07
0.00091873582
0.0010240107
0.0011059184
0.001165019
0.0012016137
0.0012177064
0.0012143932
0.0011934216
0.0011575761
0.0011098595
0.001053061
0.00098976514
0.00092232777
0.00085278602
0.00078282584
0.00071380485
0.00064678665
0.00058257479
0.00052174926
0.00046470314
0.00041167594
0.00036278244
0.00031803738
0.00027737641
0.00024067368
0.00020775665
0.00017841856
0.00015242886
0.00012954212
0.00010950546
9.2064713e-05
7.6969542e-05
6.3977559e-05
5.2857522e-05
4.3391742e-05
3.5377767e-05
2.8629435e-05
2.2977353e-05
1.8269019e-05
1.4368214e-05
1.1155132e-05
8.523403e-06
6.3847688e-06
4.6536312e-06
3.2812964e-06
2.173454e-06
1.3712033e-06
6.7357482e-07
4.3120531e-07
1.7135011e-07
0.0005999712
0.00069503022
0.00077558895
0.00084144406
0.00089067853
0.0009235682
0.00094042211
0.00094200292
0.00092985538
0.00090595103
0.00087234342
0.00083107373
0.00078411598
0.00073328652
0.00068018237
0.00062616571
0.00057236918
0.0005197079
0.0004688978
0.00042047864
0.00037483802
0.00033223415
0.00029281682
0.00025664625
0.0002237098
0.00019393659
0.00016721026
0.00014338008
0.00012227048
0.00010368936
8.7435107e-05
7.3302529e-05
6.108777e-05
5.0592287e-05
4.1625972e-05
3.4009495e-05
2.7575969e-05
2.2171979e-05
1.7658173e-05
1.3909153e-05
1.0813806e-05
8.2731479e-06
6.2039758e-06
4.5269292e-06
3.1929854e-06
2.1193962e-06
1.3296372e-06
6.6393888e-07
3.7328746e-07
1.2275246e-07
0.00036831845
0.00044640672
0.00051771072
0.00058120892
0.00063391172
0.00067485255
0.00070357801
0.00072005596
0.00072484573
0.00071899062
0.00070379792
0.00068071045
0.00065123081
0.00061683958
0.00057892369
0.00053873434
0.0004973683
0.00045576115
0.00041468889
0.00037477679
0.00033651234
0.00030026017
0.00026627732
0.00023472822
0.00020569893
0.00017921029
0.00015522981
0.00013368256
0.00011446075
9.7432277e-05
8.2448195e-05
6.9349163e-05
5.797093e-05
4.8148905e-05
3.9721875e-05
3.2534929e-05
2.6441674e-05
2.1305776e-05
1.7002024e-05
1.341669e-05
1.0448092e-05
8.0052126e-06
6.0104796e-06
4.3910029e-06
3.0981143e-06
2.0602193e-06
1.2846652e-06
6.5145131e-07
3.2119316e-07
9.3160461e-08
0.00021039979
0.0002686483
0.00032600003
0.00038091295
0.0004301758
0.0004721384
0.00050576169
0.00053041074
0.00054591561
0.00055256329
0.00055098172
0.00054202813
0.00052670987
0.00050611144
0.00048132718
0.0004534096
0.00042333359
0.0003919745
0.00036009648
0.00032834872
0.00029726761
0.00026728288
0.0002387261
0.00021184064
0.00018679207
0.00016367874
0.00014254187
0.00012337527
0.00010613424
9.0743817e-05
7.7106211e-05
6.5107368e-05
5.4622738e-05
4.5522217e-05
3.7674278e-05
3.0949355e-05
2.5222512e-05
2.0375451e-05
1.6297983e-05
1.288885e-05
1.0056524e-05
7.7185173e-06
5.8035002e-06
4.2452551e-06
2.9963106e-06
1.9955127e-06
1.2364721e-06
6.3552445e-07
2.7589142e-07
7.9111041e-08
0.0001122199
0.00015058542
0.00019203629
0.00023485515
0.00027611863
0.00031396435
0.00034703534
0.00037431422
0.00039514557
0.00040926192
0.00041673655
0.00041790892
0.00041331944
0.00040365004
0.00038966598
0.00037216533
0.00035193855
0.00032973715
0.00030625186
0.00028209939
0.00025781534
0.00023385219
0.00021058091
0.00018829513
0.00016721721
0.00014750523
0.00012926061
0.00011253576
9.7341807e-05
8.3655857e-05
7.1427891e-05
6.0587085e-05
5.1047503e-05
4.2713128e-05
3.5482211e-05
2.925093e-05
2.3916395e-05
1.937902e-05
1.554435e-05
1.2324277e-05
9.6380773e-06
7.4123263e-06
5.5825388e-06
4.0893543e-06
2.887433e-06
1.9251567e-06
1.1854317e-06
6.1593009e-07
2.3772132e-07
7.570942e-08
6.0572782e-05
8.0807106e-05
0.00010645498
0.0001358821
0.00016669006
0.0001971238
0.00022576969
0.00025144982
0.000273245
0.00029053533
0.00030299423
0.0003105509
0.00031334787
0.00031169884
0.00030604489
0.00029691118
0.00028486856
0.00027050125
0.00025438015
0.00023704292
0.00021898044
0.0002006281
0.0001823613
0.00016449425
0.00014728123
0.00013091986
0.0001155555
0.00010128657
8.8170254e-05
7.6228486e-05
6.5453772e-05
5.5814851e-05
4.7261979e-05
3.9731756e-05
3.3151437e-05
2.7442679e-05
2.252472e-05
1.8316992e-05
1.4741207e-05
1.1722898e-05
9.192671e-06
7.0866182e-06
5.3476523e-06
3.9234364e-06
2.7717134e-06
1.8494244e-06
1.1321195e-06
5.9286383e-07
2.06535e-07
7.7832168e-08
4.3849793e-05
4.8654555e-05
5.9921299e-05
7.6244915e-05
9.5812376e-05
0.00011714847
0.0001389743
0.00016013592
0.00017963598
0.00019668283
0.00021070795
0.00022135663
0.00022846858
0.0002320544
0.0002322676
0.00022937351
0.00022371767
0.00021569674
0.00020573285
0.0001942515
0.00018166409
0.00016835497
0.00015467223
0.00014092204
0.00012736566
0.00011421885
0.00010165316
8.9798389e-05
7.8746171e-05
6.855408e-05
5.9250131e-05
5.0837389e-05
4.3298509e-05
3.6600074e-05
3.0696612e-05
2.5534214e-05
2.105371e-05
1.7193372e-05
1.3891154e-05
1.1086455e-05
8.7215391e-06
6.7423391e-06
5.0996221e-06
3.7482115e-06
2.6498211e-06
1.7690095e-06
1.0772888e-06
5.6692594e-07
1.8185989e-07
8.1251229e-08
5.2359872e-05
4.4762006e-05
4.3778754e-05
4.8286165e-05
5.7016876e-05
6.8836758e-05
8.270665e-05
9.762086e-05
0.00011264097
0.00012694792
0.00013987105
0.00015089641
0.00015966543
0.00016596788
0.00016972904
0.00017099157
0.00016989403
0.00016664844
0.0001615185
0.00015479953
0.00014680061
0.00013782959
0.00012818138
0.000118129
0.00010791745
9.7759866e-05
8.7835736e-05
7.8290752e-05
6.9237999e-05
6.0760106e-05
5.2912105e-05
4.5724728e-05
3.9207937e-05
3.3354507e-05
2.8143502e-05
2.3543559e-05
1.9515863e-05
1.6016788e-05
1.3000158e-05
1.0419114e-05
8.2276488e-06
6.3816746e-06
4.8401182e-06
3.5650425e-06
2.5228845e-06
1.6849859e-06
1.0218017e-06
5.3899686e-07
1.6298621e-07
8.3301382e-08
7.8318083e-05
6.1262466e-05
5.0411354e-05
4.4911933e-05
4.3954587e-05
4.6736582e-05
5.2490899e-05
6.0422404e-05
6.9736097e-05
7.9686241e-05
8.9608501e-05
9.893674e-05
0.00010721281
0.00011409159
0.00011934028
0.00012283198
0.00012453455
0.00012449662
0.00012283196
0.00011970357
0.00011530825
0.00010986243
0.00010358969
9.6710523e-05
8.943411e-05
8.1952271e-05
7.4435242e-05
6.7029214e-05
5.9855318e-05
5.3009816e-05
4.656523e-05
4.057219e-05
3.5061753e-05
3.0048025e-05
2.5530909e-05
2.1498833e-05
1.7931369e-05
1.4801632e-05
1.2078432e-05
9.7281226e-06
7.7161686e-06
6.008361e-06
4.5718875e-06
3.3760338e-06
2.3925162e-06
1.5987571e-06
9.6657644e-07
5.1009298e-07
1.4901554e-07
8.2938902e-08
0.00011565909
9.1779338e-05
7.338881e-05
5.9864761e-05
5.0751932e-05
4.5531786e-05
4.3693472e-05
4.4665097e-05
4.7832456e-05
5.2580844e-05
5.8324604e-05
6.4525636e-05
7.0707913e-05
7.6469262e-05
8.1488799e-05
8.5529277e-05
8.84348e-05
9.0124879e-05
9.0585801e-05
8.9860166e-05
8.8035535e-05
8.5232881e-05
8.1595533e-05
7.7279099e-05
7.2442769e-05
6.7242067e-05
6.1823171e-05
5.6318706e-05
5.0844975e-05
4.5500393e-05
4.0365011e-05
3.5500886e-05
3.0953135e-05
2.6751472e-05
2.2912073e-05
1.9439609e-05
1.6329333e-05
1.3569105e-05
1.1141292e-05
9.0244783e-06
7.1949647e-06
5.6280291e-06
4.2989705e-06
3.1841403e-06
2.2608459e-06
1.5120065e-06
9.1254864e-07
4.8122155e-07
1.388966e-07
8.0297767e-08
0.00015977522
0.00013129356
0.00010746185
8.7837324e-05
7.2219801e-05
6.0313792e-05
5.1823142e-05
4.6379534e-05
4.3551463e-05
4.2876924e-05
4.3887334e-05
4.612358e-05
4.9150526e-05
5.2570923e-05
5.6036795e-05
5.9257139e-05
6.2001842e-05
6.4102228e-05
6.5448668e-05
6.5985759e-05
6.5705673e-05
6.4640345e-05
6.2853101e-05
6.0430263e-05
5.7473203e-05
5.4091174e-05
5.0395103e-05
4.6492511e-05
4.2483536e-05
3.8458098e-05
3.4494059e-05
3.0656294e-05
2.6996527e-05
2.3553776e-05
2.035527e-05
1.7417691e-05
1.4748611e-05
1.2348027e-05
1.0209885e-05
8.3235389e-06
6.6750866e-06
5.2485682e-06
4.0269556e-06
2.9933212e-06
2.1306027e-06
1.4267016e-06
8.6069604e-07
4.5330813e-07
1.3153327e-07
7.6065569e-08
0.00020724298
0.00017595355
0.0001484668
0.00012447336
0.00010394337
8.6743847e-05
7.2743308e-05
6.1740899e-05
5.3467492e-05
4.7609606e-05
4.3826856e-05
4.1763635e-05
4.1060881e-05
4.1368848e-05
4.2359086e-05
4.3734254e-05
4.5235419e-05
4.6646826e-05
4.7798177e-05
4.8564538e-05
4.8864166e-05
4.8654646e-05
4.7927815e-05
4.6703929e-05
4.50255e-05
4.2951188e-05
4.0550066e-05
3.7896469e-05
3.5065586e-05
3.2129873e-05
2.9156311e-05
2.620447e-05
2.3325324e-05
2.05607e-05
1.7943289e-05
1.549707e-05
1.323805e-05
1.1175221e-05
9.3116222e-06
7.6454521e-06
6.1711508e-06
4.8804427e-06
3.7632209e-06
2.8087081e-06
2.0052232e-06
1.345142e-06
8.121066e-07
4.2718918e-07
1.259513e-07
7.0986544e-08
0.00025557385
0.00022287238
0.00019318504
0.00016629801
0.00014228526
0.00012112407
0.0001027995
8.7237371e-05
7.4299955e-05
6.3802671e-05
5.5525668e-05
4.9220893e-05
4.4620063e-05
4.144459e-05
3.9415928e-05
3.8265081e-05
3.7740828e-05
3.7616454e-05
3.7694776e-05
3.7811328e-05
3.7835685e-05
3.7671086e-05
3.7252583e-05
3.6544041e-05
3.5534296e-05
3.4232815e-05
3.266516e-05
3.086855e-05
2.8887692e-05
2.6771097e-05
2.4567928e-05
2.2325483e-05
2.0087282e-05
1.7891754e-05
1.5771453e-05
1.3752745e-05
1.1855861e-05
1.0095253e-05
8.4801487e-06
7.0152516e-06
5.7014981e-06
4.5368661e-06
3.5170971e-06
2.6367412e-06
1.8889613e-06
1.2700416e-06
7.6808214e-07
4.0366975e-07
1.2148052e-07
6.5635824e-08
0.0003030022
0.000269937
0.00023918875
0.00021061091
0.00018433277
0.00016040059
0.00013887518
0.00011977077
0.00010304782
8.8624195e-05
7.6382257e-05
6.6171978e-05
5.7815274e-05
5.1112561e-05
4.5850462e-05
4.1809537e-05
3.8771715e-05
3.6527151e-05
3.4880238e-05
3.3654468e-05
3.2695967e-05
3.1875638e-05
3.1089963e-05
3.0260566e-05
2.933274e-05
2.827315e-05
2.7066951e-05
2.5714571e-05
2.4228392e-05
2.2629501e-05
2.0944679e-05
1.9203742e-05
1.7437289e-05
1.5674914e-05
1.3943863e-05
1.2268119e-05
1.0667871e-05
9.1593036e-06
7.7546525e-06
6.4624649e-06
5.2879957e-06
4.2337234e-06
3.2998593e-06
2.485199e-06
1.7869373e-06
1.2045905e-06
7.3022343e-07
3.835974e-07
1.1785637e-07
6.0403661e-08
0.00034831269
0.00031564146
0.00028469237
0.00025536623
0.00022781446
0.00020212199
0.00017839355
0.00015669981
0.00013706895
0.00011949416
0.00010393747
9.0330107e-05
7.8573867e-05
6.854467e-05
6.0097434e-05
5.3071475e-05
4.7296219e-05
4.2596991e-05
3.880067e-05
3.574087e-05
3.326239e-05
3.1224768e-05
2.9504836e-05
2.7998234e-05
2.6619941e-05
2.5303894e-05
2.4001854e-05
2.2681679e-05
2.1325184e-05
1.9925776e-05
1.8486008e-05
1.7015214e-05
1.5527317e-05
1.4038898e-05
1.2567572e-05
1.1130697e-05
9.7444103e-06
8.4229614e-06
7.1783305e-06
6.0200726e-06
4.9553503e-06
3.9891342e-06
3.1244627e-06
2.3630528e-06
1.7050732e-06
1.1524534e-06
7.0046309e-07
3.6791949e-07
1.1520429e-07
5.5554424e-08
0.00039070308
0.00035894746
0.00032841975
0.00029905471
0.00027100464
0.00024437227
0.00021928318
0.00019583976
0.00017411281
0.00015414651
0.0001359603
0.00011954748
0.00010487463
9.1882771e-05
8.0489867e-05
7.0593932e-05
6.2076753e-05
5.4808065e-05
4.8650049e-05
4.3461866e-05
3.9104005e-05
3.5442215e-05
3.235088e-05
2.9715693e-05
2.743557e-05
2.5423784e-05
2.3608356e-05
2.1931774e-05
2.0350151e-05
1.8831949e-05
1.7356406e-05
1.5911793e-05
1.4493617e-05
1.3102888e-05
1.1744507e-05
1.0425851e-05
9.1555845e-06
7.9427018e-06
6.7958144e-06
5.722659e-06
4.7298052e-06
3.8225544e-06
3.0049413e-06
2.2800831e-06
1.6498636e-06
1.1176586e-06
6.8101097e-07
3.5769037e-07
1.1392331e-07
5.1268921e-08
0.00042967689
0.00039917073
0.00036949031
0.00034059564
0.00031262743
0.00028569268
0.00025992224
0.00023543246
0.0002123175
0.00019065278
0.00017049565
0.00015188319
0.00013483047
0.00011933019
0.0001053533
9.2850343e-05
8.1753328e-05
7.1978212e-05
6.3427954e-05
5.5995886e-05
4.9569292e-05
4.403296e-05
3.927258e-05
3.5177806e-05
3.1644876e-05
2.8578684e-05
2.5894276e-05
2.3517744e-05
2.1386554e-05
1.944937e-05
1.7665455e-05
1.6003744e-05
1.4441688e-05
1.2963975e-05
1.1561204e-05
1.0228598e-05
8.9648183e-06
7.7709055e-06
6.6493947e-06
5.6036014e-06
4.6370877e-06
3.7533095e-06
2.9553853e-06
2.2461929e-06
1.6279356e-06
1.1043435e-06
6.7419887e-07
3.5401716e-07
1.1453407e-07
4.7660034e-08
0.00046495872
0.00043588899
0.00040732333
0.00037924159
0.00035176645
0.00032500114
0.00029907201
0.00027409747
0.00025018136
0.00022741537
0.00020587916
0.00018563796
0.00016674028
0.00014921667
0.00013307928
0.00011832176
0.0001049198
9.2832144e-05
8.2002244e-05
7.2360335e-05
6.3825945e-05
5.631062e-05
4.9720795e-05
4.3960641e-05
3.8934775e-05
3.4550693e-05
3.0720865e-05
2.7364393e-05
2.4408218e-05
2.178787e-05
1.9447771e-05
1.7341158e-05
1.5429675e-05
1.3682707e-05
1.2076542e-05
1.0593429e-05
9.2205941e-06
7.9492887e-06
6.773898e-06
5.691155e-06
4.6994772e-06
3.7984491e-06
2.9884131e-06
2.2703552e-06
1.6453527e-06
1.116325e-06
6.8221575e-07
3.579404e-07
1.1754141e-07
4.4782492e-08
0.00049642869
0.0004688688
0.00044155961
0.00041449756
0.00038778476
0.00036151644
0.00033580899
0.00031077556
0.00028652058
0.00026314155
0.00024072886
0.00021936355
0.00019911497
0.00018003921
0.00016217797
0.00014555769
0.00013018914
0.00011606732
0.000103172
9.1468633e-05
8.0909764e-05
7.1436756e-05
6.2981871e-05
5.5470508e-05
4.8823555e-05
4.2959712e-05
3.7797697e-05
3.3258241e-05
2.9265801e-05
2.574993e-05
2.26463e-05
1.9897352e-05
1.7452607e-05
1.5268667e-05
1.3308961e-05
1.154328e-05
9.9471773e-06
8.5012794e-06
7.190561e-06
6.0036384e-06
4.9321084e-06
3.9699766e-06
3.1131529e-06
2.3591931e-06
1.7066561e-06
1.156491e-06
7.0673705e-07
3.7025462e-07
1.2332832e-07
4.2646202e-08
0.00052406605
0.00049800227
0.00047199245
0.00044604771
0.0004202495
0.00039468333
0.00036945318
0.00034466301
0.0003204124
0.00029679784
0.00027391248
0.00025184421
0.00023067354
0.000210472
0.00019130072
0.00017320922
0.00015623439
0.00014039976
0.00012571516
0.00011217677
9.9767537e-05
8.845805e-05
7.8207679e-05
6.8966082e-05
6.0674938e-05
5.3269827e-05
4.6682202e-05
4.0841322e-05
3.5676115e-05
3.111684e-05
2.7096551e-05
2.3552268e-05
2.0425879e-05
1.7664734e-05
1.5221981e-05
1.3056634e-05
1.1133441e-05
9.422587e-06
7.8992677e-06
6.5431986e-06
5.3380884e-06
4.2711276e-06
3.3324902e-06
2.5150133e-06
1.8135208e-06
1.2259334e-06
7.4840601e-07
3.9124885e-07
1.3205643e-07
4.1226797e-08
0.00054791202
0.00052326405
0.00049851934
0.00047370283
0.00044887643
0.00042411582
0.00039951215
0.00037515861
0.00035114714
0.00032756932
0.00030451607
0.00028207612
0.00026033427
0.00023936989
0.0002192555
0.00020005549
0.00018182476
0.00016460771
0.00014843734
0.00013333471
0.00011930862
0.00010635575
9.4461008e-05
8.3598272e-05
7.3731445e-05
6.4815739e-05
5.6799166e-05
4.9624172e-05
4.3229332e-05
3.7551025e-05
3.2525047e-05
2.8088071e-05
2.4178931e-05
2.0739678e-05
1.771641e-05
1.5059849e-05
1.2725696e-05
1.0674773e-05
8.8729883e-06
7.2911586e-06
5.9047245e-06
4.6934091e-06
3.6408217e-06
2.7341727e-06
1.9636213e-06
1.3232134e-06
8.0640087e-07
4.2049819e-07
1.4361167e-07
4.047382e-08
0.00056801351
0.00054464869
0.00052107348
0.00049732618
0.00047345107
0.00044951485
0.00042559664
0.00040177892
0.00037814508
0.00035477995
0.00033176955
0.00030919993
0.00028715571
0.00026571891
0.00024496758
0.00022497458