/*--------------------------------*- C++ -*----------------------------------*\
  =========                 |
  \\      /  F ield         | OpenFOAM: The Open Source CFD Toolbox
   \\    /   O peration     | Website:  https://openfoam.org
    \\  /    A nd           | Version:  6
     \\/     M anipulation  |
\*---------------------------------------------------------------------------*/
FoamFile
{
    version     2.0;
    format      ascii;
    class       surfaceScalarField;
    location    "42";
    object      phi_0;
}
// * * * * * * * * * * * * * * * * * * * * * * * * * * * * * * * * * * * * * //

dimensions      [0 3 -1 0 0 0 0];

internalField   nonuniform List<scalar> 
18180
(
0.00032088526
-0.00016739865
-0.00015348658
0.0013178433
-0.0013843089
0.00038735089
0.0030525696
-0.003368894
0.0016341678
0.0055853381
-0.0060336321
0.0035008637
0.0089746948
-0.0093235346
0.0059341779
0.013275417
-0.013194987
0.0088942641
0.0185358
-0.017610292
0.01234991
0.024794626
-0.022534916
0.01627609
0.032077967
-0.027934329
0.020650988
0.040396062
-0.033771375
0.02545328
0.049740608
-0.040004511
0.030659965
0.060082827
-0.0465869
0.036244681
0.071372729
-0.053466341
0.04217644
0.08354002
-0.060586077
0.048418786
0.096497271
-0.067886545
0.054929293
0.11014587
-0.075308205
0.06165961
0.12438415
-0.082795266
0.068556984
0.13912274
-0.090300018
0.075561431
0.15435801
-0.097804683
0.082569413
-0.10530672
0.089378746
0.17028598
0.00039994916
-0.00056734779
0.0016192933
-0.002603653
0.0037111953
-0.005460796
0.0067265393
-0.0090489761
0.010712015
-0.01330901
0.015706391
-0.018189363
0.021736441
-0.023640342
0.028812927
-0.029611402
0.036926929
-0.036048331
0.046046936
-0.042891382
0.056117128
-0.050074704
0.067057222
-0.057526993
0.078764109
-0.065173228
0.091115382
-0.07293735
0.10397452
-0.080745687
0.11719715
-0.088530827
0.13063731
-0.096235427
0.14415439
-0.1038171
0.15761209
-0.11126239
-0.11850243
0.1708078
0.00048335691
-0.0010507047
0.001929338
-0.004049634
0.004376164
-0.007907622
0.0078583259
-0.012531138
0.012402265
-0.01785295
0.018020895
-0.023807992
0.024708462
-0.030327909
0.032436245
-0.037339184
0.04114952
-0.044761606
0.050766306
-0.052508169
0.061178254
-0.060486651
0.072253839
-0.068602578
0.083843743
-0.076763132
0.095787979
-0.084881586
0.10792401
-0.09288172
0.12009479
-0.10070161
0.1321555
-0.10829614
0.14397701
-0.11563861
0.15543833
-0.1227237
-0.12950247
0.16643836
0.00056915099
-0.0016198556
0.0022393307
-0.0057198137
0.0050255685
-0.01069386
0.0089373153
-0.016442885
0.013971078
-0.022886712
0.020103478
-0.029940392
0.02728588
-0.037510312
0.035441067
-0.045494371
0.044462407
-0.053782945
0.054215891
-0.062261653
0.064545082
-0.070815841
0.075278599
-0.079336095
0.086239456
-0.087723989
0.097255216
-0.095897345
0.10816781
-0.10379432
0.11884189
-0.11137569
0.12917081
-0.11862505
0.13907914
-0.12554694
0.14851945
-0.13216401
-0.1384768
0.15749379
0.00065405672
-0.0022739123
0.0025362033
-0.0076019603
0.0056291646
-0.013786821
0.0099079351
-0.020721655
0.015329314
-0.028308091
0.021824339
-0.036435416
0.029294022
-0.044979996
0.037608588
-0.053808937
0.046610429
-0.062784786
0.056120664
-0.071771889
0.065948642
-0.080643819
0.075903298
-0.089290751
0.085805002
-0.097625693
0.095496422
-0.10558877
0.10485112
-0.11314902
0.11377905
-0.12030361
0.12222849
-0.12707449
0.13018478
-0.13350323
0.13766567
-0.13964491
-0.14554436
0.14473322
0.00073391326
-0.0030078256
0.0028040727
-0.0096721198
0.0061518475
-0.017134596
0.010708803
-0.02527861
0.016383753
-0.033983042
0.023055926
-0.043107589
0.030573406
-0.052497476
0.038756446
-0.061991976
0.047405225
-0.071433566
0.056311096
-0.08067776
0.065269768
-0.089602491
0.074094609
-0.098115592
0.082628247
-0.10615933
0.090751026
-0.11371154
0.098385383
-0.12078338
0.10549601
-0.12741423
0.11208629
-0.13366477
0.11819207
-0.13960902
0.12387403
-0.14532687
-0.15089018
0.12921986
0.00080401535
-0.0038118409
0.003025629
-0.011893733
0.0065570114
-0.020665978
0.011279177
-0.030000776
0.0170478
-0.039751665
0.02368875
-0.049748538
0.031000721
-0.059809448
0.038763501
-0.069754756
0.046750479
-0.079420544
0.054743411
-0.088670692
0.062547079
-0.097406159
0.070001604
-0.10557012
0.076990735
-0.11314846
0.083445177
-0.12016599
0.089341
-0.1266792
0.094693898
-0.13276713
0.099550715
-0.13852159
0.10397986
-0.14403817
0.10806224
-0.14940925
-0.15471632
0.11188839
0.00085923733
-0.0046710782
0.0031830793
-0.014217575
0.0068092883
-0.024292187
0.011564471
-0.034755959
0.017250438
-0.045437631
0.023643699
-0.0561418
0.030503164
-0.066668914
0.037583227
-0.076834819
0.04464973
-0.086487046
0.051495926
-0.095516888
0.057955656
-0.10386589
0.063911699
-0.11152616
0.069298351
-0.11853511
0.074098357
-0.12496599
0.078335353
-0.13091619
0.082063492
-0.13649527
0.085356217
-0.14181431
0.088295901
-0.14697785
0.090965637
-0.15207898
-0.15719601
0.093445319
0.00089321275
-0.0055642909
0.0032581891
-0.016582552
0.0068768017
-0.0279108
0.01152141
-0.039400568
0.016944102
-0.050860323
0.022881279
-0.062078976
0.029066331
-0.072853966
0.035246282
-0.08301477
0.041198915
-0.092439679
0.046747028
-0.101065
0.051767274
-0.10888613
0.056192395
-0.11595128
0.060007117
-0.12234984
0.063239071
-0.12819795
0.06594681
-0.13362393
0.068207147
-0.13875561
0.070103722
-0.14371089
0.071718147
-0.14859227
0.073124311
-0.15348515
-0.15845727
0.07438557
0.00090242982
-0.0064667207
0.0032418213
-0.018921943
0.0067448061
-0.031413784
0.011133483
-0.043789245
0.01611906
-0.0558459
0.02141145
-0.067371366
0.026735767
-0.078178282
0.031850246
-0.088129249
0.036561662
-0.097151095
0.040735054
-0.10523839
0.044296187
-0.11244727
0.047226888
-0.11888198
0.049554841
-0.12467779
0.051340233
-0.12998334
0.052661766
-0.13494547
0.05360417
-0.13969801
0.054248629
-0.14435535
0.054666715
-0.14901036
0.054917637
-0.15373607
0.055047203
-0.15858683
-0.00020369635
0.00020369637
5.2698842e-12
-0.00068197105
0.00047827472
1.5780231e-11
-0.0013505049
0.00066853387
1.8931338e-11
-0.0021447066
0.00079420175
1.9848138e-11
-0.0030126243
0.00086791775
1.9545037e-11
-0.0039118255
0.00089920118
1.5494088e-11
-0.0048071402
0.00089531476
8.6013706e-12
-0.0056687738
0.00086163361
-4.5349093e-12
-0.0064708214
0.0008020477
-2.1480577e-11
-0.0071901057
0.00071928438
-4.6913208e-11
-0.0078052484
0.00061514284
-7.6178181e-11
-0.0082959264
0.00049067823
-1.160285e-10
-0.0086422843
0.0003463581
-1.594704e-10
-0.0088244933
0.00018220919
-2.1638511e-10
-0.0088224891
-2.0038309e-06
-2.7576078e-10
-0.0086159932
-0.00020649546
-3.5198234e-10
-0.0081847764
-0.00043121631
-4.2910908e-10
-0.0075082485
-0.00067652732
-5.2465812e-10
-0.0065650416
-0.00094320624
-6.154914e-10
-0.0012175622
-0.0053474788
-7.1505967e-10
-0.00018913391
0.0003928303
-0.00062867645
0.00091781729
-0.0012356666
0.001275524
-0.0019456168
0.001504152
-0.0027059485
0.0016282495
-0.0034730239
0.0016662766
-0.0042099777
0.0016322685
-0.0048848898
0.0015365457
-0.0054693337
0.0013864917
-0.0059372297
0.0011871804
-0.0062639195
0.00094183262
-0.0064254152
0.00065217396
-0.0063977868
0.00031872974
-0.0061566744
-5.8903088e-05
-0.0056769562
-0.00048172199
-0.0049326626
-0.00095078902
-0.0038971889
-0.0014666901
-0.0025432168
-0.0020304994
-0.00084255687
-0.0026438661
-0.0032768174
0.0012166983
-0.00015978494
0.00055261526
-0.0005215016
0.001279534
-0.0010054603
0.0017594828
-0.0015478925
0.0020465842
-0.0020953802
0.0021757373
-0.0026022416
0.0021731381
-0.0030285684
0.0020585954
-0.0033385426
0.00184652
-0.0034990781
0.0015470272
-0.0034787333
0.0011668357
-0.0032468192
0.00070991858
-0.0027726699
0.00017802471
-0.0020250021
-0.00042893809
-0.00097139566
-0.0011125095
0.00042214167
-0.0018752593
0.0021914619
-0.0027201092
0.0043742455
-0.0036494737
0.0070096884
-0.0046659422
0.010138424
-0.0057726018
-0.0069190394
0.013780646
-0.00011802225
0.00067063754
-0.00036818887
0.0015297006
-0.00067521024
0.0020665042
-0.00097634274
0.0023477167
-0.0012170735
0.002416468
-0.0013489738
0.0023050384
-0.0013280287
0.0020376504
-0.0011131693
0.0016316605
-0.00066506614
0.0010989241
5.4831068e-05
0.00044693851
0.0010850853
-0.0003203356
0.0024649227
-0.0012018127
0.0042347806
-0.002198796
0.0064367909
-0.0033145197
0.0091152888
-0.0045537573
0.012317375
-0.0059221948
0.016093293
-0.0074253927
0.020496138
-0.0090687868
0.025581631
-0.010858095
-0.012718629
0.031381221
-6.6914567e-05
0.00073755213
-0.00017874924
0.0016415353
-0.00026481308
0.0021525681
-0.00026334039
0.002346244
-0.00011843203
0.0022715597
0.00022158951
0.0019650169
0.00080551626
0.0014537236
0.0016804314
0.00075674545
0.002892686
-0.00011333045
0.0044886874
-0.0011490629
0.0065154636
-0.0023471118
0.009021077
-0.0037074261
0.012054947
-0.0052326659
0.015668171
-0.0069277438
0.019913887
-0.0087994733
0.024847882
-0.01085619
0.030529465
-0.013106976
0.037021984
-0.015561306
0.044393604
-0.018229714
-0.021012627
0.052687601
-9.5445941e-06
0.00074709674
3.6586998e-05
0.0015954038
0.00020512418
0.0019840309
0.00055718847
0.0019941798
0.0011503329
0.0016784152
0.0020397025
0.0010756474
0.0032789999
0.00021442622
0.0049213703
-0.00088562494
0.0070200559
-0.002212016
0.0096287648
-0.0037577717
0.012801875
-0.0055202215
0.016594525
-0.0075000766
0.021062528
-0.0097006692
0.026262185
-0.012127401
0.032250157
-0.014787445
0.039083731
-0.017689763
0.046821969
-0.020845214
0.055527764
-0.024267101
0.065271693
-0.027973643
-0.031846427
0.076105493
5.1604359e-05
0.0006954924
0.00026925641
0.0013777517
0.00071685333
0.001536434
0.0014553078
0.0012557254
0.0025439222
0.00058980077
0.004041145
-0.00042157537
0.0060051599
-0.0017495886
0.0084942637
-0.0033747287
0.011566986
-0.0052847386
0.015282047
-0.0074728329
0.019698068
-0.0099362425
0.024873021
-0.012675029
0.03086346
-0.015691109
0.037723596
-0.018987536
0.045504307
-0.022568157
0.054252549
-0.026438005
0.0640121
-0.030604765
0.074826907
-0.035081908
0.08675003
-0.039896766
-0.044932865
0.099836468
0.00011501514
0.00058047728
0.00051350404
0.00097926287
0.0012576655
0.0007922726
0.0024084482
0.00010494265
0.0040266549
-0.0010284059
0.0061732707
-0.0025681911
0.0089094259
-0.0044857438
0.012296202
-0.0067615043
0.016394201
-0.0093827379
0.021262776
-0.012341407
0.026958955
-0.015632422
0.033536083
-0.019252157
0.04104219
-0.023197216
0.049518145
-0.027463491
0.058995714
-0.032045726
0.069495889
-0.03693818
0.081028649
-0.042137524
0.093596014
-0.047649273
0.10720347
-0.05350422
-0.059622549
0.12189315
0.00018003522
0.00040044208
0.00076627979
0.00039301832
0.0018197857
-0.00026123328
0.0034012164
-0.001476488
0.0055718174
-0.0031990069
0.0083931353
-0.005389509
0.011926366
-0.0080189741
0.016231397
-0.011066536
0.021365493
-0.014516834
0.027381627
-0.018357542
0.034326515
-0.022577309
0.042238364
-0.027164006
0.051144412
-0.032103264
0.061058252
-0.037377331
0.071976971
-0.042964444
0.083878136
-0.048839345
0.096717595
-0.054976983
0.11043081
-0.06136249
0.12494625
-0.068019654
-0.074953275
0.14027697
0.00024695551
0.0010273247
0.0024002593
0.0044246349
0.0071598059
0.010664561
0.014995497
0.020205051
0.026339206
0.033434943
0.041517599
0.050598274
0.06067145
0.071712905
0.083677754
0.09649802
0.11007802
0.12427696
0.13882672
0.15325219
-0.0033688373
-0.0019786404
-1.105236e-09
-0.0011034021
-0.002265434
-1.2614735e-09
0.0014268812
-0.002530282
-1.3990512e-09
0.0041648583
-0.0027379757
-1.507607e-09
0.0070838598
-0.0029190001
-1.5726523e-09
0.01016688
-0.0030830187
-1.5823321e-09
0.013395237
-0.0032283558
-1.523458e-09
0.016751139
-0.0033559005
-1.3670746e-09
0.020219138
-0.0034679982
-1.1021661e-09
0.023785293
-0.0035661545
-7.1595015e-10
0.027436611
-0.0036513174
-1.9959644e-10
0.03116098
-0.0037243696
4.5918048e-10
0.0349471
-0.0037861213
1.2753675e-09
0.038784351
-0.0038372535
2.2608954e-09
0.042662698
-0.0038783508
3.422794e-09
0.046572633
-0.0039099395
4.7558092e-09
0.050505132
-0.0039325056
6.243735e-09
0.054451634
-0.003946509
7.8511086e-09
0.058404023
-0.0039523992
9.5271697e-09
0.06235464
-0.0039506281
1.1195273e-08
0.066296287
-0.00394166
1.2761024e-08
0.070222253
-0.0039259798
1.410056e-08
0.074126337
-0.0039040993
1.5076441e-08
0.078002883
-0.0038765613
1.5525429e-08
0.081846811
-0.003843943
1.5286322e-08
0.085653655
-0.0038068588
1.4188146e-08
0.089419605
-0.0037659621
1.2093667e-08
0.093141544
-0.0037219478
8.8878082e-09
0.096817094
-0.0036755544
4.537894e-09
0.10044466
-0.0036275676
-9.2085357e-10
0.10402349
-0.0035788247
-7.313817e-09
0.10755373
-0.0035302187
-1.4355771e-08
0.11103645
-0.0034827044
-2.1581841e-08
0.11447379
-0.0034373035
-2.8412258e-08
0.11786893
-0.0033951099
-3.4105167e-08
0.12122626
-0.0033572927
-3.7887412e-08
0.12455139
-0.0033250964
-3.8936634e-08
0.12785127
-0.0032998353
-3.6604608e-08
0.13113418
-0.0032828852
-3.0380827e-08
0.13440984
-0.0032756409
-2.0207195e-08
0.13768939
-0.0032795389
-6.3379229e-09
0.14098515
-0.0032957769
1.0360909e-08
0.1443111
-0.003325973
2.8563905e-08
0.14768074
-0.0033696845
4.6521912e-08
0.15111303
-0.0034323552
6.2328659e-08
0.15461313
-0.003500173
7.4106549e-08
0.15823603
-0.003622979
8.0626194e-08
0.16189656
-0.0036606176
8.0389089e-08
0.16597009
-0.0040736059
7.6644869e-08
-0.0037719655
5.3091906e-08
0.0030770894
-0.0038390316
0.0052192434
-0.0044075881
0.0076128392
-0.0049238779
0.010195159
-0.0053202958
0.012945273
-0.0056691143
0.015851193
-0.0059889385
0.018896447
-0.00627361
0.022064865
-0.006524319
0.025342694
-0.0067458267
0.028717459
-0.0069409195
0.032177333
-0.0071111914
0.035711159
-0.0072581959
0.039308433
-0.007383396
0.042959197
-0.0074880169
0.046653957
-0.007573111
0.050383653
-0.0076396355
0.054139632
-0.0076884845
0.057913638
-0.0077205149
0.061697812
-0.0077365737
0.065484707
-0.0077375226
0.069267302
-0.0077242553
0.073039034
-0.0076977125
0.076793828
-0.0076588926
0.080526126
-0.0076088596
0.084230932
-0.0075487491
0.087903845
-0.0074797718
0.091541101
-0.007403218
0.095139614
-0.0073204615
0.098697024
-0.0072329644
0.10221174
-0.0071422829
0.10568299
-0.0070500761
0.10911089
-0.0069581149
0.11249648
-0.0068682932
0.11584181
-0.006782639
0.11915003
-0.0067033238
0.1224254
-0.0066326696
0.12567346
-0.0065731502
0.128901
-0.0065273786
0.13211621
-0.0064980948
0.13532865
-0.0064880778
0.13854931
-0.0065002001
0.14179039
-0.0065368604
0.14506574
-0.0066013187
0.14838876
-0.0066927056
0.15177837
-0.0068219684
0.1552397
-0.0069614993
0.15882753
-0.007210818
0.1624574
-0.0072904783
0.16649982
-0.0081160256
-0.0075250777
0.015394565
-0.0054529502
0.017272693
-0.0062857164
0.019378348
-0.0070295331
0.021641399
-0.0075833475
0.024050387
-0.0080781021
0.026602033
-0.0085405848
0.029284015
-0.0089555922
0.032083105
-0.0093234085
0.034988481
-0.0096512031
0.037990222
-0.0099426608
0.041078531
-0.0101995
0.044243887
-0.010423553
0.047477138
-0.010616646
0.050769429
-0.010780308
0.054112173
-0.010915855
0.057497044
-0.011024506
0.060915991
-0.011107432
0.064361252
-0.011165776
0.067825377
-0.011200699
0.071301254
-0.0112134
0.074782144
-0.011205146
0.078261718
-0.011177286
0.081734091
-0.011131266
0.085193868
-0.011068637
0.088636181
-0.010991062
0.092056729
-0.01090032
0.095451826
-0.010798315
0.098818437
-0.010687073
0.10215423
-0.010568755
0.10545761
-0.010445665
0.10872779
-0.010320259
0.11196484
-0.010195161
0.11516973
-0.01007318
0.11834441
-0.0099573249
0.12149191
-0.0098508186
0.12461635
-0.0097571102
0.12772307
-0.0096798773
0.1308187
-0.0096230084
0.13391119
-0.0095905864
0.13700988
-0.0095867617
0.14012552
-0.0096158401
0.14327009
-0.0096814366
0.14645726
-0.0097884868
0.14970032
-0.0099357652
0.15301808
-0.010139731
0.1564159
-0.010359316
0.15994763
-0.010742545
0.16353198
-0.010874834
0.16752549
-0.012109533
-0.0112583
0.0326098
-0.0066815289
0.034073731
-0.0077496479
0.035732133
-0.0086879352
0.037512103
-0.0093633174
0.039414578
-0.0099805771
0.041446232
-0.010572239
0.043600214
-0.011109574
0.045867281
-0.011590476
0.048240157
-0.012024079
0.050711938
-0.012414442
0.053275259
-0.012762821
0.055922525
-0.013070819
0.058646111
-0.013340233
0.061438393
-0.01357259
0.064291764
-0.013769226
0.067198679
-0.013931421
0.070151706
-0.014060459
0.07314358
-0.01415765
0.076167246
-0.014224365
0.079215915
-0.014262069
0.082283107
-0.014272338
0.085362704
-0.014256883
0.088448996
-0.014217557
0.091536723
-0.014156365
0.09462113
-0.014075468
0.097697999
-0.01397719
0.1007637
-0.013864019
0.10381524
-0.013738612
0.10685029
-0.013603807
0.10986726
-0.013462628
0.1128653
-0.013318303
0.11584442
-0.013174284
0.11880551
-0.013034266
0.12175039
-0.012902208
0.12468193
-0.012782355
0.12760407
-0.012679251
0.13052194
-0.012597746
0.1334419
-0.012542974
0.13637165
-0.012520333
0.13932022
-0.012535328
0.14229807
-0.012593695
0.14531692
-0.012700288
0.1483902
-0.012861762
0.15153108
-0.013076651
0.15475825
-0.013366895
0.1580775
-0.013678572
0.16154112
-0.01420616
0.16507322
-0.01440694
0.16900834
-0.01604465
-0.014976606
0.053374265
-0.0073681933
0.054263873
-0.0086392562
0.055310162
-0.0097342237
0.056447914
-0.01050107
0.057692338
-0.011225
0.059058057
-0.011937959
0.060543906
-0.012595423
0.062145336
-0.013191906
0.063858458
-0.0137372
0.065679008
-0.014234992
0.067601821
-0.014685634
0.069621002
-0.01509
0.071730185
-0.015449415
0.073922694
-0.015765099
0.076191645
-0.016038177
0.078530031
-0.016269807
0.080930813
-0.016461242
0.083387013
-0.016613849
0.085891782
-0.016729134
0.088438478
-0.016808765
0.091020728
-0.016854588
0.093632489
-0.016868643
0.096268098
-0.016853166
0.098922331
-0.016810598
0.10159045
-0.016743587
0.10426824
-0.016654984
0.10695208
-0.016547854
0.10963894
-0.016425469
0.11232646
-0.016291331
0.115013
-0.016149167
0.11769766
-0.016002963
0.12038035
-0.015856972
0.12306184
-0.015715756
0.12574383
-0.015584195
0.128429
-0.015467529
0.13112112
-0.015371366
0.13382506
-0.015301693
0.13654694
-0.015264854
0.13929415
-0.015267535
0.14207539
-0.015316574
0.14490083
-0.015419132
0.14778187
-0.015581326
0.15073169
-0.015811587
0.15376339
-0.016108347
0.15689547
-0.016498976
0.1601344
-0.016917505
0.16353034
-0.0176021
0.16701463
-0.017891224
0.17089332
-0.019923343
-0.018693343
0.076079002
-0.0073417018
0.076230898
-0.0087911521
0.076504628
-0.010007954
0.076857464
-0.010853906
0.077317959
-0.011685495
0.077903235
-0.012523235
0.078616624
-0.013308812
0.079458405
-0.014033687
0.080427227
-0.014706023
0.081520279
-0.015328045
0.082733675
-0.015899029
0.084062495
-0.01641882
0.085500955
-0.016887875
0.087042703
-0.017306847
0.088681022
-0.017676496
0.090408961
-0.017997746
0.092219452
-0.018271733
0.094105423
-0.01849982
0.096059905
-0.018683616
0.098076111
-0.018824972
0.10014752
-0.018925995
0.10226793
-0.018989054
0.10443154
-0.019016776
0.10663298
-0.019012044
0.1088674
-0.018978003
0.11113046
-0.018918043
0.11341841
-0.018835811
0.11572815
-0.018735205
0.11805721
-0.018620389
0.12040384
-0.0184958
0.12276705
-0.018366171
0.12514663
-0.018236556
0.12754324
-0.018112365
0.12995843
-0.017999387
0.13239474
-0.017903833
0.13485572
-0.017832347
0.13734605
-0.017792024
0.13987158
-0.017790387
0.14243942
-0.017835377
0.14505799
-0.017935138
0.1477371
-0.01809825
0.1504879
-0.018332121
0.15332331
-0.018647003
0.15625636
-0.019041395
0.1593054
-0.019548018
0.1624777
-0.0200898
0.16582091
-0.020945315
0.16927491
-0.021345219
0.17311257
-0.023761003
-0.022431657
0.098949019
-0.0064542523
0.098224017
-0.0080661495
0.097592265
-0.0093762011
0.097055379
-0.01031702
0.096649993
-0.011280109
0.096387566
-0.012260808
0.09627373
-0.013194976
0.096312836
-0.014072792
0.096504768
-0.014897954
0.096846597
-0.015669874
0.097334312
-0.016386744
0.097962872
-0.01704738
0.098726186
-0.01765119
0.099617439
-0.0181981
0.1006294
-0.018688453
0.10175457
-0.019122926
0.10298538
-0.019502535
0.10431421
-0.019828654
0.10573361
-0.020103012
0.10723631
-0.020327674
0.10881536
-0.020505043
0.11046415
-0.02063785
0.11217653
-0.020729154
0.1139468
-0.020782318
0.11576982
-0.020801016
0.11764099
-0.020789216
0.11955636
-0.020751176
0.1215126
-0.020691451
0.1235071
-0.020614891
0.12553796
-0.020526658
0.12760404
-0.020432253
0.12970502
-0.020337536
0.13184143
-0.020248767
0.13401468
-0.020172643
0.13622718
-0.020116334
0.13848234
-0.020087503
0.14078465
-0.02009433
0.14313975
-0.020145488
0.14555451
-0.02025014
0.14803708
-0.020417708
0.15059701
-0.020658178
0.15324515
-0.020980264
0.15599424
-0.021396094
0.15885723
-0.021904387
0.16185236
-0.022543147
0.16498775
-0.023225189
0.16830835
-0.024265913
0.17176333
-0.024800199
0.17558947
-0.027587152
-0.026224953
0.12010196
-0.0046630593
0.11844503
-0.0064092198
0.11684396
-0.0077751257
0.11538299
-0.0088560508
0.11409862
-0.0099957412
0.11298858
-0.011150772
0.1120586
-0.012264993
0.11131526
-0.01332945
0.1107583
-0.014341001
0.11038348
-0.015295053
0.11018532
-0.016188586
0.11015752
-0.01701958
0.11029287
-0.017786531
0.11058344
-0.018488677
0.11102096
-0.019125976
0.11159697
-0.019698927
0.11230294
-0.020208506
0.11313045
-0.020656164
0.11407125
-0.021043813
0.11511737
-0.021373799
0.11626121
-0.021648883
0.11749559
-0.021872223
0.1188138
-0.022047364
0.12020969
-0.02217821
0.1216777
-0.022269023
0.12321287
-0.022324394
0.12481095
-0.022349252
0.12646834
-0.022348845
0.12818221
-0.022328755
0.12995046
-0.022294909
0.13177181
-0.022253601
0.13364579
-0.022211524
0.13557284
-0.02217581
0.13755426
-0.022154069
0.13959236
-0.022154433
0.14169044
-0.02218558
0.14385287
-0.022256758
0.14608514
-0.022377764
0.14839395
-0.022558952
0.15078724
-0.022810995
0.15327432
-0.023145258
0.15586583
-0.023571767
0.1585743
-0.024104567
0.16141265
-0.024742738
0.16439901
-0.025529508
0.16754236
-0.026368539
0.17088485
-0.027608397
0.17438525
-0.028300601
0.1782429
-0.031444801
-0.030116367
0.13772266
-0.002108746
0.1352328
-0.0039193544
0.13270638
-0.0052487061
0.1303848
-0.0065344731
0.1282951
-0.0079060428
0.12641891
-0.0092745852
0.12475933
-0.010605412
0.12332169
-0.011891808
0.12210473
-0.013124038
0.121103
-0.014293329
0.12030935
-0.015394937
0.11971578
-0.01642601
0.11931367
-0.017384415
0.11909387
-0.018268883
0.11904696
-0.019079062
0.11916338
-0.019815341
0.1194336
-0.020478734
0.11984828
-0.021070842
0.12039829
-0.021593826
0.12107487
-0.022050378
0.12186967
-0.022443679
0.12277483
-0.022777381
0.12378304
-0.023055577
0.1248876
-0.023282776
0.12608247
-0.023463888
0.12736227
-0.023604197
0.12872237
-0.023709351
0.13015888
-0.023785356
0.13166871
-0.02383858
0.13324956
-0.023875759
0.13489998
-0.023904028
0.13661941
-0.02393095
0.13840816
-0.023964559
0.14026749
-0.024013401
0.14219964
-0.024086585
0.14420787
-0.024193806
0.14629649
-0.024345377
0.14847092
-0.024552197
0.15073775
-0.024825783
0.15310478
-0.02517802
0.15558114
-0.025621619
0.15817727
-0.026167901
0.16090557
-0.026832861
0.16377887
-0.027616043
0.16681522
-0.028565861
0.1700244
-0.029577715
0.17344569
-0.031029693
0.17704756
-0.031902471
0.18099118
-0.035388417
-0.034157442
0.15073217
0.00041127926
0.14746609
-0.00065327343
0.14419581
-0.0019784295
0.141178
-0.0035166666
0.13841585
-0.0051438919
0.13590339
-0.0067621205
0.13364278
-0.0083448089
0.13163438
-0.0098834029
0.12987599
-0.011365647
0.12836272
-0.012780058
0.12708708
-0.014119301
0.12604003
-0.015378958
0.12521176
-0.01655614
0.12459199
-0.017649116
0.12417017
-0.01865724
0.12393563
-0.019580802
0.12387779
-0.020420893
0.12398627
-0.021179324
0.12425101
-0.021858567
0.12466235
-0.022461718
0.12521112
-0.022992448
0.12588871
-0.023454969
0.12668713
-0.023853995
0.12759907
-0.024194713
0.12861793
-0.024482751
0.12973789
-0.024724155
0.13095391
-0.024925369
0.13226177
-0.025093221
0.13365812
-0.02523493
0.13514047
-0.025358104
0.13670721
-0.025470773
0.13835768
-0.025581421
0.14009215
-0.025699022
0.14191184
-0.025833098
0.14381901
-0.025993754
0.14581693
-0.02619172
0.14790992
-0.026438366
0.15010341
-0.026745686
0.15240395
-0.027126328
0.15481927
-0.027593338
0.15735838
-0.028160734
0.16003156
-0.028841079
0.16285105
-0.029652349
0.16582955
-0.030594547
0.16898512
-0.031721432
0.17232778
-0.032920367
0.17589533
-0.034597244
0.17966121
-0.035668355
0.18376113
-0.039488341
-0.038400415
0.18993288
0.0049691857
-0.19449079
0.1861656
0.003114005
0.18281752
0.0013696498
0.17971847
-0.00041762056
0.17683111
-0.0022565269
0.17413053
-0.004061535
0.17159881
-0.0058130918
0.16922724
-0.0075118308
0.16701218
-0.0091505934
0.16495177
-0.010719644
0.16304444
-0.012211974
0.16128842
-0.013622939
0.15968143
-0.014949141
0.15822054
-0.016188227
0.15690225
-0.01733895
0.15572253
-0.018401087
0.15467695
-0.01937531
0.15376073
-0.0202631
0.15296886
-0.021066697
0.15229619
-0.021789053
0.15173752
-0.02243378
0.15128766
-0.023005106
0.1509415
-0.023507835
0.1506941
-0.023947309
0.15054072
-0.024329368
0.15047689
-0.024660328
0.15049847
-0.024946947
0.15060166
-0.025196415
0.15078308
-0.025416349
0.15103977
-0.025614792
0.15136924
-0.025800242
0.15176949
-0.025981672
0.15223904
-0.026168574
0.15277695
-0.026371004
0.15338281
-0.026599613
0.15405677
-0.026865679
0.15479952
-0.027181123
0.15561231
-0.027558473
0.15649689
-0.028010907
0.15745554
-0.02855199
0.15849115
-0.029196343
0.15960715
-0.029957076
0.16080809
-0.030853291
0.16209859
-0.031885048
0.163487
-0.033109838
0.16497531
-0.034408683
0.16658699
-0.036208919
0.16828889
-0.037370256
0.1701982
-0.041397651
-0.040314575
0.21784536
0.0083240374
-0.22120021
0.21441708
0.0065422903
0.21125042
0.0045363062
0.20819324
0.0026395622
0.20519684
0.00073986841
0.20229226
-0.0011569527
0.19949661
-0.0030174421
0.19681469
-0.0048299113
0.19425267
-0.0065885699
0.19181766
-0.0082846386
0.1895152
-0.0099095142
0.18734904
-0.011456777
0.18532155
-0.012921649
0.18343383
-0.01430051
0.1816858
-0.015590911
0.18007628
-0.016791572
0.17860325
-0.017902282
0.17726395
-0.018923796
0.17605502
-0.019857768
0.17497266
-0.020706697
0.17401275
-0.021473867
0.17317093
-0.02216329
0.17244275
-0.022779657
0.17182374
-0.023328289
0.17130946
-0.023815093
0.17089566
-0.024246523
0.17057826
-0.024629548
0.17035347
-0.024971628
0.17021782
-0.025280704
0.17016823
-0.025565193
0.17020199
-0.025834004
0.17031688
-0.026096561
0.17051113
-0.026362831
0.17078349
-0.026643362
0.17113319
-0.026949312
0.17155997
-0.027292462
0.17206407
-0.027685223
0.17264619
-0.028140591
0.17330747
-0.028672188
0.17404949
-0.02929401
0.17487431
-0.030021157
0.17578453
-0.030867294
0.17678361
-0.031852372
0.17787579
-0.032977234
0.17906716
-0.034301201
0.18036304
-0.035704565
0.18177446
-0.037620341
0.18329772
-0.038893511
0.18496237
-0.04306231
-0.042069918
0.24468512
0.011007191
-0.24736828
0.24187785
0.0093495639
0.23906875
0.0073454011
0.23626806
0.0054402557
0.23343913
0.0035688033
0.23060264
0.001679532
0.22778986
-0.00020465635
0.22502032
-0.0020603729
0.2223102
-0.0038784508
0.21967567
-0.0056501109
0.21713088
-0.0073647273
0.21468717
-0.0090130633
0.21235351
-0.010587987
0.21013686
-0.012083861
0.2080423
-0.013496348
0.20607318
-0.014822459
0.2042314
-0.016060496
0.20251755
-0.017209944
0.20093116
-0.018271382
0.19947088
-0.019246417
0.19813462
-0.020137608
0.19691974
-0.020948404
0.19582315
-0.021683072
0.1948415
-0.02234664
0.19397125
-0.022944842
0.19320879
-0.023484066
0.19255056
-0.023971312
0.19199309
-0.024414157
0.19153312
-0.024820738
0.19116766
-0.025199732
0.19089402
-0.025560368
0.1907099
-0.025912434
0.19061337
-0.026266302
0.19060295
-0.026632948
0.19067761
-0.027023967
0.19083672
-0.027451577
0.1910801
-0.0279286
0.19140792
-0.028468412
0.19182071
-0.029084973
0.1923193
-0.029792602
0.19290487
-0.030606733
0.19357915
-0.031541568
0.19434439
-0.032617612
0.19520441
-0.033837251
0.19616279
-0.035259588
0.19722861
-0.036770385
0.19839886
-0.038790589
0.19970356
-0.040198214
0.2010695
-0.044428244
-0.043626986
0.27010049
0.013005354
-0.27209865
0.26796957
0.011480477
0.26566662
0.009648357
0.26326833
0.0078385479
0.26078326
0.0060538672
0.25822165
0.0042411446
0.25560965
0.0024073471
0.25297151
0.00057776131
0.25032743
-0.0012343708
0.24769753
-0.0030202041
0.24510133
-0.0047685271
0.24255625
-0.0064679871
0.24007736
-0.0081090932
0.23767751
-0.0096840118
0.23536741
-0.011186256
0.2331557
-0.012610748
0.23104907
-0.013953858
0.22905246
-0.015213334
0.22716928
-0.01638821
0.22540161
-0.017478743
0.22375034
-0.018486335
0.22221539
-0.019413458
0.2207959
-0.020263581
0.21949036
-0.021041096
0.21829676
-0.02175125
0.21721278
-0.022400087
0.21623586
-0.022994389
0.21536334
-0.023541633
0.21459256
-0.024049958
0.21392096
-0.024528135
0.21334616
-0.024985568
0.21286601
-0.025432281
0.21247864
-0.025878937
0.21218253
-0.026336836
0.21197648
-0.026817916
0.21185963
-0.027334732
0.21183145
-0.027900418
0.21189166
-0.028528617
0.21204018
-0.029233497
0.21227714
-0.030029565
0.21260284
-0.030932426
0.21301803
-0.03195676
0.21352378
-0.033123358
0.2141233
-0.034436771
0.21481792
-0.035954208
0.21561969
-0.037572164
0.2165133
-0.039684193
0.21755785
-0.04124276
0.21858704
-0.045457437
-0.044939614
0.29371275
0.014310183
-0.29501758
0.29226169
0.012931537
0.29056958
0.011340469
0.2887035
0.0097046318
0.28669873
0.0080586366
0.28456631
0.0063735608
0.28232477
0.0046488941
0.27999755
0.0029049724
0.27760612
0.0011570654
0.27517068
-0.00058476416
0.27271178
-0.0023096316
0.27024952
-0.0040057246
0.26780251
-0.0056620877
0.2653877
-0.0072691974
0.2630202
-0.0088187585
0.26071322
-0.010303763
0.25847798
-0.011718624
0.25632385
-0.013059195
0.25425836
-0.014322728
0.25228745
-0.015507831
0.25041553
-0.016614411
0.24864569
-0.017643618
0.24697987
-0.018597766
0.24541904
-0.019480265
0.24396334
-0.020295547
0.24261225
-0.021048998
0.24136476
-0.021746896
0.24021948
-0.022396352
0.23917478
-0.023005266
0.23822894
-0.023582291
0.23738018
-0.024136808
0.23662681
-0.024678911
0.23596727
-0.025219394
0.23540018
-0.025769744
0.23492437
-0.026342108
0.23453889
-0.026949254
0.23424297
-0.027604499
0.23403597
-0.028321616
0.2339173
-0.029114827
0.23388641
-0.029998671
0.23394272
-0.030988736
0.23408603
-0.032100077
0.23431622
-0.033353543
0.23463574
-0.034756291
0.23504396
-0.03636243
0.23555503
-0.038083233
0.23614371
-0.040272873
0.23689196
-0.041991009
0.23755598
-0.046121461
-0.045964904
0.3157079
0.014988004