/*--------------------------------*- C++ -*----------------------------------*\
  =========                 |
  \\      /  F ield         | OpenFOAM: The Open Source CFD Toolbox
   \\    /   O peration     | Website:  https://openfoam.org
    \\  /    A nd           | Version:  6
     \\/     M anipulation  |
\*---------------------------------------------------------------------------*/
FoamFile
{
    version     2.0;
    format      ascii;
    class       volScalarField;
    location    "320";
    object      p;
}
// * * * * * * * * * * * * * * * * * * * * * * * * * * * * * * * * * * * * * //

dimensions      [0 2 -2 0 0 0 0];

internalField   nonuniform List<scalar> 
9200
(
-0.37794899
-0.3666025
-0.35650883
-0.34755954
-0.33881985
-0.33030362
-0.32208914
-0.31414389
-0.30640057
-0.29878725
-0.29123096
-0.28366268
-0.27602423
-0.26827562
-0.2604056
-0.25244946
-0.24448354
-0.23659564
-0.2298107
-0.22841073
-0.39580969
-0.38201203
-0.36997473
-0.35950565
-0.34939393
-0.33962102
-0.33025567
-0.32123462
-0.31245837
-0.30382857
-0.29525204
-0.28664658
-0.2779485
-0.2691186
-0.2601478
-0.25106106
-0.24188823
-0.23262902
-0.22396638
-0.21806625
-0.41408737
-0.3978157
-0.38388069
-0.37196226
-0.36053383
-0.34952623
-0.33898694
-0.32881425
-0.31887446
-0.30904674
-0.29922677
-0.28933249
-0.27931083
-0.26914085
-0.25883355
-0.24842761
-0.2379618
-0.22744508
-0.21727669
-0.20857169
-0.43234796
-0.4136214
-0.39785405
-0.38454788
-0.37182299
-0.35954325
-0.347727
-0.33623356
-0.32490302
-0.31360736
-0.30225193
-0.29077851
-0.27916841
-0.26744028
-0.25564341
-0.24384761
-0.23211943
-0.22049775
-0.20925002
-0.19911736
-0.44996155
-0.42888312
-0.41140016
-0.39678333
-0.38277168
-0.36915132
-0.35591132
-0.3428827
-0.32989982
-0.31685461
-0.30369179
-0.29040519
-0.27703357
-0.26365077
-0.25035228
-0.23724102
-0.22440705
-0.2119089
-0.19993476
-0.18899204
-0.46610363
-0.44288186
-0.42385894
-0.40802088
-0.39271591
-0.37765244
-0.36280272
-0.34799509
-0.33309233
-0.31804269
-0.30286309
-0.28762412
-0.27243567
-0.2574289
-0.24273795
-0.22848485
-0.21476425
-0.20163203
-0.18921417
-0.17784746
-0.47976908
-0.45473131
-0.43440574
-0.41744654
-0.40082796
-0.38419655
-0.36753553
-0.35071129
-0.33365954
-0.3164242
-0.29912263
-0.28191596
-0.26498437
-0.2485035
-0.2326258
-0.21746914
-0.20310921
-0.18957714
-0.17693977
-0.16539829
-0.48979409
-0.46340131
-0.44208377
-0.42412701
-0.40618099
-0.38786433
-0.36921387
-0.3501863
-0.33083866
-0.3113455
-0.29194194
-0.27287928
-0.25439332
-0.23668092
-0.21988684
-0.2041009
-0.18936027
-0.17565681
-0.16299943
-0.15147537
-0.49483644
-0.46761662
-0.44560705
-0.42672651
-0.40739906
-0.38727746
-0.3665122
-0.34520746
-0.3235812
-0.30195416
-0.28067262
-0.26005544
-0.24036327
-0.22178286
-0.204425
-0.18833283
-0.17349423
-0.15985757
-0.14737776
-0.13604454
-0.49354571
-0.46596034
-0.443428
-0.42357971
-0.4027604
-0.38074053
-0.35784966
-0.33438532
-0.31074013
-0.28736419
-0.26467764
-0.24302145
-0.22263837
-0.20367205
-0.18617891
-0.17014677
-0.15551466
-0.14219309
-0.13009023
-0.11911095
-0.26506699
-0.26974127
-0.27224968
-0.27300083
-0.27278671
-0.2717942
-0.27010476
-0.26780592
-0.26496989
-0.26165141
-0.25789452
-0.25373672
-0.24921113
-0.24434783
-0.23917507
-0.23372173
-0.22801872
-0.22208653
-0.21592422
-0.2096173
-0.26779963
-0.27205866
-0.27426033
-0.2747928
-0.2743956
-0.27324688
-0.27142616
-0.26901731
-0.26608895
-0.26269299
-0.25887104
-0.25465853
-0.25008665
-0.24518349
-0.2399747
-0.23448817
-0.22876222
-0.22281575
-0.21654146
-0.20991342
-0.27312911
-0.27657608
-0.27817975
-0.2782845
-0.27752838
-0.2760741
-0.27399769
-0.27137574
-0.26826993
-0.26472654
-0.26078238
-0.25646864
-0.25181274
-0.24683893
-0.24156802
-0.23602502
-0.23025969
-0.22428977
-0.21781617
-0.21058113
-0.28081553
-0.28309998
-0.28383813
-0.28331415
-0.28202512
-0.28011418
-0.27765337
-0.27470942
-0.27133437
-0.26756666
-0.26343622
-0.25896814
-0.25418434
-0.24910333
-0.24373913
-0.23811158
-0.23228239
-0.22627392
-0.21954069
-0.21145514
-0.29055661
-0.29138735
-0.29102394
-0.28968269
-0.2876918
-0.28517358
-0.28219694
-0.27881728
-0.27507526
-0.27100005
-0.26661334
-0.26193196
-0.25697029
-0.25173992
-0.24624676
-0.24050228
-0.23457616
-0.22850396
-0.22148102
-0.21236502
-0.30203858
-0.30118599
-0.29951976
-0.29718921
-0.29433678
-0.29106539
-0.28744297
-0.28351393
-0.27930691
-0.27483944
-0.27012241
-0.26516337
-0.2599679
-0.25453918
-0.24887396
-0.24297241
-0.23690424
-0.23072439
-0.22339708
-0.21314383
-0.31498248
-0.31227087
-0.3091349
-0.30566402
-0.30180626
-0.29764831
-0.29326099
-0.28867732
-0.28391125
-0.27896781
-0.27384641
-0.26854334
-0.26305357
-0.25737073
-0.25148248
-0.24537719
-0.23911737
-0.23278061
-0.22516315
-0.21378128
-0.32917232
-0.32446695
-0.31972748
-0.31499324
-0.31001359
-0.30486196
-0.29961239
-0.29428571
-0.28888109
-0.28338916
-0.27779498
-0.27208055
-0.26622724
-0.26021659
-0.25402661
-0.24763674
-0.24110673
-0.23456014
-0.22674445
-0.21446557
-0.34445502
-0.33764183
-0.33118711
-0.32509019
-0.31889443
-0.31265863
-0.306462
-0.30031262
-0.29419206
-0.28807332
-0.28192354
-0.27570629
-0.26938382
-0.26291737
-0.25626252
-0.24937139
-0.24226828
-0.23505939
-0.22648738
-0.21304989
-0.36073172
-0.35168777
-0.3434016
-0.33583742
-0.32831916
-0.32089083
-0.31363668
-0.30654975
-0.29959153
-0.29271572
-0.28587121
-0.27900483
-0.27206424
-0.26499801
-0.2577503
-0.25025668
-0.24246006
-0.23415378
-0.223687
-0.20801828
-0.20246659
-0.1935183
-0.18456506
-0.17567086
-0.166782
-0.15794017
-0.14919887
-0.14059317
-0.13215233
-0.12390498
-0.11587689
-0.10809028
-0.10056426
-0.09331521
-0.086356702
-0.079699626
-0.073352274
-0.067320449
-0.061607563
-0.056214746
-0.051140971
-0.046383191
-0.041936491
-0.037794256
-0.033948343
-0.03038927
-0.027106413
-0.024088192
-0.021322275
-0.018795765
-0.016495385
-0.014407656
-0.012519061
-0.010816198
-0.0092859262
-0.0079154933
-0.0066926661
-0.0056058303
-0.0046441689
-0.0037975854
-0.0030575238
-0.0024149803
-0.0018676846
-0.0013989946
-0.0010444928
-0.00069461486
-0.0006879228
-8.0126832e-05
-0.0017060537
0.0024523269
-0.20347662
-0.19413108
-0.1850688
-0.17618893
-0.16728205
-0.15841004
-0.14964431
-0.14101634
-0.13255293
-0.12428325
-0.11623337
-0.10842538
-0.10087837
-0.093608798
-0.086630307
-0.079953845
-0.073587768
-0.06753794
-0.061807824
-0.056398593
-0.05130925
-0.046536771
-0.042076252
-0.03792108
-0.034063106
-0.030492834
-0.027199617
-0.024171852
-0.021397173
-0.018862648
-0.016554963
-0.014460598
-0.012565993
-0.010857704
-0.0093225475
-0.0079477281
-0.0067209703
-0.0056306184
-0.0046658148
-0.0038164236
-0.0030738488
-0.0024290502
-0.0018797004
-0.0014091655
-0.0010527486
-0.00070153586
-0.00069132529
-8.5942833e-05
-0.0016914955
0.0024237396
-0.20559531
-0.19539914
-0.18611942
-0.17730824
-0.16837777
-0.15944507
-0.15063172
-0.14195973
-0.1334493
-0.12513171
-0.11703429
-0.10917899
-0.10158504
-0.094269208
-0.087245433
-0.080524881
-0.074116116
-0.068025188
-0.062255712
-0.056808984
-0.051684097
-0.046878089
-0.04238609
-0.038201495
-0.034316142
-0.030720503
-0.02740388
-0.024354605
-0.021560236
-0.019007756
-0.016683758
-0.014574623
-0.012666691
-0.010946415
-0.0094005089
-0.008016075
-0.006780738
-0.0056827447
-0.004711143
-0.0038557053
-0.0031077451
-0.0024581372
-0.0019044362
-0.0014300021
-0.0010696103
-0.00071554783
-0.00069831538
-9.743257e-05
-0.0016629188
0.0023671788
-0.20866392
-0.19709106
-0.18749037
-0.17887815
-0.16995828
-0.16094889
-0.15208141
-0.14336048
-0.13479101
-0.1264094
-0.11824666
-0.1103248
-0.10266334
-0.095279907
-0.088189131
-0.081402704
-0.07492965
-0.068776425
-0.062946982
-0.05744288
-0.052263419
-0.047405784
-0.042865201
-0.038635114
-0.034707368
-0.031072407
-0.027719474
-0.024636812
-0.021811875
-0.019231518
-0.016882195
-0.01475014
-0.012821538
-0.011082684
-0.0095201294
-0.0081208195
-0.0068722223
-0.0057624319
-0.0047803486
-0.0039156006
-0.0031593602
-0.0025023689
-0.0019420015
-0.0014615984
-0.0010951583
-0.0007367138
-0.00070899205
-0.00011454811
-0.0016210713
0.002283869
-0.2124558
-0.19893631
-0.18891242
-0.18070098
-0.17187709
-0.16279368
-0.15388316
-0.1451296
-0.13650653
-0.12805755
-0.11982219
-0.11182356
-0.10408164
-0.096615482
-0.089441125
-0.082571284
-0.076015831
-0.06978196
-0.063874245
-0.058294745
-0.053043154
-0.048116954
-0.043511585
-0.039220627
-0.035235995
-0.031548141
-0.028146267
-0.025018534
-0.022152275
-0.019534196
-0.01715058
-0.014987472
-0.013030856
-0.011266817
-0.009681697
-0.0082622265
-0.0069956639
-0.0058698971
-0.0048736256
-0.0039962822
-0.0032288477
-0.0025618811
-0.0019925157
-0.0015040594
-0.0011294882
-0.00076510563
-0.00072350124
-0.00013718851
-0.0015670968
0.0021756954
-0.21662368
-0.20065443
-0.19011644
-0.18254356
-0.17396188
-0.16483608
-0.15590486
-0.14715311
-0.13850315
-0.13000019
-0.12169754
-0.11362283
-0.10579699
-0.098240989
-0.09097308
-0.084007773
-0.077356355
-0.071027224
-0.065025982
-0.059355532
-0.054016247
-0.049006139
-0.044321049
-0.03995484
-0.035899606
-0.032145892
-0.028682913
-0.025498778
-0.02258071
-0.019915266
-0.017488537
-0.015286353
-0.013294459
-0.011498691
-0.0098851308
-0.0084402481
-0.0071510396
-0.0060051354
-0.0049909839
-0.0040977714
-0.0033162372
-0.0026367107
-0.0020560209
-0.0015574311
-0.0011726543
-0.00080076601
-0.00074199775
-0.00016521241
-0.001502443
0.0020451121
-0.22077
-0.20206384
-0.19089073
-0.1841282
-0.17601215
-0.16694911
-0.15803145
-0.1493188
-0.14068501
-0.13215944
-0.12380784
-0.11566769
-0.10776328
-0.10011791
-0.092752783
-0.085685174
-0.078928576
-0.072493207
-0.066386213
-0.06061179
-0.055171359
-0.050063766
-0.045285496
-0.040830894
-0.036692386
-0.032860723
-0.029325215
-0.026073974
-0.023094147
-0.020372149
-0.017893878
-0.015644928
-0.013610782
-0.011776989
-0.010129331
-0.0086539707
-0.0073375969
-0.006167534
-0.0051319306
-0.004219679
-0.0034212286
-0.0027266334
-0.0021323574
-0.00162161
-0.001224606
-0.00084367387
-0.00076461844
-0.00019846895
-0.0014287595
0.0018950083
-0.22463392
-0.20356017
-0.1914596
-0.18526747
-0.17781364
-0.16904539
-0.16021933
-0.15157047
-0.14299014
-0.13447969
-0.12610393
-0.11791296
-0.10993885
-0.10220841
-0.094746198
-0.087573005
-0.08070533
-0.074155832
-0.067933705
-0.062044873
-0.056492179
-0.051275615
-0.046392572
-0.041838084
-0.037605082
-0.033684653
-0.030066307
-0.026738228
-0.023687535
-0.020900527
-0.018362922
-0.016060074
-0.013977183
-0.012099488
-0.010412437
-0.008901851
-0.0075540685
-0.0063560657
-0.0052956472
-0.0043613667
-0.0035433387
-0.0028312995
-0.0022212883
-0.0016964561
-0.0012852889
-0.00089383156
-0.00079155249
-0.00023686638
-0.0013478461
0.0017286739
-0.22587325
-0.20538808
-0.19251861
-0.18589767
-0.17893125
-0.17074461
-0.16219502
-0.15367527
-0.14520195
-0.13676855
-0.12842269
-0.12022225
-0.11221038
-0.10441971
-0.096878788
-0.089612488
-0.082641179
-0.075980794
-0.069643307
-0.063637031
-0.057966835
-0.052634395
-0.047638471
-0.042975189
-0.038638321
-0.034619574
-0.03090888
-0.027494677
-0.024364195
-0.021503718
-0.018898849
-0.016534745
-0.014396345
-0.012468578
-0.010736549
-0.0091857081
-0.0078020144
-0.0065720566
-0.0054832535
-0.0045237746
-0.0036833526
-0.0029513597
-0.0023233488
-0.0017823982
-0.0013550593
-0.00095146198
-0.0008231872
-0.00028011351
-0.0012618609
0.0015503779
-0.21601262
-0.20463417
-0.19363634
-0.18554897
-0.1784932
-0.17108081
-0.16313745
-0.15498359
-0.14679816
-0.13860721
-0.13043846
-0.1223494
-0.11439552
-0.10661976
-0.099057938
-0.091741615
-0.084697458
-0.077946931
-0.071506734
-0.06538922
-0.059602689
-0.054151687
-0.049037335
-0.044257668
-0.039807968
-0.035681102
-0.031867854
-0.028357253
-0.025136892
-0.022193231
-0.01951189
-0.017077918
-0.014876046
-0.012890912
-0.011107276
-0.0095102024
-0.0080852382
-0.0068185442
-0.0056971071
-0.0047086615
-0.0038425062
-0.0030875941
-0.0024389348
-0.0018794881
-0.0014337475
-0.0010160406
-0.00085933257
-0.00032655256
-0.0011733639
0.0013656227
-0.19387466
-0.19858179
-0.19330864
-0.18440442
-0.17690189
-0.16989421
-0.1623941
-0.15453708
-0.14658901
-0.13861308
-0.13062887
-0.12268926
-0.11485354
-0.10716904
-0.099674767
-0.092405214
-0.085390016
-0.07865343
-0.072214672
-0.066088361
-0.06028482
-0.054810385
-0.049667743
-0.044856283
-0.040372446
-0.036210081
-0.032360786
-0.028814261
-0.025558636
-0.022580791
-0.019866662
-0.017401527
-0.015170264
-0.013157597
-0.011348316
-0.0097274686
-0.0082805475
-0.0069936297
-0.0058535897
-0.0048480345
-0.0039660848
-0.0031965789
-0.0025340634
-0.0019619349
-0.001501927
-0.0010746794
-0.0008904586
-0.00037295289
-0.001082936
0.0011823117
-0.18332586
-0.18914683
-0.18567396
-0.17693536
-0.16973261
-0.16347666
-0.15677703
-0.14963389
-0.14234318
-0.13497993
-0.12755389
-0.12011363
-0.11272088
-0.10542666
-0.09827356
-0.091299878
-0.084539294
-0.078020073
-0.07176527
-0.065793139
-0.060117422
-0.05474763
-0.049689375
-0.044944727
-0.040512567
-0.036388948
-0.032567451
-0.029039546
-0.025794931
-0.022821867
-0.020107498
-0.017638144
-0.015399581
-0.013377293
-0.011556706
-0.0099233973
-0.0084632874
-0.0071627951
-0.0060090503
-0.0049898625
-0.0040944235
-0.0033117533
-0.002635956
-0.0020514451
-0.0015762408
-0.0011399548
-0.00092403529
-0.00042746541
-0.00098207149
0.00098467642
-0.17458776
-0.17780928
-0.17553232
-0.16851176
-0.16215943
-0.15659739
-0.15066453
-0.14425143
-0.13762475
-0.1308796
-0.12402786
-0.11711192
-0.11019227
-0.10332181
-0.096545201
-0.089903137
-0.083432206
-0.077163889
-0.071124535
-0.065335681
-0.059814289
-0.054572973
-0.049620292
-0.044961082
-0.040596798
-0.036525863
-0.032744028
-0.029244723
-0.026019411
-0.023057926
-0.020348801
-0.01787957
-0.015637064
-0.013607673
-0.01177759
-0.010133034
-0.0086604546
-0.0073466975
-0.0061792207
-0.0051460967
-0.0042366302
-0.003440072
-0.0027500573
-0.0021521466
-0.0016602757
-0.0012139388
-0.00096305393
-0.00048885918
-0.00087372084
0.00076820383
-0.1649097
-0.16552252
-0.16369116
-0.15874667
-0.15362427
-0.14880486
-0.14366311
-0.13806173
-0.13217808
-0.12611302
-0.1198942
-0.11356206
-0.10717373
-0.10078274
-0.094435603
-0.088175004
-0.082040024
-0.076065109
-0.0702798
-0.064708919
-0.059372726
-0.054287092
-0.049463725
-0.044910466
-0.0406316
-0.03662819
-0.032898423
-0.029437957
-0.026240275
-0.023297023
-0.020598344
-0.018133198
-0.015889655
-0.013855175
-0.012016869
-0.010361728
-0.0088768414
-0.0075495785
-0.0063678043
-0.0053199195
-0.0043953911
-0.0035837362
-0.0028781421
-0.0022653197
-0.001755099
-0.001296835
-0.0010087537
-0.00055461218
-0.00076544263
0.00054295355
-0.15434062
-0.15307353
-0.1512642
-0.14803459
-0.14420541
-0.14019085
-0.13584613
-0.13108869
-0.12600201
-0.12066914
-0.1151332
-0.10943722
-0.10363418
-0.097776484
-0.091911564
-0.086083368
-0.080332723
-0.074696473
-0.06920699
-0.063892165
-0.058775472
-0.053876055
-0.049208878
-0.044784956
-0.040611623
-0.036692829
-0.033029463
-0.029619685
-0.026459264
-0.023541924
-0.02085967
-0.018403117
-0.016161792
-0.014124423
-0.01227921
-0.010614072
-0.0091168724
-0.0077756208
-0.0065786859
-0.0055148745
-0.0045738826
-0.0037455301
-0.0030226107
-0.0023929285
-0.001862385
-0.0013896784
-0.0010626342
-0.00062409508
-0.00066327477
0.00031703009
-0.14255415
-0.14049523
-0.13880045
-0.13684515
-0.13418682
-0.13100825
-0.12745064
-0.12351785
-0.11923197
-0.11464885
-0.10981938
-0.10478827
-0.099603929
-0.094316395
-0.088972941
-0.08361774
-0.078292256
-0.073034738
-0.067879628
-0.062857313
-0.057994062
-0.053312011
-0.048829227
-0.044559852
-0.040514304
-0.036699522
-0.033119248
-0.029774325
-0.026663022
-0.023781353
-0.02112341
-0.018681679
-0.016447353
-0.014410623
-0.012560965
-0.010887386
-0.0093786762
-0.008023611
-0.0068111769
-0.0057306797
-0.004772126
-0.0039256831
-0.0031838355
-0.0025353896
-0.0019826496
-0.0014927852
-0.0011256776
-0.00069686661
-0.00057320966
9.9085978e-05
-0.12986017
-0.12793042
-0.12658372
-0.12554053
-0.12384583
-0.12147691
-0.11867961
-0.11552547
-0.11201134
-0.10816677
-0.1040417
-0.099682521
-0.09513218
-0.090435598
-0.085638686
-0.080785088
-0.075915914
-0.071069679
-0.066281881
-0.061584594
-0.057006223
-0.052571381
-0.048300857
-0.04421166
-0.040317141
-0.03662717
-0.033148351
-0.029884286
-0.026835851
-0.024001502
-0.021377582
-0.018958627
-0.016737677
-0.014706572
-0.012856229
-0.011176914
-0.0096584901
-0.0082906374
-0.0070630816
-0.0059657295
-0.0049889934
-0.0041234407
-0.0033613557
-0.0026924356
-0.0021158479
-0.0016060831
-0.001198559
-0.00077251136
-0.00050114758
-0.00010156889
-0.11697444
-0.11562488
-0.11476685
-0.11437947
-0.11344032
-0.11180662
-0.1097201
-0.10728312
-0.10448897
-0.10134946
-0.097906697
-0.094205007
-0.090284229
-0.08618367
-0.081944403
-0.07760834
-0.073215614
-0.068804069
-0.064409184
-0.060063745
-0.055797469
-0.051636759
-0.047604555
-0.043720293
-0.039999931
-0.03645604
-0.033097957
-0.029931981
-0.026961605
-0.024187779
-0.021609191
-0.019222549
-0.017022879
-0.015003814
-0.01315787
-0.011476721
-0.0099514455
-0.0085727666
-0.0073312725
-0.0062175802
-0.005222611
-0.0043373934
-0.0035541403
-0.0028633234
-0.0022615256
-0.0017292443
-0.0012816538
-0.0008508193
-0.00045210857
-0.00027608476
-0.10444013
-0.10375711
-0.10341496
-0.1035216
-0.10317051
-0.10217411
-0.10072918
-0.098939407
-0.09680135
-0.094317311
-0.091519614
-0.088447236
-0.085135518
-0.081619424
-0.077935447
-0.074121127
-0.070214188
-0.066251104
-0.062266503
-0.058292926
-0.054360513
-0.050496659
-0.046725779
-0.043069158
-0.039544888
-0.036167879
-0.032949926
-0.029899843
-0.027023629
-0.024324683
-0.021804043
-0.019460637
-0.01729156
-0.015292337
-0.013457204
-0.011779364
-0.010251244
-0.0088647315
-0.0076113993
-0.0064826829
-0.0054701202
-0.0045652699
-0.0037604127
-0.0030466928
-0.0024187034
-0.00186161
-0.0013749231
-0.00093179446
-0.00042945595
-0.00041731909
-0.09254287
-0.092445908
-0.092572171
-0.093066449
-0.093176709
-0.092715159
-0.091830865
-0.090613778
-0.089062719
-0.087175238
-0.084974577
-0.08249269
-0.07975965
-0.076805329
-0.073661759
-0.070362353
-0.066940877
-0.063431132
-0.059866132
-0.05627741
-0.052694683
-0.049145537
-0.045655124
-0.042245932
-0.038937631
-0.035746997
-0.032687909
-0.029771399
-0.027005762
-0.024396701
-0.021947524
-0.019659351
-0.017531353
-0.015561003
-0.013744323
-0.012076137
-0.010550321
-0.0091600344
-0.0078979412
-0.0067563984
-0.0057276657
-0.0048039057
-0.0039776101
-0.0032405201
-0.0025858325
-0.0020021382
-0.0014778349
-0.0010155482
-0.00043431584
-0.00052096491
-0.081422973
-0.081782002
-0.082290686
-0.083087557
-0.083558656
-0.083534211
-0.08312522
-0.082403793
-0.081368332
-0.08001347
-0.078354803
-0.076416922
-0.074224136
-0.071801043
-0.069174573
-0.066373758
-0.063428506
-0.060369015
-0.057225601
-0.05402804
-0.050804914
-0.04758325
-0.044388213
-0.04124282
-0.038167715
-0.035181015
-0.032298231
-0.029532241
-0.026893335
-0.024389299
-0.022025547
-0.019805288
-0.017729722
-0.01579825
-0.014008707
-0.012357587
-0.010840281
-0.0094512998
-0.0081844892
-0.0070332173
-0.0059905624
-0.0050493666
-0.0042024724
-0.0034421754
-0.0027608308
-0.0021493986
-0.0015893364
-0.0011021442
-0.00046528648
-0.00058638562
-0.071140893
-0.071827862
-0.072622913
-0.073644821
-0.074391087
-0.074713773
-0.074695754
-0.074392551
-0.073800478
-0.072911749
-0.071735635
-0.070289799
-0.068592682
-0.066663565
-0.06452419
-0.06219872
-0.059712871
-0.057093159
-0.05436656
-0.051560234
-0.048700938
-0.045814475
-0.042925341
-0.040056424
-0.037228728
-0.034461151
-0.031770336
-0.029170583
-0.026673817
-0.024289611
-0.022025262
-0.0198859
-0.017874635
-0.015992735
-0.014239814
-0.012614045
-0.011112363
-0.0097306815
-0.0084640934
-0.0073070505
-0.0062535348
-0.0052971412
-0.0044311931
-0.0036485337
-0.0029411645
-0.0023015954
-0.001707867
-0.0011914316
-0.00051854081
-0.00061690652
-0.061708558
-0.06261628
-0.063609023
-0.064784959
-0.065730963
-0.066319582
-0.066612828
-0.066652488
-0.066432419
-0.065942691
-0.065187352
-0.064177932
-0.062927301
-0.061449571
-0.059761397
-0.057882027
-0.055832635
-0.053635744
-0.051314802
-0.048893838
-0.046397096
-0.04384853
-0.041271355
-0.038687704
-0.036118335
-0.033582356
-0.031097024
-0.028677592
-0.026337213
-0.024086906
-0.021935564
-0.019890014
-0.017955108
-0.016133859
-0.014427589
-0.012836106
-0.011357888
-0.0099902677
-0.008729624
-0.0075715467
-0.0065109907
-0.0055423714
-0.004659611
-0.0038561235
-0.0031239634
-0.0024566171
-0.0018314168
-0.0012829131
-0.00058836343
-0.00061937354
-0.053111182
-0.054155512
-0.055271443
-0.056539449
-0.057619503
-0.058402332
-0.058934137
-0.059245812
-0.059329174
-0.059172599
-0.058775919
-0.058145472
-0.057289146
-0.056216266
-0.054938687
-0.053470898
-0.051829529
-0.050032887
-0.048100633
-0.046053424
-0.04391255
-0.041699553
-0.039435806
-0.03714212
-0.034838429
-0.032543494
-0.030274653
-0.02804762
-0.02587634
-0.023772886
-0.021747421
-0.01980819
-0.017961573
-0.016212156
-0.014562848
-0.013015014
-0.011568627
-0.01022243
-0.0089740984
-0.0078203916
-0.0067572898
-0.0057800893
-0.0048834127
-0.0040612921
-0.0033061535
-0.0026121118
-0.0019576322
-0.0013756888
-0.00066805294
-0.00060296584
-0.045317982
-0.046434635
-0.047614512
-0.048923579
-0.050082436
-0.050997884
-0.051704064
-0.05222343
-0.052546447
-0.052660413
-0.052561935
-0.052253149
-0.051737727
-0.051020796
-0.050109872
-0.049015028
-0.047748545
-0.046324564
-0.044758837
-0.043068453
-0.041271502
-0.039386731
-0.037433193
-0.035429881
-0.033395384
-0.031347581
-0.029303374
-0.027278442
-0.025287055
-0.023341927
-0.021454117
-0.019632975
-0.017886136
-0.01621955
-0.014637545
-0.013142921
-0.011737066
-0.010420083
-0.0091909297
-0.0080475451
-0.0069869668
-0.0060054205
-0.0050983146
-0.0042603605
-0.0034845896
-0.0027655782
-0.0020839615
-0.0014684925
-0.00075100334
-0.00057748392
-0.038287575
-0.03942875
-0.040627468
-0.041937839
-0.043130943
-0.044127833
-0.044953548
-0.04562413
-0.046129406
-0.046456248
-0.04659899
-0.046556558
-0.046329254
-0.045918713
-0.045328727
-0.044565451
-0.043637184
-0.042554133
-0.041328237
-0.039972973
-0.038503096
-0.036934338
-0.035283104
-0.033566159
-0.031800306
-0.030002071
-0.028187427
-0.026371538
-0.024568535
-0.022791335
-0.021051495
-0.019359115
-0.017722783
-0.01614955
-0.014644954
-0.013213068
-0.011856572
-0.01057685
-0.0093740932
-0.0082474026
-0.0071948856
-0.0062137313
-0.0053001998
-0.0044497467
-0.0036561673
-0.0029144619
-0.0022078183
-0.0015598057
-0.00083169649
-0.00055154363
-0.031972526
-0.03310393
-0.034288545
-0.035570774
-0.036763701
-0.037800976
-0.038700869
-0.039474669
-0.04011217
-0.040600413
-0.040932326
-0.041104549
-0.041114866
-0.040962182
-0.040647253
-0.040172924
-0.039544017
-0.038767185
-0.037850818
-0.036804918
-0.035640919
-0.034371454
-0.033010102
-0.031571127
-0.030069196
-0.028519091
-0.026935432
-0.025332421
-0.023723605
-0.022121667
-0.020538255
-0.018983841
-0.017467624
-0.015997465
-0.01457986
-0.013219949
-0.011921547
-0.010687196
-0.0095182413
-0.0084149013
-0.0073763392
-0.0064007217
-0.0054852056
-0.0046260485
-0.0038179063
-0.0030562442
-0.0023267351
-0.0016480101
-0.00090633922
-0.00053118568
-0.026322781
-0.027420951
-0.028568564
-0.029802048
-0.030969408
-0.032015338
-0.03295314
-0.033790652
-0.034518108
-0.035123187
-0.035598145
-0.035938157
-0.036139272
-0.036198411
-0.036114004
-0.035886249
-0.035517072
-0.035010064
-0.034370459
-0.033605065
-0.032722165
-0.031731351
-0.030643342
-0.029469763
-0.028222923
-0.026915566
-0.025560619
-0.02417094
-0.022759089
-0.021337109
-0.019916333
-0.018507223
-0.017119231
-0.015760705
-0.014438818
-0.013159535
-0.011927604
-0.010746575
-0.0096188271
-0.0085456202
-0.007527131
-0.0065624939
-0.0056497824
-0.0047860987
-0.003967007
-0.003188516
-0.002438477
-0.0017315328
-0.0009729878
-0.00051928913
-0.021287965
-0.022337949
-0.023433739
-0.024605178
-0.025729296
-0.026760397
-0.027708152
-0.028577937
-0.029360749
-0.030045246
-0.030623578
-0.031090136
-0.031439915
-0.031668529
-0.031772758
-0.031750804
-0.031602313
-0.031328369
-0.03093152
-0.030415776
-0.029786561
-0.02905062
-0.028215901
-0.027291398
-0.026286968
-0.025213143
-0.02408091
-0.022901491
-0.021686124
-0.020445848
-0.019191314
-0.017932598
-0.016679053
-0.015439176
-0.014220514
-0.013029588
-0.01187185
-0.010751661
-0.0096722924
-0.0086359294
-0.0076436907
-0.0066956403
-0.0057907611
-0.0049270193
-0.0041009013
-0.0033090424
-0.0025411032
-0.0018089468
-0.0010311919
-0.00051588067
-0.016819262
-0.017812643
-0.018848128
-0.019950062
-0.021019627
-0.022019434
-0.022956496
-0.023834443
-0.024645226
-0.025378684
-0.026027278
-0.026585137
-0.027046754
-0.027407011
-0.027661632
-0.027807433
-0.027842374
-0.027765595
-0.027577474
-0.027279674
-0.026875144
-0.026368085
-0.025763882
-0.025069012
-0.024290922
-0.023437875
-0.022518787
-0.021543048
-0.02052032
-0.019460352
-0.018372787
-0.017266984
-0.016151857
-0.015035727
-0.013926202
-0.012830075
-0.011753248
-0.01070068
-0.0096763468
-0.0086832226
-0.0077232624
-0.0067973921
-0.0059054669
-0.0050463114
-0.0042173212
-0.0034158297
-0.0026329866
-0.0018790225
-0.0010813715
-0.00051909058
-0.012870479
-0.013803754
-0.014775315
-0.015804852
-0.016813684
-0.01777156
-0.018683528
-0.019551977
-0.020369885
-0.021128365
-0.021820457
-0.022440403
-0.022982615
-0.023441692
-0.023812802
-0.024091898
-0.02427579
-0.024362204
-0.024349866
-0.02423857
-0.024029216
-0.023723827
-0.023325527
-0.022838498
-0.02226791
-0.021619822
-0.020901063
-0.020119092
-0.019281846
-0.018397572
-0.017474658
-0.016521466
-0.015546174
-0.014556624
-0.013560185
-0.012563638
-0.011573076
-0.010593815
-0.0096303397
-0.0086862412
-0.0077641798
-0.0068658462
-0.0059919034
-0.0051420001
-0.0043144104
-0.0035072141
-0.0027128234
-0.0019407483
-0.0011242115
-0.00052629928
-0.0093996034
-0.010272808
-0.011180397
-0.012138063
-0.013083943
-0.013993902
-0.014871504
-0.015718238
-0.016528104
-0.017293489
-0.01800816
-0.018666718
-0.019263783
-0.019794009
-0.020252387
-0.020634434
-0.020936265
-0.021154665
-0.021287179
-0.021332192
-0.021288999
-0.021157842
-0.020939934
-0.020637453
-0.020253517
-0.019792136
-0.019258132
-0.01865705
-0.017995041
-0.017278733
-0.016515092
-0.015711274
-0.014874481
-0.014011815
-0.013130141
-0.012235962
-0.011335299
-0.010433596
-0.0095356252
-0.0086454134
-0.0077661716
-0.0069002342
-0.0060489808
-0.0052128258
-0.004390874
-0.0035819736
-0.0027796602
-0.0019933519
-0.0011602852
-0.00053504969
-0.0063686338
-0.0071844322
-0.0080307019
-0.0089196669
-0.0098035263
-0.010663361
-0.011501585
-0.012319011
-0.013110598
-0.01386994
-0.014591589
-0.015270639
-0.015902102
-0.016480907
-0.017002144
-0.017461216
-0.017853905
-0.018176445
-0.018425608
-0.018598792
-0.018694098
-0.018710388
-0.018647331
-0.018505433
-0.018286044
-0.017991347
-0.017624326
-0.017188709
-0.0166889
-0.016129884
-0.015517126
-0.014856447
-0.014153905
-0.013415662
-0.012647859
-0.011856487
-0.011047269
-0.010225543
-0.0093961631
-0.0085633985
-0.007730845
-0.0069013418
-0.0060768741
-0.0052585402
-0.004446213
-0.0036395026
-0.0028329849
-0.0020363632
-0.0011899678
-0.00054352872
-0.0037453605
-0.004507959
-0.0052972335
-0.0061223387
-0.0069472305
-0.0077574218
-0.0085544174
-0.0093384994
-0.010105483
-0.010850064
-0.011567564
-0.012253628
-0.012903749
-0.013513264
-0.014077539
-0.014592084
-0.015052616
-0.015455119
-0.015795925
-0.016071798
-0.01628001
-0.016418409
-0.016485481
-0.016480396
-0.016403042
-0.016254047
-0.016034777
-0.015747318
-0.01539444
-0.014979547
-0.014506605
-0.013980057
-0.013404722
-0.012785695
-0.01212823
-0.011437626
-0.010719111
-0.0099777228
-0.0092181997
-0.0084448707
-0.0076615488
-0.0068714312
-0.006076985
-0.0052798941
-0.0044807217
-0.0036798063
-0.0028727038
-0.0020695916
-0.0012134594
-0.00055060973
-0.0015041133
-0.0022193145
-0.0029575464
-0.0037253384
-0.0044964095
-0.0052599861
-0.0060168346
-0.006766805
-0.0075064507
-0.0082314324
-0.008937785
-0.009621698
-0.01027917
-0.010906001
-0.011497926
-0.012050702
-0.012560158
-0.013022245
-0.013433107
-0.013789152
-0.014087128
-0.014324187
-0.014497956
-0.014606591
-0.014648831
-0.014624034
-0.014532206
-0.014374011
-0.014150768
-0.013864429
-0.013517545
-0.013113213
-0.012655009
-0.012146907
-0.01159319
-0.010998347
-0.010366972
-0.0097036502
-0.009012844
-0.0082987816
-0.0075653397
-0.0068159307
-0.0060533758
-0.0052798354
-0.0044964722
-0.0037042932
-0.0028997695
-0.0020936159
-0.0012312667
-0.00055592004
0.00037921421
-0.00029441058
-0.00098780924
-0.0017051345
-0.0024281596
-0.0031492187
-0.0038684772
-0.004585419
-0.0052972096
-0.0060003303
-0.0066914418
-0.0073672343
-0.0080241874
-0.0086585639
-0.0092664984
-0.0098440606
-0.010387293
-0.010892251
-0.011355062
-0.011771983
-0.012139468
-0.012454231
-0.012713311
-0.012914133
-0.01305457
-0.01313299
-0.013148305
-0.0131
-0.012988155
-0.012813456
-0.012577182
-0.01228119
-0.011927871
-0.011520098
-0.011061163
-0.010554696
-0.010004577
-0.0094148355
-0.0087895416
-0.008132695
-0.0074481049
-0.00673927
-0.0060092431
-0.0052605487
-0.0044948481
-0.0037137362
-0.0029145182
-0.0021084269
-0.001243206
-0.00055896327
0.0019018057
0.0012619595
0.00060537583
-7.0347515e-05
-0.0007534013
-0.0014385642
-0.0021255053
-0.0028134116
-0.0034999389
-0.0041822326
-0.0048574715
-0.0055227725
-0.0061750369
-0.0068109445
-0.0074270096
-0.0080196225
-0.0085850775
-0.0091196052
-0.0096194162
-0.010080751
-0.010499935
-0.010873436
-0.011197923
-0.011470328
-0.011687911
-0.011848311
-0.011949607
-0.011990362
-0.011969663
-0.011887151
-0.011743035
-0.011538093
-0.011273672
-0.01095165
-0.010574398
-0.010144724
-0.0096657984
-0.0091410688
-0.0085741651
-0.0079687896
-0.0073285999
-0.0066570862
-0.0059574322
-0.0052324238
-0.0044841176
-0.0037145998
-0.0029219049
-0.0021177126
-0.0012518818
-0.00056105418
0.0031044233
0.0024923537
0.0018659029
0.001224295
0.00057431474
-8.0774544e-05
-0.00074025698
-0.0014030692
-0.0020672378
-0.002730426
-0.003390223
-0.0040440895
-0.0046892727
-0.0053228022
-0.0059415206
-0.0065421093
-0.007121108
-0.0076749402
-0.008199946
-0.0086924223
-0.0091486683
-0.0095650355