/*--------------------------------*- C++ -*----------------------------------*\
  =========                 |
  \\      /  F ield         | OpenFOAM: The Open Source CFD Toolbox
   \\    /   O peration     | Website:  https://openfoam.org
    \\  /    A nd           | Version:  6
     \\/     M anipulation  |
\*---------------------------------------------------------------------------*/
FoamFile
{
    version     2.0;
    format      ascii;
    class       volVectorField;
    location    "161";
    object      U_0;
}
// * * * * * * * * * * * * * * * * * * * * * * * * * * * * * * * * * * * * * //

dimensions      [0 1 -1 0 0 0 0];

internalField   nonuniform List<vector> 
9200
(
(0.0010393534 0.0014199784 -5.9201891e-20)
(0.013676098 -0.0020583833 4.6042585e-20)
(0.038313234 -0.0058665969 -3.850177e-20)
(0.072274551 -0.0097635465 -6.0257807e-20)
(0.11376491 -0.013490083 1.8826982e-20)
(0.16158112 -0.016605725 3.2743909e-20)
(0.21467178 -0.018817365 -1.2268021e-20)
(0.27206644 -0.019973983 9.2688715e-21)
(0.33285667 -0.020011329 1.6803439e-20)
(0.39616399 -0.018929171 1.4848086e-21)
(0.46111615 -0.016779948 -2.1456358e-20)
(0.52683753 -0.013657878 2.0670025e-20)
(0.5924514 -0.0096881593 -4.0422186e-20)
(0.65709209 -0.005015953 -2.1133926e-20)
(0.71992554 0.00020536845 5.904659e-21)
(0.78017588 0.0058238842 -2.5131708e-20)
(0.83717149 0.011712582 2.5217151e-20)
(0.89046967 0.01791826 2.2243242e-20)
(0.93967162 0.024573137 -2.9928725e-22)
(0.98205276 0.028293084 -1.6691754e-21)
(0.0052521925 -0.0013462795 -1.7059368e-20)
(0.026962547 -0.0089890494 3.9747752e-20)
(0.061670208 -0.014809801 2.3576319e-20)
(0.10629504 -0.019172319 -1.1569768e-19)
(0.15873587 -0.022214059 -1.2727101e-20)
(0.2175338 -0.023720759 7.3297136e-20)
(0.28137331 -0.023595181 -3.5476431e-20)
(0.34900644 -0.021869061 -8.3905636e-21)
(0.41923971 -0.018645631 3.4287571e-20)
(0.49091002 -0.014080959 -4.3259621e-20)
(0.56287297 -0.0083760811 -3.0338514e-20)
(0.63400918 -0.0017667378 7.1921522e-20)
(0.70324406 0.0054882368 3.8294095e-20)
(0.76957662 0.013118459 -6.7976652e-20)
(0.8321133 0.020851891 1.4623715e-20)
(0.89010123 0.028419493 -3.6733459e-20)
(0.94297003 0.035569439 -1.3777211e-20)
(0.99043316 0.042140628 7.0974915e-20)
(1.0323569 0.047715025 2.9642065e-20)
(1.0669356 0.049139383 -8.3478424e-20)
(0.010858445 -0.0040424246 3.677349e-20)
(0.043953477 -0.015431105 2.5047401e-21)
(0.090515556 -0.022552326 2.2341739e-20)
(0.14711158 -0.026497415 9.8116904e-22)
(0.2113428 -0.027886366 -4.0773987e-20)
(0.28146801 -0.026795193 1.8576413e-20)
(0.35587082 -0.023382817 1.3420316e-20)
(0.43299056 -0.017921635 -5.0327751e-20)
(0.51132534 -0.010735758 5.7261915e-20)
(0.58942677 -0.002183999 1.4256705e-20)
(0.66590986 0.0073477747 -5.4300777e-20)
(0.73948111 0.017460118 -1.8237431e-20)
(0.80897676 0.027756402 9.0591585e-21)
(0.87340345 0.037859092 2.3444775e-20)
(0.93197444 0.047423843 -1.1362528e-20)
(0.98413449 0.05614875 2.7877775e-20)
(1.0295748 0.063788925 -2.0188271e-20)
(1.0682653 0.070204118 -7.0123726e-20)
(1.1003329 0.075119077 -2.3796329e-20)
(1.1249119 0.076640912 4.8659894e-20)
(0.017957239 -0.006422174 2.4508037e-20)
(0.064777078 -0.020694832 5.1039268e-20)
(0.12485244 -0.028060895 1.988171e-20)
(0.19446989 -0.030464125 1.2990097e-20)
(0.27094962 -0.029094911 1.7275711e-20)
(0.35224918 -0.024389056 -4.772021e-20)
(0.43643186 -0.016826058 -2.5646879e-20)
(0.52162063 -0.0069767641 0)
(0.60602957 0.0045669293 1.3920635e-20)
(0.68798775 0.017211618 -5.8523526e-21)
(0.76597591 0.030373796 -9.7935072e-20)
(0.83867523 0.043499491 -1.5774832e-20)
(0.90501604 0.056086458 6.5103304e-20)
(0.96421649 0.067703956 4.8441514e-22)
(1.0158043 0.078007513 -1.5725593e-21)
(1.0596163 0.086746566 2.1957533e-20)
(1.095778 0.093771976 -5.2647325e-21)
(1.1246807 0.099065055 -6.1029843e-20)
(1.1468654 0.10259677 -4.5851323e-20)
(1.1622963 0.10341353 6.9520618e-20)
(0.026579453 -0.0082056997 -3.9194239e-21)
(0.089344125 -0.02403354 -5.1256416e-21)
(0.16430772 -0.030265036 5.6599452e-20)
(0.24758147 -0.029810077 1.8539332e-20)
(0.33624196 -0.024513092 -3.1955086e-20)
(0.4279517 -0.015239931 1.2163852e-20)
(0.52047314 -0.0028514395 2.6402888e-21)
(0.61166417 0.011737012 3.3609208e-20)
(0.69954777 0.02764005 5.6599574e-21)
(0.78236908 0.044028667 -1.3204762e-20)
(0.8586548 0.060147608 6.0154137e-20)
(0.92726987 0.075340338 -5.8009435e-20)
(0.98745752 0.089072708 -1.3216634e-19)
(1.0388538 0.10094884 -5.5773126e-21)
(1.0814732 0.11071689 8.3150916e-20)
(1.1156662 0.11826382 0)
(1.1420555 0.12360558 1.0118974e-20)
(1.1614675 0.12689028 -1.5459798e-20)
(1.1748185 0.1282984 -8.5994754e-21)
(1.1826678 0.12744883 2.0992261e-20)
(0.03666695 -0.0090895914 -5.4309163e-21)
(0.11731524 -0.024685389 4.3578774e-21)
(0.2081189 -0.028140222 -8.7629895e-21)
(0.30515733 -0.023415005 2.8472417e-20)
(0.40533579 -0.013075646 -2.9392687e-20)
(0.50607196 0.001522557 -1.6927039e-20)
(0.60490547 0.019095078 3.7364265e-20)
(0.69955022 0.038365186 4.7595482e-21)
(0.7880046 0.058167568 -2.4436098e-20)
(0.86863477 0.077482915 6.9867655e-20)
(0.94024046 0.095458537 5.2392934e-22)
(1.0020963 0.11143144 -8.0444449e-20)
(1.0539576 0.12494276 0)
(1.096028 0.13573733 3.9542187e-20)
(1.1288928 0.14374823 5.5236108e-21)
(1.1534284 0.14906871 -7.7566529e-20)
(1.1706996 0.15191889 -1.9586954e-20)
(1.1818629 0.15262341 -1.2467653e-20)
(1.1880597 0.15152576 -1.4709412e-20)
(1.1901465 0.14858461 4.0420585e-20)
(0.048058919 -0.0087674158 -1.7277967e-20)
(0.14808325 -0.021932021 -2.2198311e-21)
(0.25514095 -0.02079787 3.0380522e-20)
(0.36546419 -0.010412831 3.7484332e-20)
(0.47590465 0.0059015486 -1.9944749e-20)
(0.58374319 0.026269266 -6.9163099e-20)
(0.68644245 0.048977165 -2.7995832e-20)
(0.78176268 0.072417738 7.8929305e-20)
(0.86790265 0.095212417 8.5778326e-21)
(0.94358987 0.11624954 -2.4873512e-20)
(1.0081265 0.13469818 1.3642223e-20)
(1.0613877 0.15001544 -4.3194592e-21)
(1.10377 0.16193645 0)
(1.1360981 0.17044411 2.7203525e-20)
(1.1595052 0.1757229 -7.9322536e-20)
(1.1753026 0.17810347 -3.1475577e-20)
(1.1848575 0.17800789 8.1054702e-20)
(1.1894926 0.17590918 -4.2969938e-21)
(1.1904034 0.1722553 3.5561118e-21)
(1.1885084 0.16719268 2.7111615e-20)
(0.06048531 -0.0069573723 -3.2414629e-20)
(0.1807779 -0.015170401 -8.1624371e-20)
(0.30388957 -0.0075835502 2.5797669e-21)
(0.42642594 0.0097033342 7.0161864e-20)
(0.54535196 0.032631533 6.2424428e-20)
(0.65798156 0.058820023 -7.1574577e-20)
(0.76190944 0.086176484 -2.8274067e-22)
(0.85518357 0.11285228 8.5522662e-20)
(0.93645414 0.13737833 4.8828132e-20)
(1.0050422 0.15869364 -5.4218486e-20)
(1.0609363 0.17613555 -9.2334348e-20)
(1.1047249 0.18941343 -3.1589873e-21)
(1.1374765 0.1985593 4.2127928e-20)
(1.1605879 0.20385841 -6.6056379e-21)
(1.1756253 0.20577001 -1.2868805e-20)
(1.1841782 0.20484898 1.9690834e-20)
(1.1877432 0.20167874 4.3880682e-20)
(1.1876458 0.19682562 -4.3859495e-20)
(1.1849958 0.19077857 -1.0232217e-19)
(1.1806254 0.18377351 2.4566923e-20)
(0.073537283 -0.0034329783 -3.4979775e-20)
(0.21422706 -0.0039890358 -1.7388619e-19)
(0.35251688 0.011839368 8.2103316e-20)
(0.48562839 0.037018334 9.276759e-20)
(0.61085429 0.066835554 5.7970612e-20)
(0.72576783 0.09848118 8.6107186e-21)
(0.82834864 0.12959696 -1.062402e-19)
(0.91719062 0.15824267 0)
(0.9916281 0.18302812 -6.8748689e-20)
(1.0517527 0.20311202 -1.5202434e-20)
(1.098339 0.21814853 5.4703541e-20)
(1.1327014 0.22821072 1.0973396e-20)
(1.1565115 0.23369248 -4.5613917e-20)
(1.1716073 0.23519932 -4.9081429e-20)
(1.1798209 0.23344318 2.4287716e-20)
(1.1828455 0.22915303 4.4822957e-20)
(1.1821493 0.22300964 -5.5600489e-20)
(1.1789364 0.21560799 -1.0751137e-19)
(1.1741472 0.20742199 -3.1513623e-21)
(1.1684571 0.19871854 2.7046439e-20)
(0.086650522 0.0019613859 -3.5449088e-21)
(0.24696039 0.011816637 8.7913302e-20)
(0.39884772 0.037492321 -1.6479207e-20)
(0.54040508 0.071218402 -8.4309239e-20)
(0.66949953 0.10778896 4.5164414e-20)
(0.7842201 0.14411546 4.9175482e-20)
(0.88319001 0.1777567 5.5356846e-21)
(0.96577933 0.20688491 -9.9502601e-20)
(1.0321769 0.23038801 -2.5048812e-21)
(1.0833334 0.2478155 5.0503611e-20)
(1.1208076 0.25926295 5.9854841e-21)
(1.1465563 0.26523611 -1.9717234e-20)
(1.1627113 0.26650521 -7.5704729e-20)
(1.171377 0.26396608 -6.2554085e-21)
(1.1744767 0.25852413 4.353341e-20)
(1.1736552 0.2510107 3.702206e-20)
(1.1702387 0.24213375 1.9793463e-20)
(1.1652406 0.23245853 -5.2994926e-20)
(1.1594018 0.22240395 1.2957453e-20)
(1.1532255 0.21223775 8.2659205e-20)
(-0.0012932629 0.001434662 -1.1234239e-21)
(-0.0047459654 0.0031874184 2.0646986e-21)
(-0.01077137 0.0041359083 8.7957805e-22)
(-0.017754305 0.0045395404 -2.4411382e-21)
(-0.024740341 0.0045654208 -1.4114834e-21)
(-0.031299621 0.0043260422 1.5459537e-21)
(-0.037161359 0.003903541 -6.8701056e-21)
(-0.042147477 0.0033577236 -5.9572633e-21)
(-0.046157811 0.0027313821 1.1172012e-20)
(-0.049146225 0.0020548303 -9.7427628e-21)
(-0.051100687 0.0013492989 -1.9832002e-22)
(-0.052030473 0.00062941913 3.6673598e-21)
(-0.051957761 -9.4893603e-05 -6.3295334e-22)
(-0.050911898 -0.00081693592 2.2818786e-20)
(-0.048925785 -0.0015318517 3.0400769e-22)
(-0.046035338 -0.0022351826 -4.0882956e-20)
(-0.042281781 -0.0029222782 7.5385817e-21)
(-0.037703411 -0.0035910505 2.3864161e-20)
(-0.032308646 -0.0042400003 -4.3852473e-20)
(-0.026156897 -0.0048211288 -2.7739268e-20)
(-0.0016522017 0.0041808713 -5.3716265e-21)
(-0.0053974865 0.0092681478 1.0865453e-20)
(-0.01121852 0.012007455 -1.0191602e-20)
(-0.017658042 0.013153776 3.9230044e-21)
(-0.023856453 0.013195424 4.812161e-21)
(-0.029433341 0.012462734 7.1324327e-22)
(-0.034152346 0.011197021 -2.2509521e-20)
(-0.037860404 0.009573901 -2.0370341e-21)
(-0.040474323 0.0077189884 2.0163587e-20)
(-0.041958943 0.0057212282 -5.0473695e-21)
(-0.042308966 0.0036428588 -2.1762635e-20)
(-0.041537346 0.0015267033 4.8973261e-21)
(-0.039667713 -0.00059831877 2.2635455e-20)
(-0.03672907 -0.0027127784 1.0308411e-20)
(-0.03275201 -0.004802711 2.1854332e-20)
(-0.027769131 -0.0068555349 -1.9770768e-20)
(-0.021824738 -0.0088582511 -2.1672987e-20)
(-0.014966194 -0.010804261 2.1184667e-20)
(-0.0071289182 -0.012679043 2.6810423e-20)
(0.0018744203 -0.014317271 1.5854797e-20)
(-0.0023034315 0.0065602399 -4.3568798e-21)
(-0.0065392298 0.01448021 -5.6387637e-21)
(-0.011892141 0.01871056 3.0723978e-22)
(-0.017211112 0.020428198 1.0959927e-21)
(-0.021819157 0.020400339 6.6918623e-21)
(-0.025431056 0.019151678 1.0665204e-20)
(-0.027877245 0.017066296 -3.7227726e-21)
(-0.029053278 0.014423787 -1.8896218e-20)
(-0.028909039 0.011424351 6.5413331e-21)
(-0.027431045 0.0082098986 1.2862596e-20)
(-0.024627698 0.0048797638 5.8341034e-21)
(-0.02052008 0.0015022201 1.8159136e-20)
(-0.015135942 -0.0018768883 1.7295948e-21)
(-0.0085053363 -0.0052272797 -3.386459e-20)
(-0.00065680961 -0.0085276493 1.2020234e-21)
(0.0083811238 -0.011759156 -2.2139247e-20)
(0.018557 -0.014904151 -2.4466357e-20)
(0.029802343 -0.017953816 4.581981e-20)
(0.042305159 -0.020855189 2.5349406e-20)
(0.056738803 -0.023247847 1.2239813e-22)
(-0.0031290305 0.0083689784 -5.2833155e-21)
(-0.0078964052 0.01833653 -8.4815393e-21)
(-0.012438994 0.023587829 4.359312e-21)
(-0.016026543 0.025609678 4.1463521e-21)
(-0.01823503 0.025382762 2.0105739e-21)
(-0.018912653 0.023589334 7.3210135e-21)
(-0.017984712 0.02073028 9.3125002e-21)
(-0.015416695 0.017170378 -1.3511397e-21)
(-0.01120702 0.013171308 -1.1481972e-20)
(-0.0053751916 0.0089189176 -2.9071936e-20)
(0.0020481711 0.0045434151 6.1893226e-23)
(0.011026588 0.00013428029 4.0697897e-20)
(0.021522329 -0.0042489908 -1.8383202e-20)
(0.033497981 -0.0085676343 -1.229611e-20)
(0.046920673 -0.012795605 5.5348689e-22)
(0.061760289 -0.016911925 3.2302705e-20)
(0.077953244 -0.020901751 -1.4829578e-20)
(0.095392536 -0.024763469 -5.3339284e-20)
(0.11439877 -0.028379824 4.5765095e-20)
(0.13634575 -0.031073213 3.3013233e-20)
(-0.0039704129 0.009465741 -6.878908e-22)
(-0.0090916641 0.020487809 -1.2534753e-20)
(-0.012364477 0.026159107 -3.4144566e-20)
(-0.013552542 0.028143357 -5.7241713e-21)
(-0.012533235 0.027555022 -3.6222709e-21)
(-0.0093167092 0.025188073 6.305117e-21)
(-0.0039456161 0.021627413 -4.6462124e-21)
(0.0035261738 0.017298953 -8.8070538e-21)
(0.013036887 0.012508737 2.1899753e-20)
(0.024521332 0.0074744176 5.0567189e-21)
(0.037915656 0.0023488685 -2.5290336e-20)
(0.053157594 -0.0027628306 1.1078297e-20)
(0.070187051 -0.0077909326 0)
(0.088946803 -0.012691373 1.2089596e-20)
(0.1093857 -0.017437002 -9.7016339e-21)
(0.13145772 -0.022009993 -1.4337145e-20)
(0.15507443 -0.026408757 -1.5738898e-21)
(0.18006802 -0.030659546 -2.2181623e-21)
(0.20685389 -0.034576675 4.6147136e-20)
(0.23766413 -0.037020025 -1.0470156e-20)
(-0.0046451012 0.0097808704 -7.535674e-21)
(-0.0096772557 0.020747895 2.451642e-20)
(-0.011064381 0.026160994 -1.0499356e-20)
(-0.0090968253 0.027724459 -2.7469304e-20)
(-0.0039797007 0.026601703 -2.7548159e-20)
(0.00409622 0.02364841 -1.4921588e-20)
(0.014954208 0.01949645 -6.9060477e-22)
(0.028436319 0.014604688 5.5499941e-21)
(0.04440326 0.0093034184 1.9615916e-20)
(0.062730643 0.0038283756 7.3530969e-21)
(0.083304501 -0.0016548074 -7.1862325e-21)
(0.1060192 -0.007032304 -2.0102339e-21)
(0.13077384 -0.012229177 -3.8191767e-20)
(0.15746976 -0.017199846 -1.2693664e-20)
(0.18601237 -0.021919843 1.8750639e-20)
(0.21631221 -0.026379841 -2.102171e-20)
(0.24823273 -0.030602363 -8.9730724e-21)
(0.28151923 -0.034670765 3.0440509e-20)
(0.31660767 -0.038364995 5.0472146e-20)
(0.35665085 -0.039964294 3.3559726e-21)
(-0.0049617712 0.0093140052 1.6783314e-20)
(-0.0091662714 0.019097721 1.4467946e-20)
(-0.0078593591 0.023563377 5.1145518e-20)
(-0.0018585196 0.02432895 2.3388003e-20)
(0.0082957623 0.022523782 1.82518e-22)
(0.022222004 0.019014375 -3.938851e-20)
(0.039597536 0.014440916 -2.431388e-20)
(0.060148032 0.0092663278 1.0465834e-20)
(0.083639283 0.0038231839 1.4401605e-20)
(0.1098669 -0.0016513567 -1.3113731e-20)
(0.13864589 -0.0069910811 -4.4038771e-20)
(0.16980202 -0.012082933 2.9618537e-20)
(0.20316441 -0.01685426 2.0020577e-20)
(0.23855988 -0.021264112 -2.7551193e-20)
(0.27581279 -0.025296536 1.1650152e-20)
(0.31474867 -0.028957318 2.4197648e-20)
(0.35514608 -0.03230322 8.0724074e-21)
(0.39663457 -0.035506863 -1.1764232e-20)
(0.43957777 -0.038392848 -1.4190313e-20)
(0.48798593 -0.038634627 5.872787e-21)
(-0.0047307778 0.0081236776 1.1093854e-20)
(-0.007058598 0.015671181 -2.3352745e-20)
(-0.0020293504 0.018562035 8.6200504e-21)
(0.0090325562 0.018216221 3.3587999e-20)
(0.025256424 0.015651137 5.2124369e-20)
(0.046066434 0.01169558 2.0276528e-20)
(0.070984658 0.006960917 -5.8639375e-21)
(0.099602127 0.0018829032 -1.2286299e-20)
(0.13156917 -0.0032272598 -6.2057514e-21)
(0.16657595 -0.0081497334 3.4240871e-20)
(0.20433458 -0.012733411 -4.5104428e-21)
(0.24456524 -0.016879293 -1.664332e-20)
(0.28698516 -0.020528808 -1.9693596e-20)
(0.33130051 -0.02365655 -4.7443798e-20)
(0.37720518 -0.026265687 2.3238734e-20)
(0.42438837 -0.028388032 -1.4096003e-20)
(0.47250047 -0.030127809 2.5993438e-20)
(0.52103698 -0.031783395 2.1040854e-20)
(0.57021481 -0.033350903 -8.5570486e-20)
(0.62471008 -0.032059084 -1.080663e-22)
(-0.0037710516 0.0063146413 2.1925071e-20)
(-0.0028657571 0.010735094 -2.6165557e-20)
(0.0071421334 0.011564129 -4.5013327e-20)
(0.024450289 0.0099249736 -2.7253805e-20)
(0.047870942 0.0066522794 -2.043989e-21)
(0.076628836 0.0024905789 1.3050113e-20)
(0.11007691 -0.0020154462 -2.8337749e-21)
(0.14765229 -0.0064879683 1.8118554e-20)
(0.18886125 -0.010663582 8.8685702e-21)
(0.2332523 -0.014362514 -1.1380183e-20)
(0.28039191 -0.017469056 8.8779216e-21)
(0.32984652 -0.019916928 -2.3903292e-20)
(0.38116936 -0.021678835 8.0504861e-21)
(0.43389147 -0.022760028 1.6756412e-20)
(0.48752005 -0.023194471 -2.6395152e-21)
(0.54154792 -0.023047078 1.661899e-21)
(0.59543628 -0.022469649 -3.1957404e-22)
(0.64851871 -0.021870326 1.9590447e-20)
(0.70082332 -0.021445302 4.0434056e-21)
(0.75745246 -0.018499341 -5.7337316e-22)
(-0.0019110112 0.0040273473 2.3692136e-20)
(0.0038694484 0.0046765116 5.7160023e-20)
(0.020315356 0.0031879467 -4.9244265e-20)
(0.045178366 0.000294398 -9.9454249e-21)
(0.076965277 -0.0034241916 2.0256366e-20)
(0.1146964 -0.007353638 2.1433737e-21)
(0.15753906 -0.011055022 -2.9815187e-20)
(0.2047486 -0.014244217 6.9848158e-21)
(0.25564986 -0.01673802 7.1097944e-21)
(0.30960516 -0.018427062 -2.6254101e-20)
(0.36598698 -0.019260217 1.292734e-21)
(0.42416015 -0.019232001 -3.7174151e-20)
(0.48347166 -0.018372351 -3.6341055e-20)
(0.54324636 -0.016738441 6.5683559e-20)
(0.60278889 -0.014407483 5.5627558e-21)
(0.66138967 -0.011476097 -1.518882e-20)
(0.71830872 -0.0081022623 1.936399e-20)
(0.77269992 -0.0045931021 -9.1888256e-22)
(0.82408929 -0.0009683048 2.036459e-20)
(0.87622062 0.0043277906 -1.9554187e-20)
(-0.01883633 -0.0050997193 5.8352179e-20)
(-0.010224541 -0.0056349443 1.5783699e-20)
(-0.00022104856 -0.0060688987 -3.5139635e-20)
(0.010823408 -0.0063341296 1.6790276e-20)
(0.022642687 -0.0065120682 0)
(0.035178149 -0.0066301123 0)
(0.048369973 -0.0066909969 -2.2975005e-20)
(0.06213844 -0.0067025644 -1.6502912e-20)
(0.076413138 -0.0066741999 1.9122647e-20)
(0.091134561 -0.0066126924 1.8174085e-20)
(0.10624773 -0.0065232335 1.0524275e-21)
(0.12170085 -0.0064103867 -1.0317665e-20)
(0.13744561 -0.0062781108 8.3269093e-21)
(0.1534368 -0.006129753 1.823377e-20)
(0.16963166 -0.0059681767 -5.2274399e-21)
(0.18598953 -0.0057958671 -1.0174965e-20)
(0.20247167 -0.0056149955 -4.3196004e-21)
(0.21904104 -0.0054274708 -4.4257491e-21)
(0.23566222 -0.0052349852 7.3667297e-22)
(0.25230134 -0.0050390491 1.228609e-21)
(0.26892608 -0.0048410174 2.5666457e-21)
(0.28550563 -0.0046421098 6.6539746e-21)
(0.30201082 -0.0044434257 2.4893802e-22)
(0.31841411 -0.0042459545 -3.4514879e-21)
(0.33468966 -0.0040505838 1.5558669e-22)
(0.35081339 -0.0038581051 -5.7710132e-22)
(0.36676306 -0.0036692184 1.2434445e-21)
(0.38251825 -0.0034845361 1.0522477e-21)
(0.39806045 -0.0033045868 -1.2988111e-21)
(0.41337304 -0.0031298186 -1.2218656e-22)
(0.42844128 -0.0029606035 3.5739516e-23)
(0.44325233 -0.0027972415 -3.5188029e-22)
(0.45779519 -0.0026399657 -4.0566552e-22)
(0.47206068 -0.0024889474 5.5420922e-23)
(0.48604139 -0.0023443019 -1.3809329e-22)
(0.49973162 -0.0022060947 -2.2343592e-22)
(0.51312736 -0.0020743479 2.5572556e-22)
(0.52622627 -0.0019490472 2.9502856e-22)
(0.53902756 -0.0018301509 -8.27736e-24)
(0.55153234 -0.0017175936 -1.5518959e-22)
(0.56374258 -0.0016113143 3.0406535e-23)
(0.57566488 -0.0015112127 -4.0146637e-23)
(0.58729943 -0.0014173601 9.2216756e-23)
(0.59867525 -0.00132942 2.1974572e-23)
(0.60974671 -0.0012486765 -1.1398215e-22)
(0.62070589 -0.0011719198 -6.7644067e-24)
(0.63107502 -0.0011113823 -7.074392e-26)
(0.6423652 -0.0010340957 -3.5662254e-24)
(0.65044407 -0.0010509721 2.9452239e-23)
(0.66702838 -0.00087574977 3.605526e-22)
(0.010446028 -0.015017661 -1.2746851e-20)
(0.018179886 -0.016641068 -6.3302476e-20)
(0.02777944 -0.017915475 -3.054202e-20)
(0.038385409 -0.018672138 3.847611e-20)
(0.049621295 -0.019183659 1.466265e-20)
(0.061506984 -0.019529507 -1.8204983e-20)
(0.074013227 -0.019709944 4.6722219e-21)
(0.087063132 -0.019746575 2.5447258e-20)
(0.10059366 -0.019667367 9.198639e-23)
(0.1145546 -0.01949179 -7.6591509e-21)
(0.12889783 -0.019234453 -1.3021045e-20)
(0.14357674 -0.018908408 -8.5245638e-21)
(0.15854745 -0.018525072 1.777239e-20)
(0.17376845 -0.018094103 8.9295968e-21)
(0.18919997 -0.017623784 -1.6522479e-20)
(0.20480385 -0.01712134 -6.0390782e-21)
(0.22054333 -0.016593108 3.2145119e-21)
(0.23638305 -0.016044684 8.3716551e-21)
(0.25228895 -0.015481048 6.9832564e-21)
(0.26822828 -0.014906661 -6.9727574e-21)
(0.28416962 -0.014325536 -3.1685777e-21)
(0.30008293 -0.0137413 1.3605571e-21)
(0.31593964 -0.013157227 3.8685172e-22)
(0.33171269 -0.012576274 1.2114075e-21)
(0.34737661 -0.012001095 1.8369005e-22)
(0.36290763 -0.011434064 -3.2662399e-22)
(0.37828368 -0.010877286 -7.2435927e-22)
(0.39348446 -0.010332603 9.7158926e-22)
(0.4084915 -0.0098016096 8.2484699e-22)
(0.42328814 -0.009285662 -1.5149169e-22)
(0.43785957 -0.0087858886 5.530775e-22)
(0.45219277 -0.0083032041 -2.3881225e-22)
(0.46627656 -0.007838323 -3.7071537e-22)
(0.48010147 -0.0073917758 -6.100117e-22)
(0.49365981 -0.0069639255 4.4172703e-22)
(0.50694553 -0.0065549861 -1.5496514e-23)
(0.51995426 -0.0061650423 1.6126785e-22)
(0.53268323 -0.0057940693 -4.4177995e-22)
(0.54513121 -0.0054419603 3.7193962e-22)
(0.55729888 -0.0051085372 6.7179699e-23)
(0.56918773 -0.0047936354 -1.0285492e-22)
(0.58080385 -0.004496971 1.7616983e-22)
(0.592147 -0.0042187735 2.334486e-22)
(0.60324544 -0.0039580531 1.6931159e-22)
(0.61405372 -0.0037186566 1.6773078e-22)
(0.62476106 -0.0034910269 -2.6109305e-23)
(0.63489607 -0.00331162 8.4102435e-23)
(0.6459469 -0.0030823075 7.6350661e-23)
(0.65384623 -0.0031328517 -1.9474965e-22)
(0.67011155 -0.0026130038 -3.8016573e-23)
(0.067614964 -0.024029233 9.452854e-21)
(0.073589977 -0.026749144 3.2951124e-21)
(0.08226585 -0.028805672 -1.2162246e-20)
(0.091948204 -0.029968614 -1.225801e-21)
(0.10198364 -0.03076798 1.4970634e-20)
(0.11254681 -0.031331014 -1.4887162e-20)
(0.12367649 -0.031636199 -2.9842361e-20)
(0.1352974 -0.03171314 1.4493571e-20)
(0.1473576 -0.031607776 1.8182027e-20)
(0.15982413 -0.031350202 -1.1598556e-20)
(0.17266137 -0.030961971 1.0190584e-21)
(0.18583167 -0.03046291 8.6860277e-21)
(0.19929877 -0.029870713 -1.52536e-20)
(0.21302759 -0.029200405 2.9095579e-21)
(0.22698355 -0.028464931 7.5194711e-21)
(0.24113262 -0.027675681 3.1572621e-23)
(0.25544147 -0.026842739 2.6554799e-22)
(0.26987749 -0.025975082 -7.415128e-21)
(0.28440887 -0.025080755 3.8617333e-21)
(0.29900467 -0.024167015 8.4749586e-21)
(0.31363496 -0.023240434 -3.8352013e-21)
(0.32827089 -0.02230698 -2.2130471e-21)
(0.34288483 -0.021372068 1.0124407e-21)
(0.35745049 -0.020440605 -1.7155508e-21)
(0.37194296 -0.019517018 1.3532332e-21)
(0.38633885 -0.018605278 7.1846372e-22)
(0.40061635 -0.017708913 1.5268852e-21)
(0.41475531 -0.01683103 -1.952712e-21)
(0.42873722 -0.015974324 2.2236305e-21)
(0.44254533 -0.015141097 5.5189981e-22)
(0.45616457 -0.01433328 4.0326371e-22)
(0.46958162 -0.013552445 3.2134884e-22)
(0.48278485 -0.012799837 8.7329643e-22)
(0.49576431 -0.012076396 -1.3709353e-21)
(0.5085117 -0.011382781 3.706807e-22)
(0.52102034 -0.010719408 1.0943948e-22)
(0.53328512 -0.010086474 -4.5181662e-23)
(0.54530252 -0.0094839973 8.6722441e-23)
(0.5570705 -0.008911857 -3.7188333e-22)
(0.56858887 -0.0083698132 1.8296055e-22)
(0.57985825 -0.0078576472 -3.4989722e-23)
(0.59088378 -0.0073749408 3.9012936e-22)
(0.60166441 -0.0069221241 -1.8548992e-22)
(0.61222702 -0.0064976084 4.7331906e-23)
(0.62252648 -0.0061077846 4.362017e-23)
(0.6327466 -0.0057369625 -7.3629523e-23)
(0.64242815 -0.0054450938 -1.2090391e-22)
(0.65301531 -0.0050712367 3.8829491e-22)
(0.66056626 -0.0051550747 1.7278174e-22)
(0.67621329 -0.004307954 -8.3050165e-22)
(0.15021571 -0.031460554 1.50102e-21)
(0.15354736 -0.03525753 -1.1566628e-20)
(0.16061673 -0.038011066 6.6442025e-21)
(0.16880645 -0.039479253 -1.3324773e-20)
(0.17698283 -0.040520852 -1.9758359e-21)
(0.1855241 -0.041302451 9.159973e-21)
(0.19458489 -0.041757416 -9.7662613e-21)
(0.20408767 -0.041913897 1.5662685e-21)
(0.21398849 -0.041833526 1.2903836e-20)
(0.22427686 -0.041554538 3.4032193e-21)
(0.23493348 -0.041102255 -6.2097149e-21)
(0.24593123 -0.040500666 -2.863829e-21)
(0.25724269 -0.039771973 -5.8409093e-21)
(0.2688403 -0.038935286 -6.4553453e-21)
(0.28069551 -0.038007213 3.2356818e-21)
(0.292779 -0.037002547 8.4618634e-22)
(0.30506122 -0.035934577 1.3679734e-21)
(0.31751257 -0.03481528 -3.3850551e-21)
(0.33010366 -0.033655514 -4.2429248e-21)
(0.34280545 -0.032465168 2.3616726e-21)
(0.35558953 -0.031253276 3.2251732e-21)
(0.36842823 -0.030028103 -1.5636496e-21)
(0.38129485 -0.028797197 1.5867453e-21)
(0.39416374 -0.027567436 -3.9125338e-22)
(0.40701049 -0.026345056 -3.9197102e-21)
(0.41981201 -0.025135674 -3.0333135e-21)
(0.4325466 -0.023944309 -1.9027627e-22)
(0.44519408 -0.022775393 4.2858092e-22)
(0.45773579 -0.021632796 -2.2106344e-21)
(0.47015466 -0.020519846 -8.5501476e-22)
(0.48243521 -0.019439348 2.2837906e-22)
(0.49456358 -0.018393619 -1.2499186e-21)
(0.50652748 -0.017384513 6.2515978e-24)
(0.51831622 -0.01641346 -4.2423676e-22)
(0.52992065 -0.015481503 -4.719466e-22)
(0.54133318 -0.014589337 -5.2001249e-22)
(0.5525477 -0.013737359 -8.4141778e-22)
(0.56355962 -0.012925708 -5.4490299e-23)
(0.57436579 -0.012154332 -3.9162293e-24)
(0.58496485 -0.011423009 -5.1979066e-22)
(0.59535625 -0.010731541 -9.159975e-23)
(0.60554382 -0.010079454 -3.3245769e-22)
(0.61552543 -0.0094674396 -4.3770958e-22)
(0.62532605 -0.0088934004 3.7851786e-22)
(0.63490109 -0.0083662241 1.4825124e-23)
(0.64442666 -0.0078644608 1.8244646e-22)
(0.65346105 -0.0074702986 -1.3255204e-22)
(0.66338528 -0.0069639788 -2.6704419e-22)
(0.67043828 -0.0070803091 -4.4616748e-23)
(0.68519855 -0.0059339978 4.6235902e-22)
(0.25468624 -0.03655292 -2.0900362e-20)
(0.25447082 -0.041393682 4.7586046e-20)
(0.25907398 -0.044745841 1.0348113e-20)
(0.26508482 -0.046442236 -1.5765355e-20)
(0.27071006 -0.047714518 -2.0228073e-21)
(0.27652073 -0.048747988 2.623224e-21)
(0.28283633 -0.04941394 -1.6608332e-21)
(0.28957779 -0.049728331 -4.6861543e-21)
(0.29669752 -0.049761671 -4.0159279e-21)
(0.30420647 -0.049557302 -1.2207675e-20)
(0.31210325 -0.049141946 1.7897825e-20)
(0.32037051 -0.04854107 6.5220227e-21)
(0.32898821 -0.047779241 -1.6780579e-20)
(0.33793532 -0.046878304 1.0317585e-20)
(0.34718845 -0.045857594 8.3849955e-21)
(0.35672221 -0.044734615 -8.7921462e-22)
(0.36651001 -0.043525377 -3.1222167e-21)
(0.37652455 -0.042244567 -3.8197724e-21)
(0.38673819 -0.040905687 -1.3892767e-21)
(0.3971232 -0.039521189 -1.2304371e-21)
(0.40765211 -0.038102567 -3.0258011e-21)
(0.41829794 -0.036660425 0)
(0.42903443 -0.03520452 -1.3452124e-21)
(0.43983619 -0.033743799 3.9309848e-21)
(0.45067886 -0.032286416 5.4053387e-21)
(0.46153929 -0.030839754 -9.4113093e-22)
(0.47239558 -0.029410441 -2.9275156e-21)
(0.48322719 -0.028004362 3.0259276e-21)
(0.49401501 -0.026626687 2.5445059e-22)
(0.50474139 -0.025281886 3.4353471e-21)
(0.51539016 -0.023973767 -5.346032e-22)
(0.52594667 -0.022705505 1.7173965e-21)
(0.53639776 -0.021479682 -7.996816e-22)
(0.54673173 -0.020298334 2.9097163e-22)
(0.55693841 -0.019162997 -4.3407393e-22)
(0.56700903 -0.018074761 5.623433e-22)
(0.5769363 -0.017034327 4.571372e-22)
(0.58671436 -0.016042064 3.8259262e-22)
(0.59633874 -0.015098089 -9.5946203e-22)
(0.60580672 -0.014202297 6.8363664e-22)
(0.61511635 -0.013354611 -3.6962234e-22)
(0.62426997 -0.01255459 -1.1035138e-21)
(0.63326418 -0.011803267 1.4081053e-21)
(0.64212171 -0.011098149 -6.2017294e-23)
(0.65079873 -0.010450544 -1.5820653e-22)
(0.6594618 -0.0098337462 -7.8274401e-24)
(0.66769143 -0.0093504633 -1.262955e-22)
(0.67678889 -0.0087275111 -4.6603293e-22)
(0.68322166 -0.0088751175 8.7877997e-22)
(0.69687042 -0.0074665674 -4.4323418e-23)
(0.37635203 -0.038368366 -1.7495142e-20)
(0.37171054 -0.04427044 1.2832068e-20)
(0.37286771 -0.048161835 2.9754774e-21)
(0.37591131 -0.050099085 -7.6353912e-21)
(0.37830616 -0.051670216 1.2056012e-20)
(0.38072388 -0.053042628 7.7914313e-21)
(0.38367701 -0.054030306 -1.2647714e-20)
(0.38710163 -0.05463338 -6.0679928e-21)
(0.39093034 -0.054918291 1.2697375e-20)
(0.3951836 -0.054927431 -1.5305039e-20)
(0.39987548 -0.054687822 -1.4063233e-20)
(0.40499637 -0.05422497 1.4129705e-20)
(0.41053 -0.053563987 6.8194069e-21)
(0.41645863 -0.052728286 -4.2038189e-21)
(0.42276168 -0.051739364 -1.8545429e-21)
(0.42941566 -0.050617106 -4.0581614e-21)
(0.4363952 -0.049380069 5.304752e-21)
(0.44367378 -0.048045604 3.6682234e-21)
(0.45122417 -0.046629936 -3.2408358e-21)
(0.45901883 -0.045148213 3.1379619e-21)
(0.46703024 -0.043614568 2.7667074e-21)
(0.47523121 -0.042042147 -3.2111438e-21)
(0.48359513 -0.040443135 3.7056768e-22)
(0.49209615 -0.038828763 -3.2571814e-21)
(0.5007094 -0.037209325 7.2455583e-21)
(0.50941106 -0.035594181 6.1081574e-21)
(0.51817855 -0.033991771 8.0976565e-22)
(0.52699055 -0.03240963 -1.7683522e-21)
(0.53582708 -0.030854409 3.7022983e-21)
(0.54466957 -0.029331904 7.1887479e-21)
(0.55350088 -0.027847086 2.3049855e-21)
(0.56230526 -0.02640415 3.3166149e-21)
(0.57106845 -0.025006559 1.9956925e-21)
(0.57977757 -0.023657097 7.4561894e-22)
(0.58842119 -0.022357934 -2.6375104e-22)
(0.59698928 -0.021110685 2.7204883e-21)
(0.60547317 -0.019916481 6.1996549e-22)
(0.61386564 -0.018776043 2.9489894e-22)
(0.62216079 -0.017689774 5.6236385e-23)
(0.63035445 -0.016657799 9.89791e-22)
(0.63844319 -0.015680267 4.7023816e-23)
(0.64642778 -0.014756875 4.4255366e-22)
(0.65430351 -0.013889079 -1.2623755e-22)
(0.66209064 -0.013074112 -2.7741808e-22)
(0.66974644 -0.012325604 -1.5222856e-22)
(0.67742644 -0.011612183 -4.2221997e-22)
(0.68473736 -0.011055009 1.6148464e-22)
(0.69288718 -0.01033391 -1.2728652e-22)
(0.69861094 -0.010511215 -5.0123057e-22)
(0.7109766 -0.0088837767 2.4591307e-22)
(0.50927516 -0.035974511 3.6471415e-21)
(0.49953128 -0.042960903 -1.8958327e-20)
(0.49627648 -0.047383713 -2.3083918e-21)
(0.49555688 -0.049737029 5.4869612e-21)
(0.49417052 -0.051818305 3.0528233e-21)
(0.49269677 -0.053705682 -4.9873891e-23)
(0.49181337 -0.055187932 6.189698e-21)
(0.49151564 -0.056265693 7.6251259e-21)
(0.49171285 -0.056990837 9.8580634e-21)
(0.49241196 -0.057395889 -1.1250078e-20)
(0.49363235 -0.057506627 -2.1579504e-20)
(0.49536915 -0.057348753 -3.9353749e-21)
(0.49760612 -0.056947477 1.593821e-20)
(0.50032454 -0.056327365 1.2809012e-20)
(0.50350325 -0.055512099 -5.9067033e-21)
(0.5071182 -0.054524223 1.3816859e-21)
(0.51114317 -0.053385171 -3.6601224e-21)
(0.51555062 -0.052115336 2.2444301e-21)
(0.52031226 -0.050734055 -2.9123145e-22)
(0.52539943 -0.049259584 -1.8654241e-21)
(0.53078346 -0.047709091 7.8266722e-21)
(0.53643598 -0.046098653 -2.9310424e-22)
(0.54232918 -0.044443246 4.1819852e-22)
(0.54843602 -0.042756734 -6.5645398e-22)
(0.55473038 -0.041051869 -4.3029899e-21)
(0.56118725 -0.03934029 4.2085711e-21)
(0.56778278 -0.037632529 1.903134e-21)
(0.5744944 -0.035938024 -3.308244e-21)