/*--------------------------------*- C++ -*----------------------------------*\
  =========                 |
  \\      /  F ield         | OpenFOAM: The Open Source CFD Toolbox
   \\    /   O peration     | Website:  https://openfoam.org
    \\  /    A nd           | Version:  6
     \\/     M anipulation  |
\*---------------------------------------------------------------------------*/
FoamFile
{
    version     2.0;
    format      ascii;
    class       volSymmTensorField;
    location    "161";
    object      UPrime2Mean;
}
// * * * * * * * * * * * * * * * * * * * * * * * * * * * * * * * * * * * * * //

dimensions      [0 2 -2 0 0 0 0];

internalField   nonuniform List<symmTensor> 
9200
(
(0.00012296766 -9.5452203e-05 4.4702785e-22 7.6608294e-05 -2.3911297e-22 7.2236966e-39)
(0.00075742281 -0.00060655134 1.1429785e-21 0.00048758964 -8.5297725e-22 7.8576004e-39)
(0.001529632 -0.0011870296 1.4140886e-22 0.0009264657 -1.0679192e-22 4.3085148e-39)
(0.0024087257 -0.001746301 -1.7195484e-21 0.0012801405 1.2094712e-21 8.5875407e-39)
(0.0032733017 -0.0022422312 8.001098e-23 0.0015623307 -6.693724e-23 1.2593555e-39)
(0.0040631881 -0.0026525672 7.2169558e-22 0.0017728355 -4.7960325e-22 1.972527e-40)
(0.0047370185 -0.0029696327 -1.5525241e-22 0.0019190654 1.076691e-22 5.7064498e-40)
(0.0052617007 -0.00319413 1.4114324e-22 0.0020133648 -9.5184746e-23 3.8434454e-40)
(0.0056146272 -0.003330793 7.0039982e-22 0.0020675793 -4.2555993e-22 1.0963304e-39)
(0.0057844731 -0.0033864598 5.4395834e-23 0.0020917712 -3.3253977e-23 3.1250405e-42)
(0.0057712057 -0.0033691668 -7.5378983e-22 0.0020942394 4.6425739e-22 5.8820081e-40)
(0.0055858995 -0.0032875882 6.3069754e-22 0.0020816217 -4.032129e-22 8.0238045e-41)
(0.0052498807 -0.0031506777 -1.123945e-21 0.0020590517 7.5984918e-22 1.2586958e-39)
(0.0047929476 -0.0029674521 -5.699697e-22 0.0020303726 3.9310242e-22 8.017675e-41)
(0.0042507289 -0.0027468507 1.4788958e-22 0.0019983706 -1.1002769e-22 1.0255004e-41)
(0.0036614235 -0.0024976118 -5.5693242e-22 0.0019649995 4.3751954e-22 1.0742241e-40)
(0.0030621911 -0.0022281607 4.8902626e-22 0.0019316927 -4.1665114e-22 1.3036984e-40)
(0.0024855925 -0.0019466379 3.6308548e-22 0.0019003711 -3.2403718e-22 5.3402332e-40)
(0.00195896 -0.0016605363 -1.2734827e-23 0.00187359 2.7184679e-23 9.8543264e-41)
(0.0015120748 -0.0013752088 -7.2388166e-24 0.0018329406 2.4193613e-23 1.2214634e-40)
(0.00016221952 -0.00010843801 4.6767027e-23 7.4443858e-05 -1.7975606e-23 1.2697783e-40)
(0.00096563166 -0.00066953854 1.2108313e-21 0.0004656599 -7.8766552e-22 8.3826554e-39)
(0.0019173689 -0.0012908515 -3.9435869e-22 0.0008739257 2.6438834e-22 4.5539323e-39)
(0.0029356474 -0.0018642756 -3.0854685e-21 0.0011970189 1.9295478e-21 1.9869683e-38)
(0.00387988 -0.0023507336 -1.058433e-22 0.0014493546 6.733294e-23 2.5072262e-40)
(0.0046806503 -0.0027307691 2.3842783e-21 0.0016332495 -1.4082544e-21 6.5732322e-39)
(0.0052955868 -0.003001344 -9.787853e-22 0.0017582888 5.7276771e-22 2.2437858e-40)
(0.0056980929 -0.003168412 -2.9580424e-22 0.0018378287 1.716563e-22 8.0777253e-41)
(0.0058779293 -0.003241615 1.1234645e-21 0.0018840209 -6.5653489e-22 6.1634756e-40)
(0.0058406482 -0.0032320573 -1.3628027e-21 0.0019067667 8.1027363e-22 7.0694836e-40)
(0.0056061001 -0.0031512887 -9.6740092e-22 0.0019138103 5.9012828e-22 8.7463225e-40)
(0.0052062747 -0.0030107187 2.0905695e-21 0.001910907 -1.3279606e-21 4.4472199e-39)
(0.004682133 -0.0028213224 9.7454169e-22 0.0019020431 -6.5966849e-22 3.1010609e-40)
(0.0040795175 -0.0025935402 -1.5366897e-21 0.0018896951 1.1120815e-21 1.5350512e-39)
(0.0034446102 -0.0023372713 2.7595632e-22 0.0018750811 -2.1561404e-22 1.2816818e-40)
(0.0028195717 -0.0020618857 -6.1390345e-22 0.001858382 5.3826068e-22 3.405336e-40)
(0.0022389152 -0.0017762195 -2.5446114e-22 0.0018389865 2.6320973e-22 1.0741573e-40)
(0.0017270158 -0.0014883998 7.7923311e-22 0.0018158135 -8.7911601e-22 1.7356871e-39)
(0.0012982898 -0.0012049597 3.6968797e-22 0.0017856263 -4.9814341e-22 3.2879646e-40)
(0.00096214166 -0.00093241904 -1.5824886e-22 0.0017318221 1.9853012e-22 2.4949902e-39)
(0.00020652314 -0.00011764356 -3.9153478e-22 6.8521914e-05 1.6673539e-22 3.266935e-39)
(0.0011875122 -0.00070606038 -6.5202346e-22 0.00042090503 3.622281e-22 3.4058935e-39)
(0.0023154275 -0.0013405215 -7.445226e-22 0.00078051852 4.3368627e-22 8.5133231e-39)
(0.0034507998 -0.0019024339 2.4702692e-23 0.0010609221 -1.358882e-23 9.2343416e-43)
(0.0044371415 -0.0023579683 3.3861284e-23 0.0012767609 -1.5747133e-23 6.1162039e-39)
(0.0052010716 -0.0026926261 8.3627108e-22 0.0014327508 -4.4646303e-22 1.7101064e-39)
(0.0057067502 -0.0029091823 7.9243607e-23 0.0015397974 -3.9831274e-23 7.0805153e-40)
(0.0059426652 -0.0030189943 -1.4159953e-21 0.0016111038 7.6266239e-22 4.4885884e-40)
(0.0059192839 -0.0030360486 1.6770914e-21 0.0016579565 -9.2658617e-22 8.4919292e-40)
(0.0056658467 -0.0029746467 5.5241606e-22 0.0016889959 -3.2052951e-22 9.3641205e-40)
(0.005226108 -0.0028484859 -1.5200687e-21 0.0017104248 9.2214346e-22 1.9311248e-39)
(0.0046532311 -0.0026702933 -4.7670461e-22 0.0017262765 3.1024968e-22 6.3190773e-40)
(0.0040039503 -0.0024518174 1.738636e-22 0.00173873 -1.2124155e-22 1.7132137e-39)
(0.0033326272 -0.0022040035 4.1294483e-22 0.0017484572 -3.2201245e-22 2.4565471e-40)
(0.0026860693 -0.0019371848 -1.4428655e-22 0.0017549726 1.2597403e-22 1.8833897e-40)
(0.0020998774 -0.0016611793 3.3666977e-22 0.0017569785 -3.3939704e-22 1.4827323e-40)
(0.0015967517 -0.0013852465 -2.3241121e-22 0.0017526998 2.7605871e-22 5.6699834e-41)
(0.0011867489 -0.001117846 -4.7173482e-22 0.0017400896 6.6078981e-22 1.3917897e-39)
(0.00086933621 -0.00086604575 -1.4584974e-23 0.0017164846 1.5684088e-23 1.2567884e-39)
(0.000637382 -0.00063636241 1.63466e-22 0.0016763023 -3.595799e-22 1.4196429e-40)
(0.00025438404 -0.0001217088 -3.1094945e-22 5.9373127e-05 1.1461378e-22 1.6226384e-39)
(0.0014116317 -0.0007100002 4.7414731e-22 0.00035797053 -2.3267171e-22 3.0205811e-40)
(0.0026997756 -0.0013274852 4.209683e-22 0.00065669633 -2.077329e-22 3.5035138e-40)
(0.0039189894 -0.0018536673 9.195955e-22 0.00088786838 -4.3929986e-22 3.780567e-39)
(0.0049027623 -0.0022617969 8.076146e-22 0.0010656594 -3.8413022e-22 1.6815466e-39)
(0.0055817916 -0.0025437449 -1.4166987e-21 0.0011964586 6.7493074e-22 1.2824475e-39)
(0.0059361687 -0.0027080315 -7.9212011e-22 0.0012912092 3.8442392e-22 3.6490763e-40)
(0.0059783904 -0.0027701813 0 0.0013616283 0 0)
(0.0057464555 -0.0027466904 8.6479694e-22 0.0014169664 -4.7200335e-22 4.7110827e-39)
(0.0052966527 -0.0026530267 -3.7502011e-22 0.0014636297 2.2255277e-22 1.7847671e-39)
(0.0046956464 -0.0025031554 -2.1994739e-21 0.0015055108 1.321085e-21 1.5678701e-39)
(0.0040123696 -0.0023096537 -2.8214929e-22 0.0015443596 1.7893318e-22 3.1876914e-40)
(0.0033104511 -0.0020841023 1.0816779e-21 0.0015802001 -8.1296637e-22 2.1414526e-39)
(0.0026421945 -0.0018374689 6.2225614e-23 0.0016117868 -4.0711316e-23 8.8800863e-40)
(0.002044945 -0.0015802834 -1.6699414e-23 0.0016370795 1.6549808e-23 6.2098701e-43)
(0.0015401504 -0.0013225334 1.7932097e-22 0.0016537269 -2.1032805e-22 1.0929929e-40)
(0.001134853 -0.0010733254 1.4724445e-24 0.0016594891 3.599466e-24 1.2856187e-40)
(0.00082486577 -0.00084043555 -3.1762752e-22 0.0016524365 5.4398722e-22 3.3158944e-40)
(0.00059855197 -0.00062984569 -1.7594964e-22 0.001631714 3.7760414e-22 2.3141443e-40)
(0.00044075395 -0.00044585627 8.7527602e-23 0.0015998047 -2.7592021e-22 1.4620488e-39)
(0.00030360857 -0.00011947588 2.3480696e-22 4.785752e-05 -7.4809167e-23 6.3836208e-40)
(0.001623831 -0.00067741912 9.7795237e-22 0.00028329084 -3.9008251e-22 5.7514923e-39)
(0.0030433264 -0.0012482134 7.6716883e-22 0.00051547302 -3.1642268e-22 3.6330151e-40)
(0.0043043435 -0.0017185746 8.5514822e-22 0.00069623852 -3.4974098e-22 2.0227808e-39)
(0.0052389372 -0.0020698589 -1.3145069e-21 0.0008384459 5.4413691e-22 3.1867166e-39)
(0.005791943 -0.002300336 4.9442607e-23 0.00094901535 -1.5958933e-23 3.0327294e-40)
(0.0059690092 -0.0024225524 7.5058559e-23 0.0010375362 -3.281539e-23 2.5458863e-42)
(0.0058136654 -0.0024535381 1.0676742e-21 0.0011130794 -4.9946245e-22 1.1379992e-39)
(0.0053943903 -0.0024095194 1.4404437e-22 0.0011819906 -7.16186e-23 1.0232768e-41)
(0.0047926422 -0.0023047611 -3.8638586e-22 0.0012478224 2.2060017e-22 6.1614391e-40)
(0.0040915373 -0.0021518449 1.2550836e-21 0.0013117509 -7.8561335e-22 4.2935835e-39)
(0.003366111 -0.0019623351 -9.148671e-22 0.0013730348 6.0800822e-22 3.6702371e-40)
(0.0026762106 -0.0017473883 -1.7201553e-21 0.0014295442 1.3578552e-21 2.611197e-39)
(0.0020628097 -0.0015180073 -5.6846334e-23 0.0014783511 5.2964398e-23 5.5338595e-42)
(0.0015478374 -0.0012848456 6.1053087e-22 0.0015163412 -6.9379521e-22 2.1265114e-39)
(0.001136857 -0.0010576702 0 0.0015407911 0 0)
(0.00082345576 -0.00084470297 7.7169183e-23 0.0015497829 -1.1273129e-22 5.5349831e-41)
(0.00059409722 -0.00065209727 -3.7977793e-23 0.0015422819 8.5763136e-23 8.2439562e-41)
(0.00043222645 -0.00048372766 -3.9103043e-23 0.0015191863 8.7026846e-23 2.1589866e-41)
(0.00032127142 -0.00034116094 1.7838697e-23 0.0014870178 -8.0653527e-23 1.4835334e-40)
(0.00035152678 -0.00011025631 5.1341574e-22 3.5174346e-05 -1.322629e-22 2.5815218e-39)
(0.0018091802 -0.00060782133 5.0332645e-23 0.00020476203 -1.6528527e-23 4.7735154e-42)
(0.003320275 -0.0011059978 -1.4427432e-22 0.00037149403 4.8782684e-23 2.112904e-41)
(0.0045768204 -0.0015070087 1.4695623e-22 0.00050526228 -4.7502003e-23 4.1786392e-40)
(0.0054201161 -0.0018000167 -9.0426599e-22 0.00061680121 3.1800635e-22 7.8343524e-40)
(0.0058196029 -0.001987893 -4.3420793e-22 0.00071235451 1.5869044e-22 7.0628914e-41)
(0.0058140875 -0.0020838733 3.0595844e-22 0.00079908362 -9.4194512e-23 2.2335987e-39)
(0.0054810399 -0.0021029007 -1.1455151e-23 0.00088276434 1.2898148e-23 1.7475682e-40)
(0.0049170509 -0.0020580045 -7.2977454e-22 0.00096648326 3.654511e-22 1.8466559e-39)
(0.0042216548 -0.0019603908 1.2646392e-21 0.0010507659 -6.628696e-22 5.3856835e-40)
(0.0034843175 -0.0018204894 -3.2827247e-23 0.0011340382 4.8351505e-23 9.5989501e-40)
(0.0027755751 -0.00164886 -9.9991153e-22 0.0012131887 7.3569866e-22 2.6406174e-39)
(0.0021429273 -0.0014565384 0 0.0012842552 0 0)
(0.0016112556 -0.0012547147 2.4151361e-22 0.0013431782 -2.7959004e-22 1.4191685e-39)
(0.0011866405 -0.0010539335 1.1850781e-23 0.0013865123 -2.6286437e-23 7.7734281e-41)
(0.00086194759 -0.00086316449 -2.9244119e-22 0.0014119836 4.7035193e-22 1.6471375e-39)
(0.00062259804 -0.00068907489 -6.6272564e-23 0.0014187403 1.212839e-22 3.4223992e-41)
(0.00045138801 -0.00053573403 -1.9971221e-23 0.0014071844 5.6456886e-23 5.5343991e-41)
(0.00033165716 -0.00040485183 -2.6313025e-23 0.0013797841 7.6128525e-23 2.1430463e-41)
(0.00024887298 -0.00029605332 4.6992604e-23 0.0013443914 -1.8626048e-22 2.0519306e-40)
(0.00039529245 -9.4004113e-05 1.9806014e-22 2.2742809e-05 -3.8111162e-23 4.0883513e-40)
(0.0019539095 -0.00050457622 -1.4196791e-21 0.00013075196 3.5730419e-22 8.8899881e-39)
(0.0035096165 -0.0009108485 -1.2672809e-22 0.00023904739 3.5890173e-23 8.3008522e-40)
(0.0047164579 -0.0012367647 -3.7952128e-22 0.00033234117 1.1178088e-22 4.1751808e-39)
(0.0054364677 -0.0014773229 -2.8202578e-22 0.0004187516 7.8606309e-23 5.7607681e-41)
(0.0056724407 -0.0016364019 -1.5975134e-21 0.0005030353 4.9753297e-22 7.6105961e-40)
(0.0054998268 -0.0017235958 -7.8247403e-22 0.00058955384 2.7733475e-22 6.1565052e-40)
(0.0050276291 -0.0017481878 1.5115297e-21 0.00068083317 -5.7341646e-22 4.9261768e-40)
(0.0043731576 -0.0017178673 2.5836976e-22 0.0007768761 -1.3429553e-22 6.3253557e-40)
(0.0036436725 -0.001640064 -3.3179882e-22 0.00087537481 1.5166723e-22 2.1607923e-40)
(0.0029244227 -0.0015233179 1.555606e-22 0.00097224537 -5.7363245e-23 8.1194247e-40)
(0.0022732897 -0.0013777853 -2.9218625e-23 0.0010623789 3.9699225e-23 2.0580343e-40)
(0.0017213447 -0.0012147681 0 0.0011405506 0 0)
(0.0012776255 -0.0010455604 1.6396327e-22 0.0012023161 -1.7251215e-22 4.931774e-41)
(0.00093593699 -0.00088012693 -3.4793919e-22 0.001244704 4.6077192e-22 6.7534435e-40)
(0.00068165706 -0.0007260867 -1.128836e-22 0.0012665726 1.752907e-22 5.7992685e-41)
(0.00049721772 -0.00058825513 1.9439527e-22 0.0012685411 -3.9634196e-22 8.0773827e-40)
(0.00036574022 -0.00046878018 -4.341163e-23 0.0012525191 5.8052268e-23 1.7409032e-40)
(0.00027283294 -0.00036781404 -2.7471606e-24 0.0012220755 -5.1540136e-24 1.9536734e-41)
(0.00020696839 -0.00028408571 4.429157e-23 0.0011846917 -1.3365571e-22 1.72395e-41)
(0.000432203 -7.1372414e-05 1.4418244e-22 1.2011487e-05 -1.8922338e-23 2.5601053e-40)
(0.0020471653 -0.00037462494 -1.314743e-21 6.8922055e-05 2.3698572e-22 4.076622e-39)
(0.0035977226 -0.00067815777 -1.027393e-21 0.00013007746 2.0393024e-22 4.8794506e-39)
(0.00471557 -0.00093083675 1.4643201e-21 0.00019077469 -3.0654513e-22 1.194324e-39)
(0.0052940827 -0.0011298491 1.1036296e-21 0.00025666933 -2.4908787e-22 2.4756287e-40)
(0.0053743551 -0.0012753148 -8.0655106e-22 0.00033102859 1.7863593e-22 2.5899881e-39)
(0.0050666684 -0.0013689309 2.6336756e-22 0.00041591273 -1.0076875e-22 1.0971019e-39)
(0.0045041753 -0.0014117706 1.5393524e-21 0.0005112634 -5.4863948e-22 1.2277169e-39)
(0.0038143822 -0.0014054282 6.7423559e-22 0.00061452288 -2.6642415e-22 1.5433572e-40)
(0.0031015887 -0.0013540354 -6.6175638e-22 0.00072093617 3.3985599e-22 4.0041065e-40)
(0.0024387136 -0.0012651491 -8.9656653e-22 0.00082430566 5.3734861e-22 4.7652965e-40)
(0.001867086 -0.0011491743 -2.4412275e-23 0.00091806365 1.7750242e-23 4.966189e-43)
(0.0014017839 -0.0010177675 2.5721432e-22 0.00099642365 -2.264731e-22 7.7165574e-41)
(0.0010395954 -0.00088195438 -8.6704035e-24 0.0010553066 2.9725211e-23 1.186024e-40)
(0.00076702376 -0.00075063359 -9.0839319e-24 0.0010928259 4.8279217e-23 3.209962e-40)
(0.00056668271 -0.00062983209 6.3140954e-24 0.0011092759 -6.2955452e-23 5.7986105e-40)
(0.00042147965 -0.00052271012 8.970343e-23 0.0011066797 -1.8045704e-22 1.6953319e-40)
(0.0003167798 -0.00043010683 -5.0295563e-23 0.0010880735 1.5168994e-22 4.4279719e-40)
(0.00024106403 -0.00035143736 -1.296208e-22 0.0010574702 3.6694899e-22 8.5685411e-40)
(0.00018559356 -0.00028532948 4.3526577e-23 0.001021041 -1.071346e-22 1.9014158e-41)
(0.00046014059 -4.3661512e-05 -3.739276e-22 4.2523626e-06 3.1156521e-23 7.6473529e-40)
(0.002082505 -0.00022760436 -2.9086649e-22 2.517551e-05 3.1249249e-23 8.2432514e-40)
(0.0035797312 -0.00042658669 2.2527416e-21 5.2695521e-05 -2.8614406e-22 1.0080532e-38)
(0.0045791407 -0.00061412872 1.6734047e-21 8.8423625e-05 -2.4249964e-22 1.099327e-39)
(0.0050131706 -0.00078473228 7.4789077e-22 0.0001366264 -1.1746655e-22 5.403224e-40)
(0.004960793 -0.00092991859 1.5084558e-22 0.00020005666 -3.0919008e-23 5.1802028e-42)
(0.0045600861 -0.0010403992 -1.4131746e-21 0.00027969262 3.139186e-22 2.2578782e-39)
(0.0039576616 -0.0011081191 0 0.00037388308 0 0)
(0.0032802184 -0.0011292173 -8.6315597e-22 0.0004781235 3.7475276e-22 1.8703713e-39)
(0.0026206852 -0.0011057563 -1.4799091e-22 0.00058563802 9.7949394e-23 4.2417193e-40)
(0.0020355327 -0.0010452849 4.2193115e-22 0.00068858981 -2.4531345e-22 1.0251342e-40)
(0.001549802 -0.0009587737 4.4933976e-23 0.00077957207 -5.8290721e-23 2.3340773e-40)
(0.0011659751 -0.00085798061 -2.0036831e-22 0.00085291769 1.9755897e-22 2.7120046e-40)
(0.00087329074 -0.00075321819 -1.5038337e-22 0.00090546411 1.9915133e-22 5.8057821e-40)
(0.00065533878 -0.0006520731 9.7492838e-23 0.00093665456 -9.9139257e-23 7.1155986e-41)
(0.00049510897 -0.00055913067 1.3469851e-22 0.00094808964 -1.7421927e-22 6.5303631e-41)
(0.00037766814 -0.00047641147 -1.195707e-22 0.0009427594 1.993576e-22 6.0472234e-41)
(0.00029113456 -0.00040414837 -1.5937472e-22 0.00092422946 3.4741803e-22 7.1633001e-40)
(0.00022663976 -0.00034166774 1.2663373e-23 0.00089634467 -2.5552973e-24 8.4447488e-41)
(0.00017768962 -0.00028787946 2.139793e-23 0.00086360632 -7.3773565e-23 9.9533246e-41)
(0.00047749953 -1.2610324e-05 -2.4683307e-22 3.8221547e-07 6.2923872e-24 3.741654e-40)
(0.0020579382 -7.4633206e-05 1.0523429e-21 2.9575612e-06 -3.7747814e-23 2.0743692e-39)
(0.0034594151 -0.00017587446 1.6089675e-21 1.0458282e-05 -9.9164983e-23 1.5053577e-38)
(0.0043236242 -0.0003106957 -1.8793657e-21 2.7501039e-05 1.6266531e-22 4.1423593e-39)
(0.0046244629 -0.00046555812 6.774594e-22 5.9016408e-05 -7.4658227e-23 1.0389523e-40)
(0.0044726934 -0.00061969039 2.7620678e-22 0.00010899046 1.8643692e-24 3.8279125e-39)
(0.0040235294 -0.00075163069 7.2955628e-23 0.00017884004 -1.4860563e-23 1.3687267e-42)
(0.0034255936 -0.00084499773 -1.0365231e-21 0.00026628103 2.4017038e-22 1.2882307e-39)
(0.0027957518 -0.00089211015 -2.3504202e-23 0.00036538295 8.1701968e-24 2.0492933e-43)
(0.0022108466 -0.00089437584 3.8555208e-22 0.0004677711 -2.0203618e-22 4.914038e-40)
(0.0017106671 -0.00085997663 3.0094536e-23 0.00056450776 -3.1204271e-23 7.0386568e-41)
(0.0013069846 -0.0008003527 -1.3926837e-22 0.00064797162 3.7077819e-23 9.1058887e-40)
(0.00099409781 -0.00072694314 -3.0835556e-22 0.00071313885 2.5223251e-22 1.005822e-40)
(0.00075785806 -0.00064904195 -1.5132732e-24 0.00075799686 2.4345866e-23 1.1862294e-40)
(0.0005819201 -0.00057296942 1.039264e-22 0.00078318226 -1.376256e-22 1.155305e-40)
(0.00045124709 -0.00050225123 6.9016055e-23 0.00079116248 -1.1073839e-22 1.1217243e-40)
(0.00035356152 -0.00043831473 1.5412699e-23 0.00078531218 -5.2537978e-23 1.8202772e-40)
(0.00027957002 -0.00038130354 -1.1067039e-22 0.00076915977 1.5617667e-22 1.4556433e-40)
(0.00022259178 -0.00033078521 -2.3273664e-23 0.00074597378 -1.5256493e-23 6.2444419e-40)
(0.0001778365 -0.00028600266 5.9774991e-23 0.00071862249 -1.8964293e-22 1.0295918e-39)
(3.200956e-06 -3.9972097e-07 3.1996811e-23 4.8840582e-07 -6.4041618e-24 3.6567022e-40)
(1.5090053e-05 -6.3161772e-06 -4.5652894e-23 3.2445417e-06 1.2649854e-23 3.5204933e-40)
(3.3800782e-05 -1.459724e-05 1.0141035e-22 6.4677141e-06 -3.7986176e-23 2.0218584e-39)
(0.00010836446 -3.0801347e-05 2.8303435e-22 9.2736125e-06 -6.0348242e-23 6.7999212e-39)
(0.0002377944 -5.080232e-05 -2.0217154e-22 1.1792717e-05 3.4423513e-23 1.7683553e-39)
(0.00042492975 -7.3180023e-05 2.5480362e-22 1.4026718e-05 -3.4570851e-23 1.9539452e-39)
(0.0006758358 -9.7164434e-05 -3.4974928e-22 1.5978701e-05 4.4377622e-23 2.1457576e-39)
(0.00099208576 -0.00012198682 -3.607046e-22 1.7689603e-05 3.7684193e-23 2.2689564e-39)
(0.0013721237 -0.00014702337 4.5360768e-22 1.9203569e-05 -4.7000559e-23 2.3985597e-39)
(0.001813357 -0.00017181411 -3.5200322e-22 2.0555113e-05 3.4358974e-23 1.2215951e-39)
(0.002312557 -0.00019601272 -1.7626354e-23 2.1770531e-05 2.9373674e-25 1.420922e-41)
(0.0028659117 -0.00021935103 1.0122859e-22 2.2870011e-05 -1.0772048e-23 4.4910804e-41)
(0.0034692039 -0.00024161801 -1.7457903e-23 2.386906e-05 8.3769002e-25 7.131751e-42)
(0.0041179772 -0.00026264667 5.5000097e-22 2.4780151e-05 -4.930108e-23 2.1390447e-39)
(0.0048076366 -0.00028231003 7.6014925e-25 2.5614773e-05 1.0427549e-24 4.6227239e-42)
(0.0055335499 -0.00030052867 -8.0737525e-22 2.6385514e-05 7.5565621e-23 4.3986844e-39)
(0.0062911825 -0.00031727754 1.4947715e-22 2.7105811e-05 -1.5748777e-23 9.2832565e-41)
(0.0070761188 -0.00033255578 3.62416e-22 2.7785679e-05 -3.5985985e-23 1.1185534e-39)
(0.0078839666 -0.00034643155 -5.8720747e-22 2.8435041e-05 6.2565031e-23 3.1702334e-39)
(0.0087097618 -0.00035937791 -3.2386689e-22 2.9049271e-05 3.6885706e-23 1.1903474e-39)
(3.6254256e-06 -1.6726199e-06 1.0536559e-23 4.2982671e-06 -3.8917168e-24 3.6173677e-41)
(1.9237216e-05 -2.1643224e-05 -2.891091e-22 2.8591264e-05 2.1798196e-22 1.1773541e-38)
(4.3169157e-05 -4.9136782e-05 5.7377056e-23 5.697549e-05 -4.7459659e-23 1.0626364e-39)
(0.00012748437 -9.9704421e-05 3.0442507e-22 8.1695305e-05 -1.8693429e-22 5.6827497e-39)
(0.00026819016 -0.00016121672 4.2291255e-22 0.00010384153 -2.0315435e-22 6.4261366e-39)
(0.00046719854 -0.00022949982 5.1129984e-23 0.00012339871 -2.0491363e-23 6.0365342e-41)
(0.00072983543 -0.00030225448 -1.3591914e-21 0.0001403993 4.7049611e-22 3.2139696e-38)
(0.0010567894 -0.00037720831 -4.784991e-23 0.00015520657 1.9809077e-23 9.2702734e-42)
(0.0014457122 -0.00045253032 7.6850162e-22 0.00016820871 -2.3365043e-22 5.4841227e-39)
(0.0018932887 -0.00052687057 -1.8544399e-22 0.00017970977 5.1117709e-23 3.0495738e-40)
(0.002395577 -0.00059920994 -7.0364715e-22 0.00018994141 1.9248838e-22 3.3824461e-39)
(0.0029480472 -0.00066875644 1.4801652e-22 0.00019908037 -3.7771267e-23 1.5401519e-40)
(0.0035457519 -0.00073488306 6.2467206e-22 0.00020726035 -1.393651e-22 3.6286508e-39)
(0.0041834763 -0.00079708793 2.5802906e-22 0.00021458612 -6.4069736e-23 4.1434541e-40)
(0.0048558134 -0.00085497956 5.1578642e-22 0.00022115105 -1.3729075e-22 1.1979725e-39)
(0.0055572644 -0.00090829716 -4.0744135e-22 0.00022705478 1.0254703e-22 1.0137261e-39)
(0.0062824884 -0.00095693776 -3.8913299e-22 0.0002324052 9.7013377e-23 1.1088848e-39)
(0.0070262114 -0.0010008611 3.9261493e-22 0.00023728921 -1.1164619e-22 6.4051402e-40)
(0.0077817096 -0.0010402518 3.5786374e-22 0.00024180523 -9.9389417e-23 1.1205926e-39)
(0.0085409861 -0.0010769056 1.3817665e-22 0.00024594894 -3.6914431e-23 4.7615601e-40)
(4.6603587e-06 -4.2828527e-06 8.1072959e-24 1.1464737e-05 -4.0533302e-24 1.9041196e-41)
(2.9077411e-05 -4.4726895e-05 2.1956355e-22 7.6321533e-05 -2.3501592e-22 5.0176372e-39)
(6.4973605e-05 -9.882182e-05 -4.8042276e-23 0.0001519638 6.1909587e-23 2.6276393e-40)
(0.00016968528 -0.00018921682 -3.3068341e-22 0.00021780234 2.7838847e-22 6.2213696e-39)
(0.00033368574 -0.00029644269 1.2167448e-22 0.00027657803 -1.0214095e-22 1.7610279e-40)
(0.00055702154 -0.00041375551 1.6105286e-22 0.00032812492 -1.3088944e-22 9.2426495e-41)
(0.00084353172 -0.00053735922 -2.0078884e-22 0.00037252204 1.0638509e-22 5.5424144e-40)
(0.0011922351 -0.00066357814 -5.2427348e-22 0.00041073747 3.0572506e-22 1.1064431e-39)
(0.0015992727 -0.00078947623 2.2945055e-22 0.00044380344 -1.1142387e-22 3.0949545e-40)
(0.0020599319 -0.00091288144 4.871912e-22 0.00047253467 -2.0234167e-22 1.7579668e-39)
(0.0025688941 -0.0010321409 1.352514e-22 0.00049755537 -9.3801889e-23 6.5950917e-41)
(0.0031202479 -0.001145957 5.95272e-22 0.00051934014 -1.9731902e-22 3.2625665e-39)
(0.0037076432 -0.0012532861 5.0423299e-23 0.00053824233 -1.8660135e-23 1.3524701e-41)
(0.0043244159 -0.0013532704 -8.8282609e-22 0.00055452833 2.9766984e-22 5.2450739e-39)
(0.0049636275 -0.0014452109 6.4675066e-23 0.00056842415 -4.2807651e-23 2.9081253e-41)
(0.0056181675 -0.001528601 -4.1208997e-22 0.00058016477 1.143979e-22 2.044082e-39)
(0.0062812311 -0.0016031904 -5.798937e-22 0.0005900059 2.2971053e-22 8.3938639e-40)
(0.0069460788 -0.0016688315 9.4045887e-22 0.00059820078 -3.6666982e-22 2.7866856e-39)
(0.0076021165 -0.0017257751 4.9580988e-22 0.00060516312 -2.0550928e-22 5.6678544e-40)
(0.0082367976 -0.0017778412 9.902198e-23 0.00061115791 -4.5185302e-23 1.2154804e-41)
(6.8656301e-06 -8.8591759e-06 -1.2138789e-23 2.1113786e-05 1.5286909e-23 2.7887581e-41)
(4.766599e-05 -7.9413006e-05 -5.0863884e-22 0.00014079554 6.4327983e-22 1.6648502e-38)
(0.0001054315 -0.00017117059 -3.697321e-23 0.00028007769 4.7513441e-23 2.2754585e-40)
(0.0002438459 -0.00030934074 8.5206993e-23 0.00040109941 -9.432609e-23 1.4502602e-40)
(0.00044568291 -0.00046812531 -1.3772991e-23 0.00050859547 3.5659813e-24 3.7465701e-41)
(0.00070823189 -0.00063836619 4.3395262e-22 0.00060196421 -3.1800912e-22 2.7340438e-39)
(0.0010330477 -0.00081476817 4.7969061e-22 0.00068130462 -3.131273e-22 2.4836608e-39)
(0.0014166799 -0.00099238983 -1.4535714e-22 0.00074840245 7.0202952e-23 3.9143982e-40)
(0.0018530161 -0.0011673287 -5.3265019e-22 0.00080517268 2.779487e-22 2.4885854e-39)
(0.0023352329 -0.0013366775 -1.0729936e-21 0.00085314912 5.7818829e-22 5.275559e-39)
(0.0028559333 -0.0014981959 -2.3592577e-23 0.00089352376 -1.2575419e-23 1.2049616e-40)
(0.003407141 -0.0016501003 1.3640934e-21 0.00092721045 -6.3472839e-22 8.621944e-39)
(0.0039804307 -0.0017909245 -5.5268867e-22 0.00095488786 2.1041885e-22 2.5494891e-39)
(0.004567054 -0.0019194367 -3.5667892e-22 0.00097706198 1.5605266e-22 5.0294863e-40)
(0.0051579547 -0.0020345942 -4.2784607e-23 0.00099414305 4.8266916e-23 1.0862226e-40)
(0.0057438914 -0.0021355855 8.4325647e-22 0.001006531 -3.6968219e-22 2.0625848e-39)
(0.0063161903 -0.0022219544 -4.7709616e-22 0.0010146499 2.3938501e-22 1.3798345e-40)
(0.0068665219 -0.0022934751 -1.0933922e-21 0.0010190327 4.6083906e-22 4.4409583e-39)
(0.0073800139 -0.0023505064 7.324768e-22 0.00102096 -3.1952318e-22 2.2329319e-39)
(0.0078392385 -0.0023992219 6.3170251e-22 0.0010219078 -2.5378513e-22 2.0773577e-39)
(1.0980092e-05 -1.5779117e-05 5.4492186e-23 3.2186779e-05 -5.2959726e-23 3.5855947e-40)
(7.9076318e-05 -0.00012794619 1.7672267e-23 0.00021487859 -4.5771683e-24 1.6191966e-40)
(0.00017275223 -0.00027050243 -7.0062846e-22 0.00042669508 1.0033122e-21 1.3655734e-38)
(0.00036141338 -0.00046554357 -4.0245376e-22 0.00061012091 4.2747425e-22 4.2246797e-39)
(0.00061825895 -0.00068202715 2.6867624e-22 0.00077189375 -2.1390428e-22 2.5536937e-39)
(0.00093683572 -0.00090838699 3.3376238e-22 0.00091063486 -2.6890244e-22 1.2027454e-39)
(0.0013154433 -0.0011377708 -4.3431532e-22 0.001026448 2.8349502e-22 2.8146744e-39)
(0.0017472468 -0.0013641341 -6.6218387e-22 0.0011221019 3.7968524e-22 6.1765472e-39)
(0.0022230285 -0.0015827875 9.7933731e-22 0.0012005904 -5.8455292e-22 6.3366882e-39)
(0.0027330407 -0.0017902213 2.8097711e-22 0.0012643626 -1.1342996e-22 1.4753491e-39)
(0.0032670316 -0.0019837082 -8.8291908e-22 0.0013153697 5.8465023e-22 4.8770354e-40)
(0.0038142518 -0.0021610628 3.8735702e-22 0.0013551427 -1.7575018e-22 1.1358191e-39)
(0.004363624 -0.0023204873 0 0.0013848502 0 0)
(0.0049038862 -0.0024604659 3.7685414e-22 0.0014053751 -1.8356491e-22 4.444173e-40)
(0.0054236484 -0.0025797104 -2.8259607e-22 0.0014174193 1.3427439e-22 2.3731604e-40)
(0.0059115859 -0.002677203 -4.3264637e-22 0.0014216169 2.1617839e-22 2.8804381e-40)
(0.0063575518 -0.0027523856 1.5933656e-22 0.0014185681 -1.3101406e-22 4.054584e-40)
(0.0067526168 -0.002805174 -1.2962969e-22 0.001409104 7.7822361e-23 1.4635456e-41)
(0.0070790175 -0.0028363572 6.2052672e-22 0.0013960242 -2.6881514e-22 2.4051065e-39)
(0.0073143732 -0.0028542046 -5.0436028e-22 0.0013839008 2.4779564e-22 1.3992991e-40)
(1.7858633e-05 -2.5160988e-05 5.2269116e-23 4.3632782e-05 -4.3947096e-23 2.8788884e-40)
(0.00012790286 -0.00019073725 2.5174529e-22 0.00029107112 -3.3524328e-22 1.0744716e-39)
(0.00027598897 -0.00039726507 -3.3784907e-22 0.00057616393 4.4836755e-22 2.5629683e-39)
(0.00053441864 -0.00065757445 -5.5427546e-22 0.00082164874 6.2380402e-22 2.1451112e-39)
(0.00086505527 -0.00093636435 -1.6229496e-22 0.0010360563 2.3878713e-22 1.6936132e-39)
(0.0012564354 -0.0012195112 -5.0089914e-22 0.0012170189 4.4013229e-22 1.0541208e-39)
(0.0017023657 -0.0014985429 -2.3340273e-22 0.0013647478 1.4365853e-22 1.2186224e-39)
(0.002191568 -0.0017665394 4.0403429e-22 0.0014831641 -2.4289047e-22 2.2477418e-39)
(0.0027107804 -0.0020182984 9.652321e-22 0.0015765296 -5.7500433e-22 7.695542e-39)
(0.0032464882 -0.0022499709 2.9703266e-22 0.0016484268 -1.8281904e-22 3.2267875e-40)
(0.0037849421 -0.0024586194 -2.8216813e-22 0.001701795 1.4971575e-22 5.1196015e-40)
(0.0043122082 -0.0026419505 -5.296746e-23 0.0017390151 -1.1529864e-23 4.4597718e-40)
(0.0048144449 -0.0027981533 -1.3419011e-21 0.0017619718 7.3438068e-22 4.2440626e-39)
(0.0052781769 -0.0029257929 -4.1635951e-22 0.0017721404 2.1777458e-22 4.3900047e-40)
(0.005690486 -0.0030237505 6.9649999e-22 0.0017707028 -4.0336502e-22 2.0792337e-40)
(0.0060393273 -0.0030912442 -6.9397829e-22 0.0017586615 3.7548368e-22 4.338586e-40)
(0.0063149798 -0.0031280193 -2.4466794e-22 0.0017368064 1.2054031e-22 1.3884919e-40)
(0.0065106389 -0.0031345472 5.4785299e-22 0.0017060721 -2.3091266e-22 2.1590992e-39)
(0.0066096047 -0.0031126125 8.2921794e-22 0.0016709535 -4.1525878e-22 1.63634e-39)
(0.0065853819 -0.0030718695 1.0108451e-22 0.0016414206 -4.7297524e-23 3.1870564e-41)
(2.8409538e-05 -3.6872222e-05 -1.4742864e-22 5.4495857e-05 1.1970872e-22 1.7033796e-39)
(0.0001987122 -0.00026632284 -1.6331709e-22 0.00036226694 1.6568997e-22 1.3576932e-39)
(0.00042366598 -0.00054778217 4.1214793e-22 0.00071357258 -5.2105969e-22 6.2085351e-40)
(0.00077318021 -0.00087894812 6.2913231e-22 0.0010135464 -6.5178557e-22 2.8468032e-39)
(0.0011959571 -0.0012211213 8.2194605e-24 0.0012722185 -7.4016363e-24 5.652725e-43)
(0.0016738783 -0.0015574462 -1.7078109e-21 0.0014863131 1.4092256e-21 1.6627245e-38)
(0.0021948009 -0.001877897 -6.680534e-22 0.0016564519 5.720592e-22 2.371709e-40)
(0.0027419236 -0.0021750681 5.1986672e-22 0.0017879404 -3.5059522e-22 1.8247234e-39)
(0.0032971814 -0.0024437326 5.956364e-22 0.0018865145 -4.0001031e-22 1.115789e-39)
(0.0038428624 -0.0026802243 -5.8399569e-22 0.0019571124 3.2505867e-22 3.0634088e-39)
(0.0043616564 -0.0028819483 -1.7138152e-21 0.0020038998 1.0817064e-21 4.462769e-39)
(0.004836898 -0.0030471059 1.1267217e-21 0.0020303443 -6.8288866e-22 1.8346273e-39)
(0.0052530475 -0.0031745308 6.7066224e-22 0.0020392806 -3.4971915e-22 2.1989476e-39)
(0.0055961848 -0.0032635867 -9.2897092e-22 0.0020329996 5.1270183e-22 1.8140759e-39)
(0.0058544084 -0.003314099 4.0788849e-22 0.0020133595 -2.3557727e-22 1.2153489e-40)
(0.0060182677 -0.0033263223 6.7675499e-22 0.0019818729 -3.4866772e-22 1.3512335e-39)
(0.0060823189 -0.003301016 2.5762532e-22 0.0019395299 -1.4535936e-22 4.5964843e-41)
(0.0060462535 -0.0032397091 -4.4119741e-22 0.001886991 2.7305133e-22 5.8091119e-41)
(0.0059005167 -0.0031455765 -1.0205336e-22 0.0018297246 3.2997176e-23 3.3476286e-40)
(0.0056177761 -0.0030284541 5.7834516e-22 0.0017845235 -3.346519e-22 1.3561992e-40)
(4.3525462e-05 -5.0533249e-05 -4.3934896e-24 6.3928438e-05 -4.628763e-24 3.1708964e-41)
(0.00029543916 -0.00035141727 -5.9349201e-22 0.00042216415 6.2791918e-22 4.4616959e-39)
(0.00062229426 -0.0007143987 -4.7366616e-22 0.00082596128 5.0829825e-22 6.7506621e-39)
(0.0010839372 -0.0011172371 8.8887445e-22 0.0011669151 -8.5203421e-22 3.9457813e-39)