/*--------------------------------*- C++ -*----------------------------------*\
  =========                 |
  \\      /  F ield         | OpenFOAM: The Open Source CFD Toolbox
   \\    /   O peration     | Website:  https://openfoam.org
    \\  /    A nd           | Version:  6
     \\/     M anipulation  |
\*---------------------------------------------------------------------------*/
FoamFile
{
    version     2.0;
    format      ascii;
    class       surfaceScalarField;
    location    "221";
    object      phi_0;
}
// * * * * * * * * * * * * * * * * * * * * * * * * * * * * * * * * * * * * * //

dimensions      [0 3 -1 0 0 0 0];

internalField   nonuniform List<scalar> 
18180
(
0.00031872915
-0.00016315994
-0.0001555692
0.0013092106
-0.0013669155
0.00037643406
0.0030328865
-0.003333619
0.0016099431
0.0055497716
-0.0059759577
0.0034590727
0.0089181938
-0.0092390776
0.0058706554
0.013192808
-0.013079527
0.008804913
0.018421935
-0.017459837
0.01223071
0.024644595
-0.022345795
0.016123135
0.031887358
-0.027703311
0.020460549
0.040161266
-0.033495801
0.025221894
0.049459149
-0.039682433
0.03038455
0.059753699
-0.046217202
0.035922651
0.070996706
-0.053048841
0.041805834
0.083119908
-0.060121575
0.047998373
0.096038079
-0.067376828
0.054458657
0.10965486
-0.074755987
0.061139203
0.1238708
-0.082204078
0.067988147
0.13859852
-0.089674061
0.074946334
0.15383662
-0.097148807
0.081910709
-0.10462594
0.088678863
0.1697837
0.00039749694
-0.00056065688
0.0016095942
-0.0025790127
0.0036893168
-0.0054133416
0.0066874413
-0.0089740822
0.010650648
-0.013202285
0.015617864
-0.018046742
0.021616251
-0.023458225
0.028657247
-0.029386792
0.036732932
-0.035778996
0.045813129
-0.042575998
0.05584367
-0.049712974
0.066746183
-0.057119715
0.078419638
-0.064722296
0.090743752
-0.072445689
0.10358404
-0.080217112
0.11679788
-0.087969833
0.13024075
-0.095646947
0.14377295
-0.10320626
0.15725855
-0.11063441
-0.11786187
0.17049448
0.00048062327
-0.0010412802
0.0019186976
-0.004017087
0.0043524774
-0.0078471214
0.0078165608
-0.012438166
0.01233766
-0.017723384
0.017929201
-0.023638283
0.024586241
-0.030115264
0.032281199
-0.03708175
0.040960828
-0.044458624
0.050544906
-0.052160077
0.06092705
-0.060095118
0.071977786
-0.068170451
0.083549777
-0.076294287
0.095484789
-0.084380702
0.10762167
-0.092353989
0.11980424
-0.1001524
0.13188798
-0.1077307
0.14374347
-0.11506174
0.15524869
-0.12213963
-0.12891427
0.16630109
0.00056616951
-0.0016074497
0.0022279417
-0.0056788593
0.0050006097
-0.010619789
0.0088940079
-0.016331564
0.013905254
-0.02273463
0.020011876
-0.029744905
0.02716648
-0.037269868
0.035293407
-0.045208677
0.044287846
-0.053453063
0.054017764
-0.061889995
0.064328706
-0.07040606
0.075051116
-0.078892861
0.086009509
-0.08725268
0.097032484
-0.095403676
0.10796245
-0.10328396
0.11866395
-0.1108539
0.12902964
-0.11809639
0.13898296
-0.12501507
0.14847491
-0.13163158
-0.13794518
0.15750582
0.00065088607
-0.0022583357
0.002524341
-0.0075523142
0.005603633
-0.013699081
0.0098644624
-0.020592393
0.015264608
-0.028134775
0.021736405
-0.036216703
0.029182475
-0.044715939
0.037474886
-0.053501089
0.046457993
-0.062436169
0.055954828
-0.071386829
0.065776422
-0.080227654
0.075733003
-0.088849442
0.085645708
-0.097165386
0.095357387
-0.10511536
0.1047412
-0.11266777
0.11370619
-0.11981888
0.12219936
-0.12658957
0.13020457
-0.13302027
0.137738
-0.13916502
-0.14506756
0.14486038
0.00073063565
-0.0029889714
0.0027920856
-0.0096137641
0.0061265729
-0.017033569
0.01066671
-0.02513253
0.016322647
-0.033790712
0.022975239
-0.042869295
0.030474423
-0.052215123
0.038642392
-0.061669057
0.04728118
-0.071074958
0.056183725
-0.080289374
0.065146878
-0.089190807
0.073984591
-0.097687155
0.082539476
-0.10572027
0.090691295
-0.11326717
0.098361451
-0.12033793
0.1055133
-0.12697073
0.11214879
-0.13322506
0.1183024
-0.13917388
0.12403363
-0.14489624
-0.15046328
0.12942935
0.00080073102
-0.0037897024
0.0030139155
-0.011826949
0.006532893
-0.020552546
0.01124005
-0.029839687
0.016992694
-0.039543356
0.023618541
-0.049495142
0.03091821
-0.059514792
0.038673312
-0.069424159
0.046658767
-0.079060413
0.054657392
-0.088287999
0.062474454
-0.097007869
0.069949951
-0.10516265
0.076966961
-0.11273728
0.0834551
-0.11975531
0.089389112
-0.12627194
0.094783318
-0.13236494
0.099683311
-0.13812505
0.1041565
-0.14364707
0.10828311
-0.14902285
-0.15433355
0.11215338
0.00085605854
-0.004645761
0.00317206
-0.01414295
0.0067872245
-0.024167711
0.0115298
-0.034582262
0.017203431
-0.045216987
0.023586545
-0.055878255
0.030439871
-0.066368119
0.037519324
-0.076503612
0.044591795
-0.086132884
0.051451001
-0.095147204
0.05793063
-0.1034875
0.063912776
-0.1111448
0.069330645
-0.11815515
0.074165696
-0.12459036
0.078440259
-0.1305465
0.082207342
-0.13613202
0.085539509
-0.14145722
0.088518569
-0.14662613
0.091227368
-0.15173165
-0.15685204
0.093745853
0.0008902622
-0.0055360232
0.0032482826
-0.016500971
0.006857621
-0.027777049
0.011492462
-0.039217104
0.016906807
-0.050631332
0.022838892
-0.061810341
0.029023667
-0.072552893
0.035209248
-0.082689194
0.041173927
-0.092097563
0.046740396
-0.10071367
0.051784656
-0.10853176
0.056238409
-0.11559855
0.060085142
-0.12200188
0.063351252
-0.12785647
0.06609422
-0.13328947
0.068390062
-0.13842787
0.070321931
-0.14338909
0.071971245
-0.14827545
0.073411935
-0.15317234
-0.15814769
0.074707589
0.00089981809
-0.0064358412
0.00323338
-0.018834532
0.006729163
-0.031272832
0.011111175
-0.043599116
0.016092483
-0.05561264
0.021384621
-0.067102478
0.026713883
-0.077882155
0.031839115
-0.087814426
0.036567086
-0.096825533
0.040762273
-0.10490886
0.044349476
-0.11211896
0.047309352
-0.11855843
0.049668409
-0.12436094
0.051485819
-0.12967388
0.05283953
-0.13464318
0.053813826
-0.13940216
0.054489717
-0.14406498
0.054938826
-0.14872456
0.055220555
-0.15345407
0.05538099
-0.15830813
-0.0002023782
0.0002023782
1.6305375e-12
-0.00067774623
0.00047536803
2.0207299e-12
-0.0013424253
0.00066467906
1.7947893e-12
-0.0021322934
0.00078986808
1.4311859e-12
-0.002995772
0.00086347864
9.8147468e-13
-0.0038907389
0.00089496691
4.7374235e-13
-0.0047822941
0.00089155521
-5.9890799e-14
-0.0056408911
0.00085859692
-5.8716641e-13
-0.0064408659
0.00079997482
-1.1489786e-12
-0.0071592867
0.0007184208
-1.6579996e-12
-0.007775035
0.00061574837
-2.226118e-12
-0.0082680708
0.00049303575
-2.6729746e-12
-0.0086188523
0.00035078148
-3.182087e-12
-0.008807903
0.00018905076
-3.467675e-12
-0.0088155566
7.6535874e-06
-3.6906694e-12
-0.0086219803
-0.00019357625
-3.6525815e-12
-0.0082074391
-0.0004145412
-3.7108137e-12
-0.0075518902
-0.00065554897
-3.2613761e-12
-0.0066345772
-0.00091731298
-2.9466595e-12
-0.0011862296
-0.0054483475
-2.2375398e-12
-0.00018797442
0.00039035262
-0.00062500688
0.00091240049
-0.001228753
0.0012684252
-0.0019351941
0.0014963092
-0.0026921388
0.0016204233
-0.0034562835
0.0016591117
-0.0041910666
0.0016263383
-0.0048648583
0.0015323886
-0.0054495235
0.00138464
-0.0059192864
0.0011881838
-0.0062498153
0.00094627727
-0.0064174805
0.00066070088
-0.0063987495
0.00033205051
-0.0061697083
-3.9990392e-05
-0.0057057361
-0.00045631865
-0.0049814248
-0.00091788752
-0.0039707954
-0.0014251706
-0.0026472185
-0.0019791259
-0.00098326417
-0.0025812673
-0.0032017788
0.001032285
-0.00015892782
0.00054928044
-0.00051889134
0.001272364
-0.0010007698
0.0017503037
-0.0015412592
0.0020367986
-0.0020873496
0.0021665137
-0.002593735
0.002165497
-0.0030208681
0.0020534714
-0.0033332936
0.0018448141
-0.0034983024
0.0015496488
-0.0034848554
0.0011747367
-0.0032626998
0.0007241217
-0.0028016494
0.00019965045
-0.0020709505
-0.00039864835
-0.0010387685
-0.0010721724
0.00032824192
-0.0018233291
0.002065213
-0.0026548586
0.0042090238
-0.0035689814
0.0067979941
-0.0045680962
0.0098718151
-0.0056550883
-0.0067797311
0.013449767
-0.00011756693
0.00066684736
-0.00036699847
0.0015217956
-0.00067351353
0.0020568187
-0.00097482551
0.0023381105
-0.0012168539
0.0024085421
-0.0013515942
0.0023002373
-0.0013354601
0.0020373373
-0.0011278293
0.0016371833
-0.00068984655
0.001111666
1.6528285e-05
0.0004683619
0.0010293044
-0.00028865445
0.0023871071
-0.0011581522
0.0041297228
-0.002141264
0.0062985807
-0.0032410303
0.008937259
-0.0044620073
0.012092041
-0.0058096409
0.015812291
-0.0072892315
0.020150153
-0.0089059575
0.025160336
-0.010665271
-0.012492605
0.03087321
-6.6907629e-05
0.00073375499
-0.0001791665
0.0016340544
-0.00026653384
0.0021441861
-0.00026769159
0.0023392683
-0.00012719456
0.0022680451
0.00020616631
0.0019668764
0.00078069255
0.0014628111
0.0016429475
0.00077492836
0.0028387262
-8.4112646e-05
0.0044138409
-0.0011067528
0.006414685
-0.0022894986
0.0088886492
-0.0036321164
0.011884447
-0.0051370616
0.015452444
-0.0068090272
0.019645032
-0.0086545961
0.024517252
-0.010681861
0.030127666
-0.012899645
0.036538872
-0.015317164
0.043818268
-0.017944668
-0.02068252
0.052008183
-9.9846349e-06
0.00074373963
3.4534923e-05
0.0015895349
0.00019989002
0.001978831
0.0005467654
0.0019923929
0.0011322465
0.001682564
0.00201098
0.0010881429
0.0032361382
0.00023765294
0.0048603015
-0.00084923497
0.0069361166
-0.0021599277
0.0095166701
-0.0036873064
0.012655698
-0.0054285262
0.016407688
-0.0073841068
0.02082781
-0.0095571837
0.025971751
-0.011952968
0.03189562
-0.014578464
0.038656244
-0.017442484
0.046312356
-0.020555757
0.054926654
-0.023931462
0.064569635
-0.027587649
-0.03140557
0.075292685
5.0751274e-05
0.00069298836
0.0002656576
0.0013746285
0.00070825398
0.0015362346
0.0014390296
0.0012616173
0.002516819
0.00060477459
0.0039995643
-0.00039460242
0.0059449112
-0.001707694
0.0084105985
-0.0033149222
0.011454588
-0.0052039169
0.015135032
-0.0073677512
0.019510011
-0.0098035043
0.024636996
-0.012511092
0.030572125
-0.015492312
0.037369294
-0.018750138
0.045079233
-0.022288403
0.053748952
-0.026112203
0.063422561
-0.030229367
0.074144662
-0.034653563
0.085969286
-0.039412273
-0.044388473
0.098952189
0.00011379624
0.00057919211
0.00050850316
0.00097992162
0.0012459817
0.00079875602
0.0023867764
0.00012082263
0.0039912389
-0.00099968787
0.006119873
-0.0025232365
0.0088333154
-0.0044211364
0.012192159
-0.006673766
0.016256549
-0.0092683064
0.021085434
-0.012196637
0.026735533
-0.015453603
0.033260005
-0.019035564
0.040706863
-0.02293917
0.049117166
-0.027160441
0.058523123
-0.03169436
0.06894647
-0.03653555
0.080398285
-0.041681182
0.092882107
-0.047137385
0.10640544
-0.052935605
-0.058995637
0.1210126
0.00017849574
0.00040069637
0.00076002957
0.00039838779
0.0018053382
-0.00024655256
0.0033747123
-0.0014485515
0.0055289931
-0.0031539687
0.0083293158
-0.0053235591
0.011836485
-0.0079283055
0.016110052
-0.010947333
0.021207034
-0.014365288
0.027180292
-0.018169895
0.034076604
-0.022349915
0.04193446
-0.026893421
0.05078164
-0.03178635
0.060632569
-0.03701137
0.071485471
-0.042547262
0.083319358
-0.048369437
0.096091825
-0.054453649
0.10974039
-0.060785946
0.12419596
-0.067391178
-0.074274583
0.13947491
0.00024512717
0.001019949
0.0023833395
0.0043938607
0.0071105474
0.010591901
0.014894306
0.020070108
0.026165368
0.033217367
0.041252002
0.050281232
0.060300717
0.07128772
0.083199114
0.095968879
0.10950338
0.12366376
0.1381833
0.15258758
-0.0035077233
-0.0019406242
-3.2105714e-12
-0.0012859397
-0.0022217836
-5.6016735e-12
0.0011946681
-0.0024806078
-8.3927248e-12
0.0038772008
-0.0026825327
-8.8025391e-12
0.0067348548
-0.002857654
-5.9003942e-12
0.0097503242
-0.0030154694
-5.1236331e-12
0.012904674
-0.0031543501
-3.7603656e-12
0.016179882
-0.0032752081
-3.2023253e-12
0.019560247
-0.0033803647
-1.4768985e-12
0.02303155
-0.0034713024
1.5141007e-12
0.026580503
-0.0035489536
5.4075226e-12
0.030194683
-0.00361418
1.0061381e-11
0.033862446
-0.0036677632
1.5514574e-11
0.037572796
-0.00371035
2.1560588e-11
0.041315282
-0.0037424854
2.762437e-11
0.04507993
-0.0037646487
3.3253798e-11
0.048857201
-0.0037772713
3.7749799e-11
0.052637951
-0.0037807498
4.0847072e-11
0.056413412
-0.0037754606
4.1901197e-11
0.060175183
-0.0037617717
4.0723661e-11
0.063915234
-0.0037400509
3.6785503e-11
0.067625907
-0.0037106723
3.0097137e-11
0.071299927
-0.0036740205
2.0262473e-11
0.074930419
-0.0036304924
7.4330112e-12
0.078510917
-0.0035804973
-8.6160272e-12
0.082035373
-0.0035244562
-2.7430191e-11
0.085498172
-0.0034627992
-4.8794955e-11
0.088894135
-0.0033959626
-7.1620647e-11
0.09221852
-0.0033243856
-9.4931587e-11
0.095467027
-0.0032485063
-1.1670876e-10
0.098635786
-0.0031687588
-1.3505945e-10
0.10172136
-0.0030855693
-1.4712961e-10
0.10472071
-0.0029993534
-1.5051036e-10
0.10763122
-0.0029105145
-1.4230855e-10
0.11045067
-0.0028194419
-1.2070574e-10
0.11317718
-0.0027265112
-8.4291211e-11
0.11580926
-0.0026320849
-3.3614851e-11
0.11834578
-0.0025365151
2.9221589e-11
0.12078593
-0.0024401507
9.9387644e-11
0.12312927
-0.002343338
1.7001644e-10
0.12537573
-0.002246463
2.3219634e-10
0.1275256
-0.0021498766
2.7616808e-10
0.12957987
-0.0020542685
2.9260893e-10
0.1315395
-0.0019596274
2.7440464e-10
0.13340857
-0.0018690735
2.1854511e-10
0.1351856
-0.0017770285
1.282196e-10
0.13689503
-0.00170943
1.2694641e-11
0.13849272
-0.0015976879
-1.0685252e-10
0.14017948
-0.0016867559
-2.2421307e-10
-0.0013309511
-2.6624199e-10
0.0028528963
-0.0037612355
0.0049500382
-0.0043189255
0.007292892
-0.0048234616
0.0098190158
-0.0052086565
0.012507348
-0.0055459865
0.015345564
-0.0058536851
0.018316922
-0.0061257081
0.021405016
-0.0063633019
0.024595826
-0.0065711752
0.027876591
-0.0067520672
0.031235178
-0.0069075407
0.034660106
-0.0070391081
0.038140518
-0.0071481754
0.041666068
-0.0072359
0.045226838
-0.007303255
0.048813294
-0.0073511047
0.052416257
-0.0073802344
0.056026883
-0.0073913751
0.05963665
-0.0073852285
0.063237367
-0.0073624886
0.066821173
-0.0073238568
0.070380554
-0.007270053
0.073908356
-0.0072018222
0.0773978
-0.0071199372
0.080842502
-0.007025199
0.084236479
-0.006918433
0.087574164
-0.0068004846
0.090850415
-0.0066722134
0.094060515
-0.0065344851
0.097200173
-0.0063881649
0.10026552
-0.0062341102
0.10325312
-0.0060731635
0.10615991
-0.0059061477
0.10898326
-0.0057338612
0.11172089
-0.0055570757
0.11437092
-0.005376536
0.1169318
-0.0051929621
0.11940233
-0.0050070536
0.12178169
-0.0048195051
0.12406936
-0.0046310059
0.12626522
-0.0044423267
0.12836951
-0.004254168
0.13038315
-0.0040679063
0.13230704
-0.0038835228
0.1341452
-0.003707226
0.13589613
-0.0035279585
0.13758382
-0.0033971183
0.13916516
-0.0031790338
0.14083577
-0.0033573646
-0.0026594483
0.015021099
-0.0053325676
0.016852195
-0.0061500207
0.018905726
-0.0068769929
0.021111765
-0.0074146958
0.023458678
-0.0078928995
0.025942812
-0.0083378189
0.028551548
-0.0087344443
0.031271407
-0.0090831605
0.034091287
-0.0093910557
0.03700096
-0.0096617394
0.039990303
-0.0098968839
0.043049457
-0.010098262
0.046168896
-0.010267615
0.049339366
-0.01040637
0.052551837
-0.010515726
0.055797497
-0.010596765
0.059067757
-0.010650494
0.062354253
-0.010677872
0.065648864
-0.010679839
0.068943724
-0.010657348
0.072231245
-0.010611378
0.07550414
-0.010542948
0.078755443
-0.010453125
0.081978532
-0.010343027
0.085167151
-0.010213817
0.088315419
-0.010066702
0.091417853
-0.0099029183
0.09446937
-0.0097237301
0.097465295
-0.0095304099
0.10040136
-0.0093242335
0.10327372
-0.0091064646
0.1060789
-0.0088783479
0.10881385
-0.0086410996
0.11147589
-0.0083959009
0.11406271
-0.0081438951
0.11657236
-0.0078861864
0.11900325
-0.0076238443
0.1213541
-0.0073579093
0.12362401
-0.0070894163
0.1258124
-0.006819394
0.12791907
-0.0065489949
0.12994417
-0.0062792682
0.13188853
-0.0060122711
0.133753
-0.0057479931
0.13554143
-0.0054956474
0.13725241
-0.0052389431
0.13890897
-0.0050536806
0.14047034
-0.004740405
0.14212151
-0.005008534
-0.0039961829
0.032056496
-0.0065158537
0.033471688
-0.0075652123
0.035077185
-0.0084824905
0.036800013
-0.009137523
0.038640855
-0.0097337419
0.04060601
-0.010302974
0.042688305
-0.01081674
0.044878218
-0.011273074
0.047168173
-0.01168101
0.04955094
-0.012044507
0.052018814
-0.012364757
0.054563836
-0.012643284
0.057177997
-0.012881776
0.059853254
-0.013081627
0.062581544
-0.013244016
0.065354823
-0.013370044
0.06816511
-0.013460781
0.071004528
-0.013517289
0.073865343
-0.013540654
0.076740003
-0.013532009
0.079621176
-0.013492551
0.082501782
-0.013423554
0.085375027
-0.013326369
0.088234426
-0.013202427
0.091073837
-0.013053228
0.09388747
-0.012880335
0.096669913
-0.012685361
0.099416135
-0.012469952
0.1021215
-0.012235772
0.10478175
-0.011984491
0.10739305
-0.011717764
0.10995193
-0.011437226
0.1124553
-0.011144472
0.11490046
-0.010841056
0.11728505
-0.010528482
0.11960706
-0.010208204
0.12186485
-0.0098816339
0.12405709
-0.0095501476
0.12618279
-0.0092151149
0.1282413
-0.008877902
0.13023234
-0.0085400401
0.132156
-0.0082029284
0.13401303
-0.0078692962
0.1358042
-0.0075391656
0.13753319
-0.0072246314
0.13919878
-0.0069045362
0.14082262
-0.0066775199
0.14236741
-0.0062851966
0.14400287
-0.0066439938
-0.0053570486
0.05264847
-0.0071561405
0.053489049
-0.0084057916
0.054483156
-0.009476597
0.055565102
-0.010219469
0.056749704
-0.010918344
0.058051257
-0.011604526
0.05946827
-0.012233753
0.060995877
-0.01280068
0.062629865
-0.013314999
0.064365638
-0.01378028
0.066197675
-0.014196794
0.068119706
-0.014565316
0.070124967
-0.014887037
0.072206356
-0.015163015
0.074356525
-0.015394185
0.076567961
-0.015581481
0.078833073
-0.015725893
0.081144266
-0.015828482
0.083494012
-0.0158904
0.085874907
-0.015912904
0.088279725
-0.015897369
0.090701464
-0.015845293
0.093133385
-0.01575829
0.095569045
-0.015638087
0.09800233
-0.015486513
0.10042747
-0.015305478
0.10283907
-0.015096961
0.1052321
-0.014862984
0.10760193
-0.0146056
0.10994431
-0.014326865
0.11225537
-0.014028824
0.11453163
-0.013713489
0.11676999
-0.013382836
0.11896772
-0.013038782
0.12112243
-0.012683189
0.12323208
-0.01231786
0.12529499
-0.011944543
0.12730979
-0.011564948
0.12927546
-0.01118078
0.1311913
-0.010793741
0.133057
-0.010405745
0.13487261
-0.010018542
0.13663884
-0.0096355251
0.13835646
-0.0092567815
0.14002896
-0.0088971324
0.14165544
-0.0085310175
0.14325586
-0.0082779428
0.14479736
-0.0078266945
0.14643074
-0.0082773747
-0.0067652844
0.075221661
-0.0070851165
0.075326612
-0.0085107428
0.07555097
-0.0097009545
0.075851249
-0.010519749
0.076255486
-0.011322581
0.076780532
-0.012129572
0.077429423
-0.012882644
0.078202089
-0.013573346
0.079096839
-0.014209748
0.080110523
-0.014793965
0.081238899
-0.01532517
0.08247667
-0.015803087
0.083817653
-0.016228019
0.085255066
-0.016600429
0.086781735
-0.016920853
0.088390205
-0.017189951
0.090072858
-0.017408546
0.091822016
-0.01757764
0.093630035
-0.017698419
0.095489377
-0.017772246
0.097392676
-0.017800668
0.09933279
-0.017785407
0.10130285
-0.017728349
0.10329629
-0.017631529
0.10530689
-0.017497115
0.10732879
-0.017327379
0.10935651
-0.017124681
0.11138496
-0.016891433
0.11340945
-0.016630085
0.11542568
-0.016343094
0.11742975
-0.016032899
0.11941817
-0.015701907
0.12138781
-0.015352475
0.12333592
-0.014986894
0.12526012
-0.014607389
0.12715838
-0.014216116
0.129029
-0.013815168
0.13087065
-0.013406594
0.13268231
-0.012992438
0.13446331
-0.012574748
0.13621339
-0.012155819
0.13793261
-0.011737767
0.13962172
-0.011324638
0.14128157
-0.010916625
0.14291553
-0.010531096
0.14452313
-0.010138618
0.14612248
-0.0098772945
0.14768588
-0.0093900869
0.14934276
-0.0099342598
-0.0082530035
0.098025188
-0.0061581149
0.097257907
-0.0077434617
0.096581608
-0.0090246554
0.095997162
-0.009935303
0.095540698
-0.010866117
0.095223448
-0.011812322
0.09505078
-0.012709976
0.095026695
-0.013549261
0.095150726
-0.01433378
0.095419609
-0.015062848
0.095828983
-0.015734544
0.096373439
-0.016347542
0.09704649
-0.016901071
0.097840905
-0.017394844
0.098749001
-0.017828948
0.099762804
-0.018203754
0.10087418
-0.018519921
0.10207494
-0.018778404
0.10335697
-0.018980442
0.10471226
-0.019127539
0.10613304
-0.019221448
0.10761178
-0.019264151
0.10914128
-0.01925785
0.11071468
-0.019204926
0.11232549
-0.019107924
0.11396763
-0.018969521
0.11563544
-0.018792488
0.11732368
-0.018579669
0.11902753
-0.018333941
0.12074263
-0.018058188
0.12246501
-0.017755279
0.12419113
-0.017428036
0.12591788
-0.01707922
0.12764251
-0.016711521
0.12936266
-0.016327545
0.13107637
-0.015929818
0.13278199
-0.015520795
0.13447828
-0.015102877
0.13616431
-0.014678467
0.13783952
-0.014249966
0.13950377
-0.013820069
0.14115727
-0.013391267
0.14280089
-0.012968257
0.14443565
-0.012551377
0.14606492
-0.012160365
0.14768876
-0.011762465
0.14932341
-0.01151194
0.15094677
-0.01101345
0.15266575
-0.011653238
-0.0098619654
0.11918896
-0.0043344674
0.11749635
-0.0060508538
0.11585683
-0.0073851331
0.11435429
-0.0084327696
0.11302499
-0.009536811
0.11186642
-0.010653753
0.11088405
-0.011727611
0.11008417
-0.012749381
0.10946619
-0.013715795
0.1090255
-0.014622164
0.10875631
-0.015465351
0.10865194
-0.016243176
0.10870481
-0.016953937
0.1089066
-0.017596633
0.10924859
-0.018170933
0.10972183
-0.018676995
0.11031729
-0.019115389
0.11102598
-0.019487094
0.11183901
-0.019793469
0.1127477
-0.020036224
0.11374363
-0.020217382
0.11481873
-0.020339256
0.1159653
-0.020404417
0.11717603
-0.020415658
0.11844407
-0.020375962
0.11976301
-0.020288461
0.12112692
-0.020156401
0.12253036
-0.019983102
0.12396834
-0.019771921
0.12543637
-0.01952622
0.12693043
-0.019249335
0.12844694
-0.018944546
0.12998278
-0.018615063
0.13153526
-0.018264001
0.1331021
-0.017894385
0.13468142
-0.017509139
0.13627173
-0.017111107
0.13787193
-0.016703073
0.13948128
-0.016287815
0.14109943
-0.015868116
0.14272644
-0.015447086
0.14436279
-0.015027611
0.14600957
-0.014615045
0.14766811
-0.014209913
0.14934189
-0.013834141
0.15103163
-0.013452207
0.15275172
-0.013232029
0.15448595
-0.012747687
0.15631855
-0.013485835
-0.011643518
0.13689593
-0.0017554955
0.13437797
-0.0035328911
0.1318194
-0.0048265624
0.12946233
-0.0060757011
0.12733397
-0.0074084521
0.1254157
-0.0087354781
0.12371034
-0.01002225
0.12222298
-0.011262023
0.12095207
-0.01244489
0.11989185
-0.013561939
0.1190348
-0.0146083
0.11837257
-0.015580952
0.11789618
-0.016477545
0.11759609
-0.017296545
0.11746244
-0.018037283
0.11748522
-0.01869977
0.1176544
-0.019284572
0.11796007
-0.019792766
0.1183925
-0.020225899
0.11894223
-0.020585954
0.11960014
-0.020875293
0.12035751
-0.021096622
0.12120605
-0.021252956
0.12213795
-0.021347561
0.12314592
-0.021383925
0.12422316
-0.021365706
0.12536344
-0.021296683
0.12656106
-0.021180719
0.12781085
-0.021021712
0.12910819
-0.02082356
0.13044898
-0.020590123
0.13182963
-0.020325196
0.13324704
-0.020032479
0.13469861
-0.019715568
0.13618217
-0.019377946
0.13769601
-0.019022979
0.13923885
-0.01865394
0.1408098
-0.018274023
0.1424084
-0.017886422
0.14403461
-0.017494327
0.14568882
-0.017101293
0.14737183
-0.016710624
0.14908513
-0.016328344
0.15083042
-0.015955205
0.15261144
-0.015615155
0.15442967
-0.01527044
0.15629778
-0.015100133
0.15820556
-0.014655467
0.16021497
-0.015495246
-0.013657701
0.15005207
0.00078000615
0.14676313
-0.00024394503
0.14346579
-0.0015292233
0.14041801
-0.0030279216
0.13762312
-0.0046135579
0.13507485
-0.0061872132
0.13277505
-0.0077224502
0.1307238
-0.009210772
0.12891866
-0.010639749
0.12735443
-0.011997707
0.12602328
-0.013277152
0.12491581
-0.014473482
0.12402184
-0.015583576
0.12333071
-0.016605417
0.12283144
-0.017538013
0.12251292
-0.018381248
0.12236407
-0.019135724
0.12237398
-0.019802677
0.122532
-0.020383914
0.12282779
-0.02088175
0.12325146
-0.021298958
0.12379355
-0.021638714
0.12444514
-0.021904544
0.12519785
-0.02210027
0.12604388
-0.022229959
0.12697604
-0.022297869
0.12798775
-0.022308392
0.12907304
-0.022266006
0.13022655
-0.022175224
0.13144354
-0.02204055
0.13271985
-0.021866436
0.13405191
-0.021657251
0.13543668
-0.021417253
0.13687169
-0.021150572
0.13835494
-0.020861201
0.13988496
-0.020552999
0.14146073
-0.020229709
0.14308169
-0.019894984
0.14474773
-0.019552466
0.1464592
-0.01920579
0.14821689
-0.018858985
0.15002207
-0.018515801
0.15187667
-0.018182952
0.1537829
-0.017861429
0.15574486
-0.01757712
0.15776475
-0.017290333
0.1598541
-0.017189484
0.16200716
-0.016808519
0.16426865
-0.017756735
-0.015969484
0.18890875
0.0053821096
-0.19351086
0.18509872
0.003566094
0.18170668
0.0018628123
0.17856155
0.00011720521
0.17562599
-0.0016779975
0.17287497
-0.0034361866
0.17029025
-0.0051377329
0.16786285
-0.0067833709
0.16558888
-0.0083657834
0.1634662
-0.009875021
0.16149293
-0.011303885
0.15966697
-0.012647524
0.15798568
-0.013902284
0.15644576
-0.0150655
0.1550433
-0.016135551
0.15377382
-0.01711177
0.1526324
-0.017994305
0.15161375
-0.018784023
0.15071228
-0.019482445
0.14992222
-0.020091692
0.14923768
-0.020614412
0.14865269
-0.021053728
0.14816132
-0.021413175
0.14775769
-0.021696638
0.14743603
-0.021908294
0.14719071
-0.022052553
0.14701631
-0.022133993
0.14690761
-0.022157307
0.14685963
-0.022127245
0.14686765
-0.022048565
0.1469272
-0.021925987
0.1470341
-0.021764157
0.14718447
-0.021567615
0.14737467
-0.021340776
0.14760139
-0.021087918
0.14786158
-0.020813186
0.14815247
-0.020520607
0.14847161
-0.020214123
0.14881681
-0.019897665
0.14918619
-0.019575165
0.14957818
-0.019250981
0.14999156
-0.018929176
0.15042554
-0.018616939
0.15087962
-0.018315503
0.1513544
-0.018051899
0.15184973
-0.017785664
0.15237009
-0.017709844
0.15291117
-0.017349605
0.15349594
-0.018341505
-0.016562051
0.21685764
0.0087804421
-0.22025598
0.21338376
0.0070399829
0.21017094
0.0050756264
0.20706563
0.0032225203
0.20401903
0.0013686004
0.20106211
-0.00047926387
0.19821174
-0.0022873686
0.19547245
-0.0040440775
0.19285013
-0.0057434614
0.19035161
-0.0073765021
0.18798209
-0.0089343687
0.18574497
-0.010410408
0.18364225
-0.011799563
0.18167463
-0.013097873
0.17984156
-0.014302482
0.17814142
-0.015411635
0.17657167
-0.016424557
0.17512899
-0.017341344
0.17380944
-0.018162888
0.17260855
-0.018890799
0.17152147
-0.019527339
0.17054309
-0.020075343
0.16966806
-0.020538154
0.16889098
-0.020919549
0.16820635
-0.021223668
0.16760875
-0.021454949
0.16709281
-0.021618053
0.1666533
-0.021717801
0.16628517
-0.021759114
0.16598356
-0.02174695
0.16574382
-0.021686256
0.16556159
-0.021581926
0.16543274
-0.02143876
0.16535341
-0.021261447
0.16532004
-0.021054546
0.16532934
-0.020822486
0.16537832
-0.020569587
0.16546428
-0.020300082
0.16558482
-0.020018206
0.16573785
-0.019728202
0.16592163
-0.019434757
0.16613475
-0.019142294
0.1663762
-0.018858394
0.1666455
-0.018584797
0.16694248
-0.018348878
0.16726837
-0.01811156
0.1676224
-0.018063874
0.16801287
-0.017740074
0.16842173
-0.018750361
-0.017035813
0.24376657
0.011504397
-0.24649052
0.24091613
0.0098904221
0.23806292
0.0079288384
0.23521595
0.0060694841
0.23233815
0.0042464053
0.22945033
0.0024085585
0.22658371
0.00057925117
0.22375759
-0.001217957
0.22098788
-0.0029737579
0.21829053
-0.0046791514
0.21567939
-0.0063232292
0.21316546
-0.0078964788
0.21075736
-0.0093914552
0.20846163
-0.010802145
0.20628291
-0.012123767
0.20422409
-0.013352813
0.20228652
-0.014486983
0.20047023
-0.01552506
0.19877415
-0.016466808
0.19719625
-0.017312893
0.1957337
-0.01806479
0.19438306
-0.018724704
0.19314038
-0.019295475
0.19200134
-0.019780503
0.19096132
-0.020183657
0.19001557
-0.020509199
0.18915922
-0.020761702
0.18838739
-0.020945969
0.18769524
-0.021066968
0.18707805
-0.021129759
0.18653123
-0.021139436
0.18605038
-0.021101076
0.18563132
-0.021019695
0.18527009
-0.020900219
0.18496301
-0.020747463
0.18470665
-0.020566129
0.18449788
-0.020360819
0.18433386
-0.020136059
0.18421204
-0.01989639
0.18413022
-0.019646377
0.1840865
-0.019391035
0.18407939
-0.019135186
0.18410771
-0.018886712
0.18417104
-0.018648128
0.18426848
-0.018446318
0.18440274
-0.018245822
0.18456742
-0.01822856
0.18478442
-0.017957072
0.18498983
-0.018955765
-0.017368318
0.26927434
0.01353735
-0.27130729
0.26710629
0.012058467
0.26476453
0.010270601
0.26232531
0.0085087112
0.25979655
0.0067751569
0.25718846
0.0050166551
0.25452714
0.0032405707
0.25183677
0.0014724127
0.24913735
-0.00027433561
0.24644868
-0.0019904816
0.24379005
-0.0036646018
0.2411786
-0.0052850293
0.23862905
-0.0068419102
0.2361539
-0.008326994
0.23376344
-0.0097333046
0.23146583
-0.011055201
0.22926725
-0.012288404
0.2271721
-0.013429909
0.22518317
-0.014477886
0.22330188
-0.015431594
0.22152838
-0.016291289
0.2198618
-0.017058133
0.21830042
-0.017734092
0.21684176
-0.018321844
0.21548279
-0.018824682
0.21422001
-0.019246417
0.21304959
-0.01959129
0.21196751
-0.019863881
0.21096956
-0.020069021
0.21005152
-0.020211718
0.20920917
-0.020297086
0.20843837
-0.020330279
0.20773512
-0.020316442
0.20709557
-0.020260672
0.2065161
-0.020167991
0.20599331
-0.020043334
0.20552405
-0.019891562
0.20510547
-0.01971748
0.204735
-0.019525922
0.2044104
-0.019321778
0.20412975
-0.019110384
0.20389155
-0.018896985
0.20369453
-0.01868969
0.20353839
-0.018491985
0.20342164
-0.018329576
0.20334821
-0.018172392
0.20330691
-0.018187259
0.20333096
-0.01798112
0.20331515
-0.018939954
-0.017537383
0.29298511
0.014868492
-0.29431625
0.29150587
0.01353771
0.28978338
0.011993094
0.28788474
0.010407346
0.28584483
0.0088150684
0.28367446
0.007187028
0.28139204
0.0055229936
0.27902081
0.0038436427
0.27658207
0.0021643989
0.27409599
0.00049559544
0.27158278
-0.0011513829
0.26906214
-0.0027643929
0.26655241
-0.00433218
0.26407018
-0.0058447614
0.26163018
-0.0072933088
0.25924519
-0.0086702064
0.25692595
-0.0099691718
0.2546813
-0.011185257
0.25251821
-0.012314796
0.25044196
-0.01335534
0.24845626
-0.014305593
0.24656345
-0.015165323
0.24476463
-0.015935271
0.24305984
-0.016617051
0.24144821
-0.017213051
0.23992812
-0.01772633
0.23849734
-0.018160515
0.23715317
-0.018519705
0.23589252
-0.018808372
0.23471207
-0.019031271
0.23360835
-0.019193359
0.23257779
-0.019299722
0.23161686
-0.019355509
0.23072207
-0.019365889
0.22989009
-0.019336004
0.22911772
-0.019270964
0.22840199
-0.019175835
0.22774018
-0.019055669
0.22712983
-0.018915571
0.22656879
-0.018760738
0.22605522
-0.018596815
0.22558771
-0.018429474
0.22516501
-0.018266997
0.22478698
-0.018113951
0.22445177
-0.01799437
0.22416414
-0.01788476
0.22390925
-0.017932368
0.22372865
-0.017800515
0.22348349