/*--------------------------------*- C++ -*----------------------------------*\
  =========                 |
  \\      /  F ield         | OpenFOAM: The Open Source CFD Toolbox
   \\    /   O peration     | Website:  https://openfoam.org
    \\  /    A nd           | Version:  6
     \\/     M anipulation  |
\*---------------------------------------------------------------------------*/
FoamFile
{
    version     2.0;
    format      ascii;
    class       surfaceScalarField;
    location    "60";
    object      phi_0;
}
// * * * * * * * * * * * * * * * * * * * * * * * * * * * * * * * * * * * * * //

dimensions      [0 3 -1 0 0 0 0];

internalField   nonuniform List<scalar> 
18180
(
0.00031929672
-0.00016428587
-0.00015501062
0.0013114836
-0.0013715261
0.00037933938
0.0030380704
-0.0033429597
0.0016163732
0.0055591404
-0.0059912177
0.0034701479
0.0089330799
-0.00926141
0.0058874707
0.013214576
-0.013110041
0.0088285449
0.018451945
-0.017499583
0.012262215
0.024684146
-0.022395737
0.016163537
0.031937617
-0.027764298
0.020510827
0.040223192
-0.033568531
0.025282956
0.049533406
-0.039767417
0.030457204
0.059840565
-0.046314735
0.036007576
0.071095993
-0.053158971
0.041903542
0.083230898
-0.060244092
0.048109188
0.096159475
-0.067511263
0.054582686
0.10978478
-0.07490163
0.061276327
0.12400677
-0.082360003
0.068138015
0.13873755
-0.089839166
0.075108377
0.15397514
-0.097321821
0.082084231
-0.10480555
0.088863224
0.16991747
0.00039814334
-0.00056242903
0.0016121513
-0.0025855338
0.0036950859
-0.0054258942
0.0066977529
-0.0089938845
0.010666836
-0.013230493
0.015641221
-0.018084426
0.02164797
-0.023506332
0.028698343
-0.02944611
0.036784159
-0.035850114
0.045874892
-0.042659264
0.055915942
-0.049808467
0.066828434
-0.057227227
0.078510793
-0.06484133
0.090842179
-0.072575478
0.10368757
-0.080356654
0.11690389
-0.088117949
0.13034623
-0.095802342
0.14387465
-0.10336759
0.15735312
-0.1108003
-0.11803113
0.1705787
0.00048134474
-0.0010437736
0.0019215062
-0.0040256951
0.0043587307
-0.0078631185
0.007827589
-0.012462743
0.012354723
-0.017757627
0.017953425
-0.023683128
0.02461854
-0.030171446
0.032322188
-0.037149759
0.041010735
-0.04453866
0.050603497
-0.052252027
0.060993575
-0.060198545
0.072050955
-0.068284606
0.083627778
-0.076418153
0.09556535
-0.08451305
0.10770215
-0.092493454
0.11988177
-0.10029757
0.13195962
-0.10788019
0.14380634
-0.1152143
0.15530018
-0.12229414
-0.12906992
0.16633898
0.00056695727
-0.0016107306
0.0022309514
-0.005689689
0.0050072066
-0.010639374
0.0089054573
-0.016360993
0.013922661
-0.022774831
0.020036109
-0.029796575
0.02719808
-0.037333418
0.035332508
-0.045284186
0.0443341
-0.053540252
0.054070307
-0.061988233
0.064386148
-0.070514386
0.075111589
-0.079010047
0.086070747
-0.087377311
0.097091946
-0.095534249
0.10801747
-0.10341898
0.11871188
-0.11099198
0.12906803
-0.11823634
0.13900964
-0.12515591
0.14848812
-0.13177263
-0.13808607
0.15750427
0.0006517247
-0.0022624551
0.0025274792
-0.0075654433
0.0056103893
-0.013722283
0.00987597
-0.020626574
0.015281743
-0.028180603
0.021759702
-0.036274535
0.029212047
-0.044785762
0.037510358
-0.053582497
0.046498475
-0.062528369
0.055998924
-0.071488682
0.065822293
-0.080337755
0.075778466
-0.088966221
0.085688378
-0.097287223
0.095394827
-0.1052407
0.10477108
-0.11279523
0.11372641
-0.11994731
0.12220817
-0.12671809
0.13020058
-0.13314833
0.13772027
-0.13929232
-0.1451941
0.1448283
0.00073150352
-0.0029939584
0.0027952606
-0.0096292001
0.0061332696
-0.017060292
0.010677867
-0.025171171
0.016338853
-0.033841589
0.022996653
-0.042932334
0.030500716
-0.052289825
0.038672722
-0.061754503
0.047314218
-0.071169865
0.05621772
-0.080392184
0.065179776
-0.089299811
0.074014184
-0.097800628
0.082563557
-0.1058366
0.090707807
-0.11338495
0.098368608
-0.12045603
0.10550967
-0.12708837
0.11213332
-0.13334174
0.11827439
-0.1392894
0.12399269
-0.14501062
-0.15057673
0.12937533
0.00080160167
-0.0037955599
0.0030170219
-0.01184462
0.0065392921
-0.020582562
0.011250437
-0.029882316
0.017007335
-0.039598486
0.023637212
-0.049562212
0.030940183
-0.059592795
0.038697373
-0.069511694
0.046683298
-0.07915579
0.054680494
-0.088389379
0.062494096
-0.097113414
0.069964135
-0.10527067
0.076973861
-0.11284632
0.083453176
-0.11986426
0.089377175
-0.12638003
0.09476054
-0.13247174
0.099649194
-0.1382304
0.10411082
-0.14375102
0.1082258
-0.14912561
-0.15443541
0.11208447
0.00085690229
-0.0046524619
0.0031749865
-0.014162704
0.0067930879
-0.024200663
0.011539022
-0.03462825
0.017215947
-0.045275411
0.023601786
-0.055948051
0.030456787
-0.066447796
0.037536459
-0.076591367
0.044607417
-0.086226747
0.051463251
-0.095245213
0.057937689
-0.10358785
0.063913002
-0.11124598
0.069322684
-0.118256
0.074148531
-0.12469011
0.07841322
-0.13064472
0.08217006
-0.13622858
0.085491849
-0.14155219
0.088460545
-0.14671972
0.09115906
-0.15182412
-0.15694367
0.093667328
0.00089104656
-0.0055435081
0.0032509179
-0.016522575
0.0068627283
-0.027812473
0.01150018
-0.039265701
0.016916768
-0.050691999
0.022850242
-0.061881526
0.02903514
-0.072632693
0.035219287
-0.082775513
0.041180837
-0.092188297
0.046742509
-0.10080689
0.051780475
-0.10862582
0.056226708
-0.11569221
0.060065024
-0.12209432
0.063322144
-0.12794723
0.066055834
-0.13337841
0.068342321
-0.13851506
0.070264887
-0.14347475
0.071905002
-0.14835984
0.073336587
-0.15325571
-0.15823025
0.074623168
0.0009005135
-0.0064440213
0.0032356304
-0.018857691
0.0067333391
-0.031310182
0.011117143
-0.043649504
0.016099616
-0.055674472
0.021391862
-0.067173771
0.026719862
-0.077960693
0.031842298
-0.087897949
0.036565936
-0.096911936
0.040755404
-0.10499635
0.044335753
-0.11220617
0.047287949
-0.11864441
0.04963881
-0.12444518
0.051447778
-0.1297562
0.052793001
-0.13472363
0.053758879
-0.13948094
0.054426472
-0.14414234
0.054867389
-0.14880075
0.055140979
-0.1535293
0.055293255
-0.15838253
-0.00020271975
0.00020271939
3.6183459e-10
-0.0006788391
0.000476119
3.5476041e-10
-0.0013445116
0.0006656722
3.095768e-10
-0.002135492
0.00079098017
3.1089515e-10
-0.0030001037
0.00086461142
3.1787079e-10
-0.0038961425
0.00089603852
3.21533e-10
-0.0047886372
0.00089249432
3.2035449e-10
-0.0056479752
0.00085933781
3.1416853e-10
-0.0064484291
0.00080045361
3.0563491e-10
-0.0071670018
0.00071857241
2.9158408e-10
-0.0077825059
0.00061550393
2.771014e-10
-0.0082748265
0.00049232037
2.5637e-10
-0.0086243389
0.00034951219
2.3651147e-10
-0.0088114736
0.00018713458
2.0986463e-10
-0.0088164595
4.9857715e-06
1.8391226e-10
-0.0086193467
-0.00019711294
1.5084088e-10
-0.0082002704
-0.00041907638
1.1876497e-10
-0.0075390446
-0.00066122588
7.9849208e-11
-0.0066147534
-0.00092429122
4.1700257e-11
-0.0011946457
-0.0054201078
5.2311955e-12
-0.00018827487
0.00039099427
-0.00062595583
0.00091379997
-0.0012305369
0.0012702533
-0.0019378765
0.0014983198
-0.0026956813
0.0016224162
-0.0034605598
0.001660917
-0.0041958702
0.0016278048
-0.0048699063
0.001533374
-0.0054544562
0.0013850035
-0.0059236639
0.0011877802
-0.0062531119
0.00094495192
-0.0064190762
0.00065828472
-0.0063979202
0.00032835621
-0.006165613
-4.5172599e-05
-0.0056974026
-0.00046322455
-0.0049677346
-0.00092678097
-0.0039504667
-0.0014363442
-0.0026187904
-0.0019929021
-0.00094507875
-0.0025980029
-0.0032217885
0.0010820641
-0.0001591499
0.00055014419
-0.00051956557
0.0012742157
-0.001001977
0.0017526648
-0.0015429583
0.002039301
-0.0020893923
0.0021688503
-0.0025958744
0.0021673991
-0.0030227624
0.0020546928
-0.0033345059
0.0018451175
-0.0034982969
0.0015487946
-0.0034829911
0.0011724744
-0.0032582215
0.0007201824
-0.0027936767
0.00019373996
-0.002058465
-0.00040685549
-0.0010205992
-0.0010830383
0.00035343406
-0.0018372578
0.0020989539
-0.0026723008
0.0042530473
-0.0035904376
0.0068542606
-0.0045941155
0.009942529
-0.0056862712
-0.0068166271
0.013537368
-0.00011768475
0.00066782898
-0.00036730406
0.001523835
-0.00067394319
0.002059304
-0.00097519555
0.0023405534
-0.0012168672
0.002410522
-0.0013508424
0.0023013744
-0.0013334227
0.0020372732
-0.0011238689
0.0016355637
-0.00068320183
0.0011081276
2.675166e-05
0.00046252098
0.0010441451
-0.00029721101
0.0024077602
-0.0011698751
0.0041575525
-0.0021566478
0.0063351338
-0.0032606195
0.0089842784
-0.0044864024
0.012151482
-0.005839504
0.015886336
-0.0073252915
0.020241229
-0.0089490089
0.025271134
-0.010716176
-0.012552191
0.031006698
-6.6908905e-05
0.00073473793
-0.00017905398
0.0016359801
-0.00026607439
0.0021463245
-0.00026653449
0.0023410136
-0.00012487002
0.0022688576
0.00021025075
0.0019662537
0.00078725765
0.0014602664
0.0016528498
0.00076997159
0.0028529674
-9.1989911e-05
0.0044335779
-0.0011180894
0.0064412398
-0.0023048729
0.0089235186
-0.0036521538
0.011929311
-0.0051624403
0.015509173
-0.0068404817
0.019715691
-0.0086929201
0.024604097
-0.01072791
0.030233148
-0.012954343
0.036665637
-0.015381498
0.04396916
-0.018019699
-0.020769322
0.052186291
-9.8694368e-06
0.00074460743
3.5073652e-05
0.0015910371
0.00020126572
0.0019801325
0.00054950637
0.001992773
0.0011370037
0.0016813603
0.002018535
0.0010847224
0.0032474112
0.00023139022
0.0048763604
-0.00085897756
0.0069581846
-0.0021738141
0.0095461329
-0.0037060376
0.012694108
-0.005452848
0.016456769
-0.0074148144
0.020889451
-0.0095951226
0.026048002
-0.011999033
0.031988674
-0.014633592
0.038768414
-0.01750765
0.046446041
-0.02063197
0.055084305
-0.024019761
0.064753722
-0.027689117
-0.031521373
0.075505773
5.0974473e-05
0.00069363304
0.00026660087
0.0013754108
0.00071051003
0.0015362234
0.0014433026
0.0012599805
0.0025239361
0.00060072686
0.0040104853
-0.00040182671
0.005960737
-0.0017188614
0.0084325757
-0.0033308163
0.011484112
-0.0052253503
0.015173647
-0.007395573
0.019559402
-0.0098386024
0.024698979
-0.012554392
0.030648626
-0.015544769
0.03746232
-0.018812727
0.045190831
-0.022362103
0.053881155
-0.026197975
0.063577317
-0.030328132
0.074323749
-0.034766192
0.08617423
-0.039539598
-0.044531468
0.099184325
0.00011411551
0.00057951763
0.00050981459
0.00097971183
0.0012490478
0.00079699032
0.0023924661
0.00011656227
0.0040005399
-0.0010073468
0.0061338993
-0.0025351861
0.0088533108
-0.0044382728
0.012219495
-0.0066970008
0.016292718
-0.0092985728
0.021132034
-0.012234889
0.026794243
-0.015500812
0.033332554
-0.019092703
0.040794985
-0.023007199
0.049222546
-0.027240288
0.058647332
-0.031786889
0.069090886
-0.036641528
0.080563999
-0.041801246
0.093069818
-0.047272011
0.10661532
-0.0530851
-0.059160408
0.12124426
0.00017889961
0.00040061816
0.00076167052
0.00039694104
0.0018091331
-0.00025047212
0.0033816765
-0.0014559811
0.0055402485
-0.0031659188
0.0083460928
-0.0053410302
0.011860117
-0.0079522967
0.016141961
-0.010978845
0.021248707
-0.014405319
0.027233248
-0.018219429
0.034142344
-0.022409908
0.042014415
-0.026964773
0.050877097
-0.031869882
0.060744602
-0.037107793
0.071614856
-0.042657143
0.083466496
-0.048493168
0.096256661
-0.054591411
0.10992233
-0.060937682
0.12439378
-0.067556551
-0.074453147
0.13968652
0.0002456076
0.0010218881
0.0023877892
0.0044019561
0.0071235081
0.010611023
0.014920941
0.020105633
0.026211141
0.033274667
0.041321964
0.050364766
0.060398426
0.071399821
0.083325364
0.096108524
0.10965513
0.12382582
0.1383535
0.15276358
-0.0034693441
-0.0019507636
-4.5335457e-11
-0.0012359559
-0.0022333881
-1.3003254e-10
0.0012578199
-0.0024937755
-2.2973788e-10
0.0039550127
-0.0026971925
-3.3287894e-10
0.0068288486
-0.0028738354
-4.4709563e-10
0.0098620934
-0.0030332443
-5.5459256e-10
0.013035872
-0.0031737774
-6.6738212e-10
0.016332212
-0.0032963398
-7.7796459e-10
0.019735471
-0.003403258
-8.8575411e-10
0.023231492
-0.0034960196
-9.8859563e-10
0.026807052
-0.0035755598
-1.0736729e-09
0.030449798
-0.0036427445
-1.1348741e-09
0.03414816
-0.0036983614
-1.1579139e-09
0.037891226
-0.0037430645
-1.1359192e-09
0.041668635
-0.0037774075
-1.0564423e-09
0.045470515
-0.0038018799
-9.1503098e-10
0.049287441
-0.0038169252
-7.054559e-10
0.053110396
-0.0038229541
-4.3037438e-10
0.056930755
-0.0038203592
-9.530997e-11
0.060740282
-0.0038095272
2.8387119e-10
0.064531128
-0.0037908474
6.832674e-10
0.068295846
-0.0037647185
1.0686776e-09
0.072027398
-0.0037315532
1.3947115e-09
0.075719176
-0.0036917804
1.610395e-09
0.07936502
-0.0036458456
1.6542969e-09
0.08295923
-0.0035942111
1.4717553e-09
0.086496582
-0.0035373538
1.0039059e-09
0.089972345
-0.0034757631
2.2183347e-10
0.093382285
-0.0034099386
-8.9605522e-10
0.096722674
-0.0033403869
-2.3077125e-09
0.099990298
-0.00326762
-3.9517642e-09
0.10318246
-0.0031921529
-5.6648513e-09
0.10629697
-0.0031145029
-7.2666638e-09
0.10933216
-0.0030351891
-8.4478385e-09
0.11228691
-0.002954734
-8.925153e-09
0.11516058
-0.0028736661
-8.2901875e-09
0.11795311
-0.0027925243
-6.2829314e-09
0.12066498
-0.0027118644
-2.5590853e-09
0.12329725
-0.0026322741
2.8517279e-09
0.12585161
-0.0025543748
9.9449124e-09
0.12833049
-0.0024788936
1.8074368e-08
0.13073701
-0.0024065429
2.6513155e-08
0.13307558
-0.0023386052
3.3977261e-08
0.1353509
-0.0022753585
3.9126405e-08
0.13757253
-0.0022216742
4.0371627e-08
0.13974286
-0.0021703668
3.6556175e-08
0.14189931
-0.0021564796
2.65048e-08
0.14399412
-0.0020948166
1.1317518e-08
0.14627176
-0.0022776256
-1.0160742e-08
-0.0020194357
-3.3298068e-08
0.0029132355
-0.0037819349
0.0050222976
-0.0043424502
0.0073785584
-0.0048500363
0.0099194991
-0.0052381332
0.012624087
-0.0055784236
0.015480079
-0.0058892365
0.018470798
-0.0061644959
0.02157989
-0.0064054321
0.024793398
-0.0066167654
0.028098623
-0.0068012453
0.031483504
-0.0069604405
0.034936631
-0.0070958714
0.038447226
-0.0072089561
0.042005027
-0.0073008664
0.045600213
-0.0073725929
0.049223353
-0.0074250198
0.052865384
-0.0074589568
0.056517593
-0.0074751627
0.060171605
-0.0074743715
0.063819392
-0.0074573147
0.067453282
-0.0074247367
0.07106597
-0.0073774064
0.074650541
-0.007316125
0.07820049
-0.0072417292
0.081709737
-0.0071550925
0.085172649
-0.0070571228
0.088584054
-0.0069487593
0.091939258
-0.0068309675
0.095234054
-0.0067047341
0.098464728
-0.0065710611
0.10162807
-0.0064309619
0.10472137
-0.0062854568
0.10774244
-0.0061355712
0.11068959
-0.0059823356
0.11356164
-0.0058267878
0.11635795
-0.0056699782
0.11907841
-0.00551298
0.12172345
-0.0053569008
0.12429408
-0.0052029134
0.12679197
-0.0050522583
0.12921947
-0.0049063904
0.13157966
-0.0047667346
0.13387691
-0.004635857
0.13611587
-0.0045143167
0.13830603
-0.0044118357
0.14044978
-0.0043141164
0.14258413
-0.0042908359
0.14466219
-0.0041728703
0.14692365
-0.0045390913
-0.0040350383
0.015119925
-0.005364492
0.016963401
-0.0061859264
0.019030633
-0.0069172688
0.021251636
-0.0074591357
0.023614814
-0.007941602
0.026116608
-0.0083910304
0.02874447
-0.008792358
0.031484979
-0.0091459406
0.034327098
-0.009458885
0.03726067
-0.0097348174
0.040275648
-0.0099754184
0.043362249
-0.010182473
0.046511033
-0.01035774
0.049712835
-0.010502668
0.052958724
-0.010618482
0.056239999
-0.010706295
0.05954819
-0.010767148
0.062875069
-0.010802042
0.066212665
-0.010811967
0.069553281
-0.010797931
0.07288952
-0.010760975
0.076214308
-0.010702195
0.079520924
-0.010622741
0.082803021
-0.010523826
0.08605465
-0.010406722
0.089270287
-0.010272759
0.092444843
-0.010123316
0.09557369
-0.0099598147
0.098652665
-0.0097837091
0.10167809
-0.0095964807
0.10464675
-0.0093996274
0.10755595
-0.0091946606
0.11040348
-0.008983101
0.11318763
-0.0087664786
0.11590718
-0.0085463363
0.11856144
-0.0083242381
0.12115024
-0.0081017845
0.12367397
-0.0078806301
0.12613359
-0.0076625294
0.12853067
-0.0074493414
0.13086753
-0.0072432483
0.13314718
-0.0070463907
0.13537394
-0.006862615
0.13755241
-0.0066927818
0.13969195
-0.0065513793
0.14179508
-0.0064172499
0.14389787
-0.0063936215
0.14595571
-0.0062307134
0.14819776
-0.00678114
-0.0060570312
0.032201839
-0.0065596326
0.033629781
-0.0076138682
0.035249107
-0.0085365956
0.036986855
-0.0091968838
0.038843772
-0.0097985184
0.040826247
-0.010373506
0.042927189
-0.010893299
0.045137139
-0.011355891
0.047448594
-0.01177034
0.049854402
-0.012140625
0.052346935
-0.012467952
0.054918322
-0.01275386
0.057560641
-0.013000059
0.060265946
-0.013207973
0.063026278
-0.013378814
0.065833708
-0.013513725
0.06868038
-0.01361382
0.071558555
-0.013680218
0.074460656
-0.013714068
0.077379304
-0.013716578
0.080307359
-0.013689031
0.083237962
-0.013632798
0.086164564
-0.013549343
0.08908096
-0.013440222
0.091981321
-0.013307083
0.094860214
-0.013151652
0.097712629
-0.012975731
0.10053399
-0.012781177
0.10332018
-0.012569897
0.10606753
-0.012343835
0.10877286
-0.012104959
0.11143347
-0.011855261
0.11404711
-0.011596742
0.11661205
-0.011331423
0.11912706
-0.011061342
0.12159139
-0.010788571
0.12400483
-0.01051523
0.12636772
-0.01024352
0.12868097
-0.009975774
0.1309461
-0.0097144718
0.13316538
-0.0094625247
0.13534178
-0.0092227958
0.13747957
-0.0090004081
0.13958335
-0.0087965568
0.14166234
-0.0086303657
0.1437193
-0.0084742147
0.1457889
-0.0084632235
0.14783013
-0.0082719421
0.15005661
-0.0090076186
-0.0081009516
0.052838649
-0.0072119905
0.053691986
-0.0084672058
0.054699666
-0.0095442757
0.055796118
-0.010293335
0.056996255
-0.010998656
0.058314455
-0.011691706
0.059749309
-0.012328153
0.061296025
-0.012902608
0.062950472
-0.013424787
0.064708132
-0.013898285
0.066563569
-0.014323388
0.068510602
-0.014700893
0.070542561
-0.015032017
0.072652444
-0.015317856
0.074833011
-0.015559382
0.077076869
-0.015757582
0.079376552
-0.015913503
0.08172461
-0.016028275
0.084113671
-0.016103129
0.086536508
-0.016139416
0.088986092
-0.016138615
0.091455643
-0.016102349
0.093938669
-0.016032369
0.096429011
-0.015930564
0.098920871
-0.015798943
0.10140884
-0.015639622
0.10388793
-0.015454816
0.10635356
-0.015246812
0.10880163
-0.015017968
0.11122848
-0.014770681
0.11363091
-0.01450739
0.1160062
-0.014230554
0.11835212
-0.013942661
0.12066691
-0.013646211
0.12294931
-0.01334374
0.12519856
-0.013037824
0.12741444
-0.012731106
0.12959725
-0.01242633
0.13174789
-0.012126416
0.13386788
-0.011834468
0.13595949
-0.011554134
0.13802571
-0.011289011
0.1400708
-0.011045495
0.1420994
-0.010825161
0.14412064
-0.0106516
0.14613766
-0.010491241
0.14818341
-0.010508972
0.1502215
-0.010310029
0.15244617
-0.01123229
-0.010189725
0.075446295
-0.0071525128
0.075563416
-0.0085843266
0.075800568
-0.0097814284
0.076114461
-0.010607228
0.076533261
-0.011417456
0.077073888
-0.012232333
0.077739451
-0.012993716
0.078529968
-0.013693124
0.079443829
-0.014338648
0.08047797
-0.014932425
0.081628232
-0.015473651
0.082889411
-0.015962072
0.084255419
-0.016398025
0.085719576
-0.016782013
0.087274817
-0.017114623
0.088913807
-0.017396572
0.090629057
-0.017628753
0.092413032
-0.01781225
0.094258247
-0.017948344
0.09615734
-0.018038509
0.098103143
-0.018084419
0.10008874
-0.018087942
0.1021075
-0.018051133
0.10415316
-0.017976218
0.1062198
-0.017865584
0.10830192
-0.01772175
0.11039447
-0.017547357
0.11249279
-0.01734514
0.11459274
-0.017117913
0.1166906
-0.016868545
0.11878316
-0.01659995
0.12086768
-0.016315074
0.12294191
-0.016016889
0.12500409
-0.015708394
0.12705298
-0.015392626
0.12908783
-0.015072674
0.13110844
-0.014751714
0.13311515
-0.014433046
0.13510892
-0.014120184
0.13709132
-0.013816872
0.13906469
-0.013527505
0.14103212
-0.013256433
0.14299795
-0.013011324
0.14496697
-0.012794186
0.14694826
-0.012632889
0.1489455
-0.012488485
0.15098972
-0.012553188
0.15304993
-0.012370238
0.15529841
-0.01348077
-0.012355104
0.098267554
-0.0062357412
0.097511208
-0.007827981
0.096846427
-0.0091166478
0.096274275
-0.010035076
0.095831011
-0.010974191
0.095527923
-0.011929245
0.095370445
-0.012836238
0.095362667
-0.013685346
0.095504209
-0.01448019
0.095791889
-0.015220105
0.096221432
-0.015903194
0.096787518
-0.016528158
0.097483759
-0.017094266
0.098303022
-0.017601277
0.099237733
-0.018049334
0.10028004
-0.018438875
0.10142193
-0.018770642
0.10265536
-0.019045683
0.10397236
-0.01926535
0.10536513
-0.019431272
0.10682606
-0.019545353
0.10834787
-0.019609748
0.10992359
-0.01962685
0.11154664
-0.019599268
0.11321085
-0.0195298
0.11491051
-0.019421414
0.11664037
-0.019277209
0.11839563
-0.019100405
0.12017203
-0.018894308
0.12196577
-0.018662286
0.12377358
-0.018407762
0.1255927
-0.018134191
0.12742087
-0.017845059
0.12925636
-0.017543884
0.13109796
-0.017234228
0.132945
-0.016919715
0.13479736
-0.016604074
0.13665549
-0.016291179
0.13852048
-0.015985164
0.14039403
-0.015690429
0.14227867
-0.015412142
0.14417766
-0.015155425
0.14609556
-0.014929226
0.14803741
-0.014736038
0.15001235
-0.014607821
0.1520247
-0.014500841
0.15410354
-0.014632024
0.15622376
-0.014490457
0.15853439
-0.015791397
-0.014638266
0.119429
-0.0044204789
0.11774561
-0.0061445952
0.11611602
-0.0074870613
0.11462423
-0.008543284
0.11330654
-0.0096564992
0.11216051
-0.010783219
0.11119168
-0.011867408
0.11040641
-0.012900071
0.10980418
-0.013877965
0.1093805
-0.01479642
0.10912963
-0.015652323
0.109045
-0.016443527
0.1091191
-0.017168373
0.10934374
-0.01782591
0.10971028
-0.018415875
0.1102099
-0.018938499
0.11083371
-0.019394446
0.11157282
-0.019784802
0.11241853
-0.020111052
0.11336231
-0.020375053
0.11439595
-0.020578999
0.1155116
-0.020725396
0.11670179
-0.020817041
0.11795951
-0.020856982
0.1192782
-0.020848494
0.12065183
-0.02079504
0.12207486
-0.020700247
0.12354232
-0.020567864
0.12504975
-0.020401737
0.12659326
-0.020205789
0.12816948
-0.01998399
0.12977564
-0.019740351
0.1314095
-0.019478912
0.13306936
-0.019203747
0.13475411
-0.018918977
0.13646319
-0.018628798
0.13819664
-0.018337521
0.13995509
-0.018049631
0.14173983
-0.017769906
0.14355284
-0.017503437
0.14539689
-0.017256189
0.14727555
-0.01703409
0.14919371
-0.016847381
0.15115676
-0.016699087
0.15317402
-0.016625085
0.1552506
-0.016577419
0.15741365
-0.016795075
0.15964416
-0.016720971
0.16206771
-0.018214942
-0.017089565
0.13711393
-0.0018478827
0.13460323
-0.0036339034
0.13205298
-0.0049368126
0.12970511
-0.006195405
0.12758676
-0.0075381549
0.12567939
-0.0088758488
0.12398589
-0.01017391
0.12251142
-0.011425595
0.12125449
-0.012621035
0.12020941
-0.013751347
0.11936878
-0.014811687
0.11872432
-0.01579907
0.11826714
-0.016711191
0.1179878
-0.017546574
0.11787655
-0.018304624
0.11792349
-0.018985434
0.11811872
-0.019589674
0.11845245
-0.020118541
0.11891513
-0.020573724
0.11949744
-0.02095737
0.12019048
-0.021272032
0.12098571
-0.021520635
0.12187512
-0.021706444
0.12285115
-0.021833016
0.12390683
-0.021904167
0.12503572
-0.021923929
0.12623198
-0.021896509
0.12749037
-0.021826255
0.12880625
-0.02171762
0.1301756
-0.021575133
0.13159498
-0.021403376
0.1330616
-0.021206966
0.13457324
-0.020990551
0.1361283
-0.020758809
0.13772579
-0.020516472
0.13936534
-0.020268347
0.1410472
-0.020019376
0.14277225
-0.019774689
0.1445421
-0.019539751
0.14635905
-0.019320383
0.14822624
-0.019123383
0.15014767
-0.018955516
0.15212863
-0.018828342
0.154175
-0.018745461
0.15629643
-0.018746509
0.15849883
-0.018779826
0.1608076
-0.019103837
0.16320989
-0.019123262
0.165808
-0.020813056
-0.019767422
0.1502321
0.00068360106
0.14694909
-0.0003508954
0.14365879
-0.0016465083
0.1406188
-0.0031554166
0.13783242
-0.0047517814
0.13529348
-0.0063369042
0.13300389
-0.0078843177
0.1309638
-0.0093855034
0.12917083
-0.010828071
0.12761987
-0.012200387
0.12630318
-0.013494993
0.12521143
-0.014707326
0.12433455
-0.015834313
0.12366198
-0.016874003
0.12318284
-0.01782548
0.12288613
-0.018688721
0.12276089
-0.019464441
0.12279636
-0.020154008
0.12298202
-0.020759384
0.12330772
-0.021283066
0.12376372
-0.021728039
0.12434081
-0.02209772
0.12503028
-0.022395914
0.12582403
-0.022626765
0.12671456
-0.022794705
0.12769504
-0.022904408
0.12875928
-0.022960743
0.12990175
-0.022968729
0.13111763
-0.0229335
0.13240276
-0.022860262
0.13375366
-0.022754274
0.13516752
-0.022620829
0.13664221
-0.022465242
0.13817626
-0.022292858
0.13976886
-0.022109069
0.14141986
-0.021919353
0.14312981
-0.021729325
0.14489994
-0.021544814
0.1467322
-0.021372015
0.14862933
-0.021217515
0.15059495
-0.021088995
0.15263351
-0.020994079
0.15475087
-0.020945697
0.15695341
-0.020948005
0.15925129
-0.021044389
0.16165103
-0.021179571
0.16417719
-0.021629994
0.16682038
-0.02176645
0.16966752
-0.023660198
-0.022733043
0.18917933
0.0052742173
-0.19376994
0.18538039
0.0034480416
0.18199975
0.0017341307
0.17886658
-2.2242092e-05
0.17594351
-0.0018287113
0.17320555
-0.0035989425
0.17063455
-0.0053133173
0.16822158
-0.0069725411
0.16596284
-0.0085693307
0.16385624
-0.010093785
0.1619
-0.011538749
0.16009208
-0.012899413
0.15842995
-0.014172181
0.1569104
-0.015354455
0.15552963
-0.016444703
0.15428326
-0.017442358
0.15316651
-0.018347688
0.15217421
-0.019161705
0.15130092
-0.019886099
0.15054104
-0.020523185
0.14988884
-0.021075839
0.14933857
-0.021547446
0.14888449
-0.021941839
0.14852098
-0.02226325
0.14824252
-0.02251625
0.14804381
-0.022705696
0.14791975
-0.02283668
0.1478655
-0.022914477
0.1478765
-0.022944503
0.14794851
-0.022932277
0.14807763
-0.022883386
0.14826027
-0.022803469
0.14849323
-0.022698206
0.14877369
-0.022573318
0.14909921
-0.022434592
0.14946777
-0.022287911
0.14987777
-0.022139318
0.15032804
-0.021995092
0.15081794
-0.021861908
0.15134729
-0.021746869
0.15191654
-0.021658247
0.15252672
-0.021604252
0.15317976
-0.021598744
0.153878
-0.021646239
0.15462629
-0.021792686
0.15542672
-0.021979998
0.15629449
-0.022497757
0.15721533
-0.022687294
0.15826058
-0.024705452
-0.023807819
0.2171191
0.0086611857
-0.22050607
0.21365712
0.0069100245
0.21045635
0.0049348968
0.20736359
0.0030705228
0.20433006
0.0012048172
0.20138675
-0.00065563428
0.19855061
-0.0024771794
0.19582623
-0.0042481573
0.19321957
-0.0059626686
0.19073754
-0.0076117531
0.18838542
-0.009186632
0.18616671
-0.010680702
0.18408349
-0.012088966
0.18213658
-0.013407541
0.18032554
-0.014633667
0.17864888
-0.015765697
0.17710418
-0.01680299
0.17568828
-0.017745796
0.17439736
-0.018595186
0.17322716
-0.019352982
0.17217301
-0.020021688
0.17122998
-0.020604421
0.17039299
-0.021104845
0.16965685
-0.021527107
0.16901637
-0.02187577
0.16846642
-0.022155751
0.168002
-0.02237226
0.16761827
-0.022530747
0.16731061
-0.022636844
0.16707466
-0.022696325
0.16690634
-0.022715069
0.16680191
-0.022699035
0.16675795
-0.022654245
0.16677142
-0.02258679
0.16683967
-0.022502846
0.16696047
-0.022408706
0.167132
-0.022310848
0.16735292
-0.02221601
0.16762237
-0.022131364
0.16794004
-0.022064542
0.16830621
-0.022024411
0.16872178
-0.022019828
0.16918848
-0.022065437
0.16970878
-0.022166543
0.17028647
-0.022370375
0.17092585
-0.022619381
0.17163446
-0.023206361
0.17241589
-0.023468729
0.17328716
-0.02557672
-0.024771717
0.24401028
0.011374427
-0.24672352
0.24117117
0.009749137
0.23832952
0.0077765387
0.23549468
0.0059053611
0.23262968
0.0040698198
0.2297553
0.0022187485
0.22690276
0.00037535697
0.22409143
-0.0014368285
0.2213373
-0.0032085349
0.21865636
-0.004930815
0.21606256
-0.0065928251
0.21356696
-0.0081851104
0.21117829
-0.0097002964
0.20890321
-0.011132458
0.20674646
-0.012476919
0.20471106
-0.013730294
0.2027985
-0.014890424
0.20100896
-0.015956258
0.19934153
-0.016927755
0.19779435
-0.017805804
0.19636481
-0.018592144
0.19504966
-0.019289277
0.1938452
-0.019900388
0.19274737
-0.020429271
0.19175184
-0.020880246
0.19085418
-0.021258089
0.19004988
-0.021567957
0.18933446
-0.021815326
0.18870354
-0.022005924
0.1881529
-0.022145684
0.18767852
-0.022240694
0.18727666
-0.02229717
0.18694385
-0.022321434
0.18667697
-0.022319911
0.18647326
-0.022299141
0.18633037
-0.022265818
0.18624637
-0.022226847
0.18621979
-0.022189428
0.18624965
-0.022161228
0.18633554
-0.022150427
0.1864776
-0.022166474
0.1866767
-0.02221893
0.18693433
-0.022323062
0.18725319
-0.022485405
0.18763588
-0.022753062
0.18808916
-0.023072659
0.18861186
-0.023729064
0.18922795
-0.024084815
0.18989024
-0.026239014
-0.02559862
0.26949415
0.013398194
-0.27151792
0.26733591
0.011907382
0.26500438
0.010108063
0.26257595
0.0083337921
0.26005872
0.0065870531
0.25746287
0.004814596
0.25481454
0.0030236857
0.25213794
0.0012397788
0.24945309
-0.00052369196
0.2467799
-0.0022576268
0.24413772
-0.0039506442
0.24154376
-0.0055911433
0.23901282
-0.0071693599
0.2365575
-0.0086771432
0.23418822
-0.010107634
0.23191325
-0.011455324
0.22973891
-0.01271609
0.22766976
-0.013887106
0.22570876
-0.01496675
0.22385748
-0.015954523
0.22211629
-0.016850959
0.22048455
-0.017657538
0.21896076
-0.018376595
0.21754271
-0.019011226
0.21622767
-0.019565203
0.21501247
-0.020042886
0.21389365
-0.020449139
0.21286758
-0.020789252
0.21193053
-0.021068872
0.21107877
-0.021293932
0.21030869
-0.021470605
0.20961677
-0.021605259
0.20899977
-0.021704427
0.20845466
-0.021774803
0.20797876
-0.021823244
0.20756975
-0.021856803
0.20722569
-0.021882789
0.20694511
-0.021908847
0.20672701
-0.02194313
0.20657095
-0.021994364
0.20647703
-0.022072559
0.20644612
-0.022188021
0.20647956
-0.022356492
0.20658022
-0.022586073
0.20674971
-0.022922547
0.20699676
-0.023319708
0.20731249
-0.024044797
0.20773824
-0.024510566
0.2081679
-0.026668677
-0.026259435
0.29317938
0.014722334
-0.29450352
0.29170764
0.013379125
0.28999323
0.011822474
0.28810325
0.010223768
0.28607269
0.0086176166
0.28391241
0.006974872
0.28164086
0.0052952342
0.27928135
0.0035992949
0.27685522
0.0019024383
0.27438263
0.00021495879
0.27188387
-0.0014518786
0.26937877
-0.003086043
0.26688574
-0.0046763351
0.26442148
-0.0062128776
0.26200081
-0.0076869729
0.25963664
-0.0090911511
0.25733985
-0.010419296
0.2551194
-0.011666655
0.25298243
-0.012829783
0.2509344
-0.013906493
0.24897923
-0.014895783
0.24711945
-0.015797763
0.24535642
-0.016613562
0.24369043
-0.01734524
0.24212092
-0.017995693
0.24064659
-0.01856856
0.23926558
-0.019068131
0.23797559
-0.019499258
0.23677399
-0.019867275
0.23565798
-0.02017792
0.23462465
-0.020437275
0.2336711
-0.020651708
0.23279452
-0.020827845
0.23199226
-0.020972543
0.23126191
-0.021092891
0.23060134
-0.021196238
0.2300088
-0.021290246
0.22948292
-0.021382967
0.2290228
-0.02148301
0.22862806
-0.021599628
0.22829887
-0.021743369
0.22803614
-0.021925284
0.22784112
-0.022161476
0.22771686
-0.022461812
0.22766415
-0.022869839
0.2276931
-0.023348663
0.22778856
-0.024140249
0.22800516
-0.024727169
0.22818708
-0.026850592