/*--------------------------------*- C++ -*----------------------------------*\
  =========                 |
  \\      /  F ield         | OpenFOAM: The Open Source CFD Toolbox
   \\    /   O peration     | Website:  https://openfoam.org
    \\  /    A nd           | Version:  6
     \\/     M anipulation  |
\*---------------------------------------------------------------------------*/
FoamFile
{
    version     2.0;
    format      ascii;
    class       volVectorField;
    location    "60";
    object      U_0;
}
// * * * * * * * * * * * * * * * * * * * * * * * * * * * * * * * * * * * * * //

dimensions      [0 1 -1 0 0 0 0];

internalField   nonuniform List<vector> 
9200
(
(0.0010502227 0.0014142058 -5.9285618e-20)
(0.013723264 -0.0020834109 4.6118062e-20)
(0.03841549 -0.0059104215 -3.8561186e-20)
(0.072446915 -0.0098263977 -6.0347452e-20)
(0.11401976 -0.013572456 1.8859116e-20)
(0.1619289 -0.016707862 3.2795789e-20)
(0.21512094 -0.018939376 -1.2290581e-20)
(0.27262325 -0.02011601 9.2864049e-21)
(0.33352494 -0.020173635 1.6827259e-20)
(0.39694491 -0.01911222 1.4872126e-21)
(0.462008 -0.016984462 -2.1494318e-20)
(0.52783554 -0.013884881 2.070811e-20)
(0.59354769 -0.0099390005 -4.049217e-20)
(0.65827576 -0.0052923083 -2.11773e-20)
(0.72118297 -9.8478134e-05 5.9160684e-21)
(0.78149112 0.0054903248 -2.5190446e-20)
(0.83852683 0.011346881 2.5283313e-20)
(0.89184617 0.017517632 2.2331876e-20)
(0.94105042 0.024135062 -2.8211771e-22)
(0.9834186 0.027820297 -1.6472769e-21)
(0.0052706446 -0.0013562491 -1.7083417e-20)
(0.027032442 -0.0090244538 3.9808714e-20)
(0.061810688 -0.014867402 2.3612324e-20)
(0.10652103 -0.019250425 -1.1585795e-19)
(0.15905911 -0.022311803 -1.2747336e-20)
(0.21796344 -0.023837367 7.3396155e-20)
(0.28191571 -0.023730054 -3.5528728e-20)
(0.34966488 -0.022021926 -8.4027298e-21)
(0.42001415 -0.018816619 3.4341525e-20)
(0.49179694 -0.014270656 -4.3332714e-20)
(0.56386525 -0.0085855633 -3.0396467e-20)
(0.63509625 -0.001997573 7.2073906e-20)
(0.70441213 0.0052340248 3.8373757e-20)
(0.77080924 0.012838469 -6.8137444e-20)
(0.83339201 0.020543466 1.4663916e-20)
(0.89140644 0.028079879 -3.6832886e-20)
(0.94428185 0.035195936 -1.3806308e-20)
(0.99173215 0.041730638 7.1210802e-20)
(1.0336251 0.047267106 2.9785374e-20)
(1.0681602 0.048657879 -8.3631208e-20)
(0.010886064 -0.0040560203 3.682074e-20)
(0.044049987 -0.015474927 2.5075944e-21)
(0.090699423 -0.022620241 2.2376451e-20)
(0.14739662 -0.026585791 9.824403e-22)
(0.21173902 -0.027993038 -4.0838655e-20)
(0.28198201 -0.026918521 1.8598488e-20)
(0.35650554 -0.023521738 1.3441467e-20)
(0.43374499 -0.018075799 -5.0403772e-20)
(0.51219433 -0.010905565 5.735509e-20)
(0.59040115 -0.0023706031 1.4287747e-20)
(0.66697662 0.0071424991 -5.4413391e-20)
(0.74062399 0.017233669 -1.8285118e-20)
(0.81017698 0.027505796 9.0520702e-21)
(0.87464065 0.037581063 2.3506874e-20)
(0.9332278 0.047115076 -1.1399886e-20)
(0.98538381 0.055806133 2.7954992e-20)
(1.0308015 0.063409773 -2.0239296e-20)
(1.0694532 0.069786299 -7.0344669e-20)
(1.1014689 0.074661833 -2.3882933e-20)
(1.1259883 0.076148128 4.8763939e-20)
(0.017995534 -0.0064385204 2.4537242e-20)
(0.064903609 -0.020744294 5.1104769e-20)
(0.12508376 -0.028134526 1.9906239e-20)
(0.19481751 -0.03055653 1.3001979e-20)
(0.27142056 -0.029202889 1.729535e-20)
(0.35284621 -0.024510461 -4.7783917e-20)
(0.43715321 -0.01695981 -2.5684188e-20)
(0.52245986 -0.0071229385 0)
(0.6069757 0.0044071403 1.3961804e-20)
(0.68902568 0.01703601 -5.8797434e-21)
(0.7670872 0.030179322 -9.8134322e-20)
(0.83983911 0.043282502 -1.57965e-20)
(0.90621061 0.055842998 6.5276285e-20)
(0.96542003 0.067430096 4.6377548e-22)
(1.0169965 0.077699673 -1.5769113e-21)
(1.0607793 0.086401806 2.2019964e-20)
(1.0968973 0.093388202 -5.2849484e-21)
(1.1257452 0.098641104 -6.1205862e-20)
(1.1478681 0.10213281 -4.5998034e-20)
(1.1632349 0.10291269 6.9679817e-20)
(0.02662972 -0.0082236057 -3.9224302e-21)
(0.089503231 -0.024085104 -5.1308367e-21)
(0.16458893 -0.030338827 5.6665573e-20)
(0.24799265 -0.029899333 1.8559824e-20)
(0.33678584 -0.024614051 -3.1995039e-20)
(0.42862599 -0.01535049 1.2179116e-20)
(0.52127039 -0.0029711022 2.6443622e-21)
(0.6125719 0.011607152 3.3671934e-20)
(0.70054908 0.027497496 5.6708797e-21)
(0.7834436 0.0438698 -1.3242807e-20)
(0.85977998 0.059968056 6.0315721e-20)
(0.92842244 0.075135393 -5.8129284e-20)
(0.98861497 0.088837775 -1.3249427e-19)
(1.0399957 0.10067985 -5.5919213e-21)
(1.0825824 0.11041064 8.3382276e-20)
(1.1167292 0.11791822 0)
(1.143063 0.1232197 1.0143595e-20)
(1.1624143 0.12646436 -1.5503644e-20)
(1.1757028 0.12783382 -8.6252556e-21)
(1.1834913 0.12694846 2.104379e-20)
(0.036730134 -0.0091075669 -5.431817e-21)
(0.11750831 -0.024734885 4.362638e-21)
(0.20845036 -0.028207954 -8.7725282e-21)
(0.30563011 -0.023493489 2.8504415e-20)
(0.40594715 -0.013161225 -2.9431846e-20)
(0.50681363 0.0014312414 -1.6951601e-20)
(0.60576376 0.01899727 3.7406808e-20)
(0.70050669 0.038258217 4.761895e-21)
(0.78903714 0.058047271 -2.4503653e-20)
(0.86971917 0.077344147 7.0014266e-20)
(0.94135206 0.095295764 5.0556038e-22)
(1.0032117 0.11123931 -8.0653524e-20)
(1.055056 0.12471665 0)
(1.0970925 0.13547372 3.9654899e-20)
(1.1299108 0.14344498 5.5404661e-21)
(1.1543917 0.14872507 -7.7772093e-20)
(1.1716042 0.15153545 -1.9638223e-20)
(1.1827081 0.15220186 -1.2500464e-20)
(1.1888476 0.15106861 -1.4749565e-20)
(1.190881 0.14809477 4.052474e-20)
(0.048135493 -0.0087837316 -1.7291573e-20)
(0.14831027 -0.021974871 -2.2319686e-21)
(0.25552076 -0.020853064 3.0408564e-20)
(0.36599363 -0.01047303 3.7517741e-20)
(0.47657464 0.0058390759 -1.9968841e-20)
(0.58453899 0.026204373 -6.9269097e-20)
(0.68734424 0.048907226 -2.8051191e-20)
(0.78274677 0.072338119 7.9073113e-20)
(0.86894312 0.095117179 8.6087105e-21)
(0.94466055 0.11613222 -2.4917204e-20)
(1.0092028 0.13455255 1.3656156e-20)
(1.0624482 0.14983616 -4.3361786e-21)
(1.1047975 0.16171957 0)
(1.1370803 0.17018729 2.7269071e-20)
(1.1604345 0.17542549 -7.9516846e-20)
(1.1761756 0.17776632 -3.1552978e-20)
(1.1856743 0.17763302 8.1254938e-20)
(1.1902557 0.17549947 -4.3120116e-21)
(1.1911167 0.171814 3.5635536e-21)
(1.1891767 0.16672273 2.7185689e-20)
(0.060575181 -0.0069701579 -3.2439125e-20)
(0.1810373 -0.015201921 -8.1708911e-20)
(0.30431356 -0.0076199279 2.5684583e-21)
(0.42700439 0.0096682555 7.0248889e-20)
(0.546069 0.032598678 6.250802e-20)
(0.65881605 0.058787035 -7.1664672e-20)
(0.76283612 0.086138416 -2.6722297e-22)
(0.85617478 0.1128024 8.5697931e-20)
(0.93748195 0.13730913 4.892357e-20)
(1.0060804 0.15859781 -5.4339869e-20)
(1.0619623 0.17600683 -9.2538512e-20)
(1.1057209 0.18924719 -3.1660809e-21)
(1.1384297 0.19835284 4.2223402e-20)
(1.1614908 0.20361098 -6.621499e-21)
(1.1764745 0.20548258 -1.2897506e-20)
(1.1849742 0.20452384 1.9732387e-20)
(1.1884886 0.20131903 4.3982537e-20)
(1.1883447 0.19643492 -4.395816e-20)
(1.1856526 0.1903604 -1.0256851e-19)
(1.1812445 0.18333074 2.463577e-20)
(0.073639702 -0.0034403498 -3.5018068e-20)
(0.21451567 -0.0040047801 -1.7401994e-19)
(0.35297865 0.011827421 8.2212958e-20)
(0.48624583 0.037014057 9.2886724e-20)
(0.6116048 0.066837228 5.8045647e-20)
(0.72662451 0.098483684 8.6251604e-21)
(0.82928197 0.12959281 -1.0641429e-19)
(0.91817063 0.1582232 0)
(0.99262663 0.18298468 -6.8902634e-20)
(1.0527454 0.20303712 -1.5239924e-20)
(1.0993065 0.21803655 5.4819675e-20)
(1.1336299 0.22805829 1.099818e-20)
(1.157393 0.23349851 -4.5711706e-20)
(1.1724381 0.23496474 -4.9184732e-20)
(1.1806012 0.2331704 2.4343367e-20)
(1.183578 0.22884544 4.4925971e-20)
(1.1828378 0.22267101 -5.5726745e-20)
(1.1795853 0.2152421 -1.0775047e-19)
(1.1747606 0.20703229 -3.1509319e-21)
(1.1690386 0.19830769 2.7106464e-20)
(0.086764029 0.0019612027 -3.5574595e-21)
(0.24727341 0.011820597 8.8003049e-20)
(0.39933894 0.03750942 -1.6441895e-20)
(0.54104975 0.071249139 -8.4442044e-20)
(0.67026891 0.10782825 4.5232873e-20)
(0.78508263 0.14415509 4.923347e-20)
(0.88411343 0.17778672 5.5459119e-21)
(0.96673303 0.20689509 -9.9684524e-20)
(1.0331341 0.23036923 -2.5098601e-21)
(1.0842726 0.24776073 5.0608612e-20)
(1.1217134 0.25916778 5.9981285e-21)
(1.1474192 0.2650988 -1.9758849e-20)
(1.1635268 0.26632636 -7.5859584e-20)
(1.1721449 0.26374807 -6.2651734e-21)
(1.1751991 0.25827048 4.3620616e-20)
(1.1743358 0.25072539 3.7095776e-20)
(1.1708816 0.24182078 1.9827514e-20)
(1.1658497 0.23212155 -5.3124447e-20)
(1.1599805 0.22204604 1.2961972e-20)
(1.1537765 0.21186138 8.282589e-20)
(-0.001295478 0.0014370987 -1.1239799e-21)
(-0.0047538308 0.0031924992 2.0675093e-21)
(-0.01078846 0.004142145 8.8468809e-22)
(-0.017781455 0.0045459795 -2.4391042e-21)
(-0.024776822 0.0045714263 -1.4183484e-21)
(-0.031344023 0.0043311768 1.5534002e-21)
(-0.037211852 0.003907501 -6.8900208e-21)
(-0.042201946 0.0033602931 -5.975193e-21)
(-0.046213962 0.0027323996 1.1203583e-20)
(-0.049201648 0.0020541667 -9.7704502e-21)
(-0.051152887 0.0013468411 -1.9868165e-22)
(-0.052076881 0.00062505893 3.6785964e-21)
(-0.051995733 -0.00010126732 -6.3456511e-22)
(-0.050938701 -0.00082544247 2.2889495e-20)
(-0.048938588 -0.0015426211 3.0419003e-22)
(-0.046031193 -0.0022483532 -4.1017737e-20)
(-0.042257627 -0.0029379937 7.5657216e-21)
(-0.037656053 -0.0036094606 2.3946522e-20)
(-0.032234654 -0.0042612603 -4.4009152e-20)
(-0.026052714 -0.004845255 -2.7841052e-20)
(-0.0016549134 0.0041878707 -5.3827393e-21)
(-0.0054059543 0.0092826757 1.0879014e-20)
(-0.011235234 0.012025221 -1.0210304e-20)
(-0.017683129 0.013172016 3.9375917e-21)
(-0.023888674 0.013212283 4.8293651e-21)
(-0.029470845 0.01247693 7.1546553e-22)
(-0.034192898 0.011207661 -2.2574796e-20)
(-0.037901496 0.009580346 -2.0422676e-21)
(-0.04051326 0.0077207569 2.0218666e-20)
(-0.041992898 0.0057179324 -5.0613275e-21)
(-0.042334997 0.0036341576 -2.1824388e-20)
(-0.041552405 0.00151227 4.9114244e-21)
(-0.039668641 -0.00061881904 2.269967e-20)
(-0.036712585 -0.0027397045 1.033968e-20)
(-0.032714684 -0.004836455 2.1924919e-20)
(-0.027707384 -0.0068965174 -1.9834296e-20)
(-0.021734849 -0.0089069078 -2.1743443e-20)
(-0.014844316 -0.010861044 2.126075e-20)
(-0.0069707392 -0.012744388 2.690293e-20)
(0.0020743018 -0.014391152 1.5906017e-20)
(-0.0023069805 0.006570874 -4.365753e-21)
(-0.0065485792 0.014502108 -5.6441616e-21)
(-0.011907755 0.018737146 3.0664012e-22)
(-0.017231789 0.020455174 1.0920867e-21)
(-0.021842688 0.020424786 6.7069701e-21)
(-0.025454763 0.019171562 1.0689008e-20)
(-0.027898131 0.017080183 -3.7325824e-21)
(-0.029068103 0.014430638 -1.8943116e-20)
(-0.028914372 0.011423375 6.5582775e-21)
(-0.027423294 0.0082004496 1.2896442e-20)
(-0.024603123 0.0048612708 5.8519545e-21)
(-0.020474785 0.0014741362 1.820693e-20)
(-0.015065876 -0.001915122 1.7344946e-21)
(-0.0084062771 -0.0052762599 -3.395998e-20)
(-0.00052434819 -0.0085880213 1.2091287e-21)
(0.0085515751 -0.011831615 -2.2199046e-20)
(0.018770198 -0.014989439 -2.4548691e-20)
(0.030063108 -0.018052708 4.5974087e-20)
(0.042619044 -0.020968355 2.5440514e-20)
(0.057113979 -0.023375003 1.2981846e-22)
(-0.0031334921 0.0083818736 -5.2947115e-21)
(-0.0079063822 0.018362695 -8.5103463e-21)
(-0.01245225 0.023619157 4.3668377e-21)
(-0.016040068 0.025640763 4.1554976e-21)
(-0.018245281 0.02540986 2.014291e-21)
(-0.018915807 0.023609804 7.3392749e-21)
(-0.017976729 0.020742235 9.3348981e-21)
(-0.015393346 0.017172428 -1.3546103e-21)
(-0.011163901 0.013162376 -1.1509592e-20)
(-0.0053077244 0.0088981146 -2.9144068e-20)
(0.0021447273 0.0045099505 6.3246322e-23)
(0.011157158 8.7395649e-05 4.0801853e-20)
(0.021692005 -0.0043100617 -1.8427697e-20)
(0.033712026 -0.0086436946 -1.2329152e-20)
(0.047184514 -0.012887518 5.5046807e-22)
(0.062079521 -0.017020625 3.2397073e-20)
(0.078333561 -0.021028259 -1.4882095e-20)
(0.095839525 -0.024908894 -5.3497831e-20)
(0.11491873 -0.028545099 4.5902136e-20)
(0.13694942 -0.031257702 3.3115168e-20)
(-0.003975538 0.0094793042 -6.8715492e-22)
(-0.0091013378 0.020514585 -1.255801e-20)
(-0.012373405 0.026190319 -3.4218551e-20)
(-0.013555608 0.028172992 -5.739555e-21)
(-0.012525312 0.027578816 -3.6265594e-21)
(-0.0092926113 0.025202978 6.3192279e-21)
(-0.003900081 0.021631218 -4.6571293e-21)
(0.0035985107 0.017289998 -8.8262794e-21)
(0.013141511 0.012485713 2.1947459e-20)
(0.024663868 0.0074362297 5.0663246e-21)
(0.038101869 0.0022945378 -2.5353359e-20)
(0.053393373 -0.0028342324 1.1102386e-20)
(0.070478396 -0.0078803281 0)
(0.089299788 -0.012799712 1.2119567e-20)
(0.10980643 -0.017565284 -9.726401e-21)
(0.1319523 -0.022159295 -1.4377528e-20)
(0.15564885 -0.026580267 -1.5660153e-21)
(0.18072785 -0.03085464 -2.2291025e-21)
(0.20760492 -0.034796652 4.626252e-20)
(0.23851787 -0.037264082 -1.0517207e-20)
(-0.0046503163 0.0097935237 -7.5480133e-21)
(-0.0096849746 0.020771581 2.4565182e-20)
(-0.011066201 0.026187101 -1.0522521e-20)
(-0.0090854051 0.027746891 -2.7523016e-20)
(-0.003948208 0.026616025 -2.7598111e-20)
(0.0041544309 0.023651405 -1.4951079e-20)
(0.01504569 0.019485749 -6.9221266e-22)
(0.028567589 0.014578479 5.5604517e-21)
(0.044580857 0.009260255 1.9653378e-20)
(0.062961121 0.0037670342 7.3680453e-21)
(0.083594428 -0.0017354209 -7.2002765e-21)
(0.10637513 -0.0071332183 -2.0113425e-21)
(0.13120224 -0.012351396 -3.8277255e-20)
(0.15797692 -0.017344374 -1.2722637e-20)
(0.18660433 -0.022087705 1.8801606e-20)
(0.2169946 -0.026572104 -2.1077961e-20)
(0.24901071 -0.030820185 -8.996013e-21)
(0.28239702 -0.034915571 3.0508511e-20)
(0.31758869 -0.038638469 5.059273e-20)
(0.35774446 -0.040265968 3.3657539e-21)
(-0.0049662212 0.0093243736 1.6808899e-20)
(-0.0091697032 0.019115014 1.4490365e-20)
(-0.0078504423 0.02357987 5.1236669e-20)
(-0.0018277453 0.024338966 2.3432946e-20)
(0.0083569217 0.02252307 1.8287568e-22)
(0.022321629 0.018999812 -3.9462197e-20)
(0.039743411 0.014410179 -2.4359436e-20)
(0.060347716 0.0092176231 1.0484122e-20)
(0.083900135 0.0037550576 1.4427962e-20)
(0.11019609 -0.0017401413 -1.3135079e-20)
(0.13905035 -0.007101632 -4.4126083e-20)
(0.17028835 -0.012216287 2.9679222e-20)
(0.20373879 -0.017011415 2.0058305e-20)
(0.23922788 -0.021446041 -2.7609798e-20)
(0.2765792 -0.025504195 1.1677925e-20)
(0.31561731 -0.029191649 2.4252126e-20)
(0.35611966 -0.03256517 8.0935494e-21)
(0.39771426 -0.035797609 -1.1798372e-20)
(0.4407627 -0.038714279 -1.4214731e-20)
(0.48927974 -0.038987277 5.91412e-21)
(-0.0047333862 0.0081307048 1.1112579e-20)
(-0.0070548191 0.015679492 -2.3399633e-20)
(-0.0020052648 0.018565366 8.6294167e-21)
(0.0090884355 0.018209762 3.3649354e-20)
(0.025354175 0.015631157 5.2215175e-20)
(0.046215426 0.011659335 2.0311917e-20)
(0.071193687 0.0069063566 -5.8752025e-21)
(0.099879473 0.0018084322 -1.2305648e-20)
(0.13192261 -0.0033229404 -6.2187684e-21)
(0.16701271 -0.0082677381 3.4302203e-20)
(0.20486122 -0.012874748 -4.5233515e-21)
(0.2451875 -0.017044912 -1.6677493e-20)
(0.28770779 -0.020719632 -1.9729037e-20)
(0.33212704 -0.023873479 -4.7540881e-20)
(0.37813767 -0.026509593 2.3286706e-20)
(0.42542716 -0.028659735 -1.4127603e-20)
(0.47364409 -0.03042801 2.6057792e-20)
(0.52228182 -0.032112806 2.1091032e-20)
(0.57155417 -0.033711212 -8.5728656e-20)
(0.62613907 -0.03245227 -9.8821694e-23)
(-0.0037705802 0.0063176346 2.1958515e-20)
(-0.0028513798 0.010732725 -2.6213374e-20)
(0.0071864922 0.01155204 -4.5087483e-20)
(0.024537779 0.0098995954 -2.7300317e-20)
(0.048012919 0.0066107276 -2.0473876e-21)
(0.076835615 0.0024307465 1.3068824e-20)
(0.11035789 -0.0020951104 -2.8359501e-21)
(0.14801596 -0.0065886695 1.8146771e-20)
(0.18931512 -0.010786312 8.8808558e-21)
(0.23380281 -0.014508147 -1.1398609e-20)
(0.28104421 -0.017638419 8.8982791e-21)
(0.33060427 -0.020110847 -2.3946146e-20)
(0.38203449 -0.021898168 8.0700797e-21)
(0.43486394 -0.023005673 1.6790775e-20)
(0.48859764 -0.023467354 -2.6448101e-21)
(0.54272602 -0.02334811 1.6645947e-21)
(0.5967079 -0.022799561 -3.1724937e-22)
(0.64987449 -0.022229548 1.9634971e-20)
(0.70225042 -0.02183497 4.0520418e-21)
(0.75893638 -0.018922141 -6.2031559e-22)
(-0.0019061067 0.004025979 2.3731559e-20)
(0.0038981291 0.0046627499 5.7260126e-20)
(0.020385529 0.003159706 -4.9323088e-20)
(0.045304392 0.00024967222 -9.9614852e-21)
(0.077159322 -0.0034871785 2.0286424e-20)
(0.11496921 -0.0074361235 2.1465994e-21)
(0.1579 -0.011157875 -2.9859445e-20)
(0.20520559 -0.014368121 6.9931043e-21)
(0.25620918 -0.016883579 7.1241611e-21)
(0.31027132 -0.018594889 -2.6298476e-20)
(0.36676243 -0.019450995 1.2957549e-21)
(0.42504507 -0.01944654 -3.7242246e-20)
(0.48446369 -0.018611622 -3.6412131e-20)
(0.54434052 -0.017003587 6.582206e-20)
(0.6039775 -0.014699822 5.5756084e-21)
(0.66266244 -0.01179707 -1.5231703e-20)
(0.71965304 -0.0084532739 1.9406621e-20)
(0.77410135 -0.0049753398 -9.2095662e-22)
(0.82553131 -0.0013833305 2.0386238e-20)
(0.87768336 0.0038777929 -1.9625766e-20)
(-0.018694952 -0.0051257917 5.8575746e-20)
(-0.010037712 -0.0056638785 1.5840959e-20)
(1.8471026e-05 -0.0061006301 -3.5275417e-20)
(0.011122327 -0.0063682585 1.6863434e-20)
(0.02300745 -0.0065484604 0)
(0.035615433 -0.0066687207 0)
(0.04888684 -0.0067317394 -2.3078158e-20)
(0.06274221 -0.006745347 -1.6577171e-20)
(0.077111377 -0.0067189403 1.9218873e-20)
(0.091935123 -0.0066593162 1.8265594e-20)
(0.10715878 -0.006571671 1.0561967e-21)
(0.12273088 -0.0064605743 -1.0368014e-20)
(0.13860346 -0.0063299934 8.3793626e-21)
(0.1547317 -0.0061832852 1.8327233e-20)
(0.17107325 -0.0060233234 -5.2672686e-21)
(0.18758793 -0.0058526045 -1.0228306e-20)
(0.20423752 -0.0056733123 -4.3424177e-21)
(0.22098557 -0.0054873688 -4.4441181e-21)
(0.23779732 -0.0052964803 7.3864245e-22)
(0.25463964 -0.0051021722 1.2373094e-21)
(0.27148104 -0.0049058154 2.5917715e-21)
(0.28829168 -0.0047086466 6.7029887e-21)
(0.30504345 -0.0045117828 2.3868971e-22)
(0.32171004 -0.0043162326 -3.4819756e-21)
(0.33826699 -0.0041229035 1.540199e-22)
(0.35469181 -0.0039326086 -5.8304963e-22)
(0.37096404 -0.0037460705 1.2574922e-21)
(0.3870653 -0.0035639262 1.0593625e-21)
(0.40297938 -0.0033867301 -1.3287258e-21)
(0.4186923 -0.0032149587 -1.2087658e-22)
(0.43419232 -0.0030490144 1.8781755e-23)
(0.44946998 -0.0028892307 -3.5932886e-22)
(0.46451818 -0.0027358771 -4.2442907e-22)
(0.47933214 -0.002589165 6.8303107e-23)
(0.4939095 -0.0024492542 -1.4297994e-22)
(0.50825034 -0.0023162595 -2.3047238e-22)
(0.52235723 -0.0021902584 2.6602871e-22)
(0.53623542 -0.0020712987 3.0917767e-22)
(0.54989276 -0.0019594103 -1.8761044e-23)
(0.56334056 -0.0018546075 -1.8094075e-22)
(0.57659187 -0.0017569318 2.9698389e-23)
(0.5896683 -0.0016663778 -4.2343186e-23)
(0.60258122 -0.0015832188 1.1211677e-22)
(0.61539145 -0.0015071291 1.4293108e-23)
(0.62803769 -0.0014401322 -1.7305607e-22)
(0.64084511 -0.0013780235 -9.3529897e-24)
(0.65307707 -0.001337178 3.3119461e-24)
(0.66707916 -0.0012766648 -1.1327383e-23)
(0.67668159 -0.0013279907 2.8088137e-23)
(0.69893538 -0.0011881028 4.5134161e-22)
(0.010690281 -0.015097215 -1.2802506e-20)
(0.018470605 -0.016728887 -6.3537951e-20)
(0.028124839 -0.018011475 -3.0671178e-20)
(0.038792275 -0.018775104 3.8636498e-20)
(0.050095453 -0.019293192 1.4726001e-20)
(0.062054739 -0.019645505 -1.8293921e-20)
(0.074641373 -0.019832183 4.7051066e-21)
(0.087778704 -0.019874786 2.5562023e-20)
(0.10140394 -0.019801321 8.109078e-23)
(0.11546717 -0.019631279 -7.7018799e-21)
(0.1299206 -0.019379282 -1.3067988e-20)
(0.14471797 -0.0190584 -8.5791504e-21)
(0.15981576 -0.018680074 1.786295e-20)
(0.17517285 -0.018253989 9.0138947e-21)
(0.19074993 -0.017788458 -1.659124e-20)
(0.20650929 -0.017290739 -6.0718594e-21)
(0.22241473 -0.016767206 3.2264646e-21)
(0.23843149 -0.016223494 8.4092199e-21)
(0.25452618 -0.015664623 7.0312183e-21)
(0.27066678 -0.015095098 -7.0399625e-21)
(0.28682275 -0.014518982 -3.2192903e-21)
(0.302965 -0.01393995 1.3977159e-21)
(0.31906605 -0.01336133 4.2457953e-22)
(0.33510006 -0.012786134 1.2311117e-21)
(0.35104298 -0.012217079 1.940509e-22)
(0.3668726 -0.011656602 -3.3903177e-22)
(0.38256865 -0.011106873 -7.4156654e-22)
(0.39811288 -0.01056981 1.009422e-21)
(0.41348912 -0.010047084 8.5322657e-22)
(0.42868336 -0.0095401359 -1.8069039e-22)
(0.44368377 -0.0090501847 5.8020964e-22)
(0.45848074 -0.0085782443 -2.438542e-22)
(0.47306694 -0.0081251377 -3.9737468e-22)
(0.48743736 -0.0076915147 -6.4373052e-22)
(0.5015893 -0.0072778706 4.5731358e-22)
(0.51552251 -0.0068845666 -4.7179295e-23)
(0.52923918 -0.0065118528 1.9480671e-22)
(0.5427441 -0.0061598902 -4.9399341e-22)
(0.55604469 -0.0058287871 4.4454975e-22)
(0.56915178 -0.0055186049 7.4090194e-23)
(0.58207792 -0.0052294878 -1.0266361e-22)
(0.59484414 -0.004961439 2.2978791e-22)
(0.60746139 -0.0047152966 3.1825777e-22)
(0.61998958 -0.0044901029 2.4574592e-22)
(0.63236778 -0.00429193 2.6458896e-22)
(0.64491734 -0.0041082222 -4.1574321e-23)
(0.65691007 -0.0039878954 1.7604372e-22)
(0.67066261 -0.0038088058 1.7084711e-22)
(0.68008396 -0.0039628175 -3.2385547e-22)
(0.70199137 -0.0035481727 -2.2888168e-23)
(0.06804688 -0.024165359 9.4913807e-21)
(0.074070182 -0.026898088 3.3163967e-21)
(0.082803913 -0.028967518 -1.2234257e-20)
(0.092551078 -0.030141393 -1.241097e-21)
(0.10265614 -0.030951064 1.5044981e-20)
(0.11329455 -0.031524329 -1.4952751e-20)
(0.12450581 -0.031839446 -2.9989814e-20)
(0.13621485 -0.031925916 1.4573861e-20)
(0.14836996 -0.031829741 1.8282277e-20)
(0.16093854 -0.031581058 -1.1663877e-20)
(0.1738853 -0.031201437 1.0242691e-21)
(0.18717296 -0.030710727 8.7074437e-21)
(0.20076567 -0.030126661 -1.5350849e-20)
(0.21462874 -0.029464306 2.9784063e-21)
(0.22872808 -0.028736654 7.577598e-21)
(0.24303015 -0.027955146 -8.76686e-24)
(0.25750219 -0.027129926 2.4020939e-22)
(0.2721122 -0.02627003 -7.4838942e-21)
(0.28682906 -0.025383571 3.9427775e-21)
(0.30162261 -0.024477877 8.5625521e-21)
(0.31646378 -0.023559599 -3.8763319e-21)
(0.33132471 -0.022634784 -2.2303553e-21)
(0.34617887 -0.021708936 1.0076463e-21)
(0.3610012 -0.020787054 -1.7451262e-21)
(0.37576821 -0.019873665 1.3659609e-21)
(0.39045812 -0.018972843 7.2590055e-22)
(0.40505091 -0.018088229 1.6011645e-21)
(0.41952846 -0.01722305 -2.0335485e-21)
(0.43387462 -0.01638013 2.3240458e-21)
(0.44807524 -0.01556191 5.7523909e-22)
(0.46211827 -0.01477047 4.6436614e-22)
(0.47599377 -0.014007549 3.2807869e-22)
(0.48969399 -0.01327457 9.4825896e-22)
(0.50321339 -0.012572671 -1.4918732e-21)
(0.51654868 -0.011902732 4.1128502e-22)
(0.52969893 -0.011265413 1.5279594e-22)
(0.54266558 -0.010661186 -6.0563276e-23)
(0.55545265 -0.010090378 6.9345828e-23)
(0.56806668 -0.009553227 -4.2626267e-22)
(0.58051761 -0.0090498927 2.2467492e-22)
(0.59281705 -0.0085806715 -3.8907933e-23)
(0.60498502 -0.0081456229 5.3468024e-22)
(0.61703158 -0.0077461926 -2.606773e-22)
(0.62901497 -0.0073808417 5.9460517e-23)
(0.64087495 -0.0070596726 7.2283434e-23)
(0.65292574 -0.0067619713 -1.2165889e-22)
(0.66445505 -0.0065684938 -2.4310445e-22)
(0.67772421 -0.0062780499 7.256789e-22)
(0.68679414 -0.006534372 2.8896371e-22)
(0.70802997 -0.0058601625 -1.0384533e-21)
(0.15088995 -0.031657024 1.5127624e-21)
(0.1542722 -0.035469981 -1.1597057e-20)
(0.16140243 -0.038240017 6.6571823e-21)
(0.16966044 -0.039722295 -1.3377741e-20)
(0.17790884 -0.04077722 -1.9840705e-21)
(0.1865268 -0.041572167 9.2129452e-21)
(0.19567011 -0.042040191 -9.8376335e-21)
(0.20526144 -0.042209262 1.5522821e-21)
(0.21525701 -0.042141081 1.2965577e-20)
(0.2256467 -0.041873949 3.4352832e-21)
(0.23641162 -0.041433203 -6.2410619e-21)
(0.24752504 -0.040842859 -2.8951775e-21)
(0.25895995 -0.040125161 -5.8473106e-21)
(0.27068924 -0.039299278 -6.5066018e-21)
(0.28268484 -0.038381874 3.2196913e-21)
(0.29491798 -0.037387811 8.0803718e-22)
(0.30735968 -0.036330452 1.3927787e-21)
(0.31998098 -0.035221858 -3.4067542e-21)
(0.33275319 -0.034072973 -4.3055884e-21)
(0.34564809 -0.032893784 2.3967064e-21)
(0.35863815 -0.031693431 3.2855747e-21)
(0.37169669 -0.030480287 -1.6118108e-21)
(0.38479812 -0.029262021 1.6167196e-21)
(0.39791808 -0.028045638 -4.1276534e-22)
(0.41103355 -0.02683751 -4.031318e-21)
(0.42412306 -0.025643398 -3.085039e-21)
(0.43716673 -0.024468475 -2.1170657e-22)
(0.45014642 -0.02331734 4.153027e-22)
(0.46304581 -0.022194042 -2.2607241e-21)
(0.47585046 -0.0211021 -9.2413244e-22)
(0.48854789 -0.020044531 2.3245298e-22)
(0.5011276 -0.019023878 -1.3307993e-21)
(0.5135812 -0.018042246 -1.2138759e-23)
(0.52590236 -0.017101341 -4.6939161e-22)
(0.53808695 -0.016202512 -4.8870661e-22)
(0.55013307 -0.015346797 -6.1021566e-22)
(0.56204113 -0.014534978 -9.822234e-22)
(0.57381404 -0.013767626 -4.4363007e-23)
(0.58545718 -0.013045189 -4.2033291e-24)
(0.59697923 -0.012368006 -6.2909475e-22)
(0.60839055 -0.011736601 -7.7371156e-23)
(0.6197097 -0.011151165 -4.3704783e-22)
(0.63094562 -0.010613814 -6.2083762e-22)
(0.64215421 -0.010122514 5.429184e-22)
(0.65327624 -0.009691339 2.0983794e-23)
(0.66461579 -0.0092917933 2.9755039e-22)
(0.67548344 -0.0090351568 -2.6490305e-22)
(0.6880609 -0.0086451694 -4.8818653e-22)
(0.69662827 -0.0090026599 6.3058737e-23)
(0.71689936 -0.0080938863 5.8791001e-22)
(0.25562162 -0.036812198 -2.0983207e-20)
(0.25545884 -0.041670681 4.7741762e-20)
(0.26012442 -0.045041539 1.0379493e-20)
(0.26620576 -0.046754353 -1.5826089e-20)
(0.27190452 -0.048042347 -2.0436547e-21)
(0.27779241 -0.049091643 2.620033e-21)
(0.28419054 -0.049773209 -1.6825568e-21)
(0.29102013 -0.050102769 -4.706917e-21)
(0.29823366 -0.050150883 -4.0347314e-21)
(0.30584248 -0.049960958 -1.2267149e-20)
(0.31384564 -0.049559737 1.8013872e-20)
(0.32222621 -0.048972713 6.5747867e-21)
(0.33096457 -0.048224502 -1.6870377e-20)
(0.34004016 -0.047337007 1.033805e-20)
(0.34943011 -0.046329633 8.3931392e-21)
(0.35910957 -0.045219963 -8.4395273e-22)
(0.36905256 -0.044024096 -3.1125365e-21)
(0.37923243 -0.042756817 -3.8855907e-21)
(0.38962226 -0.041431738 -1.4195727e-21)
(0.40019514 -0.040061431 -1.2592721e-21)
(0.41092451 -0.038657517 -3.0910372e-21)
(0.4217844 -0.037230739 0)
(0.43274966 -0.035791005 -1.3794637e-21)
(0.44379618 -0.034347419 3.9858507e-21)
(0.45490105 -0.032908309 5.5221641e-21)
(0.46604271 -0.031481239 -9.4989869e-22)
(0.47720108 -0.030073032 -3.0436648e-21)
(0.48835769 -0.028689786 3.1698404e-21)
(0.49949574 -0.027336896 2.1600947e-22)
(0.51060022 -0.026019079 3.600243e-21)
(0.52165794 -0.02474041 -5.4399393e-22)
(0.53265762 -0.023504353 1.7981026e-21)
(0.54358993 -0.022313814 -8.6120132e-22)
(0.55444755 -0.02117118 3.4018642e-22)
(0.56522526 -0.020078381 -4.9032639e-22)
(0.57591997 -0.019036945 6.0609717e-22)
(0.58653083 -0.018048066 5.1994576e-22)
(0.59705943 -0.017112671 4.42601e-22)
(0.60750974 -0.01623152 -1.1228235e-21)
(0.61788897 -0.015405228 8.1809208e-22)
(0.62820599 -0.014634644 -4.4878638e-22)
(0.63847767 -0.013920187 -1.4237346e-21)
(0.64871161 -0.013264711 1.8802195e-21)
(0.65896085 -0.012665806 -7.9148792e-23)
(0.66916761 -0.012141418 -2.3390015e-22)
(0.67962318 -0.011655791 -1.2154348e-23)
(0.68966726 -0.011348885 -2.5447002e-22)
(0.70138058 -0.010874882 -8.1473003e-22)
(0.70932131 -0.011331668 8.3953194e-22)
(0.72837962 -0.010221389 -5.911476e-23)
(0.37753191 -0.038689315 -1.756561e-20)
(0.37294403 -0.044610027 1.286705e-20)
(0.37416297 -0.048521094 3.0040403e-21)
(0.37727694 -0.05047644 -7.6641374e-21)
(0.3797452 -0.052065303 1.2102875e-20)
(0.38223931 -0.053455604 7.8236741e-21)
(0.38527362 -0.054461017 -1.2687506e-20)
(0.38878474 -0.055081487 -6.0947517e-21)
(0.3927053 -0.055383466 1.2755339e-20)
(0.39705607 -0.055409383 -1.5410386e-20)
(0.40185163 -0.055186282 -1.4131207e-20)
(0.40708278 -0.054739694 1.4243644e-20)
(0.41273368 -0.054094779 6.8569351e-21)
(0.4187871 -0.053275012 -4.286448e-21)
(0.42522296 -0.052301964 -1.826811e-21)
(0.43201831 -0.05119561 -4.0429727e-21)
(0.43914842 -0.049974604 5.2933772e-21)
(0.44658741 -0.048656415 3.6915437e-21)
(0.45430881 -0.047257392 -3.2511079e-21)
(0.46228589 -0.045792824 3.1591584e-21)
(0.47049203 -0.044276996 2.8102757e-21)
(0.47890106 -0.042723218 -3.2601012e-21)
(0.4874875 -0.041143852 3.7385921e-22)
(0.49622679 -0.039550324 -3.2846e-21)
(0.50509548 -0.037953129 7.4743082e-21)
(0.51407137 -0.036361849 6.2639009e-21)
(0.52313368 -0.03478516 8.63618e-22)
(0.53226314 -0.033230852 -1.8148238e-21)
(0.54144209 -0.031705849 3.8957063e-21)
(0.55065458 -0.030216245 7.5540154e-21)
(0.55988641 -0.028767336 2.3924623e-21)
(0.5691252 -0.027363669 3.5221851e-21)
(0.57836048 -0.026009099 2.1105818e-21)
(0.58758371 -0.024706839 8.0916137e-22)
(0.59678836 -0.023459538 -2.725284e-22)
(0.60597 -0.022269345 3.0036137e-21)
(0.61512637 -0.021137997 6.9020356e-22)
(0.62425758 -0.020066891 3.2898407e-22)
(0.63336607 -0.019057221 6.2450173e-23)
(0.64245746 -0.018109991 1.19363e-21)
(0.65153901 -0.017226478 5.2731496e-23)
(0.66062578 -0.016407433 5.7247727e-22)
(0.66972393 -0.015656527 -1.5656325e-22)
(0.67888337 -0.014971095 -3.9435913e-22)
(0.68804809 -0.014372828 -2.2116231e-22)
(0.69749455 -0.013819328 -6.5123078e-22)
(0.70659675 -0.013476993 3.063064e-22)
(0.71731677 -0.012937079 -2.1194461e-22)
(0.72453968 -0.013490682 -4.7374654e-22)
(0.74219151 -0.012217627 3.2919388e-22)
(0.51065128 -0.036351533 3.641506e-21)
(0.500961 -0.043357535 -1.9002676e-20)
(0.49776535 -0.047800351 -2.3195333e-21)
(0.49711343 -0.050173009 5.5035961e-21)
(0.49579855 -0.052273894 3.0735939e-21)
(0.49439913 -0.054181125 -3.0698702e-23)
(0.49359439 -0.055683082 6.2379992e-21)
(0.49338038 -0.056780308 7.6642289e-21)
(0.49366651 -0.057524695 9.8948951e-21)
(0.49446 -0.05794876 -1.1309847e-20)
(0.49578067 -0.058078288 -2.1712415e-20)
(0.49762411 -0.05793901 -3.979287e-21)
(0.49997451 -0.05755618 1.6045998e-20)
(0.50281362 -0.056954427 1.2896322e-20)
(0.50612081 -0.05615751 -5.9204255e-21)
(0.50987257 -0.055188071 1.352322e-21)
(0.51404328 -0.054067655 -3.7213737e-21)
(0.5186061 -0.052816784 2.3311377e-21)
(0.52353346 -0.051454937 -2.9323016e-22)
(0.5287975 -0.05000053 -1.8887018e-21)
(0.53437049 -0.048470907 7.9600744e-21)
(0.54022505 -0.046882333 -3.1884248e-22)
(0.5463345 -0.04524999 4.4542148e-22)
(0.55267308 -0.043587966 -6.3705178e-22)
(0.5592161 -0.04190925 -4.3860387e-21)
(0.56594012 -0.040225738 4.2973941e-21)
(0.57282312 -0.038548236 1.9231665e-21)
(0.57984455 -0.036886483 -3.3920759e-21)
(0.58698547 -0.035249172 -4.1902079e-21)