/*--------------------------------*- C++ -*----------------------------------*\
  =========                 |
  \\      /  F ield         | OpenFOAM: The Open Source CFD Toolbox
   \\    /   O peration     | Website:  https://openfoam.org
    \\  /    A nd           | Version:  6
     \\/     M anipulation  |
\*---------------------------------------------------------------------------*/
FoamFile
{
    version     2.0;
    format      ascii;
    class       volSymmTensorField;
    location    "60";
    object      UPrime2Mean;
}
// * * * * * * * * * * * * * * * * * * * * * * * * * * * * * * * * * * * * * //

dimensions      [0 2 -2 0 0 0 0];

internalField   nonuniform List<symmTensor> 
9200
(
(0.0003266604 -0.00025360204 1.2082115e-21 0.00020363057 -6.4826887e-22 1.9360738e-38)
(0.0019959519 -0.0016011219 3.0288541e-21 0.0012891695 -2.2611514e-21 2.1044674e-38)
(0.0039913328 -0.0031113452 4.1970181e-22 0.0024378279 -3.1282482e-22 1.1546864e-38)
(0.00622292 -0.0045439204 -4.489884e-21 0.0033512146 3.1720648e-21 2.2979054e-38)
(0.0083672933 -0.0057895493 1.7057196e-22 0.0040682917 -1.5553034e-22 3.3745912e-39)
(0.010269977 -0.006793341 1.8263857e-21 0.0045908557 -1.2304738e-21 5.1011965e-40)
(0.011831391 -0.0075398325 -3.6981939e-22 0.004940571 2.6611622e-22 1.5287434e-39)
(0.012978007 -0.008035888 3.373302e-22 0.0051516234 -2.3599564e-22 1.0298219e-39)
(0.013666831 -0.0082988796 1.7676879e-21 0.005256384 -1.0909141e-21 2.932899e-39)
(0.013885969 -0.0083513991 1.3524582e-22 0.0052821052 -8.4412156e-23 8.3153165e-42)
(0.013652974 -0.0082187295 -1.8521209e-21 0.0052510543 1.1692912e-21 1.5624711e-39)
(0.013012611 -0.0079272725 1.5284226e-21 0.0051808716 -1.0077516e-21 2.0170388e-40)
(0.012032951 -0.0075035498 -2.700002e-21 0.0050850677 1.8927092e-21 3.3289151e-39)
(0.010799379 -0.0069735888 -1.3493576e-21 0.0049736627 9.6844124e-22 1.9941477e-40)
(0.0094068976 -0.0063625216 3.4715678e-22 0.0048538603 -2.7018704e-22 2.628302e-41)
(0.0079515184 -0.0056942438 -1.2819951e-21 0.0047306881 1.0597327e-21 2.6415786e-40)
(0.0065215836 -0.0049911003 1.104998e-21 0.0046078009 -9.9726815e-22 3.2449534e-40)
(0.0051900132 -0.0042738315 7.8889901e-22 0.0044898256 -7.5051913e-22 1.4097365e-39)
(0.0040132509 -0.003560784 -3.7791639e-23 0.0043831802 7.5550719e-23 2.6441387e-40)
(0.0030473064 -0.0028669399 -2.5898654e-23 0.0042474644 7.01954e-23 3.2771784e-40)
(0.00042977547 -0.00028730159 1.2870003e-22 0.00019730984 -5.03724e-23 3.388567e-40)
(0.0025355583 -0.0017613231 3.2123923e-21 0.0012271258 -2.0902856e-21 2.2469251e-38)
(0.0049818819 -0.0033701537 -1.0799863e-21 0.0022912691 7.2195452e-22 1.2216806e-38)
(0.0075470542 -0.0048297551 -8.0341994e-21 0.0031216753 5.0494196e-21 5.3135025e-38)
(0.0098625734 -0.0060411517 -2.535122e-22 0.003759456 1.6584734e-22 6.7107612e-40)
(0.011756257 -0.0069585314 6.1215702e-21 0.00421306 -3.6519402e-21 1.7543199e-38)
(0.01313299 -0.0075797929 -2.4721196e-21 0.0045095934 1.469039e-21 5.7997632e-40)
(0.013943002 -0.0079262112 -7.4629132e-22 0.0046854376 4.4032948e-22 2.1508064e-40)
(0.01418108 -0.0080281874 2.798679e-21 0.0047732458 -1.6707613e-21 1.6245608e-39)
(0.013882633 -0.0079192775 -3.3562415e-21 0.0047993381 2.0476895e-21 1.8464864e-39)
(0.013117435 -0.0076334758 -2.3553498e-21 0.00478408 1.4807809e-21 2.3168897e-39)
(0.01198193 -0.0072036858 5.0165107e-21 0.0047424519 -3.3022818e-21 1.1756397e-38)
(0.010589515 -0.0066609749 2.3114762e-21 0.0046847429 -1.6302568e-21 7.8544582e-40)
(0.0090593083 -0.0060343267 -3.5820073e-21 0.0046173311 2.7187208e-21 3.9637254e-39)
(0.0075047258 -0.0053506213 6.2877859e-22 0.0045434278 -5.1937579e-22 3.3673967e-40)
(0.0060234566 -0.0046346478 -1.3824148e-21 0.0044637256 1.2900913e-21 8.6827085e-40)
(0.0046900708 -0.0039090648 -5.7594347e-22 0.004377055 6.3676599e-22 2.7956561e-40)
(0.003552 -0.0031939762 1.6693028e-21 0.0042811505 -2.047287e-21 4.4931387e-39)
(0.002631523 -0.0025051569 7.737374e-22 0.0041692525 -1.1501915e-21 8.263705e-40)
(0.001936747 -0.001858858 -3.033697e-22 0.004005739 4.1180397e-22 6.6720913e-39)
(0.00054564471 -0.00031079997 -1.056463e-21 0.00018107744 4.5074993e-22 8.7622687e-39)
(0.0031067011 -0.0018509152 -1.7451602e-21 0.0011055163 9.6955025e-22 9.1389009e-39)
(0.0059900302 -0.0034861045 -2.0126085e-21 0.0020391867 1.171091e-21 2.2843101e-38)
(0.0088271037 -0.0049076582 6.4150514e-23 0.0027568965 -3.5489917e-23 2.467343e-42)
(0.011215431 -0.006032496 1.7317464e-22 0.0033002555 -7.7367486e-23 1.6402007e-38)
(0.012980739 -0.0068290867 2.1574955e-21 0.0036836851 -1.1628829e-21 4.5811152e-39)
(0.014052843 -0.0073110851 1.748172e-22 0.0039371925 -9.2019378e-23 1.8988033e-39)
(0.014427577 -0.0075138158 -3.5339944e-21 0.0040961065 1.9437861e-21 1.1579865e-39)
(0.014157183 -0.0074785368 4.1469355e-21 0.0041902012 -2.3495975e-21 2.2063751e-39)
(0.013338754 -0.0072464357 1.3539501e-21 0.0042419887 -8.0945e-22 2.5038683e-39)
(0.012100579 -0.0068563331 -3.6645136e-21 0.0042674338 2.3048068e-21 5.092567e-39)
(0.01058729 -0.0063438335 -1.1266347e-21 0.0042768094 7.6652118e-22 1.6833679e-39)
(0.0089443766 -0.0057413614 4.34576e-22 0.0042756488 -3.1045453e-22 4.5965558e-39)
(0.0073037295 -0.0050785997 9.452306e-22 0.0042657544 -7.8104958e-22 6.429931e-40)
(0.0057722534 -0.0043829125 -3.1647258e-22 0.0042461795 2.9787832e-22 5.0189417e-40)
(0.0044250504 -0.003679507 7.4421065e-22 0.0042141618 -8.083282e-22 3.7691687e-40)
(0.0033037555 -0.0029912663 -5.1227472e-22 0.004165973 6.5834871e-22 1.3950044e-40)
(0.0024195093 -0.0023381874 -9.7906765e-22 0.0040973888 1.5251788e-21 3.6271348e-39)
(0.0017595444 -0.0017361973 -2.039982e-24 0.0040032815 4.050433e-24 3.3699814e-39)
(0.0012967712 -0.0011994074 3.2519813e-22 0.0038735748 -8.2546701e-22 3.4981843e-40)
(0.00067022326 -0.0003206092 -8.3781015e-22 0.00015643171 3.0920308e-22 4.3531294e-39)
(0.0036791166 -0.0018547309 1.2339248e-21 0.00093716525 -6.0654213e-22 7.9698569e-40)
(0.0069534301 -0.0034389692 1.0999395e-21 0.0017100415 -5.4486721e-22 9.3708638e-40)
(0.0099739259 -0.0047625349 2.4202706e-21 0.0022999407 -1.1603297e-21 1.0140392e-38)
(0.012321788 -0.0057623993 2.0969508e-21 0.0027466845 -1.0049465e-21 4.5062496e-39)
(0.013842744 -0.0064241766 -3.6060167e-21 0.0030684488 1.7419188e-21 3.4075761e-39)
(0.014515612 -0.0067762154 -1.9956478e-21 0.0032946014 9.8647195e-22 9.6723235e-40)
(0.014402973 -0.0068639158 0 0.0034558896 0 0)
(0.013628802 -0.0067341303 2.140197e-21 0.0035762123 -1.2024798e-21 1.2623244e-38)
(0.012356402 -0.0064302279 -9.0831978e-22 0.0036718679 5.6082823e-22 4.783953e-39)
(0.010766037 -0.0059910753 -5.2575848e-21 0.0037526003 3.2899322e-21 3.9807346e-39)
(0.0090338368 -0.0054514381 -6.751535e-22 0.0038227243 4.4484841e-22 8.5148809e-40)
(0.0073137557 -0.0048429498 2.4843481e-21 0.0038823335 -1.9817721e-21 5.6348075e-39)
(0.0057247999 -0.00419495 1.6751273e-22 0.0039285689 -1.0953275e-22 2.3828229e-39)
(0.0043449665 -0.0035347583 -3.6894193e-23 0.0039568807 3.9518384e-23 1.6114584e-42)
(0.0032119499 -0.0028872941 3.864248e-22 0.0039622487 -4.9630622e-22 2.8353563e-40)
(0.0023293276 -0.0022742322 1.3471393e-23 0.0039401786 1.601436e-24 3.4484774e-40)
(0.0016760175 -0.0017130489 -6.5587725e-22 0.0038870937 1.261529e-21 8.1796353e-40)
(0.0012162151 -0.0012161533 -3.4766765e-22 0.0038023083 8.6193792e-22 5.8122814e-40)
(0.00090855471 -0.00079123632 1.4519212e-22 0.0036939805 -6.078463e-22 3.893829e-39)
(0.00079769619 -0.00031382106 6.2915668e-22 0.0001257175 -2.0037565e-22 1.7128896e-39)
(0.0042160143 -0.0017635356 2.61385e-21 0.00073936414 -1.0427606e-21 1.5432417e-38)
(0.0078032609 -0.0032218779 1.9825581e-21 0.0013384063 -8.2237024e-22 9.5894228e-40)
(0.010898964 -0.0043992833 2.2342161e-21 0.0017990573 -9.1877166e-22 5.4221855e-39)
(0.013092001 -0.0052543753 -3.3925482e-21 0.0021568016 1.4182918e-21 8.5322332e-39)
(0.0142742 -0.0057889271 1.0841473e-22 0.0024304063 -3.5481459e-23 8.133182e-40)
(0.014496486 -0.0060406408 1.8790187e-22 0.0026449519 -8.3969544e-23 6.711494e-42)
(0.013902968 -0.0060575907 2.644581e-21 0.0028236829 -1.2719181e-21 3.0250212e-39)
(0.012692814 -0.0058849563 3.5117724e-22 0.0029825269 -1.806627e-22 2.6757052e-41)
(0.011086848 -0.0055624243 -9.2514836e-22 0.0031301485 5.5278106e-22 1.6462897e-39)
(0.0092982476 -0.0051250707 2.9507012e-21 0.0032692148 -1.9469844e-21 1.14176e-38)
(0.0075094992 -0.0046049901 -2.1433208e-21 0.0033977413 1.4963307e-21 9.2110062e-40)
(0.0058576113 -0.0040325967 -3.9281439e-21 0.0035105707 3.3026499e-21 6.6494841e-39)
(0.0044286571 -0.0034369655 -1.2689265e-22 0.0036009419 1.2737282e-22 1.4254838e-41)
(0.0032609179 -0.0028451297 1.3168955e-21 0.0036620254 -1.6447083e-21 5.5904166e-39)
(0.0023542467 -0.0022807114 0 0.0036882868 0 0)
(0.0016824742 -0.0017624611 1.6999413e-22 0.0036763703 -2.6703277e-22 1.4591404e-40)
(0.0012057947 -0.0013033121 -7.1029016e-23 0.003625125 1.9463063e-22 2.187577e-40)
(0.00088048584 -0.0009102154 -8.1732755e-23 0.0035380636 2.0131877e-22 5.6006704e-41)
(0.00066540822 -0.00058418285 2.502548e-23 0.0034321248 -1.7794315e-22 3.9542843e-40)
(0.0009210923 -0.00028879331 1.3738123e-21 9.2135661e-05 -3.5367826e-22 6.9264138e-39)
(0.0046792782 -0.0015771659 1.3179077e-22 0.00053292551 -4.3348358e-23 1.2748011e-41)
(0.0084754276 -0.0028455403 -3.7456135e-22 0.00096242147 1.2735879e-22 5.6331895e-41)
(0.011530472 -0.0038460435 3.5219209e-22 0.0013036859 -1.1636176e-22 1.1189025e-39)
(0.013469239 -0.0045568012 -2.3132353e-21 0.0015856129 8.2453374e-22 2.0902922e-39)
(0.014255307 -0.0049900203 -1.0930934e-21 0.0018244316 4.0759953e-22 1.8570759e-40)
(0.014028156 -0.0051835331 7.3256363e-22 0.0020382788 -2.2980865e-22 5.988519e-39)
(0.013016836 -0.0051787811 -3.1670166e-23 0.0022414003 3.486585e-23 4.6893029e-40)
(0.011485826 -0.0050121177 -1.7642311e-21 0.0024410176 9.2268656e-22 4.9331621e-39)
(0.0096929265 -0.0047153429 3.0128873e-21 0.0026378785 -1.6518493e-21 1.3565882e-39)
(0.0078582011 -0.0043182559 -6.2639308e-23 0.0028276427 1.2007332e-22 2.5752841e-39)
(0.0061454555 -0.0038505493 -2.2846417e-21 0.0030024895 1.7985375e-21 6.9637469e-39)
(0.0046565088 -0.0033421896 0 0.0031529641 0 0)
(0.0034364314 -0.0028222454 5.1076755e-22 0.003269882 -6.6595005e-22 3.7868535e-39)
(0.0024860796 -0.0023167881 1.8629299e-23 0.0033460078 -6.088929e-23 2.0833851e-40)
(0.0017775322 -0.0018467683 -5.9713311e-22 0.0033772535 1.0976369e-21 4.3540902e-39)
(0.0012686434 -0.0014266107 -1.3561092e-22 0.003363071 2.8107879e-22 8.7399915e-41)
(0.00091432013 -0.0010639685 -3.4973318e-23 0.0033058424 1.2806755e-22 1.473391e-40)
(0.00067334704 -0.00076067093 -4.9255879e-23 0.0032126789 1.7217276e-22 5.5400367e-41)
(0.00051133614 -0.00051349295 8.0346207e-23 0.0031030622 -4.1765507e-22 5.372235e-40)
(0.0010330834 -0.00024557512 5.3186154e-22 5.9416032e-05 -1.0236158e-22 1.0970351e-39)
(0.005034458 -0.0013054108 -3.7738603e-21 0.00033955462 9.5047764e-22 2.384872e-38)
(0.0089193234 -0.002337529 -3.5816152e-22 0.0006186402 1.0017952e-22 2.2267371e-39)
(0.011823513 -0.0031502324 -1.0319283e-21 0.0008577022 3.0268635e-22 1.1203181e-38)
(0.013436695 -0.0037346366 -7.0578699e-22 0.0010778904 2.0076229e-22 1.5232273e-40)
(0.013813992 -0.0041033098 -3.9963229e-21 0.001290984 1.2756807e-21 1.9822668e-39)
(0.013188473 -0.0042829573 -1.9377834e-21 0.0015074293 7.0890742e-22 1.635303e-39)
(0.011864126 -0.0042996603 3.6769127e-21 0.0017327676 -1.4474889e-21 1.2335417e-39)
(0.010149373 -0.0041761432 6.1792754e-22 0.0019660894 -3.3975207e-22 1.6937209e-39)
(0.0083122857 -0.0039350694 -7.8877924e-22 0.0022008259 3.7468588e-22 5.7277321e-40)
(0.0065547959 -0.0036019097 3.759245e-22 0.0024263515 -1.3833073e-22 2.1773799e-39)
(0.0050046727 -0.0032054496 -5.8423548e-23 0.0026300636 9.7558771e-23 5.5187474e-40)
(0.0037218996 -0.0027759951 0 0.0027997216 0 0)
(0.0027141345 -0.0023422444 3.6069046e-22 0.0029255893 -4.1147144e-22 1.2353532e-40)
(0.0019554024 -0.0019281506 -7.4249364e-22 0.0030019321 1.0873701e-21 1.7464644e-39)
(0.0014032381 -0.0015508401 -2.3759009e-22 0.0030276158 4.0939979e-22 1.4559654e-40)
(0.0010115353 -0.0012200267 3.882696e-22 0.0030056748 -9.1536092e-22 2.1123127e-39)
(0.00073840327 -0.00093883862 -9.9809468e-23 0.0029419831 1.3387326e-22 4.6599751e-40)
(0.00054952913 -0.00070573941 -9.0051159e-24 0.0028460062 -1.1313704e-23 5.2408954e-41)
(0.00041836048 -0.00051594843 8.648634e-23 0.0027359197 -3.0044635e-22 3.8614155e-41)
(0.0011268145 -0.00018601999 3.8914936e-22 3.1313556e-05 -5.1152095e-23 6.8680647e-40)
(0.0052551761 -0.00096703204 -3.4542806e-21 0.00017880718 6.2409543e-22 1.0916172e-38)
(0.0091039292 -0.0017384687 -2.7028219e-21 0.00033703605 5.3923206e-22 1.3087887e-38)
(0.011764522 -0.0023711909 3.7446317e-21 0.00049389458 -7.9627764e-22 3.1664228e-39)
(0.013016633 -0.0028587377 2.7712271e-21 0.00066355366 -6.4071425e-22 6.3387871e-40)
(0.013015981 -0.0032014732 -1.972821e-21 0.000853621 4.4928533e-22 6.9237245e-39)
(0.012080691 -0.0034044791 6.5598764e-22 0.0010683283 -2.6139637e-22 2.9421921e-39)
(0.010568113 -0.0034727361 3.7198702e-21 0.0013063125 -1.3868176e-21 3.1832497e-39)
(0.0088031782 -0.0034141164 1.6058158e-21 0.0015599133 -6.6418668e-22 3.8524966e-40)
(0.0070386364 -0.0032437151 -1.5484158e-21 0.0018162813 8.4297325e-22 1.0341969e-39)
(0.005440776 -0.0029849434 -2.0688179e-21 0.0020595878 1.3166779e-21 1.175752e-39)
(0.0040948771 -0.0026670842 -5.5426064e-23 0.0022738748 4.304162e-23 1.2215596e-42)
(0.0030228763 -0.0023207843 5.7442879e-22 0.0024458783 -5.4340358e-22 1.8891628e-40)
(0.0022054352 -0.0019734009 -1.1898192e-23 0.0025670893 7.2111437e-23 3.1802856e-40)
(0.0016022596 -0.0016457322 -7.3381665e-24 0.0026346132 1.1578006e-22 8.6070315e-40)
(0.0011672386 -0.0013507842 -3.4872506e-24 0.0026508084 -1.4931514e-22 1.5547793e-39)
(0.00085762174 -0.0010943446 1.8069916e-22 0.0026219392 -4.1655501e-22 4.4174155e-40)
(0.00063821837 -0.0008767148 -8.9658388e-23 0.0025563222 3.4770105e-22 1.1784832e-39)
(0.00048215405 -0.00069505249 -2.4497425e-22 0.0024641772 8.2980229e-22 2.2350073e-39)
(0.00036957428 -0.00054487633 8.8794168e-23 0.002360317 -2.3934358e-22 4.4915777e-41)
(0.0011970571 -0.00011361829 -9.9119263e-22 1.1077673e-05 8.2458216e-23 2.0480999e-39)
(0.0053268467 -0.00058733046 -7.1275287e-22 6.5456605e-05 7.7781859e-23 2.1943722e-39)
(0.0090208952 -0.00109643 5.8485256e-21 0.00013741901 -7.5162076e-22 2.6983505e-38)
(0.011371526 -0.001571801 4.2536025e-21 0.00023094462 -6.3103609e-22 2.8886848e-39)
(0.012265006 -0.0019961886 1.8559793e-21 0.00035651066 -3.0128375e-22 1.4306915e-39)
(0.011952652 -0.0023455917 3.7221773e-22 0.0005203277 -7.9380031e-23 1.312042e-41)
(0.01081662 -0.0025963853 -3.4243167e-21 0.0007236248 7.9174809e-22 5.9633989e-39)
(0.0092393085 -0.0027309509 0 0.00096064991 0 0)
(0.0075353322 -0.0027444107 -2.0357467e-21 0.0012185375 9.4234901e-22 4.9567589e-39)
(0.0059235154 -0.0026474243 -3.3949475e-22 0.001479274 2.4621719e-22 1.1352006e-39)
(0.0045272561 -0.0024635367 9.6835391e-22 0.0017230869 -5.9843754e-22 2.4636449e-40)
(0.0033925466 -0.0022230368 9.4607222e-23 0.0019322415 -1.4456157e-22 6.2543067e-40)
(0.0025131216 -0.0019561663 -4.3975801e-22 0.0020940859 4.7507729e-22 7.1215228e-40)
(0.0018544797 -0.0016879441 -3.182035e-22 0.0022025559 4.762322e-22 1.5429918e-39)
(0.0013721585 -0.001435653 2.1658498e-22 0.002258012 -2.2942221e-22 1.856887e-40)
(0.0010230617 -0.0012088089 2.9222655e-22 0.0022658209 -4.0143391e-22 1.5954878e-40)
(0.00077088373 -0.0010107062 -2.5073398e-22 0.002234314 4.5755871e-22 1.4199679e-40)
(0.00058759057 -0.00084057255 -3.1799085e-22 0.0021727823 7.9409553e-22 1.8600379e-39)
(0.00045273336 -0.00069576424 3.1586831e-23 0.0020907881 -3.452553e-24 2.265639e-40)
(0.0003516296 -0.00057288715 3.7709649e-23 0.0019990692 -1.6653241e-22 2.6397775e-40)
(0.0012399727 -3.2928465e-05 -6.5559714e-22 1.0056023e-06 1.6736289e-23 1.0029116e-39)
(0.0052464004 -0.00019495681 2.7467066e-21 7.8338958e-06 -9.9805871e-23 5.5446767e-39)
(0.0086834416 -0.0004613663 4.2032167e-21 2.7876814e-05 -2.6408009e-22 4.0372012e-38)
(0.010690149 -0.00081172976 -4.7771839e-21 7.3264758e-05 4.3007931e-22 1.1037839e-38)
(0.011261636 -0.00120418 1.6828728e-21 0.00015659003 -1.9503088e-22 2.6290641e-40)
(0.01072581 -0.0015816615 6.4785781e-22 0.00028729264 1.0938361e-23 1.0264743e-38)
(0.0095000187 -0.0018897959 1.761818e-22 0.00046742973 -3.7956309e-23 3.376962e-42)
(0.0079631671 -0.0020910611 -2.4645485e-21 0.00068921132 5.9899457e-22 3.3750858e-39)
(0.0063989651 -0.0021720967 -5.5183626e-23 0.00093586648 2.0337999e-23 4.9351041e-43)
(0.0049833199 -0.0021424323 8.8896369e-22 0.0011853345 -5.0263122e-22 1.2962639e-39)
(0.0037986147 -0.0020270006 6.6250938e-23 0.0014153005 -7.8591003e-23 1.8860495e-40)
(0.002860485 -0.0018566524 -3.257191e-22 0.0016077885 7.7899079e-23 2.4398524e-39)
(0.0021456775 -0.0016602069 -6.8706718e-22 0.0017519443 5.9870708e-22 2.321443e-40)
(0.0016142463 -0.0014597819 1.7187258e-24 0.0018445599 6.144409e-23 3.1822523e-40)
(0.001223959 -0.0012694861 2.2154646e-22 0.0018887643 -3.2378261e-22 3.0027153e-40)
(0.00093773581 -0.0010964401 1.4361434e-22 0.0018917718 -2.5889387e-22 2.9466594e-40)
(0.00072624079 -0.00094282332 2.6167257e-23 0.0018625558 -1.2504645e-22 4.8740393e-40)
(0.0005677821 -0.00080799221 -2.3758486e-22 0.0018100636 3.4902114e-22 3.7126544e-40)
(0.00044703223 -0.00069019255 -6.05123e-23 0.0017423087 -4.348583e-23 1.6755669e-39)
(0.00035315576 -0.00058711612 1.0760799e-22 0.0016661381 -4.3213068e-22 2.740272e-39)
(8.5812694e-06 -1.0679221e-06 8.5922836e-23 1.3078254e-06 -1.72224e-23 9.8068889e-40)
(4.0489793e-05 -1.6947933e-05 -1.2252306e-22 8.7060637e-06 3.3949188e-23 9.4442341e-40)
(9.0694835e-05 -3.9175526e-05 2.7227186e-22 1.7344953e-05 -1.0168211e-22 5.4192428e-39)
(0.00029072125 -8.2591758e-05 7.5864329e-22 2.4823783e-05 -1.6107523e-22 1.8234234e-38)
(0.00063746687 -0.00013599653 -5.405802e-22 3.1474045e-05 9.1364241e-23 4.7391301e-39)
(0.0011377596 -0.00019544234 6.7990085e-22 3.7292455e-05 -9.1334306e-23 5.2371679e-39)
(0.001806703 -0.00025872676 -9.2833094e-22 4.2288343e-05 1.1608954e-22 5.7425703e-39)
(0.0026470483 -0.00032367116 -9.5514264e-22 4.6576865e-05 9.8018581e-23 6.0775666e-39)
(0.0036529521 -0.00038851008 1.1918888e-21 5.0283371e-05 -1.208673e-22 6.4140106e-39)
(0.0048156517 -0.00045193847 -9.1859035e-22 5.3507689e-05 8.7493199e-23 3.2645278e-39)
(0.0061245946 -0.0005129738 -4.7179427e-23 5.6327171e-05 7.6921656e-25 3.8127901e-41)
(0.0075676258 -0.00057085789 2.5753596e-22 5.8802012e-05 -2.6865785e-23 1.1888999e-40)
(0.0091314998 -0.00062499739 -4.5282635e-23 6.0978995e-05 2.0423084e-24 1.9123109e-41)
(0.010802349 -0.00067492611 1.3758996e-21 6.2895941e-05 -1.2024402e-22 5.6994261e-39)
(0.012565968 -0.00072029184 3.5310582e-24 6.4587295e-05 2.6320408e-24 1.2397661e-41)
(0.014408098 -0.0007608758 -1.9496022e-21 6.6089936e-05 1.8033505e-22 1.1696321e-38)
(0.01631481 -0.00079661208 3.5138161e-22 6.7442951e-05 -3.7454707e-23 2.4473793e-40)
(0.01827256 -0.00082750739 8.3172916e-22 6.8676473e-05 -8.379638e-23 2.9737437e-39)
(0.020267824 -0.00085375424 -1.2984081e-21 6.9820279e-05 1.4418993e-22 8.4201694e-39)
(0.022285833 -0.00087674978 -6.8449546e-22 7.0881696e-05 8.4084872e-23 3.1627192e-39)
(9.7203765e-06 -4.4758446e-06 2.8198063e-23 1.1514243e-05 -1.0324684e-23 9.6348616e-41)
(5.1619715e-05 -5.8075948e-05 -7.7574019e-22 7.671987e-05 5.8491186e-22 3.1583324e-38)
(0.00011582673 -0.00013181533 1.5404694e-22 0.00015276729 -1.276346e-22 2.850715e-39)
(0.00034179178 -0.00026712057 8.1437009e-22 0.00021861116 -4.9799942e-22 1.5227183e-38)
(0.00071811431 -0.00043102537 1.1285525e-21 0.0002770238 -5.3868945e-22 1.7217817e-38)
(0.0012488803 -0.00061190782 1.3602107e-22 0.00032790317 -5.4017912e-23 1.6168949e-40)
(0.0019469433 -0.00080319633 -3.6023163e-21 0.0003713511 1.231734e-21 8.6065833e-38)
(0.0028124408 -0.00099846269 -1.248022e-22 0.00040839251 5.1036459e-23 2.4319989e-41)
(0.0038371963 -0.0011925399 2.0103971e-21 0.00044013197 -6.0024718e-22 1.4652167e-38)
(0.0050103316 -0.0013816161 -4.8237712e-22 0.0004674507 1.3016907e-22 8.1498791e-40)
(0.0063192372 -0.0015628219 -1.8120312e-21 0.00049103205 4.8502658e-22 9.0230638e-39)
(0.0077497248 -0.0017339427 3.7818372e-22 0.00051140549 -9.4203228e-23 4.1103144e-40)
(0.0092865265 -0.0018932448 1.5872907e-21 0.00052897818 -3.4326334e-22 9.702192e-39)
(0.010913727 -0.002039361 6.4346034e-22 0.00054407314 -1.563181e-22 1.1041555e-39)
(0.01261499 -0.0021712458 1.2618336e-21 0.00055697683 -3.3217576e-22 3.178561e-39)
(0.014373853 -0.0022882276 -9.8302177e-22 0.00056798833 2.446262e-22 2.6975656e-39)
(0.016174437 -0.0023900863 -9.2054037e-22 0.00057742787 2.2818038e-22 2.9531465e-39)
(0.018001274 -0.0024768101 9.0200918e-22 0.00058556231 -2.6246492e-22 1.6917829e-39)
(0.019834859 -0.0025489886 7.9302902e-22 0.00059269493 -2.2794857e-22 2.9801858e-39)
(0.021651131 -0.0026117263 2.8856495e-22 0.00059898703 -8.1020164e-23 1.2723518e-39)
(1.249911e-05 -1.1478336e-05 2.1699145e-23 3.0732089e-05 -1.0751113e-23 5.0597096e-41)
(7.800589e-05 -0.00012000196 5.8887034e-22 0.00020478359 -6.3038624e-22 1.3459386e-38)
(0.00017415213 -0.00026486666 -1.2861439e-22 0.0004072886 1.6565285e-22 7.0462149e-40)
(0.00045402775 -0.00050612179 -8.8360649e-22 0.00058243372 7.4237297e-22 1.6683275e-38)
(0.00089089676 -0.00079074203 3.2158563e-22 0.00073720858 -2.6893122e-22 4.6718236e-40)
(0.0014833425 -0.0010999105 4.2112599e-22 0.0008710456 -3.4115958e-22 2.3726989e-40)
(0.0022397402 -0.0014228073 -5.2981531e-22 0.00098422112 2.7824788e-22 1.4838262e-39)
(0.0031553348 -0.0017490831 -1.362474e-21 0.0010794804 7.8848647e-22 2.9241259e-39)
(0.0042175677 -0.0020705134 5.9547473e-22 0.0011597701 -2.8586365e-22 8.2494185e-40)
(0.0054115642 -0.0023810384 1.2608528e-21 0.0012274579 -5.1549464e-22 4.6986029e-39)
(0.0067208619 -0.0026760892 3.3320355e-22 0.0012843913 -2.3557875e-22 1.7184263e-40)
(0.0081275082 -0.0029521332 1.5236959e-21 0.0013320001 -4.9258207e-22 8.732447e-39)
(0.0096125297 -0.0032063939 1.2676224e-22 0.0013713736 -4.6094926e-23 3.607441e-41)
(0.011156316 -0.0034366599 -2.2012107e-21 0.001403353 7.2581814e-22 1.4011436e-38)
(0.012738776 -0.0036412047 1.5078645e-22 0.0014286584 -1.0558106e-22 7.7142142e-41)
(0.014339654 -0.0038188726 -1.0053802e-21 0.001448021 2.6836966e-22 5.4712544e-39)
(0.015939857 -0.0039692455 -1.3674065e-21 0.0014622188 5.4779264e-22 2.2134526e-39)
(0.017521049 -0.0040922772 2.1748194e-21 0.0014720237 -8.6352302e-22 7.3687802e-39)
(0.019054468 -0.0041889985 1.1160623e-21 0.0014786641 -4.8100868e-22 1.4866986e-39)
(0.020502285 -0.0042699439 2.2656755e-22 0.0014832966 -1.0899932e-22 3.1657732e-41)
(1.8420703e-05 -2.3765468e-05 -3.2628918e-23 5.6633947e-05 4.1201414e-23 7.3289209e-41)
(0.00012777958 -0.00021296509 -1.3622207e-21 0.0003776725 1.7234587e-21 4.4617901e-38)
(0.00028197728 -0.00045814924 -9.9533633e-23 0.00075009949 1.2789549e-22 6.104698e-40)
(0.00065020956 -0.00082560237 2.2569071e-22 0.0010714397 -2.4990808e-22 3.8703866e-40)
(0.0011843318 -0.0012449064 -3.7933009e-23 0.0013538447 1.0514362e-23 1.0045082e-40)
(0.0018748321 -0.0016904982 1.1458223e-21 0.0015955735 -8.3699096e-22 7.3228064e-39)
(0.0027233439 -0.0021473937 1.259952e-21 0.0017970731 -8.1846915e-22 6.649268e-39)
(0.0037180419 -0.0026018134 -3.8362627e-22 0.0019634421 1.83677e-22 1.0498699e-39)
(0.0048400466 -0.0030429847 -1.3852558e-21 0.0021001672 7.1607958e-22 6.6630463e-39)
(0.0060687142 -0.0034629807 -2.7533365e-21 0.0022117157 1.472593e-21 1.4075871e-38)
(0.0073820879 -0.0038558165 -6.792186e-23 0.0023016204 -3.1048095e-23 3.2325565e-40)
(0.0087569592 -0.0042168644 3.4492721e-21 0.0023726406 -1.5877371e-21 2.3020022e-38)
(0.010169306 -0.0045424748 -1.3961353e-21 0.0024268815 5.1990787e-22 6.8263617e-39)
(0.011594701 -0.004829746 -8.8253104e-22 0.0024659642 3.8252089e-22 1.3411593e-39)
(0.013008432 -0.0050763929 -9.4836263e-23 0.0024912316 1.2032215e-22 2.909905e-40)
(0.014385876 -0.0052808422 2.0283483e-21 0.0025039731 -8.8934892e-22 5.4811029e-39)
(0.015704548 -0.0054425475 -1.1231955e-21 0.0025055157 5.7675031e-22 3.5043646e-40)
(0.016943892 -0.0055616985 -2.5465537e-21 0.0024974404 1.0816453e-21 1.1815264e-38)
(0.018066392 -0.0056400714 1.6538706e-21 0.0024833058 -7.3768486e-22 5.9357881e-39)
(0.019020642 -0.0056943766 1.4292892e-21 0.0024677063 -5.8290039e-22 5.5391806e-39)
(2.9462509e-05 -4.2341625e-05 1.4620387e-22 8.6366482e-05 -1.421315e-22 9.6174912e-40)
(0.00021171478 -0.00034280092 4.882582e-23 0.0005760166 -1.3829817e-23 4.3031232e-40)
(0.0004606885 -0.00072266852 -1.8604623e-21 0.0011414341 2.6705031e-21 3.6509302e-38)
(0.00095953972 -0.0012391356 -1.0686689e-21 0.0016272614 1.1360046e-21 1.1323883e-38)
(0.0016334829 -0.0018073514 7.1740123e-22 0.0020509526 -5.708131e-22 6.8519182e-39)
(0.0024621889 -0.002395144 8.7769492e-22 0.0024087964 -7.0687444e-22 3.2211632e-39)
(0.0034380057 -0.0029833845 -1.144283e-21 0.002701463 7.4467817e-22 7.5478444e-39)
(0.0045397833 -0.0035554972 -1.7380031e-21 0.0029369115 9.9139586e-22 1.6563579e-38)
(0.0057403687 -0.0040988531 2.5327459e-21 0.0031237414 -1.5057761e-21 1.6963172e-38)
(0.0070116239 -0.0046042355 7.3493382e-22 0.0032690854 -2.9258519e-22 3.9577299e-39)
(0.0083246025 -0.0050647401 -2.2093923e-21 0.0033787092 1.4754595e-21 1.2509073e-39)
(0.0096496691 -0.005475111 9.8348133e-22 0.0034572135 -4.40659e-22 3.0424367e-39)
(0.010957045 -0.0058313117 0 0.0035081919 0 0)
(0.012217285 -0.0061302382 9.2907058e-22 0.0035344449 -4.5137734e-22 1.1853508e-39)
(0.013401517 -0.0063695617 -6.886151e-22 0.0035382599 3.2687075e-22 6.3258262e-40)
(0.014481983 -0.0065478099 -1.0374632e-21 0.0035217058 5.2320474e-22 7.6187651e-40)
(0.0154349 -0.0066648134 3.6685093e-22 0.0034867136 -3.246226e-22 1.0857118e-39)
(0.016240995 -0.0067217285 -3.0104382e-22 0.003435712 1.8875783e-22 3.8106077e-41)
(0.016859231 -0.0067219689 1.4040511e-21 0.0033760843 -6.1269714e-22 6.4218055e-39)
(0.017227383 -0.0066875814 -1.159704e-21 0.0033203745 5.8653347e-22 3.5984822e-40)
(4.7896927e-05 -6.7493151e-05 1.403686e-22 0.0001170606 -1.1803033e-22 7.7196237e-40)
(0.00034184173 -0.0005102999 6.6892274e-22 0.00077936569 -8.9226311e-22 2.8512959e-39)
(0.00073361485 -0.0010588503 -8.9676262e-22 0.0015387017 1.1930547e-21 6.8634931e-39)
(0.0014123633 -0.0017448211 -1.4549524e-21 0.0021868939 1.6444928e-21 5.7077221e-39)
(0.0022718974 -0.0024717635 -3.9918426e-22 0.0027463187 6.1070863e-22 4.5178087e-39)
(0.00327781 -0.0032007342 -1.3045002e-21 0.003210879 1.1507446e-21 2.8118256e-39)
(0.0044101747 -0.0039085551 -6.1899312e-22 0.0035818389 3.8027603e-22 3.2696321e-39)
(0.0056361879 -0.0045767317 1.0590426e-21 0.0038705212 -6.3496381e-22 6.0288606e-39)
(0.0069185617 -0.0051917775 2.499073e-21 0.0040891715 -1.4855913e-21 2.0626419e-38)
(0.008220221 -0.0057441553 7.5728369e-22 0.0042481821 -4.6682912e-22 8.6263718e-40)
(0.0095044398 -0.0062270398 -7.1861716e-22 0.0043561656 3.798487e-22 1.3714817e-39)
(0.010735077 -0.0066355717 -1.463552e-22 0.0044201774 -2.8645297e-23 1.1966841e-39)
(0.011877384 -0.006966405 -3.3263143e-21 0.0044458927 1.8277515e-21 1.1315902e-38)
(0.01289879 -0.0072174091 -1.0223633e-21 0.0044378521 5.3682944e-22 1.1708662e-39)
(0.013769433 -0.0073874879 1.679146e-21 0.0043997746 -9.9047308e-22 5.3391333e-40)
(0.014462933 -0.0074765892 -1.6593005e-21 0.0043348581 9.1228623e-22 1.1405683e-39)
(0.014959876 -0.0074861106 -5.7970043e-22 0.0042456904 2.8833612e-22 3.6960578e-40)
(0.015249563 -0.0074193105 1.2802755e-21 0.0041350625 -5.348539e-22 5.777361e-39)
(0.015298047 -0.0072825559 1.8896777e-21 0.0040143968 -9.6711547e-22 4.3447014e-39)
(0.015037768 -0.0071010243 2.3268318e-22 0.0039093138 -1.1019296e-22 8.4954632e-41)
(7.6112255e-05 -9.8809194e-05 -3.9611118e-22 0.00014608696 3.2177732e-22 4.5685593e-39)
(0.00052993126 -0.00071113642 -4.4076906e-22 0.00096835537 4.4730376e-22 3.6411842e-39)
(0.0011223196 -0.0014560062 1.0705649e-21 0.0019014901 -1.3643742e-21 1.5798041e-39)
(0.0020340696 -0.0023241691 1.65235e-21 0.0026906566 -1.718681e-21 7.6073399e-39)
(0.0031229198 -0.0032102218 2.1589382e-23 0.0033625743 -1.9501808e-23 1.5142944e-42)
(0.0043364139 -0.0040683288 -4.4578885e-21 0.0039091241 3.6923318e-21 4.4516161e-38)
(0.0056391 -0.0048717721 -1.7060722e-21 0.0043330461 1.4771965e-21 6.0648724e-40)
(0.0069844588 -0.0056014864 1.3479691e-21 0.0046496652 -9.1115803e-22 4.8904177e-39)
(0.0083240264 -0.0062447111 1.5236097e-21 0.0048754049 -1.0287531e-21 2.9833783e-39)
(0.0096117102 -0.0067932265 -1.5011127e-21 0.0050244766 8.346794e-22 8.2139346e-39)
(0.010803973 -0.0072419709 -4.2986741e-21 0.0051089237 2.738756e-21 1.1875033e-38)
(0.011860498 -0.0075882544 2.8017957e-21 0.0051388247 -1.7159073e-21 4.8790232e-39)
(0.012745432 -0.0078312838 1.6655986e-21 0.005122484 -8.7022415e-22 5.8872088e-39)
(0.013428582 -0.0079718526 -2.2699202e-21 0.0050666916 1.265531e-21 4.8365027e-39)
(0.013886323 -0.0080121198 9.8253776e-22 0.0049770314 -5.7804163e-22 3.1924219e-40)
(0.014102445 -0.0079554676 1.6166962e-21 0.0048581236 -8.4113203e-22 3.6064088e-39)
(0.014071551 -0.0078066006 6.0699595e-22 0.0047132064 -3.5065423e-22 1.2017971e-40)
(0.013801678 -0.0075720521 -1.0292568e-21 0.0045445165 6.6112358e-22 1.4600823e-40)
(0.013279739 -0.0072618902 -2.2637434e-22 0.0043655902 6.662843e-23 8.9739784e-40)
(0.012442533 -0.0069008741 1.3295983e-21 0.004217839 -7.9447272e-22 3.4513723e-40)
(0.00011642119 -0.00013520394 -1.2726445e-23 0.00017112497 -1.1429177e-23 8.272513e-41)
(0.00078586581 -0.00093610329 -1.5784524e-21 0.0011259701 1.6708924e-21 1.1943451e-38)
(0.001642655 -0.0018929446 -1.2690887e-21 0.0021950834 1.3622397e-21 1.8114142e-38)
(0.002838861 -0.0029432249 2.3282121e-21 0.0030883047 -2.2416171e-21 1.0541343e-38)
(0.0041915181 -0.0039752486 1.8849814e-21 0.0038361133 -1.8767389e-21 4.4204596e-39)
(0.0056257562 -0.004936778 1.6208528e-21 0.0044296723 -1.3503519e-21 1.7440892e-39)
(0.0070877792 -0.0057989367 -1.4067486e-22 0.0048745897 1.7915265e-22 8.2770821e-40)
(0.0085167373 -0.0065442287 -1.4873988e-21 0.0051908426 1.0103933e-21 4.7686337e-39)