/*--------------------------------*- C++ -*----------------------------------*\
  =========                 |
  \\      /  F ield         | OpenFOAM: The Open Source CFD Toolbox
   \\    /   O peration     | Website:  https://openfoam.org
    \\  /    A nd           | Version:  6
     \\/     M anipulation  |
\*---------------------------------------------------------------------------*/
FoamFile
{
    version     2.0;
    format      ascii;
    class       volVectorField;
    location    "237";
    object      U_0;
}
// * * * * * * * * * * * * * * * * * * * * * * * * * * * * * * * * * * * * * //

dimensions      [0 1 -1 0 0 0 0];

internalField   nonuniform List<vector> 
9200
(
(0.0010393461 0.0014199822 -5.9201841e-20)
(0.013676067 -0.0020583665 4.6042531e-20)
(0.038313166 -0.0058665677 -3.8501736e-20)
(0.072274436 -0.0097635046 -6.0257747e-20)
(0.11376474 -0.013490028 1.8826964e-20)
(0.16158089 -0.016605657 3.2743878e-20)
(0.21467148 -0.018817284 -1.2268008e-20)
(0.27206607 -0.019973889 9.2688617e-21)
(0.33285622 -0.020011221 1.6803425e-20)
(0.39616347 -0.018929049 1.4848072e-21)
(0.46111555 -0.016779812 -2.1456336e-20)
(0.52683686 -0.013657727 2.0670004e-20)
(0.59245067 -0.009687992 -4.042215e-20)
(0.6570913 -0.0050157688 -2.1133902e-20)
(0.7199247 0.00020557092 5.9046527e-21)
(0.780175 0.0058241064 -2.5131673e-20)
(0.83717058 0.011712826 2.5217111e-20)
(0.89046875 0.017918527 2.2243176e-20)
(0.93967069 0.024573429 -2.9930204e-22)
(0.98205185 0.028293399 -1.6691938e-21)
(0.0052521802 -0.0013462729 -1.7059352e-20)
(0.026962501 -0.0089890258 3.9747708e-20)
(0.061670115 -0.014809763 2.3576296e-20)
(0.10629489 -0.019172267 -1.1569757e-19)
(0.15873565 -0.022213993 -1.2727088e-20)
(0.21753351 -0.023720681 7.3297075e-20)
(0.28137295 -0.023595091 -3.5476398e-20)
(0.349006 -0.021868959 -8.3905564e-21)
(0.41923919 -0.018645517 3.4287539e-20)
(0.49090943 -0.014080833 -4.3259577e-20)
(0.56287231 -0.0083759414 -3.0338479e-20)
(0.63400846 -0.0017665838 7.1921429e-20)
(0.70324328 0.0054884062 3.8294048e-20)
(0.7695758 0.013118645 -6.7976555e-20)
(0.83211244 0.020852096 1.4623689e-20)
(0.89010035 0.028419719 -3.6733396e-20)
(0.94296915 0.035569688 -1.3777191e-20)
(0.99043229 0.042140901 7.0974744e-20)
(1.032356 0.047715323 2.9641972e-20)
(1.0669348 0.049139704 -8.3478335e-20)
(0.010858426 -0.0040424156 3.6773457e-20)
(0.043953412 -0.015431076 2.5047369e-21)
(0.090515433 -0.022552281 2.2341712e-20)
(0.14711139 -0.026497356 9.8116819e-22)
(0.21134254 -0.027886294 -4.0773937e-20)
(0.28146767 -0.026795111 1.8576402e-20)
(0.35587039 -0.023382724 1.34203e-20)
(0.43299006 -0.017921532 -5.0327701e-20)
(0.51132476 -0.010735645 5.7261856e-20)
(0.58942612 -0.0021838745 1.4256686e-20)
(0.66590914 0.0073479116 -5.4300706e-20)
(0.73948034 0.017460269 -1.8237401e-20)
(0.80897596 0.027756569 9.059164e-21)
(0.87340262 0.037859278 2.3444736e-20)
(0.9319736 0.047424049 -1.1362504e-20)
(0.98413366 0.056148978 2.7877727e-20)
(1.029574 0.063789178 -2.0188235e-20)
(1.0682645 0.070204396 -7.012359e-20)
(1.1003321 0.075119381 -2.3796294e-20)
(1.1249112 0.076641241 4.8659882e-20)
(0.017957214 -0.0064221631 2.4508015e-20)
(0.064776994 -0.020694799 5.1039222e-20)
(0.12485228 -0.028060845 1.9881694e-20)
(0.19446965 -0.030464063 1.2990095e-20)
(0.27094931 -0.029094839 1.7275702e-20)
(0.35224879 -0.024388975 -4.7720169e-20)
(0.43643138 -0.016825969 -2.5646855e-20)
(0.52162007 -0.0069766666 0)
(0.60602894 0.0045670359 1.3920614e-20)
(0.68798705 0.017211735 -5.8523375e-21)
(0.76597516 0.030373925 -9.793494e-20)
(0.83867445 0.043499636 -1.5774818e-20)
(0.90501524 0.05608662 6.5103192e-20)
(0.96421568 0.067704139 4.8442887e-22)
(1.0158035 0.078007718 -1.5725566e-21)
(1.0596155 0.086746796 2.1957495e-20)
(1.0957773 0.093772232 -5.2647193e-21)
(1.12468 0.099065338 -6.1029743e-20)
(1.1468647 0.10259708 -4.5851272e-20)
(1.1622957 0.10341386 6.9520592e-20)
(0.02657942 -0.0082056878 -3.9194204e-21)
(0.089344018 -0.024033505 -5.1256323e-21)
(0.16430753 -0.030264987 5.6599407e-20)
(0.24758119 -0.029810017 1.8539323e-20)
(0.3362416 -0.024513025 -3.1955065e-20)
(0.42795125 -0.015239857 1.2163839e-20)
(0.52047261 -0.0028513596 2.6402861e-21)
(0.61166356 0.011737098 3.3609167e-20)
(0.6995471 0.027640145 5.6599501e-21)
(0.78236836 0.044028772 -1.3204738e-20)
(0.85865405 0.060147728 6.0154032e-20)
(0.9272691 0.075340474 -5.8009354e-20)
(0.98745675 0.089072865 -1.3216612e-19)
(1.0388531 0.10094902 -5.5773032e-21)
(1.0814725 0.11071709 8.315077e-20)
(1.1156655 0.11826405 0)
(1.1420548 0.12360583 1.0118961e-20)
(1.1614668 0.12689057 -1.5459771e-20)
(1.1748179 0.12829871 -8.5994629e-21)
(1.1826673 0.12744916 2.099223e-20)
(0.036666908 -0.0090895794 -5.4309129e-21)
(0.11731511 -0.024685356 4.3578744e-21)
(0.20811868 -0.028140177 -8.7629836e-21)
(0.30515702 -0.023414952 2.8472394e-20)
(0.40533539 -0.013075589 -2.9392663e-20)
(0.50607146 0.0015226179 -1.6927022e-20)
(0.60490489 0.019095143 3.7364232e-20)
(0.69954958 0.038365257 4.7595454e-21)
(0.78800391 0.058167649 -2.4436055e-20)
(0.86863404 0.077483008 6.9867554e-20)
(0.94023972 0.095458646 5.2394019e-22)
(1.0020956 0.11143157 -8.0444309e-20)
(1.0539569 0.12494291 0)
(1.0960273 0.1357375 3.9542111e-20)
(1.1288922 0.14374844 5.5235992e-21)
(1.1534278 0.14906894 -7.7566394e-20)
(1.170699 0.15191914 -1.9586922e-20)
(1.1818623 0.15262369 -1.246763e-20)
(1.1880592 0.15152607 -1.4709381e-20)
(1.190146 0.14858494 4.0420499e-20)
(0.048058868 -0.0087674049 -1.7277958e-20)
(0.1480831 -0.021931992 -2.2198269e-21)
(0.25514069 -0.020797833 3.0380503e-20)
(0.36546384 -0.010412791 3.7484308e-20)
(0.4759042 0.0059015903 -1.9944733e-20)
(0.58374265 0.026269309 -6.9163028e-20)
(0.68644184 0.048977211 -2.7995795e-20)
(0.78176203 0.072417791 7.8929206e-20)
(0.86790195 0.095212481 8.5778124e-21)
(0.94358915 0.11624962 -2.4873481e-20)
(1.0081258 0.13469827 1.3642212e-20)
(1.061387 0.15001556 -4.3194483e-21)
(1.1037693 0.16193659 0)
(1.1360975 0.17044428 2.720348e-20)
(1.1595046 0.17572309 -7.9322406e-20)
(1.175302 0.1781037 -3.1475526e-20)
(1.184857 0.17800814 8.105457e-20)
(1.1894921 0.17590946 -4.2969856e-21)
(1.1904029 0.17225559 3.5561064e-21)
(1.188508 0.16719299 2.7111549e-20)
(0.06048525 -0.0069573638 -3.2414614e-20)
(0.18077772 -0.01517038 -8.1624317e-20)
(0.30388929 -0.0075835259 2.5797754e-21)
(0.42642555 0.0097033575 7.0161808e-20)
(0.54535148 0.032631555 6.2424373e-20)
(0.657981 0.058820045 -7.1574518e-20)
(0.76190882 0.086176509 -2.8275163e-22)
(0.8551829 0.11285231 8.5522542e-20)
(0.93645345 0.13737838 4.8828066e-20)
(1.0050415 0.1586937 -5.4218404e-20)
(1.0609356 0.17613563 -9.2334209e-20)
(1.1047242 0.18941355 -3.1589824e-21)
(1.1374759 0.19855944 4.2127863e-20)
(1.1605873 0.20385857 -6.6056274e-21)
(1.1756247 0.2057702 -1.2868786e-20)
(1.1841776 0.2048492 1.9690807e-20)
(1.1877427 0.20167898 4.3880614e-20)
(1.1876453 0.19682589 -4.3859428e-20)
(1.1849953 0.19077885 -1.02322e-19)
(1.180625 0.18377381 2.4566869e-20)
(0.073537215 -0.0034329734 -3.4979749e-20)
(0.21422687 -0.0039890253 -1.7388611e-19)
(0.35251657 0.011839376 8.2103239e-20)
(0.48562797 0.037018337 9.2767512e-20)
(0.61085379 0.066835552 5.7970565e-20)
(0.72576726 0.098481178 8.610709e-21)
(0.82834802 0.12959696 -1.0624009e-19)
(0.91718997 0.15824269 0)
(0.99162743 0.18302814 -6.8748585e-20)
(1.0517521 0.20311207 -1.5202409e-20)
(1.0983384 0.21814861 5.4703462e-20)
(1.1327008 0.22821083 1.0973379e-20)
(1.1565109 0.2336926 -4.5613851e-20)
(1.1716067 0.23519947 -4.908136e-20)
(1.1798204 0.23344336 2.4287678e-20)
(1.182845 0.22915324 4.4822888e-20)
(1.1821488 0.22300987 -5.5600405e-20)
(1.178936 0.21560823 -1.0751121e-19)
(1.1741468 0.20742225 -3.1513632e-21)
(1.1684567 0.19871882 2.70464e-20)
(0.086650446 0.001961386 -3.5448992e-21)
(0.24696019 0.011816634 8.791324e-20)
(0.39884739 0.037492309 -1.6479245e-20)
(0.54040465 0.071218382 -8.4309146e-20)
(0.66949902 0.10778893 4.5164369e-20)
(0.78421952 0.14411543 4.9175451e-20)
(0.88318939 0.17775668 5.5356779e-21)
(0.96577869 0.2068849 -9.9502484e-20)
(1.0321763 0.23038802 -2.5048778e-21)
(1.0833328 0.24781553 5.050354e-20)
(1.120807 0.25926301 5.9854757e-21)
(1.1465558 0.2652362 -1.9717205e-20)
(1.1627107 0.26650533 -7.5704624e-20)
(1.1713765 0.26396622 -6.2554022e-21)
(1.1744762 0.2585243 4.3533352e-20)
(1.1736548 0.25101089 3.7022011e-20)
(1.1702383 0.24213396 1.9793441e-20)
(1.1652402 0.23245876 -5.2994842e-20)
(1.1594014 0.22240419 1.295745e-20)
(1.1532251 0.212238 8.2659098e-20)
(-0.0012932614 0.0014346597 -1.1234448e-21)
(-0.0047459602 0.0031874147 2.0646968e-21)
(-0.010771358 0.004135904 8.7949983e-22)
(-0.017754286 0.0045395358 -2.4411021e-21)
(-0.024740317 0.0045654165 -1.4114823e-21)
(-0.031299591 0.0043260384 1.546001e-21)
(-0.037161326 0.003903538 -6.8700803e-21)
(-0.04214744 0.0033577216 -5.9573035e-21)
(-0.046157774 0.0027313812 1.1171997e-20)
(-0.049146188 0.0020548305 -9.7427481e-21)
(-0.051100652 0.0013493004 -1.9833018e-22)
(-0.052030442 0.00062942196 3.667344e-21)
(-0.051957736 -9.4889404e-05 -6.3295576e-22)
(-0.05091188 -0.00081693027 2.2818743e-20)
(-0.048925777 -0.0015318446 3.0401092e-22)
(-0.046035341 -0.0022351738 -4.0882869e-20)
(-0.042281798 -0.0029222677 7.5385615e-21)
(-0.037703444 -0.0035910382 2.3864109e-20)
(-0.032308696 -0.0042399861 -4.3852372e-20)
(-0.026156967 -0.0048211127 -2.7739203e-20)
(-0.0016521999 0.0041808661 -5.3716025e-21)
(-0.0053974809 0.0092681378 1.0865438e-20)
(-0.011218509 0.012007443 -1.0191542e-20)
(-0.017658025 0.013153763 3.9229738e-21)
(-0.023856432 0.013195413 4.8121435e-21)
(-0.029433316 0.012462724 7.1324178e-22)
(-0.034152319 0.011197013 -2.2509488e-20)
(-0.037860376 0.0095738966 -2.0370239e-21)
(-0.040474297 0.0077189871 2.0163539e-20)
(-0.04195892 0.0057212304 -5.0473597e-21)
(-0.042308949 0.0036428646 -2.1762588e-20)
(-0.041537336 0.0015267129 4.8973166e-21)
(-0.039667712 -0.00059830505 2.263542e-20)
(-0.036729081 -0.0027127604 1.030839e-20)
(-0.032752035 -0.0048026884 2.1854284e-20)
(-0.027769173 -0.0068555075 -1.9770727e-20)
(-0.021824798 -0.0088582185 -2.1672942e-20)
(-0.014966275 -0.010804223 2.1184616e-20)
(-0.0071290241 -0.012678999 2.6810363e-20)
(0.0018742866 -0.014317222 1.5854764e-20)
(-0.0023034291 0.0065602324 -4.3568687e-21)
(-0.0065392236 0.014480195 -5.6387544e-21)
(-0.011892131 0.018710542 3.072394e-22)
(-0.017211098 0.020428179 1.0959879e-21)
(-0.021819141 0.020400323 6.69184e-21)
(-0.02543104 0.019151665 1.0665168e-20)
(-0.027877231 0.017066287 -3.7227635e-21)
(-0.029053268 0.014423782 -1.8896164e-20)
(-0.028909036 0.011424352 6.5413168e-21)
(-0.02743105 0.008209905 1.2862569e-20)
(-0.024627714 0.0048797762 5.8340849e-21)
(-0.02052011 0.001502239 1.8159104e-20)
(-0.015135988 -0.0018768626 1.7295913e-21)
(-0.0085054025 -0.0052272468 -3.3864526e-20)
(-0.00065689809 -0.0085276088 1.2020171e-21)
(0.0083810099 -0.011759108 -2.2139209e-20)
(0.018556858 -0.014904094 -2.4466301e-20)
(0.029802169 -0.01795375 4.5819706e-20)
(0.042304949 -0.020855114 2.5349345e-20)
(0.056738553 -0.023247762 1.2239263e-22)
(-0.0031290275 0.0083689697 -5.2833068e-21)
(-0.0078963986 0.018336512 -8.4815265e-21)
(-0.012438985 0.023587808 4.3593046e-21)
(-0.016026534 0.025609657 4.1463449e-21)
(-0.018235023 0.025382744 2.0105707e-21)
(-0.018912651 0.023589321 7.3209952e-21)
(-0.017984717 0.020730272 9.3124774e-21)
(-0.015416711 0.017170377 -1.3511354e-21)
(-0.011207049 0.013171314 -1.1481946e-20)
(-0.0053752364 0.0089189317 -2.9071876e-20)
(0.0020481068 0.0045434376 6.1892409e-23)
(0.011026501 0.00013431177 4.0697818e-20)
(0.021522216 -0.0042489498 -1.838317e-20)
(0.033497838 -0.0085675833 -1.2296087e-20)
(0.046920497 -0.012795544 5.5348938e-22)
(0.061760076 -0.016911853 3.2302641e-20)
(0.077952991 -0.020901666 -1.4829542e-20)
(0.095392237 -0.024763372 -5.3339179e-20)
(0.11439842 -0.028379713 4.5765005e-20)
(0.13634535 -0.03107309 3.3013169e-20)
(-0.0039704095 0.0094657319 -6.8788991e-22)
(-0.0090916577 0.020487791 -1.2534739e-20)
(-0.012364471 0.026159086 -3.4144533e-20)
(-0.01355254 0.028143337 -5.7241617e-21)
(-0.01253324 0.027555006 -3.6222739e-21)
(-0.0093167251 0.025188063 6.3051033e-21)
(-0.0039456463 0.021627411 -4.6461957e-21)
(0.0035261256 0.017298959 -8.8070266e-21)
(0.013036817 0.012508752 2.1899708e-20)
(0.024521237 0.0074744433 5.0567069e-21)
(0.037915532 0.002348905 -2.5290292e-20)
(0.053157436 -0.0027627827 1.1078278e-20)
(0.070186856 -0.0077908727 0)
(0.088946568 -0.012691301 1.2089575e-20)
(0.10938542 -0.017436916 -9.7016169e-21)
(0.13145739 -0.022009893 -1.4337118e-20)
(0.15507405 -0.026408642 -1.5738946e-21)
(0.18006758 -0.030659416 -2.2181551e-21)
(0.20685339 -0.034576528 4.6147061e-20)
(0.23766356 -0.037019862 -1.0470126e-20)
(-0.0046450977 0.009780862 -7.5356676e-21)
(-0.0096772506 0.020747879 2.4516399e-20)
(-0.01106438 0.026160976 -1.0499346e-20)
(-0.0090968328 0.027724444 -2.746928e-20)
(-0.0039797216 0.026601694 -2.7548145e-20)
(0.0040961812 0.023648408 -1.4921568e-20)
(0.014954147 0.019496457 -6.9059597e-22)
(0.028436231 0.014604706 5.5499779e-21)
(0.044403142 0.0093034474 1.9615877e-20)
(0.06273049 0.0038284167 7.353085e-21)
(0.083304307 -0.0016547534 -7.1862207e-21)
(0.10601896 -0.0070322364 -2.0102307e-21)
(0.13077356 -0.012229095 -3.8191708e-20)
(0.15746942 -0.017199749 -1.2693644e-20)
(0.18601198 -0.021919731 1.8750605e-20)
(0.21631175 -0.026379713 -2.1021672e-20)
(0.24823221 -0.030602218 -8.973057e-21)
(0.28151865 -0.034670602 3.0440464e-20)
(0.31660701 -0.038364813 5.0472067e-20)
(0.35665013 -0.039964092 3.3559662e-21)
(-0.0049617683 0.0093139985 1.6783303e-20)
(-0.0091662691 0.019097709 1.4467938e-20)
(-0.007859365 0.023563366 5.1145485e-20)
(-0.0018585402 0.024328943 2.338798e-20)
(0.0082957215 0.022523783 1.8251773e-22)
(0.022221938 0.019014385 -3.9388453e-20)
(0.039597438 0.014440937 -2.4313859e-20)
(0.060147899 0.0092663605 1.0465816e-20)
(0.083639108 0.0038232296 1.4401586e-20)
(0.10986668 -0.0016512973 -1.311371e-20)
(0.13864562 -0.0069910071 -4.4038712e-20)
(0.16980169 -0.012082844 2.9618497e-20)
(0.20316403 -0.016854155 2.0020551e-20)
(0.23855944 -0.021263991 -2.7551154e-20)
(0.27581228 -0.025296397 1.1650134e-20)
(0.31474809 -0.028957162 2.4197611e-20)
(0.35514543 -0.032303045 8.0723936e-21)
(0.39663385 -0.035506669 -1.1764209e-20)
(0.43957698 -0.038392634 -1.4190297e-20)
(0.48798507 -0.038634392 5.8727582e-21)
(-0.0047307762 0.0081236731 1.1093845e-20)
(-0.0070586005 0.015671176 -2.3352718e-20)
(-0.0020293665 0.018562032 8.620055e-21)
(0.0090325189 0.018216225 3.3587965e-20)
(0.025256359 0.01565115 5.2124337e-20)
(0.046066334 0.011695604 2.0276509e-20)
(0.070984518 0.0069609536 -5.8639355e-21)
(0.099601941 0.0018829531 -1.2286283e-20)
(0.13156893 -0.0032271958 -6.2057467e-21)
(0.16657566 -0.0081496545 3.4240833e-20)
(0.20433423 -0.012733317 -4.5104384e-21)
(0.24456483 -0.016879182 -1.66433e-20)
(0.28698468 -0.02052868 -1.9693572e-20)
(0.33129996 -0.023656405 -4.7443736e-20)
(0.37720456 -0.026265524 2.3238703e-20)
(0.42438767 -0.028387851 -1.4095983e-20)
(0.4724997 -0.030127609 2.5993397e-20)
(0.52103615 -0.031783176 2.1040822e-20)
(0.57021391 -0.033350663 -8.5570379e-20)
(0.62470913 -0.032058823 -1.0807326e-22)
(-0.003771052 0.0063146394 2.1925054e-20)
(-0.0028657667 0.010735096 -2.6165528e-20)
(0.0071421038 0.011564137 -4.5013293e-20)
(0.024450231 0.0099249905 -2.725378e-20)
(0.047870847 0.0066523072 -2.0439867e-21)
(0.076628698 0.0024906189 1.3050094e-20)
(0.11007672 -0.0020153929 -2.8337691e-21)
(0.14765205 -0.0064879009 1.8118536e-20)
(0.18886095 -0.010663499 8.8685609e-21)
(0.23325193 -0.014362416 -1.1380172e-20)
(0.28039147 -0.017468943 8.8779131e-21)
(0.32984601 -0.019916798 -2.3903266e-20)
(0.38116878 -0.021678689 8.0504775e-21)
(0.43389082 -0.022759864 1.6756391e-20)
(0.48751933 -0.023194289 -2.6395128e-21)
(0.54154713 -0.023046877 1.6618978e-21)
(0.59543543 -0.02246943 -3.1957613e-22)
(0.6485178 -0.021870087 1.959042e-20)
(0.70082236 -0.021445043 4.0434e-21)
(0.75745147 -0.01849906 -5.733404e-22)
(-0.0019110145 0.0040273483 2.3692111e-20)
(0.0038694293 0.0046765208 5.7159956e-20)
(0.020315309 0.0031879656 -4.9244223e-20)
(0.045178282 0.00029442788 -9.9454141e-21)
(0.076965147 -0.0034241495 2.0256344e-20)
(0.11469622 -0.0073535828 2.1433716e-21)
(0.15753882 -0.011054953 -2.981516e-20)
(0.2047483 -0.014244134 6.9848098e-21)
(0.25564948 -0.016737922 7.1097877e-21)
(0.30960471 -0.01842695 -2.6254077e-20)
(0.36598646 -0.01926009 1.2927328e-21)
(0.42415956 -0.019231858 -3.7174112e-20)
(0.48347099 -0.018372192 -3.6341015e-20)
(0.54324563 -0.016738264 6.5683478e-20)
(0.6027881 -0.014407288 5.5627479e-21)
(0.66138882 -0.011475883 -1.5188792e-20)
(0.71830782 -0.0081020285 1.9363966e-20)
(0.77269899 -0.0045928476 -9.1888127e-22)
(0.82408832 -0.0009680287 2.0364578e-20)
(0.87621964 0.00432809 -1.955414e-20)
(-0.018836425 -0.0050997019 5.8352034e-20)
(-0.010224666 -0.0056349249 1.5783663e-20)
(-0.00022120903 -0.0060688776 -3.513955e-20)
(0.010823208 -0.0063341069 1.6790229e-20)
(0.022642443 -0.006512044 0)
(0.035177857 -0.0066300867 0)
(0.048369628 -0.0066909698 -2.2974938e-20)
(0.062138037 -0.0067025359 -1.6502864e-20)
(0.076412673 -0.0066741702 1.9122584e-20)
(0.091134027 -0.0066126614 1.8174026e-20)
(0.10624713 -0.0065232013 1.052425e-21)
(0.12170016 -0.0064103534 -1.0317632e-20)
(0.13744484 -0.0062780764 8.3268748e-21)
(0.15343594 -0.0061297175 1.8233708e-20)
(0.1696307 -0.0059681401 -5.2274137e-21)
(0.18598847 -0.0057958295 -1.0174931e-20)
(0.20247049 -0.0056149568 -4.3195854e-21)
(0.21903974 -0.0054274312 -4.425737e-21)
(0.2356608 -0.0052349446 7.3667167e-22)
(0.25229979 -0.0050390074 1.2286033e-21)
(0.26892438 -0.0048409746 2.5666294e-21)
(0.28550379 -0.004642066 6.6539427e-21)
(0.30200882 -0.0044433808 2.4894462e-22)
(0.31841193 -0.0042459084 -3.4514681e-21)
(0.33468729 -0.0040505363 1.5558769e-22)
(0.35081083 -0.0038580563 -5.7709748e-22)
(0.36676028 -0.0036691681 1.2434355e-21)
(0.38251525 -0.0034844843 1.0522431e-21)
(0.39805721 -0.0033045333 -1.2987919e-21)
(0.41336953 -0.0031297632 -1.221874e-22)
(0.42843749 -0.002960546 3.5750364e-23)
(0.44324824 -0.0027971817 -3.5187551e-22)
(0.45779077 -0.0026399034 -4.0565351e-22)
(0.47205591 -0.0024888824 5.5412732e-23)
(0.48603623 -0.0023442339 -1.3809014e-22)
(0.49972604 -0.0022060234 -2.2343131e-22)
(0.51312132 -0.002074273 2.5571877e-22)
(0.52621973 -0.0019489684 2.9501912e-22)
(0.53902047 -0.0018300678 -8.2709754e-24)
(0.55152464 -0.0017175058 -1.5517321e-22)
(0.56373422 -0.0016112215 3.040661e-23)
(0.57565579 -0.0015111144 -4.0144672e-23)
(0.58728953 -0.0014172555 9.2203149e-23)
(0.59866445 -0.0013293087 2.1977318e-23)
(0.60973492 -0.0012485572 -1.1394412e-22)
(0.62069294 -0.001171792 -6.7612167e-24)
(0.63106091 -0.001111243 -7.2444623e-26)
(0.6423494 -0.0010339463 -3.5610604e-24)
(0.65042734 -0.0010508036 2.9453738e-23)
(0.66700817 -0.00087555764 3.6050618e-22)
(0.010445864 -0.015017608 -1.2746814e-20)
(0.018179692 -0.01664101 -6.3302326e-20)
(0.027779209 -0.017915411 -3.0541935e-20)
(0.038385138 -0.018672069 3.8476005e-20)
(0.049620978 -0.019183586 1.4662608e-20)
(0.061506618 -0.01952943 -1.8204925e-20)
(0.074012808 -0.019709863 4.6722004e-21)
(0.087062655 -0.01974649 2.5447184e-20)
(0.10059312 -0.019667278 9.1993798e-23)
(0.11455399 -0.019491698 -7.6591229e-21)
(0.12889715 -0.019234357 -1.3021014e-20)
(0.14357598 -0.018908309 -8.5245279e-21)
(0.15854661 -0.018524969 1.777233e-20)
(0.17376751 -0.018093997 8.9295413e-21)
(0.18919894 -0.017623675 -1.6522434e-20)
(0.20480271 -0.017121227 -6.0390567e-21)
(0.22054209 -0.016592992 3.2145041e-21)
(0.23638169 -0.016044566 8.3716305e-21)
(0.25228747 -0.015480927 6.9832251e-21)
(0.26822666 -0.014906536 -6.9727136e-21)
(0.28416786 -0.014325409 -3.1685447e-21)
(0.30008102 -0.013741169 1.360533e-21)
(0.31593757 -0.013157093 3.8682728e-22)
(0.33171044 -0.012576136 1.2113947e-21)
(0.34737419 -0.012000953 1.8368336e-22)
(0.36290501 -0.011433919 -3.2661599e-22)
(0.37828085 -0.010877136 -7.243482e-22)
(0.39348141 -0.010332448 9.7156494e-22)
(0.40848821 -0.0098014494 8.2482878e-22)
(0.42328459 -0.0092854961 -1.5147299e-22)
(0.43785573 -0.0087857165 5.5306015e-22)
(0.45218864 -0.0083030253 -2.3880901e-22)
(0.46627209 -0.0078381368 -3.7069838e-22)
(0.48009665 -0.0073915815 -6.0999018e-22)
(0.49365461 -0.0069637223 4.4171697e-22)
(0.50693991 -0.0065547732 -1.5476691e-23)
(0.51994818 -0.0061648187 1.6124679e-22)
(0.53267665 -0.005793834 -4.4174673e-22)
(0.54512409 -0.0054417122 3.7189397e-22)
(0.55729116 -0.0051082751 6.717513e-23)
(0.56917935 -0.0047933577 -1.0285397e-22)
(0.58079474 -0.0044966763 1.7613618e-22)
(0.59213707 -0.0042184598 2.3339533e-22)
(0.60323461 -0.0039577184 1.692638e-22)
(0.61404191 -0.0037182977 1.6767078e-22)
(0.62474809 -0.0034906421 -2.6097776e-23)
(0.63488194 -0.003311201 8.4042867e-23)
(0.64593109 -0.0030818583 7.6290786e-23)
(0.65382949 -0.0031323461 -1.9466365e-22)
(0.67009135 -0.002612429 -3.8026626e-23)
(0.067614675 -0.024029142 9.4528287e-21)
(0.073589656 -0.026749045 3.2950975e-21)
(0.082265491 -0.028805564 -1.2162199e-20)
(0.091947802 -0.029968499 -1.2257916e-21)
(0.10198319 -0.030767859 1.4970586e-20)
(0.11254631 -0.031330886 -1.488712e-20)
(0.12367594 -0.031636064 -2.9842266e-20)
(0.13529679 -0.031712999 1.4493518e-20)
(0.14735692 -0.031607629 1.8181961e-20)
(0.15982339 -0.031350048 -1.1598513e-20)
(0.17266056 -0.030961812 1.019055e-21)
(0.18583078 -0.030462745 8.686014e-21)
(0.1992978 -0.029870543 -1.5253536e-20)
(0.21302653 -0.029200231 2.9095123e-21)
(0.22698239 -0.028464752 7.5194329e-21)
(0.24113136 -0.027675496 3.1599145e-23)
(0.2554401 -0.026842549 2.655646e-22)
(0.26987601 -0.025974888 -7.415083e-21)
(0.28440727 -0.025080555 3.8616804e-21)
(0.29900294 -0.02416681 8.4749015e-21)
(0.31363308 -0.023240224 -3.8351745e-21)
(0.32826886 -0.022306764 -2.2130358e-21)
(0.34288265 -0.021371846 1.0124438e-21)
(0.35744814 -0.020440377 -1.7155316e-21)
(0.37194043 -0.019516784 1.3532249e-21)
(0.38633613 -0.018605037 7.1845892e-22)
(0.40061343 -0.017708665 1.5268373e-21)
(0.41475216 -0.016830774 -1.95266e-21)
(0.42873383 -0.015974059 2.223566e-21)
(0.44254168 -0.015140823 5.5188485e-22)
(0.45616065 -0.014332995 4.0322463e-22)
(0.4695774 -0.013552149 3.2134452e-22)
(0.4827803 -0.012799529 8.7324865e-22)
(0.49575941 -0.012076074 -1.3708583e-21)
(0.50850642 -0.011382445 3.7065493e-22)
(0.52101465 -0.010719055 1.0941223e-22)
(0.53327898 -0.010086104 -4.5172031e-23)
(0.54529588 -0.0094836074 8.6732945e-23)
(0.55706332 -0.0089114457 -3.7184874e-22)
(0.56858109 -0.0083693784 1.8293435e-22)
(0.57984981 -0.0078571864 -3.4987061e-23)
(0.59087462 -0.0073744515 3.9004004e-22)
(0.60165444 -0.0069216028 -1.8544336e-22)
(0.61221615 -0.006497052 4.7323286e-23)
(0.62251463 -0.0061071877 4.3603261e-23)
(0.6327336 -0.0057363225 -7.3598887e-23)
(0.64241399 -0.0054443965 -1.2082349e-22)
(0.65299948 -0.0050704895 3.8808833e-22)
(0.6605495 -0.0051542335 1.7270423e-22)
(0.67619309 -0.0043069993 -8.3039603e-22)
(0.15021527 -0.031460423 1.5010113e-21)
(0.15354687 -0.035257388 -1.1566608e-20)
(0.1606162 -0.038010913 6.6441919e-21)
(0.16880588 -0.039479091 -1.3324738e-20)
(0.17698222 -0.040520682 -1.9758306e-21)
(0.18552343 -0.041302272 9.1599379e-21)
(0.19458417 -0.041757228 -9.7662127e-21)
(0.20408689 -0.041913701 1.5662785e-21)
(0.21398765 -0.041833321 1.2903796e-20)
(0.22427595 -0.041554326 3.4031982e-21)
(0.2349325 -0.041102035 -6.2096944e-21)
(0.24593017 -0.040500439 -2.8638082e-21)
(0.25724155 -0.039771739 -5.8409054e-21)
(0.26883907 -0.038935045 -6.4553115e-21)
(0.28069419 -0.038006965 3.2356924e-21)
(0.29277758 -0.037002292 8.462114e-22)
(0.30505969 -0.035934315 1.3679572e-21)
(0.31751094 -0.034815012 -3.3850409e-21)
(0.3301019 -0.033655239 -4.2428839e-21)
(0.34280357 -0.032464885 2.3616497e-21)
(0.35558751 -0.031252986 3.2251339e-21)
(0.36842607 -0.030027805 -1.5636183e-21)
(0.38129253 -0.028796891 1.5867259e-21)
(0.39416126 -0.027567121 -3.9123944e-22)
(0.40700783 -0.026344733 -3.919638e-21)
(0.41980916 -0.025135342 -3.0332801e-21)
(0.43254355 -0.023943966 -1.9026245e-22)
(0.44519081 -0.022775038 4.2858946e-22)
(0.45773228 -0.02163243 -2.2106022e-21)
(0.4701509 -0.020519466 -8.5497043e-22)
(0.48243118 -0.019438954 2.2837644e-22)
(0.49455926 -0.018393209 -1.2498669e-21)
(0.50652284 -0.017384086 6.263284e-24)
(0.51831123 -0.016413014 -4.2420804e-22)
(0.52991529 -0.015481036 -4.7193578e-22)
(0.54132741 -0.014588847 -5.1995551e-22)
(0.55254147 -0.013736844 -8.4132894e-22)
(0.5635529 -0.012925166 -5.4496416e-23)
(0.57435854 -0.012153761 -3.9160393e-24)
(0.58495701 -0.011422404 -5.1972179e-22)
(0.59534775 -0.010730901 -9.1607199e-23)
(0.60553461 -0.010078773 -3.3239237e-22)
(0.61551541 -0.0094667138 -4.3759713e-22)
(0.62531514 -0.0088926252 3.7841543e-22)
(0.6348892 -0.0083653919 1.4820899e-23)
(0.64441363 -0.0078635681 1.8237464e-22)
(0.65344687 -0.0074693257 -1.3246556e-22)
(0.66336944 -0.0069629361 -2.6690858e-22)
(0.6704215 -0.0070791345 -4.4693137e-23)
(0.68517836 -0.0059326673 4.6229429e-22)
(0.25468562 -0.036552747 -2.0900307e-20)
(0.25447016 -0.041393497 4.7585938e-20)
(0.25907328 -0.044745644 1.0348091e-20)
(0.26508407 -0.046442029 -1.5765316e-20)
(0.27070927 -0.0477143 -2.0227917e-21)
(0.27651988 -0.04874776 2.6232288e-21)
(0.28283542 -0.049413702 -1.6608181e-21)
(0.28957683 -0.049728082 -4.6861405e-21)
(0.2966965 -0.049761413 -4.0159155e-21)
(0.30420538 -0.049557034 -1.2207636e-20)
(0.31210209 -0.049141669 1.7897749e-20)
(0.32036928 -0.048540783 6.5219877e-21)
(0.32898689 -0.047778946 -1.678052e-20)
(0.33793392 -0.046878 1.0317572e-20)
(0.34718696 -0.045857281 8.3849901e-21)
(0.35672063 -0.044734294 -8.7923772e-22)
(0.36650832 -0.043525048 -3.122223e-21)
(0.37652276 -0.042244228 -3.8197294e-21)
(0.38673627 -0.04090534 -1.3892569e-21)
(0.39712116 -0.039520833 -1.2304183e-21)
(0.40764994 -0.038102201 -3.0257586e-21)
(0.41829564 -0.036660049 0)
(0.42903197 -0.035204134 -1.3451902e-21)
(0.43983357 -0.033743402 3.9309492e-21)
(0.45067607 -0.032286007 5.4052631e-21)
(0.46153632 -0.030839334 -9.4112527e-22)
(0.4723924 -0.029410007 -2.9274407e-21)
(0.4832238 -0.028003914 3.0258348e-21)
(0.49401139 -0.026626223 2.544753e-22)
(0.50473752 -0.025281405 3.4352412e-21)
(0.51538603 -0.023973268 -5.3459716e-22)
(0.52594225 -0.022704985 1.7173448e-21)
(0.53639302 -0.02147914 -7.9964232e-22)
(0.54672666 -0.020297767 2.9094036e-22)
(0.55693296 -0.019162404 -4.3403822e-22)
(0.56700318 -0.018074139 5.6231536e-22)
(0.57693 -0.017033673 4.5709744e-22)
(0.58670758 -0.016041375 3.825547e-22)
(0.59633143 -0.015097361 -9.5935878e-22)
(0.60579882 -0.014201527 6.8355175e-22)
(0.6151078 -0.013353794 -3.6957214e-22)
(0.62426072 -0.012553721 -1.1033132e-21)
(0.63325413 -0.011802341 1.4078091e-21)
(0.64211078 -0.011097159 -6.2005486e-23)
(0.65078682 -0.01044948 -1.5815869e-22)
(0.65944875 -0.0098326046 -7.8243851e-24)
(0.66767724 -0.0093492184 -1.2621409e-22)
(0.67677306 -0.0087261767 -4.6582001e-22)
(0.6832049 -0.0088736129 8.7882918e-22)
(0.69685029 -0.0074648671 -4.4315535e-23)
(0.37635125 -0.038368152 -1.7495096e-20)
(0.37170972 -0.044270214 1.2832042e-20)
(0.37286685 -0.048161596 2.9754582e-21)
(0.3759104 -0.050098834 -7.6353744e-21)
(0.37830521 -0.051669953 1.2055984e-20)
(0.38072287 -0.053042354 7.7914104e-21)
(0.38367594 -0.05403002 -1.2647687e-20)
(0.38710051 -0.054633082 -6.0679749e-21)
(0.39092916 -0.054917983 1.2697337e-20)
(0.39518235 -0.054927112 -1.5304969e-20)
(0.39987417 -0.054687492 -1.4063188e-20)
(0.40499498 -0.054224629 1.412963e-20)
(0.41052853 -0.053563635 6.8193822e-21)
(0.41645709 -0.052727924 -4.2037644e-21)
(0.42276005 -0.051738991 -1.8545611e-21)
(0.42941393 -0.050616724 -4.0581713e-21)
(0.43639337 -0.049379676 5.3047593e-21)
(0.44367185 -0.048045201 3.6682081e-21)
(0.45122213 -0.046629522 -3.240829e-21)
(0.45901667 -0.045147788 3.137948e-21)
(0.46702795 -0.043614132 2.766679e-21)
(0.47522878 -0.042041699 -3.2111119e-21)
(0.48359255 -0.040442674 3.7056554e-22)
(0.49209341 -0.038828289 -3.2571636e-21)
(0.50070649 -0.037208836 7.2454101e-21)
(0.50940798 -0.035593677 6.1080566e-21)
(0.51817528 -0.033991251 8.0973087e-22)
(0.52698707 -0.032409093 -1.7683222e-21)
(0.53582337 -0.030853853 3.7021739e-21)
(0.54466562 -0.029331326 7.1885133e-21)
(0.55349666 -0.027846486 2.3049294e-21)
(0.56230077 -0.026403525 3.3164833e-21)
(0.57106364 -0.025005907 1.995619e-21)
(0.57977243 -0.023656416 7.4557842e-22)
(0.58841569 -0.022357221 -2.6374536e-22)
(0.59698337 -0.021109935 2.7203083e-21)
(0.60546683 -0.019915693 6.1992087e-22)
(0.61385882 -0.018775211 2.9487723e-22)
(0.62215345 -0.017688895 5.6232388e-23)
(0.63034653 -0.016656869 9.8966291e-22)
(0.63843463 -0.015679279 4.7019998e-23)
(0.64641851 -0.014755824 4.4247289e-22)
(0.65429346 -0.013887956 -1.2621756e-22)
(0.66207971 -0.013072911 -2.7734711e-22)
(0.66973455 -0.012324314 -1.5218559e-22)
(0.67741342 -0.011610798 -4.2207648e-22)
(0.68472321 -0.011053497 1.6139153e-22)
(0.6928714 -0.010332288 -1.2723524e-22)
(0.69859423 -0.010509385 -5.0126398e-22)
(0.71095657 -0.0088817138 2.458686e-22)
(0.50927424 -0.03597426 3.6471467e-21)
(0.49953032 -0.04296064 -1.8958298e-20)
(0.49627548 -0.047383436 -2.3083841e-21)
(0.49555584 -0.049736739 5.4869542e-21)
(0.49416944 -0.051818002 3.0528081e-21)
(0.49269564 -0.053705366 -4.9885741e-23)
(0.49181219 -0.055187603 6.1896668e-21)
(0.4915144 -0.056265351 7.6251e-21)
(0.49171155 -0.056990483 9.8580401e-21)
(0.4924106 -0.057395522 -1.1250039e-20)
(0.49363092 -0.057506248 -2.1579416e-20)
(0.49536765 -0.057348362 -3.9353458e-21)
(0.49760454 -0.056947074 1.5938139e-20)
(0.50032288 -0.05632695 1.2808955e-20)
(0.50350151 -0.055511672 -5.9066942e-21)
(0.50711637 -0.054523784 1.381705e-21)
(0.51114124 -0.05338472 -3.6600823e-21)
(0.51554859 -0.052114873 2.2443735e-21)
(0.52031012 -0.050733579 -2.9123014e-22)
(0.52539718 -0.049259095 -1.8654089e-21)
(0.53078108 -0.047708589 7.8265853e-21)
(0.53643347 -0.046098137 -2.930875e-22)
(0.54232653 -0.044442715 4.1818083e-22)
(0.54843321 -0.042756187 -6.5646656e-22)
(0.55472741 -0.041051306 -4.302936e-21)
(0.56118411 -0.03933971 4.2085136e-21)
(0.56777945 -0.037631929 1.9031211e-21)
(0.57449087 -0.035937404 -3.3081899e-21)