/*--------------------------------*- C++ -*----------------------------------*\
  =========                 |
  \\      /  F ield         | OpenFOAM: The Open Source CFD Toolbox
   \\    /   O peration     | Website:  https://openfoam.org
    \\  /    A nd           | Version:  6
     \\/     M anipulation  |
\*---------------------------------------------------------------------------*/
FoamFile
{
    version     2.0;
    format      ascii;
    class       volScalarField;
    location    "81";
    object      p;
}
// * * * * * * * * * * * * * * * * * * * * * * * * * * * * * * * * * * * * * //

dimensions      [0 2 -2 0 0 0 0];

internalField   nonuniform List<scalar> 
9200
(
-0.37880352
-0.36745291
-0.3573557
-0.34840342
-0.33966088
-0.33114191
-0.3229248
-0.31497695
-0.30723097
-0.29961484
-0.29205552
-0.28448388
-0.2768417
-0.26908893
-0.26121427
-0.25325301
-0.2452815
-0.23738763
-0.23059601
-0.229188
-0.39666962
-0.38286733
-0.37082613
-0.36035379
-0.35023896
-0.34046303
-0.33109474
-0.32207071
-0.31329134
-0.30465818
-0.29607796
-0.28746838
-0.27876572
-0.26993075
-0.26095439
-0.25186163
-0.24268239
-0.23341649
-0.22474664
-0.21883829
-0.41495258
-0.39867587
-0.38473667
-0.37281476
-0.36138298
-0.35037207
-0.33982945
-0.32965328
-0.31970975
-0.30987791
-0.30005337
-0.29015402
-0.28012677
-0.26995069
-0.25963686
-0.24922403
-0.23875107
-0.22822705
-0.21805112
-0.2093381
-0.43321814
-0.4144862
-0.39871445
-0.38540461
-0.37267611
-0.36039268
-0.34857258
-0.33707499
-0.32573987
-0.31443912
-0.30307806
-0.29159847
-0.2799817
-0.26824648
-0.25644221
-0.24463881
-0.23290296
-0.22127364
-0.21001828
-0.19987791
-0.45083609
-0.42975206
-0.41226457
-0.3976439
-0.38362832
-0.37000377
-0.35675923
-0.34372559
-0.33073711
-0.3176857
-0.30451609
-0.2912222
-0.27784289
-0.26445215
-0.2511456
-0.23802628
-0.22518437
-0.21267846
-0.20069676
-0.18974671
-0.46698163
-0.44375418
-0.42472665
-0.40888455
-0.39357525
-0.37850697
-0.36365186
-0.34883817
-0.33392867
-0.31887163
-0.30368411
-0.28843684
-0.27323987
-0.25822452
-0.2435251
-0.22926372
-0.2155351
-0.20239519
-0.18996996
-0.17859624
-0.48064928
-0.45560589
-0.43527569
-0.41831224
-0.40168883
-0.38505184
-0.36838444
-0.35155302
-0.33449333
-0.31724946
-0.29993895
-0.28272316
-0.26578246
-0.24929265
-0.23340629
-0.21824134
-0.20387352
-0.19033394
-0.17768945
-0.16614128
-0.4906749
-0.46427672
-0.44295459
-0.42499331
-0.40704188
-0.38871877
-0.37006087
-0.35102495
-0.33166824
-0.31216555
-0.29275226
-0.27367992
-0.25518453
-0.23746307
-0.22066038
-0.20486632
-0.19011803
-0.17640735
-0.16374316
-0.15221273
-0.49571594
-0.46849106
-0.44647698
-0.4275916
-0.40825807
-0.3881291
-0.36735533
-0.34604118
-0.32440491
-0.3027676
-0.28147583
-0.26084871
-0.24114705
-0.2225577
-0.20519147
-0.18909147
-0.17424555
-0.16060203
-0.14811577
-0.1367765
-0.49442171
-0.46683171
-0.44429491
-0.42444138
-0.40361527
-0.38158715
-0.35868684
-0.33521227
-0.31155644
-0.28816984
-0.26547291
-0.24380683
-0.22341446
-0.2044395
-0.18693834
-0.17089878
-0.15625974
-0.14293172
-0.1308228
-0.1198378
-0.26587994
-0.27055572
-0.27306476
-0.27381585
-0.27360127
-0.27260796
-0.2709174
-0.26861714
-0.26577939
-0.26245889
-0.25869968
-0.25453928
-0.25001079
-0.24514428
-0.23996802
-0.2345109
-0.2288038
-0.22286726
-0.21670028
-0.21038846
-0.2686139
-0.27287421
-0.27507636
-0.27560868
-0.27521097
-0.2740614
-0.27223953
-0.26982923
-0.26689915
-0.26350118
-0.25967695
-0.25546185
-0.25088711
-0.24598079
-0.24076856
-0.23527828
-0.22954832
-0.22359756
-0.21731863
-0.21068554
-0.27394584
-0.27739366
-0.27899755
-0.27910197
-0.27834521
-0.27689
-0.27481239
-0.27218897
-0.26908143
-0.26553606
-0.26158965
-0.25727338
-0.25261469
-0.24763781
-0.24236355
-0.23681693
-0.2310477
-0.22507364
-0.21859545
-0.21135515
-0.28163566
-0.2839204
-0.28465836
-0.28413382
-0.28284397
-0.28093196
-0.27846986
-0.27552439
-0.27214761
-0.26837792
-0.26424528
-0.25977475
-0.25498824
-0.24990428
-0.24453686
-0.23890583
-0.23307289
-0.22706045
-0.22032274
-0.21223172
-0.29138084
-0.2922112
-0.29184713
-0.29050502
-0.28851306
-0.2859936
-0.28301554
-0.27963429
-0.27589049
-0.27181331
-0.26742444
-0.26274067
-0.25777638
-0.25254317
-0.24704691
-0.24129909
-0.23536937
-0.22929336
-0.22226612
-0.21314455
-0.30286736
-0.3020137
-0.30034631
-0.29801453
-0.29516075
-0.29188789
-0.2882639
-0.28433315
-0.2801243
-0.27565483
-0.27093564
-0.26597425
-0.26077624
-0.25534476
-0.24967655
-0.24377176
-0.23770009
-0.23151652
-0.22418508
-0.21392632
-0.31581612
-0.31310274
-0.30996508
-0.30649259
-0.30263316
-0.29847348
-0.29408439
-0.28949889
-0.28473089
-0.27978541
-0.27466183
-0.26935642
-0.26386412
-0.25817855
-0.25228734
-0.24617883
-0.23991552
-0.23357503
-0.22595354
-0.21456639
-0.33001099
-0.32530319
-0.32056153
-0.31582528
-0.31084364
-0.30569002
-0.30043848
-0.2951098
-0.28970314
-0.28420909
-0.27861267
-0.27289585
-0.26703996
-0.2610265
-0.25483346
-0.24844024
-0.24190656
-0.235356
-0.22753621
-0.21525238
-0.34529886
-0.33848262
-0.33202522
-0.32592592
-0.31972785
-0.3134898
-0.30729097
-0.30113942
-0.29501667
-0.28889568
-0.28274353
-0.27652373
-0.27019849
-0.26372902
-0.25707082
-0.25017598
-0.24306877
-0.23585537
-0.22727879
-0.21383645
-0.36158083
-0.35253327
-0.34424394
-0.33667702
-0.32915614
-0.32172527
-0.31446867
-0.30737934
-0.30041869
-0.29354039
-0.28669323
-0.27982398
-0.27288024
-0.26581054
-0.25855898
-0.25106113
-0.24325985
-0.23494855
-0.2244767
-0.20880296
-0.20323198
-0.19427626
-0.18531526
-0.17641306
-0.16751592
-0.15866555
-0.14991552
-0.14130093
-0.13285109
-0.12459466
-0.11655747
-0.10876175
-0.10122667
-0.093968621
-0.087001213
-0.080335355
-0.073979358
-0.067939037
-0.06221781
-0.056816807
-0.051734996
-0.046969317
-0.042514837
-0.038364913
-0.03451137
-0.030944688
-0.027654191
-0.024628249
-0.021854464
-0.01931987
-0.017011111
-0.014914619
-0.013016779
-0.011304078
-0.0097632553
-0.008381421
-0.0071461907
-0.0060457778
-0.005069181
-0.0042060705
-0.0034477164
-0.0027846546
-0.0022149335
-0.0017198381
-0.001339875
-0.00095043942
-0.00093182076
-0.0002251694
-0.0019791807
0.0026610976
-0.20424354
-0.19489031
-0.18582022
-0.17693242
-0.16801728
-0.15913672
-0.15036227
-0.14172541
-0.13325301
-0.12497425
-0.11691526
-0.10909814
-0.10154207
-0.094263483
-0.087276078
-0.080590821
-0.074216085
-0.068157745
-0.062419272
-0.057001839
-0.051904444
-0.047124051
-0.042655736
-0.03849286
-0.034627242
-0.031049346
-0.027748478
-0.024712979
-0.021930421
-0.019387802
-0.017071728
-0.014968592
-0.013064734
-0.011346603
-0.0098008904
-0.0084146663
-0.0071755031
-0.006071573
-0.0050918339
-0.0042259163
-0.0034650501
-0.0027997345
-0.0022279592
-0.0017310184
-0.0013491277
-0.00095835835
-0.0009361309
-0.00023197303
-0.0019650322
0.0026313198
-0.20636517
-0.1961608
-0.1868732
-0.17805424
-0.16911557
-0.16017434
-0.15135228
-0.14267142
-0.13415199
-0.12582532
-0.11771878
-0.10985435
-0.1022513
-0.094926441
-0.087893727
-0.081164351
-0.074746895
-0.068647422
-0.062869556
-0.057414592
-0.052281619
-0.047467663
-0.042967835
-0.038775504
-0.034882477
-0.031279185
-0.027954884
-0.024897849
-0.022095578
-0.019534984
-0.017202578
-0.015084656
-0.013167458
-0.011437329
-0.0098808586
-0.008485014
-0.0072372681
-0.0061256952
-0.0051391587
-0.0042671965
-0.0035009477
-0.0028308251
-0.0022546987
-0.001753856
-0.0013679657
-0.00097434278
-0.00094491585
-0.0002454077
-0.0019372328
0.0025723777
-0.2094377
-0.19785585
-0.18824719
-0.17962752
-0.1706996
-0.16168171
-0.15280556
-0.14407581
-0.13549737
-0.12710668
-0.11893482
-0.11100383
-0.10333326
-0.095940767
-0.08884102
-0.082045732
-0.075563947
-0.069402135
-0.063564256
-0.058051871
-0.052864277
-0.047998646
-0.043450188
-0.03921232
-0.035276857
-0.031634202
-0.028273551
-0.025183095
-0.022350224
-0.019761723
-0.017403968
-0.015263105
-0.013325219
-0.011576497
-0.010003368
-0.0085926413
-0.0073316323
-0.0062082627
-0.0052112476
-0.0043299803
-0.0035554578
-0.0028779573
-0.0022951662
-0.0017883522
-0.0013963779
-0.00099836828
-0.00095818416
-0.00026535033
-0.0018964269
0.0024855126
-0.21323386
-0.19970448
-0.18967249
-0.18145409
-0.17262242
-0.16353059
-0.15461148
-0.14584921
-0.13721724
-0.12875923
-0.12051477
-0.11250703
-0.10475599
-0.097280763
-0.090097412
-0.08321868
-0.076654457
-0.070411954
-0.064495754
-0.058907919
-0.053648141
-0.048713891
-0.044100592
-0.039801801
-0.0358094
-0.032113804
-0.028704168
-0.025568599
-0.022694367
-0.020068112
-0.017676035
-0.015504095
-0.013538176
-0.011764256
-0.010168552
-0.0087376602
-0.0074586862
-0.0063193447
-0.0053081498
-0.004414298
-0.0036285937
-0.0029411294
-0.0023493463
-0.0018344793
-0.0014343296
-0.0010303802
-0.0009759539
-0.00029158657
-0.0018436228
0.0023726428
-0.21740564
-0.20142572
-0.19087953
-0.18330024
-0.17471119
-0.16557715
-0.15663749
-0.14787718
-0.13921847
-0.13070657
-0.1223949
-0.11431112
-0.10647621
-0.098911152
-0.091634249
-0.084660036
-0.077999823
-0.071662025
-0.065652256
-0.059973424
-0.054625901
-0.04960769
-0.044914616
-0.040540519
-0.036477464
-0.032715958
-0.029245169
-0.026053154
-0.023127077
-0.020453421
-0.018018204
-0.015807164
-0.013805951
-0.012000291
-0.010376143
-0.00891984
-0.0076182267
-0.0064587597
-0.0054297009
-0.0045199993
-0.0037202164
-0.0030202116
-0.002417117
-0.0018921224
-0.0014817157
-0.001070267
-0.00099822335
-0.00032383592
-0.0017801015
0.0022362619
-0.22155471
-0.20283769
-0.19165633
-0.18488781
-0.17676489
-0.16769395
-0.1587681
-0.15004711
-0.14140478
-0.13287045
-0.12450997
-0.11636086
-0.10844745
-0.10079308
-0.093418995
-0.086342495
-0.079577101
-0.073133051
-0.067017504
-0.061234665
-0.055785954
-0.050670212
-0.045883911
-0.041421372
-0.037274995
-0.033435493
-0.029892132
-0.026632972
-0.0236451
-0.020914862
-0.018428078
-0.016170256
-0.01412678
-0.01228309
-0.010624846
-0.009138075
-0.0078093118
-0.0066257072
-0.0055752228
-0.0046465118
-0.0038298441
-0.0031148002
-0.0024981405
-0.0019610019
-0.0015383103
-0.001117837
-0.0010249538
-0.00036179473
-0.0017073171
0.0020792952
-0.2254194
-0.20433582
-0.19222729
-0.18602927
-0.17856899
-0.16979333
-0.16095943
-0.15230253
-0.14371393
-0.13519498
-0.12681052
-0.11861076
-0.11062778
-0.10288844
-0.095417341
-0.088235304
-0.081358859
-0.074800689
-0.068570004
-0.062672738
-0.057111738
-0.051886992
-0.04699588
-0.042433416
-0.038192503
-0.034264197
-0.030637961
-0.02730193
-0.024243163
-0.021447893
-0.018901759
-0.016590028
-0.014497805
-0.012610217
-0.010912592
-0.0093906139
-0.008030468
-0.0068189556
-0.0057436938
-0.0047929952
-0.0039567933
-0.0032243465
-0.0025919822
-0.0020407825
-0.0016038644
-0.0011729045
-0.0010561402
-0.00040520845
-0.0016268484
0.0019050677
-0.22665631
-0.20616371
-0.19328735
-0.18666057
-0.179688
-0.17149448
-0.16293753
-0.15441012
-0.14592887
-0.13748728
-0.12913302
-0.12092401
-0.11290346
-0.10510406
-0.097554366
-0.090279318
-0.083299307
-0.076630294
-0.070284274
-0.064269573
-0.058591067
-0.053250431
-0.048246416
-0.043575132
-0.039230325
-0.035203671
-0.03148506
-0.028062881
-0.024924305
-0.022055551
-0.019442144
-0.017069156
-0.014921429
-0.012983783
-0.011241201
-0.0096789978
-0.0082829778
-0.0070395548
-0.005935959
-0.0049601172
-0.0041015786
-0.0033492337
-0.0026989137
-0.002131634
-0.0016784816
-0.0012354466
-0.0010919358
-0.00045356221
-0.0015406531
0.0017179346
-0.21679155
-0.20540671
-0.19440306
-0.18631042
-0.179249
-0.17183037
-0.16388029
-0.15571935
-0.14752651
-0.13932785
-0.13115113
-0.12305388
-0.11509164
-0.10730741
-0.099737046
-0.092412155
-0.085359439
-0.078600393
-0.072151743
-0.066025858
-0.060231051
-0.054771871
-0.049649432
-0.044861758
-0.04040411
-0.036269323
-0.032448144
-0.028929553
-0.025701087
-0.022749143
-0.020059264
-0.017616415
-0.01540523
-0.013410239
-0.011616082
-0.010007685
-0.0085704423
-0.0072903386
-0.0061541712
-0.0051494301
-0.0042652287
-0.0034900332
-0.0028191216
-0.0022333957
-0.0017617841
-0.0013047174
-0.0011319691
-0.00050490819
-0.0014512861
0.0015235645
-0.19465386
-0.19935132
-0.19407213
-0.18516346
-0.17765583
-0.17064234
-0.163136
-0.15527239
-0.14731737
-0.13933416
-0.13134237
-0.12339493
-0.11555119
-0.10785853
-0.100356
-0.09307812
-0.086054577
-0.079309659
-0.072862611
-0.066728068
-0.06091637
-0.055433858
-0.050283215
-0.045463819
-0.040972094
-0.036801858
-0.032944675
-0.029390198
-0.026126502
-0.023140405
-0.020417769
-0.017943786
-0.015703241
-0.013680751
-0.011860983
-0.010228851
-0.0087696934
-0.0074694115
-0.0063146897
-0.0052928902
-0.0043929439
-0.0036032065
-0.0029184623
-0.0023201113
-0.0018340889
-0.0013676864
-0.0011663026
-0.00055605636
-0.0013588659
0.0013300934
-0.18409596
-0.18990626
-0.1864279
-0.17768616
-0.17047905
-0.16421786
-0.15751265
-0.1503636
-0.1430666
-0.1356967
-0.1282637
-0.12081621
-0.113416
-0.10611415
-0.098953276
-0.091971727
-0.085203218
-0.078676047
-0.072413297
-0.066433244
-0.060749645
-0.055372017
-0.050305973
-0.045553574
-0.041113685
-0.036982332
-0.033153064
-0.029617306
-0.026364706
-0.023383463
-0.02066065
-0.018182506
-0.015934712
-0.013902648
-0.012071623
-0.010427078
-0.0089547822
-0.0076409802
-0.0064726123
-0.0054372457
-0.0045238756
-0.0037210572
-0.0030230718
-0.0024124814
-0.0019110707
-0.0014361647
-0.0012014215
-0.00061524073
-0.0012526647
0.00112069
-0.17534761
-0.17855854
-0.17627628
-0.16925364
-0.16289785
-0.15733115
-0.15139328
-0.1449749
-0.13834255
-0.13159136
-0.12473326
-0.11781067
-0.11088413
-0.10400656
-0.09722269
-0.090573233
-0.084094817
-0.077818957
-0.071772026
-0.065975586
-0.060446614
-0.055197732
-0.0502375
-0.045570749
-0.041198919
-0.03712041
-0.033330941
-0.029823902
-0.026590708
-0.023621133
-0.020903641
-0.018425689
-0.016174016
-0.014134908
-0.012294443
-0.010638706
-0.009153998
-0.0078269918
-0.0066449556
-0.0055957232
-0.0046683936
-0.0038517745
-0.0031396067
-0.0025157707
-0.0019974514
-0.0015131197
-0.0012414104
-0.00068144991
-0.0011368293
0.00089037015
-0.16565825
-0.16626156
-0.16442507
-0.15947894
-0.15435379
-0.1495303
-0.1443841
-0.13877801
-0.1328893
-0.12681878
-0.12059419
-0.11425599
-0.10786134
-0.1014638
-0.095109928
-0.088842431
-0.082700431
-0.076718405
-0.070925919
-0.065347815
-0.060004371
-0.054911467
-0.050080815
-0.045520249
-0.041234043
-0.037223239
-0.033485996
-0.030017935
-0.026812489
-0.023861251
-0.021154298
-0.018680511
-0.016427873
-0.014383744
-0.012535121
-0.010868862
-0.0093719095
-0.0080314627
-0.0068351964
-0.0057712756
-0.0048289531
-0.0039973243
-0.0032696075
-0.002631011
-0.0020940711
-0.0015984582
-0.0012873678
-0.00075163095
-0.0010192924
0.00064973924
-0.15507673
-0.15380205
-0.15198814
-0.14875698
-0.1449255
-0.1409074
-0.13655871
-0.13179713
-0.12670593
-0.12136811
-0.11582692
-0.11012543
-0.10431663
-0.098452916
-0.092581766
-0.086747161
-0.08098996
-0.075347035
-0.069850779
-0.064529104
-0.059405501
-0.054499124
-0.049824938
-0.045393958
-0.041213505
-0.037287512
-0.03361684
-0.030199613
-0.027031559
-0.024106345
-0.021415916
-0.01895081
-0.016700469
-0.014653523
-0.01279806
-0.011121869
-0.0096126688
-0.0082582989
-0.0070469389
-0.005967163
-0.0050084438
-0.0041602
-0.0034151828
-0.0027598678
-0.0022023178
-0.0016928974
-0.0013405585
-0.00082476147
-0.0009061621
0.00040730128
-0.14327778
-0.14121324
-0.13951461
-0.13755771
-0.13489733
-0.13171568
-0.12815454
-0.12421801
-0.11992808
-0.11534054
-0.1105063
-0.10547012
-0.10028048
-0.09498742
-0.089638209
-0.084277054
-0.078945449
-0.073681667
-0.06852017
-0.063491365
-0.058621535
-0.053932825
-0.049443306
-0.045167117
-0.041114667
-0.037292878
-0.033705467
-0.030353245
-0.027234436
-0.024345006
-0.021678985
-0.019228786
-0.016985519
-0.014939281
-0.013079435
-0.011394864
-0.009874211
-0.008506086
-0.0072792859
-0.0061828865
-0.0052066626
-0.0043403991
-0.0035764673
-0.0029025093
-0.0023224638
-0.0017964801
-0.0014017621
-0.00090005957
-0.00080353371
0.00017210173
-0.13057209
-0.12863821
-0.12728833
-0.12624348
-0.12454685
-0.12217521
-0.11937474
-0.1162172
-0.1126994
-0.10885083
-0.10472144
-0.10035761
-0.095802348
-0.091100633
-0.086298372
-0.081439228
-0.076564326
-0.071712197
-0.066918361
-0.06221491
-0.057630262
-0.053189039
-0.04891203
-0.044816245
-0.040915025
-0.037218223
-0.033732422
-0.03046119
-0.027405365
-0.024563354
-0.021931438
-0.019504087
-0.017274258
-0.015233698
-0.013373215
-0.011682951
-0.010152626
-0.0087717547
-0.0075298736
-0.0064166622
-0.0054222932
-0.0045369672
-0.0037527918
-0.0030584466
-0.0024542456
-0.0019088846
-0.0014714807
-0.0009767867
-0.00071750404
-4.6109759e-05
-0.11767559
-0.1163228
-0.1154621
-0.11507307
-0.11413208
-0.11249592
-0.11040652
-0.10796643
-0.1051689
-0.10202572
-0.098578982
-0.094873049
-0.090947737
-0.086842343
-0.082598034
-0.078256768
-0.073858656
-0.069441543
-0.065040924
-0.060689603
-0.056417312
-0.052250458
-0.048211985
-0.044321328
-0.040594433
-0.037043859
-0.033678919
-0.030505883
-0.027528205
-0.024746788
-0.022160262
-0.019765269
-0.017556755
-0.015528261
-0.013672198
-0.011980115
-0.010442951
-0.0090512645
-0.0077954553
-0.0066659147
-0.0056533179
-0.0047483395
-0.0039429593
-0.0032267581
-0.0025970306
-0.0020295804
-0.0015499599
-0.0010544723
-0.00065336487
-0.00023802955
-0.10513126
-0.10444551
-0.10410103
-0.10420609
-0.10385325
-0.10285457
-0.10140701
-0.09961436
-0.097473176
-0.094985726
-0.092184335
-0.089107994
-0.085792047
-0.082271484
-0.078582782
-0.074763502
-0.070851435
-0.066883051
-0.06289297
-0.058913748
-0.054975533
-0.05110573
-0.047328755
-0.04366589
-0.040135218
-0.036751634
-0.033526913
-0.030469838
-0.027586372
-0.02487987
-0.022351312
-0.019999563
-0.017821638
-0.015812974
-0.013967701
-0.012278903
-0.010738866
-0.0093393144
-0.008071634
-0.0069270359
-0.0058968064
-0.00497216
-0.0041450977
-0.003405977
-0.002749732
-0.0021577864
-0.0016371003
-0.0011329668
-0.00061481378
-0.00039607956
-0.093224559
-0.093125141
-0.093249307
-0.093742088
-0.093850668
-0.093386991
-0.092500245
-0.091280475
-0.089726493
-0.087835821
-0.085631699
-0.083146091
-0.080409078
-0.077450544
-0.074302532
-0.070998429
-0.067572028
-0.064057189
-0.060486919
-0.056892746
-0.053304391
-0.049749448
-0.046253073
-0.042837747
-0.039523132
-0.036325991
-0.033260182
-0.030336708
-0.027563828
-0.024947203
-0.022490085
-0.02019353
-0.018056636
-0.016076785
-0.014249897
-0.012570678
-0.011032865
-0.0096294554
-0.0083529271
-0.0071954139
-0.00614892
-0.0052052712
-0.0043566421
-0.0035940702
-0.0029107904
-0.0022924475
-0.0017324055
-0.00121237
-0.00060336929
-0.00051556288
-0.082095699
-0.082452439
-0.082959165
-0.083754594
-0.084224074
-0.084197612
-0.083786308
-0.08306235
-0.082024131
-0.080666259
-0.079004326
-0.077062927
-0.074866378
-0.072439283
-0.069808576
-0.067003298
-0.064053341
-0.060988922
-0.057840398
-0.054637541
-0.051408928
-0.048181587
-0.044980683
-0.041829231
-0.038747866
-0.03575469
-0.032865193
-0.030092228
-0.027446047
-0.024934396
-0.022562635
-0.020333912
-0.018249352
-0.01630827
-0.014508399
-0.012846117
-0.011316678
-0.0099144332
-0.0086330414
-0.0074656496
-0.006405078
-0.0054438378
-0.0045744266
-0.003788501
-0.0030782186
-0.0024322389
-0.001834964
-0.0012928846
-0.00061806699
-0.00059550186
-0.071805075
-0.072489865
-0.073283038
-0.074303527
-0.07504821
-0.075368952
-0.07534872
-0.075043103
-0.074448402
-0.073556807
-0.072377582
-0.070928395
-0.069227687
-0.067294743
-0.065151305
-0.062821543
-0.060331175
-0.057706708
-0.054975131
-0.05216363
-0.049298957
-0.046406907
-0.043511976
-0.040637048
-0.037803116
-0.035029064
-0.032331516
-0.029724742
-0.027220636
-0.024828729
-0.022556265
-0.020408314
-0.018387915
-0.016496249
-0.014732832
-0.013095721
-0.011581717
-0.010186574
-0.0089052003
-0.0077318282
-0.0066601805
-0.0056835261
-0.0047948252
-0.0039863319
-0.0032496778
-0.0025755836
-0.001943459
-0.0013746403
-0.0006555414
-0.00063893403
-0.062364566
-0.063270187
-0.064261097
-0.065435608
-0.066380039
-0.066966758
-0.06725786
-0.067295187
-0.067072585
-0.066580101
-0.065821773
-0.064809134
-0.063555051
-0.062073636
-0.060381543
-0.058498021
-0.056444246
-0.054242742
-0.051916952
-0.049490911
-0.046988874
-0.044434791
-0.041851868
-0.039262233
-0.03668663
-0.034144157
-0.031652047
-0.029225526
-0.026877716
-0.024619593
-0.022460001
-0.020405705
-0.01846149
-0.016630283
-0.014913309
-0.013310261
-0.011819485
-0.010438158
-0.0091624749
-0.0079878076
-0.0069088528
-0.0059197058
-0.0050139147
-0.0041843455
-0.0034225661
-0.0027206733
-0.0020562004
-0.0014575223
-0.00071052385
-0.0006524665
-0.053759344
-0.054801632
-0.055915754
-0.057182311
-0.058260781
-0.059041731
-0.059571431
-0.059880828
-0.059961722
-0.059802469
-0.059402891
-0.058769323
-0.057909651
-0.056833198
-0.055551814
-0.054079986
-0.052434342
-0.050633191
-0.04869619
-0.046643993
-0.044497889
-0.042279423
-0.040009958
-0.037710298
-0.035400362
-0.033098895
-0.030823215
-0.02858901
-0.02641019
-0.024298788
-0.022264916
-0.020316763
-0.018460636
-0.016701042
-0.015040793
-0.013481141
-0.012021928
-0.010661743
-0.0093980807
-0.0082274858
-0.0071456825
-0.0061476531
-0.0052276441
-0.0043791747
-0.003594116
-0.002865504
-0.0021711924
-0.0015410622
-0.00077670002
-0.00064510141
-0.045958596
-0.047073253
-0.048251333
-0.049558915
-0.050716161
-0.051629732
-0.052333827
-0.052850943
-0.053171532
-0.053282871
-0.053181557
-0.052869721
-0.052351032
-0.051630609
-0.050715964
-0.049617167
-0.048346493
-0.046918081
-0.045347678
-0.04365237
-0.041850241
-0.039960031
-0.03800079
-0.035991498
-0.033950729
-0.031896347
-0.029845229
-0.027813028
-0.025813981
-0.02386076
-0.021964375
-0.020134119
-0.018377557
-0.016700559
-0.015107358
-0.013600643
-0.012181673
-0.010850402
-0.0096056058
-0.0084450147
-0.0073654143
-0.0063627248
-0.0054319831
-0.0045674211
-0.0037614867
-0.0030079214
-0.0022862318
-0.0016244128
-0.00084773873
-0.00062654494
-0.038920915
-0.040060131
-0.041257055
-0.042565898
-0.043757356
-0.044752356
-0.045575988
-0.046244331
-0.046747198
-0.047071442
-0.047211386
-0.047165949
-0.046935429
-0.046521453
-0.045927806
-0.045160636
-0.044228237
-0.043140809
-0.041910286
-0.040550137
-0.039075112
-0.037500931
-0.035843992
-0.034121048
-0.032348885
-0.03054401
-0.028722374
-0.026899111
-0.025088319
-0.023302874
-0.021554283
-0.01985259
-0.018206313
-0.016622425
-0.01510637
-0.013662113
-0.012292207
-0.010997887
-0.0097791691
-0.0086349499
-0.0075630913
-0.006560487
-0.0056230373
-0.0047457522
-0.003921847
-0.0031456821
-0.0023990335
-0.0017064136
-0.00091824901
-0.00060543617
-0.032598851
-0.033728325
-0.034911143
-0.036191796
-0.037383037
-0.0384184
-0.0393162
-0.040087757
-0.040722852
-0.041208507
-0.04153764
-0.041706884
-0.041714014
-0.041557928
-0.041239373
-0.040761187
-0.040128183
-0.039347007
-0.038426039
-0.037375276
-0.036206138
-0.034931248
-0.033564175
-0.032119168
-0.030610876
-0.029054061
-0.027463319
-0.025852821
-0.02423608
-0.022625739
-0.021033396
-0.019469466
-0.01794308
-0.01646202
-0.015032693
-0.01366013
-0.012348022
-0.011098767
-0.0099135403
-0.0087923601
-0.0077341534
-0.006736805
-0.0057971289
-0.0049109735
-0.0040724422
-0.0032765195
-0.0025073591
-0.0017857135
-0.00098440437
-0.00058797845
-0.026942338
-0.028038602
-0.02918441
-0.03041627
-0.031581898
-0.032625888
-0.033561578
-0.034396832
-0.035121872
-0.035724361
-0.036196541
-0.036533581
-0.03673152
-0.036787272
-0.036699256
-0.03646766
-0.036094401
-0.035583062
-0.034938865
-0.034168608
-0.033280562
-0.032284306
-0.031190544
-0.030010887
-0.028757623
-0.027443476
-0.026081346
-0.024684061
-0.023264145
-0.0218336
-0.02040371
-0.018984879
-0.017586494
-0.016216824
-0.014882953
-0.013590743
-0.012344819
-0.011148591
-0.010004274
-0.0089129359
-0.007874528
-0.0068879184
-0.0059508603
-0.005060085
-0.0042106502
-0.0033982153
-0.0026091266
-0.0018609108
-0.0010440933
-0.00057735016
-0.021900994
-0.022949092
-0.024043069
-0.025212835
-0.026335173
-0.027364301
-0.02830992
-0.029177425
-0.029957803
-0.030639695
-0.031215239
-0.031678819
-0.03202542
-0.032250646
-0.032351265
-0.032325471
-0.032172897
-0.031894618
-0.031493169
-0.030972547
-0.030338162
-0.029596747
-0.028756233
-0.027825593
-0.026814667
-0.025733962
-0.02459444
-0.02340729
-0.022183713
-0.020934708
-0.019670875
-0.018402235
-0.017138074
-0.015886815
-0.014655915
-0.013451795
-0.012279788
-0.011144122
-0.010047909
-0.0089931517
-0.0079807569
-0.0070105406
-0.0060811913
-0.005190346
-0.0043340399
-0.0035086706
-0.0027024814
-0.001930668
-0.001096615
-0.0005739714
-0.017426006
-0.018417518
-0.01945118
-0.020551393
-0.021619131
-0.022616929
-0.023551826
-0.024427467
-0.025235792
-0.025966623
-0.026612411
-0.027167275
-0.027625701
-0.027982556
-0.028233556
-0.028375504
-0.028406348
-0.028325215
-0.028132472
-0.027829766
-0.027420032
-0.026907454
-0.026297401
-0.025596329
-0.024811662
-0.023951639
-0.02302515
-0.02204155
-0.021010466
-0.019941603
-0.018844556
-0.017728628
-0.016602668
-0.015474923
-0.014352916
-0.01324334
-0.012151986
-0.011083681
-0.010042254
-0.009030506
-0.008050194
-0.0071020166
-0.0061855643
-0.0052993742
-0.004440452
-0.0036059871
-0.0027858355
-0.0019937859
-0.0011421203
-0.00057639228
-0.013471194
-0.014402614
-0.015372341
-0.016400111
-0.01740707
-0.018362903
-0.019272675
-0.020138787
-0.020954207
-0.021710034
-0.022399296
-0.023016225
-0.023555223
-0.024010877
-0.024378344
-0.024653564
-0.024833334
-0.024915368
-0.024898375
-0.024782135
-0.024567532
-0.024256572
-0.023852359
-0.023359053
-0.022781802
-0.022126639
-0.021400361
-0.020610399
-0.01976465
-0.018871318
-0.017938742
-0.01697523
-0.015988895
-0.014987506
-0.013978352
-0.012968118
-0.011962788
-0.010967557
-0.0099867664
-0.0090238495
-0.0080812841
-0.0071605557
-0.0062620926
-0.005385299
-0.0045281196
-0.0036885686
-0.002857896
-0.0020492493
-0.0011810589
-0.00058236846
-0.0099945597
-0.010865921
-0.011771665
-0.012727521
-0.013671483
-0.014579364
-0.015454739
-0.016299105
-0.017106453
-0.017869155
-0.018580968
-0.019236481
-0.019830306
-0.020357082
-0.020811789
-0.02118993
-0.021487608
-0.021701593
-0.021829412
-0.021869437
-0.021820945
-0.021684158
-0.021460269
-0.021151433
-0.020760745
-0.020292186
-0.01975055
-0.019141346
-0.018470689
-0.017745164
-0.016971688
-0.016157362
-0.015309327
-0.014434613
-0.013540007
-0.012631919
-0.011716271
-0.010798388
-0.009882913
-0.0089737253
-0.008073871
-0.0071855017
-0.0063097937
-0.0054469566
-0.0045958241
-0.0037552421
-0.0029177075
-0.0020962665
-0.0012138292
-0.00058972721
-0.0069581466
-0.0077721121
-0.008616526
-0.0095036404
-0.01038554
-0.011243261
-0.012079226
-0.012894253
-0.013683291
-0.01443992
-0.01515868
-0.015834656
-0.016462847
-0.017038172
-0.017555707
-0.01801084
-0.018399339
-0.018717424
-0.01896185
-0.019129998
-0.01921995
-0.019230549
-0.019161441
-0.019013109
-0.018786878
-0.018484902
-0.018110136
-0.017666272
-0.017157675
-0.016589289
-0.015966531
-0.015295168
-0.014581197
-0.013830712
-0.013049777
-0.012244297
-0.011419899
-0.010581813
-0.0097347712
-0.0088829098
-0.0080296766
-0.0071777506
-0.0063289431
-0.0054841858
-0.0046431313
-0.0038054386
-0.0029647507
-0.0021343427
-0.0012406921
-0.00059683606
-0.0043297587
-0.0050905326
-0.0058779408
-0.0067011584
-0.0075240512
-0.0083320971
-0.0091268048
-0.009908458
-0.010672862
-0.011414699
-0.01212928
-0.01281224
-0.013459059
-0.014065063
-0.014625602
-0.015136174
-0.01559248
-0.015990488
-0.016326513
-0.016597302
-0.016800105
-0.016932752
-0.016993704
-0.016982109
-0.016897827
-0.016741458
-0.016514336
-0.016218511
-0.015856716
-0.015432312
-0.014949219
-0.014411824
-0.013824891
-0.013193446
-0.012522671
-0.011817784
-0.011083922
-0.010326021
-0.0095487116
-0.0087561997
-0.0079521685
-0.0071396761
-0.0063210435
-0.005497821
-0.0046703965
-0.003839196
-0.0029989291
-0.0021632674
-0.0012617838
-0.00060266503
-0.0020838423
-0.0027972247
-0.0035335797
-0.0042994499
-0.0050684861
-0.005829887
-0.0065844191
-0.0073319316
-0.0080689676
-0.0087911762
-0.0094945804
-0.010175359
-0.010829498
-0.011452786
-0.012040943
-0.012589711
-0.013094903
-0.013552455
-0.013958493
-0.014309405
-0.014601919
-0.014833167
-0.015000752
-0.015102804
-0.015138035
-0.015105773
-0.015005994
-0.014839325
-0.014607046
-0.014311067
-0.013953892
-0.013538568
-0.013068613
-0.012547937
-0.011980754
-0.011371476
-0.010724612
-0.010044654
-0.0093359649
-0.0086026645
-0.0078485142
-0.0070768076
-0.0062902439
-0.0054908794
-0.0046797374
-0.0038579423
-0.0030211865
-0.0021835944
-0.0012775694
-0.00060687441
-0.00019624726
-0.00086805834
-0.0015595716
-0.0022749463
-0.0029959059
-0.0037147633
-0.0044316812
-0.0051461402
-0.0058552956
-0.0065556174
-0.0072437547
-0.0079163867
-0.0085699803
-0.0092007854
-0.009804922
-0.010378445
-0.010917381
-0.011417769
-0.011875716
-0.012287462
-0.012649439
-0.012958339
-0.013211177
-0.013405352
-0.013538709
-0.013609587
-0.013616864
-0.01355999
-0.013439007
-0.013254557
-0.013007876
-0.012700769
-0.01233557
-0.011915093
-0.011442563
-0.010921537
-0.010355817
-0.0097493451
-0.009106102
-0.00842999
-0.0077247178
-0.0069936824
-0.0062398359
-0.0054656226
-0.0046725939
-0.0038624823
-0.0030318679
-0.002195308
-0.0012878524
-0.00060897832
0.001329907
0.00069187313
3.7185152e-05
-0.00063656073
-0.0013175208
-0.0020004571
-0.0026850342
-0.0033704336
-0.0040543009
-0.0047337708
-0.0054060103
-0.0060681252
-0.0067170037
-0.0073493128
-0.0079615517
-0.008550096
-0.0091112231
-0.0096411467
-0.010136058
-0.010592179
-0.011005812
-0.011373402
-0.011691595
-0.011957297
-0.012167737
-0.012320526
-0.012413709
-0.012445813
-0.012415888
-0.012323532
-0.012168905
-0.011952741
-0.01167633
-0.011341493
-0.010950538
-0.010506203
-0.010011585
-0.0094700534
-0.0088851543
-0.0082605034
-0.0075996701
-0.0069060577
-0.0061827664
-0.0054325209
-0.0046572906
-0.0038593133
-0.003035939
-0.0022020916
-0.001295232
-0.00061028739
0.002535648
0.0019253864
0.0013008358
0.00066122322
1.3355927e-05
-0.00063949037
-0.0012965933
-0.0019568826
-0.0026183746
-0.0032787222
-0.0039355027
-0.0045861655
-0.0052279448
-0.0058578568
-0.0064727293
-0.0070692284
-0.0076438769
-0.0081930808
-0.0087131608
-0.0092003941
-0.0096510577
-0.01006148
-0.010428094
-0.010747495
-0.011016501
-0.011232212
-0.011392073