/*--------------------------------*- C++ -*----------------------------------*\
  =========                 |
  \\      /  F ield         | OpenFOAM: The Open Source CFD Toolbox
   \\    /   O peration     | Website:  https://openfoam.org
    \\  /    A nd           | Version:  6
     \\/     M anipulation  |
\*---------------------------------------------------------------------------*/
FoamFile
{
    version     2.0;
    format      ascii;
    class       surfaceScalarField;
    location    "81";
    object      phi;
}
// * * * * * * * * * * * * * * * * * * * * * * * * * * * * * * * * * * * * * //

dimensions      [0 3 -1 0 0 0 0];

internalField   nonuniform List<scalar> 
18180
(
0.00031885182
-0.0001634037
-0.00015544813
0.0013097019
-0.0013679136
0.00037706345
0.0030340071
-0.0033356406
0.0016113354
0.005551797
-0.0059792598
0.0034614699
0.008921412
-0.0092439093
0.0058742942
0.013197514
-0.013086128
0.0088100259
0.018428423
-0.017468435
0.012237525
0.024653147
-0.022356597
0.016131874
0.031898225
-0.027716501
0.020471422
0.040174656
-0.03351153
0.025235098
0.049475207
-0.039700811
0.03040026
0.059772485
-0.046238293
0.035941014
0.071018181
-0.053072656
0.041826961
0.083143916
-0.060148068
0.048022333
0.096064342
-0.067405898
0.054485473
0.10968297
-0.074787482
0.06116885
0.12390022
-0.082237798
0.068020549
0.13862862
-0.089709767
0.07498137
0.15386662
-0.097186225
0.081948227
-0.10466479
0.088718726
0.16981268
0.00039763668
-0.00056104039
0.001610147
-0.0025804239
0.0036905641
-0.0054160577
0.0066896709
-0.0089783665
0.010654149
-0.013208387
0.015622915
-0.018054894
0.02162311
-0.02346863
0.028666135
-0.029399621
0.036744011
-0.035794377
0.045826488
-0.042594006
0.055859303
-0.049733626
0.066763977
-0.057142966
0.078439361
-0.06474804
0.090765052
-0.07247376
0.10360645
-0.080247292
0.11682083
-0.088001869
0.13026359
-0.095680559
0.14379499
-0.10324116
0.15727905
-0.11067029
-0.11789849
0.17051275
0.00048077927
-0.0010418197
0.001919305
-0.0040189496
0.0043538297
-0.0078505825
0.0078189457
-0.012443483
0.012341351
-0.017730792
0.01793444
-0.023647984
0.024593227
-0.030127417
0.032290066
-0.03709646
0.040971624
-0.044475935
0.050557582
-0.052179965
0.060941445
-0.060117489
0.071993621
-0.068195142
0.083566661
-0.076321079
0.095502232
-0.08440933
0.1076391
-0.092384158
0.11982104
-0.10018381
0.13190352
-0.10776304
0.14375711
-0.11509475
0.15525988
-0.12217306
-0.12894795
0.16630934
0.00056633988
-0.0016081595
0.0022285927
-0.0056812024
0.0050020365
-0.010624026
0.0088964844
-0.016337931
0.013909019
-0.022743327
0.020017118
-0.029756082
0.027173316
-0.037283615
0.035301867
-0.045225011
0.044297855
-0.053471923
0.054029135
-0.061911246
0.06434114
-0.070429493
0.075064209
-0.078918212
0.086022772
-0.087279642
0.097045368
-0.095431926
0.10797438
-0.10331317
0.11867435
-0.11088378
0.12903798
-0.11812667
0.13898878
-0.12504555
0.14847782
-0.13166211
-0.13797567
0.15750554
0.00065106747
-0.002259227
0.0025250198
-0.0075551548
0.0056050946
-0.013704101
0.009866952
-0.020599788
0.015268315
-0.028144689
0.021741446
-0.036229214
0.029188874
-0.044731044
0.037482564
-0.0535187
0.046466756
-0.062456116
0.055964375
-0.071408865
0.065786356
-0.080251474
0.075742853
-0.088874708
0.085654958
-0.097191748
0.09536551
-0.10514248
0.1047477
-0.11269535
0.11371059
-0.11984668
0.12220131
-0.12661738
0.13020374
-0.13304799
0.13773421
-0.13919257
-0.14509495
0.14485349
0.00073082341
-0.0029900504
0.0027927725
-0.0096171039
0.0061280219
-0.017039351
0.010669124
-0.02514089
0.016326154
-0.033801719
0.022979874
-0.042882933
0.030480115
-0.052231285
0.038648958
-0.061687544
0.047288335
-0.071095492
0.05619109
-0.080311619
0.065154008
-0.089214393
0.07399101
-0.09771171
0.082544706
-0.10574544
0.090694891
-0.11329266
0.098363027
-0.12036349
0.10551255
-0.1269962
0.11214548
-0.13325032
0.11829638
-0.13919889
0.12402481
-0.14492101
-0.15048785
0.12941771
0.00080091941
-0.0037909698
0.0030145877
-0.011830772
0.0065342779
-0.020559041
0.011242298
-0.02984891
0.016995863
-0.039555285
0.023622583
-0.049509653
0.030922968
-0.05953167
0.038678524
-0.0694431
0.046664083
-0.079081051
0.054662401
-0.088309937
0.062478717
-0.09703071
0.069953037
-0.10518603
0.076968474
-0.11276088
0.083454706
-0.1197789
0.089386555
-0.12629534
0.094778418
-0.13238806
0.09967596
-0.13814786
0.10414665
-0.14366958
0.10827075
-0.1490451
-0.15435561
0.11213851
0.00085624115
-0.004647211
0.0031726934
-0.014147224
0.0067884938
-0.024174841
0.011531797
-0.034592213
0.017206141
-0.045229629
0.023589846
-0.055893358
0.030443536
-0.06638536
0.037523039
-0.076522602
0.044595184
-0.086153197
0.051453663
-0.095168416
0.057932172
-0.10350922
0.063912841
-0.1111667
0.069328942
-0.11817698
0.074162003
-0.12461196
0.078434432
-0.13056777
0.0821993
-0.13615293
0.085529222
-0.14147778
0.088506042
-0.1466464
0.091212616
-0.15175168
-0.15687189
0.093728892
0.000890432
-0.0055376429
0.0032488532
-0.016505646
0.0068587268
-0.027784715
0.011494134
-0.03922762
0.016908965
-0.05064446
0.022841352
-0.061825745
0.029026155
-0.072570163
0.035211428
-0.082707875
0.041175431
-0.092117201
0.046740865
-0.10073385
0.051783765
-0.10855212
0.056235893
-0.11561883
0.060080806
-0.12202189
0.063344972
-0.12787612
0.066085933
-0.13330873
0.068379753
-0.13844675
0.070309609
-0.14340764
0.071956934
-0.14829372
0.073395654
-0.1531904
-0.15816558
0.074689345
0.00089996867
-0.0064376116
0.0032338674
-0.018839544
0.0067300676
-0.031280915
0.011112468
-0.04361002
0.016094029
-0.055626022
0.021386192
-0.067117908
0.026715182
-0.077899153
0.031839811
-0.087832504
0.036566846
-0.096844236
0.040760797
-0.1049278
0.044346519
-0.11213784
0.047304734
-0.11857704
0.049662019
-0.12437918
0.051477603
-0.12969171
0.052829478
-0.1346606
0.053801953
-0.13941922
0.054476049
-0.14408173
0.054923386
-0.14874106
0.055203353
-0.15347036
0.055362023
-0.15832425
-0.00020245177
0.00020245218
-4.1019073e-10
-0.00067798163
0.00047553023
-3.7912482e-10
-0.0013428746
0.00066489324
-2.9926996e-10
-0.002132982
0.00079010769
-2.8088469e-10
-0.0029967042
0.00086372248
-2.8050717e-10
-0.0038919012
0.00089519728
-2.8054384e-10
-0.0047836577
0.00089175671
-2.7570976e-10
-0.0056424128
0.00085875532
-2.658596e-10
-0.0064424889
0.00080007633
-2.5191338e-10
-0.00716094
0.00071845134
-2.3393951e-10
-0.0077766329
0.00061569306
-2.1412311e-10
-0.0082695111
0.00049287841
-1.9117542e-10
-0.0086200152
0.00035050418
-1.6854322e-10
-0.0088086485
0.00018863344
-1.4387561e-10
-0.0088157221
7.0736224e-06
-1.2193764e-10
-0.0086213778
-0.00019434416
-9.9237791e-11
-0.0082058528
-0.00041552502
-8.1429105e-11
-0.0075490731
-0.0006567796
-6.4226278e-11
-0.0066302483
-0.00091882482
-5.4776276e-11
-0.0011880521
-0.0054421962
-5.127833e-11
-0.00018803914
0.00039049132
-0.00062521127
0.00091270235
-0.0012291371
0.0012688191
-0.0019357715
0.001496742
-0.0026929008
0.0016208518
-0.0034572028
0.0016594992
-0.0041920982
0.0016266521
-0.004865941
0.001532598
-0.0054505793
0.0013847146
-0.0059202202
0.0011880922
-0.0062505132
0.00094598605
-0.0064178084
0.00066017354
-0.0063985508
0.00033124661
-0.0061688012
-4.1116147e-05
-0.0057039105
-0.00045781714
-0.004978439
-0.00091981567
-0.0039663725
-0.0014275915
-0.002641043
-0.0019821092
-0.00097497809
-0.0025848897
-0.0032061083
0.0010430781
-0.00015897566
0.00054946697
-0.00051903652
0.0012727632
-0.0010010296
0.0017508122
-0.0015416245
0.0020373369
-0.0020877883
0.0021670156
-0.0025941934
0.0021659044
-0.0030212724
0.002053731
-0.0033335492
0.0018448748
-0.0034982933
0.0015494588
-0.0034844431
0.0011742419
-0.0032617211
0.00072326402
-0.002799914
0.0001983664
-0.0020682384
-0.00040042901
-0.0010348267
-0.0010745278
0.00033370252
-0.0018263464
0.0020725219
-0.0026586351
0.0042185553
-0.0035736249
0.0068101712
-0.0045737251
0.0098871137
-0.0056618322
-0.0067877082
0.013468714
-0.00011759229
0.00066705926
-0.00036706416
0.0015222351
-0.00067360564
0.0020573536
-0.00097490422
0.0023386355
-0.0012168549
0.0024089662
-0.0013514291
0.0023004785
-0.0013350164
0.0020373183
-0.0011269691
0.0016368276
-0.00068840542
0.001110895
1.8743612e-05
0.00046709286
0.0010325183
-0.00029051072
0.0023915777
-0.001160693
0.0041357447
-0.002144596
0.0063064878
-0.003245271
0.0089474276
-0.0044672862
0.012104893
-0.0058161008
0.015828298
-0.0072970297
0.020169838
-0.0089152651
0.02518428
-0.010676274
-0.012505482
0.030902054
-6.6907861e-05
0.00073396711
-0.00017914201
0.0016344692
-0.00026643416
0.0021446458
-0.00026744085
0.0023396421
-0.00012669116
0.0022682165
0.00020705045
0.0019667369
0.0007821132
0.0014622556
0.0016450898
0.00077385097
0.0028418064
-8.5821667e-05
0.0044181091
-0.0011092098
0.0064204267
-0.0022928283
0.0088961875
-0.0036364539
0.011894145
-0.0051425531
0.015464705
-0.0068158313
0.019660303
-0.0086628839
0.024536018
-0.010691817
0.030150458
-0.012911469
0.036566261
-0.015331068
0.043850867
-0.017960881
-0.020701274
0.052046659
-9.9597396e-06
0.00074392683
3.4651376e-05
0.001589858
0.00020018742
0.0019791097
0.00054735796
0.0019924716
0.0011332749
0.0016822995
0.0020126132
0.0010873986
0.003238575
0.00023629374
0.0048637727
-0.00085134675
0.0069408864
-0.0021629354
0.0095230379
-0.0036913613
0.012663999
-0.0054337893
0.016418295
-0.0073907497
0.02084113
-0.0095653889
0.025988228
-0.011962929
0.031915726
-0.014590382
0.03868048
-0.01745657
0.04634124
-0.020572229
0.054960715
-0.023950543
0.064609407
-0.027609573
-0.031430589
0.075338722
5.0799481e-05
0.00069312734
0.00026586139
0.0013747961
0.00070874146
0.0015362296
0.0014399529
0.0012612601
0.002518357
0.00060389543
0.0040019244
-0.00039616883
0.0059483313
-0.0017101132
0.0084153479
-0.0033183634
0.011460968
-0.0052085555
0.015143377
-0.0073737705
0.019520684
-0.0098110961
0.02465039
-0.012520456
0.030588656
-0.015503654
0.037389396
-0.018763669
0.045103348
-0.022304334
0.053777519
-0.026130742
0.063456003
-0.030250712
0.074183361
-0.034677902
0.086013574
-0.039439786
-0.044419371
0.099002356
0.0001138652
0.00057926212
0.00050878648
0.00097987482
0.0012466442
0.00079837186
0.0023880059
0.00011989836
0.0039932488
-0.0010013475
0.0061229041
-0.0025258241
0.0088376365
-0.0044248456
0.012198067
-0.0066787937
0.016264365
-0.009274854
0.021095505
-0.01220491
0.026748221
-0.015463812
0.033275684
-0.019047919
0.040725908
-0.022953878
0.049139941
-0.027177702
0.058549969
-0.031714362
0.068977684
-0.036558457
0.080434104
-0.041707132
0.092922683
-0.047166481
0.10645081
-0.052967914
-0.059031246
0.12106269
0.00017858299
0.00040067912
0.00076038413
0.00039807366
0.0018061582
-0.00024740222
0.0033762173
-0.0014501607
0.0055314256
-0.0031565558
0.0083329416
-0.0053273402
0.011841592
-0.0079334964
0.016116948
-0.01095415
0.021216041
-0.014373947
0.027191738
-0.018180607
0.034090813
-0.022362888
0.041951743
-0.026908849
0.050802274
-0.031804409
0.060656788
-0.037032216
0.071513443
-0.042571016
0.08335117
-0.048396184
0.096127466
-0.054483428
0.10977973
-0.060818746
0.12423874
-0.067426926
-0.074313183
0.13952068
0.00024523098
0.0010203681
0.0023843012
0.0043956104
0.0071133488
0.010596034
0.014900063
0.020077788
0.026175263
0.033229755
0.041267127
0.050299292
0.060321844
0.07131196
0.083226417
0.095999082
0.1095362
0.12369883
0.13822013
0.15262567
-0.0034993788
-0.0019428173
-7.6862335e-11
-0.0012750862
-0.0022242925
-1.012093e-10
0.0012083674
-0.0024834535
-1.4415666e-10
0.0038940674
-0.0026856998
-2.0522796e-10
0.0067552162
-0.0028611486
-2.8149695e-10
0.0097745234
-0.0030193068
-3.6917077e-10
0.012933067
-0.0031585429
-4.6894781e-10
0.016212835
-0.0032797673
-5.7554538e-10
0.019598137
-0.0033853023
-6.8576947e-10
0.02307477
-0.0034766316
-7.9591375e-10
0.026629459
-0.003554688
-9.0371001e-10
0.030249794
-0.0036203343
-1.0038589e-09
0.033924148
-0.0036743532
-1.0924372e-09
0.037641542
-0.003717393
-1.162977e-09
0.041391544
-0.0037500005
-1.2113e-09
0.045164203
-0.0037726573
-1.2309871e-09
0.048950001
-0.0037857971
-1.2187991e-09
0.052739822
-0.0037898196
-1.1689301e-09
0.056524927
-0.0037851046
-1.0792728e-09
0.060296952
-0.0037720239
-9.4466262e-10
0.064047903
-0.0037509498
-7.6474198e-10
0.067770165
-0.0037222616
-5.3549069e-10
0.071456515
-0.0036863497
-2.5942619e-10
0.075100132
-0.0036436176
6.5468255e-11
0.078694614
-0.0035944822
4.3146499e-10
0.082233986
-0.0035393728
8.3604056e-10
0.085712714
-0.0034787292
1.2614576e-09
0.089125711
-0.0034129985
1.6963528e-09
0.092468341
-0.003342632
2.1066177e-09
0.09573642
-0.0032680817
2.4684855e-09
0.098926214
-0.0031897971
2.7284323e-09
0.10203443
-0.003108222
2.8554668e-09
0.10505822
-0.0030237923
2.7860325e-09
0.10799515
-0.0029369341
2.5049795e-09
0.11084322
-0.0028480628
1.9672548e-09
0.1136008
-0.002757584
1.2169199e-09
0.11626669
-0.0026658948
2.657431e-10
0.11884008
-0.0025733869
-7.4089109e-10
0.12132054
-0.0024804559
-1.7203355e-09
0.12370804
-0.0023875016
-2.4385189e-09
0.12600302
-0.0022949761
-2.7998561e-09
0.12820632
-0.0022032996
-2.6356789e-09
0.1303196
-0.0021132769
-1.9587622e-09
0.13234455
-0.0020249465
-8.4889159e-10
0.13428632
-0.00194177
3.7879546e-10
0.13614416
-0.0018578438
1.2378689e-09
0.13794498
-0.0018008212
1.1173849e-09
0.1396441
-0.0016991137
-3.2724698e-10
0.14144981
-0.0018057065
-4.3271198e-09
-0.0014707116
-9.7840697e-09
0.0028659723
-0.0037657115
0.0049656903
-0.0043240105
0.0073114406
-0.0048292038
0.0098407645
-0.0052150237
0.012532607
-0.0055529909
0.01537466
-0.0058613597
0.018350195
-0.0061340787
0.021442819
-0.0063723909
0.024638525
-0.0065810076
0.027924563
-0.00676267
0.031288817
-0.006918942
0.034719821
-0.0070513379
0.038206733
-0.007161266
0.041739227
-0.0072498867
0.045307403
-0.0073181769
0.048901751
-0.0073670048
0.052513115
-0.007397161
0.056132677
-0.0074093822
0.05975195
-0.0074043769
0.063362773
-0.0073828469
0.066957325
-0.0073455026
0.070528138
-0.0072930741
0.074068106
-0.0072263181
0.07757051
-0.0071460207
0.081029025
-0.0070529977
0.084437744
-0.0069480915
0.087791181
-0.0068321669
0.091084288
-0.0067061048
0.094312451
-0.0065707955
0.097471501
-0.0064271316
0.10055771
-0.0062760018
0.10356777
-0.0061182841
0.10649882
-0.0059548415
0.1093484
-0.0057865183
0.11211448
-0.0056141386
0.1147954
-0.0054385071
0.11738992
-0.0052604131
0.11989717
-0.0050806358
0.12231667
-0.0048999632
0.12464836
-0.0047191916
0.12689261
-0.0045392245
0.12905021
-0.0043609008
0.13112277
-0.0041858284
0.13311191
-0.004014088
0.13502271
-0.0038525736
0.13685444
-0.0036895722
0.13863355
-0.0035799321
0.14031636
-0.0033819264
0.1421061
-0.0035954431
-0.0029388909
0.01504247
-0.0053394684
0.01687624
-0.0061577796
0.018932729
-0.0068856935
0.021141999
-0.0074242931
0.023492422
-0.0079034143
0.025980367
-0.008349304
0.028593229
-0.0087469407
0.031317541
-0.009096703
0.034142216
-0.0094056829
0.037057039
-0.0096774936
0.040051907
-0.0099138091
0.043116973
-0.010116404
0.046242732
-0.010287025
0.049419946
-0.010427102
0.052639609
-0.010537839
0.05589293
-0.010620326
0.059171345
-0.010675576
0.062466521
-0.010704558
0.065770366
-0.010708222
0.06907505
-0.010687531
0.072373025
-0.010643478
0.07565705
-0.010577099
0.078920208
-0.010489477
0.082155938
-0.01038175
0.085358044
-0.010255104
0.088520722
-0.01011077
0.09163857
-0.0099500153
0.094706601
-0.0097741351
0.097720244
-0.0095844388
0.10067536
-0.009382244
0.10356822
-0.009168861
0.10639552
-0.0089455879
0.10915438
-0.0087137015
0.11184231
-0.0084744521
0.11445724
-0.0082290619
0.11699745
-0.0079787255
0.11946166
-0.0077246165
0.12184892
-0.0074678958
0.12415869
-0.0072097387
0.12639084
-0.0069513356
0.12854565
-0.0066940391
0.13062386
-0.0064391073
0.13262698
-0.006188946
0.13455658
-0.0059436955
0.13641761
-0.0057136005
0.13820942
-0.0054813838
0.13995753
-0.0053280381
0.14162056
-0.0050449619
0.14339124
-0.005366114
-0.0044153221
0.032087899
-0.0065253134
0.033505843
-0.0075757232
0.035114325
-0.0084941756
0.036840371
-0.0091503398
0.038684681
-0.0097477243
0.040653572
-0.010318195
0.042739888
-0.010833257
0.044934121
-0.011290936
0.04722871
-0.011700272
0.049616443
-0.012065226
0.052089629
-0.012386995
0.05464033
-0.012667105
0.057260554
-0.012907249
0.059942278
-0.013108826
0.062677463
-0.013273024
0.065458089
-0.013400951
0.068276199
-0.013493687
0.071123947
-0.013552306
0.073993632
-0.013577906
0.076877738
-0.013571637
0.079768973
-0.013534714
0.082660305
-0.01346843
0.085544988
-0.01337416
0.0884166
-0.013253362
0.091269061
-0.013107565
0.094096659
-0.012938367
0.096894063
-0.01274742
0.099656338
-0.01253641
0.10237895
-0.012307054
0.10505779
-0.012061076
0.10768912
-0.011800194
0.11026964
-0.011526114
0.11279646
-0.011240513
0.11526704
-0.010945036
0.11767927
-0.010641294
0.12003141
-0.010330862
0.12232208
-0.010015293
0.12455031
-0.0096961238
0.12671549
-0.0093749125
0.12881739
-0.0090532429
0.13085627
-0.0087329153
0.13283277
-0.0084156098
0.13474835
-0.0081045236
0.13660454
-0.0077998836
0.1384061
-0.0075151627
0.14015261
-0.0072278913
0.14186821
-0.0070436427
0.14351502
-0.0066917736
0.14527057
-0.0071216584
-0.0059160097
0.052689551
-0.0071682047
0.053532883
-0.008419055
0.054529917
-0.0094912103
0.055614992
-0.010235415
0.056802945
-0.010935677
0.058108087
-0.011623337
0.059528946
-0.012254116
0.061060672
-0.012822662
0.06269907
-0.013338669
0.064439559
-0.013805716
0.066276637
-0.014224073
0.068204053
-0.014594521
0.070215062
-0.014918258
0.072302584
-0.015196349
0.074459295
-0.015429735
0.076677707
-0.015619363
0.078950253
-0.015766234
0.081269371
-0.015871424
0.083627566
-0.015936101
0.08601747
-0.015961541
0.088431899
-0.015949143
0.090863899
-0.015900429
0.093306781
-0.015817042
0.095754163
-0.015700744
0.098199997
-0.0155534
0.10063859
-0.015376962
0.10306463
-0.015173458
0.10547319
-0.014944966
0.10785973
-0.014693599
0.11022014
-0.014421482
0.11255068
-0.01413074
0.11484804
-0.013823475
0.1171093
-0.013501766
0.1193319
-0.013167645
0.12151372
-0.012823108
0.12365297
-0.012470111
0.12574825
-0.01211058
0.12779856
-0.011746427
0.12980324
-0.011379597
0.13176207
-0.011012066
0.13367524
-0.010646087
0.1355434
-0.010283767
0.13736796
-0.0099290875
0.13915047
-0.0095823982
0.14089556
-0.0092602466
0.14260311
-0.0089354403
0.14429562
-0.0087361557
0.14593965
-0.0083357991
0.1476939
-0.0088759122
-0.0074643046
0.075270189
-0.0070996714
0.075377765
-0.0085266312
0.075604882
-0.0097183275
0.075908098
-0.01053863
0.076315475
-0.011343054
0.07684388
-0.012151742
0.077496366
-0.012906602
0.07827288
-0.013599176
0.079171748
-0.014237538
0.080189841
-0.014823808
0.081322932
-0.015357164
0.082565746
-0.015837335
0.083912118
-0.01626463
0.08535529
-0.016639521
0.086888109
-0.016962554
0.088503147
-0.017234401
0.090192813
-0.0174559
0.09194946
-0.01762807
0.093765476
-0.017752117
0.095633361
-0.017829427
0.097545792
-0.017861573
0.099495671
-0.017850309
0.10147618
-0.017797555
0.10348083
-0.017705387
0.10550344
-0.017576017
0.10753825
-0.017411769
0.10957985
-0.017215061
0.11162326
-0.01698837
0.11366388
-0.016734223
0.11569756
-0.016455157
0.11772053
-0.016153711
0.11972945
-0.015832398
0.12172139
-0.015493699
0.12369379
-0.015140047
0.12564451
-0.014773828
0.12757178
-0.014397385
0.12947423
-0.014013024
0.13135084
-0.013623042
0.13320102
-0.013229774
0.13502455
-0.012835601
0.1368217
-0.012443231
0.13859314
-0.012055213
0.14034036
-0.011676307
0.14206499
-0.011307029
0.14377157
-0.010966826
0.14546045
-0.010624316
0.1471523
-0.010428007
0.14881885
-0.010002347
0.15059757
-0.010654631
-0.0090924074
0.098077561
-0.0061748767
0.097312639
-0.0077617092
0.096638825
-0.009044513
0.096057031
-0.0099568359
0.095603414
-0.010889437
0.095289218
-0.011837546
0.095119825
-0.012737209
0.095099256
-0.013578607
0.095227063
-0.014365345
0.095499998
-0.015096743
0.095913719
-0.015770886
0.096462836
-0.016386452
0.097140884
-0.016942678
0.097940652
-0.017439289
0.09885448
-0.017876382
0.099874421
-0.018254341
0.10099236
-0.018573844
0.10220016
-0.018835865
0.10348971
-0.019041667
0.10485306
-0.01919278
0.10628248
-0.019290987
0.10777048
-0.019338309
0.10930991
-0.019336986
0.11089397
-0.019289447
0.11251624
-0.01919829
0.11417072
-0.019066253
0.11585184
-0.018896173
0.11755444
-0.018690972
0.11927383
-0.018453616
0.12100576
-0.018187087
0.12274642
-0.017894366
0.12449242
-0.017578403
0.12624083
-0.017242106
0.12798911
-0.016888331
0.12973516
-0.016519875
0.13147726
-0.016139483
0.1332141
-0.015749864
0.13494477
-0.015353713
0.13666877
-0.014953775
0.13838602
-0.014552846
0.1400969
-0.014154111
0.14180226
-0.013760574
0.14350372
-0.013377774
0.14520314
-0.01300644
0.14690505
-0.012668739
0.14861039
-0.012329658
0.15033798
-0.012155599
0.15206519
-0.011729549
0.15390706
-0.012496502
-0.010842105
0.11924085
-0.0043530386
0.11755023
-0.0060710913
0.11591285
-0.0074071346
0.11441264
-0.0084566202
0.11308584
-0.0095626368
0.11192997
-0.010681684
0.11095053
-0.011757764
0.1101538
-0.012781877
0.10953921
-0.01375076
0.1091022
-0.014659726
0.10883696
-0.015505644
0.10873685
-0.016286342
0.10879429
-0.017000125
0.10900101
-0.017646003
0.10934829
-0.018223661
0.10982721
-0.018733269
0.11042879
-0.019175419
0.11114403
-0.019551111
0.1119641
-0.019861732
0.11288034
-0.020109021
0.11388439
-0.020295039
0.11496822
-0.020422138
0.11612417
-0.020492937
0.11734501
-0.020510282
0.11862394
-0.020477217
0.11995463
-0.020396943
0.12133124
-0.020272785
0.12274842
-0.02010815
0.1242013
-0.019906498
0.12568552
-0.019671305
0.12719718
-0.019406034
0.1287329
-0.019114117
0.13028972
-0.01879893
0.13186517
-0.018463782
0.13345722
-0.018111918
0.13506425
-0.017746517
0.1366851
-0.017370719
0.13831904
-0.016987645
0.13996573
-0.016600472
0.14162533
-0.016212445
0.14329846
-0.01582724
0.14498623
-0.015448341
0.14669053
-0.015082076
0.14841352
-0.01472943
0.1501599
-0.014415119
0.15193129
-0.014101053
0.15374473
-0.013969031
0.15558344
-0.01356826
0.15753996
-0.014453023
-0.012764663
0.13694308
-0.0017754432
0.13442669
-0.0035546985
0.13186992
-0.0048503607
0.12951483
-0.006101536
0.12738864
-0.0074364405
0.12547272
-0.0087657634
0.12376992
-0.010054965
0.12228534
-0.011297301
0.12101745
-0.012482872
0.1199605
-0.013602772
0.11910699
-0.014652137
0.1184486
-0.015627954
0.11797636
-0.01652788
0.11768075
-0.017350394
0.11755193
-0.018094844
0.11757992
-0.018761257
0.11775472
-0.019350221
0.11806645
-0.019862837
0.1185054
-0.020300684
0.11906216
-0.020665778
0.11972764
-0.020960521
0.12049317
-0.021187667
0.12135051
-0.021350281
0.12229192
-0.021451691
0.12331016
-0.021495453
0.12439852
-0.021485304
0.12555085
-0.021425112
0.12676153
-0.021318839
0.12802554
-0.021170499
0.12933835
-0.02098412
0.13069602
-0.020763708
0.13209513
-0.020513226
0.13353277
-0.020236568
0.13500654
-0.019937549
0.13651452
-0.019619903
0.1380553
-0.019287289
0.13962789
-0.018943315
0.14123181
-0.018591564
0.14286702
-0.018235686
0.14453398
-0.017879398
0.14623364
-0.017526903
0.14796749
-0.017182194
0.14973782
-0.016852403
0.15154721
-0.016538815
0.15340062
-0.016268536
0.1553005
-0.016000927
0.15726217
-0.015930702
0.15927488
-0.015580968
0.16140903
-0.016587171
-0.014919886
0.15009104
0.00075918963
0.14680338
-0.00026703583
0.14350756
-0.0015545422
0.14046146
-0.0030554404
0.13766841
-0.0046433882
0.13512216
-0.0062195134
0.13282457
-0.0077573721
0.13077573
-0.0092484626
0.12897322
-0.010680364
0.12741186
-0.01204141
0.12608383
-0.013324114
0.12497976
-0.014523883
0.12408949
-0.015637604
0.12340237
-0.016663276
0.12290745
-0.017599924
0.12259364
-0.018447447
0.12244989
-0.019206475
0.12246532
-0.01987827
0.12262931
-0.02046467
0.12293156
-0.020968031
0.12336221
-0.02139117
0.12391186
-0.021737313
0.12457162
-0.022010044
0.12533319
-0.022213255
0.12618882
-0.022351087
0.1271314
-0.022427887
0.12815443
-0.022448145
0.12925205
-0.022416452
0.130419
-0.022337451
0.13165067
-0.022215788
0.13294304
-0.022056083
0.13429271
-0.021862893
0.13569683
-0.021640693
0.13715315
-0.02139386
0.13865991
-0.021126672
0.14021594
-0.020843315
0.14182054
-0.020547913
0.14347353
-0.020244559
0.14517526
-0.01993741
0.14692655
-0.019630695
0.14872883
-0.019329182
0.15058403
-0.019037394
0.15249493
-0.018763303
0.15446462
-0.018508498
0.1564985
-0.01830242
0.15859969
-0.018102119
0.16078254
-0.018113551
0.16304047
-0.017838893
0.16542742
-0.018974127
-0.01737201
0.18896729
0.0053588123
-0.19356692
0.18515965
0.0035406058
0.18177008
0.0018350328
0.17862753
8.7105185e-05
0.17569467
-0.0017105252
0.17294646
-0.0034713084
0.17036471
-0.0051756171
0.16794043
-0.0068241795
0.16566975
-0.0084096858
0.16355053
-0.0099221967
0.16158094
-0.011354522
0.15975888
-0.012701821
0.15808173
-0.013960449
0.15654621
-0.015127757
0.15514843
-0.016202143
0.15388394
-0.017182959
0.15274784
-0.018070381
0.15173488
-0.018865303
0.15083949
-0.019569285
0.15005595
-0.020184485
0.14937838
-0.020713604
0.14880088
-0.021159816
0.14831756
-0.02152672
0.14792258
-0.021818275
0.14761023
-0.02203874
0.14737496
-0.022192619
0.14721142
-0.022284597
0.14711445
-0.022319488
0.14707918
-0.022302181
0.14710099
-0.022237591
0.14717552
-0.022130618
0.14729874
-0.02198611
0.14746689
-0.021808842
0.14767652
-0.021603496
0.14792451
-0.021374658
0.14820802
-0.021126828
0.14852455
-0.020864443
0.14887191
-0.020591918
0.14924824
-0.020313744
0.14965204
-0.020034495
0.15008219
-0.019759324
0.15053792
-0.019493128
0.15101907
-0.019244455
0.15152573
-0.01901516
0.15205946
-0.01883615
0.15262059
-0.018663242
0.153216
-0.018708966
0.15383912
-0.018462011
0.15452392
-0.019658925
-0.018069523
0.21691423
0.0087546884
-0.22031011
0.21344292
0.0070119212
0.21023271
0.0050452422
0.20713011
0.0031897072
0.20408633
0.001333248
0.20113235
-0.00051732815
0.19828506
-0.0023283277
0.19554899
-0.0040881088
0.19293006
-0.0057907487
0.1904351
-0.0074272414
0.18806935
-0.0089887671
0.18583621
-0.010468683
0.1837377
-0.011861944
0.18177455
-0.013164607
0.17994625
-0.014373836
0.17825118
-0.015487898
0.17668685
-0.016506046
0.17524996
-0.01742841
0.17393659
-0.018255918
0.17274233
-0.018990225
0.17166237
-0.019633645
0.17069163
-0.020189072
0.16982482
-0.020659916
0.16905658
-0.021050033
0.16838149
-0.021363652
0.16779419
-0.021605311
0.16728937
-0.021779786
0.16686192
-0.02189203
0.16650685
-0.021947111
0.16621941
-0.021950158
0.1659951
-0.02190631
0.16582967
-0.021820679
0.16571915
-0.02169832
0.16565987
-0.021544209
0.16564844
-0.021363236
0.16568183
-0.021160212
0.16575728
-0.020939898
0.1658724
-0.02070704
0.16602513
-0.020466473
0.16621377
-0.020223131
0.166437
-0.019982556
0.16669394
-0.019750071
0.16698419
-0.019534704
0.16730792
-0.019338882
0.16766584
-0.019194079
0.16805989
-0.019057285
0.16849122
-0.019140299
0.16896695
-0.018937744
0.16947752
-0.02016949
-0.018651235
0.24381934
0.011476325
-0.24654097
0.24097135
0.0098599098
0.23812064
0.0078959505
0.2352763
0.0060340472
0.23240127
0.0042082824
0.22951635
0.002367586
0.22665278
0.0005352445
0.22382986
-0.0012651894
0.22106353
-0.0030244147
0.21836973
-0.0047334428
0.21576234
-0.0063813789
0.21325238
-0.0079587226
0.21084848
-0.009458044
0.20855722
-0.010873348
0.20638326
-0.012199876
0.20432951
-0.013434146
0.20239735
-0.014573887
0.20058685
-0.015617916
0.19889698
-0.016566041
0.19732572
-0.017418972
0.19587032
-0.018178243
0.19452737
-0.018846118
0.19329296
-0.019425513
0.19216284
-0.01991991
0.19113246
-0.020333274
0.19019713
-0.020669973
0.18935204
-0.020934705
0.18859243
-0.021132413
0.18791354
-0.021268224
0.18731076
-0.02134738
0.18677963
-0.021375182
0.1863159
-0.021356942
0.18591552
-0.021297946
0.18557474
-0.021203431
0.18529008
-0.021078567
0.18505833
-0.020928466
0.18487664
-0.020758204
0.18474245
-0.020572858
0.18465359
-0.020377611
0.18460823
-0.020177771
0.18460494
-0.019979267
0.18464276
-0.01978789
0.18472111
-0.019613049
0.18484027
-0.019458047
0.18500017
-0.019353975
0.18520442
-0.019261533
0.18544796
-0.019383848
0.18575295
-0.019242733
0.18606029
-0.020476831
-0.019094123
0.26932196
0.013507289
-0.27135292
0.26715603
0.012025832
0.26481649
0.010235495
0.2623796
0.0084709352
0.25985335
0.0067345382
0.2572479
0.0049730284
0.2545894
0.0031937489
0.25190201
0.0014221979
0.24920575
-0.0003281522
0.24652043
-0.0020481285
0.24386537
-0.0037263164
0.24125771
-0.0053510629
0.2387122
-0.0069125333
0.23624135
-0.0084024979
0.23385548
-0.0098140056
0.23156278
-0.011141444
0.22936946
-0.012380566
0.22727995
-0.013528405
0.22529708
-0.014583175
0.22342229
-0.015544186
0.22165581
-0.016411754
0.21999679
-0.017187106
0.21844357
-0.017872289
0.21699373
-0.018470067
0.21564429
-0.018983836
0.21439184
-0.019417522
0.21323263
-0.019775498
0.21216271
-0.020062491
0.21117799
-0.020283507
0.21027435
-0.020443745
0.20944771
-0.02054854
0.20869407
-0.020603298
0.20800958
-0.020613455
0.20739059
-0.020584439
0.20683367
-0.020521652
0.20633567
-0.020430468
0.20589372
-0.020316254
0.20550527
-0.020184405
0.2051681
-0.020040443
0.20488038
-0.019890051
0.20464065
-0.019739536
0.20444795
-0.019595189
0.20430161
-0.019466709
0.20420207
-0.01935851
0.2041486
-0.019300505
0.20414622
-0.019259145
0.20418449
-0.019422123
0.20429821
-0.019356454
0.20438343
-0.020562047
-0.019374715
0.29302722
0.014836911
-0.29435684
0.2915496
0.013503447
0.28982886
0.011956234
0.28793211
0.010367691
0.28589423
0.0087724208
0.28372604
0.0071412096
0.28144598
0.0054738111
0.2790773
0.0037908847
0.2766413
0.0021078456
0.27415815
0.0004350187
0.27164807
-0.0012162367
0.26913081
-0.0028338013
0.26662471
-0.0044064321
0.26414638
-0.0059241689
0.26171059
-0.0073782115
0.25933012
-0.0087609748
0.25701576
-0.010066211
0.25477637
-0.011289015
0.25261896
-0.012425766
0.25054885
-0.013474071
0.24856979
-0.014432697
0.24668417
-0.015301485
0.24489314
-0.016081257
0.24319679
-0.016773722
0.24159433
-0.017381377
0.24008421
-0.017907402
0.23866428
-0.018355566
0.23733192
-0.018730125
0.23608414
-0.019035734
0.23491775
-0.019277354
0.23382939
-0.019460177
0.23281565
-0.019589559
0.23187315
-0.019670958
0.23099861
-0.019709892
0.23018887
-0.019711915
0.229441
-0.019682599
0.2287523
-0.019627554
0.22812036
-0.019552459
0.22754306
-0.019463149
0.22701868
-0.019365669
0.22654583
-0.019266691
0.22612366
-0.01917301
0.2257515
-0.019094553
0.22542997
-0.019036976
0.22515789
-0.019028434
0.22494128
-0.019042533
0.22476554
-0.019246376