/*--------------------------------*- C++ -*----------------------------------*\
  =========                 |
  \\      /  F ield         | OpenFOAM: The Open Source CFD Toolbox
   \\    /   O peration     | Website:  https://openfoam.org
    \\  /    A nd           | Version:  6
     \\/     M anipulation  |
\*---------------------------------------------------------------------------*/
FoamFile
{
    version     2.0;
    format      ascii;
    class       volScalarField;
    location    "81";
    object      pMean;
}
// * * * * * * * * * * * * * * * * * * * * * * * * * * * * * * * * * * * * * //

dimensions      [0 2 -2 0 0 0 0];

internalField   nonuniform List<scalar> 
9200
(
-0.41728364
-0.40445305
-0.39294834
-0.38281714
-0.3728854
-0.36314238
-0.35367753
-0.34445178
-0.33538897
-0.32641239
-0.31744783
-0.30842841
-0.29930172
-0.29003674
-0.28063338
-0.2711387
-0.26164094
-0.25223694
-0.24390816
-0.24076272
-0.43637238
-0.42109523
-0.40766236
-0.39599246
-0.38464499
-0.37358075
-0.36287949
-0.35247299
-0.34225643
-0.33213143
-0.32200936
-0.31181677
-0.3015027
-0.29104372
-0.28044812
-0.26975839
-0.25902205
-0.24825451
-0.23811897
-0.23072042
-0.45569212
-0.43797524
-0.4226793
-0.40954802
-0.39683724
-0.38446188
-0.3724821
-0.36079592
-0.34927139
-0.33779596
-0.32627895
-0.31465614
-0.30289548
-0.29099853
-0.27899846
-0.26695415
-0.25492208
-0.24292474
-0.23135867
-0.22133541
-0.47475877
-0.4546465
-0.43756507
-0.42303396
-0.40897089
-0.39523053
-0.38184892
-0.36869398
-0.35561878
-0.34251557
-0.32931485
-0.31598628
-0.30253971
-0.28902072
-0.27550196
-0.26207179
-0.24880997
-0.23576238
-0.22319867
-0.21187249
-0.49289052
-0.4705104
-0.45176935
-0.43591247
-0.42049611
-0.40530715
-0.39036181
-0.3755133
-0.36062414
-0.34562092
-0.33048558
-0.31524845
-0.29998132
-0.28478528
-0.26977604
-0.2550694
-0.24076127
-0.22690922
-0.21370307
-0.20166664
-0.50921419
-0.4847982
-0.46457955
-0.44748152
-0.43069517
-0.41394423
-0.3972427
-0.38045912
-0.36350231
-0.34636998
-0.32912652
-0.31188405
-0.29478545
-0.27798503
-0.26163032
-0.2458482
-0.23073095
-0.21632641
-0.20275916
-0.19037964
-0.52268245
-0.49657927
-0.4751245
-0.45688078
-0.43869757
-0.42025655
-0.40160222
-0.38266252
-0.36343769
-0.34403399
-0.32462259
-0.30540637
-0.28659383
-0.26837609
-0.25091016
-0.2343103
-0.21864272
-0.2039254
-0.19022047
-0.17773683
-0.53209866
-0.50478802
-0.48241098
-0.46314303
-0.4435487
-0.42330672
-0.40253875
-0.38128573
-0.35968621
-0.33798607
-0.31647552
-0.29544297
-0.27514421
-0.25578191
-0.23749629
-0.22036618
-0.20441404
-0.18961582
-0.17597277
-0.16357298
-0.53609666
-0.50811776
-0.48511755
-0.46489914
-0.44384789
-0.42170601
-0.39873377
-0.37514039
-0.3512375
-0.32742009
-0.30408533
-0.28158052
-0.26017614
-0.24005517
-0.22131625
-0.20398623
-0.18803539
-0.17339541
-0.1600112
-0.14786652
-0.53331881
-0.50513243
-0.48167277
-0.46046439
-0.4378666
-0.41377028
-0.38863704
-0.36288391
-0.33700155
-0.31151019
-0.28687182
-0.26344523
-0.24147332
-0.2210886
-0.20233058
-0.18516827
-0.16952239
-0.15528749
-0.14235964
-0.13063098
-0.29164612
-0.29566258
-0.29714645
-0.29699215
-0.29581896
-0.29377569
-0.29097278
-0.28751394
-0.28347759
-0.27892457
-0.27390562
-0.26846464
-0.26264086
-0.25647041
-0.24998762
-0.24322757
-0.23622767
-0.22901481
-0.22159321
-0.21406021
-0.29479942
-0.2983509
-0.29950291
-0.2991202
-0.29775979
-0.29556193
-0.29263471
-0.2890768
-0.28496214
-0.28034815
-0.27528264
-0.26980697
-0.26395808
-0.25776973
-0.25127329
-0.24450239
-0.23750172
-0.23029644
-0.22277839
-0.21491991
-0.30093132
-0.30358087
-0.30409047
-0.30326144
-0.30153473
-0.29903471
-0.29586457
-0.29211335
-0.2878464
-0.28311428
-0.27795897
-0.27241665
-0.26651973
-0.26029743
-0.25377561
-0.24698427
-0.23997882
-0.2327838
-0.22509345
-0.21662605
-0.30973507
-0.31110465
-0.31069035
-0.30920558
-0.30693351
-0.30397822
-0.30043687
-0.29638554
-0.29187773
-0.28695444
-0.28164926
-0.27599099
-0.27000536
-0.26371504
-0.25713835
-0.25029907
-0.24326306
-0.23606051
-0.22814152
-0.21883286
-0.32082538
-0.32061157
-0.3190305
-0.31669439
-0.31370142
-0.31013463
-0.30608549
-0.30161547
-0.29676418
-0.29156132
-0.28603029
-0.28019006
-0.27405755
-0.26764743
-0.26096924
-0.25403763
-0.24692455
-0.2396743
-0.23149112
-0.22117789
-0.33380398
-0.33177995
-0.3288315
-0.32546729
-0.32158704
-0.31725497
-0.3125591
-0.30754664
-0.30224255
-0.29666266
-0.29081769
-0.28471563
-0.27836324
-0.27176576
-0.26492309
-0.25783838
-0.25058203
-0.24321787
-0.23474101
-0.22333201
-0.34831742
-0.34432232
-0.33984717
-0.33530259
-0.33038601
-0.32514722
-0.31967486
-0.3140015
-0.30813505
-0.3020769
-0.29582441
-0.28937271
-0.28271677
-0.27585158
-0.26876784
-0.26145757
-0.25398371
-0.24643244
-0.23765612
-0.22517003
-0.36408995
-0.35801223
-0.35189025
-0.34604536
-0.33997386
-0.33371471
-0.32735765
-0.32092055
-0.31439464
-0.30776505
-0.3010132
-0.29411875
-0.28706227
-0.27982641
-0.27239265
-0.26474544
-0.25694643
-0.24912789
-0.240116
-0.2267773
-0.380921
-0.37267247
-0.36480757
-0.35756796
-0.35024589
-0.34286903
-0.33553054
-0.32823354
-0.32095026
-0.31364711
-0.30628676
-0.29883014
-0.2912391
-0.28347699
-0.27550449
-0.26728121
-0.25883659
-0.25028676
-0.24046485
-0.22598997
-0.39867445
-0.38815383
-0.37844157
-0.36970444
-0.36102112
-0.35240801
-0.34396193
-0.33566984
-0.32748358
-0.3193504
-0.31121536
-0.303024
-0.29472568
-0.28627386
-0.2776211
-0.26871455
-0.25950985
-0.24982213
-0.23809987
-0.22146152
-0.20555017
-0.19505563
-0.18464406
-0.17440995
-0.16428963
-0.15432189
-0.14456686
-0.13506264
-0.12583713
-0.11691693
-0.10832559
-0.10008192
-0.09220051
-0.084692442
-0.07756544
-0.070823989
-0.064469561
-0.058500856
-0.052914021
-0.047702865
-0.042859086
-0.038372511
-0.034231325
-0.03042232
-0.026931132
-0.023742479
-0.020840396
-0.018208456
-0.015829983
-0.01368825
-0.011766656
-0.010048898
-0.0085191114
-0.0071620039
-0.0059629726
-0.0049082057
-0.0039847847
-0.0031807568
-0.0024853078
-0.0018886299
-0.0013829017
-0.00095982269
-0.00061949924
-0.00034429389
-0.0001818122
1.5030674e-06
-0.00022327777
0.0003271877
-0.0019237543
0.0031630279
-0.20716807
-0.19619877
-0.185637
-0.17539548
-0.16522749
-0.15519654
-0.14538685
-0.13583223
-0.12655698
-0.1175885
-0.10895097
-0.10066305
-0.092739256
-0.085190732
-0.078025251
-0.071247313
-0.064858397
-0.058857203
-0.053239865
-0.048000165
-0.043129762
-0.038618432
-0.034454303
-0.030624098
-0.027113379
-0.023906785
-0.02098827
-0.018341319
-0.015949172
-0.013795012
-0.011862154
-0.010134209
-0.0085952279
-0.0072298393
-0.0060233623
-0.0049619104
-0.0040324941
-0.0032230931
-0.0025228291
-0.0019218327
-0.0014122229
-0.00098564194
-0.00064212591
-0.00036400827
-0.00019864119
-1.2947886e-05
-0.00023343574
0.00031623653
-0.0019145012
0.0031330944
-0.21039627
-0.1984409
-0.18759006
-0.17738225
-0.16713996
-0.15698937
-0.14707741
-0.1374276
-0.12805538
-0.11899087
-0.11026023
-0.10188208
-0.093870979
-0.086238464
-0.078992593
-0.07213804
-0.065676417
-0.059606517
-0.053924522
-0.048624215
-0.04369722
-0.039133243
-0.034920312
-0.031045027
-0.027492806
-0.02424813
-0.021294779
-0.01861606
-0.016195024
-0.01401467
-0.012058123
-0.010308806
-0.0087505899
-0.0073679254
-0.0061459608
-0.0050706463
-0.0041288368
-0.0033083641
-0.0025982099
-0.0019883712
-0.0014708397
-0.0010371323
-0.00068714307
-0.00040312732
-0.00023196055
-4.144199e-05
-0.0002534187
0.00029480446
-0.0018959367
0.0030737545
-0.21485835
-0.2013743
-0.19012055
-0.18007663
-0.16978976
-0.15949283
-0.14946029
-0.1396986
-0.13020493
-0.12101515
-0.1121604
-0.10365969
-0.095527963
-0.087777744
-0.080417931
-0.073453756
-0.066887264
-0.060717595
-0.054941171
-0.049551924
-0.044541541
-0.039899723
-0.035614432
-0.031672149
-0.028058131
-0.024756662
-0.021751302
-0.019025113
-0.01656089
-0.014341364
-0.01234939
-0.010568119
-0.0089811537
-0.0075726817
-0.0063275969
-0.0052316044
-0.0042713252
-0.003434368
-0.0027095036
-0.0020865264
-0.001557236
-0.0011129592
-0.00075337742
-0.00046062493
-0.00028087027
-8.3207691e-05
-0.00028256587
0.00026346136
-0.001868038
0.0029861861
-0.22009221
-0.20455099
-0.19280346
-0.18312954
-0.17289308
-0.16245829
-0.1523171
-0.142459
-0.13284739
-0.12352551
-0.11453457
-0.10589555
-0.097624188
-0.089734778
-0.082237915
-0.075140056
-0.068444189
-0.062150222
-0.056255175
-0.050753407
-0.045636894
-0.040895495
-0.036517228
-0.03248854
-0.028794576
-0.025419447
-0.022346483
-0.019558486
-0.017037955
-0.014767303
-0.012729056
-0.010906029
-0.0092814868
-0.0078392822
-0.0065639819
-0.0054409738
-0.0044565742
-0.0035981003
-0.0028540458
-0.0022139388
-0.0016693253
-0.0012112816
-0.00083920747
-0.00053507893
-0.0003441262
-0.00013716632
-0.0003199896
0.00022306345
-0.0018309787
0.002872267
-0.22555212
-0.20755049
-0.19524943
-0.18618136
-0.1761572
-0.16563624
-0.15542059
-0.14550789
-0.13581131
-0.1263753
-0.11725598
-0.10848021
-0.10006553
-0.092028665
-0.084382932
-0.077136989
-0.070295515
-0.063859792
-0.057827954
-0.052195227
-0.046954223
-0.042095246
-0.037606588
-0.033474829
-0.029685122
-0.026221487
-0.023067078
-0.020204453
-0.017615814
-0.01528324
-0.013188893
-0.011315208
-0.0096450575
-0.0081619034
-0.0068499239
-0.0056941276
-0.0046804633
-0.003795895
-0.0030285789
-0.0023677181
-0.001804548
-0.0013298377
-0.00094263911
-0.00062473961
-0.00042019899
-0.00020199387
-0.00036461184
0.00017465843
-0.0017850481
0.0027344337
-0.23071766
-0.2101108
-0.19718404
-0.18888022
-0.17929972
-0.16882291
-0.15858659
-0.14866899
-0.13894082
-0.12943111
-0.12020871
-0.11131183
-0.10276269
-0.094581221
-0.086784391
-0.079384222
-0.072388072
-0.065799369
-0.059618009
-0.053840628
-0.04846093
-0.043470024
-0.038856771
-0.034608106
-0.030709367
-0.027144603
-0.02389688
-0.020948563
-0.018281585
-0.015877692
-0.013718669
-0.011786541
-0.010063755
-0.0085333334
-0.0071790173
-0.0059853829
-0.0049379578
-0.0040232984
-0.0032291703
-0.0025443983
-0.0019598559
-0.0014659542
-0.0010613345
-0.00072757476
-0.00050732923
-0.0002761908
-0.00041522663
0.00011937567
-0.0017306145
0.0025755104
-0.23525685
-0.21257258
-0.19881422
-0.19103597
-0.18208884
-0.17189952
-0.16173732
-0.15185221
-0.14213936
-0.13260226
-0.1233091
-0.11431189
-0.1056421
-0.097324321
-0.089379723
-0.081824578
-0.074669851
-0.067921858
-0.061582855
-0.055651411
-0.050122756
-0.044989176
-0.040240396
-0.035863952
-0.031845553
-0.028169429
-0.024818663
-0.021775505
-0.019021665
-0.01653858
-0.014307665
-0.012310525
-0.010529157
-0.0089461169
-0.0075446699
-0.0063089189
-0.005223926
-0.0042757947
-0.003451854
-0.0027405049
-0.0021322127
-0.0016169866
-0.0011929969
-0.0008416036
-0.00060381423
-0.00035832296
-0.00047069531
5.8257457e-05
-0.0016681663
0.0023986357
-0.23684015
-0.21504125
-0.20071281
-0.19255224
-0.18409092
-0.17448218
-0.16459313
-0.15482319
-0.14519325
-0.13570187
-0.12640163
-0.1173534
-0.10860112
-0.10017655
-0.092105958
-0.084410664
-0.077106297
-0.070203092
-0.06370657
-0.057618038
-0.051934983
-0.046651497
-0.041758711
-0.03724522
-0.033097482
-0.029300212
-0.025836749
-0.022689413
-0.019839825
-0.017269209
-0.014958665
-0.012889411
-0.011043
-0.0094015087
-0.0079477031
-0.0066651774
-0.0055384864
-0.0045532337
-0.0036962628
-0.0029554996
-0.0023209499
-0.0017821697
-0.0013367943
-0.00096594714
-0.0007087645
-0.00044746042
-0.00053029184
-7.5275517e-06
-0.001598783
0.0022079498
-0.22758495
-0.21462024
-0.20223323
-0.19280984
-0.1843742
-0.17558682
-0.16633386
-0.15694879
-0.14760993
-0.13834955
-0.12920375
-0.12023553
-0.11150316
-0.1030506
-0.094913192
-0.087120429
-0.079695515
-0.072655255
-0.066010717
-0.059767866
-0.053928059
-0.04848854
-0.043442954
-0.038781844
-0.034493135
-0.030562586
-0.02697423
-0.023710778
-0.020753997
-0.018085061
-0.015684857
-0.013534272
-0.011614436
-0.0099069381
-0.0083940151
-0.0070587088
-0.0058850134
-0.0048579727
-0.003963882
-0.0031901265
-0.0025261901
-0.0019611088
-0.0014919193
-0.0010994523
-0.00082083629
-0.00054194261
-0.00059280812
-7.5238223e-05
-0.0015245749
0.002009412
-0.20648413
-0.20862678
-0.20168795
-0.19162693
-0.18287745
-0.17455275
-0.16578773
-0.15674258
-0.14767574
-0.13865515
-0.12971056
-0.1209016
-0.11229103
-0.10392807
-0.095852113
-0.088096486
-0.08068815
-0.073647426
-0.066988542
-0.06072028
-0.054846493
-0.0493666
-0.044276119
-0.039567187
-0.035229064
-0.031248613
-0.027610758
-0.024298917
-0.021295403
-0.01858179
-0.016139247
-0.013948836
-0.011991781
-0.010249689
-0.0087047616
-0.0073399563
-0.0061391477
-0.0050872315
-0.0041703293
-0.0033756392
-0.002692407
-0.0021094954
-0.0016233972
-0.0012153378
-0.00091943191
-0.00062809303
-0.00064722745
-0.00014180686
-0.00144405
0.0018121976
-0.19493794
-0.19817333
-0.19315309
-0.18352654
-0.17527471
-0.16783626
-0.15999342
-0.15177519
-0.14346234
-0.13513455
-0.12681435
-0.11855838
-0.11043258
-0.10249084
-0.094777349
-0.087330412
-0.080182201
-0.073358176
-0.066877483
-0.060753549
-0.054994558
-0.049603926
-0.044580818
-0.039920674
-0.035615719
-0.031655456
-0.028027143
-0.024716241
-0.021706839
-0.018982038
-0.016524311
-0.014315818
-0.012338696
-0.010575306
-0.0090084535
-0.0076215773
-0.0063989202
-0.0053256517
-0.0043880738
-0.0035735114
-0.0028711895
-0.002270094
-0.0017660923
-0.0013415556
-0.0010260644
-0.0007226111
-0.00070320238
-0.00021950532
-0.0013451634
0.001596487
-0.18497544
-0.18596187
-0.18226915
-0.17448991
-0.16723769
-0.16061844
-0.1536511
-0.14626437
-0.13870668
-0.13107528
-0.12339566
-0.11571931
-0.10811146
-0.1006284
-0.093317251
-0.086219625
-0.079371544
-0.07280264
-0.066536306
-0.060590172
-0.054976502
-0.049702609
-0.044771321
-0.040181476
-0.035928418
-0.032004484
-0.028399483
-0.025101147
-0.022095567
-0.019367598
-0.016901224
-0.014679904
-0.01268687
-0.010905397
-0.0093190453
-0.0079118616
-0.0066685683
-0.0055747038
-0.0046168288
-0.0037824623
-0.0030608493
-0.002441158
-0.0019185792
-0.0014768261
-0.0011403638
-0.00082424217
-0.00076218838
-0.00030400598
-0.0012320642
0.0013574807
-0.1740699
-0.17289425
-0.16980996
-0.16415564
-0.15824081
-0.15248687
-0.14641533
-0.1399331
-0.13320378
-0.12632824
-0.11934657
-0.11230877
-0.10527716
-0.098309138
-0.09145432
-0.08475711
-0.078256857
-0.071987023
-0.065975076
-0.060242792
-0.05480657
-0.04967775
-0.044863018
-0.040364849
-0.036181976
-0.032309849
-0.028741111
-0.025466046
-0.022473021
-0.019748894
-0.017279402
-0.015049517
-0.013043761
-0.0112465
-0.0096422009
-0.0082156514
-0.0069521677
-0.0058377529
-0.0048593055
-0.0040046014
-0.0032629529
-0.0026237445
-0.0020814957
-0.0016212923
-0.0012623431
-0.00093205344
-0.0008246683
-0.00039128278
-0.0011126717
0.0011058653
-0.16232576
-0.15971245
-0.15684921
-0.15294373
-0.14840212
-0.1435663
-0.13839156
-0.13283838
-0.12698355
-0.12091015
-0.11467249
-0.10832287
-0.10191964
-0.09551926
-0.089172741
-0.082926439
-0.076822201
-0.07089666
-0.065180914
-0.059700626
-0.054476199
-0.049523001
-0.04485167
-0.040468489
-0.036375796
-0.032572418
-0.029054107
-0.025813985
-0.022842974
-0.020130215
-0.017663455
-0.015429419
-0.013414143
-0.011603282
-0.0099823823
-0.0085371299
-0.0072535666
-0.0061182727
-0.0051185773
-0.0042425867
-0.0034797399
-0.0028196692
-0.0022562648
-0.0017759351
-0.0013927343
-0.0010461055
-0.00089135103
-0.00047966757
-0.00099262519
0.00084983036
-0.14952366
-0.14647302
-0.14391573
-0.14132568
-0.13801935
-0.13411831
-0.1298228
-0.12517226
-0.12018944
-0.11493065
-0.10945571
-0.10381888
-0.098074591
-0.092276843
-0.086476516
-0.080720696
-0.075052552
-0.069510834
-0.064129442
-0.058937285
-0.053958309
-0.0492116
-0.044711578
-0.04046828
-0.036487689
-0.032772109
-0.029320565
-0.026129212
-0.023191748
-0.020499822
-0.018043424
-0.015811257
-0.013791086
-0.011970052
-0.010334969
-0.0088725839
-0.0075698099
-0.0064139306
-0.0053928138
-0.0044949829
-0.0037100798
-0.0030280203
-0.0024421427
-0.0019400774
-0.0015310244
-0.001165676
-0.00096238708
-0.00056766152
-0.00087744388
0.00059773469
-0.13601104
-0.13332974
-0.13127709
-0.12965251
-0.12736966
-0.1243632
-0.12091129
-0.11711161
-0.11296595
-0.10850607
-0.1037889
-0.098868797
-0.093795504
-0.088618939
-0.083388457
-0.078150705
-0.072948984
-0.067822965
-0.062808297
-0.057936277
-0.053233696
-0.048722816
-0.044421445
-0.040343107
-0.036497284
-0.032889707
-0.029522696
-0.026395523
-0.023504791
-0.020844817
-0.018408012
-0.016185246
-0.0141662
-0.01233969
-0.010693974
-0.0092170201
-0.0078967657
-0.0067213297
-0.0056792359
-0.0047595208
-0.0039521182
-0.0032472688
-0.0026378667
-0.0021126263
-0.0016763697
-0.001289844
-0.0010378116
-0.00065387693
-0.00077284281
0.00035839829
-0.12247097
-0.12052065
-0.1190764
-0.11816978
-0.11670264
-0.11450551
-0.11183891
-0.1088235
-0.10545878
-0.10176008
-0.09777553
-0.093556427
-0.089148418
-0.084596148
-0.079945328
-0.075240948
-0.070525428
-0.065838228
-0.061215612
-0.056690258
-0.052290951
-0.04804241
-0.043965255
-0.040076058
-0.036387475
-0.032908456
-0.029644501
-0.026597961
-0.023768371
-0.02115279
-0.018746162
-0.016541661
-0.014531037
-0.012704939
-0.011053225
-0.0095652436
-0.0082300992
-0.0070368808
-0.0059748899
-0.0050337788
-0.0042038719
-0.003475784
-0.0028420958
-0.0022924501
-0.0018279004
-0.001417775
-0.0011176661
-0.00073738255
-0.00068406145
0.00014014774
-0.10940183
-0.10821597
-0.10737821
-0.10702865
-0.10620893
-0.10471481
-0.10275629
-0.10045011
-0.097798598
-0.094807998
-0.09151605
-0.08796784
-0.084204231
-0.08026496
-0.076191038
-0.07202394
-0.067804106
-0.063569844
-0.059356992
-0.055198584
-0.051124461
-0.04716099
-0.043330902
-0.039653235
-0.036143362
-0.0328131
-0.029670882
-0.026721981
-0.023968779
-0.021411065
-0.019046346
-0.016870173
-0.014876467
-0.013057828
-0.011405847
-0.009911389
-0.0085648577
-0.0073564412
-0.0062763394
-0.0053149266
-0.0044630228
-0.0037116742
-0.0030532948
-0.0024783061
-0.0019846781
-0.0015487292
-0.0012019515
-0.00081782786
-0.00061519461
-5.0189652e-05
-0.0970578
-0.096528576
-0.096229249
-0.09632501
-0.096022192
-0.095121524
-0.093782864
-0.092106064
-0.090094668
-0.087749973
-0.085100067
-0.082182267
-0.079031711
-0.075682834
-0.072171796
-0.068535818
-0.064811967
-0.061036382
-0.057243583
-0.053466019
-0.049733673
-0.046073708
-0.042510207
-0.039064013
-0.035752658
-0.03259037
-0.029588156
-0.026753948
-0.024092795
-0.021607104
-0.019296899
-0.017160113
-0.015192876
-0.013389817
-0.011744352
-0.010248967
-0.0088954843
-0.0076753043
-0.0065796396
-0.0055996909
-0.0047268801
-0.0039527512
-0.0032697059
-0.002668819
-0.0021456841
-0.0016820545
-0.0012905918
-0.00089541748
-0.00056870699
-0.0002081067
-0.085560018
-0.085543231
-0.085682511
-0.086130755
-0.086238514
-0.085826959
-0.08501622
-0.083886295
-0.082439311
-0.080673128
-0.078607574
-0.076271914
-0.073694975
-0.070905582
-0.067934596
-0.064814628
-0.061578797
-0.05826004
-0.054890647
-0.051501649
-0.048122321
-0.044779795
-0.041498731
-0.038301078
-0.035205908
-0.032229331
-0.02938449
-0.026681623
-0.02412818
-0.021728993
-0.019486479
-0.017400885
-0.015470536
-0.013692108
-0.012060895
-0.010571079
-0.0092159862
-0.0079883284
-0.006880432
-0.0058844219
-0.0049924265
-0.0041965602
-0.0034893677
-0.0028624901
-0.0023098251
-0.0018171685
-0.0013834021
-0.00097078614
-0.00054516619
-0.00033195443
-0.074956934
-0.075316048
-0.075788477
-0.076504129
-0.076930446
-0.076911807
-0.076538611
-0.075872764
-0.074913506
-0.073655692
-0.072112176
-0.070304639
-0.068255475
-0.065987765
-0.063526892
-0.060900432
-0.05813717
-0.055266334
-0.052317171
-0.049318496
-0.046298106
-0.043282326
-0.040295644
-0.037360403
-0.034496566
-0.03172155
-0.029050134
-0.026494444
-0.024063989
-0.021765761
-0.01960438
-0.01758227
-0.015699877
-0.01395589
-0.012347489
-0.010870586
-0.0095200716
-0.0082900417
-0.0071740208
-0.0061651461
-0.0052563496
-0.0044403939
-0.003710117
-0.0030576837
-0.0024759148
-0.0019534999
-0.0014800404
-0.0010447923
-0.00054324965
-0.00042306674
-0.065252221
-0.06587365
-0.066583672
-0.067489442
-0.068153018
-0.068440376
-0.068419511
-0.06813733
-0.067589997
-0.06676969
-0.065683411
-0.064346076
-0.062773956
-0.060984506
-0.058997664
-0.056835838
-0.054523139
-0.05208472
-0.049546325
-0.046933875
-0.044272991
-0.041588491
-0.038903979
-0.036241501
-0.033621258
-0.031061367
-0.028577705
-0.026183813
-0.02389086
-0.021707673
-0.019640811
-0.017694688
-0.015871728
-0.014172553
-0.012596188
-0.011140272
-0.0098012812
-0.008574745
-0.007455449
-0.0064376164
-0.0055150706
-0.0046813007
-0.0039295806
-0.0032525985
-0.0026426353
-0.0020904036
-0.0015799511
-0.0011182742
-0.00056003936
-0.00048540275
-0.056424473
-0.057218608
-0.058086266
-0.059115163
-0.059945271
-0.060461812
-0.060715622
-0.060741633
-0.060533464
-0.060081156
-0.05938693
-0.058459923
-0.057310895
-0.05595206
-0.054398169
-0.052666566
-0.050776607
-0.048749126
-0.046606039
-0.044369955
-0.042063746
-0.039710109
-0.037331126
-0.034947899
-0.032580227
-0.03024632
-0.027962591
-0.025743483
-0.023601382
-0.021546564
-0.019587214
-0.01772948
-0.015977577
-0.014333923
-0.012799295
-0.011373015
-0.010053134
-0.0088366297
-0.0077195892
-0.0066973783
-0.005764786
-0.0049161048
-0.0041451744
-0.0034452437
-0.0028084978
-0.0022270717
-0.0016823201
-0.0011918284
-0.00059155381
-0.00052475091
-0.04843717
-0.049334967
-0.050296478
-0.051393401
-0.052330549
-0.053010245
-0.053470153
-0.053735848
-0.053799194
-0.053648788
-0.053283141
-0.052706664
-0.051925417
-0.050946974
-0.049781361
-0.048441177
-0.046941173
-0.045297845
-0.043529118
-0.041654022
-0.039692311
-0.03766407
-0.035589322
-0.033487649
-0.031377854
-0.029277657
-0.027203435
-0.025170015
-0.023190511
-0.021276228
-0.01943661
-0.017679234
-0.016009861
-0.014432511
-0.012949581
-0.011561981
-0.010269289
-0.0090699128
-0.0079612535
-0.0069398551
-0.0060015307
-0.005141446
-0.0043541224
-0.0036334326
-0.0029718184
-0.0023624688
-0.0017860598
-0.0012656607
-0.00063340405
-0.00054765904
-0.041243948
-0.042193473
-0.043199839
-0.0443216
-0.045317638
-0.046105464
-0.046712749
-0.047157906
-0.047431828
-0.047522398
-0.047425448
-0.047141725
-0.046673484
-0.046024404
-0.045200409
-0.044209848
-0.043063213
-0.041772852
-0.04035274
-0.038818231
-0.037185754
-0.035472467
-0.033695918
-0.031873696
-0.030023096
-0.028160808
-0.026302638
-0.024463268
-0.022656051
-0.020892868
-0.019184014
-0.017538151
-0.015962285
-0.014461804
-0.013040535
-0.011700841
-0.010443732
-0.0092689938
-0.0081753239
-0.0071604544
-0.0062212615
-0.0053538416
-0.0045534969
-0.0038148009
-0.0031307203
-0.0024953058
-0.001889833
-0.0013395347
-0.00068142351
-0.00056034136
-0.034793027
-0.035756385
-0.036771289
-0.0378855
-0.038902921
-0.039754477
-0.040460367
-0.041033638
-0.041464891
-0.041741945
-0.041858895
-0.041813822
-0.04160608
-0.041236255
-0.040706889
-0.040022699
-0.039190414
-0.038218596
-0.037117493
-0.035898873
-0.034575797
-0.033162347
-0.031673338
-0.030124016
-0.028529757
-0.026905764
-0.025266789
-0.023626877
-0.021999139
-0.020395569
-0.018826894
-0.017302469
-0.015830219
-0.01441661
-0.01306667
-0.01178403
-0.010570997
-0.009428644
-0.0083569104
-0.0073546991
-0.006419963
-0.0055497705
-0.0047402827
-0.0039868517
-0.0032831633
-0.0026240571
-0.0019921123
-0.0014128107
-0.00073212802
-0.00056782315
-0.029030523
-0.0299811
-0.0309787
-0.032062216
-0.033072958
-0.033953601
-0.034718815
-0.03537771
-0.03592112
-0.036337324
-0.036619475
-0.036763872
-0.036767813
-0.036629582
-0.036349081
-0.035928078
-0.035370133
-0.034680505
-0.033866086
-0.032935305
-0.031897981
-0.030765125
-0.029548716
-0.028261458
-0.026916518
-0.025527259
-0.024106977
-0.022668648
-0.021224696
-0.019786786
-0.018365648
-0.016970938
-0.015611133
-0.014293463
-0.013023883
-0.011807068
-0.010646445
-0.0095442416
-0.0085015492
-0.0075183908
-0.0065937822
-0.0057257816
-0.0049114625
-0.0041470228
-0.0034269987
-0.002747014
-0.0020912589
-0.0014845457
-0.00078292053
-0.00057350352
-0.023902713
-0.024822785
-0.025785684
-0.026822986
-0.027807045
-0.028690733
-0.029484657
-0.030195074
-0.030813426
-0.031328827
-0.031734114
-0.032024541
-0.032196086
-0.03224545
-0.032170613
-0.031971075
-0.031647857
-0.031203475
-0.030641933
-0.02996869
-0.029190586
-0.028315714
-0.027353263
-0.026313334
-0.025206734
-0.024044753
-0.022838931
-0.021600828
-0.020341796
-0.019072771
-0.017804085
-0.016545302
-0.015305083
-0.014091084
-0.012909885
-0.011766947
-0.010666605
-0.0096120678
-0.0086054539
-0.007647821
-0.0067392018
-0.0058786344
-0.0050641295
-0.0042927774
-0.0035600447
-0.0028623633
-0.0021856023
-0.0015536125
-0.00083204375
-0.00057917185
-0.019357841
-0.020236533
-0.021153973
-0.022135651
-0.023079672
-0.023947689
-0.024747317
-0.025482771
-0.026146319
-0.026728151
-0.027221246
-0.027620388
-0.027920833
-0.02811832
-0.028209538
-0.028192363
-0.028065894
-0.027830481
-0.027487756
-0.027040659
-0.026493413
-0.025851462
-0.025121377
-0.024310732
-0.023427955
-0.022482155
-0.021482931
-0.020440177
-0.019363874
-0.018263895
-0.017149818
-0.016030752
-0.014915184
-0.013810857
-0.012724663
-0.01166257
-0.010629573
-0.0096296648
-0.0086658284
-0.0077400376
-0.0068532633
-0.0060054822
-0.0051956358
-0.0044217259
-0.0036801865
-0.0029682842
-0.0022735158
-0.0016188129
-0.00087836892
-0.00058536433
-0.015347227
-0.016178853
-0.017045191
-0.017966623
-0.018862612
-0.019702323
-0.020491154
-0.02123185
-0.021917617
-0.022539832
-0.023091922
-0.023568619
-0.02396492
-0.024276094
-0.024498072
-0.024627661
-0.024662607
-0.024601642
-0.024444555
-0.024192243
-0.023846734
-0.023411175
-0.022889788
-0.022287808
-0.021611381
-0.020867448
-0.020063602
-0.019207928
-0.018308835
-0.017374881
-0.016414599
-0.015436329
-0.014448066
-0.013457313
-0.012470968
-0.011495218
-0.010535461
-0.0095962471
-0.008681236
-0.0077931685
-0.0069338438
-0.0061041044
-0.0053037832
-0.0045317825
-0.0037855038
-0.0030630635
-0.0023534884
-0.0016789723
-0.00092114645
-0.000591861
-0.011826538
-0.012609184
-0.013422571
-0.014282739
-0.015126863
-0.015930501
-0.016697385
-0.017429197
-0.01812009
-0.018762652
-0.019350934
-0.019879898
-0.020344605
-0.020740227
-0.021062354
-0.021307183
-0.021471585
-0.021553174
-0.021550383
-0.021462539
-0.021289914
-0.021033749
-0.020696255
-0.02028059
-0.019790816
-0.019231823
-0.018609235
-0.017929297
-0.017198745
-0.016424661
-0.015614325
-0.014775065
-0.013914108
-0.013038441
-0.012154679
-0.01126895
-0.010386797
-0.0095130922
-0.0086519677
-0.0078067595
-0.0069799578
-0.006173169
-0.0053870476
-0.0046213541
-0.0038744269
-0.0031452272
-0.0024242055
-0.001733024
-0.00095982078
-0.0005981358
-0.0087561247
-0.0094907093
-0.010252171
-0.011052839
-0.011844563
-0.012608305
-0.013346527
-0.014060119
-0.014744138
-0.015392327
-0.015999442
-0.016560842
-0.017071864
-0.017527834
-0.017924307
-0.018257221
-0.018522965
-0.018718446
-0.018841172
-0.018889333
-0.018861867
-0.018758508
-0.018579817
-0.018327196
-0.01800288
-0.017609907
-0.017152064
-0.01663382
-0.016060234
-0.015436849
-0.014769574
-0.01406456
-0.013328065
-0.012566328
-0.01178544
-0.010991224
-0.010189124
-0.0093841043
-0.0085805607
-0.0077822394
-0.0069921666
-0.0062125866
-0.0054448784
-0.00468959
-0.0039459387
-0.003213703
-0.002484653
-0.0017800959
-0.00099395186
-0.00060365741
-0.0061016042
-0.0067907945
-0.0075032121
-0.0082479639
-0.0089890281
-0.0097119171
-0.010418107
-0.011107882
-0.011777116
-0.01242061
-0.01303383
-0.01361261
-0.014152681
-0.014649679
-0.015099329
-0.015497557
-0.015840563
-0.016124874
-0.016347426
-0.016505642
-0.016597503
-0.016621612
-0.016577239
-0.01646436
-0.01628368
-0.016036633
-0.01572537
-0.015352725
-0.014922161
-0.014437708
-0.013903872
-0.013325542
-0.012707885
-0.012056231
-0.011375961
-0.010672388
-0.0099506496
-0.0092155926
-0.0084716762
-0.0077228745
-0.006972586
-0.0062235531
-0.0054777622
-0.0047364555
-0.0039996488
-0.0032678883
-0.0025341596
-0.0018195473
-0.0010231848
-0.00060801539
-0.0038368568
-0.0044850325
-0.0051530051
-0.0058471693
-0.0065414538
-0.0072251422
-0.0078989319
-0.0085626309
-0.0092128215
-0.0098452369
-0.01045601
-0.011041461
-0.011597761
-0.012120934
-0.012606988
-0.013052005
-0.013452192
-0.013803939
-0.014103881
-0.014348973
-0.014536561
-0.014664443
-0.01473093
-0.014734897
-0.014675821
-0.014553814
-0.01436963
-0.014124667
-0.013820951
-0.013461096
-0.01304826
-0.012586076
-0.012078575
-0.011530098
-0.0109452
-0.010328545
-0.0096847985
-0.0090185241
-0.008334072
-0.0076354757
-0.0069263483
-0.0062097866
-0.0054882563
-0.004763583
-0.004036482
-0.0033081955
-0.0025728141
-0.0018512845
-0.001047476
-0.0006110675
-0.001934831
-0.0025466371
-0.0031752349
-0.0038246178
-0.0044768128
-0.0051242217
-0.0057669258
-0.0064043479
-0.0070336607
-0.0076513897
-0.008254259
-0.0088390468
-0.0094023565
-0.0099406152
-0.010450165
-0.010927328
-0.011368445
-0.011769924
-0.012128292
-0.012440258
-0.012702782
-0.012913128
-0.01306893
-0.013168251
-0.013209628
-0.013192123
-0.013115353
-0.01297951
-0.012785376
-0.012534312
-0.012228244
-0.011869621
-0.011461372
-0.011006837
-0.0105097
-0.0099738946
-0.0094035175
-0.0088027229
-0.0081756186
-0.0075261573
-0.0068580263
-0.0061745404
-0.0054785166
-0.0047722458
-0.0040570325
-0.0033347262
-0.0026004029
-0.001874915
-0.0010664351
-0.00061251073
-0.00040011972
-0.0009821069
-0.0015781175
-0.0021903944
-0.0028073355
-0.00342377
-0.004039286
-0.0046530063
-0.0052625782
-0.005865169
-0.0064579952
-0.0070382315
-0.0076028669
-0.008148703
-0.008672412
-0.0091705809
-0.0096397429
-0.010076412
-0.010477129
-0.010838512
-0.011157314
-0.011430477
-0.011655191
-0.011828952
-0.01194962
-0.012015472
-0.012025246
-0.011978182
-0.011874049
-0.011713168
-0.011496409
-0.01122519
-0.010901449
-0.010527607
-0.010106516
-0.009641391
-0.009135732
-0.0085932355
-0.0080176938
-0.0074128887
-0.0067824788
-0.0061298865
-0.0054581649
-0.0047699546
-0.0040670319
-0.0033517495
-0.0026200326
-0.0018926436
-0.0010815937
-0.00061318634
0.00081320462
0.00025585621
-0.00031340441
-0.00089522805
-0.0014829365
-0.0020732802
-0.0026654745
-0.0032583985
-0.0038500596
-0.0044381252
-0.0050202031
-0.0055937906
-0.0061561972
-0.0067045428
-0.0072357922
-0.0077467828
-0.0082342477
-0.0086948437