/*--------------------------------*- C++ -*----------------------------------*\
  =========                 |
  \\      /  F ield         | OpenFOAM: The Open Source CFD Toolbox
   \\    /   O peration     | Website:  https://openfoam.org
    \\  /    A nd           | Version:  6
     \\/     M anipulation  |
\*---------------------------------------------------------------------------*/
FoamFile
{
    version     2.0;
    format      ascii;
    class       surfaceScalarField;
    location    "61";
    object      phi_0;
}
// * * * * * * * * * * * * * * * * * * * * * * * * * * * * * * * * * * * * * //

dimensions      [0 3 -1 0 0 0 0];

internalField   nonuniform List<scalar> 
18180
(
0.00031925662
-0.00016420645
-0.00015505012
0.0013113233
-0.0013712013
0.00037913468
0.0030377049
-0.0033423018
0.0016159203
0.00555848
-0.005990143
0.0034693679
0.0089320307
-0.0092598371
0.0058862864
0.013213042
-0.013107892
0.0088268804
0.018449831
-0.017496784
0.012259995
0.024681359
-0.022392219
0.016160691
0.031934076
-0.027760002
0.020507285
0.04021883
-0.033563407
0.025278654
0.049528175
-0.039761431
0.030452085
0.059834447
-0.046307864
0.036001592
0.071089002
-0.053151213
0.041896658
0.083223083
-0.060235461
0.04810138
0.09615093
-0.067501793
0.054573947
0.10977564
-0.074891371
0.061266666
0.1239972
-0.08234902
0.068127456
0.13872778
-0.089827537
0.07509696
0.15396541
-0.097309636
0.082072005
-0.1047929
0.088850236
0.16990808
0.00039809769
-0.0005623041
0.0016119709
-0.0025850745
0.0036946792
-0.0054250101
0.0066970261
-0.0089924898
0.010665695
-0.013228506
0.015639576
-0.018081772
0.021645735
-0.023502943
0.028695448
-0.029441932
0.036780551
-0.035845105
0.045870543
-0.042653399
0.055910853
-0.049801741
0.066822644
-0.057219654
0.078504377
-0.064832946
0.090835253
-0.072566337
0.10368029
-0.080346827
0.11689643
-0.088107519
0.13033881
-0.095791399
0.14386751
-0.10335623
0.15734649
-0.11078862
-0.11801921
0.17057279
0.0004812938
-0.0010435979
0.0019213082
-0.0040250888
0.00435829
-0.0078619918
0.007826812
-0.012461012
0.012353521
-0.017755216
0.017951719
-0.023679969
0.024616265
-0.03016749
0.032319302
-0.037144969
0.041007221
-0.044533023
0.050599373
-0.052245551
0.060988893
-0.060191261
0.072045806
-0.068276567
0.083622291
-0.076409431
0.095559685
-0.084503731
0.10769649
-0.092483634
0.11987633
-0.10028735
0.13195459
-0.10786967
0.14380193
-0.11520356
0.15529658
-0.12228327
-0.12905897
0.16633633
0.00056690167
-0.0016104995
0.0022307392
-0.0056889263
0.0050067418
-0.010637994
0.0089046508
-0.016358921
0.013921435
-0.022772
0.020034402
-0.029792937
0.027195856
-0.037328943
0.035329755
-0.045278869
0.044330845
-0.053534113
0.05406661
-0.061981316
0.064382108
-0.070506759
0.075107337
-0.079001797
0.086066443
-0.087368537
0.097087769
-0.095525057
0.10801361
-0.10340947
0.11870852
-0.11098227
0.12906534
-0.11822649
0.13900778
-0.125146
0.14848722
-0.1317627
-0.13807616
0.15750441
0.00065166553
-0.002262165
0.0025272581
-0.0075645188
0.0056099134
-0.01372065
0.0098751596
-0.020624167
0.015280536
-0.028177376
0.021758062
-0.036270463
0.029209965
-0.044780846
0.037507862
-0.053576766
0.046495627
-0.062521878
0.055995823
-0.071481512
0.065819068
-0.080330004
0.075775272
-0.088958
0.085685382
-0.097278648
0.095392202
-0.10523188
0.10476899
-0.11278626
0.113725
-0.11993827
0.12220756
-0.12670905
0.13020088
-0.13313932
0.13772154
-0.13928336
-0.1451852
0.14483058
0.0007314423
-0.0029936072
0.0027950368
-0.0096281133
0.0061327979
-0.017058411
0.010677082
-0.025168451
0.016337712
-0.033838007
0.022995146
-0.042927896
0.030498866
-0.052284566
0.038670589
-0.061748488
0.047311895
-0.071163184
0.056215331
-0.080384947
0.065177466
-0.089292139
0.074012108
-0.097792643
0.08256187
-0.10582841
0.090706654
-0.11337666
0.098368116
-0.12044772
0.10550994
-0.12708009
0.11213442
-0.13333353
0.11827638
-0.13928128
0.12399559
-0.14500258
-0.15056876
0.12937915
0.00080154026
-0.0037951475
0.003016803
-0.011843376
0.0065388415
-0.020580449
0.011249706
-0.029879315
0.017006304
-0.039594605
0.023635899
-0.049557491
0.030938637
-0.059587305
0.038695682
-0.069505533
0.046681575
-0.079149077
0.054678872
-0.088382244
0.062492719
-0.097105987
0.069963144
-0.10526307
0.076973383
-0.11283865
0.083453322
-0.1198566
0.089378026
-0.12637243
0.094762156
-0.13246422
0.099651609
-0.13822299
0.10411405
-0.14374371
0.10822985
-0.14911838
-0.15442825
0.11208934
0.0008568428
-0.0046519902
0.0031747803
-0.014161313
0.0067926751
-0.024198344
0.011538373
-0.034625012
0.017215067
-0.045271299
0.023600714
-0.055943138
0.030455598
-0.066442188
0.037535256
-0.076585191
0.044606321
-0.086220142
0.051462393
-0.095238317
0.057937197
-0.10358079
0.063912993
-0.11123886
0.069323252
-0.11824891
0.074149748
-0.1246831
0.078415133
-0.13063781
0.082172695
-0.13622179
0.085495214
-0.14154551
0.088464641
-0.14671314
0.09116388
-0.15181762
-0.15693723
0.093672868
0.00089099121
-0.0055429813
0.0032507324
-0.016521055
0.0068623687
-0.02780998
0.011499637
-0.039262281
0.016916067
-0.050687729
0.022849445
-0.061876516
0.029034334
-0.072627078
0.035218583
-0.082769439
0.041180354
-0.092181913
0.046742365
-0.10080033
0.051780775
-0.1086192
0.056227538
-0.11568563
0.060066447
-0.12208782
0.0633242
-0.12794085
0.066058544
-0.13337216
0.06834569
-0.13850893
0.070268911
-0.14346873
0.071909674
-0.1483539
0.0733419
-0.15324985
-0.15822445
0.074629119
0.00090046452
-0.0064434458
0.0032354719
-0.018856062
0.0067330453
-0.031307553
0.011116723
-0.043645958
0.016099115
-0.055670121
0.021391354
-0.067168755
0.026719443
-0.077955167
0.031842076
-0.087892072
0.036566021
-0.096905858
0.040755891
-0.1049902
0.044336724
-0.11220003
0.047289461
-0.11863836
0.0496409
-0.12443926
0.051450462
-0.12975041
0.052796282
-0.13471798
0.053762753
-0.1394754
0.054430931
-0.14413691
0.054872424
-0.1487954
0.055146587
-0.15352401
0.055299437
-0.1583773
-0.0002026956
0.00020269544
1.8973719e-10
-0.00067876183
0.00047606611
1.4713647e-10
-0.0013443641
0.00066560216
1.1359687e-10
-0.0021352658
0.00079090165
1.1742218e-10
-0.0029997973
0.00086453136
1.2577971e-10
-0.00389576
0.00089596269
1.2889374e-10
-0.0047881879
0.00089242775
1.3164653e-10
-0.0056474731
0.00085928512
1.3010306e-10
-0.0064478925
0.0008004193
1.3056409e-10
-0.0071664536
0.00071856106
1.2681425e-10
-0.0077819741
0.00061552039
1.2649345e-10
-0.0082743441
0.00049236992
1.2136125e-10
-0.0086239449
0.00034960069
1.1998362e-10
-0.0088112135
0.00018726858
1.1258373e-10
-0.0088163862
5.1726541e-06
1.0926444e-10
-0.0086195214
-0.00019686489
9.8446298e-11
-0.0082007634
-0.00041875803
9.0496804e-11
-0.0075399364
-0.0006608271
7.5858599e-11
-0.0066161357
-0.00092380073
6.484054e-11
-0.0011940538
-0.0054220819
5.2492878e-11
-0.00018825364
0.0003909491
-0.00062588875
0.00091370125
-0.0012304108
0.0012701242
-0.0019376868
0.0014981777
-0.0026954306
0.0016222752
-0.0034602569
0.0016607891
-0.0041955297
0.0016277005
-0.004869548
0.0015333035
-0.0054541055
0.0013849767
-0.0059233517
0.0011878073
-0.0062528751
0.00094504385
-0.0064189586
0.00065845339
-0.0063979727
0.00032861483
-0.0061658949
-4.4809219e-05
-0.0056979824
-0.00046273977
-0.0049686911
-0.00092615616
-0.0039518904
-0.0014355587
-0.0026207843
-0.0019919331
-0.00094775989
-0.0025968252
-0.0032203798
0.0010785662
-0.00015913421
0.00055008334
-0.00051951792
0.001274085
-0.0010018917
0.001752498
-0.001542838
0.0020391241
-0.0020892476
0.0021686848
-0.0025957225
0.002167264
-0.0030226275
0.0020546055
-0.0033344187
0.0018450947
-0.0034982952
0.0015488532
-0.0034831199
0.0011726321
-0.0032585342
0.00072045816
-0.0027942353
0.00019415453
-0.0020593413
-0.00040627914
-0.0010218759
-0.0010822746
0.00035166253
-0.0018362782
0.0020965799
-0.0026710735
0.0042499483
-0.0035889272
0.0068502984
-0.0045922832
0.0099375477
-0.0056840745
-0.0068140271
0.013531195
-0.00011767644
0.00066775981
-0.00036728247
0.001523691
-0.00067391278
0.0020591284
-0.00097516923
0.0023403805
-0.0012168659
0.0024103815
-0.0013508948
0.002301293
-0.0013335656
0.0020372763
-0.0011241471
0.0016356763
-0.00068366913
0.0011083753
2.6032246e-05
0.00046293079
0.0010431003
-0.00029660989
0.0024063057
-0.0011690508
0.0041555921
-0.0021555655
0.0063325582
-0.0032592407
0.0089809647
-0.0044846847
0.012147292
-0.0058374006
0.015881115
-0.0073227508
0.020234807
-0.0089459748
0.02526332
-0.010712588
-0.01254799
0.030997283
-6.6908836e-05
0.00073466867
-0.00017906193
0.0016358442
-0.00026610679
0.0021461733
-0.00026661604
0.0023408898
-0.00012503382
0.0022687993
0.00020996295
0.0019662963
0.00078679502
0.0014604443
0.001652152
0.00077031937
0.0028519637
-9.14364e-05
0.0044321867
-0.0011172922
0.0064393679
-0.002303791
0.0089210603
-0.0036507432
0.011926148
-0.0051606531
0.015505173
-0.006838266
0.019710708
-0.0086902198
0.024597972
-0.010724665
0.030225709
-0.012950487
0.036656696
-0.015376962
0.043958516
-0.018014408
-0.0207632
0.052173727
-9.8776011e-06
0.0007445463
3.5035585e-05
0.001590931
0.00020116861
0.0019800403
0.00054931299
0.0019927455
0.0011366682
0.0016814442
0.0020180022
0.0010849623
0.0032466162
0.00023183028
0.004875228
-0.00085829235
0.0069566286
-0.0021728369
0.0095440554
-0.0037047189
0.0126914
-0.0054511352
0.016453308
-0.0074126513
0.020885104
-0.0095924496
0.026042625
-0.011995787
0.031982112
-0.014629706
0.038760503
-0.017503057
0.046436613
-0.020626597
0.055073186
-0.024013535
0.064740739
-0.027681961
-0.031513206
0.075490744
5.0958677e-05
0.00069358766
0.00026653424
0.0013753555
0.00071035079
0.0015362238
0.0014430011
0.0012600952
0.0025234341
0.00060101124
0.0040097151
-0.00040131862
0.0059596209
-0.0017180755
0.0084310259
-0.0033296974
0.01148203
-0.005223841
0.015170925
-0.0073936134
0.019555919
-0.0098361298
0.024694609
-0.012551341
0.030643231
-0.015541072
0.037455761
-0.018808316
0.045182962
-0.022356908
0.053871833
-0.026191928
0.063566406
-0.030321169
0.074311122
-0.034758251
0.086159781
-0.03953062
-0.044521384
0.09916796
0.00011409293
0.00057949477
0.00050972199
0.00097972649
0.0012488314
0.00079711441
0.0023920647
0.00011686193
0.0039998839
-0.0010068079
0.0061329102
-0.0025343449
0.0088519008
-0.0044370661
0.012217568
-0.0066953645
0.016290168
-0.0092964409
0.021128749
-0.012232194
0.026790104
-0.015497485
0.03332744
-0.019088676
0.040788773
-0.023002405
0.049215118
-0.027234661
0.058638577
-0.031780367
0.069080707
-0.036634058
0.08055232
-0.041792782
0.093056589
-0.047262521
0.10660053
-0.053074561
-0.059148792
0.12122794
0.00017887105
0.00040062375
0.00076155468
0.00039704291
0.0018088653
-0.00025019619
0.0033811853
-0.001455458
0.0055394549
-0.0031650774
0.0083449099
-0.0053397999
0.011858451
-0.0079506069
0.016139711
-0.010976625
0.021245769
-0.014402499
0.027229515
-0.018215939
0.03413771
-0.022405681
0.04200878
-0.026959746
0.05087037
-0.031863995
0.060736707
-0.037100998
0.071605739
-0.042649399
0.083456129
-0.048484448
0.096245049
-0.054581702
0.10990952
-0.060926988
0.12437985
-0.067544896
-0.074440563
0.13967162
0.00024557365
0.0010217513
0.0023874754
0.0044013853
0.0071225944
0.010609675
0.014919063
0.020103129
0.026207915
0.033270629
0.041317034
0.050358881
0.060391543
0.071391925
0.083316473
0.09609869
0.10964444
0.12381442
0.13834153
0.1527512
-0.0034720322
-0.0019500498
5.2807218e-11
-0.0012394615
-0.0022325707
7.7245168e-13
0.0012533862
-0.0024928476
-6.8934786e-11
0.0039495453
-0.002696159
-1.5260169e-10
0.0068222397
-0.0028726941
-2.4557373e-10
0.0098542301
-0.0030319901
-3.6061271e-10
0.013026637
-0.0031724061
-4.7674611e-10
0.016321485
-0.0032948475
-6.055221e-10
0.019723126
-0.0034016405
-7.4424936e-10
0.023217399
-0.0034942724
-8.8811e-10
0.026791078
-0.0035736782
-1.0282763e-09
0.030431803
-0.0036407234
-1.1568794e-09
0.034127999
-0.0036961952
-1.2625558e-09
0.037868748
-0.0037407473
-1.3347993e-09
0.041643682
-0.0037749324
-1.3610065e-09
0.045442923
-0.0037992396
-1.3301437e-09
0.049257035
-0.0038141113
-1.2317162e-09
0.053076993
-0.0038199571
-1.0583085e-09
0.056894163
-0.0038171686
-8.0711153e-10
0.060700294
-0.0038061309
-4.8116601e-10
0.064487526
-0.0037872318
-9.3630172e-11
0.068248394
-0.0037608682
3.3410104e-10
0.071975844
-0.0037274506
7.6556481e-10
0.075663248
-0.0036874054
1.1570983e-09
0.079304422
-0.0036411755
1.4475127e-09
0.08289364
-0.0035892201
1.5763891e-09
0.086425651
-0.0035320122
1.4681556e-09
0.089895687
-0.0034700375
1.0676507e-09
0.093299478
-0.0034037906
3.1328446e-10
0.096633251
-0.0033337728
-8.0196352e-10
0.099893744
-0.0032604903
-2.2782224e-09
0.1030782
-0.003184451
-4.0143857e-09
0.10618437
-0.0031061643
-5.895347e-09
0.10921052
-0.0030261406
-7.6583515e-09
0.11215542
-0.0029448921
-9.0489976e-09
0.11501836
-0.0028629355
-9.643381e-09
0.11779917
-0.0027807963
-9.1162499e-09
0.12049819
-0.0026990152
-7.0065993e-09
0.12311636
-0.0026181617
-3.1338573e-09
0.12565519
-0.0025388365
2.7113041e-09
0.12811692
-0.0024617402
1.0222184e-08
0.13050446
-0.002387557
1.8920392e-08
0.13282195
-0.0023175227
2.7798811e-08
0.13507381
-0.0022518887
3.5564768e-08
0.13726915
-0.0021953881
4.0580703e-08
0.13941007
-0.0021409528
4.1181061e-08
0.14153291
-0.0021228812
3.5836384e-08
0.14359029
-0.0020574049
2.4554575e-08
0.14582273
-0.0022324428
6.0296574e-09
-0.0019676124
-2.1754773e-08
0.0029089934
-0.003780477
0.0050172152
-0.0043407926
0.0073725305
-0.004848163
0.009912426
-0.0052360545
0.012615867
-0.0055761352
0.015470604
-0.0058867273
0.018459955
-0.0061617572
0.021567564
-0.0064024562
0.024779467
-0.0066135437
0.028082963
-0.0067977686
0.031465984
-0.0069566989
0.034917115
-0.0070918547
0.038425573
-0.007204653
0.04198109
-0.0072962645
0.045573837
-0.0073676786
0.049194375
-0.0074197781
0.052833635
-0.0074533707
0.05648289
-0.0074692131
0.060133759
-0.0074680371
0.063778199
-0.0074505712
0.067408524
-0.0074175567
0.071017415
-0.0073697589
0.074597939
-0.0073079745
0.078143569
-0.0072330355
0.081648203
-0.00714581
0.085106183
-0.0070471994
0.088512306
-0.0069381359
0.091861846
-0.0068195768
0.095150555
-0.0066924995
0.098374677
-0.0065578953
0.10153095
-0.0064167657
0.10461662
-0.0062701172
0.10762941
-0.0061189596
0.11056758
-0.0059643057
0.11342986
-0.0058071726
0.11621551
-0.0056485878
0.11892431
-0.0054895973
0.12155658
-0.0053312779
0.12411318
-0.0051747663
0.1265956
-0.0050212608
0.12900603
-0.0048721637
0.13134731
-0.0047288428
0.13362356
-0.0045937707
0.13583913
-0.0044674538
0.13800308
-0.0043593367
0.14011748
-0.0042553596
0.14221831
-0.0042237078
0.14425903
-0.0040981263
0.14647539
-0.0044488041
-0.0039315846
0.01511296
-0.0053622423
0.016955563
-0.0061833952
0.019021828
-0.0069144285
0.021241774
-0.0074560006
0.023603804
-0.007938165
0.026104351
-0.0083872738
0.028730861
-0.0087882678
0.03146991
-0.009141505
0.034310457
-0.0094540908
0.037242338
-0.00972965
0.040255502
-0.0099698628
0.04334016
-0.010176513
0.046486866
-0.010351358
0.049686447
-0.010495846
0.052929967
-0.010611199
0.056208716
-0.010698527
0.059514214
-0.010758869
0.062838226
-0.010793225
0.066172767
-0.010802578
0.069510129
-0.010787933
0.0728429
-0.010750328
0.076163992
-0.010690851
0.079466665
-0.010610647
0.082744549
-0.01051092
0.085991677
-0.010392937
0.089202494
-0.010258016
0.092371884
-0.010107526
0.095495185
-0.0099428771
0.098568193
-0.0097655084
0.10158718
-0.009576886
0.10454891
-0.0093784897
0.1074506
-0.0091718104
0.11028999
-0.0089583454
0.11306528
-0.008739598
0.11577519
-0.0085170805
0.11841892
-0.0082923218
0.12099621
-0.0080668821
0.1235073
-0.0078423696
0.12595302
-0.007620484
0.12833478
-0.0074030212
0.1306547
-0.0071920842
0.13291558
-0.0069897278
0.13512147
-0.0067996583
0.13727667
-0.0066226572
0.13939013
-0.0064727978
0.14146405
-0.0063292797
0.14353345
-0.0062931005
0.1455541
-0.0061187762
0.14775123
-0.0066459372
-0.0059022811
0.032191587
-0.0065565457
0.033618628
-0.0076104365
0.035236978
-0.0085327784
0.036973672
-0.0091926945
0.038829452
-0.0097939454
0.040810703
-0.010368525
0.042910326
-0.010887891
0.04511886
-0.011350039
0.047428794
-0.011764025
0.049832971
-0.012133827
0.052323758
-0.01246065
0.054893278
-0.012746032
0.057533602
-0.012991682
0.060236776
-0.013199021
0.062994837
-0.013369259
0.065799844
-0.013503534
0.068643932
-0.013602958
0.071519355
-0.013668647
0.074418522
-0.013701745
0.077334041
-0.013703452
0.08025876
-0.013675047
0.083185801
-0.013617893
0.086108599
-0.013533444
0.089020928
-0.013423249
0.091916935
-0.013288944
0.094791161
-0.013132243
0.097638566
-0.012954932
0.10045454
-0.012758853
0.10323493
-0.012545894
0.10597602
-0.012317978
0.10867458
-0.012077051
0.11132784
-0.011825073
0.11393352
-0.011564019
0.11648979
-0.011295871
0.11899534
-0.011022628
0.12144933
-0.010746313
0.12385144
-0.010468995
0.12620188
-0.010192809
0.12850141
-0.0099200186
0.13075141
-0.0096530172
0.13295394
-0.0093946109
0.13511176
-0.0091475476
0.13722886
-0.0089167643
0.13930956
-0.0087033504
0.14136264
-0.0085258797
0.14339056
-0.0083572056
0.14542696
-0.0083294963
0.14743118
-0.0081229922
0.14961301
-0.0088277718
-0.007895354
0.052825231
-0.0072080507
0.053677667
-0.0084628724
0.054684388
-0.0095394991
0.055779814
-0.01028812
0.056978853
-0.010992984
0.058295876
-0.011685548
0.059729467
-0.012321482
0.061274832
-0.012895403
0.06292783
-0.013417023
0.064683941
-0.013889938
0.06653772
-0.01431443
0.068482982
-0.014691294
0.070513049
-0.015021749
0.072620912
-0.015306884
0.074799324
-0.015547671
0.077040881
-0.015745091
0.07933811
-0.015900188
0.081683549
-0.016014087
0.084069816
-0.016088012
0.086489671
-0.016123307
0.08893607
-0.016121446
0.091402216
-0.016084038
0.0938816
-0.016012828
0.096368041
-0.015909691
0.098855719
-0.015776622
0.1013392
-0.015615723
0.10381346
-0.015429188
0.10627389
-0.015219288
0.10871635
-0.014988353
0.11113713
-0.014738759
0.11353299
-0.01447291
0.11590115
-0.014193234
0.11823931
-0.013902179
0.12054564
-0.013602201
0.1228188
-0.013295784
0.12505793
-0.012985445
0.1272627
-0.01267376
0.12943328
-0.012363395
0.13157044
-0.012057178
0.13367553
-0.011758107
0.13575062
-0.011469698
0.13779847
-0.011195403
0.1398231
-0.010941387
0.14182884
-0.010709092
0.14382439
-0.010521427
0.14581259
-0.010345406
0.14782536
-0.010342269
0.14982665
-0.010124286
0.15200703
-0.011008147
-0.0099338378
0.07543045
-0.0071477567
0.075546711
-0.0085791329
0.075782959
-0.0097757471
0.076095889
-0.01060105
0.076513658
-0.011410754
0.077053183
-0.012225073
0.077717567
-0.012985866
0.07850682
-0.013684656
0.079419329
-0.014329532
0.080452021
-0.01492263
0.081600734
-0.015463142
0.082860255
-0.015950815
0.084224489
-0.016385983
0.085686751
-0.016769146
0.087239965
-0.017100885
0.08887679
-0.017381915
0.090589727
-0.017613124
0.09237123
-0.017795589
0.094213802
-0.017930584
0.09611007
-0.018019575
0.09805285
-0.018064226
0.10003521
-0.018066395
0.1020505
-0.018028124
0.10409244
-0.017951624
0.10615508
-0.017839266
0.10823291
-0.017693551
0.11032082
-0.017517097
0.11241415
-0.017312616
0.11450869
-0.017082894
0.1166007
-0.016830769
0.1186869
-0.016559118
0.12076452
-0.016270846
0.12283122
-0.015968879
0.12488518
-0.015656162
0.12692506
-0.015335669
0.12895004
-0.01501042
0.13095978
-0.014683509
0.13295453
-0.014358141
0.13493507
-0.01403772
0.13690283
-0.013725863
0.13885994
-0.013426806
0.14080926
-0.013144724
0.14275488
-0.012887007
0.14470129
-0.012655507
0.14665714
-0.01247728
0.14862581
-0.012314071
0.15063732
-0.012353781
0.152661
-0.012147962
0.1548656
-0.013212753
-0.012049583
0.098250465
-0.006230262
0.097493347
-0.0078220141
0.096827752
-0.0091101521
0.09625473
-0.010028029
0.095810532
-0.010966556
0.095506443
-0.011920983
0.09534789
-0.012827313
0.095338958
-0.013675724
0.095479261
-0.014469835
0.095765611
-0.015208979
0.096193726
-0.015891257
0.096758281
-0.01651537
0.09745288
-0.017080582
0.098270383
-0.017586649
0.099203207
-0.018033709
0.10024349
-0.018422198
0.10138321
-0.018752849
0.10261433
-0.019026704
0.10392885
-0.019245107
0.10531895
-0.019409677
0.10677704
-0.019522307
0.10829578
-0.019585139
0.10986821
-0.019600553
0.11148773
-0.019571139
0.11314814
-0.019499678
0.1148437
-0.019389113
0.11656912
-0.019242522
0.1183196
-0.019063095
0.12009081
-0.018854104
0.12187893
-0.018618883
0.12368062
-0.018360811
0.12549307
-0.018083296
0.12731396
-0.017789768
0.12914148
-0.017483684
0.13097434
-0.017168531
0.13281178
-0.016847854
0.13465355
-0.016525282
0.13649999
-0.016204583
0.13835203
-0.015889759
0.14021123
-0.015585059
0.14207989
-0.015295468
0.14396107
-0.015025904
0.14585905
-0.014784991
0.14777858
-0.014575037
0.14972837
-0.014427066
0.15171244
-0.01429814
0.15375889
-0.014400235
0.15584289
-0.014231963
0.15811015
-0.015480013
-0.014283878
0.11941208
-0.0044144071
0.11772805
-0.0061379766
0.11609776
-0.0074798634
0.11460521
-0.008535478
0.11328669
-0.0096480432
0.11213978
-0.01077407
0.11116999
-0.011857526
0.11038368
-0.012889416
0.10978034
-0.013866496
0.10935546
-0.014784092
0.10910329
-0.015639091
0.10901726
-0.016429343
0.10908987
-0.017153185
0.10931288
-0.017809665
0.10967769
-0.018398512
0.11017544
-0.018919954
0.11079724
-0.019374646
0.1115342
-0.019763666
0.11237759
-0.020088493
0.11331888
-0.020350969
0.11434985
-0.020553277
0.11546262
-0.020697909
0.11664971
-0.020787645
0.11790409
-0.020825514
0.11921918
-0.020814769
0.12058891
-0.020758849
0.12200774
-0.02066135
0.12347064
-0.020525991
0.12497311
-0.02035658
0.12651123
-0.020156999
0.12808159
-0.019931169
0.12968134
-0.019683046
0.13130818
-0.019416607
0.13296035
-0.019135853
0.13463664
-0.018844826
0.13633641
-0.018547622
0.13805957
-0.018248445
0.13980664
-0.017951654
0.14157876
-0.017661875
0.14337773
-0.01738403
0.14520613
-0.017123869
0.14706731
-0.016887089
0.14896589
-0.016683561
0.15090695
-0.016516102
0.15289941
-0.016419527
0.15494805
-0.01634678
0.15707911
-0.01653129
0.1592738
-0.016426653
0.16165459
-0.017860803
-0.016687198
0.13709858
-0.0018413606
0.13458737
-0.0036267714
0.13203653
-0.004929027
0.12968801
-0.0061869499
0.12756895
-0.0075289916
0.12566081
-0.0088659298
0.12396648
-0.010163191
0.12249109
-0.011414031
0.12123318
-0.012608579
0.12018703
-0.013737949
0.11934524
-0.014797296
0.11869952
-0.015783631
0.11824099
-0.016694646
0.11796018
-0.017528862
0.11784735
-0.018285677
0.11789257
-0.01896518
0.11808596
-0.019568032
0.11841771
-0.02009542
0.11887824
-0.020549024
0.11945825
-0.020930979
0.1201488
-0.021243822
0.12094135
-0.021490465
0.12182786
-0.021674152
0.12280077
-0.021798419
0.12385305
-0.021867057
0.12497828
-0.021884071
0.12617056
-0.021853636
0.12742463
-0.021780062
0.12873582
-0.021667763
0.13010004
-0.021521219
0.13151382
-0.021344957
0.13297431
-0.021143534
0.13447923
-0.020921526
0.13602691
-0.020683529
0.13761627
-0.020434183
0.13924683
-0.020178186
0.14091874
-0.019920356
0.14263277
-0.019665681
0.14439035
-0.019419457
0.14619363
-0.01918731
0.14804556
-0.018975798
0.14994989
-0.018791424
0.15191167
-0.018645335
0.15393646
-0.018540898
0.1560335
-0.018516568
0.15820841
-0.018521684
0.16048566
-0.018808543
0.16285263
-0.018793622
0.16540875
-0.020416927
-0.01931812
0.15021943
0.00069040621
0.14693601
-0.00034334468
0.14364521
-0.0016382267
0.14060467
-0.0031464117
0.13781769
-0.0047420174
0.13527809
-0.0063263281
0.13298778
-0.0078728789
0.1309469
-0.0093731525
0.12915308
-0.010814756
0.12760118
-0.012186053
0.12628347
-0.013479582
0.12519062
-0.014690777
0.12431253
-0.015816563
0.12363865
-0.016854981
0.12315809
-0.017805113
0.12285984
-0.018666927
0.12273293
-0.019441131
0.1227666
-0.020129082
0.1229503
-0.020732731
0.12327389
-0.021254562
0.12372761
-0.021697543
0.12430222
-0.022065075
0.12498901
-0.022360943
0.12577985
-0.022589264
0.12666724
-0.022754445
0.1276443
-0.022861129
0.12870481
-0.022914149
0.12984323
-0.022918484
0.13105469
-0.022879221
0.13233499
-0.022801514
0.13368059
-0.022690562
0.13508864
-0.022551588
0.13655695
-0.022389828
0.13808395
-0.022210537
0.13966877
-0.022019003
0.14131117
-0.021820582
0.14301157
-0.021620753
0.14477107
-0.021425184
0.14659149
-0.021239881
0.1484754
-0.021071216
0.1504262
-0.020926599
0.15244815
-0.020813367
0.1545468
-0.020743989
0.15672827
-0.020722368
0.15900229
-0.020790588
0.16137509
-0.020894487
0.16387035
-0.021303797
0.16647892
-0.021402191
0.16928492
-0.02322293
-0.022238136
0.18916028
0.0052818331
-0.19375171
0.18536056
0.0034563761
0.18197912
0.0017432177
0.1788451
-1.2393814e-05
0.17592115
-0.0018180658
0.17318226
-0.0035874445
0.1706103
-0.0053009101
0.16819631
-0.0069591707
0.1659365
-0.0085549405
0.16382876
-0.010078315
0.16187131
-0.011522135
0.16006213
-0.01288159
0.15839864
-0.014153076
0.15687765
-0.015333995
0.15549534
-0.016422803
0.15424735
-0.01741893
0.15312885
-0.018322634
0.15213468
-0.019134915
0.1512594
-0.019857452
0.15049739
-0.020492545
0.1498429
-0.021043054
0.14929017
-0.021512344
0.14883345
-0.021904226
0.14846709
-0.022222907
0.14818558
-0.022472928
0.14798356
-0.022659114
0.14785593
-0.022786517
0.14779781
-0.02286037
0.14780463
-0.02288604
0.14787211
-0.022868987
0.14799628
-0.022814736
0.14817354
-0.022728851
0.14840064
-0.022616926
0.14867469
-0.022484588
0.1489932
-0.022337509
0.14935406
-0.022181444
0.1497556
-0.022022291
0.15019657
-0.021866153
0.1506762
-0.021719509
0.15119421
-0.021589227
0.1517509
-0.021483295
0.15234715
-0.021409616
0.15298472
-0.021381562
0.15366574
-0.021403386
0.1543948
-0.02151965
0.15517383
-0.021673513
0.15601735
-0.022147321
0.15691176
-0.022296592
0.15792535
-0.024236522
-0.023279996
0.21710071
0.0086696025
-0.22048848
0.21363789
0.0069191981
0.21043627
0.0049448322
0.20734262
0.0030812554
0.20430817
0.0012163845
0.2013639
-0.00064317574
0.19852676
-0.0024637689
0.19580133
-0.0042337354
0.19319356
-0.0059471739
0.19071036
-0.0075951199
0.18835702
-0.009168791
0.18613701
-0.01066158
0.18405242
-0.012068485
0.18210404
-0.013385619
0.18029145
-0.014610212
0.17861314
-0.015740613
0.17706667
-0.016776168
0.17564887
-0.017717117
0.17435593
-0.018564517
0.17318356
-0.019320175
0.17212709
-0.019986578
0.17118156
-0.020566821
0.17034188
-0.021064546
0.16960285
-0.021483871
0.16895925
-0.021829328
0.16840593
-0.022105799
0.16793787
-0.022318454
0.1675502
-0.022472695
0.16723826
-0.022574103
0.16699766
-0.022628391
0.16682429
-0.022641368
0.16671436
-0.022618913
0.16666439
-0.022566961
0.1666713
-0.022491497
0.16673237
-0.022398578
0.16684529
-0.022294361
0.16700816
-0.022185165
0.16721955
-0.022077547
0.16747851
-0.021978464
0.16778459
-0.021895304
0.16813792
-0.021836631
0.16853928
-0.021810976
0.16899019
-0.021832474
0.16949296
-0.02190615
0.1700511
-0.022077793
0.17066873
-0.022291146
0.17135291
-0.022831493
0.17210748
-0.023051169
0.17294753
-0.025076567
-0.024211019
0.24399314
0.011383597
-0.24670714
0.24115323
0.0097591078
0.23831077
0.0077872884
0.23547508
0.0059169472
0.23260918
0.0040822881
0.22973385
0.0022321532
0.22688032
0.00038975925
0.22406795
-0.001421365
0.22131272
-0.0031919437
0.21863063
-0.0049130261
0.2160356
-0.0065737635
0.21353872
-0.0081646969
0.21114868
-0.0096784469
0.20887214
-0.011109082
0.20671385
-0.012451918
0.2046768
-0.01370356
0.20276247
-0.01486184
0.20097105
-0.015925694
0.1993016
-0.016895067
0.19775225
-0.017770833
0.19632039
-0.018554709
0.19500274
-0.019249176
0.19379559
-0.019857396
0.19269485
-0.020383131
0.19169619
-0.020830669
0.19079514
-0.021204748
0.18998717
-0.021510483
0.18926777
-0.021753299
0.18863254
-0.021938869
0.18807721
-0.022073061
0.18759773
-0.022161889
0.1871903
-0.022211487
0.18685142
-0.022228078
0.1865779
-0.022217979
0.18636693
-0.022187604
0.18621607
-0.0221435
0.18612331
-0.022092406
0.18608709
-0.022041328
0.18610634
-0.021997708
0.1861805
-0.021969466
0.1863096
-0.021965732
0.18649435
-0.021995726
0.18673606
-0.022074185
0.18703725
-0.02220734
0.1874003
-0.022440843
0.18783172
-0.022722568
0.18833011
-0.02332988
0.1889192
-0.023640263
0.18955129
-0.025708652
-0.025005432
0.26947871
0.01340801
-0.27150312
0.26731977
0.011918041
0.26498753
0.010119533
0.26255834
0.008346137
0.2600403
0.0066003308
0.25744359
0.0048288615
0.25479435
0.0030390009
0.25211677
0.0012562095
0.2494309
-0.00050607626
0.24675663
-0.0022387499
0.24411329
-0.0039304268
0.2415181
-0.0055695013
0.23898585
-0.0071462028
0.23652914
-0.008652373
0.23415837
-0.010081144
0.23188181
-0.011426999
0.22970577
-0.012685803
0.22763479
-0.013854716
0.22567183
-0.014932102
0.22381844
-0.015917443
0.22207498
-0.016811254
0.2204408
-0.017614991
0.21891436
-0.018330963
0.21749347
-0.018962234
0.21617534
-0.019512541
0.2149568
-0.019986205
0.21383436
-0.020388044
0.21280435
-0.020723295
0.21186303
-0.020997545
0.21100663
-0.021216661
0.21023148
-0.021386736
0.20953404
-0.02151405
0.20891099
-0.021605034
0.20835928
-0.021666267
0.20787615
-0.021704471
0.20745919
-0.021726545
0.20710641
-0.021739624
0.20681623
-0.021751146
0.20658755
-0.021769029
0.20641981
-0.021801724
0.20631299
-0.021858912
0.2062678
-0.021950535
0.20628541
-0.022091797
0.20636853
-0.022290458
0.20651857
-0.022590881
0.20674397
-0.022947976
0.20703586
-0.023621761
0.20743492
-0.024039329
0.20783584
-0.026109574
-0.025634696
0.29316574
0.014732641
-0.29449037
0.29169347
0.01339031
0.28997849
0.01183451
0.28808791
0.01023672
0.28605669
0.0086315497
0.28389571
0.0069898453
0.2816234
0.0053113117
0.27926306
0.0036165467
0.27683605
0.0019209374
0.27436251
0.00023478121
0.27186274
-0.0014306485
0.26935655
-0.0030633125
0.26686235
-0.0046520075
0.26439683
-0.0061868487
0.26197481
-0.007659129
0.25960918
-0.0090613682
0.25731082
-0.010387438
0.25508867
-0.01163257
0.25294988
-0.012793306
0.25089987
-0.013867438
0.24894256
-0.014853943
0.24708047
-0.015752905
0.24531494
-0.016565426
0.24364624
-0.017293534
0.24207378
-0.017940086
0.24059626
-0.018508681
0.23921177
-0.019003559
0.23791799
-0.019429518
0.23671228
-0.019791828
0.23559177
-0.020096156
0.23455354
-0.020348501
0.23359463
-0.020555139
0.23271218
-0.020722588
0.2319035
-0.020857581
0.23116609
-0.02096707
0.23049779
-0.02105824
0.22989673
-0.021138569
0.22936148
-0.021215894
0.22889103
-0.021298577
0.22848489
-0.021395584
0.2281431
-0.021517119
0.22786642
-0.021673857
0.22765597
-0.021881352
0.22751461
-0.022149095
0.227443
-0.022519269
0.22745093
-0.02295591
0.22752343
-0.02369426
0.2277142
-0.024230096
0.22786935
-0.026264728