/*--------------------------------*- C++ -*----------------------------------*\
  =========                 |
  \\      /  F ield         | OpenFOAM: The Open Source CFD Toolbox
   \\    /   O peration     | Website:  https://openfoam.org
    \\  /    A nd           | Version:  6
     \\/     M anipulation  |
\*---------------------------------------------------------------------------*/
FoamFile
{
    version     2.0;
    format      ascii;
    class       volVectorField;
    location    "109";
    object      U;
}
// * * * * * * * * * * * * * * * * * * * * * * * * * * * * * * * * * * * * * //

dimensions      [0 1 -1 0 0 0 0];

internalField   nonuniform List<vector> 
9200
(
(0.0010396557 0.0014198187 -5.9204262e-20)
(0.013677415 -0.0020590803 4.6044691e-20)
(0.038316094 -0.0058678196 -3.8503451e-20)
(0.072279375 -0.0097653017 -6.0260323e-20)
(0.11377204 -0.013492385 1.8827887e-20)
(0.16159086 -0.01660858 3.2745372e-20)
(0.21468436 -0.018820776 -1.2268653e-20)
(0.27208204 -0.019977954 9.2693623e-21)
(0.33287538 -0.020015866 1.6804119e-20)
(0.39618586 -0.018934287 1.4848768e-21)
(0.46114113 -0.016785663 -2.1457433e-20)
(0.52686548 -0.013664219 2.0671101e-20)
(0.59248211 -0.0096951644 -4.0424163e-20)
(0.65712524 -0.0050236683 -2.1135149e-20)
(0.71996076 0.00019688816 5.9049809e-21)
(0.78021271 0.0058145772 -2.513336e-20)
(0.83720944 0.011702381 2.5219008e-20)
(0.89050821 0.017907087 2.224571e-20)
(0.93971022 0.024560922 -2.9881534e-22)
(0.982091 0.028279904 -1.6685764e-21)
(0.0052527073 -0.0013465572 -1.7060045e-20)
(0.026964501 -0.0089900379 3.9749456e-20)
(0.061674139 -0.014811411 2.357733e-20)
(0.10630137 -0.019174503 -1.157022e-19)
(0.15874492 -0.022216792 -1.2727668e-20)
(0.21754583 -0.02372402 7.3299949e-20)
(0.28138851 -0.023598952 -3.5477908e-20)
(0.34902489 -0.021873335 -8.3909091e-21)
(0.41926141 -0.018650411 3.4289097e-20)
(0.49093487 -0.01408626 -4.3261684e-20)
(0.56290077 -0.0083819336 -3.0340149e-20)
(0.63403964 -0.0017731848 7.1925811e-20)
(0.70327678 0.0054811389 3.8296335e-20)
(0.76961115 0.013110643 -6.7981167e-20)
(0.83214911 0.020843284 1.462484e-20)
(0.89013778 0.028410017 -3.6736242e-20)
(0.94300676 0.03555902 -1.3778026e-20)
(0.99046953 0.042129192 7.0981482e-20)
(1.0323924 0.047702532 2.9646043e-20)
(1.0669699 0.049125956 -8.3482636e-20)
(0.010859216 -0.0040428041 3.6774822e-20)
(0.043956177 -0.01543233 2.5048217e-21)
(0.090520703 -0.022554225 2.2342711e-20)
(0.14711956 -0.026499887 9.81205e-22)
(0.2113539 -0.027889349 -4.0775798e-20)
(0.28148241 -0.026798642 1.8577045e-20)
(0.3558886 -0.023386701 1.342091e-20)
(0.4330117 -0.017925945 -5.03299e-20)
(0.51134969 -0.010740504 5.7264546e-20)
(0.58945407 -0.0021892128 1.4257577e-20)
(0.66593975 0.007342041 -5.4303943e-20)
(0.73951313 0.017453795 -1.8238767e-20)
(0.80901039 0.027749405 9.0589724e-21)
(0.87343811 0.037851332 2.3446515e-20)
(0.93200955 0.047415226 -1.1363572e-20)
(0.98416948 0.056139189 2.7879936e-20)
(1.0296092 0.063778346 -2.0189698e-20)
(1.0682986 0.070192459 -7.0129896e-20)
(1.1003647 0.075106318 -2.3798759e-20)
(1.124942 0.076627163 4.8662766e-20)
(0.01795831 -0.0064226307 2.450886e-20)
(0.06478062 -0.020696215 5.1041111e-20)
(0.12485891 -0.028062955 1.9882401e-20)
(0.19447962 -0.03046671 1.2990434e-20)
(0.27096282 -0.029097931 1.7276267e-20)
(0.35226591 -0.024392452 -4.7722013e-20)
(0.43645207 -0.016829798 -2.5647933e-20)
(0.52164415 -0.0069808501 0)
(0.60605609 0.0045624643 1.3921777e-20)
(0.68801684 0.017206713 -5.8531087e-21)
(0.76600705 0.030368365 -9.7940682e-20)
(0.83870785 0.043493433 -1.5775452e-20)
(0.90504951 0.056079661 6.5108152e-20)
(0.96425021 0.067696311 4.8385091e-22)
(1.0158377 0.07799892 -1.5726813e-21)
(1.0596489 0.086736942 2.1959281e-20)
(1.0958093 0.093761263 -5.2652951e-21)
(1.1247105 0.09905322 -6.1034778e-20)
(1.1468934 0.10258382 -4.5855448e-20)
(1.1623226 0.10339954 6.9525084e-20)
(0.02658086 -0.0082062004 -3.9195102e-21)
(0.08934858 -0.024034982 -5.125793e-21)
(0.1643156 -0.030267101 5.6601314e-20)
(0.24759299 -0.029812574 1.8539908e-20)
(0.3362572 -0.024515917 -3.195621e-20)
(0.4279706 -0.015243023 1.2164285e-20)
(0.52049549 -0.0028547849 2.6404035e-21)
(0.61168961 0.011733383 3.3610969e-20)
(0.69957584 0.027636068 5.6602645e-21)
(0.7823992 0.04402423 -1.3205825e-20)
(0.85868633 0.060142594 6.0158659e-20)
(0.92730217 0.075334615 -5.8012813e-20)
(0.98748995 0.089066148 -1.3217554e-19)
(1.0388858 0.10094133 -5.5777224e-21)
(1.0815043 0.11070833 8.3157395e-20)
(1.115696 0.11825417 0)
(1.1420837 0.1235948 1.0119669e-20)
(1.161494 0.12687838 -1.5461025e-20)
(1.1748432 0.12828542 -8.600206e-21)
(1.1826909 0.12743485 2.0993705e-20)
(0.036668719 -0.0090900943 -5.4309432e-21)
(0.11732064 -0.024686775 4.3580112e-21)
(0.20812819 -0.028142118 -8.763258e-21)
(0.30517058 -0.023417201 2.8473316e-20)
(0.40535293 -0.01307804 -2.9393793e-20)
(0.50609275 0.0015200034 -1.6927731e-20)
(0.60492953 0.019092344 3.7365454e-20)
(0.69957703 0.038362198 4.7596123e-21)
(0.78803355 0.058164208 -2.4437997e-20)
(0.86866516 0.07747904 6.9871769e-20)
(0.94027162 0.095453992 5.234168e-22)
(1.0021276 0.11142607 -8.0450306e-20)
(1.0539884 0.12493644 0)
(1.0960578 0.13572996 3.9545336e-20)
(1.1289213 0.14373976 5.5240797e-21)
(1.1534554 0.1490591 -7.7572278e-20)
(1.170725 0.15190817 -1.958839e-20)
(1.1818865 0.15261162 -1.2468569e-20)
(1.1880817 0.15151298 -1.4710537e-20)
(1.1901671 0.14857092 4.0423504e-20)
(0.048061064 -0.0087678725 -1.7278349e-20)
(0.14808961 -0.021933221 -2.2201855e-21)
(0.25515159 -0.020799415 3.0381304e-20)
(0.36547903 -0.010414516 3.7485248e-20)
(0.47592343 0.005899801 -1.9945424e-20)
(0.5837655 0.026267452 -6.9166087e-20)
(0.68646773 0.048975211 -2.7997397e-20)
(0.78179027 0.072415515 7.8933333e-20)
(0.86793181 0.095209758 8.5787077e-21)
(0.94361988 0.11624626 -2.4874728e-20)
(1.0081567 0.13469411 1.3642606e-20)
(1.0614174 0.15001043 -4.3199284e-21)
(1.1037988 0.16193039 0)
(1.1361256 0.17043693 2.7205358e-20)
(1.1595312 0.17571458 -7.9327971e-20)
(1.1753271 0.17809405 -3.1477742e-20)
(1.1848804 0.1779974 8.1060297e-20)
(1.189514 0.17589773 -4.2974217e-21)
(1.1904233 0.17224296 3.5563171e-21)
(1.1885271 0.16717953 2.7113691e-20)
(0.060487828 -0.0069577305 -3.2415321e-20)
(0.18078517 -0.015171284 -8.1626774e-20)
(0.30390145 -0.0075845692 2.5794272e-21)
(0.42644216 0.0097023525 7.0164345e-20)
(0.54537207 0.032630615 6.2426791e-20)
(0.65800496 0.058819102 -7.1577093e-20)
(0.76193542 0.086175423 -2.8229265e-22)
(0.85521136 0.11285089 8.5527572e-20)
(0.93648296 0.1373764 4.8830794e-20)
(1.0050713 0.15869096 -5.4221877e-20)
(1.060965 0.17613195 -9.2340045e-20)
(1.1047528 0.18940879 -3.1591852e-21)
(1.1375032 0.19855353 4.2130593e-20)
(1.1606132 0.20385149 -6.6060797e-21)
(1.1756491 0.20576197 -1.2869603e-20)
(1.1842004 0.20483988 1.9691989e-20)
(1.1877641 0.20166867 4.3883525e-20)
(1.1876653 0.19681469 -4.3862244e-20)
(1.1850142 0.19076687 -1.0232904e-19)
(1.1806427 0.18376113 2.4568847e-20)
(0.073540153 -0.0034331849 -3.4980858e-20)
(0.21423515 -0.0039894774 -1.7389001e-19)
(0.35252982 0.011839034 8.2106423e-20)
(0.4856457 0.037018216 9.2770974e-20)
(0.61087533 0.066835603 5.7972743e-20)
(0.72579185 0.098481255 8.6111247e-21)
(0.82837481 0.12959684 -1.062451e-19)
(0.9172181 0.15824214 0)
(0.99165609 0.18302691 -6.8752971e-20)
(1.0517805 0.20310992 -1.5203473e-20)
(1.0983661 0.2181454 5.4706779e-20)
(1.1327274 0.22820646 1.0974084e-20)
(1.1565362 0.23368705 -4.5616642e-20)
(1.1716306 0.23519275 -4.9084306e-20)
(1.1798427 0.23343554 2.4289271e-20)
(1.182866 0.22914442 4.4825835e-20)
(1.1821686 0.22300016 -5.5604014e-20)
(1.1789546 0.21559774 -1.0751804e-19)
(1.1741644 0.20741108 -3.1513478e-21)
(1.1684734 0.19870704 2.7048113e-20)
(0.086653702 0.0019613808 -3.5452564e-21)
(0.24696917 0.011816748 8.7915816e-20)
(0.39886149 0.037492801 -1.6478268e-20)
(0.54042315 0.071219266 -8.4312907e-20)
(0.6695211 0.10779006 4.5166337e-20)
(0.78424428 0.14411657 4.9177205e-20)
(0.8832159 0.17775755 5.535971e-21)
(0.96580607 0.2068852 -9.9507738e-20)
(1.0322038 0.23038749 -2.5050204e-21)
(1.0833598 0.24781397 5.0506528e-20)
(1.120833 0.25926028 5.9858312e-21)
(1.1465805 0.26523226 -1.9718415e-20)
(1.1627341 0.26650021 -7.5709055e-20)
(1.1713985 0.26395997 -6.2556772e-21)
(1.1744969 0.25851702 4.3535843e-20)
(1.1736743 0.25100271 3.7024117e-20)
(1.1702567 0.24212498 1.9794411e-20)
(1.1652577 0.2324491 -5.2998548e-20)
(1.159418 0.22239393 1.2957574e-20)
(1.1532409 0.21222721 8.2663857e-20)
(-0.0012933251 0.0014347297 -1.1234628e-21)
(-0.0047461861 0.0031875607 2.0647771e-21)
(-0.010771849 0.0041360832 8.7963756e-22)
(-0.017755066 0.0045397209 -2.4410402e-21)
(-0.024741364 0.0045655891 -1.4116777e-21)
(-0.031300866 0.0043261861 1.5462179e-21)
(-0.037162775 0.0039036519 -6.8706459e-21)
(-0.042149003 0.0033577956 -5.9578196e-21)
(-0.046159385 0.0027314105 1.1172899e-20)
(-0.049147777 0.0020548116 -9.7435398e-21)
(-0.051102147 0.0013492299 -1.9834178e-22)
(-0.05203177 0.00062929682 3.6676642e-21)
(-0.051958821 -9.5072351e-05 -6.3300249e-22)
(-0.050912643 -0.00081717442 2.2820766e-20)
(-0.048926137 -0.0015321536 3.04017e-22)
(-0.046035214 -0.0022355516 -4.0886724e-20)
(-0.042281095 -0.0029227184 7.5393365e-21)
(-0.037702074 -0.003591566 2.3866464e-20)
(-0.032306562 -0.0042405954 -4.385685e-20)
(-0.026153967 -0.0048218039 -2.7742111e-20)
(-0.0016522778 0.0041810671 -5.37192e-21)
(-0.0053977243 0.0092685551 1.0865825e-20)
(-0.011218989 0.012007954 -1.0192075e-20)
(-0.017658746 0.013154287 3.9233896e-21)
(-0.023857357 0.013195897 4.8126325e-21)
(-0.029434394 0.012463131 7.1330492e-22)
(-0.034153484 0.011197318 -2.2511345e-20)
(-0.037861557 0.0095740809 -2.0371732e-21)
(-0.040475415 0.0077190368 2.0165111e-20)
(-0.041959895 0.0057211344 -5.0477588e-21)
(-0.042309695 0.0036426132 -2.1764355e-20)
(-0.041537767 0.0015262969 4.8977201e-21)
(-0.039667738 -0.0005988954 2.2637259e-20)
(-0.036728607 -0.0027135352 1.0309285e-20)
(-0.032750962 -0.0048036587 2.1856302e-20)
(-0.027767399 -0.0068566852 -1.9772544e-20)
(-0.021822218 -0.008859616 -2.1674957e-20)
(-0.014962778 -0.010805853 2.118679e-20)
(-0.0071244862 -0.012680874 2.6813007e-20)
(0.0018800186 -0.01431934 1.5856229e-20)
(-0.0023035311 0.0065605379 -4.3571229e-21)
(-0.0065394926 0.014480824 -5.6389079e-21)
(-0.01189258 0.018711306 3.0722198e-22)
(-0.017211693 0.020428954 1.0958764e-21)
(-0.021819818 0.020401025 6.6922716e-21)
(-0.025431723 0.019152236 1.0665848e-20)
(-0.027877833 0.017066685 -3.7230426e-21)
(-0.029053696 0.014423978 -1.8897503e-20)
(-0.028909192 0.011424322 6.5418008e-21)
(-0.027430831 0.0082096317 1.2863537e-20)
(-0.024627013 0.0048792429 5.834595e-21)
(-0.020518815 0.0015014302 1.8160473e-20)
(-0.015133983 -0.0018779628 1.7297316e-21)
(-0.0085025662 -0.0052286553 -3.3867257e-20)
(-0.00065310487 -0.0085293438 1.2022197e-21)
(0.0083858912 -0.011761189 -2.2140921e-20)
(0.018562963 -0.014906543 -2.4468655e-20)
(0.029809635 -0.017956587 4.5824117e-20)
(0.042313935 -0.020858359 2.5351948e-20)
(0.056749292 -0.023251406 1.2260372e-22)
(-0.0031291559 0.0083693402 -5.2836338e-21)
(-0.0078966859 0.018337264 -8.4823554e-21)
(-0.012439368 0.023588708 4.3595201e-21)
(-0.016026925 0.025610551 4.1466069e-21)
(-0.018235321 0.025383523 2.0106772e-21)
(-0.018912745 0.023589908 7.3215148e-21)
(-0.017984493 0.020730615 9.3131151e-21)
(-0.015416046 0.017170435 -1.351234e-21)
(-0.011205818 0.013171056 -1.1482735e-20)
(-0.005373308 0.0089183326 -2.9073938e-20)
(0.0020508685 0.0045424749 6.1930768e-23)
(0.011030237 0.00013296379 4.0700795e-20)
(0.021527072 -0.0042507047 -1.8384446e-20)
(0.033503965 -0.0085697679 -1.2297033e-20)
(0.046928048 -0.012798182 5.5340389e-22)
(0.061769213 -0.016914972 3.2305342e-20)
(0.077963875 -0.020905295 -1.4831043e-20)
(0.095405028 -0.02476754 -5.3343715e-20)
(0.1144133 -0.028384448 4.5768923e-20)
(0.13636262 -0.031078373 3.3016079e-20)
(-0.0039705571 0.0094661219 -6.8786843e-22)
(-0.0090919369 0.020488561 -1.2535407e-20)
(-0.012364729 0.026159983 -3.4146661e-20)
(-0.013552631 0.02814419 -5.7246032e-21)
(-0.012533017 0.02755569 -3.6223983e-21)
(-0.0093160394 0.025188492 6.3055055e-21)
(-0.0039443466 0.021627521 -4.6465053e-21)
(0.0035281932 0.017298702 -8.8075733e-21)
(0.01303981 0.012508091 2.1901071e-20)
(0.024525315 0.0074733465 5.0569816e-21)
(0.037920861 0.0023473449 -2.5292096e-20)
(0.053164185 -0.0027648324 1.1078968e-20)
(0.070195196 -0.0077934382 0)
(0.088956672 -0.012694409 1.2090433e-20)
(0.10939747 -0.017440595 -9.7023264e-21)
(0.13147155 -0.022014173 -1.4338274e-20)
(0.15509049 -0.026413556 -1.5736723e-21)
(0.18008646 -0.030665003 -2.2184671e-21)
(0.20687488 -0.034582825 4.6150362e-20)
(0.23768798 -0.037026845 -1.0471468e-20)
(-0.0046452482 0.0097812263 -7.5360227e-21)
(-0.0096774743 0.020748561 2.4517804e-20)
(-0.011064436 0.026161728 -1.0500014e-20)
(-0.00909651 0.027725091 -2.7470827e-20)
(-0.0039788241 0.026602108 -2.7549587e-20)
(0.0040978442 0.023648496 -1.4922413e-20)
(0.014956763 0.019496152 -6.9063853e-22)
(0.028439988 0.014603955 5.5502736e-21)
(0.044408226 0.0093022101 1.9616946e-20)
(0.062737088 0.0038266577 7.3535128e-21)
(0.083312609 -0.0016570651 -7.1866226e-21)
(0.10602916 -0.0070351299 -2.0102623e-21)
(0.13078582 -0.012232598 -3.8194158e-20)
(0.15748394 -0.017203891 -1.2694475e-20)
(0.18602893 -0.02192454 1.8752065e-20)
(0.21633129 -0.026385219 -2.1023283e-20)
(0.24825448 -0.030608453 -8.9737145e-21)
(0.28154377 -0.034677607 3.0442414e-20)
(0.31663509 -0.038372635 5.0475517e-20)
(0.35668142 -0.039972717 3.3562454e-21)
(-0.0049618972 0.0093142976 1.6784043e-20)
(-0.0091663706 0.019098209 1.4468588e-20)
(-0.0078591138 0.023563843 5.1148126e-20)
(-0.0018576632 0.024329235 2.3389277e-20)
(0.008297469 0.022523767 1.8252797e-22)
(0.022224787 0.019013971 -3.9390563e-20)
(0.039601614 0.014440058 -2.4315176e-20)
(0.060153617 0.0092649666 1.0466337e-20)
(0.083646579 0.0038212784 1.4402341e-20)
(0.10987611 -0.0016538409 -1.3114318e-20)
(0.1386572 -0.0069941745 -4.404122e-20)
(0.16981562 -0.012086664 2.9620239e-20)
(0.20318048 -0.016858656 2.0021633e-20)
(0.23857857 -0.0212692 -2.7552837e-20)
(0.27583423 -0.025302342 1.1650931e-20)
(0.31477296 -0.028963867 2.4199175e-20)
(0.35517331 -0.032310538 8.0729994e-21)
(0.39666476 -0.035514982 -1.1765185e-20)
(0.43961091 -0.038401821 -1.4190998e-20)
(0.48802211 -0.038644467 5.8739364e-21)
(-0.0047308527 0.0081238768 1.1094387e-20)
(-0.0070584959 0.015671418 -2.3354068e-20)
(-0.0020286809 0.018562133 8.6203411e-21)
(0.0090341152 0.018216046 3.3589735e-20)
(0.025259156 0.015650583 5.2126989e-20)
(0.0460706 0.01169457 2.0277533e-20)
(0.070990505 0.0069593938 -5.8642681e-21)
(0.099609887 0.0018808221 -1.2286835e-20)
(0.13157906 -0.0032299349 -6.206127e-21)
(0.16658818 -0.0081530333 3.4242603e-20)
(0.20434932 -0.012737364 -4.5108144e-21)
(0.24458266 -0.016883924 -1.6644285e-20)
(0.28700538 -0.020534143 -1.9694591e-20)
(0.33132364 -0.023662613 -4.7446529e-20)
(0.37723128 -0.026272502 2.3240082e-20)
(0.42441743 -0.028395621 -1.4096891e-20)
(0.47253246 -0.030136191 2.5995244e-20)
(0.5210718 -0.031792589 2.104226e-20)
(0.57025227 -0.033360956 -8.5574913e-20)
(0.62475005 -0.03207005 -1.0780916e-22)
(-0.0037710405 0.0063147276 2.1926025e-20)
(-0.0028653585 0.010735033 -2.6166904e-20)
(0.0071433704 0.011563796 -4.5015451e-20)
(0.024452734 0.009924269 -2.7255124e-20)
(0.047874913 0.0066511219 -2.0440843e-21)
(0.076634621 0.0024889092 1.3050618e-20)
(0.11008477 -0.0020176714 -2.8338245e-21)
(0.14766247 -0.0064907825 1.8119351e-20)
(0.18887396 -0.010667012 8.8689142e-21)
(0.23326771 -0.014366585 -1.1380705e-20)
(0.28041017 -0.017473791 8.8785051e-21)
(0.32986773 -0.019922348 -2.3904504e-20)
(0.38119358 -0.021684964 8.0510457e-21)
(0.43391869 -0.02276689 1.6757381e-20)
(0.48755021 -0.023202091 -2.639667e-21)
(0.54158089 -0.023055482 1.6619765e-21)
(0.59547186 -0.022478857 -3.1951184e-22)
(0.64855665 -0.021880348 1.9591699e-20)
(0.70086325 -0.021456169 4.0436456e-21)
(0.75749398 -0.018511128 -5.7468526e-22)
(-0.001910876 0.0040273113 2.3693245e-20)
(0.0038702476 0.0046761307 5.7162822e-20)
(0.020317316 0.0031871613 -4.9246506e-20)
(0.04518189 0.00029315132 -9.945874e-21)
(0.076970707 -0.0034259496 2.0257203e-20)
(0.11470404 -0.007355942 2.1434648e-21)
(0.15754917 -0.011057896 -2.9816442e-20)
(0.2047614 -0.01424768 6.9850509e-21)
(0.25566552 -0.016742088 7.1102028e-21)
(0.30962381 -0.018431753 -2.6255362e-20)
(0.36600869 -0.019265549 1.2928198e-21)
(0.42418493 -0.019237995 -3.7176079e-20)
(0.48349943 -0.018379035 -3.6343065e-20)
(0.54327699 -0.016745845 6.5687467e-20)
(0.60282217 -0.014415644 5.5631174e-21)
(0.6614253 -0.011485054 -1.5190021e-20)
(0.71834635 -0.0081120551 1.9365191e-20)
(0.77273915 -0.0046037628 -9.1894067e-22)
(0.82412965 -0.00097987656 2.03652e-20)
(0.87626156 0.0043152472 -1.9556196e-20)
(-0.018832358 -0.0051004485 5.8358419e-20)
(-0.010219296 -0.0056357529 1.5785297e-20)
(-0.00021433019 -0.0060697851 -3.5143421e-20)
(0.010831786 -0.0063350824 1.6792314e-20)
(0.022652905 -0.0065130837 0)
(0.035190391 -0.0066311893 0)
(0.048384435 -0.0066921329 -2.2977876e-20)
(0.062155324 -0.0067037569 -1.6504978e-20)
(0.076432654 -0.0066754467 1.9125319e-20)
(0.091156925 -0.0066139911 1.8176624e-20)
(0.10627317 -0.0065245823 1.0525321e-21)
(0.1217296 -0.0064117838 -1.0319059e-20)
(0.13747791 -0.0062795544 8.3283594e-21)
(0.1534729 -0.0061312418 1.8236351e-20)
(0.16967183 -0.0059697095 -5.2285389e-21)
(0.18603405 -0.0057974431 -1.0176435e-20)
(0.20252082 -0.0056166141 -4.3202281e-21)
(0.21909514 -0.0054291319 -4.4262532e-21)
(0.2357216 -0.0052366889 7.3672679e-22)
(0.25236634 -0.0050407959 1.2288473e-21)
(0.26899705 -0.0048428084 2.5673335e-21)
(0.28558299 -0.0046439465 6.6553124e-21)
(0.30209498 -0.00444531 2.486571e-22)
(0.31850552 -0.0042478889 -3.4523172e-21)
(0.33478881 -0.0040525713 1.555436e-22)
(0.35092082 -0.0038601494 -5.7726254e-22)
(0.36687934 -0.0036713239 1.2438247e-21)
(0.38264401 -0.0034867079 1.0524385e-21)
(0.3981964 -0.0033068305 -1.2996211e-21)
(0.41351993 -0.0031321408 -1.2215052e-22)
(0.42859996 -0.0029630114 3.5279277e-23)
(0.44342372 -0.0027997433 -3.5208108e-22)
(0.45798033 -0.0026425704 -4.061719e-22)
(0.47226072 -0.002491665 5.5767846e-23)
(0.48625759 -0.0023471433 -1.3822558e-22)
(0.49996542 -0.0022090721 -2.2362819e-22)
(0.51338036 -0.0020774748 2.5600879e-22)
(0.52650026 -0.0019523384 2.9542154e-22)
(0.53932454 -0.0018336228 -8.5509267e-24)
(0.5518546 -0.0017212645 -1.5588342e-22)
(0.56409267 -0.001615205 3.0400126e-23)
(0.57604575 -0.001515346 -4.022606e-23)
(0.58771428 -0.0014217635 9.2789017e-23)
(0.59912812 -0.0013341208 2.1848972e-23)
(0.61024115 -0.0012537201 -1.1558846e-22)
(0.62124898 -0.0011773263 -6.8973239e-24)
(0.63166678 -0.0011172693 3.5996657e-28)
(0.64302778 -0.0010404027 -3.7806419e-24)
(0.65114578 -0.0010580633 2.9391259e-23)
(0.66787613 -0.00088380942 3.6249682e-22)
(0.010452867 -0.015019887 -1.2748402e-20)
(0.018188025 -0.016643525 -6.3309045e-20)
(0.027789107 -0.017918158 -3.0545619e-20)
(0.038396793 -0.018675014 3.8480577e-20)
(0.049634557 -0.019186717 1.4664413e-20)
(0.061522299 -0.019532743 -1.8207457e-20)
(0.074030783 -0.019713352 4.6731341e-21)
(0.087083124 -0.019750148 2.5450452e-20)
(0.10061629 -0.019671098 9.1686242e-23)
(0.11458008 -0.019495673 -7.6603356e-21)
(0.12892637 -0.019238482 -1.3022349e-20)
(0.14360857 -0.018912579 -8.5260737e-21)
(0.15858281 -0.018529379 1.7774895e-20)
(0.17380758 -0.018098543 8.9319222e-21)
(0.18924315 -0.017628355 -1.6524379e-20)
(0.20485133 -0.017126038 -6.039982e-21)
(0.22059541 -0.016597933 3.2148414e-21)
(0.23644003 -0.016049636 8.3726882e-21)
(0.25235116 -0.015486128 6.9845727e-21)
(0.26829605 -0.01491187 -6.9745988e-21)
(0.28424331 -0.014330878 -3.1699653e-21)
(0.30016294 -0.01374678 1.3615726e-21)
(0.31602638 -0.013162852 3.8788172e-22)
(0.33180662 -0.01258205 1.2119441e-21)
(0.34747822 -0.012007033 1.8397211e-22)
(0.36301745 -0.011440175 -3.2696118e-22)
(0.37840228 -0.010883581 -7.2482585e-22)
(0.39361248 -0.010339098 9.726141e-22)
(0.40862962 -0.009808322 8.2561438e-22)
(0.42343714 -0.0092926102 -1.5228055e-22)
(0.43802028 -0.0087930939 5.5380904e-22)
(0.45236612 -0.0083106903 -2.3894819e-22)
(0.46646357 -0.0078461167 -3.7143189e-22)
(0.48030331 -0.0073999065 -6.1091827e-22)
(0.49387774 -0.0069724259 4.4214906e-22)
(0.50718098 -0.0065638925 -1.6336839e-23)
(0.52020882 -0.006174395 1.6215947e-22)
(0.5329587 -0.0058039132 -4.4318131e-22)
(0.54542961 -0.0054523453 3.7387066e-22)
(0.55762247 -0.0051195187 6.7371409e-23)
(0.56953907 -0.0048052762 -1.0288967e-22)
(0.58118588 -0.0045093403 1.7759451e-22)
(0.59256292 -0.0042319548 2.3570532e-22)
(0.60369929 -0.0039721288 1.7133798e-22)
(0.61454905 -0.0037337635 1.7027494e-22)
(0.62530492 -0.0035072256 -2.659323e-23)
(0.63548853 -0.003329264 8.6618464e-23)
(0.64661001 -0.0031012116 7.887967e-23)
(0.65454848 -0.0031541166 -1.9836064e-22)
(0.67095937 -0.002637153 -3.7599347e-23)
(0.067627036 -0.024033041 9.4539283e-21)
(0.073603397 -0.026753308 3.295705e-21)
(0.082280885 -0.028810193 -1.2164251e-20)
(0.091965047 -0.029973438 -1.2262261e-21)
(0.10200242 -0.030773089 1.4972703e-20)
(0.11256769 -0.031336406 -1.488899e-20)
(0.12369964 -0.031641865 -2.9846462e-20)
(0.13532301 -0.031719068 1.44958e-20)
(0.14738584 -0.031613956 1.8184809e-20)
(0.15985522 -0.031356626 -1.1600367e-20)
(0.1726955 -0.030968631 1.0192028e-21)
(0.18586906 -0.030469798 8.6866246e-21)
(0.19933965 -0.029877823 -1.5256288e-20)
(0.21307219 -0.029207731 2.9114538e-21)
(0.22703212 -0.02847247 7.5210739e-21)
(0.24118543 -0.027683428 3.0464338e-23)
(0.2554988 -0.026850695 2.6485247e-22)
(0.26993964 -0.025983247 -7.4170174e-21)
(0.28447614 -0.025089131 3.8639558e-21)
(0.2990774 -0.024175606 8.4773588e-21)
(0.31371351 -0.023249247 -3.8363267e-21)
(0.32835565 -0.022316022 -2.2135199e-21)
(0.34297622 -0.021381351 1.0123095e-21)
(0.35754894 -0.020450141 -1.7163564e-21)
(0.37204896 -0.019526824 1.353579e-21)
(0.38645293 -0.018615372 7.1866543e-22)
(0.40073909 -0.017719317 1.5289009e-21)
(0.41488733 -0.016841768 -1.9549018e-21)
(0.42887922 -0.015985424 2.2263463e-21)
(0.44269806 -0.015152591 5.5252997e-22)
(0.45632888 -0.014345203 4.0491069e-22)
(0.46975843 -0.013564836 3.2153038e-22)
(0.48297518 -0.012812741 8.7531016e-22)
(0.49596932 -0.012089861 -1.3741794e-21)
(0.50873266 -0.011396863 3.7176773e-22)
(0.52125867 -0.010734166 1.1059154e-22)
(0.53354242 -0.010101977 -4.5589173e-23)
(0.54558058 -0.0095003186 8.6274625e-23)
(0.55737133 -0.0089290803 -3.7334176e-22)
(0.56891474 -0.0083880313 1.8406768e-22)
(0.58021171 -0.0078769649 -3.5101317e-23)
(0.59126777 -0.0073954738 3.9391231e-22)
(0.60208212 -0.006944012 -1.8746225e-22)
(0.61268249 -0.006520989 4.7693838e-23)
(0.62302326 -0.0061328865 4.4339154e-23)
(0.63329171 -0.0057638861 -7.4925182e-23)
(0.64302171 -0.0054744299 -1.24296e-22)
(0.65367916 -0.0051026697 3.9702636e-22)
(0.6612693 -0.0051904563 1.7603614e-22)
(0.67706097 -0.0043480823 -8.3496194e-22)
(0.15023455 -0.031466046 1.501347e-21)
(0.1535676 -0.035263465 -1.1567477e-20)
(0.16063867 -0.038017459 6.6445658e-21)
(0.16883029 -0.039486035 -1.332625e-20)
(0.17700868 -0.040528003 -1.9760655e-21)
(0.18555208 -0.04130997 9.1614438e-21)
(0.19461517 -0.041765295 -9.7682379e-21)
(0.20412041 -0.041922123 1.5658859e-21)
(0.21402386 -0.041842086 1.2905552e-20)
(0.22431505 -0.041563423 3.4041062e-21)
(0.23497468 -0.041111455 -6.210584e-21)
(0.24597563 -0.040510174 -2.8646946e-21)
(0.25729051 -0.03978178 -5.8410901e-21)
(0.26889178 -0.038945388 -6.4567601e-21)
(0.28075087 -0.038017604 3.2352443e-21)
(0.29283851 -0.037013225 8.4513865e-22)
(0.30512514 -0.035945541 1.3686552e-21)
(0.3175812 -0.034826533 -3.3856519e-21)
(0.33017729 -0.033667059 -4.2446442e-21)
(0.34288441 -0.032477011 2.3626328e-21)
(0.35567417 -0.031265428 3.2268265e-21)
(0.36851894 -0.030040575 -1.5649662e-21)
(0.38139203 -0.028810005 1.5875636e-21)
(0.39426784 -0.027580599 -3.9184005e-22)
(0.40712198 -0.026358597 -3.9227488e-21)
(0.41993141 -0.02514962 -3.0347188e-21)
(0.43267449 -0.023958688 -1.9085835e-22)
(0.44533108 -0.022790241 4.2822037e-22)
(0.45788259 -0.021648152 -2.211989e-21)
(0.47031201 -0.020535754 -8.5688232e-22)
(0.48260396 -0.019455858 2.2848901e-22)
(0.49474464 -0.018410786 -1.2520966e-21)
(0.50672188 -0.017402399 5.7582831e-24)
(0.5185251 -0.016432133 -4.2544788e-22)
(0.5301453 -0.015501038 -4.7240062e-22)
(0.541575 -0.01460982 -5.2241872e-22)
(0.55280828 -0.013758884 -8.4516986e-22)
(0.56384075 -0.012948381 -5.4229488e-23)
(0.57466949 -0.012178269 -3.9241846e-24)
(0.58529338 -0.011448339 -5.2269952e-22)
(0.59571215 -0.010758413 -9.127821e-23)
(0.60593002 -0.010108029 -3.3522144e-22)
(0.61594512 -0.0094979141 -4.4247675e-22)
(0.62578326 -0.0089259678 3.8285837e-22)
(0.63539935 -0.0084012048 1.5002989e-23)
(0.64497297 -0.0079019954 1.8548907e-22)
(0.6540556 -0.007511216 -1.3620422e-22)
(0.66404963 -0.0070078277 -2.7277921e-22)
(0.67114185 -0.0071297054 -4.1407365e-23)
(0.68604542 -0.0059899253 4.6509059e-22)
(0.25471237 -0.036560161 -2.090267e-20)
(0.25449841 -0.041401415 4.7590392e-20)
(0.25910331 -0.044754093 1.0348992e-20)
(0.26511611 -0.046450942 -1.5767052e-20)
(0.2707434 -0.047723657 -2.0233816e-21)
(0.27655621 -0.048757564 2.6231427e-21)
(0.2828741 -0.049423946 -1.6614325e-21)
(0.28961801 -0.049738754 -4.6867317e-21)
(0.29674034 -0.0497725 -4.0164503e-21)
(0.30425207 -0.049568527 -1.2209325e-20)
(0.3121518 -0.049153557 1.7901039e-20)
(0.3204222 -0.048553059 6.5234815e-21)
(0.32904324 -0.047791602 -1.6783064e-20)
(0.33799391 -0.04689103 1.0318156e-20)
(0.34725083 -0.045870682 8.3852251e-21)
(0.35678863 -0.044748064 -8.7824591e-22)
(0.36658072 -0.043539188 -3.1219525e-21)
(0.37659983 -0.042258742 -3.8215809e-21)
(0.38681833 -0.040920233 -1.3901082e-21)
(0.39720853 -0.039536115 -1.2312277e-21)
(0.40774297 -0.038117887 -3.0275878e-21)
(0.41839471 -0.036676155 0)
(0.42913751 -0.035220682 -1.3461482e-21)
(0.439946 -0.033760416 3.932481e-21)
(0.45079589 -0.032303518 5.4085212e-21)
(0.46166405 -0.030857376 -9.4136901e-22)
(0.47252863 -0.029428622 -2.9306716e-21)
(0.48336916 -0.028023147 3.0298321e-21)
(0.49416658 -0.026646125 2.5340847e-22)
(0.50490331 -0.025302035 3.4398062e-21)
(0.51556327 -0.02399469 -5.3485684e-22)
(0.52613189 -0.022727273 1.7195726e-21)
(0.5365961 -0.021502375 -8.0133699e-22)
(0.54694434 -0.020322039 2.9229136e-22)
(0.55716654 -0.019187813 -4.3558059e-22)
(0.56725411 -0.018100797 5.6351972e-22)
(0.57719991 -0.017061704 4.5881553e-22)
(0.58699828 -0.016070916 3.8419364e-22)
(0.59664497 -0.015128567 -9.6382113e-22)
(0.60613752 -0.014234569 6.8722172e-22)
(0.61547426 -0.013388866 -3.7174237e-22)
(0.62465791 -0.012591038 -1.1120021e-21)
(0.63368533 -0.011842161 1.4206418e-21)
(0.64258006 -0.011139738 -6.2514093e-23)
(0.65129783 -0.010495242 -1.6023233e-22)
(0.66000856 -0.0098817328 -7.9560245e-24)
(0.66828615 -0.0094028061 -1.2974586e-22)
(0.67745276 -0.0087836181 -4.7504231e-22)
(0.68392482 -0.0089383826 8.7670471e-22)
(0.69771513 -0.0075380477 -4.4655083e-23)
(0.376385 -0.038377323 -1.7497107e-20)
(0.371745 -0.044279914 1.2833047e-20)
(0.37290388 -0.048171855 2.9762649e-21)
(0.37594944 -0.050109605 -7.6361958e-21)
(0.37834633 -0.051681225 1.2057321e-20)
(0.38076617 -0.053054131 7.7923296e-21)
(0.38372155 -0.054042297 -1.2648825e-20)
(0.38714857 -0.054645849 -6.0687367e-21)
(0.39097983 -0.054931229 1.2698986e-20)
(0.39523579 -0.054940829 -1.5307958e-20)
(0.39993055 -0.054701672 -1.4065119e-20)
(0.4050545 -0.054239264 1.4132857e-20)
(0.41059137 -0.053578719 6.8204458e-21)
(0.41652346 -0.052743452 -4.2060972e-21)
(0.42283019 -0.051754961 -1.8537809e-21)
(0.42948808 -0.050633135 -4.0577461e-21)
(0.43647178 -0.04939653 5.304442e-21)
(0.4437548 -0.048062505 3.6688655e-21)
(0.45130991 -0.046647285 -3.2411187e-21)
(0.45910961 -0.045166023 3.1385439e-21)
(0.46712639 -0.043632856 2.7679017e-21)
(0.4753331 -0.042060934 -3.2124841e-21)
(0.48370315 -0.040462446 3.7065762e-22)
(0.49221073 -0.03884863 -3.2579292e-21)
(0.50083101 -0.037229784 7.2517979e-21)
(0.50954022 -0.035615274 6.1123985e-21)
(0.51831581 -0.034013547 8.1123103e-22)
(0.52713653 -0.032432143 -1.7696137e-21)
(0.53598245 -0.030877722 3.7075436e-21)
(0.54483509 -0.029356085 7.1986372e-21)
(0.55367736 -0.027872213 2.3073501e-21)
(0.56249362 -0.026430311 3.3221625e-21)
(0.57126971 -0.025033849 1.9987894e-21)
(0.57999286 -0.023685626 7.4732781e-22)
(0.58865177 -0.02238782 -2.6398923e-22)
(0.59723654 -0.021142061 2.7280814e-21)
(0.60573871 -0.019949496 6.2184817e-22)
(0.61415122 -0.018810861 2.958143e-22)
(0.6224684 -0.017726581 5.6404656e-23)
(0.63068634 -0.0166968 9.9520812e-22)
(0.63880188 -0.015721694 4.7184132e-23)
(0.64681617 -0.014800986 4.4597615e-22)
(0.65472477 -0.013936183 -1.2708031e-22)
(0.66254874 -0.013124515 -2.8043563e-22)
(0.67024493 -0.012379813 -1.5405213e-22)
(0.67797213 -0.011670419 -4.2830582e-22)
(0.68533067 -0.011118577 1.6543202e-22)
(0.69354885 -0.010402072 -1.2945922e-22)
(0.69931194 -0.01058816 -4.9981914e-22)
(0.71181701 -0.0089704993 2.4778321e-22)
(0.50931362 -0.035985027 3.6469835e-21)
(0.49957123 -0.042971963 -1.8959576e-20)
(0.49631807 -0.047395327 -2.3087012e-21)
(0.49560035 -0.049749178 5.4874318e-21)
(0.49421598 -0.051830995 3.0533961e-21)
(0.49274429 -0.05371892 -4.934617e-23)
(0.49186308 -0.055201713 6.1910373e-21)
(0.49156767 -0.056280009 7.626212e-21)
(0.49176734 -0.057005682 9.8590892e-21)
(0.49246907 -0.057411255 -1.1251737e-20)
(0.49369223 -0.057522508 -2.1583188e-20)
(0.49543199 -0.057365142 -3.9365889e-21)
(0.4976721 -0.056964369 1.5941192e-20)
(0.50039386 -0.056344758 1.2811426e-20)
(0.50357613 -0.055529991 -5.9070849e-21)
(0.50719487 -0.054542614 1.3808786e-21)
(0.51122387 -0.053404067 -3.6618089e-21)
(0.51563561 -0.052134744 2.2468147e-21)
(0.52040183 -0.050753987 -2.9128643e-22)
(0.52549389 -0.049280056 -1.8660634e-21)
(0.53088313 -0.047730124 7.8303319e-21)
(0.53654123 -0.046120273 -2.938097e-22)
(0.54244039 -0.044465483 4.189439e-22)
(0.54855361 -0.042779625 -6.5592284e-22)
(0.55485483 -0.041075459 -4.3052564e-21)
(0.56131905 -0.039364627 4.2109918e-21)
(0.56792249 -0.037657671 1.9036781e-21)
(0.57464263 -0.035964036 -3.3105221e-21)