/*--------------------------------*- C++ -*----------------------------------*\
  =========                 |
  \\      /  F ield         | OpenFOAM: The Open Source CFD Toolbox
   \\    /   O peration     | Website:  https://openfoam.org
    \\  /    A nd           | Version:  6
     \\/     M anipulation  |
\*---------------------------------------------------------------------------*/
FoamFile
{
    version     2.0;
    format      ascii;
    class       volVectorField;
    location    "332";
    object      UMean;
}
// * * * * * * * * * * * * * * * * * * * * * * * * * * * * * * * * * * * * * //

dimensions      [0 1 -1 0 0 0 0];

internalField   nonuniform List<vector> 
9200
(
(0.0014547339 0.0011022025 -6.0297993e-20)
(0.015057037 -0.0030597143 4.7488552e-20)
(0.040747328 -0.0074533789 -3.936901e-20)
(0.075824237 -0.011856752 -6.2091594e-20)
(0.11843568 -0.016035887 1.9322658e-20)
(0.16734404 -0.019554416 3.3746445e-20)
(0.22146816 -0.022123343 -1.2629347e-20)
(0.27980963 -0.023597484 9.5497095e-21)
(0.34143473 -0.023918373 1.7486498e-20)
(0.40544287 -0.023091152 1.5454243e-21)
(0.47094318 -0.02117326 -2.2367745e-20)
(0.53704565 -0.018263464 2.1514016e-20)
(0.60286414 -0.014490948 -4.2017186e-20)
(0.66752926 -0.010004218 -2.20416e-20)
(0.73020929 -0.0049593149 6.1589288e-21)
(0.79013683 0.00048986414 -2.6255492e-20)
(0.84665408 0.0062147213 2.6369833e-20)
(0.89933579 0.012259106 2.3348639e-20)
(0.94780632 0.018753057 -2.7475899e-22)
(0.98939291 0.022352236 -1.621285e-21)
(0.0057891661 -0.0017039191 -1.7372715e-20)
(0.028667761 -0.010071142 4.087435e-20)
(0.064592981 -0.016486619 2.3968028e-20)
(0.11045637 -0.021345952 -1.1878597e-19)
(0.1641004 -0.02481844 -1.3025591e-20)
(0.22402948 -0.026698917 7.5527246e-20)
(0.28889608 -0.02689852 -3.6552646e-20)
(0.35742313 -0.02545826 -8.686368e-21)
(0.42839225 -0.022489853 3.5526286e-20)
(0.50062061 -0.018156772 -4.4885726e-20)
(0.57294997 -0.012666407 -3.1592883e-20)
(0.64425387 -0.0062596757 7.4966888e-20)
(0.71345802 0.00080073445 3.9858092e-20)
(0.77956933 0.0082420106 -7.0830853e-20)
(0.84170941 0.015791157 1.5237656e-20)
(0.8991469 0.023179656 -3.8278936e-20)
(0.95133765 0.030157428 -1.4450826e-20)
(0.99802326 0.03656571 7.3914835e-20)
(1.0390999 0.041994543 3.1357331e-20)
(1.0728097 0.043329856 -8.4577803e-20)
(0.01152648 -0.0044244123 3.7233294e-20)
(0.045997912 -0.016549725 2.3916093e-21)
(0.093935117 -0.024252067 2.2570206e-20)
(0.15187557 -0.028666734 1.0046756e-21)
(0.21736607 -0.030451689 -4.1492726e-20)
(0.28862782 -0.029697173 1.9209785e-20)
(0.36401225 -0.026574821 1.366477e-20)
(0.4419312 -0.021369599 -5.1887823e-20)
(0.52086186 -0.014416402 5.9208027e-20)
(0.59934275 -0.0060827801 1.4937032e-20)
(0.67598443 0.0032387089 -5.6464127e-20)
(0.74949814 0.013144085 -1.9039175e-20)
(0.81873396 0.023234399 9.230605e-21)
(0.88272062 0.033131941 2.4366632e-20)
(0.94070027 0.04249412 -1.179073e-20)
(0.99215118 0.051022387 2.8927156e-20)
(1.0368003 0.058476298 -2.1002938e-20)
(1.0746528 0.064720619 -7.2503818e-20)
(1.1058691 0.069488165 -2.4155466e-20)
(1.1296215 0.070906904 4.9939495e-20)
(0.018762364 -0.0068108747 2.4732364e-20)
(0.067164896 -0.021801543 5.188303e-20)
(0.1287596 -0.029712544 2.0280036e-20)
(0.19980469 -0.032542696 1.3454553e-20)
(0.27756947 -0.031525673 1.7831252e-20)
(0.35997528 -0.027116411 -4.9048121e-20)
(0.44505603 -0.019811019 -2.6437628e-20)
(0.53091272 -0.01019543 0)
(0.61574692 0.0011264971 1.4895693e-20)
(0.69788584 0.013552731 -6.3730562e-21)
(0.77581942 0.026494408 -1.0138113e-19)
(0.84824854 0.039395387 -1.6225446e-20)
(0.91413238 0.051754197 6.7523078e-20)
(0.97272482 0.063143344 4.7974807e-22)
(1.0235933 0.073223418 -1.6262834e-21)
(1.0666154 0.081749962 2.2674084e-20)
(1.1019553 0.088580162 -5.3472267e-21)
(1.1300389 0.093701311 -6.2974704e-20)
(1.1514357 0.097089942 -4.7299122e-20)
(1.1661348 0.097797433 7.0766759e-20)
(0.027523138 -0.0085818032 -3.869312e-21)
(0.092066421 -0.025077512 -4.9278098e-21)
(0.16867327 -0.031796713 5.7514067e-20)
(0.25343006 -0.031713736 1.9081092e-20)
(0.34336835 -0.026720412 -3.2946761e-20)
(0.43611894 -0.017705869 1.2320299e-20)
(0.52942177 -0.0055503409 2.7195848e-21)
(0.6211227 0.0088147365 3.4833752e-20)
(0.70924515 0.0244927 5.8516907e-21)
(0.79204758 0.04064806 -1.3812208e-20)
(0.86808207 0.056523525 6.2486129e-20)
(0.9362489 0.071464438 -5.9838988e-20)
(0.99583363 0.084941649 -1.3650022e-19)
(1.0465179 0.096566374 -5.7541693e-21)
(1.0883615 0.10609479 8.5620482e-20)
(1.121756 0.11342176 0)
(1.1473594 0.11857001 1.0489057e-20)
(1.1660253 0.12169298 -1.5820159e-20)
(1.1786891 0.12297377 -8.9178164e-21)
(1.1859209 0.12202628 2.1367249e-20)
(0.03774544 -0.009432931 -5.2442489e-21)
(0.12034929 -0.025615992 4.4145057e-21)
(0.21289376 -0.0294833 -8.9013411e-21)
(0.31143958 -0.025067088 2.8825443e-20)
(0.41285575 -0.014983007 -3.01832e-20)
(0.51453667 -0.00061228486 -1.7374209e-20)
(0.61401071 0.016740322 3.7875746e-20)
(0.70899413 0.035783308 4.7648728e-21)
(0.79750225 0.05534314 -2.5511478e-20)
(0.87793183 0.074398413 7.2024559e-20)
(0.94912424 0.092099494 3.7238718e-22)
(1.0104029 0.10779037 -8.2977344e-20)
(1.0615747 0.12102158 0)
(1.1028929 0.13154825 4.060129e-20)
(1.1349873 0.13931314 5.6384411e-21)
(1.1587702 0.14441742 -7.9429729e-20)
(1.175333 0.14708674 -2.0070769e-20)
(1.1858492 0.14764885 -1.2716298e-20)
(1.1914687 0.14644662 -1.5043039e-20)
(1.1930481 0.1434284 4.1261892e-20)
(0.04926301 -0.009058041 -1.7296224e-20)
(0.15139297 -0.022701702 -2.7833218e-21)
(0.26025827 -0.021891057 3.0567463e-20)
(0.37208135 -0.011748775 3.7593636e-20)
(0.48368979 0.0043539883 -2.0289175e-20)
(0.5923538 0.024514982 -7.0936087e-20)
(0.6955402 0.047002649 -2.8931669e-20)
(0.79102925 0.07019876 8.1082942e-20)
(0.87705495 0.092722096 9.0117376e-21)
(0.95239242 0.11346517 -2.5481736e-20)
(1.0163992 0.13160621 1.3906509e-20)
(1.069008 0.14661442 -4.4582905e-21)
(1.1106705 0.15823785 0)
(1.1422594 0.16647125 2.7884672e-20)
(1.1649458 0.17150854 -8.1184743e-20)
(1.1800679 0.17368655 -3.2202762e-20)
(1.189009 0.17343013 8.2761676e-20)
(1.1930988 0.17121234 -4.5421084e-21)
(1.1935325 0.16747744 3.5841774e-21)
(1.1912223 0.16235969 2.7747311e-20)
(0.061800519 -0.007176734 -3.2506076e-20)
(0.18431521 -0.015737549 -8.2718511e-20)
(0.30926805 -0.0083764997 2.0534695e-21)
(0.43326645 0.0087325264 7.1580482e-20)
(0.55326687 0.031484529 6.3688236e-20)
(0.66658904 0.057474967 -7.2745615e-20)
(0.77085038 0.08459806 1.5582548e-23)
(0.86413812 0.11100129 8.7939346e-20)
(0.94515553 0.13522057 5.0060632e-20)
(1.0132855 0.1562064 -5.5673754e-20)
(1.0685811 0.17331132 -9.4662585e-20)
(1.111692 0.18626084 -3.235479e-21)
(1.1437393 0.19510163 4.3106061e-20)
(1.1661612 0.20013041 -6.7139811e-21)
(1.1805523 0.20181378 -1.3052723e-20)
(1.1885189 0.2007097 1.9941509e-20)
(1.1915639 0.19740102 4.4715414e-20)
(1.1910117 0.19245095 -4.4576133e-20)
(1.1879665 0.18634252 -1.0416662e-19)
(1.1832513 0.17929995 2.5135185e-20)
(0.074944064 -0.0035650943 -3.5435162e-20)
(0.21793353 -0.004320531 -1.7485122e-19)
(0.3580643 0.011383351 8.3963042e-20)
(0.49257363 0.036444192 9.4559998e-20)
(0.61876424 0.066110394 5.897461e-20)
(0.73423436 0.097554756 8.8131475e-21)
(0.83700625 0.12841362 -1.084783e-19)
(0.92573174 0.1567521 0)
(0.99981335 0.18119383 -7.0556348e-20)
(1.0594145 0.20091636 -1.5599684e-20)
(1.1053778 0.21559399 5.5933736e-20)
(1.139077 0.22531816 1.1189057e-20)
(1.1622298 0.23049708 -4.6520574e-20)
(1.176706 0.23174551 -4.996868e-20)
(1.1843562 0.22977938 2.4813962e-20)
(1.1868809 0.22532716 4.573323e-20)
(1.1857472 0.21906585 -5.6635966e-20)
(1.1821534 0.21158481 -1.0932515e-19)
(1.1770315 0.20335087 -3.1075284e-21)
(1.1710475 0.19462123 2.7452268e-20)
(0.088124566 0.0019290981 -3.7849153e-21)
(0.25076959 0.011743942 8.8978295e-20)
(0.40446554 0.037394971 -1.5412588e-20)
(0.54733601 0.071054353 -8.6326464e-20)
(0.67727825 0.10748791 4.6078103e-20)
(0.79242642 0.14359949 4.9775223e-20)
(0.89146559 0.17695332 5.6604442e-21)
(0.97383977 0.20573767 -1.0157641e-19)
(1.0398169 0.22886336 -2.5593845e-21)
(1.0904238 0.24590494 5.1588801e-20)
(1.1272863 0.25698118 6.1039137e-21)
(1.1524143 0.26261628 -2.0150512e-20)
(1.1679763 0.26359262 -7.7116714e-20)
(1.1760992 0.26081176 -6.3204375e-21)
(1.1787154 0.25517935 4.4250996e-20)
(1.1774701 0.2475229 3.7600913e-20)
(1.1736837 0.23854416 2.0028039e-20)
(1.1683616 0.22880127 -5.4006556e-20)
(1.1622361 0.21870588 1.2921654e-20)
(1.1558024 0.20851887 8.3751497e-20)
(-0.001313767 0.0014467414 -9.5796031e-22)
(-0.0047562723 0.0031902581 1.9525705e-21)
(-0.010786741 0.0041134087 1.4423504e-21)
(-0.01770175 0.0044838783 -1.6433009e-21)
(-0.024563821 0.0044718034 -1.9688133e-21)
(-0.030944015 0.0041921782 2.1015788e-21)
(-0.036570089 0.0037288551 -7.7613464e-21)
(-0.041265878 0.0031426021 -6.708307e-21)
(-0.044934547 0.0024767283 1.224732e-20)
(-0.047533336 0.0017618216 -1.0580413e-20)
(-0.049053468 0.0010192373 -2.0134466e-22)
(-0.049507329 0.00026363905 3.9585622e-21)
(-0.048920012 -0.00049507956 -6.598217e-22)
(-0.047323552 -0.0012502674 2.4272664e-20)
(-0.044753301 -0.0019971366 2.8541591e-22)
(-0.041247415 -0.0027312978 -4.3249908e-20)
(-0.036849217 -0.0034481491 8.0169342e-21)
(-0.031598944 -0.0041456232 2.5070568e-20)
(-0.025506346 -0.0048222369 -4.5986277e-20)
(-0.018632949 -0.0054292781 -2.9024035e-20)
(-0.001672592 0.0042131363 -5.5656008e-21)
(-0.0053953092 0.0092686071 1.0181431e-20)
(-0.011196245 0.011930591 -1.0382666e-20)
(-0.017536539 0.012977549 4.9826327e-21)
(-0.023576384 0.012906315 5.9688819e-21)
(-0.028937492 0.012054421 8.364425e-22)
(-0.033382943 0.01066812 -2.5538133e-20)
(-0.03676221 0.0089257872 -2.2073926e-21)
(-0.0389958 0.0069545275 2.1986294e-20)
(-0.0400522 0.0048440822 -5.4636754e-21)
(-0.039929596 0.0026570618 -2.3430377e-20)
(-0.038644294 0.00043640069 5.2399425e-21)
(-0.036223107 -0.0017890181 2.3983478e-20)
(-0.032698054 -0.0039998825 1.0942416e-20)
(-0.028102568 -0.00618239 2.3227924e-20)
(-0.022471961 -0.0083241257 -2.0859598e-20)
(-0.015853215 -0.010412206 -2.2756527e-20)
(-0.0082965399 -0.012440055 2.2373679e-20)
(0.00026117964 -0.014393059 2.7996265e-20)
(0.010009847 -0.016103815 1.6385064e-20)
(-0.0023216064 0.0066014994 -4.5182759e-21)
(-0.0065088121 0.014456142 -5.1493504e-21)
(-0.011792737 0.01855406 1.5215401e-22)
(-0.01695286 0.020107061 3.4819622e-22)
(-0.021337018 0.019894661 7.2211025e-21)
(-0.024664496 0.018452548 1.141455e-20)
(-0.026766932 0.016172368 -4.1434149e-21)
(-0.027543641 0.013337939 -2.0426987e-20)
(-0.026949024 0.010151765 7.0793711e-21)
(-0.024973877 0.0067570079 1.3849059e-20)
(-0.021630687 0.003253617 6.3518439e-21)
(-0.016944498 -0.00028990571 1.9235049e-20)
(-0.010946936 -0.003827696 1.8361718e-21)
(-0.003671877 -0.0073295618 -3.5679627e-20)
(0.0048483418 -0.010774344 1.4180514e-21)
(0.014581408 -0.01414339 -2.2987641e-20)
(0.025472052 -0.017419233 -2.5894828e-20)
(0.037447247 -0.020593141 4.8210112e-20)
(0.050692239 -0.023611922 2.6689212e-20)
(0.065889522 -0.026111872 3.4616953e-22)
(-0.0031397001 0.0084031674 -5.5674394e-21)
(-0.0078166576 0.018256342 -1.0184519e-20)
(-0.012219746 0.023315842 4.4360105e-21)
(-0.015564827 0.025109525 4.4787411e-21)
(-0.017459098 0.024631672 2.0762129e-21)
(-0.017758601 0.022577992 8.1619347e-21)
(-0.016392404 0.019458703 1.0204175e-20)
(-0.013331627 0.015643767 -1.5116682e-21)
(-0.0085805794 0.011397712 -1.2357334e-20)
(-0.0021642173 0.0069079721 -3.1120167e-20)
(0.0058816057 0.0023055746 1.2476477e-22)
(0.015515285 -0.0023196435 4.3157137e-20)
(0.026693902 -0.0069080419 -1.9262924e-20)
(0.039374788 -0.011420819 -1.2960332e-20)
(0.053519665 -0.015831967 3.953326e-22)
(0.069092912 -0.020120632 3.3977766e-20)
(0.08602538 -0.024272178 -1.5848783e-20)
(0.10420335 -0.028285342 -5.5646173e-20)
(0.12394122 -0.032043266 4.7480137e-20)
(0.14662646 -0.034864986 3.4370937e-20)
(-0.0039645623 0.0094750375 -5.4617667e-22)
(-0.0089353124 0.020316645 -1.300233e-20)
(-0.011978956 0.025732377 -3.6786598e-20)
(-0.012822127 0.027427483 -6.5267481e-21)
(-0.011380226 0.026528629 -3.462339e-21)
(-0.0076752464 0.023844157 6.8743443e-21)
(-0.0017568584 0.019969049 -5.1501989e-21)
(0.006312933 0.015334717 -9.5354545e-21)
(0.01646445 0.010250237 2.335089e-20)
(0.02862525 0.0049349765 5.2991923e-21)
(0.042724464 -0.00045727419 -2.7028611e-20)
(0.058692827 -0.0058209712 1.1607352e-20)
(0.076463146 -0.011086118 0)
(0.095970889 -0.016208479 1.2702473e-20)
(0.11715729 -0.021160784 -1.0171716e-20)
(0.13996847 -0.025925177 -1.5097943e-20)
(0.16430835 -0.030500176 -1.2297363e-21)
(0.19000033 -0.034912714 -2.4652287e-21)
(0.21744841 -0.038979457 4.7443281e-20)
(0.24889656 -0.041559767 -1.1375296e-20)
(-0.0046102859 0.0097488738 -7.7040497e-21)
(-0.0094112457 0.020454119 2.5807715e-20)
(-0.010462728 0.025544591 -1.134865e-20)
(-0.008034153 0.026761533 -2.9059008e-20)
(-0.0023749979 0.025276753 -2.8730895e-20)
(0.0063078146 0.021959676 -1.585684e-20)
(0.0178268 0.017451913 -8.2335781e-22)
(0.032012828 0.01221747 5.9171532e-21)
(0.048716133 0.0065894332 2.0719394e-20)
(0.067802578 0.00080509235 7.763348e-21)
(0.089148785 -0.0049691063 -7.5315287e-21)
(0.11263971 -0.010618942 -1.9769547e-21)
(0.1381649 -0.016069254 -4.0137897e-20)
(0.1656159 -0.021274266 -1.3304322e-20)
(0.19488803 -0.026209305 1.9872102e-20)
(0.22588145 -0.030864869 -2.2134269e-20)
(0.25844991 -0.035263307 -9.3679795e-21)
(0.29232857 -0.039488605 3.1363918e-20)
(0.32793696 -0.043325897 5.2029939e-20)
(0.36842998 -0.045061255 3.5280741e-21)
(-0.0048830179 0.009228219 1.7121563e-20)
(-0.0087532669 0.018658312 1.4788787e-20)
(-0.0069893977 0.022733478 5.326935e-20)
(-0.00040209044 0.02310029 2.4673219e-20)
(0.010418584 0.020890861 1.9399574e-22)
(0.02507068 0.016983452 -4.1678225e-20)
(0.043216793 0.012026667 -2.5564973e-20)
(0.064567982 0.0064875366 1.1022346e-20)
(0.088876419 0.00070067089 1.5148146e-20)
(0.11592506 -0.0050957382 -1.3683823e-20)
(0.14551661 -0.010735082 -4.6326917e-20)
(0.17746466 -0.016104258 3.1134181e-20)
(0.21158609 -0.021130686 2.085518e-20)
(0.24769544 -0.025773468 -2.8830891e-20)
(0.28560477 -0.030016619 1.2250296e-20)
(0.32512736 -0.033865794 2.5206217e-20)
(0.36603084 -0.03737724 8.4793453e-21)
(0.40793487 -0.040723433 -1.2483277e-20)
(0.45118426 -0.043736415 -1.4406246e-20)
(0.49977539 -0.044108091 6.8641791e-21)
(-0.0045917556 0.0079769091 1.1445646e-20)
(-0.0064591652 0.015075101 -2.4579595e-20)
(-0.00083847735 0.017510518 8.5368191e-21)
(0.010941185 0.016720997 3.5148001e-20)
(0.02795575 0.01371999 5.4198154e-20)
(0.049604894 0.0093450541 2.1205941e-20)
(0.075391825 0.0042137502 -6.1202421e-21)
(0.10488931 -0.0012357431 -1.2854983e-20)
(0.13773069 -0.0066914171 -6.5346054e-21)
(0.17359026 -0.011933363 3.5887101e-20)
(0.21216479 -0.01681088 -4.8388027e-21)
(0.25315948 -0.021225639 -1.750822e-20)
(0.29627698 -0.025119811 -2.0515173e-20)
(0.34120942 -0.028468664 -4.9611711e-20)
(0.38763736 -0.031275891 2.4186485e-20)
(0.43523764 -0.033573542 -1.4672567e-20)
(0.48365055 -0.035465096 2.7146381e-20)
(0.53236459 -0.037247153 2.1951432e-20)
(0.5815802 -0.038922857 -8.78707e-20)
(0.63594274 -0.037751673 1.4550348e-22)
(-0.0035553661 0.0061054794 2.2454162e-20)
(-0.0020411717 0.0099848204 -2.7231069e-20)
(0.0087038627 0.010301076 -4.6455276e-20)
(0.026863748 0.0081834119 -2.8281857e-20)
(0.051194985 0.0044553799 -2.128826e-21)
(0.080894045 -0.00013354816 1.3653253e-20)
(0.11529106 -0.005035385 -2.9632811e-21)
(0.15380123 -0.0098721523 1.8882211e-20)
(0.19591046 -0.014381393 9.2341535e-21)
(0.24114826 -0.018384699 -1.1877371e-20)
(0.28906309 -0.021768016 9.3669577e-21)
(0.33920438 -0.024466871 -2.4978558e-20)
(0.39110968 -0.026455784 8.5880763e-21)
(0.44429605 -0.027741699 1.7514944e-20)
(0.49825891 -0.028360052 -2.8676374e-21)
(0.55248193 -0.028376766 1.8110527e-21)
(0.60642093 -0.027943104 -4.7820358e-22)
(0.65940917 -0.027463746 2.0502113e-20)
(0.71146631 -0.027138203 4.0098244e-21)
(0.76764955 -0.024305343 -1.5409223e-21)
(-0.001603389 0.0037600805 2.4405792e-20)
(0.0049543292 0.0037883365 5.9231526e-20)
(0.022291401 0.0017427155 -5.0647948e-20)
(0.048139088 -0.00165054 -1.0297512e-20)
(0.080947392 -0.0058298087 2.1024045e-20)
(0.1197051 -0.010180336 2.2212506e-21)
(0.16355304 -0.0142634 -3.0927132e-20)
(0.21172131 -0.017797524 7.2625785e-21)
(0.26351138 -0.020602699 7.3833616e-21)
(0.31826419 -0.022572803 -2.7334926e-20)
(0.3753327 -0.023659993 1.3440704e-21)
(0.4340645 -0.023862019 -3.8802384e-20)
(0.49379214 -0.023211899 -3.7947705e-20)
(0.55382969 -0.021769629 6.8602349e-20)
(0.61347518 -0.019614918 5.8067379e-21)
(0.67201734 -0.016846346 -1.5830807e-20)
(0.72872028 -0.013622461 2.0146382e-20)
(0.78274933 -0.010248401 -9.488854e-22)
(0.83364097 -0.00674673 2.0740614e-20)
(0.88510442 -0.0015843242 -2.0683584e-20)
(-0.010456094 -0.0057116053 6.1013306e-20)
(-0.00085440183 -0.0062371516 1.6285423e-20)
(0.010159682 -0.006659591 -3.6280139e-20)
(0.022231836 -0.0069094103 1.7446322e-20)
(0.035088148 -0.0070695617 0)
(0.04866497 -0.0071685768 0)
(0.062899699 -0.0072093451 -2.3523165e-20)
(0.077709346 -0.0071998307 -1.6813647e-20)
(0.093019915 -0.0071497097 1.9556884e-20)
(0.10876869 -0.0070660373 1.8494073e-20)
(0.12489783 -0.0069542035 1.0445673e-21)
(0.14135289 -0.0068189493 -1.0382149e-20)
(0.15808309 -0.0066644019 8.4847987e-21)
(0.175041 -0.0064940592 1.8249025e-20)
(0.19218189 -0.0063109144 -5.3426599e-21)
(0.20946339 -0.0061175658 -1.0113803e-20)
(0.22684529 -0.0059162812 -4.2782442e-21)
(0.24428933 -0.0057090503 -4.3263332e-21)
(0.26175911 -0.0054976311 7.0979549e-22)
(0.27922003 -0.0052835855 1.2175896e-21)
(0.29663922 -0.0050683073 2.5747295e-21)
(0.31398563 -0.0048530425 6.5405816e-21)
(0.33122998 -0.0046389055 1.7880983e-22)
(0.34834485 -0.0044268907 -3.3825194e-21)
(0.36530469 -0.0042178813 1.3812835e-22)
(0.3820859 -0.0040126566 -5.6233234e-22)
(0.39866682 -0.0038118968 1.2081113e-21)
(0.4150278 -0.0036161887 9.9744018e-22)
(0.43115116 -0.0034260299 -1.2937181e-21)
(0.44702124 -0.0032418338 -1.0755716e-22)
(0.46262431 -0.0030639343 -1.6456278e-23)
(0.47794861 -0.0028925913 -3.3678798e-22)
(0.49298428 -0.0027279959 -4.0866924e-22)
(0.50772327 -0.0025702772 7.8809766e-23)
(0.52215935 -0.0024195078 -1.308932e-22)
(0.53628798 -0.0022757112 -2.0589441e-22)
(0.55010631 -0.0021388687 2.347558e-22)
(0.56361314 -0.0020089261 2.6769849e-22)
(0.57680877 -0.001885804 -2.4536664e-23)
(0.58969542 -0.0017694011 -1.6069453e-22)
(0.60227605 -0.0016596237 2.0741255e-23)
(0.61455839 -0.0015563406 -2.9954008e-23)
(0.62654326 -0.0014595973 8.3842379e-23)
(0.63826169 -0.0013690342 -3.5131151e-24)
(0.64966591 -0.0012859172 -1.2743834e-22)
(0.66095812 -0.0012070509 1.7309961e-24)
(0.67163603 -0.0011445522 4.1711337e-24)
(0.68328404 -0.0010659816 -4.7117845e-24)
(0.69157393 -0.0010802595 2.7062647e-23)
(0.70873179 -0.00090817434 3.6801379e-22)
(0.019419272 -0.016815055 -1.3558103e-20)
(0.028081514 -0.018409721 -6.5670517e-20)
(0.038634117 -0.019650811 -3.1891503e-20)
(0.050212912 -0.020363031 3.985611e-20)
(0.062430103 -0.020823122 1.514797e-20)
(0.075301752 -0.021113866 -1.8908894e-20)
(0.088796965 -0.02123596 5.011133e-21)
(0.1028357 -0.021211341 2.5961256e-20)
(0.11735139 -0.021068824 -8.7010267e-23)
(0.13229079 -0.02082866 -7.8629657e-21)
(0.14760315 -0.020506043 -1.2946332e-20)
(0.16323928 -0.020114548 -8.7502468e-21)
(0.17915294 -0.01966609 1.7872043e-20)
(0.19530045 -0.019170773 9.3604223e-21)
(0.21164017 -0.018637267 -1.6325986e-20)
(0.2281322 -0.018073132 -6.0183324e-21)
(0.24473836 -0.017484996 3.1436892e-21)
(0.26142203 -0.016878698 8.213632e-21)
(0.27814817 -0.016259416 6.9484845e-21)
(0.29488324 -0.015631768 -7.0345475e-21)
(0.31159527 -0.014999886 -3.3023882e-21)
(0.32825388 -0.01436748 1.493982e-21)
(0.34483034 -0.013737872 5.6362306e-22)
(0.36129765 -0.013114038 1.2321467e-21)
(0.37763056 -0.012498624 2.1873985e-22)
(0.39380565 -0.011893971 -3.5646176e-22)
(0.40980139 -0.011302126 -7.3934296e-22)
(0.42559814 -0.010724862 1.0343682e-21)
(0.44117818 -0.010163684 8.5340526e-22)
(0.45652571 -0.009619847 -2.2901127e-22)
(0.47162683 -0.0090943696 5.8042102e-22)
(0.48646953 -0.0085880494 -2.2870401e-22)
(0.50104364 -0.0081014794 -3.9741728e-22)
(0.51534079 -0.007635066 -6.1712439e-22)
(0.52935432 -0.007189048 4.1896353e-22)
(0.5430793 -0.0067635163 -7.7769676e-23)
(0.5565124 -0.0063584355 1.9995946e-22)
(0.56965194 -0.0059736643 -4.5741682e-22)
(0.58249771 -0.0056089851 4.2112979e-22)
(0.59505139 -0.0052641146 6.2700396e-23)
(0.60731542 -0.0049387913 -7.3633767e-23)
(0.61929694 -0.004632641 2.0113745e-22)
(0.63099627 -0.0043458178 2.6897284e-22)
(0.64244366 -0.0040772623 2.0133009e-22)
(0.65359142 -0.0038307733 2.1048138e-22)
(0.66463888 -0.0035968249 -2.0472652e-23)
(0.67508993 -0.0034115659 1.0704607e-22)
(0.68650646 -0.0031783428 9.499113e-23)
(0.6946237 -0.0032212767 -2.0098794e-22)
(0.71147333 -0.0027104314 -1.9082756e-23)
(0.0775587 -0.026910424 1.0003494e-20)
(0.08435518 -0.029583562 3.6699546e-21)
(0.093879881 -0.031587614 -1.3244261e-20)
(0.1044356 -0.03268196 -1.5030968e-21)
(0.11535235 -0.033401664 1.5702594e-20)
(0.12680208 -0.033878893 -1.5352607e-20)
(0.13882399 -0.034092901 -3.0896862e-20)
(0.15133998 -0.034073797 1.5065408e-20)
(0.16429462 -0.033868826 1.8780719e-20)
(0.17765229 -0.033509334 -1.1934043e-20)
(0.191375 -0.033017824 1.0359687e-21)
(0.20542275 -0.032414971 8.5079094e-21)
(0.21975706 -0.03171928 -1.5586824e-20)
(0.23434079 -0.030946505 3.4863268e-21)
(0.24913755 -0.030110229 7.7050575e-21)
(0.26411165 -0.029222398 -3.3338594e-22)
(0.27922831 -0.02829358 4.066385e-23)
(0.29445366 -0.027333158 -7.5610607e-21)
(0.30975487 -0.026349513 4.2369774e-21)
(0.32510014 -0.025350173 8.5976688e-21)
(0.34045892 -0.024341918 -3.875175e-21)
(0.35580191 -0.02333086 -2.1852857e-21)
(0.37110123 -0.022322508 9.2771738e-22)
(0.38633048 -0.021321813 -1.7545405e-21)
(0.40146487 -0.020333199 1.3243202e-21)
(0.41648123 -0.019360592 7.0153155e-22)
(0.43135813 -0.018407442 1.7070726e-21)
(0.44607589 -0.017476745 -2.0978384e-21)
(0.46061663 -0.016571062 2.3827469e-21)
(0.47496426 -0.015692539 5.7764927e-22)
(0.48910451 -0.014842933 5.4267959e-22)
(0.50302486 -0.014023634 3.0805118e-22)
(0.51671457 -0.013235694 9.6817481e-22)
(0.53016458 -0.012479854 -1.4947794e-21)
(0.54336751 -0.011756579 4.1230984e-22)
(0.55631762 -0.011066086 1.829729e-22)
(0.56901072 -0.010408383 -6.7815705e-23)
(0.5814442 -0.0097832983 3.9460469e-23)
(0.59361692 -0.0091905356 -3.9115737e-22)
(0.60552958 -0.0086296862 2.0975535e-22)
(0.6171836 -0.0081003758 -3.1542858e-23)
(0.62858506 -0.0076020409 4.910243e-22)
(0.63973335 -0.007134992 -2.2919986e-22)
(0.65065723 -0.0066975253 4.0805198e-23)
(0.66130921 -0.0062959668 6.4110403e-23)
(0.67188318 -0.0059146468 -8.6741167e-23)
(0.68189482 -0.0056131127 -1.4480986e-22)
(0.69286287 -0.0052325761 4.7095855e-22)
(0.70064503 -0.0053042494 1.785213e-22)
(0.71689701 -0.004470874 -8.4504214e-22)
(0.16120664 -0.03527827 1.7136329e-21)
(0.16522956 -0.039012674 -1.1730607e-20)
(0.17301343 -0.041697884 6.6101433e-21)
(0.1819477 -0.043080425 -1.382892e-20)
(0.19087796 -0.044022283 -2.0458052e-21)
(0.20017931 -0.044695255 9.7070659e-21)
(0.21000909 -0.045034023 -1.0535569e-20)
(0.22028776 -0.045067495 1.2679443e-21)
(0.23096793 -0.04485888 1.3216574e-20)
(0.24203675 -0.044448024 3.6870929e-21)
(0.25347295 -0.043861548 -6.3219575e-21)
(0.2652473 -0.043124601 -3.1034356e-21)
(0.27733029 -0.042260479 -5.6386895e-21)
(0.28969246 -0.041289294 -6.6777413e-21)
(0.30230349 -0.040228536 2.9308196e-21)
(0.31513246 -0.039093777 4.6948884e-22)
(0.32814836 -0.037898981 1.5046067e-21)
(0.34132032 -0.036656707 -3.3830393e-21)
(0.35461783 -0.035378294 -4.4703782e-21)
(0.36801095 -0.034074025 2.4685176e-21)
(0.38147053 -0.032753242 3.4195675e-21)
(0.39496834 -0.031424434 -1.7481734e-21)
(0.40847727 -0.030095302 1.6526302e-21)
(0.42197145 -0.028772804 -4.7194684e-22)
(0.43542638 -0.027463193 -4.1773332e-21)
(0.44881903 -0.02617205 -3.0515181e-21)
(0.4621279 -0.024904301 -2.5999642e-22)
(0.4753331 -0.02366425 3.4986579e-22)
(0.48841639 -0.022455599 -2.2071272e-21)
(0.50136118 -0.021281476 -9.9900943e-22)
(0.51415256 -0.020144468 2.199024e-22)
(0.52677729 -0.019046651 -1.3482446e-21)
(0.53922376 -0.017989631 -4.0731666e-23)
(0.55148197 -0.01697458 -4.8236951e-22)
(0.56354351 -0.01600228 -4.4976867e-22)
(0.57540151 -0.015073171 -6.353987e-22)
(0.58705062 -0.014187394 -9.8713029e-22)
(0.59848698 -0.013344843 -2.5865956e-23)
(0.60970816 -0.01254523 -3.6324098e-24)
(0.62071352 -0.011788108 -5.853826e-22)
(0.63150314 -0.011073076 -4.125252e-23)
(0.64208166 -0.010399462 -3.9362577e-22)
(0.65244722 -0.0097678044 -5.6199944e-22)
(0.66262655 -0.0091758459 4.5639764e-22)
(0.6725725 -0.0086324084 1.4057257e-23)
(0.68247127 -0.0081160199 2.2394256e-22)
(0.69185552 -0.0077084863 -1.6384591e-22)
(0.70218197 -0.0071925351 -3.2078614e-22)
(0.70948487 -0.0072927631 -2.5294409e-23)
(0.72487892 -0.0061632732 4.7804434e-22)
(0.26650083 -0.041133881 -2.2284125e-20)
(0.26684301 -0.045901753 4.9191693e-20)
(0.27201502 -0.049174469 1.060887e-20)
(0.27862838 -0.050776657 -1.6390935e-20)
(0.28487011 -0.051938964 -2.3450338e-21)
(0.29130538 -0.052850382 2.4511702e-21)
(0.29825764 -0.053384218 -1.9588035e-21)
(0.30564715 -0.053557723 -4.812171e-21)
(0.31342313 -0.053443098 -4.1188251e-21)
(0.32159435 -0.053085472 -1.2492256e-20)
(0.33015779 -0.052513177 1.8593325e-20)
(0.33909425 -0.051753148 6.8591e-21)
(0.34838175 -0.050831318 -1.7030271e-20)
(0.35799745 -0.049770785 1.0073613e-20)
(0.36791625 -0.048592015 8.0910432e-21)
(0.37811118 -0.047313514 -5.3286596e-22)
(0.38855417 -0.045952176 -2.9016694e-21)
(0.39921663 -0.044523448 -4.1359697e-21)
(0.41006972 -0.043041478 -1.5341503e-21)
(0.42108473 -0.041519251 -1.3566919e-21)
(0.43223333 -0.039968686 -3.2646906e-21)
(0.44348785 -0.038400706 0)
(0.45482148 -0.036825297 -1.4494431e-21)
(0.46620845 -0.035251541 3.971441e-21)
(0.47762415 -0.033687648 5.6057795e-21)
(0.48904531 -0.032140986 -9.1847818e-22)
(0.50045002 -0.030618099 -3.1829904e-21)
(0.51181786 -0.029124736 3.3314792e-21)
(0.52312992 -0.027665881 1.061321e-22)
(0.53436883 -0.026245783 3.6748806e-21)
(0.5455188 -0.024867993 -5.1562187e-22)
(0.55656556 -0.023535408 1.7764465e-21)
(0.56749644 -0.022250318 -8.7520232e-22)
(0.57830024 -0.021014453 3.7650774e-22)
(0.58896728 -0.019829041 -5.0735949e-22)
(0.59948937 -0.018694862 5.7795775e-22)
(0.60985974 -0.017612313 5.1323182e-22)
(0.62007309 -0.016581469 4.3084988e-22)
(0.63012548 -0.015602161 -1.0671189e-21)
(0.64001472 -0.014674017 7.6256514e-22)
(0.64973934 -0.013796709 -4.0410516e-22)
(0.65930231 -0.012969562 -1.2848272e-21)
(0.66870033 -0.012193425 1.6399306e-21)
(0.67795773 -0.011465601 -5.7222941e-23)
(0.68702796 -0.010797353 -1.8592418e-22)
(0.69608762 -0.01016187 -7.2918229e-24)
(0.70469098 -0.0096616399 -1.7392503e-22)
(0.71421639 -0.0090258911 -5.5358316e-22)
(0.72092164 -0.0091541945 8.1459252e-22)
(0.73523877 -0.0077634548 -4.8287436e-23)
(0.38854227 -0.043529944 -1.8682273e-20)
(0.38433626 -0.049358243 1.3112893e-20)
(0.3859228 -0.053166847 3.5581273e-21)
(0.3894288 -0.055010749 -7.9612146e-21)
(0.39230768 -0.056472163 1.2507378e-20)
(0.39522124 -0.057719353 8.0702067e-21)
(0.39868473 -0.058568673 -1.2811101e-20)
(0.40263512 -0.059022345 -6.2488179e-21)
(0.40700262 -0.059148695 1.3040327e-20)
(0.41180558 -0.058991953 -1.6132519e-20)
(0.41705662 -0.058580972 -1.4357194e-20)
(0.42274453 -0.057943019 1.4899325e-20)
(0.42885125 -0.057104844 6.9506474e-21)
(0.43535733 -0.056091368 -4.8684813e-21)
(0.44224051 -0.054925465 -1.5160974e-21)
(0.44947575 -0.053628266 -3.753352e-21)
(0.45703619 -0.052219428 4.9831768e-21)
(0.46489396 -0.050717272 3.6813087e-21)
(0.47302058 -0.049138845 -3.1653593e-21)
(0.48138743 -0.047499991 3.1285558e-21)
(0.48996603 -0.045815402 2.8953151e-21)
(0.49872838 -0.044098665 -3.3239147e-21)
(0.50764719 -0.042362282 3.6828261e-22)
(0.51669608 -0.0406177 -3.2112829e-21)
(0.52584976 -0.038875323 7.8593764e-21)
(0.53508414 -0.037144533 6.3905613e-21)
(0.54437645 -0.035433713 9.6829493e-22)
(0.5537053 -0.03375027 -1.8166172e-21)
(0.56305073 -0.032100671 4.0894943e-21)
(0.57239427 -0.030490473 7.7848598e-21)
(0.58171893 -0.028924377 2.369418e-21)
(0.59100921 -0.027406272 3.5839583e-21)
(0.6002511 -0.025939294 2.0954227e-21)
(0.60943204 -0.024525889 8.1963487e-22)
(0.61854093 -0.023167879 -2.5175978e-22)
(0.62756809 -0.02186653 2.9717995e-21)
(0.63650522 -0.020622632 6.7152003e-22)
(0.64534547 -0.019436567 3.1133765e-22)
(0.65408329 -0.018308417 5.6772538e-23)
(0.66271488 -0.017238 1.1389539e-21)
(0.67123713 -0.016225179 4.3924859e-23)
(0.67965126 -0.015269385 5.3190868e-22)
(0.68795251 -0.014371863 -1.264736e-22)
(0.69616259 -0.013529609 -3.5811313e-22)
(0.70423587 -0.01275624 -1.8361528e-22)
(0.71233787 -0.012020154 -5.0487565e-22)
(0.72004845 -0.011442607 2.1100005e-22)
(0.7286541 -0.010705311 -1.497884e-22)
(0.73467485 -0.010860937 -4.6534511e-22)
(0.74774615 -0.0092499364 2.6969755e-22)
(0.5212758 -0.041542418 3.5124601e-21)
(0.5118686 -0.048467297 -1.9215116e-20)
(0.50892545 -0.052815272 -2.4923841e-21)
(0.50854336 -0.055084935 5.630379e-21)
(0.50752419 -0.057065601 3.4090389e-21)
(0.5064353 -0.058834189 3.8045228e-22)
(0.50595329 -0.060181237 6.8498461e-21)
(0.50607492 -0.061109838 7.9776162e-21)
(0.50670837 -0.06167414 1.0025421e-20)
(0.50785887 -0.061908657 -1.1657068e-20)
(0.50954438 -0.061841148 -2.2481572e-20)
(0.51175866 -0.061499324 -4.3181742e-21)
(0.51448389 -0.060910311 1.6520312e-20)
(0.51769973 -0.060100451 1.3206766e-20)
(0.52138344 -0.059095066 -5.8000839e-21)
(0.52550945 -0.057918195 1.0631032e-21)
(0.53005007 -0.05659262 -4.0135797e-21)
(0.53497637 -0.05513992 2.8123075e-21)
(0.5402588 -0.053580462 -2.9269846e-22)
(0.54586753 -0.051933374 -1.934726e-21)
(0.55177285 -0.050216545 8.2776759e-21)
(0.55794548 -0.048446626 -4.2518365e-22)
(0.56435681 -0.046639024 5.4095229e-22)
(0.57097914 -0.044807912 -5.2616344e-22)
(0.57778582 -0.042966226 -4.4434028e-21)
(0.58475137 -0.041125681 4.3397408e-21)
(0.59185164 -0.03929679 1.8637672e-21)
(0.59906382 -0.037488891 -3.3994597e-21)