/*--------------------------------*- C++ -*----------------------------------*\
  =========                 |
  \\      /  F ield         | OpenFOAM: The Open Source CFD Toolbox
   \\    /   O peration     | Website:  https://openfoam.org
    \\  /    A nd           | Version:  6
     \\/     M anipulation  |
\*---------------------------------------------------------------------------*/
FoamFile
{
    version     2.0;
    format      ascii;
    class       surfaceScalarField;
    location    "87";
    object      phi_0;
}
// * * * * * * * * * * * * * * * * * * * * * * * * * * * * * * * * * * * * * //

dimensions      [0 3 -1 0 0 0 0];

internalField   nonuniform List<scalar> 
18180
(
0.00031880903
-0.00016331822
-0.00015549075
0.0013095305
-0.0013675642
0.0003768428
0.0030336164
-0.0033349339
0.0016108482
0.0055510907
-0.0059781063
0.003460632
0.0089202899
-0.0092422222
0.0058730231
0.013195873
-0.013083823
0.0088082405
0.018426161
-0.017465434
0.012235146
0.024650165
-0.022352826
0.016128823
0.031894436
-0.027711896
0.020467626
0.040169986
-0.033506038
0.025230487
0.049469606
-0.039694392
0.030394773
0.059765933
-0.046230926
0.035934599
0.07101069
-0.053064335
0.041819578
0.083135541
-0.06013881
0.048013958
0.096055179
-0.067395736
0.054476098
0.10967317
-0.074776469
0.061158482
0.12388995
-0.082226003
0.068009215
0.13861812
-0.089697274
0.074969111
0.15385615
-0.097173129
0.081935097
-0.10465119
0.088704771
0.16980257
0.00039758795
-0.00056090612
0.0016099543
-0.0025799305
0.0036901293
-0.0054151089
0.0066888937
-0.0089768707
0.010652929
-0.013206257
0.015621154
-0.018052049
0.021620719
-0.023464999
0.028663037
-0.029395144
0.036740149
-0.035789008
0.045821831
-0.04258772
0.055853853
-0.049726415
0.066757773
-0.057134845
0.078432484
-0.064739046
0.090757625
-0.07246395
0.10359863
-0.080236742
0.11681283
-0.087990667
0.13025563
-0.095668802
0.1437873
-0.10322895
0.15727191
-0.11065773
-0.11788567
0.17050639
0.00048072489
-0.001041631
0.0019190933
-0.0040182989
0.0043533584
-0.007849374
0.0078181147
-0.012441627
0.012340065
-0.017728207
0.017932615
-0.023644599
0.024590793
-0.030123177
0.032286976
-0.037091327
0.040967862
-0.044469894
0.050553165
-0.052173023
0.060936429
-0.060109679
0.071988103
-0.068186519
0.083560777
-0.07631172
0.095496153
-0.084399327
0.10763302
-0.092373612
0.11981518
-0.10017283
0.13189811
-0.10775173
0.14375236
-0.1150832
0.15525599
-0.12216136
-0.12893616
0.16630647
0.00056628051
-0.0016079114
0.0022283659
-0.0056803842
0.0050015395
-0.010622548
0.0088956218
-0.016335709
0.013907707
-0.022740293
0.020015292
-0.029752183
0.027170935
-0.03727882
0.03529892
-0.045219312
0.044294368
-0.053465342
0.054025174
-0.061903829
0.064336808
-0.070421313
0.075059648
-0.078909359
0.086018152
-0.087270224
0.09704088
-0.095422054
0.10797023
-0.10330296
0.11867073
-0.11087333
0.12903508
-0.11811608
0.13898676
-0.12503488
0.14847682
-0.13165142
-0.13796499
0.15750566
0.00065100427
-0.0022589156
0.0025247834
-0.0075541632
0.0056045856
-0.01370235
0.009866085
-0.020597208
0.015267024
-0.028141231
0.02173969
-0.03622485
0.029186646
-0.044725775
0.03747989
-0.053512557
0.046463705
-0.062449156
0.05596105
-0.071401175
0.065782897
-0.080243159
0.075739423
-0.088865885
0.085651738
-0.097182539
0.095362684
-0.105133
0.10474544
-0.11268571
0.11370906
-0.11983696
0.12220064
-0.12660765
0.13020404
-0.13303828
0.13773555
-0.13918293
-0.14508536
0.14485591
0.00073075801
-0.0029896736
0.0027925333
-0.0096159384
0.0061275173
-0.017037334
0.010668283
-0.025137975
0.016324933
-0.033797881
0.02297826
-0.042878177
0.030478133
-0.052225648
0.038646672
-0.061681095
0.047285844
-0.071088328
0.056188526
-0.080303856
0.065151526
-0.08920616
0.073988777
-0.097703136
0.082542888
-0.10573665
0.090693643
-0.11328376
0.098362484
-0.12035455
0.10551282
-0.12698729
0.11214664
-0.13324148
0.11829849
-0.13919013
0.1240279
-0.14491233
-0.15047924
0.12942179
0.0008008538
-0.0037905274
0.0030143536
-0.011829438
0.0065337957
-0.020556776
0.011241515
-0.029845694
0.01699476
-0.039551125
0.023621176
-0.049504593
0.030921312
-0.059525784
0.03867671
-0.069436493
0.046662232
-0.079073851
0.054660658
-0.088302282
0.062477234
-0.097022736
0.069951965
-0.10517787
0.07696795
-0.11275264
0.083454848
-0.11977065
0.089387452
-0.12628716
0.094780134
-0.13237997
0.099678532
-0.13813988
0.1041501
-0.1436617
0.10827507
-0.14903731
-0.15434788
0.11214371
0.00085617755
-0.0046467049
0.0031724729
-0.014145733
0.0067880518
-0.024172355
0.011531101
-0.034588743
0.017205197
-0.045225221
0.023588697
-0.055888092
0.03044226
-0.066379348
0.037521746
-0.076515979
0.044594005
-0.08614611
0.051452737
-0.095161013
0.057931637
-0.10350164
0.063912821
-0.11115905
0.069329539
-0.11816935
0.074163294
-0.12460441
0.078436469
-0.13056033
0.08220211
-0.13614561
0.085532817
-0.14147058
0.088510421
-0.1466393
0.091217773
-0.15174466
-0.15686493
0.093734823
0.00089037286
-0.0055370776
0.0032486545
-0.016504015
0.0068583417
-0.027782042
0.011493552
-0.039223953
0.016908213
-0.050639883
0.022840495
-0.061820374
0.029025289
-0.072564141
0.035210669
-0.082701359
0.041174908
-0.092110349
0.046740702
-0.10072681
0.051784077
-0.10854501
0.056236772
-0.11561175
0.06008232
-0.1220149
0.063347164
-0.12786925
0.066088827
-0.13330199
0.068383353
-0.13844014
0.070313914
-0.14340114
0.071961934
-0.14828732
0.073401344
-0.15318407
-0.15815931
0.074695723
0.0008999162
-0.0064369938
0.0032336976
-0.018837796
0.0067297525
-0.031278097
0.011112018
-0.043606218
0.016093491
-0.055621356
0.021385645
-0.067112528
0.02671473
-0.077893226
0.031839569
-0.087826198
0.036566929
-0.09683771
0.040761311
-0.10492119
0.04434755
-0.11213125
0.047306345
-0.11857054
0.049664248
-0.12437281
0.051480469
-0.12968547
0.052832987
-0.13465451
0.053806098
-0.13941325
0.054480822
-0.14407587
0.05492878
-0.14873528
0.055209364
-0.15346466
0.055368652
-0.1583186
-0.00020242616
0.00020242585
3.114935e-10
-0.00067789962
0.00047547318
2.9538356e-10
-0.001342718
0.00066481813
2.7078762e-10
-0.0021327419
0.00079002367
2.925375e-10
-0.0029963791
0.00086363691
3.1972787e-10
-0.0038914958
0.00089511631
3.4146048e-10
-0.0047831818
0.00089168571
3.5826107e-10
-0.0056418814
0.00085869925
3.6864871e-10
-0.0064419217
0.00080004001
3.7576853e-10
-0.0071603618
0.0007184397
3.7688267e-10
-0.0077760734
0.00061571131
3.7641473e-10
-0.008269006
0.00049293222
3.7030734e-10
-0.0086196061
0.00035059986
3.6438718e-10
-0.0088083845
0.00018877802
3.5354654e-10
-0.0088156598
7.2750616e-06
3.4399197e-10
-0.0086215831
-0.00019407697
3.3041825e-10
-0.0082064011
-0.00041518225
3.2022115e-10
-0.007550051
-0.00065635039
3.0665516e-10
-0.0066317542
-0.00091829707
2.9787706e-10
-0.0011874154
-0.005444339
2.9203745e-10
-0.00018801662
0.00039044248
-0.00062514009
0.00091259667
-0.0012290033
0.0012686814
-0.0019355703
0.0014965907
-0.0026926352
0.0016207019
-0.0034568823
0.0016593634
-0.0041917384
0.0016265419
-0.0048655631
0.001532524
-0.0054502106
0.0013846875
-0.0059198937
0.0011881229
-0.0062502687
0.0009460863
-0.0064176926
0.00066035615
-0.0063986185
0.00033152577
-0.0061691159
-4.0724524e-05
-0.0057045456
-0.00045729518
-0.0049794791
-0.00091914337
-0.0039679147
-0.0014267467
-0.0026431977
-0.0019810674
-0.00097787079
-0.0025836239
-0.0032045946
0.0010393084
-0.00015895903
0.00054940153
-0.00051898605
0.0012726237
-0.0010009393
0.0017506346
-0.0015414975
0.0020371489
-0.0020876358
0.0021668402
-0.0025940341
0.0021657618
-0.003021132
0.0020536398
-0.0033334607
0.0018448528
-0.0034982972
0.001549524
-0.0034845876
0.0011744134
-0.0032620633
0.00072356204
-0.0028005204
0.00019881327
-0.002069186
-0.00039980863
-0.001036204
-0.0010737065
0.00033179439
-0.0018252935
0.0020699675
-0.0026573165
0.0042152235
-0.0035720026
0.0068059138
-0.0045717576
0.0098817638
-0.0056594739
-0.0067849175
0.013462087
-0.00011758352
0.00066698507
-0.00036704147
0.0015220817
-0.00067357393
0.0020571671
-0.00097487739
0.0023384524
-0.0012168554
0.0024088182
-0.0013514878
0.0023003942
-0.0013351725
0.0020373246
-0.0011272708
0.0016369511
-0.00068891014
0.0011111633
1.7968338e-05
0.00046753493
0.001031394
-0.00028986363
0.0023900141
-0.0011598068
0.0041336387
-0.0021434332
0.0063037225
-0.0032437903
0.0089438712
-0.0044654422
0.012100398
-0.0058138432
0.015822699
-0.0072943033
0.020162951
-0.0089120098
0.025175902
-0.010672425
-0.012500975
0.03089196
-6.6907876e-05
0.00073389297
-0.00017915084
0.0016343247
-0.00026646947
0.0021444858
-0.00026752915
0.0023395121
-0.00012686794
0.002268157
0.00020674048
0.0019667858
0.00078161563
0.0014624495
0.0016443399
0.00077422685
0.0028407287
-8.5225399e-05
0.0044166161
-0.0011083524
0.0064184185
-0.002291666
0.0088935511
-0.0036349393
0.011890753
-0.005140635
0.015460416
-0.0068134539
0.019654961
-0.008659987
0.024529454
-0.010688336
0.030142484
-0.012907334
0.036556677
-0.015326203
0.04383946
-0.017955207
-0.020694709
0.052033193
-9.9685301e-06
0.00074386152
3.4610429e-05
0.0015897457
0.00020008306
0.0019790132
0.0005471503
0.0019924449
0.0011329148
0.0016823926
0.0020120417
0.0010876589
0.0032377226
0.0002367686
0.0048625588
-0.00085060928
0.0069392185
-0.0021618851
0.0095208114
-0.0036899452
0.012661096
-0.005431951
0.016414586
-0.007388429
0.020836473
-0.0095625217
0.025982466
-0.011959447
0.031908695
-0.014586215
0.038672003
-0.017451644
0.046331136
-0.020566466
0.054948799
-0.023943866
0.064595492
-0.027601899
-0.03142183
0.075322613
5.0782559e-05
0.00069307899
0.00026578998
0.0013747383
0.0007085708
0.0015362324
0.0014396299
0.0012613859
0.0025178191
0.00060420334
0.0040010993
-0.00039562115
0.0059471359
-0.001709268
0.008413688
-0.0033171614
0.011458738
-0.0052069353
0.015140461
-0.007371668
0.019516954
-0.0098084439
0.024645709
-0.012517184
0.030582878
-0.01549969
0.037382369
-0.018758939
0.045094917
-0.022298763
0.053767531
-0.026124258
0.063444309
-0.030243245
0.074169828
-0.034669385
0.085998084
-0.039430156
-0.044408554
0.098984808
0.00011384106
0.00057923795
0.00050868739
0.00097989205
0.0012464126
0.00079850718
0.0023875763
0.00012022228
0.0039925466
-0.001000767
0.0061218453
-0.0025249198
0.0088361272
-0.0044235499
0.012196004
-0.0066770376
0.016261635
-0.0092725671
0.021091988
-0.01220202
0.026743789
-0.015460246
0.033270207
-0.019043602
0.040719254
-0.022948737
0.049131984
-0.027171668
0.058540588
-0.031707368
0.068966776
-0.036550445
0.080421585
-0.041698053
0.0929085
-0.0471563
0.10643495
-0.052956606
-0.05901878
0.12104518
0.0001785525
0.00040068548
0.00076026031
0.00039818429
0.0018058719
-0.00024710436
0.0033756919
-0.0014495977
0.0055305765
-0.0031556516
0.0083316761
-0.0053260194
0.01183981
-0.0079316835
0.016114541
-0.010951769
0.021212897
-0.014370923
0.027187742
-0.018176866
0.034085853
-0.022358356
0.041945709
-0.026903458
0.05079507
-0.031798098
0.060648331
-0.037024929
0.071503674
-0.042562711
0.083340059
-0.04838683
0.096115016
-0.054473011
0.10976599
-0.060807269
0.12422379
-0.067414414
-0.07429967
0.13950468
0.00024519476
0.0010202219
0.0023839657
0.0043950001
0.0071123717
0.010594593
0.014898055
0.020075109
0.026171812
0.033225433
0.04126185
0.050292991
0.060314471
0.0713035
0.083216887
0.095988539
0.10952474
0.12368659
0.13820727
0.15261237
-0.003502289
-0.0019420504
3.9242109e-10
-0.0012788749
-0.0022234145
3.9771669e-10
0.0012035817
-0.002482457
4.1176815e-10
0.0038881716
-0.0026845903
4.3516124e-10
0.0067480952
-0.002859924
4.5843155e-10
0.0097660565
-0.0030179618
4.9037603e-10
0.012923129
-0.003157073
5.204181e-10
0.016201297
-0.0032781688
5.4961961e-10
0.019584868
-0.0033835709
5.7200996e-10
0.02305963
-0.0034747628
5.8074697e-10
0.026612306
-0.003552677
5.7507164e-10
0.030230481
-0.0036181758
5.4855714e-10
0.033902523
-0.0036720418
4.9918759e-10
0.037617445
-0.0037149226
4.2037809e-10
0.041364809
-0.0037473644
3.1018764e-10
0.045134657
-0.003769848
1.6432983e-10
0.048917463
-0.0037828063
-1.6318477e-11
0.052704101
-0.0037866379
-2.3113694e-10
0.056485823
-0.0037817214
-4.7431961e-10
0.060254251
-0.0037684271
-7.3888906e-10
0.064001378
-0.0037471259
-1.0134118e-09
0.067719574
-0.0037181952
-1.2846294e-09
0.071401599
-0.0036820232
-1.5365553e-09
0.075040612
-0.0036390113
-1.7514554e-09
0.078630188
-0.0035895736
-1.9118333e-09
0.082164326
-0.0035341364
-1.9988208e-09
0.085637464
-0.0034731361
-1.9978477e-09
0.089044482
-0.0034070161
-1.8925978e-09
0.092380707
-0.0033362236
-1.6762946e-09
0.095641914
-0.0032612054
-1.3387106e-09
0.098824321
-0.0031824059
-8.8634021e-10
0.10192458
-0.0031002628
-3.1915336e-10
0.10493979
-0.0030152047
3.3513013e-10
0.10786744
-0.0029276498
1.0596696e-09
0.11070544
-0.0028380044
1.7943173e-09
0.1134521
-0.0027466633
2.4992196e-09
0.11610611
-0.0026540111
3.0741107e-09
0.11866653
-0.0025604256
3.4643392e-09
0.12113281
-0.0024662853
3.5456087e-09
0.12350478
-0.0023719707
3.2900536e-09
0.12578269
-0.0022779101
2.6173944e-09
0.12796718
-0.0021844986
1.5918133e-09
0.13005968
-0.0020924999
2.9276429e-10
0.13206162
-0.0020019342
-1.0487797e-09
0.13397776
-0.0019161413
-2.1761723e-09
0.1358071
-0.0018293329
-2.8388523e-09
0.13757565
-0.0017685473
-2.7554615e-09
0.13923892
-0.0016632746
-2.0201823e-09
0.14100251
-0.0017635833
-6.6036095e-10
-0.0014212183
-3.7439458e-10
0.0028614035
-0.0037641454
0.0049602192
-0.0043222302
0.0073049545
-0.0048271924
0.0098331567
-0.0052127925
0.012523768
-0.0055505357
0.015364475
-0.0058586689
0.018338546
-0.0061311434
0.02142958
-0.0063692033
0.024623568
-0.0065775589
0.027907756
-0.0067589507
0.031270022
-0.0069149424
0.034698893
-0.0070470474
0.038183525
-0.0071566734
0.041713582
-0.0072449796
0.045279159
-0.0073129417
0.048870737
-0.0073614264
0.052479154
-0.0073912226
0.05609558
-0.0074030648
0.059711518
-0.0073976591
0.063318796
-0.0073757047
0.066909578
-0.0073379087
0.070476381
-0.0072849975
0.074012081
-0.0072177237
0.077509938
-0.0071368686
0.080963608
-0.0070432428
0.084367154
-0.0069376827
0.087715064
-0.0068210462
0.091002254
-0.0066942066
0.094224077
-0.0065580459
0.097376318
-0.0064134469
0.1004552
-0.0062612874
0.10345737
-0.0061024331
0.1063799
-0.0059377327
0.10922026
-0.0057680147
0.11197634
-0.0055940846
0.11464641
-0.0054167258
0.1172291
-0.0052367029
0.11972344
-0.0050547668
0.12212882
-0.0048716719
0.12444503
-0.0046881759
0.12667225
-0.0045051347
0.12881109
-0.0043233371
0.1308629
-0.0041443082
0.13282906
-0.0039680921
0.13471426
-0.0038013376
0.13651749
-0.0036325636
0.13826432
-0.0035153812
0.13991129
-0.003310241
0.14165884
-0.0035111391
-0.0028399351
0.015034994
-0.0053370529
0.016867826
-0.0061550623
0.018923279
-0.0068826451
0.021131416
-0.0074209294
0.023480608
-0.0078997281
0.025967216
-0.0083452767
0.028578631
-0.0087425581
0.03130138
-0.0090919529
0.034124373
-0.0094005518
0.037037389
-0.0096719667
0.040030318
-0.009907871
0.043093309
-0.010110039
0.04621685
-0.010280214
0.049391698
-0.010419827
0.052608837
-0.01053008
0.05585947
-0.010612059
0.059135023
-0.010666776
0.062427154
-0.010695195
0.065727759
-0.010698264
0.069028996
-0.010676942
0.072323304
-0.010632217
0.075603425
-0.010565118
0.078862425
-0.010476724
0.08209372
-0.010368164
0.085291094
-0.010240617
0.088448717
-0.010095305
0.091561157
-0.0099334857
0.094623392
-0.0097564416
0.097630816
-0.00956547
0.10057924
-0.0093618736
0.1034649
-0.0091469465
0.10628444
-0.0089219683
0.1090349
-0.0086881944
0.11171373
-0.0084468509
0.11431878
-0.0081991323
0.11684826
-0.007946201
0.11930075
-0.0076891937
0.12167521
-0.0074292284
0.12397097
-0.0071674301
0.12618772
-0.006904931
0.1283256
-0.006643012
0.13038512
-0.0063828558
0.13236755
-0.0061267432
0.13427422
-0.0058747591
0.13610966
-0.005636779
0.13787297
-0.0053958745
0.13958877
-0.0052311763
0.1412159
-0.0049373709
0.14294427
-0.0052395125
-0.0042669164
0.032076908
-0.0065220007
0.033493886
-0.0075720408
0.035101322
-0.0084900806
0.036826239
-0.0091458469
0.038669333
-0.0097428217
0.040636913
-0.010312857
0.042721818
-0.010827464
0.044914536
-0.01128467
0.047207498
-0.011693514
0.049593489
-0.012057957
0.05206481
-0.012379193
0.054613519
-0.012658747
0.057231615
-0.012898311
0.059911069
-0.013099282
0.062643835
-0.013262846
0.065421882
-0.013390107
0.068237248
-0.013482141
0.071082073
-0.01354002
0.073948645
-0.013564837
0.076829438
-0.013557735
0.079717143
-0.013519923
0.082604712
-0.013452687
0.085485383
-0.013357394
0.088352711
-0.013235492
0.091200595
-0.013088501
0.094023294
-0.012918004
0.096815449
-0.012725641
0.099572091
-0.012513084
0.10228865
-0.01228203
0.10496096
-0.012034185
0.10758526
-0.011771246
0.11015819
-0.011494893
0.11267677
-0.011206773
0.11513842
-0.010908502
0.11754094
-0.010601651
0.11988249
-0.010287754
0.12216161
-0.0099683128
0.12437719
-0.0096448065
0.12652848
-0.0093187265
0.12861513
-0.0089915784
0.13063718
-0.0086650661
0.1325951
-0.0083407685
0.13449007
-0.0080217148
0.13632337
-0.0077080567
0.13809936
-0.0074127742
0.13981735
-0.0071138611
0.14150058
-0.0069144056
0.14311137
-0.0065481672
0.14482444
-0.0069525771
-0.0057181362
0.05267517
-0.0071639778
0.053517536
-0.0084144067
0.054513543
-0.0094860877
0.05559752
-0.010229824
0.056784297
-0.010929599
0.05808818
-0.011616739
0.059507689
-0.012246974
0.06103797
-0.01281495
0.06267482
-0.013330365
0.064413654
-0.013796791
0.066248963
-0.014214501
0.068174489
-0.014584273
0.070183481
-0.014907303
0.072268851
-0.015184652
0.074423266
-0.015417261
0.07663923
-0.015606071
0.078909167
-0.015752079
0.081225505
-0.015856358
0.083580735
-0.015920067
0.085967479
-0.015944478
0.088378536
-0.01593098
0.090806937
-0.015881087
0.093245974
-0.015796432
0.095689245
-0.015678763
0.098130678
-0.015529933
0.10056455
-0.01535188
0.10298553
-0.015146614
0.10538864
-0.014916193
0.10776931
-0.014662709
0.11012339
-0.014388263
0.1124471
-0.014094952
0.11473705
-0.013784847
0.11699027
-0.013459989
0.11920414
-0.013122372
0.12137643
-0.012773944
0.12350528
-0.012416607
0.1255892
-0.012052224
0.12762702
-0.011682634
0.12961799
-0.011309698
0.13156171
-0.010935293
0.13345819
-0.010561549
0.13530787
-0.010190447
0.13711191
-0.0098257571
0.13887159
-0.0094677316
0.14059112
-0.0091323012
0.1422701
-0.0087928493
0.14393014
-0.0085744468
0.145538
-0.0081560191
0.14724952
-0.0086641044
-0.0072169142
0.075253204
-0.0070945692
0.075359858
-0.0085210606
0.075586006
-0.0097122355
0.07588819
-0.010532008
0.076294465
-0.011335873
0.076821691
-0.012143965
0.077472914
-0.012898197
0.078248078
-0.013590114
0.079145501
-0.014227788
0.080162046
-0.014813337
0.081293483
-0.015345938
0.082534527
-0.015825317
0.083879007
-0.016251783
0.085320159
-0.016625803
0.086850819
-0.016947921
0.088463552
-0.017218804
0.090150758
-0.017439285
0.091904777
-0.017610376
0.093717987
-0.017733278
0.095582876
-0.017809367
0.097492103
-0.017840208
0.099438557
-0.017827541
0.1014154
-0.017773278
0.10341612
-0.017679477
0.10543452
-0.017548337
0.1074648
-0.017382162
0.10950154
-0.017183348
0.11153969
-0.016954352
0.11357466
-0.016697672
0.11560221
-0.016415817
0.11761855
-0.016111292
0.11962028
-0.015786573
0.12160438
-0.015444096
0.12356826
-0.015086246
0.12550967
-0.014715353
0.12742675
-0.01433369
0.12931802
-0.013943492
0.13118235
-0.013546966
0.13301899
-0.013146342
0.13482759
-0.012743884
0.13660819
-0.012342151
0.13836128
-0.011943537
0.14008806
-0.011552545
0.14178991
-0.011169574
0.14347093
-0.010813326
0.14513119
-0.010453109
0.14679045
-0.010233705
0.14842063
-0.0097861978
0.15015632
-0.010399797
-0.0087954284
0.098059236
-0.0061689977
0.097293484
-0.0077553087
0.096618796
-0.0090375473
0.09603607
-0.0099492819
0.095581453
-0.010881256
0.095266184
-0.011828697
0.095095641
-0.012727654
0.095073837
-0.01356831
0.095200319
-0.014354269
0.095471831
-0.015084849
0.095884027
-0.015758133
0.096431508
-0.016372798
0.097107803
-0.016928078
0.097905692
-0.017423693
0.098817509
-0.017859737
0.099835295
-0.018236591
0.10095093
-0.018554924
0.10215626
-0.018815704
0.10344317
-0.019020187
0.1048037
-0.019169892
0.10623008
-0.019266592
0.10771484
-0.019312295
0.10925078
-0.019309226
0.11083111
-0.019259798
0.11244936
-0.01916659
0.11409951
-0.019032317
0.11577596
-0.018859795
0.11747353
-0.018651915
0.11918747
-0.018411615
0.12091349
-0.018141842
0.12264774
-0.017845536
0.12438677
-0.017525604
0.12612757
-0.017184902
0.12786756
-0.016826228
0.12960451
-0.016452311
0.13133664
-0.01606582
0.13306253
-0.015669374
0.13478112
-0.015265562
0.13649179
-0.014857009
0.13819427
-0.014446369
0.13988878
-0.014036652
0.14157592
-0.013630677
0.14325705
-0.013233683
0.14493374
-0.012846255
0.1466101
-0.012489692
0.14828677
-0.012129778
0.14998164
-0.011928572
0.15167226
-0.01147682
0.15347078
-0.012198316
-0.010495464
0.1192227
-0.0043465217
0.11753138
-0.0060639897
0.11589325
-0.007399414
0.11439222
-0.0084482507
0.11306453
-0.0095535742
0.11190772
-0.010671882
0.11092725
-0.011747183
0.11012941
-0.012770474
0.10951363
-0.013738491
0.10907533
-0.014646545
0.1088087
-0.015491505
0.1087071
-0.016271195
0.10876294
-0.016983918
0.10896792
-0.017628679
0.10931335
-0.018205159
0.10979028
-0.018713523
0.11038971
-0.019154356
0.11110266
-0.01952865
0.11192025
-0.019837783
0.11283384
-0.020083483
0.11383505
-0.020267797
0.11491582
-0.020393064
0.11606848
-0.020461887
0.11728577
-0.020477091
0.11856088
-0.020441699
0.11988745
-0.020358888
0.12125961
-0.020231954
0.12267197
-0.020064275
0.12411963
-0.019859272
0.12559817
-0.019620384
0.12710366
-0.019351028
0.12863264
-0.019054583
0.1301821
-0.018734366
0.1317495
-0.01839362
0.1333327
-0.018035511
0.13493
-0.017663129
0.13654014
-0.017279509
0.13816223
-0.016887654
0.13979582
-0.016490597
0.14144087
-0.016091418
0.14309781
-0.015693592
0.14476752
-0.015300388
0.14645162
-0.014917786
0.14815197
-0.014546603
0.14987283
-0.014210558
0.15161552
-0.013872467
0.15339612
-0.01370917
0.15519806
-0.013278764
0.15711092
-0.014111175
-0.012368322
0.1369266
-0.0017684404
0.13440966
-0.0035470431
0.13185225
-0.0048420068
0.12949647
-0.0060924676
0.12736951
-0.0074266168
0.12545276
-0.0087551341
0.12374906
-0.010043484
0.12226351
-0.01128492
0.12099456
-0.012469543
0.11993646
-0.013588443
0.11908171
-0.014636754
0.11842197
-0.01561146
0.11794827
-0.016510217
0.11765109
-0.017331498
0.11752058
-0.018074647
0.11754674
-0.018739682
0.11771957
-0.019327187
0.11802917
-0.019838252
0.11846583
-0.020274447
0.11902013
-0.020637775
0.11968295
-0.020930624
0.12044562
-0.021155731
0.12129988
-0.021316143
0.12223795
-0.021415167
0.12325259
-0.021456334
0.12433705
-0.021443353
0.12548516
-0.02138006
0.12669126
-0.021270382
0.12795028
-0.021118293
0.12925767
-0.020927775
0.13060943
-0.020702783
0.13200207
-0.02044722
0.13343261
-0.020164914
0.1348986
-0.019859602
0.13639802
-0.01953493
0.13792934
-0.019194455
0.1394915
-0.018841665
0.14108385
-0.018480007
0.14270622
-0.018112968
0.14435888
-0.017744077
0.1460426
-0.017377306
0.14775861
-0.017016401
0.14950892
-0.016668099
0.15129581
-0.016333489
0.1531238
-0.016038553
0.154995
-0.015743666
0.15692379
-0.015637961
0.15889961
-0.015254582
0.16098987
-0.016201435
-0.014473895
0.15007743
0.00076649995
0.14678931
-0.00025892762
0.14349296
-0.0015456523
0.14044627
-0.0030457787
0.13765257
-0.0046329159
0.13510561
-0.0062081749
0.13280724
-0.0077451142
0.13075755
-0.0092352338
0.12895412
-0.01066611
0.12739175
-0.012026073
0.12606263
-0.013307633
0.12495737
-0.014506196
0.12406579
-0.015618645
0.12337727
-0.016642973
0.12288082
-0.0175782
0.12256536
-0.018424219
0.12241982
-0.019181651
0.12243332
-0.019851748
0.12259521
-0.020436339
0.1228952
-0.020937763
0.1233234
-0.021358824
0.1238704
-0.021702728
0.12452729
-0.02197304
0.12528575
-0.022173627
0.12613802
-0.022308603
0.12707695
-0.022382283
0.12809602
-0.022399124
0.12918931
-0.022363676
0.13035155
-0.022280536
0.13157808
-0.0221543
0.13286483
-0.021989529
0.13420832
-0.021790715
0.13560566
-0.021562256
0.13705451
-0.021308444
0.13855303
-0.021033456
0.14009994
-0.020741364
0.14169443
-0.020436156
0.1433362
-0.020121771
0.14502541
-0.019802182
0.14676274
-0.019481407
0.14854938
-0.019163951
0.15038704
-0.018854059
0.1522782
-0.018559257
0.15422562
-0.018280914
0.15623428
-0.018047206
0.15830694
-0.017816329
0.16045697
-0.017787989
0.16267807
-0.017475679
0.16502094
-0.018544311
-0.016876684
0.18894681
0.0053669934
-0.19354731
0.18513833
0.0035495563
0.18174789
0.0018447876
0.17860444
9.7674212e-05
0.17567063
-0.0016991047
0.17292143
-0.0034589782
0.17033863
-0.0051623183
0.16791326
-0.0068098554
0.16564142
-0.008394277
0.16352099
-0.0099056401
0.16155011
-0.011336752
0.15972668
-0.012682767
0.15804807
-0.013940039
0.15651101
-0.015105912
0.15511159
-0.016178777
0.15384535
-0.017157982
0.15270739
-0.01804369
0.15169243
-0.018836787
0.15079491
-0.01953882
0.15000908
-0.020151934
0.14932907
-0.02067881
0.14874895
-0.021122606
0.1482628
-0.021486896
0.14786479
-0.021775614
0.14754918
-0.021992991
0.14731039
-0.022143494
0.14714304
-0.022231774
0.14704196
-0.0222626
0.14700224
-0.022240813
0.14701921
-0.022171272
0.1470885
-0.022058814
0.147206
-0.021908217
0.14736791
-0.021724173
0.14757074
-0.02151127
0.14781127
-0.021273989
0.14808661
-0.021016701
0.14839416
-0.020743703
0.14873162
-0.020459239
0.14909705
-0.020167604
0.14948878
-0.019873142
0.14990555
-0.019580723
0.15034644
-0.019294947
0.15081106
-0.019023878
0.15129929
-0.018769143
0.15181236
-0.018560271
0.15235041
-0.018354385
0.15291951
-0.018357086
0.15351385
-0.018070022
0.15416356
-0.019194023
-0.017537366
0.21689443
0.0087637307
-0.22029117
0.21342221
0.0070217745
0.21021109
0.0050559112
0.20710753
0.0032012287
0.20406277
0.0013456604
0.20110776
-0.00050396466
0.19825939
-0.0023139492
0.19552219
-0.0040726533
0.19290206
-0.0057741518
0.19040585
-0.0074094344
0.18803878
-0.0089696772
0.18580425
-0.010448234
0.18370426
-0.011840055
0.18173954
-0.013141192
0.17990957
-0.014348801
0.17821273
-0.015461141
0.17664649
-0.016477457
0.17520757
-0.017397867
0.17389204
-0.018223284
0.17269545
-0.01895535
0.171613
-0.019596358
0.17063958
-0.020149184
0.16976989
-0.020617213
0.16899855
-0.021004272
0.16832012
-0.021314561
0.16772921
-0.021552579
0.1672205
-0.021723064
0.16678882
-0.021830922
0.16642917
-0.021881168
0.16613677
-0.021878871
0.16590706
-0.021829104
0.16573575
-0.021736901
0.1656188
-0.021607229
0.1655525
-0.021444963
0.16553338
-0.021254878
0.16555833
-0.02104165
0.16562451
-0.020809884
0.16572942
-0.020564147
0.16587088
-0.020309058
0.16604704
-0.020049309
0.16625646
-0.019790137
0.16649805
-0.019536542
0.16677121
-0.019297038
0.16707587
-0.019073804
0.16741246
-0.018896854
0.16778263
-0.018724559
0.16818689
-0.018761345
0.16863275
-0.018515882
0.1691077
-0.019668971
-0.018081252
0.24380087
0.011486179
-0.24652331
0.24095202
0.0098706215
0.23810043
0.0079074969
0.23525517
0.0060464887
0.23237917
0.0042216664
0.22949323
0.0023819696
0.22662859
0.00055069211
0.22380455
-0.0012486109
0.22103703
-0.0030066358
0.21834199
-0.0047143899
0.21573328
-0.0063609734
0.21322193
-0.0079368819
0.21081656
-0.00943468
0.20852373
-0.010848366
0.20634811
-0.012173174
0.20429258
-0.013405612
0.20235852
-0.014543401
0.200546
-0.015585344
0.19885395
-0.016531233
0.19728036
-0.017381765
0.19582246
-0.018138452
0.19447681
-0.018803537
0.19323951
-0.019379911
0.19210626
-0.019871023
0.1910725
-0.020280808
0.19013352
-0.020613595
0.18928449
-0.020874036
0.1885206
-0.021067027
0.18783707
-0.021197638
0.18722924
-0.021271047
0.18669262
-0.021292482
0.18622289
-0.021267173
0.18581597
-0.021200312
0.18546804
-0.021097026
0.18517552
-0.020962362
0.18493516
-0.020801288
0.18474399
-0.020618712
0.18459936
-0.020419519
0.18449896
-0.020208662
0.18444084
-0.019991187
0.1844234
-0.019772698
0.1844455
-0.01955864
0.18450634
-0.019357879
0.18460597
-0.019173434
0.18474402
-0.019034901
0.18492378
-0.018904324
0.18513975
-0.01897731
0.18541395
-0.018790088
0.18568567
-0.019940685
-0.018485534
0.26930528
0.013517838
-0.27133694
0.26713862
0.012037286
0.2647983
0.010247817
0.26236059
0.0084841955
0.25983346
0.0067487964
0.25722709
0.0049883419
0.2545676
0.003210183
0.25187916
0.0014398217
0.24918179
-0.00030926577
0.2464953
-0.0020278994
0.24383899
-0.0037046615
0.24123
-0.005327894
0.23868308
-0.0068877555
0.23621072
-0.0083760091
0.23382324
-0.0097856948
0.23152882
-0.01111119
0.22933366
-0.012348237
0.22724217
-0.013493856
0.22525718
-0.014546246
0.22338012
-0.015504697
0.22161117
-0.016369507
0.21994951
-0.017141878
0.21839343
-0.017823829
0.2169405
-0.018418093
0.21558772
-0.01892803
0.21433165
-0.019357526
0.21316852
-0.019710906
0.21209434
-0.019992846
0.21110499
-0.02020829
0.21019632
-0.02036237
0.20936418
-0.020460343
0.20860453
-0.020507527
0.20791348
-0.020509256
0.20728729
-0.020470843
0.20672248
-0.020397555
0.20621581
-0.020294615
0.20576431
-0.02016721
0.20536532
-0.020020528
0.2050165
-0.019859847
0.20471589
-0.01969057
0.20446185
-0.019518659
0.20425324
-0.019350032
0.20408918
-0.019193824
0.20396986
-0.019054114
0.20389429
-0.018959323
0.20386708
-0.018877117
0.20387757
-0.018987796
0.20395997
-0.018872487
0.20400995
-0.019990669
-0.018727201
0.29301247
0.014847991
-0.29434262
0.29153428
0.01351547
0.28981293
0.01196917
0.28791552
0.010381608
0.28587693
0.0087873883
0.28370798
0.0071572898
0.28142709
0.0054910713
0.27905751
0.0038093988
0.27662056
0.0021276903
0.27413639
0.00045627382
0.27162521
-0.0011934824
0.26910676
-0.0028094505
0.26659939
-0.0043803834
0.26411969
-0.0058963131
0.26168243
-0.0073484294
0.25930038
-0.0087291366
0.25698431
-0.010032175
0.25474308
-0.011252624
0.25258368
-0.012386847
0.25051142
-0.013432433
0.24853004
-0.014388125
0.2466419
-0.015253739
0.24484814
-0.016030069
0.24314884
-0.01671879
0.24154317
-0.01732236
0.24002956
-0.017843917
0.23860583
-0.018287179
0.23726933
-0.018656348
0.23601705
-0.018956012
0.23484575
-0.019191061
0.23375201
-0.019366606
0.23273239
-0.019487906
0.23178345
-0.019560312
0.23090182
-0.01958922
0.23008431
-0.01958004
0.22932787
-0.019538181
0.22862973
-0.019469063
0.22798734
-0.019378144
0.2273985
-0.019271001
0.22686131
-0.01915338
0.22637424
-0.019031588
0.22593623
-0.018912022
0.22554643
-0.018804024
0.22520517
-0.01871286
0.22491107
-0.018665223
0.22466968
-0.018635731
0.22446635
-0.018784459
0.22434433
-0.018750469