/*--------------------------------*- C++ -*----------------------------------*\
  =========                 |
  \\      /  F ield         | OpenFOAM: The Open Source CFD Toolbox
   \\    /   O peration     | Website:  https://openfoam.org
    \\  /    A nd           | Version:  6
     \\/     M anipulation  |
\*---------------------------------------------------------------------------*/
FoamFile
{
    version     2.0;
    format      ascii;
    class       volVectorField;
    location    "5";
    object      U;
}
// * * * * * * * * * * * * * * * * * * * * * * * * * * * * * * * * * * * * * //

dimensions      [0 1 -1 0 0 0 0];

internalField   nonuniform List<vector> 
9200
(
(0.002705987 0.00098556585 -7.9569642e-20)
(0.022379051 -0.0054384376 6.3580886e-20)
(0.058869278 -0.012526251 -5.471574e-20)
(0.1085816 -0.02040909 -7.7473853e-20)
(0.16899478 -0.029003976 2.8278596e-20)
(0.23829485 -0.037863309 4.4784736e-20)
(0.3147471 -0.04667394 -1.9058313e-20)
(0.39659389 -0.055264451 1.4619491e-20)
(0.48204048 -0.063533377 1.9997762e-20)
(0.56923548 -0.071420209 1.9808778e-21)
(0.65627734 -0.078891067 -3.0757984e-20)
(0.74125594 -0.08592507 3.1750813e-20)
(0.82232178 -0.092502683 -6.3714813e-20)
(0.89777303 -0.098597164 -3.6704999e-20)
(0.96614883 -0.10416875 1.0658299e-20)
(1.0263146 -0.10916365 -4.993706e-20)
(1.077537 -0.11350784 5.3860315e-20)
(1.119596 -0.11700588 5.344332e-20)
(1.1526476 -0.11939942 7.1040997e-22)
(1.17528 -0.1231768 -5.797457e-22)
(0.0086420773 -0.0029343613 -2.2558797e-20)
(0.040623957 -0.015201769 5.2513292e-20)
(0.090224502 -0.025341596 3.3758526e-20)
(0.15338613 -0.034244389 -1.4522831e-19)
(0.22715951 -0.04232777 -1.7966758e-20)
(0.30930258 -0.049438187 8.9074847e-20)
(0.39761637 -0.055516642 -4.5854102e-20)
(0.48986062 -0.060627265 -1.0463753e-20)
(0.58377319 -0.064883542 4.5268704e-20)
(0.67708998 -0.068424174 -6.0050224e-20)
(0.76759504 -0.071402183 -4.4993144e-20)
(0.85320341 -0.073970819 1.1459617e-19)
(0.9320613 -0.076269448 6.3071939e-20)
(1.0026467 -0.078412523 -1.2051852e-19)
(1.0638537 -0.080483259 2.7711133e-20)
(1.1150463 -0.082535189 -7.1996948e-20)
(1.1560802 -0.084591068 -2.9369776e-20)
(1.1873387 -0.08658801 1.4996982e-19)
(1.2095681 -0.088623188 7.718374e-20)
(1.2222835 -0.092979462 -1.1845113e-19)
(0.016214182 -0.0065585588 4.7252661e-20)
(0.063130912 -0.023815323 4.1415234e-21)
(0.12771502 -0.035903344 3.2619141e-20)
(0.20548666 -0.04459004 1.2063111e-21)
(0.29306219 -0.050881906 -5.8054341e-20)
(0.38773508 -0.054994399 2.0744586e-20)
(0.48681641 -0.057197687 1.9054786e-20)
(0.58759135 -0.057864402 -6.580147e-20)
(0.68738956 -0.05738841 7.7404014e-20)
(0.78365691 -0.056159777 2.1228832e-20)
(0.87405114 -0.054551464 -8.2887866e-20)
(0.95655511 -0.052899869 -3.083454e-20)
(1.0295844 -0.051485383 9.7556529e-21)
(1.0920685 -0.050518191 4.1492942e-20)
(1.1434906 -0.050131699 -2.1100495e-20)
(1.1838778 -0.05038585 5.1961739e-20)
(1.2137465 -0.051270835 -3.9744955e-20)
(1.2340413 -0.052674722 -1.3237167e-19)
(1.2459338 -0.054579454 -3.331963e-20)
(1.2497116 -0.058431401 8.5695892e-20)
(0.025478101 -0.0095965258 3.0729307e-20)
(0.08985886 -0.030466273 6.4045907e-20)
(0.17103479 -0.043007255 2.4262301e-20)
(0.26417338 -0.049991448 1.2832271e-20)
(0.36547066 -0.05310859 1.9278948e-20)
(0.4717502 -0.05302469 -5.8824718e-20)
(0.57985899 -0.05041423 -3.2576053e-20)
(0.68668867 -0.046020844 0)
(0.78930826 -0.040561201 2.2154219e-20)
(0.88508784 -0.034693007 -1.1817882e-20)
(0.97182527 -0.028995545 -1.4813062e-19)
(1.0478618 -0.023944738 -2.2512854e-20)
(1.1121606 -0.019892409 1.0987821e-19)
(1.1643319 -0.017056517 -1.0749395e-21)
(1.2045989 -0.015524127 -2.735121e-21)
(1.2337085 -0.015267284 3.8485452e-20)
(1.2528064 -0.016161563 -7.4263046e-21)
(1.2633118 -0.017974759 -1.103877e-19)
(1.2667149 -0.020520512 -8.3811246e-20)
(1.2638126 -0.024665158 1.024585e-19)
(0.036401048 -0.011730438 -4.7370759e-21)
(0.12049921 -0.034322353 -7.6136155e-21)
(0.21942785 -0.045487874 6.8605564e-20)
(0.32811927 -0.04911904 2.0829042e-20)
(0.44240677 -0.047677555 -3.7611295e-20)
(0.55869585 -0.042357756 1.5608512e-20)
(0.67347218 -0.034299455 3.4385822e-21)
(0.78340478 -0.024651702 4.6561078e-20)
(0.88553934 -0.01445504 8.0840689e-21)
(0.97745616 -0.004599973 -2.1650226e-20)
(1.0573963 0.0041962939 9.7354864e-20)
(1.1243395 0.011412583 -8.9273214e-20)
(1.178015 0.016733991 -2.1403581e-19)
(1.2188409 0.020043636 -9.1808992e-21)
(1.2478031 0.021397253 1.3692038e-19)
(1.2662939 0.020984426 0)
(1.2759382 0.019089039 1.9070453e-20)
(1.2784415 0.016077996 -2.4169706e-20)
(1.2754177 0.012264423 -1.7060683e-20)
(1.267894 0.0071395968 3.0187408e-20)
(0.048841703 -0.012627366 -6.0052415e-21)
(0.15445916 -0.03457782 5.1585098e-21)
(0.27172158 -0.042307095 -1.0343402e-20)
(0.39550116 -0.040905182 3.4694767e-20)
(0.52138841 -0.033669766 -3.6087582e-20)
(0.6454998 -0.022378582 -2.159387e-20)
(0.76415018 -0.0086622156 4.6610284e-20)
(0.87404185 0.0059399144 5.4257171e-21)
(0.97249826 0.020120578 -3.8657781e-20)
(1.0576222 0.032850734 1.0319742e-19)
(1.1283786 0.043395304 -2.0337103e-21)
(1.1845951 0.051317935 -1.2661974e-19)
(1.2268756 0.056463775 0)
(1.256445 0.058918643 6.1368416e-20)
(1.2749513 0.058951546 7.9356354e-21)
(1.284258 0.056949435 -1.1912552e-19)
(1.2862571 0.053359002 -3.0877059e-20)
(1.2827299 0.048659526 -1.8172823e-20)
(1.2752268 0.043240894 -2.2845731e-20)
(1.2647771 0.036827406 6.1066593e-20)
(0.062542244 -0.011965689 -1.9525127e-20)
(0.19086435 -0.030519528 -3.1611608e-21)
(0.32637402 -0.032644701 3.5481684e-20)
(0.46411734 -0.02464325 4.4234544e-20)
(0.59963276 -0.010664292 -2.4471782e-20)
(0.72895836 0.0069220838 -8.9714596e-20)
(0.84850786 0.026026462 -3.9087933e-20)
(0.95533046 0.04479924 1.0932851e-19)
(1.0473483 0.061787296 1.4587734e-20)
(1.1234705 0.075969508 -3.5166197e-20)
(1.1835914 0.086745609 1.8687261e-20)
(1.2284844 0.093902785 -6.7592246e-21)
(1.2596121 0.097554652 0)
(1.2788894 0.098058526 4.1355374e-20)
(1.2884394 0.095924574 -1.1930463e-19)
(1.2903782 0.091729712 -4.7732853e-20)
(1.2866521 0.086050828 1.1959109e-19)
(1.2789419 0.079433577 -1.1155485e-20)
(1.2686076 0.072293778 3.8669127e-21)
(1.25655 0.064511903 4.3040138e-20)
(0.077129336 -0.0094680721 -3.593544e-20)
(0.22858465 -0.021604512 -9.4331073e-20)
(0.38155053 -0.015993009 1.0522212e-21)
(0.53152942 -7.2229043e-05 8.5172374e-20)
(0.67426369 0.021213442 7.7981603e-20)
(0.8059942 0.044958856 -8.952623e-20)
(0.92355567 0.068718585 2.4371633e-21)
(1.0246739 0.09048085 1.212455e-19)
(1.1081602 0.10882107 6.9087315e-20)
(1.173937 0.12290357 -7.9101277e-20)
(1.2229239 0.13242019 -1.3497678e-19)
(1.2568173 0.13750037 -4.633311e-21)
(1.2778134 0.13859675 6.1841218e-20)
(1.288323 0.13636101 -8.4233758e-21)
(1.2907229 0.13152817 -1.595441e-20)
(1.2871713 0.12482301 2.3836897e-20)
(1.2794985 0.1168987 6.2372413e-20)
(1.2691694 0.10831374 -5.9105847e-20)
(1.2572932 0.099466709 -1.4433013e-19)
(1.2445903 0.090346255 3.8790834e-20)
(0.092086243 -0.0049349666 -4.0824382e-20)
(0.26620275 -0.0075363218 -1.9238525e-19)
(0.4351084 0.0077725922 1.0001208e-19)
(0.59507108 0.032591243 1.1363315e-19)
(0.74234443 0.061317713 7.2014739e-20)
(0.87369967 0.090644527 1.1404821e-20)
(0.98672703 0.11794515 -1.415974e-19)
(1.0801246 0.14125119 0)
(1.1538032 0.15937397 -9.8133884e-20)
(1.2087957 0.17184493 -2.1589639e-20)
(1.2470211 0.1787831 7.7952694e-20)
(1.2709699 0.18073822 1.4537517e-20)
(1.283374 0.1785244 -6.3488679e-20)
(1.2869169 0.17306559 -6.6558026e-20)
(1.2840198 0.16527156 3.6340303e-20)
(1.2767171 0.15595367 6.5674137e-20)
(1.2666138 0.14578234 -7.9016731e-20)
(1.2549072 0.13528072 -1.4754918e-19)
(1.2424496 0.12480006 -1.1429286e-21)
(1.2297772 0.11440936 3.5672848e-20)
(0.10674306 0.0017435368 -5.898797e-21)
(0.30204053 0.011738118 1.0139227e-19)
(0.48466375 0.038425961 -8.7263595e-21)
(0.65196134 0.072709356 -1.0788634e-19)
(0.80102473 0.10855686 5.7828514e-20)
(0.92948495 0.14247636 6.093655e-20)
(1.0359833 0.171906 7.5102373e-21)
(1.1204037 0.19516952 -1.359037e-19)
(1.1838558 0.2115307 -3.4717167e-21)
(1.2284576 0.22104758 6.9632598e-20)
(1.2569969 0.22435746 7.8037637e-21)
(1.2725568 0.22245553 -3.0330637e-20)
(1.2781783 0.21649071 -1.0498746e-19)
(1.2766073 0.2076008 -6.8162073e-21)
(1.2701449 0.1968004 5.8405033e-20)
(1.2605951 0.18492186 4.9026041e-20)
(1.2492885 0.17260059 2.3800916e-20)
(1.2371536 0.16028919 -7.7336827e-20)
(1.2248131 0.14827589 9.3173318e-21)
(1.2126385 0.13669495 1.0455922e-19)
(-0.0022956898 0.0025510169 -1.5636346e-21)
(-0.0083584035 0.0055734887 3.4828845e-21)
(-0.018782578 0.0071456605 2.4878107e-21)
(-0.030719402 0.0077421552 -3.3407349e-21)
(-0.04247467 0.007645712 -3.3381123e-21)
(-0.053244062 0.0070325549 3.3720994e-21)
(-0.062467504 0.0060212733 -1.4810564e-20)
(-0.069713651 0.0046898994 -1.2477456e-20)
(-0.07465676 0.0030874127 2.5514196e-20)
(-0.077039357 0.0012432659 -2.3272227e-20)
(-0.076643304 -0.00082541894 2.4072447e-22)
(-0.073274124 -0.003108263 1.0716731e-20)
(-0.066753738 -0.0055977477 -1.133967e-21)
(-0.056918584 -0.0082859649 6.599154e-20)
(-0.043621861 -0.011160739 -4.9748939e-22)
(-0.026741352 -0.014202363 -1.2941547e-19)
(-0.0061926691 -0.017380887 2.7204382e-20)
(0.018067837 -0.020657288 7.7293869e-20)
(0.04607301 -0.023980691 -1.4389238e-19)
(0.077738246 -0.027205577 -9.0847159e-20)
(-0.0028734465 0.0073756568 -1.0077649e-20)
(-0.0092896385 0.016095589 1.7971238e-20)
(-0.019114055 0.020618405 -1.8553009e-20)
(-0.029830146 0.022302524 8.3432749e-21)
(-0.03992615 0.02196282 9.8699154e-21)
(-0.048679384 0.020111656 1.4266107e-21)
(-0.055581345 0.017095122 -4.5179718e-20)
(-0.060236543 0.013141796 -4.7004489e-21)
(-0.06234376 0.0083962289 4.5100304e-20)
(-0.06166422 0.0029466209 -1.1569186e-20)
(-0.057997136 -0.0031542028 -5.3900928e-20)
(-0.051166943 -0.0098725044 1.2420068e-20)
(-0.04102057 -0.017182599 5.5202859e-20)
(-0.027426501 -0.025054373 2.8782596e-20)
(-0.010278788 -0.033445011 6.7741955e-20)
(0.010493763 -0.042289497 -5.9741953e-20)
(0.034905784 -0.051494829 -6.5081143e-20)
(0.062899769 -0.060938788 7.2409816e-20)
(0.094515314 -0.070449825 8.1285486e-20)
(0.13003769 -0.079568541 4.2049665e-20)
(-0.0038932553 0.011394659 -7.9967045e-21)
(-0.010865452 0.024809942 -8.8976136e-21)
(-0.019453455 0.031741041 3.854052e-22)
(-0.027762483 0.034236665 1.8320169e-21)
(-0.034623777 0.033543096 1.2662565e-20)
(-0.039471572 0.030458743 2.1125929e-20)
(-0.041900344 0.02552748 -6.8758142e-21)
(-0.041588976 0.019111691 -4.0671826e-20)
(-0.038290086 0.011444382 1.4125871e-20)
(-0.031808629 0.0026722531 2.7316812e-20)
(-0.021985578 -0.0071113798 1.8724908e-20)
(-0.0086937689 -0.017843474 3.8023953e-20)
(0.008162196 -0.029467349 4.3016803e-21)
(0.028641961 -0.041920544 -8.2451642e-20)
(0.052762841 -0.055118316 8.9598477e-21)
(0.080490244 -0.068941082 -5.0408811e-20)
(0.11169991 -0.083227007 -7.9599977e-20)
(0.14614763 -0.097774121 1.4527849e-19)
(0.18384566 -0.11226773 8.4577841e-20)
(0.22574045 -0.12586943 1.0056764e-20)
(-0.0051242483 0.014208779 -9.6202978e-21)
(-0.012615464 0.030795102 -1.7384564e-20)
(-0.019313902 0.039291579 7.600375e-21)
(-0.024134157 0.042162293 7.2905596e-21)
(-0.02636498 0.040938637 3.7959807e-21)
(-0.025659164 0.036630473 1.1792146e-20)
(-0.021762174 0.029934322 1.5465572e-20)
(-0.014468148 0.021320412 -1.0309014e-21)
(-0.0036193404 0.011098581 -1.9601547e-20)
(0.010901833 -0.000528052 -5.8466329e-20)
(0.029176453 -0.013423742 3.0224179e-21)
(0.051245222 -0.027484084 8.6525841e-20)
(0.077101999 -0.04261211 -3.4959717e-20)
(0.10668442 -0.058698314 -2.9032558e-20)
(0.13986635 -0.075603165 -5.4836566e-21)
(0.17644957 -0.093143553 8.7077608e-20)
(0.21611853 -0.11109056 -5.2372189e-20)
(0.25838205 -0.1291803 -1.4469338e-19)
(0.30314121 -0.14696403 1.1951863e-19)
(0.35213641 -0.16315245 9.5715409e-20)
(-0.0062788837 0.015604192 -6.9045452e-22)
(-0.01393003 0.033512339 -2.1179556e-20)
(-0.018032293 0.04251317 -5.8071171e-20)
(-0.018381409 0.045191126 -8.6757994e-21)
(-0.014783826 0.043199563 -8.0272358e-21)
(-0.007154789 0.03767361 9.297694e-21)
(0.0045677011 0.029408108 -4.3608682e-21)
(0.020433255 0.018947896 -8.5218696e-21)
(0.040469157 0.0066614608 3.3769594e-20)
(0.064674409 -0.0071991587 3.6961303e-21)
(0.09300621 -0.022450385 -5.6939076e-20)
(0.12536989 -0.038941419 1.7724938e-20)
(0.16160542 -0.056525649 0)
(0.20147436 -0.075038093 2.5917534e-20)
(0.24465136 -0.094277747 -2.198133e-20)
(0.29072034 -0.11399581 -3.7532782e-20)
(0.33913309 -0.13390388 1.0991653e-20)
(0.38912487 -0.15370693 -1.1372507e-20)
(0.44040058 -0.17287605 1.0057903e-19)
(0.49544992 -0.1896431 -4.8508273e-20)
(-0.0070606586 0.015558974 -1.1968572e-20)
(-0.014140583 0.032836937 4.0700988e-20)
(-0.014825624 0.04117463 -1.7036128e-20)
(-0.0097652565 0.043016593 -4.3653207e-20)
(0.00070617183 0.039985132 -4.6819677e-20)
(0.016385128 0.033253711 -2.2796202e-20)
(0.037107496 0.023658032 2.0659685e-21)
(0.062728471 0.011779746 4.1258161e-21)
(0.093104069 -0.0019747777 2.3224751e-20)
(0.12806287 -0.01731333 1.1227875e-20)
(0.16738697 -0.034009818 -9.9171961e-21)
(0.21079103 -0.051867156 1.5433514e-21)
(0.25790394 -0.070687919 -7.1705606e-20)
(0.30825432 -0.09025226 -2.4980089e-20)
(0.36126418 -0.11030231 4.7399446e-20)
(0.41625403 -0.1305343 -5.2326064e-20)
(0.47241781 -0.15061877 -2.1322571e-20)
(0.52872858 -0.17026723 6.3583145e-20)
(0.58466281 -0.18895517 1.1203952e-19)
(0.64330039 -0.20448804 1.0534095e-20)
(-0.0071996631 0.01420921 2.5296727e-20)
(-0.012587168 0.029013505 2.2114299e-20)
(-0.008849098 0.03554685 8.0069112e-20)
(0.002600803 0.035919951 3.5052365e-20)
(0.020925459 0.031597863 2.4702944e-22)
(0.04562124 0.023715013 -5.2341467e-20)
(0.076274984 0.013094248 -3.830427e-20)
(0.11251154 0.00031699384 1.1747431e-20)
(0.15396425 -0.014198261 1.950113e-20)
(0.20024079 -0.030135984 -1.3321536e-20)
(0.25088979 -0.047239353 -7.0019311e-20)
(0.3053743 -0.065274999 4.9936962e-20)
(0.36305224 -0.084005832 3.0536185e-20)
(0.42316539 -0.10317206 -5.0923348e-20)
(0.48484147 -0.12247993 2.5237654e-20)
(0.54711459 -0.14159926 4.9929408e-20)
(0.60892781 -0.16019437 1.9931881e-20)
(0.66905059 -0.17802949 -3.4318004e-20)
(0.72678136 -0.19468457 -2.3814779e-20)
(0.78561164 -0.20767847 4.2098778e-20)
(-0.0064682856 0.011792539 1.6661602e-20)
(-0.008661588 0.022557763 -3.6599611e-20)
(0.00074880962 0.026307861 1.3426726e-20)
(0.019694211 0.024694833 4.856636e-20)
(0.046875877 0.018931245 7.9924944e-20)
(0.081490245 0.010052231 2.8419986e-20)
(0.12284741 -0.0011813203 -1.0715039e-20)
(0.17030052 -0.014226485 -1.335073e-20)
(0.22321252 -0.028680871 -1.1610674e-20)
(0.28091036 -0.044229506 4.863356e-20)
(0.34264519 -0.060606258 -1.1833901e-20)
(0.40756542 -0.077563515 -2.8692826e-20)
(0.47470296 -0.094849923 -2.9670271e-20)
(0.54297421 -0.1121968 -8.4803251e-20)
(0.61119985 -0.1293128 4.2755985e-20)
(0.67814895 -0.1458872 -2.8407047e-20)
(0.74257681 -0.16162968 5.8389601e-20)
(0.80317211 -0.17641455 4.9114734e-20)
(0.8591998 -0.19002728 -1.6802572e-19)
(0.91444499 -0.19991199 8.3248846e-21)
(-0.0046816296 0.008592958 3.1199012e-20)
(-0.0018346261 0.014152416 -3.9060936e-20)
(0.014759029 0.014429962 -6.6165141e-20)
(0.042471233 0.010544717 -3.8744712e-20)
(0.079582871 0.0033906452 -2.6608842e-21)
(0.12497672 -0.0061491707 1.182968e-20)
(0.17765868 -0.017417475 -1.554999e-22)
(0.23666734 -0.029947593 2.2119681e-20)
(0.30103838 -0.04338842 9.1565677e-21)
(0.36975524 -0.057459014 -1.472006e-20)
(0.44171075 -0.071918265 1.7413721e-20)
(0.51568902 -0.086541364 -3.5607679e-20)
(0.59036781 -0.10110343 1.7606883e-20)
(0.66434154 -0.11537117 2.9672762e-20)
(0.73616601 -0.12910193 -6.3792901e-21)
(0.8044264 -0.14205058 4.1931281e-21)
(0.86780252 -0.15401518 -2.4597806e-21)
(0.92505576 -0.16499719 4.5259614e-20)
(0.97559997 -0.17496491 4.5118549e-21)
(1.0234334 -0.18159079 -3.1843175e-20)
(-0.001684993 0.0049031213 3.3806993e-20)
(0.0083334493 0.0045734826 8.2274149e-20)
(0.033839881 0.0011036855 -7.0515943e-20)
(0.071712545 -0.0049761748 -1.3178508e-20)
(0.1198336 -0.013151538 2.3650622e-20)
(0.17675874 -0.022736121 2.6484309e-21)
(0.2411538 -0.033221892 -3.6277388e-20)
(0.31169271 -0.044264754 6.5641349e-21)
(0.38702658 -0.05561182 1.1909869e-20)
(0.46574132 -0.067064674 -3.6312345e-20)
(0.54633341 -0.078457841 2.5401905e-21)
(0.62721437 -0.089641461 -5.5976676e-20)
(0.7067419 -0.10046887 -5.9704183e-20)
(0.78327388 -0.11078988 1.1606982e-19)
(0.85523997 -0.12044901 1.0586677e-20)
(0.92122165 -0.12929106 -3.1515495e-20)
(0.98001538 -0.13719754 3.9213426e-20)
(1.0306393 -0.14416566 -1.8113782e-21)
(1.0726516 -0.15005189 3.2843902e-20)
(1.1090878 -0.15356627 -5.7729305e-20)
(0.11765297 -0.029485038 1.9115484e-19)
(0.16701706 -0.03138965 4.1092912e-20)
(0.22119315 -0.032638311 -8.9957984e-20)
(0.27902355 -0.03301239 4.6053387e-20)
(0.33902792 -0.032640681 0)
(0.39998138 -0.031618808 0)
(0.46070495 -0.030009315 -3.1928993e-20)
(0.51999139 -0.02790577 -1.5672955e-20)
(0.57670798 -0.025431253 1.6517629e-20)
(0.62988916 -0.0227194 8.8626816e-21)
(0.67878326 -0.019905305 -3.939893e-22)
(0.72288442 -0.017118555 9.462921e-22)
(0.76195362 -0.014473382 8.6088172e-22)
(0.79601487 -0.012058858 -5.3376894e-21)
(0.82532092 -0.0099323172 -8.1947261e-23)
(0.8502941 -0.0081175226 3.7949394e-21)
(0.87145387 -0.0066081065 1.6375844e-21)
(0.88934564 -0.0053755559 2.004506e-21)
(0.90448465 -0.0043795068 -3.6892626e-22)
(0.91732338 -0.0035773637 -3.2433634e-22)
(0.92824219 -0.0029308484 -4.3448412e-22)
(0.93755578 -0.0024086907 -1.6059294e-21)
(0.9455254 -0.0019863357 -3.030942e-22)
(0.95236966 -0.0016443584 6.7139091e-22)
(0.9582715 -0.0013669854 -6.6309546e-23)
(0.96338272 -0.0011412504 9.3446745e-23)
(0.96782789 -0.00095661558 -1.8276542e-22)
(0.9717086 -0.00080470765 -1.7840498e-22)
(0.97510782 -0.00067898951 9.6638421e-23)
(0.97809372 -0.0005743844 2.6222952e-23)
(0.98072282 -0.00048692842 -5.9624673e-23)
(0.98304231 -0.00041349746 3.0105391e-23)
(0.98509188 -0.00035160529 1.3258038e-23)
(0.98690511 -0.0002992584 1.4076405e-23)
(0.98851058 -0.00025484737 7.8965384e-24)
(0.98993274 -0.0002170648 1.3354551e-23)
(0.99119258 -0.00018484238 -1.276883e-23)
(0.99230826 -0.00015730254 -1.2667631e-23)
(0.99329553 -0.00013372062 -3.9983052e-24)
(0.99416809 -0.0001134952 -1.5175542e-25)
(0.99493794 -9.6124658e-05 -1.4506866e-24)
(0.9956156 -8.1188249e-05 9.5951067e-25)
(0.9962103 -6.8331513e-05 -8.3030204e-26)
(0.99673029 -5.7252768e-05 -4.9021232e-25)
(0.99718234 -4.7697412e-05 -1.2977893e-24)
(0.9975741 -3.9436153e-05 -3.8752769e-25)
(0.99790657 -3.2301793e-05 -1.6149005e-25)
(0.99819891 -2.6024519e-05 3.4621326e-26)
(0.99840881 -2.091861e-05 1.0845082e-25)
(0.99867631 -1.3950594e-05 7.7566038e-25)
(0.17017779 -0.085971399 -5.187916e-20)
(0.2153624 -0.091515865 -1.8095743e-19)
(0.2656082 -0.095140401 -9.5481673e-20)
(0.31924957 -0.09623859 1.0031197e-19)
(0.37467744 -0.095204511 3.3672237e-20)
(0.43092749 -0.092304614 -4.2154046e-20)
(0.48703052 -0.087706241 1.6147818e-20)
(0.54191158 -0.081671746 2.6576583e-20)
(0.5945545 -0.074550106 -6.3173634e-21)
(0.64409194 -0.066721472 -6.2388983e-21)
(0.68983403 -0.058572521 3.8737451e-21)
(0.7312971 -0.050477213 -3.6839305e-21)
(0.7682295 -0.042768387 -2.5804142e-21)
(0.80061434 -0.035708876 5.1296504e-21)
(0.82864385 -0.029471373 7.8085348e-21)
(0.85267029 -0.0241317 1.9843793e-21)
(0.87314297 -0.019677464 -1.6196836e-21)
(0.89054396 -0.016030383 -3.4896799e-21)
(0.90533588 -0.013075937 -1.830272e-21)
(0.91793024 -0.010691598 1.0127676e-21)
(0.9286771 -0.0087663739 -1.5130989e-22)
(0.93786943 -0.0072091061 3.9320977e-22)
(0.94575324 -0.0059479142 6.3459184e-22)
(0.95253647 -0.0049257138 -8.3854179e-23)
(0.95839465 -0.0040959703 7.9318741e-23)
(0.96347441 -0.0034202935 -4.0665481e-23)
(0.96789675 -0.0028673889 3.1377339e-23)
(0.97176076 -0.0024123322 3.8804264e-23)
(0.97514767 -0.0020356323 -1.1016557e-23)
(0.97812444 -0.001722133 -9.356714e-23)
(0.98074673 -0.0014599899 2.8707974e-24)
(0.98306111 -0.0012398596 2.0209314e-23)
(0.98510684 -0.0010543039 -7.9514574e-24)
(0.98691716 -0.00089735523 1.4508125e-23)
(0.98852041 -0.00076419406 -2.4985604e-23)
(0.98994087 -0.00065090365 -2.9748171e-23)
(0.9911994 -0.00055428288 1.2567261e-23)
(0.99231406 -0.00047170163 7.8437247e-25)
(0.99330053 -0.0004009878 9.0846477e-24)
(0.99417245 -0.0003403385 -1.2498343e-24)
(0.99494179 -0.00028824975 4.4339192e-24)
(0.99561903 -0.00024346007 2.7301226e-24)
(0.99621338 -0.00020490665 3.2449123e-24)
(0.99673307 -0.00017168482 2.2000021e-24)
(0.99718486 -0.00014303123 1.820104e-24)
(0.99757639 -0.00011825798 -6.0276969e-25)
(0.99790866 -9.6864764e-05 1.134291e-24)
(0.99820082 -7.80393e-05 -2.5177024e-25)
(0.99841058 -6.2733608e-05 -5.4342982e-24)
(0.99867789 -4.1831637e-05 8.3107708e-25)
(0.26592597 -0.13533238 3.5756757e-20)
(0.3035768 -0.14414086 2.1058214e-20)
(0.34659872 -0.14990829 -6.3768965e-20)
(0.39262106 -0.15177516 -1.4114734e-20)
(0.43976237 -0.15039636 4.5923417e-20)
(0.48749847 -0.1461429 -3.0570621e-20)
(0.53523759 -0.13923429 -5.9199613e-20)
(0.58213772 -0.13005419 2.7210044e-20)
(0.62738586 -0.1191241 2.4673165e-20)
(0.67028965 -0.10701695 -1.1284951e-20)
(0.71027295 -0.094323686 4.060707e-22)
(0.74689697 -0.081625434 -5.9476113e-21)
(0.77989309 -0.069449555 -3.918588e-21)
(0.80917624 -0.058223192 1.0044118e-20)
(0.83483379 -0.048238444 9.6009948e-22)
(0.85709419 -0.03963726 -4.8872229e-21)
(0.87628094 -0.032420661 -2.596556e-21)
(0.89276139 -0.026480891 3.2617555e-22)
(0.9069018 -0.021647141 2.1797776e-21)
(0.91903801 -0.017730831 -7.8420641e-22)
(0.92946348 -0.014558142 4.2568502e-22)
(0.93843033 -0.011984731 4.7011403e-22)
(0.94615562 -0.0098958669 -4.8418652e-22)
(0.95282702 -0.0081997933 6.8999653e-23)
(0.95860594 -0.0068211725 -2.2952822e-22)
(0.96362922 -0.0056974195 -1.10336e-22)
(0.96801105 -0.0047772115 2.6914422e-22)
(0.97184584 -0.0040194835 -1.314834e-22)
(0.97521155 -0.0033920167 1.1536323e-22)
(0.97817286 -0.0028697008 4.9951834e-24)
(0.98078384 -0.0024328812 1.4475818e-22)
(0.98308991 -0.002066034 -2.6651714e-23)
(0.98512952 -0.00175679 4.9770536e-23)
(0.98693532 -0.0014952175 -4.7785603e-23)
(0.98853523 -0.0012732907 1.5777251e-23)
(0.98995319 -0.0010844852 3.4514936e-23)
(0.99120985 -0.00092346647 -8.5508511e-24)
(0.9923231 -0.00078585076 -1.6706703e-23)
(0.99330848 -0.00066801701 -1.9188816e-24)
(0.99417956 -0.00056695948 4.5007513e-24)
(0.99494821 -0.00048017058 5.6302335e-25)
(0.9956249 -0.00040554701 1.0960598e-23)
(0.99621878 -0.00034131674 -3.6071723e-24)
(0.99673806 -0.00028597136 2.2032382e-25)
(0.99718949 -0.00023823848 4.2396956e-25)
(0.99758069 -0.00019697029 -7.0599711e-25)
(0.99791266 -0.0001613362 -1.9198215e-24)
(0.99820452 -0.00012997267 -3.2175672e-25)
(0.99841407 -0.00010449542 4.8968346e-24)
(0.99868102 -6.9659432e-05 -1.6899606e-24)
(0.39169003 -0.17432311 1.0626617e-20)
(0.41974089 -0.18584809 -2.0142725e-20)
(0.45331214 -0.19341279 5.5854674e-21)
(0.48946678 -0.19611563 -3.686707e-20)
(0.52593683 -0.19485171 -4.9565349e-21)
(0.56269018 -0.18999207 3.1124414e-20)
(0.59961134 -0.1817382 -3.846491e-20)
(0.63615223 -0.17053234 -1.1413406e-20)
(0.67175106 -0.15699487 1.4822962e-20)
(0.70593884 -0.14181698 1.0015387e-20)
(0.73829424 -0.12572709 -3.3291902e-21)
(0.76845079 -0.10945903 -6.134079e-21)
(0.79613479 -0.093697301 5.6878428e-21)
(0.82118933 -0.079016377 -3.1254466e-21)
(0.84357942 -0.06583059 -5.9125154e-21)
(0.86338193 -0.054366306 -5.6155718e-21)
(0.88076149 -0.044665193 1.3576307e-21)
(0.89593683 -0.036619391 7.2025048e-22)
(0.90914686 -0.030028124 -1.1504117e-21)
(0.92062533 -0.024657447 3.6733339e-22)
(0.93058792 -0.020285573 6.9043572e-22)
(0.93922959 -0.01672516 -7.4092377e-22)
(0.94672633 -0.01382554 9.3847733e-23)
(0.95323675 -0.011464967 -2.5996232e-22)
(0.9589019 -0.0095424123 -4.4362765e-22)
(0.96384441 -0.0079730509 2.1070329e-22)
(0.96816861 -0.0066866825 -1.4884371e-22)
(0.97196207 -0.0056267386 -1.8614391e-22)
(0.97529801 -0.0047486149 1.343942e-22)
(0.9782378 -0.004017431 -1.6767677e-22)
(0.98083318 -0.0034058208 -2.0628293e-23)
(0.98312792 -0.0028921321 -5.7213824e-23)
(0.98515928 -0.002459088 -4.2514099e-23)
(0.98695908 -0.002092804 -3.2522998e-23)
(0.9885546 -0.00178205 2.4765081e-23)
(0.98996935 -0.0015176914 -5.1112137e-23)
(0.99122365 -0.0012922574 -5.060715e-23)
(0.99233514 -0.0010996063 1.0511236e-23)
(0.9933192 -0.00093466414 1.0581421e-25)
(0.99418925 -0.00079321884 -1.1741531e-23)
(0.9949571 -0.00067175626 7.8078834e-24)
(0.99563312 -0.0005673289 -7.2247101e-24)
(0.99622643 -0.00047745357 -1.0192269e-23)
(0.99674522 -0.00040001654 5.2531735e-24)
(0.99719619 -0.00033323563 1.8234808e-25)
(0.99758696 -0.00027550093 1.3404576e-24)
(0.99791853 -0.00022565562 -1.7769848e-24)
(0.99821 -0.0001817717 1.8737391e-25)
(0.99841927 -0.00014616802 3.6273218e-24)
(0.99868571 -9.73997e-05 1.315761e-24)
(0.53315487 -0.20122045 -8.3335768e-20)
(0.5507319 -0.2148805 1.2312051e-19)
(0.57373985 -0.22386942 2.3261636e-20)
(0.598986 -0.22749445 -4.5345164e-20)
(0.62379331 -0.22686256 -1.664781e-20)
(0.64853841 -0.22222752 -5.7284631e-21)
(0.67358784 -0.21370169 -1.4148273e-20)
(0.69870657 -0.20172167 -7.463148e-21)
(0.7235913 -0.18692858 -5.2888569e-21)
(0.74800909 -0.17005227 -1.2372694e-20)
(0.7717168 -0.15188554 2.3664775e-20)
(0.79444766 -0.13325207 9.5154504e-21)
(0.8159482 -0.1149468 -4.5239054e-21)
(0.83600889 -0.097666308 -6.9123086e-21)
(0.8544828 -0.081944568 -6.9858401e-21)
(0.87129592 -0.068109022 5.6611114e-21)
(0.88644628 -0.056270969 3.5366286e-21)
(0.89999078 -0.046355681 -2.8940477e-21)
(0.9120251 -0.038163201 -1.1488506e-21)
(0.92266489 -0.031438918 -8.2625799e-22)
(0.93203344 -0.025931098 -1.2024659e-21)
(0.94025602 -0.021421982 0)
(0.94745756 -0.017733725 -3.5795304e-22)
(0.95375992 -0.014720707 -2.1647757e-22)
(0.95927811 -0.012260356 2.3666204e-22)
(0.96411648 -0.010248261 1.3933158e-22)
(0.9683666 -0.0085968994 -4.5603331e-22)
(0.97210716 -0.0072350552 4.882327e-22)
(0.97540519 -0.0061061893 -2.8889142e-22)
(0.97831774 -0.0051658871 2.2673734e-22)
(0.9808935 -0.0043791939 4.625271e-23)
(0.98317411 -0.0037183903 1.0725066e-23)
(0.98519529 -0.0031613176 -5.0569785e-23)
(0.98698775 -0.0026901458 6.2709903e-23)
(0.98857799 -0.002290439 -4.1277139e-23)
(0.98998892 -0.001950446 -5.3490117e-26)
(0.99124045 -0.0016605515 2.0168206e-23)
(0.99234991 -0.0014128485 1.4418941e-23)
(0.99333245 -0.0012008033 -2.5816228e-23)
(0.99420135 -0.0010189911 1.5689394e-23)
(0.99496829 -0.00086288645 -5.6892033e-24)
(0.99564357 -0.00072869354 -2.3373388e-23)
(0.99623624 -0.00061321498 2.3463506e-23)
(0.99675446 -0.00051372907 -4.2440802e-25)
(0.9972049 -0.00042794255 -1.7162517e-24)
(0.99759516 -0.00035378022 -1.3880201e-25)
(0.99792624 -0.00028976433 -6.6346425e-25)
(0.99821721 -0.00023338441 1.4689173e-25)
(0.99842613 -0.00018771649 2.2816806e-24)
(0.99869194 -0.00012501857 -2.4405891e-25)
(0.67752226 -0.21548415 -6.7246517e-20)
(0.68466027 -0.23081593 2.6073101e-20)
(0.69694772 -0.2409619 2.9208051e-20)
(0.71125774 -0.24566144 -2.30188e-20)
(0.72459616 -0.24618988 3.23204e-20)
(0.7375668 -0.24259139 1.9209717e-20)
(0.75092695 -0.23483655 -1.5697535e-20)
(0.76473642 -0.22330051 -1.1027309e-20)
(0.77892572 -0.20857571 1.8871531e-20)
(0.79347631 -0.19135981 -3.5601161e-20)
(0.80832427 -0.1724424 -1.1975816e-20)
(0.82332335 -0.15267507 2.4651355e-20)
(0.83827169 -0.13291253 3.3222256e-21)
(0.85294236 -0.11394073 -1.5659729e-20)
(0.86710935 -0.096402429 7.2598666e-21)
(0.88057326 -0.080736349 5.9652896e-21)
(0.89318128 -0.067149026 -5.5908964e-21)
(0.90483497 -0.055631544 -3.6388197e-22)
(0.91548627 -0.046016661 1.2437136e-21)
(0.92512763 -0.038055383 -4.7962381e-22)
(0.93378246 -0.031485483 6.5200194e-22)
(0.94149832 -0.026072549 -3.8477298e-22)
(0.94834149 -0.021621365 -4.6732022e-23)
(0.95439076 -0.017969526 4.7888676e-22)
(0.95973011 -0.0149779 1.8464831e-21)
(0.96444188 -0.012525733 5.353725e-22)
(0.96860214 -0.01051011 3.9850901e-22)
(0.97227873 -0.0088462037 -2.7362968e-23)
(0.97553111 -0.0074660719 6.2677054e-22)
(0.97841104 -0.0063160295 7.6059153e-22)
(0.98096346 -0.00535366 1.9885327e-23)
(0.98322739 -0.0045452326 2.4024872e-22)
(0.98523665 -0.0038637262 5.7651719e-23)
(0.98702062 -0.0032873588 5.0390938e-23)
(0.9886048 -0.00279848 1.2957523e-23)
(0.99001141 -0.0023827077 1.1686992e-22)
(0.99125985 -0.0020282669 1.9350069e-23)
(0.99236709 -0.0017254716 4.507169e-24)
(0.993348 -0.0014663167 -4.775869e-26)
(0.99421567 -0.0012441555 3.3652476e-23)
(0.99498165 -0.0010534434 -4.5447721e-25)
(0.99565614 -0.00088953011 1.1935876e-23)
(0.99624812 -0.00074849945 -8.4350359e-25)
(0.99676571 -0.00062701798 -4.5651013e-24)
(0.99721555 -0.0005222793 -1.539672e-24)
(0.99760524 -0.00043173861 -2.8730204e-24)
(0.99793575 -0.00035360378 1.0219551e-24)
(0.99822614 -0.00028475846 -5.8313886e-27)
(0.99843465 -0.00022910664 -8.7801998e-25)
(0.99869968 -0.0001524822 1.4604777e-24)
(0.81462628 -0.21764332 -1.2650081e-21)
(0.81211215 -0.23436236 -3.127758e-20)
(0.81429306 -0.24557065 -1.0542013e-20)
(0.81840653 -0.25159565 1.2092217e-20)
(0.82134548 -0.25378526 1.9999544e-20)
(0.82371575 -0.25193071 2.1226555e-20)
(0.82649745 -0.24584255 3.6115117e-20)
(0.82999929 -0.23579372 2.0475404e-20)
(0.83434585 -0.22227833 1.1174509e-20)
(0.83968866 -0.20591221 -2.0047667e-20)
(0.8461235 -0.18743065 -3.8177008e-20)
(0.85363398 -0.16766131 -1.3533025e-20)
(0.8620993 -0.14747046 1.7891169e-20)
(0.87131669 -0.12769515 1.0023824e-20)
(0.88102697 -0.10906536 2.8706236e-21)
(0.89094782 -0.09212948 -6.3160613e-21)
(0.9008091 -0.077205388 -5.4250423e-21)
(0.91037972 -0.064376851 7.6424652e-21)
(0.91948062 -0.053538671 1.3489585e-23)
(0.92798608 -0.044473126 -4.9804115e-22)
(0.93581935 -0.036927121 3.0283629e-21)
(0.94294689 -0.030663797 -9.0085426e-22)
(0.94937164 -0.025480976 6.9513729e-22)
(0.95512448 -0.021207272 6.9718212e-22)
(0.96025412 -0.017692704 -3.39561e-22)
(0.96481749 -0.014804039 2.5179519e-22)
(0.96887261 -0.012425311 -2.0870012e-22)
(0.9724746 -0.010459377 -1.0486333e-22)
(0.97567396 -0.0088275487 1.8980008e-22)
(0.97851619 -0.0074671943 -5.7998985e-22)