/*--------------------------------*- C++ -*----------------------------------*\
  =========                 |
  \\      /  F ield         | OpenFOAM: The Open Source CFD Toolbox
   \\    /   O peration     | Website:  https://openfoam.org
    \\  /    A nd           | Version:  6
     \\/     M anipulation  |
\*---------------------------------------------------------------------------*/
FoamFile
{
    version     2.0;
    format      ascii;
    class       surfaceScalarField;
    location    "135";
    object      phi;
}
// * * * * * * * * * * * * * * * * * * * * * * * * * * * * * * * * * * * * * //

dimensions      [0 3 -1 0 0 0 0];

internalField   nonuniform List<scalar> 
18180
(
0.00031873162
-0.00016316483
-0.0001555668
0.0013092205
-0.0013669355
0.00037644667
0.0030329092
-0.0033336598
0.001609971
0.0055498125
-0.0059760243
0.0034591209
0.0089182589
-0.0092391751
0.0058707288
0.013192903
-0.01307966
0.0088050161
0.018422066
-0.017460011
0.012230848
0.024644768
-0.022346014
0.016123311
0.031887578
-0.027703578
0.020460768
0.040161536
-0.033496119
0.02522216
0.049459473
-0.039682804
0.030384867
0.059754079
-0.046217628
0.035923022
0.07099714
-0.053049322
0.041806261
0.083120393
-0.06012211
0.047998857
0.09603861
-0.067377415
0.054459198
0.10965543
-0.074756623
0.061139801
0.12387139
-0.082204759
0.067988801
0.13859913
-0.089674782
0.074947041
0.15383723
-0.097149561
0.081911466
-0.10462673
0.088679667
0.16978429
0.00039749976
-0.00056066459
0.0016096053
-0.0025790411
0.003689342
-0.0054133964
0.0066874863
-0.0089741687
0.010650719
-0.013202408
0.015617966
-0.018046907
0.02161639
-0.023458435
0.028657427
-0.029387051
0.036733156
-0.035779306
0.045813399
-0.042576362
0.055843986
-0.049713391
0.066746543
-0.057120184
0.078420037
-0.064722816
0.090744183
-0.072446256
0.10358449
-0.080217721
0.11679835
-0.08797048
0.13024121
-0.095647626
0.1437734
-0.10320697
0.15725897
-0.11063513
-0.11786261
0.17049485
0.00048062642
-0.001041291
0.0019187099
-0.0040171246
0.0043525047
-0.0078471912
0.007816609
-0.012438273
0.012337735
-0.017723534
0.017929307
-0.023638479
0.024586382
-0.03011551
0.032281379
-0.037082047
0.040961046
-0.044458974
0.050545162
-0.052160478
0.060927342
-0.06009557
0.071978106
-0.068170949
0.083550118
-0.076294828
0.095485142
-0.08438128
0.10762202
-0.092354598
0.11980458
-0.10015304
0.1318883
-0.10773135
0.14374374
-0.11506241
0.15524892
-0.12214031
-0.12891495
0.16630125
0.00056617295
-0.001607464
0.0022279549
-0.0056789065
0.0050006385
-0.010619875
0.008894058
-0.016331692
0.01390533
-0.022734806
0.020011982
-0.029745131
0.027166618
-0.037270146
0.035293578
-0.045209007
0.044288048
-0.053453444
0.054017994
-0.061890424
0.064328957
-0.070406533
0.075051381
-0.078893373
0.086009778
-0.087253224
0.097032744
-0.095404247
0.10796269
-0.10328455
0.11866416
-0.1108545
0.12902981
-0.118097
0.13898308
-0.12501568
0.14847497
-0.13163219
-0.13794579
0.15750582
0.00065088974
-0.0022583537
0.0025243547
-0.0075523715
0.0056036626
-0.013699183
0.0098645128
-0.020592543
0.015264683
-0.028134975
0.021736507
-0.036216955
0.029182605
-0.044716244
0.037475042
-0.053501445
0.046458171
-0.062436572
0.055955021
-0.071387275
0.065776623
-0.080228135
0.075733202
-0.088849952
0.085645895
-0.097165918
0.095357552
-0.1051159
0.10474133
-0.11266833
0.11370628
-0.11981945
0.1221994
-0.12659013
0.13020455
-0.13302083
0.13773793
-0.13916557
-0.14506811
0.14486024
0.00073063945
-0.0029889932
0.0027920995
-0.0096138316
0.0061266022
-0.017033686
0.010666759
-0.025132699
0.016322718
-0.033790934
0.022975333
-0.04286957
0.030474539
-0.05221545
0.038642524
-0.06166943
0.047281325
-0.071075373
0.056183874
-0.080289823
0.065147022
-0.089191283
0.073984721
-0.097687651
0.082539582
-0.10572078
0.090691368
-0.11326769
0.098361482
-0.12033844
0.10551328
-0.12697125
0.11214873
-0.13322557
0.11830228
-0.13917438
0.12403345
-0.14489674
-0.15046378
0.12942912
0.00080073483
-0.003789728
0.0030139291
-0.011827026
0.006532921
-0.020552677
0.011240095
-0.029839873
0.016992758
-0.039543597
0.023618622
-0.049495435
0.030918306
-0.059515133
0.038673418
-0.069424542
0.046658874
-0.07906083
0.054657493
-0.088288442
0.06247454
-0.09700833
0.069950014
-0.10516313
0.076966991
-0.11273776
0.083455092
-0.11975579
0.08938906
-0.12627241
0.094783219
-0.13236541
0.099683162
-0.13812551
0.1041563
-0.14364753
0.10828286
-0.1490233
-0.154334
0.11215308
0.00085606223
-0.0046457902
0.0031720728
-0.014143036
0.0067872502
-0.024167855
0.011529841
-0.034582463
0.017203486
-0.045217243
0.023586612
-0.055878561
0.030439945
-0.066368467
0.037519399
-0.076503996
0.044591864
-0.086133294
0.051451055
-0.095147633
0.057930662
-0.10348794
0.063912777
-0.11114524
0.069330611
-0.11815559
0.074165621
-0.1245908
0.078440141
-0.13054693
0.08220718
-0.13613244
0.085539301
-0.14145763
0.088518316
-0.14662654
0.09122707
-0.15173205
-0.15685244
0.093745511
0.00089026563
-0.0055360559
0.0032482942
-0.016501065
0.0068576433
-0.027777204
0.011492496
-0.039217316
0.016906851
-0.050631597
0.022838942
-0.061810652
0.029023717
-0.072553242
0.035209292
-0.082689571
0.041173957
-0.092097959
0.046740405
-0.10071408
0.051784638
-0.10853217
0.056238358
-0.11559896
0.060085054
-0.12200229
0.063351125
-0.12785687
0.066094052
-0.13328986
0.068389854
-0.13842825
0.070321682
-0.14338946
0.071970956
-0.14827581
0.073411606
-0.1531727
-0.15814805
0.07470722
0.00089982114
-0.006435877
0.0032333899
-0.018834634
0.0067291813
-0.031272995
0.011111201
-0.043599336
0.016092515
-0.055612911
0.021384653
-0.06710279
0.026713909
-0.077882499
0.031839129
-0.087814791
0.036567081
-0.096825911
0.040762243
-0.10490924
0.044349416
-0.11211934
0.047309259
-0.1185588
0.04966828
-0.12436131
0.051485653
-0.12967424
0.052839327
-0.13464353
0.053813586
-0.1394025
0.054489441
-0.14406532
0.054938514
-0.14872489
0.055220207
-0.1534544
0.055380607
-0.15830845
-0.00020237967
0.00020237967
7.7615611e-12
-0.00067775099
0.00047537129
2.4784966e-11
-0.0013424344
0.00066468337
3.1856462e-11
-0.0021323074
0.00078987291
3.152771e-11
-0.002995791
0.00086348356
3.0002005e-11
-0.0038907626
0.00089497156
2.6231561e-11
-0.0047823219
0.00089155928
2.3513575e-11
-0.005640922
0.00085860012
1.9197912e-11
-0.0064408989
0.00079997687
1.6293144e-11
-0.0071593204
0.00071842142
1.2701306e-11
-0.0077750676
0.00061574726
1.0500242e-11
-0.0082681002
0.00049303257
8.4293368e-12
-0.0086188761
0.00035077587
7.4978331e-12
-0.0088079184
0.00018904233
7.0554785e-12
-0.0088155603
7.6418606e-06
7.367828e-12
-0.0086219685
-0.00019359177
8.1188752e-12
-0.0082074074
-0.00041456108
8.9762327e-12
-0.0075518336
-0.00065557384
9.9812651e-12
-0.0066344901
-0.00091734352
1.0487776e-11
-0.0011862664
-0.0054482237
1.0140051e-11
-0.00018797572
0.0003903554
-0.00062501102
0.00091240658
-0.0012287608
0.0012684331
-0.0019352059
0.001496318
-0.0026921543
0.001620432
-0.0034563023
0.0016591195
-0.0041910876
0.0016263446
-0.0048648804
0.0015323929
-0.0054495451
0.0013846416
-0.0059193056
0.0011881819
-0.0062498297
0.0009462714
-0.0064174874
0.00066069024
-0.0063987458
0.00033203429
-0.0061696904
-4.0013125e-05
-0.0057056996
-0.00045634892
-0.0049813649
-0.00091792646
-0.0039707065
-0.0014252195
-0.0026470942
-0.0019791862
-0.00098309732
-0.0025813404
-0.0032018662
0.0010325025
-0.00015892878
0.0005492842
-0.00051889429
0.0012723721
-0.0010007751
0.001750314
-0.0015412666
0.0020368095
-0.0020873586
0.0021665239
-0.0025937444
0.0021655053
-0.0030208765
0.0020534767
-0.003333299
0.0018448154
-0.0034983025
0.001549645
-0.0034848473
0.0011747268
-0.0032626803
0.00072410442
-0.0028016147
0.00019962456
-0.0020708961
-0.00039868428
-0.0010386893
-0.0010722199
0.00032835176
-0.00182339
0.0020653601
-0.0026549349
0.0042092158
-0.0035690751
0.0067982394
-0.0045682098
0.0098721234
-0.0056552244
-0.006779892
0.013450149
-0.00011756744
0.00066685165
-0.00036699981
0.0015218045
-0.00067351543
0.0020568296
-0.00097482718
0.0023381212
-0.001216854
0.0024085508
-0.001351591
0.0023002422
-0.0013354514
0.002037337
-0.0011278122
0.0016371762
-0.00068981769
0.0011116505
1.6572757e-05
0.00046833635
0.001029369
-0.00028869186
0.0023871971
-0.0011582035
0.004129844
-0.0021413313
0.00629874
-0.0032411159
0.0089374639
-0.0044621139
0.0120923
-0.0058097713
0.015812614
-0.0072893889
0.02015055
-0.0089061453
0.025160818
-0.010665493
-0.012492865
0.030873792
-6.6907635e-05
0.00073375929
-0.00017916602
0.0016340629
-0.00026653186
0.0021441954
-0.00026768659
0.0023392759
-0.00012718449
0.0022680487
0.00020618405
0.0019668737
0.00078072109
0.0014628
0.0016429906
0.00077490672
0.0028387882
-8.4147051e-05
0.0044139269
-0.0011068023
0.0064148007
-0.0022895657
0.0088888011
-0.0036322039
0.011884642
-0.0051371724
0.015452691
-0.0068091645
0.01964534
-0.0086547633
0.02451763
-0.010682061
0.030128126
-0.012899884
0.036539425
-0.015317444
0.043818926
-0.017944995
-0.020682898
0.052008959
-9.9841365e-06
0.00074374343
3.4537261e-05
0.0015895415
0.00019989599
0.0019788367
0.00054677732
0.0019923946
0.0011322672
0.0016825588
0.0020110129
0.001088128
0.0032361873
0.00023762563
0.0048603715
-0.00084927749
0.0069362127
-0.0021599883
0.0095167985
-0.0036873881
0.012655865
-0.0054286323
0.016407902
-0.0073842408
0.020828079
-0.0095573493
0.025972084
-0.011953169
0.031896025
-0.014578705
0.038656733
-0.017442769
0.046312938
-0.02055609
0.054927341
-0.023931847
0.064570438
-0.027588091
-0.031406074
0.075293614
5.0752241e-05
0.00069299119
0.00026566171
0.001374632
0.0007082638
0.0015362346
0.0014390482
0.0012616103
0.00251685
0.00060475698
0.0039996119
-0.0003946339
0.0059449802
-0.0017077427
0.0084106943
-0.0033149915
0.011454716
-0.0052040104
0.015135201
-0.0073678726
0.019510226
-0.0098036575
0.024637267
-0.012511281
0.030572458
-0.015492541
0.0373697
-0.018750411
0.045079719
-0.022288724
0.053749528
-0.026112578
0.063423236
-0.030229798
0.074145443
-0.034654054
0.08597018
-0.039412828
-0.044389096
0.098953202
0.00011379763
0.00057919356
0.00050850887
0.00097992077
0.0012459951
0.00079874838
0.0023868013
0.00012080411
0.0039912795
-0.00099972124
0.0061199342
-0.0025232886
0.0088334026
-0.0044212112
0.012192278
-0.0066738674
0.016256707
-0.0092684385
0.021085637
-0.012196803
0.026735789
-0.015453809
0.033260322
-0.019035814
0.040707247
-0.022939467
0.049117626
-0.027160789
0.058523666
-0.031694764
0.068947101
-0.036536013
0.080399008
-0.041681705
0.092882927
-0.047137972
0.10640636
-0.052936257
-0.058996355
0.12101361
0.00017849749
0.00040069607
0.00076003672
0.00039838154
0.0018053547
-0.00024656959
0.0033747427
-0.0014485838
0.0055290422
-0.0031540208
0.008329389
-0.0053236354
0.011836588
-0.0079284102
0.016110191
-0.01094747
0.021207216
-0.014365463
0.027180523
-0.018170111
0.034076891
-0.022350177
0.041934809
-0.026893733
0.050782057
-0.031786714
0.060633058
-0.037011791
0.071486036
-0.042547742
0.083320001
-0.048369977
0.096092545
-0.05445425
0.10974118
-0.060786608
0.12419682
-0.067391899
-0.074275362
0.13947583
0.00024512926
0.0010199575
0.0023833589
0.004393896
0.007110604
0.010591985
0.014894422
0.020070263
0.026165568
0.033217618
0.041252307
0.050281597
0.060301144
0.07128821
0.083199666
0.095969489
0.10950404
0.12366447
0.13818404
0.15258835
-0.0035075551
-0.0019406686
1.0647879e-11
-0.0012857209
-0.0022218343
4.9594214e-12
0.0011949443
-0.0024806652
-2.8708931e-12
0.0038775409
-0.0026825966
-1.299993e-11
0.0067352654
-0.0028577245
-2.5396583e-11
0.0097508121
-0.0030155467
-3.9589351e-11
0.012905247
-0.0031544345
-5.7766617e-11
0.016180547
-0.0032752999
-7.8613563e-11
0.019561011
-0.003380464
-1.0199114e-10
0.02303242
-0.0034714096
-1.2703475e-10
0.026581489
-0.0035490688
-1.5346143e-10
0.030195793
-0.0036143036
-1.8003782e-10
0.033863689
-0.0036678955
-2.057237e-10
0.03757418
-0.0037104913
-2.2838969e-10
0.041316817
-0.0037426361
-2.4603543e-10
0.045081626
-0.0037648093
-2.556874e-10
0.048859069
-0.0037774422
-2.5469092e-10
0.052640001
-0.0037809316
-2.396589e-10
0.056415655
-0.003775654
-2.0781955e-10
0.060177632
-0.0037619772
-1.5607832e-10
0.063917902
-0.0037402694
-8.2610722e-11
0.067628806
-0.0037109047
1.4028371e-11
0.071303074
-0.0036742678
1.3299229e-10
0.074933829
-0.0036307557
2.7220011e-10
0.078514607
-0.0035807779
4.2601398e-10
0.082039362
-0.0035247555
5.8687539e-10
0.08550248
-0.0034631189
7.4257814e-10
0.088898783
-0.0033963044
8.7921946e-10
0.092223534
-0.0033247517
9.7807392e-10
0.095472432
-0.0032488989
1.0209076e-09
0.098641612
-0.0031691806
9.8639277e-10
0.10172763
-0.003086023
8.5902741e-10
0.10472748
-0.0029998425
6.2444161e-10
0.10763852
-0.0029110426
2.8287665e-10
0.11045853
-0.0028200133
-1.5846222e-10
0.11318566
-0.0027271308
-6.6754136e-10
0.11581842
-0.0026327583
-1.202204e-09
0.11835567
-0.0025372487
-1.6902838e-09
0.12079663
-0.002440952
-2.0566313e-09
0.12314084
-0.0023442157
-2.207416e-09
0.12538827
-0.0022474268
-2.0702392e-09
0.12753921
-0.0021509381
-1.5910156e-09
0.12959466
-0.0020554412
-7.7069678e-10
0.13155558
-0.0019609258
3.2927159e-10
0.1334261
-0.0018705185
1.5594064e-09
0.13520473
-0.0017786345
2.6996058e-09
0.13691597
-0.0017112444
3.4878263e-09
0.13851567
-0.0015996997
3.6673313e-09
0.14020477
-0.0016891072
3.1185039e-09
-0.0013337107
8.8032822e-10
0.0028531598
-0.0037613259
0.0049503537
-0.0043190282
0.0072932659
-0.0048235774
0.0098194542
-0.0052087849
0.012507857
-0.0055461277
0.01534615
-0.0058538398
0.018317593
-0.0061258767
0.021405778
-0.0063634848
0.024596687
-0.006571373
0.027877557
-0.0067522804
0.031236259
-0.0069077699
0.034661309
-0.0070393539
0.038141852
-0.0071484384
0.041667541
-0.0072361808
0.04522846
-0.0073035546
0.048815074
-0.0073514238
0.052418206
-0.0073805741
0.056029011
-0.0073917364
0.059638969
-0.0073856125
0.063239889
-0.0073628968
0.06682391
-0.0073242908
0.07038352
-0.0072705146
0.073911566
-0.0072023133
0.07740127
-0.0071204602
0.080846249
-0.0070257564
0.084240521
-0.0069190275
0.087578522
-0.0068011197
0.09085511
-0.0066728926
0.094065571
-0.0065352127
0.097205617
-0.0063889454
0.10027139
-0.0062349488
0.10325943
-0.0060740663
0.10616671
-0.0059071213
0.10899058
-0.0057349133
0.11172878
-0.005558215
0.11437942
-0.0053777723
0.11694097
-0.0051943067
0.11941224
-0.0050085194
0.1217924
-0.0048211069
0.12408094
-0.0046327608
0.12627777
-0.0044442543
0.12838312
-0.0042562907
0.13039793
-0.004070251
0.13232312
-0.0038861183
0.13416272
-0.0037101142
0.13591525
-0.003531168
0.13760475
-0.0034007446
0.13918811
-0.0031830548
0.14086107
-0.0033620679
-0.0026649653
0.01502153
-0.0053327069
0.016852679
-0.0061501772
0.01890627
-0.0068771683
0.021112374
-0.0074148893
0.023459358
-0.0078931114
0.025943569
-0.0083380503
0.028552388
-0.008734696
0.031272336
-0.0090834331
0.034092313
-0.00939135
0.037002089
-0.0096620562
0.039991543
-0.0098972242
0.043050816
-0.010098626
0.046170383
-0.010268005
0.049340988
-0.010406786
0.052553603
-0.01051617
0.055799417
-0.010597238
0.059069841
-0.010650997
0.062356511
-0.010678407
0.065651308
-0.010680409
0.068946364
-0.010657954
0.072234095
-0.010612022
0.075507213
-0.010543632
0.078758754
-0.010453854
0.081982097
-0.010343803
0.085170985
-0.010214645
0.088319542
-0.010067585
0.091422285
-0.009903862
0.094474132
-0.0097247399
0.097470411
-0.0095314919
0.10040686
-0.0093253949
0.10327963
-0.0091077133
0.10608525
-0.0088796929
0.10882068
-0.008642551
0.11148324
-0.0083974703
0.11407062
-0.0081455956
0.11658088
-0.007888033
0.11901243
-0.0076258538
0.12136401
-0.0073601014
0.12363472
-0.0070918131
0.12582398
-0.0068220211
0.1279316
-0.0065518817
0.12995776
-0.0062824483
0.13190329
-0.006015785
0.13376906
-0.0057518839
0.13555892
-0.0054999782
0.13727151
-0.0052437572
0.13892989
-0.0050591218
0.14049328
-0.00474644
0.14214681
-0.0050155978
-0.0040044589
0.032057129
-0.0065160445
0.033472376
-0.0075654242
0.035077934
-0.0084827261
0.036800826
-0.0091377813
0.038641738
-0.0097340236
0.040606968
-0.01030328
0.042689344
-0.010817072
0.044879345
-0.011273433
0.047169392
-0.011681398
0.04955226
-0.012044924
0.05202024
-0.012365204
0.054565376
-0.012643763
0.057179659
-0.012882288
0.059855046
-0.013082173
0.062583474
-0.013244598
0.065356901
-0.013370665
0.068167345
-0.013461441
0.07100693
-0.013517992
0.073867922
-0.013541402
0.076742772
-0.013532804
0.079624147
-0.013493397
0.082504969
-0.013424454
0.085378442
-0.013327327
0.088238086
-0.013203448
0.091077758
-0.013054317
0.093891672
-0.012881498
0.096674414
-0.012686604
0.099420957
-0.012471283
0.10212666
-0.012237199
0.10478729
-0.011986024
0.10739899
-0.011719414
0.1099583
-0.011439004
0.11246215
-0.011146392
0.11490781
-0.010843134
0.11729295
-0.010530734
0.11961557
-0.010210652
0.12187401
-0.0098842999
0.12406697
-0.0095530579
0.12619345
-0.0092182991
0.12825283
-0.0088813944
0.13024483
-0.0085438802
0.13216954
-0.0082071612
0.13402773
-0.0078739758
0.1358202
-0.0075443499
0.13755062
-0.007230405
0.13921782
-0.0069109575
0.14084348
-0.0066847816
0.1423903
-0.0062932537
0.14402813
-0.0066534314
-0.005368088
0.052649298
-0.0071563837
0.053489933
-0.008406059
0.054484098
-0.0094768916
0.055566107
-0.01021979
0.056750777
-0.010918693
0.058052402
-0.011604905
0.059469493
-0.012234163
0.060997182
-0.012801122
0.062631259
-0.013315475
0.064367127
-0.013780792
0.066199265
-0.014197342
0.068121405
-0.014565903
0.070126781
-0.014887664
0.072208293
-0.015163685
0.074358593
-0.015394899
0.076570169
-0.015582241
0.07883543
-0.015726702
0.081146782
-0.015829344
0.083496697
-0.015891317
0.085877773
-0.01591388
0.088282784
-0.015898407
0.090704729
-0.015846399
0.093136869
-0.015759468
0.095572765
-0.015639343
0.098006301
-0.015487854
0.10043171
-0.01530691
0.1028436
-0.015098493
0.10523694
-0.014864626
0.10760711
-0.014607362
0.10994984
-0.014328759
0.11226129
-0.014030863
0.11453798
-0.013715688
0.1167768
-0.013385213
0.11897502
-0.013041357
0.12113027
-0.012685983
0.12324052
-0.012320899
0.12530407
-0.011947855
0.12731958
-0.011568567
0.12928602
-0.011184743
0.13120272
-0.010798091
0.13306937
-0.010410531
0.13488603
-0.010023822
0.13665342
-0.0096413667
0.13837233
-0.0092632578
0.14004628
-0.0089043499
0.14167437
-0.0085390502
0.14327662
-0.0082870329
0.14482015
-0.0078367856
0.14645593
-0.0082892042
-0.0067790947
0.07522264
-0.0070854098
0.075327644
-0.0085110629
0.075552057
-0.0097013045
0.075852395
-0.010520129
0.076256695
-0.011322993
0.076781808
-0.012130018
0.077430772
-0.012883127
0.078203515
-0.013573866
0.079098348
-0.014210307
0.08011212
-0.014794565
0.081240591
-0.015325813
0.082478464
-0.015803775
0.083819554
-0.016228755
0.085257084
-0.016601214
0.086783875
-0.01692169
0.088392477
-0.017190843
0.090075271
-0.017409496
0.09182458
-0.017578652
0.093632759
-0.017699496
0.095492273
-0.017773393
0.097395755
-0.01780189
0.099336064
-0.017786708
0.10130633
-0.017729736
0.1033
-0.017633009
0.10531084
-0.017498696
0.107333
-0.01732907
0.109361
-0.017126491
0.11138975
-0.016893374
0.11341456
-0.01663217
0.11543113
-0.016345336
0.11743559
-0.016035316
0.11942441
-0.015704517
0.1213945
-0.015355298
0.1233431
-0.014989954
0.12526783
-0.014610714
0.12716666
-0.014219735
0.12903792
-0.013819117
0.13088027
-0.013410911
0.1326927
-0.01299717
0.13447455
-0.012579946
0.13622556
-0.012161545
0.13794583
-0.011744088
0.1396361
-0.011331638
0.14129724
-0.010924392
0.14293264
-0.010539759
0.14454186
-0.010148267
0.14614305
-0.0098882228
0.14770849
-0.0094022264
0.14936779
-0.0099485032
-0.0082695943
0.098026245
-0.0061584526
0.097259011
-0.0077438293
0.096582762
-0.0090250553
0.095998369
-0.0099357364
0.095541963
-0.010866587
0.095224774
-0.01181283
0.095052171
-0.012710524
0.095028157
-0.013549851
0.095152265
-0.014334415
0.095421229
-0.015063529
0.09583069
-0.015735274
0.096375239
-0.016348324
0.097048391
-0.016901907
0.097842914
-0.017395737
0.098751124
-0.0178299
0.09976505
-0.018204769
0.10087656
-0.018521003
0.10207746
-0.018779557
0.10335964
-0.018981671
0.10471509
-0.019128848
0.10613604
-0.019222842
0.10761497
-0.019265638
0.10914467
-0.019259436
0.11071828
-0.01920662
0.11232932
-0.019109735
0.11397171
-0.018971459
0.11563979
-0.018794565
0.11732831
-0.018581897
0.11903248
-0.018336337
0.12074791
-0.018060768
0.12247065
-0.017758062
0.12419718
-0.017431043
0.12592436
-0.017082477
0.12764946
-0.016715055
0.12937013
-0.016331387
0.1310844
-0.015934005
0.13279065
-0.015525367
0.13448762
-0.015107882
0.13617441
-0.014683958
0.13785047
-0.014256005
0.13951565
-0.013826726
0.14117019
-0.013398623
0.14281496
-0.012976411
0.144451
-0.012560434
0.14608172
-0.012170476
0.14770719
-0.011773737
0.14934368
-0.011524717
0.15096911
-0.011027654
0.15269053
-0.01166992
-0.0098813477
0.11919
-0.0043348414
0.11749744
-0.0060512614
0.11585796
-0.007385576
0.11435547
-0.0084332495
0.11302621
-0.0095373306
0.1118677
-0.010654315
0.11088539
-0.011728217
0.11008557
-0.012750035
0.10946766
-0.013716498
0.10902705
-0.014622919
0.10875793
-0.01546616
0.10865365
-0.016244044
0.10870661
-0.016954865
0.1089085
-0.017597624
0.10925059
-0.018171992
0.10972395
-0.018678125
0.11031954
-0.019116594
0.11102836
-0.019488378
0.11184153
-0.019794839
0.11275036
-0.020037684
0.11374646
-0.020218939
0.11482174
-0.020340917
0.1159685
-0.020406191
0.11717943
-0.020417554
0.11844769
-0.020377991
0.11976686
-0.020290635
0.12113103
-0.020158733
0.12253474
-0.019985606
0.12397302
-0.019774615
0.12544137
-0.019529124
0.12693578
-0.01925247
0.12845268
-0.018947938
0.12998894
-0.018618739
0.13154188
-0.018267994
0.13310922
-0.017898731
0.1346891
-0.01751388
0.13628002
-0.01711629
0.13788089
-0.016708753
0.13949099
-0.016294052
0.14110996
-0.015874983
0.1427379
-0.015454664
0.14437527
-0.015035995
0.14602321
-0.014624347
0.14768303
-0.014220255
0.14935826
-0.0138457
0.15104963
-0.013465107
0.15277157
-0.013246666
0.15450789
-0.01276397
0.15634295
-0.01350498
-0.011665701
0.13689689
-0.0017558972
0.13437895
-0.0035333301
0.13182042
-0.0048270413
0.12946339
-0.006076221
0.12733508
-0.0074090153
0.12541685
-0.0087360873
0.12371154
-0.010022908
0.12222424
-0.011262732
0.12095339
-0.012445654
0.11989323
-0.01356276
0.11903625
-0.01460918
0.11837411
-0.015581897
0.1178978
-0.016478557
0.1175978
-0.017297626
0.11746425
-0.018038439
0.11748712
-0.018701004
0.11765642
-0.01928589
0.11796221
-0.019794171
0.11839477
-0.020227399
0.11894465
-0.020587555
0.11960271
-0.020877002
0.12036024
-0.021098448
0.12120895
-0.021254907
0.12214105
-0.021349648
0.12314922
-0.02138616
0.12422668
-0.021368103
0.12536721
-0.021299256
0.12656509
-0.021183485
0.12781516
-0.021024691
0.12911281
-0.020826774
0.13045394
-0.020593597
0.13183496
-0.020328957
0.13325278
-0.020036561
0.13470479
-0.019720006
0.13618884
-0.019382781
0.13770322
-0.019028259
0.13924665
-0.018659719
0.14081826
-0.018280362
0.1424176
-0.017893391
0.14404462
-0.017502009
0.14569974
-0.01710978
0.14738377
-0.016720025
0.14909821
-0.016338787
0.15084478
-0.015966828
0.15262724
-0.015628161
0.15444711
-0.01528497
0.15631708
-0.015116637
0.15822695
-0.014673842
0.16023884
-0.015516876
-0.013682691
0.15005286
0.00077958709
0.14676394
-0.00024440985
0.14346663
-0.0015297329
0.14041889
-0.0030284754
0.13762403
-0.0046141581
0.13507581
-0.0061878629
0.13277605
-0.0077231525
0.13072485
-0.0092115299
0.12891976
-0.010640566
0.12735559
-0.011998586
0.1260245
-0.013278095
0.1249171
-0.014474495
0.1240232
-0.015584661
0.12333216
-0.016606578
0.12283297
-0.017539256
0.12251454
-0.018382576
0.1223658
-0.019137144
0.12237582
-0.019804194
0.12253396
-0.020385534
0.12282988
-0.02088348
0.12325369
-0.021300807
0.12379593
-0.021640691
0.12444768
-0.021906659
0.12520057
-0.022102534
0.12604679
-0.022232387
0.12697917
-0.022300474
0.1279911
-0.022311191
0.12907664
-0.022269019
0.13023042
-0.022178473
0.1314477
-0.022044058
0.13272434
-0.021870232
0.13405674
-0.021661366
0.13544191
-0.021421722
0.13687734
-0.021155436
0.13836106
-0.020866507
0.1398916
-0.0205588
0.14146795
-0.020236065
0.14308955
-0.019901965
0.14475631
-0.019560151
0.14646857
-0.019214269
0.14822716
-0.018868365
0.15003333
-0.018526202
0.15188907
-0.018194521
0.15379656
-0.017874322
0.15575996
-0.017591564
0.15778148
-0.017306488
0.1598727
-0.017207855
0.16202785
-0.016828989
0.16429184
-0.017780869
-0.015997272
0.18890994
0.0053816402
-0.19351199
0.18509994
0.0035655808
0.18170796
0.0018622531
0.17856288
0.00011659949
0.17562738
-0.0016786519
0.17287641
-0.0034368931
0.17029175
-0.0051384948
0.16786441
-0.0067841914
0.16559051
-0.008366666
0.16346789
-0.0098759691
0.1614947
-0.011304902
0.15966882
-0.012648615
0.15798761
-0.013903452
0.15644778
-0.01506675
0.15504542
-0.016136888
0.15377604
-0.017113199
0.15263473
-0.017995832
0.15161619
-0.018785653
0.15071484
-0.019484187
0.14992491
-0.020093553
0.14924051
-0.020616401
0.14865567
-0.021055856
0.14816446
-0.021415451
0.147761
-0.021699076
0.14743953
-0.021910908
0.14719441
-0.02205536
0.14702023
-0.02213701
0.14691177
-0.022160555
0.14686404
-0.022130748
0.14687233
-0.022052349
0.14693219
-0.021930083
0.14703942
-0.021768598
0.14719014
-0.021572441
0.14738073
-0.02134603
0.14760787
-0.02109365
0.14786853
-0.020819454
0.14815994
-0.020527477
0.14847964
-0.020221669
0.14882547
-0.019905973
0.14919553
-0.019584334
0.14958829
-0.019261125
0.15000251
-0.018940426
0.15043745
-0.018629453
0.15089257
-0.018329449
0.15136853
-0.018067522
0.15186518
-0.017803136
0.15238704
-0.017729717
0.15292977
-0.017371715
0.15351654
-0.018367639
-0.016591936
0.21685879
0.0087799234
-0.22025707
0.21338495
0.0070394181
0.21017219
0.0050750149
0.20706693
0.00322186
0.20402039
0.0013678893
0.20106352
-0.00048002947
0.19821322
-0.0022881922
0.19547399
-0.0040449627
0.19285174
-0.005744412
0.19035329
-0.0073775219
0.18798385
-0.0089354617
0.18574681
-0.010411579
0.18364418
-0.011800816
0.18167664
-0.013099213
0.17984366
-0.014303915
0.17814363
-0.015413165
0.17657399
-0.016426192
0.17513143
-0.017343091
0.173812
-0.018164754
0.17261124
-0.018892793
0.17152431
-0.01952947
0.17054607
-0.020077623
0.16967122
-0.020540595
0.16889431
-0.020922164
0.16820987
-0.021226474
0.16761247
-0.021457962
0.16709676
-0.021621294
0.16665749
-0.021721292
0.16628962
-0.021762879
0.16598829
-0.021751019
0.16574887
-0.021690661
0.16556698
-0.021586704
0.16543849
-0.021443953
0.16535956
-0.021267103
0.16532663
-0.021060719
0.16533641
-0.020829238
0.16538593
-0.020576988
0.16547247
-0.020308213
0.16559366
-0.02002716
0.16574741
-0.019738085
0.16593197
-0.019445692
0.16614597
-0.019154423
0.1663884
-0.018871886
0.16665879
-0.018599834
0.16695699
-0.018365723
0.16728425
-0.018130398
0.16763983
-0.018085297
0.16803201
-0.017763892
0.1684429
-0.018778534
-0.01706786
0.24376763
0.011503832
-0.24649154
0.24091724
0.0098898082
0.23806408
0.0079281766
0.23521717
0.0060687711
0.23233942
0.0042456384
0.22945166
0.0024077344
0.2265851
0.00057836622
0.22375904
-0.0012189067
0.22098941
-0.0029747762
0.21829213
-0.0046802426
0.21568106
-0.0063243976
0.21316721
-0.0078977292
0.21075919
-0.0093927927
0.20846355
-0.010803575
0.20628493
-0.012125295
0.20422621
-0.013354446
0.20228875
-0.014488728
0.20047258
-0.015526924
0.19877663
-0.016468799
0.19719885
-0.017315021
0.19573645
-0.018067066
0.19438596
-0.018727139
0.19314345
-0.019298083
0.19200458
-0.019783298
0.19096477
-0.020186656
0.19001922
-0.020512421
0.1891631
-0.020765168
0.18839151
-0.020949704
0.18769963
-0.021070999
0.18708273
-0.021134117
0.18653622
-0.021144156
0.18605572
-0.021106197
0.18563703
-0.021025263
0.18527621
-0.020906285
0.18496958
-0.020754086
0.18471371
-0.020573375
0.18450549
-0.020368763
0.18434206
-0.020144789
0.18422091
-0.019906005
0.18413982
-0.019656991
0.18409691
-0.019402782
0.1840907
-0.019148217
0.18412002
-0.018901208
0.18418447
-0.018664286
0.18428317
-0.018464417
0.18441884
-0.018266065
0.1845851
-0.018251566
0.18480387
-0.017982657
0.18501132
-0.018985986
-0.01740258
0.2692753
0.013536745
-0.27130821
0.2671073
0.012057811
0.26476558
0.010269894
0.2623264
0.0085079511
0.2597977
0.0067743398
0.25718965
0.0050157776
0.25452839
0.0032396291
0.25183808
0.0014714031
0.24913872
-0.00027541747
0.24645012
-0.0019916402
0.24379156
-0.0036658419
0.24118019
-0.0052863559
0.23863073
-0.0068433288
0.23615566
-0.0083285103
0.23376529
-0.0097349249
0.23146778
-0.011056932
0.22926931
-0.012290254
0.22717427
-0.013431886
0.22518547
-0.014479999
0.2233043
-0.015433853
0.22153094
-0.016293706
0.21986452
-0.01706072
0.2183033
-0.017736864
0.21684482
-0.018324816
0.21548604
-0.018827872
0.21422346
-0.019249846
0.21305328
-0.019594982
0.21197143
-0.01986786
0.21097375
-0.020073318
0.210056
-0.020216366
0.20921396
-0.020302122
0.20844351
-0.020335745
0.20774064
-0.020322387
0.2071015
-0.020267151
0.20652248
-0.020175066
0.20600019
-0.020051078
0.20553148
-0.019900054
0.2051135
-0.019726815
0.2047437
-0.019536207
0.20441985
-0.019333134
0.20414002
-0.019122954
0.20390273
-0.018910931
0.20370673
-0.018705205
0.20355172
-0.018509281
0.20343625
-0.018348948
0.20336425
-0.018194064
0.20332455
-0.018211867
0.20335041
-0.018008508
0.20333663
-0.018972211
-0.017573891
0.29298596
0.014867856
-0.29431707
0.29150675
0.013537021
0.28978429
0.011992352
0.2878857
0.010406548
0.28584583
0.0088142104
0.2836755
0.0071861064
0.28139312
0.0055220044
0.27902194
0.0038425818
0.27658326
0.0021632619
0.27409725
0.00049437786
0.27158409
-0.0011526862
0.26906352
-0.0027657875
0.26655386
-0.0043336715
0.26407171
-0.0058463562
0.2616318
-0.0072950137
0.2592469
-0.0086720288
0.25692776
-0.0099711196
0.25468322
-0.01118734
0.25252024
-0.012317023
0.25044411
-0.013357722
0.24845855
-0.014308143
0.24656588
-0.015168054
0.24476722
-0.015938199
0.24306259
-0.016620192
0.24145115
-0.017216426
0.23993126
-0.017729959
0.2385007
-0.018164425
0.23715676
-0.018523922
0.23589637
-0.018812928
0.23471621
-0.019036201
0.23361279
-0.019198703
0.23258257
-0.019305526
0.23162201
-0.019361825
0.23072763
-0.019372774
0.22989609
-0.019343527
0.22912422
-0.0192792
0.22840903
-0.019184871
0.22774782
-0.019065605
0.22713814
-0.018926521
0.22657783
-0.018772832
0.22606508
-0.018610205
0.22559849
-0.018444333
0.22517681
-0.01828353
0.22479992
-0.018132386
0.22446598
-0.018015014
0.22417978
-0.017907864
0.22392649
-0.017958572
0.2237477
-0.017829717
0.22350454