/*--------------------------------*- C++ -*----------------------------------*\
  =========                 |
  \\      /  F ield         | OpenFOAM: The Open Source CFD Toolbox
   \\    /   O peration     | Website:  https://openfoam.org
    \\  /    A nd           | Version:  6
     \\/     M anipulation  |
\*---------------------------------------------------------------------------*/
FoamFile
{
    version     2.0;
    format      ascii;
    class       surfaceScalarField;
    location    "135";
    object      phi_0;
}
// * * * * * * * * * * * * * * * * * * * * * * * * * * * * * * * * * * * * * //

dimensions      [0 3 -1 0 0 0 0];

internalField   nonuniform List<scalar> 
18180
(
0.00031873163
-0.00016316485
-0.00015556678
0.0013092205
-0.0013669356
0.00037644673
0.0030329093
-0.0033336599
0.0016099712
0.0055498127
-0.0059760245
0.0034591211
0.0089182591
-0.0092391755
0.005870729
0.013192903
-0.01307966
0.0088050165
0.018422066
-0.017460012
0.012230848
0.024644769
-0.022346014
0.016123312
0.031887578
-0.027703579
0.020460769
0.040161537
-0.03349612
0.025222161
0.049459474
-0.039682805
0.030384868
0.05975408
-0.046217629
0.035923023
0.070997142
-0.053049324
0.041806262
0.083120395
-0.060122112
0.047998859
0.096038612
-0.067377417
0.0544592
0.10965543
-0.074756625
0.061139803
0.12387139
-0.082204761
0.067988803
0.13859913
-0.089674784
0.074947044
0.15383723
-0.097149564
0.081911469
-0.10462673
0.08867967
0.16978429
0.00039749977
-0.00056066463
0.0016096054
-0.0025790412
0.0036893421
-0.0054133966
0.0066874865
-0.008974169
0.010650719
-0.013202408
0.015617967
-0.018046908
0.02161639
-0.023458435
0.028657428
-0.029387052
0.036733157
-0.035779308
0.0458134
-0.042576363
0.055843987
-0.049713393
0.066746544
-0.057120186
0.078420038
-0.064722818
0.090744184
-0.072446258
0.10358449
-0.080217723
0.11679835
-0.087970482
0.13024121
-0.095647628
0.1437734
-0.10320697
0.15725897
-0.11063513
-0.11786261
0.17049485
0.00048062644
-0.0010412911
0.0019187099
-0.0040171247
0.0043525048
-0.0078471915
0.0078166092
-0.012438273
0.012337735
-0.017723535
0.017929307
-0.02363848
0.024586383
-0.030115511
0.032281379
-0.037082048
0.040961047
-0.044458975
0.050545163
-0.05216048
0.060927343
-0.060095572
0.071978108
-0.068170951
0.083550119
-0.07629483
0.095485143
-0.084381282
0.10762202
-0.0923546
0.11980458
-0.10015304
0.1318883
-0.10773135
0.14374374
-0.11506241
0.15524892
-0.12214031
-0.12891495
0.16630125
0.00056617297
-0.001607464
0.0022279549
-0.0056789067
0.0050006386
-0.010619875
0.0088940582
-0.016331693
0.01390533
-0.022734806
0.020011982
-0.029745132
0.027166619
-0.037270147
0.035293579
-0.045209009
0.044288049
-0.053453445
0.054017995
-0.061890426
0.064328958
-0.070406535
0.075051382
-0.078893375
0.086009778
-0.087253226
0.097032745
-0.095404249
0.10796269
-0.10328455
0.11866416
-0.11085451
0.12902981
-0.118097
0.13898308
-0.12501568
0.14847497
-0.1316322
-0.1379458
0.15750582
0.00065088975
-0.0022583538
0.0025243547
-0.0075523717
0.0056036627
-0.013699183
0.009864513
-0.020592543
0.015264683
-0.028134976
0.021736507
-0.036216956
0.029182605
-0.044716245
0.037475042
-0.053501446
0.046458171
-0.062436574
0.055955022
-0.071387276
0.065776623
-0.080228137
0.075733202
-0.088849954
0.085645896
-0.09716592
0.095357552
-0.10511591
0.10474134
-0.11266833
0.11370628
-0.11981945
0.1221994
-0.12659013
0.13020455
-0.13302083
0.13773793
-0.13916557
-0.14506811
0.14486024
0.00073063946
-0.0029889932
0.0027920995
-0.0096138318
0.0061266023
-0.017033686
0.010666759
-0.0251327
0.016322718
-0.033790935
0.022975333
-0.042869571
0.030474539
-0.052215451
0.038642525
-0.061669432
0.047281326
-0.071075375
0.056183875
-0.080289825
0.065147023
-0.089191285
0.073984721
-0.097687653
0.082539582
-0.10572078
0.090691368
-0.11326769
0.098361483
-0.12033845
0.10551328
-0.12697125
0.11214873
-0.13322557
0.11830228
-0.13917438
0.12403345
-0.14489674
-0.15046378
0.12942912
0.00080073484
-0.0037897281
0.0030139291
-0.011827026
0.0065329211
-0.020552678
0.011240095
-0.029839874
0.016992758
-0.039543598
0.023618623
-0.049495436
0.030918307
-0.059515135
0.038673418
-0.069424543
0.046658875
-0.079060831
0.054657493
-0.088288444
0.06247454
-0.097008332
0.069950014
-0.10516313
0.076966992
-0.11273776
0.083455092
-0.11975579
0.08938906
-0.12627241
0.094783218
-0.13236541
0.099683161
-0.13812551
0.1041563
-0.14364753
0.10828286
-0.1490233
-0.154334
0.11215308
0.00085606224
-0.0046457903
0.0031720729
-0.014143037
0.0067872503
-0.024167855
0.011529841
-0.034582464
0.017203486
-0.045217244
0.023586612
-0.055878562
0.030439945
-0.066368468
0.0375194
-0.076503997
0.044591864
-0.086133296
0.051451055
-0.095147634
0.057930662
-0.10348794
0.063912777
-0.11114524
0.069330611
-0.11815559
0.074165621
-0.1245908
0.078440141
-0.13054693
0.082207179
-0.13613245
0.0855393
-0.14145763
0.088518315
-0.14662654
0.091227069
-0.15173205
-0.15685244
0.09374551
0.00089026564
-0.005536056
0.0032482942
-0.016501065
0.0068576434
-0.027777205
0.011492496
-0.039217317
0.016906851
-0.050631598
0.022838942
-0.061810653
0.029023718
-0.072553243
0.035209292
-0.082689572
0.041173957
-0.092097961
0.046740405
-0.10071408
0.051784638
-0.10853217
0.056238358
-0.11559896
0.060085054
-0.12200229
0.063351124
-0.12785687
0.066094051
-0.13328986
0.068389853
-0.13842825
0.070321681
-0.14338946
0.071970955
-0.14827582
0.073411605
-0.1531727
-0.15814805
0.074707219
0.00089982114
-0.0064358771
0.0032333899
-0.018834634
0.0067291814
-0.031272996
0.011111201
-0.043599337
0.016092515
-0.055612912
0.021384653
-0.067102791
0.026713909
-0.0778825
0.031839129
-0.087814792
0.036567081
-0.096825912
0.040762243
-0.10490924
0.044349416
-0.11211935
0.047309259
-0.1185588
0.04966828
-0.12436131
0.051485652
-0.12967424
0.052839326
-0.13464354
0.053813585
-0.13940251
0.05448944
-0.14406532
0.054938513
-0.14872489
0.055220206
-0.1534544
0.055380605
-0.15830845
-0.00020237971
0.00020237969
1.8251857e-11
-0.00067775104
0.00047537132
1.2875603e-11
-0.0013424345
0.00066468342
1.1760923e-11
-0.0021323074
0.00078987296
1.4010218e-11
-0.002995791
0.0008634836
1.5742774e-11
-0.0038907626
0.0008949716
1.5360782e-11
-0.0047823219
0.00089155931
1.4476296e-11
-0.0056409221
0.00085860014
1.3035829e-11
-0.006440899
0.00079997689
1.2235637e-11
-0.0071593204
0.00071842143
1.1836504e-11
-0.0077750677
0.00061574725
1.1974552e-11
-0.0082681003
0.00049303255
1.253366e-11
-0.0086188761
0.00035077585
1.3193857e-11
-0.0088079185
0.00018904229
1.411124e-11
-0.0088155603
7.6418126e-06
1.4809222e-11
-0.0086219685
-0.00019359183
1.5603512e-11
-0.0082074073
-0.00041456116
1.5931971e-11
-0.0075518334
-0.00065557394
1.6195293e-11
-0.0066344898
-0.00091734364
1.5819501e-11
-0.0011862666
-0.0054482232
1.500034e-11
-0.00018797575
0.00039035544
-0.00062501106
0.00091240664
-0.0012287608
0.0012684332
-0.0019352059
0.001496318
-0.0026921543
0.001620432
-0.0034563023
0.0016591196
-0.0041910877
0.0016263447
-0.0048648804
0.0015323929
-0.0054495451
0.0013846416
-0.0059193056
0.0011881819
-0.0062498298
0.00094627139
-0.0064174874
0.00066069021
-0.0063987458
0.00033203423
-0.0061696903
-4.0013209e-05
-0.0057056995
-0.00045634903
-0.0049813647
-0.00091792661
-0.0039707062
-0.0014252196
-0.0026470938
-0.0019791864
-0.00098309672
-0.0025813407
-0.0032018666
0.0010325032
-0.0001589288
0.00054928424
-0.00051889432
0.0012723722
-0.0010007752
0.001750314
-0.0015412667
0.0020368096
-0.0020873586
0.002166524
-0.0025937444
0.0021655054
-0.0030208765
0.0020534767
-0.003333299
0.0018448154
-0.0034983024
0.001549645
-0.0034848473
0.0011747268
-0.0032626803
0.00072410437
-0.0028016145
0.00019962447
-0.0020708959
-0.0003986844
-0.001038689
-0.0010722201
0.00032835216
-0.0018233902
0.0020653607
-0.0026549351
0.0042092165
-0.0035690755
0.0067982403
-0.0045682102
0.0098721245
-0.0056552249
-0.0067798926
0.013450151
-0.00011756746
0.00066685169
-0.00036699983
0.0015218045
-0.00067351545
0.0020568296
-0.00097482718
0.0023381213
-0.001216854
0.0024085508
-0.001351591
0.0023002423
-0.0013354513
0.0020373371
-0.0011278121
0.0016371762
-0.00068981757
0.0011116505
1.6572927e-05
0.00046833627
0.0010293693
-0.00028869199
0.0023871974
-0.0011582036
0.0041298445
-0.0021413315
0.0062987405
-0.0032411162
0.0089374646
-0.0044621143
0.012092301
-0.0058097718
0.015812615
-0.0072893895
0.020150551
-0.008906146
0.02516082
-0.010665494
-0.012492866
0.030873794
-6.6907644e-05
0.00073375933
-0.00017916603
0.0016340629
-0.00026653187
0.0021441955
-0.00026768657
0.002339276
-0.00012718445
0.0022680487
0.00020618412
0.0019668737
0.0007807212
0.0014628
0.0016429908
0.00077490666
0.0028387884
-8.4147161e-05
0.0044139272
-0.0011068025
0.0064148011
-0.0022895659
0.0088888017
-0.0036322042
0.011884643
-0.0051371728
0.015452692
-0.006809165
0.019645341
-0.0086547639
0.024517632
-0.010682062
0.030128127
-0.012899885
0.036539427
-0.015317445
0.043818928
-0.017944996
-0.0206829
0.052008962
-9.9841376e-06
0.00074374346
3.4537262e-05
0.0015895415
0.00019989601
0.0019788367
0.00054677735
0.0019923946
0.0011322673
0.0016825588
0.002011013
0.0010881279
0.0032361875
0.00023762555
0.0048603718
-0.00084927763
0.0069362131
-0.0021599885
0.009516799
-0.0036873884
0.012655866
-0.0054286327
0.016407903
-0.0073842413
0.02082808
-0.0095573499
0.025972085
-0.01195317
0.031896027
-0.014578706
0.038656734
-0.01744277
0.04631294
-0.020556091
0.054927344
-0.023931849
0.064570441
-0.027588093
-0.031406076
0.075293617
5.0752246e-05
0.00069299121
0.00026566172
0.001374632
0.00070826383
0.0015362346
0.0014390482
0.0012616102
0.0025168501
0.00060475693
0.003999612
-0.000394634
0.0059449805
-0.0017077429
0.0084106946
-0.0033149918
0.011454717
-0.0052040107
0.015135202
-0.0073678731
0.019510227
-0.0098036581
0.024637268
-0.012511282
0.03057246
-0.015492542
0.037369701
-0.018750412
0.045079721
-0.022288725
0.05374953
-0.026112579
0.063423239
-0.030229799
0.074145446
-0.034654055
0.085970183
-0.03941283
-0.044389099
0.098953205
0.00011379764
0.00057919357
0.0005085089
0.00097992076
0.0012459951
0.00079874835
0.0023868013
0.00012080404
0.0039912796
-0.00099972136
0.0061199344
-0.0025232888
0.0088334029
-0.0044212115
0.012192279
-0.0066738678
0.016256707
-0.009268439
0.021085638
-0.012196804
0.02673579
-0.01545381
0.033260323
-0.019035815
0.040707249
-0.022939468
0.049117627
-0.027160791
0.058523668
-0.031694766
0.068947103
-0.036536014
0.080399011
-0.041681707
0.092882929
-0.047137974
0.10640636
-0.052936259
-0.058996357
0.12101362
0.00017849751
0.00040069606
0.00076003676
0.00039838151
0.0018053548
-0.00024656966
0.0033747428
-0.001448584
0.0055290424
-0.003154021
0.0083293893
-0.0053236356
0.011836588
-0.0079284106
0.016110191
-0.010947471
0.021207216
-0.014365464
0.027180524
-0.018170112
0.034076892
-0.022350178
0.041934811
-0.026893734
0.050782058
-0.031786715
0.06063306
-0.037011792
0.071486038
-0.042547744
0.083320003
-0.048369979
0.096092548
-0.054454252
0.10974118
-0.060786611
0.12419683
-0.067391901
-0.074275365
0.13947583
0.00024512927
0.0010199575
0.002383359
0.0043938962
0.0071106042
0.010591985
0.014894423
0.020070264
0.026165569
0.033217618
0.041252309
0.050281598
0.060301145
0.071288211
0.083199668
0.095969492
0.10950404
0.12366448
0.13818404
0.15258835
-0.0035075545
-0.0019406687
1.7282087e-11
-0.0012857201
-0.0022218345
1.1525114e-11
0.0011949453
-0.0024806654
2.6453104e-12
0.0038775421
-0.0026825968
-9.0426472e-12
0.0067352669
-0.0028577247
-2.3690305e-11
0.0097508138
-0.0030155469
-3.9783565e-11
0.012905249
-0.0031544348
-5.9167847e-11
0.016180549
-0.0032753002
-8.0615149e-11
0.019561013
-0.0033804644
-1.0428488e-10
0.023032424
-0.0034714099
-1.2956997e-10
0.026581493
-0.0035490693
-1.5609209e-10
0.030195797
-0.003614304
-1.8264229e-10
0.033863693
-0.003667896
-2.080386e-10
0.037574185
-0.0037104919
-2.3020623e-10
0.041316822
-0.0037426367
-2.4707582e-10
0.045081632
-0.0037648099
-2.5576423e-10
0.048859075
-0.0037774428
-2.535802e-10
0.052640008
-0.0037809323
-2.3722478e-10
0.056415663
-0.0037756547
-2.0391279e-10
0.060177641
-0.003761978
-1.5066158e-10
0.063917911
-0.0037402702
-7.5677106e-11
0.067628817
-0.0037109055
2.2327327e-11
0.071303085
-0.0036742687
1.4243158e-10
0.074933842
-0.0036307566
2.8234359e-10
0.07851462
-0.0035807789
4.3633402e-10
0.082039376
-0.0035247566
5.9659781e-10
0.085502496
-0.00346312
7.5088783e-10
0.0888988
-0.0033963057
8.8506976e-10
0.092223552
-0.003324753
9.8054397e-10
0.095472452
-0.0032489003
1.0189285e-09
0.098641633
-0.0031691821
9.7933743e-10
0.10172766
-0.0030860247
8.4627695e-10
0.1047275
-0.0029998442
6.0626148e-10
0.10763854
-0.0029110445
2.5972682e-10
0.11045856
-0.0028200153
-1.8482646e-10
0.11318569
-0.002727133
-6.9502898e-10
0.11581846
-0.0026327607
-1.2274897e-09
0.11835571
-0.0025372514
-1.709688e-09
0.12079667
-0.0024409549
-2.0664e-09
0.12314089
-0.0023442189
-2.2036001e-09
0.12538832
-0.0022474304
-2.0511003e-09
0.12753926
-0.002150942
-1.5564152e-09
0.12959471
-0.0020554456
-7.2386822e-10
0.13155564
-0.0019609305
3.826337e-10
0.13342616
-0.0018705238
1.6108098e-09
0.1352048
-0.0017786404
2.7390279e-09
0.13691605
-0.001711251
3.5044971e-09
0.13851575
-0.001599707
3.6590888e-09
0.14020486
-0.0016891156
3.0824092e-09
-0.0013337207
8.4054671e-10
0.0028531608
-0.0037613262
0.0049503548
-0.0043190285
0.0072932673
-0.0048235778
0.0098194558
-0.0052087853
0.012507859
-0.0055461282
0.015346153
-0.0058538403
0.018317595
-0.0061258773
0.02140578
-0.0063634855
0.02459669
-0.0065713738
0.027877561
-0.0067522812
0.031236262
-0.0069077707
0.034661313
-0.0070393548
0.038141857
-0.0071484393
0.041667547
-0.0072361818
0.045228466
-0.0073035557
0.048815081
-0.007351425
0.052418213
-0.0073805753
0.056029019
-0.0073917377
0.059638978
-0.007385614
0.063239898
-0.0073628983
0.06682392
-0.0073242924
0.070383531
-0.0072705163
0.073911578
-0.0072023151
0.077401283
-0.0071204621
0.080846263
-0.0070257584
0.084240536
-0.0069190297
0.087578538
-0.006801122
0.090855127
-0.0066728951
0.094065589
-0.0065352153
0.097205637
-0.0063889482
0.10027141
-0.0062349519
0.10325945
-0.0060740696
0.10616673
-0.0059071248
0.10899061
-0.0057349171
0.11172881
-0.0055582191
0.11437945
-0.0053777767
0.116941
-0.0051943115
0.11941228
-0.0050085247
0.12179243
-0.0048211128
0.12408098
-0.0046327672
0.12627781
-0.0044442613
0.12838317
-0.0042562984
0.13039798
-0.0040702596
0.13232318
-0.0038861278
0.13416278
-0.0037101247
0.13591532
-0.0035311797
0.13760483
-0.0034007578
0.13918819
-0.0031830694
0.14086116
-0.0033620849
-0.0026649852
0.015021532
-0.0053327074
0.016852681
-0.0061501778
0.018906272
-0.006877169
0.021112377
-0.00741489
0.023459361
-0.0078931122
0.025943572
-0.0083380511
0.028552391
-0.0087346969
0.03127234
-0.0090834341
0.034092317
-0.009391351
0.037002093
-0.0096620574
0.039991548
-0.0098972255
0.043050821
-0.010098628
0.046170388
-0.010268006
0.049340994
-0.010406788
0.05255361
-0.010516171
0.055799424
-0.01059724
0.059069848
-0.010650999
0.06235652
-0.010678409
0.065651316
-0.010680411
0.068946374
-0.010657956
0.072234106
-0.010612024
0.075507224
-0.010543635
0.078758766
-0.010453857
0.08198211
-0.010343806
0.085170999
-0.010214648
0.088319557
-0.010067588
0.091422301
-0.0099038655
0.094474149
-0.0097247435
0.09747043
-0.0095314959
0.10040688
-0.0093253991
0.10327965
-0.0091077178
0.10608527
-0.0088796978
0.10882071
-0.0086425562
0.11148327
-0.008397476
0.11407065
-0.0081456018
0.11658091
-0.0078880397
0.11901246
-0.0076258611
0.12136404
-0.0073601093
0.12363475
-0.0070918218
0.12582402
-0.0068220306
0.12793165
-0.0065518922
0.12995781
-0.0062824599
0.13190335
-0.0060157978
0.13376912
-0.0057518981
0.13555899
-0.005499994
0.13727158
-0.0052437747
0.13892997
-0.0050591416
0.14049336
-0.0047464618
0.1421469
-0.0050156233
-0.0040044888
0.032057131
-0.0065160452
0.033472379
-0.007565425
0.035077937
-0.008482727
0.036800829
-0.0091377823
0.038641741
-0.0097340246
0.040606972
-0.010303281
0.042689348
-0.010817074
0.044879349
-0.011273434
0.047169397
-0.011681399
0.049552264
-0.012044925
0.052020245
-0.012365206
0.054565382
-0.012643765
0.057179665
-0.01288229
0.059855052
-0.013082175
0.062583481
-0.0132446
0.065356909
-0.013370667
0.068167353
-0.013461444
0.071006938
-0.013517994
0.073867932
-0.013541404
0.076742783
-0.013532807
0.079624158
-0.0134934
0.08250498
-0.013424457
0.085378454
-0.013327331
0.0882381
-0.013203451
0.091077773
-0.013054321
0.093891687
-0.012881502
0.09667443
-0.012686609
0.099420974
-0.012471288
0.10212668
-0.012237204
0.10478731
-0.011986029
0.10739901
-0.01171942
0.10995833
-0.01143901
0.11246217
-0.011146399
0.11490784
-0.010843141
0.11729298
-0.010530743
0.1196156
-0.010210661
0.12187405
-0.0098843096
0.124067
-0.0095530684
0.12619349
-0.0092183106
0.12825287
-0.0088814071
0.13024487
-0.0085438942
0.13216959
-0.0082071766
0.13402778
-0.0078739928
0.13582025
-0.0075443688
0.13755069
-0.007230426
0.13921789
-0.0069109808
0.14084356
-0.0066848079
0.14239038
-0.0062932829
0.14402822
-0.0066534656
-0.005368128
0.052649301
-0.0071563846
0.053489936
-0.0084060599
0.054484102
-0.0094768926
0.055566111
-0.010219791
0.056750781
-0.010918695
0.058052406
-0.011604906
0.059469497
-0.012234165
0.060997187
-0.012801124
0.062631264
-0.013315477
0.064367132
-0.013780794
0.066199271
-0.014197344
0.068121411
-0.014565905
0.070126787
-0.014887666
0.0722083
-0.015163687
0.0743586
-0.015394901
0.076570178
-0.015582244
0.078835439
-0.015726705
0.081146792
-0.015829347
0.083496707
-0.01589132
0.085877784
-0.015913883
0.088282795
-0.015898411
0.090704741
-0.015846403
0.093136882
-0.015759472
0.095572778
-0.015639347
0.098006316
-0.015487858
0.10043173
-0.015306915
0.10284362
-0.015098498
0.10523696
-0.014864632
0.10760713
-0.014607369
0.10994986
-0.014328766
0.11226131
-0.01403087
0.114538
-0.013715696
0.11677682
-0.013385222
0.11897505
-0.013041366
0.1211303
-0.012685993
0.12324055
-0.01232091
0.12530411
-0.011947867
0.12731962
-0.01156858
0.12928606
-0.011184757
0.13120276
-0.010798107
0.13306942
-0.010410549
0.13488608
-0.010023841
0.13665348
-0.0096413879
0.13837239
-0.0092632814
0.14004634
-0.0089043761
0.14167444
-0.0085390793
0.1432767
-0.0082870659
0.14482024
-0.0078368222
0.14645602
-0.008289247
-0.0067791447
0.075222643
-0.0070854109
0.075327647
-0.0085110641
0.075552061
-0.0097013058
0.075852399
-0.01052013
0.076256699
-0.011322995
0.076781813
-0.01213002
0.077430777
-0.012883128
0.07820352
-0.013573868
0.079098353
-0.014210309
0.080112126
-0.014794567
0.081240597
-0.015325815
0.08247847
-0.015803778
0.083819561
-0.016228757
0.085257091
-0.016601217
0.086783883
-0.016921693
0.088392485
-0.017190846
0.09007528
-0.0174095
0.091824589
-0.017578656
0.093632769
-0.0176995
0.095492283
-0.017773397
0.097395766
-0.017801894
0.099336076
-0.017786713
0.10130635
-0.017729741
0.10330001
-0.017633014
0.10531086
-0.017498702
0.10733302
-0.017329076
0.10936102
-0.017126497
0.11138977
-0.016893381
0.11341457
-0.016632178
0.11543115
-0.016345345
0.11743561
-0.016035324
0.11942444
-0.015704526
0.12139452
-0.015355308
0.12334312
-0.014989965
0.12526786
-0.014610726
0.12716669
-0.014219748
0.12903796
-0.013819131
0.1308803
-0.013410927
0.13269273
-0.012997187
0.13447459
-0.012579965
0.13622561
-0.012161565
0.13794588
-0.011744111
0.13963615
-0.011331663
0.14129729
-0.01092442
0.14293271
-0.010539791
0.14454193
-0.010148302
0.14614313
-0.0098882624
0.14770857
-0.0094022705
0.14936788
-0.0099485548
-0.0082696544
0.098026248
-0.0061584538
0.097259015
-0.0077438307
0.096582766
-0.0090250568
0.095998374
-0.009935738
0.095541967
-0.010866588
0.095224779
-0.011812832
0.095052176
-0.012710526
0.095028162
-0.013549854
0.09515227
-0.014334417
0.095421235
-0.015063532
0.095830696
-0.015735277
0.096375246
-0.016348327
0.097048398
-0.01690191
0.097842921
-0.01739574
0.098751132
-0.017829904
0.099765058
-0.018204773
0.10087657
-0.018521007
0.10207747
-0.018779561
0.10335965
-0.018981675
0.1047151
-0.019128853
0.10613605
-0.019222847
0.10761499
-0.019265644
0.10914469
-0.019259442
0.1107183
-0.019206626
0.11232934
-0.019109742
0.11397173
-0.018971466
0.1156398
-0.018794573
0.11732833
-0.018581905
0.11903249
-0.018336345
0.12074793
-0.018060777
0.12247067
-0.017758072
0.1241972
-0.017431054
0.12592438
-0.017082488
0.12764948
-0.016715067
0.12937016
-0.016331401
0.13108443
-0.01593402
0.13279069
-0.015525384
0.13448766
-0.0151079
0.13617445
-0.014683978
0.13785051
-0.014256026
0.1395157
-0.01382675
0.14117023
-0.01339865
0.14281501
-0.012976441
0.14445106
-0.012560466
0.14608178
-0.012170513
0.14770726
-0.011773778
0.14934376
-0.011524764
0.15096919
-0.011027706
0.15269062
-0.01166998
-0.0098814179
0.11919001
-0.0043348428
0.11749744
-0.0060512629
0.11585796
-0.0073855776
0.11435547
-0.0084332513
0.11302622
-0.0095373325
0.1118677
-0.010654317
0.1108854
-0.011728219
0.11008558
-0.012750037
0.10946766
-0.013716501
0.10902705
-0.014622922
0.10875794
-0.015466163
0.10865366
-0.016244047
0.10870662
-0.016954869
0.10890851
-0.017597628
0.1092506
-0.018171996
0.10972396
-0.018678129
0.11031955
-0.019116598
0.11102837
-0.019488383
0.11184154
-0.019794844
0.11275037
-0.020037689
0.11374647
-0.020218945
0.11482175
-0.020340923
0.11596851
-0.020406198
0.11717944
-0.020417561
0.1184477
-0.020377999
0.11976688
-0.020290642
0.12113104
-0.020158741
0.12253475
-0.019985615
0.12397303
-0.019774625
0.12544139
-0.019529135
0.1269358
-0.019252481
0.1284527
-0.01894795
0.12998896
-0.018618753
0.1315419
-0.018268009
0.13310925
-0.017898747
0.13468912
-0.017513897
0.13628005
-0.017116309
0.13788092
-0.016708773
0.13949102
-0.016294075
0.14111
-0.015875008
0.14273794
-0.015454692
0.14437532
-0.015036025
0.14602326
-0.014624381
0.14768309
-0.014220293
0.14935832
-0.013845742
0.15104969
-0.013465154
0.15277165
-0.013246719
0.15450797
-0.012764029
0.15634304
-0.01350505
-0.011665782
0.13689689
-0.0017558987
0.13437896
-0.0035333317
0.13182042
-0.0048270431
0.12946339
-0.0060762229
0.12733508
-0.0074090173
0.12541685
-0.0087360895
0.12371154
-0.010022911
0.12222424
-0.011262735
0.1209534
-0.012445656
0.11989324
-0.013562763
0.11903626
-0.014609184
0.11837411
-0.0155819
0.1178978
-0.01647856
0.1175978
-0.01729763
0.11746425
-0.018038443
0.11748713
-0.018701009
0.11765643
-0.019285895
0.11796222
-0.019794177
0.11839478
-0.020227404
0.11894465
-0.020587561
0.11960272
-0.020877008
0.12036025
-0.021098455
0.12120896
-0.021254914
0.12214106
-0.021349656
0.12314923
-0.021386169
0.1242267
-0.021368111
0.12536722
-0.021299265
0.1265651
-0.021183495
0.12781518
-0.021024702
0.12911283
-0.020826786
0.13045396
-0.02059361
0.13183498
-0.020328971
0.1332528
-0.020036575
0.13470481
-0.019720022
0.13618887
-0.019382799
0.13770325
-0.019028278
0.13924668
-0.01865974
0.14081829
-0.018280385
0.14241763
-0.017893417
0.14404466
-0.017502037
0.14569978
-0.017109811
0.14738381
-0.016720059
0.14909826
-0.016338825
0.15084483
-0.015966871
0.1526273
-0.015628208
0.15444717
-0.015285023
0.15631715
-0.015116697
0.15822703
-0.014673909
0.16023893
-0.015516954
-0.013682782
0.15005286
0.00077958556
0.14676394
-0.00024441154
0.14346664
-0.0015297348
0.14041889
-0.0030284774
0.13762403
-0.0046141603
0.13507581
-0.0061878653
0.13277605
-0.0077231551
0.13072485
-0.0092115327
0.12891976
-0.010640569
0.12735559
-0.011998589
0.12602451
-0.013278099
0.1249171
-0.014474499
0.12402321
-0.015584665
0.12333216
-0.016606583
0.12283298
-0.017539261
0.12251455
-0.018382581
0.12236581
-0.019137149
0.12237583
-0.0198042
0.12253396
-0.02038554
0.12282989
-0.020883487
0.1232537
-0.021300814
0.12379594
-0.021640698
0.12444769
-0.021906666
0.12520058
-0.022102543
0.12604681
-0.022232395
0.12697918
-0.022300483
0.12799111
-0.022311202
0.12907665
-0.02226903
0.13023043
-0.022178485
0.13144772
-0.022044071
0.13272435
-0.021870246
0.13405676
-0.02166138
0.13544192
-0.021421738
0.13687736
-0.021155454
0.13836108
-0.020866526
0.13989163
-0.020558821
0.14146798
-0.020236088
0.14308958
-0.01990199
0.14475634
-0.019560178
0.1464686
-0.0192143
0.14822719
-0.018868399
0.15003337
-0.01852624
0.15188911
-0.018194563
0.15379661
-0.017874368
0.15576002
-0.017591617
0.15778154
-0.017306547
0.15987277
-0.017207922
0.16202792
-0.016829063
0.16429192
-0.017780956
-0.015997373
0.18890994
0.0053816385
-0.19351199
0.18509995
0.0035655789
0.18170796
0.0018622511
0.17856289
0.00011659729
0.17562738
-0.0016786543
0.17287641
-0.0034368957
0.17029176
-0.0051384976
0.16786442
-0.0067841944
0.16559052
-0.0083666692
0.1634679
-0.0098759726
0.16149471
-0.011304906
0.15966883
-0.012648619
0.15798762
-0.013903457
0.15644779
-0.015066755
0.15504542
-0.016136893
0.15377605
-0.017113204
0.15263474
-0.017995838
0.1516162
-0.018785659
0.15071485
-0.019484194
0.14992492
-0.02009356
0.14924052
-0.020616409
0.14865568
-0.021055863
0.14816447
-0.02141546
0.14776102
-0.021699085
0.14743954
-0.021910918
0.14719443
-0.02205537
0.14702025
-0.022137021
0.14691178
-0.022160567
0.14686406
-0.022130761
0.14687235
-0.022052363
0.1469322
-0.021930098
0.14703944
-0.021768615
0.14719016
-0.021572458
0.14738075
-0.021346049
0.1476079
-0.021093671
0.14786855
-0.020819477
0.14815997
-0.020527502
0.14847967
-0.020221696
0.1488255
-0.019906003
0.14919557
-0.019584367
0.14958833
-0.019261162
0.15000255
-0.018940467
0.15043749
-0.018629498
0.15089262
-0.0183295
0.15136858
-0.018067579
0.15186524
-0.017803199
0.1523871
-0.017729789
0.15292984
-0.017371795
0.15351661
-0.018367734
-0.016592044
0.21685879
0.0087799215
-0.22025707
0.21338495
0.007039416
0.21017219
0.0050750127
0.20706693
0.0032218576
0.20402039
0.0013678867
0.20106353
-0.00048003225
0.19821322
-0.0022881952
0.195474
-0.004044966
0.19285174
-0.0057444155
0.19035329
-0.0073775256
0.18798385
-0.0089354657
0.18574682
-0.010411583
0.18364418
-0.01180082
0.18167665
-0.013099218
0.17984367
-0.01430392
0.17814364
-0.015413171
0.176574
-0.016426198
0.17513144
-0.017343098
0.17381201
-0.018164761
0.17261125
-0.018892801
0.17152432
-0.019529478
0.17054608
-0.020077632
0.16967123
-0.020540604
0.16889432
-0.020922174
0.16820988
-0.021226484
0.16761249
-0.021457973
0.16709677
-0.021621305
0.16665751
-0.021721304
0.16628964
-0.021762893
0.16598831
-0.021751033
0.16574889
-0.021690677
0.165567
-0.021586721
0.16543851
-0.021443972
0.16535959
-0.021267123
0.16532665
-0.021060741
0.16533644
-0.020829262
0.16538595
-0.020577015
0.1654725
-0.020308243
0.16559369
-0.020027192
0.16574744
-0.01973812
0.16593201
-0.019445732
0.16614601
-0.019154467
0.16638845
-0.018871935
0.16665884
-0.018599889
0.16695704
-0.018365785
0.16728431
-0.018130466
0.16763989
-0.018085374
0.16803208
-0.017763978
0.16844298
-0.018778636
-0.017067976
0.24376764
0.01150383
-0.24649154
0.24091725
0.0098898059
0.23806408
0.0079281742
0.23521717
0.0060687686
0.23233942
0.0042456356
0.22945166
0.0024077314
0.2265851
0.000578363
0.22375905
-0.0012189101
0.22098941
-0.0029747799
0.21829213
-0.0046802465
0.21568107
-0.0063244019
0.21316722
-0.0078977338
0.2107592
-0.0093927975
0.20846356
-0.01080358
0.20628494
-0.0121253
0.20422622
-0.013354452
0.20228876
-0.014488734
0.20047259
-0.01552693
0.19877663
-0.016468807
0.19719886
-0.017315028
0.19573646
-0.018067074
0.19438597
-0.018727147
0.19314346
-0.019298092
0.1920046
-0.019783308
0.19096478
-0.020186667
0.19001924
-0.020512433
0.18916311
-0.020765181
0.18839153
-0.020949717
0.18769965
-0.021071013
0.18708275
-0.021134132
0.18653624
-0.021144173
0.18605574
-0.021106216
0.18563705
-0.021025283
0.18527623
-0.020906307
0.1849696
-0.02075411
0.18471374
-0.020573401
0.18450552
-0.020368791
0.18434209
-0.020144821
0.18422094
-0.01990604
0.18413985
-0.01965703
0.18409694
-0.019402825
0.18409074
-0.019148264
0.18412007
-0.018901261
0.18418452
-0.018664345
0.18428322
-0.018464483
0.18441889
-0.018266138
0.18458517
-0.01825165
0.18480394
-0.017982749
0.1850114
-0.018986095
-0.017402704
0.2692753
0.013536743
-0.27130822
0.2671073
0.012057808
0.26476558
0.010269892
0.2623264
0.0085079483
0.2597977
0.0067743368
0.25718966
0.0050157744
0.2545284
0.0032396256
0.25183809
0.0014713994
0.24913873
-0.0002754214
0.24645013
-0.0019916444
0.24379157
-0.0036658464
0.2411802
-0.0052863607
0.23863073
-0.006843334
0.23615567
-0.0083285158
0.2337653
-0.0097349308
0.23146779
-0.011056938
0.22926931
-0.01229026
0.22717428
-0.013431893
0.22518548
-0.014480007
0.22330431
-0.015433861
0.22153095
-0.016293715
0.21986453
-0.017060729
0.21830331
-0.017736874
0.21684483
-0.018324827
0.21548605
-0.018827884
0.21422347
-0.019249859
0.21305329
-0.019594995
0.21197145
-0.019867874
0.21097377
-0.020073333
0.21005602
-0.020216382
0.20921398
-0.02030214
0.20844353
-0.020335765
0.20774066
-0.020322408
0.20710152
-0.020267174
0.20652251
-0.020175092
0.20600021
-0.020051106
0.2055315
-0.019900085
0.20511353
-0.019726849
0.20474374
-0.019536244
0.20441988
-0.019333175
0.20414006
-0.019123
0.20390277
-0.018910981
0.20370677
-0.018705262
0.20355177
-0.018509344
0.20343631
-0.018349018
0.20336431
-0.018194143
0.20332462
-0.018211956
0.20335048
-0.018008607
0.20333671
-0.018972328
-0.017574023
0.29298596
0.014867854
-0.29431708
0.29150675
0.013537018
0.2897843
0.011992349
0.2878857
0.010406545
0.28584583
0.0088142073
0.2836755
0.007186103
0.28139313
0.0055220008
0.27902195
0.003842578
0.27658327
0.0021632578
0.27409725
0.00049437344
0.27158409
-0.0011526909
0.26906353
-0.0027657925
0.26655387
-0.004333677
0.26407172
-0.005846362
0.2616318
-0.0072950199
0.2592469
-0.0086720354
0.25692777
-0.0099711267
0.25468322
-0.011187347
0.25252025
-0.012317031
0.25044412
-0.013357731
0.24845855
-0.014308152
0.24656589
-0.015168064
0.24476723
-0.015938209
0.2430626
-0.016620204
0.24145116
-0.017216438
0.23993127
-0.017729973
0.23850071
-0.018164439
0.23715678
-0.018523937
0.23589639
-0.018812944
0.23471622
-0.019036218
0.23361281
-0.019198723
0.23258259
-0.019305547
0.23162203
-0.019361848
0.23072765
-0.019372799
0.22989612
-0.019343555
0.22912424
-0.019279229
0.22840906
-0.019184904
0.22774785
-0.019065641
0.22713817
-0.01892656
0.22657787
-0.018772876
0.22606512
-0.018610253
0.22559853
-0.018444387
0.22517685
-0.01828359
0.22479996
-0.018132453
0.22446603
-0.018015089
0.22417984
-0.017907947
0.22392655
-0.017958667
0.22374777
-0.017829823
0.22350461
-0.018729175
-0.017564857
0.31506946