/*--------------------------------*- C++ -*----------------------------------*\
  =========                 |
  \\      /  F ield         | OpenFOAM: The Open Source CFD Toolbox
   \\    /   O peration     | Website:  https://openfoam.org
    \\  /    A nd           | Version:  6
     \\/     M anipulation  |
\*---------------------------------------------------------------------------*/
FoamFile
{
    version     2.0;
    format      ascii;
    class       volVectorField;
    location    "135";
    object      U_0;
}
// * * * * * * * * * * * * * * * * * * * * * * * * * * * * * * * * * * * * * //

dimensions      [0 1 -1 0 0 0 0];

internalField   nonuniform List<vector> 
9200
(
(0.0010393936 0.0014199571 -5.9202209e-20)
(0.013676273 -0.002058476 4.604286e-20)
(0.038313614 -0.0058667596 -3.8501996e-20)
(0.072275193 -0.00976378 -6.025814e-20)
(0.11376586 -0.013490389 1.8827105e-20)
(0.16158241 -0.016606105 3.2744107e-20)
(0.21467345 -0.018817819 -1.2268107e-20)
(0.27206852 -0.019974512 9.2689384e-21)
(0.33285915 -0.020011933 1.6803532e-20)
(0.3961669 -0.018929852 1.4848179e-21)
(0.46111947 -0.016780709 -2.1456504e-20)
(0.52684125 -0.013658722 2.0670172e-20)
(0.59245549 -0.0096890914 -4.0422455e-20)
(0.6570965 -0.0050169795 -2.1134091e-20)
(0.71993023 0.00020424009 5.9047026e-21)
(0.78018078 0.0058226458 -2.513193e-20)
(0.83717654 0.011711225 2.5217401e-20)
(0.89047479 0.017916774 2.2243573e-20)
(0.93967675 0.024571512 -2.9922448e-22)
(0.98205785 0.028291331 -1.6690954e-21)
(0.005252261 -0.0013463165 -1.7059458e-20)
(0.026962807 -0.0089891809 3.9747975e-20)
(0.061670731 -0.014810015 2.3576452e-20)
(0.10629588 -0.01917261 -1.1569828e-19)
(0.15873707 -0.022214422 -1.2727176e-20)
(0.2175354 -0.023721193 7.3297515e-20)
(0.28137534 -0.023595683 -3.547663e-20)
(0.3490089 -0.02186963 -8.3906106e-21)
(0.4192426 -0.018646267 3.4287778e-20)
(0.49091333 -0.014081665 -4.3259901e-20)
(0.56287667 -0.0083768598 -3.0338736e-20)
(0.63401323 -0.0017675956 7.19221e-20)
(0.70324842 0.0054872924 3.8294397e-20)
(0.76958122 0.013117419 -6.7977259e-20)
(0.83211806 0.020850745 1.4623866e-20)
(0.89010609 0.028418232 -3.6733833e-20)
(0.94297491 0.035568053 -1.3777321e-20)
(0.99043799 0.042139106 7.0975797e-20)
(1.0323616 0.047713363 2.9642602e-20)
(1.0669402 0.049137596 -8.347899e-20)
(0.010858547 -0.0040424752 3.6773664e-20)
(0.043953836 -0.015431268 2.5047488e-21)
(0.090516241 -0.022552579 2.2341861e-20)
(0.14711264 -0.026497744 9.8117379e-22)
(0.21134428 -0.027886762 -4.0774216e-20)
(0.28146992 -0.026795652 1.8576501e-20)
(0.35587318 -0.023383333 1.3420391e-20)
(0.43299338 -0.017922208 -5.0328037e-20)
(0.51132858 -0.01073639 5.7262267e-20)
(0.5894304 -0.0021846927 1.4256824e-20)
(0.66591383 0.0073470119 -5.4301202e-20)
(0.73948537 0.017459277 -1.823761e-20)
(0.80898124 0.027755471 9.0591333e-21)
(0.87340806 0.03785806 2.3445007e-20)
(0.93197911 0.047422697 -1.1362667e-20)
(0.98413915 0.056147478 2.7878064e-20)
(1.0295794 0.063787518 -2.0188463e-20)
(1.0682697 0.070202567 -7.012455e-20)
(1.1003371 0.075117379 -2.3796648e-20)
(1.1249159 0.076639083 4.8660283e-20)
(0.017957382 -0.0064222348 2.4508143e-20)
(0.064777549 -0.020695016 5.103951e-20)
(0.1248533 -0.028061169 1.9881802e-20)
(0.19447118 -0.030464469 1.2990149e-20)
(0.27095138 -0.029095313 1.727579e-20)
(0.35225141 -0.024389508 -4.7720451e-20)
(0.43643455 -0.016826556 -2.564702e-20)
(0.52162376 -0.0069773078 0)
(0.6060331 0.0045663352 1.3920796e-20)
(0.68799162 0.017210966 -5.8524582e-21)
(0.76598005 0.030373073 -9.7935817e-20)
(0.83867957 0.043498685 -1.5774913e-20)
(0.90502049 0.056085554 6.5103951e-20)
(0.96422097 0.067702939 4.8433907e-22)
(1.0158087 0.07800637 -1.5725755e-21)
(1.0596206 0.086745286 2.1957766e-20)
(1.0957822 0.093770551 -5.2648071e-21)
(1.1246846 0.099063481 -6.1030499e-20)
(1.1468691 0.10259505 -4.5851869e-20)
(1.1622998 0.10341166 6.9521207e-20)
(0.02657964 -0.0082057664 -3.9194336e-21)
(0.089344717 -0.024033732 -5.1256542e-21)
(0.16430877 -0.030265311 5.6599699e-20)
(0.247583 -0.029810409 1.8539415e-20)
(0.33624399 -0.024513468 -3.1955243e-20)
(0.42795421 -0.015240342 1.2163906e-20)
(0.52047611 -0.0028518845 2.640304e-21)
(0.61166756 0.011736529 3.3609443e-20)
(0.69955151 0.02763952 5.6599981e-21)
(0.78237309 0.044028076 -1.3204905e-20)
(0.85865899 0.060146941 6.015474e-20)
(0.92727416 0.075339577 -5.8009881e-20)
(0.98746183 0.089071836 -1.3216756e-19)
(1.0388581 0.10094785 -5.5773671e-21)
(1.0814774 0.11071575 8.3151777e-20)
(1.1156702 0.11826254 0)
(1.1420592 0.12360414 1.0119066e-20)
(1.161471 0.1268887 -1.5459961e-20)
(1.1748218 0.12829668 -8.5995717e-21)
(1.1826709 0.12744697 2.0992452e-20)
(0.036667186 -0.0090896583 -5.4309171e-21)
(0.11731595 -0.024685574 4.3578955e-21)
(0.20812014 -0.028140474 -8.763026e-21)
(0.30515909 -0.023415297 2.8472535e-20)
(0.40533807 -0.013075964 -2.9392836e-20)
(0.50607473 0.0015222173 -1.6927131e-20)
(0.60490867 0.019094714 3.7364418e-20)
(0.69955379 0.038364789 4.7595557e-21)
(0.78800845 0.058167121 -2.4436351e-20)
(0.86863881 0.0774824 6.9868197e-20)
(0.94024461 0.095457933 5.2386001e-22)
(1.0021005 0.11143073 -8.0445225e-20)
(1.0539617 0.12494192 0)
(1.096032 0.13573635 3.9542605e-20)
(1.1288966 0.14374711 5.5236732e-21)
(1.153432 0.14906743 -7.7567293e-20)
(1.170703 0.15191746 -1.9587144e-20)
(1.181866 0.15262184 -1.2467774e-20)
(1.1880626 0.15152406 -1.4709561e-20)
(1.1901492 0.14858279 4.0420971e-20)
(0.048059204 -0.0087674765 -1.7278019e-20)
(0.1480841 -0.021932181 -2.2198798e-21)
(0.25514236 -0.020798076 3.0380628e-20)
(0.36546616 -0.010413056 3.7484456e-20)
(0.47590715 0.0059013162 -1.9944839e-20)
(0.58374615 0.026269024 -6.9163494e-20)
(0.68644581 0.048976905 -2.7996038e-20)
(0.78176635 0.072417443 7.8929836e-20)
(0.86790653 0.095212064 8.5779479e-21)
(0.94359386 0.1162491 -2.4873673e-20)
(1.0081306 0.13469764 1.3642274e-20)
(1.0613917 0.15001477 -4.3195215e-21)
(1.1037738 0.16193564 0)
(1.1361018 0.17044316 2.7203768e-20)
(1.1595087 0.17572179 -7.9323258e-20)
(1.1753059 0.17810222 -3.1475865e-20)
(1.1848605 0.17800649 8.1055446e-20)
(1.1894954 0.17590766 -4.2970503e-21)
(1.190406 0.17225366 3.5561392e-21)
(1.1885109 0.16719093 2.711189e-20)
(0.060485645 -0.0069574199 -3.2414724e-20)
(0.18077886 -0.015170519 -8.1624693e-20)
(0.30389115 -0.0075836857 2.5797265e-21)
(0.4264281 0.0097032036 7.0162195e-20)
(0.54535464 0.032631411 6.2424743e-20)
(0.65798467 0.0588199 -7.1574915e-20)
(0.7619129 0.086176343 -2.8268303e-22)
(0.85518726 0.11285209 8.5523311e-20)
(0.93645797 0.13737807 4.8828484e-20)
(1.005046 0.15869328 -5.4218936e-20)
(1.0609401 0.17613507 -9.2335103e-20)
(1.1047286 0.18941282 -3.1590135e-21)
(1.1374801 0.19855854 4.2128282e-20)
(1.1605913 0.20385749 -6.6056966e-21)
(1.1756284 0.20576894 -1.2868911e-20)
(1.1841811 0.20484777 1.9690988e-20)
(1.187746 0.2016774 4.388106e-20)
(1.1876484 0.19682417 -4.385986e-20)
(1.1849982 0.19077701 -1.0232309e-19)
(1.1806277 0.18377186 2.4567179e-20)
(0.073537665 -0.0034330058 -3.4979919e-20)
(0.21422814 -0.0039890945 -1.7388671e-19)
(0.3525186 0.011839324 8.2103726e-20)
(0.48563069 0.037018319 9.2768043e-20)
(0.61085709 0.06683556 5.7970898e-20)
(0.72577103 0.09848119 8.6107727e-21)
(0.82835212 0.12959694 -1.0624085e-19)
(0.91719428 0.1582426 0)
(0.99163182 0.18302795 -6.874926e-20)
(1.0517564 0.20311174 -1.5202573e-20)
(1.0983426 0.21814811 5.470397e-20)
(1.1327048 0.22821016 1.0973488e-20)
(1.1565148 0.23369175 -4.5614279e-20)
(1.1716104 0.23519844 -4.9081811e-20)
(1.1798238 0.23344216 2.4287922e-20)
(1.1828482 0.22915189 4.482334e-20)
(1.1821519 0.22300838 -5.5600958e-20)
(1.1789389 0.21560662 -1.0751226e-19)
(1.1741495 0.20742054 -3.1513601e-21)
(1.1684593 0.19871701 2.7046661e-20)
(0.086650944 0.0019613852 -3.5449532e-21)
(0.24696156 0.011816652 8.7913638e-20)
(0.39884955 0.037492385 -1.6479091e-20)
(0.54040748 0.071218517 -8.4309734e-20)
(0.6695024 0.10778911 4.5164673e-20)
(0.78422331 0.14411561 4.9175709e-20)
(0.88319345 0.17775682 5.5357229e-21)
(0.96578289 0.20688495 -9.9503281e-20)
(1.0321805 0.23038794 -2.5048996e-21)
(1.0833369 0.24781529 5.0504e-20)
(1.120811 0.25926259 5.9855311e-21)
(1.1465596 0.2652356 -1.9717386e-20)
(1.1627143 0.26650455 -7.57053e-20)
(1.1713798 0.26396527 -6.2554445e-21)
(1.1744794 0.25852318 4.3533733e-20)
(1.1736578 0.25100964 3.7022333e-20)
(1.1702411 0.24213258 1.9793589e-20)
(1.1652429 0.23245728 -5.2995408e-20)
(1.1594039 0.22240261 1.2957468e-20)
(1.1532276 0.21223635 8.2659822e-20)
(-0.0012932712 0.0014346703 -1.1234511e-21)
(-0.0047459949 0.003187437 2.0647081e-21)
(-0.010771434 0.0041359313 8.7950786e-22)
(-0.017754406 0.004539564 -2.4410863e-21)
(-0.024740477 0.0045654427 -1.4115098e-21)
(-0.031299787 0.0043260608 1.5460384e-21)
(-0.037161548 0.0039035553 -6.8701576e-21)
(-0.04214768 0.0033577327 -5.9573836e-21)
(-0.046158021 0.0027313854 1.1172128e-20)
(-0.049146431 0.0020548274 -9.7428649e-21)
(-0.051100881 0.0013492893 -1.9833324e-22)
(-0.052030645 0.00062940248 3.6673908e-21)
(-0.051957902 -9.4917756e-05 -6.3296335e-22)
(-0.050911997 -0.00081696802 2.281905e-20)
(-0.048925832 -0.0015318923 3.0401249e-22)
(-0.046035321 -0.002235232 -4.0883456e-20)
(-0.04228169 -0.0029223372 7.5386791e-21)
(-0.037703234 -0.0035911194 2.3864469e-20)
(-0.032308369 -0.0042400799 -4.3853057e-20)
(-0.026156507 -0.0048212189 -2.7739648e-20)
(-0.0016522118 0.0041808969 -5.3716505e-21)
(-0.0053975183 0.0092682017 1.0865492e-20)
(-0.011218582 0.012007521 -1.0191622e-20)
(-0.017658135 0.013153844 3.9230365e-21)
(-0.023856573 0.013195487 4.8122127e-21)
(-0.029433481 0.012462786 7.1325052e-22)
(-0.034152497 0.01119706 -2.2509746e-20)
(-0.037860557 0.0095739246 -2.0370459e-21)
(-0.040474468 0.0077189944 2.0163767e-20)
(-0.041959069 0.0057212154 -5.0474183e-21)
(-0.042309063 0.0036428258 -2.1762851e-20)
(-0.041537402 0.0015266489 4.8973771e-21)
(-0.039667716 -0.00059839586 2.2635697e-20)
(-0.036729009 -0.0027128795 1.0308526e-20)
(-0.03275187 -0.0048028374 2.185459e-20)
(-0.027768901 -0.0068556883 -1.9771004e-20)
(-0.021824403 -0.008858433 -2.167325e-20)
(-0.014965739 -0.010804474 2.1184948e-20)
(-0.0071283287 -0.012679287 2.6810767e-20)
(0.0018751649 -0.014317546 1.5854988e-20)
(-0.0023034448 0.0065602793 -4.3569089e-21)
(-0.0065392649 0.014480291 -5.6387743e-21)
(-0.0118922 0.018710659 3.0723597e-22)
(-0.017211189 0.020428298 1.095972e-21)
(-0.021819245 0.02040043 6.6919079e-21)
(-0.025431145 0.019151752 1.0665275e-20)
(-0.027877323 0.017066348 -3.7228028e-21)
(-0.029053334 0.014423812 -1.8896366e-20)
(-0.02890906 0.011424347 6.5413885e-21)
(-0.027431016 0.0082098628 1.2862712e-20)
(-0.024627607 0.0048796942 5.8341638e-21)
(-0.020519911 0.0015021147 1.8159308e-20)
(-0.015135681 -0.0018770316 1.7296125e-21)
(-0.0085049679 -0.005227463 -3.386494e-20)
(-0.00065631688 -0.0085278751 1.2020482e-21)
(0.0083817579 -0.011759427 -2.2139469e-20)
(0.018557793 -0.01490447 -2.446666e-20)
(0.029803313 -0.017954185 4.582038e-20)
(0.042306326 -0.020855611 2.5349742e-20)
(0.056740198 -0.023248321 1.2242503e-22)
(-0.0031290472 0.0083690266 -5.2833596e-21)
(-0.0078964426 0.018336627 -8.4816671e-21)
(-0.012439044 0.023587946 4.3593399e-21)
(-0.016026594 0.025609794 4.1463875e-21)
(-0.018235069 0.025382863 2.0105889e-21)
(-0.018912665 0.023589411 7.3210699e-21)
(-0.017984683 0.020730325 9.312569e-21)
(-0.015416609 0.017170386 -1.3511468e-21)
(-0.01120686 0.013171274 -1.148206e-20)
(-0.005374941 0.0089188396 -2.9072185e-20)
(0.0020485299 0.0045432898 6.1899765e-23)
(0.011027074 0.00013410486 4.0698267e-20)
(0.02152296 -0.0042492191 -1.8383362e-20)
(0.033498777 -0.0085679185 -1.2296231e-20)
(0.046921654 -0.012795949 5.534758e-22)
(0.061761476 -0.016912331 3.2303053e-20)
(0.077954658 -0.020902223 -1.4829772e-20)
(0.095394197 -0.024764011 -5.3339871e-20)
(0.1144007 -0.028380439 4.5765603e-20)
(0.13634799 -0.0310739 3.301361e-20)
(-0.0039704321 0.0094657918 -6.8788622e-22)
(-0.0090917005 0.020487909 -1.2534848e-20)
(-0.01236451 0.026159223 -3.414488e-20)
(-0.013552554 0.028143468 -5.7242296e-21)
(-0.012533206 0.027555111 -3.6223007e-21)
(-0.0093166201 0.025188129 6.3051627e-21)
(-0.0039454472 0.021627428 -4.6462355e-21)
(0.0035264424 0.01729892 -8.8070991e-21)
(0.013037276 0.012508651 2.189991e-20)
(0.024521862 0.0074742749 5.0567444e-21)
(0.037916348 0.0023486656 -2.5290571e-20)
(0.053158471 -0.0027630971 1.1078381e-20)
(0.070188134 -0.0077912662 0)
(0.088948116 -0.012691777 1.2089705e-20)
(0.10938727 -0.01743748 -9.7017251e-21)
(0.13145956 -0.022010549 -1.4337295e-20)
(0.15507657 -0.026409395 -1.57386e-21)
(0.18007047 -0.030660272 -2.2182029e-21)
(0.20685668 -0.034577494 4.6147564e-20)
(0.2376673 -0.037020933 -1.047033e-20)
(-0.0046451208 0.009780918 -7.535724e-21)
(-0.0096772849 0.020747984 2.4516622e-20)
(-0.011064389 0.026161092 -1.0499451e-20)
(-0.0090967834 0.027724543 -2.7469527e-20)
(-0.0039795842 0.026601757 -2.7548382e-20)
(0.004096436 0.023648421 -1.49217e-20)
(0.014954547 0.01949641 -6.9059792e-22)
(0.028436807 0.014604591 5.5500185e-21)
(0.044403921 0.0093032575 1.9616035e-20)
(0.062731501 0.0038281469 7.35315e-21)
(0.083305579 -0.001655108 -7.1862813e-21)
(0.10602053 -0.0070326802 -2.0102341e-21)
(0.13077544 -0.012229632 -3.8192082e-20)
(0.15747165 -0.017200384 -1.2693771e-20)
(0.18601458 -0.021920468 1.8750829e-20)
(0.21631475 -0.026380557 -2.1021919e-20)
(0.24823562 -0.030603174 -8.9731575e-21)
(0.2815225 -0.034671676 3.0440761e-20)
(0.31661131 -0.038366012 5.0472593e-20)
(0.35665492 -0.039965414 3.3560087e-21)
(-0.0049617881 0.0093140444 1.678342e-20)
(-0.0091662846 0.019097786 1.4468041e-20)
(-0.0078593265 0.023563439 5.1145902e-20)
(-0.0018584058 0.024328988 2.3388182e-20)
(0.0082959892 0.022523781 1.825193e-22)
(0.022222374 0.019014321 -3.9388776e-20)
(0.039598078 0.014440802 -2.4314065e-20)
(0.060148775 0.0092661466 1.0465895e-20)
(0.083640253 0.0038229303 1.4401702e-20)
(0.10986813 -0.0016516873 -1.3113802e-20)
(0.13864739 -0.0069914928 -4.4039098e-20)
(0.16980382 -0.01208343 2.9618764e-20)
(0.20316655 -0.016854845 2.0020715e-20)
(0.23856237 -0.021264789 -2.7551411e-20)
(0.27581564 -0.025297309 1.1650256e-20)
(0.3147519 -0.02895819 2.419785e-20)
(0.3551497 -0.032304194 8.0724865e-21)
(0.39663858 -0.035507943 -1.176436e-20)
(0.43958218 -0.038394042 -1.4190404e-20)
(0.48799074 -0.038635936 5.8729405e-21)
(-0.0047307879 0.0081237043 1.1093928e-20)
(-0.0070585844 0.015671213 -2.3352924e-20)
(-0.0020292613 0.018562048 8.6201019e-21)
(0.0090327635 0.018216197 3.3588237e-20)
(0.025256788 0.015651063 5.212475e-20)
(0.046066988 0.011695445 2.0276667e-20)
(0.070985435 0.0069607144 -5.8639875e-21)
(0.099603159 0.0018826263 -1.2286368e-20)
(0.13157049 -0.0032276158 -6.2058057e-21)
(0.16657758 -0.0081501725 3.4241106e-20)
(0.20433654 -0.012733937 -4.5104969e-21)
(0.24456756 -0.016879909 -1.6643451e-20)
(0.28698785 -0.020529518 -1.9693727e-20)
(0.33130359 -0.023657357 -4.7444162e-20)
(0.37720865 -0.026266594 2.3238912e-20)
(0.42439223 -0.028389042 -1.4096121e-20)
(0.47250472 -0.030128924 2.5993679e-20)
(0.52104161 -0.031784619 2.1041042e-20)
(0.57021979 -0.033352241 -8.5571077e-20)
(0.6247154 -0.032060543 -1.0803176e-22)
(-0.0037710502 0.0063146529 2.1925203e-20)
(-0.0028657041 0.010735086 -2.6165738e-20)
(0.0071422979 0.011564085 -4.5013623e-20)
(0.024450614 0.0099248798 -2.7253986e-20)
(0.04787147 0.0066521254 -2.0440018e-21)
(0.076629606 0.0024903567 1.3050175e-20)
(0.11007796 -0.0020157422 -2.8337783e-21)
(0.14765365 -0.0064883427 1.8118662e-20)
(0.18886294 -0.010664038 8.8686156e-21)
(0.23325435 -0.014363055 -1.1380254e-20)
(0.28039434 -0.017469686 8.8780039e-21)
(0.32984934 -0.019917649 -2.3903455e-20)
(0.38117258 -0.021679651 8.0505655e-21)
(0.43389509 -0.022760941 1.6756541e-20)
(0.48752406 -0.023195485 -2.6395374e-21)
(0.5415523 -0.023048196 1.6619104e-21)
(0.59544101 -0.022470874 -3.1956723e-22)
(0.64852375 -0.02187166 1.9590615e-20)
(0.70082863 -0.021446748 4.043437e-21)
(0.75745799 -0.018500909 -5.7354915e-22)
(-0.0019109933 0.0040273425 2.3692284e-20)
(0.0038695547 0.004676461 5.7160392e-20)
(0.020315616 0.0031878422 -4.924457e-20)
(0.045178835 0.00029423213 -9.9454845e-21)
(0.076965999 -0.0034244254 2.0256476e-20)
(0.11469742 -0.0073539445 2.143386e-21)
(0.15754041 -0.011055404 -2.9815358e-20)
(0.20475031 -0.014244678 6.9848474e-21)
(0.25565194 -0.016738561 7.1098511e-21)
(0.30960764 -0.018427686 -2.6254274e-20)
(0.36598987 -0.019260926 1.292746e-21)
(0.42416345 -0.019232798 -3.7174412e-20)
(0.48347535 -0.018373241 -3.6341326e-20)
(0.54325043 -0.016739426 6.5684084e-20)
(0.60279332 -0.014408569 5.5628042e-21)
(0.66139441 -0.011477289 -1.518898e-20)
(0.71831372 -0.0081035653 1.9364151e-20)
(0.77270514 -0.0045945205 -9.1889034e-22)
(0.82409466 -0.00096984451 2.0364672e-20)
(0.87622606 0.0043261216 -1.9554456e-20)
(-0.018835802 -0.0050998166 5.835301e-20)
(-0.010223843 -0.0056350521 1.5783913e-20)
(-0.00022015486 -0.0060690168 -3.5140141e-20)
(0.010824522 -0.0063342565 1.6790547e-20)
(0.022644046 -0.0065122033 0)
(0.035179777 -0.0066302555 0)
(0.048371897 -0.0066911477 -2.2975387e-20)
(0.062140686 -0.0067027226 -1.6503187e-20)
(0.076415734 -0.0066743652 1.9123003e-20)
(0.091137535 -0.0066128644 1.8174423e-20)
(0.10625112 -0.006523412 1.0524412e-21)
(0.12170467 -0.0064105715 -1.0317849e-20)
(0.13744991 -0.0062783017 8.3271025e-21)
(0.1534416 -0.0061299498 1.8234111e-20)
(0.169637 -0.0059683792 -5.2275866e-21)
(0.18599545 -0.0057960754 -1.017516e-20)
(0.2024782 -0.0056152094 -4.3196833e-21)
(0.21904823 -0.0054276905 -4.425815e-21)
(0.23567012 -0.0052352108 7.3667982e-22)
(0.25230999 -0.0050392806 1.2286406e-21)
(0.26893552 -0.004841255 2.5667376e-21)
(0.28551592 -0.004642354 6.6541519e-21)
(0.30202202 -0.0044436766 2.4889962e-22)
(0.31842627 -0.0042462125 -3.451598e-21)
(0.33470285 -0.0040508493 1.5558073e-22)
(0.35082768 -0.0038583786 -5.7712274e-22)
(0.36677852 -0.0036695005 1.2434951e-21)
(0.38253498 -0.0034848274 1.0522729e-21)
(0.39807853 -0.0033048878 -1.2989192e-21)
(0.41339257 -0.0031301301 -1.2218175e-22)
(0.42846239 -0.0029609262 3.5678412e-23)
(0.44327513 -0.0027975763 -3.5190704e-22)
(0.45781982 -0.0026403136 -4.0573268e-22)
(0.47208729 -0.0024893095 5.5466679e-23)
(0.48607015 -0.0023446796 -1.3811091e-22)
(0.49976272 -0.0022064895 -2.234616e-22)
(0.51316102 -0.0020747616 2.5576331e-22)
(0.52626272 -0.0019494819 2.9508082e-22)
(0.53906707 -0.001830609 -8.3139499e-24)
(0.55157521 -0.0017180779 -1.5528223e-22)
(0.56378915 -0.0016118281 3.0405261e-23)
(0.57571554 -0.0015117595 -4.0156646e-23)
(0.58735461 -0.0014179438 9.2292453e-23)
(0.59873548 -0.0013300447 2.1956037e-23)
(0.60981245 -0.0012493482 -1.1419678e-22)
(0.62077809 -0.0011726408 -6.781606e-24)
(0.63115367 -0.0011121676 -6.122117e-26)
(0.64245324 -0.0010349365 -3.5946363e-24)
(0.65053729 -0.0010519155 2.9444359e-23)
(0.66714095 -0.00087681842 3.6080982e-22)
(0.010446937 -0.015017957 -1.2747057e-20)
(0.018180969 -0.016641395 -6.3303351e-20)
(0.027780726 -0.017915832 -3.0542498e-20)
(0.038386923 -0.01867252 3.8476705e-20)
(0.049623059 -0.019184066 1.4662884e-20)
(0.061509021 -0.019529938 -1.8205312e-20)
(0.074015563 -0.019710397 4.6723432e-21)
(0.087065792 -0.01974705 2.5447683e-20)
(0.10059667 -0.019667863 9.1946312e-23)
(0.11455799 -0.019492306 -7.6593085e-21)
(0.12890163 -0.019234988 -1.3021218e-20)
(0.14358098 -0.018908962 -8.5247646e-21)
(0.15855216 -0.018525644 1.7772722e-20)
(0.17377365 -0.018094692 8.9299067e-21)
(0.18920572 -0.017624391 -1.652273e-20)
(0.20481016 -0.017121963 -6.0391981e-21)
(0.22055026 -0.016593748 3.2145554e-21)
(0.23639063 -0.016045342 8.3717916e-21)
(0.25229723 -0.015481723 6.9834311e-21)
(0.26823729 -0.014907353 -6.9730024e-21)
(0.28417942 -0.014326246 -3.1687628e-21)
(0.30009357 -0.013742029 1.3606928e-21)
(0.31595118 -0.013157976 3.8698963e-22)
(0.33172518 -0.012577043 1.211479e-21)
(0.34739013 -0.012001886 1.8372776e-22)
(0.36292224 -0.011434879 -3.2666902e-22)
(0.37829945 -0.010878125 -7.2442149e-22)
(0.39350149 -0.010333469 9.7172595e-22)
(0.40850987 -0.0098025052 8.2494927e-22)
(0.42330796 -0.009286589 -1.5159679e-22)
(0.43788095 -0.0087868497 5.5317489e-22)
(0.45221583 -0.0083042022 -2.3883036e-22)
(0.46630143 -0.0078393615 -3.7081065e-22)
(0.48012832 -0.0073928584 -6.1013229e-22)
(0.4936888 -0.0069650564 4.4178324e-22)
(0.50697686 -0.0065561699 -1.5608112e-23)
(0.51998812 -0.0061662844 1.6138638e-22)
(0.53271988 -0.0057953757 -4.4196634e-22)
(0.54517091 -0.0054433379 3.7219679e-22)
(0.55734193 -0.0051099936 6.7205131e-23)
(0.56923447 -0.0047951792 -1.0285883e-22)
(0.58085467 -0.0044986119 1.7635977e-22)
(0.59220231 -0.0042205229 2.3374923e-22)
(0.60330579 -0.0039599221 1.6958129e-22)
(0.61411958 -0.0037206635 1.6806934e-22)
(0.62483336 -0.0034931793 -2.6173285e-23)
(0.63497481 -0.0033139642 8.4436076e-23)
(0.64603501 -0.0030848182 7.6685384e-23)
(0.65393953 -0.0031356732 -1.9522752e-22)
(0.67022413 -0.002616204 -3.7958929e-23)
(0.067616569 -0.02402974 9.4529966e-21)
(0.073591762 -0.026749698 3.2951908e-21)
(0.08226785 -0.028806273 -1.2162512e-20)
(0.091950444 -0.029969256 -1.2258571e-21)
(0.10198614 -0.03076866 1.4970909e-20)
(0.11254959 -0.031331731 -1.4887405e-20)
(0.12367957 -0.031636953 -2.9842907e-20)
(0.13530081 -0.031713928 1.4493867e-20)
(0.14736136 -0.031608598 1.8182397e-20)
(0.15982827 -0.031351055 -1.1598797e-20)
(0.17266591 -0.030962856 1.0190776e-21)
(0.18583664 -0.030463825 8.6861067e-21)
(0.19930421 -0.029871658 -1.5253957e-20)
(0.21303352 -0.029201379 2.9098107e-21)
(0.22699001 -0.028465933 7.5196842e-21)
(0.24113965 -0.02767671 3.1424639e-23)
(0.2554491 -0.026843796 2.6545507e-22)
(0.26988576 -0.025976167 -7.4153792e-21)
(0.28441782 -0.025081868 3.8620296e-21)
(0.29901435 -0.024168157 8.4752778e-21)
(0.31364541 -0.023241606 -3.835351e-21)
(0.32828216 -0.022308183 -2.2131098e-21)
(0.34289699 -0.021373303 1.012423e-21)
(0.35746358 -0.020441874 -1.7156581e-21)
(0.37195706 -0.019518323 1.3532791e-21)
(0.38635402 -0.018606622 7.1849054e-22)
(0.40063268 -0.017710299 1.527154e-21)
(0.41477287 -0.016832461 -1.9530039e-21)
(0.42875611 -0.015975803 2.2239923e-21)
(0.44256564 -0.015142629 5.5198374e-22)
(0.45618642 -0.014334868 4.0348296e-22)
(0.46960514 -0.013554096 3.2137303e-22)
(0.48281017 -0.012801556 8.7356437e-22)
(0.49579158 -0.012078188 -1.3713669e-21)
(0.50854109 -0.011384655 3.7082529e-22)
(0.52105205 -0.01072137 1.0959266e-22)
(0.53331935 -0.010088535 -4.5235864e-23)
(0.54533952 -0.0094861655 8.6662799e-23)
(0.55711052 -0.0089141441 -3.7207735e-22)
(0.56863222 -0.0083722317 1.8310802e-22)
(0.57990527 -0.0078602113 -3.5004481e-23)
(0.59093486 -0.0073776663 3.9063349e-22)
(0.60171996 -0.0069250296 -1.8575244e-22)
(0.61228759 -0.0065007126 4.7379748e-23)
(0.62259253 -0.0061111177 4.3715858e-23)
(0.63281907 -0.0057405376 -7.3801336e-23)
(0.64250704 -0.0054489883 -1.2135354e-22)
(0.65310352 -0.0050754083 3.8945169e-22)
(0.66065966 -0.0051597668 1.7321243e-22)
(0.67632585 -0.0043132713 -8.3109032e-22)
(0.15021822 -0.031461285 1.5010634e-21)
(0.15355005 -0.03525832 -1.1566741e-20)
(0.16061965 -0.038011916 6.6442512e-21)
(0.16880962 -0.039480155 -1.3324969e-20)
(0.17698627 -0.040521803 -1.9758664e-21)
(0.18552782 -0.041303452 9.1601687e-21)
(0.19458892 -0.041758464 -9.7665243e-21)
(0.20409202 -0.041914991 1.5662176e-21)
(0.2139932 -0.041834664 1.2904065e-20)
(0.22428194 -0.041555719 3.4033373e-21)
(0.23493896 -0.041103478 -6.2098304e-21)
(0.24593714 -0.04050193 -2.8639442e-21)
(0.25724905 -0.039773276 -5.840933e-21)
(0.26884715 -0.038936629 -6.4555334e-21)
(0.28070287 -0.038008594 3.2356232e-21)
(0.29278692 -0.037003966 8.4604653e-22)
(0.30506972 -0.035936034 1.3680642e-21)
(0.3175217 -0.034816776 -3.3851343e-21)
(0.33011345 -0.033657049 -4.2431537e-21)
(0.34281595 -0.032466742 2.3618004e-21)
(0.35560079 -0.031254892 3.2253933e-21)
(0.3684403 -0.030029761 -1.5638251e-21)
(0.38130777 -0.0287989 1.5868543e-21)
(0.39417759 -0.027569187 -3.9133161e-22)
(0.40702533 -0.026346858 -3.9201151e-21)
(0.41982789 -0.025137531 -3.0335006e-21)
(0.43256361 -0.023946223 -1.9035387e-22)
(0.4452123 -0.02277737 4.2853282e-22)
(0.45775531 -0.021634842 -2.2108148e-21)
(0.47017559 -0.020521965 -8.5526352e-22)
(0.48245766 -0.019441548 2.2839371e-22)
(0.49458766 -0.018395906 -1.2502086e-21)
(0.50655334 -0.017386895 6.1859535e-24)
(0.51834401 -0.016415946 -4.2439796e-22)
(0.52995054 -0.015484102 -4.7200707e-22)
(0.54136535 -0.014592061 -5.2033269e-22)
(0.55258236 -0.01374022 -8.4191709e-22)
(0.56359702 -0.012928721 -5.4455535e-23)
(0.57440619 -0.012157512 -3.9172853e-24)
(0.58500856 -0.011426373 -5.2017793e-22)
(0.59540359 -0.01073511 -9.1556229e-23)
(0.60559519 -0.010083248 -3.3282547e-22)
(0.61558125 -0.0094714855 -4.38344e-22)
(0.62538685 -0.0088977241 3.7909432e-22)
(0.63496734 -0.008370868 1.484867e-23)
(0.64449929 -0.0078694433 1.8285e-22)
(0.65354007 -0.0074757288 -1.3303624e-22)
(0.66347356 -0.0069697963 -2.678042e-22)
(0.67053175 -0.0070868583 -4.4191229e-23)
(0.68531101 -0.0059414083 4.627205e-22)
(0.25468972 -0.036553883 -2.0900668e-20)
(0.25447449 -0.04139471 4.7586624e-20)
(0.25907788 -0.044746939 1.034823e-20)
(0.26508898 -0.046443394 -1.5765581e-20)
(0.2707145 -0.047715734 -2.0228839e-21)
(0.27652545 -0.048749262 2.623213e-21)
(0.28284135 -0.049415271 -1.660913e-21)
(0.28958314 -0.049729717 -4.6862312e-21)
(0.29670321 -0.049763111 -4.0159974e-21)
(0.30421254 -0.049558795 -1.2207894e-20)
(0.31210971 -0.04914349 1.7898253e-20)
(0.32037739 -0.048542663 6.5222167e-21)
(0.32899553 -0.047780884 -1.6780909e-20)
(0.33794311 -0.046879995 1.0317661e-20)
(0.34719675 -0.045859333 8.3850255e-21)
(0.35673105 -0.044736402 -8.790854e-22)
(0.36651941 -0.043527213 -3.1221811e-21)
(0.37653457 -0.042246451 -3.8200132e-21)
(0.38674885 -0.040907621 -1.3893874e-21)
(0.39713455 -0.039523173 -1.2305424e-21)
(0.40766419 -0.038104604 -3.026039e-21)
(0.41831082 -0.036662517 0)
(0.42904814 -0.03520667 -1.3453371e-21)
(0.4398508 -0.033746009 3.9311838e-21)
(0.45069443 -0.032288692 5.4057625e-21)
(0.46155589 -0.0308421 -9.4116258e-22)
(0.47241328 -0.029412861 -2.9279361e-21)
(0.48324608 -0.028006863 3.0264478e-21)
(0.49403517 -0.026629275 2.5431171e-22)
(0.50476293 -0.025284569 3.4359411e-21)
(0.51541319 -0.023976553 -5.3463699e-22)
(0.52597131 -0.022708403 1.7176863e-21)
(0.53642414 -0.021482703 -7.9990206e-22)
(0.54676002 -0.020301489 2.9114735e-22)
(0.55696876 -0.019166299 -4.3427453e-22)
(0.56704163 -0.018078224 5.6249992e-22)
(0.57697137 -0.017037968 4.5736063e-22)
(0.58675213 -0.016045899 3.8280575e-22)
(0.59637948 -0.015102139 -9.6004229e-22)
(0.60585072 -0.014206584 6.8411387e-22)
(0.61516396 -0.01335916 -3.6990435e-22)
(0.62432157 -0.01255943 -1.1046429e-21)
(0.6333202 -0.011808431 1.4097715e-21)
(0.64218266 -0.01110367 -6.2083048e-23)
(0.65086509 -0.010456477 -1.5847536e-22)
(0.65953448 -0.0098401151 -7.8444572e-24)
(0.66777047 -0.0093574085 -1.2675315e-22)
(0.6768771 -0.0087349537 -4.6722734e-22)
(0.68331508 -0.0088835045 8.7850154e-22)
(0.6969826 -0.0074760387 -4.436757e-23)
(0.37635642 -0.038369558 -1.7495404e-20)
(0.37171512 -0.044271701 1.2832198e-20)
(0.37287252 -0.048163168 2.9755825e-21)
(0.37591638 -0.050100484 -7.635498e-21)
(0.37831151 -0.05167168 1.2056186e-20)
(0.38072951 -0.053044158 7.7915508e-21)
(0.38368293 -0.054031901 -1.2647862e-20)
(0.38710787 -0.054635038 -6.0680918e-21)
(0.39093693 -0.054920012 1.2697589e-20)
(0.39519054 -0.054929213 -1.5305427e-20)
(0.39988281 -0.054689664 -1.4063483e-20)
(0.4050041 -0.054226871 1.4130124e-20)
(0.41053816 -0.053565946 6.8195449e-21)
(0.41646726 -0.052730302 -4.2041221e-21)
(0.4227708 -0.051741437 -1.8544412e-21)
(0.4294253 -0.050619237 -4.0581057e-21)
(0.43640539 -0.049382257 5.3047101e-21)
(0.44368456 -0.048047851 3.6683086e-21)
(0.45123558 -0.046632242 -3.2408732e-21)
(0.45903091 -0.045150582 3.1380391e-21)
(0.46704303 -0.043617 2.7668663e-21)
(0.47524477 -0.042044646 -3.2113221e-21)
(0.4836095 -0.040445703 3.7057963e-22)
(0.49211139 -0.038831406 -3.2572807e-21)
(0.50072557 -0.037212047 7.2463894e-21)
(0.50942825 -0.035596988 6.1087222e-21)
(0.51819681 -0.033994669 8.0996091e-22)
(0.52700997 -0.032412627 -1.7685202e-21)
(0.53584775 -0.030857513 3.7029972e-21)
(0.54469159 -0.029335123 7.1900655e-21)
(0.55352435 -0.027850431 2.3053005e-21)
(0.56233032 -0.026407633 3.317354e-21)
(0.57109522 -0.025010192 1.9961051e-21)
(0.57980621 -0.023660894 7.4584659e-22)
(0.58845187 -0.022361911 -2.6378277e-22)
(0.59702217 -0.021114859 2.7214997e-21)
(0.60550849 -0.019920872 6.2021622e-22)
(0.61390363 -0.018780672 2.950208e-22)
(0.62220171 -0.017694666 5.6258766e-23)
(0.6303986 -0.016662981 9.9051262e-22)
(0.6384909 -0.01568577 4.7045055e-23)
(0.64647944 -0.014762733 4.4300925e-22)
(0.65435954 -0.013895333 -1.2634929e-22)
(0.66215156 -0.013080803 -2.778192e-22)
(0.66981272 -0.0123328 -1.5247071e-22)
(0.67749898 -0.011619912 -4.2302733e-22)
(0.68481622 -0.011063443 1.6200839e-22)
(0.6929751 -0.01034295 -1.2757464e-22)
(0.69870408 -0.010521415 -5.0104118e-22)
(0.71108821 -0.0088952678 2.4616218e-22)
(0.50928027 -0.03597591 3.6471207e-21)
(0.49953659 -0.042962375 -1.8958493e-20)
(0.49628201 -0.047385258 -2.3084331e-21)
(0.49556266 -0.049738645 5.4870233e-21)
(0.49417657 -0.051819993 3.0529e-21)
(0.49270309 -0.053707443 -4.9803557e-23)
(0.49181998 -0.055189765 6.1898762e-21)
(0.49152256 -0.056267597 7.6252705e-21)
(0.4917201 -0.056992812 9.8581997e-21)
(0.49241956 -0.057397932 -1.1250299e-20)
(0.49364031 -0.057508739 -2.1579994e-20)
(0.4953775 -0.057350932 -3.9355364e-21)
(0.49761489 -0.056949723 1.5938606e-20)
(0.50033376 -0.056329678 1.2809333e-20)
(0.50351295 -0.055514478 -5.9067537e-21)
(0.5071284 -0.054526668 1.3815781e-21)
(0.51115391 -0.053387683 -3.6603469e-21)
(0.51556193 -0.052117916 2.2447478e-21)
(0.52032418 -0.050736705 -2.9123875e-22)
(0.525412 -0.049262306 -1.8655091e-21)
(0.53079672 -0.047711888 7.8271593e-21)
(0.53644998 -0.046101529 -2.9319826e-22)
(0.54234397 -0.044446204 4.1829785e-22)
(0.54845166 -0.042759779 -6.5638309e-22)
(0.55474694 -0.041055008 -4.3032916e-21)
(0.56120479 -0.039343529 4.2088934e-21)
(0.56780137 -0.037635875 1.9032064e-21)
(0.57451412 -0.035941487 -3.3085474e-21)