/*--------------------------------*- C++ -*----------------------------------*\
  =========                 |
  \\      /  F ield         | OpenFOAM: The Open Source CFD Toolbox
   \\    /   O peration     | Website:  https://openfoam.org
    \\  /    A nd           | Version:  6
     \\/     M anipulation  |
\*---------------------------------------------------------------------------*/
FoamFile
{
    version     2.0;
    format      ascii;
    class       volSymmTensorField;
    location    "135";
    object      UPrime2Mean;
}
// * * * * * * * * * * * * * * * * * * * * * * * * * * * * * * * * * * * * * //

dimensions      [0 2 -2 0 0 0 0];

internalField   nonuniform List<symmTensor> 
9200
(
(0.0001464818 -0.00011370667 5.3356677e-22 9.1263858e-05 -2.8550454e-22 8.6137537e-39)
(0.00090143434 -0.00072201812 1.3611575e-21 0.00058051652 -1.0158402e-21 9.368874e-39)
(0.0018184413 -0.0014118705 1.7070481e-22 0.001102437 -1.2870325e-22 5.1375683e-39)
(0.0028603223 -0.0020753688 -2.0443632e-21 0.0015224068 1.4386575e-21 1.0238153e-38)
(0.0038824086 -0.002662455 9.315938e-23 0.0018568941 -7.8596424e-23 1.5016581e-39)
(0.0048132923 -0.0031468356 8.5504617e-22 0.0021057786 -5.6908411e-22 2.342605e-40)
(0.005604221 -0.0035196178 -1.8275452e-22 0.0022779888 1.2723872e-22 6.8041946e-40)
(0.0062165087 -0.0037818933 1.6620259e-22 0.0023883006 -1.1252276e-22 4.5828942e-40)
(0.0066240985 -0.0039395468 8.2956913e-22 0.002450871 -5.0491317e-22 1.3070198e-39)
(0.0068144336 -0.00400095 6.4322756e-23 0.002477713 -3.9412053e-23 3.7233117e-42)
(0.0067883831 -0.0039758784 -8.9021711e-22 0.0024787236 5.4975937e-22 7.0067269e-40)
(0.0065599321 -0.003874837 7.4375089e-22 0.0024618103 -4.7707238e-22 9.4995607e-41)
(0.0061550782 -0.0037086329 -1.3241881e-21 0.0024330814 8.9870887e-22 1.4986266e-39)
(0.0056096463 -0.0034881145 -6.7048943e-22 0.0023971054 4.6438902e-22 9.4813561e-41)
(0.0049661055 -0.0032240026 1.7381827e-22 0.0023571908 -1.2993565e-22 1.2166898e-41)
(0.0042696871 -0.0029267432 -6.5326113e-22 0.0023156565 5.1592823e-22 1.2687777e-40)
(0.0035641309 -0.0026063727 5.7253418e-22 0.0022742018 -4.9070577e-22 1.5418046e-40)
(0.002887531 -0.0022725444 4.2344166e-22 0.0022350905 -3.8033484e-22 6.356789e-40)
(0.0022716172 -0.0019341059 -1.5382288e-23 0.0022013474 3.2559643e-23 1.1752138e-40)
(0.0017506736 -0.0015974772 -8.9762199e-24 0.0021514821 2.9130955e-23 1.4566858e-40)
(0.00019318018 -0.00012913481 5.5938341e-23 8.8656272e-05 -2.1547023e-23 1.5133692e-40)
(0.0011487653 -0.00079668456 1.4421521e-21 0.00055419894 -9.3817342e-22 9.9958531e-39)
(0.0022782968 -0.0015346734 -4.7142739e-22 0.0010394912 3.1594906e-22 5.4308361e-39)
(0.0034841189 -0.0022144872 -3.6671555e-21 0.0014229414 2.2946082e-21 2.3687121e-38)
(0.0045990098 -0.0027898222 -1.2466407e-22 0.001721865 7.9541531e-23 2.9892293e-40)
(0.0055409003 -0.0032378015 2.8293248e-21 0.0019391388 -1.6729871e-21 7.8343307e-39)
(0.0062602073 -0.0035551106 -1.159385e-21 0.0020862648 6.7960641e-22 2.6646104e-40)
(0.0067263176 -0.0037491209 -3.5034239e-22 0.0021791991 2.0367911e-22 9.6248896e-41)
(0.0069281632 -0.0038315633 1.3287629e-21 0.0022324362 -7.783279e-22 7.3355294e-40)
(0.0068734217 -0.0038158734 -1.6098467e-21 0.0022577713 9.5985333e-22 8.4051889e-40)
(0.0065866208 -0.0037159797 -1.1413701e-21 0.0022644187 6.9852659e-22 1.0415432e-39)
(0.0061064644 -0.0035456072 2.4627277e-21 0.0022592182 -1.5703527e-21 5.2946637e-39)
(0.0054819916 -0.0033179289 1.1466298e-21 0.0022469028 -7.7955567e-22 3.6744125e-40)
(0.0047676834 -0.0030454466 -1.80479e-21 0.0022304118 1.3126668e-21 1.8227344e-39)
(0.0040180854 -0.0027399841 3.2334973e-22 0.0022111948 -2.5410527e-22 1.524843e-40)
(0.0032826908 -0.0024126997 -7.1848363e-22 0.0021894778 6.3401676e-22 4.0378513e-40)
(0.0026017355 -0.0020740793 -2.9796367e-22 0.0021645559 3.1034148e-22 1.2766003e-40)
(0.0020033656 -0.0017337299 9.0751525e-22 0.0021351719 -1.0324203e-21 2.0615264e-39)
(0.001503927 -0.0013993548 4.2959159e-22 0.0020975652 -5.8449923e-22 3.8924682e-40)
(0.0011137473 -0.0010786692 -1.8241985e-22 0.002032396 2.3052801e-22 2.9743265e-39)
(0.00024586211 -0.00014005161 -4.6724147e-22 8.1576218e-05 1.9901893e-22 3.895916e-39)
(0.0014121361 -0.0008398088 -7.7737245e-22 0.00050074611 4.3186695e-22 4.0618308e-39)
(0.0027499412 -0.0015930194 -8.8867515e-22 0.00092801891 5.175903e-22 1.0152875e-38)
(0.0040932326 -0.0022587352 2.9350877e-23 0.0012606517 -1.6156123e-23 1.1007411e-42)
(0.0052562696 -0.0027970046 4.4610792e-23 0.0015162283 -2.0580677e-23 7.2936349e-39)
(0.0061526939 -0.0031909134 9.9290177e-22 0.0017004631 -5.3065337e-22 2.0390684e-39)
(0.0067410935 -0.0034440886 9.2561607e-23 0.0018263998 -4.6740397e-23 8.4435865e-40)
(0.007009111 -0.0035703231 -1.6750832e-21 0.0019097795 9.0429199e-22 5.3292872e-40)
(0.006970474 -0.0035864883 1.9819611e-21 0.0019640356 -1.098044e-21 1.0090422e-39)
(0.0066610182 -0.0035097844 6.5221877e-22 0.0019994383 -3.7967058e-22 1.116306e-39)
(0.0061334934 -0.0033566532 -1.791537e-21 0.0020233496 1.0910596e-21 2.2984744e-39)
(0.0054514142 -0.0031423483 -5.6067095e-22 0.0020405513 3.6662191e-22 7.529807e-40)
(0.0046821052 -0.0028809282 2.0571463e-22 0.0020536254 -1.4383456e-22 2.0431372e-39)
(0.0038896875 -0.0025854638 4.8408659e-22 0.0020633728 -3.7977366e-22 2.9213602e-40)
(0.0031290279 -0.0022682618 -1.6842602e-22 0.0020692326 1.4817409e-22 2.2443259e-40)
(0.0024415353 -0.0019409745 3.9329402e-22 0.0020696936 -3.9950853e-22 1.7575408e-40)
(0.0018532889 -0.001614546 -2.7142315e-22 0.002062692 3.2499862e-22 6.6971618e-41)
(0.0013754631 -0.0012989281 -5.4774023e-22 0.0020458516 7.7530674e-22 1.6543057e-39)
(0.0010068332 -0.0010023955 -1.5452311e-23 0.0020161004 1.67298e-23 1.4987106e-39)
(0.00073847701 -0.00073254841 1.8906302e-22 0.001967035 -4.2166651e-22 1.6770643e-40)
(0.00030274343 -0.00014484336 -3.710124e-22 7.0660389e-05 1.367727e-22 1.9350974e-39)
(0.0016779329 -0.00084416004 5.6349686e-22 0.00042571677 -2.7657056e-22 3.5953696e-40)
(0.0032048229 -0.0015768464 5.0052369e-22 0.0007805069 -2.4709818e-22 4.176715e-40)
(0.0046459621 -0.00219984 1.0942829e-21 0.0010546456 -5.2296289e-22 4.5084656e-39)
(0.005804199 -0.0026816867 9.5956346e-22 0.0012651268 -4.5679198e-22 2.0050986e-39)
(0.0065985052 -0.0030130715 -1.6795244e-21 0.0014196228 8.0138025e-22 1.5277152e-39)
(0.0070067921 -0.0032044366 -9.3801628e-22 0.0015311844 4.5615585e-22 4.3457544e-40)
(0.0070454588 -0.003274488 0 0.0016137499 0 0)
(0.0067609604 -0.0032430316 1.0220968e-21 0.0016783033 -5.5963139e-22 5.6174738e-39)
(0.0062210667 -0.00312861 -4.4221267e-22 0.001732439 2.6355408e-22 2.1282353e-39)
(0.0055053639 -0.0029479498 -2.5899475e-21 0.0017807626 1.5624596e-21 1.8582322e-39)
(0.0046956173 -0.002716104 -3.3227607e-22 0.0018253413 2.1158818e-22 3.799634e-40)
(0.0038668557 -0.0024469135 1.2684572e-21 0.0018662047 -9.5929937e-22 2.548162e-39)
(0.0030803638 -0.0021534556 7.4248527e-23 0.0019018914 -4.8572769e-23 1.0590325e-39)
(0.0023795374 -0.0018482421 -1.9506925e-23 0.0019300158 1.948616e-23 7.3776565e-43)
(0.0017889316 -0.0015430896 2.0895896e-22 0.0019478394 -2.4733899e-22 1.2984807e-40)
(0.0013161515 -0.0012487184 2.2536747e-24 0.001952769 3.8744284e-24 1.5331529e-40)
(0.00095569123 -0.00097422959 -3.6862313e-22 0.0019425858 6.3856712e-22 3.9175701e-40)
(0.00069343081 -0.00072657052 -2.0337428e-22 0.0019163533 4.4254142e-22 2.7393601e-40)
(0.00051125163 -0.00051067235 9.9713535e-23 0.0018771118 -3.2222557e-22 1.7421121e-39)
(0.00036121159 -0.00014213941 2.7998286e-22 5.6936372e-05 -8.9198451e-23 7.6130344e-40)
(0.0019293309 -0.00080510937 1.1657728e-21 0.00033678612 -4.650078e-22 6.8591489e-39)
(0.0036108356 -0.0014820796 9.1102031e-22 0.00061245803 -3.7599516e-22 4.324537e-40)
(0.005099921 -0.0020386855 1.0167489e-21 0.00082678956 -4.1609125e-22 2.4120667e-39)
(0.0061983185 -0.0024531354 -1.5607692e-21 0.00099516583 6.467958e-22 3.7994942e-39)
(0.0068422828 -0.002723694 5.771698e-23 0.0011258497 -1.865572e-23 3.6165716e-40)
(0.0070403893 -0.0028655306 8.8821264e-23 0.0012302439 -3.8926374e-23 3.0300641e-42)
(0.0068459613 -0.0028990764 1.2619885e-21 0.0013191099 -5.921603e-22 1.355705e-39)
(0.0063414689 -0.0028437668 1.6997037e-22 0.0013999586 -8.4822446e-23 1.216762e-41)
(0.0056241861 -0.0027166861 -4.5505913e-22 0.001476982 2.6108054e-22 7.3444829e-40)
(0.0047927419 -0.0025329073 1.4753329e-21 0.001551557 -9.2866265e-22 5.1151847e-39)
(0.0039356618 -0.0023062777 -1.07502e-21 0.0016227993 7.1818049e-22 4.3444065e-40)
(0.0031231112 -0.0020501288 -2.015992e-21 0.0016881965 1.6018826e-21 3.0957505e-39)
(0.0024027274 -0.0017775616 -6.647076e-23 0.001744313 6.2407982e-23 6.5690924e-42)
(0.0017996024 -0.0015012036 7.1150152e-22 0.0017875124 -8.1626711e-22 2.5301055e-39)
(0.0013195899 -0.001232572 0 0.001814638 0 0)
(0.00095457496 -0.00098130315 9.0114426e-23 0.0018234949 -1.3262244e-22 6.5876035e-41)
(0.00068822901 -0.00075455225 -4.3688023e-23 0.001812933 1.0045135e-22 9.8189988e-41)
(0.00050083998 -0.00055676304 -4.5430675e-23 0.0017840811 1.0213213e-22 2.564894e-41)
(0.00037281191 -0.00038963927 2.0083028e-23 0.0017446896 -9.4200957e-23 1.7678777e-40)
(0.00041809225 -0.00013112921 6.1209919e-22 4.1833534e-05 -1.5767316e-22 3.0786697e-39)
(0.0021486244 -0.00072212564 5.9858539e-23 0.00024335188 -1.9660331e-23 5.6897273e-42)
(0.0039374685 -0.0013127415 -1.7141531e-22 0.00044127927 5.799639e-23 2.5179642e-41)
(0.0054197373 -0.001787111 1.7309292e-22 0.00059990637 -5.6080927e-23 4.982197e-40)
(0.0064087616 -0.0021326783 -1.0726151e-21 0.00073203944 3.7777942e-22 9.3370874e-40)
(0.0068704382 -0.0023530977 -5.1413641e-22 0.00084509752 1.883207e-22 8.4036227e-41)
(0.0068528696 -0.0024642719 3.6033539e-22 0.00094756573 -1.1115938e-22 2.6635177e-39)
(0.0064495448 -0.0024840902 -1.3710443e-23 0.0010462677 1.5395664e-23 2.0841366e-40)
(0.0057759421 -0.0024281621 -8.6034878e-22 0.0011448296 4.3286785e-22 2.2011788e-39)
(0.0049503 -0.0023099407 1.488615e-21 0.0012438436 -7.8403572e-22 6.3774903e-40)
(0.0040782956 -0.0021419584 -3.7834764e-23 0.0013414258 5.7166508e-23 1.1447412e-39)
(0.0032427449 -0.0019368801 -1.1719392e-21 0.0014338919 8.6838168e-22 3.1429151e-39)
(0.0024989773 -0.0017078872 0 0.0015165766 0 0)
(0.0018755472 -0.0014682781 2.8092675e-22 0.0015847257 -3.29104e-22 1.6913944e-39)
(0.0013789055 -0.0012305157 1.3449702e-23 0.0016343336 -3.0851633e-23 9.269245e-41)
(0.001000086 -0.0010051385 -3.3904328e-22 0.001662792 5.5247447e-22 1.9609736e-39)
(0.00072154095 -0.00079992043 -7.6846952e-23 0.001669175 1.4235905e-22 4.0586674e-41)
(0.00052280407 -0.00061954653 -2.2849572e-23 0.0016540296 6.6122081e-23 6.5942456e-41)
(0.00038418311 -0.0004659138 -3.027002e-23 0.0016203254 8.913539e-23 2.5449108e-41)
(0.00028858223 -0.00033845998 5.3659065e-23 0.0015773461 -2.1789633e-22 2.4402048e-40)
(0.00047000686 -0.00011176684 2.3622653e-22 2.7040414e-05 -4.545627e-23 4.8757343e-40)
(0.0023195196 -0.00059926591 -1.6912773e-21 0.00015535524 4.2569474e-22 1.0601824e-38)
(0.0041599673 -0.0010808076 -1.5206925e-22 0.00028391898 4.3001939e-23 9.8991935e-40)
(0.0055820489 -0.0014663227 -4.5332061e-22 0.00039460453 1.3345166e-22 4.9792781e-39)
(0.0064242988 -0.0017500777 -3.3372309e-22 0.000497061 9.3224725e-23 6.8586635e-41)
(0.0066925007 -0.001936808 -1.8902727e-21 0.00059691047 5.9031641e-22 9.0456396e-40)
(0.0064782182 -0.0020380035 -9.2485761e-22 0.0006992898 3.2894268e-22 7.333649e-40)
(0.0059120514 -0.0020647938 1.7831486e-21 0.00080714762 -6.791849e-22 5.8296235e-40)
(0.0051335891 -0.002026456 3.0425143e-22 0.0009204397 -1.5910452e-22 7.5417336e-40)
(0.004269744 -0.0019319912 -3.90472e-22 0.0010363937 1.7922323e-22 2.5733319e-40)
(0.0034208094 -0.0017917167 1.8338516e-22 0.0011501555 -6.7612889e-23 9.6824836e-40)
(0.0026543985 -0.0016178256 -3.3812732e-23 0.0012556883 4.6883868e-23 2.4542082e-40)
(0.0020063602 -0.0014237977 0 0.0013468519 0 0)
(0.0014866141 -0.001223022 1.9144281e-22 0.0014184582 -2.0309383e-22 5.8362853e-41)
(0.001087285 -0.0010272406 -4.050553e-22 0.0014670788 5.4184854e-22 8.0202392e-40)
(0.00079076343 -0.0008453702 -1.3124001e-22 0.0014914515 2.0591353e-22 6.864521e-41)
(0.00057614716 -0.00068298885 2.2491375e-22 0.0014923865 -4.6504302e-22 9.6045706e-40)
(0.00042347922 -0.00054252237 -5.0909136e-23 0.0014722001 6.8108329e-23 2.0756015e-40)
(0.00031581652 -0.00042405161 -3.3620048e-24 0.0014351437 -6.0156853e-24 2.3298595e-41)
(0.0002396365 -0.0003259894 5.113699e-23 0.0013900428 -1.5639632e-22 2.016504e-41)
(0.00051375272 -8.4836442e-05 1.7206836e-22 1.4277814e-05 -2.258623e-23 3.0530809e-40)
(0.0024292138 -0.00044481559 -1.5641729e-21 8.1881785e-05 2.8202137e-22 4.8605801e-39)
(0.004262365 -0.00080460065 -1.2224967e-21 0.00015451533 2.427981e-22 5.8189261e-39)
(0.0055780545 -0.0011036232 1.7368598e-21 0.000226596 -3.642384e-22 1.4223765e-39)
(0.0062525018 -0.0013385832 1.3064112e-21 0.00030481702 -2.956446e-22 2.9368173e-40)
(0.0063370588 -0.0015096238 -9.5204265e-22 0.00039301528 2.1150154e-22 3.0874613e-39)
(0.0059643994 -0.0016187938 3.1148521e-22 0.00049358114 -1.1971617e-22 1.3083086e-39)
(0.0052933367 -0.0016674795 1.8146857e-21 0.00060638272 -6.4993454e-22 1.4584622e-39)
(0.0044750602 -0.0016577664 7.9361454e-22 0.00072832815 -3.1513811e-22 1.8257606e-40)
(0.0036325687 -0.0015947885 -7.7748993e-22 0.00085374113 4.0177465e-22 4.7545845e-40)
(0.0028513153 -0.0014877211 -1.0518557e-21 0.00097527071 6.3441604e-22 5.630117e-40)
(0.0021792686 -0.0013490457 -2.8593436e-23 0.0010851691 2.0933291e-23 5.8654974e-43)
(0.0016334528 -0.0011926336 3.0076933e-22 0.0011766511 -2.6678708e-22 9.1092706e-41)
(0.0012094801 -0.0010315211 -9.7505714e-24 0.0012449774 3.5055605e-23 1.4143288e-40)
(0.00089103989 -0.00087616353 -9.9484795e-24 0.0012880099 5.6866827e-23 3.8278465e-40)
(0.00065742136 -0.00073358602 6.4675248e-24 0.0013061808 -7.4066859e-23 6.9147662e-40)
(0.00048839801 -0.00060741884 1.0386507e-22 0.0013019466 -2.1172444e-22 2.0150355e-40)
(0.00036672526 -0.00049856194 -5.7626443e-23 0.0012789378 1.7784254e-22 5.275751e-40)
(0.00027887282 -0.00040625173 -1.4923377e-22 0.0012419125 4.2962991e-22 1.0185555e-39)
(0.00021460405 -0.00032880988 5.045224e-23 0.001198141 -1.2528521e-22 2.2360774e-41)
(0.00054682744 -5.1888877e-05 -4.4531762e-22 5.054289e-06 3.7098277e-23 9.1181511e-40)
(0.002470163 -0.00027023928 -3.4339204e-22 2.9916803e-05 3.6955201e-23 9.8217458e-40)
(0.004239106 -0.00050627346 2.6765272e-21 6.2641188e-05 -3.4042501e-22 1.201859e-38)
(0.00541394 -0.00072851087 1.9835322e-21 0.00010513141 -2.8819819e-22 1.3079115e-39)
(0.005917565 -0.0009302638 8.8417299e-22 0.00016242603 -1.3937867e-22 6.4340003e-40)
(0.0058461983 -0.0011013535 1.7822349e-22 0.00023774783 -3.6690621e-23 6.1378512e-42)
(0.0053651229 -0.0012307667 -1.6664179e-21 0.00033219172 3.7179039e-22 2.6878368e-39)
(0.0046486329 -0.0013091008 0 0.0004437202 0 0)
(0.0038465326 -0.0013320328 -1.0149431e-21 0.00056692043 4.4368901e-22 2.2273997e-39)
(0.0030680807 -0.0013022873 -1.7352039e-22 0.00069371914 1.1596186e-22 5.0571018e-40)
(0.0023791752 -0.0012290383 4.9473529e-22 0.00081483375 -2.8948981e-22 1.2077873e-40)
(0.001808585 -0.0011254155 5.2245111e-23 0.00092154025 -6.890784e-23 2.7831491e-40)
(0.0013586 -0.0010053763 -2.3389453e-22 0.0010072112 2.3277793e-22 3.2262885e-40)
(0.0010160918 -0.00088108423 -1.7492809e-22 0.0010681996 2.3451362e-22 6.9162446e-40)
(0.00076146439 -0.00076142954 1.1393836e-22 0.0011039374 -1.1634974e-22 8.458964e-41)
(0.00057456007 -0.00065173724 1.5705307e-22 0.0011163893 -2.0437142e-22 7.7071402e-41)
(0.00043776231 -0.00055430724 -1.3896074e-22 0.0011091378 2.3376415e-22 7.10716e-41)
(0.00033709871 -0.00046934489 -1.8437089e-22 0.0010864215 4.0720161e-22 8.5107702e-40)
(0.00026216525 -0.00039600331 1.4978775e-23 0.0010527874 -2.8731424e-24 1.0070957e-40)
(0.00020535861 -0.0003329578 2.4492389e-23 0.0010135349 -8.6357889e-23 1.1854177e-40)
(0.00056734035 -1.4992496e-05 -2.9402577e-22 4.5480915e-07 7.4966858e-24 4.4617062e-40)
(0.0024401108 -8.8736556e-05 1.2510543e-21 3.522004e-06 -4.4942149e-23 2.4727697e-39)
(0.0040948503 -0.00020921242 1.9129905e-21 1.2463213e-05 -1.18162e-22 1.7951673e-38)
(0.0051094069 -0.00036942285 -2.2276629e-21 3.2771247e-05 1.9367021e-22 4.9361729e-39)
(0.005456006 -0.00055293396 8.0099181e-22 7.0294006e-05 -8.8768191e-23 1.2308935e-40)
(0.0052683315 -0.00073490266 3.245956e-22 0.00012972118 2.5256633e-24 4.5647888e-39)
(0.0047315472 -0.00088989584 8.5998013e-23 0.00021265291 -1.7624705e-23 1.617132e-42)
(0.0040218861 -0.00099870669 -1.2198247e-21 0.00031627931 2.841018e-22 1.5321342e-39)
(0.0032771895 -0.0010525478 -2.7624269e-23 0.00043348266 9.6625575e-24 2.41496e-43)
(0.0025875415 -0.0010533958 4.5229203e-22 0.00055429527 -2.3892195e-22 5.8489442e-40)
(0.0019991367 -0.0010111642 3.5141187e-23 0.00066814283 -3.6950065e-23 8.3928802e-41)
(0.0015251877 -0.00093950658 -1.6361167e-22 0.00076606285 4.3110129e-23 1.0857782e-39)
(0.0011584815 -0.00085197045 -3.6048224e-22 0.00084219896 2.9679417e-22 1.1800649e-40)
(0.00088203863 -0.00075949553 -1.5048249e-24 0.00089426409 2.8834372e-23 1.4146471e-40)
(0.00067644731 -0.00066947297 1.2097137e-22 0.00092309113 -1.617872e-22 1.3727794e-40)
(0.00052394164 -0.00058598684 8.0151478e-23 0.00093165392 -1.3009405e-22 1.3344878e-40)
(0.00041006484 -0.00051065409 1.7591876e-23 0.00092397343 -6.1834062e-23 2.1703118e-40)
(0.0003239008 -0.0004435926 -1.2890132e-22 0.00090423125 1.8264184e-22 1.7259948e-40)
(0.00025761606 -0.0003842557 -2.7656902e-23 0.00087628675 -1.8324081e-23 7.4470626e-40)
(0.00020560199 -0.00033172596 6.8538466e-23 0.00084351703 -2.2219965e-22 1.2267183e-39)
(3.8170258e-06 -4.7646237e-07 3.8162473e-23 5.8232666e-07 -7.6395083e-24 4.3606885e-40)
(1.7996181e-05 -7.5325976e-06 -5.4446432e-23 3.8694085e-06 1.5086433e-23 4.1983914e-40)
(4.0310332e-05 -1.7408898e-05 1.2094968e-22 7.7128534e-06 -4.5289663e-23 2.410944e-39)
(0.00012923196 -3.6730601e-05 3.3750371e-22 1.1056615e-05 -7.1927494e-23 8.108914e-39)
(0.00028356141 -6.0570329e-05 -2.4101218e-22 1.4055346e-05 4.1002267e-23 2.108624e-39)
(0.00050664455 -8.7227458e-05 3.0368395e-22 1.6710657e-05 -4.1156303e-23 2.3299592e-39)
(0.0008056553 -0.0001157767 -4.165937e-22 1.9026277e-05 5.2772363e-23 2.5582389e-39)
(0.001182395 -0.00014529534 -4.2952699e-22 2.1051291e-05 4.4784101e-23 2.7053897e-39)
(0.001634923 -0.00017503473 5.3968444e-22 2.2838697e-05 -5.5785074e-23 2.8593752e-39)
(0.0021600553 -0.00020444266 -4.1847689e-22 2.4430023e-05 4.0736545e-23 1.45618e-39)
(0.0027538448 -0.00023310336 -2.1015033e-23 2.5856974e-05 3.4933663e-25 1.6945802e-41)
(0.0034116471 -0.00026069502 1.2000683e-22 2.7143931e-05 -1.274263e-23 5.3477467e-41)
(0.0041283339 -0.00028696452 -2.0740461e-23 2.8309651e-05 9.8852285e-25 8.5045685e-42)
(0.004898493 -0.00031171179 6.5083176e-22 2.9369228e-05 -5.8180793e-23 2.5489445e-39)
(0.005716548 -0.00033478473 9.8232819e-25 3.0336548e-05 1.2351314e-24 5.5126886e-42)
(0.0065768808 -0.0003560883 -9.5180136e-22 3.122678e-05 8.8972125e-23 5.2403667e-39)
(0.007473993 -0.00037559264 1.7572727e-22 3.2056101e-05 -1.8536192e-23 1.1048795e-40)
(0.0084025313 -0.00039329715 4.2502203e-22 3.283662e-05 -4.2263197e-23 1.3325571e-39)
(0.0093571679 -0.00040928354 -6.8612325e-22 3.358033e-05 7.3401218e-23 3.7763501e-39)
(0.010331908 -0.00042412249 -3.7680037e-22 3.4282731e-05 4.3226533e-23 1.4179875e-39)
(4.3232497e-06 -1.9941117e-06 1.256196e-23 5.1250649e-06 -4.6351198e-24 4.3103705e-41)
(2.2942157e-05 -2.5811549e-05 -3.4478791e-22 3.409773e-05 2.5996397e-22 1.404058e-38)
(5.1482731e-05 -5.859849e-05 6.843161e-23 6.7942776e-05 -5.6614385e-23 1.2672566e-39)
(0.00015202249 -0.00011888584 3.6292932e-22 9.7398881e-05 -2.2275406e-22 6.7761085e-39)
(0.00031976498 -0.00019218678 5.0404596e-22 0.000123759 -2.4195375e-22 7.6624561e-39)
(0.00055693737 -0.00027350204 6.0917575e-23 0.00014700156 -2.4388716e-23 7.1976436e-41)
(0.00086981813 -0.000360069 -1.6186857e-21 0.00016716594 5.5954569e-22 3.8320605e-38)
(0.0012591413 -0.00044916067 -5.6882715e-23 0.00018468794 2.3516317e-23 1.1027312e-41)
(0.0017220106 -0.00053858037 9.1387723e-22 0.00020003368 -2.7728886e-22 6.5370794e-39)
(0.0022543711 -0.00062670843 -2.2038384e-22 0.00021356909 6.0605956e-23 3.6352064e-40)
(0.002851418 -0.00071232244 -8.3528872e-22 0.00022557358 2.2795451e-22 4.0311637e-39)
(0.0035076446 -0.00079447322 1.7555531e-22 0.00023626073 -4.4680892e-23 1.8356273e-40)
(0.0042170487 -0.00087241024 7.404442e-22 0.00024579246 -1.6463815e-22 4.3257273e-39)
(0.0049733125 -0.00094553381 3.0522748e-22 0.00025429582 -7.5612102e-23 4.9375268e-40)
(0.0057698939 -0.0010133772 6.0888561e-22 0.00026188399 -1.6188104e-22 1.4268504e-39)
(0.0066001466 -0.0010756305 -4.802784e-22 0.00026867741 1.2073511e-22 1.2078043e-39)
(0.0074576216 -0.0011321739 -4.5775774e-22 0.00027480628 1.1405297e-22 1.3213011e-39)
(0.0083359608 -0.0011829639 4.6048441e-22 0.00028037597 -1.3124883e-22 7.6249154e-40)
(0.0092270695 -0.0012282254 4.1822672e-22 0.00028550583 -1.1654599e-22 1.335037e-39)
(0.010121276 -0.0012701145 1.6057524e-22 0.00029019963 -4.3098658e-23 5.6758552e-40)
(5.5575867e-06 -5.1069661e-06 9.6658362e-24 1.3671098e-05 -4.827468e-24 2.2682947e-41)
(3.4676601e-05 -5.3340248e-05 2.6183532e-22 9.1019929e-05 -2.8026673e-22 5.983763e-39)
(7.7477388e-05 -0.00011783897 -5.7279805e-23 0.00018120698 7.3809209e-23 3.1334683e-40)
(0.00020230026 -0.00022557757 -3.9418197e-22 0.00025964873 3.3176948e-22 7.4190132e-39)
(0.00039772409 -0.00035329723 1.4485885e-22 0.00032959515 -1.2155114e-22 2.0974531e-40)
(0.00066372584 -0.00049291832 1.9150941e-22 0.00039084195 -1.5558609e-22 1.0967871e-40)
(0.0010047856 -0.00063988121 -2.3900312e-22 0.00044348653 1.2650681e-22 6.6081143e-40)
(0.0014196249 -0.00078977734 -6.2298762e-22 0.00048869088 3.62982e-22 1.3172472e-39)
(0.0019035286 -0.00093908736 2.7261104e-22 0.00052769498 -1.3221455e-22 3.6881924e-40)
(0.0024507626 -0.0010852089 5.7865323e-22 0.00056147967 -2.3991137e-22 2.0955877e-39)
(0.0030548715 -0.0012261637 1.5978432e-22 0.00059079816 -1.1104514e-22 7.8390767e-41)
(0.0037086978 -0.0013604014 7.0615971e-22 0.00061622439 -2.3343802e-22 3.889782e-39)
(0.0044045693 -0.0014866784 5.9698416e-23 0.00063818692 -2.2050878e-23 1.6118365e-41)
(0.005134449 -0.001603976 -1.0442836e-21 0.00065700987 3.5127216e-22 6.2520188e-39)
(0.0058899857 -0.0017114679 7.5969474e-23 0.00067296854 -5.0578058e-23 3.4636507e-41)
(0.0066626383 -0.0018085602 -4.8631795e-22 0.00068634825 1.3445454e-22 2.4370541e-39)
(0.0074442474 -0.0018949668 -6.819295e-22 0.00069745861 2.704422e-22 9.990531e-40)
(0.0082267612 -0.0019705295 1.1037372e-21 0.00070660633 -4.3112619e-22 3.3178005e-39)
(0.0089975261 -0.0020355652 5.8032444e-22 0.00071429083 -2.4148157e-22 6.7419096e-40)
(0.0097413623 -0.002094644 1.1609299e-22 0.00072085119 -5.3261723e-23 1.4446824e-41)
(8.1877885e-06 -1.0565031e-05 -1.4479591e-23 2.5179003e-05 1.8240541e-23 3.317968e-41)
(5.6839895e-05 -9.4701116e-05 -6.0646626e-22 0.00016790543 7.6703737e-22 1.9852048e-38)
(0.00012568988 -0.00020407854 -4.4110401e-23 0.00033394633 5.6684553e-23 2.7136375e-40)
(0.0002906006 -0.00036869192 1.0146734e-22 0.00047810385 -1.1233022e-22 1.7284905e-40)
(0.0005309301 -0.00055771356 -1.6475311e-23 0.00060599619 4.3009148e-24 4.467711e-41)
(0.00084333131 -0.00076017085 5.1658083e-22 0.00071689908 -3.7842468e-22 3.2599097e-39)
(0.0012295287 -0.00096970894 5.7068874e-22 0.00081093961 -3.7232589e-22 2.961219e-39)
(0.0016852758 -0.0011804079 -1.7302493e-22 0.000890263 8.3484167e-23 4.6680307e-40)
(0.0022031559 -0.001387598 -6.3298919e-22 0.00095717067 3.2996322e-22 2.9671201e-39)
(0.0027749116 -0.0015878052 -1.2732207e-21 0.0010135097 6.8552024e-22 6.2874951e-39)
(0.0033916124 -0.0017783588 -2.8371725e-23 0.0010607187 -1.4859937e-23 1.4369897e-40)
(0.0040436528 -0.0019571394 1.6160264e-21 0.001099903 -7.5107836e-22 1.027656e-38)
(0.004720911 -0.0021224126 -6.5468903e-22 0.0011318866 2.4865931e-22 3.039746e-39)
(0.0054129038 -0.0022727295 -4.2156022e-22 0.0011572861 1.8425632e-22 5.9938191e-40)
(0.006108808 -0.0024068726 -5.000529e-23 0.0011766032 5.7093753e-23 1.2951768e-40)
(0.0067976099 -0.0025239042 9.9366551e-22 0.0011903259 -4.356309e-22 2.457083e-39)
(0.0074690032 -0.0026233148 -5.6094621e-22 0.0011989693 2.821338e-22 1.6354351e-40)
(0.0081131447 -0.0027048751 -1.2841204e-21 0.0012031767 5.4165835e-22 5.2910565e-39)
(0.0087124173 -0.0027690543 8.5756288e-22 0.0012044817 -3.7492472e-22 2.6601054e-39)
(0.0092457924 -0.0028232222 7.3973153e-22 0.0012046777 -2.9763436e-22 2.4756411e-39)
(1.3094743e-05 -1.8818111e-05 6.4986167e-23 3.838563e-05 -6.3160663e-23 4.2759576e-40)
(9.4281954e-05 -0.00015256154 2.1147217e-23 0.000256234 -5.5368661e-24 1.9289066e-40)
(0.00020587787 -0.00032243852 -8.345695e-22 0.00050869553 1.1954415e-21 1.627891e-38)
(0.00043049785 -0.00055469311 -4.7939083e-22 0.00072712513 5.0924147e-22 5.0376926e-39)
(0.00073603262 -0.00081222467 3.2024118e-22 0.00091952583 -2.5494032e-22 3.0454912e-39)
(0.0011146318 -0.001081181 3.9712997e-22 0.0010842524 -3.199439e-22 1.4340688e-39)
(0.0015641091 -0.001353352 -5.1688384e-22 0.0012214482 3.3727774e-22 3.3565118e-39)
(0.0020761687 -0.0016215101 -7.8773302e-22 0.0013344421 4.5141239e-22 7.3655862e-39)
(0.0026396932 -0.00188006 1.1630926e-21 0.0014268334 -6.9393251e-22 7.5550307e-39)
(0.0032429549 -0.0021248261 3.3411933e-22 0.0015015711 -1.3467434e-22 1.759433e-39)
(0.0038736526 -0.0023525763 -1.0447988e-21 0.0015610093 6.9248547e-22 5.7868052e-40)
(0.0045189246 -0.0025607349 4.5909899e-22 0.0016069991 -2.0801818e-22 1.354296e-39)
(0.0051655556 -0.0027471977 0 0.0016409572 0 0)
(0.0058001522 -0.0029102055 4.4522903e-22 0.0016639585 -2.168129e-22 5.2964193e-40)
(0.0064092153 -0.0030482793 -3.3345398e-22 0.0016768607 1.5842501e-22 2.8280553e-40)
(0.0069793718 -0.003160269 -5.0964705e-22 0.0016804388 2.549036e-22 3.4295361e-40)
(0.0074986948 -0.0032455768 1.8691988e-22 0.0016754247 -1.5487117e-22 4.83431e-40)
(0.0079567737 -0.0033041722 -1.5219876e-22 0.0016628198 9.1784081e-23 1.739452e-41)
(0.0083327615 -0.0033370623 7.2662432e-22 0.0016459561 -3.1501358e-22 2.8666715e-39)
(0.0085998468 -0.0033541017 -5.9156681e-22 0.0016303017 2.9150606e-22 1.6607922e-40)
(2.129689e-05 -3.0005719e-05 6.2341486e-23 5.2035133e-05 -5.2416243e-23 3.4330641e-40)
(0.00015246689 -0.00022739551 2.9989408e-22 0.00034704496 -3.9943814e-22 1.2797783e-39)
(0.00032878885 -0.00047341316 -4.0241723e-22 0.00068675773 5.3420852e-22 3.0558725e-39)
(0.00063624078 -0.00078321899 -6.5937489e-22 0.00097898658 7.4244899e-22 2.5557755e-39)
(0.0010291435 -0.0011146246 -1.9169814e-22 0.0012338785 2.8324527e-22 2.0184244e-39)
(0.0014936385 -0.0014507323 -5.9534846e-22 0.0014486224 5.2335595e-22 1.2562823e-39)
(0.0020221695 -0.001781415 -2.7798189e-22 0.0016235054 1.7106099e-22 1.4533028e-39)
(0.0026011548 -0.0020984231 4.8056576e-22 0.0017632446 -2.8881331e-22 2.6805085e-39)
(0.0032146898 -0.0023955757 1.1464805e-21 0.0018729636 -6.8282091e-22 9.1764571e-39)
(0.0038466136 -0.0026683225 3.5220673e-22 0.0019569746 -2.1681725e-22 3.846599e-40)
(0.0044805355 -0.0029132135 -3.345407e-22 0.0020188198 1.7743217e-22 6.1044343e-40)
(0.0050998997 -0.0031275794 -6.3383774e-23 0.0020613726 -1.3633861e-23 5.3186799e-40)
(0.005688319 -0.0033093371 -1.5862931e-21 0.0020869123 8.6851804e-22 5.0577385e-39)
(0.0062299045 -0.0034568628 -4.9168889e-22 0.002097228 2.5728634e-22 5.2318451e-40)
(0.0067094939 -0.0035689194 8.2091939e-22 0.0020937569 -4.7635192e-22 2.4673954e-40)
(0.0071130252 -0.0036446786 -8.1723558e-22 0.0020777207 4.4292565e-22 5.1620765e-40)
(0.0074292457 -0.0036839429 -2.8784855e-22 0.0020500852 1.4195781e-22 1.6543821e-40)
(0.0076504277 -0.0036873763 6.4361713e-22 0.0020119792 -2.7103976e-22 2.5740929e-39)
(0.0077572116 -0.0036571877 9.7168277e-22 0.0019687308 -4.8768695e-22 1.9491169e-39)
(0.0077181722 -0.0036048535 1.1857278e-22 0.0019321736 -5.5549962e-23 3.7979672e-41)
(3.3874947e-05 -4.3966941e-05 -1.7584833e-22 6.4984167e-05 1.4279207e-22 2.0313261e-39)
(0.0002368161 -0.00031743739 -1.9490017e-22 0.00043184828 1.9773832e-22 1.6190743e-39)
(0.00050452172 -0.00065257581 4.8972004e-22 0.00085032868 -6.1969048e-22 7.3602001e-40)
(0.00092001728 -0.0010464793 7.4847039e-22 0.0012072735 -7.7577238e-22 3.3934631e-39)
(0.0014218884 -0.0014529147 9.7786708e-24 0.0015146341 -8.8088314e-24 6.7401114e-43)
(0.0019883293 -0.0018517483 -2.0303521e-21 0.0017685375 1.6760903e-21 1.9824409e-38)
(0.00260471 -0.0022310321 -7.922932e-22 0.0019697795 6.7928359e-22 2.8131957e-40)
(0.0032509177 -0.0025819745 6.1758683e-22 0.0021247429 -4.166069e-22 2.1758491e-39)
(0.0039054067 -0.0028984059 7.0653305e-22 0.0022403205 -4.7477262e-22 1.3301374e-39)
(0.0045471247 -0.0031760359 -6.930958e-22 0.0023224507 3.8574474e-22 3.6530812e-39)
(0.0051555744 -0.0034118666 -2.028529e-21 0.0023761455 1.2816681e-21 5.3171518e-39)
(0.0057111037 -0.0036038611 1.3323772e-21 0.0024055798 -8.0845528e-22 2.1857193e-39)
(0.0061954773 -0.0037507479 7.9296215e-22 0.0024141698 -4.1358663e-22 2.6217683e-39)
(0.0065924594 -0.0038518956 -1.096466e-21 0.0024046805 6.0580846e-22 2.1618541e-39)
(0.0068882812 -0.0039072301 4.8070542e-22 0.0023793584 -2.7818109e-22 1.4458984e-40)
(0.0070721407 -0.0039171933 7.968698e-22 0.0023400361 -4.1098356e-22 1.6104776e-39)
(0.0071380188 -0.0038828276 3.0291608e-22 0.0022879243 -1.7133789e-22 5.4655599e-41)
(0.0070860047 -0.0038060812 -5.182331e-22 0.0022238342 3.2197561e-22 6.8774079e-41)
(0.0069053507 -0.0036908201 -1.1926045e-22 0.0021542289 3.8225297e-23 3.9919017e-40)
(0.0065639763 -0.0035486905 6.7831518e-22 0.0020989502 -3.938037e-22 1.6077939e-40)
(5.1889266e-05 -6.024565e-05 -5.287409e-24 7.6219542e-05 -5.4698006e-24 3.7695009e-41)
(0.00035198761 -0.00041874865 -7.0707591e-22 0.0005031228 7.4813751e-22 5.3195155e-39)
(0.00074075842 -0.00085076357 -5.6479393e-22 0.00098395539 6.0610724e-22 8.0507828e-39)
(0.0012891376 -0.0013296215 1.0571571e-21 0.0013894708 -1.0138516e-21 4.7033328e-39)
(0.0019176891 -0.0018060509 8.7983996e-22 0.0017330898 -8.6426127e-22 1.9969512e-39)