/*--------------------------------*- C++ -*----------------------------------*\
  =========                 |
  \\      /  F ield         | OpenFOAM: The Open Source CFD Toolbox
   \\    /   O peration     | Website:  https://openfoam.org
    \\  /    A nd           | Version:  6
     \\/     M anipulation  |
\*---------------------------------------------------------------------------*/
FoamFile
{
    version     2.0;
    format      ascii;
    class       surfaceScalarField;
    location    "11";
    object      phi_0;
}
// * * * * * * * * * * * * * * * * * * * * * * * * * * * * * * * * * * * * * //

dimensions      [0 3 -1 0 0 0 0];

internalField   nonuniform List<scalar> 
18180
(
0.00036231988
-0.0002322974
-0.0001300224
0.0014823172
-0.0016638542
0.00054385698
0.0034251897
-0.0039507962
0.0020079238
0.0062548317
-0.0070038506
0.0041742087
0.010032455
-0.010766835
0.0069892123
0.014813402
-0.015193979
0.010413033
0.020643209
-0.020243776
0.014413968
0.027553361
-0.025875682
0.01896553
0.035556963
-0.032046451
0.02404285
0.044644749
-0.038707161
0.029619375
0.054781895
-0.045801397
0.035664251
0.065906162
-0.053264606
0.042140339
0.077927888
-0.061024639
0.049002914
0.090732316
-0.069003488
0.056199059
0.10418479
-0.077120202
0.063667724
0.1181392
-0.085294954
0.071340545
0.13244896
-0.093453934
0.079144174
0.14698409
-0.10153443
0.086999301
0.1616978
-0.10950407
0.09479035
-0.11735272
0.10231804
0.17673248
0.00044532346
-0.0006776208
0.0017976987
-0.0030162294
0.0041116089
-0.0062647063
0.0074384709
-0.010330713
0.011823341
-0.015151705
0.017299806
-0.020670445
0.023884634
-0.026828603
0.031572687
-0.033563735
0.040332581
-0.040806345
0.050103663
-0.048478243
0.060794895
-0.056492629
0.072286081
-0.064755791
0.08443164
-0.073170198
0.097066869
-0.081638717
0.1100162
-0.090069535
0.12310254
-0.098381293
0.13615633
-0.10650773
0.14902429
-0.11440238
0.16157027
-0.12205004
-0.12939365
0.1736112
0.00053233242
-0.0012099532
0.0021189814
-0.0046028783
0.0047962617
-0.0089419866
0.0085950313
-0.014129482
0.013534658
-0.020091332
0.019616106
-0.026751892
0.026815745
-0.034028242
0.035080537
-0.041828527
0.044325214
-0.050051022
0.054432071
-0.058585099
0.06525376
-0.067314318
0.076619138
-0.07612117
0.088341756
-0.084892816
0.1002302
-0.09352716
0.11209911
-0.10193844
0.12377941
-0.1100616
0.13512635
-0.11785466
0.14602332
-0.12529935
0.15637491
-0.13240164
-0.13913455
0.16611581
0.00062106692
-0.00183102
0.002436485
-0.0064182963
0.0054551308
-0.011960632
0.0096776907
-0.018352042
0.015087363
-0.025501005
0.021641704
-0.033306233
0.029266805
-0.041653343
0.037854392
-0.050416113
0.047262373
-0.059459003
0.057319187
-0.068641913
0.067831731
-0.077826862
0.078596161
-0.086885599
0.089410364
-0.095707019
0.10008662
-0.10420341
0.11046286
-0.11231468
0.12041124
-0.12000998
0.12984303
-0.12728646
0.13870925
-0.13416556
0.14699546
-0.14068785
-0.14687695
0.15473786
0.00070780307
-0.0025388231
0.0027357918
-0.008446285
0.006055534
-0.015280374
0.01062753
-0.022924038
0.016388866
-0.031262341
0.023245
-0.040162366
0.031065979
-0.049474322
0.03968725
-0.059037384
0.048915174
-0.068686928
0.058536804
-0.078263543
0.068332781
-0.087622839
0.078091713
-0.096644531
0.087624127
-0.10523943
0.096774153
-0.11335344
0.10542753
-0.12096806
0.11351516
-0.12809761
0.12101227
-0.13478357
0.1279338
-0.14108709
0.13432694
-0.14708099
-0.15282805
0.14027804
0.00078798084
-0.0033268039
0.0029999
-0.010658204
0.0065606335
-0.018841108
0.011381493
-0.027744897
0.0173458
-0.037226647
0.024302274
-0.04711884
0.03206507
-0.057237119
0.040419749
-0.067392062
0.049134389
-0.077401568
0.057974287
-0.087103441
0.066718055
-0.096366607
0.075172726
-0.1050992
0.083185701
-0.11325241
0.090652038
-0.12081977
0.097516397
-0.12783242
0.10376996
-0.13435118
0.10944344
-0.14045705
0.11459774
-0.14624139
0.11931414
-0.1517974
-0.15720739
0.12369349
0.0008566326
-0.0041834364
0.0032109041
-0.013012476
0.0069333452
-0.022563549
0.011879589
-0.032691141
0.017875449
-0.043222507
0.02471373
-0.053957122
0.032159483
-0.064682871
0.039961653
-0.075194232
0.047869095
-0.085309011
0.055648212
-0.094882558
0.063099249
-0.10381764
0.070068662
-0.11206862
0.076455877
-0.11963962
0.08221386
-0.12657776
0.087344094
-0.13296265
0.091887411
-0.13889449
0.095912647
-0.14448229
0.09950515
-0.14983389
0.10275687
-0.15504911
-0.16021316
0.10576264
0.00090851193
-0.0050919483
0.0033509832
-0.015454947
0.0071391497
-0.026351715
0.01207038
-0.037622371
0.017914276
-0.049066403
0.024414466
-0.060457312
0.031299633
-0.071568037
0.03830013
-0.08219473
0.045166873
-0.092175753
0.051688924
-0.10140461
0.057706613
-0.10983533
0.0631182
-0.1174802
0.067879503
-0.12440093
0.071997322
-0.13069558
0.07551847
-0.1364838
0.078516726
-0.14189275
0.081079988
-0.14704555
0.083299422
-0.15205333
0.0852617
-0.15701139
-0.16199704
0.087045583
0.00093718951
-0.0060291377
0.0034023539
-0.017920111
0.0071482241
-0.030097586
0.01191578
-0.042389927
0.017424828
-0.054575451
0.023381663
-0.066414147
0.029495299
-0.077681674
0.035497164
-0.088196594
0.041159987
-0.097838576
0.046312089
-0.10655671
0.050844521
-0.11436777
0.054710323
-0.121346
0.057916844
-0.12760745
0.060513282
-0.13329201
0.062576102
-0.13854662
0.064194925
-0.14351157
0.065460778
-0.1483114
0.066457892
-0.15305044
0.067259181
-0.15781268
-0.16266233
0.067924465
0.00093946554
-0.0069686032
0.0033573513
-0.020337997
0.0069494373
-0.033689671
0.011406168
-0.046846657
0.016408608
-0.059577891
0.021641484
-0.071647023
0.026812888
-0.082853079
0.031674228
-0.093057934
0.036035924
-0.10220027
0.039775624
-0.11029641
0.042837752
-0.11742989
0.045225291
-0.12373354
0.046986183
-0.12936834
0.048197379
-0.13450321
0.048949423
-0.13929866
0.049333718
-0.14389587
0.049433615
-0.1484113
0.049319587
-0.15293641
0.049047809
-0.1575409
0.048660104
-0.16227462
-0.00024024984
0.00024024973
1.7452259e-10
-0.00080261936
0.00056236907
5.3055073e-10
-0.0015885025
0.00078588234
8.8688461e-10
-0.0025235828
0.00093507916
1.2555329e-09
-0.0035486296
0.0010250453
1.6386535e-09
-0.0046154869
0.0010668554
2.0277225e-09
-0.0056841984
0.0010687092
2.4260932e-09
-0.0067206004
0.0010363993
2.8207776e-09
-0.0076944051
0.00097380164
3.2214929e-09
-0.0085776592
0.0008832507
3.6081549e-09
-0.0093434547
0.0007657917
4.0004322e-09
-0.0099648179
0.0006213591
4.366234e-09
-0.010413736
0.0004489136
4.7339054e-09
-0.010660299
0.00024655843
5.0558293e-09
-0.010671994
1.1690105e-05
5.3723825e-09
-0.010413296
-0.0002587038
5.6094798e-09
-0.0098455645
-0.00056773678
5.8223366e-09
-0.0089260868
-0.00091948344
5.9207584e-09
-0.007606832
-0.0013192604
5.9770608e-09
-0.001754444
-0.0058523938
5.9039302e-09
-0.00022105957
0.00046130936
-0.00073340729
0.0010747169
-0.0014405725
0.0014930476
-0.0022683382
0.0017628449
-0.0031563915
0.0019130987
-0.0040545626
0.0019650266
-0.0049200816
0.0019342283
-0.0057152565
0.0018315742
-0.0064055998
0.0016641451
-0.0069583064
0.0014359574
-0.0073409736
0.0011484591
-0.0075204915
0.00080087716
-0.0074620641
0.00039048642
-0.0071283366
-8.7168819e-05
-0.0064786712
-0.00063797508
-0.0054686815
-0.0012686932
-0.00405009
-0.0019863281
-0.0021704592
-0.002799114
0.00022729716
-0.0037170166
-0.0047123896
0.0031852429
-0.00018305361
0.00064436302
-0.0005963801
0.0014880434
-0.0011482832
0.0020449507
-0.0017653692
0.002379931
-0.00238578
0.0025335096
-0.0029559775
0.0025352243
-0.0034283076
0.0024065585
-0.0037588856
0.0021621524
-0.0039058629
0.0018111225
-0.0038279979
0.0013580925
-0.0034834609
0.00080392224
-0.002828794
0.00014621044
-0.0018180111
-0.00062029634
-0.00040184631
-0.0015033333
0.0014729324
-0.0025127537
0.0038640914
-0.0036598519
0.0068341304
-0.0049563671
0.010449765
-0.0064147486
0.014781502
-0.0080487533
-0.0098118332
0.019880946
-0.00013014426
0.00077450734
-0.00040427229
0.0017621715
-0.00073696545
0.002377644
-0.001056086
0.0026990517
-0.0012979618
0.0027753855
-0.0014048854
0.002642148
-0.0013231239
0.0023247971
-0.0010011292
0.0018401578
-0.00038806472
0.0011980581
0.00056739871
0.00040262923
0.0019180664
-0.00054674537
0.0037190012
-0.0016547241
0.0060281394
-0.0029294344
0.0089067857
-0.0043819795
0.012420045
-0.0060260132
0.016637298
-0.0078771039
0.021632506
-0.0099515756
0.02748362
-0.012265862
0.034271734
-0.014836867
-0.017596103
0.042056004
-6.7179185e-05
0.00084168658
-0.0001729154
0.0018679078
-0.00023824833
0.002442977
-0.00019238324
0.0026531867
3.023074e-05
0.0025527716
0.00049164384
0.002180735
0.0012518778
0.0015645632
0.0023702414
0.00072179431
0.0039064322
-0.00033813256
0.0059213837
-0.0016123221
0.0084778193
-0.0031031809
0.011640544
-0.0048174488
0.015476562
-0.0067654517
0.020055027
-0.0089604443
0.025447074
-0.011418061
0.031725774
-0.014155804
0.038966391
-0.017192193
0.047246416
-0.020545887
0.056645936
-0.024236386
-0.028173244
0.067223077
1.2212937e-06
0.00084046535
8.2307814e-05
0.0017868213
0.00031673423
0.0022085507
0.00077416117
0.0021957598
0.0015218981
0.0018050348
0.0026259175
0.0010767157
0.0041517659
3.8714949e-05
0.0061653904
-0.0012918301
0.008733685
-0.0029064271
0.011924654
-0.0048032909
0.015807352
-0.0069858788
0.02045157
-0.0094616665
0.02592717
-0.012241052
0.032303142
-0.015336416
0.039646469
-0.018761388
0.048021149
-0.022530483
0.057488003
-0.026659047
0.068105744
-0.031163628
0.079934504
-0.036065146
-0.041256539
0.0930178
7.1624841e-05
0.00076884057
0.00034946091
0.0015089853
0.00090309889
0.0016549128
0.0018013932
0.0012974656
0.0031130385
0.00049338961
0.0049070073
-0.00071725301
0.0072528741
-0.0023071518
0.01022085
-0.004259806
0.013881529
-0.0065671062
0.018305407
-0.0092271683
0.02356199
-0.012242462
0.029718508
-0.015618184
0.036838245
-0.01936079
0.04497854
-0.02347671
0.054188536
-0.027971384
0.064507067
-0.032849015
0.075961654
-0.038113634
0.088570265
-0.043772239
0.10234932
-0.049844205
-0.056223277
0.11731606
0.00014224847
0.00062659215
0.00062155049
0.0010296834
0.0015051593
0.00077130398
0.0028612407
-5.8615701e-05
0.0047591573
-0.0014045269
0.0072692835
-0.0032273791
0.010462448
-0.0055003165
0.014409186
-0.0082065441
0.019178653
-0.011336573
0.024837069
-0.014885584
0.031445754
-0.018851147
0.039058755
-0.023231184
0.047720121
-0.028022156
0.05746094
-0.03321753
0.068296302
-0.038806745
0.080222552
-0.044775264
0.093215869
-0.051106951
0.10723407
-0.057790443
0.12222622
-0.064836347
-0.072166336
0.13816928
0.00021270575
0.00041388647
0.0008960079
0.00034638132
0.0021155519
-0.00044823996
0.0039382719
-0.0018813356
0.0064325477
-0.0038988025
0.0096672414
-0.0064620728
0.013710318
-0.0095433932
0.018627045
-0.013123271
0.024477731
-0.017187259
0.031315032
-0.021722884
0.039180891
-0.026717006
0.048103226
-0.03215352
0.058092514
-0.038011444
0.069138416
-0.044263431
0.081206618
-0.050874948
0.09423601
-0.057804656
0.10813701
-0.065007956
0.12279352
-0.072446946
0.13807477
-0.080117603
-0.088008546
0.15391698
0.00028386411
0.0011741025
0.0027337863
0.0050266595
0.0081170693
0.012068029
0.016938604
0.022780864
0.029636455
0.037532946
0.046480191
0.05646701
0.06745848
0.079394108
0.092186884
0.10572277
0.11985899
0.13441135
0.14908409
0.16339359
-0.0029961567
-0.0028562443
7.5955951e-09
0.00041293364
-0.0034090971
7.0887472e-09
0.0043888907
-0.0039759634
6.5658836e-09
0.0088958113
-0.0045069263
6.0660138e-09
0.013936278
-0.0050404726
5.4876539e-09
0.019523888
-0.0055876151
4.7455004e-09
0.025664887
-0.0061410036
4.0021712e-09
0.032359236
-0.0066943517
3.0773992e-09
0.039601291
-0.0072420571
1.9300864e-09
0.0473772
-0.0077759088
5.3812638e-10
0.055662643
-0.0082854423
-9.9252891e-10
0.064421747
-0.0087591013
-2.6384871e-09
0.073606549
-0.0091847976
-4.2971187e-09
0.083156914
-0.0095503593
-5.9487668e-09
0.093001036
-0.0098441147
-7.5214325e-09
0.10305648
-0.010055433
-9.0044872e-09
0.11323157
-0.010175086
-1.0362438e-08
0.12342698
-0.010195399
-1.1582042e-08
0.13353721
-0.01011021
-1.2659873e-08
0.14345194
-0.0099147199
-1.3571699e-08
0.1530574
-0.0096054442
-1.4338563e-08
0.16223798
-0.0091805693
-1.4913015e-08
0.17087902
-0.0086410197
-1.5335243e-08
0.17887139
-0.007992354
-1.552886e-08
0.18611859
-0.0072471875
-1.555729e-08
0.19254588
-0.0064272732
-1.5325599e-08
0.19810983
-0.0055639364
-1.4927321e-08
0.20280553
-0.0046956912
-1.4273768e-08
0.20666837
-0.0038628272
-1.3486171e-08
0.20976869
-0.0031003061
-1.2515126e-08
0.21220027
-0.00243157
-1.1486181e-08
0.21406607
-0.0018657805
-1.0388912e-08
0.21546545
-0.0013993712
-9.3045742e-09
0.21648604
-0.0010205814
-8.2376298e-09
0.2172005
-0.00071446075
-7.2036845e-09
0.21766689
-0.00046638197
-6.2063689e-09
0.21793052
-0.00026361934
-5.227662e-09
0.2180262
-9.5680753e-05
-4.2879831e-09
0.21798041
4.5797682e-05
-3.3772645e-09
0.21781317
0.0001672443
-2.5077784e-09
0.21753974
0.00027342322
-1.6727244e-09
0.21717195
0.00036779854
-8.8510818e-10
0.21671904
0.0004529058
-1.5569903e-10
0.21618838
0.00053066507
5.006611e-10
0.21558585
0.00060252603
1.0715973e-09
0.21491612
0.00066973117
1.560085e-09
0.21418317
0.00073294154
1.9607829e-09
0.21338945
0.00079372177
2.276121e-09
0.21253991
0.00084953384
2.512061e-09
0.00091678551
2.5982103e-09
0.0059824477
-0.0056534489
0.0092978923
-0.0067245415
0.01313722
-0.0078152911
0.017457059
-0.0088267648
0.022264175
-0.0098475889
0.027576243
-0.010899684
0.033400935
-0.011965695
0.039739566
-0.013032983
0.04658876
-0.014091251
0.053937589
-0.015124737
0.061765239
-0.016113092
0.070040016
-0.017033878
0.078718837
-0.017863619
0.087747113
-0.018578635
0.097059185
-0.019156187
0.1065793
-0.019575549
0.11622295
-0.01981873
0.12589832
-0.019870771
0.13550774
-0.019719633
0.14494888
-0.019355855
0.15411579
-0.018772356
0.16290022
-0.017965001
0.17119378
-0.01693458
0.1788919
-0.015690475
0.18590022
-0.014255511
0.19214325
-0.012670297
0.1975738
-0.010994494
0.20218068
-0.0093025652
0.20599128
-0.0076734297
0.20906749
-0.0061765193
0.21149525
-0.0048593266
0.21337101
-0.0037415374
0.21478931
-0.0028176706
0.21583448
-0.0020657554
0.21657715
-0.0014571267
0.21707417
-0.00096340308
0.21737024
-0.00055969515
0.21749991
-0.00022535099
0.21748953
5.6179338e-05
0.21735911
0.00029766623
0.21712394
0.0005085983
0.21679585
0.00069588671
0.21638416
0.00086459385
0.21589627
0.0010185542
0.21533814
0.0011606615
0.21471447
0.0012934006
0.21402933
0.0014180815
0.21328519
0.0015378565
0.21248716
0.0016475666
0.001780176
0.022521547
-0.0082940499
0.025607571
-0.0098105647
0.029138359
-0.011346079
0.033063407
-0.012751813
0.037396154
-0.014180336
0.042160377
-0.015663907
0.047366474
-0.017171792
0.053018492
-0.018685001
0.059117181
-0.02018994
0.065656939
-0.021664495
0.072623393
-0.023079546
0.07999248
-0.024402965
0.087729946
-0.025601085
0.095791138
-0.026639828
0.10412132
-0.027486372
0.11265653
-0.028110752
0.12132474
-0.028486949
0.13004732
-0.028593349
0.13874025
-0.028412558
0.14731517
-0.027930777
0.1556801
-0.027137281
0.16374002
-0.02602493
0.17139816
-0.024592712
0.17855859
-0.02285091
0.18513139
-0.020828309
0.19104019
-0.018579098
0.19623137
-0.016185676
0.20068234
-0.013753532
0.20440584
-0.011396933
0.20744802
-0.0092186985
0.2098801
-0.007291407
0.21178634
-0.0056477785
0.21325218
-0.0042835119
0.21435578
-0.0031693507
0.2151639
-0.002265251
0.21573123
-0.0015307332
0.21610135
-0.00092981168
0.2163083
-0.0004323047
0.2163783
-1.3812818e-05
0.21633135
0.00034461705
0.21618281
0.0006571312
0.21594464
0.00093406022
0.21562625
0.0011829795
0.21523518
0.0014096292
0.2147775
0.0016183404
0.21425806
0.0018128389
0.21368108
0.0019950606
0.21304915
0.002169786
0.21236763
0.0023290916
0.0025227519
0.044392133
-0.010630179
0.047081484
-0.012499915
0.050113079
-0.014377674
0.053437274
-0.016076007
0.057076976
-0.017820039
0.06106113
-0.019648062
0.065403238
-0.0215139
0.070111098
-0.023392861
0.075190389
-0.025269231
0.080641851
-0.027115957
0.086459024
-0.028896718
0.092627304
-0.030571245
0.099123355
-0.032097136
0.10591478
-0.033431251
0.11296024
-0.034531834
0.12021011
-0.035360625
0.12760753
-0.035884367
0.13508967
-0.03607549
0.142589
-0.035911889
0.15003419
-0.03537597
0.15735054
-0.034453626
0.16445992
-0.033134314
0.17128089
-0.031413684
0.17772975
-0.029299765
0.18372372
-0.026822283
0.18918699
-0.024042367
0.19405905
-0.02105774
0.19830358
-0.017998057
0.20191468
-0.015008038
0.20491786
-0.012221873
0.20736461
-0.0097381544
0.20932255
-0.0076057174
0.21086452
-0.0058254874
0.21206003
-0.0043648636
0.21297042
-0.0031756385
0.21364724
-0.0022075522
0.21413247
-0.0014150424
0.21445947
-0.00075930721
0.21465425
-0.00020858785
0.21473685
0.00026201874
0.21472276
0.00067122031
0.21462409
0.0010327283
0.21445046
0.0013566135
0.21420957
0.0016505118
0.21390773
0.0019201796
0.21354999
0.0021705832
0.2131408
0.0024042532
0.21268293
0.0026276526
0.21218213
0.0028298894
0.0030779114
0.069039973
-0.012447075
0.071126342
-0.014586284
0.073450958
-0.01670229
0.075974254
-0.018599303
0.078730809
-0.020576594
0.081751409
-0.022668662
0.085051652
-0.024814143
0.088643326
-0.026984534
0.092536562
-0.029162467
0.096737765
-0.03131716
0.10124807
-0.033407019
0.10606225
-0.035385431
0.11116796
-0.03720284
0.11654516
-0.038808459
0.1221661
-0.040152774
0.1279956
-0.041190118
0.1339919
-0.041880667
0.14010788
-0.042191469
0.14629229
-0.042096305
0.15249078
-0.041574458
0.15864621
-0.040609054
0.16469825
-0.039186355
0.17058245
-0.037297881
0.17622963
-0.034946945
0.18156694
-0.032159592
0.18652168
-0.028997113
0.19102832
-0.025564376
0.19503735
-0.022007089
0.19852341
-0.018494098
0.20148929
-0.015187755
0.20396405
-0.012212915
0.20599585
-0.0096375191
0.20764248
-0.0074721183
0.20896289
-0.0056852662
0.21001164
-0.0042243931
0.21083636
-0.0030322752
0.21147698
-0.0020556639
0.21196598
-0.0012482996
0.21232909
-0.00057170049
0.21258643
4.680123e-06
0.21275367
0.00050398251
0.21284314
0.00094325241
0.21286472
0.0013350325
0.21282639
0.0016888434
0.21273472
0.0020118524
0.21259504
0.0023102646
0.21241212
0.0025871668
0.212189
0.0028507756
0.21193193
0.0030869573
0.0033803171
0.094050379
-0.013479654
0.095298972
-0.015834877
0.096704468
-0.018107786
0.098246039
-0.020140874
0.099967379
-0.022297934
0.10189576
-0.024597043
0.10404684
-0.026965226
0.10643543
-0.029373122
0.1090744
-0.031801436
0.11197371
-0.034216473
0.11514012
-0.036573422
0.11857602
-0.038821329
0.12227834
-0.040905167
0.12623785
-0.042767971
0.13043874
-0.044353655
0.13485859
-0.045609974
0.13946896
-0.046491036
0.14423633
-0.046958841
0.14912346
-0.046983434
0.15409056
-0.046541561
0.15909591
-0.045614397
0.16409535
-0.044185803
0.16904085
-0.042243378
0.17387844
-0.039784532
0.17854715
-0.036828302
0.18298038
-0.033430344
0.18711086
-0.029694857
0.19087886
-0.025775093
0.19424148
-0.021856714
0.19717952
-0.018125789
0.1996992
-0.0147326
0.20182818
-0.011766502
0.20360788
-0.0092518125
0.20508545
-0.0071628335
0.20630773
-0.0054466797
0.20731774
-0.0040422807
0.20815295
-0.0028908732
0.20884475
-0.0019401055
0.2094186
-0.0011455482
0.20989467
-0.00047139342
0.21028888
0.00010977603
0.21061386
0.00061827755
0.21087979
0.0010691033
0.21109499
0.0014736408
0.21126638
0.001840456
0.21139966
0.0021769922
0.21149998
0.0024868392
0.2115707
0.002780057
0.21161872
0.0030389371
0.0033663371
0.11732466
-0.013488253
0.11752376
-0.01603398
0.11783051
-0.018414529
0.11825798
-0.020568343
0.11885034
-0.022890297
0.11962434
-0.025371045
0.12059371
-0.027934591
0.12177428
-0.030553702
0.12317919
-0.033206341
0.12481922
-0.035856506
0.12670385
-0.038458048
0.12884023
-0.040957714
0.1312319
-0.04329683
0.13387774
-0.045413816
0.13677134
-0.047247256
0.13990052
-0.048739148
0.14324742
-0.04983794
0.14678928
-0.050500698
0.15049964
-0.050693794
0.15434981
-0.050391738
0.15830991
-0.049574495
0.16234874
-0.048224634
0.16643224
-0.046326876
0.17052063
-0.043872923
0.17456553
-0.040873202
0.17850886
-0.037373675
0.18228535
-0.033471345
0.18582929
-0.029319038
0.18908414
-0.025111564
0.19201162
-0.021053266
0.19459681
-0.017317786
0.1968474
-0.014017099
0.1987883
-0.01119271
0.20045436
-0.0088288932
0.20188411
-0.0068764299
0.20311544
-0.0052736091
0.20418304
-0.0039584772
0.20511706
-0.0028741227
0.20594258
-0.0019710663
0.20667987
-0.0012086832
0.20734512
-0.00055547921
0.20795134
1.2063764e-05
0.20850908
0.00051135889
0.20902707
0.00095564861
0.20951266
0.0013548722
0.20997193
0.0017177207
0.21041055
0.002048219
0.21083221
0.0023583916
0.21124463
0.0026265242
0.0029744773
0.13705357
-0.012372547
0.13609985
-0.015080262
0.13521887
-0.017533544
0.13449029
-0.019839768
0.13394759
-0.022347596
0.13359058
-0.025014029
0.13342984
-0.027773858
0.13347977
-0.030603629
0.13375121
-0.033477778
0.13425346
-0.036358761
0.13499597
-0.039200552
0.13598767
-0.041949418
0.13723578
-0.044544942
0.13874456
-0.046922594
0.14051423
-0.049016931
0.14254017
-0.050765087
0.1448125
-0.052110261
0.14731638
-0.053004581
0.15003312
-0.053410532
0.15294169
-0.053300314
0.15602028
-0.052653085
0.15924682
-0.051451172
0.16259784
-0.049677897
0.16604542
-0.047320502
0.16955309
-0.044380869
0.17307259
-0.040893177
0.17654385
-0.036942609
0.17989967
-0.032674857
0.18307469
-0.028286584
0.18601587
-0.023994443
0.18869031
-0.019992228
0.19108772
-0.016414507
0.19321734
-0.013322331
0.19510192
-0.010713467
0.19677146
-0.0085459729
0.19825844
-0.006760592
0.19959451
-0.0052945467
0.20080839
-0.0040879963
0.20192472
-0.0030873986
0.20296388
-0.0022478442
0.20394239
-0.0015339856
0.20487364
-0.00091919347
0.20576867
-0.00038366771
0.20663665
8.7671753e-05
0.2074854
0.00050611942
0.20832151
0.00088161437
0.20915118
0.0012185466
0.20997853
0.0015310373
0.21081218
0.0017928757
0.0021457987
0.15180287
-0.010258432
0.14978238
-0.013059775
0.14776476
-0.015515921
0.14596076
-0.018035765
0.14438376
-0.020770601
0.14301599
-0.023646258
0.14186329
-0.026621158
0.14093529
-0.029675623
0.140239
-0.032781496
0.13978139
-0.035901151
0.13957054
-0.038989695
0.13961539
-0.041994275
0.1399249
-0.044854453
0.14050669
-0.047504385
0.14136569
-0.049875928
0.14250287
-0.051902269
0.14391442
-0.053521803
0.14559148
-0.054681651
0.14752091
-0.055339962
0.14968673
-0.055466125
0.152072
-0.055038359
0.1546602
-0.054039374
0.15743482
-0.052452515
0.1603767
-0.050262381
0.16345945
-0.047463622
0.16664468
-0.044078402
0.16987954
-0.040177474
0.1730991
-0.035894411
0.17623388
-0.031421372
0.17922074
-0.026981305
0.18201272
-0.022784204
0.18458426
-0.018986044
0.18693061
-0.01566868
0.18906317
-0.012846035
0.19100371
-0.010486503
0.19277921
-0.0085360965
0.19441815
-0.0069334915
0.19594772
-0.0056175657
0.19739211
-0.0045317823
0.19877178
-0.0036275204
0.20010364
-0.0028658422
0.20140156
-0.0022171082
0.20267705
-0.0016591663
0.20393985
-0.0011751196
0.2051983
-0.00075233254
0.20645953
-0.00037961878
0.20773038
-5.2303374e-05
0.20901543
0.00024599239
0.2103243
0.00048399742
0.00082431957
0.16106702
-0.0079318641
0.15810859
-0.01010134
0.15518216
-0.012589494
0.15250379
-0.015357392
0.15006457
-0.018331381
0.14785769
-0.021439378
0.14588751
-0.024650979
0.14415768
-0.027945797
0.14267237
-0.031296183
0.14143752
-0.034666303
0.14046063
-0.038012808
0.13975067
-0.041284313
0.1393177
-0.044421483
0.13917179
-0.04735847
0.13932145
-0.050025588
0.1397721
-0.052352927
0.14052478
-0.054274476
0.14157533
-0.055732205
0.14291465
-0.056679279
0.14452987
-0.05708135
0.14640651
-0.056914991
0.14853044
-0.056163312
0.15088869
-0.054810762
0.15346758
-0.052841269
0.15624835
-0.050244394
0.15920144
-0.047031488
0.16228205
-0.043258084
0.16542999
-0.03904236
0.16857539
-0.034566763
0.17164898
-0.030054895
0.17459338
-0.025728606
0.17737065
-0.021763319
0.17996405
-0.01826208
0.1823749
-0.015256884
0.18461735
-0.012728954
0.18671327
-0.010632013
0.18868805
-0.0089082669
0.19056739
-0.0074969084
0.19237507
-0.0063394601
0.19413173
-0.0053841852
0.19585473
-0.0045888372
0.19755848
-0.0039208578
0.19925509
-0.0033557825
0.20095487
-0.0028748952
0.20266679
-0.0024642588
0.20439857
-0.0021113975
0.20615778
-0.0018115066
0.20794934
-0.0015455715
0.20978446
-0.0013511217
-0.0010424197
0.20698699
-0.0042827704
-0.21063609
0.2040812
-0.0071955491
0.2015853
-0.010093588
0.19934261
-0.01311471
0.19730246
-0.016291223
0.19542857
-0.019565497
0.19369318
-0.022915584
0.19207639
-0.026329006
0.19056304
-0.029782838
0.18914092
-0.033244182
0.18780034
-0.036672227
0.1865343
-0.040018267
0.18533872
-0.04322591
0.18421272
-0.046232467
0.18315855
-0.04897142
0.18218136
-0.051375736
0.1812886
-0.053381716
0.18048933
-0.054932933
0.17979354
-0.055983493
0.17921176
-0.056499564
0.17875489
-0.056458125
0.17843431
-0.055842732
0.17826169
-0.054638136
0.17824825
-0.052827831
0.17840321
-0.050399353
0.17873126
-0.047359545
0.17922956
-0.043756379
0.17988485
-0.039697652
0.18067215
-0.035354064
0.18155594
-0.030938683
0.18249415
-0.026666812
0.18344388
-0.022713056
0.18436718
-0.019185378
0.1852351
-0.016124801
0.1860294
-0.013523258
0.18674191
-0.011344523
0.18737225
-0.0095386048
0.18792502
-0.0080496812
0.1884073
-0.0068217428
0.18882688
-0.0058037626
0.18919128
-0.0049532342
0.18950735
-0.0042369282
0.18978119
-0.0036296205
0.19001812
-0.0031118293
0.19022291
-0.0026690461
0.19039945
-0.0022879408
0.19055206
-0.0019641174
0.19068193
-0.0016754432
0.19079866
-0.0014678453
-0.0011294531
0.23336031
-0.0016908559
-0.23595223
0.23072155
-0.0045567874
0.22831422
-0.0076862539
0.22600801
-0.010808499
0.22374989
-0.014033104
0.22155374
-0.017369353
0.21942344
-0.020785281
0.21735258
-0.024258141
0.21533588
-0.027766139
0.21337005
-0.031278353
0.21145268
-0.034754863
0.20958287
-0.038148453
0.20776214
-0.041405183
0.20599501
-0.044465334
0.20428908
-0.047265493
0.20265489
-0.049741539
0.20110533
-0.051832163
0.19965498
-0.053482578
0.19831923
-0.054647747
0.19711378
-0.055294116
0.19605435
-0.055398689
0.19515669
-0.054945075
0.19443663
-0.05391808
0.19390962
-0.052300818
0.19358944
-0.050079177
0.19348592
-0.04725602
0.19360155
-0.043872012
0.19392791
-0.040024008
0.19444305
-0.03586921
0.19511164
-0.031607265
0.19588835
-0.027443523
0.19672403
-0.023548743
0.19757251
-0.020033851
0.198396
-0.01694829
0.19916797
-0.014295236
0.19987322
-0.012049772
0.20050589
-0.010171268
0.20106662
-0.0086104104
0.20155982
-0.0073149473
0.20199159
-0.0062355326
0.20236842
-0.0053300634
0.20269656
-0.0045650654
0.20298175
-0.0039148141
0.20322915
-0.0033592335
0.20344343
-0.00288332
0.20362852
-0.0024730287
0.20378861
-0.0021242069
0.20392533
-0.001812172
0.20404747
-0.0015899828
-0.0012214398
0.25812927
0.00038024973
-0.26020037
0.25594404
-0.0023715573
0.25373187
-0.0054740843
0.25151118
-0.0085878059
0.24924554
-0.011767469
0.24694055
-0.015064363
0.24461227
-0.018457005
0.24226803
-0.021913895
0.23991229
-0.025410404
0.23755058
-0.02891664
0.23518904
-0.032393326
0.23283467
-0.035794081
0.23049628
-0.039066798
0.22818527
-0.042154319
0.22591582
-0.044996046
0.22370483
-0.047530544
0.2215714
-0.049698733
0.21953612
-0.051447304
0.21762023
-0.052731851
0.21584485
-0.053518741
0.21423068
-0.053784512
0.21279788
-0.053512277
0.21156626
-0.052686456
0.21055508
-0.051289645
0.20978225
-0.049306347
0.20926224
-0.046736004
0.20900272
-0.043612495
0.20900039
-0.040021678
0.20923732
-0.036106143
0.20967989
-0.032049829
0.21028145
-0.028045085
0.2109885
-0.024255796
0.21174824
-0.020793585
0.21251512
-0.017715171
0.21325482
-0.015034938
0.21394511
-0.012740062
0.21457437
-0.010800532
0.21513891
-0.009174948
0.21564008
-0.0078161135
0.21608195
-0.0066774025
0.21646974
-0.0057178582
0.21680893
-0.004904252
0.21710478
-0.0042106664
0.21736219
-0.0036166405
0.21758564
-0.0031067684
0.21777908
-0.0026664759
0.21794649
-0.0022916121
0.21809011
-0.0019557921
0.21821725
-0.0017171265
-0.0013185941
0.2811573
0.0019649921
-0.28274204
0.27943712
-0.00065137911
0.27752662
-0.0035635781
0.27549679
-0.0065579828
0.27335504
-0.0096257124
0.27110081
-0.012810132
0.26874651
-0.01610271
0.26630474
-0.01947212
0.26378532
-0.022890989
0.26119878
-0.026330103
0.25855731
-0.029751853
0.25587458
-0.033111345
0.25316615
-0.036358378
0.25045011
-0.03943827
0.24774718
-0.042293119
0.24508067
-0.044864031
0.24247591
-0.047093983
0.23995958
-0.048930972
0.23755873
-0.050331001
0.23530001
-0.051260017
0.23320911
-0.051693612
0.23131065
-0.051613818
0.22962832
-0.051004129
0.22818499
-0.049846311
0.2270022
-0.048123554
0.22609853
-0.045832337
0.22548641
-0.043000376
0.22516763
-0.039702899
0.22512899
-0.036067498
0.22534013
-0.032260976
0.22575538
-0.028460331
0.22631941
-0.024819831
0.22697515
-0.021449325
0.22767108
-0.0184111
0.22836612
-0.015729979
0.22903142
-0.013405354
0.2296495
-0.011418618
0.230212
-0.0097374458
0.23071681
-0.0083209232
0.23116562
-0.0071262155
0.23156209
-0.0061143244
0.23191066
-0.0052528284
0.23221598
-0.0045159829
0.23248254
-0.0038831941
0.23271455
-0.0033387827
0.23291592
-0.0028678468
0.23309034
-0.0024660304
0.2332406
-0.0021060545
0.23337259
-0.001849114
-0.0014207795
0.30241145
0.0030757527
-0.30352221
0.30113601
0.00062406235
0.29960423
-0.0020317929
0.29787016
-0.0048239145
0.29596325
-0.0077188006
0.29388655
-0.010733432
0.29164757
-0.013863731
0.28925934
-0.017083895
0.28673445
-0.020366095
0.2840858
-0.02368146
0.2813286
-0.026994652
0.27848057
-0.030263316
0.27556199
-0.033439789
0.27259591
-0.036472198
0.26960835
-0.039305554
0.26662795
-0.041883637
0.26368552
-0.044151544
0.26081313
-0.046058588
0.25804324
-0.047561114
0.2554077
-0.048624469
0.25293703
-0.049222943
0.25066019
-0.049336977
0.24860465
-0.048948591
0.24679666
-0.04803832
0.24526106
-0.046587963
0.24402008
-0.044591353
0.24309036
-0.042070652
0.24247855
-0.039091096
0.24217656
-0.035765506
0.24215856
-0.032242974
0.24238187
-0.028683642
0.24279198
-0.025229945
0.24333018
-0.021987523
0.24394118
-0.019022098
0.24457868
-0.016367474
0.24520798
-0.014034657
0.24580601
-0.012016647
0.24635955
-0.010290987
0.24686273
-0.0088241066
0.24731452
-0.0075780072
0.2477167
-0.0065164995
0.24807246
-0.0056085889
0.2483856
-0.0048291259
0.24866009
-0.004157679
0.24889977
-0.0035784642
0.24910839
-0.0030764679
0.24928933
-0.0026469726
0.24944582
-0.0022625429
0.24958239
-0.0019856865
-0.0015277384
0.3223519
0.0037669754
-0.32304313
0.32146929
0.0015066796
0.32031935