/*--------------------------------*- C++ -*----------------------------------*\
  =========                 |
  \\      /  F ield         | OpenFOAM: The Open Source CFD Toolbox
   \\    /   O peration     | Website:  https://openfoam.org
    \\  /    A nd           | Version:  6
     \\/     M anipulation  |
\*---------------------------------------------------------------------------*/
FoamFile
{
    version     2.0;
    format      ascii;
    class       volScalarField;
    location    "11";
    object      pMean;
}
// * * * * * * * * * * * * * * * * * * * * * * * * * * * * * * * * * * * * * //

dimensions      [0 2 -2 0 0 0 0];

internalField   nonuniform List<scalar> 
9200
(
-0.57083293
-0.54972619
-0.53023264
-0.51340967
-0.4966707
-0.47985713
-0.46313388
-0.4464398
-0.42966846
-0.41274043
-0.39560179
-0.37822663
-0.36062344
-0.34283817
-0.32495618
-0.30710804
-0.28945574
-0.27214383
-0.25597208
-0.24418456
-0.59625106
-0.57284753
-0.55161202
-0.53319507
-0.51482543
-0.49634841
-0.47792418
-0.45948053
-0.44091174
-0.4221519
-0.40317168
-0.38397937
-0.36462401
-0.3451934
-0.32580876
-0.30661802
-0.28776337
-0.26933394
-0.25192908
-0.23741797
-0.62075638
-0.59522736
-0.57241198
-0.55250367
-0.5325293
-0.51232847
-0.49206082
-0.47165783
-0.4510363
-0.43016986
-0.40908087
-0.38783621
-0.36654423
-0.34534557
-0.32440047
-0.30387505
-0.28390947
-0.26457989
-0.24628903
-0.23018939
-0.64360216
-0.61612667
-0.59186576
-0.57051859
-0.54889823
-0.52683827
-0.50451396
-0.48188764
-0.45893183
-0.4356941
-0.41227909
-0.38883505
-0.36554188
-0.34259445
-0.32018486
-0.29848702
-0.27763095
-0.25767622
-0.23890849
-0.22217574
-0.6638511
-0.63468141
-0.60913937
-0.58640674
-0.56308745
-0.53902155
-0.51442882
-0.48934126
-0.46382798
-0.43804658
-0.41221001
-0.38656074
-0.36134957
-0.33681383
-0.31315916
-0.29054767
-0.26908177
-0.24879065
-0.22986789
-0.21293103
-0.68040608
-0.64988732
-0.62326908
-0.59921032
-0.57413506
-0.54791911
-0.52086997
-0.49313843
-0.46493432
-0.43655673
-0.40834182
-0.38062445
-0.35371087
-0.32785712
-0.30325622
-0.28003505
-0.25824983
-0.23788622
-0.21905393
-0.20217188
-0.69204135
-0.66061893
-0.63317703
-0.60786864
-0.58099639
-0.55251841
-0.52288456
-0.49241868
-0.46151211
-0.43062598
-0.40021948
-0.37070282
-0.34241034
-0.31558641
-0.29038411
-0.26687437
-0.2450539
-0.22485756
-0.20631559
-0.18967103
-0.69743923
-0.66567144
-0.63772644
-0.61128869
-0.58262796
-0.55184604
-0.51959619
-0.4864284
-0.45294696
-0.41978124
-0.38749851
-0.35655599
-0.32728314
-0.29988248
-0.27444437
-0.25096988
-0.22939045
-0.20958999
-0.19152463
-0.17528148
-0.69516464
-0.66362849
-0.63546908
-0.60799277
-0.57757113
-0.54453059
-0.50978846
-0.47415756
-0.43845986
-0.40347026
-0.36982574
-0.3379884
-0.30824621
-0.28073396
-0.25546536
-0.23236783
-0.21131109
-0.19213534
-0.1747306
-0.1590471
-0.68387651
-0.65301014
-0.62477375
-0.59626745
-0.5641378
-0.52901823
-0.49212937
-0.45454759
-0.41727651
-0.38117915
-0.3469011
-0.31485825
-0.28526307
-0.25816656
-0.23350431
-0.21113819
-0.19088926
-0.17256729
-0.15600492
-0.14102961
-0.37618699
-0.37548807
-0.37020126
-0.36425371
-0.35706787
-0.34852988
-0.33892932
-0.32846815
-0.3172626
-0.30541284
-0.29301411
-0.28015373
-0.26691299
-0.25336999
-0.23960133
-0.22568479
-0.21170154
-0.19772328
-0.18379774
-0.17008689
-0.38161522
-0.38021
-0.37448029
-0.36827068
-0.36089073
-0.3522213
-0.34254759
-0.3320588
-0.32086154
-0.30904918
-0.29671106
-0.28392917
-0.27078012
-0.25733744
-0.24367253
-0.22985898
-0.21598221
-0.20211124
-0.18816652
-0.17413285
-0.39209139
-0.38935338
-0.38279042
-0.3760707
-0.36831557
-0.35939106
-0.34956991
-0.33901821
-0.32782454
-0.31606855
-0.3038275
-0.29117265
-0.27817115
-0.26488781
-0.25138471
-0.237727
-0.22400453
-0.21028688
-0.19629413
-0.1816785
-0.40695627
-0.40237984
-0.3946477
-0.38717817
-0.37885481
-0.36952382
-0.35943972
-0.34873818
-0.33748336
-0.32573551
-0.31355464
-0.30099673
-0.28811563
-0.27496409
-0.26159222
-0.24805339
-0.23443861
-0.22082574
-0.20672649
-0.19134281
-0.42538264
-0.41861312
-0.40944807
-0.40100699
-0.39191508
-0.38200004
-0.37149603
-0.36050471
-0.34906222
-0.33720559
-0.32497369
-0.31240361
-0.29953278
-0.28639996
-0.27304256
-0.25950154
-0.24586508
-0.23222696
-0.2179332
-0.20167698
-0.44651531
-0.43734925
-0.42656558
-0.41695929
-0.40690296
-0.39621268
-0.38510391
-0.3736446
-0.36184138
-0.34970517
-0.33725149
-0.32449711
-0.31146207
-0.29817075
-0.284649
-0.27092679
-0.2570864
-0.24324084
-0.22863491
-0.21146499
-0.46958711
-0.45794825
-0.4454351
-0.43450914
-0.42331368
-0.41166347
-0.39975956
-0.38763687
-0.37527224
-0.36265142
-0.34976679
-0.33661476
-0.32319872
-0.30953077
-0.29562918
-0.28151891
-0.26727913
-0.25304582
-0.23802991
-0.21999214
-0.4939768
-0.47988196
-0.46559713
-0.45324889
-0.44078195
-0.42801733
-0.4151434
-0.40216604
-0.38903544
-0.37571282
-0.36216803
-0.34837817
-0.33433173
-0.32003131
-0.3054924
-0.29074387
-0.2758773
-0.26107937
-0.24561591
-0.22688852
-0.5191946
-0.50269828
-0.4866318
-0.47278942
-0.45894111
-0.44491845
-0.43090214
-0.41687296
-0.40275711
-0.38849423
-0.37403515
-0.35934164
-0.34439088
-0.32917752
-0.31371079
-0.29801329
-0.2821683
-0.26635956
-0.24988818
-0.23014716
-0.54486679
-0.52598773
-0.50809729
-0.49266173
-0.47729014
-0.46182729
-0.44644999
-0.43111951
-0.41574471
-0.4002522
-0.38458464
-0.3687017
-0.35258493
-0.33623847
-0.31968371
-0.30295271
-0.28609129
-0.26904233
-0.2507742
-0.22934762
-0.15487041
-0.13712084
-0.12021841
-0.10443855
-0.089677925
-0.075958466
-0.063371101
-0.05196196
-0.041736497
-0.032688584
-0.024801515
-0.01804089
-0.012355024
-0.0076784167
-0.0039338429
-0.0010340558
0.0011156904
0.0026146343
0.0035634946
0.0040615587
0.0042039283
0.0040790573
0.003766687
0.0033362295
0.0028456384
0.0023408247
0.0018556993
0.0014129098
0.0010252585
0.0006976502
0.00042927777
0.00021571225
5.0628346e-05
-7.2952151e-05
-0.00016187994
-0.00022245672
-0.00026025228
-0.00028006074
-0.00028592944
-0.00028122159
-0.00026869912
-0.00025057967
-0.00022869142
-0.00020426039
-0.00017892529
-0.00015160958
-0.00012901483
-9.2039531e-05
-0.00010196823
3.387187e-05
-0.15975237
-0.1410952
-0.12377142
-0.10780238
-0.092774395
-0.078756612
-0.065896536
-0.054233458
-0.043763668
-0.034483858
-0.026380293
-0.019418807
-0.013547667
-0.0087016429
-0.0048035807
-0.0017660003
0.00050626136
0.0021129988
0.003155625
0.0037342417
0.0039448612
0.0038769307
0.0036112586
0.0032183893
0.0027574568
0.0022755739
0.0018078328
0.0013779928
0.00099985077
0.00067915632
0.00041578448
0.00020583283
4.3368017e-05
-7.830422e-05
-0.00016583241
-0.00022537554
-0.00026240286
-0.00028163739
-0.00028707583
-0.00028204488
-0.00026927997
-0.00025097915
-0.00022895605
-0.00020442524
-0.00017901755
-0.00015164832
-0.00012901619
-9.2017836e-05
-0.00010191966
3.3809621e-05
-0.16889864
-0.14851891
-0.13043102
-0.11417488
-0.098682404
-0.084119408
-0.070756898
-0.058622124
-0.047693082
-0.037973071
-0.029455402
-0.022107308
-0.015877689
-0.010702452
-0.006505116
-0.0031981819
-0.00068600336
0.0011320615
0.0023586181
0.0030952588
0.0034397267
0.0034833953
0.0033091651
0.0029898102
0.0025867935
0.0021495997
0.0017156539
0.0013109116
0.00095113577
0.00064374486
0.00038995914
0.0001869118
2.9437138e-05
-8.8605662e-05
-0.00017347327
-0.00023104973
-0.00026661185
-0.00028474744
-0.00028935758
-0.00028370049
-0.00027046201
-0.00025180359
-0.00022951185
-0.00020477971
-0.000179224
-0.00015174277
-0.00012903356
-9.1980458e-05
-0.00010183017
3.3682852e-05
-0.18075577
-0.15806688
-0.13902952
-0.12255244
-0.1065542
-0.091327362
-0.077342582
-0.064616337
-0.053099012
-0.04280423
-0.033737868
-0.025871245
-0.019155608
-0.013529719
-0.008919269
-0.0052378172
-0.0023899296
-0.00027450009
0.0012121638
0.0021732871
0.0027086947
0.0029122048
0.0028694618
0.0026562266
0.0023371317
0.0019649289
0.0015802934
0.001212274
0.00087943147
0.00059158063
0.00035188902
0.00015899811
8.865681e-06
-0.00010383642
-0.00018478819
-0.00023946871
-0.00027287132
-0.00028938492
-0.00029277016
-0.00028618496
-0.00027224257
-0.00025305089
-0.00023035713
-0.00020532248
-0.00017954352
-0.00015189233
-0.00012906536
-9.192822e-05
-0.00010169199
3.3488284e-05
-0.19361792
-0.16837536
-0.14836949
-0.13185557
-0.11546302
-0.099592779
-0.084979279
-0.071643698
-0.05950211
-0.048579073
-0.038898921
-0.030441729
-0.023163913
-0.01700945
-0.011908499
-0.0077776388
-0.0045231486
-0.0020445571
-0.00023784568
0.0010013939
0.0017748937
0.0021789701
0.0023022438
0.0022238379
0.0020120435
0.0017234583
0.0014026491
0.0010824286
0.00078481429
0.00052262528
0.00030150132
0.00012202032
-1.8404128e-05
-0.000124039
-0.00019980684
-0.00025065253
-0.00028119457
-0.00029555852
-0.00029731909
-0.00028950159
-0.00027462347
-0.00025472185
-0.00023149205
-0.00020605333
-0.00017997554
-0.00015209675
-0.00012910978
-9.1862118e-05
-0.00010149441
3.3221781e-05
-0.20595233
-0.17831679
-0.15747804
-0.14114558
-0.12458214
-0.10821509
-0.093060491
-0.079179949
-0.066458943
-0.054927464
-0.044631375
-0.035565912
-0.027696863
-0.020976208
-0.015341344
-0.010714534
-0.0070059794
-0.0041175815
-0.0019463391
-0.00038764445
0.00066149042
0.0012995116
0.0016178736
0.0016990961
0.0016153037
0.0014272297
0.0011837155
0.00092178897
0.00066741084
0.00043688638
0.00023877025
7.5955802e-05
-5.2380972e-05
-0.0001492089
-0.00021851584
-0.00026458334
-0.00029156246
-0.0003032498
-0.00030298771
-0.00029363584
-0.00027759232
-0.0002568062
-0.00023290821
-0.00020696562
-0.00018051476
-0.00015235259
-0.0001291625
-9.178246e-05
-0.0001012229
3.2877966e-05
-0.21670834
-0.18723574
-0.16577934
-0.14976298
-0.13329897
-0.11668124
-0.10113545
-0.08681768
-0.073610067
-0.061539065
-0.050668624
-0.041015301
-0.03255992
-0.025265741
-0.019080222
-0.013934183
-0.00974428
-0.0064168275
-0.0038514477
-0.0019445597
-0.00059279934
0.00030382881
0.00083927059
0.0010992794
0.0011597875
0.0010857516
0.0009304738
0.00073546647
0.00053096183
0.00033710563
0.00016571057
2.2289683e-05
-9.1967209e-05
-0.00017853347
-0.00024031328
-0.0002808155
-0.0003036454
-0.00031221533
-0.00030959652
-0.0002984557
-0.00028105234
-0.00025923341
-0.00023455472
-0.00020802323
-0.00018113577
-0.00015264332
-0.00012921041
-9.1685738e-05
-0.00010085594
3.2449622e-05
-0.22534075
-0.1951981
-0.17335583
-0.15752154
-0.14134193
-0.12475577
-0.10898769
-0.094332697
-0.080727441
-0.068194191
-0.0568054
-0.04660077
-0.037581232
-0.029724461
-0.022990062
-0.017319519
-0.012638001
-0.0088579886
-0.0058831468
-0.0036120445
-0.0019417917
-0.00077145031
-4.9911991e-06
0.00044631212
0.0006620477
0.00071133075
0.00065194228
0.00052997855
0.00038011374
0.00022655055
8.4588912e-05
-3.7426179e-05
-0.0001361131
-0.00021131065
-0.00026473496
-0.00029904604
-0.00031724867
-0.00032233228
-0.00031706984
-0.00030391597
-0.00028497754
-0.00026198924
-0.00023642429
-0.00020922301
-0.00018183741
-0.00015296989
-0.00012925174
-9.1577371e-05
-0.0001003716
3.1926903e-05
-0.22988549
-0.20177439
-0.18023618
-0.16424332
-0.14841542
-0.13219699
-0.11647458
-0.10165623
-0.087793795
-0.074922398
-0.063115701
-0.052433573
-0.042900223
-0.034511544
-0.027242219
-0.021047208
-0.015863143
-0.011611519
-0.0082025994
-0.0055393079
-0.0035210575
-0.0020474053
-0.0010213067
-0.00035181257
4.3817881e-05
0.00023853924
0.00029443069
0.0002621108
0.00018074982
7.8772323e-05
-2.4774507e-05
-0.00011838994
-0.0001961534
-0.00025593536
-0.00029796967
-0.00032382416
-0.00033571062
-0.00033604763
-0.00032719853
-0.0003113235
-0.00029031687
-0.00026575728
-0.00023900365
-0.00021090595
-0.00018285298
-0.00015348734
-0.0001293824
-9.1514118e-05
-9.9783713e-05
3.130733e-05
-0.22560557
-0.20450229
-0.18506682
-0.16888196
-0.15361375
-0.13829182
-0.12315554
-0.10860572
-0.094821485
-0.08187814
-0.069858533
-0.05884522
-0.048892523
-0.040023567
-0.032236386
-0.025506664
-0.019789086
-0.015020086
-0.011121648
-0.0080053343
-0.0055763171
-0.0037373139
-0.0023921987
-0.0014491059
-0.00082295604
-0.00043741857
-0.00022634517
-0.00013465655
-0.00011859723
-0.00014526632
-0.00019144125
-0.00024188681
-0.00028747292
-0.00032341634
-0.00034783709
-0.00036067449
-0.00036291832
-0.00035608632
-0.00034188517
-0.00032199944
-0.0002979803
-0.00027115701
-0.00024270763
-0.00021334328
-0.00018435432
-0.00015429799
-0.0001296628
-9.1507924e-05
-9.912435e-05
3.0628767e-05
-0.21069092
-0.19960384
-0.18403635
-0.16808469
-0.15314583
-0.13849762
-0.12396178
-0.10984353
-0.096369736
-0.083643844
-0.071754569
-0.060791566
-0.050821157
-0.04187952
-0.033977072
-0.027101191
-0.021217468
-0.016272119
-0.012195526
-0.0089061676
-0.0063146422
-0.0043276697
-0.0028518233
-0.0017967709
-0.0010779133
-0.00061842522
-0.00035076234
-0.00021767749
-0.00017271169
-0.00018006405
-0.00021378258
-0.00025635923
-0.00029697456
-0.00032970856
-0.0003519743
-0.00036329569
-0.00036442908
-0.00035676625
-0.00034194668
-0.00032161539
-0.0002972942
-0.00027028617
-0.00024174354
-0.00021235828
-0.00018338645
-0.00015341108
-0.0001287581
-9.0891188e-05
-9.7879853e-05
2.9920819e-05
-0.1955439
-0.18579955
-0.17281069
-0.15863757
-0.14523532
-0.13217746
-0.1191573
-0.10638138
-0.094067623
-0.082330617
-0.071265453
-0.060968169
-0.051515547
-0.042957394
-0.035319267
-0.028604416
-0.022794647
-0.017852255
-0.013723065
-0.010339928
-0.0076264134
-0.0055005581
-0.0038784555
-0.0026774653
-0.001818918
-0.0012302898
-0.00084687345
-0.00061296512
-0.00048252772
-0.00041924987
-0.00039595856
-0.00039346709
-0.00039907606
-0.00040500427
-0.00040697449
-0.00040306814
-0.00039286297
-0.00037681586
-0.00035583966
-0.00033102299
-0.0003034651
-0.00027415182
-0.00024399026
-0.00021350502
-0.0001837691
-0.00015339086
-0.00012823156
-9.0738064e-05
-9.6107704e-05
2.8670535e-05
-0.18087885
-0.17105223
-0.16019348
-0.1484257
-0.13674505
-0.12515334
-0.11354078
-0.10205478
-0.090877527
-0.080130243
-0.069914045
-0.060326608
-0.05144951
-0.043341367
-0.036038796
-0.029557517
-0.023892837
-0.019021089
-0.014902094
-0.01148216
-0.0086973624
-0.0064769611
-0.0047467691
-0.0034322427
-0.0024611682
-0.0017658922
-0.0012850989
-0.00096513719
-0.0007608552
-0.00063586796
-0.00056221249
-0.00051945369
-0.00049342667
-0.0004748613
-0.00045809827
-0.00044001283
-0.00041917504
-0.00039522557
-0.00036843056
-0.00033937452
-0.000308767
-0.00027729721
-0.00024563815
-0.00021415771
-0.0001837394
-0.00015305186
-0.00012739229
-9.0484741e-05
-9.3766242e-05
2.6984266e-05
-0.16550782
-0.15599509
-0.1467374
-0.13732859
-0.12750004
-0.11739749
-0.10719442
-0.097030645
-0.087034051
-0.077321964
-0.068003748
-0.05917934
-0.050933094
-0.043330432
-0.036417529
-0.030221302
-0.024749514
-0.019991772
-0.01592144
-0.012498097
-0.0096703695
-0.0073789823
-0.0055598528
-0.0041470176
-0.0030752526
-0.0022823171
-0.0017108024
-0.0013095745
-0.0010347693
-0.00085026798
-0.00072760156
-0.00064532337
-0.00058799762
-0.00054501917
-0.00050946085
-0.0004770702
-0.00044545893
-0.0004134796
-0.00038076541
-0.00034740111
-0.00031370531
-0.00028006635
-0.00024691726
-0.00021446506
-0.00018339392
-0.00015244321
-0.00012629242
-9.0087124e-05
-9.1017327e-05
2.4995545e-05
-0.14987697
-0.14116238
-0.1332336
-0.12580177
-0.11775119
-0.10913764
-0.10032247
-0.09147365
-0.082673518
-0.074024251
-0.065639198
-0.057619911
-0.050051455
-0.043003432
-0.036529449
-0.03066591
-0.02543161
-0.020828357
-0.016842344
-0.013446051
-0.010600583
-0.0082583008
-0.0063655907
-0.0048655688
-0.0037005834
-0.0028144292
-0.0021542317
-0.0016719774
-0.0013256435
-0.0010798577
-0.00090603471
-0.00078200667
-0.00069126183
-0.00062197365
-0.00056599851
-0.00051796484
-0.0004745083
-0.00043366202
-0.00039438987
-0.00035624098
-0.00031911037
-0.00028305751
-0.00024825195
-0.00021472087
-0.00018293216
-0.00015168923
-0.00012501902
-8.9562149e-05
-8.7953725e-05
2.2769942e-05
-0.1341216
-0.12665326
-0.12003584
-0.11421524
-0.10775554
-0.10057454
-0.093092313
-0.085506933
-0.077876733
-0.070284649
-0.062840674
-0.055645744
-0.048783937
-0.042326382
-0.036331482
-0.030842872
-0.02588842
-0.021480472
-0.017616742
-0.014281681
-0.011448285
-0.0090802894
-0.0071345564
-0.0055635064
-0.0043174456
-0.0033466967
-0.0026034737
-0.00204346
-0.0016270386
-0.0013201061
-0.0010944153
-0.00092744552
-0.00080188622
-0.00070487994
-0.00062718419
-0.00056236972
-0.0005061181
-0.00045563976
-0.00040921207
-0.00036582517
-0.00032492592
-0.00028622156
-0.00024959784
-0.00021488398
-0.00018231796
-0.00015075374
-0.00012355193
-8.8867552e-05
-8.4620574e-05
2.0371067e-05
-0.11860051
-0.1126087
-0.10729758
-0.10280157
-0.097715278
-0.091863217
-0.085636011
-0.079241128
-0.072728778
-0.066164872
-0.059649832
-0.053280593
-0.047138661
-0.041294476
-0.035808633
-0.030729616
-0.02609223
-0.021917445
-0.018212877
-0.014973658
-0.012183742
-0.009817632
-0.0078423648
-0.0062196277
-0.0049078572
-0.0038642335
-0.0030464953
-0.002414522
-0.0019316246
-0.0015654801
-0.0012886484
-0.0010786599
-0.00091772901
-0.00079220989
-0.00069192877
-0.00060950423
-0.00053972192
-0.00047899455
-0.00042491661
-0.00037591069
-0.00033096103
-0.0002894061
-0.00025083218
-0.0002148546
-0.00018147221
-0.00014957004
-0.00012185091
-8.7947505e-05
-8.1063117e-05
1.7869394e-05
-0.10376009
-0.099199205
-0.095107016
-0.091715237
-0.087797306
-0.083139763
-0.078067536
-0.072775424
-0.067311102
-0.061727563
-0.056112372
-0.050555014
-0.045132583
-0.039912926
-0.034956467
-0.030314143
-0.026025479
-0.02211803
-0.018607489
-0.01549813
-0.012783651
-0.010448433
-0.0084691211
-0.0068163891
-0.00545677
-0.0043544659
-0.0034730528
-0.0027770199
-0.0022330798
-0.0018111815
-0.0014851671
-0.0012330456
-0.0010369163
-0.00088262779
-0.0007592831
-0.00065869093
-0.00057483023
-0.00050336561
-0.00044123097
-0.00038628612
-0.00033704759
-0.00029247466
-0.00025184291
-0.00021453982
-0.00018031961
-0.00014807421
-0.00011987649
-8.6750403e-05
-7.7327553e-05
1.5333393e-05
-0.089864805
-0.086540615
-0.083521395
-0.081057737
-0.078127892
-0.074517986
-0.070484573
-0.066196756
-0.061698672
-0.05703332
-0.052274603
-0.04750204
-0.042786423
-0.038191337
-0.033774997
-0.02958857
-0.025674121
-0.022063711
-0.018779188
-0.015832267
-0.013224957
-0.010950397
-0.0089940257
-0.0073349856
-0.0059476603
-0.0048032557
-0.0038713511
-0.00312135
-0.0025237646
-0.0020512662
-0.0016794403
-0.0013872108
-0.001156947
-0.0009743099
-0.00082792571
-0.0007089729
-0.00061074633
-0.00052824
-0.00045777145
-0.00039665906
-0.00034295848
-0.00029524777
-0.00025248643
-0.00021382379
-0.00017876787
-0.00014619118
-0.00011757945
-8.5224458e-05
-7.3449303e-05
1.2825364e-05
-0.077020221
-0.07470773
-0.07259293
-0.070904296
-0.068803588
-0.066094547
-0.062975667
-0.059586397
-0.055964662
-0.052144782
-0.048187473
-0.044160995
-0.040128279
-0.036147206
-0.032272111
-0.02855244
-0.025030762
-0.02174164
-0.018711149
-0.015956663
-0.013486942
-0.011302576
-0.0093967776
-0.007756431
-0.0063633142
-0.005195429
-0.0042283598
-0.0034365952
-0.0027947445
-0.0022785818
-0.0018658576
-0.0015368349
-0.0012745457
-0.0010648037
-0.00089603605
-0.00075900446
-0.00064647527
-0.00055287866
-0.00047398448
-0.00040661027
-0.00034837233
-0.00029747625
-0.00025256778
-0.00021255326
-0.00017669737
-0.00014382781
-0.00011489617
-8.3316273e-05
-6.944885e-05
1.0396848e-05
-0.065260256
-0.063750231
-0.062371154
-0.061316791
-0.059901972
-0.057953438
-0.055623415
-0.053023134
-0.050182615
-0.047128016
-0.043907797
-0.040578676
-0.037194744
-0.033807068
-0.030464791
-0.027214037
-0.024096083
-0.021146137
-0.018392651
-0.015856884
-0.013552719
-0.011486776
-0.0096588664
-0.0080627014
-0.0066868073
-0.0055155866
-0.004530459
-0.0037110196
-0.0030361498
-0.0024850145
-0.0020378876
-0.0016767588
-0.0013857045
-0.0011510388
-0.00096128683
-0.00080703422
-0.00068070359
-0.00057629643
-0.00048912865
-0.00041557864
-0.00035286144
-0.00029883178
-0.00025183351
-0.00021053225
-0.00017395732
-0.00014087001
-0.00011174634
-8.0968726e-05
-6.5327993e-05
8.0879563e-06
-0.054578394
-0.05369028
-0.052892269
-0.05234353
-0.051485003
-0.050166329
-0.048503266
-0.046582438
-0.044425713
-0.042051603
-0.039497437
-0.036808799
-0.034030602
-0.031206423
-0.028379296
-0.025590799
-0.022879443
-0.020279452
-0.017819957
-0.015524414
-0.013410209
-0.01148852
-0.0097644727
-0.0082375501
-0.0069022143
-0.0057486982
-0.0047639159
-0.0039324328
-0.0032374395
-0.0026616665
-0.0021881838
-0.0018010378
-0.0014856981
-0.0012293165
-0.0010208193
-0.00085087404
-0.00071176744
-0.00059723255
-0.00050224937
-0.00042284027
-0.00035587527
-0.00029889427
-0.00024996228
-0.00020751529
-0.00017036113
-0.00013717956
-0.00010803144
-7.8119555e-05
-6.1069736e-05
5.9261802e-06
-0.044939779
-0.044524073
-0.044173448
-0.044016628
-0.043598988
-0.042791436
-0.041681017
-0.040333822
-0.038764332
-0.036984248
-0.035021071
-0.032910128
-0.030687374
-0.028388699
-0.02605053
-0.023709086
-0.021399001
-0.019152178
-0.016996965
-0.014957474
-0.013053064
-0.011298009
-0.0097014226
-0.0082674106
-0.0069954278
-0.0058808166
-0.0049154838
-0.0040886713
-0.0033877704
-0.0027991247
-0.0023087684
-0.0019030553
-0.0015691445
-0.001295333
-0.0010712421
-0.0008878832
-0.00073762971
-0.00061412594
-0.00051215532
-0.00042748796
-0.00035672338
-0.00029713832
-0.00024655444
-0.00020319957
-0.00016568083
-0.0001325898
-0.00010363198
-7.4697646e-05
-5.6637468e-05
3.9289783e-06
-0.036292469
-0.036228132
-0.036213399
-0.036351412
-0.036274383
-0.035872615
-0.035210707
-0.034338091
-0.033263113
-0.031991795
-0.030543266
-0.028943783
-0.027221002
-0.025403373
-0.023520631
-0.021603228
-0.019681197
-0.017783138
-0.015935424
-0.014161513
-0.012481354
-0.010910945
-0.0094620796
-0.008142299
-0.0069550261
-0.0058998744
-0.0049731047
-0.0041681952
-0.0034764846
-0.002887842
-0.0023913168
-0.0019757252
-0.0016301398
-0.001344262
-0.0011086749
-0.00091498613
-0.00075588128
-0.00062510727
-0.00051740641
-0.00042841812
-0.00035456331
-0.00029292287
-0.00024112386
-0.00019721877
-0.0001596427
-0.00012690239
-9.8406171e-05
-7.0620698e-05
-5.1977417e-05
2.1057382e-06
-0.028574313
-0.028764825
-0.028995267
-0.029347691
-0.029526419
-0.029439255
-0.029133495
-0.028645379
-0.027978511
-0.027134484
-0.026125592
-0.024970395
-0.023689211
-0.022303642
-0.020837022
-0.019314011
-0.017759697
-0.016198748
-0.0146547
-0.013149312
-0.011701958
-0.01032913
-0.0090440828
-0.0078566317
-0.0067731128
-0.0057965009
-0.0049266678
-0.0041607635
-0.0034936876
-0.002918615
-0.0024275375
-0.0020117816
-0.0016624699
-0.0013709024
-0.0011288458
-0.0009287321
-0.00076377427
-0.00062801458
-0.00051631865
-0.00042432976
-0.00034839682
-0.00028548662
-0.00023309353
-0.00018913933
-0.00015192441
-0.00011988495
-9.2188602e-05
-6.5792354e-05
-4.7020386e-05
4.6204433e-07
-0.021717336
-0.022086962
-0.022490323
-0.022992278
-0.023356748
-0.023507147
-0.02347764
-0.023294272
-0.022957219
-0.022464875
-0.021824211
-0.021047514
-0.020148898
-0.019143961
-0.01805021
-0.016886808
-0.015673901
-0.014431943
-0.013181103
-0.011940688
-0.010728588
-0.009560769
-0.0084508657
-0.0074098906
-0.0064460692
-0.0055648058
-0.0047687796
-0.0040581562
-0.0034308981
-0.0028831462
-0.002409642
-0.0020041579
-0.0016599057
-0.0013698991
-0.0011272517
-0.0009254067
-0.00075829639
-0.00062044087
-0.00050699306
-0.00041374122
-0.00033707896
-0.00027395271
-0.00022179787
-0.00017846157
-0.00014215577
-0.00011127138
-8.479112e-05
-6.0101641e-05
-4.1685738e-05
-9.9733432e-07
-0.015651353
-0.016141681
-0.016661558
-0.017261939
-0.017755741
-0.018080089
-0.018259348
-0.018311849
-0.018235495
-0.018026571
-0.017688106
-0.017227496
-0.016653836
-0.015977693
-0.015211514
-0.014369506
-0.013467156
-0.01252073
-0.011546801
-0.010561785
-0.0095814473
-0.0086204391
-0.0076918888
-0.0068070672
-0.0059751474
-0.0052030659
-0.0044954911
-0.0038548976
-0.0032817335
-0.0027746673
-0.00233089
-0.0019464477
-0.0016165808
-0.0013360436
-0.0010993888
-0.00090120421
-0.0007362962
-0.00059982255
-0.00048737691
-0.00039503159
-0.00031934584
-0.00025734718
-0.0002064951
-0.00016462807
-0.00012992443
-0.00010076564
-7.6005627e-05
-5.3423769e-05
-3.5884739e-05
-2.2648692e-06
-0.010306679
-0.010873463
-0.011466717
-0.01212623
-0.012704955
-0.013151898
-0.013484198
-0.013714474
-0.013839284
-0.01385371
-0.01375803
-0.013556
-0.013252833
-0.012855069
-0.012370959
-0.011810444
-0.011184844
-0.010506501
-0.0097884427
-0.0090440176
-0.0082865006
-0.0075286929
-0.0067825449
-0.0060588237
-0.0053668393
-0.0047142444
-0.004106916
-0.003548924
-0.0030425843
-0.0025885867
-0.0021861854
-0.001833434
-0.0015274442
-0.0012646498
-0.0010410566
-0.00085246666
-0.00069466647
-0.00056357717
-0.00045536493
-0.00036651415
-0.00029386729
-0.00023463653
-0.00018639395
-0.00014704272
-0.00011478955
-8.8051505e-05
-6.5611151e-05
-4.5624524e-05
-2.9525921e-05
-3.3284912e-06
-0.0056160589
-0.0062264445
-0.0068608211
-0.007550032
-0.0081795629
-0.0087085659
-0.0091489136
-0.0095090759
-0.0097849658
-0.0099711605
-0.010066158
-0.010071144
-0.0099884744
-0.0098216121
-0.0095754838
-0.0092565268
-0.0088725033
-0.0084322739
-0.0079455711
-0.0074227405
-0.006874442
-0.0063113295
-0.0057437309
-0.0051813455
-0.0046329732
-0.0041062901
-0.0036076807
-0.0031421366
-0.0027132234
-0.0023231144
-0.0019726847
-0.0016616548
-0.0013887694
-0.0011519966
-0.00094873115
-0.00077599026
-0.00063058981
-0.00050929599
-0.00040894766
-0.00032654869
-0.00025933085
-0.00020478997
-0.0001606995
-0.00012510428
-9.6306112e-05
-7.2809934e-05
-5.3386046e-05
-3.6568277e-05
-2.2520977e-05
-4.1704042e-06
-0.0015161076
-0.0021462688
-0.0027982692
-0.0034957997
-0.0041506183
-0.0047304345
-0.0052433193
-0.005694775
-0.0060805678
-0.006395271
-0.0066363523
-0.0068032945
-0.0068964631
-0.0069170917
-0.0068675958
-0.0067516628
-0.0065741584
-0.0063409985
-0.0060590151
-0.0057357888
-0.0053794405
-0.0049983931
-0.0046011192
-0.0041958875
-0.0037905205
-0.0033921749
-0.0030071572
-0.0026407843
-0.0022972947
-0.0019798139
-0.0016903727
-0.0014299726
-0.0011986911
-0.00099581561
-0.00081999444
-0.00066939286
-0.0005418451
-0.00043499366
-0.00034641071
-0.00027369787
-0.0002145626
-0.00016687157
-0.00012868272
-9.8258251e-05
-7.4063268e-05
-5.4747016e-05
-3.912777e-05
-2.6131352e-05
-1.479356e-05
-4.7678395e-06
0.0020517992
0.0014186215
0.00076555327
7.462249e-05
-0.00058701401
-0.0011941955
-0.0017522703
-0.0022646503
-0.0027272783
-0.003135053
-0.0034849601
-0.0037754475
-0.0040055895
-0.004175098
-0.0042845909
-0.0043356998
-0.0043310398
-0.0042741517
-0.0041694371
-0.0040220649
-0.0038378405
-0.0036230422
-0.0033842386
-0.0031280914
-0.0028611563
-0.0025896895
-0.0023194708
-0.0020556532
-0.0018026465
-0.0015640396
-0.0013425653
-0.001140106
-0.00095773639
-0.0007957988
-0.00065400102
-0.00053152921
-0.00042716675
-0.00033941149
-0.00026658514
-0.00020692976
-0.00015868817
-0.00012016634
-8.9777692e-05
-6.6070991e-05
-4.7739775e-05
-3.3634698e-05
-2.2681762e-05
-1.4221608e-05
-6.290601e-06
-5.095092e-06
0.0051407351
0.0045158594
0.0038728809
0.0031984038
0.0025427759
0.0019252853
0.0013425195
0.00079252012
0.00027897955
-0.00019351785
-0.00062185145
-0.0010039236
-0.001338051
-0.0016229855
-0.0018581371
-0.002043682
-0.0021805714
-0.002270519
-0.0023159854
-0.0023201386
-0.0022867832
-0.002220262
-0.0021253336
-0.0020070336
-0.0018705232
-0.0017209334
-0.0015632125
-0.0014019848
-0.0012414286
-0.0010851793
-0.00093626176
-0.00079705536
-0.0006692903
-0.00055407363
-0.00045194017
-0.00036292268
-0.00028663464
-0.00022235942
-0.0001691397
-0.00012586209
-9.1332708e-05
-6.4340775e-05
-4.3708446e-05
-2.8327956e-05
-1.7178823e-05
-9.3664223e-06
-3.981314e-06
-8.0540486e-07
3.0021025e-06
-5.1275751e-06
0.0077979682
0.0071884843
0.0065625367
0.0059103844
0.0052690759
0.0046531187
0.0040604682
0.0034901648
0.0029454475
0.0024302976
0.001947704
0.0014999709
0.0010891548
0.00071704105
0.00038496557
9.371701e-05
-0.00015649207
-0.00036604061
-0.00053591256
-0.00066769425
-0.00076354785
-0.00082616143
-0.00085867843
-0.00086460891
-0.00084772567
-0.00081194962
-0.0007612299
-0.00069942507
-0.00063019163
-0.0005568857
-0.00048248304
-0.00040952093
-0.00034006409
-0.00027569497
-0.00021752663
-0.00016623546
-0.00012210936
-8.5106926e-05
-5.4922698e-05
-3.1053878e-05
-1.2864233e-05
3.5807154e-07
9.3516126e-06
1.4840884e-05
1.7515582e-05
1.7970621e-05
1.6900489e-05
1.4057214e-05
1.3040129e-05
-4.8475592e-06
0.010064719
0.0094746299
0.0088695416
0.0082426407
0.0076205409
0.007013901
0.006421636
0.005843465
0.0052821545
0.0047410697
0.0042229346
0.0037300424
0.0032645622
0.0028285168
0.002423647
0.002051328
0.001712533
0.0014078052
0.0011372276
0.00090040455
0.00069645897
0.00052404768
0.0003813929
0.00026633008
0.00017637058
0.00010877723
6.0649283e-05
2.9012745e-05
1.0911297e-05
3.4931446e-06
4.0891354e-06
1.0278187e-05
1.9936947e-05
3.1271851e-05
4.2833093e-05
5.3511353e-05
6.2519246e-05
6.9360256e-05
7.3788482e-05
7.5762778e-05
7.5398888e-05
7.2922713e-05
6.8627835e-05
6.2836427e-05
5.587896e-05
4.8018435e-05
3.9693806e-05
3.0173508e-05
2.3698293e-05
-4.251e-06
0.011974298
0.011404966
0.010821957
0.010220745
0.0096198539
0.009026898
0.0084414619
0.00786372
0.0072959904
0.0067410603
0.0062013313
0.0056789599
0.0051760654
0.0046947112
0.004236805
0.0038040326
0.0033978212
0.003019307
0.0026692996
0.0023482528
0.0020562446
0.0017929707
0.0015577485
0.001349535
0.0011669559
0.0010083486
0.00087181452
0.0007552802
0.00065656339
0.00057344137
0.00050371742
0.00044528211
0.00039616635
0.00035458365
0.00031895995
0.00028795042
0.00026044355
0.00023555356
0.00021260302
0.0001910978
0.0001706971
0.00015118091
0.00013241785
0.00011433183
9.6886336e-05
7.9997379e-05
6.3822597e-05
4.7142727e-05
3.4724813e-05
-3.3661674e-06
0.013558018
0.013009343
0.012448083
0.011871549
0.01129207
0.010714872
0.01014
0.0095679327
0.0090005921
0.0084402541
0.0078889922
0.0073487679
0.0068215633
0.006309367
0.0058141032
0.0053375822
0.0048814682
0.0044472471
0.0040361918
0.0036493293
0.0032874136
0.0029509053
0.0026399595
0.002354422
0.0020938358
0.0018574564
0.0016442784
0.0014530694
0.001282412
0.0011307509
0.00099644237
0.00087780476
0.00077316607
0.00068090697