/*--------------------------------*- C++ -*----------------------------------*\
  =========                 |
  \\      /  F ield         | OpenFOAM: The Open Source CFD Toolbox
   \\    /   O peration     | Website:  https://openfoam.org
    \\  /    A nd           | Version:  6
     \\/     M anipulation  |
\*---------------------------------------------------------------------------*/
FoamFile
{
    version     2.0;
    format      ascii;
    class       volVectorField;
    location    "130";
    object      U;
}
// * * * * * * * * * * * * * * * * * * * * * * * * * * * * * * * * * * * * * //

dimensions      [0 1 -1 0 0 0 0];

internalField   nonuniform List<vector> 
9200
(
(0.001039414 0.0014199463 -5.9202366e-20)
(0.013676362 -0.002058523 4.6043005e-20)
(0.038313807 -0.0058668421 -3.8502107e-20)
(0.072275518 -0.0097638985 -6.0258311e-20)
(0.11376634 -0.013490544 1.8827165e-20)
(0.16158307 -0.016606297 3.2744205e-20)
(0.2146743 -0.018818049 -1.2268149e-20)
(0.27206957 -0.01997478 9.2689715e-21)
(0.33286042 -0.020012239 1.6803576e-20)
(0.39616838 -0.018930197 1.4848224e-21)
(0.46112116 -0.016781094 -2.1456575e-20)
(0.52684313 -0.01365915 2.0670243e-20)
(0.59245756 -0.0096895642 -4.0422588e-20)
(0.65709874 -0.0050175003 -2.1134173e-20)
(0.7199326 0.00020366769 5.9047243e-21)
(0.78018327 0.0058220176 -2.5132041e-20)
(0.8371791 0.011710536 2.5217525e-20)
(0.89047739 0.017916019 2.2243738e-20)
(0.93967936 0.024570687 -2.9919275e-22)
(0.98206043 0.028290441 -1.6690548e-21)
(0.0052522957 -0.0013463352 -1.7059504e-20)
(0.026962939 -0.0089892476 3.9748091e-20)
(0.061670997 -0.014810124 2.3576522e-20)
(0.10629631 -0.019172757 -1.1569858e-19)
(0.15873768 -0.022214607 -1.2727215e-20)
(0.21753621 -0.023721413 7.3297701e-20)
(0.28137636 -0.023595937 -3.5476728e-20)
(0.34901014 -0.021869918 -8.3906333e-21)
(0.41924406 -0.018646589 3.428788e-20)
(0.490915 -0.014082022 -4.3260038e-20)
(0.56287854 -0.0083772549 -3.0338844e-20)
(0.63401529 -0.0017680308 7.1922387e-20)
(0.70325063 0.0054868132 3.8294547e-20)
(0.76958355 0.013116891 -6.7977562e-20)
(0.83212048 0.020850164 1.4623941e-20)
(0.89010856 0.028417593 -3.673402e-20)
(0.94297739 0.03556735 -1.3777376e-20)
(0.99044045 0.042138334 7.0976238e-20)
(1.032364 0.047712519 2.964287e-20)
(1.0669425 0.04913669 -8.3479276e-20)
(0.010858599 -0.0040425007 3.6773756e-20)
(0.043954018 -0.015431351 2.5047558e-21)
(0.090516588 -0.022552707 2.2341932e-20)
(0.14711318 -0.026497911 9.811762e-22)
(0.21134503 -0.027886964 -4.0774345e-20)
(0.2814709 -0.026795885 1.8576541e-20)
(0.35587439 -0.023383596 1.3420433e-20)
(0.4329948 -0.017922499 -5.0328182e-20)
(0.51133022 -0.01073671 5.7262444e-20)
(0.58943225 -0.0021850447 1.4256882e-20)
(0.66591585 0.0073466248 -5.4301415e-20)
(0.73948753 0.01745885 -1.82377e-20)
(0.80898351 0.027754999 9.0591209e-21)
(0.8734104 0.037857536 2.3445124e-20)
(0.93198148 0.047422115 -1.1362737e-20)
(0.98414151 0.056146832 2.7878209e-20)
(1.0295817 0.063786804 -2.0188559e-20)
(1.068272 0.07020178 -7.0124964e-20)
(1.1003393 0.075116518 -2.3796811e-20)
(1.124918 0.076638155 4.8660476e-20)
(0.017957454 -0.0064222655 2.45082e-20)
(0.064777788 -0.020695109 5.1039636e-20)
(0.12485374 -0.028061308 1.9881848e-20)
(0.19447184 -0.030464643 1.2990168e-20)
(0.27095227 -0.029095517 1.7275825e-20)
(0.35225254 -0.024389737 -4.7720572e-20)
(0.43643591 -0.016826808 -2.5647091e-20)
(0.52162535 -0.0069775836 0)
(0.60603489 0.0045660338 1.3920871e-20)
(0.68799358 0.017210634 -5.8525081e-21)
(0.76598215 0.030372706 -9.7936196e-20)
(0.83868177 0.043498276 -1.5774955e-20)
(0.90502275 0.056085095 6.5104277e-20)
(0.96422325 0.067702423 4.8430115e-22)
(1.015811 0.07800579 -1.5725837e-21)
(1.0596228 0.086744636 2.1957883e-20)
(1.0957843 0.093769827 -5.2648449e-21)
(1.1246866 0.099062682 -6.1030829e-20)
(1.146871 0.10259418 -4.5852144e-20)
(1.1623016 0.10341072 6.9521505e-20)
(0.026579735 -0.0082058001 -3.9194406e-21)
(0.089345018 -0.024033829 -5.1256689e-21)
(0.1643093 -0.03026545 5.6599825e-20)
(0.24758378 -0.029810578 1.8539451e-20)
(0.33624502 -0.024513659 -3.1955315e-20)
(0.42795549 -0.015240551 1.2163937e-20)
(0.52047762 -0.0028521104 2.6403118e-21)
(0.61166927 0.011736284 3.3609562e-20)
(0.6995534 0.027639252 5.6600189e-21)
(0.78237512 0.044027777 -1.3204976e-20)
(0.85866112 0.060146602 6.0155045e-20)
(0.92727634 0.07533919 -5.801011e-20)
(0.98746402 0.089071393 -1.3216818e-19)
(1.0388602 0.10094734 -5.5773946e-21)
(1.0814795 0.11071517 8.3152212e-20)
(1.1156722 0.11826189 0)
(1.1420611 0.12360341 1.0119113e-20)
(1.1614728 0.1268879 -1.5460043e-20)
(1.1748235 0.1282958 -8.5996202e-21)
(1.1826725 0.12744603 2.0992549e-20)
(0.036667305 -0.0090896922 -5.4309215e-21)
(0.11731632 -0.024685667 4.3579044e-21)
(0.20812076 -0.028140602 -8.7630438e-21)
(0.30515999 -0.023415445 2.8472598e-20)
(0.40533923 -0.013076126 -2.9392909e-20)
(0.50607613 0.001522045 -1.6927178e-20)
(0.60491029 0.01909453 3.7364504e-20)
(0.6995556 0.038364587 4.7595612e-21)
(0.78801041 0.058166895 -2.4436478e-20)
(0.86864086 0.077482138 6.9868478e-20)
(0.94024671 0.095457626 5.238273e-22)
(1.0021026 0.11143036 -8.044562e-20)
(1.0539638 0.12494149 0)
(1.096034 0.13573585 3.9542817e-20)
(1.1288986 0.14374653 5.5237046e-21)
(1.1534339 0.14906678 -7.7567679e-20)
(1.1707047 0.15191674 -1.9587241e-20)
(1.1818676 0.15262104 -1.2467836e-20)
(1.1880641 0.1515232 -1.4709637e-20)
(1.1901506 0.14858186 4.0421167e-20)
(0.048059349 -0.0087675073 -1.7278045e-20)
(0.14808453 -0.021932262 -2.2198987e-21)
(0.25514308 -0.02079818 3.0380682e-20)
(0.36546717 -0.010413169 3.7484522e-20)
(0.47590842 0.0059011983 -1.9944885e-20)
(0.58374766 0.026268902 -6.9163697e-20)
(0.68644752 0.048976773 -2.7996143e-20)
(0.78176822 0.072417293 7.8930113e-20)
(0.86790849 0.095211884 8.5780053e-21)
(0.94359588 0.11624888 -2.4873758e-20)
(1.0081326 0.13469736 1.3642302e-20)
(1.0613937 0.15001443 -4.3195522e-21)
(1.1037757 0.16193523 0)
(1.1361036 0.17044267 2.7203892e-20)
(1.1595104 0.17572123 -7.9323625e-20)
(1.1753075 0.17810158 -3.1476011e-20)
(1.1848621 0.17800578 8.1055823e-20)
(1.1894969 0.17590689 -4.2970791e-21)
(1.1904074 0.17225282 3.5561532e-21)
(1.1885122 0.16719004 2.711203e-20)
(0.060485815 -0.0069574441 -3.241477e-20)
(0.18077935 -0.015170578 -8.162485e-20)
(0.30389195 -0.0075837544 2.5797056e-21)
(0.42642919 0.0097031375 7.0162359e-20)
(0.54535599 0.032631349 6.2424902e-20)
(0.65798625 0.058819838 -7.1575088e-20)
(0.76191465 0.086176271 -2.8265453e-22)
(0.85518914 0.112852 8.5523645e-20)
(0.93645992 0.13737794 4.8828667e-20)
(1.005048 0.1586931 -5.4219166e-20)
(1.060942 0.17613483 -9.2335492e-20)
(1.1047305 0.1894125 -3.159027e-21)
(1.1374819 0.19855815 4.2128463e-20)
(1.160593 0.20385702 -6.605726e-21)
(1.17563 0.2057684 -1.2868964e-20)
(1.1841826 0.20484716 1.9691065e-20)
(1.1877474 0.20167672 4.3881253e-20)
(1.1876497 0.19682343 -4.3860046e-20)
(1.1849995 0.19077622 -1.0232355e-19)
(1.1806289 0.18377103 2.4567309e-20)
(0.073537859 -0.0034330197 -3.4979991e-20)
(0.21422869 -0.0039891242 -1.7388696e-19)
(0.35251947 0.011839301 8.2103934e-20)
(0.48563186 0.037018311 9.2768268e-20)
(0.61085851 0.066835564 5.7971039e-20)
(0.72577265 0.098481195 8.6108001e-21)
(0.82835389 0.12959693 -1.0624118e-19)
(0.91719613 0.15824257 0)
(0.99163371 0.18302787 -6.8749551e-20)
(1.0517583 0.2031116 -1.5202643e-20)
(1.0983444 0.2181479 5.4704191e-20)
(1.1327066 0.22820987 1.0973534e-20)
(1.1565165 0.23369139 -4.5614464e-20)
(1.171612 0.235198 -4.9082006e-20)
(1.1798253 0.23344164 2.4288028e-20)
(1.1828496 0.22915131 4.4823535e-20)
(1.1821532 0.22300774 -5.5601197e-20)
(1.1789401 0.21560593 -1.0751271e-19)
(1.1741507 0.2074198 -3.1513592e-21)
(1.1684604 0.19871624 2.7046775e-20)
(0.086651159 0.0019613849 -3.5449779e-21)
(0.24696215 0.011816659 8.791381e-20)
(0.39885048 0.037492417 -1.6479011e-20)
(0.5404087 0.071218575 -8.4309989e-20)
(0.66950386 0.10778918 4.5164802e-20)
(0.78422495 0.14411568 4.9175815e-20)
(0.8831952 0.17775687 5.5357421e-21)
(0.96578469 0.20688497 -9.9503624e-20)
(1.0321823 0.23038791 -2.504909e-21)
(1.0833387 0.24781519 5.0504198e-20)
(1.1208127 0.25926241 5.9855546e-21)
(1.1465612 0.26523534 -1.9717467e-20)
(1.1627158 0.26650421 -7.5705595e-20)
(1.1713813 0.26396485 -6.2554626e-21)
(1.1744807 0.2585227 4.3533898e-20)
(1.1736591 0.2510091 3.7022473e-20)
(1.1702423 0.24213199 1.9793653e-20)
(1.1652441 0.23245664 -5.2995653e-20)
(1.159405 0.22240194 1.2957477e-20)
(1.1532286 0.21223564 8.2660137e-20)
(-0.0012932755 0.0014346756 -1.1234394e-21)
(-0.0047460099 0.0031874474 2.0647135e-21)
(-0.010771466 0.004135944 8.7956259e-22)
(-0.017754457 0.0045395771 -2.4411043e-21)
(-0.024740546 0.004565455 -1.4115217e-21)
(-0.031299871 0.0043260714 1.5460235e-21)
(-0.037161643 0.0039035635 -6.8702046e-21)
(-0.042147783 0.0033577383 -5.9573904e-21)
(-0.046158127 0.0027313879 1.1172187e-20)
(-0.049146536 0.0020548266 -9.7429171e-21)
(-0.05110098 0.0013492851 -1.983284e-22)
(-0.052030733 0.00062939465 3.6674169e-21)
(-0.051957973 -9.4929418e-05 -6.329646e-22)
(-0.050912047 -0.00081698373 2.2819182e-20)
(-0.048925856 -0.0015319122 3.0401109e-22)
(-0.046035313 -0.0022352566 -4.088371e-20)
(-0.042281644 -0.0029223665 7.5387315e-21)
(-0.037703143 -0.0035911538 2.3864623e-20)
(-0.032308228 -0.0042401196 -4.3853351e-20)
(-0.026156309 -0.004821264 -2.7739838e-20)
(-0.001652217 0.0041809106 -5.3716802e-21)
(-0.0053975344 0.0092682298 1.0865521e-20)
(-0.011218614 0.012007556 -1.0191682e-20)
(-0.017658183 0.013153879 3.9230758e-21)
(-0.023856635 0.013195519 4.8122505e-21)
(-0.029433553 0.012462814 7.1325504e-22)
(-0.034152574 0.01119708 -2.2509873e-20)
(-0.037860635 0.0095739372 -2.0370593e-21)
(-0.040474542 0.0077189981 2.0163881e-20)
(-0.041959134 0.0057212094 -5.0474459e-21)
(-0.042309112 0.0036428096 -2.1762974e-20)
(-0.041537431 0.0015266218 4.8974044e-21)
(-0.039667718 -0.00059843444 2.2635817e-20)
(-0.036728978 -0.0027129302 1.0308585e-20)
(-0.0327518 -0.004802901 2.1854725e-20)
(-0.027768784 -0.0068557656 -1.9771124e-20)
(-0.021824233 -0.0088585247 -2.1673382e-20)
(-0.014965509 -0.010804581 2.1185091e-20)
(-0.0071280296 -0.01267941 2.6810941e-20)
(0.0018755428 -0.014317686 1.5855084e-20)
(-0.0023034515 0.0065602997 -4.3569279e-21)
(-0.0065392827 0.014480333 -5.6387878e-21)
(-0.011892229 0.01871071 3.0723523e-22)
(-0.017211229 0.02042835 1.0959667e-21)
(-0.02181929 0.020400477 6.691942e-21)
(-0.02543119 0.01915179 1.0665329e-20)
(-0.027877363 0.017066374 -3.7228239e-21)
(-0.029053362 0.014423825 -1.8896466e-20)
(-0.02890907 0.011424345 6.5414238e-21)
(-0.027431002 0.008209845 1.286278e-20)
(-0.024627561 0.0048796592 5.8342001e-21)
(-0.020519826 0.0015020617 1.8159401e-20)
(-0.015135549 -0.0018771038 1.729622e-21)
(-0.008504781 -0.0052275556 -3.3865122e-20)
(-0.00065606686 -0.0085279891 1.2020622e-21)
(0.0083820796 -0.011759564 -2.2139582e-20)
(0.018558196 -0.014904631 -2.4466816e-20)
(0.029803805 -0.017954372 4.5820671e-20)
(0.042306919 -0.020855825 2.5349914e-20)
(0.056740907 -0.023248561 1.2243906e-22)
(-0.0031290557 0.0083690511 -5.2833808e-21)
(-0.0078964616 0.018336677 -8.4817154e-21)
(-0.012439069 0.023588005 4.3593545e-21)
(-0.01602662 0.025609853 4.1464049e-21)
(-0.018235089 0.025382915 2.0105956e-21)
(-0.018912672 0.02358945 7.3211097e-21)
(-0.017984668 0.020730347 9.3126176e-21)
(-0.015416565 0.01717039 -1.3511558e-21)
(-0.011206779 0.013171257 -1.1482118e-20)
(-0.005374814 0.0089188003 -2.907233e-20)
(0.0020487119 0.0045432265 6.1901648e-23)
(0.01102732 0.0001340162 4.0698471e-20)
(0.02152328 -0.0042493346 -1.8383449e-20)
(0.033499181 -0.0085680622 -1.2296294e-20)
(0.046922151 -0.012796122 5.5347021e-22)
(0.061762078 -0.016912536 3.2303232e-20)
(0.077955376 -0.020902462 -1.4829871e-20)
(0.095395041 -0.024764285 -5.3340171e-20)
(0.11440168 -0.028380751 4.5765862e-20)
(0.13634913 -0.031074247 3.3013804e-20)
(-0.0039704418 0.0094658175 -6.8788556e-22)
(-0.0090917189 0.02048796 -1.2534889e-20)
(-0.012364527 0.026159282 -3.4145008e-20)
(-0.01355256 0.028143524 -5.7242597e-21)
(-0.012533191 0.027555156 -3.6223029e-21)
(-0.009316575 0.025188157 6.3051927e-21)
(-0.0039453617 0.021627435 -4.6462637e-21)
(0.0035265786 0.017298903 -8.8071466e-21)
(0.013037473 0.012508607 2.1900009e-20)
(0.02452213 0.0074742027 5.0567671e-21)
(0.037916699 0.0023485629 -2.529069e-20)
(0.053158915 -0.0027632321 1.1078429e-20)
(0.070188684 -0.0077914352 0)
(0.088948782 -0.012691982 1.2089763e-20)
(0.10938806 -0.017437723 -9.7017724e-21)
(0.1314605 -0.022010831 -1.4337371e-20)
(0.15507765 -0.026409719 -1.5738461e-21)
(0.18007172 -0.030660641 -2.2182233e-21)
(0.2068581 -0.034577908 4.6147783e-20)
(0.23766891 -0.037021393 -1.0470419e-20)
(-0.0046451307 0.0097809418 -7.5357457e-21)
(-0.0096772996 0.020748029 2.4516707e-20)
(-0.011064392 0.026161141 -1.0499492e-20)
(-0.0090967622 0.027724586 -2.7469621e-20)
(-0.003979525 0.026601785 -2.7548463e-20)
(0.0040965455 0.023648427 -1.4921756e-20)
(0.01495472 0.01949639 -6.9060646e-22)
(0.028437054 0.014604541 5.5500447e-21)
(0.044404256 0.009303176 1.9616115e-20)
(0.062731936 0.003828031 7.3531795e-21)
(0.083306126 -0.0016552603 -7.1863096e-21)
(0.1060212 -0.0070328708 -2.0102382e-21)
(0.13077625 -0.012229863 -3.8192246e-20)
(0.1574726 -0.017200657 -1.2693826e-20)
(0.18601569 -0.021920785 1.8750925e-20)
(0.21631603 -0.02638092 -2.1022025e-20)
(0.24823709 -0.030603585 -8.9732011e-21)
(0.28152416 -0.034672137 3.0440891e-20)
(0.31661317 -0.038366527 5.0472822e-20)
(0.35665698 -0.039965983 3.3560274e-21)
(-0.0049617965 0.0093140639 1.6783464e-20)
(-0.0091662913 0.019097818 1.4468079e-20)
(-0.0078593099 0.02356347 5.1146058e-20)
(-0.001858348 0.024329007 2.3388264e-20)
(0.0082961045 0.022523779 1.8252001e-22)
(0.022222562 0.019014294 -3.9388923e-20)
(0.039598353 0.014440744 -2.4314147e-20)
(0.060149152 0.0092660547 1.0465934e-20)
(0.083640746 0.0038228017 1.4401753e-20)
(0.10986875 -0.001651855 -1.3113847e-20)
(0.13864816 -0.0069917016 -4.4039264e-20)
(0.16980474 -0.012083682 2.9618879e-20)
(0.20316764 -0.016855142 2.0020789e-20)
(0.23856363 -0.021265133 -2.7551523e-20)
(0.27581709 -0.025297701 1.1650308e-20)
(0.31475354 -0.028958631 2.4197954e-20)
(0.35515154 -0.032304688 8.0725262e-21)
(0.39664062 -0.035508491 -1.1764423e-20)
(0.43958442 -0.038394647 -1.4190451e-20)
(0.48799319 -0.0386366 5.8730181e-21)
(-0.0047307928 0.0081237176 1.1093962e-20)
(-0.0070585774 0.015671229 -2.3353011e-20)
(-0.0020292161 0.018562054 8.6201129e-21)
(0.0090328688 0.018216186 3.3588351e-20)
(0.025256972 0.015651026 5.2124907e-20)
(0.046067269 0.011695377 2.0276733e-20)
(0.07098583 0.0069606115 -5.8640057e-21)
(0.099603683 0.0018824858 -1.2286407e-20)
(0.13157115 -0.0032277964 -6.205828e-21)
(0.1665784 -0.0081503953 3.4241221e-20)
(0.20433754 -0.012734204 -4.5105183e-21)
(0.24456874 -0.016880222 -1.6643514e-20)
(0.28698921 -0.020529878 -1.9693795e-20)
(0.33130515 -0.023657766 -4.7444346e-20)
(0.37721041 -0.026267054 2.3239004e-20)
(0.42439419 -0.028389554 -1.4096181e-20)
(0.47250688 -0.03012949 2.59938e-20)
(0.52104396 -0.031785239 2.1041136e-20)
(0.57022232 -0.033352919 -8.5571375e-20)
(0.6247181 -0.032061284 -1.0801453e-22)
(-0.0037710493 0.0063146586 2.1925264e-20)
(-0.0028656771 0.010735082 -2.6165827e-20)
(0.0071423815 0.011564062 -4.5013757e-20)
(0.024450779 0.0099248321 -2.7254072e-20)
(0.047871738 0.0066520472 -2.0440083e-21)
(0.076629996 0.002490244 1.3050215e-20)
(0.11007849 -0.0020158925 -2.8337847e-21)
(0.14765433 -0.0064885327 1.8118716e-20)
(0.1888638 -0.01066427 8.8686398e-21)
(0.23325539 -0.01436333 -1.1380288e-20)
(0.28039557 -0.017470006 8.8780402e-21)
(0.32985077 -0.019918015 -2.3903537e-20)
(0.38117422 -0.021680064 8.0506e-21)
(0.43389693 -0.022761404 1.6756606e-20)
(0.4875261 -0.023195999 -2.6395463e-21)
(0.54155453 -0.023048764 1.6619149e-21)
(0.59544341 -0.022471496 -3.1956202e-22)
(0.64852632 -0.021872336 1.9590698e-20)
(0.70083132 -0.021447482 4.0434535e-21)
(0.75746079 -0.018501705 -5.7363656e-22)
(-0.0019109841 0.00402734 2.3692358e-20)
(0.0038696087 0.0046764352 5.7160583e-20)
(0.020315749 0.0031877891 -4.9244716e-20)
(0.045179073 0.00029414793 -9.9455152e-21)
(0.076966366 -0.0034245442 2.0256535e-20)
(0.11469793 -0.0073541001 2.1433921e-21)
(0.15754109 -0.011055598 -2.9815441e-20)
(0.20475117 -0.014244912 6.9848633e-21)
(0.255653 -0.016738836 7.1098778e-21)
(0.3096089 -0.018428003 -2.6254357e-20)
(0.36599133 -0.019261286 1.2927517e-21)
(0.42416512 -0.019233203 -3.717454e-20)
(0.48347723 -0.018373692 -3.634146e-20)
(0.5432525 -0.016739926 6.5684346e-20)
(0.60279556 -0.01440912 5.5628284e-21)
(0.66139682 -0.011477893 -1.5189061e-20)
(0.71831626 -0.0081042263 1.9364232e-20)
(0.77270779 -0.0045952401 -9.1889422e-22)
(0.82409738 -0.00097062558 2.0364712e-20)
(0.87622883 0.0043252749 -1.9554589e-20)
(-0.018835534 -0.0050998653 5.8353429e-20)
(-0.010223489 -0.0056351062 1.578402e-20)
(-0.00021970149 -0.0060690762 -3.5140396e-20)
(0.010825088 -0.0063343203 1.6790685e-20)
(0.022644736 -0.0065122714 0)
(0.035180603 -0.0066303278 0)
(0.048372873 -0.0066912241 -2.297558e-20)
(0.062141825 -0.0067028028 -1.6503326e-20)
(0.076417052 -0.0066744492 1.9123183e-20)
(0.091139045 -0.0066129521 1.8174594e-20)
(0.10625283 -0.0065235032 1.0524482e-21)
(0.12170661 -0.0064106662 -1.0317943e-20)
(0.13745209 -0.0062783997 8.3272003e-21)
(0.15344404 -0.006130051 1.8234285e-20)
(0.16963971 -0.0059684836 -5.2276608e-21)
(0.18599846 -0.0057961829 -1.0175259e-20)
(0.20248152 -0.00561532 -4.3197256e-21)
(0.21905188 -0.0054278042 -4.4258491e-21)
(0.23567412 -0.0052353274 7.366835e-22)
(0.25231438 -0.0050394002 1.2286567e-21)
(0.26894031 -0.0048413776 2.5667838e-21)
(0.28552114 -0.0046424795 6.6542422e-21)
(0.3020277 -0.0044438051 2.4888128e-22)
(0.31843244 -0.0042463441 -3.4516539e-21)
(0.33470954 -0.004050984 1.5557801e-22)
(0.35083493 -0.0038585166 -5.7713361e-22)
(0.36678637 -0.003669642 1.2435207e-21)
(0.38254347 -0.0034849727 1.0522861e-21)
(0.39808771 -0.0033050374 -1.2989732e-21)
(0.41340249 -0.0031302844 -1.2217945e-22)
(0.4284731 -0.0029610858 3.5647819e-23)
(0.4432867 -0.002797742 -3.5192058e-22)
(0.45783232 -0.0026404863 -4.0576692e-22)
(0.4721008 -0.0024894901 5.5490375e-23)
(0.48608475 -0.0023448692 -1.3811984e-22)
(0.49977851 -0.0022066891 -2.2347446e-22)
(0.51317811 -0.0020749725 2.5578226e-22)
(0.52628123 -0.0019497053 2.9510714e-22)
(0.53908712 -0.0018308459 -8.3328892e-24)
(0.55159697 -0.0017183294 -1.5532945e-22)
(0.56381279 -0.0016120951 3.0404809e-23)
(0.57574126 -0.0015120429 -4.0162096e-23)
(0.58738261 -0.0014182449 9.2330992e-23)
(0.59876604 -0.0013303645 2.1949112e-23)
(0.60984582 -0.0012496891 -1.1430293e-22)
(0.62081473 -0.0011730038 -6.7912141e-24)
(0.63119359 -0.0011125608 -5.6864398e-26)
(0.64249792 -0.0010353564 -3.6086933e-24)
(0.65058461 -0.0010523871 2.9439995e-23)
(0.66719808 -0.00087735703 3.6093804e-22)
(0.010447399 -0.015018107 -1.2747162e-20)
(0.018181518 -0.016641561 -6.3303793e-20)
(0.027781378 -0.017916013 -3.0542741e-20)
(0.038387692 -0.018672714 3.8477006e-20)
(0.049623954 -0.019184272 1.4663003e-20)
(0.061510055 -0.019530156 -1.8205478e-20)
(0.074016748 -0.019710627 4.6724047e-21)
(0.087067141 -0.019747291 2.5447898e-20)
(0.1005982 -0.019668115 9.1925887e-23)
(0.11455971 -0.019492568 -7.6593883e-21)
(0.12890355 -0.01923526 -1.3021305e-20)
(0.14358313 -0.018909244 -8.5248665e-21)
(0.15855454 -0.018525935 1.7772891e-20)
(0.17377629 -0.018094993 8.9300638e-21)
(0.18920863 -0.0176247 -1.6522858e-20)
(0.20481337 -0.017122281 -6.039259e-21)
(0.22055377 -0.016594075 3.2145776e-21)
(0.23639448 -0.016045677 8.3718612e-21)
(0.25230143 -0.015482067 6.9835199e-21)
(0.26824187 -0.014907706 -6.9731266e-21)
(0.28418439 -0.014326608 -3.1688563e-21)
(0.30009897 -0.0137424 1.3607612e-21)
(0.31595703 -0.013158357 3.8705882e-22)
(0.33173152 -0.012577433 1.2115151e-21)
(0.34739699 -0.012002287 1.8374669e-22)
(0.36292965 -0.011435291 -3.2669166e-22)
(0.37830746 -0.01087855 -7.2445286e-22)
(0.39351013 -0.010333907 9.7179483e-22)
(0.4085192 -0.0098029566 8.2500091e-22)
(0.42331802 -0.0092870558 -1.5164993e-22)
(0.4378918 -0.0087873334 5.5322427e-22)
(0.45222754 -0.0083047047 -2.3883952e-22)
(0.46631406 -0.0078398848 -3.7085923e-22)
(0.48014195 -0.0073934047 -6.1019376e-22)
(0.49370352 -0.0069656282 4.4181171e-22)
(0.50699276 -0.0065567701 -1.5665672e-23)
(0.52000532 -0.0061669159 1.614473e-22)
(0.53273848 -0.0057960415 -4.4206166e-22)
(0.54519106 -0.0054440414 3.7232824e-22)
(0.55736378 -0.0051107383 6.7218115e-23)
(0.56925819 -0.0047959689 -1.0286102e-22)
(0.58088046 -0.0044994506 1.7645621e-22)
(0.59223039 -0.0042214155 2.3390133e-22)
(0.60333642 -0.0039608734 1.6971731e-22)
(0.61415301 -0.003721682 1.682398e-22)
(0.62487005 -0.0034942688 -2.6206036e-23)
(0.63501477 -0.0033151484 8.4605202e-23)
(0.64607973 -0.0030860853 7.6854492e-23)
(0.65398688 -0.0031370977 -1.9547035e-22)
(0.67028127 -0.0026178244 -3.793106e-23)
(0.067617384 -0.024029997 9.4530691e-21)
(0.073592668 -0.026749979 3.2952306e-21)
(0.082268865 -0.028806578 -1.2162647e-20)
(0.091951581 -0.029969581 -1.2258856e-21)
(0.1019874 -0.030769005 1.4971048e-20)
(0.112551 -0.031332095 -1.4887528e-20)
(0.12368114 -0.031637335 -2.9843182e-20)
(0.13530254 -0.031714328 1.4494017e-20)
(0.14736326 -0.031609015 1.8182584e-20)
(0.15983037 -0.031351489 -1.1598919e-20)
(0.17266822 -0.030963306 1.0190873e-21)
(0.18583917 -0.03046429 8.6861466e-21)
(0.19930697 -0.029872138 -1.5254139e-20)
(0.21303653 -0.029201874 2.909939e-21)
(0.22699329 -0.028466442 7.5197924e-21)
(0.24114321 -0.027677234 3.1349593e-23)
(0.25545297 -0.026844334 2.65408e-22)
(0.26988996 -0.02597672 -7.4155068e-21)
(0.28442236 -0.025082435 3.8621797e-21)
(0.29901926 -0.024168738 8.4754398e-21)
(0.31365071 -0.023242202 -3.8354269e-21)
(0.32828788 -0.022308794 -2.2131417e-21)
(0.34290316 -0.021373931 1.0124142e-21)
(0.35747023 -0.020442518 -1.7157124e-21)
(0.37196421 -0.019518986 1.3533024e-21)
(0.38636172 -0.018607303 7.1850414e-22)
(0.40064097 -0.017711001 1.5272897e-21)
(0.41478178 -0.016833185 -1.9531514e-21)
(0.4287657 -0.015976551 2.2241754e-21)
(0.44257595 -0.015143403 5.5202625e-22)
(0.45619752 -0.014335671 4.0359426e-22)
(0.46961707 -0.01355493 3.2138526e-22)
(0.48282302 -0.012802424 8.7370074e-22)
(0.49580542 -0.012079095 -1.3715868e-21)
(0.50855601 -0.011385604 3.7089906e-22)
(0.52106814 -0.010722366 1.0967106e-22)
(0.53333673 -0.010089581 -4.5263586e-23)
(0.54535829 -0.0094872687 8.6632267e-23)
(0.55713084 -0.0089153092 -3.7217622e-22)
(0.56865423 -0.0083734647 1.8318305e-22)
(0.57992914 -0.0078615188 -3.5012024e-23)
(0.59096078 -0.0073790553 3.9088936e-22)
(0.60174816 -0.0069265089 -1.8588537e-22)
(0.61231833 -0.0065022906 4.7404167e-23)
(0.62262606 -0.0061128092 4.3763988e-23)
(0.63285584 -0.0057423489 -7.3888286e-23)
(0.64254707 -0.0054509592 -1.2158181e-22)
(0.65314828 -0.0050775182 3.9003708e-22)
(0.66070707 -0.0051621404 1.7343129e-22)
(0.67638298 -0.004315966 -8.3138521e-22)
(0.15021949 -0.031461655 1.5010851e-21)
(0.15355142 -0.03525872 -1.1566799e-20)
(0.16062113 -0.038012347 6.6442759e-21)
(0.16881123 -0.039480612 -1.3325069e-20)
(0.17698802 -0.040522286 -1.9758818e-21)
(0.18552971 -0.041303959 9.1602678e-21)
(0.19459096 -0.041758995 -9.7666578e-21)
(0.20409423 -0.041915546 1.5661914e-21)
(0.21399559 -0.041835241 1.290418e-20)
(0.22428452 -0.041556319 3.4033972e-21)
(0.23494174 -0.041104099 -6.2098889e-21)
(0.24594014 -0.040502572 -2.8640027e-21)
(0.25725228 -0.039773939 -5.8409449e-21)
(0.26885062 -0.038937311 -6.4556289e-21)
(0.28070661 -0.038009296 3.2355934e-21)
(0.29279094 -0.037004688 8.4597557e-22)
(0.30507404 -0.035936775 1.3681103e-21)
(0.31752633 -0.034817537 -3.3851746e-21)
(0.33011842 -0.033657829 -4.2432698e-21)
(0.34282128 -0.032467543 2.3618652e-21)
(0.3556065 -0.031255714 3.2255049e-21)
(0.36844642 -0.030030605 -1.5639139e-21)
(0.38131433 -0.028799766 1.5869095e-21)
(0.39418462 -0.027570077 -3.9137117e-22)
(0.40703285 -0.026347773 -3.9203199e-21)
(0.41983595 -0.025138472 -3.0335954e-21)
(0.43257224 -0.023947194 -1.9039311e-22)
(0.44522155 -0.022778372 4.2850849e-22)
(0.45776522 -0.021635877 -2.2109061e-21)
(0.47018621 -0.020523037 -8.5538964e-22)
(0.48246905 -0.01944266 2.2840111e-22)
(0.49459989 -0.018397062 -1.2503558e-21)
(0.50656647 -0.0173881 6.1525074e-24)
(0.51835811 -0.016417204 -4.2448002e-22)
(0.52996571 -0.015485419 -4.720377e-22)
(0.54138168 -0.014593443 -5.2049594e-22)
(0.55259996 -0.013741674 -8.4217153e-22)
(0.563616 -0.012930253 -5.4437823e-23)
(0.5744267 -0.01215913 -3.9178241e-24)
(0.58503074 -0.011428086 -5.2037485e-22)
(0.59542762 -0.010736927 -9.1534461e-23)
(0.60562127 -0.010085179 -3.3301228e-22)
(0.61560958 -0.0094735434 -4.3866538e-22)
(0.62541771 -0.0088999209 3.7938616e-22)
(0.63500096 -0.0083732246 1.4860664e-23)
(0.64453614 -0.0078719688 1.8305415e-22)
(0.65358017 -0.007478479 -1.3328205e-22)
(0.66351836 -0.0069727414 -2.6818933e-22)
(0.67057919 -0.0070901742 -4.3974829e-23)
(0.68536808 -0.0059451655 4.6290145e-22)
(0.25469148 -0.036554372 -2.0900826e-20)
(0.25447635 -0.041395232 4.7586918e-20)
(0.25907986 -0.044747495 1.0348289e-20)
(0.26509109 -0.046443982 -1.5765694e-20)
(0.27071675 -0.04771635 -2.0229229e-21)
(0.27652784 -0.048749908 2.623207e-21)
(0.2828439 -0.049415946 -1.6609537e-21)
(0.28958585 -0.04973042 -4.68627e-21)
(0.29670611 -0.049763842 -4.0160326e-21)
(0.30421561 -0.049559552 -1.2208005e-20)
(0.31211298 -0.049144274 1.789847e-20)
(0.32038088 -0.048543473 6.5223152e-21)
(0.32899924 -0.047781719 -1.6781076e-20)
(0.33794707 -0.046880855 1.0317699e-20)
(0.34720096 -0.045860218 8.3850407e-21)
(0.35673553 -0.044737311 -8.790198e-22)
(0.36652419 -0.043528147 -3.1221632e-21)
(0.37653965 -0.042247409 -3.8201354e-21)
(0.38675426 -0.040908604 -1.3894436e-21)
(0.39714031 -0.039524183 -1.2305958e-21)
(0.40767033 -0.03810564 -3.0261596e-21)
(0.41831735 -0.03666358 0)
(0.4290551 -0.035207762 -1.3454002e-21)
(0.43985821 -0.033747132 3.9312848e-21)
(0.45070233 -0.032289847 5.4059772e-21)
(0.46156431 -0.03084329 -9.4117863e-22)
(0.47242226 -0.029414088 -2.928149e-21)
(0.48325566 -0.028008131 3.0267113e-21)
(0.4940454 -0.026630586 2.5424129e-22)
(0.50477386 -0.025285928 3.4362421e-21)
(0.51542488 -0.023977964 -5.3465407e-22)
(0.52598382 -0.022709871 1.7178334e-21)
(0.53643753 -0.021484233 -8.0001403e-22)
(0.54677437 -0.020303088 2.9123676e-22)
(0.55698416 -0.019167973 -4.3437658e-22)
(0.56705818 -0.018079982 5.6257952e-22)
(0.57698917 -0.017039816 4.5747428e-22)
(0.5867713 -0.016047849 3.8291414e-22)
(0.59640016 -0.015104199 -9.6033723e-22)
(0.60587306 -0.014208765 6.8435643e-22)
(0.61518812 -0.013361475 -3.700477e-22)
(0.62434776 -0.012561892 -1.1052165e-21)
(0.63334862 -0.011811056 1.4106167e-21)
(0.6422136 -0.011106475 -6.2116552e-23)
(0.65089877 -0.010459488 -1.5861158e-22)
(0.65957137 -0.0098433442 -7.85314e-24)
(0.66781059 -0.0093609275 -1.2698548e-22)
(0.67692187 -0.0087387235 -4.6783245e-22)
(0.68336249 -0.0088877531 8.7835892e-22)
(0.69703953 -0.0074808419 -4.4389387e-23)
(0.37635864 -0.038370162 -1.7495536e-20)
(0.37171745 -0.04427234 1.2832264e-20)
(0.37287496 -0.048163844 2.9756357e-21)
(0.37591895 -0.050101194 -7.6355518e-21)
(0.37831422 -0.051672423 1.2056273e-20)
(0.38073236 -0.053044935 7.7916111e-21)
(0.38368594 -0.05403271 -1.2647936e-20)
(0.38711104 -0.05463588 -6.0681418e-21)
(0.39094027 -0.054920885 1.2697698e-20)
(0.39519407 -0.054930117 -1.5305624e-20)
(0.39988653 -0.054690599 -1.406361e-20)
(0.40500803 -0.054227836 1.4130337e-20)
(0.4105423 -0.053566941 6.819615e-21)
(0.41647163 -0.052731327 -4.2042762e-21)
(0.42277542 -0.051742491 -1.8543896e-21)
(0.42943018 -0.05062032 -4.0580775e-21)
(0.43641056 -0.049383369 5.304689e-21)
(0.44369003 -0.048048993 3.6683519e-21)
(0.45124137 -0.046633415 -3.2408922e-21)
(0.45903704 -0.045151785 3.1380784e-21)
(0.46704952 -0.043618236 2.766947e-21)
(0.47525164 -0.042045915 -3.2114126e-21)
(0.48361679 -0.040447008 3.705857e-22)
(0.49211913 -0.038832748 -3.2573312e-21)
(0.50073378 -0.037213429 7.2468105e-21)
(0.50943696 -0.035598412 6.1090083e-21)
(0.51820608 -0.033996139 8.1005983e-22)
(0.52701982 -0.032414146 -1.7686053e-21)
(0.53585824 -0.030859086 3.7033513e-21)
(0.54470277 -0.029336754 7.1907333e-21)
(0.55353627 -0.027852126 2.3054602e-21)
(0.56234304 -0.026409397 3.3177289e-21)
(0.57110881 -0.025012032 1.9963144e-21)
(0.57982075 -0.023662819 7.4596218e-22)
(0.58846744 -0.022363928 -2.6379883e-22)
(0.59703887 -0.021116977 2.7220134e-21)
(0.60552642 -0.019923101 6.2034356e-22)
(0.61392291 -0.018783024 2.9508272e-22)
(0.62222249 -0.017697152 5.627015e-23)
(0.63042101 -0.016665616 9.9087883e-22)
(0.63851512 -0.015688568 4.70559e-23)
(0.64650566 -0.014765712 4.4324046e-22)
(0.65438797 -0.013898511 -1.2640613e-22)
(0.66218247 -0.013084201 -2.7802202e-22)
(0.66984635 -0.012336451 -1.5259328e-22)
(0.67753579 -0.011623831 -4.2343606e-22)
(0.68485624 -0.011067717 1.6227418e-22)
(0.69301972 -0.010347531 -1.277206e-22)
(0.69875134 -0.010526584 -5.0094495e-22)
(0.71114485 -0.0089010963 2.4628509e-22)
(0.50928287 -0.03597662 3.6471097e-21)
(0.49953929 -0.042963121 -1.8958576e-20)
(0.49628482 -0.047386042 -2.3084539e-21)
(0.49556559 -0.049739465 5.4870544e-21)
(0.49417964 -0.05182085 3.0529389e-21)
(0.4927063 -0.053708337 -4.9767523e-23)
(0.49182334 -0.055190695 6.1899667e-21)
(0.49152607 -0.056268563 7.6253436e-21)
(0.49172378 -0.056993814 9.8582685e-21)
(0.49242342 -0.05739897 -1.1250411e-20)
(0.49364436 -0.057509811 -2.1580243e-20)
(0.49538175 -0.057352039 -3.9356184e-21)
(0.49761935 -0.056950864 1.5938808e-20)
(0.50033844 -0.056330852 1.2809496e-20)
(0.50351787 -0.055515686 -5.9067793e-21)
(0.50713358 -0.05452791 1.3815235e-21)
(0.51115935 -0.05338896 -3.6604608e-21)
(0.51556767 -0.052119228 2.2449089e-21)
(0.52033022 -0.050738052 -2.9124246e-22)
(0.52541837 -0.049263689 -1.8655523e-21)
(0.53080345 -0.047713309 7.8274063e-21)
(0.53645709 -0.046102989 -2.9324589e-22)
(0.54235148 -0.044447706 4.1834817e-22)
(0.5484596 -0.042761325 -6.5634722e-22)
(0.55475534 -0.041056601 -4.3034445e-21)
(0.56121368 -0.039345172 4.2090567e-21)
(0.5678108 -0.037637572 1.903243e-21)
(0.57452413 -0.035943242 -3.3087011e-21)
(0.58133245 -0.034270557 -4.1121189e-21)